Gromacs Runs On Most of All Computer Systems in water
11584
    1RU5    O5'    1   2.307   2.338   4.542 -0.0843  0.1445 -0.0204
    1RU5    H5T    2   2.301   2.422   4.589 -0.1286  0.4727 -0.6093
    1RU5    C5'    3   2.244   2.351   4.415  0.5562  0.2996 -0.2085
    1RU5   H5'1    4   2.290   2.294   4.335  3.0570  0.3570  1.1580
    1RU5   H5'2    5   2.252   2.457   4.394 -0.8596  0.6640  0.9702
    1RU5    C4'    6   2.090   2.321   4.412 -0.9970  0.5025 -0.6685
    1RU5    H4'    7   2.055   2.337   4.310  1.3329  1.7350 -1.2997
    1RU5    O4'    8   2.064   2.185   4.437 -0.8975  0.2647 -0.1642
    1RU5    C1'    9   1.936   2.187   4.505 -0.2331  0.5879  0.4349
    1RU5    H1'   10   1.849   2.195   4.440  0.4185 -0.2132 -0.5500
    1RU5     N1   11   1.921   2.055   4.575 -0.2711  0.2861  0.5252
    1RU5     C6   12   2.025   2.007   4.644 -0.1158 -0.1445  0.4798
    1RU5     H6   13   2.105   2.071   4.676  0.1173 -0.3810  0.3658
    1RU5     C5   14   2.024   1.878   4.688  0.5996  0.2501 -0.2455
    1RU5     H5   15   2.106   1.840   4.747 -0.8333 -2.9223 -0.2060
    1RU5     C4   16   1.911   1.791   4.667  0.1094  0.4364  0.1636
    1RU5     O4   17   1.897   1.681   4.724  0.1542  0.2644 -0.0841
    1RU5     N3   18   1.812   1.845   4.595 -0.1044  0.6728  0.3690
    1RU5     H3   19   1.734   1.782   4.581 -0.2241  0.4950  1.7599
    1RU5     C2   20   1.809   1.976   4.546  0.6297  0.0585  0.4800
    1RU5     O2   21   1.713   2.014   4.483 -0.1621 -1.0336  0.2446
    1RU5    C3'   22   2.014   2.405   4.517  0.3420 -0.5864  0.4254
    1RU5    H3'   23   2.084   2.458   4.582  0.6384 -0.2714 -0.1404
    1RU5    C2'   24   1.936   2.302   4.602 -0.3532  0.7407 -0.5924
    1RU5   H2'1   25   2.000   2.284   4.688 -1.7614  3.4763  1.0909
    1RU5    O2'   26   1.813   2.354   4.650  0.0911  0.1395  0.0194
    1RU5   HO'2   27   1.759   2.373   4.574  1.5308 -0.1669 -1.0994
    1RU5    O3'   28   1.918   2.488   4.450 -0.0376 -0.2398 -0.0340
    2RG3      P   29   1.959   2.619   4.366 -0.5463 -0.5756  0.5018
    2RG3    O1P   30   1.832   2.678   4.313 -0.2291  0.5635 -0.1081
    2RG3    O2P   31   2.070   2.590   4.272  0.2588 -0.1424  0.4061
    2RG3    O5'   32   2.018   2.719   4.473  0.0150 -0.0380  0.2924
    2RG3    C5'   33   1.945   2.790   4.573  0.2220 -0.6310  0.0177
    2RG3   H5'1   34   1.919   2.718   4.651  1.0543 -0.0533  0.8301
    2RG3   H5'2   35   1.851   2.826   4.531  0.2254 -0.3950  0.2155
    2RG3    C4'   36   2.012   2.915   4.628  0.2477  0.0647 -0.6615
    2RG3    H4'   37   1.941   2.964   4.696 -0.8995 -0.0771 -1.7440
    2RG3    O4'   38   2.128   2.883   4.703  0.1480  0.2860  0.4362
    2RG3    C1'   39   2.243   2.915   4.625  0.3584 -0.8051 -0.3322
    2RG3    H1'   40   2.299   2.988   4.683  0.0102 -1.8120  1.2903
    2RG3     N9   41   2.323   2.799   4.613 -0.0414  0.0019  0.6258
    2RG3     C8   42   2.284   2.672   4.637  0.0028 -0.3097  0.3575
    2RG3     H8   43   2.187   2.651   4.679 -0.3853 -0.4834 -0.6157
    2RG3     N7   44   2.375   2.583   4.627  0.2752  0.2439  0.2969
    2RG3     C5   45   2.489   2.655   4.582  0.1263  0.2758  0.1081
    2RG3     C6   46   2.619   2.612   4.548 -0.6188  0.4553 -0.7313
    2RG3     O6   47   2.661   2.498   4.540 -0.1070  0.4007 -0.7086
    2RG3     N1   48   2.705   2.717   4.521 -0.3777 -0.1525  0.5500
    2RG3     H1   49   2.801   2.688   4.514 -0.2350  0.3554  0.3809
    2RG3     C2   50   2.671   2.851   4.527 -0.4866 -0.4148 -0.4023
    2RG3     N2   51   2.775   2.934   4.519 -0.6340  0.1672 -0.1613
    2RG3    H21   52   2.864   2.904   4.481 -1.2677  0.7944 -2.2548
    2RG3    H22   53   2.760   3.033   4.534  0.5404  0.5003 -1.1504
    2RG3     N3   54   2.547   2.893   4.565  0.1302 -0.1405  0.3729
    2RG3     C4   55   2.463   2.788   4.585 -0.9344 -0.3367 -0.2163
    2RG3    C3'   56   2.060   3.020   4.518  0.1488  0.2436  0.0995
    2RG3    H3'   57   1.996   3.026   4.429 -0.8765 -0.2358  0.7946
    2RG3    C2'   58   2.197   2.968   4.486  0.1185  0.2660 -0.0333
    2RG3   H2'1   59   2.181   2.887   4.414 -0.2630  0.1045  0.2311
    2RG3    O2'   60   2.293   3.059   4.432 -0.6226  0.4297  0.2336
    2RG3   HO'2   61   2.352   3.001   4.384  0.4765  1.2604  0.5736
    2RG3    O3'   62   2.064   3.154   4.575  0.1080 -0.2960 -0.0780
    2RG3    H3T   63   1.978   3.173   4.613  0.7441 -0.5551  1.5432
    5SOL     OW   64   0.122   1.146   0.609  0.2588  0.6347 -0.4221
    5SOL    HW2   65   0.082   1.102   0.534  0.8162 -0.8965  0.1737
    5SOL    HW3   66   0.073   1.229   0.616  0.2041  0.8207 -2.4681
    5SOL    MW4   67   0.110   1.151   0.600  0.3251  0.4573 -0.6135
    6SOL     OW   68   3.288   2.848   0.474 -0.4437  0.0986 -0.2144
    6SOL    HW2   69   3.214   2.904   0.453 -2.0572 -1.3698  1.3595
    6SOL    HW3   70   3.263   2.762   0.441  0.4664 -0.4509  0.5010
    6SOL    MW4   71   3.275   2.844   0.467 -0.5362 -0.1676  0.0877
    7SOL     OW   72   1.790   3.084   0.238  0.0847 -0.3608 -0.3275
    7SOL    HW2   73   1.852   3.011   0.246 -0.4983 -0.7970  0.2602
    7SOL    HW3   74   1.705   3.042   0.224  0.1350  0.2728 -2.6769
    7SOL    MW4   75   1.787   3.069   0.237  0.0145 -0.3347 -0.5599
    8SOL     OW   76   3.434   0.662   0.500 -0.2485  0.1089  0.2719
    8SOL    HW2   77   3.399   0.631   0.583  1.3895  0.5257  1.1476
    8SOL    HW3   78   3.381   0.739   0.478 -0.3430  0.3177  1.2094
    8SOL    MW4   79   3.423   0.668   0.508 -0.0451  0.1914  0.5112
    9SOL     OW   80   1.358   3.968   1.214 -0.3804  0.2467 -0.1882
    9SOL    HW2   81   1.337   4.061   1.208 -0.8267  0.0449 -2.0487
    9SOL    HW3   82   1.276   3.923   1.194 -0.1361 -0.5537  0.5808
    9SOL    MW4   83   1.345   3.975   1.210 -0.4070  0.1144 -0.3322
   10SOL     OW   84   1.388   1.428   0.454 -0.2499  0.2878  0.6615
   10SOL    HW2   85   1.358   1.499   0.397 -0.5016 -1.1228 -0.9902
   10SOL    HW3   86   1.308   1.381   0.479  0.0580 -0.3092  0.5402
   10SOL    MW4   87   1.374   1.431   0.450 -0.2426  0.0229  0.4276
   11SOL     OW   88   1.348   0.474   0.861  0.4322 -0.0489 -0.5708
   11SOL    HW2   89   1.296   0.549   0.888  0.4572  0.2391 -1.2992
   11SOL    HW3   90   1.352   0.417   0.938  1.2672  1.1587  0.2877
   11SOL    MW4   91   1.342   0.476   0.875  0.5457  0.1485 -0.5537
   12SOL     OW   92   1.439   2.662   0.120  0.1626 -0.1601  0.0063
   12SOL    HW2   93   1.516   2.671   0.176  0.4594  0.6527 -0.5363
   12SOL    HW3   94   1.446   2.573   0.084  1.3018  0.2184 -0.7168
   12SOL    MW4   95   1.450   2.651   0.122  0.3520 -0.0031 -0.1607
   13SOL     OW   96   2.618   3.629   0.716 -0.0094  0.0228 -0.3526
   13SOL    HW2   97   2.614   3.614   0.621  0.1208 -1.7851 -0.0841
   13SOL    HW3   98   2.535   3.596   0.749  0.8763 -1.4890  0.4281
   13SOL    MW4   99   2.607   3.622   0.708  0.1245 -0.4153 -0.2142
   14SOL     OW  100   2.973   0.683   0.602  0.0149  0.5038 -0.1901
   14SOL    HW2  101   2.994   0.713   0.514 -1.0080 -0.3785 -0.7527
   14SOL    HW3  102   3.040   0.721   0.658  1.0367  0.5516 -1.4441
   14SOL    MW4  103   2.984   0.692   0.598  0.0145  0.3937 -0.4298
   15SOL     OW  104   0.076   3.147   0.505  0.0264  0.1813  0.0302
   15SOL    HW2  105   0.114   3.066   0.469  0.5280  0.3730  0.1195
   15SOL    HW3  106  -0.009   3.120   0.540  0.5300 -0.4744  0.7632
   15SOL    MW4  107   0.070   3.133   0.505  0.1590  0.1202  0.1387
   16SOL     OW  108   4.280   3.101   1.139  0.2369 -0.7481 -0.3090
   16SOL    HW2  109   4.202   3.143   1.175 -0.0802 -1.0480 -0.6441
   16SOL    HW3  110   4.263   3.097   1.045  0.9520 -0.1888 -0.4714
   16SOL    MW4  111   4.268   3.106   1.131  0.2894 -0.7138 -0.3746
   17SOL     OW  112   3.915   4.151   0.493  0.3236  0.5076  0.4934
   17SOL    HW2  113   3.841   4.190   0.540 -0.5900 -0.9462  0.2842
   17SOL    HW3  114   3.879   4.123   0.409  1.2130  0.2045  0.1985
   17SOL    MW4  115   3.901   4.152   0.488  0.3204  0.2751  0.4269
   18SOL     OW  116   0.318   0.580   0.796  0.5656 -0.2504 -0.2442
   18SOL    HW2  117   0.326   0.571   0.701 -0.1017  1.6379 -0.4978
   18SOL    HW3  118   0.277   0.665   0.809 -1.1425 -1.3277  1.6952
   18SOL    MW4  119   0.314   0.590   0.785  0.2522 -0.1433 -0.0218
   19SOL     OW  120   3.371   0.548   0.746  0.2737 -0.5204 -0.4065
   19SOL    HW2  121   3.440   0.503   0.795 -0.8203 -0.9766  0.7670
   19SOL    HW3  122   3.301   0.483   0.739  0.5913 -0.6315 -3.0550
   19SOL    MW4  123   3.371   0.534   0.752  0.1712 -0.5953 -0.6012
   20SOL     OW  124   1.788   0.303   0.359  0.5006  0.4685  0.2188
   20SOL    HW2  125   1.860   0.265   0.308  0.2805  1.2972 -0.7146
   20SOL    HW3  126   1.779   0.392   0.325 -1.9070 -0.0823 -0.6628
   20SOL    MW4  127   1.797   0.310   0.348  0.1538  0.5052 -0.0207
   21SOL     OW  128   2.248   3.822   0.757  0.8868 -0.0767 -0.5766
   21SOL    HW2  129   2.185   3.834   0.686  0.3940 -2.0917 -0.5103
   21SOL    HW3  130   2.194   3.810   0.835  1.2864 -2.5444 -0.6316
   21SOL    MW4  131   2.232   3.822   0.758  0.8745 -0.6678 -0.5751
   22SOL     OW  132   0.838   3.703   0.401  0.0105 -0.2801  0.1344
   22SOL    HW2  133   0.761   3.738   0.447 -0.8341 -1.6403 -0.1947
   22SOL    HW3  134   0.910   3.715   0.462 -0.7965 -0.5656  1.1572
   22SOL    MW4  135   0.837   3.709   0.415 -0.2074 -0.4971  0.2259
   23SOL     OW  136   4.049   2.397   1.207 -0.1582 -0.0056  0.3272
   23SOL    HW2  137   4.054   2.400   1.303 -1.3524  1.5643  0.3473
   23SOL    HW3  138   3.960   2.367   1.188  0.2691 -0.9105 -0.2988
   23SOL    MW4  139   4.038   2.393   1.217 -0.2594  0.0820  0.2474
   24SOL     OW  140   3.844   4.009   0.860  0.2660  0.4220  0.9049
   24SOL    HW2  141   3.854   3.964   0.776 -0.0354 -0.3406  1.2785
   24SOL    HW3  142   3.759   4.054   0.853 -0.0442 -0.1417  1.0333
   24SOL    MW4  143   3.834   4.009   0.848  0.1855  0.2470  0.9712
   25SOL     OW  144   3.278   4.277   0.528  0.0486  0.1734  0.4711
   25SOL    HW2  145   3.191   4.318   0.533 -0.0014  0.2112 -0.6514
   25SOL    HW3  146   3.261   4.183   0.538  0.0526  0.3013  1.8881
   25SOL    MW4  147   3.264   4.270   0.530  0.0424  0.1950  0.5100
   26SOL     OW  148   2.286   1.175   0.835  0.0204 -0.1504  0.0368
   26SOL    HW2  149   2.316   1.266   0.832 -0.6485  0.1401  1.4416
   26SOL    HW3  150   2.192   1.180   0.815  0.3783 -0.7655 -1.8533
   26SOL    MW4  151   2.277   1.187   0.832 -0.0205 -0.1932 -0.0273
   27SOL     OW  152   1.743   0.590   0.297  0.0873 -0.1968  0.3929
   27SOL    HW2  153   1.694   0.617   0.375 -1.3315  1.6295 -1.0882
   27SOL    HW3  154   1.824   0.641   0.301  0.2865 -0.5501  0.9664
   27SOL    MW4  155   1.748   0.601   0.308 -0.0738 -0.0024  0.2731
   28SOL     OW  156   2.843   2.938   0.259  0.2136  0.3108 -0.2173
   28SOL    HW2  157   2.865   2.856   0.302 -0.8119  0.4461  0.5955
   28SOL    HW3  158   2.798   2.913   0.179  0.8492  0.0648 -0.4929
   28SOL    MW4  159   2.840   2.924   0.254  0.1621  0.2961 -0.1464
   29SOL     OW  160   3.777   3.109   0.852  0.8100 -0.3350 -0.3448
   29SOL    HW2  161   3.779   3.118   0.947 -0.4546 -0.6311 -0.2810
   29SOL    HW3  162   3.690   3.140   0.827  0.4460 -2.0101 -1.2124
   29SOL    MW4  163   3.766   3.114   0.861  0.5951 -0.5949 -0.4508
   30SOL     OW  164   2.275   0.870   1.180 -0.0835 -0.4102 -0.4065
   30SOL    HW2  165   2.283   0.964   1.164  0.2592 -0.2607  0.6404
   30SOL    HW3  166   2.186   0.848   1.152 -1.0077  0.6897  1.6368
   30SOL    MW4  167   2.264   0.879   1.174 -0.1602 -0.2454  0.0011
   31SOL     OW  168   0.186   2.318   0.799  0.2479  0.2671 -0.1058
   31SOL    HW2  169   0.205   2.328   0.892  0.4490 -0.8572 -0.0293
   31SOL    HW3  170   0.186   2.408   0.765 -0.9682  0.7702  1.1923
   31SOL    MW4  171   0.189   2.332   0.807  0.1140  0.1850  0.0756
   32SOL     OW  172   2.728   0.043   0.667 -0.2518  0.0161 -0.1044
   32SOL    HW2  173   2.664   0.028   0.597  0.5257 -0.1912 -0.7850
   32SOL    HW3  174   2.719   0.136   0.688 -1.4491 -0.2143  0.4877
   32SOL    MW4  175   2.718   0.053   0.661 -0.3071 -0.0417 -0.1161
   33SOL     OW  176   1.558   4.586   0.826 -0.1016 -0.0674 -0.5858
   33SOL    HW2  177   1.480   4.634   0.796  0.3225  0.5089 -0.7822
   33SOL    HW3  178   1.552   4.589   0.922 -0.8492 -0.9025 -0.6048
   33SOL    MW4  179   1.547   4.593   0.835 -0.1442 -0.1016 -0.6142
   34SOL     OW  180   3.481   0.134   0.820 -0.2818  0.0689  0.1052
   34SOL    HW2  181   3.392   0.102   0.808 -0.3155  0.7781 -1.5673
   34SOL    HW3  182   3.529   0.104   0.743  0.5042  1.1646  0.1478
   34SOL    MW4  183   3.476   0.126   0.808 -0.1826  0.3070 -0.1099
   35SOL     OW  184   3.418   2.469   0.354 -0.5347  0.0014  0.6000
   35SOL    HW2  185   3.443   2.499   0.267  0.8997 -0.4195  0.8469
   35SOL    HW3  186   3.332   2.509   0.370 -0.4506  0.7200 -0.6731
   35SOL    MW4  187   3.410   2.478   0.345 -0.3345  0.0408  0.4646
   36SOL     OW  188   2.686   1.963   1.133 -0.1725  0.3481 -0.1116
   36SOL    HW2  189   2.692   1.971   1.038  0.7390  0.7841 -0.0198
   36SOL    HW3  190   2.755   2.021   1.167 -1.2156  1.0730  0.8360
   36SOL    MW4  191   2.696   1.972   1.125 -0.1900  0.5014  0.0254
   37SOL     OW  192   2.254   0.327   0.844 -0.2321 -0.0729  0.0813
   37SOL    HW2  193   2.326   0.379   0.807  0.0195 -1.5857 -1.6406
   37SOL    HW3  194   2.175   0.374   0.817  0.0477  0.5076  0.2635
   37SOL    MW4  195   2.253   0.340   0.835 -0.1619 -0.1959 -0.1219
   38SOL     OW  196   0.954   2.017   0.819 -0.7163  0.3690  0.4209
   38SOL    HW2  197   0.933   1.989   0.908 -0.5874 -1.3755 -0.0791
   38SOL    HW3  198   0.869   2.038   0.780 -0.8874 -0.0131  0.5839
   38SOL    MW4  199   0.940   2.016   0.826 -0.7219  0.0885  0.3764
   39SOL     OW  200   4.333   0.090   0.842  0.0104  0.0377 -0.3358
   39SOL    HW2  201   4.273   0.074   0.769 -1.3666  0.2875  0.7166
   39SOL    HW3  202   4.297   0.038   0.914  1.6209 -0.5842  0.0510
   39SOL    MW4  203   4.320   0.081   0.842  0.0415 -0.0114 -0.1460
   40SOL     OW  204   3.841   1.561   0.848  0.0485 -0.2913  0.1856
   40SOL    HW2  205   3.898   1.493   0.810 -1.0415 -1.5250  0.7212
   40SOL    HW3  206   3.854   1.553   0.942 -1.3681 -0.9075  0.3406
   40SOL    MW4  207   3.850   1.551   0.855 -0.2820 -0.5352  0.2767
   41SOL     OW  208   0.221   2.313   1.080  0.3317 -0.3551 -0.3411
   41SOL    HW2  209   0.139   2.363   1.089 -0.9934 -2.5505  0.1265
   41SOL    HW3  210   0.211   2.241   1.142  2.6959 -0.5980 -0.2113
   41SOL    MW4  211   0.209   2.310   1.090  0.4688 -0.6769 -0.2621
   42SOL     OW  212   1.879   1.880   0.339 -0.4179  0.0705  0.0361
   42SOL    HW2  213   1.835   1.957   0.377 -0.9173 -1.0070  1.7191
   42SOL    HW3  214   1.971   1.892   0.359 -0.7807 -0.9258  2.4762
   42SOL    MW4  215   1.885   1.892   0.347 -0.5317 -0.2031  0.5801
   43SOL     OW  216   2.875   2.831   1.202  0.0246  0.2723  0.1690
   43SOL    HW2  217   2.896   2.827   1.296  1.1103 -1.4780 -0.1133
   43SOL    HW3  218   2.953   2.796   1.159 -0.6593  0.5961 -1.3613
   43SOL    MW4  219   2.888   2.826   1.209  0.0777  0.0839 -0.0700
   44SOL     OW  220   0.915   3.463   1.129  0.1531 -0.5817  0.1574
   44SOL    HW2  221   0.926   3.371   1.153  1.1504 -0.3160  0.7578
   44SOL    HW3  222   0.871   3.461   1.044  2.2714 -1.6444 -0.9472
   44SOL    MW4  223   0.911   3.450   1.121  0.5641 -0.6866  0.0908
   45SOL     OW  224   3.170   2.489   0.663 -0.2032 -0.3490  0.5187
   45SOL    HW2  225   3.238   2.448   0.717 -1.3671 -0.8881  1.5876
   45SOL    HW3  226   3.147   2.569   0.711  0.0672  0.1149 -0.1236
   45SOL    MW4  227   3.176   2.494   0.677 -0.3214 -0.3591  0.5750
   46SOL     OW  228   2.862   1.559   0.782  0.1350 -0.2527  0.7849
   46SOL    HW2  229   2.884   1.566   0.875  0.1255  0.8611  0.7161
   46SOL    HW3  230   2.785   1.502   0.780  0.5471 -0.8343  1.3979
   46SOL    MW4  231   2.855   1.552   0.794  0.1884 -0.1826  0.8566
   47SOL     OW  232   3.392   0.797   0.858 -0.2545 -0.5367  0.0432
   47SOL    HW2  233   3.388   0.710   0.818 -1.0294 -0.2664 -0.4931
   47SOL    HW3  234   3.379   0.780   0.952 -1.3343 -0.9315 -0.1607
   47SOL    MW4  235   3.390   0.783   0.865 -0.4992 -0.5531 -0.0545
   48SOL     OW  236   3.835   0.877   0.744 -0.1418 -0.0783 -0.1585
   48SOL    HW2  237   3.866   0.813   0.808  1.5438  1.3052  0.4561
   48SOL    HW3  238   3.751   0.906   0.779 -0.7928 -1.7405 -0.3005
   48SOL    MW4  239   3.828   0.872   0.757 -0.0052 -0.1151 -0.0962
   49SOL     OW  240   1.594   0.753   0.838  0.1660  0.1142  0.0514
   49SOL    HW2  241   1.605   0.666   0.799  3.3555  0.3826  0.2093
   49SOL    HW3  242   1.668   0.803   0.805  0.4057  1.7183  2.8649
   49SOL    MW4  243   1.605   0.748   0.828  0.6185  0.3613  0.4435
   50SOL     OW  244   1.520   2.990   0.268 -0.0285  0.4797  0.2970
   50SOL    HW2  245   1.559   2.903   0.281 -1.2471 -0.0221  0.6672
   50SOL    HW3  246   1.496   3.019   0.356  0.0037  1.0159  0.1283
   50SOL    MW4  247   1.522   2.982   0.281 -0.1850  0.4842  0.3236
   51SOL     OW  248   0.546   3.311   0.460 -0.2345  0.2030 -0.4546
   51SOL    HW2  249   0.633   3.333   0.427  0.9969 -0.4852  2.1114
   51SOL    HW3  250   0.554   3.219   0.486 -2.1034 -0.2102 -1.2756
   51SOL    MW4  251   0.559   3.301   0.459 -0.3186  0.0577 -0.2244
   52SOL     OW  252   4.455   0.208   0.325 -0.2548  0.3064  0.3438
   52SOL    HW2  253   4.527   0.238   0.380  1.0318  2.0753 -2.2143
   52SOL    HW3  254   4.381   0.264   0.351 -0.0157  0.2480  1.1644
   52SOL    MW4  255   4.455   0.220   0.335 -0.0534  0.5321  0.1146
   53SOL     OW  256   0.220   0.824   0.845  0.4374  0.5477  0.5092
   53SOL    HW2  257   0.286   0.874   0.796 -0.8370  0.7872 -1.0249
   53SOL    HW3  258   0.143   0.882   0.847 -0.6705 -0.8523 -0.2643
   53SOL    MW4  259   0.218   0.838   0.838  0.1231  0.3946  0.2047
   54SOL     OW  260   0.425   0.127   1.224 -0.5981  0.1602 -0.4661
   54SOL    HW2  261   0.358   0.069   1.190 -0.1814 -0.6792  0.1305
   54SOL    HW3  262   0.506   0.077   1.217 -0.1430  0.9093 -0.5493
   54SOL    MW4  263   0.427   0.113   1.219 -0.4831  0.1483 -0.3983
   55SOL     OW  264   3.182   3.318   0.379  0.1290 -0.0964 -0.2105
   55SOL    HW2  265   3.093   3.351   0.389 -0.1828 -0.8750 -0.3549
   55SOL    HW3  266   3.225   3.339   0.462 -0.5113 -0.6819  0.2720
   55SOL    MW4  267   3.176   3.325   0.391  0.0033 -0.2763 -0.1659
   56SOL     OW  268   3.612   2.476   1.199 -0.9655 -0.0915 -0.3111
   56SOL    HW2  269   3.597   2.457   1.292 -0.7937  0.0198 -0.2611
   56SOL    HW3  270   3.530   2.452   1.157 -1.2133  0.3041 -0.0648
   56SOL    MW4  271   3.599   2.470   1.206 -0.9754 -0.0246 -0.2720
   57SOL     OW  272   0.127   2.892   0.370 -0.3583 -0.0321 -0.1131
   57SOL    HW2  273   0.169   2.806   0.376 -1.2797 -0.3467  2.4327
   57SOL    HW3  274   0.033   2.873   0.370 -0.5839  0.8908 -1.8308
   57SOL    MW4  275   0.120   2.878   0.370 -0.5097  0.0482 -0.0039
   58SOL     OW  276   3.729   3.554   0.755 -0.5929  0.1021  0.0676
   58SOL    HW2  277   3.670   3.628   0.742 -0.8366 -0.1572 -0.3348
   58SOL    HW3  278   3.764   3.536   0.668 -1.5583 -1.1017 -0.0909
   58SOL    MW4  279   3.726   3.562   0.742 -0.7524 -0.0908 -0.0064
   59SOL     OW  280   2.037   3.661   1.119 -0.0138 -0.3787  0.3727
   59SOL    HW2  281   2.026   3.659   1.214 -2.1068 -3.2608  0.1448
   59SOL    HW3  282   2.104   3.595   1.102  1.7361  1.4665 -0.0390
   59SOL    MW4  283   2.044   3.652   1.129 -0.0594 -0.5155  0.2884
   60SOL     OW  284   1.313   4.011   0.627 -0.2701  0.1106 -0.1584
   60SOL    HW2  285   1.241   4.052   0.579 -0.7437  0.4547  0.8268
   60SOL    HW3  286   1.270   3.948   0.685  0.2037  0.4236  0.5410
   60SOL    MW4  287   1.298   4.008   0.628 -0.2700  0.1974  0.0640
   61SOL     OW  288   0.681   3.590   1.202 -0.1291  0.5648 -0.0752
   61SOL    HW2  289   0.773   3.570   1.186 -0.9925 -3.7615 -0.2026
   61SOL    HW3  290   0.673   3.593   1.298 -0.2175 -1.1297 -0.0166
   61SOL    MW4  291   0.692   3.588   1.213 -0.2547 -0.2294 -0.0843
   62SOL     OW  292   3.775   4.389   0.651  0.0394  0.0347  0.1062
   62SOL    HW2  293   3.696   4.403   0.703 -1.0534  2.1055 -2.0079
   62SOL    HW3  294   3.841   4.444   0.693 -0.6211  1.0557 -0.1400
   62SOL    MW4  295   3.773   4.398   0.663 -0.1922  0.4425 -0.2053
   63SOL     OW  296   2.893   2.374   1.075  0.0552 -0.0224  0.5525
   63SOL    HW2  297   2.814   2.412   1.113 -0.7032 -0.7079 -0.3115
   63SOL    HW3  298   2.904   2.291   1.120 -0.2446 -0.3505  0.0245
   63SOL    MW4  299   2.884   2.368   1.086 -0.0844 -0.1559  0.3690
   64SOL     OW  300   3.969   4.536   0.784  0.1453  0.3280 -0.2903
   64SOL    HW2  301   4.056   4.519   0.749 -0.0635 -0.1861 -0.5512
   64SOL    HW3  302   3.983   4.551   0.878  0.5547  0.5810 -0.3914
   64SOL    MW4  303   3.982   4.536   0.792  0.1719  0.2937 -0.3380
   65SOL     OW  304   1.698   1.366   0.437 -0.4755  0.3321  0.1138
   65SOL    HW2  305   1.603   1.355   0.443 -0.4427 -0.7417 -1.2525
   65SOL    HW3  306   1.710   1.456   0.407 -1.0277  0.6964  0.9470
   65SOL    MW4  307   1.687   1.377   0.434 -0.5440  0.2385  0.0435
   66SOL     OW  308   3.441   3.906   0.889  0.2007  0.0777  0.0421
   66SOL    HW2  309   3.355   3.941   0.868  0.0244  0.6506  1.6690
   66SOL    HW3  310   3.445   3.905   0.985  2.6605  1.7334  0.0038
   66SOL    MW4  311   3.430   3.910   0.899  0.5019  0.3717  0.2517
   67SOL     OW  312   2.530   2.338   0.822 -0.4318  0.6400 -0.1377
   67SOL    HW2  313   2.525   2.255   0.774 -0.0731  0.3761  0.2815
   67SOL    HW3  314   2.465   2.329   0.892 -0.2906  0.6531 -0.0047
   67SOL    MW4  315   2.521   2.326   0.825 -0.3657  0.6068 -0.0648
   68SOL     OW  316   2.737   2.489   0.459 -0.7111  0.1876  0.1315
   68SOL    HW2  317   2.798   2.428   0.500 -0.0086 -0.1776 -1.4254
   68SOL    HW3  318   2.652   2.467   0.497 -0.1652 -0.5134  0.9622
   68SOL    MW4  319   2.734   2.478   0.469 -0.5465  0.0467  0.0357
   69SOL     OW  320   2.461   0.489   1.177 -0.2751 -0.0857 -0.1167
   69SOL    HW2  321   2.470   0.583   1.164  0.4403  0.0783  1.4674
   69SOL    HW3  322   2.461   0.478   1.272  1.7341 -1.8745 -0.3013
   69SOL    MW4  323   2.462   0.500   1.188  0.0842 -0.3000  0.0681
   70SOL     OW  324   3.598   1.959   0.827  1.0205  0.0117  0.5112
   70SOL    HW2  325   3.575   1.972   0.919  1.2317 -1.0765  0.7266
   70SOL    HW3  326   3.673   1.900   0.829  0.7756 -0.3458 -0.3732
   70SOL    MW4  327   3.605   1.953   0.839  1.0161 -0.1791  0.4230
   71SOL     OW  328   4.047   4.196   0.839 -0.1689  0.1473  0.2949
   71SOL    HW2  329   3.986   4.122   0.836  1.7221 -1.3926 -1.8409
   71SOL    HW3  330   4.004   4.265   0.789  0.0721 -1.1297 -1.7085
   71SOL    MW4  331   4.033   4.195   0.832  0.1125 -0.2251 -0.2512
   72SOL     OW  332   4.106   3.686   0.665 -0.4605 -0.1139 -0.0571
   72SOL    HW2  333   4.075   3.613   0.719 -0.1893 -0.7489 -0.7609
   72SOL    HW3  334   4.030   3.744   0.658 -0.8106 -0.5437  0.1317
   72SOL    MW4  335   4.092   3.684   0.671 -0.4711 -0.2542 -0.1250
   73SOL     OW  336   4.244   1.949   0.311 -0.0665 -0.0823  0.2514
   73SOL    HW2  337   4.216   1.926   0.223 -0.0702 -0.4059  0.3352
   73SOL    HW3  338   4.165   1.977   0.356  0.2384  1.9927 -0.4298
   73SOL    MW4  339   4.230   1.950   0.305 -0.0267  0.1487  0.1726
   74SOL     OW  340   3.320   2.093   1.212 -0.2868  0.2967 -0.0816
   74SOL    HW2  341   3.320   2.180   1.171 -0.3388 -0.3740 -1.5236
   74SOL    HW3  342   3.255   2.043   1.163 -0.5296 -0.4592  0.9917
   74SOL    MW4  343   3.311   2.098   1.200 -0.3259  0.1082 -0.1302
   75SOL     OW  344   0.803   3.430   0.429  0.8021 -0.0388 -0.1720
   75SOL    HW2  345   0.836   3.515   0.399  1.1353  0.0547  0.4496
   75SOL    HW3  346   0.834   3.423   0.520  1.1695 -1.0226 -0.3655
   75SOL    MW4  347   0.812   3.440   0.437  0.8945 -0.1564 -0.1155
   76SOL     OW  348   0.927   1.946   1.088  0.6767  0.1912  0.3879
   76SOL    HW2  349   1.000   1.992   1.130  1.3948 -2.0268  1.6708
   76SOL    HW3  350   0.849   1.990   1.122  1.3636  1.4569  0.3698
   76SOL    MW4  351   0.927   1.958   1.098  0.8621  0.0657  0.5548
   77SOL     OW  352   3.561   3.921   0.567  0.6140 -0.1831  1.0060
   77SOL    HW2  353   3.524   3.843   0.609 -1.2440 -0.1091 -0.4040
   77SOL    HW3  354   3.570   3.984   0.638 -2.6822  0.0178  1.3599
   77SOL    MW4  355   3.557   3.919   0.582 -0.0660 -0.1469  0.8667
   78SOL     OW  356   0.966   1.073   0.862 -0.1879  0.3017  0.0341
   78SOL    HW2  357   0.982   0.984   0.832 -1.0622  0.5748 -1.3009
   78SOL    HW3  358   1.046   1.121   0.839  0.6505 -0.3272  1.5834
   78SOL    MW4  359   0.979   1.068   0.855 -0.1926  0.2548  0.0624
   79SOL     OW  360   1.812   0.875   0.484 -0.5007  0.0615 -0.4974
   79SOL    HW2  361   1.879   0.816   0.450  0.0518  0.5839 -0.3222
   79SOL    HW3  362   1.732   0.822   0.485  0.3795 -1.3011  1.4982
   79SOL    MW4  363   1.810   0.860   0.479 -0.3116 -0.0494 -0.2110
   80SOL     OW  364   3.382   1.179   0.469 -0.3052  0.3340 -0.1393
   80SOL    HW2  365   3.317   1.248   0.481  0.0100  0.7831 -0.9617
   80SOL    HW3  366   3.435   1.209   0.396 -1.1403 -1.5521 -1.5467
   80SOL    MW4  367   3.381   1.192   0.461 -0.3741  0.1444 -0.4335
   81SOL     OW  368   2.951   2.327   0.600  0.3068 -0.2024  0.0595
   81SOL    HW2  369   2.910   2.300   0.682 -0.4127  0.1720 -0.1672
   81SOL    HW3  370   3.025   2.381   0.626  0.6510 -0.8733  0.4768
   81SOL    MW4  371   2.956   2.331   0.614  0.2573 -0.2415  0.0846
   82SOL     OW  372   1.346   0.038   0.471  0.1078  0.0896  0.0917
   82SOL    HW2  373   1.434   0.074   0.468  0.6496 -1.1061  1.1610
   82SOL    HW3  374   1.290   0.108   0.438  1.3146  1.3031  0.5855
   82SOL    MW4  375   1.350   0.052   0.466  0.3384  0.0920  0.2979
   83SOL     OW  376   3.818   0.783   1.146 -0.2706  0.2955 -0.1655
   83SOL    HW2  377   3.899   0.826   1.176 -0.2901  1.0283 -1.1392
   83SOL    HW3  378   3.818   0.699   1.191  0.7784  0.5017  0.2423
   83SOL    MW4  379   3.829   0.778   1.156 -0.1347  0.4194 -0.2401
   84SOL     OW  380   1.419   1.148   0.892 -0.3280 -0.2937  0.2913
   84SOL    HW2  381   1.345   1.182   0.841  0.1712  0.7917  0.2735
   84SOL    HW3  382   1.392   1.162   0.983  0.0526  0.5553  0.2798
   84SOL    MW4  383   1.405   1.155   0.897 -0.2120 -0.0385  0.2875
   85SOL     OW  384   1.616   2.708   0.597 -0.4300 -0.0057  0.0019
   85SOL    HW2  385   1.697   2.688   0.645 -1.6864  0.4388  2.3978
   85SOL    HW3  386   1.582   2.623   0.570  1.3505 -0.1440 -1.9749
   85SOL    MW4  387   1.622   2.694   0.600 -0.3608  0.0346  0.0572
   86SOL     OW  388   0.673   0.390   0.216 -0.4322 -0.3851 -0.5206
   86SOL    HW2  389   0.608   0.435   0.270 -0.2163 -0.2054 -0.4075
   86SOL    HW3  390   0.661   0.426   0.128  0.3452  0.5527 -0.2423
   86SOL    MW4  391   0.663   0.400   0.212 -0.3011 -0.2377 -0.4690
   87SOL     OW  392   2.015   1.177   0.732 -0.3219  0.4308  0.6915
   87SOL    HW2  393   1.980   1.152   0.646 -1.0505  0.7232  0.8954
   87SOL    HW3  394   1.946   1.152   0.794 -0.2330  1.1583  1.0851
   87SOL    MW4  395   2.001   1.170   0.729 -0.4060  0.5654  0.7704
   88SOL     OW  396   3.237   4.051   0.171  0.3197 -0.1476 -0.0862
   88SOL    HW2  397   3.300   4.109   0.213 -1.0941  1.0042  0.4880
   88SOL    HW3  398   3.264   4.048   0.080  1.2056  0.3141  0.1557
   88SOL    MW4  399   3.249   4.058   0.165  0.2501  0.0658  0.0214
   89SOL     OW  400   0.000   0.999   0.813  0.0413  0.4013 -0.0361
   89SOL    HW2  401  -0.005   1.063   0.884  1.9359  0.6930 -0.1176
   89SOL    HW3  402   0.037   1.048   0.740  0.7142 -0.5641 -0.3586
   89SOL    MW4  403   0.004   1.014   0.813  0.3796  0.3123 -0.0894
   90SOL     OW  404   0.011   1.414   0.695 -0.3849  0.4432 -0.2950
   90SOL    HW2  405  -0.071   1.435   0.740 -1.3341 -2.0053 -0.7783
   90SOL    HW3  406   0.080   1.445   0.754 -1.6387  2.3760  0.1983
   90SOL    MW4  407   0.009   1.421   0.709 -0.6754  0.3750 -0.2937
   91SOL     OW  408   2.499   0.745   1.085 -0.2475 -0.2913  0.3776
   91SOL    HW2  409   2.498   0.729   0.990  0.1694 -0.1917  0.3541
   91SOL    HW3  410   2.417   0.792   1.102 -1.0870 -1.7269  0.3257
   91SOL    MW4  411   2.488   0.749   1.075 -0.3033 -0.4676  0.3676
   92SOL     OW  412   0.331   0.758   0.210 -0.0564  0.1769 -0.4054
   92SOL    HW2  413   0.351   0.774   0.118  0.1485 -0.7549 -0.5268
   92SOL    HW3  414   0.386   0.819   0.258 -1.7177  2.1829 -0.9648
   92SOL    MW4  415   0.341   0.768   0.204 -0.2485  0.3186 -0.4952
   93SOL     OW  416   1.913   1.129   0.471  0.2100  0.3538  0.1271
   93SOL    HW2  417   1.872   1.044   0.455  1.2824 -0.0668 -0.4871
   93SOL    HW3  418   1.845   1.193   0.452 -0.5974 -0.3708  0.5753
   93SOL    MW4  419   1.899   1.126   0.466  0.2450  0.2028  0.1052
   94SOL     OW  420   0.013   1.518   0.436 -0.2147 -0.1105  0.1614
   94SOL    HW2  421  -0.056   1.585   0.439  1.1527  1.3373 -0.3390
   94SOL    HW3  422   0.020   1.488   0.527 -2.2541 -1.0725  0.0366
   94SOL    MW4  423   0.005   1.523   0.449 -0.3028 -0.0464  0.0789
   95SOL     OW  424   1.150   2.078   1.187 -0.0251 -0.1785  0.1515
   95SOL    HW2  425   1.142   2.083   1.282 -1.1675  1.2196  0.0002
   95SOL    HW3  426   1.149   2.169   1.158  0.7103 -0.5825 -1.1749
   95SOL    MW4  427   1.149   2.090   1.195 -0.0789 -0.0474 -0.0434
   96SOL     OW  428   1.615   1.593   0.855  0.0613 -0.8359  0.3043
   96SOL    HW2  429   1.605   1.542   0.935 -0.1245 -0.6337  0.4100
   96SOL    HW3  430   1.665   1.536   0.797 -1.5139 -1.7607 -0.1614
   96SOL    MW4  431   1.620   1.579   0.858 -0.1712 -0.9311  0.2568
   97SOL     OW  432   4.000   0.284   0.411 -0.5045 -0.1673  0.0155
   97SOL    HW2  433   4.001   0.188   0.404 -1.3952 -0.2023  0.3885
   97SOL    HW3  434   3.992   0.301   0.504  0.9084  0.2918  0.0765
   97SOL    MW4  435   3.999   0.273   0.422 -0.4354 -0.1114  0.0728
   98SOL     OW  436   3.166   1.648   0.386  0.7326  0.0851 -0.1481
   98SOL    HW2  437   3.258   1.662   0.410  0.3196  0.2609  1.4010
   98SOL    HW3  438   3.151   1.555   0.402  0.7149  0.0050 -0.6447
   98SOL    MW4  439   3.176   1.638   0.391  0.6759  0.0978 -0.0092
   99SOL     OW  440   2.976   4.140   0.351  0.6769  0.5602  0.1219
   99SOL    HW2  441   3.003   4.231   0.340  0.2962  0.7031  0.3692
   99SOL    HW3  442   3.037   4.090   0.297  0.6322  0.9976 -0.3348
   99SOL    MW4  443   2.987   4.145   0.342  0.6208  0.6371  0.0943
  100SOL     OW  444   1.681   3.228   0.815  0.0206  0.0564  0.2687
  100SOL    HW2  445   1.715   3.279   0.889  0.1833 -0.7771  0.7795
  100SOL    HW3  446   1.745   3.241   0.745  0.2852  0.2015  0.5379
  100SOL    MW4  447   1.694   3.237   0.816  0.0769 -0.0346  0.3716
  101SOL     OW  448   3.303   3.312   0.618 -0.0981  0.4687 -0.3303
  101SOL    HW2  449   3.295   3.250   0.690 -0.5055 -0.3192 -1.0462
  101SOL    HW3  450   3.377   3.281   0.567  0.7032  1.4908  0.1902
  101SOL    MW4  451   3.312   3.300   0.621 -0.0463  0.4995 -0.3560
  102SOL     OW  452   3.437   4.231   0.285 -0.1642 -0.1314 -0.0759
  102SOL    HW2  453   3.498   4.300   0.262 -0.7575 -0.0995 -1.6144
  102SOL    HW3  454   3.388   4.267   0.359 -0.1872  0.9418 -0.5934
  102SOL    MW4  455   3.438   4.245   0.292 -0.2453  0.0143 -0.3472
  103SOL     OW  456   3.152   4.266   1.162 -0.0885  0.3190  0.5431
  103SOL    HW2  457   3.141   4.257   1.067 -1.0955  0.1393  0.6786
  103SOL    HW3  458   3.229   4.322   1.171 -0.7215  1.3641 -0.3934
  103SOL    MW4  459   3.161   4.272   1.151 -0.3049  0.4334  0.4375
  104SOL     OW  460   0.795   3.526   0.885 -0.3413  0.1056 -0.1944
  104SOL    HW2  461   0.775   3.617   0.864 -1.0712  0.1022  0.4740
  104SOL    HW3  462   0.714   3.478   0.868  0.0480 -0.4328 -0.5818
  104SOL    MW4  463   0.782   3.531   0.880 -0.3862  0.0341 -0.1573
  105SOL     OW  464   2.895   1.836   0.741  0.0208  0.6287  0.0327
  105SOL    HW2  465   2.879   1.746   0.770  0.1235  0.9897  1.2635
  105SOL    HW3  466   2.921   1.828   0.650 -1.9009 -0.4286 -0.4390
  105SOL    MW4  467   2.897   1.823   0.733 -0.2191  0.5368  0.1329
  106SOL     OW  468   3.610   0.112   0.574 -0.0432 -0.5972  0.2748
  106SOL    HW2  469   3.636   0.185   0.518 -2.4225 -0.7201 -1.0710
  106SOL    HW3  470   3.636   0.033   0.525  0.3612 -0.6713  0.6106
  106SOL    MW4  471   3.617   0.111   0.560 -0.3037 -0.6232  0.1415
  107SOL     OW  472   3.353   2.344   0.807  0.4639 -0.4178 -0.1928
  107SOL    HW2  473   3.425   2.406   0.812 -0.3427  0.6855 -1.8007
  107SOL    HW3  474   3.372   2.291   0.730 -0.9679  0.6077 -1.2843
  107SOL    MW4  475   3.365   2.346   0.797  0.1688 -0.1369 -0.5489
  108SOL     OW  476   0.710   1.804   0.584  0.0373 -0.3818  0.5062
  108SOL    HW2  477   0.773   1.732   0.576 -1.4302 -1.7317  0.9123
  108SOL    HW3  478   0.632   1.773   0.539 -0.5897  1.0220  0.5849
  108SOL    MW4  479   0.708   1.791   0.577 -0.2390 -0.3748  0.5702
  109SOL     OW  480   0.996   0.836   0.488 -0.1550  0.1579  0.0473
  109SOL    HW2  481   1.069   0.891   0.458 -0.1393  0.2962  0.3398
  109SOL    HW3  482   1.033   0.747   0.491  0.0387  0.2466  0.3179
  109SOL    MW4  483   1.011   0.831   0.484 -0.1273  0.1879  0.1215
  110SOL     OW  484   1.106   3.616   0.583 -0.0068  0.4583  0.2465
  110SOL    HW2  485   1.127   3.685   0.645  0.3271 -0.0452  0.6954
  110SOL    HW3  486   1.182   3.611   0.526 -0.5165  1.2571 -0.5188
  110SOL    MW4  487   1.119   3.625   0.584 -0.0299  0.4973  0.2047
  111SOL     OW  488   1.745   0.101   0.740 -0.0690 -0.2864 -0.6301
  111SOL    HW2  489   1.688   0.040   0.787  0.1114  0.0104 -0.0310
  111SOL    HW3  490   1.696   0.120   0.659  0.0613 -1.5339 -1.0194
  111SOL    MW4  491   1.731   0.096   0.735 -0.0281 -0.4118 -0.6024
  112SOL     OW  492   2.498   4.640   0.850 -0.0911  0.0611 -0.0251
  112SOL    HW2  493   2.494   4.672   0.940 -0.0218 -0.3345  0.1202
  112SOL    HW3  494   2.575   4.683   0.813  1.8184 -2.2557  1.1012
  112SOL    MW4  495   2.508   4.650   0.857  0.1702 -0.2966  0.1427
  113SOL     OW  496   1.161   2.716   0.173  0.4493 -0.0882 -0.5044
  113SOL    HW2  497   1.152   2.812   0.174 -0.1183 -0.1413  0.3834
  113SOL    HW3  498   1.253   2.701   0.151  0.4491  0.6567 -1.0198
  113SOL    MW4  499   1.172   2.727   0.171  0.3744  0.0029 -0.4553
  114SOL     OW  500   2.051   4.232   0.660  0.3198 -0.0073 -0.0224
  114SOL    HW2  501   2.101   4.171   0.605 -0.5833 -2.3243  1.6239
  114SOL    HW3  502   1.978   4.179   0.693 -1.5814  2.5170 -0.0723
  114SOL    MW4  503   2.048   4.217   0.657 -0.0503  0.0205  0.1882
  115SOL     OW  504   3.828   1.143   0.426  0.3383  0.3479  0.6951
  115SOL    HW2  505   3.773   1.147   0.503 -0.2059 -0.1685  0.3342
  115SOL    HW3  506   3.783   1.197   0.361 -1.0853 -2.1184 -0.4333
  115SOL    MW4  507   3.815   1.150   0.427  0.0784 -0.0457  0.4986
  116SOL     OW  508   1.967   4.657   1.117 -0.0167  0.4362 -0.5539
  116SOL    HW2  509   1.962   4.632   1.024  0.2433  0.8785 -0.6890
  116SOL    HW3  510   1.983   4.574   1.163  1.0074  0.3627 -1.0128
  116SOL    MW4  511   1.969   4.642   1.110  0.1528  0.4849 -0.6323
  117SOL     OW  512   1.544   4.339   1.200  0.1387 -0.3848 -0.3603
  117SOL    HW2  513   1.476   4.286   1.159 -0.3422  0.5900 -0.8358
  117SOL    HW3  514   1.523   4.337   1.293 -0.4737 -0.1826 -0.4921
  117SOL    MW4  515   1.532   4.332   1.207 -0.0055 -0.2294 -0.4406
  118SOL     OW  516   2.135   1.906   0.512  0.3739 -0.4400 -0.3418
  118SOL    HW2  517   2.197   1.833   0.509  1.4893  0.5263 -2.0163
  118SOL    HW3  518   2.188   1.983   0.491 -1.4278  0.3680 -2.0890
  118SOL    MW4  519   2.150   1.907   0.509  0.2832 -0.2059 -0.7933
  119SOL     OW  520   4.482   0.381   1.094 -0.0195  0.2402  0.2728
  119SOL    HW2  521   4.508   0.419   1.010 -1.5297 -0.0933 -0.3582
  119SOL    HW3  522   4.403   0.428   1.119 -0.0135 -0.1933  1.1396
  119SOL    MW4  523   4.475   0.392   1.086 -0.2179  0.1390  0.3039
  120SOL     OW  524   0.030   4.205   1.080 -0.2006  0.6471  0.3327
  120SOL    HW2  525   0.107   4.248   1.117  0.5798  1.4282 -2.0960
  120SOL    HW3  526   0.043   4.210   0.985 -1.9102 -1.6850 -0.0662
  120SOL    MW4  527   0.042   4.212   1.072 -0.3232  0.4425 -0.0403
  121SOL     OW  528   4.075   1.272   0.478 -0.4506 -0.2094 -0.1346
  121SOL    HW2  529   3.989   1.231   0.472 -1.0668  0.8684  0.9050
  121SOL    HW3  530   4.123   1.219   0.542  0.4901 -2.1579 -2.3760
  121SOL    MW4  531   4.070   1.260   0.486 -0.4072 -0.3242 -0.2931
  122SOL     OW  532   3.530   3.202   0.822  0.3197  0.3833 -0.2452
  122SOL    HW2  533   3.452   3.149   0.838  0.2881  0.4740 -0.1043
  122SOL    HW3  534   3.504   3.291   0.844  0.6165  0.3399  0.2928
  122SOL    MW4  535   3.516   3.207   0.827  0.3545  0.3896 -0.1556
  123SOL     OW  536   2.941   3.417   0.496 -0.2321  0.3851 -0.3321
  123SOL    HW2  537   2.947   3.513   0.487 -1.0406  0.4184 -0.5834
  123SOL    HW3  538   2.960   3.401   0.588 -0.3541  0.8161 -0.2276
  123SOL    MW4  539   2.944   3.428   0.507 -0.3550  0.4463 -0.3514
  124SOL     OW  540   0.500   0.930   1.198  0.0128 -0.1680 -0.2219
  124SOL    HW2  541   0.430   0.881   1.154  0.0836 -0.2559 -0.2378
  124SOL    HW3  542   0.478   0.924   1.291 -0.4874  0.5610 -0.2863
  124SOL    MW4  543   0.488   0.923   1.204 -0.0438 -0.0833 -0.2323
  125SOL     OW  544   3.099   1.116   0.787  0.2560  0.4389  0.2994
  125SOL    HW2  545   3.096   1.202   0.745  1.2444  0.3934  0.1247
  125SOL    HW3  546   3.122   1.134   0.878  1.6896  0.2823 -0.0171
  125SOL    MW4  547   3.102   1.130   0.794  0.5755  0.4122  0.2346
  126SOL     OW  548   2.272   3.256   0.730 -0.4210  0.0368  0.1104
  126SOL    HW2  549   2.217   3.183   0.759  0.5060 -2.0376 -2.9781
  126SOL    HW3  550   2.346   3.257   0.791 -1.0226 -0.8816  0.8610
  126SOL    MW4  551   2.275   3.246   0.742 -0.3781 -0.3581 -0.1981
  127SOL     OW  552   0.904   2.570   0.263  0.1853 -0.2419  0.3108
  127SOL    HW2  553   0.970   2.612   0.208 -1.0348  0.8506 -0.3302
  127SOL    HW3  554   0.851   2.642   0.297 -1.2644 -1.1741  0.0835
  127SOL    MW4  555   0.906   2.585   0.260 -0.1670 -0.2208  0.1962
  128SOL     OW  556   3.857   3.916   1.122  0.7340  0.8088 -0.4875
  128SOL    HW2  557   3.854   3.933   1.028  2.5374  2.2009 -0.3173
  128SOL    HW3  558   3.816   3.830   1.132  0.1739  0.8170 -2.4977
  128SOL    MW4  559   3.851   3.907   1.111  0.8984  0.9937 -0.7304
  129SOL     OW  560   4.057   3.574   0.183  0.1468  0.2260  0.2741
  129SOL    HW2  561   4.017   3.658   0.205 -1.2988 -0.5890  0.8444
  129SOL    HW3  562   4.072   3.578   0.089 -0.0665  1.0500  0.2701
  129SOL    MW4  563   4.054   3.585   0.174 -0.0720  0.2272  0.3488
  130SOL     OW  564   2.357   2.737   0.626 -0.0362 -0.1540  0.0368
  130SOL    HW2  565   2.439   2.784   0.609  0.3454 -1.4723 -1.9355
  130SOL    HW3  566   2.379   2.645   0.611 -2.1432 -0.4202 -1.6777
  130SOL    MW4  567   2.371   2.731   0.622 -0.2639 -0.3629 -0.4496
  131SOL     OW  568   2.916   4.417   1.217 -0.2286 -0.7026 -0.3683
  131SOL    HW2  569   2.837   4.366   1.195 -1.0168 -0.4431  1.6890
  131SOL    HW3  570   2.989   4.360   1.193 -1.0735 -1.5336 -1.0117
  131SOL    MW4  571   2.915   4.403   1.211 -0.4439 -0.7777 -0.1818
  132SOL     OW  572   3.068   0.473   0.311 -0.1268 -0.2007 -0.3454
  132SOL    HW2  573   3.163   0.467   0.320  0.0716 -0.4646 -2.4069
  132SOL    HW3  574   3.051   0.566   0.296 -0.2673 -0.0427  0.7964
  132SOL    MW4  575   3.078   0.485   0.310 -0.1192 -0.2147 -0.4667
  133SOL     OW  576   0.778   1.131   0.645  0.2073 -0.4257 -0.2173
  133SOL    HW2  577   0.840   1.125   0.717  0.4835 -2.0924 -0.5663
  133SOL    HW3  578   0.693   1.145   0.687  0.6833  0.9434  0.3027
  133SOL    MW4  579   0.775   1.132   0.660  0.3065 -0.4649 -0.1947
  134SOL     OW  580   1.351   1.918   1.084 -0.5500 -0.1031 -0.1219
  134SOL    HW2  581   1.349   1.943   0.992 -0.0467  2.0203  0.4274
  134SOL    HW3  582   1.274   1.959   1.122  0.8186  1.5022  1.0002
  134SOL    MW4  583   1.341   1.927   1.077 -0.3030  0.3889  0.0986
  135SOL     OW  584   1.764   2.368   0.406 -0.0616  0.1990 -0.1869
  135SOL    HW2  585   1.673   2.398   0.408 -0.5194 -1.2022  0.8849
  135SOL    HW3  586   1.759   2.281   0.367  0.7983  0.0384  0.0618
  135SOL    MW4  587   1.751   2.361   0.401 -0.0085 -0.0069 -0.0127
  136SOL     OW  588   3.088   3.044   0.423 -0.5964  0.2493 -0.1575
  136SOL    HW2  589   3.051   3.022   0.338 -0.2022  0.5079 -0.3974
  136SOL    HW3  590   3.133   3.127   0.410 -0.1173  0.0505  0.1790
  136SOL    MW4  591   3.089   3.052   0.410 -0.4811  0.2573 -0.1447
  137SOL     OW  592   3.278   3.991   0.542 -0.6062  0.0769 -0.1992
  137SOL    HW2  593   3.225   3.928   0.493 -0.9666 -0.1867  0.5197
  137SOL    HW3  594   3.365   3.953   0.542 -0.7206 -0.1889 -0.1748
  137SOL    MW4  595   3.282   3.977   0.535 -0.6688  0.0069 -0.1011
  138SOL     OW  596   0.100   0.454   0.856  0.3711 -0.0010  0.3756
  138SOL    HW2  597   0.029   0.505   0.814 -1.1483 -2.3530 -0.0076
  138SOL    HW3  598   0.180   0.499   0.829 -0.8830  1.7450 -0.5774
  138SOL    MW4  599   0.101   0.467   0.847  0.0052 -0.0809  0.1993
  139SOL     OW  600   1.810   0.911   0.779  0.5758  0.3131 -0.3243
  139SOL    HW2  601   1.888   0.863   0.803  0.2225 -0.5533 -0.8959
  139SOL    HW3  602   1.809   0.911   0.683  0.2007  0.8411 -0.3276
  139SOL    MW4  603   1.820   0.905   0.770  0.4797  0.2684 -0.4001
  140SOL     OW  604   4.458   1.680   1.206 -0.3381  0.6716  0.2809
  140SOL    HW2  605   4.536   1.630   1.184 -0.9212  0.5593 -1.6542
  140SOL    HW3  606   4.385   1.626   1.176 -1.1684  0.8681  1.8567
  140SOL    MW4  607   4.459   1.666   1.199 -0.5246  0.6826  0.2334
  141SOL     OW  608   3.120   2.747   1.122 -0.2178  0.3427 -0.3797
  141SOL    HW2  609   3.204   2.770   1.161 -1.1698  2.2085  0.6297
  141SOL    HW3  610   3.115   2.652   1.131  0.7693  0.4568  1.6685
  141SOL    MW4  611   3.130   2.737   1.129 -0.2131  0.6042  0.0237
  142SOL     OW  612   3.595   4.106   0.806 -0.1840  0.1351 -0.1268
  142SOL    HW2  613   3.555   4.193   0.819 -0.5363 -0.1526  0.7903
  142SOL    HW3  614   3.532   4.045   0.845 -0.2291 -0.5960 -1.3174
  142SOL    MW4  615   3.581   4.110   0.813 -0.2365  0.0005 -0.1628
  143SOL     OW  616   2.253   3.496   1.058  0.0897  0.0280  0.1218
  143SOL    HW2  617   2.299   3.550   1.122  0.6612 -1.0375  0.6088
  143SOL    HW3  618   2.310   3.495   0.981  0.3160 -0.3135  0.2971
  143SOL    MW4  619   2.266   3.503   1.056  0.1948 -0.1574  0.2092
  144SOL     OW  620   0.772   2.065   0.528  0.2323 -0.2497 -0.0144
  144SOL    HW2  621   0.858   2.084   0.491  0.0672  0.5190 -0.0168
  144SOL    HW3  622   0.769   1.970   0.536  1.1753 -0.2598  0.2187
  144SOL    MW4  623   0.783   2.055   0.524  0.3349 -0.1495  0.0161
  145SOL     OW  624   0.772   0.376   0.597  0.1281  0.2021  0.3175
  145SOL    HW2  625   0.712   0.308   0.628  1.6493 -1.9112 -1.2686
  145SOL    HW3  626   0.833   0.389   0.670  0.1723 -0.5262  0.4082
  145SOL    MW4  627   0.772   0.369   0.611  0.3346 -0.1728  0.1202
  146SOL     OW  628   1.643   3.752   0.269 -0.1843 -0.5676 -0.1152
  146SOL    HW2  629   1.698   3.712   0.337 -0.2359  0.5782  0.6159
  146SOL    HW3  630   1.693   3.740   0.188 -0.0690 -1.8453  0.1263
  146SOL    MW4  631   1.657   3.745   0.268 -0.1760 -0.5853  0.0131
  147SOL     OW  632   0.899   0.122   1.232 -0.4910  0.4426  0.0674
  147SOL    HW2  633   0.911   0.116   1.327  1.4689 -0.5791 -0.2095
  147SOL    HW3  634   0.814   0.079   1.216 -0.5372  0.0564  1.2910
  147SOL    MW4  635   0.889   0.115   1.243 -0.2386  0.2569  0.1924
  148SOL     OW  636   4.032   2.673   1.152  0.8875 -0.5285  0.3896
  148SOL    HW2  637   4.025   2.578   1.162 -1.1839 -0.5600 -0.9423
  148SOL    HW3  638   4.014   2.689   1.059 -1.3799  1.3579  1.1085
  148SOL    MW4  639   4.029   2.663   1.141  0.3147 -0.2837  0.3089
  149SOL     OW  640   1.593   0.500   0.726 -0.3849  0.2642  0.0419
  149SOL    HW2  641   1.511   0.485   0.773 -0.1378 -0.9420  0.1224
  149SOL    HW3  642   1.656   0.443   0.771  0.4518  1.0532 -0.1237
  149SOL    MW4  643   1.591   0.490   0.738 -0.2419  0.2091  0.0306
  150SOL     OW  644   4.457   2.124   0.458  0.1470 -0.3059  0.3926
  150SOL    HW2  645   4.389   2.074   0.411 -0.0420  1.1591 -0.9235
  150SOL    HW3  646   4.539   2.082   0.432 -0.0797 -0.5234  0.0188
  150SOL    MW4  647   4.459   2.112   0.448  0.0920 -0.1411  0.1696
  151SOL     OW  648   2.909   0.427   0.702 -0.5424 -0.0195 -0.0486
  151SOL    HW2  649   2.916   0.516   0.669 -0.9165 -0.1066 -0.3627
  151SOL    HW3  650   2.902   0.373   0.623  2.3076 -0.5666  0.0001
  151SOL    MW4  651   2.909   0.431   0.687 -0.2158 -0.1032 -0.0836
  152SOL     OW  652   3.109   1.962   1.087  0.2473  0.7913 -0.1172
  152SOL    HW2  653   3.126   1.941   0.995 -0.4617 -0.8201  0.1073
  152SOL    HW3  654   3.122   1.880   1.134 -1.5614  1.0722  0.9222
  152SOL    MW4  655   3.113   1.949   1.081 -0.0849  0.6158  0.0495
  153SOL     OW  656   1.823   2.614   0.752 -0.1621 -0.0409 -0.2025
  153SOL    HW2  657   1.788   2.542   0.805 -0.8928  1.0623  0.8474
  153SOL    HW3  658   1.890   2.573   0.698 -0.2864 -1.4447  0.6677
  153SOL    MW4  659   1.827   2.599   0.752 -0.2749 -0.0806  0.0508
  154SOL     OW  660   1.959   0.491   1.212  0.0699  0.2506 -0.3067
  154SOL    HW2  661   2.039   0.457   1.172  0.6138  1.0822  0.0459
  154SOL    HW3  662   1.982   0.501   1.305  0.2002  2.2824 -0.5209
  154SOL    MW4  663   1.973   0.488   1.219  0.1588  0.6283 -0.2884
  155SOL     OW  664   0.567   3.065   0.557  0.4558 -0.3760 -0.2150
  155SOL    HW2  665   0.549   3.082   0.649  0.3633 -1.1234 -0.0969
  155SOL    HW3  666   0.657   3.034   0.555  0.8911  0.8721 -0.5230
  155SOL    MW4  667   0.576   3.063   0.569  0.5009 -0.3099 -0.2401
  156SOL     OW  668   1.448   0.502   0.190 -0.0058  0.2233  0.0713
  156SOL    HW2  669   1.540   0.522   0.172  0.8722 -2.6239  1.1175
  156SOL    HW3  670   1.441   0.407   0.178 -2.9137  0.4326 -0.3629
  156SOL    MW4  671   1.459   0.492   0.186 -0.2737 -0.1247  0.1520
  157SOL     OW  672   0.836   4.168   0.816 -0.1268 -0.1893  0.3734
  157SOL    HW2  673   0.887   4.243   0.786 -0.1014 -0.3148  0.1001
  157SOL    HW3  674   0.873   4.093   0.769  0.0123 -0.4111  0.8309
  157SOL    MW4  675   0.848   4.168   0.806 -0.1050 -0.2351  0.3977
  158SOL     OW  676   3.723   4.577   0.430  0.2566 -0.2004  0.0036
  158SOL    HW2  677   3.748   4.514   0.497 -0.0627  0.3890  0.6870
  158SOL    HW3  678   3.729   4.529   0.348  2.4057 -0.4155  0.2714
  158SOL    MW4  679   3.727   4.562   0.428  0.4983 -0.1512  0.1291
  159SOL     OW  680   0.427   2.394   0.446 -0.1235 -0.0145 -0.2227
  159SOL    HW2  681   0.487   2.436   0.508 -0.8160 -1.7254  1.6922
  159SOL    HW3  682   0.484   2.340   0.390  0.2248 -1.3049  1.3113
  159SOL    MW4  683   0.443   2.392   0.447 -0.1689 -0.4103  0.2323
  160SOL     OW  684   1.330   3.147   0.167 -0.1886  0.1473 -0.0451
  160SOL    HW2  685   1.399   3.084   0.190 -0.0624  1.0730  2.2432
  160SOL    HW3  686   1.341   3.161   0.073  1.7882 -0.8717  0.0066
  160SOL    MW4  687   1.341   3.140   0.158  0.0888  0.1352  0.2636
  161SOL     OW  688   2.263   1.948   1.107 -0.3970 -0.2491 -0.3749
  161SOL    HW2  689   2.177   1.989   1.118  0.1587  0.6852  0.5442
  161SOL    HW3  690   2.283   1.960   1.014 -0.0983  1.9062 -0.0610
  161SOL    MW4  691   2.255   1.955   1.096 -0.2842  0.1584 -0.2124
  162SOL     OW  692   2.991   3.144   0.870 -0.1787 -0.2375 -0.4311
  162SOL    HW2  693   2.966   3.100   0.950 -0.2146 -2.1034 -1.4378
  162SOL    HW3  694   3.084   3.123   0.859 -0.6602 -1.6890 -1.9082
  162SOL    MW4  695   3.000   3.136   0.879 -0.2470 -0.6752 -0.7588
  163SOL     OW  696   4.265   2.325   0.825  0.2638  0.0381  0.3685
  163SOL    HW2  697   4.327   2.260   0.793  1.1575  1.0085  0.0859
  163SOL    HW3  698   4.262   2.310   0.919 -2.5449 -2.9729 -0.1387
  163SOL    MW4  699   4.273   2.315   0.833  0.0114 -0.2313  0.2643
  164SOL     OW  700   0.590   2.511   0.641 -0.4991 -0.2649  0.4094
  164SOL    HW2  701   0.565   2.590   0.689  0.0818 -0.6518  1.3752
  164SOL    HW3  702   0.621   2.451   0.709  2.2374 -0.1032 -0.6100
  164SOL    MW4  703   0.591   2.514   0.657 -0.0615 -0.2949  0.4023
  165SOL     OW  704   2.495   2.078   0.702 -0.0522  0.0096  0.1205
  165SOL    HW2  705   2.412   2.047   0.737  0.0206  0.0056  0.2892
  165SOL    HW3  706   2.560   2.020   0.742 -0.1694 -1.4604 -1.7485
  165SOL    MW4  707   2.493   2.066   0.712 -0.0582 -0.1845 -0.1039
  166SOL     OW  708   3.126   0.370   1.071  0.0413 -0.3896  0.2565
  166SOL    HW2  709   3.110   0.279   1.095  1.0305 -0.6689 -0.1302
  166SOL    HW3  710   3.137   0.369   0.976 -0.3784  0.1981  0.1962
  166SOL    MW4  711   3.126   0.358   1.061  0.1166 -0.3489  0.1975
  167SOL     OW  712   2.547   0.026   0.455 -0.0084 -0.2184 -0.3344
  167SOL    HW2  713   2.557  -0.064   0.423 -0.1518 -0.1674 -0.5174
  167SOL    HW3  714   2.453   0.037   0.467  0.0088 -0.0866 -0.3218
  167SOL    MW4  715   2.536   0.015   0.453 -0.0250 -0.1943 -0.3569
  168SOL     OW  716   1.976   4.630   0.837  0.0517 -0.1356  0.2368
  168SOL    HW2  717   1.918   4.693   0.797  0.5378  0.7514  0.9102
  168SOL    HW3  718   2.063   4.649   0.800  0.4324  0.4454  1.4030
  168SOL    MW4  719   1.980   4.641   0.827  0.1662  0.0577  0.4796
  169SOL     OW  720   4.192   3.824   0.427  0.3314  0.0146  0.1230
  169SOL    HW2  721   4.275   3.783   0.402 -0.2948 -1.1980  0.0513
  169SOL    HW3  722   4.170   3.786   0.512 -0.6990 -0.4877 -0.3526
  169SOL    MW4  723   4.200   3.814   0.435  0.1130 -0.2117  0.0508
  170SOL     OW  724   1.671   2.856   1.189  0.2703 -0.0655 -0.2447
  170SOL    HW2  725   1.716   2.816   1.114  0.7743  0.1754 -0.0707
  170SOL    HW3  726   1.661   2.948   1.164 -1.2752 -0.3725 -0.8300
  170SOL    MW4  727   1.676   2.863   1.176  0.1329 -0.0741 -0.2989
  171SOL     OW  728   0.265   2.670   0.134  0.4890  0.3643  0.2942
  171SOL    HW2  729   0.299   2.759   0.137 -0.5401  0.8402 -1.7228
  171SOL    HW3  730   0.224   2.662   0.048 -0.3822 -1.7093  0.8616
  171SOL    MW4  731   0.264   2.680   0.123  0.2383  0.1533  0.1029
  172SOL     OW  732   0.375   4.549   0.493 -0.1566 -0.4156  0.1857
  172SOL    HW2  733   0.389   4.641   0.470  0.8778 -0.8569 -0.9867
  172SOL    HW3  734   0.280   4.537   0.489 -0.2744  0.5168  0.0529
  172SOL    MW4  735   0.364   4.559   0.490 -0.0357 -0.3510  0.0135
  173SOL     OW  736   1.913   1.727   0.623 -0.1214  0.6600 -0.0800
  173SOL    HW2  737   1.849   1.716   0.553 -0.8514  0.4746  0.6103
  173SOL    HW3  738   1.979   1.785   0.585  1.0614 -1.8256 -1.9532
  173SOL    MW4  739   1.913   1.733   0.608 -0.0618  0.3077 -0.2361
  174SOL     OW  740   4.368   1.269   0.399 -0.8017 -0.4359 -0.0250
  174SOL    HW2  741   4.282   1.312   0.398 -0.5147  0.1737  0.4757
  174SOL    HW3  742   4.430   1.341   0.388 -0.3382 -0.8269  0.0160
  174SOL    MW4  743   4.365   1.285   0.397 -0.7029 -0.4070  0.0464
  175SOL     OW  744   3.831   3.438   0.516  0.2064  0.6152  0.0806
  175SOL    HW2  745   3.910   3.413   0.468  0.0918  1.1546 -0.3887
  175SOL    HW3  746   3.772   3.363   0.505  1.0573 -0.2801  1.3789
  175SOL    MW4  747   3.833   3.425   0.509  0.3035  0.5682  0.1900
  176SOL     OW  748   2.347   1.048   0.588  0.2537  0.1121 -0.0336
  176SOL    HW2  749   2.318   1.070   0.677 -0.8753 -1.3414 -0.0348
  176SOL    HW3  750   2.291   1.100   0.531 -0.4460 -0.5512  0.0462
  176SOL    MW4  751   2.336   1.058   0.592  0.0124 -0.1673 -0.0233
  177SOL     OW  752   2.669   0.280   0.379 -0.7298 -0.2041 -0.2205
  177SOL    HW2  753   2.654   0.186   0.372 -0.1427 -0.2995 -0.2672
  177SOL    HW3  754   2.759   0.287   0.410 -1.1430  0.3280  0.8656
  177SOL    MW4  755   2.679   0.268   0.382 -0.7067 -0.1464 -0.0834
  178SOL     OW  756   1.312   0.036   0.749 -0.2101  0.3728  0.0997
  178SOL    HW2  757   1.313   0.055   0.655  1.6352  1.3363  0.2946
  178SOL    HW3  758   1.282  -0.055   0.754  1.5343 -0.3351 -1.5741
  178SOL    MW4  759   1.309   0.026   0.737  0.2635  0.4065 -0.0955
  179SOL     OW  760   1.405   2.754   1.143  0.7346 -0.9095 -0.7507
  179SOL    HW2  761   1.332   2.804   1.179  0.4485  0.3124 -2.8985
  179SOL    HW3  762   1.483   2.793   1.183  0.2738 -1.8254  1.0928
  179SOL    MW4  763   1.406   2.766   1.153  0.6361 -0.8693 -0.7908
  180SOL     OW  764   1.162   2.189   0.821 -0.4659 -0.4357 -0.2476
  180SOL    HW2  765   1.083   2.137   0.809 -1.4642  1.4384 -2.0489
  180SOL    HW3  766   1.139   2.253   0.889  0.0726 -0.9408  0.4266
  180SOL    MW4  767   1.149   2.191   0.829 -0.5265 -0.2549 -0.3963
  181SOL     OW  768   1.414   3.011   0.891 -0.0060  0.8188  0.2235
  181SOL    HW2  769   1.442   3.098   0.863  3.0023 -0.3743 -0.7431
  181SOL    HW3  770   1.469   2.993   0.968  0.1550 -0.6185 -0.2188
  181SOL    MW4  771   1.425   3.020   0.898  0.4120  0.4718  0.0376
  182SOL     OW  772   1.633   3.126   1.125 -0.0497 -0.3966  0.2499
  182SOL    HW2  773   1.540   3.141   1.142  0.1133 -1.8937  2.7224
  182SOL    HW3  774   1.669   3.213   1.109 -1.9771  0.1251 -1.5084
  182SOL    MW4  775   1.625   3.139   1.125 -0.2826 -0.5250  0.3442
  183SOL     OW  776   4.025   2.186   0.767  0.2071  0.3001  0.0298
  183SOL    HW2  777   3.990   2.202   0.680 -1.0076 -0.6776  0.3149
  183SOL    HW3  778   4.107   2.235   0.770  0.5834 -0.1855 -1.8741
  183SOL    MW4  779   4.031   2.195   0.756  0.0963  0.1070 -0.1838
  184SOL     OW  780   0.672   2.335   1.081 -0.8749  0.1673 -0.1031
  184SOL    HW2  781   0.692   2.248   1.116 -1.4782 -0.1052 -0.4330
  184SOL    HW3  782   0.588   2.359   1.120 -1.3367  0.0515 -0.9904
  184SOL    MW4  783   0.664   2.326   1.090 -1.0154  0.1161 -0.2636
  185SOL     OW  784   1.495   3.431   0.786 -0.1925  0.1081  0.2678
  185SOL    HW2  785   1.533   3.505   0.832  0.6521  0.2749 -0.6788
  185SOL    HW3  786   1.565   3.365   0.786 -0.2305  0.0600 -0.6322
  185SOL    MW4  787   1.510   3.432   0.792 -0.0862  0.1237  0.0241
  186SOL     OW  788   1.119   2.991   0.238  0.1176 -0.5574  0.5721
  186SOL    HW2  789   1.197   3.044   0.221 -0.2751 -0.3373 -0.5817
  186SOL    HW3  790   1.050   3.055   0.256 -0.5387 -0.6195 -1.5848
  186SOL    MW4  791   1.120   3.007   0.238 -0.0209 -0.5367  0.1353
  187SOL     OW  792   1.276   0.946   0.448 -0.2745  0.0627 -0.2786
  187SOL    HW2  793   1.322   0.937   0.532  0.2514 -0.8586 -0.6448
  187SOL    HW3  794   1.318   0.880   0.392 -0.1897  1.1048 -1.4532
  187SOL    MW4  795   1.288   0.936   0.452 -0.1938  0.0786 -0.4819
  188SOL     OW  796   4.486   2.661   0.853  0.0112  0.0696 -0.3978
  188SOL    HW2  797   4.545   2.620   0.790  1.1279 -2.0222  1.9081
  188SOL    HW3  798   4.399   2.632   0.827  0.1739  1.3156 -2.4627
  188SOL    MW4  799   4.482   2.652   0.841  0.1798 -0.0420 -0.3659
  189SOL     OW  800   2.687   3.054   0.464  0.5524 -0.2255 -0.0175
  189SOL    HW2  801   2.748   3.058   0.538  0.0684  1.2855  0.3260
  189SOL    HW3  802   2.741   3.028   0.389  1.5630  0.7141  0.3618
  189SOL    MW4  803   2.702   3.051   0.464  0.6220  0.0978  0.0779
  190SOL     OW  804   1.619   0.669   0.515  0.1669 -0.0855  0.3686
  190SOL    HW2  805   1.612   0.591   0.569  0.6860 -0.6488 -0.3508
  190SOL    HW3  806   1.530   0.688   0.487  0.0188 -0.3378  0.6754
  190SOL    MW4  807   1.606   0.661   0.518  0.2159 -0.1932  0.3142
  191SOL     OW  808   2.454   1.530   1.164 -0.0562 -0.0373  0.1474
  191SOL    HW2  809   2.520   1.598   1.173 -0.0695  0.0960 -0.7379
  191SOL    HW3  810   2.371   1.576   1.177 -0.0278 -0.0304  0.3090
  191SOL    MW4  811   2.451   1.545   1.167 -0.0541 -0.0188  0.0520
  192SOL     OW  812   2.700   0.287   0.814  0.1680  0.3469 -0.1062
  192SOL    HW2  813   2.748   0.352   0.764  0.3158 -0.3591 -0.8857
  192SOL    HW3  814   2.706   0.318   0.905 -1.0108  2.1979 -0.6296
  192SOL    MW4  815   2.707   0.300   0.820  0.0322  0.4980 -0.2781
  193SOL     OW  816   2.287   0.771   0.658  0.6716 -0.4838 -0.4147
  193SOL    HW2  817   2.309   0.860   0.632  0.5769 -0.2068  0.4255
  193SOL    HW3  818   2.302   0.718   0.580  0.5185  0.2998 -0.9817
  193SOL    MW4  819   2.292   0.776   0.645  0.6390 -0.3439 -0.3787
  194SOL     OW  820   2.891   2.782   0.644 -0.1699 -0.1701  0.0990
  194SOL    HW2  821   2.892   2.876   0.664  0.6926  0.0121 -0.7862
  194SOL    HW3  822   2.944   2.743   0.713  1.6423  0.3019 -0.9926
  194SOL    MW4  823   2.898   2.790   0.656  0.1831 -0.0839 -0.1618
  195SOL     OW  824   1.455   2.454   0.811 -0.2871 -0.5225  0.0875
  195SOL    HW2  825   1.361   2.463   0.822 -0.1413 -1.0273  1.7967
  195SOL    HW3  826   1.480   2.381   0.868  0.9782 -1.1182 -1.1817
  195SOL    MW4  827   1.446   2.445   0.820 -0.1010 -0.6678  0.1454
  196SOL     OW  828   2.791   0.740   0.802  0.0187  0.0363  0.4498
  196SOL    HW2  829   2.704   0.706   0.782  0.4433 -1.1568  0.5918
  196SOL    HW3  830   2.843   0.719   0.725  0.1949  0.7218  0.3763
  196SOL    MW4  831   2.786   0.733   0.789  0.0980 -0.0306  0.4588
  197SOL     OW  832   2.664   4.078   0.692  0.2498  0.7953 -0.2759
  197SOL    HW2  833   2.680   4.109   0.603 -0.8408 -1.1649 -1.1857
  197SOL    HW3  834   2.720   4.001   0.702 -1.3484 -0.3708 -0.0951
  197SOL    MW4  835   2.674   4.072   0.682 -0.1049  0.3829 -0.3721
  198SOL     OW  836   1.347   0.676   0.385 -0.4537 -0.5516  0.3150
  198SOL    HW2  837   1.262   0.638   0.407 -0.2876 -0.8784  0.4043
  198SOL    HW3  838   1.379   0.623   0.312 -0.3275 -0.4296  0.2805
  198SOL    MW4  839   1.340   0.664   0.378 -0.4151 -0.5786  0.3222
  199SOL     OW  840   1.739   0.347   1.127  0.5559 -0.0702  0.0330
  199SOL    HW2  841   1.803   0.407   1.165 -0.1324  0.6520  0.0716
  199SOL    HW3  842   1.654   0.381   1.158  0.0821 -0.2678 -1.0493
  199SOL    MW4  843   1.736   0.360   1.136  0.4026 -0.0010 -0.1047
  200SOL     OW  844   0.197   1.549   1.136 -0.2574 -0.4007  0.3036
  200SOL    HW2  845   0.220   1.463   1.171  1.3111  0.0728  0.4979
  200SOL    HW3  846   0.199   1.538   1.041  1.5180 -0.2062  0.3039
  200SOL    MW4  847   0.200   1.536   1.128  0.1838 -0.3127  0.3294
  201SOL     OW  848   4.345   0.611   0.451 -0.3930 -0.5149  0.2600
  201SOL    HW2  849   4.434   0.634   0.427  0.1248 -0.1482  2.4111
  201SOL    HW3  850   4.294   0.690   0.431 -0.1328 -0.5370 -0.4718
  201SOL    MW4  851   4.350   0.625   0.445 -0.2899 -0.4694  0.4472
  202SOL     OW  852   1.186   1.230   0.767 -0.1049 -0.3062 -0.1283
  202SOL    HW2  853   1.147   1.315   0.786 -2.3001 -1.4559  0.7758
  202SOL    HW3  854   1.196   1.229   0.672  0.8274  1.3143 -0.0599
  202SOL    MW4  855   1.182   1.241   0.757 -0.2714 -0.2443  0.0000
  203SOL     OW  856   0.943   2.709   1.112  0.7280  0.0865  0.1648
  203SOL    HW2  857   0.949   2.616   1.135 -1.3406  0.3427  1.8521
  203SOL    HW3  858   0.913   2.709   1.021 -0.6915 -0.9226  0.6174
  203SOL    MW4  859   0.940   2.697   1.103  0.2678 -0.0129  0.4472
  204SOL     OW  860   0.073   4.175   0.795  0.6131 -0.0495  0.2479
  204SOL    HW2  861   0.127   4.098   0.816  1.6387 -0.4187 -3.4149
  204SOL    HW3  862  -0.014   4.139   0.780  1.3329 -0.7247 -2.5753
  204SOL    MW4  863   0.069   4.160   0.796  0.8434 -0.1869 -0.6078
  205SOL     OW  864   3.350   0.764   1.114  0.0162  0.8481  0.1228
  205SOL    HW2  865   3.414   0.806   1.173 -0.3724  0.9056  0.5064
  205SOL    HW3  866   3.270   0.815   1.126 -1.8622 -2.7255  4.0986
  205SOL    MW4  867   3.348   0.776   1.123 -0.2828  0.3842  0.6980
  206SOL     OW  868   1.272   2.621   0.435  0.3788  0.4800  0.0009
  206SOL    HW2  869   1.199   2.563   0.455  2.4452 -3.3983 -3.0482
  206SOL    HW3  870   1.248   2.663   0.353  0.6518  0.8148  0.0918
  206SOL    MW4  871   1.259   2.619   0.427  0.6875  0.0129 -0.3894
  207SOL     OW  872   3.925   0.852   0.473 -0.6120  0.2779  0.0240
  207SOL    HW2  873   3.890   0.934   0.437 -0.6219  1.1584  1.9342
  207SOL    HW3  874   3.918   0.864   0.568  3.1841 -0.2353  0.4343
  207SOL    MW4  875   3.919   0.865   0.481 -0.1125  0.3264  0.3302
  208SOL     OW  876   3.134   2.460   1.180  0.3164 -0.0980  0.0492
  208SOL    HW2  877   3.047   2.428   1.154 -0.2547  2.2223 -0.9848
  208SOL    HW3  878   3.132   2.459   1.276  0.0392 -2.3254  0.0640
  208SOL    MW4  879   3.122   2.455   1.189  0.2046 -0.0858 -0.0852
  209SOL     OW  880   4.266   2.289   1.105  0.0827 -0.1214  0.1212
  209SOL    HW2  881   4.338   2.331   1.152 -0.0530  1.9285 -1.4429
  209SOL    HW3  882   4.188   2.336   1.133 -0.5526 -1.6678  1.0293
  209SOL    MW4  883   4.266   2.301   1.115 -0.0191 -0.0551  0.0346
  210SOL     OW  884   2.511   4.399   0.421  0.3721  0.1346  0.1558
  210SOL    HW2  885   2.571   4.325   0.408 -1.3465 -1.2690 -0.0364
  210SOL    HW3  886   2.496   4.402   0.515 -1.1406 -1.0748 -0.0301
  210SOL    MW4  887   2.516   4.390   0.431 -0.0541 -0.2098  0.1059
  211SOL     OW  888   1.303   4.436   0.487  0.0860 -0.3174  0.1588
  211SOL    HW2  889   1.323   4.528   0.470 -1.3867 -0.2627 -1.4192
  211SOL    HW3  890   1.381   4.389   0.457  0.1383  0.3037 -0.7141
  211SOL    MW4  891   1.316   4.442   0.481 -0.1014 -0.2284 -0.1645
  212SOL     OW  892   2.702   3.241   1.221 -0.1014  0.2488 -0.3248
  212SOL    HW2  893   2.706   3.335   1.200  1.0882  0.7893  2.1778
  212SOL    HW3  894   2.609   3.220   1.220 -0.2802  0.9738 -2.8760
  212SOL    MW4  895   2.691   3.251   1.218  0.0317  0.4158 -0.3310
  213SOL     OW  896   2.088   3.621   0.392 -0.1775  0.4327  0.1229
  213SOL    HW2  897   2.095   3.563   0.468  0.6265  0.3054 -0.0419
  213SOL    HW3  898   2.090   3.709   0.428  2.2317  0.4188  0.1264
  213SOL    MW4  899   2.089   3.625   0.407  0.2465  0.4139  0.1016
  214SOL     OW  900   3.364   0.434   0.365  0.5425 -0.5295  0.3340
  214SOL    HW2  901   3.436   0.423   0.302 -0.6305 -1.6129 -0.8613
  214SOL    HW3  902   3.379   0.520   0.403  2.1782 -0.5095 -0.2791
  214SOL    MW4  903   3.376   0.444   0.361  0.6037 -0.6698  0.0954
  215SOL     OW  904   3.950   2.687   0.876  0.1979 -0.1440  0.3562
  215SOL    HW2  905   3.874   2.744   0.863  0.6705  0.3905 -0.1041
  215SOL    HW3  906   4.010   2.711   0.805  0.9465 -0.3096  0.9330
  215SOL    MW4  907   3.948   2.697   0.865  0.3593 -0.0956  0.3716
  216SOL     OW  908   1.997   2.985   1.125  0.4741 -0.2024 -0.4718
  216SOL    HW2  909   1.933   2.919   1.099 -1.4799  0.4150  2.4307
  216SOL    HW3  910   2.048   2.942   1.194  2.3087 -0.2280 -1.8352
  216SOL    MW4  911   1.995   2.971   1.131  0.4582 -0.1245 -0.2687
  217SOL     OW  912   0.016   1.148   1.058 -0.5954  0.2570 -0.4008
  217SOL    HW2  913   0.009   1.059   1.092  0.1770  0.2353 -0.2974
  217SOL    HW3  914  -0.065   1.191   1.086 -0.3544 -0.0134  0.7102
  217SOL    MW4  915   0.004   1.142   1.066 -0.4617  0.2185 -0.2407
  218SOL     OW  916   3.393   3.626   1.318 -0.7829  0.2280 -0.4332
  218SOL    HW2  917   3.410   3.640   1.411 -1.8744  0.6097 -0.2829
  218SOL    HW3  918   3.398   3.713   1.278 -0.8011  0.1321 -0.6504
  218SOL    MW4  919   3.396   3.639   1.325 -0.9294  0.2656 -0.4420
  219SOL     OW  920   3.803   2.304   1.119 -0.3793  0.5754  0.2007
  219SOL    HW2  921   3.734   2.359   1.157 -0.4265  1.3334 -0.9631
  219SOL    HW3  922   3.799   2.323   1.025  0.4890 -0.4287 -0.0374
  219SOL    MW4  923   3.794   2.314   1.112 -0.2708  0.5429  0.0157
  220SOL     OW  924   0.917   0.396   0.360  0.1692  0.1633 -0.2230
  220SOL    HW2  925   0.861   0.372   0.434  1.9141  0.2699  1.1455
  220SOL    HW3  926   0.855   0.417   0.290 -1.4892 -1.5347  0.6725
  220SOL    MW4  927   0.901   0.395   0.360  0.1806 -0.0466  0.0758
  221SOL     OW  928   3.540   2.973   0.423  0.5735 -0.4918 -0.0482
  221SOL    HW2  929   3.614   2.913   0.420 -0.3419 -1.6077 -0.3727
  221SOL    HW3  930   3.464   2.917   0.438 -0.3232  0.5467 -0.6531
  221SOL    MW4  931   3.540   2.958   0.425  0.3343 -0.5019 -0.1708
  222SOL     OW  932   0.012   1.897   0.849 -0.0145 -0.1414 -0.0828
  222SOL    HW2  933   0.002   1.982   0.807 -0.0404 -0.3656 -0.5333
  222SOL    HW3  934  -0.059   1.843   0.814 -0.3912 -0.1609  0.6888
  222SOL    MW4  935   0.002   1.901   0.839 -0.0676 -0.1734 -0.0404
  223SOL     OW  936   1.362   3.191   1.176 -0.5108 -0.7516 -0.1395
  223SOL    HW2  937   1.277   3.159   1.146 -0.1373 -1.8536 -0.0416
  223SOL    HW3  938   1.353   3.199   1.271 -0.4001 -1.1941 -0.0910
  223SOL    MW4  939   1.349   3.188   1.184 -0.4469 -0.9556 -0.1200
  224SOL     OW  940   0.541   1.163   0.793 -0.1903 -0.6468 -0.1428
  224SOL    HW2  941   0.525   1.179   0.886 -0.1136  0.2961 -0.2842
  224SOL    HW3  942   0.468   1.108   0.765 -1.0827  0.3997  0.1069
  224SOL    MW4  943   0.530   1.158   0.802 -0.2979 -0.3843 -0.1285
  225SOL     OW  944   2.681   2.504   1.195 -0.1625 -0.8453 -0.0953
  225SOL    HW2  945   2.658   2.595   1.175  1.1762 -0.6864 -1.0028
  225SOL    HW3  946   2.697   2.503   1.289  0.4385  0.0006 -0.1865
  225SOL    MW4  947   2.680   2.516   1.204  0.0935 -0.7126 -0.2272
  226SOL     OW  948   4.090   3.422   0.404  0.0118  0.0889  0.6625
  226SOL    HW2  949   4.184   3.427   0.420  0.2632 -2.1583  0.1170
  226SOL    HW3  950   4.076   3.476   0.326  0.8770  0.3181  0.6580
  226SOL    MW4  951   4.101   3.430   0.395  0.1588 -0.1774  0.5900
  227SOL     OW  952   0.480   1.945   1.115  0.1749 -0.4564  0.1166
  227SOL    HW2  953   0.408   1.988   1.162 -0.6966 -0.1195 -1.5115
  227SOL    HW3  954   0.479   1.855   1.149  0.4839  0.1541  1.7972
  227SOL    MW4  955   0.470   1.939   1.126  0.1007 -0.3314  0.1236
  228SOL     OW  956   2.929   3.699   0.463 -0.8477 -0.4607  0.1841
  228SOL    HW2  957   2.919   3.761   0.535  2.5590 -1.1569  1.3636
  228SOL    HW3  958   2.977   3.748   0.396 -0.8537 -0.8964 -0.1418
  228SOL    MW4  959   2.934   3.714   0.463 -0.3991 -0.6099  0.2968
  229SOL     OW  960   3.817   1.813   0.767  0.0216  0.5711 -0.2225
  229SOL    HW2  961   3.830   1.726   0.804 -3.0876 -0.0088 -0.3551
  229SOL    HW3  962   3.881   1.868   0.813  0.7706 -1.4138  1.2031
  229SOL    MW4  963   3.827   1.809   0.778 -0.2894  0.2327 -0.0519
  230SOL     OW  964   4.158   4.299   0.453 -0.0996 -0.7399 -0.8002
  230SOL    HW2  965   4.224   4.231   0.441  0.0169 -0.5915 -1.0092
  230SOL    HW3  966   4.075   4.251   0.457  0.0110 -0.9180 -0.6442
  230SOL    MW4  967   4.156   4.284   0.452 -0.0696 -0.7439 -0.8072
  231SOL     OW  968   1.100   1.511   0.806  0.3764 -0.2386 -0.3848
  231SOL    HW2  969   1.191   1.523   0.779  0.1048  1.3511 -0.6706
  231SOL    HW3  970   1.098   1.545   0.895 -0.1140  0.5121 -0.6802
  231SOL    MW4  971   1.112   1.517   0.814  0.2757  0.0702 -0.4615
  232SOL     OW  972   2.102   3.897   0.987 -0.1805 -0.0116  0.1561
  232SOL    HW2  973   2.075   3.817   1.032  0.6579  0.1316  0.9549
  232SOL    HW3  974   2.023   3.952   0.985 -0.9779 -1.1975 -1.1741
  232SOL    MW4  975   2.088   3.894   0.993 -0.1750 -0.1488  0.0860
  233SOL     OW  976   1.009   2.808   0.681 -0.2456  0.7722  0.3430
  233SOL    HW2  977   0.950   2.865   0.633 -1.7692  0.5149  1.8680
  233SOL    HW3  978   1.047   2.864   0.749 -0.3145  0.4194  0.6729
  233SOL    MW4  979   1.006   2.823   0.684 -0.4555  0.6919  0.5878
  234SOL     OW  980   0.458   1.986   0.249  0.1430 -0.2085  0.3996
  234SOL    HW2  981   0.433   1.954   0.163 -0.5046  2.3545 -0.4071
  234SOL    HW3  982   0.375   2.000   0.295  0.4222  0.1747  0.7898
  234SOL    MW4  983   0.444   1.983   0.244  0.0944  0.1802  0.3447
  235SOL     OW  984   3.428   1.691   0.470  0.1730 -0.1157 -0.0302
  235SOL    HW2  985   3.424   1.732   0.556 -1.1633 -0.8613  0.2733
  235SOL    HW3  986   3.504   1.632   0.475  0.6826  0.5668  0.3077
  235SOL    MW4  987   3.437   1.688   0.482  0.0639 -0.1242  0.0544
  236SOL     OW  988   0.105   3.366   0.830  0.0339 -0.1746 -0.1985
  236SOL    HW2  989   0.017   3.347   0.798  0.2620 -1.3111 -0.1970
  236SOL    HW3  990   0.150   3.281   0.829  0.1841 -0.2082  2.7132
  236SOL    MW4  991   0.099   3.352   0.826  0.0838 -0.3293  0.1859
  237SOL     OW  992   1.163   1.817   0.702 -0.3332  0.0345  0.6368
  237SOL    HW2  993   1.077   1.855   0.720 -0.9187 -1.0795  0.2051
  237SOL    HW3  994   1.158   1.727   0.735  0.2564 -0.4236 -0.4841
  237SOL    MW4  995   1.151   1.810   0.709 -0.3327 -0.1730  0.4319
  238SOL     OW  996   1.834   2.511   1.165  0.2295 -0.2095 -0.5946
  238SOL    HW2  997   1.811   2.451   1.093 -0.4091  0.4713 -0.9712
  238SOL    HW3  998   1.848   2.595   1.122  1.4652 -0.1540 -0.1100
  238SOL    MW4  999   1.833   2.514   1.150  0.3084 -0.1123 -0.5803
  239SOL     OW 1000   2.697   4.323   0.813  0.2709  0.7786 -0.4936
  239SOL    HW2 1001   2.695   4.230   0.787  0.2752  0.4787  0.5446
  239SOL    HW3 1002   2.618   4.360   0.775 -0.3649  0.0606  0.1054
  239SOL    MW4 1003   2.686   4.315   0.805  0.1876  0.6442 -0.2776
  240SOL     OW 1004   3.177   2.614   0.412  0.0187 -0.3352  0.1732
  240SOL    HW2 1005   3.175   2.564   0.493 -0.1474  0.4666  0.6769
  240SOL    HW3 1006   3.085   2.632   0.392  0.1169  0.6708  0.5779
  240SOL    MW4 1007   3.165   2.610   0.420  0.0098 -0.0966  0.2930
  241SOL     OW 1008   0.708   0.669   0.869  0.5599  0.6197  0.2688
  241SOL    HW2 1009   0.652   0.673   0.792 -0.4154  0.9600  0.9842
  241SOL    HW3 1010   0.790   0.709   0.841 -0.4035  2.4198 -0.0781
  241SOL    MW4 1011   0.711   0.675   0.855  0.3041  0.9021  0.3174
  242SOL     OW 1012   0.828   2.704   0.868  0.5207  0.1917 -0.0085
  242SOL    HW2 1013   0.734   2.711   0.853  0.2662 -0.8137  1.1132
  242SOL    HW3 1014   0.867   2.757   0.798 -0.8849  1.0556 -0.1611
  242SOL    MW4 1015   0.821   2.712   0.857  0.3017  0.1733  0.1194
  243SOL     OW 1016   3.319   1.541   0.824 -0.0044 -0.3212 -0.3447
  243SOL    HW2 1017   3.323   1.632   0.794  0.5469 -0.6950 -1.4103
  243SOL    HW3 1018   3.388   1.496   0.776  1.4026 -0.7928  2.0138
  243SOL    MW4 1019   3.329   1.547   0.814  0.2542 -0.4327 -0.1741
  244SOL     OW 1020   3.768   2.850   0.717  0.0511 -0.2486 -0.0853
  244SOL    HW2 1021   3.783   2.940   0.743  0.9120 -0.2919 -0.4333
  244SOL    HW3 1022   3.683   2.827   0.756  0.6148  0.1576  1.3846
  244SOL    MW4 1023   3.759   2.859   0.725  0.2389 -0.2010  0.0628
  245SOL     OW 1024   0.873   0.026   0.454 -0.0167  0.1215 -0.2077
  245SOL    HW2 1025   0.799   0.067   0.409  0.5210  2.4430  0.9475
  245SOL    HW3 1026   0.946   0.087   0.440  1.1564 -1.1169  0.4304
  245SOL    MW4 1027   0.873   0.040   0.446  0.2090  0.2644  0.0288
  246SOL     OW 1028   0.348   2.931   0.204  0.2834 -0.2144 -0.4724
  246SOL    HW2 1029   0.264   2.949   0.246 -0.0219 -0.0741 -1.1405
  246SOL    HW3 1030   0.363   3.005   0.145 -0.3042 -1.4023 -2.1786
  246SOL    MW4 1031   0.339   2.943   0.201  0.1656 -0.3526 -0.7856
  247SOL     OW 1032   3.397   1.790   0.734 -0.3022  0.1495  0.0372
  247SOL    HW2 1033   3.473   1.833   0.774 -0.9928  1.2586  0.1949
  247SOL    HW3 1034   3.331   1.859   0.729 -2.0995 -1.3264  2.0427
  247SOL    MW4 1035   3.398   1.805   0.739 -0.6304  0.1010  0.3226
  248SOL     OW 1036   0.539   4.431   0.285 -0.0586  0.2512 -0.3562
  248SOL    HW2 1037   0.625   4.422   0.326  0.1207  0.2371 -0.7405
  248SOL    HW3 1038   0.481   4.457   0.357 -0.0215 -1.1333  0.1980
  248SOL    MW4 1039   0.542   4.433   0.300 -0.0300  0.0668 -0.3338
  249SOL     OW 1040   0.085   3.783   0.685 -0.1846 -0.1599 -0.5222
  249SOL    HW2 1041   0.004   3.798   0.735  0.3484 -0.2031  0.3708
  249SOL    HW3 1042   0.093   3.688   0.682 -0.7423 -0.1727 -1.5514
  249SOL    MW4 1043   0.075   3.772   0.691 -0.1879 -0.1674 -0.5401
  250SOL     OW 1044   2.565   2.994   0.909 -0.3374  0.7979 -0.7475
  250SOL    HW2 1045   2.591   2.991   0.817  0.8147  3.0051 -0.5440
  250SOL    HW3 1046   2.541   3.086   0.924  0.0263  0.5885  1.2785
  250SOL    MW4 1047   2.566   3.006   0.899 -0.1371  1.0617 -0.4533
  251SOL     OW 1048   0.746   3.791   0.831 -0.0342 -0.1763  0.2314
  251SOL    HW2 1049   0.660   3.805   0.791 -0.1648  0.8863  0.8395
  251SOL    HW3 1050   0.732   3.810   0.924  0.2900 -2.5022  0.7774
  251SOL    MW4 1051   0.733   3.796   0.838 -0.0086 -0.3431  0.3836
  252SOL     OW 1052   0.623   4.658   0.878  0.1269 -0.1937 -0.1276
  252SOL    HW2 1053   0.569   4.588   0.841  0.9328 -1.5475  1.2015
  252SOL    HW3 1054   0.708   4.647   0.835  0.5273 -0.6347  0.7555
  252SOL    MW4 1055   0.627   4.647   0.867  0.2860 -0.4306  0.1643
  253SOL     OW 1056   3.676   2.498   0.464  0.0054 -0.0644 -0.2429
  253SOL    HW2 1057   3.718   2.571   0.418  0.4347 -0.1248  0.0631
  253SOL    HW3 1058   3.593   2.486   0.416 -0.4057  1.0960  0.1512
  253SOL    MW4 1059   3.670   2.506   0.451  0.0076  0.0808 -0.1506
  254SOL     OW 1060   0.484   3.940   0.749 -0.1129 -0.3774 -0.1787
  254SOL    HW2 1061   0.503   4.034   0.753 -0.5890 -0.3161  0.8879
  254SOL    HW3 1062   0.394   3.932   0.782  0.3837 -1.3441  0.9733
  254SOL    MW4 1063   0.474   3.951   0.754 -0.1102 -0.4969  0.1140
  255SOL     OW 1064   2.696   1.689   1.177  0.2507 -0.1019  0.3031
  255SOL    HW2 1065   2.778   1.653   1.144  0.4982 -0.6759  1.4966
  255SOL    HW3 1066   2.694   1.779   1.145  0.5341 -0.6006 -1.1299
  255SOL    MW4 1067   2.706   1.696   1.169  0.3209 -0.2434  0.2714
  256SOL     OW 1068   2.820   1.002   0.698  0.0749  0.2773  0.3404
  256SOL    HW2 1069   2.900   1.047   0.723 -0.8566  1.3842  1.3354
  256SOL    HW3 1070   2.833   0.912   0.727  0.9805  0.4354  0.4347
  256SOL    MW4 1071   2.832   0.996   0.705  0.0715  0.4442  0.4841
  257SOL     OW 1072   3.067   0.758   0.339 -0.1133  0.2605  0.0483
  257SOL    HW2 1073   3.158   0.785   0.352 -0.0265 -0.0229  0.0320
  257SOL    HW3 1074   3.015   0.836   0.361  0.1252  0.3722  0.2162
  257SOL    MW4 1075   3.072   0.772   0.344 -0.0703  0.2378  0.0683
  258SOL     OW 1076   1.117   0.210   0.433 -0.2949 -0.0006 -0.0471
  258SOL    HW2 1077   1.064   0.275   0.387 -1.0312  0.5654  1.5635
  258SOL    HW3 1078   1.139   0.252   0.516 -1.4569 -2.1158  1.3519
  258SOL    MW4 1079   1.113   0.224   0.438 -0.5454 -0.2050  0.3500
  259SOL     OW 1080   2.421   3.433   0.548 -0.5158  0.0985 -0.2883
  259SOL    HW2 1081   2.365   3.355   0.547  1.1261 -1.1050  0.1510
  259SOL    HW3 1082   2.508   3.401   0.526  0.5149  1.5476  1.4764
  259SOL    MW4 1083   2.425   3.419   0.545 -0.1631  0.1309  0.0025
  260SOL     OW 1084   2.164   1.230   0.457 -0.3783 -0.2550 -0.4947
  260SOL    HW2 1085   2.077   1.191   0.468 -0.4159 -0.4115 -1.2929
  260SOL    HW3 1086   2.166   1.256   0.365  0.6472 -0.8123 -0.6335
  260SOL    MW4 1087   2.152   1.228   0.446 -0.2482 -0.3492 -0.6184
  261SOL     OW 1088   2.942   4.366   0.705 -0.3272 -0.3496  0.5177
  261SOL    HW2 1089   2.993   4.326   0.776 -0.7654 -1.6292  0.1246
  261SOL    HW3 1090   2.851   4.345   0.727 -0.4817 -0.5081 -0.2771
  261SOL    MW4 1091   2.936   4.358   0.718 -0.4051 -0.5388  0.3610
  262SOL     OW 1092   1.858   2.762   1.008 -0.0920 -0.0395  0.1189
  262SOL    HW2 1093   1.945   2.739   0.977  0.5102  0.5373  1.3332
  262SOL    HW3 1094   1.804   2.764   0.929  1.4330  1.6000 -0.9214
  262SOL    MW4 1095   1.862   2.759   0.994  0.1887  0.2530  0.1418
  263SOL     OW 1096   2.454   2.358   1.111 -0.2537 -0.3922 -0.6590
  263SOL    HW2 1097   2.459   2.274   1.156  0.7192 -0.3924 -0.7557
  263SOL    HW3 1098   2.528   2.408   1.145 -2.9705  1.8522  2.1824
  263SOL    MW4 1099   2.464   2.354   1.121 -0.4838 -0.0961 -0.2967
  264SOL     OW 1100   3.796   2.030   1.221 -0.4057  0.1951 -0.1203
  264SOL    HW2 1101   3.799   2.121   1.192 -0.2162  0.1437 -0.2641
  264SOL    HW3 1102   3.822   2.034   1.313  2.3043 -0.0007 -0.8189
  264SOL    MW4 1103   3.800   2.042   1.229 -0.0231  0.1621 -0.2314
  265SOL     OW 1104   0.656   3.069   1.084 -0.5710  0.3418  0.3391
  265SOL    HW2 1105   0.682   2.981   1.109 -0.9524  0.2148  0.2904
  265SOL    HW3 1106   0.617   3.059   0.997  1.3556  0.8637 -0.6284
  265SOL    MW4 1107   0.654   3.056   1.076 -0.3671  0.3939  0.2050
  266SOL     OW 1108   3.909   3.884   0.613 -0.3986  0.0133 -0.1088
  266SOL    HW2 1109   3.931   3.968   0.572  0.2232  0.3468  0.8887
  266SOL    HW3 1110   3.842   3.846   0.556 -0.1700  0.8603 -0.9557
  266SOL    MW4 1111   3.903   3.890   0.600 -0.2866  0.1686 -0.0889
  267SOL     OW 1112   3.970   3.819   0.258  0.3325  0.2396  0.1400
  267SOL    HW2 1113   4.049   3.827   0.311 -1.0370  1.4164  2.0542
  267SOL    HW3 1114   3.909   3.769   0.312  0.0313 -1.3408 -1.6372
  267SOL    MW4 1115   3.972   3.814   0.272  0.1121  0.1862  0.1581
  268SOL     OW 1116   4.056   1.561   0.494  0.5267  0.3788  0.3341
  268SOL    HW2 1117   4.137   1.611   0.484  1.4912 -0.9669  1.2322
  268SOL    HW3 1118   4.078   1.473   0.462 -1.0001  0.3815 -0.7837
  268SOL    MW4 1119   4.070   1.556   0.488  0.4525  0.2017  0.3051
  269SOL     OW 1120   0.936   3.418   0.678  0.2113 -0.2039 -0.6651
  269SOL    HW2 1121   0.888   3.449   0.755  0.6108 -0.7797 -0.1868
  269SOL    HW3 1122   0.997   3.489   0.658  0.4988 -0.2999 -0.1172
  269SOL    MW4 1123   0.938   3.431   0.686  0.3020 -0.2925 -0.5297
  270SOL     OW 1124   1.162   3.603   1.188 -0.2153  0.0399  0.3046
  270SOL    HW2 1125   1.243   3.565   1.156 -0.1108  0.8568 -0.3906
  270SOL    HW3 1126   1.093   3.551   1.146 -0.0716  0.5438 -0.5534
  270SOL    MW4 1127   1.163   3.591   1.178 -0.1826  0.2141  0.0998
  271SOL     OW 1128   3.335   1.558   1.100 -0.1093 -0.1041 -0.7705
  271SOL    HW2 1129   3.329   1.560   1.004 -1.1179 -0.1654 -0.7081
  271SOL    HW3 1130   3.422   1.593   1.119  0.5384 -1.1561 -1.7565
  271SOL    MW4 1131   3.346   1.563   1.090 -0.1569 -0.2509 -0.8923
  272SOL     OW 1132   0.708   2.719   0.466  0.2337 -0.3376  0.0221
  272SOL    HW2 1133   0.683   2.638   0.512 -1.5595  0.1115 -0.1600
  272SOL    HW3 1134   0.626   2.756   0.436  1.0639  1.5262  0.0170
  272SOL    MW4 1135   0.694   2.713   0.468  0.1066 -0.0324 -0.0026
  273SOL     OW 1136   0.275   0.816   1.122  0.0248  0.0322  0.2898
  273SOL    HW2 1137   0.262   0.727   1.153  2.5601 -0.7191 -0.6457
  273SOL    HW3 1138   0.264   0.810   1.027  0.9670  0.5420  0.1388
  273SOL    MW4 1139   0.272   0.804   1.113  0.4836  0.0002  0.1465
  274SOL     OW 1140   0.064   2.930   0.768 -0.5491 -0.1913  0.1173
  274SOL    HW2 1141   0.029   2.848   0.804  1.4496 -1.0922  0.1290
  274SOL    HW3 1142  -0.009   2.969   0.720 -1.3074 -2.4447 -0.6387
  274SOL    MW4 1143   0.050   2.924   0.766 -0.3854 -0.6075  0.0191
  275SOL     OW 1144   1.521   0.497   1.243  0.0963  0.0175 -0.2176
  275SOL    HW2 1145   1.528   0.586   1.210 -0.2106 -0.0790 -0.5375
  275SOL    HW3 1146   1.440   0.463   1.205  0.4034 -0.5221 -0.3970
  275SOL    MW4 1147   1.511   0.504   1.234  0.0963 -0.0665 -0.2835
  276SOL     OW 1148   1.148   3.841   0.333  0.1442 -0.2511 -0.7808
  276SOL    HW2 1149   1.058   3.813   0.319  0.0249 -0.4661  0.3375
  276SOL    HW3 1150   1.200   3.761   0.321  0.0636 -0.3892 -0.2175
  276SOL    MW4 1151   1.143   3.826   0.330  0.1175 -0.2975 -0.5589
  277SOL     OW 1152   1.546   4.285   0.475 -0.1969 -0.0738 -0.1498
  277SOL    HW2 1153   1.588   4.293   0.561 -0.1309 -1.2183 -0.0599
  277SOL    HW3 1154   1.534   4.191   0.464 -1.2476  0.1430 -0.8994
  277SOL    MW4 1155   1.550   4.273   0.485 -0.3268 -0.1965 -0.2368
  278SOL     OW 1156   2.258   1.140   1.117 -0.1223 -0.1582 -0.5408
  278SOL    HW2 1157   2.338   1.184   1.145 -1.0169  1.7746 -0.9076
  278SOL    HW3 1158   2.261   1.141   1.022 -1.3216  1.3630 -0.5781
  278SOL    MW4 1159   2.269   1.146   1.108 -0.3986  0.2975 -0.5941
  279SOL     OW 1160   4.452   2.158   0.738 -0.5659 -0.0562 -0.5417
  279SOL    HW2 1161   4.525   2.218   0.753 -0.8876  0.1804  0.1330
  279SOL    HW3 1162   4.440   2.156   0.643  0.4100 -0.2107 -0.6573
  279SOL    MW4 1163   4.460   2.166   0.728 -0.4797 -0.0455 -0.4680
  280SOL     OW 1164   2.244   4.325   0.355 -0.1053 -0.2540 -0.2360
  280SOL    HW2 1165   2.322   4.365   0.392 -0.8695 -0.0203  1.1259
  280SOL    HW3 1166   2.247   4.348   0.262  1.3085 -0.0437 -0.1437
  280SOL    MW4 1167   2.255   4.333   0.347 -0.0198 -0.1955 -0.0441
  281SOL     OW 1168   0.950   0.341   0.817 -0.9375  0.1225  0.0426
  281SOL    HW2 1169   0.986   0.257   0.846 -0.6393  0.0403 -0.5532
  281SOL    HW3 1170   0.891   0.367   0.888 -0.8981 -0.5032  0.3153
  281SOL    MW4 1171   0.947   0.333   0.830 -0.8929  0.0291  0.0000
  282SOL     OW 1172   3.572   1.172   1.070 -0.3217 -0.2812 -0.0046
  282SOL    HW2 1173   3.651   1.204   1.113 -0.4676 -0.9718  0.7891
  282SOL    HW3 1174   3.501   1.224   1.108 -0.3038  0.0010 -0.3581
  282SOL    MW4 1175   3.573   1.183   1.081 -0.3388 -0.3350  0.0534
  283SOL     OW 1176   0.108   4.469   0.487 -0.4182  0.1048  0.0086
  283SOL    HW2 1177   0.048   4.528   0.441 -1.8784 -0.8779  0.6363
  283SOL    HW3 1178   0.071   4.460   0.574  0.5529 -0.6635  0.3510
  283SOL    MW4 1179   0.096   4.476   0.492 -0.4827 -0.1259  0.1366
  284SOL     OW 1180   4.013   1.080   0.817 -0.4599 -0.0174 -0.1150
  284SOL    HW2 1181   3.933   1.033   0.794 -0.8442  1.2357 -1.4224
  284SOL    HW3 1182   4.083   1.024   0.783 -0.7833 -0.9827  0.7871
  284SOL    MW4 1183   4.012   1.066   0.809 -0.5531  0.0206 -0.1685
  285SOL     OW 1184   3.699   0.318   0.403 -0.4823  0.5844 -0.0174
  285SOL    HW2 1185   3.697   0.404   0.446 -0.7695  0.8032 -0.4670
  285SOL    HW3 1186   3.787   0.311   0.366 -1.1552  1.6266 -1.8771
  285SOL    MW4 1187   3.710   0.328   0.404 -0.6089  0.7507 -0.3221
  286SOL     OW 1188   3.619   1.306   0.295  0.0538  0.0188  0.0410
  286SOL    HW2 1189   3.624   1.392   0.338  0.4456 -0.1214  0.2775
  286SOL    HW3 1190   3.627   1.326   0.202 -0.5100  0.2972  0.0474
  286SOL    MW4 1191   3.621   1.320   0.289  0.0312  0.0370  0.0731
  287SOL     OW 1192   2.280   0.671   0.404  0.0989  0.0707 -0.4316
  287SOL    HW2 1193   2.319   0.584   0.400 -0.6881 -0.4785  2.5155
  287SOL    HW3 1194   2.353   0.730   0.387  1.3486 -1.0723  0.8067
  287SOL    MW4 1195   2.295   0.667   0.401  0.1597 -0.1526  0.1206
  288SOL     OW 1196   0.548   0.443   0.860 -0.1444  0.1350 -0.4462
  288SOL    HW2 1197   0.619   0.506   0.868 -0.8168  1.0186 -1.3387
  288SOL    HW3 1198   0.472   0.495   0.834 -0.7620 -1.0072 -0.9624
  288SOL    MW4 1199   0.547   0.458   0.858 -0.3146  0.1009 -0.6319
  289SOL     OW 1200   4.150   0.305   0.895 -0.3399 -0.2768 -0.2121
  289SOL    HW2 1201   4.204   0.226   0.885 -1.2054 -0.7683 -1.1050
  289SOL    HW3 1202   4.093   0.305   0.818 -0.8165  0.8610  0.1272
  289SOL    MW4 1203   4.150   0.295   0.883 -0.5174 -0.1915 -0.2852
  290SOL     OW 1204   2.040   2.150   0.759 -0.1973 -0.2686  0.1647
  290SOL    HW2 1205   1.956   2.180   0.726 -1.3329 -1.5999  1.7666
  290SOL    HW3 1206   2.053   2.199   0.840  0.4493 -0.2296  0.0392
  290SOL    MW4 1207   2.031   2.160   0.765 -0.2620 -0.4392  0.3594
  291SOL     OW 1208   0.484   4.018   1.212 -0.4225 -0.3788  0.3401
  291SOL    HW2 1209   0.486   4.107   1.179 -1.6946 -0.2402  0.6463
  291SOL    HW3 1210   0.414   3.975   1.163 -0.1278 -1.0889  0.5241
  291SOL    MW4 1211   0.475   4.024   1.201 -0.5515 -0.4535  0.4048
  292SOL     OW 1212   3.097   0.136   1.213  0.1031  0.7142  0.1307
  292SOL    HW2 1213   3.105   0.098   1.301 -2.6440  2.1931  1.1108
  292SOL    HW3 1214   3.026   0.085   1.172 -0.3024  1.6306 -0.3147
  292SOL    MW4 1215   3.088   0.124   1.219 -0.3130  1.0302  0.2013
  293SOL     OW 1216   1.296   0.068   1.247  0.0143 -0.2223  0.2703
  293SOL    HW2 1217   1.222   0.038   1.195 -0.2635  2.1573 -0.7430
  293SOL    HW3 1218   1.373   0.045   1.195 -0.1854  0.5559 -0.3772
  293SOL    MW4 1219   1.296   0.061   1.233 -0.0488  0.1944  0.0511
  294SOL     OW 1220   2.505   0.697   0.815  0.1450  0.3546 -0.6252
  294SOL    HW2 1221   2.485   0.607   0.789  1.6068 -0.1286 -0.1194
  294SOL    HW3 1222   2.443   0.751   0.766  0.2069 -0.8226 -2.0188
  294SOL    MW4 1223   2.494   0.693   0.805  0.3462  0.1355 -0.7424
  295SOL     OW 1224   2.603   2.861   0.631 -0.0782  0.2431  0.0713
  295SOL    HW2 1225   2.624   2.934   0.573 -0.8676 -0.5329 -1.2183
  295SOL    HW3 1226   2.680   2.805   0.628 -0.4941 -0.2989 -1.0560
  295SOL    MW4 1227   2.616   2.863   0.623 -0.2372  0.0689 -0.2476
  296SOL     OW 1228   0.512   1.473   0.446  0.2825  0.6939 -0.2178
  296SOL    HW2 1229   0.509   1.567   0.428 -0.4380  0.8470  0.6313
  296SOL    HW3 1230   0.480   1.466   0.536 -0.5868 -0.4597 -0.6131
  296SOL    MW4 1231   0.507   1.485   0.456  0.0727  0.5620 -0.1579
  297SOL     OW 1232   3.989   0.000   0.436  0.2807  0.0974  0.3805
  297SOL    HW2 1233   3.899  -0.031   0.428  0.2304 -0.1590  1.8278
  297SOL    HW3 1234   4.039  -0.053   0.374 -0.5618  0.2290 -0.4096
  297SOL    MW4 1235   3.984  -0.011   0.427  0.1628  0.0809  0.4672
  298SOL     OW 1236   4.209   4.443   0.695 -0.0308  0.2025 -0.1001
  298SOL    HW2 1237   4.302   4.455   0.715 -0.2594 -0.5193  1.5159
  298SOL    HW3 1238   4.208   4.387   0.618  0.8805 -0.9694  0.7034
  298SOL    MW4 1239   4.221   4.437   0.688  0.0587 -0.0467  0.2191
  299SOL     OW 1240   0.501   0.939   0.345 -0.4017 -0.1333  0.0453
  299SOL    HW2 1241   0.476   1.025   0.378  0.6851  0.0944  0.2871
  299SOL    HW3 1242   0.577   0.914   0.397 -1.0734 -1.5215  0.4109
  299SOL    MW4 1243   0.508   0.947   0.356 -0.3469 -0.2863  0.1255
  300SOL     OW 1244   0.252   0.537   0.541  0.2528  0.3769 -0.1872
  300SOL    HW2 1245   0.183   0.590   0.500 -1.8324 -0.5741  1.9560
  300SOL    HW3 1246   0.224   0.447   0.528  0.1939  0.0188  2.1399
  300SOL    MW4 1247   0.239   0.532   0.534 -0.0301  0.2042  0.4026
  301SOL     OW 1248   1.198   2.543   0.889  0.1992 -0.4553  0.1592
  301SOL    HW2 1249   1.110   2.522   0.859  0.8603 -2.1878 -0.6250
  301SOL    HW3 1250   1.200   2.515   0.980  0.2375 -1.3608 -0.1130
  301SOL    MW4 1251   1.187   2.537   0.897  0.2913 -0.8032  0.0198
  302SOL     OW 1252   0.031   3.969   1.192 -0.1803  0.4219  0.0685
  302SOL    HW2 1253   0.014   3.978   1.285  1.8576  1.4133  0.3731
  302SOL    HW3 1254   0.022   4.058   1.157 -1.0994  0.0305 -0.7148
  302SOL    MW4 1255   0.027   3.982   1.199 -0.0327  0.5009  0.0054
  303SOL     OW 1256   4.311   2.778   0.381 -0.0498  0.0244  0.5135
  303SOL    HW2 1257   4.333   2.686   0.373  0.7853  0.2951 -0.3159
  303SOL    HW3 1258   4.218   2.783   0.357  0.4194 -0.3083 -1.4121
  303SOL    MW4 1259   4.301   2.767   0.377  0.1221  0.0162  0.1500
  304SOL     OW 1260   4.090   3.142   0.485 -0.5524 -0.1693  0.2451
  304SOL    HW2 1261   4.061   3.188   0.564  0.2554  0.0185  0.4356
  304SOL    HW3 1262   4.097   3.210   0.419 -0.2990 -0.1735  0.2677
  304SOL    MW4 1263   4.087   3.157   0.487 -0.4125 -0.1450  0.2732
  305SOL     OW 1264   3.172   0.869   0.709  0.0462  0.0550  0.1947
  305SOL    HW2 1265   3.142   0.954   0.741 -1.0615  0.0744 -0.8634
  305SOL    HW3 1266   3.245   0.846   0.767  1.1708  2.2797 -0.2782
  305SOL    MW4 1267   3.178   0.877   0.721  0.0486  0.3511 -0.0074
  306SOL     OW 1268   2.686   4.167   0.436 -0.5431  0.2685  0.2295
  306SOL    HW2 1269   2.631   4.096   0.402 -0.6116  0.0783  0.7234
  306SOL    HW3 1270   2.772   4.152   0.399 -1.3926  2.0511 -2.6566
  306SOL    MW4 1271   2.690   4.156   0.427 -0.6640  0.4783 -0.0862
  307SOL     OW 1272   2.467   0.435   0.726 -0.4753  0.4095  0.1413
  307SOL    HW2 1273   2.471   0.413   0.633  0.1062  0.1573  0.2234
  307SOL    HW3 1274   2.528   0.374   0.768  0.4650  1.5912  0.4949
  307SOL    MW4 1275   2.475   0.424   0.720 -0.2747  0.5321  0.1988
  308SOL     OW 1276   2.484   0.891   0.393  0.2054 -0.4355  0.3514
  308SOL    HW2 1277   2.429   0.950   0.444 -1.2699 -0.6774 -0.9181
  308SOL    HW3 1278   2.553   0.948   0.357  0.4078 -0.0077  1.3961
  308SOL    MW4 1279   2.486   0.906   0.395  0.0374 -0.4110  0.3217
  309SOL     OW 1280   4.253   1.508   0.810  0.8359  0.5831  0.3614
  309SOL    HW2 1281   4.260   1.524   0.905  1.1624  1.2514  0.2293
  309SOL    HW3 1282   4.170   1.461   0.800  0.6865  0.7091  0.9587
  309SOL    MW4 1283   4.243   1.504   0.821  0.8593  0.6881  0.4228
  310SOL     OW 1284   3.792   3.701   0.431 -0.1558 -0.1761  0.3764
  310SOL    HW2 1285   3.708   3.704   0.385 -0.5584  0.3560  1.1420
  310SOL    HW3 1286   3.809   3.608   0.445 -1.1403 -0.2380  1.1834
  310SOL    MW4 1287   3.784   3.689   0.427 -0.3390 -0.1142  0.5839
  311SOL     OW 1288   3.152   1.946   0.796 -0.3426 -0.4274  0.0325
  311SOL    HW2 1289   3.127   2.021   0.742  1.6775 -0.1998 -0.6559
  311SOL    HW3 1290   3.074   1.892   0.802 -1.4924  1.1519 -0.4456
  311SOL    MW4 1291   3.139   1.949   0.790 -0.2277 -0.1889 -0.1214
  312SOL     OW 1292   2.044   0.777   0.834  0.3564 -0.2804 -0.0201
  312SOL    HW2 1293   2.118   0.785   0.774 -1.2849  0.6540 -2.0103
  312SOL    HW3 1294   2.017   0.685   0.827  0.8598 -0.4438  0.1523
  312SOL    MW4 1295   2.050   0.766   0.825  0.2062 -0.1787 -0.2599
  313SOL     OW 1296   4.295   4.366   1.203 -0.5508  0.0117 -0.1279
  313SOL    HW2 1297   4.375   4.319   1.178  0.1842  1.9005 -1.4919
  313SOL    HW3 1298   4.224   4.305   1.185  0.3183 -0.3084 -2.6948
  313SOL    MW4 1299   4.296   4.352   1.197 -0.3390  0.2184 -0.6465
  314SOL     OW 1300   4.275   1.251   1.168 -0.0809  0.2048  0.3951
  314SOL    HW2 1301   4.260   1.245   1.263 -1.9424  1.4355  0.1942
  314SOL    HW3 1302   4.191   1.227   1.129  0.7352 -0.4823 -0.9605
  314SOL    MW4 1303   4.262   1.247   1.175 -0.2189  0.2766  0.1898
  315SOL     OW 1304   1.092   4.078   0.477 -0.5008  0.7407 -0.0176
  315SOL    HW2 1305   1.115   4.005   0.419  1.3762 -0.1005  1.7321
  315SOL    HW3 1306   1.019   4.045   0.529  0.2868  0.1053  0.7101
  315SOL    MW4 1307   1.085   4.064   0.476 -0.1494  0.5460  0.3092
  316SOL     OW 1308   1.717   1.656   0.431 -0.0506  0.4141 -0.3145
  316SOL    HW2 1309   1.750   1.719   0.367 -0.8067  0.7796 -0.3610
  316SOL    HW3 1310   1.628   1.687   0.450 -0.3258 -0.4800 -0.1282
  316SOL    MW4 1311   1.709   1.668   0.425 -0.1867  0.3444 -0.2960
  317SOL     OW 1312   1.180   0.367   0.674  0.3507 -0.1173  0.6577
  317SOL    HW2 1313   1.251   0.406   0.726  0.5828  0.7294 -0.2745
  317SOL    HW3 1314   1.103   0.376   0.729  0.3149  2.1172  0.2777
  317SOL    MW4 1315   1.179   0.373   0.688  0.3766  0.2892  0.4845
  318SOL     OW 1316   1.554   2.293   1.060 -0.0204  0.3074 -0.3433
  318SOL    HW2 1317   1.487   2.352   1.095 -0.8133  0.3026 -1.8329
  318SOL    HW3 1318   1.629   2.351   1.042  0.6482  0.2147  1.9109
  318SOL    MW4 1319   1.555   2.308   1.062 -0.0367  0.2944 -0.2426
  319SOL     OW 1320   0.089   3.949   0.468  0.2104  0.0683 -0.4223
  319SOL    HW2 1321   0.113   3.900   0.547 -1.6448  1.1245  0.8669
  319SOL    HW3 1322   0.137   4.031   0.476 -0.3079  0.3505 -0.1489
  319SOL    MW4 1323   0.098   3.953   0.480 -0.1028  0.2446 -0.2161
  320SOL     OW 1324   3.016   4.426   0.440 -0.0639  0.1112 -0.2683
  320SOL    HW2 1325   2.985   4.407   0.528  0.5664 -2.2843 -0.5182
  320SOL    HW3 1326   3.031   4.520   0.439  0.8476  0.0411  2.4722
  320SOL    MW4 1327   3.014   4.436   0.451  0.1397 -0.2146  0.0603
  321SOL     OW 1328   0.134   3.401   0.409 -0.0761 -0.4046 -0.0516
  321SOL    HW2 1329   0.111   3.312   0.433  1.6907 -0.8875 -0.0870
  321SOL    HW3 1330   0.173   3.438   0.489  0.5821 -0.1668 -0.4760
  321SOL    MW4 1331   0.136   3.394   0.423  0.2439 -0.4370 -0.1123
  322SOL     OW 1332   3.086   2.710   0.822 -0.2718 -0.3639 -0.4746
  322SOL    HW2 1333   3.159   2.767   0.800 -0.0355  0.2467  1.7188
  322SOL    HW3 1334   3.100   2.689   0.915 -3.3812  0.5814  0.2686
  322SOL    MW4 1335   3.097   2.715   0.832 -0.6511 -0.1585 -0.0872
  323SOL     OW 1336   4.291   1.723   0.481  0.4813 -0.2266  0.1237
  323SOL    HW2 1337   4.280   1.802   0.428 -1.2032 -0.3488  0.2664
  323SOL    HW3 1338   4.310   1.755   0.569 -0.2263  0.0355  0.1874
  323SOL    MW4 1339   4.292   1.738   0.485  0.1659 -0.2083  0.1510
  324SOL     OW 1340   3.299   2.864   0.745 -0.0586  0.0422 -0.1797
  324SOL    HW2 1341   3.291   2.866   0.649 -0.1320 -1.9866 -0.2426
  324SOL    HW3 1342   3.383   2.822   0.761  1.1543  2.7256  0.6522
  324SOL    MW4 1343   3.309   2.858   0.734  0.0916  0.1285 -0.0783
  325SOL     OW 1344   3.605   4.435   0.870  0.4935 -0.7565  0.1168
  325SOL    HW2 1345   3.618   4.380   0.948  2.3136  0.4979  0.7395
  325SOL    HW3 1346   3.654   4.515   0.889 -0.9624  0.5189 -1.3608
  325SOL    MW4 1347   3.613   4.438   0.883  0.5414 -0.4230  0.0040
  326SOL     OW 1348   3.804   4.072   0.238 -0.3049  0.0836  0.2145
  326SOL    HW2 1349   3.852   3.995   0.207 -0.5412  0.2002 -0.4529
  326SOL    HW3 1350   3.718   4.039   0.264 -0.4138  0.1275 -0.0929
  326SOL    MW4 1351   3.799   4.058   0.237 -0.3505  0.1044  0.0859
  327SOL     OW 1352   0.446   1.853   0.852  0.3113  0.1143  0.0532
  327SOL    HW2 1353   0.423   1.892   0.937 -2.1301  0.1206 -0.5662
  327SOL    HW3 1354   0.493   1.923   0.806  0.2322  0.6678  0.7942
  327SOL    MW4 1355   0.449   1.868   0.857 -0.0212  0.1880  0.0692
  328SOL     OW 1356   2.899   0.497   1.205 -0.4082 -0.0820  0.0077
  328SOL    HW2 1357   2.980   0.448   1.189 -0.3831 -0.3988  1.0193
  328SOL    HW3 1358   2.832   0.450   1.156  0.1217  0.5331 -1.3309
  328SOL    MW4 1359   2.901   0.484   1.197 -0.3350 -0.0426 -0.0354
  329SOL     OW 1360   2.025   0.476   0.779 -0.4368 -0.0547 -0.3611
  329SOL    HW2 1361   1.955   0.420   0.813  0.5425 -0.9603  0.1874
  329SOL    HW3 1362   2.008   0.481   0.685 -1.1671 -0.3774 -0.2438
  329SOL    MW4 1363   2.014   0.469   0.771 -0.4041 -0.2168 -0.2732
  330SOL     OW 1364   1.359   1.680   0.327  0.0101 -0.3201 -0.1637
  330SOL    HW2 1365   1.446   1.721   0.327  0.5925 -1.5241  0.8782
  330SOL    HW3 1366   1.299   1.753   0.343  0.7309  0.6765 -1.8164
  330SOL    MW4 1367   1.363   1.695   0.329  0.1818 -0.3475 -0.2443
  331SOL     OW 1368   2.710   3.423   0.882  0.1108 -0.7485  0.2160
  331SOL    HW2 1369   2.805   3.417   0.893  0.2940  0.0204 -0.9097
  331SOL    HW3 1370   2.696   3.503   0.832 -1.3470  0.9552  3.1707
  331SOL    MW4 1371   2.721   3.433   0.877 -0.0577 -0.4222  0.4573
  332SOL     OW 1372   2.407   3.595   0.306 -0.3979 -0.1228  0.4908
  332SOL    HW2 1373   2.319   3.607   0.270  0.5305  1.5706 -1.3769
  332SOL    HW3 1374   2.399   3.522   0.367 -2.7262 -1.0824 -0.9017
  332SOL    MW4 1375   2.394   3.587   0.309 -0.5822 -0.0260  0.0607
  333SOL     OW 1376   1.398   2.242   0.306 -0.1764 -0.1716 -0.2720
  333SOL    HW2 1377   1.382   2.281   0.392 -1.0562 -1.4675  0.1822
  333SOL    HW3 1378   1.311   2.237   0.266  0.1974  0.1892 -1.1359
  333SOL    MW4 1379   1.384   2.246   0.312 -0.2432 -0.2952 -0.3261
  334SOL     OW 1380   2.725   1.146   1.111 -0.0141  0.2001  0.2629
  334SOL    HW2 1381   2.803   1.201   1.113 -0.7664  1.2783  0.2169
  334SOL    HW3 1382   2.757   1.059   1.135  1.2164  0.6082  0.1436
  334SOL    MW4 1383   2.739   1.141   1.115  0.0489  0.3963  0.2412
  335SOL     OW 1384   2.652   1.063   0.272  0.3694  0.3120  0.2067
  335SOL    HW2 1385   2.655   1.088   0.180 -0.5874  0.4971  0.2166
  335SOL    HW3 1386   2.651   1.146   0.320 -0.0889  0.2379  0.3371
  335SOL    MW4 1387   2.652   1.077   0.266  0.1826  0.3266  0.2252
  336SOL     OW 1388   1.500   3.715   0.861  0.2385 -0.0311 -0.0743
  336SOL    HW2 1389   1.578   3.697   0.809 -0.0724  0.0683 -0.5823
  336SOL    HW3 1390   1.530   3.773   0.932  0.9881 -1.4708  0.8112
  336SOL    MW4 1391   1.514   3.720   0.864  0.2965 -0.2081 -0.0244
  337SOL     OW 1392   1.057   2.463   0.475  0.0857 -0.0731 -0.2357
  337SOL    HW2 1393   1.015   2.497   0.553 -2.0048 -1.1248 -0.8694
  337SOL    HW3 1394   1.008   2.502   0.402 -0.0806 -1.6405 -0.9827
  337SOL    MW4 1395   1.045   2.472   0.476 -0.2120 -0.4189 -0.4179
  338SOL     OW 1396   1.694   3.314   0.378 -0.1751 -0.0989  0.2606
  338SOL    HW2 1397   1.733   3.244   0.325  1.7466  1.0214  0.1446
  338SOL    HW3 1398   1.710   3.286   0.469 -0.6592 -0.4772  0.2336
  338SOL    MW4 1399   1.701   3.301   0.383  0.0145 -0.0007  0.2418
  339SOL     OW 1400   2.055   3.851   0.563 -0.2878  0.1443  0.1513
  339SOL    HW2 1401   2.094   3.936   0.541 -0.0591 -0.2634 -1.0949
  339SOL    HW3 1402   1.961   3.869   0.570 -0.1900  0.5876  0.3139
  339SOL    MW4 1403   2.048   3.865   0.561 -0.2449  0.1490  0.0084
  340SOL     OW 1404   3.616   2.727   1.100  0.2326 -0.0128 -0.0428
  340SOL    HW2 1405   3.685   2.777   1.144 -1.3619  0.8818  1.4632
  340SOL    HW3 1406   3.611   2.644   1.148 -0.9992  0.6664  1.0189
  340SOL    MW4 1407   3.625   2.723   1.112 -0.1404  0.1948  0.2960
  341SOL     OW 1408   2.616   3.750   0.425  0.2933  0.3797 -0.1516
  341SOL    HW2 1409   2.692   3.726   0.372 -0.4871 -0.3870 -0.9594
  341SOL    HW3 1410   2.541   3.722   0.372 -0.5500  1.2212  0.5822
  341SOL    MW4 1411   2.616   3.743   0.411  0.0789  0.3896 -0.1614
  342SOL     OW 1412   3.110   0.902   1.166 -0.2339 -0.0285 -0.0368
  342SOL    HW2 1413   3.045   0.852   1.116 -0.9128  0.7118  0.0976
  342SOL    HW3 1414   3.088   0.883   1.258 -0.9653  1.1094  0.0273
  342SOL    MW4 1415   3.099   0.893   1.172 -0.4199  0.2193 -0.0107
  343SOL     OW 1416   4.374   4.627   0.396 -0.0062 -0.2480  0.1493
  343SOL    HW2 1417   4.343   4.645   0.484 -0.3456 -0.0591 -0.0115
  343SOL    HW3 1418   4.410   4.710   0.365  1.0848 -0.5760  0.5085
  343SOL    MW4 1419   4.375   4.640   0.404  0.0930 -0.2666  0.1754
  344SOL     OW 1420   2.909   2.110   1.215  0.2262 -0.2059  0.1202
  344SOL    HW2 1421   2.917   2.087   1.308  0.7219  1.4088  0.4945
  344SOL    HW3 1422   2.982   2.066   1.172  0.5727 -0.1663  0.6636
  344SOL    MW4 1423   2.920   2.101   1.222  0.3374  0.0124  0.2412
  345SOL     OW 1424   4.019   1.358   0.754 -0.1354 -0.3380  0.3755
  345SOL    HW2 1425   4.000   1.363   0.660 -0.7015 -0.2315  0.4933
  345SOL    HW3 1426   3.991   1.270   0.779 -0.1595 -0.2988  0.4848
  345SOL    MW4 1427   4.013   1.347   0.745 -0.2131 -0.3189  0.4055
  346SOL     OW 1428   3.032   3.404   0.760 -0.1134  0.2628 -0.1428
  346SOL    HW2 1429   3.009   3.318   0.794  0.0194  0.4258  0.3639
  346SOL    HW3 1430   3.105   3.433   0.815  1.8434 -0.5655 -2.2223
  346SOL    MW4 1431   3.038   3.397   0.772  0.1624  0.1752 -0.3503
  347SOL     OW 1432   2.048   1.548   1.054  0.5856 -0.0343 -0.0202
  347SOL    HW2 1433   2.063   1.467   1.102  0.7619  0.0979  0.1498
  347SOL    HW3 1434   2.041   1.521   0.962 -0.4991 -0.3742  0.1552
  347SOL    MW4 1435   2.049   1.534   1.048  0.4656 -0.0618  0.0254
  348SOL     OW 1436   2.020   2.265   1.015 -0.0568  0.2736  0.0165
  348SOL    HW2 1437   2.086   2.326   1.046  0.2071  0.2376 -0.4669
  348SOL    HW3 1438   2.027   2.189   1.073 -0.1215  0.5388  0.3736
  348SOL    MW4 1439   2.029   2.263   1.027 -0.0305  0.3040 -0.0002
  349SOL     OW 1440   0.585   0.201   0.705 -0.8471 -0.4569  0.1363
  349SOL    HW2 1441   0.612   0.134   0.767  1.3036  0.9414  0.7589
  349SOL    HW3 1442   0.562   0.277   0.760  0.8137  0.6982 -0.7343
  349SOL    MW4 1443   0.586   0.202   0.721 -0.3442 -0.1200  0.1036
  350SOL     OW 1444   0.652   4.647   1.189 -0.3842  0.1728 -0.1440
  350SOL    HW2 1445   0.651   4.552   1.200  2.8599  0.0882 -0.1517
  350SOL    HW3 1446   0.635   4.660   1.095  0.4232 -0.4520 -0.3815
  350SOL    MW4 1447   0.649   4.636   1.178  0.1504  0.0792 -0.1765
  351SOL     OW 1448   2.422   0.422   0.463 -0.0777  0.0555  0.0670
  351SOL    HW2 1449   2.499   0.376   0.429 -1.2859 -0.7394 -1.6506
  351SOL    HW3 1450   2.347   0.378   0.422 -1.4088  1.5931  0.7822
  351SOL    MW4 1451   2.422   0.410   0.453 -0.4127  0.1535 -0.0653
  352SOL     OW 1452   0.186   3.538   0.640 -0.2765  0.4060 -0.0728
  352SOL    HW2 1453   0.282   3.534   0.646 -0.3186 -3.0419 -0.9824
  352SOL    HW3 1454   0.156   3.479   0.709 -1.6619 -1.0138 -1.8623
  352SOL    MW4 1455   0.195   3.530   0.650 -0.4649 -0.2360 -0.4289
  353SOL     OW 1456   0.828   2.304   0.181  0.4111  0.4587 -0.1429
  353SOL    HW2 1457   0.858   2.388   0.216  2.0276 -0.4679  0.7425
  353SOL    HW3 1458   0.754   2.280   0.236 -0.6026  1.7072 -0.9455
  353SOL    MW4 1459   0.822   2.312   0.193  0.4907  0.5012 -0.1320
  354SOL     OW 1460   0.165   0.265   0.534 -0.1184 -0.1057  0.7896
  354SOL    HW2 1461   0.131   0.227   0.615 -0.3717  1.2190  1.3135
  354SOL    HW3 1462   0.252   0.227   0.524 -0.1159 -0.3374  1.6360
  354SOL    MW4 1463   0.172   0.255   0.543 -0.1515  0.0385  0.9704
  355SOL     OW 1464   3.580   0.902   1.197  0.0865  0.2889  0.1052
  355SOL    HW2 1465   3.586   0.991   1.164  2.7613  0.1132  0.0735
  355SOL    HW3 1466   3.661   0.860   1.170 -1.7993 -2.6501 -1.2487
  355SOL    MW4 1467   3.591   0.908   1.189  0.1907 -0.1221 -0.0777
  356SOL     OW 1468   3.800   3.664   1.213  0.3077 -0.2021 -0.3035
  356SOL    HW2 1469   3.803   3.667   1.309  1.3986 -1.4951 -0.2783
  356SOL    HW3 1470   3.716   3.622   1.193  0.4690 -0.7395  0.1157
  356SOL    MW4 1471   3.789   3.659   1.223  0.4730 -0.4437 -0.2450
  357SOL     OW 1472   2.810   3.831   0.703  0.4176  0.0377 -0.1631
  357SOL    HW2 1473   2.737   3.769   0.705  1.2286 -0.9209 -0.2877
  357SOL    HW3 1474   2.880   3.788   0.752  0.5840  1.3732  0.7990
  357SOL    MW4 1475   2.809   3.817   0.709  0.5465  0.0875 -0.0526
  358SOL     OW 1476   1.771   1.410   0.717 -0.3945 -0.0659 -0.4947
  358SOL    HW2 1477   1.751   1.400   0.624  1.4447 -0.0719 -0.9134
  358SOL    HW3 1478   1.745   1.327   0.756  0.6188 -0.8012 -1.3524
  358SOL    MW4 1479   1.765   1.398   0.710 -0.0182 -0.1637 -0.6631
  359SOL     OW 1480   0.441   0.391   1.124  0.1581  0.0986  0.0598
  359SOL    HW2 1481   0.437   0.309   1.173 -0.8660  0.5559  0.7519
  359SOL    HW3 1482   0.471   0.366   1.037  0.6958 -0.8926  0.5216
  359SOL    MW4 1483   0.445   0.377   1.119  0.0940  0.0281  0.2121
  360SOL     OW 1484   1.493   2.467   0.521  0.1962  0.1361 -0.2762
  360SOL    HW2 1485   1.413   2.509   0.489  0.8908  2.0167  0.4060
  360SOL    HW3 1486   1.477   2.456   0.615  1.0927  1.2936  0.0066
  360SOL    MW4 1487   1.480   2.471   0.529  0.4063  0.5364 -0.1488
  361SOL     OW 1488   3.155   3.835   0.344  0.3997 -0.2215  0.3894
  361SOL    HW2 1489   3.200   3.758   0.309 -1.5417 -1.0806 -0.3125
  361SOL    HW3 1490   3.190   3.908   0.293  0.3026 -0.9965 -0.8120
  361SOL    MW4 1491   3.165   3.834   0.332  0.1309 -0.4370  0.1383
  362SOL     OW 1492   0.964   4.394   0.722 -0.2072  0.0320 -0.5107
  362SOL    HW2 1493   0.948   4.488   0.734  0.6824  0.4123 -2.2223
  362SOL    HW3 1494   0.964   4.381   0.627  0.4372 -1.5737 -0.3129
  362SOL    MW4 1495   0.962   4.405   0.711 -0.0049 -0.1297 -0.7104
  363SOL     OW 1496   2.144   2.824   1.294 -0.0037 -0.0583 -0.1789
  363SOL    HW2 1497   2.235   2.852   1.298 -0.3356  1.0259  0.0413
  363SOL    HW3 1498   2.140   2.765   1.218  0.9761 -0.5081  0.1128
  363SOL    MW4 1499   2.155   2.820   1.284  0.0820  0.0253 -0.1113
  364SOL     OW 1500   1.217   2.258   0.558 -0.2502  0.0339  0.5429
  364SOL    HW2 1501   1.155   2.326   0.531 -1.4904 -1.1247  0.4428
  364SOL    HW3 1502   1.201   2.248   0.652  0.2703  0.2130  0.6517
  364SOL    MW4 1503   1.207   2.266   0.567 -0.3452 -0.0956  0.5440
  365SOL     OW 1504   0.214   2.011   0.408 -0.0772 -0.8841  0.3079
  365SOL    HW2 1505   0.247   2.067   0.479 -0.4883 -0.5429  0.2292
  365SOL    HW3 1506   0.225   1.922   0.442  1.1999 -0.7915  0.1647
  365SOL    MW4 1507   0.220   2.006   0.422  0.0370 -0.8271  0.2786
  366SOL     OW 1508   0.567   3.365   0.846  0.2872 -0.1492 -0.8738
  366SOL    HW2 1509   0.511   3.396   0.917  0.4598 -0.9010 -0.4057
  366SOL    HW3 1510   0.538   3.414   0.769 -0.1785  0.3650 -0.3712
  366SOL    MW4 1511   0.556   3.376   0.845  0.2485 -0.1805 -0.7457
  367SOL     OW 1512   0.539   4.216   0.822  0.4609 -0.3443 -0.4999
  367SOL    HW2 1513   0.522   4.236   0.914 -0.5367  0.3461 -0.8256
  367SOL    HW3 1514   0.633   4.228   0.812  0.7336 -1.3338  0.6417
  367SOL    MW4 1515   0.549   4.220   0.833  0.3652 -0.3834 -0.3923
  368SOL     OW 1516   4.006   2.003   0.452 -0.2634 -0.2936  0.4190
  368SOL    HW2 1517   3.937   2.062   0.483 -0.3174  0.7072 -1.5190
  368SOL    HW3 1518   3.967   1.916   0.457 -1.7212  0.2688 -0.6817
  368SOL    MW4 1519   3.992   2.000   0.457 -0.4628 -0.0875  0.0181
  369SOL     OW 1520   1.221   3.790   0.789 -0.2557 -0.1938 -0.2601
  369SOL    HW2 1521   1.310   3.760   0.806 -0.0194 -0.0295 -1.1618
  369SOL    HW3 1522   1.191   3.825   0.873  0.8679  0.6029 -0.1681
  369SOL    MW4 1523   1.229   3.791   0.802 -0.0762 -0.0670 -0.3669
  370SOL     OW 1524   3.827   2.837   1.236 -0.2234 -0.2968  0.1807
  370SOL    HW2 1525   3.842   2.832   1.330 -1.8529 -0.6890  0.4306
  370SOL    HW3 1526   3.905   2.798   1.197  1.7524  2.3586  1.2674
  370SOL    MW4 1527   3.839   2.831   1.243 -0.1776  0.0019  0.3572
  371SOL     OW 1528   4.271   3.576   1.190 -0.4339  0.1513 -0.1830
  371SOL    HW2 1529   4.269   3.668   1.165  2.0527  0.3557  0.2212
  371SOL    HW3 1530   4.345   3.540   1.142 -1.1328 -1.5431 -0.0145
  371SOL    MW4 1531   4.281   3.583   1.181 -0.1979 -0.0453 -0.1075
  372SOL     OW 1532   4.184   3.015   0.883  0.1538 -0.0355  0.6546
  372SOL    HW2 1533   4.104   3.064   0.862 -0.0209 -0.7002 -0.2679
  372SOL    HW3 1534   4.243   3.033   0.810  1.0045  0.7524  1.5152
  372SOL    MW4 1535   4.181   3.024   0.871  0.2437 -0.0191  0.6465
  373SOL     OW 1536   3.779   0.501   0.717  0.3288 -0.1219  0.0491
  373SOL    HW2 1537   3.810   0.567   0.779  1.5300  0.3503 -1.0264
  373SOL    HW3 1538   3.735   0.551   0.649 -0.5109 -0.5927  0.2412
  373SOL    MW4 1539   3.777   0.516   0.716  0.3765 -0.1218 -0.0675
  374SOL     OW 1540   2.258   4.259   0.846  0.1977  0.3792 -0.4397
  374SOL    HW2 1541   2.178   4.269   0.796 -0.0015  0.3628 -0.1253
  374SOL    HW3 1542   2.288   4.170   0.827 -0.0470  0.2620 -0.2861
  374SOL    MW4 1543   2.252   4.249   0.837  0.1390  0.3619 -0.3780
  375SOL     OW 1544   1.746   2.962   0.824 -0.4595  0.4826 -0.0473
  375SOL    HW2 1545   1.730   3.054   0.845 -0.5384  0.1717  1.2820
  375SOL    HW3 1546   1.805   2.964   0.749  1.3522  1.6173  1.3772
  375SOL    MW4 1547   1.752   2.975   0.817 -0.2309  0.5913  0.3160
  376SOL     OW 1548   1.117   1.305   1.189 -0.0146 -0.0594 -0.3905
  376SOL    HW2 1549   1.104   1.293   1.283  1.6174 -0.7118 -0.2371
  376SOL    HW3 1550   1.209   1.285   1.175 -0.8010 -2.3492 -2.5228
  376SOL    MW4 1551   1.127   1.301   1.200  0.0969 -0.4476 -0.6516
  377SOL     OW 1552   0.781   4.430   0.407  0.0740  0.1908  0.4888
  377SOL    HW2 1553   0.791   4.511   0.458  0.5375  1.4621 -1.5591
  377SOL    HW3 1554   0.870   4.396   0.399  0.0307  0.1069  0.3618
  377SOL    MW4 1555   0.794   4.436   0.413  0.1294  0.3476  0.2019
  378SOL     OW 1556   1.376   0.906   0.744 -0.2064 -0.2506 -0.4051
  378SOL    HW2 1557   1.389   0.987   0.793 -0.9370 -0.2169 -0.2602
  378SOL    HW3 1558   1.455   0.854   0.761  0.5250  0.6571 -0.9545
  378SOL    MW4 1559   1.388   0.909   0.753 -0.2064 -0.1264 -0.4584
  379SOL     OW 1560   3.261   3.105   0.843 -0.5253  0.0760 -0.6288
  379SOL    HW2 1561   3.290   3.024   0.803  0.8848  0.7211 -0.9251
  379SOL    HW3 1562   3.298   3.104   0.932  0.9047  1.1564 -1.1964
  379SOL    MW4 1563   3.269   3.094   0.850 -0.1504  0.3037 -0.7428
  380SOL     OW 1564   0.191   4.623   1.138 -0.1878 -0.6258 -0.1921
  380SOL    HW2 1565   0.106   4.663   1.157  0.7498  1.0398  0.6078
  380SOL    HW3 1566   0.194   4.616   1.043 -0.3185  1.3920 -0.3644
  380SOL    MW4 1567   0.180   4.627   1.128 -0.0813 -0.1397 -0.1092
  381SOL     OW 1568   0.097   0.730   0.382 -0.2479  0.0973  0.5191
  381SOL    HW2 1569   0.173   0.739   0.325  0.4399 -0.6408  1.3087
  381SOL    HW3 1570   0.065   0.819   0.394  0.5616  0.4261  0.2628
  381SOL    MW4 1571   0.103   0.743   0.376 -0.0503  0.0433  0.5895
  382SOL     OW 1572   0.002   1.934   1.138  0.1933 -0.4780  0.1143
  382SOL    HW2 1573   0.000   1.841   1.160 -0.1552 -0.5343 -0.1358
  382SOL    HW3 1574  -0.020   1.936   1.044  1.0808 -0.2096 -0.0940
  382SOL    MW4 1575  -0.001   1.922   1.128  0.2637 -0.4501  0.0539
  383SOL     OW 1576   3.357   4.288   0.793  0.2256 -0.1062  0.1477
  383SOL    HW2 1577   3.348   4.289   0.698 -1.4720  0.2549  0.3058
  383SOL    HW3 1578   3.399   4.372   0.813 -2.5553  1.3548  0.0019
  383SOL    MW4 1579   3.362   4.300   0.783 -0.3650  0.1335  0.1493
  384SOL     OW 1580   3.762   2.778   0.454 -0.3733  0.0596 -0.3322
  384SOL    HW2 1581   3.756   2.794   0.548 -0.2059 -0.1650 -0.2820
  384SOL    HW3 1582   3.849   2.809   0.430  0.2221 -1.3792 -0.1051
  384SOL    MW4 1583   3.773   2.784   0.463 -0.2725 -0.1597 -0.2956
  385SOL     OW 1584   3.825   0.111   0.757  0.1064  0.3126 -0.1013
  385SOL    HW2 1585   3.763   0.100   0.685  0.0938  0.9457 -0.1904
  385SOL    HW3 1586   3.880   0.032   0.753  0.6300  0.7245 -1.3125
  385SOL    MW4 1587   3.824   0.099   0.747  0.1738  0.4505 -0.2728
  386SOL     OW 1588   1.615   4.313   0.741  0.0830 -0.3602 -1.3400
  386SOL    HW2 1589   1.557   4.248   0.780  1.5182 -1.3880 -0.8340
  386SOL    HW3 1590   1.583   4.397   0.774  1.3894 -1.2113  2.3430
  386SOL    MW4 1591   1.603   4.315   0.751  0.4447 -0.6080 -0.7873
  387SOL     OW 1592   3.024   3.743   0.853 -0.1247  0.6984  0.4542
  387SOL    HW2 1593   3.060   3.658   0.880  1.3063  0.3332 -2.4147
  387SOL    HW3 1594   2.989   3.780   0.934 -0.2854 -2.3651  1.8909
  387SOL    MW4 1595   3.024   3.736   0.867  0.0427  0.2458  0.2653
  388SOL     OW 1596   2.357   1.440   0.528  0.2483 -0.0181 -0.4549
  388SOL    HW2 1597   2.432   1.380   0.524  0.4285  0.3501 -3.7521
  388SOL    HW3 1598   2.281   1.386   0.506 -0.0338  0.2777 -0.2155
  388SOL    MW4 1599   2.357   1.425   0.524  0.2351  0.0695 -0.8584
  389SOL     OW 1600   2.102   3.019   0.871  0.6902  0.1030  0.0423
  389SOL    HW2 1601   2.053   3.008   0.953 -1.2978 -0.7385 -1.2336
  389SOL    HW3 1602   2.169   2.951   0.874  0.8136  0.2636  1.1033
  389SOL    MW4 1603   2.105   3.008   0.883  0.4439  0.0131  0.0139
  390SOL     OW 1604   2.762   1.871   0.303 -0.2037 -0.0896 -0.0629
  390SOL    HW2 1605   2.798   1.854   0.216  0.8168  0.6749  0.2037
  390SOL    HW3 1606   2.831   1.843   0.364 -0.5044  0.3272  0.4774
  390SOL    MW4 1607   2.776   1.865   0.300 -0.1087  0.0663  0.0435
  391SOL     OW 1608   0.305   3.175   0.048  0.1494  0.5038 -0.2121
  391SOL    HW2 1609   0.247   3.214  -0.017  0.8497  0.0444 -1.1106
  391SOL    HW3 1610   0.334   3.249   0.101 -1.6660  0.6782  0.5928
  391SOL    MW4 1611   0.301   3.190   0.047  0.0023  0.4661 -0.2244
  392SOL     OW 1612   0.528   3.087   0.836  0.1130 -0.3015 -0.2320
  392SOL    HW2 1613   0.561   3.177   0.838 -0.1778 -0.1655 -1.2887
  392SOL    HW3 1614   0.434   3.096   0.850 -0.1138 -0.3252 -1.6750
  392SOL    MW4 1615   0.520   3.100   0.838  0.0447 -0.2863 -0.5618
  393SOL     OW 1616   1.130   2.191   0.163 -0.5630  0.1464 -1.3203
  393SOL    HW2 1617   1.057   2.253   0.168 -0.3831  0.3143 -0.6304
  393SOL    HW3 1618   1.100   2.122   0.105 -1.9205 -0.6563  0.3029
  393SOL    MW4 1619   1.116   2.190   0.156 -0.7184  0.0625 -1.0151
  394SOL     OW 1620   2.269   1.958   0.810 -0.3148 -0.0445 -0.2562
  394SOL    HW2 1621   2.256   1.863   0.813 -1.1994  0.0785 -0.1270
  394SOL    HW3 1622   2.187   1.993   0.777 -0.8345  0.8497  1.8689
  394SOL    MW4 1623   2.257   1.950   0.806 -0.5000  0.0895  0.0413
  395SOL     OW 1624   4.261   0.340   0.453 -0.1405  0.0795  0.1155
  395SOL    HW2 1625   4.167   0.338   0.432 -0.6131 -0.0679  2.1304
  395SOL    HW3 1626   4.284   0.433   0.445 -0.3428  0.0511 -0.8538
  395SOL    MW4 1627   4.251   0.352   0.449 -0.2298  0.0563  0.2535
  396SOL     OW 1628   0.629   0.085   0.336  0.3416  0.2191  0.0937
  396SOL    HW2 1629   0.605  -0.002   0.304  1.2294 -0.7216  1.9218
  396SOL    HW3 1630   0.632   0.140   0.257 -0.3188 -1.3691 -1.0590
  396SOL    MW4 1631   0.626   0.081   0.321  0.3715 -0.1146  0.1828
  397SOL     OW 1632   2.630   1.138   0.850  0.4321 -0.0021 -0.1152
  397SOL    HW2 1633   2.659   1.140   0.941  0.9936  2.6270 -0.3091
  397SOL    HW3 1634   2.688   1.074   0.808  1.5023  0.2418  0.9540
  397SOL    MW4 1635   2.642   1.130   0.856  0.6473  0.3769  0.0002
  398SOL     OW 1636   1.647   2.126   0.353 -0.0543  0.0705  0.1979
  398SOL    HW2 1637   1.572   2.171   0.315  0.3338  0.6678  0.1352
  398SOL    HW3 1638   1.608   2.053   0.402 -0.7592  1.0388  1.1114
  398SOL    MW4 1639   1.632   2.123   0.355 -0.0962  0.2768  0.3101
  399SOL     OW 1640   3.845   2.239   0.526 -0.0374 -0.0107  0.2374
  399SOL    HW2 1641   3.775   2.185   0.563 -0.7801 -0.9014 -2.3467
  399SOL    HW3 1642   3.802   2.320   0.500 -0.0962 -0.4748 -1.1576
  399SOL    MW4 1643   3.830   2.242   0.528 -0.1431 -0.1895 -0.2876
  400SOL     OW 1644   0.554   2.748   0.821  0.0916 -0.3561  0.1611
  400SOL    HW2 1645   0.524   2.738   0.911 -1.4998 -0.5634 -0.3785
  400SOL    HW3 1646   0.494   2.811   0.782  0.0507 -1.1441 -1.0848
  400SOL    MW4 1647   0.542   2.755   0.827 -0.1238 -0.4876 -0.0745
  401SOL     OW 1648   2.416   1.439   0.896  0.0239 -0.2184  0.3972
  401SOL    HW2 1649   2.432   1.469   0.986 -0.5584 -1.1450  0.8199
  401SOL    HW3 1650   2.359   1.506   0.858 -0.5416 -0.3218  1.0514
  401SOL    MW4 1651   2.410   1.452   0.903 -0.1278 -0.3543  0.5394
  402SOL     OW 1652   4.287   2.537   0.659  0.4090 -0.5341 -0.4680
  402SOL    HW2 1653   4.312   2.501   0.573  2.2544  0.5383 -0.4150
  402SOL    HW3 1654   4.272   2.460   0.713 -1.2130 -1.2364 -1.8548
  402SOL    MW4 1655   4.289   2.522   0.655  0.4382 -0.4854 -0.6439
  403SOL     OW 1656   3.619   1.189   0.619 -0.5193 -0.0188 -0.2854
  403SOL    HW2 1657   3.543   1.183   0.561 -0.4140 -0.0157 -0.4257
  403SOL    HW3 1658   3.602   1.127   0.689 -0.0529 -0.9592 -1.0032
  403SOL    MW4 1659   3.607   1.180   0.620 -0.4437 -0.1423 -0.3986
  404SOL     OW 1660   0.855   1.581   0.667 -0.5211  0.0603  0.1822
  404SOL    HW2 1661   0.929   1.561   0.724 -0.0139 -0.9974 -0.8284
  404SOL    HW3 1662   0.846   1.503   0.611 -1.6965  0.6323 -0.4416
  404SOL    MW4 1663   0.863   1.568   0.667 -0.6093 -0.0036 -0.0334
  405SOL     OW 1664   1.607   0.129   0.498 -0.1147 -0.0519 -0.4094
  405SOL    HW2 1665   1.645   0.045   0.472 -1.4177 -0.3386 -1.4622
  405SOL    HW3 1666   1.650   0.193   0.441  0.3863 -0.0926 -0.0776
  405SOL    MW4 1667   1.618   0.126   0.487 -0.2207 -0.0951 -0.5046
  406SOL     OW 1668   1.585   2.037   1.160  0.2425 -0.0527  0.6794
  406SOL    HW2 1669   1.583   2.129   1.134  1.1423  0.5126  2.4978
  406SOL    HW3 1670   1.505   2.000   1.122 -0.5284  1.6514  0.5536
  406SOL    MW4 1671   1.574   2.045   1.151  0.2595  0.2465  0.9028
  407SOL     OW 1672   2.576   1.221   0.520 -0.1450  0.5704  0.1619
  407SOL    HW2 1673   2.517   1.151   0.548  1.0359 -0.1249  0.9063
  407SOL    HW3 1674   2.604   1.263   0.601  0.2984  0.9786 -0.2030
  407SOL    MW4 1675   2.572   1.217   0.534  0.0694  0.5325  0.2120
  408SOL     OW 1676   2.001   4.599   0.152  0.7067  0.2065  0.1577
  408SOL    HW2 1677   2.027   4.565   0.237  0.0210 -1.5522 -0.3191
  408SOL    HW3 1678   1.919   4.554   0.132  0.0502  1.7577 -0.7356
  408SOL    MW4 1679   1.993   4.589   0.160  0.5294  0.1793 -0.0230
  409SOL     OW 1680   0.492   1.754   0.410  0.5411  0.1880  0.6170
  409SOL    HW2 1681   0.515   1.811   0.337  1.3072 -0.3447  0.4365
  409SOL    HW3 1682   0.397   1.753   0.411  0.5189  1.2096  0.4186
  409SOL    MW4 1683   0.483   1.762   0.401  0.6392  0.2525  0.5670
  410SOL     OW 1684   1.415   3.368   0.343 -0.4680 -0.5743  0.4894
  410SOL    HW2 1685   1.510   3.379   0.348 -0.5129 -0.2666  0.6399
  410SOL    HW3 1686   1.403   3.299   0.278 -0.1143 -1.0588  0.9326
  410SOL    MW4 1687   1.426   3.360   0.335 -0.4274 -0.5977  0.5677
  411SOL     OW 1688   1.774   3.394   1.010  0.0013 -0.5085 -0.0540
  411SOL    HW2 1689   1.817   3.455   0.949  0.1740  1.2774  1.7719
  411SOL    HW3 1690   1.846   3.355   1.059 -0.1671 -1.5212 -0.6109
  411SOL    MW4 1691   1.789   3.397   1.008  0.0019 -0.4065  0.1134
  412SOL     OW 1692   0.707   4.149   0.514 -0.2839  0.0395  0.2329
  412SOL    HW2 1693   0.622   4.149   0.469 -0.6722  1.5654  0.9398
  412SOL    HW3 1694   0.742   4.237   0.500  0.3966 -0.0333  1.4031
  412SOL    MW4 1695   0.700   4.161   0.506 -0.2453  0.2313  0.4805
  413SOL     OW 1696   2.994   1.843   0.458  0.2500 -0.4619  0.0277
  413SOL    HW2 1697   3.062   1.788   0.418  0.3433  1.1240 -2.0757
  413SOL    HW3 1698   3.032   1.930   0.460 -1.1079  0.1336  0.3366
  413SOL    MW4 1699   3.008   1.847   0.453  0.0832 -0.1739 -0.2090
  414SOL     OW 1700   0.954   3.171   0.407  0.1526  0.1782  0.2352
  414SOL    HW2 1701   0.910   3.254   0.392  0.2931  0.4902  1.4797
  414SOL    HW3 1702   1.010   3.187   0.483  2.2574 -0.2682 -1.1786
  414SOL    MW4 1703   0.956   3.184   0.415  0.4488  0.1605  0.2128
  415SOL     OW 1704   0.465   1.426   0.721 -0.1431  0.1875 -0.2258
  415SOL    HW2 1705   0.499   1.496   0.777 -0.6464  1.2722 -1.2615
  415SOL    HW3 1706   0.516   1.349   0.747 -0.1370  0.7292  1.4859
  415SOL    MW4 1707   0.476   1.425   0.732 -0.2087  0.4020 -0.1366
  416SOL     OW 1708   0.707   2.305   0.815  0.3742  0.2963 -0.1244
  416SOL    HW2 1709   0.653   2.230   0.788  1.8737 -0.6093 -0.6896
  416SOL    HW3 1710   0.698   2.308   0.910 -0.5544  0.0701 -0.2021
  416SOL    MW4 1711   0.699   2.295   0.824  0.4495  0.1469 -0.2093
  417SOL     OW 1712   4.327   4.065   0.475  0.3311  0.2464  0.1895
  417SOL    HW2 1713   4.418   4.039   0.462  0.1297 -0.2433 -0.2582
  417SOL    HW3 1714   4.277   3.986   0.457 -0.3263  1.0649 -1.6951
  417SOL    MW4 1715   4.332   4.051   0.471  0.2174  0.2899 -0.1183
  418SOL     OW 1716   0.454   2.843   0.442  0.0229  0.1016  0.2243
  418SOL    HW2 1717   0.490   2.924   0.477  0.2891  0.1822 -0.2342
  418SOL    HW3 1718   0.414   2.868   0.358  0.8362 -0.3832 -0.3225
  418SOL    MW4 1719   0.453   2.857   0.435  0.1653  0.0484  0.0917
  419SOL     OW 1720   0.219   3.952   0.853 -0.6194  0.1853  0.6725
  419SOL    HW2 1721   0.179   3.871   0.819  1.1270 -0.1406 -0.6689
  419SOL    HW3 1722   0.239   3.932   0.944  0.8381 -1.3100  0.0479
  419SOL    MW4 1723   0.216   3.939   0.861 -0.1967 -0.0551  0.4131
  420SOL     OW 1724   1.080   1.570   1.082 -0.2294  0.5942 -0.1853
  420SOL    HW2 1725   1.000   1.599   1.127 -0.2722  0.1443  0.0337
  420SOL    HW3 1726   1.094   1.481   1.114  0.3788  0.6845 -0.2003
  420SOL    MW4 1727   1.071   1.562   1.093 -0.1549  0.5468 -0.1585
  421SOL     OW 1728   3.301   3.607   0.299 -0.2643 -0.0502 -0.4355
  421SOL    HW2 1729   3.274   3.520   0.267 -0.3008 -0.3696  0.4619
  421SOL    HW3 1730   3.284   3.604   0.393 -2.5885  1.7912 -0.7523
  421SOL    MW4 1731   3.295   3.595   0.307 -0.5755  0.1507 -0.3589
  422SOL     OW 1732   1.220   1.900   0.435  0.0172  0.6686  0.2390
  422SOL    HW2 1733   1.211   1.858   0.521  0.3572 -0.8572 -0.4499
  422SOL    HW3 1734   1.145   1.959   0.429 -0.8091 -0.2826  0.9921
  422SOL    MW4 1735   1.209   1.902   0.445 -0.0471  0.3417  0.2474
  423SOL     OW 1736   3.302   0.209   0.530 -0.3543 -0.4158 -0.3678
  423SOL    HW2 1737   3.389   0.178   0.551 -0.2413  0.6330  0.8276
  423SOL    HW3 1738   3.316   0.283   0.471 -0.4631 -0.6727 -0.7145
  423SOL    MW4 1739   3.315   0.215   0.525 -0.3536 -0.3114 -0.2558
  424SOL     OW 1740   0.231   1.738   0.476  0.1805  0.0991  0.6213
  424SOL    HW2 1741   0.231   1.727   0.571 -0.3177 -1.2171  0.4742
  424SOL    HW3 1742   0.187   1.659   0.442  1.1234  0.1430 -0.7416
  424SOL    MW4 1743   0.225   1.726   0.484  0.2392 -0.0688  0.4221
  425SOL     OW 1744   2.460   3.980   0.495 -0.6558  0.1050  0.1884
  425SOL    HW2 1745   2.512   3.903   0.473 -0.2172  0.7402 -1.0675
  425SOL    HW3 1746   2.511   4.024   0.563 -0.3529 -0.1264  0.1138
  425SOL    MW4 1747   2.474   3.976   0.501 -0.5579  0.1578  0.0128
  426SOL     OW 1748   0.899   4.196   1.094 -0.4357 -0.6929  0.2662
  426SOL    HW2 1749   0.888   4.180   1.001 -1.2484 -0.1247  0.2660
  426SOL    HW3 1750   0.921   4.110   1.130  0.6816 -0.7646 -0.5580
  426SOL    MW4 1751   0.900   4.182   1.087 -0.3955 -0.6270  0.1574
  427SOL     OW 1752   3.853   1.755   0.494 -0.0558  0.2313  0.8744
  427SOL    HW2 1753   3.923   1.690   0.498 -0.3590 -0.3187 -1.4949
  427SOL    HW3 1754   3.844   1.787   0.583  1.0649 -1.9687  1.8118
  427SOL    MW4 1755   3.861   1.751   0.506  0.0520 -0.1316  0.6855
  428SOL     OW 1756   4.283   4.078   0.742  0.2663 -0.0030 -0.1446
  428SOL    HW2 1757   4.199   4.124   0.748 -0.8776 -2.2467  1.6199
  428SOL    HW3 1758   4.309   4.087   0.651 -0.9277  2.3564 -0.3015
  428SOL    MW4 1759   4.275   4.085   0.731 -0.0429  0.0124  0.0675
  429SOL     OW 1760   1.190   1.210   0.486 -0.3747  0.0932 -0.1180
  429SOL    HW2 1761   1.100   1.220   0.454  0.4365  1.8497 -1.9641
  429SOL    HW3 1762   1.220   1.129   0.446 -1.2183 -0.6402  0.7176
  429SOL    MW4 1763   1.182   1.201   0.477 -0.3791  0.2283 -0.2513
  430SOL     OW 1764   2.679   3.334   0.468 -0.0398  0.0427 -0.3397
  430SOL    HW2 1765   2.682   3.239   0.458  0.2016  0.0460 -0.3198
  430SOL    HW3 1766   2.771   3.361   0.465 -0.1695  0.3760 -1.2962
  430SOL    MW4 1767   2.692   3.325   0.467 -0.0248  0.0870 -0.4633
  431SOL     OW 1768   2.009   0.217   0.208 -0.0735  0.2293  0.2174
  431SOL    HW2 1769   2.019   0.124   0.185 -0.9729  0.3469 -0.6686
  431SOL    HW3 1770   2.003   0.262   0.124 -0.2081  1.0280  0.6511
  431SOL    MW4 1771   2.009   0.210   0.194 -0.2098  0.3502  0.1577
  432SOL     OW 1772   3.567   3.707   0.249 -0.7737  0.1176 -0.4949
  432SOL    HW2 1773   3.546   3.800   0.236 -0.4291  0.0665 -1.4797
  432SOL    HW3 1774   3.483   3.666   0.270 -0.8144  0.7687  0.6787
  432SOL    MW4 1775   3.553   3.714   0.250 -0.7336  0.1967 -0.4700
  433SOL     OW 1776   2.686   3.530   1.158 -0.0718 -0.2890 -0.3137
  433SOL    HW2 1777   2.685   3.509   1.064  0.3958  0.9298 -0.5890
  433SOL    HW3 1778   2.602   3.572   1.174 -0.3562 -0.9325 -0.0728
  433SOL    MW4 1779   2.674   3.533   1.147 -0.0474 -0.2129 -0.3183
  434SOL     OW 1780   1.335   1.657   1.157  0.0542 -0.2074  0.6239
  434SOL    HW2 1781   1.335   1.747   1.124  0.5865 -0.4816 -0.1163
  434SOL    HW3 1782   1.252   1.620   1.127  0.1670 -0.1986  0.3078
  434SOL    MW4 1783   1.324   1.664   1.149  0.1395 -0.2424  0.4845
  435SOL     OW 1784   2.017   0.742   1.141 -0.6492  0.2975  0.1572
  435SOL    HW2 1785   2.014   0.649   1.166 -0.7362  0.6012  1.2741
  435SOL    HW3 1786   2.012   0.740   1.045  0.3333 -0.9020  0.1054
  435SOL    MW4 1787   2.016   0.729   1.131 -0.5312  0.1793  0.2977
  436SOL     OW 1788   2.925   3.616   1.267 -0.5928 -0.2323  0.5254
  436SOL    HW2 1789   2.839   3.591   1.233 -1.6352  0.7104  2.3747
  436SOL    HW3 1790   2.941   3.702   1.229  0.2718 -1.0831 -1.0760
  436SOL    MW4 1791   2.915   3.624   1.258 -0.6161 -0.2201  0.5581
  437SOL     OW 1792   0.882   3.191   1.178 -0.1344 -0.2712  0.1965
  437SOL    HW2 1793   0.808   3.141   1.143 -0.2428 -0.1406  0.2386
  437SOL    HW3 1794   0.959   3.140   1.153 -0.3323 -1.2625  1.5439
  437SOL    MW4 1795   0.883   3.177   1.170 -0.1748 -0.3848  0.3799
  438SOL     OW 1796   2.237   0.050   0.770  0.0105  0.2372  0.0438
  438SOL    HW2 1797   2.245   0.142   0.794 -0.4846  0.6212 -1.2183
  438SOL    HW3 1798   2.319   0.010   0.798  0.0220  0.9512  1.0584
  438SOL    MW4 1799   2.249   0.057   0.777 -0.0534  0.3821  0.0111
  439SOL     OW 1800   1.718   3.661   0.691  0.2031  0.0285  0.3536
  439SOL    HW2 1801   1.728   3.620   0.605  0.8434 -0.3500  0.6106
  439SOL    HW3 1802   1.736   3.753   0.675 -1.0708  0.1984 -0.1925
  439SOL    MW4 1803   1.721   3.668   0.677  0.1196  0.0010  0.3154
  440SOL     OW 1804   1.454   3.026   0.548  0.4425 -0.1672 -0.3908
  440SOL    HW2 1805   1.367   2.989   0.532 -0.5416  1.9765 -0.1486
  440SOL    HW3 1806   1.438   3.118   0.570  2.7013  0.0109  0.6862
  440SOL    MW4 1807   1.441   3.033   0.549  0.6106  0.1390 -0.2168
  441SOL     OW 1808   1.916   3.241   1.203 -0.4763 -0.0591 -0.3612
  441SOL    HW2 1809   1.924   3.146   1.198 -0.2766 -0.0935  0.5632
  441SOL    HW3 1810   1.865   3.257   1.282 -0.4617  0.6087 -0.4842
  441SOL    MW4 1811   1.911   3.230   1.213 -0.4480  0.0248 -0.2553
  442SOL     OW 1812   4.482   2.444   1.186  0.3362  0.1738  0.5520
  442SOL    HW2 1813   4.472   2.436   1.281 -0.5926 -1.2730  0.3500
  442SOL    HW3 1814   4.492   2.538   1.171  1.1840  0.3549  2.1428
  442SOL    MW4 1815   4.482   2.456   1.196  0.3257  0.0067  0.7352
  443SOL     OW 1816   3.199   3.530   0.926 -0.2997  0.1910  0.0903
  443SOL    HW2 1817   3.291   3.509   0.912  0.1008  1.8102  0.1433
  443SOL    HW3 1818   3.182   3.503   1.017  0.2267  0.2071  0.1955
  443SOL    MW4 1819   3.209   3.524   0.936 -0.1776  0.4067  0.1111
  444SOL     OW 1820   1.584   3.881   1.073  0.4886 -0.5934 -0.5801
  444SOL    HW2 1821   1.510   3.919   1.120  0.9357 -0.1166 -0.2581
  444SOL    HW3 1822   1.600   3.797   1.116  0.4285 -0.4898 -0.3600
  444SOL    MW4 1823   1.576   3.875   1.085  0.5395 -0.5164 -0.5087
  445SOL     OW 1824   3.260   3.579   0.595  0.1485  0.5608 -0.4156
  445SOL    HW2 1825   3.261   3.487   0.622  0.2440  0.0600 -2.0562
  445SOL    HW3 1826   3.167   3.603   0.594  0.1769  0.7848  0.9381
  445SOL    MW4 1827   3.248   3.570   0.598  0.1650  0.5240 -0.4535
  446SOL     OW 1828   0.730   0.905   0.505 -0.3182 -0.1774 -0.1833
  446SOL    HW2 1829   0.817   0.880   0.476  0.1881 -0.7042  1.7692
  446SOL    HW3 1830   0.744   0.981   0.560 -1.2360  0.5417 -0.9250
  446SOL    MW4 1831   0.743   0.912   0.508 -0.3725 -0.1521 -0.0236
  447SOL     OW 1832   4.120   2.753   0.670  0.1101 -0.1158  0.1008
  447SOL    HW2 1833   4.162   2.826   0.716 -0.2792 -0.6227  1.2920
  447SOL    HW3 1834   4.188   2.686   0.666 -0.6785 -1.0855  2.3865
  447SOL    MW4 1835   4.135   2.754   0.676 -0.0453 -0.3104  0.5596
  448SOL     OW 1836   3.237   0.018   0.845  0.0412 -0.1849 -0.1406
  448SOL    HW2 1837   3.142   0.013   0.832  0.0134 -0.9362  0.3243
  448SOL    HW3 1838   3.248   0.040   0.937  0.3276 -0.6933 -0.0507
  448SOL    MW4 1839   3.226   0.020   0.855  0.0756 -0.3511 -0.0674
  449SOL     OW 1840   0.431   4.476   0.748 -0.2207  0.2355 -0.2278
  449SOL    HW2 1841   0.458   4.384   0.750  1.4033  0.7024  1.5585
  449SOL    HW3 1842   0.424   4.497   0.655  0.0401 -1.5090 -0.6603
  449SOL    MW4 1843   0.434   4.467   0.736  0.0280  0.0663 -0.0492
  450SOL     OW 1844   2.798   2.280   0.833  0.0767  0.1590  0.1593
  450SOL    HW2 1845   2.822   2.307   0.921 -0.7931  0.4438  0.3176
  450SOL    HW3 1846   2.711   2.319   0.819 -0.4299 -1.0911 -0.2698
  450SOL    MW4 1847   2.790   2.289   0.842 -0.1051  0.0317  0.1236
  451SOL     OW 1848   3.077   1.399   0.726  0.0587 -0.6448 -0.4758
  451SOL    HW2 1849   3.150   1.452   0.758  0.5908 -1.0349 -1.0286
  451SOL    HW3 1850   2.999   1.446   0.756  0.5326 -0.7267  0.9324
  451SOL    MW4 1851   3.076   1.412   0.734  0.1912 -0.7071 -0.3629
  452SOL     OW 1852   1.969   3.559   0.840 -0.0738  0.3627 -0.2653
  452SOL    HW2 1853   1.980   3.599   0.926 -1.3037  0.9084 -0.3487
  452SOL    HW3 1854   1.904   3.614   0.796 -0.3810 -0.6274 -1.0791
  452SOL    MW4 1855   1.962   3.571   0.846 -0.2766  0.3040 -0.3836
  453SOL     OW 1856   1.960   3.002   0.638  0.1388  0.5759  0.1874
  453SOL    HW2 1857   2.006   2.999   0.722  0.9572  1.8203 -0.2095
  453SOL    HW3 1858   1.989   2.923   0.592 -0.9480 -0.5458  1.3948
  453SOL    MW4 1859   1.970   2.991   0.643  0.1034  0.5922  0.2943
  454SOL     OW 1860   3.876   4.539   0.104 -0.1876 -0.6410 -0.1298
  454SOL    HW2 1861   3.882   4.620   0.053  0.8165 -0.4717  0.2427
  454SOL    HW3 1862   3.967   4.512   0.118 -0.4635 -1.0475  0.9980
  454SOL    MW4 1863   3.889   4.546   0.099 -0.0916 -0.6728  0.0682
  455SOL     OW 1864   1.359   1.566   0.709 -0.0848 -0.0952  0.3581
  455SOL    HW2 1865   1.384   1.531   0.624 -0.3473  0.7572 -0.0697
  455SOL    HW3 1866   1.442   1.585   0.753  0.0422  0.7116 -0.2261
  455SOL    MW4 1867   1.373   1.564   0.704 -0.1025  0.1237  0.2246
  456SOL     OW 1868   2.053   1.520   0.763 -0.4903  0.1562 -0.3070
  456SOL    HW2 1869   2.007   1.589   0.714 -0.8931  0.8053  0.9755
  456SOL    HW3 1870   1.996   1.443   0.754 -1.1912  0.6140  0.2062
  456SOL    MW4 1871   2.039   1.519   0.755 -0.6361  0.3024 -0.0700
  457SOL     OW 1872   0.386   1.168   0.488 -0.3335 -0.2555 -0.2002
  457SOL    HW2 1873   0.411   1.261   0.482  0.6361 -0.5678 -0.9995
  457SOL    HW3 1874   0.295   1.171   0.518 -0.9746  1.0169 -2.1715
  457SOL    MW4 1875   0.377   1.181   0.492 -0.2902 -0.1289 -0.5657
  458SOL     OW 1876   3.566   0.407   1.158  0.4404  0.2725  0.6811
  458SOL    HW2 1877   3.475   0.436   1.168  0.2275 -0.6974  1.6821
  458SOL    HW3 1878   3.580   0.406   1.064 -0.1159  1.8588  0.5689
  458SOL    MW4 1879   3.556   0.411   1.147  0.3388  0.3538  0.7983
  459SOL     OW 1880   2.461   4.412   0.693 -0.1365 -0.5015  0.0981
  459SOL    HW2 1881   2.468   4.494   0.742 -1.4888 -0.2578 -0.0975
  459SOL    HW3 1882   2.398   4.359   0.742  0.1351 -1.1150 -0.2042
  459SOL    MW4 1883   2.454   4.416   0.706 -0.2792 -0.5503  0.0324
  460SOL     OW 1884   2.881   0.959   0.429  0.5536  0.2308 -0.1943
  460SOL    HW2 1885   2.863   0.985   0.520 -0.1777  0.2772 -0.3502
  460SOL    HW3 1886   2.801   0.982   0.382  1.2483  1.0035 -1.0171
  460SOL    MW4 1887   2.868   0.966   0.435  0.5488  0.3389 -0.3234
  461SOL     OW 1888   3.487   3.468   0.914 -0.5225  0.0040  0.0088
  461SOL    HW2 1889   3.560   3.507   0.866 -1.8022  0.1450 -1.8881
  461SOL    HW3 1890   3.512   3.475   1.006  1.5580  0.6195 -0.5755
  461SOL    MW4 1891   3.500   3.474   0.920 -0.4170  0.1037 -0.3185
  462SOL     OW 1892   4.029   1.137   1.084  0.5337  0.3022  0.2338
  462SOL    HW2 1893   4.031   1.123   0.990  1.3743  0.2505  0.2538
  462SOL    HW3 1894   4.031   1.049   1.122 -2.2063  0.2225  0.2903
  462SOL    MW4 1895   4.030   1.124   1.077  0.2828  0.2848  0.2438
  463SOL     OW 1896   0.614   2.221   0.343 -0.0742 -0.2298 -0.7883
  463SOL    HW2 1897   0.663   2.176   0.412 -0.2626 -0.2923 -0.6950
  463SOL    HW3 1898   0.562   2.152   0.302  1.3083 -0.5147 -2.1095
  463SOL    MW4 1899   0.614   2.206   0.347  0.0834 -0.2756 -0.9503
  464SOL     OW 1900   1.781   3.911   0.590  0.1768 -0.3023  0.1969
  464SOL    HW2 1901   1.708   3.939   0.533 -0.5498 -1.6795  0.4380
  464SOL    HW3 1902   1.797   3.987   0.645 -1.7027 -0.2694  0.7535
  464SOL    MW4 1903   1.773   3.925   0.589 -0.1671 -0.4797  0.3021
  465SOL     OW 1904   1.240   4.441   0.749 -0.5047  0.1109  0.1801
  465SOL    HW2 1905   1.152   4.405   0.760 -0.6942  0.7566  0.9144
  465SOL    HW3 1906   1.255   4.441   0.655 -1.6536  0.8103 -0.0149
  465SOL    MW4 1907   1.230   4.436   0.738 -0.6813  0.2880  0.2512
  466SOL     OW 1908   4.090   3.979   1.255  0.0035 -0.2644 -0.1396
  466SOL    HW2 1909   4.005   3.957   1.217 -0.2432  0.6389 -0.1263
  466SOL    HW3 1910   4.153   3.930   1.203 -0.6345 -2.0163  0.7311
  466SOL    MW4 1911   4.087   3.970   1.243 -0.1130 -0.3762 -0.0230
  467SOL     OW 1912   1.057   0.093   0.851 -0.3452  0.4774  0.2173
  467SOL    HW2 1913   1.073   0.054   0.937  0.1554 -0.5311 -0.3344
  467SOL    HW3 1914   1.136   0.074   0.801 -0.7201  0.8893 -0.5369
  467SOL    MW4 1915   1.069   0.086   0.856 -0.3285  0.3987  0.0449
  468SOL     OW 1916   0.005   4.447   0.745  0.0359 -0.1951  0.0613
  468SOL    HW2 1917   0.073   4.496   0.790 -0.0791 -2.3348  2.7248
  468SOL    HW3 1918   0.020   4.356   0.771 -1.7339 -1.1397 -2.0855
  468SOL    MW4 1919   0.016   4.441   0.755 -0.2128 -0.6018  0.1294
  469SOL     OW 1920   1.120   2.998   0.854  0.1325 -0.3802 -0.1218
  469SOL    HW2 1921   1.092   3.070   0.797  0.4363  0.1587  0.3947
  469SOL    HW3 1922   1.214   2.989   0.836  0.0538 -0.7851 -0.3320
  469SOL    MW4 1923   1.129   3.006   0.844  0.1622 -0.3626 -0.0814
  470SOL     OW 1924   4.300   2.989   0.590 -0.0914  0.1572 -0.1062
  470SOL    HW2 1925   4.296   2.921   0.522  0.0682 -0.0074  0.0502
  470SOL    HW3 1926   4.235   3.054   0.562 -1.8137 -1.0899  0.8770
  470SOL    MW4 1927   4.291   2.988   0.577 -0.2975 -0.0291  0.0441
  471SOL     OW 1928   1.693   4.539   0.438  0.0875 -0.2482 -0.5342
  471SOL    HW2 1929   1.770   4.520   0.492 -0.5520 -0.1136  0.4413
  471SOL    HW3 1930   1.667   4.454   0.402 -0.0082 -0.4865  0.0875
  471SOL    MW4 1931   1.700   4.525   0.440 -0.0095 -0.2623 -0.3234
  472SOL     OW 1932   1.392   1.195   1.181  0.2960 -0.0161  0.1768
  472SOL    HW2 1933   1.386   1.102   1.203  1.8268  0.0706  1.0985
  472SOL    HW3 1934   1.474   1.223   1.222 -0.5547  1.9224  0.5849
  472SOL    MW4 1935   1.402   1.186   1.189  0.3858  0.2512  0.3521
  473SOL     OW 1936   3.678   0.009   0.969  0.4681  0.6977  0.6487
  473SOL    HW2 1937   3.595   0.040   0.931 -0.7081 -0.4418  2.2072
  473SOL    HW3 1938   3.745   0.056   0.920 -1.0724  1.2280 -1.0425
  473SOL    MW4 1939   3.676   0.020   0.957  0.1099  0.6173  0.6312
  474SOL     OW 1940   1.214   2.918   0.495 -0.0895 -0.2160  0.1377
  474SOL    HW2 1941   1.167   2.840   0.525  1.2633 -1.2602 -0.4351
  474SOL    HW3 1942   1.178   2.935   0.407 -1.0027  0.3340  0.6068
  474SOL    MW4 1943   1.203   2.910   0.487 -0.0315 -0.2811  0.1240
  475SOL     OW 1944   3.068   0.025   0.520  0.4717 -0.1174  0.1726
  475SOL    HW2 1945   3.140   0.087   0.519 -0.5155  1.0551  0.1319
  475SOL    HW3 1946   3.051   0.008   0.613 -0.3128  0.9496  0.2368
  475SOL    MW4 1947   3.075   0.031   0.532  0.2379  0.1781  0.1758
  476SOL     OW 1948   2.410   2.444   0.586 -0.7036 -0.0831  0.1554
  476SOL    HW2 1949   2.331   2.392   0.594 -0.4580 -0.2761  1.4971
  476SOL    HW3 1950   2.463   2.419   0.662 -0.5008  1.9857  0.7199
  476SOL    MW4 1951   2.407   2.434   0.597 -0.6447  0.1643  0.4068
  477SOL     OW 1952   1.789   3.593   0.438 -0.1432 -0.1882  0.0269
  477SOL    HW2 1953   1.884   3.590   0.430 -0.1347 -0.3448  0.1835
  477SOL    HW3 1954   1.760   3.506   0.410 -0.1955 -0.3495  0.5886
  477SOL    MW4 1955   1.797   3.581   0.433 -0.1488 -0.2301  0.1216
  478SOL     OW 1956   1.025   4.343   0.455  0.1968 -0.0860 -0.7199
  478SOL    HW2 1957   1.025   4.255   0.417  0.2917  0.1366 -1.2291
  478SOL    HW3 1958   1.116   4.372   0.447 -0.0836  0.5464 -1.6688
  478SOL    MW4 1959   1.037   4.335   0.449  0.1724  0.0267 -0.9123
  479SOL     OW 1960   2.348   1.713   0.545  0.3063 -0.1699 -0.3539
  479SOL    HW2 1961   2.427   1.759   0.519 -0.2628  1.6140  0.9366
  479SOL    HW3 1962   2.363   1.622   0.521  1.9376  0.4930 -1.8904
  479SOL    MW4 1963   2.360   1.707   0.539  0.4466  0.1529 -0.3863
  480SOL     OW 1964   3.576   0.410   0.876 -0.1984 -0.1425  0.0572
  480SOL    HW2 1965   3.657   0.430   0.830 -0.6697  0.6149 -0.4354
  480SOL    HW3 1966   3.551   0.323   0.844 -0.0674  0.0127 -0.4625
  480SOL    MW4 1967   3.584   0.401   0.866 -0.2434 -0.0221 -0.0764
  481SOL     OW 1968   0.566   2.074   0.741  0.4092  0.4829 -0.5492
  481SOL    HW2 1969   0.625   2.049   0.670 -1.1573  1.2574 -2.1488
  481SOL    HW3 1970   0.486   2.104   0.697 -1.2571 -0.7037  1.5813
  481SOL    MW4 1971   0.563   2.074   0.726 -0.0173  0.4282 -0.4792
  482SOL     OW 1972   4.275   0.784   1.111 -0.0707  0.4117 -0.3482
  482SOL    HW2 1973   4.279   0.699   1.154  0.2603  1.0523  0.9208
  482SOL    HW3 1974   4.353   0.830   1.141 -0.3483  1.2255 -0.8628
  482SOL    MW4 1975   4.286   0.779   1.121 -0.0634  0.6037 -0.2487
  483SOL     OW 1976   4.151   4.514   0.276 -0.2483 -0.1712  0.0558
  483SOL    HW2 1977   4.153   4.442   0.339 -1.6574 -0.0502  0.2481
  483SOL    HW3 1978   4.222   4.572   0.304  0.1385 -0.8912  0.5950
  483SOL    MW4 1979   4.161   4.512   0.288 -0.3829 -0.2499  0.1523
  484SOL     OW 1980   1.360   2.004   0.837  0.1886  0.6176  0.1260
  484SOL    HW2 1981   1.298   2.076   0.827 -1.3017 -0.5385  0.7682
  484SOL    HW3 1982   1.322   1.933   0.785  1.7774  0.3787 -0.7277
  484SOL    MW4 1983   1.347   2.004   0.829  0.2016  0.4334  0.0980
  485SOL     OW 1984   4.464   0.143   1.214  0.3830 -0.1075  0.2564
  485SOL    HW2 1985   4.471   0.225   1.165  0.5486  0.2062  0.8014
  485SOL    HW3 1986   4.382   0.104   1.183  0.1618  0.3969  0.1926
  485SOL    MW4 1987   4.454   0.149   1.204  0.3762  0.0004  0.3200
  486SOL     OW 1988   4.272   4.619   1.076  0.2904 -0.2832 -0.3457
  486SOL    HW2 1989   4.177   4.620   1.072  0.2414 -0.0680  0.7292
  486SOL    HW3 1990   4.294   4.532   1.110  0.4920 -0.4152 -0.8044
  486SOL    MW4 1991   4.263   4.608   1.080  0.3104 -0.2718 -0.2644
  487SOL     OW 1992   4.009   0.376   1.117  0.0597  0.6394 -0.0442
  487SOL    HW2 1993   4.054   0.347   1.039  1.5750  1.0322  0.6667
  487SOL    HW3 1994   3.966   0.298   1.151 -1.0743  0.5842 -1.5565
  487SOL    MW4 1995   4.009   0.362   1.112  0.1101  0.6840 -0.1498
  488SOL     OW 1996   0.234   0.547   1.192  0.0213  0.1073 -0.4367
  488SOL    HW2 1997   0.302   0.496   1.150  0.1657  1.1763 -1.5191
  488SOL    HW3 1998   0.152   0.504   1.167  0.2493 -0.9061  0.4986
  488SOL    MW4 1999   0.232   0.535   1.183  0.0704  0.1147 -0.4561
  489SOL     OW 2000   0.027   0.892   1.180 -0.3659  0.2638 -0.2345
  489SOL    HW2 2001   0.113   0.860   1.156 -1.0079 -0.8099 -1.1756
  489SOL    HW3 2002   0.026   0.890   1.276  0.5839  0.1149 -0.2246
  489SOL    MW4 2003   0.038   0.888   1.190 -0.3253  0.1025 -0.3575
  490SOL     OW 2004   4.240   0.512   1.186  0.2015 -0.0004  0.4345
  490SOL    HW2 2005   4.233   0.501   1.281  0.5050  1.6895  0.6685
  490SOL    HW3 2006   4.159   0.473   1.152  0.0184 -0.4912  1.3929
  490SOL    MW4 2007   4.228   0.506   1.194  0.2174  0.1577  0.5920
  491SOL     OW 2008   2.921   0.735   1.054  0.3367  0.4264  0.2125
  491SOL    HW2 2009   2.933   0.644   1.081 -0.1767  0.5507  0.8738
  491SOL    HW3 2010   2.877   0.730   0.969 -1.5490  0.0880  1.1912
  491SOL    MW4 2011   2.917   0.723   1.046  0.0205  0.3982  0.4289
  492SOL     OW 2012   4.224   0.957   0.705  0.2384  0.2531 -0.3205
  492SOL    HW2 2013   4.201   0.879   0.754 -1.1354  1.3145  0.7715
  492SOL    HW3 2014   4.306   0.987   0.744 -1.0097  1.2705  1.5997
  492SOL    MW4 2015   4.232   0.951   0.716 -0.1082  0.5273  0.0769
  493SOL     OW 2016   4.274   1.528   1.086 -0.3006  0.2871 -0.7254
  493SOL    HW2 2017   4.275   1.435   1.110  0.3700 -0.2595 -2.7050
  493SOL    HW3 2018   4.196   1.563   1.127 -0.0714 -0.9493  0.7982
  493SOL    MW4 2019   4.264   1.520   1.094 -0.1812  0.0520 -0.7855
  494SOL     OW 2020   1.615   2.010   0.694  0.4932 -0.0411 -0.2584
  494SOL    HW2 2021   1.535   2.020   0.745  1.0308 -0.0056  0.5974
  494SOL    HW3 2022   1.669   1.949   0.745  2.9122  3.4579  1.5818
  494SOL    MW4 2023   1.612   2.003   0.708  0.8833  0.4253  0.0973
  495SOL     OW 2024   1.643   2.737   0.306  0.4269  0.1120 -0.0014
  495SOL    HW2 2025   1.649   2.737   0.402 -0.3416 -1.3001  0.0563
  495SOL    HW3 2026   1.728   2.771   0.277  0.2144  1.6833  1.1978
  495SOL    MW4 2027   1.655   2.741   0.315  0.2974  0.1330  0.1644
  496SOL     OW 2028   0.238   2.066   1.205  0.4082 -0.5906 -0.3220
  496SOL    HW2 2029   0.240   2.051   1.299 -2.7837  2.5366  0.3394
  496SOL    HW3 2030   0.161   2.019   1.174  0.6722 -0.4969 -1.1496
  496SOL    MW4 2031   0.228   2.058   1.213  0.0219 -0.1657 -0.3440
  497SOL     OW 2032   1.087   0.572   0.493  0.2867  0.1704 -0.1147
  497SOL    HW2 2033   1.023   0.530   0.436 -0.7700  2.1262 -0.3841
  497SOL    HW3 2034   1.113   0.503   0.554 -1.3468 -0.9150 -0.6170
  497SOL    MW4 2035   1.082   0.557   0.493 -0.0682  0.2853 -0.2165
  498SOL     OW 2036   2.363   3.556   0.809  0.2433 -0.0216 -0.4994
  498SOL    HW2 2037   2.377   3.497   0.735  0.9279  0.8536 -1.0799
  498SOL    HW3 2038   2.328   3.636   0.770  0.4125  0.3687  0.1388
  498SOL    MW4 2039   2.360   3.559   0.794  0.3560  0.1452 -0.4917
  499SOL     OW 2040   0.034   2.714   1.135 -0.0426  0.1326 -0.1630
  499SOL    HW2 2041  -0.040   2.765   1.169 -0.7571 -0.1048 -1.3118
  499SOL    HW3 2042   0.021   2.714   1.040  0.9965 -0.5957 -0.3126
  499SOL    MW4 2043   0.022   2.721   1.127  0.0000  0.0050 -0.3343
  500SOL     OW 2044   0.264   2.832   1.224  0.1542  0.1210  1.2411
  500SOL    HW2 2045   0.230   2.844   1.313  0.9291  0.3841  1.5031
  500SOL    HW3 2046   0.193   2.788   1.177 -0.5711  0.7124  1.7755
  500SOL    MW4 2047   0.250   2.828   1.229  0.1608  0.2334  1.3461
  501SOL     OW 2048   0.226   3.098   1.145 -0.1020 -0.1135 -0.2802
  501SOL    HW2 2049   0.303   3.135   1.188 -0.5954  0.4555  0.1397
  501SOL    HW3 2050   0.236   3.004   1.153 -0.9356 -0.0018  2.4595
  501SOL    MW4 2051   0.237   3.091   1.151 -0.2771 -0.0236  0.1366
  502SOL     OW 2052   0.015   3.238   1.242  0.0631  0.0970  0.0433
  502SOL    HW2 2053  -0.068   3.193   1.224  0.1905 -0.0830 -0.0950
  502SOL    HW3 2054   0.082   3.175   1.216  0.2474 -0.2608  1.3469
  502SOL    MW4 2055   0.013   3.223   1.236  0.1049  0.0257  0.1971
  503SOL     OW 2056   0.034   3.463   1.077 -0.1400 -0.2608 -0.3039
  503SOL    HW2 2057   0.062   3.431   0.991 -0.0967 -0.2628 -0.2894
  503SOL    HW3 2058   0.043   3.387   1.135  1.3029  0.1447  0.0234
  503SOL    MW4 2059   0.039   3.449   1.073  0.0561 -0.2072 -0.2588
  504SOL     OW 2060   0.236   3.618   1.191 -0.0824  0.0613  0.0087
  504SOL    HW2 2061   0.232   3.610   1.286  0.5953 -1.2956 -0.0770
  504SOL    HW3 2062   0.170   3.557   1.158 -0.0486  0.2457 -0.4093
  504SOL    MW4 2063   0.227   3.609   1.199  0.0115 -0.0932 -0.0576
  505SOL     OW 2064   4.293   3.844   1.104 -0.4178 -0.4674 -0.3427
  505SOL    HW2 2065   4.302   3.809   1.015  1.9438  2.5603 -1.3785
  505SOL    HW3 2066   4.379   3.880   1.125 -1.8901  2.0292  1.7876
  505SOL    MW4 2067   4.305   3.844   1.095 -0.3009  0.2618 -0.1981
  506SOL     OW 2068   0.268   3.884   1.112  0.1135 -0.2230  0.2542
  506SOL    HW2 2069   0.194   3.919   1.162  0.4754  0.8044  0.1041
  506SOL    HW3 2070   0.269   3.791   1.132 -1.7841 -0.4367 -0.4654
  506SOL    MW4 2071   0.258   3.877   1.121 -0.0891 -0.1156  0.1395
  507SOL     OW 2072   3.583   1.456   0.733  0.0953  0.2547 -0.2844
  507SOL    HW2 2073   3.655   1.464   0.795 -0.0346 -1.2634  0.0856
  507SOL    HW3 2074   3.580   1.362   0.711 -2.1095  0.1958  0.1302
  507SOL    MW4 2075   3.592   1.444   0.738 -0.2127  0.0467 -0.1808
  508SOL     OW 2076   0.225   4.367   1.201 -0.3766  0.0650 -0.5323
  508SOL    HW2 2077   0.243   4.372   1.295  0.8839 -0.0260 -0.7658
  508SOL    HW3 2078   0.210   4.458   1.175  0.4652  0.2294 -0.4682
  508SOL    MW4 2079   0.225   4.380   1.210 -0.0992  0.0749 -0.5547
  509SOL     OW 2080   2.898   3.053   0.636 -0.6540 -1.1503 -0.2132
  509SOL    HW2 2081   2.964   3.062   0.568 -2.9062  0.7183 -2.2257
  509SOL    HW3 2082   2.938   3.092   0.714  1.3553 -1.9211 -0.8279
  509SOL    MW4 2083   2.912   3.059   0.637 -0.6862 -1.0056 -0.5598
  510SOL     OW 2084   3.602   1.896   0.421  0.1243  0.3054  0.5651
  510SOL    HW2 2085   3.521   1.844   0.416  0.6126 -0.5249  1.1147
  510SOL    HW3 2086   3.672   1.832   0.410  0.6965  1.3006 -1.9981
  510SOL    MW4 2087   3.600   1.880   0.419  0.2642  0.3271  0.2994
  511SOL     OW 2088   0.461   3.531   0.630  0.3861  0.3830 -0.4017
  511SOL    HW2 2089   0.496   3.613   0.594  0.2508  0.5334 -0.1940
  511SOL    HW3 2090   0.494   3.463   0.571  0.4595  0.5920 -0.6044
  511SOL    MW4 2091   0.470   3.533   0.617  0.3780  0.4306 -0.4011
  512SOL     OW 2092   0.666   0.506   1.259  0.3277  0.2196  0.2036
  512SOL    HW2 2093   0.671   0.590   1.213  0.3813  0.8131  1.2646
  512SOL    HW3 2094   0.584   0.467   1.229 -0.8143  1.6658  1.3537
  512SOL    MW4 2095   0.656   0.512   1.249  0.1841  0.4888  0.4954
  513SOL     OW 2096   0.710   0.748   1.130  0.2790  0.7359  0.1421
  513SOL    HW2 2097   0.639   0.810   1.145 -0.0340  0.2658  0.6496
  513SOL    HW3 2098   0.712   0.736   1.035 -0.6913  0.3368  0.1614
  513SOL    MW4 2099   0.701   0.754   1.119  0.1097  0.6213  0.2117
  514SOL     OW 2100   0.468   1.192   1.070 -0.2251 -0.3282 -0.8158
  514SOL    HW2 2101   0.475   1.098   1.088  0.5013 -0.3724 -1.2999
  514SOL    HW3 2102   0.536   1.232   1.125 -0.4659 -0.0952 -0.6858
  514SOL    MW4 2103   0.478   1.185   1.080 -0.1610 -0.3031 -0.8625
  515SOL     OW 2104   0.224   1.280   1.195  0.2008  0.2736 -0.0873
  515SOL    HW2 2105   0.149   1.236   1.154  0.2495  0.1667 -0.0604
  515SOL    HW3 2106   0.301   1.243   1.151  0.2131  0.7582 -0.4759
  515SOL    MW4 2107   0.224   1.269   1.184  0.2088  0.3235 -0.1351
  516SOL     OW 2108   0.677   1.316   1.225 -0.3527  0.4111  0.2782
  516SOL    HW2 2109   0.749   1.275   1.178 -2.2009  0.4946 -2.7549
  516SOL    HW3 2110   0.666   1.401   1.183 -0.5203  1.5017  2.4700
  516SOL    MW4 2111   0.685   1.321   1.213 -0.6187  0.5660  0.1671
  517SOL     OW 2112   0.589   0.695   0.611 -0.6840 -0.1850  0.2002
  517SOL    HW2 2113   0.645   0.765   0.578  0.8772 -1.6735 -0.3670
  517SOL    HW3 2114   0.606   0.621   0.552 -1.2453 -1.4783  1.6343
  517SOL    MW4 2115   0.599   0.694   0.599 -0.5521 -0.5520  0.3147
  518SOL     OW 2116   0.657   1.573   1.105 -0.7279  0.7279  0.0421
  518SOL    HW2 2117   0.580   1.612   1.148 -1.9675 -0.0730 -1.4383
  518SOL    HW3 2118   0.639   1.580   1.012  0.2664 -0.9499 -0.2957
  518SOL    MW4 2119   0.644   1.579   1.099 -0.7603  0.4008 -0.1979
  519SOL     OW 2120   0.428   1.704   1.220  0.0252 -0.1687 -0.1711
  519SOL    HW2 2121   0.341   1.671   1.196  0.2587 -1.1952  0.3376
  519SOL    HW3 2122   0.432   1.691   1.315  0.8285 -0.3696 -0.2304
  519SOL    MW4 2123   0.417   1.698   1.229  0.1620 -0.3304 -0.1119
  520SOL     OW 2124   0.707   2.081   1.175  0.1412 -0.0780  0.4131
  520SOL    HW2 2125   0.695   2.084   1.270  1.0521 -2.8378  0.6658
  520SOL    HW3 2126   0.630   2.035   1.143 -0.5350  1.5189 -0.2826
  520SOL    MW4 2127   0.695   2.075   1.184  0.1722 -0.2313  0.3546
  521SOL     OW 2128   0.906   2.451   1.224  0.5067 -0.3169 -0.2811
  521SOL    HW2 2129   0.883   2.464   1.316  0.8964 -1.2378 -0.0450
  521SOL    HW3 2130   0.825   2.422   1.183  0.4319 -0.3052 -0.1423
  521SOL    MW4 2131   0.893   2.449   1.231  0.5482 -0.4370 -0.2317
  522SOL     OW 2132   0.437   2.437   1.187  0.6861 -0.0690  0.3397
  522SOL    HW2 2133   0.430   2.416   1.280  0.5726 -2.2392 -0.1289
  522SOL    HW3 2134   0.362   2.393   1.147  0.9934  0.4519 -0.8260
  522SOL    MW4 2135   0.426   2.428   1.194  0.7116 -0.2866  0.1241
  523SOL     OW 2136   3.553   3.980   0.302  0.1104 -0.1176 -0.4680
  523SOL    HW2 2137   3.509   4.065   0.305 -0.5686 -0.4779 -0.2642
  523SOL    HW3 2138   3.557   3.951   0.393  0.0068 -0.4780 -0.5775
  523SOL    MW4 2139   3.548   3.987   0.314  0.0069 -0.2129 -0.4556
  524SOL     OW 2140   0.712   2.811   1.216 -0.0621  0.1229  0.2897
  524SOL    HW2 2141   0.794   2.772   1.187 -0.1809  0.9616 -1.1988
  524SOL    HW3 2142   0.646   2.774   1.158 -0.5899  0.2819  0.7852
  524SOL    MW4 2143   0.714   2.801   1.205 -0.1473  0.2546  0.1585
  525SOL     OW 2144   0.309   2.798   0.668 -0.2001 -0.5750 -0.2931
  525SOL    HW2 2145   0.236   2.860   0.669 -1.4312 -2.0162  0.6128
  525SOL    HW3 2146   0.340   2.800   0.577  0.3583  1.9829 -0.0989
  525SOL    MW4 2147   0.303   2.807   0.656 -0.2889 -0.4275 -0.1480
  526SOL     OW 2148   0.483   3.223   1.212  0.0414 -0.3098 -0.1185
  526SOL    HW2 2149   0.479   3.301   1.156  1.8504  0.0275  0.1775
  526SOL    HW3 2150   0.544   3.165   1.168  0.1262 -0.7856  0.6130
  526SOL    MW4 2151   0.490   3.226   1.199  0.2913 -0.3281  0.0170
  527SOL     OW 2152   0.461   3.489   1.070  0.1261  0.2484 -0.1614
  527SOL    HW2 2153   0.384   3.538   1.099  0.0650  0.2843 -0.3816
  527SOL    HW3 2154   0.535   3.532   1.113  0.0611  0.4574 -0.2619
  527SOL    MW4 2155   0.460   3.501   1.080  0.1095  0.2806 -0.2038
  528SOL     OW 2156   0.690   3.847   1.108  0.1630  0.0027 -0.3471
  528SOL    HW2 2157   0.614   3.899   1.135  1.0514  0.8105  0.6067
  528SOL    HW3 2158   0.681   3.765   1.155 -0.2254  0.0204 -0.3902
  528SOL    MW4 2159   0.679   3.843   1.118  0.2289  0.1116 -0.2270
  529SOL     OW 2160   3.188   3.964   0.802  0.1737 -0.6491  0.2865
  529SOL    HW2 2161   3.140   3.881   0.804 -0.3883 -0.3569 -0.7493
  529SOL    HW3 2162   3.191   3.988   0.709 -2.3112  1.9962  0.8307
  529SOL    MW4 2163   3.182   3.956   0.790 -0.2284 -0.2618  0.2216
  530SOL     OW 2164   0.810   2.960   0.532 -0.3078 -0.1965  0.2597
  530SOL    HW2 2165   0.801   2.883   0.476  0.5864 -0.3938  0.3828
  530SOL    HW3 2166   0.857   3.023   0.478  1.3414 -0.6993  1.0759
  530SOL    MW4 2167   0.815   2.958   0.518  0.0278 -0.2887  0.3836
  531SOL     OW 2168   0.476   4.275   1.094  0.4395 -0.2877 -0.3298
  531SOL    HW2 2169   0.552   4.311   1.139  0.6540 -2.7511  1.3763
  531SOL    HW3 2170   0.401   4.324   1.128  0.8181 -0.8069  1.2538
  531SOL    MW4 2171   0.476   4.286   1.104  0.5178 -0.6809  0.1041
  532SOL     OW 2172   0.712   4.360   1.215 -0.3798  0.5511  0.3170
  532SOL    HW2 2173   0.696   4.350   1.309 -0.5829 -0.0399  0.2212
  532SOL    HW3 2174   0.780   4.296   1.195  0.0779  1.0793  0.1710
  532SOL    MW4 2175   0.719   4.350   1.225 -0.3462  0.5431  0.2850
  533SOL     OW 2176   0.184   2.555   0.666 -0.2436  0.0208  0.3058
  533SOL    HW2 2177   0.175   2.531   0.574  0.2419  1.6136 -0.1814
  533SOL    HW3 2178   0.245   2.629   0.665 -0.5047  0.2700  1.8766
  533SOL    MW4 2179   0.191   2.562   0.654 -0.2140  0.2635  0.4488
  534SOL     OW 2180   4.062   1.938   0.876  0.0744  0.0945  0.1348
  534SOL    HW2 2181   4.047   2.028   0.847  0.1331  0.5515  1.5018
  534SOL    HW3 2182   4.061   1.942   0.972  0.9150 -1.2211  0.2239
  534SOL    MW4 2183   4.060   1.950   0.885  0.1931 -0.0188  0.3269
  535SOL     OW 2184   0.902   0.387   1.119  0.4101  0.1755  0.2086
  535SOL    HW2 2185   0.914   0.303   1.164  0.0445 -0.6669 -1.2046
  535SOL    HW3 2186   0.817   0.419   1.150 -0.3807 -0.9563 -0.6982
  535SOL    MW4 2187   0.892   0.380   1.129  0.2575 -0.0850 -0.0975
  536SOL     OW 2188   1.104   0.538   1.233 -0.0330 -0.0872 -0.0587
  536SOL    HW2 2189   1.114   0.514   1.325  0.2976  0.1531 -0.0339
  536SOL    HW3 2190   1.018   0.502   1.209 -0.2900  0.1869  0.4451
  536SOL    MW4 2191   1.094   0.530   1.242 -0.0232 -0.0194  0.0112
  537SOL     OW 2192   1.144   0.790   1.143  0.3026 -0.0665  0.0202
  537SOL    HW2 2193   1.063   0.837   1.164  0.4459  0.2908 -0.2183
  537SOL    HW3 2194   1.128   0.700   1.173 -0.3483 -0.1078 -0.4412
  537SOL    MW4 2195   1.131   0.784   1.150  0.2357 -0.0247 -0.0720
  538SOL     OW 2196   0.917   0.922   1.221  0.1030  0.3956 -0.1333
  538SOL    HW2 2197   0.835   0.883   1.191 -0.7533  0.1212  2.4932
  538SOL    HW3 2198   0.914   1.012   1.188 -0.6016  0.0006 -1.2068
  538SOL    MW4 2199   0.906   0.929   1.212 -0.1029  0.3072  0.0716
  539SOL     OW 2200   0.899   1.183   1.105  0.2394  0.4588 -0.1574
  539SOL    HW2 2201   0.973   1.236   1.134  0.9213  0.1498 -1.3306
  539SOL    HW3 2202   0.929   1.141   1.025  0.3362 -3.0470  1.5993
  539SOL    MW4 2203   0.913   1.184   1.098  0.3422 -0.0445 -0.0805
  540SOL     OW 2204   0.876   1.697   1.199 -0.4070  0.2826 -0.0197
  540SOL    HW2 2205   0.888   1.783   1.158 -0.5151  0.4171  0.2313
  540SOL    HW3 2206   0.792   1.666   1.164 -1.5486  1.3095  1.6925
  540SOL    MW4 2207   0.866   1.704   1.189 -0.5718  0.4358  0.2395
  541SOL     OW 2208   1.790   2.229   0.668  0.1199  0.1506  0.3005
  541SOL    HW2 2209   1.775   2.244   0.575  1.2035 -0.7943 -0.0529
  541SOL    HW3 2210   1.732   2.157   0.691 -0.0462  0.2900  0.3125
  541SOL    MW4 2211   1.781   2.221   0.659  0.2409  0.0441  0.2555
  542SOL     OW 2212   1.788   0.346   0.857  0.4083  0.4080 -0.6099
  542SOL    HW2 2213   1.770   0.263   0.813  0.4367  0.6860 -1.1558
  542SOL    HW3 2214   1.766   0.330   0.949 -0.7325  0.1569 -0.9167
  542SOL    MW4 2215   1.783   0.333   0.864  0.2614  0.4115 -0.7225
  543SOL     OW 2216   4.054   4.232   1.109  0.7036 -0.2484 -0.0749
  543SOL    HW2 2217   4.072   4.210   1.018  1.2930 -0.4660  0.0886
  543SOL    HW3 2218   4.051   4.147   1.154  0.2084 -0.1549  0.0742
  543SOL    MW4 2219   4.056   4.218   1.103  0.7162 -0.2646 -0.0337
  544SOL     OW 2220   4.357   3.430   0.514 -0.0135  0.1059 -0.2049
  544SOL    HW2 2221   4.440   3.415   0.468 -0.3494 -1.0274 -0.4527
  544SOL    HW3 2222   4.355   3.525   0.528  0.7668  0.2989 -1.2576
  544SOL    MW4 2223   4.368   3.441   0.509  0.0453 -0.0184 -0.3765
  545SOL     OW 2224   0.200   2.529   0.374 -0.1238 -0.3342  0.1684
  545SOL    HW2 2225   0.287   2.491   0.383  0.2829  0.8609  1.5323
  545SOL    HW3 2226   0.202   2.576   0.291  0.3347 -0.8162 -0.0909
  545SOL    MW4 2227   0.212   2.530   0.364 -0.0097 -0.2401  0.3141
  546SOL     OW 2228   1.517   1.881   0.469 -0.0001 -0.3569  0.0959
  546SOL    HW2 2229   1.423   1.898   0.465 -0.0121 -0.6503 -1.5264
  546SOL    HW3 2230   1.547   1.925   0.548 -1.8243 -1.8452  1.6378
  546SOL    MW4 2231   1.509   1.889   0.479 -0.2424 -0.5920  0.0853
  547SOL     OW 2232   3.998   4.610   1.058 -0.1566  0.3852 -0.0227
  547SOL    HW2 2233   3.945   4.538   1.092  1.3902 -0.5156  0.5056
  547SOL    HW3 2234   3.964   4.687   1.104 -0.6043 -0.2660  0.7627
  547SOL    MW4 2235   3.986   4.611   1.069 -0.0117  0.1802  0.1507
  548SOL     OW 2236   1.344   2.483   1.173  0.5115 -0.0244 -0.5534
  548SOL    HW2 2237   1.383   2.566   1.148 -1.8450  1.4496  0.5212
  548SOL    HW3 2238   1.334   2.488   1.268 -2.0641 -0.4137 -0.7653
  548SOL    MW4 2239   1.348   2.494   1.182 -0.1391  0.1187 -0.4394
  549SOL     OW 2240   2.269   1.687   0.809  0.2110 -0.2393  0.4310
  549SOL    HW2 2241   2.298   1.700   0.719 -0.1520  0.2517  0.3828
  549SOL    HW3 2242   2.197   1.625   0.803  0.5965 -0.6947  0.4509
  549SOL    MW4 2243   2.264   1.681   0.797  0.2139 -0.2345  0.4272
  550SOL     OW 2244   1.131   2.337   1.094 -0.2001  0.3869 -0.0308
  550SOL    HW2 2245   1.207   2.378   1.135 -0.1961 -0.4632  0.8488
  550SOL    HW3 2246   1.057   2.363   1.150 -0.2837 -0.2825  0.1781
  550SOL    MW4 2247   1.131   2.346   1.107 -0.2106  0.1867  0.1128
  551SOL     OW 2248   3.698   4.382   0.223  0.1977  0.6314 -0.3197
  551SOL    HW2 2249   3.765   4.431   0.175 -0.0934  3.0489  1.5932
  551SOL    HW3 2250   3.725   4.291   0.216  2.1673  1.2985 -1.9257
  551SOL    MW4 2251   3.711   4.376   0.216  0.4191  1.0381 -0.2792
  552SOL     OW 2252   0.884   3.952   0.623  0.1311  0.3556  0.6409
  552SOL    HW2 2253   0.857   3.882   0.682  0.1936 -0.2796 -0.0762
  552SOL    HW3 2254   0.803   3.976   0.577  0.3163  0.0260  0.1348
  552SOL    MW4 2255   0.870   3.946   0.625  0.1638  0.2286  0.4796
  553SOL     OW 2256   1.133   3.845   1.059 -0.0131  0.0909  0.0944
  553SOL    HW2 2257   1.146   3.761   1.105  0.9502  0.3156  0.2342
  553SOL    HW3 2258   1.060   3.886   1.106 -2.1772 -1.7565 -1.5132
  553SOL    MW4 2259   1.125   3.839   1.071 -0.1714 -0.1233 -0.0993
  554SOL     OW 2260   0.928   3.958   1.208  0.2797  0.1750 -0.1207
  554SOL    HW2 2261   0.909   3.958   1.302  1.3552  2.0487  0.1180
  554SOL    HW3 2262   0.846   3.932   1.167 -0.9273  1.7863  1.2164
  554SOL    MW4 2263   0.915   3.955   1.215  0.2623  0.6349  0.0871
  555SOL     OW 2264   1.097   4.378   1.155  0.0527  0.0956  0.3891
  555SOL    HW2 2265   1.022   4.324   1.131 -1.0568  1.0598  1.6374
  555SOL    HW3 2266   1.097   4.378   1.251  0.4362  1.7692  0.4070
  555SOL    MW4 2267   1.087   4.371   1.164 -0.0430  0.4435  0.5561
  556SOL     OW 2268   2.087   4.559   0.412 -0.2656 -0.6076 -0.1050
  556SOL    HW2 2269   2.025   4.548   0.484 -0.4963  0.1081 -0.1859
  556SOL    HW3 2270   2.144   4.482   0.416  0.2954 -0.1342  1.4000
  556SOL    MW4 2271   2.087   4.548   0.422 -0.2222 -0.4506  0.0829
  557SOL     OW 2272   0.936   2.480   0.755 -0.5405  0.2255  0.2378
  557SOL    HW2 2273   0.873   2.408   0.748 -1.1809  0.7004  1.0155
  557SOL    HW3 2274   0.886   2.552   0.794  0.9743  0.0376  2.5872
  557SOL    MW4 2275   0.921   2.480   0.759 -0.4251  0.2637  0.6503
  558SOL     OW 2276   1.528   4.624   1.129 -0.1862  0.3367 -0.4191
  558SOL    HW2 2277   1.608   4.668   1.159 -0.5431  2.0978 -1.9203
  558SOL    HW3 2278   1.540   4.533   1.155  2.0142  0.7037  0.0007
  558SOL    MW4 2279   1.540   4.618   1.136  0.0571  0.6175 -0.5618
  559SOL     OW 2280   3.999   3.504   0.848  0.3080 -0.0570  0.1380
  559SOL    HW2 2281   3.992   3.505   0.944 -0.3412  0.4658  0.0896
  559SOL    HW3 2282   3.908   3.511   0.817  0.5840  0.7281 -0.5143
  559SOL    MW4 2283   3.986   3.505   0.857  0.2587  0.1154  0.0457
  560SOL     OW 2284   1.281   0.361   1.115  0.4409  0.2444 -0.5638
  560SOL    HW2 2285   1.227   0.424   1.162 -0.5381  0.0415 -1.3984
  560SOL    HW3 2286   1.258   0.276   1.154 -0.5662  0.0441 -1.5573
  560SOL    MW4 2287   1.271   0.358   1.127  0.1789  0.1912 -0.8049
  561SOL     OW 2288   1.792   0.889   1.220  0.0716 -0.3843  0.3444
  561SOL    HW2 2289   1.799   0.891   1.316 -1.5803 -1.9907  0.5336
  561SOL    HW3 2290   1.859   0.826   1.193 -1.5415 -2.3337  0.7335
  561SOL    MW4 2291   1.801   0.881   1.229 -0.3593 -0.8535  0.4208
  562SOL     OW 2292   1.368   0.921   1.223 -0.8242  0.0183 -0.3958
  562SOL    HW2 2293   1.435   0.868   1.179 -1.8822 -0.9189 -0.8882
  562SOL    HW3 2294   1.285   0.879   1.201 -1.6175  1.3981 -0.0934
  562SOL    MW4 2295   1.366   0.909   1.214 -1.0685  0.0767 -0.4208
  563SOL     OW 2296   1.152   2.857   1.236  0.0597  0.2676 -0.1212
  563SOL    HW2 2297   1.091   2.807   1.182 -0.7014  1.0374  0.0123
  563SOL    HW3 2298   1.143   2.819   1.323  0.4911 -0.2611 -0.3053
  563SOL    MW4 2299   1.143   2.845   1.240  0.0163  0.2992 -0.1279
  564SOL     OW 2300   1.557   0.747   1.118  0.1263 -0.2114 -0.1269
  564SOL    HW2 2301   1.630   0.791   1.162 -0.3844  1.1010 -0.5633
  564SOL    HW3 2302   1.580   0.750   1.025  0.5094 -1.6765 -0.0897
  564SOL    MW4 2303   1.570   0.753   1.112  0.1096 -0.2316 -0.1796
  565SOL     OW 2304   0.459   4.178   0.373 -0.9309 -1.0058  0.1939
  565SOL    HW2 2305   0.367   4.189   0.394 -1.1701 -2.0455 -0.2696
  565SOL    HW3 2306   0.488   4.263   0.341 -2.0637 -1.0337 -0.9193
  565SOL    MW4 2307   0.451   4.190   0.372 -1.1119 -1.1468 -0.0141
  566SOL     OW 2308   1.579   1.509   1.145  0.1704  0.3370 -0.2828
  566SOL    HW2 2309   1.497   1.558   1.147 -0.1905 -0.2992  0.5468
  566SOL    HW3 2310   1.646   1.575   1.161 -0.3252  0.5533  0.9431
  566SOL    MW4 2311   1.577   1.524   1.147  0.0573  0.2816 -0.0116
  567SOL     OW 2312   0.222   1.762   0.735 -0.1596  0.6251 -0.1156
  567SOL    HW2 2313   0.304   1.800   0.768  0.2431  0.3063 -0.7259
  567SOL    HW3 2314   0.153   1.819   0.770  0.2333  0.1381  1.4678
  567SOL    MW4 2315   0.224   1.775   0.744 -0.0546  0.5188  0.0128
  568SOL     OW 2316   1.817   1.914   1.106 -0.2550 -0.2430  0.2352
  568SOL    HW2 2317   1.814   1.889   1.013 -2.4036 -1.4988  0.6074
  568SOL    HW3 2318   1.733   1.956   1.122 -0.2325 -0.7809  1.8191
  568SOL    MW4 2319   1.805   1.916   1.096 -0.5355 -0.4796  0.4933
  569SOL     OW 2320   0.824   1.365   0.489  0.0761 -0.1743 -0.6151
  569SOL    HW2 2321   0.810   1.287   0.542 -0.4462 -0.0026 -0.4925
  569SOL    HW3 2322   0.737   1.387   0.456  0.3204  0.0049 -1.1378
  569SOL    MW4 2323   0.811   1.358   0.492  0.0395 -0.1280 -0.6679
  570SOL     OW 2324   3.161   0.362   0.776 -0.4532 -0.0574 -0.1352
  570SOL    HW2 2325   3.190   0.289   0.721  1.0513 -0.2764  0.9219
  570SOL    HW3 2326   3.071   0.379   0.748 -0.5238 -1.7362 -0.9883
  570SOL    MW4 2327   3.153   0.355   0.765 -0.2639 -0.3078 -0.1083
  571SOL     OW 2328   3.596   2.487   0.737 -0.1499  0.2863 -0.2435
  571SOL    HW2 2329   3.673   2.449   0.778 -1.5828 -1.3920  0.9794
  571SOL    HW3 2330   3.616   2.486   0.643  1.0430 -0.7532  0.0052
  571SOL    MW4 2331   3.609   2.481   0.730 -0.1817 -0.0722 -0.0493
  572SOL     OW 2332   2.903   2.698   0.389  0.0092 -0.0696  0.1840
  572SOL    HW2 2333   2.849   2.622   0.411  1.5377 -1.1186  0.3918
  572SOL    HW3 2334   2.922   2.739   0.474 -0.9686  0.6661  0.0563
  572SOL    MW4 2335   2.899   2.694   0.403  0.0818 -0.1106  0.1946
  573SOL     OW 2336   2.690   0.348   1.076 -0.5909 -0.5865  0.4185
  573SOL    HW2 2337   2.699   0.261   1.117 -2.1302 -1.1444 -0.3886
  573SOL    HW3 2338   2.610   0.383   1.114 -0.5290  0.0589 -0.0537
  573SOL    MW4 2339   2.681   0.341   1.086 -0.7861 -0.5749  0.2499
  574SOL     OW 2340   1.378   3.460   1.089  0.4890  0.1604  0.1361
  574SOL    HW2 2341   1.378   3.367   1.108  0.4592 -0.0082 -0.6678
  574SOL    HW3 2342   1.361   3.466   0.995 -1.7016  1.0584  0.5642
  574SOL    MW4 2343   1.376   3.449   1.079  0.1960  0.2568  0.0865
  575SOL     OW 2344   1.749   1.828   0.848  0.0415  0.2594 -0.2059
  575SOL    HW2 2345   1.814   1.798   0.785 -1.0618 -0.5432 -0.9633
  575SOL    HW3 2346   1.701   1.749   0.873 -0.6194  0.8396  0.3829
  575SOL    MW4 2347   1.751   1.814   0.843 -0.1912  0.2300 -0.2281
  576SOL     OW 2348   1.601   3.602   1.160 -0.3856  0.4531 -0.0430
  576SOL    HW2 2349   1.678   3.551   1.133  0.0616  0.2230  1.6254
  576SOL    HW3 2350   1.527   3.550   1.130  0.0922  0.0240 -0.5066
  576SOL    MW4 2351   1.602   3.588   1.152 -0.2635  0.3662  0.1159
  577SOL     OW 2352   4.008   3.489   1.119  0.0402 -0.1439  0.2027
  577SOL    HW2 2353   3.944   3.555   1.144 -0.5623 -0.4410 -0.5273
  577SOL    HW3 2354   4.093   3.529   1.136 -0.3385  0.4172  0.7644
  577SOL    MW4 2355   4.011   3.503   1.125 -0.0892 -0.1090  0.1805
  578SOL     OW 2356   1.094   4.647   1.085 -0.0252  0.2572 -0.0083
  578SOL    HW2 2357   1.102   4.555   1.110 -1.2460 -0.1372 -0.9873
  578SOL    HW3 2358   1.018   4.679   1.135 -0.5173  0.3161 -0.7836
  578SOL    MW4 2359   1.085   4.639   1.095 -0.2513  0.2131 -0.2397
  579SOL     OW 2360   4.465   0.995   0.404 -0.3341 -0.2632  0.0048
  579SOL    HW2 2361   4.446   1.086   0.381  0.3733 -0.1918 -0.3164
  579SOL    HW3 2362   4.379   0.952   0.403 -0.6925  0.4353  0.3301
  579SOL    MW4 2363   4.451   1.001   0.401 -0.2880 -0.1616  0.0054
  580SOL     OW 2364   1.812   4.226   1.216 -0.0295 -0.8275 -0.2348
  580SOL    HW2 2365   1.723   4.260   1.222 -0.6002 -2.0919 -1.3229
  580SOL    HW3 2366   1.821   4.170   1.293  0.1701  0.0558  0.3946
  580SOL    MW4 2367   1.802   4.223   1.227 -0.0784 -0.8774 -0.2953
  581SOL     OW 2368   2.491   1.264   1.215  0.1086  0.0463 -0.3422
  581SOL    HW2 2369   2.576   1.235   1.183  0.5170  0.3424  0.4638
  581SOL    HW3 2370   2.484   1.355   1.188  0.8596  0.5732  1.2167
  581SOL    MW4 2371   2.501   1.272   1.207  0.2618  0.1550 -0.0300
  582SOL     OW 2372   1.797   0.085   1.512  0.1693 -0.0656  0.1945
  582SOL    HW2 2373   1.721   0.041   1.551 -0.4958  0.8303 -0.0825
  582SOL    HW3 2374   1.779   0.084   1.418  0.4110  0.3174  0.1459
  582SOL    MW4 2375   1.784   0.079   1.504  0.1134  0.1031  0.1514
  583SOL     OW 2376   1.754   0.105   1.248 -0.1327  0.2458 -0.0701
  583SOL    HW2 2377   1.823   0.066   1.194  1.0681  1.3829  0.6103
  583SOL    HW3 2378   1.742   0.193   1.212  0.2151  0.7793  1.0819
  583SOL    MW4 2379   1.762   0.111   1.236  0.0718  0.4662  0.1717
  584SOL     OW 2380   0.560   3.778   0.524  0.1170 -0.4716  0.5478
  584SOL    HW2 2381   0.523   3.833   0.593  0.4536 -0.1838  0.4993
  584SOL    HW3 2382   0.535   3.821   0.443 -0.0009 -0.6329  0.4998
  584SOL    MW4 2383   0.552   3.791   0.523  0.1459 -0.4549  0.5351
  585SOL     OW 2384   2.044   1.312   1.209 -0.1128  0.2543  0.2300
  585SOL    HW2 2385   2.126   1.263   1.205  0.5974  1.2561  1.7825
  585SOL    HW3 2386   1.980   1.257   1.165  1.3643 -0.6218 -0.8489
  585SOL    MW4 2387   2.046   1.299   1.203  0.1760  0.2710  0.2924
  586SOL     OW 2388   1.559   4.020   0.473 -0.1164 -0.2807 -0.1375
  586SOL    HW2 2389   1.486   4.000   0.532 -0.2176 -1.2686 -0.5907
  586SOL    HW3 2390   1.541   3.970   0.394  0.2421  0.7052 -0.8621
  586SOL    MW4 2391   1.547   4.011   0.470 -0.0825 -0.2804 -0.2929
  587SOL     OW 2392   1.835   1.143   1.116  0.0201  0.0509 -0.0317
  587SOL    HW2 2393   1.832   1.049   1.133  0.0717 -0.2461 -1.6190
  587SOL    HW3 2394   1.795   1.153   1.030 -0.3737  1.5320  0.3215
  587SOL    MW4 2395   1.830   1.132   1.107 -0.0250  0.2069 -0.1944
  588SOL     OW 2396   2.919   0.280   0.466  0.4471 -0.0378  0.3178
  588SOL    HW2 2397   2.955   0.192   0.459 -2.1824 -0.9844 -2.2425
  588SOL    HW3 2398   2.977   0.334   0.413  0.2893 -0.8383 -0.6867
  588SOL    MW4 2399   2.931   0.276   0.458  0.0796 -0.2683 -0.1525
  589SOL     OW 2400   1.631   1.271   1.274 -0.4981 -0.1926 -0.0712
  589SOL    HW2 2401   1.619   1.356   1.232 -1.6996  0.5418  1.7189
  589SOL    HW3 2402   1.710   1.235   1.233  0.0870  1.8162 -0.7684
  589SOL    MW4 2403   1.640   1.277   1.263 -0.5795  0.1694  0.0731
  590SOL     OW 2404   1.801   1.666   1.213  0.2897  0.3460 -0.3025
  590SOL    HW2 2405   1.816   1.755   1.182 -0.8634  0.7322  0.2633
  590SOL    HW3 2406   1.873   1.615   1.174  1.8917  1.8054  0.6831
  590SOL    MW4 2407   1.813   1.671   1.203  0.3489  0.5895 -0.0978
  591SOL     OW 2408   1.860   3.251   0.608 -0.0900  0.1566  0.2939
  591SOL    HW2 2409   1.906   3.167   0.608  0.5614  0.5045 -0.6741
  591SOL    HW3 2410   1.930   3.317   0.605 -0.6221  0.7034 -0.2855
  591SOL    MW4 2411   1.876   3.248   0.608 -0.0743  0.2747  0.0896
  592SOL     OW 2412   2.017   2.063   1.204  0.1119 -0.1656 -0.2527
  592SOL    HW2 2413   2.017   2.073   1.299 -1.4734 -0.7659 -0.1753
  592SOL    HW3 2414   1.935   2.017   1.185  1.0206 -1.1907 -1.7836
  592SOL    MW4 2415   2.006   2.058   1.214  0.0222 -0.3800 -0.4444
  593SOL     OW 2416   2.189   4.414   0.100  0.1146  0.2440  0.0634
  593SOL    HW2 2417   2.124   4.484   0.110 -0.7220 -0.4634 -0.3247
  593SOL    HW3 2418   2.180   4.386   0.009  0.5843 -0.2382  0.1616
  593SOL    MW4 2419   2.179   4.419   0.089  0.0663  0.0873  0.0251
  594SOL     OW 2420   4.274   1.784   0.755 -0.4975 -0.5444 -0.0359
  594SOL    HW2 2421   4.236   1.706   0.795  1.9235 -1.9152 -0.3099
  594SOL    HW3 2422   4.205   1.851   0.762 -1.4944 -1.7921  3.0137
  594SOL    MW4 2423   4.260   1.783   0.761 -0.3099 -0.8899  0.3303
  595SOL     OW 2424   1.197   0.717   0.870  0.5101 -0.6498 -0.5697
  595SOL    HW2 2425   1.258   0.775   0.825 -0.8886  0.2688 -1.3097
  595SOL    HW3 2426   1.192   0.752   0.959 -0.8684  0.8419 -1.1974
  595SOL    MW4 2427   1.204   0.729   0.875  0.1438 -0.3318 -0.7501
  596SOL     OW 2428   0.458   3.894   0.311 -0.4445  0.0423 -0.2619
  596SOL    HW2 2429   0.455   3.990   0.308 -0.7081  0.0560  0.3907
  596SOL    HW3 2430   0.477   3.868   0.221  3.5045  0.8381  0.2472
  596SOL    MW4 2431   0.460   3.903   0.299  0.0417  0.1493 -0.1087
  597SOL     OW 2432   1.094   3.203   0.665  0.0689  0.3164  0.3180
  597SOL    HW2 2433   1.181   3.235   0.638  0.0056 -0.0594 -0.3521
  597SOL    HW3 2434   1.039   3.281   0.666  0.1994  0.4179 -0.1452
  597SOL    MW4 2435   1.098   3.217   0.662  0.0778  0.2804  0.1685
  598SOL     OW 2436   3.364   2.226   0.562 -0.1627  0.3363  0.2608
  598SOL    HW2 2437   3.391   2.271   0.482  1.6008  0.8654  1.1443
  598SOL    HW3 2438   3.441   2.178   0.590 -0.8710 -0.0962  1.4962
  598SOL    MW4 2439   3.378   2.226   0.555 -0.0236  0.3490  0.5404
  599SOL     OW 2440   1.032   2.101   0.420  0.1506  0.1973  0.1796
  599SOL    HW2 2441   1.029   2.127   0.328  2.0311 -2.3193 -0.6544
  599SOL    HW3 2442   1.106   2.149   0.456  0.1444  0.2799  0.0828
  599SOL    MW4 2443   1.041   2.110   0.413  0.3979 -0.1237  0.0568
  600SOL     OW 2444   1.834   4.028   1.029 -0.2147 -0.3360 -0.2015
  600SOL    HW2 2445   1.757   3.972   1.030  0.9832 -2.0599  2.7075
  600SOL    HW3 2446   1.816   4.096   1.094 -0.2073  0.6097 -1.1749
  600SOL    MW4 2447   1.822   4.029   1.037 -0.0556 -0.4392  0.0538
  601SOL     OW 2448   4.440   3.706   0.399  0.1396  0.3601  0.4867
  601SOL    HW2 2449   4.490   3.784   0.421 -0.9844  1.3970 -0.6188
  601SOL    HW3 2450   4.503   3.648   0.357  0.6385  1.2759 -0.0409
  601SOL    MW4 2451   4.454   3.708   0.396  0.0567  0.6177  0.2713
  602SOL     OW 2452   1.345   3.650   0.389 -0.3153 -0.0856  0.0840
  602SOL    HW2 2453   1.415   3.708   0.359 -1.7618  1.6266 -0.0274
  602SOL    HW3 2454   1.373   3.563   0.361  1.5889  0.6187 -0.2897
  602SOL    MW4 2455   1.358   3.646   0.381 -0.2550  0.2332  0.0199
  603SOL     OW 2456   2.965   4.637   0.780  0.4384 -0.0021 -0.2192
  603SOL    HW2 2457   2.957   4.543   0.769  1.5908 -0.1577  0.1985
  603SOL    HW3 2458   2.888   4.673   0.737  0.5468 -1.0678 -1.3135
  603SOL    MW4 2459   2.954   4.630   0.773  0.6049 -0.1631 -0.3085
  604SOL     OW 2460   2.022   4.414   1.245 -0.0964 -0.2925  0.0689
  604SOL    HW2 2461   2.048   4.393   1.335 -0.6601 -0.9575  0.0761
  604SOL    HW3 2462   1.951   4.353   1.225  0.8373 -0.9709 -1.2578
  604SOL    MW4 2463   2.016   4.403   1.254 -0.0477 -0.4697 -0.1054
  605SOL     OW 2464   2.455   4.642   1.140 -0.4906 -0.0447 -0.0979
  605SOL    HW2 2465   2.531   4.690   1.173  0.0276 -0.4804 -0.6498
  605SOL    HW3 2466   2.381   4.697   1.164 -0.0363  0.2176  0.7586
  605SOL    MW4 2467   2.456   4.656   1.148 -0.3622 -0.0672 -0.0577
  606SOL     OW 2468   2.200   0.144   1.233 -0.0990  0.2198  0.4140
  606SOL    HW2 2469   2.196   0.234   1.202  2.3453  0.4129  0.5338
  606SOL    HW3 2470   2.128   0.100   1.189 -0.6953  1.9969 -0.4307
  606SOL    MW4 2471   2.190   0.150   1.223  0.1447  0.4798  0.3183
  607SOL     OW 2472   2.209   0.400   1.106  0.1549 -0.0903 -0.0824
  607SOL    HW2 2473   2.216   0.365   1.017  0.6632 -0.2073  0.0024
  607SOL    HW3 2474   2.295   0.438   1.124  0.5076 -1.2952  0.8632
  607SOL    MW4 2475   2.221   0.400   1.096  0.2685 -0.2646  0.0534
  608SOL     OW 2476   3.078   2.083   0.567  0.3726  0.6240 -0.3955
  608SOL    HW2 2477   3.168   2.111   0.551 -0.0674  1.9432 -0.6437
  608SOL    HW3 2478   3.030   2.164   0.583 -0.5944 -0.1409  0.6373
  608SOL    MW4 2479   3.084   2.097   0.567  0.1869  0.6969 -0.2920
  609SOL     OW 2480   0.409   0.948   0.674  0.2396  0.0891  0.1504
  609SOL    HW2 2481   0.466   0.871   0.661  1.0553  0.7346 -0.1539
  609SOL    HW3 2482   0.415   0.996   0.591 -0.4790  0.3490  0.2448
  609SOL    MW4 2483   0.417   0.944   0.661  0.2524  0.2086  0.1227
  610SOL     OW 2484   4.192   0.092   0.606 -0.0116 -0.1802  0.5668
  610SOL    HW2 2485   4.203   0.180   0.570  0.6736 -0.9845 -1.2512
  610SOL    HW3 2486   4.115   0.057   0.560  0.2750 -0.8661  0.6140
  610SOL    MW4 2487   4.183   0.099   0.595  0.1168 -0.3768  0.3331
  611SOL     OW 2488   2.226   1.686   1.200  0.1703 -0.1091  0.3172
  611SOL    HW2 2489   2.165   1.648   1.137  0.0925  0.8659 -0.2002
  611SOL    HW3 2490   2.246   1.773   1.165  1.3145 -0.1515  0.8472
  611SOL    MW4 2491   2.220   1.692   1.187  0.3111  0.0139  0.3189
  612SOL     OW 2492   1.979   0.445   0.506  0.0630 -0.5124  0.2712
  612SOL    HW2 2493   1.906   0.410   0.455 -0.3716 -1.0735  1.2866
  612SOL    HW3 2494   2.057   0.405   0.467 -0.0752  0.8331 -1.4449
  612SOL    MW4 2495   1.980   0.435   0.494 -0.0125 -0.4089  0.1788
  613SOL     OW 2496   2.422   4.025   0.847  0.6494  0.3441  0.1315
  613SOL    HW2 2497   2.502   4.046   0.799  1.0673 -1.1033  0.1995
  613SOL    HW3 2498   2.377   3.961   0.792 -0.0403  0.4844  0.5269
  613SOL    MW4 2499   2.427   4.020   0.833  0.6137  0.1712  0.1926
  614SOL     OW 2500   2.064   2.783   0.517 -0.3991 -0.2282 -0.4074
  614SOL    HW2 2501   2.154   2.774   0.548 -0.1201 -0.6123 -1.3059
  614SOL    HW3 2502   2.033   2.692   0.507 -1.5789 -0.1076  1.8576
  614SOL    MW4 2503   2.071   2.770   0.520 -0.5178 -0.2635 -0.2271
  615SOL     OW 2504   4.314   3.263   0.754 -0.4193 -0.3272  0.3165
  615SOL    HW2 2505   4.319   3.312   0.672  0.0586 -0.0396  0.5111
  615SOL    HW3 2506   4.221   3.260   0.776 -0.5021 -0.0050  0.0018
  615SOL    MW4 2507   4.302   3.269   0.746 -0.3676 -0.2468  0.3006
  616SOL     OW 2508   2.924   3.106   1.146 -0.2198  0.6890 -0.1081
  616SOL    HW2 2509   2.912   3.017   1.180  1.6689  1.5304  2.9901
  616SOL    HW3 2510   2.840   3.149   1.162 -0.2548  0.2397  0.9886
  616SOL    MW4 2511   2.912   3.100   1.152  0.0248  0.7405  0.4454
  617SOL     OW 2512   3.688   1.517   0.478  0.2210 -0.0619 -0.1531
  617SOL    HW2 2513   3.660   1.503   0.568  0.3255  1.0813  0.0613
  617SOL    HW3 2514   3.758   1.581   0.483  0.9079 -0.7289 -0.9666
  617SOL    MW4 2515   3.693   1.524   0.490  0.3254  0.0010 -0.2322
  618SOL     OW 2516   2.199   2.446   1.139 -0.3329 -0.2366  0.0319
  618SOL    HW2 2517   2.294   2.444   1.130 -0.3757 -0.0416 -0.4385
  618SOL    HW3 2518   2.184   2.431   1.233  0.0987 -1.8625 -0.1399
  618SOL    MW4 2519   2.209   2.444   1.150 -0.2816 -0.4256 -0.0528
  619SOL     OW 2520   1.561   2.688   0.898  0.1627 -0.0996 -0.2774
  619SOL    HW2 2521   1.525   2.613   0.851  0.1063 -0.4919  0.3738
  619SOL    HW3 2522   1.496   2.707   0.966 -0.3996  1.3129 -1.2027
  619SOL    MW4 2523   1.548   2.681   0.901  0.0811  0.0348 -0.3137
  620SOL     OW 2524   2.148   2.712   1.051 -0.1784 -0.0364  0.3171
  620SOL    HW2 2525   2.225   2.735   0.999 -0.3749 -0.2095 -0.0483
  620SOL    HW3 2526   2.165   2.622   1.079 -0.3031 -0.1134  0.1413
  620SOL    MW4 2527   2.161   2.703   1.048 -0.2210 -0.0694  0.2456
  621SOL     OW 2528   1.711   1.182   0.859 -0.0994  0.0043  0.3474
  621SOL    HW2 2529   1.618   1.185   0.882 -0.0279  0.0367  0.6345
  621SOL    HW3 2530   1.721   1.098   0.815 -0.4044  0.3036 -0.3054
  621SOL    MW4 2531   1.700   1.171   0.856 -0.1303  0.0480  0.2993
  622SOL     OW 2532   2.185   3.278   1.198 -0.1080  0.3312  0.8293
  622SOL    HW2 2533   2.197   3.353   1.139  0.2495  0.4401  1.0383
  622SOL    HW3 2534   2.091   3.261   1.196  0.0228 -0.3055 -0.5578
  622SOL    MW4 2535   2.174   3.286   1.190 -0.0436  0.2618  0.6738
  623SOL     OW 2536   1.830   4.118   0.765  0.3619 -0.2694  0.5315
  623SOL    HW2 2537   1.823   4.095   0.857 -2.0409 -0.1626  0.4058
  623SOL    HW3 2538   1.761   4.184   0.751  0.4776 -0.5143 -1.3947
  623SOL    MW4 2539   1.820   4.124   0.775  0.0601 -0.2875  0.2608
  624SOL     OW 2540   2.457   3.660   1.193 -0.0925 -0.3879  0.3085
  624SOL    HW2 2541   2.474   3.677   1.286 -2.3775 -0.6025  0.8000
  624SOL    HW3 2542   2.450   3.747   1.153  0.8052 -0.2939  0.3607
  624SOL    MW4 2543   2.458   3.674   1.200 -0.2754 -0.4041  0.3803
  625SOL     OW 2544   2.489   3.925   1.099 -0.1028  0.5550 -0.2537
  625SOL    HW2 2545   2.411   3.959   1.141 -1.0169  1.7312 -2.7771
  625SOL    HW3 2546   2.474   3.938   1.005  2.1215 -1.3306 -0.9426
  625SOL    MW4 2547   2.477   3.931   1.092  0.0701  0.4613 -0.6775
  626SOL     OW 2548   2.248   4.003   1.200 -0.4355  0.4192  0.1144
  626SOL    HW2 2549   2.244   4.094   1.173  1.1210  0.0221 -1.6089
  626SOL    HW3 2550   2.187   3.958   1.141  0.6690  0.0110 -0.7572
  626SOL    MW4 2551   2.240   4.009   1.189 -0.0844  0.3128 -0.2280
  627SOL     OW 2552   1.351   3.286   0.590 -0.4039  0.5949 -0.3580
  627SOL    HW2 2553   1.365   3.331   0.507  0.7294  0.3340 -0.3156
  627SOL    HW3 2554   1.384   3.348   0.656  0.4387  0.0210 -0.2426
  627SOL    MW4 2555   1.357   3.300   0.588 -0.1433  0.4847 -0.3372
  628SOL     OW 2556   2.481   4.375   1.220 -0.3967 -0.0325  0.1708
  628SOL    HW2 2557   2.393   4.338   1.210 -0.4404 -0.2184  1.2350
  628SOL    HW3 2558   2.471   4.467   1.195 -1.1242  0.2021  1.2982
  628SOL    MW4 2559   2.468   4.382   1.215 -0.4985 -0.0257  0.4600
  629SOL     OW 2560   2.920   4.648   1.065  0.0808 -0.6353  0.1608
  629SOL    HW2 2561   2.904   4.563   1.105  0.4022 -0.3262  0.9517
  629SOL    HW3 2562   2.926   4.629   0.971  1.7461 -1.7316  0.4672
  629SOL    MW4 2563   2.919   4.634   1.058  0.3431 -0.7392  0.3055
  630SOL     OW 2564   2.692   0.103   1.218  0.2024 -0.1253 -0.3204
  630SOL    HW2 2565   2.773   0.073   1.178 -1.0618  0.9043 -3.8537
  630SOL    HW3 2566   2.710   0.103   1.312  4.1261 -0.3198 -0.9905
  630SOL    MW4 2567   2.705   0.099   1.225  0.5534 -0.0151 -0.8749
  631SOL     OW 2568   1.319   4.221   1.103  0.2804 -0.6768 -0.0015
  631SOL    HW2 2569   1.235   4.265   1.099  0.9610  0.6210 -0.2663
  631SOL    HW3 2570   1.343   4.206   1.011  0.8077 -0.1261  0.0421
  631SOL    MW4 2571   1.311   4.225   1.090  0.4399 -0.4330 -0.0306
  632SOL     OW 2572   1.361   4.198   0.820  0.1655  0.0637  0.0911
  632SOL    HW2 2573   1.347   4.285   0.783  0.2713 -0.5465 -1.4224
  632SOL    HW3 2574   1.351   4.138   0.746 -0.9385 -1.3044  1.3132
  632SOL    MW4 2575   1.358   4.201   0.806  0.0337 -0.1969  0.0527
  633SOL     OW 2576   3.720   0.633   0.475  0.3457  0.2762 -0.1064
  633SOL    HW2 2577   3.765   0.713   0.449 -0.9975  0.0302 -3.4889
  633SOL    HW3 2578   3.627   0.656   0.470 -0.0165 -1.0160  0.5303
  633SOL    MW4 2579   3.713   0.647   0.471  0.1206  0.0733 -0.4686
  634SOL     OW 2580   2.711   0.910   1.502  0.3188  0.2062 -0.3040
  634SOL    HW2 2581   2.722   0.895   1.408 -0.4787 -1.0737 -0.2141
  634SOL    HW3 2582   2.637   0.854   1.526  0.6370  0.3844  1.1206
  634SOL    MW4 2583   2.703   0.900   1.493  0.2556  0.0609 -0.1044
  635SOL     OW 2584   3.619   2.112   0.611 -0.2850 -0.1353  0.3204
  635SOL    HW2 2585   3.614   2.047   0.541  0.6180 -0.1516  0.2657
  635SOL    HW3 2586   3.615   2.061   0.692  1.4042 -0.3505  0.2795
  635SOL    MW4 2587   3.617   2.097   0.612  0.0570 -0.1657  0.3079
  636SOL     OW 2588   2.929   1.308   1.167  0.1920  0.3706 -0.1031
  636SOL    HW2 2589   2.999   1.258   1.126 -0.0926  0.5869 -0.8728
  636SOL    HW3 2590   2.936   1.288   1.260 -0.4770 -1.8275 -0.4889
  636SOL    MW4 2591   2.939   1.298   1.174  0.0663  0.1091 -0.2556
  637SOL     OW 2592   3.177   1.361   0.478 -0.0011 -0.1172  0.0465
  637SOL    HW2 2593   3.132   1.279   0.462 -0.8125  0.6617 -1.7577
  637SOL    HW3 2594   3.128   1.402   0.550 -1.2103  0.0004 -0.8370
  637SOL    MW4 2595   3.165   1.356   0.486 -0.2680  0.0011 -0.3081
  638SOL     OW 2596   2.926   1.565   1.058  0.3499  0.2631 -0.3380
  638SOL    HW2 2597   2.993   1.619   1.099  1.0675 -0.0115 -1.1381
  638SOL    HW3 2598   2.939   1.478   1.096  0.3021  0.2622 -0.3244
  638SOL    MW4 2599   2.936   1.560   1.068  0.4382  0.2269 -0.4417
  639SOL     OW 2600   4.315   0.501   0.789 -0.0334  0.8576  0.0419
  639SOL    HW2 2601   4.272   0.428   0.833  0.0608  0.3538 -0.6877
  639SOL    HW3 2602   4.320   0.474   0.697  2.3590  0.6663  0.1977
  639SOL    MW4 2603   4.310   0.488   0.782  0.2947  0.7659 -0.0339
  640SOL     OW 2604   2.471   2.103   1.232  0.0464  0.1459  0.2518
  640SOL    HW2 2605   2.396   2.060   1.190  0.2993  0.4294 -0.4833
  640SOL    HW3 2606   2.548   2.059   1.195  0.2324 -0.7024  1.6063
  640SOL    MW4 2607   2.471   2.091   1.222  0.1044  0.0715  0.3335
  641SOL     OW 2608   2.162   2.306   0.541  0.2645  0.2226  0.1449
  641SOL    HW2 2609   2.132   2.254   0.615  1.4561  0.0861  0.5438
  641SOL    HW3 2610   2.203   2.243   0.482  0.6349  0.5377  0.0609
  641SOL    MW4 2611   2.163   2.291   0.543  0.4709  0.2460  0.1865
  642SOL     OW 2612   2.684   2.486   1.472  0.0459  0.0426 -0.2494
  642SOL    HW2 2613   2.608   2.439   1.506 -0.4724  1.3369  0.3888
  642SOL    HW3 2614   2.688   2.567   1.523  0.7229  0.8592 -1.5639
  642SOL    MW4 2615   2.674   2.491   1.483  0.0670  0.3214 -0.3387
  643SOL     OW 2616   3.542   1.958   1.103  0.0095  0.6032  0.0198
  643SOL    HW2 2617   3.465   1.998   1.141 -0.2915 -2.5521  2.9908
  643SOL    HW3 2618   3.615   1.992   1.154  0.5660  2.6574 -2.0184
  643SOL    MW4 2619   3.542   1.968   1.114  0.0434  0.4578  0.1429
  644SOL     OW 2620   2.617   2.763   1.116  0.2582 -0.2288  0.2813
  644SOL    HW2 2621   2.708   2.781   1.138  0.3465  0.0661 -0.3139
  644SOL    HW3 2622   2.602   2.811   1.034 -1.1763  1.8357  1.6927
  644SOL    MW4 2623   2.627   2.772   1.108  0.0803  0.0823  0.3890
  645SOL     OW 2624   0.483   2.704   1.098  0.4221  0.2429  0.7472
  645SOL    HW2 2625   0.479   2.613   1.129 -0.1558  0.4723  1.3700
  645SOL    HW3 2626   0.407   2.746   1.139  0.7714  1.0429  0.5802
  645SOL    MW4 2627   0.472   2.698   1.108  0.3919  0.3786  0.8073
  646SOL     OW 2628   1.141   3.089   1.099  0.1214  0.0280  0.3355
  646SOL    HW2 2629   1.134   3.061   1.008  0.5148  1.7358 -0.2328
  646SOL    HW3 2630   1.148   3.008   1.148 -0.5372 -0.9331 -1.1137
  646SOL    MW4 2631   1.141   3.075   1.093  0.0864  0.1268  0.0694
  647SOL     OW 2632   0.633   1.617   0.837  0.4748 -0.4207  0.0920
  647SOL    HW2 2633   0.592   1.704   0.831 -0.3656 -0.6992  1.4185
  647SOL    HW3 2634   0.700   1.617   0.770 -0.2122  0.8934 -0.6152
  647SOL    MW4 2635   0.636   1.628   0.828  0.2733 -0.2841  0.1737
  648SOL     OW 2636   2.960   3.846   1.152  0.0011 -0.0902  0.0641
  648SOL    HW2 2637   3.036   3.890   1.191  0.3979 -0.2089 -0.5760
  648SOL    HW3 2638   2.895   3.916   1.145  0.9496  0.6478 -1.8193
  648SOL    MW4 2639   2.962   3.861   1.156  0.1783 -0.0083 -0.2689
  649SOL     OW 2640   0.450   0.513   0.342  0.0904  0.0651  0.0292
  649SOL    HW2 2641   0.396   0.522   0.421 -0.5217 -0.3962 -0.3329
  649SOL    HW3 2642   0.406   0.567   0.277  0.0649 -0.3145 -0.2679
  649SOL    MW4 2643   0.437   0.521   0.344  0.0063 -0.0458 -0.0578
  650SOL     OW 2644   2.742   4.020   1.134 -0.2523 -0.0427 -0.1364
  650SOL    HW2 2645   2.654   3.982   1.133 -0.4720  0.4763 -0.9019
  650SOL    HW3 2646   2.731   4.108   1.098  0.5208  0.1699  0.1270
  650SOL    MW4 2647   2.729   4.027   1.129 -0.1793  0.0534 -0.2027
  651SOL     OW 2648   0.948   0.799   0.773 -0.0764  0.0322  0.1253
  651SOL    HW2 2649   0.965   0.819   0.681 -1.1521  0.2441 -0.0296
  651SOL    HW3 2650   1.030   0.762   0.805  0.3853  0.2010 -0.8512
  651SOL    MW4 2651   0.961   0.797   0.765 -0.1574  0.0825 -0.0240
  652SOL     OW 2652   2.240   4.270   1.140  0.4262 -0.1296  0.3498
  652SOL    HW2 2653   2.158   4.318   1.154  1.2092  1.0688  0.9446
  652SOL    HW3 2654   2.255   4.276   1.045 -0.0971 -0.2234  0.2594
  652SOL    MW4 2655   2.231   4.277   1.129  0.4606  0.0167  0.4163
  653SOL     OW 2656   3.593   0.136   1.192 -0.4406 -0.2752 -0.4529
  653SOL    HW2 2657   3.638   0.098   1.116  1.7317 -1.4194  1.3403
  653SOL    HW3 2658   3.575   0.227   1.165  0.8538 -0.4780 -2.1139
  653SOL    MW4 2659   3.597   0.143   1.179  0.0167 -0.4529 -0.4355
  654SOL     OW 2660   3.325   0.025   1.111 -1.1278 -0.5816 -0.0429
  654SOL    HW2 2661   3.406   0.075   1.117 -1.1571 -0.2145 -2.3641
  654SOL    HW3 2662   3.260   0.078   1.157 -0.8312  0.8385 -1.2188
  654SOL    MW4 2663   3.327   0.038   1.118 -1.0922 -0.3458 -0.5041
  655SOL     OW 2664   2.733   0.861   1.217  0.2355 -0.2557 -0.4071
  655SOL    HW2 2665   2.653   0.835   1.172 -0.1344 -0.9210  0.6144
  655SOL    HW3 2666   2.802   0.812   1.174  0.1849  0.7491 -1.6716
  655SOL    MW4 2667   2.731   0.851   1.206  0.1802 -0.2109 -0.4390
  656SOL     OW 2668   3.904   0.644   0.914  0.1235 -0.3143  0.3958
  656SOL    HW2 2669   3.995   0.668   0.896 -0.1965 -0.0105 -0.8447
  656SOL    HW3 2670   3.889   0.676   1.003  0.7651  1.0098  0.0516
  656SOL    MW4 2671   3.914   0.652   0.923  0.1657 -0.0995  0.1867
  657SOL     OW 2672   3.314   0.502   1.204  0.0140 -0.1461  0.2706
  657SOL    HW2 2673   3.239   0.461   1.159 -0.4835  0.9306  0.1030
  657SOL    HW3 2674   3.305   0.595   1.185  0.6235  0.1549  1.4090
  657SOL    MW4 2675   3.303   0.509   1.195  0.0286  0.0356  0.3988
  658SOL     OW 2676   2.649   1.393   0.745  0.2685  0.1602  0.4228
  658SOL    HW2 2677   2.637   1.306   0.784  0.4440 -0.5176 -1.0097
  658SOL    HW3 2678   2.566   1.438   0.761 -0.5487 -0.9620 -0.5476
  658SOL    MW4 2679   2.636   1.388   0.752  0.1838 -0.0772  0.1057
  659SOL     OW 2680   0.419   0.161   0.499 -0.1370 -0.3041  0.0541
  659SOL    HW2 2681   0.476   0.166   0.576 -0.2757 -0.6112  0.1771
  659SOL    HW3 2682   0.479   0.166   0.425 -0.0714  0.8249  0.1744
  659SOL    MW4 2683   0.434   0.162   0.499 -0.1466 -0.1956  0.0862
  660SOL     OW 2684   3.353   1.307   1.188  0.0986  0.3250 -0.3340
  660SOL    HW2 2685   3.343   1.397   1.158  1.5375  0.6734  0.1538
  660SOL    HW3 2686   3.383   1.315   1.279  1.5612 -0.6062 -0.7123
  660SOL    MW4 2687   3.356   1.320   1.196  0.4816  0.2481 -0.3196
  661SOL     OW 2688   3.378   2.382   1.092 -0.0264 -0.3432 -0.1793
  661SOL    HW2 2689   3.366   2.357   1.001 -1.4577 -0.4896  0.0374
  661SOL    HW3 2690   3.297   2.428   1.115  0.2492 -0.4667  1.0646
  661SOL    MW4 2691   3.366   2.385   1.083 -0.1788 -0.3786  0.0135
  662SOL     OW 2692   1.898   2.831   0.281  0.1361 -0.4091 -0.1371
  662SOL    HW2 2693   1.963   2.805   0.216  1.4226  0.2337  0.8464
  662SOL    HW3 2694   1.944   2.820   0.365 -1.2067 -0.4281  0.6059
  662SOL    MW4 2695   1.913   2.826   0.284  0.1286 -0.3266  0.0907
  663SOL     OW 2696   3.996   0.314   0.678 -0.0665 -0.8197 -0.1132
  663SOL    HW2 2697   3.938   0.386   0.700 -0.9453 -0.8939 -2.0683
  663SOL    HW3 2698   3.948   0.235   0.706 -0.5484 -0.8301 -0.9556
  663SOL    MW4 2699   3.982   0.313   0.685 -0.2458 -0.8309 -0.4824
  664SOL     OW 2700   3.354   2.079   1.500 -0.7931  0.1809 -0.0706
  664SOL    HW2 2701   3.348   2.088   1.405  0.7053 -1.1938 -0.3196
  664SOL    HW3 2702   3.277   2.028   1.524 -0.0414 -1.3343 -0.8307
  664SOL    MW4 2703   3.343   2.074   1.490 -0.4961 -0.2003 -0.2037
  665SOL     OW 2704   3.368   2.813   1.214  0.0961 -0.6327 -0.2312
  665SOL    HW2 2705   3.365   2.823   1.309  0.3219 -0.0531 -0.2802
  665SOL    HW3 2706   3.460   2.792   1.196  0.1570 -0.2706 -0.3586
  665SOL    MW4 2707   3.380   2.812   1.224  0.1342 -0.5085 -0.2545
  666SOL     OW 2708   2.315   2.839   0.877 -0.2146 -0.8262 -0.1395
  666SOL    HW2 2709   2.321   2.804   0.788  0.7062  0.3570 -0.5555
  666SOL    HW3 2710   2.396   2.889   0.889 -0.9904  0.2341  0.8350
  666SOL    MW4 2711   2.327   2.841   0.867 -0.1955 -0.5302 -0.0659
  667SOL     OW 2712   0.199   4.603   0.866 -0.8107  0.0653 -0.0920
  667SOL    HW2 2713   0.175   4.689   0.833  1.3150  1.1549  1.0682
  667SOL    HW3 2714   0.271   4.575   0.809 -0.1186  0.0030  0.7894
  667SOL    MW4 2715   0.206   4.611   0.854 -0.4389  0.2007  0.1774
  668SOL     OW 2716   0.369   3.351   0.240  0.2175  0.5433  0.1880
  668SOL    HW2 2717   0.433   3.332   0.308  0.7426 -2.3960 -1.0502
  668SOL    HW3 2718   0.289   3.375   0.288  0.5617 -1.5281  1.8408
  668SOL    MW4 2719   0.367   3.352   0.255  0.3321 -0.1178  0.2427
  669SOL     OW 2720   2.547   1.900   0.481 -0.2730 -0.2128  0.4899
  669SOL    HW2 2721   2.626   1.899   0.427 -0.7748 -2.0304 -0.2219
  669SOL    HW3 2722   2.573   1.951   0.559  1.2571  0.1268 -0.2162
  669SOL    MW4 2723   2.561   1.907   0.484 -0.1373 -0.4078  0.3028
  670SOL     OW 2724   3.155   3.210   1.241 -0.4793  0.3655 -0.6835
  670SOL    HW2 2725   3.067   3.179   1.218 -0.7966  1.0303 -0.3683
  670SOL    HW3 2726   3.152   3.304   1.225  0.3618  0.2997 -1.2462
  670SOL    MW4 2727   3.143   3.218   1.236 -0.4106  0.4444 -0.7162
  671SOL     OW 2728   3.156   3.490   1.180 -0.5201 -0.0432 -0.1110
  671SOL    HW2 2729   3.074   3.539   1.190  0.4923  1.5757  0.4433
  671SOL    HW3 2730   3.219   3.537   1.234  0.2608 -2.5503  1.2429
  671SOL    MW4 2731   3.154   3.502   1.188 -0.2837 -0.1605  0.1408
  672SOL     OW 2732   3.576   3.486   1.167  0.1420  0.1433  0.2506
  672SOL    HW2 2733   3.503   3.523   1.217 -0.4261  0.5099 -0.8173
  672SOL    HW3 2734   3.589   3.399   1.203  0.2292  0.6732  1.5260
  672SOL    MW4 2735   3.568   3.480   1.178  0.0782  0.2618  0.2780
  673SOL     OW 2736   3.423   3.853   1.181  0.0552  0.0057  0.0193
  673SOL    HW2 2737   3.345   3.906   1.197  0.3675  0.5966 -0.3835
  673SOL    HW3 2738   3.496   3.911   1.201  0.3965 -0.8061  1.1933
  673SOL    MW4 2739   3.422   3.868   1.185  0.1414 -0.0234  0.1212
  674SOL     OW 2740   3.197   4.008   1.227  0.5575 -0.2665 -0.3841
  674SOL    HW2 2741   3.199   4.026   1.321  0.5765 -1.3379 -0.1725
  674SOL    HW3 2742   3.166   4.089   1.187 -0.8976 -0.2911  0.6769
  674SOL    MW4 2743   3.193   4.021   1.234  0.3679 -0.4110 -0.2161
  675SOL     OW 2744   2.719   4.293   1.078  0.5434  0.4913  0.3743
  675SOL    HW2 2745   2.632   4.315   1.110  0.5161  1.7475 -0.5022
  675SOL    HW3 2746   2.712   4.302   0.983  1.5610  0.3266  0.2759
  675SOL    MW4 2747   2.706   4.297   1.069  0.6742  0.6351  0.2457
  676SOL     OW 2748   3.372   4.421   1.179  0.2614  0.1674  0.3825
  676SOL    HW2 2749   3.456   4.382   1.153  0.1974  0.4957 -0.3099
  676SOL    HW3 2750   3.372   4.507   1.138 -0.9726 -0.3244 -0.6604
  676SOL    MW4 2751   3.383   4.427   1.170  0.0904  0.1459  0.1535
  677SOL     OW 2752   3.545   2.754   0.837 -0.6602  0.3215  0.0353
  677SOL    HW2 2753   3.550   2.661   0.813 -0.9868  0.5923 -1.1292
  677SOL    HW3 2754   3.560   2.756   0.931 -0.4671 -0.8999  0.0331
  677SOL    MW4 2755   3.547   2.742   0.846 -0.6778  0.1960 -0.1186
  678SOL     OW 2756   2.299   2.105   0.446  0.2416 -0.2722  0.5376
  678SOL    HW2 2757   2.379   2.108   0.499 -0.0462 -1.5424  1.0700
  678SOL    HW3 2758   2.330   2.110   0.355  0.9086 -0.5703  0.7452
  678SOL    MW4 2759   2.314   2.106   0.441  0.2916 -0.4790  0.6353
  679SOL     OW 2760   3.481   3.701   0.709  0.0788  0.3065  0.3513
  679SOL    HW2 2761   3.464   3.743   0.793 -1.4415  1.5632 -0.5696
  679SOL    HW3 2762   3.398   3.660   0.686  0.6524 -0.5122 -0.2805
  679SOL    MW4 2763   3.468   3.701   0.717 -0.0460  0.3643  0.1464
  680SOL     OW 2764   3.800   0.532   1.238  0.8062  0.0397 -0.0678
  680SOL    HW2 2765   3.866   0.477   1.195  0.4603 -0.3612 -0.0913
  680SOL    HW3 2766   3.717   0.495   1.209  0.5699  0.8965 -0.4891
  680SOL    MW4 2767   3.798   0.520   1.228  0.7293  0.0998 -0.1265
  681SOL     OW 2768   4.064   0.916   1.256  0.1513  0.3230 -0.3715
  681SOL    HW2 2769   4.139   0.864   1.227 -0.1230 -0.3655  0.1323
  681SOL    HW3 2770   4.055   0.895   1.349 -0.7211  0.3351 -0.4489
  681SOL    MW4 2771   4.073   0.906   1.264  0.0000  0.2337 -0.3152
  682SOL     OW 2772   3.571   1.672   1.189  0.0728 -0.1730 -0.2389
  682SOL    HW2 2773   3.649   1.622   1.167 -0.0083 -0.0867 -0.7270
  682SOL    HW3 2774   3.578   1.753   1.138  0.1899  0.3036  0.5263
  682SOL    MW4 2775   3.582   1.676   1.179  0.0772 -0.0988 -0.2023
  683SOL     OW 2776   3.280   0.892   0.461 -0.6161 -0.4755  0.0887
  683SOL    HW2 2777   3.246   0.897   0.551  0.8237  0.7308  0.5890
  683SOL    HW3 2778   3.307   0.981   0.440  0.8037 -1.0945 -0.8419
  683SOL    MW4 2779   3.279   0.904   0.470 -0.2387 -0.3980  0.0319
  684SOL     OW 2780   3.825   1.529   1.114 -0.2561  0.1924  0.0657
  684SOL    HW2 2781   3.905   1.553   1.160  0.2694  0.4912 -1.0032
  684SOL    HW3 2782   3.809   1.438   1.139  0.7068 -0.0390 -0.1391
  684SOL    MW4 2783   3.833   1.520   1.124 -0.0596  0.2013 -0.1023
  685SOL     OW 2784   0.339   2.180   0.591  0.1158  0.1229 -0.1020
  685SOL    HW2 2785   0.383   2.257   0.556  2.2150 -1.3364 -0.7481
  685SOL    HW3 2786   0.289   2.212   0.666  0.3217  2.2314 -0.8411
  685SOL    MW4 2787   0.338   2.194   0.596  0.4199  0.2086 -0.2847
  686SOL     OW 2788   3.110   1.710   1.183  0.0981  0.1248  0.0627
  686SOL    HW2 2789   3.184   1.664   1.142 -0.9777 -0.2169 -1.5277
  686SOL    HW3 2790   3.118   1.689   1.276  1.1921 -1.0846 -0.2864
  686SOL    MW4 2791   3.121   1.701   1.190  0.1001 -0.0799 -0.1932
  687SOL     OW 2792   4.204   0.883   0.440  0.1724  0.0651 -0.0129
  687SOL    HW2 2793   4.215   0.909   0.531  0.1015  1.0365 -0.2763
  687SOL    HW3 2794   4.116   0.847   0.435  0.4184 -0.6234  0.4416
  687SOL    MW4 2795   4.194   0.882   0.451  0.1955  0.1025  0.0123
  688SOL     OW 2796   4.331   3.813   0.796  0.0213 -0.1994 -0.4906
  688SOL    HW2 2797   4.321   3.907   0.785 -0.2119 -0.4087 -2.2277
  688SOL    HW3 2798   4.256   3.775   0.750  0.1741 -1.2363  0.0875
  688SOL    MW4 2799   4.320   3.820   0.788  0.0110 -0.3636 -0.6435
  689SOL     OW 2800   2.740   2.012   0.868 -0.2439 -0.2138 -0.3017
  689SOL    HW2 2801   2.760   2.103   0.845  0.5487 -0.3776 -0.3027
  689SOL    HW3 2802   2.807   1.961   0.822  0.4921 -0.6435  1.2154
  689SOL    MW4 2803   2.752   2.017   0.859 -0.0424 -0.2923 -0.1017
  690SOL     OW 2804   1.322   2.736   0.718 -0.2299 -0.3381 -0.0804
  690SOL    HW2 2805   1.277   2.682   0.782  1.9490 -1.2158  0.7308
  690SOL    HW3 2806   1.311   2.688   0.635  2.6018 -2.6276  0.8117
  690SOL    MW4 2807   1.314   2.722   0.715  0.4313 -0.7558  0.1444
  691SOL     OW 2808   2.180   0.310   0.399 -0.2105  0.2627  0.2139
  691SOL    HW2 2809   2.206   0.232   0.448  1.9037  0.6441 -0.2290
  691SOL    HW3 2810   2.119   0.278   0.332  1.5001 -1.1965 -0.6786
  691SOL    MW4 2811   2.175   0.296   0.397  0.2942  0.1205  0.0377
  692SOL     OW 2812   3.355   3.100   1.102 -0.3471 -0.3207  0.4554
  692SOL    HW2 2813   3.286   3.125   1.163  0.6150  0.5807  1.1900
  692SOL    HW3 2814   3.361   3.005   1.109 -1.1515 -0.3468  0.7789
  692SOL    MW4 2815   3.347   3.091   1.111 -0.3264 -0.2050  0.5950
  693SOL     OW 2816   4.162   0.744   0.861 -0.3140 -0.1622 -0.0951
  693SOL    HW2 2817   4.206   0.767   0.943 -0.7085  0.4710 -0.0574
  693SOL    HW3 2818   4.213   0.671   0.827  0.3788  0.1322  0.2772
  693SOL    MW4 2819   4.175   0.738   0.867 -0.2747 -0.0399 -0.0411
  694SOL     OW 2820   3.588   3.205   1.229 -0.1673  0.0975 -0.3126
  694SOL    HW2 2821   3.668   3.162   1.199  0.5132  1.1357 -0.0351
  694SOL    HW3 2822   3.518   3.160   1.183  0.5534 -1.0357 -0.3167
  694SOL    MW4 2823   3.589   3.194   1.219  0.0176  0.0851 -0.2766
  695SOL     OW 2824   4.025   3.242   0.816 -0.1366 -0.0425 -0.1721
  695SOL    HW2 2825   4.021   3.336   0.837  0.7088 -0.2517  1.0079
  695SOL    HW3 2826   3.937   3.210   0.833  0.0484  0.1800  1.3497
  695SOL    MW4 2827   4.013   3.250   0.821 -0.0005 -0.0405  0.1844
  696SOL     OW 2828   4.059   3.216   1.239  0.5188 -0.0383  0.1890
  696SOL    HW2 2829   4.036   3.307   1.221 -0.0267 -0.1709  0.2203
  696SOL    HW3 2830   4.047   3.207   1.334 -1.8331 -0.8134 -0.1407
  696SOL    MW4 2831   4.055   3.226   1.249  0.1364 -0.1581  0.1497
  697SOL     OW 2832   3.605   1.000   0.849  0.1557  0.1848  0.0192
  697SOL    HW2 2833   3.596   1.052   0.928 -1.5615 -1.7029  1.1272
  697SOL    HW3 2834   3.526   0.945   0.848  0.7581 -0.6849 -2.3393
  697SOL    MW4 2835   3.593   1.000   0.859  0.0088 -0.1790 -0.1458
  698SOL     OW 2836   3.619   4.038   1.212 -0.0025 -0.5549  0.0134
  698SOL    HW2 2837   3.710   4.015   1.190  0.6351  1.9967 -0.1503
  698SOL    HW3 2838   3.618   4.044   1.307  0.9443  2.9044 -0.1260
  698SOL    MW4 2839   3.631   4.036   1.221  0.2065  0.2379 -0.0266
  699SOL     OW 2840   3.613   4.306   1.111  0.4546  0.2717  0.5559
  699SOL    HW2 2841   3.605   4.211   1.119 -0.5028  0.2965  0.0554
  699SOL    HW3 2842   3.699   4.327   1.147  1.5525 -1.0183 -1.2272
  699SOL    MW4 2843   3.623   4.297   1.116  0.4730  0.1049  0.2546
  700SOL     OW 2844   3.859   4.399   1.193  0.1564  0.1267  0.3740
  700SOL    HW2 2845   3.924   4.338   1.158 -0.6548 -0.8103  0.4719
  700SOL    HW3 2846   3.880   4.406   1.286 -0.3629 -0.7968  0.5664
  700SOL    MW4 2847   3.870   4.392   1.201 -0.0193 -0.1187  0.4125
  701SOL     OW 2848   3.117   4.232   0.904 -0.1016 -0.0279 -0.2597
  701SOL    HW2 2849   3.119   4.139   0.880  0.5777 -0.0281 -0.2261
  701SOL    HW3 2850   3.197   4.268   0.866 -0.9675  0.8067 -1.3084
  701SOL    MW4 2851   3.128   4.225   0.896 -0.1264  0.0820 -0.3936
  702SOL     OW 2852   3.868   0.142   1.217 -0.1532  0.1357  0.2682
  702SOL    HW2 2853   3.901   0.107   1.300  0.7224 -1.0863 -0.5850
  702SOL    HW3 2854   3.773   0.137   1.225 -0.2063  3.1743  2.5320
  702SOL    MW4 2855   3.860   0.137   1.229 -0.0446  0.3754  0.4543
  703SOL     OW 2856   2.060   3.439   0.603  0.3332 -0.0080 -0.4594
  703SOL    HW2 2857   2.130   3.376   0.621 -0.2395 -0.0293  1.7741
  703SOL    HW3 2858   2.049   3.487   0.685  0.3991  2.6744 -1.9486
  703SOL    MW4 2859   2.068   3.437   0.616  0.2663  0.3433 -0.3612
  704SOL     OW 2860   1.995   0.703   0.398 -0.1231 -0.2624  0.1114
  704SOL    HW2 2861   2.086   0.712   0.370  0.1759 -2.4787  0.3165
  704SOL    HW3 2862   1.995   0.629   0.458 -1.5344  1.6712  2.5887
  704SOL    MW4 2863   2.007   0.694   0.402 -0.2701 -0.2997  0.4653
  705SOL     OW 2864   1.976   2.501   0.542 -0.2510  0.2901  0.6959
  705SOL    HW2 2865   1.904   2.450   0.504  0.3707  0.2595 -0.4360
  705SOL    HW3 2866   2.047   2.438   0.551  0.1790  0.7228  0.2799
  705SOL    MW4 2867   1.976   2.486   0.538 -0.1122  0.3433  0.4916
  706SOL     OW 2868   3.797   1.258   1.207 -0.1502 -0.3596 -0.3083
  706SOL    HW2 2869   3.813   1.268   1.301  0.6055 -0.5486 -0.4109
  706SOL    HW3 2870   3.881   1.229   1.172 -0.2661  0.2855 -1.1343
  706SOL    MW4 2871   3.810   1.256   1.215 -0.0658 -0.2996 -0.4307
  707SOL     OW 2872   2.266   0.066   0.500  0.5238  0.2854  0.1811
  707SOL    HW2 2873   2.205  -0.006   0.483  1.1363 -0.3130  0.4740
  707SOL    HW3 2874   2.262   0.079   0.595  0.6719  0.4011  0.1717
  707SOL    MW4 2875   2.257   0.058   0.510  0.6242  0.2217  0.2185
  708SOL     OW 2876   0.230   1.494   0.863  0.1199  0.1155  0.1391
  708SOL    HW2 2877   0.296   1.449   0.809  0.8334 -0.3389  1.3718
  708SOL    HW3 2878   0.220   1.580   0.821  3.3380  1.1548  1.3022
  708SOL    MW4 2879   0.237   1.500   0.850  0.6386  0.1926  0.4551
  709SOL     OW 2880   4.404   2.418   0.439 -0.3376  0.3174  0.1938
  709SOL    HW2 2881   4.398   2.323   0.435  1.1480  0.1332  1.8718
  709SOL    HW3 2882   4.492   2.438   0.405 -0.6424  1.0988 -0.1646
  709SOL    MW4 2883   4.415   2.408   0.434 -0.1817  0.3965  0.3679
  710SOL     OW 2884   4.052   1.656   1.214 -0.7809  0.2848 -0.1670
  710SOL    HW2 2885   4.033   1.666   1.307  1.8347 -0.9101  0.5445
  710SOL    HW3 2886   4.055   1.746   1.180  0.9199  0.8783  1.4856
  710SOL    MW4 2887   4.050   1.669   1.222 -0.2117  0.2053  0.1450
  711SOL     OW 2888   4.054   1.911   1.161 -0.0050 -0.1460  0.5153
  711SOL    HW2 2889   3.979   1.951   1.204 -0.2181 -1.0503  1.0008
  711SOL    HW3 2890   4.128   1.967   1.184 -0.1549 -0.4869  1.8771
  711SOL    MW4 2891   4.054   1.924   1.170 -0.0534 -0.3103  0.7591
  712SOL     OW 2892   4.277   2.063   1.251  0.7822 -0.4287 -0.1027
  712SOL    HW2 2893   4.289   2.149   1.212  0.8514 -0.5359 -0.3167
  712SOL    HW3 2894   4.347   2.010   1.214 -0.2055 -0.9964 -1.1777
  712SOL    MW4 2895   4.288   2.067   1.241  0.6614 -0.5178 -0.2728
  713SOL     OW 2896   0.842   4.645   0.729  0.0912 -0.0300  0.1422
  713SOL    HW2 2897   0.910   4.687   0.782 -0.7121  0.8299  0.4991
  713SOL    HW3 2898   0.849   4.689   0.644  0.0649 -0.0331  0.1389
  713SOL    MW4 2899   0.852   4.656   0.725 -0.0182  0.0834  0.1889
  714SOL     OW 2900   3.543   3.218   0.528 -0.2840 -0.1330  0.3929
  714SOL    HW2 2901   3.537   3.129   0.495  1.4420 -0.1334  0.0067
  714SOL    HW3 2902   3.559   3.208   0.622 -1.4814 -0.2018  0.5911
  714SOL    MW4 2903   3.544   3.205   0.536 -0.2143 -0.1421  0.3681
  715SOL     OW 2904   0.096   0.187   0.786 -0.1322  0.0970 -0.3043
  715SOL    HW2 2905   0.009   0.155   0.810  0.0164 -0.3759 -0.3866
  715SOL    HW3 2906   0.090   0.282   0.794  0.3342 -0.0881  3.0334
  715SOL    MW4 2907   0.084   0.195   0.790 -0.0510  0.0102  0.1252
  716SOL     OW 2908   4.270   2.842   1.255  0.4625  0.1993  0.6304
  716SOL    HW2 2909   4.195   2.797   1.218  1.1380  0.3002 -0.8782
  716SOL    HW3 2910   4.255   2.934   1.235 -0.4692  0.5936  2.9276
  716SOL    MW4 2911   4.258   2.848   1.248  0.4287  0.2646  0.7344
  717SOL     OW 2912   2.475   3.268   0.920  0.2915 -0.1991  0.1144
  717SOL    HW2 2913   2.555   3.319   0.906  1.5307 -1.7057  1.5625
  717SOL    HW3 2914   2.473   3.251   1.014 -1.2942 -0.8961 -0.0257
  717SOL    MW4 2915   2.486   3.272   0.931  0.2458 -0.4902  0.2871
  718SOL     OW 2916   3.828   3.092   1.136  0.2284  0.4205 -0.7225
  718SOL    HW2 2917   3.904   3.146   1.155 -1.3688  1.3903  3.4297
  718SOL    HW3 2918   3.846   3.008   1.178 -0.1860 -0.0084 -1.3827
  718SOL    MW4 2919   3.840   3.088   1.144 -0.0370  0.4916 -0.2618
  719SOL     OW 2920   3.847   2.407   0.872  0.1563 -0.0034  0.0038
  719SOL    HW2 2921   3.923   2.365   0.833  1.3815  0.6837  1.6357
  719SOL    HW3 2922   3.868   2.501   0.871 -0.2252  0.1100  1.3766
  719SOL    MW4 2923   3.860   2.414   0.866  0.2675  0.1025  0.4002
  720SOL     OW 2924   0.252   3.116   0.865 -0.1846 -0.0858 -0.5091
  720SOL    HW2 2925   0.236   3.110   0.959  0.2419  1.3305 -0.3347
  720SOL    HW3 2926   0.191   3.053   0.826 -0.0045 -1.0626  0.7398
  720SOL    MW4 2927   0.242   3.107   0.873 -0.1045 -0.0279 -0.3213
  721SOL     OW 2928   1.927   4.476   0.614 -0.1429  0.3452 -0.0460
  721SOL    HW2 2929   1.955   4.386   0.631  2.7330  1.1300 -0.4560
  721SOL    HW3 2930   1.938   4.521   0.697 -1.1554  0.4529  0.0401
  721SOL    MW4 2931   1.932   4.470   0.627  0.1029  0.4630 -0.0888
  722SOL     OW 2932   4.032   2.849   0.425  0.0908  0.1545 -0.2932
  722SOL    HW2 2933   4.050   2.802   0.506 -1.0608 -0.2273 -0.2453
  722SOL    HW3 2934   4.050   2.941   0.447  0.5028 -0.0330  0.1721
  722SOL    MW4 2935   4.036   2.855   0.439 -0.0062  0.0796 -0.2255
  723SOL     OW 2936   2.445   3.184   1.189  0.1124 -0.0068 -0.0414
  723SOL    HW2 2937   2.442   3.088   1.190  0.0047 -0.0170 -0.8794
  723SOL    HW3 2938   2.353   3.210   1.194  0.1897  0.0766  1.1858
  723SOL    MW4 2939   2.432   3.174   1.190  0.1085  0.0029  0.0099
  724SOL     OW 2940   0.190   4.198   0.525 -0.0383 -0.0464 -0.4559
  724SOL    HW2 2941   0.170   4.200   0.619 -0.1346 -0.5368 -0.4669
  724SOL    HW3 2942   0.177   4.288   0.496 -1.4812 -0.1975 -0.3044
  724SOL    MW4 2943   0.186   4.210   0.534 -0.2414 -0.1311 -0.4373
  725SOL     OW 2944   0.232   4.637   1.586  0.1756 -0.2374 -0.1015
  725SOL    HW2 2945   0.310   4.678   1.549 -0.2266  1.4203  0.8383
  725SOL    HW3 2946   0.159   4.689   1.553 -0.4706 -1.1614 -0.1569
  725SOL    MW4 2947   0.233   4.649   1.577  0.0373 -0.1402  0.0153
  726SOL     OW 2948   0.008   0.137   1.490 -0.0406 -0.0812 -0.5069
  726SOL    HW2 2949  -0.068   0.085   1.516  0.0642 -0.0418 -0.1085
  726SOL    HW3 2950   0.010   0.132   1.395 -1.7465  1.6075 -0.6645
  726SOL    MW4 2951  -0.002   0.130   1.481 -0.2522  0.1468 -0.4750
  727SOL     OW 2952   4.483   0.405   1.571 -0.1398 -0.3820 -0.5337
  727SOL    HW2 2953   4.500   0.410   1.665  1.6645  1.2504 -0.9178
  727SOL    HW3 2954   4.490   0.311   1.550 -1.6763 -0.8917  1.1263
  727SOL    MW4 2955   4.486   0.393   1.581 -0.1044 -0.2338 -0.3654
  728SOL     OW 2956   0.223   0.540   1.480  0.4442  0.3069  0.0647
  728SOL    HW2 2957   0.141   0.501   1.509  1.9341 -1.6460  1.8319
  728SOL    HW3 2958   0.221   0.533   1.385 -1.0374 -0.5402  0.1408
  728SOL    MW4 2959   0.212   0.534   1.471  0.4453 -0.0625  0.3080
  729SOL     OW 2960   0.239   0.789   1.604 -0.4038 -0.0382 -0.0609
  729SOL    HW2 2961   0.311   0.822   1.551  0.5121  0.3742  1.3917
  729SOL    HW3 2962   0.228   0.698   1.577 -0.9573  0.5846 -1.9882
  729SOL    MW4 2963   0.247   0.782   1.594 -0.3560  0.0984 -0.1235
  730SOL     OW 2964   0.008   0.910   1.455  0.3990  0.2032 -0.0470
  730SOL    HW2 2965   0.026   1.000   1.480 -1.3777  0.4399  0.4206
  730SOL    HW3 2966   0.052   0.857   1.522  1.1284  0.7145 -0.1183
  730SOL    MW4 2967   0.016   0.915   1.467  0.2608  0.3018  0.0052
  731SOL     OW 2968   0.000   1.166   1.580 -0.0562 -0.0878  0.1483
  731SOL    HW2 2969   0.022   1.146   1.671 -0.7034 -1.7188 -0.0377
  731SOL    HW3 2970   0.077   1.212   1.547  0.3336  0.1968  1.4225
  731SOL    MW4 2971   0.013   1.169   1.588 -0.0901 -0.2654  0.2919
  732SOL     OW 2972   0.212   1.307   1.479 -0.3379  0.1903  0.2930
  732SOL    HW2 2973   0.238   1.394   1.510  1.6356 -0.1585 -0.3156
  732SOL    HW3 2974   0.207   1.316   1.384  0.4469 -0.4951  0.1832
  732SOL    MW4 2975   0.215   1.320   1.471  0.0260  0.0540  0.1981
  733SOL     OW 2976   0.216   1.557   1.591 -0.0942 -0.4941  0.1342
  733SOL    HW2 2977   0.228   1.548   1.686  1.1379 -0.6834 -0.0193
  733SOL    HW3 2978   0.123   1.574   1.580  0.0322  1.2154  1.5051
  733SOL    MW4 2979   0.206   1.558   1.602  0.0851 -0.2936  0.2949
  734SOL     OW 2980   4.462   1.651   1.500  0.0739 -0.0353  0.2743
  734SOL    HW2 2981   4.465   1.739   1.538 -0.1406 -0.5136  1.4158
  734SOL    HW3 2982   4.445   1.666   1.407  0.2013  1.1381  0.4284
  734SOL    MW4 2983   4.460   1.665   1.493  0.0625  0.0564  0.4451
  735SOL     OW 2984   0.020   1.918   1.607 -0.1216 -0.5054  0.1033
  735SOL    HW2 2985   0.029   1.922   1.702 -0.6874 -1.2669  0.1937
  735SOL    HW3 2986  -0.055   1.975   1.587 -1.7757 -2.5247  0.3977
  735SOL    MW4 2987   0.011   1.926   1.617 -0.4144 -0.8724  0.1540
  736SOL     OW 2988   0.226   2.037   1.469  0.5662  0.2108 -0.4081
  736SOL    HW2 2989   0.171   1.972   1.512  0.4115  0.9038  0.4535
  736SOL    HW3 2990   0.201   2.120   1.509  1.4334  0.6743 -0.8150
  736SOL    MW4 2991   0.216   2.039   1.480  0.6602  0.3633 -0.3482
  737SOL     OW 2992   0.184   2.292   1.565 -0.0602  0.7049 -0.5515
  737SOL    HW2 2993   0.107   2.343   1.539 -1.3673 -0.8220  0.2692
  737SOL    HW3 2994   0.192   2.306   1.659  0.4719  0.5626 -0.5713
  737SOL    MW4 2995   0.175   2.301   1.574 -0.1624  0.4847 -0.4458
  738SOL     OW 2996   4.450   2.436   1.466 -0.4906 -0.2243  0.4723
  738SOL    HW2 2997   4.375   2.395   1.510 -1.0812  0.2101 -0.1403
  738SOL    HW3 2998   4.464   2.518   1.513 -2.1332  1.0121 -1.1526
  738SOL    MW4 2999   4.442   2.441   1.478 -0.7844 -0.0038  0.1770
  739SOL     OW 3000   4.477   2.672   1.610  0.0414 -0.0037  0.3592
  739SOL    HW2 3001   4.400   2.729   1.604 -0.5469 -0.8261  0.0677
  739SOL    HW3 3002   4.494   2.664   1.704 -0.1498  0.2749  0.4184
  739SOL    MW4 3003   4.469   2.679   1.622 -0.0614 -0.0753  0.3284
  740SOL     OW 3004   0.191   2.836   1.512  0.1647  0.0041  0.6182
  740SOL    HW2 3005   0.271   2.784   1.520  0.4287  0.2498 -0.3281
  740SOL    HW3 3006   0.124   2.783   1.554  0.5537 -0.8390  0.2023
  740SOL    MW4 3007   0.193   2.822   1.519  0.2509 -0.0749  0.4385
  741SOL     OW 3008   0.246   3.119   1.579 -0.4587 -0.2404 -0.0560
  741SOL    HW2 3009   0.157   3.147   1.558 -0.6487 -0.1745  0.8002
  741SOL    HW3 3010   0.246   3.025   1.562 -0.8237 -0.3173  0.3482
  741SOL    MW4 3011   0.234   3.110   1.574 -0.5319 -0.2415  0.1105
  742SOL     OW 3012   4.472   3.230   1.519  0.1488  0.0325 -0.0441
  742SOL    HW2 3013   4.478   3.319   1.555 -0.7060 -0.3392  1.0846
  742SOL    HW3 3014   4.479   3.241   1.425  2.5184  1.0546  0.2123
  742SOL    MW4 3015   4.473   3.243   1.512  0.3490  0.1183  0.1388
  743SOL     OW 3016   4.484   3.501   1.587 -0.1065 -0.0609  0.1216
  743SOL    HW2 3017   4.460   3.516   1.679 -0.4577  0.0915  0.0061
  743SOL    HW3 3018   4.409   3.535   1.537  0.3101  0.3285 -0.2384
  743SOL    MW4 3019   4.471   3.508   1.593 -0.0979  0.0107  0.0589
  744SOL     OW 3020   0.218   3.602   1.467 -0.3304  0.1428 -0.1753
  744SOL    HW2 3021   0.220   3.698   1.478 -2.4989  0.3534 -1.4167
  744SOL    HW3 3022   0.139   3.575   1.513 -0.1259 -0.9917 -0.4947
  744SOL    MW4 3023   0.208   3.611   1.475 -0.5895  0.0207 -0.3812
  745SOL     OW 3024   0.230   3.859   1.574  0.0824  0.0722 -0.2311
  745SOL    HW2 3025   0.227   3.843   1.668 -0.1197  0.4278 -0.1736
  745SOL    HW3 3026   0.318   3.894   1.558 -0.3027  1.1965  0.0288
  745SOL    MW4 3027   0.241   3.862   1.584  0.0049  0.2675 -0.1891
  746SOL     OW 3028   0.011   3.995   1.473 -0.1239  0.0083 -0.4023
  746SOL    HW2 3029   0.026   4.088   1.491 -0.7604 -0.2709  1.7689
  746SOL    HW3 3030   0.077   3.950   1.525 -1.1028 -0.8047  0.1691
  746SOL    MW4 3031   0.021   4.001   1.482 -0.3370 -0.1364 -0.0404
  747SOL     OW 3032   0.025   4.252   1.580  0.7094  0.5872  0.2100
  747SOL    HW2 3033   0.010   4.259   1.674  0.3870 -0.9276  0.2859
  747SOL    HW3 3034  -0.055   4.287   1.540 -0.9315 -2.6049  0.5578
  747SOL    MW4 3035   0.012   4.258   1.587  0.4506 -0.0339  0.2658
  748SOL     OW 3036   0.254   4.371   1.476  0.2207  0.0580 -0.0900
  748SOL    HW2 3037   0.169   4.339   1.507 -0.0480  1.0191  0.2006
  748SOL    HW3 3038   0.253   4.465   1.497  1.0625  0.2173 -0.7326
  748SOL    MW4 3039   0.243   4.379   1.482  0.2963  0.2055 -0.1365
  749SOL     OW 3040   0.671   4.646   1.599  0.7119 -0.0835  0.5331
  749SOL    HW2 3041   0.741   4.699   1.561  1.5827 -0.5346  1.4883
  749SOL    HW3 3042   0.590   4.688   1.570  1.3878  1.3381  0.6986
  749SOL    MW4 3043   0.669   4.658   1.590  0.9159  0.0443  0.6809
  750SOL     OW 3044   0.446   0.131   1.490 -0.4928  0.4755  0.3160
  750SOL    HW2 3045   0.433   0.222   1.517  0.0352  1.0535 -1.3296
  750SOL    HW3 3046   0.429   0.131   1.396 -0.1450 -1.0559  0.2406
  750SOL    MW4 3047   0.442   0.143   1.482 -0.3772  0.3497  0.0889
  751SOL     OW 3048   0.437   0.383   1.571 -0.4919  0.1814 -0.2086
  751SOL    HW2 3049   0.522   0.427   1.564 -0.9839  0.9628 -1.4542
  751SOL    HW3 3050   0.373   0.449   1.543 -1.4896 -0.5073  0.3765
  751SOL    MW4 3051   0.439   0.398   1.567 -0.6885  0.1936 -0.2958
  752SOL     OW 3052   0.695   0.509   1.543  0.1562  0.4327  0.0924
  752SOL    HW2 3053   0.675   0.600   1.564  0.9305  0.2045  1.9446
  752SOL    HW3 3054   0.696   0.506   1.448 -3.9069  1.4634 -0.0534
  752SOL    MW4 3055   0.693   0.521   1.534 -0.2776  0.5386  0.3176
  753SOL     OW 3056   0.654   0.775   1.603 -0.2432 -0.6582 -0.2474
  753SOL    HW2 3057   0.652   0.793   1.697 -0.7193 -0.3983 -0.3052
  753SOL    HW3 3058   0.733   0.821   1.572 -0.2481 -0.4961 -0.0239
  753SOL    MW4 3059   0.664   0.784   1.612 -0.3067 -0.6025 -0.2254
  754SOL     OW 3060   0.447   0.884   1.458  0.0076  0.2459 -0.2143
  754SOL    HW2 3061   0.432   0.972   1.492  1.5722  1.2059 -1.9061
  754SOL    HW3 3062   0.525   0.853   1.503  0.1413  0.1911 -0.4833
  754SOL    MW4 3063   0.455   0.891   1.468  0.2317  0.3653 -0.4730
  755SOL     OW 3064   0.410   1.132   1.537  0.5472  0.4429  0.2793
  755SOL    HW2 3065   0.483   1.187   1.509  0.7554  1.2461  2.3047
  755SOL    HW3 3066   0.332   1.182   1.512  0.6906  0.0146 -1.0485
  755SOL    MW4 3067   0.409   1.146   1.530  0.5936  0.4923  0.3712
  756SOL     OW 3068   0.662   1.270   1.504  0.5933  0.2018 -0.5465
  756SOL    HW2 3069   0.676   1.360   1.535  2.7278 -0.2609 -0.0445
  756SOL    HW3 3070   0.655   1.278   1.409 -0.2385  1.0056 -0.4240
  756SOL    MW4 3071   0.663   1.283   1.495  0.7651  0.2466 -0.4642
  757SOL     OW 3072   0.685   1.548   1.589  0.5242  0.8716 -0.0537
  757SOL    HW2 3073   0.757   1.600   1.554 -0.1463 -0.4159 -3.5286
  757SOL    HW3 3074   0.606   1.597   1.565  0.0929  0.7486  1.0714
  757SOL    MW4 3075   0.684   1.562   1.581  0.3788  0.6856 -0.3637
  758SOL     OW 3076   0.449   1.675   1.502 -0.0171 -0.0419 -0.0018
  758SOL    HW2 3077   0.447   1.770   1.518  0.2505  0.0754 -0.6440
  758SOL    HW3 3078   0.370   1.642   1.544  0.0588  0.4206  0.5197
  758SOL    MW4 3079   0.439   1.683   1.510  0.0282  0.0347 -0.0179
  759SOL     OW 3080   0.462   1.949   1.556 -0.4880 -0.0009 -0.1569
  759SOL    HW2 3081   0.478   1.956   1.650  0.6723  0.5068 -0.3874
  759SOL    HW3 3082   0.375   1.987   1.545 -1.0843 -1.0417  0.8461
  759SOL    MW4 3083   0.452   1.955   1.567 -0.4136 -0.0712 -0.0550
  760SOL     OW 3084   0.685   2.083   1.469 -0.0628 -0.4310 -0.1083
  760SOL    HW2 3085   0.758   2.032   1.503 -0.8593 -0.5587  1.4645
  760SOL    HW3 3086   0.607   2.031   1.491 -0.7298  0.4887 -0.2712
  760SOL    MW4 3087   0.684   2.069   1.477 -0.2558 -0.3264  0.0777
  761SOL     OW 3088   0.621   2.331   1.593  0.3354  0.3211 -0.3350
  761SOL    HW2 3089   0.544   2.368   1.550  1.0037  1.4901 -0.5226
  761SOL    HW3 3090   0.640   2.251   1.543 -0.0100  0.6914 -1.0611
  761SOL    MW4 3091   0.613   2.325   1.580  0.3781  0.5243 -0.4555
  762SOL     OW 3092   0.410   2.417   1.455 -0.8362  0.4122 -0.2251
  762SOL    HW2 3093   0.413   2.507   1.488 -1.3622  0.6641 -0.8415
  762SOL    HW3 3094   0.333   2.379   1.498  0.1652 -0.1653  1.0704
  762SOL    MW4 3095   0.400   2.424   1.465 -0.7735  0.3688 -0.1357
  763SOL     OW 3096   0.402   2.668   1.564  0.1828  0.1977 -0.2395
  763SOL    HW2 3097   0.400   2.677   1.659 -0.3839 -1.0487 -0.1174
  763SOL    HW3 3098   0.463   2.735   1.534 -0.9845  1.7878  0.8564
  763SOL    MW4 3099   0.410   2.678   1.573 -0.0460  0.2429 -0.0789
  764SOL     OW 3100   0.620   2.808   1.478 -0.3770  0.4926 -0.2025
  764SOL    HW2 3101   0.633   2.902   1.489  1.1592  0.1571  1.1124
  764SOL    HW3 3102   0.654   2.789   1.390 -1.7660  1.3335 -0.9351
  764SOL    MW4 3103   0.626   2.818   1.468 -0.3576  0.5591 -0.1256
  765SOL     OW 3104   0.666   3.069   1.549  0.1752 -0.3205  0.3123
  765SOL    HW2 3105   0.749   3.104   1.515 -0.6385  0.6980 -0.6432
  765SOL    HW3 3106   0.599   3.128   1.515 -1.0228 -1.6064  0.4072
  765SOL    MW4 3107   0.668   3.081   1.540 -0.0902 -0.3557  0.1986
  766SOL     OW 3108   0.481   3.256   1.490  0.1712 -0.0840 -0.2923
  766SOL    HW2 3109   0.395   3.221   1.512  0.6541 -0.8174  0.4545
  766SOL    HW3 3110   0.493   3.231   1.398 -0.4528  0.1044 -0.4261
  766SOL    MW4 3111   0.471   3.248   1.480  0.1526 -0.1557 -0.2115
  767SOL     OW 3112   0.434   3.488   1.620 -0.0124 -0.2411  0.2285
  767SOL    HW2 3113   0.462   3.411   1.571  0.9786 -0.8284  1.6834
  767SOL    HW3 3114   0.363   3.525   1.568  0.7766 -1.0471 -1.4605
  767SOL    MW4 3115   0.428   3.483   1.607  0.2224 -0.4249  0.1976
  768SOL     OW 3116   0.662   3.582   1.486 -0.4656 -0.1206 -0.1355
  768SOL    HW2 3117   0.726   3.519   1.518  0.3101  0.9463  0.4505
  768SOL    HW3 3118   0.585   3.567   1.542  0.6798  1.3285  1.8834
  768SOL    MW4 3119   0.660   3.572   1.498 -0.2122  0.2115  0.2083
  769SOL     OW 3120   0.700   3.829   1.634  0.0413 -0.4711 -0.1412
  769SOL    HW2 3121   0.769   3.876   1.588  0.0968  1.1605  1.5446
  769SOL    HW3 3122   0.687   3.748   1.584  1.2522  0.4833 -2.0131
  769SOL    MW4 3123   0.707   3.824   1.622  0.2084 -0.1299 -0.1658
  770SOL     OW 3124   0.473   3.981   1.494 -0.3748  0.6275  0.0667
  770SOL    HW2 3125   0.555   3.940   1.522 -1.0106  0.2420  1.4028
  770SOL    HW3 3126   0.478   3.982   1.399  1.0486  0.3225  0.1297
  770SOL    MW4 3127   0.484   3.976   1.485 -0.2709  0.5364  0.2512
  771SOL     OW 3128   0.481   4.235   1.595 -0.1834 -0.1599  0.1214
  771SOL    HW2 3129   0.465   4.144   1.572  0.2188 -0.2346  0.1389
  771SOL    HW3 3130   0.404   4.282   1.562 -0.4678 -0.5267  0.2623
  771SOL    MW4 3131   0.469   4.229   1.588 -0.1679 -0.2184  0.1423
  772SOL     OW 3132   0.690   4.367   1.489 -0.2073 -0.3929 -0.5400
  772SOL    HW2 3133   0.683   4.456   1.524  1.2009 -0.1922 -0.7111
  772SOL    HW3 3134   0.625   4.316   1.537 -0.3363  0.5264  0.2595
  772SOL    MW4 3135   0.681   4.372   1.500 -0.0385 -0.2446 -0.4572
  773SOL     OW 3136   1.109   4.624   1.618 -0.2756  0.1146  0.3440
  773SOL    HW2 3137   1.119   4.617   1.713  0.6973 -0.3232  0.2185
  773SOL    HW3 3138   1.177   4.686   1.591 -1.3855  1.2428  0.0719
  773SOL    MW4 3139   1.119   4.631   1.627 -0.2937  0.2055  0.2916
  774SOL     OW 3140   0.919   0.098   1.514  0.1262 -0.0303 -0.5006
  774SOL    HW2 3141   0.909   0.175   1.570 -0.1867  0.5485 -1.3485
  774SOL    HW3 3142   0.986   0.045   1.558 -1.3442 -0.4287  1.3425
  774SOL    MW4 3143   0.927   0.101   1.527 -0.1090 -0.0065 -0.3694
  775SOL     OW 3144   0.904   0.358   1.630 -0.2487  0.2087  0.0132
  775SOL    HW2 3145   0.920   0.378   1.722 -0.5434 -0.0872  0.1309
  775SOL    HW3 3146   0.850   0.430   1.599  0.3390  0.6137 -0.0842
  775SOL    MW4 3147   0.899   0.370   1.638 -0.2100  0.2231  0.0159
  776SOL     OW 3148   1.101   0.510   1.516 -0.3504  0.1361 -0.4346
  776SOL    HW2 3149   1.096   0.592   1.565 -0.5913 -0.9049  1.3239
  776SOL    HW3 3150   1.029   0.457   1.551 -0.8247 -0.4487 -2.2700
  776SOL    MW4 3151   1.091   0.514   1.527 -0.4447 -0.0784 -0.4447
  777SOL     OW 3152   1.101   0.787   1.616  0.1130 -0.0398 -0.2539
  777SOL    HW2 3153   1.119   0.794   1.710 -1.0075 -0.3978 -0.0108
  777SOL    HW3 3154   1.178   0.827   1.575  1.8155 -2.2024  0.7421
  777SOL    MW4 3155   1.114   0.793   1.623  0.1897 -0.3724 -0.0906
  778SOL     OW 3156   0.868   0.908   1.484  0.0742  0.0684  0.1805
  778SOL    HW2 3157   0.941   0.856   1.517  0.9540  0.6705 -0.7819
  778SOL    HW3 3158   0.886   0.917   1.390 -1.6424 -0.4264 -0.2030
  778SOL    MW4 3159   0.880   0.902   1.476 -0.0362  0.0826  0.0029
  779SOL     OW 3160   0.886   1.148   1.607  0.2055 -0.1732 -0.1483
  779SOL    HW2 3161   0.886   1.060   1.569 -1.4530 -0.6274  0.8256
  779SOL    HW3 3162   0.804   1.187   1.577 -0.1445  0.1967  1.2544
  779SOL    MW4 3163   0.875   1.141   1.598 -0.0594 -0.1844  0.1652
  780SOL     OW 3164   1.091   1.288   1.478  0.3216 -0.3348  0.1254
  780SOL    HW2 3165   1.163   1.239   1.518  0.9131 -0.8519 -1.5576
  780SOL    HW3 3166   1.013   1.236   1.498  0.6755 -0.8455  0.1937
  780SOL    MW4 3167   1.090   1.274   1.486  0.4463 -0.4703 -0.0875
  781SOL     OW 3168   1.083   1.545   1.597 -0.2690 -0.1514  0.2974
  781SOL    HW2 3169   1.146   1.596   1.548 -0.6576  0.1625  0.1231
  781SOL    HW3 3170   1.076   1.462   1.550  0.5127 -0.4476  0.6944
  781SOL    MW4 3171   1.090   1.541   1.584 -0.2172 -0.1491  0.3269
  782SOL     OW 3172   0.880   1.693   1.472  0.1074  0.1589 -0.4078
  782SOL    HW2 3173   0.955   1.651   1.514 -0.2424  0.2536  0.3279
  782SOL    HW3 3174   0.901   1.692   1.379 -0.5913 -3.1155 -0.6201
  782SOL    MW4 3175   0.892   1.687   1.465 -0.0310 -0.2606 -0.3387
  783SOL     OW 3176   0.905   1.950   1.579  0.1180 -0.3456  0.2637
  783SOL    HW2 3177   0.983   1.973   1.528  0.1534 -0.2386  0.3666
  783SOL    HW3 3178   0.887   1.859   1.555  0.7968 -0.6554  0.9067
  783SOL    MW4 3179   0.913   1.941   1.569  0.2123 -0.3723  0.3620
  784SOL     OW 3180   1.137   2.064   1.475  0.3017  0.0094 -0.3701
  784SOL    HW2 3181   1.224   2.028   1.493  0.1830  0.2912  0.7857
  784SOL    HW3 3182   1.141   2.154   1.509 -1.2011 -0.7448  1.8719
  784SOL    MW4 3183   1.149   2.071   1.482  0.0879 -0.0529  0.0782
  785SOL     OW 3184   1.145   2.311   1.594  0.5023  0.0565  0.3626
  785SOL    HW2 3185   1.212   2.355   1.543  1.3851 -0.1392  1.3267
  785SOL    HW3 3186   1.068   2.368   1.588  0.7213  0.2240 -0.8345
  785SOL    MW4 3187   1.144   2.324   1.587  0.6477  0.0525  0.3319
  786SOL     OW 3188   0.870   2.446   1.519 -0.1206  0.3275 -0.4808
  786SOL    HW2 3189   0.865   2.538   1.545  0.8139  0.6228 -1.3432
  786SOL    HW3 3190   0.786   2.409   1.547 -0.2760  1.3091  0.3619
  786SOL    MW4 3191   0.858   2.453   1.526 -0.0178  0.4957 -0.4833
  787SOL     OW 3192   0.866   2.715   1.568  0.0214  0.1455  0.0962
  787SOL    HW2 3193   0.879   2.727   1.662 -0.9172 -0.8184  0.3611
  787SOL    HW3 3194   0.779   2.752   1.550  0.7488  1.5303 -0.6397
  787SOL    MW4 3195   0.856   2.721   1.578 -0.0064  0.2012  0.0340
  788SOL     OW 3196   1.129   2.773   1.511 -0.1588  0.5592  0.1019
  788SOL    HW2 3197   1.138   2.864   1.539 -0.2189  0.6164 -0.0645
  788SOL    HW3 3198   1.036   2.754   1.523  0.1170  0.0769  1.4980
  788SOL    MW4 3199   1.118   2.783   1.516 -0.1303  0.5033  0.2642
  789SOL     OW 3200   1.135   3.035   1.564  0.3533 -0.5556  0.1567
  789SOL    HW2 3201   1.132   3.054   1.658 -0.2066  1.4501 -0.2291
  789SOL    HW3 3202   1.204   3.092   1.530  1.1527 -1.9070 -0.5262
  789SOL    MW4 3203   1.144   3.045   1.572  0.3849 -0.4692  0.0156
  790SOL     OW 3204   0.906   3.169   1.472 -0.1917  0.3093  0.5312
  790SOL    HW2 3205   0.990   3.124   1.482 -0.1656  0.7144  2.2569
  790SOL    HW3 3206   0.905   3.196   1.381  1.6509  0.4813  0.5375
  790SOL    MW4 3207   0.917   3.166   1.462  0.0548  0.3853  0.7596
  791SOL     OW 3208   0.868   3.422   1.588  0.1213 -0.8459  0.3169
  791SOL    HW2 3209   0.934   3.476   1.546 -0.2348  0.2994  1.1960
  791SOL    HW3 3210   0.891   3.332   1.565  0.7066 -0.3198 -1.1804
  791SOL    MW4 3211   0.880   3.417   1.579  0.1516 -0.6254  0.2353
  792SOL     OW 3212   1.069   3.545   1.446  0.5398  0.2498 -0.0013
  792SOL    HW2 3213   1.148   3.511   1.488 -0.8015 -1.7782  0.9553
  792SOL    HW3 3214   1.095   3.561   1.355  2.0445 -0.3919  0.2938
  792SOL    MW4 3215   1.083   3.543   1.440  0.5615 -0.1025  0.1638
  793SOL     OW 3216   1.105   3.818   1.536 -0.1546 -0.1485  0.0437
  793SOL    HW2 3217   1.178   3.861   1.491  0.0156 -0.3740  0.1004
  793SOL    HW3 3218   1.090   3.738   1.484 -1.1972  0.5239 -0.7190
  793SOL    MW4 3219   1.112   3.813   1.523 -0.2698 -0.0896 -0.0495
  794SOL     OW 3220   0.871   3.958   1.471 -0.0338 -0.4024 -0.0966
  794SOL    HW2 3221   0.882   4.051   1.494  0.8900  0.0840 -2.4687
  794SOL    HW3 3222   0.955   3.918   1.492 -0.2650 -0.6203  0.4339
  794SOL    MW4 3223   0.883   3.965   1.477  0.0576 -0.3669 -0.3397
  795SOL     OW 3224   0.911   4.234   1.574 -0.1077  0.6441  0.0891
  795SOL    HW2 3225   0.901   4.231   1.669  0.3541  0.2761  0.1295
  795SOL    HW3 3226   0.833   4.281   1.543  0.2351  1.6648  0.7258
  795SOL    MW4 3227   0.899   4.240   1.582 -0.0016  0.7310  0.1783
  796SOL     OW 3228   1.104   4.376   1.435 -0.3535 -0.2274  0.6292
  796SOL    HW2 3229   1.042   4.316   1.477 -0.7497  0.2110  0.6674
  796SOL    HW3 3230   1.090   4.460   1.478  0.3861 -0.1651  0.7573
  796SOL    MW4 3231   1.094   4.379   1.446 -0.3080 -0.1612  0.6510
  797SOL     OW 3232   1.775   0.362   1.607 -0.2599 -0.1219 -0.7548
  797SOL    HW2 3233   1.774   0.271   1.575 -0.4080 -0.5223  0.3620
  797SOL    HW3 3234   1.848   0.403   1.561  0.3841 -1.0655 -0.5877
  797SOL    MW4 3235   1.784   0.355   1.597 -0.1945 -0.2992 -0.5853
  798SOL     OW 3236   1.347   0.071   1.516 -0.2503 -0.7450 -0.1719
  798SOL    HW2 3237   1.354   0.166   1.528  2.1869 -0.8870 -0.2580
  798SOL    HW3 3238   1.330   0.060   1.422 -1.7500 -0.3723  0.0369
  798SOL    MW4 3239   1.345   0.082   1.505 -0.1266 -0.7146 -0.1557
  799SOL     OW 3240   1.342   0.344   1.559  0.7953 -0.8544 -0.2701
  799SOL    HW2 3241   1.398   0.420   1.575 -0.2742 -0.0333 -0.3327
  799SOL    HW3 3242   1.255   0.381   1.544  0.4040 -2.0432 -1.0526
  799SOL    MW4 3243   1.338   0.359   1.559  0.6026 -0.9029 -0.3816
  800SOL     OW 3244   1.798   2.378   0.917 -0.2686  0.3097 -0.4250
  800SOL    HW2 3245   1.885   2.349   0.943 -0.1617  0.5211 -0.5447
  800SOL    HW3 3246   1.785   2.340   0.830  0.2231  1.3349 -0.9518
  800SOL    MW4 3247   1.808   2.369   0.909 -0.1897  0.4728 -0.5103
  801SOL     OW 3248   1.573   0.790   1.586  0.5232  0.2683  0.4168
  801SOL    HW2 3249   1.584   0.796   1.681 -1.2196 -1.1562  0.7301
  801SOL    HW3 3250   1.570   0.696   1.567  0.2772  0.5356 -0.9728
  801SOL    MW4 3251   1.574   0.778   1.596  0.2608  0.1156  0.2749
  802SOL     OW 3252   1.324   0.898   1.495 -0.2030 -0.1147  0.0243
  802SOL    HW2 3253   1.407   0.860   1.525 -0.5417 -0.8655  0.0106
  802SOL    HW3 3254   1.330   0.897   1.400 -1.1256 -2.2010 -0.0367
  802SOL    MW4 3255   1.336   0.893   1.486 -0.3694 -0.4891  0.0144
  803SOL     OW 3256   1.299   1.158   1.590  0.1736 -0.4256 -0.1956
  803SOL    HW2 3257   1.306   1.147   1.684  0.4060 -0.5488 -0.2266
  803SOL    HW3 3258   1.315   1.071   1.554  2.2758  0.0589 -0.4560
  803SOL    MW4 3259   1.302   1.145   1.597  0.4817 -0.3779 -0.2340
  804SOL     OW 3260   1.555   1.253   1.547 -0.3521  0.2728 -0.5598
  804SOL    HW2 3261   1.472   1.206   1.560 -0.5137  0.6761 -0.1273
  804SOL    HW3 3262   1.565   1.257   1.452 -1.0245  0.5485 -0.6273
  804SOL    MW4 3263   1.545   1.248   1.536 -0.4623  0.3624 -0.5118
  805SOL     OW 3264   1.517   1.537   1.593 -0.2582  0.3073 -0.1230
  805SOL    HW2 3265   1.529   1.554   1.687 -1.2791  0.6402 -0.0492
  805SOL    HW3 3266   1.531   1.443   1.584  2.7013  0.6869 -0.0898
  805SOL    MW4 3267   1.521   1.527   1.605 -0.0024  0.4013 -0.1090
  806SOL     OW 3268   1.298   1.663   1.451  0.4365 -0.3630 -0.2359
  806SOL    HW2 3269   1.313   1.663   1.357  0.7937 -0.3827 -0.1795
  806SOL    HW3 3270   1.364   1.603   1.486  1.8460  1.4273  0.2643
  806SOL    MW4 3271   1.309   1.655   1.443  0.6697 -0.1293 -0.1625
  807SOL     OW 3272   1.369   1.933   1.535  0.1939  0.6096  0.7062
  807SOL    HW2 3273   1.346   1.928   1.627  0.8211  0.3226  0.8509
  807SOL    HW3 3274   1.357   1.844   1.502  0.6495  0.5509  0.6826
  807SOL    MW4 3275   1.365   1.920   1.543  0.3366  0.5639  0.7222
  808SOL     OW 3276   1.605   2.086   1.450 -0.0707  0.0958  0.2838
  808SOL    HW2 3277   1.522   2.040   1.464 -1.0026  1.5767 -0.2037
  808SOL    HW3 3278   1.627   2.068   1.359  0.7164 -1.1963  0.7255
  808SOL    MW4 3279   1.597   2.078   1.440 -0.0898  0.1206  0.2778
  809SOL     OW 3280   1.580   2.352   1.533 -0.1976  0.3961 -0.1663
  809SOL    HW2 3281   1.654   2.394   1.490  0.2175  1.4448  1.5263
  809SOL    HW3 3282   1.591   2.259   1.513  2.5327  0.3245  1.4142
  809SOL    MW4 3283   1.591   2.345   1.525  0.2176  0.5250  0.2655
  810SOL     OW 3284   1.377   2.686   1.579  0.2633 -0.2794  0.4329
  810SOL    HW2 3285   1.299   2.728   1.543 -0.2448 -0.7400  0.9634
  810SOL    HW3 3286   1.451   2.730   1.538 -0.2072  2.4340  2.3772
  810SOL    MW4 3287   1.376   2.697   1.569  0.1342  0.0181  0.7594
  811SOL     OW 3288   1.333   2.441   1.446  0.0341 -0.2314 -0.3801
  811SOL    HW2 3289   1.416   2.396   1.458 -0.1962 -0.3433  0.9085
  811SOL    HW3 3290   1.345   2.526   1.489 -0.4405 -0.1636 -0.3787
  811SOL    MW4 3291   1.345   2.446   1.453 -0.0590 -0.2372 -0.2100
  812SOL     OW 3292   1.591   2.840   1.486  0.4673  0.4764  0.3376
  812SOL    HW2 3293   1.659   2.785   1.524 -1.1405 -1.2535  0.7852
  812SOL    HW3 3294   1.617   2.851   1.394  0.3619 -1.7967  0.0024
  812SOL    MW4 3295   1.603   2.834   1.479  0.2413 -0.0515  0.3524
  813SOL     OW 3296   1.567   3.100   1.546 -0.4358  0.5219 -0.3067
  813SOL    HW2 3297   1.645   3.138   1.506 -0.2859  0.2242 -0.2965
  813SOL    HW3 3298   1.584   3.006   1.547 -0.1375  0.5841  1.1066
  813SOL    MW4 3299   1.579   3.092   1.541 -0.3767  0.4907 -0.1189
  814SOL     OW 3300   1.325   3.201   1.457  0.3978 -0.3722 -0.0806
  814SOL    HW2 3301   1.318   3.288   1.494 -0.3175 -0.2869 -0.3971
  814SOL    HW3 3302   1.412   3.170   1.483  0.6413  0.4186  0.0548
  814SOL    MW4 3303   1.336   3.208   1.465  0.3356 -0.2568 -0.1044
  815SOL     OW 3304   1.312   3.437   1.572 -0.3866  0.1435  0.3476
  815SOL    HW2 3305   1.323   3.431   1.667  0.0444 -3.5236  0.1381
  815SOL    HW3 3306   1.385   3.492   1.544  0.3415  0.0649  1.9922
  815SOL    MW4 3307   1.323   3.444   1.581 -0.2338 -0.3507  0.5369
  816SOL     OW 3308   1.559   3.575   1.448 -0.1947 -0.1286  0.1556
  816SOL    HW2 3309   1.562   3.665   1.480  2.0007 -0.3996  0.7908
  816SOL    HW3 3310   1.563   3.584   1.353  0.0950  0.4576  0.2194
  816SOL    MW4 3311   1.560   3.588   1.440  0.1332 -0.0868  0.2477
  817SOL     OW 3312   1.566   3.843   1.542  0.1619  0.4801 -0.0578
  817SOL    HW2 3313   1.573   3.859   1.636  1.0545  0.6093 -0.1453
  817SOL    HW3 3314   1.484   3.885   1.516 -0.9077 -0.9195  0.9484
  817SOL    MW4 3315   1.556   3.850   1.551  0.1386  0.3126  0.0633
  818SOL     OW 3316   1.323   3.964   1.467 -0.4725  0.4334  0.1735
  818SOL    HW2 3317   1.307   4.052   1.502  0.1842  0.4606  0.4228
  818SOL    HW3 3318   1.337   3.978   1.374  1.4859  0.8440  0.5026
  818SOL    MW4 3319   1.323   3.978   1.460 -0.1276  0.4909  0.2497
  819SOL     OW 3320   1.312   4.238   1.555  0.1806 -0.0492  0.3542
  819SOL    HW2 3321   1.395   4.281   1.535  0.3001  0.1294  1.1984
  819SOL    HW3 3322   1.245   4.299   1.525  0.3556 -0.2911 -0.5253
  819SOL    MW4 3323   1.314   4.252   1.548  0.2195 -0.0577  0.3495
  820SOL     OW 3324   1.573   4.347   1.491  0.0470  0.4479 -0.8024
  820SOL    HW2 3325   1.654   4.319   1.534 -0.8434  0.1955  0.7241
  820SOL    HW3 3326   1.559   4.437   1.522 -0.1972  0.5383 -1.1711
  820SOL    MW4 3327   1.582   4.355   1.501 -0.1026  0.4263 -0.6497
  821SOL     OW 3328   2.031   4.621   1.590 -0.0565 -0.4433  0.1334
  821SOL    HW2 3329   2.011   4.626   1.684 -1.1350 -0.0502 -0.1131
  821SOL    HW3 3330   1.958   4.667   1.548 -0.2845 -1.8228 -0.9813
  821SOL    MW4 3331   2.019   4.628   1.597 -0.2289 -0.5735 -0.0461
  822SOL     OW 3332   1.804   0.378   1.884 -0.6022 -0.3819 -0.1882
  822SOL    HW2 3333   1.798   0.289   1.919  0.3851 -0.4550 -0.1939
  822SOL    HW3 3334   1.787   0.368   1.790 -1.5633 -0.4119 -0.0181
  822SOL    MW4 3335   1.801   0.365   1.876 -0.5988 -0.3955 -0.1667
  823SOL     OW 3336   1.553   0.520   1.533  0.0762  0.2366 -0.4598
  823SOL    HW2 3337   1.620   0.456   1.555  0.7937  1.0303 -0.2813
  823SOL    HW3 3338   1.544   0.514   1.438  0.1856 -0.0798 -0.4507
  823SOL    MW4 3339   1.561   0.511   1.524  0.1853  0.2996 -0.4350
  824SOL     OW 3340   1.995   0.505   1.475  0.3320 -0.3646  0.3125
  824SOL    HW2 3341   2.083   0.470   1.487  1.2558  0.6747 -2.8990
  824SOL    HW3 3342   2.000   0.594   1.511  0.7104 -0.1970 -0.1392
  824SOL    MW4 3343   2.007   0.512   1.481  0.5038 -0.2054 -0.1708
  825SOL     OW 3344   2.006   0.765   1.557 -0.6273  0.1364  0.0233
  825SOL    HW2 3345   2.079   0.804   1.509 -0.5474  1.5922  1.2839
  825SOL    HW3 3346   1.931   0.821   1.536 -0.8830 -0.0170  0.5212
  825SOL    MW4 3347   2.006   0.778   1.548 -0.6504  0.3082  0.2552
  826SOL     OW 3348   1.786   0.918   1.508  0.3878 -0.2336 -0.1168
  826SOL    HW2 3349   1.794   1.002   1.551 -0.6836 -0.4755  0.5654
  826SOL    HW3 3350   1.703   0.881   1.540  0.7166 -1.4307 -0.5903
  826SOL    MW4 3351   1.776   0.924   1.518  0.2898 -0.4234 -0.0892
  827SOL     OW 3352   1.816   1.160   1.619  0.2965  0.2759  0.0610
  827SOL    HW2 3353   1.883   1.211   1.573  0.6306 -0.8136 -0.6680
  827SOL    HW3 3354   1.733   1.197   1.590  0.5584  2.2122  1.6222
  827SOL    MW4 3355   1.814   1.172   1.609  0.3753  0.3877  0.1708
  828SOL     OW 3356   2.033   1.269   1.488  0.8116  0.2510 -0.0135
  828SOL    HW2 3357   2.028   1.356   1.527 -0.1799  0.1582  0.0643
  828SOL    HW3 3358   2.003   1.280   1.398  0.8837  0.0312 -0.0658
  828SOL    MW4 3359   2.029   1.282   1.481  0.6907  0.2098 -0.0101
  829SOL     OW 3360   1.982   1.541   1.578  0.1049  0.3585 -0.2515
  829SOL    HW2 3361   2.051   1.591   1.534 -0.4529  0.4352 -1.0498
  829SOL    HW3 3362   1.900   1.578   1.544 -0.3085 -0.9828 -0.7426
  829SOL    MW4 3363   1.980   1.552   1.567 -0.0232  0.1917 -0.4218
  830SOL     OW 3364   1.750   1.681   1.507 -0.6478  0.0011 -0.1045
  830SOL    HW2 3365   1.668   1.641   1.536  0.3979 -1.9260  0.1868
  830SOL    HW3 3366   1.757   1.655   1.415  0.3367 -0.9955  0.2503
  830SOL    MW4 3367   1.740   1.673   1.498 -0.3799 -0.3847 -0.0193
  831SOL     OW 3368   1.770   1.945   1.621  0.6949  0.6924 -0.1144
  831SOL    HW2 3369   1.753   1.855   1.591  0.1353  0.3971  1.0428
  831SOL    HW3 3370   1.717   2.000   1.563 -2.2595 -0.0446  1.7990
  831SOL    MW4 3371   1.761   1.940   1.609  0.2313  0.5560  0.2909
  832SOL     OW 3372   2.002   2.093   1.480 -0.0326 -0.1364 -0.0797
  832SOL    HW2 3373   2.083   2.059   1.519  0.5380  0.1162 -1.0276
  832SOL    HW3 3374   1.932   2.042   1.522  0.5031  0.6435  1.8235
  832SOL    MW4 3375   2.003   2.081   1.491  0.1132 -0.0002  0.0464
  833SOL     OW 3376   2.013   2.347   1.585  0.3235  0.1719  0.3134
  833SOL    HW2 3377   2.030   2.344   1.679  1.3487  1.5380  0.1921
  833SOL    HW3 3378   2.006   2.255   1.559  0.3458 -0.2272  1.6635
  833SOL    MW4 3379   2.014   2.335   1.594  0.4616  0.2995  0.4755
  834SOL     OW 3380   1.815   2.483   1.449  0.0418 -0.0784 -0.4947
  834SOL    HW2 3381   1.879   2.435   1.502  1.3112  1.5049 -0.5659
  834SOL    HW3 3382   1.846   2.473   1.359 -0.0053  0.3888 -0.5646
  834SOL    MW4 3383   1.827   2.475   1.444  0.2031  0.1922 -0.5133
  835SOL     OW 3384   1.781   2.693   1.622  0.2842  0.3365 -0.2394
  835SOL    HW2 3385   1.857   2.749   1.608  0.4800  0.2785  0.5837
  835SOL    HW3 3386   1.797   2.616   1.568  0.2072  0.8917 -1.0600
  835SOL    MW4 3387   1.793   2.690   1.613  0.2998  0.4020 -0.2390
  836SOL     OW 3388   1.999   2.849   1.528  0.0774 -0.8267 -0.4426
  836SOL    HW2 3389   2.008   2.939   1.559  0.7381 -0.4099 -1.8026
  836SOL    HW3 3390   2.036   2.851   1.440  0.1981 -2.4633 -0.4293
  836SOL    MW4 3391   2.005   2.861   1.520  0.1805 -0.9875 -0.6202
  837SOL     OW 3392   1.999   3.118   1.589  0.0133  0.0203  0.3065
  837SOL    HW2 3393   2.009   3.122   1.684  1.6756  1.3446  0.1049
  837SOL    HW3 3394   2.074   3.167   1.555  0.8953 -2.6362 -1.7386
  837SOL    MW4 3395   2.010   3.125   1.597  0.3490 -0.1554  0.0100
  838SOL     OW 3396   1.780   3.232   1.454  0.1960  0.2018  0.0877
  838SOL    HW2 3397   1.855   3.198   1.504 -1.0696 -0.8208  1.3143
  838SOL    HW3 3398   1.773   3.323   1.481 -0.2971 -0.2627  1.6099
  838SOL    MW4 3399   1.789   3.239   1.464 -0.0360  0.0055  0.4503
  839SOL     OW 3400   1.803   3.496   1.543  0.3058 -0.0699  0.0484
  839SOL    HW2 3401   1.804   3.492   1.639 -0.2926  0.0386  0.0580
  839SOL    HW3 3402   1.716   3.529   1.521  0.2978 -0.4806 -0.5502
  839SOL    MW4 3403   1.792   3.500   1.553  0.2259 -0.1097 -0.0294
  840SOL     OW 3404   2.022   3.621   1.398 -0.2677 -0.6730 -0.4445
  840SOL    HW2 3405   2.092   3.582   1.450 -0.0373  0.6314  0.2235
  840SOL    HW3 3406   1.943   3.612   1.452 -0.2502 -0.3709 -0.3704
  840SOL    MW4 3407   2.021   3.615   1.412 -0.2351 -0.4611 -0.3465
  841SOL     OW 3408   2.040   3.876   1.547 -0.1020  0.4749  0.4701
  841SOL    HW2 3409   2.120   3.923   1.525  0.7913 -0.6279  1.2649
  841SOL    HW3 3410   2.041   3.800   1.490 -1.7242  1.5854 -1.0702
  841SOL    MW4 3411   2.050   3.872   1.537 -0.1979  0.4756  0.3718
  842SOL     OW 3412   1.810   4.015   1.451  0.0188  0.0648  0.0540
  842SOL    HW2 3413   1.886   3.964   1.479  0.1624  1.1158  1.6514
  842SOL    HW3 3414   1.735   3.959   1.470  0.3061 -0.4081 -0.2036
  842SOL    MW4 3415   1.810   4.001   1.457  0.0757  0.1407  0.2308
  843SOL     OW 3416   1.812   4.253   1.598  0.0522  0.2994  0.1482
  843SOL    HW2 3417   1.901   4.270   1.567 -0.0871  0.6590 -0.0503
  843SOL    HW3 3418   1.791   4.167   1.563  0.4040  0.1178  0.3767
  843SOL    MW4 3419   1.821   4.244   1.589  0.0802  0.3228  0.1522
  844SOL     OW 3420   2.063   4.359   1.515 -0.1001 -0.7286  0.3553
  844SOL    HW2 3421   2.150   4.347   1.551  0.9001  0.7661 -1.4644
  844SOL    HW3 3422   2.037   4.447   1.544 -0.4943 -0.6735 -0.1551
  844SOL    MW4 3423   2.071   4.369   1.524 -0.0200 -0.5240  0.0478
  845SOL     OW 3424   2.747   0.121   1.480  0.2572 -0.1631 -0.1289
  845SOL    HW2 3425   2.729   0.211   1.505  2.1631  0.3007 -0.3735
  845SOL    HW3 3426   2.670   0.072   1.510 -0.6022  1.4580  0.3719
  845SOL    MW4 3427   2.734   0.126   1.487  0.3951  0.1120 -0.0950
  846SOL     OW 3428   2.257   0.095   1.497 -0.2603  0.1930  0.4799
  846SOL    HW2 3429   2.199   0.026   1.529  0.0767 -1.1358 -1.6961
  846SOL    HW3 3430   2.235   0.104   1.405  1.1369  1.5565  0.2587
  846SOL    MW4 3431   2.247   0.087   1.489 -0.0317  0.1976  0.1637
  847SOL     OW 3432   2.229   0.373   1.586  0.7139  0.0916  0.0555
  847SOL    HW2 3433   2.205   0.367   1.679 -0.7202 -0.4410 -0.3406
  847SOL    HW3 3434   2.240   0.283   1.558 -1.6090  0.1011 -0.9791
  847SOL    MW4 3435   2.227   0.360   1.595  0.2182  0.0226 -0.1334
  848SOL     OW 3436   2.436   0.506   1.456 -0.1659 -1.0599  0.0492
  848SOL    HW2 3437   2.515   0.466   1.494  0.0925 -0.1475  0.4806
  848SOL    HW3 3438   2.364   0.468   1.507  0.1995  0.4391  1.7647
  848SOL    MW4 3439   2.437   0.495   1.468 -0.0837 -0.7417  0.3326
  849SOL     OW 3440   2.462   0.753   1.554 -0.7765 -0.6121  0.2526
  849SOL    HW2 3441   2.386   0.800   1.519 -0.6840  0.4773  1.4735
  849SOL    HW3 3442   2.456   0.666   1.516 -0.8510  0.4383 -2.2036
  849SOL    MW4 3443   2.451   0.748   1.545 -0.7741 -0.3298  0.0896
  850SOL     OW 3444   2.240   0.888   1.453 -0.6070 -0.3955  0.0610
  850SOL    HW2 3445   2.261   0.977   1.482  0.1655 -0.4259 -0.4003
  850SOL    HW3 3446   2.257   0.889   1.359  0.5586 -1.3612  0.2546
  850SOL    MW4 3447   2.245   0.900   1.445 -0.3512 -0.5269  0.0255
  851SOL     OW 3448   2.271   1.160   1.581 -0.1862 -0.2633  0.2725
  851SOL    HW2 3449   2.260   1.164   1.676 -0.0538 -1.5157  0.3531
  851SOL    HW3 3450   2.184   1.177   1.546 -0.6205 -1.5584  0.6787
  851SOL    MW4 3451   2.258   1.162   1.589 -0.2260 -0.5994  0.3366
  852SOL     OW 3452   2.506   1.274   1.511  0.2003 -0.3580 -0.0188
  852SOL    HW2 3453   2.422   1.239   1.539  0.2125 -0.3991 -0.0337
  852SOL    HW3 3454   2.503   1.271   1.415 -0.2529  0.7596 -0.0460
  852SOL    MW4 3455   2.495   1.269   1.502  0.1421 -0.2159 -0.0243
  853SOL     OW 3456   2.464   1.565   1.536  0.0256  0.3900  0.1361
  853SOL    HW2 3457   2.545   1.587   1.490  0.8412 -0.1874  1.2479
  853SOL    HW3 3458   2.464   1.469   1.539 -1.4938  0.3275 -1.2177
  853SOL    MW4 3459   2.475   1.555   1.531 -0.0670  0.3055  0.1042
  854SOL     OW 3460   2.200   1.702   1.470  0.6080  0.2690 -0.1531
  854SOL    HW2 3461   2.282   1.658   1.491 -0.4115 -1.0408  1.2115
  854SOL    HW3 3462   2.194   1.699   1.375  1.8035 -0.2256 -0.2221
  854SOL    MW4 3463   2.210   1.696   1.460  0.6311  0.0309  0.0179
  855SOL     OW 3464   2.236   1.967   1.570  0.0436  0.2490  0.5052
  855SOL    HW2 3465   2.238   1.934   1.661  1.8696  1.0394  0.7652
  855SOL    HW3 3466   2.223   1.888   1.517 -0.0169 -0.3500  1.3902
  855SOL    MW4 3467   2.234   1.952   1.575  0.2768  0.2743  0.6562
  856SOL     OW 3468   2.467   2.089   1.500  0.1379 -0.0042 -0.3499
  856SOL    HW2 3469   2.382   2.051   1.523  1.6492 -3.6588 -0.5192
  856SOL    HW3 3470   2.466   2.094   1.404 -0.3236  1.0707 -0.2952
  856SOL    MW4 3471   2.455   2.085   1.490  0.2766 -0.3445 -0.3650
  857SOL     OW 3472   2.477   2.357   1.580 -0.0648 -0.0324  0.1201
  857SOL    HW2 3473   2.466   2.347   1.674  2.3712  1.3692  0.6064
  857SOL    HW3 3474   2.483   2.268   1.547 -0.4683 -0.5253  1.3316
  857SOL    MW4 3475   2.476   2.344   1.588  0.2031  0.0875  0.3442
  858SOL     OW 3476   2.226   2.455   1.439 -0.5727 -0.1808  0.0179
  858SOL    HW2 3477   2.311   2.433   1.478 -0.7380 -3.0733 -1.1893
  858SOL    HW3 3478   2.162   2.407   1.491 -1.0658 -1.5357 -1.7848
  858SOL    MW4 3479   2.229   2.446   1.451 -0.6595 -0.7415 -0.3792
  859SOL     OW 3480   2.204   2.680   1.616  0.0723  0.4891  0.3936
  859SOL    HW2 3481   2.198   2.604   1.558  2.7472  0.6279 -0.1704
  859SOL    HW3 3482   2.133   2.737   1.588 -0.9841 -1.0912 -0.2437
  859SOL    MW4 3483   2.194   2.677   1.604  0.2861  0.2987  0.2350
  860SOL     OW 3484   2.444   2.907   1.275 -0.1327  0.0789 -0.4230
  860SOL    HW2 3485   2.462   2.874   1.363  0.2151  0.8831 -0.1885
  860SOL    HW3 3486   2.504   2.859   1.218 -0.5337 -0.6253 -0.2640
  860SOL    MW4 3487   2.454   2.897   1.279 -0.1397  0.0920 -0.3711
  861SOL     OW 3488   2.408   3.088   1.605 -0.2328  0.0905 -0.2569
  861SOL    HW2 3489   2.477   3.117   1.546  0.2037 -0.9159 -0.2491
  861SOL    HW3 3490   2.329   3.133   1.574  0.0280 -0.2884 -1.4976
  861SOL    MW4 3491   2.407   3.098   1.593 -0.1407 -0.0925 -0.4195
  862SOL     OW 3492   2.218   3.258   1.487  0.1341 -0.3806 -0.0447
  862SOL    HW2 3493   2.215   3.266   1.392 -0.0897  0.8787  0.0610
  862SOL    HW3 3494   2.224   3.348   1.519 -2.1338 -0.6182  1.1971
  862SOL    MW4 3495   2.218   3.271   1.478 -0.1945 -0.2460  0.1330
  863SOL     OW 3496   2.245   3.521   1.549  0.2790  0.3970  0.4761
  863SOL    HW2 3497   2.248   3.518   1.645  0.8266 -0.6008  0.4352
  863SOL    HW3 3498   2.330   3.557   1.524  0.2552  0.3712  0.3588
  863SOL    MW4 3499   2.257   3.525   1.559  0.3481  0.2618  0.4551
  864SOL     OW 3500   2.502   3.643   1.463  0.5428  0.3597 -0.2980
  864SOL    HW2 3501   2.542   3.579   1.521  2.1040  0.9279 -0.7233
  864SOL    HW3 3502   2.508   3.726   1.511  0.0637  0.4879 -0.4536
  864SOL    MW4 3503   2.508   3.646   1.477  0.6857  0.4516 -0.3747
  865SOL     OW 3504   2.517   3.906   1.569 -0.0767  0.2336 -0.0131
  865SOL    HW2 3505   2.596   3.949   1.538  0.6521 -0.3003  1.0653
  865SOL    HW3 3506   2.521   3.912   1.664 -2.3152  1.9134  0.0269
  865SOL    MW4 3507   2.528   3.912   1.577 -0.2759  0.3848  0.1345
  866SOL     OW 3508   2.273   4.004   1.466 -0.1989  0.4052 -0.6261
  866SOL    HW2 3509   2.361   3.978   1.494  0.1319 -1.4222 -3.2473
  866SOL    HW3 3510   2.275   3.999   1.371 -3.2002  0.2537 -0.7266
  866SOL    MW4 3511   2.285   4.000   1.457 -0.5512  0.1440 -0.9851
  867SOL     OW 3512   2.303   4.250   1.614 -0.6679  0.0756 -0.5337
  867SOL    HW2 3513   2.381   4.298   1.587 -1.4998  1.2439 -0.9268
  867SOL    HW3 3514   2.304   4.170   1.561  0.2418  0.0829 -0.5438
  867SOL    MW4 3515   2.313   4.246   1.603 -0.6578  0.2303 -0.5870
  868SOL     OW 3516   2.543   4.384   1.503 -0.0242  0.1743 -0.0021
  868SOL    HW2 3517   2.550   4.476   1.528  0.4794  0.1004  0.1409
  868SOL    HW3 3518   2.532   4.386   1.408 -0.0200  0.3786  0.0004
  868SOL    MW4 3519   2.542   4.397   1.493  0.0432  0.1922  0.0172
  869SOL     OW 3520   2.949   4.653   1.626 -0.4288 -0.0569  0.1345
  869SOL    HW2 3521   2.950   4.674   1.720 -0.6974  0.4786  0.0186
  869SOL    HW3 3522   2.885   4.713   1.589  0.3324  0.3416 -0.5372
  869SOL    MW4 3523   2.940   4.664   1.634 -0.3638  0.0658  0.0304
  870SOL     OW 3524   2.514   0.011   1.570 -0.0445  0.1419  0.4296
  870SOL    HW2 3525   2.442   0.040   1.513 -0.0416  0.4366  0.5746
  870SOL    HW3 3526   2.490   0.044   1.657 -0.6927 -1.3968  0.8568
  870SOL    MW4 3527   2.501   0.019   1.574 -0.1295 -0.0219  0.5050
  871SOL     OW 3528   2.668   0.372   1.576  0.1459 -0.1674 -0.1131
  871SOL    HW2 3529   2.661   0.384   1.671 -2.8697  1.5513 -0.5158
  871SOL    HW3 3530   2.737   0.433   1.549 -0.0051  0.3994  0.7767
  871SOL    MW4 3531   2.676   0.382   1.585 -0.2720  0.1341 -0.0489
  872SOL     OW 3532   2.905   0.512   1.496  0.1947  0.0745  0.0790
  872SOL    HW2 3533   2.908   0.604   1.523 -0.0066 -0.2815  1.3616
  872SOL    HW3 3534   2.904   0.515   1.400 -0.3796  1.4214  0.1154
  872SOL    MW4 3535   2.906   0.524   1.487  0.0925  0.2052  0.2530
  873SOL     OW 3536   2.894   0.799   1.834  0.2062 -0.0043 -0.0279
  873SOL    HW2 3537   2.961   0.850   1.879 -0.1779 -0.3145  0.9107
  873SOL    HW3 3538   2.811   0.828   1.873 -0.1463 -0.1524 -0.6597
  873SOL    MW4 3539   2.892   0.810   1.845  0.1087 -0.0647  0.0125
  874SOL     OW 3540   2.947   0.773   1.569  0.1042 -0.4983  0.4366
  874SOL    HW2 3541   2.947   0.766   1.665  0.0988 -2.6718  0.3007
  874SOL    HW3 3542   2.862   0.812   1.549  0.7041  1.3487  1.3888
  874SOL    MW4 3543   2.936   0.777   1.579  0.1829 -0.5414  0.5443
  875SOL     OW 3544   2.740   1.150   1.626 -0.0837 -0.0621 -0.0495
  875SOL    HW2 3545   2.746   1.068   1.577  3.0019  1.1429 -1.8372
  875SOL    HW3 3546   2.660   1.191   1.594 -1.0726 -1.8342  0.0505
  875SOL    MW4 3547   2.731   1.144   1.615  0.1929 -0.1367 -0.2723
  876SOL     OW 3548   2.929   1.297   1.465 -0.2575  0.0075 -0.5668
  876SOL    HW2 3549   3.013   1.253   1.475 -0.1772 -0.0977 -1.6246
  876SOL    HW3 3550   2.870   1.251   1.524  0.4372  0.1177  0.2161
  876SOL    MW4 3551   2.932   1.285   1.474 -0.1554  0.0081 -0.6032
  877SOL     OW 3552   2.927   1.561   1.564  0.1680 -0.7823  0.0140
  877SOL    HW2 3553   2.850   1.611   1.536  1.8817  1.3761 -0.9862
  877SOL    HW3 3554   2.913   1.473   1.529 -2.5528 -0.8288  1.1498
  877SOL    MW4 3555   2.915   1.556   1.556  0.0350 -0.5037  0.0319
  878SOL     OW 3556   2.713   1.694   1.454  0.0433 -0.0779  0.3577
  878SOL    HW2 3557   2.708   1.786   1.480  1.1607  0.7197 -2.0920
  878SOL    HW3 3558   2.696   1.695   1.360  0.1447 -2.3737  0.2866
  878SOL    MW4 3559   2.710   1.706   1.445  0.2041 -0.2756  0.0250
  879SOL     OW 3560   2.661   1.935   1.591  0.0648  0.4880 -0.1617
  879SOL    HW2 3561   2.636   1.911   1.680  0.1848  1.4377  0.1407
  879SOL    HW3 3562   2.587   1.987   1.559 -0.8989 -1.5458 -1.3693
  879SOL    MW4 3563   2.648   1.939   1.598 -0.0463  0.3448 -0.2810
  880SOL     OW 3564   2.917   2.048   1.483  0.0080 -0.6140 -0.3450
  880SOL    HW2 3565   2.919   2.142   1.503  1.5442 -0.8364  0.6319
  880SOL    HW3 3566   2.831   2.019   1.513 -0.5755  0.5292 -0.8889
  880SOL    MW4 3567   2.906   2.057   1.490  0.1338 -0.4926 -0.2879
  881SOL     OW 3568   2.908   2.297   1.836 -0.8653  0.0763 -0.4335
  881SOL    HW2 3569   2.884   2.206   1.853  1.1258 -0.3482  0.2524
  881SOL    HW3 3570   2.841   2.349   1.881 -0.6437 -1.0594  1.2361
  881SOL    MW4 3571   2.896   2.292   1.844 -0.5732 -0.1295 -0.1227
  882SOL     OW 3572   2.910   2.322   1.544 -0.5972  0.1301  0.3847
  882SOL    HW2 3573   2.911   2.321   1.640  0.4619  2.1481  0.4157
  882SOL    HW3 3574   2.823   2.355   1.522 -0.6956  0.0493  0.6432
  882SOL    MW4 3575   2.898   2.326   1.554 -0.4702  0.3858  0.4230
  883SOL     OW 3576   2.445   2.813   1.554 -0.5844 -0.3317  0.5985
  883SOL    HW2 3577   2.427   2.903   1.583  0.3572  0.0219  0.1118
  883SOL    HW3 3578   2.361   2.768   1.562 -1.2505  0.7915  0.1381
  883SOL    MW4 3579   2.432   2.819   1.559 -0.5481 -0.1371  0.4734
  884SOL     OW 3580   2.893   2.850   1.474  0.0868  0.1093 -0.0260
  884SOL    HW2 3581   2.969   2.807   1.513 -0.5298 -0.7906  0.1863
  884SOL    HW3 3582   2.891   2.937   1.515  2.2463  0.9389 -1.5949
  884SOL    MW4 3583   2.903   2.856   1.484  0.2904  0.1001 -0.2050
  885SOL     OW 3584   2.885   3.100   1.602  0.1976  0.0682 -0.2339
  885SOL    HW2 3585   2.907   3.085   1.694 -0.8209 -0.2188 -0.0318
  885SOL    HW3 3586   2.958   3.152   1.568 -0.0222  1.2348  1.0497
  885SOL    MW4 3587   2.897   3.105   1.609  0.0343  0.1843 -0.0380
  886SOL     OW 3588   2.643   3.200   1.509 -0.3839 -0.1229 -1.2561
  886SOL    HW2 3589   2.730   3.166   1.530 -0.5333 -0.4572 -1.1862
  886SOL    HW3 3590   2.653   3.239   1.422  0.3198  1.5773 -0.4292
  886SOL    MW4 3591   2.656   3.201   1.500 -0.3104  0.0572 -1.1379
  887SOL     OW 3592   2.644   3.470   1.636 -0.2974  0.5001 -0.0466
  887SOL    HW2 3593   2.662   3.459   1.730 -1.5087  1.2330  0.2757
  887SOL    HW3 3594   2.629   3.381   1.604 -0.2714  0.2844  0.5363
  887SOL    MW4 3595   2.645   3.457   1.644 -0.4535  0.5686  0.0730
  888SOL     OW 3596   2.941   3.623   1.545 -0.2172 -0.4620  0.0733
  888SOL    HW2 3597   2.849   3.613   1.567 -0.5220 -1.2364 -1.4855
  888SOL    HW3 3598   2.944   3.618   1.449  1.3118  0.6575  0.0400
  888SOL    MW4 3599   2.930   3.621   1.535 -0.0558 -0.4165 -0.1370
  889SOL     OW 3600   2.945   3.901   1.596 -0.0530 -0.3348 -0.5474
  889SOL    HW2 3601   2.883   3.943   1.537 -0.8344 -0.9563 -0.1786
  889SOL    HW3 3602   2.956   3.813   1.561  1.4291  0.0844 -1.2028
  889SOL    MW4 3603   2.938   3.895   1.584  0.0393 -0.3617 -0.5853
  890SOL     OW 3604   2.727   4.022   1.434 -0.1846  0.0822 -0.2238
  890SOL    HW2 3605   2.735   4.100   1.489  0.9574  0.1140 -0.4273
  890SOL    HW3 3606   2.740   4.053   1.345 -0.7992 -0.1716 -0.4062
  890SOL    MW4 3607   2.730   4.036   1.430 -0.1149  0.0534 -0.2748
  891SOL     OW 3608   2.743   4.242   1.615  0.4105 -0.0386  0.0907
  891SOL    HW2 3609   2.823   4.281   1.581  0.4172 -1.4817 -1.6193
  891SOL    HW3 3610   2.672   4.288   1.570  0.3111  0.3179  0.6048
  891SOL    MW4 3611   2.744   4.253   1.605  0.3984 -0.1817 -0.0670
  892SOL     OW 3612   2.939   4.408   1.509 -0.0911  0.1426  0.7049
  892SOL    HW2 3613   2.930   4.493   1.551 -0.8369  0.4927 -0.1564
  892SOL    HW3 3614   2.931   4.426   1.415 -0.9538 -0.9707  0.5578
  892SOL    MW4 3615   2.937   4.421   1.502 -0.3035  0.0415  0.5720
  893SOL     OW 3616   3.349   4.658   1.612  0.4041 -0.3099  0.7097
  893SOL    HW2 3617   3.428   4.705   1.582  0.2704 -0.0564  0.7558
  893SOL    HW3 3618   3.363   4.568   1.583 -0.2041  0.1525 -1.0616
  893SOL    MW4 3619   3.362   4.653   1.604  0.3064 -0.2155  0.4822
  894SOL     OW 3620   3.148   0.117   1.495  0.2801  0.1504 -0.1473
  894SOL    HW2 3621   3.223   0.074   1.537 -0.0938 -0.1252  0.2486
  894SOL    HW3 3622   3.073   0.086   1.545 -0.0838  0.5295 -0.4648
  894SOL    MW4 3623   3.148   0.107   1.507  0.1826  0.1641 -0.1370
  895SOL     OW 3624   3.112   0.360   1.634 -0.6666 -0.0189 -0.3201
  895SOL    HW2 3625   3.050   0.405   1.576  0.0949 -1.4065 -2.2723
  895SOL    HW3 3626   3.130   0.276   1.590  0.8453 -0.6101  1.3438
  895SOL    MW4 3627   3.106   0.355   1.620 -0.3664 -0.2800 -0.3581
  896SOL     OW 3628   3.325   0.487   1.499 -0.0198 -0.4655  0.1035
  896SOL    HW2 3629   3.252   0.442   1.541  0.0458 -0.7340 -0.0661
  896SOL    HW3 3630   3.314   0.469   1.406 -0.3703  0.4323 -0.0369
  896SOL    MW4 3631   3.314   0.479   1.492 -0.0575 -0.3825  0.0627
  897SOL     OW 3632   3.388   0.762   1.562  0.0653 -0.2269 -0.0696
  897SOL    HW2 3633   3.377   0.766   1.657  1.1422  0.5236  0.0324
  897SOL    HW3 3634   3.375   0.669   1.541  0.2373 -0.4747  0.8677
  897SOL    MW4 3635   3.385   0.750   1.572  0.2301 -0.1606  0.0675
  898SOL     OW 3636   3.137   1.151   1.058  0.3640  0.3045  0.3220
  898SOL    HW2 3637   3.211   1.187   1.105  1.4969 -0.1800 -1.0525
  898SOL    HW3 3638   3.119   1.067   1.100  1.0950  0.0721  0.1706
  898SOL    MW4 3639   3.144   1.145   1.070  0.6096  0.2099  0.1206
  899SOL     OW 3640   3.171   0.880   1.447  0.7936 -0.4036 -0.2702
  899SOL    HW2 3641   3.254   0.838   1.470  0.0751 -0.9670  1.3937
  899SOL    HW3 3642   3.105   0.826   1.490 -0.3027  1.0383 -0.1302
  899SOL    MW4 3643   3.173   0.868   1.456  0.5538 -0.2877 -0.0323
  900SOL     OW 3644   3.378   1.281   1.475  0.4231 -0.2230 -0.3253
  900SOL    HW2 3645   3.453   1.225   1.493  1.2677  0.9710 -0.0291
  900SOL    HW3 3646   3.302   1.228   1.498  1.1550 -1.5938 -1.0231
  900SOL    MW4 3647   3.378   1.267   1.481  0.6311 -0.2463 -0.3784
  901SOL     OW 3648   3.381   1.552   1.574 -0.1126 -0.1806  0.2115
  901SOL    HW2 3649   3.366   1.552   1.669 -0.8188 -0.8771  0.1010
  901SOL    HW3 3650   3.387   1.460   1.551  2.0098  0.0056 -0.1346
  901SOL    MW4 3651   3.380   1.540   1.584  0.0739 -0.2478  0.1513
  902SOL     OW 3652   3.152   1.658   1.439 -0.4179 -0.0840 -0.2106
  902SOL    HW2 3653   3.219   1.600   1.475 -0.1821  0.7400  0.6952
  902SOL    HW3 3654   3.070   1.625   1.475 -0.5844 -1.4693 -1.8054
  902SOL    MW4 3655   3.150   1.646   1.448 -0.4089 -0.1582 -0.3016
  903SOL     OW 3656   3.151   1.923   1.563 -0.0493  0.0884 -0.1840
  903SOL    HW2 3657   3.156   1.835   1.526 -1.3726  0.1145 -0.4444
  903SOL    HW3 3658   3.067   1.957   1.534  0.0867  1.1345  0.5966
  903SOL    MW4 3659   3.141   1.916   1.555 -0.2062  0.2300 -0.1154
  904SOL     OW 3660   3.327   2.333   1.562  0.1268 -0.3197 -0.4371
  904SOL    HW2 3661   3.332   2.241   1.534  2.2917 -0.5002  0.4361
  904SOL    HW3 3662   3.413   2.369   1.539  0.8025  0.3720  2.9990
  904SOL    MW4 3663   3.339   2.326   1.555  0.5019 -0.2522  0.1314
  905SOL     OW 3664   3.556   2.461   1.485  0.3728  0.0923 -0.0891
  905SOL    HW2 3665   3.550   2.550   1.520 -0.0430  0.2818 -0.6451
  905SOL    HW3 3666   3.628   2.421   1.534  1.1035  0.9960 -0.4106
  905SOL    MW4 3667   3.565   2.467   1.496  0.4144  0.2365 -0.2049
  906SOL     OW 3668   3.101   2.489   1.447  0.3964 -0.0497  0.5476
  906SOL    HW2 3669   3.179   2.461   1.493  0.1993 -0.1958  0.7893
  906SOL    HW3 3670   3.032   2.430   1.477 -0.4354  1.8250  2.4553
  906SOL    MW4 3671   3.102   2.478   1.457  0.2606  0.1783  0.8312
  907SOL     OW 3672   3.149   2.746   1.546  0.0283  0.0255 -0.1015
  907SOL    HW2 3673   3.118   2.742   1.637 -0.2694 -0.5566 -0.2229
  907SOL    HW3 3674   3.118   2.664   1.507  0.1930  0.2565 -0.7183
  907SOL    MW4 3675   3.141   2.734   1.553  0.0105 -0.0207 -0.1988
  908SOL     OW 3676   3.377   2.879   1.477  0.0062 -0.3431 -0.1176
  908SOL    HW2 3677   3.364   2.972   1.497 -0.5037  0.0376 -2.0706
  908SOL    HW3 3678   3.302   2.835   1.517  0.1171  0.1214  0.6011
  908SOL    MW4 3679   3.365   2.886   1.485 -0.0463 -0.2315 -0.2804
  909SOL     OW 3680   3.348   3.141   1.593  0.2759 -0.1662  0.6318
  909SOL    HW2 3681   3.359   3.144   1.688  0.6213  1.4519  0.5497
  909SOL    HW3 3682   3.418   3.197   1.559  0.0057 -0.5416 -0.5718
  909SOL    MW4 3683   3.359   3.149   1.601  0.2856 -0.0024  0.4622
  910SOL     OW 3684   3.106   3.243   1.518 -0.2424 -0.6032 -0.1741
  910SOL    HW2 3685   3.175   3.184   1.549 -0.1084 -0.3742 -0.0345
  910SOL    HW3 3686   3.114   3.241   1.423  0.4639  0.0159 -0.1392
  910SOL    MW4 3687   3.116   3.235   1.510 -0.1316 -0.4914 -0.1512
  911SOL     OW 3688   3.177   3.506   1.605  0.8403 -0.1377  0.0768
  911SOL    HW2 3689   3.163   3.415   1.578 -1.2323  0.1758  0.0116
  911SOL    HW3 3690   3.090   3.547   1.598  1.4961  1.5226  1.2979
  911SOL    MW4 3691   3.163   3.499   1.601  0.6533  0.1228  0.2294
  912SOL     OW 3692   3.408   3.654   1.599 -0.2164 -0.3930 -0.1930
  912SOL    HW2 3693   3.485   3.598   1.613 -0.5213 -0.5943  0.7718
  912SOL    HW3 3694   3.334   3.593   1.600 -0.5817  0.0488  1.2352
  912SOL    MW4 3695   3.408   3.639   1.601 -0.3047 -0.3612  0.1228
  913SOL     OW 3696   3.411   3.937   1.623  0.2251  0.3100 -0.1041
  913SOL    HW2 3697   3.327   3.959   1.583 -0.6029 -0.9037  0.9075
  913SOL    HW3 3698   3.413   3.841   1.623 -0.4362  0.1691  3.9023
  913SOL    MW4 3699   3.400   3.927   1.618  0.0284  0.1314  0.5580
  914SOL     OW 3700   3.185   4.026   1.517 -0.1341  0.5706  0.0856
  914SOL    HW2 3701   3.187   4.117   1.547 -0.5734  1.4243 -2.3657
  914SOL    HW3 3702   3.100   3.993   1.547  0.1569  0.8652  1.2477
  914SOL    MW4 3703   3.174   4.034   1.525 -0.1535  0.7224 -0.0845
  915SOL     OW 3704   3.172   4.304   1.596 -0.2347 -0.0065 -0.1251
  915SOL    HW2 3705   3.158   4.320   1.690 -0.8102  0.4990 -0.2940
  915SOL    HW3 3706   3.092   4.336   1.554  1.6360  3.4228 -1.1703
  915SOL    MW4 3707   3.160   4.310   1.603 -0.0639  0.5126 -0.2853
  916SOL     OW 3708   3.390   4.414   1.487 -0.0321 -0.3701 -0.5608
  916SOL    HW2 3709   3.310   4.368   1.514 -1.6199  2.7764  0.2779
  916SOL    HW3 3710   3.373   4.441   1.397 -0.0421  0.6012 -0.2661
  916SOL    MW4 3711   3.377   4.411   1.479 -0.2432  0.1731 -0.4113
  917SOL     OW 3712   3.807   0.014   1.599 -0.1566 -0.7906 -0.0315
  917SOL    HW2 3713   3.794  -0.009   1.691 -1.3361  1.4859  0.4163
  917SOL    HW3 3714   3.895   0.051   1.596 -0.0676 -0.9847  0.1617
  917SOL    MW4 3715   3.817   0.016   1.611 -0.3004 -0.5159  0.0530
  918SOL     OW 3716   3.564   0.124   1.499  0.4483 -0.1834 -0.4579
  918SOL    HW2 3717   3.642   0.081   1.535  0.1113 -0.9938 -0.6686
  918SOL    HW3 3718   3.576   0.119   1.404  0.3835  0.1465 -0.4818
  918SOL    MW4 3719   3.576   0.117   1.491  0.3951 -0.2468 -0.4889
  919SOL     OW 3720   3.579   0.393   1.592 -0.8040  0.0712  0.0651
  919SOL    HW2 3721   3.577   0.301   1.565 -0.3966  0.8800 -2.9444
  919SOL    HW3 3722   3.491   0.426   1.570 -0.8160  0.5095  0.7566
  919SOL    MW4 3723   3.567   0.385   1.586 -0.7515  0.2357 -0.2407
  920SOL     OW 3724   3.825   0.489   1.503 -0.0092 -0.4190  0.0514
  920SOL    HW2 3725   3.746   0.442   1.531  0.1322 -1.2366 -0.9084
  920SOL    HW3 3726   3.808   0.512   1.412  1.0074 -0.9191 -0.2717
  920SOL    MW4 3727   3.812   0.486   1.494  0.1435 -0.5929 -0.1179
  921SOL     OW 3728   3.824   0.741   1.614  0.2059 -0.6130 -0.6262
  921SOL    HW2 3729   3.755   0.789   1.568  0.1637 -0.2783 -0.2210
  921SOL    HW3 3730   3.830   0.658   1.568 -1.5523 -1.2763  0.2703
  921SOL    MW4 3731   3.815   0.737   1.602 -0.0315 -0.6563 -0.4544
  922SOL     OW 3732   3.622   0.857   1.464 -0.2984 -0.0340  0.1443
  922SOL    HW2 3733   3.545   0.816   1.503  0.3781 -1.2369  0.2280
  922SOL    HW3 3734   3.600   0.869   1.372 -0.4342 -0.7318  0.0879
  922SOL    MW4 3735   3.609   0.853   1.457 -0.2270 -0.2849  0.1478
  923SOL     OW 3736   3.578   1.129   1.572  0.1426 -0.3960  0.2076
  923SOL    HW2 3737   3.663   1.166   1.550 -0.2760 -0.1599 -1.0054
  923SOL    HW3 3738   3.580   1.040   1.535 -0.1692 -0.3638  0.1123
  923SOL    MW4 3739   3.590   1.122   1.565  0.0465 -0.3607  0.0349
  924SOL     OW 3740   3.803   1.255   1.485 -0.1221  0.4179  0.1666
  924SOL    HW2 3741   3.880   1.215   1.525  1.0418  0.3605 -2.0442
  924SOL    HW3 3742   3.809   1.347   1.509  1.0314  0.5494 -0.5852
  924SOL    MW4 3743   3.814   1.262   1.494  0.1838  0.4276 -0.2244
  925SOL     OW 3744   3.808   1.520   1.567 -0.2080 -0.1505 -0.0834
  925SOL    HW2 3745   3.817   1.529   1.661 -1.6707 -1.1019  0.1682
  925SOL    HW3 3746   3.727   1.567   1.546  1.2199  1.9013 -1.1854
  925SOL    MW4 3747   3.798   1.528   1.576 -0.2124 -0.0054 -0.1956
  926SOL     OW 3748   3.586   1.688   1.474  0.1702  0.0843 -0.2247
  926SOL    HW2 3749   3.503   1.654   1.508  0.7536 -0.4976  0.6621
  926SOL    HW3 3750   3.577   1.684   1.379 -0.7704 -0.0950 -0.1343
  926SOL    MW4 3751   3.574   1.683   1.466  0.1228 -0.0162 -0.0958
  927SOL     OW 3752   3.592   1.946   1.575  0.0992 -0.0749  0.1303
  927SOL    HW2 3753   3.585   1.859   1.536 -2.2108 -0.3035  0.9623
  927SOL    HW3 3754   3.510   1.989   1.553 -0.2649  0.6325  2.6835
  927SOL    MW4 3755   3.581   1.941   1.567 -0.2534 -0.0117  0.5770
  928SOL     OW 3756   3.835   2.060   1.480  0.0174  0.0008  0.4711
  928SOL    HW2 3757   3.757   2.024   1.521  0.2833 -0.1361  0.8628
  928SOL    HW3 3758   3.836   2.152   1.507 -0.8040  0.3819 -0.7426
  928SOL    MW4 3759   3.825   2.068   1.489 -0.0558  0.0331  0.3628
  929SOL     OW 3760   3.806   2.309   1.604  0.0587  1.1276 -0.4073
  929SOL    HW2 3761   3.796   2.318   1.699 -0.5782  0.2427 -0.3905
  929SOL    HW3 3762   3.894   2.341   1.587  0.4940  0.5097  0.5891
  929SOL    MW4 3763   3.816   2.315   1.615  0.0317  0.9294 -0.2736
  930SOL     OW 3764   2.200   4.064   0.483 -0.3084 -0.0654 -0.2128
  930SOL    HW2 3765   2.207   4.139   0.424 -1.3573 -0.3031 -0.6504
  930SOL    HW3 3766   2.287   4.024   0.482 -0.2240  0.1340 -1.3298
  930SOL    MW4 3767   2.212   4.069   0.475 -0.4358 -0.0706 -0.4179
  931SOL     OW 3768   3.820   2.832   1.549  0.1486  0.3124 -0.2903
  931SOL    HW2 3769   3.890   2.782   1.591 -0.7544  0.1946  1.0935
  931SOL    HW3 3770   3.740   2.788   1.576 -0.5834  1.7936 -0.0185
  931SOL    MW4 3771   3.819   2.819   1.558 -0.0670  0.4921 -0.0719
  932SOL     OW 3772   3.557   2.702   1.610  0.3232 -0.1608 -0.3573
  932SOL    HW2 3773   3.538   2.695   1.703  0.4533  0.1725 -0.3031
  932SOL    HW3 3774   3.505   2.777   1.580  1.0205  0.3382 -0.3464
  932SOL    MW4 3775   3.547   2.711   1.618  0.4325 -0.0508 -0.3487
  933SOL     OW 3776   3.809   3.098   1.586  0.3617  0.0345  0.1468
  933SOL    HW2 3777   3.894   3.133   1.558  0.4915 -0.2587  0.1735
  933SOL    HW3 3778   3.819   3.003   1.579  0.7559 -0.1094  2.2129
  933SOL    MW4 3779   3.822   3.090   1.582  0.4311 -0.0234  0.4227
  934SOL     OW 3780   3.588   3.269   1.494  0.1839  0.2067  0.1873
  934SOL    HW2 3781   3.657   3.212   1.527 -0.3660 -0.3782  0.3540
  934SOL    HW3 3782   3.584   3.249   1.400  0.3086  0.3052  0.1624
  934SOL    MW4 3783   3.596   3.259   1.486  0.1278  0.1426  0.2060
  935SOL     OW 3784   3.633   3.498   1.633  0.0317  0.0833 -0.1639
  935SOL    HW2 3785   3.695   3.547   1.580  0.3491 -0.3421 -0.1877
  935SOL    HW3 3786   3.615   3.419   1.582 -0.2644  0.0422  0.0023
  935SOL    MW4 3787   3.639   3.494   1.619  0.0346  0.0217 -0.1450
  936SOL     OW 3788   3.820   3.635   1.491 -0.8072  0.1600 -0.5315
  936SOL    HW2 3789   3.894   3.582   1.518  1.3734  1.2832 -3.8730
  936SOL    HW3 3790   3.826   3.715   1.544 -0.2331 -0.1883 -0.0752
  936SOL    MW4 3791   3.830   3.639   1.501 -0.4439  0.2623 -0.9121
  937SOL     OW 3792   3.799   3.905   1.615 -0.1664 -0.4275 -0.0125
  937SOL    HW2 3793   3.880   3.942   1.581 -1.0411  1.1422 -0.4406
  937SOL    HW3 3794   3.731   3.941   1.559 -1.3069 -0.6220  1.2168
  937SOL    MW4 3795   3.801   3.914   1.603 -0.4323 -0.2460  0.0933
  938SOL     OW 3796   3.602   4.037   1.466  0.1557  0.3636  0.2718
  938SOL    HW2 3797   3.610   4.131   1.486 -0.4181  0.6297 -0.7247
  938SOL    HW3 3798   3.532   4.006   1.522  0.2901  0.5459  0.5423
  938SOL    MW4 3799   3.594   4.045   1.476  0.0975  0.4230  0.1761
  939SOL     OW 3800   3.622   4.299   1.552  0.2430 -0.6416  0.3994
  939SOL    HW2 3801   3.611   4.285   1.647  1.2950  1.9057  0.9468
  939SOL    HW3 3802   3.539   4.338   1.525  0.8492  1.0094  0.8192
  939SOL    MW4 3803   3.609   4.302   1.561  0.4618 -0.0877  0.5269
  940SOL     OW 3804   3.868   4.443   1.484 -0.4632 -0.0610  0.7257
  940SOL    HW2 3805   3.782   4.402   1.494 -0.4365 -0.1794  0.4775
  940SOL    HW3 3806   3.856   4.533   1.515 -0.7609  0.0203  0.3826
  940SOL    MW4 3807   3.855   4.449   1.489 -0.4992 -0.0653  0.6477
  941SOL     OW 3808   4.287   4.659   1.576 -0.2160  0.3530 -0.1521
  941SOL    HW2 3809   4.279   4.647   1.671  1.9644 -0.3653 -0.0381
  941SOL    HW3 3810   4.281   4.570   1.541 -1.7778  0.6859 -0.7701
  941SOL    MW4 3811   4.285   4.645   1.584 -0.1345  0.3018 -0.2185
  942SOL     OW 3812   4.031   0.110   1.485  0.1225  0.2562  0.5658
  942SOL    HW2 3813   4.050   0.198   1.515  1.0271  0.6610 -1.1390
  942SOL    HW3 3814   4.111   0.061   1.501  1.1673  0.8630 -2.5356
  942SOL    MW4 3815   4.044   0.115   1.491  0.3805  0.3897 -0.0684
  943SOL     OW 3816   4.056   0.358   1.614  0.1216  0.2081 -0.2353
  943SOL    HW2 3817   4.041   0.365   1.708  1.0256  1.2405 -0.1602
  943SOL    HW3 3818   3.977   0.394   1.574  0.2534  0.9120  0.1347
  943SOL    MW4 3819   4.044   0.363   1.621  0.2584  0.4372 -0.1767
  944SOL     OW 3820   4.250   0.502   1.477  0.2654  0.3653  0.7559
  944SOL    HW2 3821   4.189   0.455   1.533 -0.7717  0.1593 -0.5135
  944SOL    HW3 3822   4.336   0.466   1.499 -0.1739 -0.0147  1.8846
  944SOL    MW4 3823   4.254   0.491   1.487  0.0710  0.2880  0.7372
  945SOL     OW 3824   4.315   0.747   1.597  0.2818 -0.4625 -0.0851
  945SOL    HW2 3825   4.277   0.679   1.540 -0.7728  0.0714 -0.0342
  945SOL    HW3 3826   4.354   0.810   1.537 -1.4537  0.4709 -0.2813
  945SOL    MW4 3827   4.315   0.746   1.581 -0.0868 -0.2689 -0.1043
  946SOL     OW 3828   4.054   0.862   1.521  0.4845  0.1011  0.0690
  946SOL    HW2 3829   4.110   0.821   1.586  0.8034  0.9031  0.2987
  946SOL    HW3 3830   3.970   0.817   1.530  0.3209  0.6733  1.5017
  946SOL    MW4 3831   4.050   0.851   1.530  0.5045  0.2824  0.2884
  947SOL     OW 3832   4.025   1.126   1.584 -0.3326 -0.2002  0.2523
  947SOL    HW2 3833   4.044   1.146   1.675  3.0327  0.6100 -0.5634
  947SOL    HW3 3834   4.032   1.031   1.578  1.6502 -0.0776  0.4043
  947SOL    MW4 3835   4.029   1.116   1.595  0.3734 -0.0771  0.1647
  948SOL     OW 3836   4.241   1.251   1.445 -0.0654 -0.2680 -0.0840
  948SOL    HW2 3837   4.166   1.217   1.494  0.0487  0.4927  0.6446
  948SOL    HW3 3838   4.316   1.231   1.501  0.0603  0.6844  0.0879
  948SOL    MW4 3839   4.241   1.244   1.459 -0.0334 -0.0420  0.0348
  949SOL     OW 3840   4.244   1.483   1.569 -0.5548  0.2831 -0.0118
  949SOL    HW2 3841   4.239   1.400   1.522  0.2475 -0.3038  0.9192
  949SOL    HW3 3842   4.319   1.528   1.531  0.8944 -0.7505  1.5616
  949SOL    MW4 3843   4.253   1.478   1.558 -0.2580  0.0693  0.3184
  950SOL     OW 3844   4.040   1.657   1.487  0.4678 -0.0544 -0.1254
  950SOL    HW2 3845   4.113   1.606   1.520  0.8646 -0.1259 -1.1081
  950SOL    HW3 3846   3.962   1.607   1.512  0.8497 -1.1228 -1.0215
  950SOL    MW4 3847   4.039   1.644   1.494  0.5708 -0.2047 -0.3734
  951SOL     OW 3848   4.025   1.911   1.603  0.1828  0.3616  0.0375
  951SOL    HW2 3849   4.026   1.826   1.560  1.0146  1.0034 -1.2496
  951SOL    HW3 3850   3.956   1.960   1.558  2.0263  1.5307 -1.6186
  951SOL    MW4 3851   4.016   1.906   1.591  0.5355  0.6005 -0.3508
  952SOL     OW 3852   4.237   2.064   1.524 -0.0791 -0.0642  0.3874
  952SOL    HW2 3853   4.161   2.008   1.541  0.0376 -0.2632  0.2536
  952SOL    HW3 3854   4.242   2.070   1.429 -1.6742  2.3320  0.4094
  952SOL    MW4 3855   4.227   2.057   1.514 -0.2742  0.2258  0.3726
  953SOL     OW 3856   4.254   2.315   1.617  0.4789 -0.0410 -0.0982
  953SOL    HW2 3857   4.239   2.338   1.709  0.1515  0.5684 -0.2953
  953SOL    HW3 3858   4.246   2.220   1.614  1.6787 -0.1762  0.7189
  953SOL    MW4 3859   4.251   2.306   1.629  0.5937  0.0219 -0.0163
  954SOL     OW 3860   4.026   2.411   1.482  0.5484  0.1523 -0.2843
  954SOL    HW2 3861   4.027   2.498   1.521  0.2751 -0.9237  2.2505
  954SOL    HW3 3862   4.101   2.366   1.521 -1.1013 -1.7188  0.8759
  954SOL    MW4 3863   4.036   2.416   1.492  0.2947 -0.2367  0.2031
  955SOL     OW 3864   4.024   2.671   1.645  0.5949 -0.3555 -0.1761
  955SOL    HW2 3865   4.040   2.690   1.738  0.3887 -1.3930  0.0769
  955SOL    HW3 3866   4.096   2.713   1.599  0.0186  1.2513  0.3418
  955SOL    MW4 3867   4.035   2.679   1.651  0.4911 -0.2804 -0.0744
  956SOL     OW 3868   4.232   2.816   1.531 -1.0606 -0.3052  0.0428
  956SOL    HW2 3869   4.245   2.905   1.562 -0.4485 -0.9650  1.7929
  956SOL    HW3 3870   4.249   2.820   1.437  0.3988  1.1391  0.3467
  956SOL    MW4 3871   4.236   2.828   1.523 -0.7873 -0.2015  0.3138
  957SOL     OW 3872   4.272   3.075   1.628  0.1630 -0.2998 -0.1642
  957SOL    HW2 3873   4.277   3.067   1.723 -0.9310  0.4473 -0.0289
  957SOL    HW3 3874   4.356   3.114   1.603  0.4587 -0.5073  0.4940
  957SOL    MW4 3875   4.284   3.079   1.637  0.0577 -0.2284 -0.0595
  958SOL     OW 3876   4.049   3.203   1.514 -0.1613 -0.0449 -0.4451
  958SOL    HW2 3877   4.054   3.297   1.531 -1.1069 -0.0764  0.0429
  958SOL    HW3 3878   4.122   3.166   1.564 -1.3994  0.1462  1.5820
  958SOL    MW4 3879   4.059   3.210   1.523 -0.4487 -0.0236 -0.1132
  959SOL     OW 3880   4.049   3.474   1.581 -0.5675 -0.3608  0.1167
  959SOL    HW2 3881   4.056   3.485   1.676 -0.3397  0.3469  0.0174
  959SOL    HW3 3882   4.126   3.519   1.545 -1.5608  0.8908 -0.5012
  959SOL    MW4 3883   4.060   3.481   1.589 -0.6685 -0.1025  0.0221
  960SOL     OW 3884   4.255   3.597   1.459 -0.0314 -0.2490 -0.2467
  960SOL    HW2 3885   4.274   3.688   1.481 -0.3071  0.0287 -1.1223
  960SOL    HW3 3886   4.274   3.591   1.365 -0.7820 -0.8935 -0.3622
  960SOL    MW4 3887   4.260   3.608   1.449 -0.1669 -0.2973 -0.3775
  961SOL     OW 3888   4.291   3.854   1.587 -0.3380  0.5955 -0.3296
  961SOL    HW2 3889   4.203   3.880   1.560  0.0839  1.2714 -1.0578
  961SOL    HW3 3890   4.349   3.906   1.532  0.5284 -1.2696 -1.1953
  961SOL    MW4 3891   4.287   3.865   1.577 -0.1674  0.4385 -0.5400
  962SOL     OW 3892   4.048   3.986   1.529 -0.0602 -0.2895  1.0949
  962SOL    HW2 3893   4.048   4.081   1.546  0.9241  0.0838 -0.8436
  962SOL    HW3 3894   4.062   3.979   1.434 -1.8152 -2.3460  0.9684
  962SOL    MW4 3895   4.050   3.998   1.519 -0.1621 -0.5119  0.8225
  963SOL     OW 3896   4.054   4.255   1.567  0.4325  0.1064  0.0203
  963SOL    HW2 3897   4.001   4.331   1.545  0.0131 -0.3199 -0.4552
  963SOL    HW3 3898   4.054   4.251   1.663  0.9666  1.0629  0.0592
  963SOL    MW4 3899   4.047   4.264   1.577  0.4482  0.1764 -0.0372
  964SOL     OW 3900   4.293   4.394   1.487  0.0517 -0.0153  0.3374
  964SOL    HW2 3901   4.212   4.352   1.514  0.5781 -1.8116 -0.7738
  964SOL    HW3 3902   4.290   4.391   1.391  1.5278 -0.3362  0.2854
  964SOL    MW4 3903   4.282   4.388   1.478  0.3157 -0.2942  0.1839
  965SOL     OW 3904   0.199   4.646   1.870 -0.1810 -0.1312  0.2438
  965SOL    HW2 3905   0.270   4.703   1.899 -1.9213  1.8753  0.7096
  965SOL    HW3 3906   0.204   4.649   1.775  0.7174 -0.4706  0.2763
  965SOL    MW4 3907   0.209   4.654   1.861 -0.2921  0.0892  0.3097
  966SOL     OW 3908   4.490   0.097   2.004 -0.1250 -0.4098 -0.1771
  966SOL    HW2 3909   4.498   0.184   1.966 -2.5848 -0.7891 -1.6314
  966SOL    HW3 3910   4.551   0.044   1.953 -1.5317 -0.3612 -1.9738
  966SOL    MW4 3911   4.499   0.101   1.992 -0.6352 -0.4534 -0.6058
  967SOL     OW 3912   4.467   0.355   1.894  0.3374 -0.6302  0.0733
  967SOL    HW2 3913   4.393   0.411   1.918  0.8255 -0.2500  0.6912
  967SOL    HW3 3914   4.544   0.404   1.920  0.8110 -1.1005 -0.4177
  967SOL    MW4 3915   4.467   0.369   1.900  0.4644 -0.6421  0.0901
  968SOL     OW 3916   0.195   0.488   1.980 -0.4797  0.2562 -0.1377
  968SOL    HW2 3917   0.272   0.441   1.949 -1.2649 -0.6222 -0.7799
  968SOL    HW3 3918   0.214   0.580   1.959  1.1871  0.3016  1.4082
  968SOL    MW4 3919   0.208   0.494   1.973 -0.3633  0.1463 -0.0186
  969SOL     OW 3920   0.253   0.751   1.884  0.2501 -0.2527 -0.0657
  969SOL    HW2 3921   0.337   0.784   1.918  0.5504 -0.6932 -0.3670
  969SOL    HW3 3922   0.262   0.758   1.789 -0.6034  1.0235 -0.0535
  969SOL    MW4 3923   0.266   0.756   1.876  0.1771 -0.1424 -0.1038
  970SOL     OW 3924   0.055   0.888   1.992  0.4611  0.5941  0.0209
  970SOL    HW2 3925  -0.026   0.850   1.960 -0.1884  1.3499  0.7613
  970SOL    HW3 3926   0.124   0.840   1.945 -0.3376 -1.2536  0.6586
  970SOL    MW4 3927   0.054   0.876   1.982  0.2700  0.4501  0.2028
  971SOL     OW 3928   0.053   1.125   1.849  0.0703  0.2083  0.3641
  971SOL    HW2 3929  -0.021   1.182   1.871 -1.3986 -1.0109 -1.2476
  971SOL    HW3 3930   0.043   1.049   1.907 -0.2963 -0.2303 -0.2699
  971SOL    MW4 3931   0.042   1.122   1.860 -0.1719 -0.0105  0.0677
  972SOL     OW 3932   0.268   1.272   1.941  0.1080  0.1217 -0.2728
  972SOL    HW2 3933   0.292   1.359   1.909  2.4512  0.1891  1.5437
  972SOL    HW3 3934   0.199   1.243   1.881  0.1319  2.7130 -1.6423
  972SOL    MW4 3935   0.262   1.280   1.929  0.4203  0.4725 -0.2139
  973SOL     OW 3936   0.284   1.549   1.858  0.2485  0.1067 -0.1406
  973SOL    HW2 3937   0.353   1.600   1.900  1.1008 -0.7126 -0.5267
  973SOL    HW3 3938   0.203   1.589   1.888  0.8759  0.5709  0.9677
  973SOL    MW4 3939   0.283   1.561   1.867  0.4438  0.0598 -0.0454
  974SOL     OW 3940   0.034   1.666   1.949 -0.3001  0.0200  0.2542
  974SOL    HW2 3941   0.015   1.678   2.042  1.9970 -1.3673  0.9569
  974SOL    HW3 3942  -0.045   1.624   1.913 -0.2853 -1.6173  2.0895
  974SOL    MW4 3943   0.021   1.662   1.956  0.0048 -0.3790  0.5891
  975SOL     OW 3944   0.004   1.948   1.896 -0.2683  0.0868  0.1822
  975SOL    HW2 3945  -0.074   1.995   1.928  0.4033  0.3744  1.4266
  975SOL    HW3 3946  -0.009   1.858   1.926  0.5937  0.4607  1.7120
  975SOL    MW4 3947  -0.008   1.942   1.904 -0.0661  0.1742  0.5482
  976SOL     OW 3948   0.251   2.066   1.889 -0.8130  0.2368 -0.0287
  976SOL    HW2 3949   0.241   2.156   1.860 -0.2431  0.7747  1.4240
  976SOL    HW3 3950   0.161   2.037   1.908 -0.9957  0.4636 -0.5207
  976SOL    MW4 3951   0.238   2.074   1.887 -0.7620  0.3378  0.0981
  977SOL     OW 3952   0.209   2.351   1.831  0.0535 -0.0289  0.0960
  977SOL    HW2 3953   0.286   2.384   1.879 -0.7989  1.7205  0.3152
  977SOL    HW3 3954   0.135   2.397   1.871 -0.8661  0.0061 -1.6136
  977SOL    MW4 3955   0.210   2.361   1.842 -0.1803  0.2065 -0.1006
  978SOL     OW 3956   4.480   2.475   1.967  0.0075 -0.4712  0.1765
  978SOL    HW2 3957   4.474   2.469   2.062 -0.3989 -0.3631  0.1593
  978SOL    HW3 3958   4.470   2.569   1.948 -0.9683 -0.6119 -0.0400
  978SOL    MW4 3959   4.478   2.487   1.977 -0.1745 -0.4756  0.1456
  979SOL     OW 3960   4.468   2.726   1.888  0.4442 -0.2401 -0.0865
  979SOL    HW2 3961   4.411   2.770   1.951  0.0904  0.5162 -0.9320
  979SOL    HW3 3962   4.557   2.749   1.916  0.3339 -0.9159  0.8607
  979SOL    MW4 3963   4.472   2.735   1.900  0.3829 -0.2296 -0.0731
  980SOL     OW 3964   0.210   2.840   1.964 -0.2755 -0.0950  0.2119
  980SOL    HW2 3965   0.206   2.926   1.924 -0.0608  0.0239  0.4434
  980SOL    HW3 3966   0.290   2.800   1.929 -0.9336 -0.6071 -0.7051
  980SOL    MW4 3967   0.220   2.846   1.954 -0.3340 -0.1469  0.1216
  981SOL     OW 3968   0.227   3.114   1.860 -0.3594  0.1105 -0.0782
  981SOL    HW2 3969   0.314   3.137   1.892 -0.8155  0.3805  0.9669
  981SOL    HW3 3970   0.236   3.113   1.765  1.0808 -1.0007  0.0488
  981SOL    MW4 3971   0.239   3.117   1.852 -0.2296 -0.0005  0.0763
  982SOL     OW 3972   4.484   3.235   1.979  0.2050  0.1725 -0.5646
  982SOL    HW2 3973   4.410   3.178   1.958 -0.8934  1.3617 -0.0196
  982SOL    HW3 3974   4.557   3.199   1.930 -0.8567 -0.7445 -1.4978
  982SOL    MW4 3975   4.483   3.223   1.970 -0.0800  0.2084 -0.6158
  983SOL     OW 3976   4.447   3.488   1.867 -0.2996  0.4159 -0.4301
  983SOL    HW2 3977   4.531   3.520   1.900  0.6080 -0.0585 -2.2106
  983SOL    HW3 3978   4.440   3.399   1.903 -0.5885  0.8569  0.6353
  983SOL    MW4 3979   4.457   3.480   1.876 -0.2174  0.4117 -0.5244
  984SOL     OW 3980   0.197   3.601   1.980 -0.1569  0.1119 -0.4546
  984SOL    HW2 3981   0.207   3.594   2.075 -1.9999 -0.1209 -0.2552
  984SOL    HW3 3982   0.265   3.544   1.944  1.4090  1.2166  0.6818
  984SOL    MW4 3983   0.207   3.593   1.988 -0.1934  0.2270 -0.2782
  985SOL     OW 3984   0.177   3.841   1.842  0.1899  0.2273  0.0706
  985SOL    HW2 3985   0.252   3.880   1.887  1.1649  0.7011 -1.9134
  985SOL    HW3 3986   0.175   3.750   1.872  1.5345  0.2294  0.1920
  985SOL    MW4 3987   0.186   3.834   1.852  0.4959  0.2904 -0.1750
  986SOL     OW 3988   4.479   4.016   1.948  0.6438  0.2195  0.1812
  986SOL    HW2 3989   4.479   4.103   1.908 -0.7295  1.2848  2.4114
  986SOL    HW3 3990   4.545   3.967   1.899 -0.0370  1.8557 -2.5078
  986SOL    MW4 3991   4.487   4.021   1.936  0.3724  0.5755  0.1206
  987SOL     OW 3992   0.012   4.272   1.847 -0.5232 -0.2240 -0.3130
  987SOL    HW2 3993  -0.065   4.325   1.867 -0.8952 -1.1566  0.7912
  987SOL    HW3 3994   0.083   4.313   1.897 -0.2057  0.8488 -1.6100
  987SOL    MW4 3995   0.011   4.284   1.856 -0.5304 -0.2055 -0.3384
  988SOL     OW 3996   0.247   4.396   1.964 -0.0735  0.1310 -0.4053
  988SOL    HW2 3997   0.238   4.394   2.059 -1.4228 -0.6013 -0.5411
  988SOL    HW3 3998   0.237   4.488   1.941  1.1539  0.4414  0.2302
  988SOL    MW4 3999   0.245   4.408   1.974 -0.0896  0.0753 -0.3394
  989SOL     OW 4000   0.664   4.645   1.869  0.5666  0.0032 -0.2640
  989SOL    HW2 4001   0.671   4.551   1.881 -0.6272 -0.2593 -1.4195
  989SOL    HW3 4002   0.679   4.658   1.775 -0.2105  0.8429 -0.2814
  989SOL    MW4 4003   0.667   4.634   1.858  0.3065  0.0792 -0.4187
  990SOL     OW 4004   0.427   0.099   1.975 -0.0132  0.2799  0.2343
  990SOL    HW2 4005   0.439   0.193   1.961 -0.4472  0.1690 -0.9181
  990SOL    HW3 4006   0.498   0.057   1.925  0.4291 -0.0014  1.0753
  990SOL    MW4 4007   0.438   0.106   1.966 -0.0121  0.2281  0.1932
  991SOL     OW 4008   0.437   0.364   1.869 -0.5648  0.5410  0.1247
  991SOL    HW2 4009   0.506   0.428   1.884 -0.0429  0.1580 -0.6414
  991SOL    HW3 4010   0.432   0.355   1.774  0.3092 -1.5667  0.2581
  991SOL    MW4 4011   0.445   0.371   1.859 -0.3806  0.2124  0.0412
  992SOL     OW 4012   0.677   0.527   1.990  0.0709  0.2588 -0.2448
  992SOL    HW2 4013   0.669   0.508   2.084  1.3005 -0.9309 -0.3641
  992SOL    HW3 4014   0.754   0.477   1.962  0.2292  1.2932 -1.7079
  992SOL    MW4 4015   0.686   0.518   1.999  0.2540  0.2382 -0.4537
  993SOL     OW 4016   0.667   0.778   1.888  0.0034  0.4261 -0.3079
  993SOL    HW2 4017   0.755   0.810   1.907 -0.2140  0.2018  1.1371
  993SOL    HW3 4018   0.664   0.691   1.928 -1.1397  0.7755  0.3799
  993SOL    MW4 4019   0.678   0.771   1.896 -0.1761  0.4426 -0.0265
  994SOL     OW 4020   0.486   0.943   2.033  0.2991  0.0655  0.3918
  994SOL    HW2 4021   0.476   1.011   1.966  0.2791 -0.0348  0.2939
  994SOL    HW3 4022   0.555   0.887   2.001  0.5765  0.2546  0.6549
  994SOL    MW4 4023   0.494   0.945   2.020  0.3331  0.0772  0.4134
  995SOL     OW 4024   0.486   1.129   1.836  0.4023  0.5162  0.1715
  995SOL    HW2 4025   0.403   1.164   1.870 -0.3474 -0.1351 -0.9559
  995SOL    HW3 4026   0.480   1.141   1.741  2.1908  1.7127  0.2034
  995SOL    MW4 4027   0.474   1.135   1.828  0.5393  0.5881  0.0271
  996SOL     OW 4028   0.707   1.270   1.975  0.2516 -0.0371 -0.3416
  996SOL    HW2 4029   0.709   1.263   2.070 -0.5713  0.2274 -0.3035
  996SOL    HW3 4030   0.630   1.218   1.948 -2.1655  3.4867 -0.5292
  996SOL    MW4 4031   0.697   1.262   1.984 -0.1759  0.4628 -0.3613
  997SOL     OW 4032   0.673   1.526   1.882 -0.6660  0.2245  0.6214
  997SOL    HW2 4033   0.688   1.435   1.907 -0.0619  0.3649  0.7819
  997SOL    HW3 4034   0.681   1.527   1.787  0.0167  0.2373  0.6796
  997SOL    MW4 4035   0.676   1.514   1.873 -0.4962  0.2447  0.6502
  998SOL     OW 4036   0.468   1.688   1.983  0.0790  0.2543  0.0760
  998SOL    HW2 4037   0.455   1.655   2.072  2.0330 -1.4313 -0.2339
  998SOL    HW3 4038   0.543   1.639   1.950 -2.1010 -0.9145 -3.4192
  998SOL    MW4 4039   0.476   1.677   1.991  0.0492 -0.1224 -0.4261
  999SOL     OW 4040   0.488   1.946   1.841 -0.4796  0.1222  0.1016
  999SOL    HW2 4041   0.467   1.867   1.890 -2.3724 -0.0752 -0.9856
  999SOL    HW3 4042   0.414   2.004   1.856 -0.8394  0.2730 -2.0581
  999SOL    MW4 4043   0.476   1.944   1.849 -0.7768  0.1161 -0.3269
 1000SOL     OW 4044   0.678   2.060   1.992  0.1903  0.0321  0.2874
 1000SOL    HW2 4045   0.692   2.034   2.083  1.3721  1.9127  0.6695
 1000SOL    HW3 4046   0.594   2.020   1.968  0.3895 -1.3845  1.8416
 1000SOL    MW4 4047   0.669   2.051   2.001  0.3725  0.0935  0.5426
 1001SOL     OW 4048   0.662   2.331   1.877  0.2366 -0.2289 -0.2046
 1001SOL    HW2 4049   0.658   2.237   1.897  0.6314 -0.1807  0.0986
 1001SOL    HW3 4050   0.666   2.335   1.781 -2.7636 -0.4361 -0.3898
 1001SOL    MW4 4051   0.662   2.319   1.867 -0.1072 -0.2501 -0.1889
 1002SOL     OW 4052   0.423   2.482   1.959  0.4986 -0.7163 -0.4875
 1002SOL    HW2 4053   0.429   2.483   2.055  2.3252  1.5642 -0.5727
 1002SOL    HW3 4054   0.503   2.437   1.931 -0.1138 -1.5194 -0.9543
 1002SOL    MW4 4055   0.435   2.476   1.968  0.6588 -0.5214 -0.5605
 1003SOL     OW 4056   0.427   2.741   1.851  0.1488  0.3021  0.0555
 1003SOL    HW2 4057   0.420   2.650   1.880 -1.1622  1.0807  2.2559
 1003SOL    HW3 4058   0.504   2.776   1.896  0.3639  0.4338 -0.4069
 1003SOL    MW4 4059   0.436   2.734   1.860  0.0042  0.4222  0.2849
 1004SOL     OW 4060   0.684   2.826   1.994  0.2226 -0.3979 -0.2489
 1004SOL    HW2 4061   0.694   2.821   2.089  1.1576  0.2671 -0.3151
 1004SOL    HW3 4062   0.754   2.771   1.960 -1.6227 -2.6484 -0.5105
 1004SOL    MW4 4063   0.694   2.818   2.002  0.1024 -0.6070 -0.2923
 1005SOL     OW 4064   0.701   3.083   1.866 -0.1899  0.2228  0.1660
 1005SOL    HW2 4065   0.687   2.999   1.909  1.6526 -0.4778 -0.6029
 1005SOL    HW3 4066   0.726   3.062   1.777 -1.1219  1.6265 -0.4509
 1005SOL    MW4 4067   0.702   3.069   1.860 -0.0697  0.3154 -0.0168
 1006SOL     OW 4068   0.468   3.192   1.954 -0.0896  0.3150  0.0549
 1006SOL    HW2 4069   0.476   3.283   1.927  0.0663  0.4118  0.4145
 1006SOL    HW3 4070   0.549   3.150   1.923 -0.0343  0.3640  0.1319
 1006SOL    MW4 4071   0.480   3.198   1.947 -0.0618  0.3340  0.1125
 1007SOL     OW 4072   0.415   3.453   1.898  0.2039 -0.1190 -0.2344
 1007SOL    HW2 4073   0.482   3.513   1.931 -0.4942  0.6127 -0.1207
 1007SOL    HW3 4074   0.423   3.458   1.803  0.6860 -0.4691 -0.2143
 1007SOL    MW4 4075   0.425   3.461   1.890  0.1754 -0.0687 -0.2166
 1008SOL     OW 4076   0.680   3.601   1.980 -0.1873  0.0072  0.1184
 1008SOL    HW2 4077   0.749   3.554   1.933  1.1579  0.4258  1.6164
 1008SOL    HW3 4078   0.677   3.688   1.939  1.0474  0.4039  0.8343
 1008SOL    MW4 4079   0.689   3.606   1.968  0.1531  0.1149  0.4104
 1009SOL     OW 4080   0.648   3.864   1.898  0.0209 -0.3556 -0.1415
 1009SOL    HW2 4081   0.724   3.915   1.928 -0.1974  0.3875 -0.8207
 1009SOL    HW3 4082   0.662   3.853   1.805 -0.2858 -0.9498 -0.1150
 1009SOL    MW4 4083   0.660   3.869   1.890 -0.0483 -0.3359 -0.2277
 1010SOL     OW 4084   0.394   3.954   1.956  0.1278 -0.1971  0.5885
 1010SOL    HW2 4085   0.420   4.040   1.925  0.2621 -0.9827 -1.5752
 1010SOL    HW3 4086   0.472   3.900   1.948 -0.4080 -0.9448  0.2992
 1010SOL    MW4 4087   0.407   3.958   1.951  0.0748 -0.3994  0.2649
 1011SOL     OW 4088   0.469   4.233   1.871 -0.0919 -0.3620  0.0506
 1011SOL    HW2 4089   0.404   4.300   1.891  1.1612  1.0380 -0.4622
 1011SOL    HW3 4090   0.472   4.231   1.775 -0.2166 -1.2481  0.0620
 1011SOL    MW4 4091   0.461   4.241   1.861  0.0570 -0.2942 -0.0156
 1012SOL     OW 4092   0.666   4.375   1.965  0.1732  0.5426  0.1768
 1012SOL    HW2 4093   0.743   4.323   1.945  0.7600  1.1291  0.9199
 1012SOL    HW3 4094   0.593   4.326   1.926  0.9784  0.2797 -1.0228
 1012SOL    MW4 4095   0.666   4.362   1.957  0.3569  0.5860  0.1166
 1013SOL     OW 4096   1.106   4.664   1.912  0.5017  0.2378 -0.0226
 1013SOL    HW2 4097   1.180   4.717   1.941  1.2463 -0.7116 -0.1407
 1013SOL    HW3 4098   1.132   4.574   1.932  0.5243 -0.3452 -2.4850
 1013SOL    MW4 4099   1.119   4.659   1.918  0.6028  0.0358 -0.3629
 1014SOL     OW 4100   0.883   0.120   1.995  0.1552 -0.1885 -0.0063
 1014SOL    HW2 4101   0.955   0.083   1.944 -0.4867 -0.7839 -0.5039
 1014SOL    HW3 4102   0.804   0.092   1.947 -0.4087  0.2067  0.6899
 1014SOL    MW4 4103   0.882   0.111   1.982 -0.0038 -0.2149  0.0199
 1015SOL     OW 4104   0.884   0.381   1.910 -0.2799 -0.1651  0.1253
 1015SOL    HW2 4105   0.970   0.411   1.938  0.2649  0.1338 -1.8266
 1015SOL    HW3 4106   0.878   0.291   1.944 -0.6861  1.0001  3.3462
 1015SOL    MW4 4107   0.894   0.373   1.918 -0.2617  0.0280  0.2928
 1016SOL     OW 4108   1.134   0.470   1.966  0.0493  0.2900 -0.4419
 1016SOL    HW2 4109   1.216   0.433   1.934  0.8405  1.9121 -0.3411
 1016SOL    HW3 4110   1.135   0.561   1.937 -1.0955  0.6901  0.6981
 1016SOL    MW4 4111   1.145   0.477   1.958  0.0027  0.5568 -0.2782
 1017SOL     OW 4112   1.156   0.740   1.877 -0.3293  0.7517  0.0218
 1017SOL    HW2 4113   1.228   0.792   1.912  0.7080 -0.2609 -0.5674
 1017SOL    HW3 4114   1.077   0.777   1.917  0.6702  0.7353  2.0487
 1017SOL    MW4 4115   1.155   0.751   1.887 -0.0607  0.6160  0.2116
 1018SOL     OW 4116   0.933   0.866   1.981 -0.0828 -0.3666  0.4383
 1018SOL    HW2 4117   0.910   0.863   2.074 -2.4289  1.0972 -0.0394
 1018SOL    HW3 4118   0.935   0.960   1.961  0.9513 -0.6660 -0.8547
 1018SOL    MW4 4119   0.930   0.878   1.991 -0.2559 -0.2130  0.2046
 1019SOL     OW 4120   0.914   1.132   1.885  0.4944 -0.3777  0.5014
 1019SOL    HW2 4121   0.841   1.178   1.927  1.4319  1.5671  0.0830
 1019SOL    HW3 4122   0.889   1.125   1.793  0.9993  0.6562  0.2797
 1019SOL    MW4 4123   0.901   1.137   1.879  0.6847  0.0154  0.4168
 1020SOL     OW 4124   1.131   1.264   1.971 -0.0373 -0.1650 -0.0484
 1020SOL    HW2 4125   1.119   1.349   1.928  0.2311  0.5044  1.1646
 1020SOL    HW3 4126   1.062   1.208   1.934  0.7148  0.1313 -1.9461
 1020SOL    MW4 4127   1.120   1.268   1.961  0.0974 -0.0377 -0.1388
 1021SOL     OW 4128   1.109   1.525   1.874  0.0267 -0.6343 -0.6993
 1021SOL    HW2 4129   1.045   1.575   1.926  0.8156  0.6858 -0.9902
 1021SOL    HW3 4130   1.076   1.530   1.785  0.8750  0.6085 -0.9527
 1021SOL    MW4 4131   1.096   1.532   1.869  0.2426 -0.2962 -0.7710
 1022SOL     OW 4132   0.893   1.666   1.985  0.0833  0.2435  0.2757
 1022SOL    HW2 4133   0.902   1.752   1.944 -1.1281  0.6113  0.7393
 1022SOL    HW3 4134   0.823   1.623   1.936  0.6852 -0.4826  0.0458
 1022SOL    MW4 4135   0.885   1.672   1.973  0.0029  0.1961  0.3065
 1023SOL     OW 4136   0.898   1.938   1.878 -0.0181  0.1898 -0.6068
 1023SOL    HW2 4137   0.810   1.961   1.908  0.4778  0.4430  0.6761
 1023SOL    HW3 4138   0.896   1.955   1.784 -0.8472  1.7673 -0.3242
 1023SOL    MW4 4139   0.886   1.944   1.870 -0.0620  0.4314 -0.4002
 1024SOL     OW 4140   1.152   2.025   1.981  0.2372  0.2167  0.1754
 1024SOL    HW2 4141   1.143   2.108   1.933  0.2177 -0.3455 -0.7912
 1024SOL    HW3 4142   1.067   1.983   1.972  0.3482 -0.0538  0.4010
 1024SOL    MW4 4143   1.140   2.031   1.974  0.2493  0.1068  0.0776
 1025SOL     OW 4144   1.139   2.315   1.882  0.0176  0.0074 -0.3870
 1025SOL    HW2 4145   1.207   2.368   1.923  1.6040 -0.5829 -2.1697
 1025SOL    HW3 4146   1.165   2.310   1.789 -1.0063 -2.4190 -0.5889
 1025SOL    MW4 4147   1.152   2.321   1.875  0.0918 -0.3905 -0.6489
 1026SOL     OW 4148   0.905   2.454   1.970  1.0221  0.0934 -0.1871
 1026SOL    HW2 4149   0.972   2.399   1.930 -0.1655 -0.6296 -1.2087
 1026SOL    HW3 4150   0.823   2.422   1.933 -0.1218 -0.6503  2.9167
 1026SOL    MW4 4151   0.903   2.443   1.960  0.7144 -0.0999  0.0876
 1027SOL     OW 4152   0.914   2.709   1.854  0.0960  0.2542  0.2192
 1027SOL    HW2 4153   0.921   2.615   1.873 -0.9477  0.1742  0.2278
 1027SOL    HW3 4154   0.979   2.749   1.911  0.2359 -0.4296  0.5524
 1027SOL    MW4 4155   0.923   2.702   1.864 -0.0232  0.1538  0.2645
 1028SOL     OW 4156   1.157   2.834   1.992  0.1623  0.4433 -0.2977
 1028SOL    HW2 4157   1.149   2.811   2.084  0.5701 -0.0905 -0.3945
 1028SOL    HW3 4158   1.224   2.775   1.958 -1.0638 -0.4244 -1.2938
 1028SOL    MW4 4159   1.165   2.823   2.000  0.0545  0.2584 -0.4421
 1029SOL     OW 4160   1.149   3.071   1.844 -0.6202  0.2800  0.3415
 1029SOL    HW2 4161   1.070   3.116   1.874  0.2716  1.4206  1.0229
 1029SOL    HW3 4162   1.153   2.991   1.897 -1.2213  0.2899  0.4072
 1029SOL    MW4 4163   1.139   3.066   1.855 -0.5819  0.4318  0.4401
 1030SOL     OW 4164   0.929   3.208   1.968  0.3131  0.0772  0.1350
 1030SOL    HW2 4165   0.925   3.210   2.063 -0.4798  0.1570  0.1054
 1030SOL    HW3 4166   0.841   3.183   1.940 -0.2566  2.7133 -0.6463
 1030SOL    MW4 4167   0.917   3.205   1.977  0.1334  0.4354  0.0280
 1031SOL     OW 4168   0.904   3.468   1.875 -0.3707  0.3082  0.8495
 1031SOL    HW2 4169   0.938   3.383   1.904  1.1875  0.2729 -0.9743
 1031SOL    HW3 4170   0.901   3.461   1.779  0.9623  2.7212  0.5752
 1031SOL    MW4 4171   0.908   3.456   1.866  0.0107  0.6223  0.5727
 1032SOL     OW 4172   1.128   3.597   1.939 -0.0432 -0.1459  0.3029
 1032SOL    HW2 4173   1.049   3.551   1.911  0.2445 -0.4711  0.0233
 1032SOL    HW3 4174   1.128   3.588   2.034 -0.3555 -0.1258  0.3056
 1032SOL    MW4 4175   1.117   3.589   1.948 -0.0464 -0.1862  0.2663
 1033SOL     OW 4176   1.132   3.850   1.827 -0.6335 -0.2295 -0.1408
 1033SOL    HW2 4177   1.135   3.762   1.866  2.0074 -0.5508 -0.9784
 1033SOL    HW3 4178   1.122   3.835   1.733 -1.0714  0.3902 -0.1966
 1033SOL    MW4 4179   1.131   3.836   1.820 -0.3427 -0.1903 -0.2587
 1034SOL     OW 4180   0.905   3.987   1.953 -0.3389 -0.0421  0.2163
 1034SOL    HW2 4181   0.922   3.989   2.047 -1.1722  1.1584  0.3501
 1034SOL    HW3 4182   0.971   3.926   1.918 -0.0973 -0.5820  1.5772
 1034SOL    MW4 4183   0.916   3.979   1.961 -0.4169  0.0448  0.4135
 1035SOL     OW 4184   0.909   4.251   1.868  0.0808  0.0494  0.3544
 1035SOL    HW2 4185   0.974   4.291   1.926  1.8715 -1.3984 -0.5746
 1035SOL    HW3 4186   0.884   4.170   1.912 -2.2938  1.3100  1.4336
 1035SOL    MW4 4187   0.915   4.246   1.881  0.0038  0.0248  0.3742
 1036SOL     OW 4188   1.161   4.388   1.979  0.0085  0.0761 -0.7806
 1036SOL    HW2 4189   1.169   4.367   2.072 -0.2159 -1.1001 -1.0125
 1036SOL    HW3 4190   1.239   4.350   1.939  0.4364  1.1634 -0.9814
 1036SOL    MW4 4191   1.172   4.380   1.986  0.0354  0.0653 -0.8376
 1037SOL     OW 4192   1.571   4.618   1.592  0.4501 -0.3983  0.2404
 1037SOL    HW2 4193   1.489   4.658   1.562  2.0872  1.5500 -1.7712
 1037SOL    HW3 4194   1.557   4.603   1.686 -1.9858  0.4308  0.0473
 1037SOL    MW4 4195   1.558   4.622   1.600  0.3448 -0.0319 -0.0504
 1038SOL     OW 4196   1.548   4.651   1.866  0.4202  0.2760 -0.3033
 1038SOL    HW2 4197   1.574   4.568   1.908  1.6812  0.6614 -0.3017
 1038SOL    HW3 4198   1.617   4.712   1.890 -0.3133  1.2317 -0.6306
 1038SOL    MW4 4199   1.561   4.648   1.875  0.4900  0.4530 -0.3462
 1039SOL     OW 4200   1.340   0.358   1.849 -0.0054 -0.3503 -0.3833
 1039SOL    HW2 4201   1.336   0.331   1.758  1.6081  0.7522 -0.8089
 1039SOL    HW3 4202   1.350   0.277   1.898  1.1533 -0.8047 -1.3507
 1039SOL    MW4 4203   1.341   0.344   1.844  0.3603 -0.2648 -0.5671
 1040SOL     OW 4204   1.533   0.495   2.227  0.1710  0.0453 -0.0747
 1040SOL    HW2 4205   1.610   0.456   2.267  0.9619  0.7450 -0.8934
 1040SOL    HW3 4206   1.539   0.471   2.135 -1.2674 -0.9685  0.0720
 1040SOL    MW4 4207   1.544   0.487   2.220  0.0855  0.0039 -0.1636
 1041SOL     OW 4208   1.560   0.778   1.852  0.4109  0.3054 -0.2696
 1041SOL    HW2 4209   1.620   0.843   1.889 -0.3050  0.3942  0.7606
 1041SOL    HW3 4210   1.589   0.695   1.891 -1.1601  0.5813  1.5493
 1041SOL    MW4 4211   1.572   0.775   1.862  0.1091  0.3536  0.1063
 1042SOL     OW 4212   1.352   0.882   1.992 -0.3777 -0.2292 -0.0947
 1042SOL    HW2 4213   1.356   0.861   2.085  0.5518 -0.6012 -0.2091
 1042SOL    HW3 4214   1.425   0.833   1.953 -1.1396 -0.5648 -1.1162
 1042SOL    MW4 4215   1.362   0.873   1.999 -0.3556 -0.3226 -0.2445
 1043SOL     OW 4216   1.342   1.131   1.868  0.4478 -0.0150 -0.2964
 1043SOL    HW2 4217   1.350   1.059   1.931  0.1385 -0.1277 -0.3838
 1043SOL    HW3 4218   1.268   1.183   1.899  0.6779  0.2711 -0.2288
 1043SOL    MW4 4219   1.333   1.128   1.880  0.4375  0.0079 -0.2990
 1044SOL     OW 4220   1.552   1.305   1.940  0.1544 -0.1100 -0.0350
 1044SOL    HW2 4221   1.549   1.390   1.895  0.1622  0.2359  0.6220
 1044SOL    HW3 4222   1.478   1.256   1.902 -0.5606  0.6030  0.4214
 1044SOL    MW4 4223   1.542   1.310   1.929  0.0612  0.0298  0.1118
 1045SOL     OW 4224   1.584   1.562   1.844  0.2392  0.2562 -0.2779
 1045SOL    HW2 4225   1.655   1.596   1.899 -0.2658 -0.7334  1.0166
 1045SOL    HW3 4226   1.504   1.592   1.887 -0.1837 -1.3615  0.0964
 1045SOL    MW4 4227   1.583   1.570   1.857  0.1168 -0.0877 -0.0578
 1046SOL     OW 4228   1.339   1.651   1.954  0.1737 -0.1556 -0.1638
 1046SOL    HW2 4229   1.332   1.655   2.050  0.1304  1.8581 -0.2200
 1046SOL    HW3 4230   1.275   1.585   1.928 -0.7636  0.2205  1.1254
 1046SOL    MW4 4231   1.329   1.643   1.963  0.0442  0.1599 -0.0012
 1047SOL     OW 4232   1.350   1.886   1.825 -0.0175 -0.4077  0.0498
 1047SOL    HW2 4233   1.336   1.798   1.860 -0.8684  0.1671  1.1929
 1047SOL    HW3 4234   1.276   1.936   1.857 -0.1392  0.4625 -1.5559
 1047SOL    MW4 4235   1.339   1.881   1.834 -0.1458 -0.2171 -0.0113
 1048SOL     OW 4236   1.528   2.056   1.969  0.1540  0.2096 -0.2437
 1048SOL    HW2 4237   1.508   2.133   1.916  1.3886  0.3519 -0.5050
 1048SOL    HW3 4238   1.475   1.986   1.930 -1.1139  0.9580  0.1215
 1048SOL    MW4 4239   1.518   2.057   1.957  0.1495  0.3271 -0.2298
 1049SOL     OW 4240   1.532   2.301   1.817 -0.0721 -0.1608  0.0327
 1049SOL    HW2 4241   1.608   2.330   1.867  0.3722  1.3527 -1.4806
 1049SOL    HW3 4242   1.548   2.332   1.728 -1.0808 -2.3883 -0.9648
 1049SOL    MW4 4243   1.544   2.309   1.812 -0.1466 -0.2549 -0.2985
 1050SOL     OW 4244   1.369   2.432   1.993 -0.3392 -0.2930 -0.3160
 1050SOL    HW2 4245   1.383   2.523   1.966 -0.7842  0.1107  0.7860
 1050SOL    HW3 4246   1.425   2.381   1.935  0.1907  0.7149 -0.7006
 1050SOL    MW4 4247   1.378   2.437   1.982 -0.3282 -0.1068 -0.2214
 1051SOL     OW 4248   1.358   2.690   1.865  0.0808 -0.5568 -1.2385
 1051SOL    HW2 4249   1.410   2.768   1.883  0.8425 -1.2859 -0.2759
 1051SOL    HW3 4250   1.361   2.681   1.770  0.6550  0.1237 -1.2873
 1051SOL    MW4 4251   1.365   2.699   1.855  0.2571 -0.5631 -1.1178
 1052SOL     OW 4252   1.570   2.870   1.934  0.5470  0.0027 -0.6938
 1052SOL    HW2 4253   1.636   2.812   1.897  1.0356  1.0612 -1.5079
 1052SOL    HW3 4254   1.573   2.853   2.028  1.2517 -0.6952 -0.8347
 1052SOL    MW4 4255   1.579   2.860   1.941  0.7044  0.0503 -0.8198
 1053SOL     OW 4256   1.575   3.130   1.856 -0.1606  0.5432  0.3983
 1053SOL    HW2 4257   1.560   3.037   1.872 -0.7117  0.4130 -0.8693
 1053SOL    HW3 4258   1.590   3.137   1.762 -0.6640  1.8062  0.3941
 1053SOL    MW4 4259   1.575   3.119   1.846 -0.2997  0.6928  0.2304
 1054SOL     OW 4260   1.347   3.233   1.959  0.0841 -0.0429  0.8461
 1054SOL    HW2 4261   1.423   3.201   1.911 -0.7489  0.9707 -1.2011
 1054SOL    HW3 4262   1.272   3.187   1.920 -0.6806  1.3401  0.6230
 1054SOL    MW4 4263   1.347   3.223   1.948 -0.1267  0.2732  0.5465
 1055SOL     OW 4264   1.346   3.472   1.842  0.1883  0.0173  0.3379
 1055SOL    HW2 4265   1.357   3.383   1.878 -0.3542 -0.6180 -1.0387
 1055SOL    HW3 4266   1.267   3.504   1.886  0.7629  0.0919  1.3484
 1055SOL    MW4 4267   1.337   3.464   1.853  0.1925 -0.0565  0.2897
 1056SOL     OW 4268   1.557   3.627   1.902  0.0691  0.0025 -0.4392
 1056SOL    HW2 4269   1.548   3.623   1.997 -2.0074  0.1157 -0.5940
 1056SOL    HW3 4270   1.478   3.584   1.869  1.3914 -1.2145 -2.1166
 1056SOL    MW4 4271   1.545   3.621   1.910 -0.0304 -0.1431 -0.6810
 1057SOL     OW 4272   1.607   3.899   1.813  0.0426  0.4077 -0.0072
 1057SOL    HW2 4273   1.694   3.928   1.838  1.2961 -1.0591 -2.4449
 1057SOL    HW3 4274   1.605   3.806   1.836 -1.2063  0.6265  0.8300
 1057SOL    MW4 4275   1.618   3.890   1.819  0.0432  0.2429 -0.2183
 1058SOL     OW 4276   1.367   3.996   1.934 -0.4115 -0.0994 -0.2473
 1058SOL    HW2 4277   1.448   3.975   1.887 -0.8215 -0.9199 -0.5945
 1058SOL    HW3 4278   1.301   3.939   1.895 -1.2332  0.8054 -0.1942
 1058SOL    MW4 4279   1.369   3.986   1.923 -0.5740 -0.0882 -0.2862
 1059SOL     OW 4280   1.378   4.266   1.819 -0.5493  0.7663 -0.0603
 1059SOL    HW2 4281   1.362   4.181   1.858 -0.2307  0.9322  0.4414
 1059SOL    HW3 4282   1.350   4.257   1.728  3.2908 -1.1336 -1.1596
 1059SOL    MW4 4283   1.373   4.254   1.812 -0.0006  0.5369 -0.1391
 1060SOL     OW 4284   1.581   4.395   1.977 -0.2703  0.5847  0.2427
 1060SOL    HW2 4285   1.561   4.382   2.069 -0.2779  0.8627  0.2790
 1060SOL    HW3 4286   1.502   4.366   1.931 -0.7441  1.6435  0.3831
 1060SOL    MW4 4287   1.568   4.389   1.983 -0.3338  0.7610  0.2660
 1061SOL     OW 4288   2.010   4.644   1.863 -0.0638 -0.4520 -0.2515
 1061SOL    HW2 4289   2.077   4.703   1.897  0.9506 -1.5730 -0.2789
 1061SOL    HW3 4290   2.016   4.566   1.919 -1.6155 -0.3937  0.0012
 1061SOL    MW4 4291   2.020   4.641   1.875 -0.1345 -0.5922 -0.2218
 1062SOL     OW 4292   1.764   0.127   2.003  0.2488  0.7063 -0.3748
 1062SOL    HW2 4293   1.754   0.123   2.098 -0.6048  0.0145 -0.4950
 1062SOL    HW3 4294   1.845   0.079   1.985  0.8960  1.6007  0.0755
 1062SOL    MW4 4295   1.774   0.120   2.013  0.2215  0.7330 -0.3312
 1063SOL     OW 4296   1.566   0.502   1.953  0.2986 -0.2993  0.0719
 1063SOL    HW2 4297   1.497   0.464   1.899 -0.4875 -0.3074  1.0595
 1063SOL    HW3 4298   1.644   0.449   1.934 -0.8636 -2.6918  1.7039
 1063SOL    MW4 4299   1.567   0.490   1.943  0.0414 -0.6160  0.4175
 1064SOL     OW 4300   2.004   0.519   1.996 -0.0086 -0.6982 -0.1148
 1064SOL    HW2 4301   2.015   0.594   1.938 -0.1691  0.5476  1.4232
 1064SOL    HW3 4302   1.926   0.474   1.963  0.1640 -0.2700 -1.1209
 1064SOL    MW4 4303   1.995   0.523   1.984 -0.0068 -0.4773 -0.0447
 1065SOL     OW 4304   1.989   0.770   1.842  0.4545 -0.4264 -0.2889
 1065SOL    HW2 4305   2.068   0.814   1.872 -1.1215  1.9834  0.4908
 1065SOL    HW3 4306   1.984   0.791   1.748 -0.5222  1.5133  0.1674
 1065SOL    MW4 4307   1.999   0.779   1.833  0.1175  0.1475 -0.1258
 1066SOL     OW 4308   1.782   0.908   1.974  0.2290  0.3168  0.1659
 1066SOL    HW2 4309   1.796   0.998   1.945  0.1524 -0.3918 -2.1358
 1066SOL    HW3 4310   1.851   0.857   1.931 -0.0831 -0.8282  0.9818
 1066SOL    MW4 4311   1.793   0.913   1.965  0.1777  0.0722 -0.0302
 1067SOL     OW 4312   1.786   1.191   1.903  0.2429  0.3953  0.0091
 1067SOL    HW2 4313   1.702   1.229   1.928  0.2611  0.3716  0.1070
 1067SOL    HW3 4314   1.784   1.188   1.807 -0.0572 -0.0369  0.0321
 1067SOL    MW4 4315   1.775   1.196   1.893  0.2056  0.3352  0.0252
 1068SOL     OW 4316   2.018   1.303   1.977 -0.0257 -0.0102 -0.0879
 1068SOL    HW2 4317   2.085   1.253   1.932 -0.0018  1.3854 -1.6833
 1068SOL    HW3 4318   1.935   1.264   1.948  0.0121  0.4662 -0.8683
 1068SOL    MW4 4319   2.016   1.291   1.967 -0.0174  0.2367 -0.4013
 1069SOL     OW 4320   1.990   1.567   1.862  0.8575  0.2831 -0.4969
 1069SOL    HW2 4321   1.994   1.478   1.896  0.1258  0.7378  0.8397
 1069SOL    HW3 4322   1.992   1.557   1.767 -1.0035 -1.2683 -0.4005
 1069SOL    MW4 4323   1.991   1.554   1.854  0.5155  0.1384 -0.3077
 1070SOL     OW 4324   1.781   1.680   2.006 -0.2726  0.5701 -0.3280
 1070SOL    HW2 4325   1.763   1.767   1.969 -0.4602 -0.8695 -3.8587
 1070SOL    HW3 4326   1.859   1.650   1.960  0.4119 -0.7304  1.6161
 1070SOL    MW4 4327   1.789   1.688   1.995 -0.2068  0.2085 -0.5374
 1071SOL     OW 4328   1.785   1.960   1.883  0.0180  0.5323  0.3107
 1071SOL    HW2 4329   1.708   2.008   1.914 -1.8312 -2.9536  1.4608
 1071SOL    HW3 4330   1.775   1.957   1.788 -0.2820  1.6796  0.2986
 1071SOL    MW4 4331   1.773   1.966   1.875 -0.2656  0.2238  0.4609
 1072SOL     OW 4332   2.015   2.075   1.981 -0.2506 -0.1062  0.2433
 1072SOL    HW2 4333   2.088   2.029   1.941 -0.4883  0.7356 -1.1963
 1072SOL    HW3 4334   1.937   2.035   1.944 -0.5103 -0.5077  1.2150
 1072SOL    MW4 4335   2.015   2.064   1.971 -0.3164 -0.0482  0.1814
 1073SOL     OW 4336   2.005   2.334   1.861 -0.1094 -0.3248  0.0217
 1073SOL    HW2 4337   2.084   2.382   1.885 -0.1193 -0.4500  0.3013
 1073SOL    HW3 4338   2.012   2.251   1.908 -0.3224 -0.4065 -0.0912
 1073SOL    MW4 4339   2.017   2.329   1.870 -0.1390 -0.3521  0.0436
 1074SOL     OW 4340   1.762   2.384   1.987 -0.0372 -0.7329  0.2179
 1074SOL    HW2 4341   1.789   2.383   2.079  0.5223  0.6721  0.0757
 1074SOL    HW3 4342   1.841   2.358   1.939  0.1064  0.0137  0.0397
 1074SOL    MW4 4343   1.776   2.380   1.993  0.0554 -0.4492  0.1756
 1075SOL     OW 4344   1.787   2.675   1.898  0.1248  0.2725 -0.6155
 1075SOL    HW2 4345   1.773   2.586   1.930 -2.0671  0.8735  0.1393
 1075SOL    HW3 4346   1.778   2.667   1.803  1.9212 -0.6564 -0.7247
 1075SOL    MW4 4347   1.784   2.662   1.889  0.0726  0.2294 -0.5305
 1076SOL     OW 4348   1.973   2.857   1.967  0.5990  0.3308  0.3954
 1076SOL    HW2 4349   1.984   2.847   2.061 -1.2604  0.5975  0.6652
 1076SOL    HW3 4350   1.899   2.800   1.945  0.0957  1.3541 -0.6546
 1076SOL    MW4 4351   1.964   2.848   1.977  0.2872  0.5009  0.2924
 1077SOL     OW 4352   2.026   3.124   1.879 -0.4123 -0.1588 -0.5189
 1077SOL    HW2 4353   1.947   3.162   1.917 -0.0319 -0.1678  0.2898
 1077SOL    HW3 4354   2.026   3.033   1.910  0.1220 -0.0468 -0.1810
 1077SOL    MW4 4355   2.015   3.117   1.888 -0.2916 -0.1452 -0.3676
 1078SOL     OW 4356   1.805   3.242   1.967  0.2451 -0.4814 -0.2528
 1078SOL    HW2 4357   1.805   3.250   2.062  0.4023  0.5768 -0.3297
 1078SOL    HW3 4358   1.725   3.194   1.946 -0.0148 -0.3238  0.3845
 1078SOL    MW4 4359   1.795   3.237   1.977  0.2315 -0.3211 -0.1788
 1079SOL     OW 4360   1.788   3.493   1.814 -0.3925  0.2730 -0.1355
 1079SOL    HW2 4361   1.793   3.424   1.880 -1.3941 -0.7373 -1.0775
 1079SOL    HW3 4362   1.715   3.548   1.842  0.5913  1.1441  0.7735
 1079SOL    MW4 4363   1.779   3.491   1.826 -0.3948  0.2546 -0.1398
 1080SOL     OW 4364   2.020   3.622   1.943  0.1930 -0.4088 -0.3900
 1080SOL    HW2 4365   2.028   3.705   1.896 -2.2731  0.4689  0.6373
 1080SOL    HW3 4366   1.971   3.566   1.883 -2.1055  0.3995  0.6478
 1080SOL    MW4 4367   2.015   3.626   1.929 -0.4354 -0.1862 -0.1175
 1081SOL     OW 4368   2.071   3.856   1.829  0.0498 -0.0046  0.0550
 1081SOL    HW2 4369   2.151   3.894   1.866 -0.0210 -1.2477  1.5314
 1081SOL    HW3 4370   2.067   3.891   1.740  0.6328  2.4534  0.9403
 1081SOL    MW4 4371   2.081   3.866   1.822  0.1178  0.1557  0.3666
 1082SOL     OW 4372   1.847   3.992   1.952  0.2072 -0.0199  0.0950
 1082SOL    HW2 4373   1.838   4.082   1.922 -0.6310 -0.4867 -1.1336
 1082SOL    HW3 4374   1.918   3.956   1.898  0.0229 -0.3036  0.0386
 1082SOL    MW4 4375   1.855   3.999   1.941  0.0722 -0.1190 -0.0745
 1083SOL     OW 4376   1.807   4.252   1.869  0.3060  0.3338 -0.4531
 1083SOL    HW2 4377   1.734   4.299   1.907  0.6136 -0.3822  1.0564
 1083SOL    HW3 4378   1.796   4.263   1.774 -1.1340  1.1231 -0.2086
 1083SOL    MW4 4379   1.796   4.260   1.861  0.1565  0.3433 -0.2218
 1084SOL     OW 4380   2.036   4.397   1.985  0.0008 -0.3828 -0.4454
 1084SOL    HW2 4381   2.111   4.344   1.956  1.0981  0.3494  0.9902
 1084SOL    HW3 4382   1.961   4.360   1.938  1.2263 -1.2551 -1.7583
 1084SOL    MW4 4383   2.036   4.385   1.975  0.3071 -0.4005 -0.4293
 1085SOL     OW 4384   2.469   0.049   1.871 -0.0067  0.1733  0.5370
 1085SOL    HW2 4385   2.538   0.096   1.919  1.2572 -1.4918  0.3848
 1085SOL    HW3 4386   2.484  -0.043   1.891 -0.4104 -0.4358 -1.8118
 1085SOL    MW4 4387   2.480   0.043   1.880  0.1068 -0.1268  0.2072
 1086SOL     OW 4388   2.212   0.120   1.990 -0.2728 -0.2024  0.0849
 1086SOL    HW2 4389   2.219   0.106   2.084  0.7009 -0.1322  0.0278
 1086SOL    HW3 4390   2.297   0.093   1.956  0.4323  2.5790 -0.4496
 1086SOL    MW4 4391   2.224   0.114   1.998 -0.0513  0.1739  0.0070
 1087SOL     OW 4392   2.219   0.365   1.877 -0.0543  0.2535 -0.3639
 1087SOL    HW2 4393   2.224   0.280   1.919  0.1624  0.5947  0.3081
 1087SOL    HW3 4394   2.134   0.400   1.901  0.5072  0.9182  0.7219
 1087SOL    MW4 4395   2.209   0.358   1.886  0.0482  0.3862 -0.1318
 1088SOL     OW 4396   2.446   0.517   1.946  0.1307 -0.1456  0.3642
 1088SOL    HW2 4397   2.518   0.468   1.905 -0.2471  0.7757 -1.4777
 1088SOL    HW3 4398   2.367   0.471   1.917 -0.1373  0.4684  0.1022
 1088SOL    MW4 4399   2.445   0.504   1.937  0.0453  0.0570  0.0867
 1089SOL     OW 4400   2.448   0.775   1.826 -0.0467 -0.3665  0.1080
 1089SOL    HW2 4401   2.441   0.687   1.863 -0.2382 -0.7691 -0.8885
 1089SOL    HW3 4402   2.450   0.762   1.731 -2.0254  0.8151 -0.1337
 1089SOL    MW4 4403   2.447   0.762   1.818 -0.3331 -0.2638 -0.0554
 1090SOL     OW 4404   2.228   0.916   1.930 -0.0676 -0.1269 -0.3417
 1090SOL    HW2 4405   2.241   0.917   2.025 -1.7560 -0.4769 -0.0832
 1090SOL    HW3 4406   2.307   0.874   1.895 -0.4440 -2.1091  1.0923
 1090SOL    MW4 4407   2.240   0.911   1.938 -0.3397 -0.4346 -0.1184
 1091SOL     OW 4408   2.233   1.180   1.851 -0.1141  0.2882  0.0571
 1091SOL    HW2 4409   2.309   1.224   1.889 -0.0882 -0.6034  1.0531
 1091SOL    HW3 4410   2.241   1.089   1.880 -1.1671  0.0279 -0.4525
 1091SOL    MW4 4411   2.244   1.173   1.860 -0.2496  0.1361  0.1214
 1092SOL     OW 4412   2.474   1.316   1.936 -0.3736 -0.0352 -0.1940
 1092SOL    HW2 4413   2.482   1.329   2.030 -1.0136 -0.4695 -0.0731
 1092SOL    HW3 4414   2.480   1.403   1.898  1.4063 -0.0015  0.1262
 1092SOL    MW4 4415   2.476   1.329   1.943 -0.2234 -0.0880 -0.1358
 1093SOL     OW 4416   2.513   1.567   1.819 -0.5656 -0.2625  0.1066
 1093SOL    HW2 4417   2.434   1.611   1.849  0.1129  1.1820 -0.1695
 1093SOL    HW3 4418   2.507   1.570   1.723 -0.1654 -0.1057  0.0846
 1093SOL    MW4 4419   2.502   1.573   1.810 -0.4232 -0.0513  0.0671
 1094SOL     OW 4420   2.267   1.658   1.929 -0.1909 -0.0603 -0.5141
 1094SOL    HW2 4421   2.272   1.682   2.022  0.7868  0.1278 -0.6093
 1094SOL    HW3 4422   2.185   1.610   1.921  0.4918 -1.4871  0.7692
 1094SOL    MW4 4423   2.257   1.655   1.941  0.0281 -0.2238 -0.3573
 1095SOL     OW 4424   2.230   1.942   1.849  0.2626 -0.5022  0.3669
 1095SOL    HW2 4425   2.314   1.971   1.884  0.9433 -1.8669 -0.1354
 1095SOL    HW3 4426   2.232   1.847   1.855 -0.1048 -0.7058 -2.2221
 1095SOL    MW4 4427   2.241   1.933   1.855  0.3042 -0.7092 -0.0410
 1096SOL     OW 4428   2.430   2.075   1.982 -0.3242 -0.4148 -0.0257
 1096SOL    HW2 4429   2.500   2.019   1.949  0.6705  1.1192 -0.6078
 1096SOL    HW3 4430   2.443   2.158   1.936  1.0960  1.7928  4.1208
 1096SOL    MW4 4431   2.441   2.079   1.972 -0.0057  0.0789  0.4447
 1097SOL     OW 4432   2.470   2.310   1.850  0.6793 -0.1954  0.3500
 1097SOL    HW2 4433   2.548   2.335   1.899  0.2183 -0.0884  1.0325
 1097SOL    HW3 4434   2.400   2.365   1.886 -0.1474 -1.7756  1.2111
 1097SOL    MW4 4435   2.471   2.320   1.861  0.5093 -0.3896  0.5537
 1098SOL     OW 4436   2.243   2.448   1.957 -0.0320 -0.0831  0.3019
 1098SOL    HW2 4437   2.239   2.445   2.053 -0.8777 -0.1942  0.2678
 1098SOL    HW3 4438   2.231   2.540   1.935 -0.9492 -0.2067  0.2627
 1098SOL    MW4 4439   2.241   2.459   1.967 -0.2644 -0.1140  0.2923
 1099SOL     OW 4440   2.206   2.715   1.891  0.1935  0.2813 -0.0191
 1099SOL    HW2 4441   2.124   2.758   1.916 -0.6143 -1.2804  0.0728
 1099SOL    HW3 4442   2.204   2.713   1.795 -0.8827 -1.6269  0.0239
 1099SOL    MW4 4443   2.195   2.721   1.882 -0.0548 -0.1767 -0.0015
 1100SOL     OW 4444   2.462   2.824   1.996 -0.0497 -0.2187 -0.4722
 1100SOL    HW2 4445   2.478   2.910   1.958  1.4555  0.1419  0.9322
 1100SOL    HW3 4446   2.387   2.790   1.947 -0.7150  1.9081 -1.0070
 1100SOL    MW4 4447   2.454   2.831   1.985  0.0610  0.1094 -0.3574
 1101SOL     OW 4448   2.472   3.070   1.869  0.3891 -0.0255  0.2657
 1101SOL    HW2 4449   2.402   3.131   1.894 -0.0521 -0.7837  0.8941
 1101SOL    HW3 4450   2.469   3.068   1.773 -0.4613 -0.0606  0.2873
 1101SOL    MW4 4451   2.462   3.078   1.860  0.2189 -0.1302  0.3514
 1102SOL     OW 4452   2.254   3.238   1.956  0.2548 -0.1297 -0.3042
 1102SOL    HW2 4453   2.271   3.236   2.050  1.6209  0.9724 -0.5088
 1102SOL    HW3 4454   2.168   3.198   1.946 -0.3147  0.5967  1.5217
 1102SOL    MW4 4455   2.245   3.233   1.967  0.3598  0.1116 -0.0904
 1103SOL     OW 4456   2.249   3.497   1.850 -0.2644 -0.3846  0.2593
 1103SOL    HW2 4457   2.234   3.409   1.884 -0.9162 -0.5478 -0.4610
 1103SOL    HW3 4458   2.178   3.550   1.887  0.3500 -0.0642  1.0119
 1103SOL    MW4 4459   2.238   3.492   1.860 -0.2689 -0.3638  0.2637
 1104SOL     OW 4460   2.474   3.619   1.951  0.0274  0.7599  0.6300
 1104SOL    HW2 4461   2.465   3.627   2.046 -0.5368  0.3991  0.6096
 1104SOL    HW3 4462   2.391   3.580   1.922 -0.2686  1.9269 -0.1400
 1104SOL    MW4 4463   2.462   3.615   1.959 -0.0861  0.8659  0.5256
 1105SOL     OW 4464   2.511   3.874   1.853 -0.2484 -0.1155 -0.1967
 1105SOL    HW2 4465   2.431   3.918   1.880 -0.9208 -0.8627 -0.9369
 1105SOL    HW3 4466   2.502   3.785   1.887  0.0724 -0.3237 -0.6437
 1105SOL    MW4 4467   2.499   3.868   1.861 -0.2947 -0.2413 -0.3535
 1106SOL     OW 4468   2.281   3.990   1.970 -0.2345 -0.0844  0.1369
 1106SOL    HW2 4469   2.278   3.990   2.066  1.1723 -0.7813  0.1849
 1106SOL    HW3 4470   2.277   4.083   1.946 -0.0742  0.1207  0.8821
 1106SOL    MW4 4471   2.280   4.002   1.980 -0.0277 -0.1493  0.2415
 1107SOL     OW 4472   2.278   4.265   1.886  0.4787  0.1517 -0.0112
 1107SOL    HW2 4473   2.350   4.312   1.928  1.0743 -0.1140 -0.7291
 1107SOL    HW3 4474   2.305   4.256   1.795 -0.0768 -0.7140 -0.0969
 1107SOL    MW4 4475   2.291   4.270   1.879  0.4840  0.0029 -0.1173
 1108SOL     OW 4476   2.492   4.457   1.962 -0.4252 -0.0722  0.0401
 1108SOL    HW2 4477   2.500   4.441   2.056 -1.9631 -0.1276  0.1688
 1108SOL    HW3 4478   2.558   4.399   1.923  0.4486  0.1961  1.0957
 1108SOL    MW4 4479   2.502   4.447   1.970 -0.5126 -0.0439  0.1963
 1109SOL     OW 4480   2.928   0.027   1.906  0.1417 -0.3009 -0.1712
 1109SOL    HW2 4481   3.002   0.068   1.951 -0.3365  1.1529 -0.6726
 1109SOL    HW3 4482   2.926  -0.062   1.940  0.5324  0.4050  1.8113
 1109SOL    MW4 4483   2.937   0.021   1.917  0.1302 -0.0160  0.0243
 1110SOL     OW 4484   2.701   0.157   1.978 -0.8148 -0.4203 -0.0036
 1110SOL    HW2 4485   2.701   0.135   2.071 -1.1842  0.2739  0.1644
 1110SOL    HW3 4486   2.781   0.118   1.944 -0.4176 -0.2390  0.7086
 1110SOL    MW4 4487   2.711   0.149   1.986 -0.8113 -0.3048  0.1127
 1111SOL     OW 4488   2.684   0.413   1.858  0.2171  0.1332 -0.2355
 1111SOL    HW2 4489   2.765   0.460   1.876  1.6062 -1.8916 -1.0706
 1111SOL    HW3 4490   2.697   0.326   1.895  0.0194 -1.4965 -3.7274
 1111SOL    MW4 4491   2.696   0.408   1.865  0.3746 -0.3490 -0.8065
 1112SOL     OW 4492   2.915   0.542   1.948  0.1060 -0.0257  0.0997
 1112SOL    HW2 4493   2.996   0.502   1.917  1.9303  1.1945  3.0386
 1112SOL    HW3 4494   2.910   0.627   1.904  0.5565 -0.0162  0.0693
 1112SOL    MW4 4495   2.925   0.548   1.938  0.4063  0.1366  0.4835
 1113SOL     OW 4496   3.102   0.908   1.969  0.0488  0.1140  0.7199
 1113SOL    HW2 4497   3.126   0.912   2.062 -1.2387  0.6741  1.0426
 1113SOL    HW3 4498   3.115   0.997   1.937  1.3201 -0.2709  0.1345
 1113SOL    MW4 4499   3.107   0.920   1.977  0.0465  0.1371  0.6852
 1114SOL     OW 4500   2.666   0.889   1.967  0.1053 -0.2360 -0.1548
 1114SOL    HW2 4501   2.684   0.977   1.935  0.1786 -1.1747 -2.9050
 1114SOL    HW3 4502   2.590   0.860   1.916 -0.3569 -1.5005  1.2148
 1114SOL    MW4 4503   2.659   0.897   1.956  0.0539 -0.5267 -0.3370
 1115SOL     OW 4504   2.680   1.143   1.895 -0.5970  0.2593 -0.4643
 1115SOL    HW2 4505   2.605   1.201   1.902 -0.4076  0.3184  1.3942
 1115SOL    HW3 4506   2.705   1.146   1.803 -0.9010  2.7205 -0.4962
 1115SOL    MW4 4507   2.674   1.151   1.884 -0.6120  0.5918 -0.2234
 1116SOL     OW 4508   2.933   1.264   1.968 -0.3729  0.4170 -0.9826
 1116SOL    HW2 4509   2.930   1.348   1.922 -0.9093 -0.7083 -3.0786
 1116SOL    HW3 4510   2.844   1.229   1.962  0.2818 -1.1830 -1.8980
 1116SOL    MW4 4511   2.921   1.270   1.961 -0.3574  0.0573 -1.3800
 1117SOL     OW 4512   2.949   1.516   1.854  0.3720 -0.1869  0.0646
 1117SOL    HW2 4513   3.019   1.579   1.873  0.6642 -0.2629 -0.7654
 1117SOL    HW3 4514   2.917   1.541   1.767 -1.4517  0.6101  0.9248
 1117SOL    MW4 4515   2.954   1.528   1.845  0.1700 -0.0917  0.0687
 1118SOL     OW 4516   2.716   1.651   1.973 -0.2602  0.0192  0.0918
 1118SOL    HW2 4517   2.800   1.614   1.946 -1.0899 -3.2059  1.6270
 1118SOL    HW3 4518   2.652   1.611   1.914 -1.2181 -1.2961  1.9808
 1118SOL    MW4 4519   2.719   1.641   1.962 -0.4961 -0.5798  0.5436
 1119SOL     OW 4520   2.620   1.892   1.876  0.0655 -0.4399 -0.1947
 1119SOL    HW2 4521   2.705   1.937   1.873  0.6754 -1.5519  0.0122
 1119SOL    HW3 4522   2.640   1.808   1.916 -1.2487 -0.4925  0.3450
 1119SOL    MW4 4523   2.634   1.887   1.881 -0.0277 -0.5935 -0.0962
 1120SOL     OW 4524   2.850   2.029   1.911  0.2742 -0.2008  0.0155
 1120SOL    HW2 4525   2.853   2.052   2.004 -0.2356 -0.6213  0.1441
 1120SOL    HW3 4526   2.936   1.990   1.893  0.3240 -0.2477  0.3490
 1120SOL    MW4 4527   2.862   2.027   1.921  0.2134 -0.2625  0.0764
 1121SOL     OW 4528   3.119   2.441   1.935 -0.2291  0.1508 -0.1695
 1121SOL    HW2 4529   3.050   2.377   1.918  1.1389 -1.5571  0.6561
 1121SOL    HW3 4530   3.126   2.445   2.030 -0.4119  1.6623 -0.2054
 1121SOL    MW4 4531   3.111   2.433   1.945 -0.0727  0.1252 -0.0653
 1122SOL     OW 4532   2.673   2.692   1.892  0.6372 -0.5196 -0.1912
 1122SOL    HW2 4533   2.592   2.726   1.929  1.8286  1.5955  0.5143
 1122SOL    HW3 4534   2.664   2.706   1.798 -0.9013 -2.6969 -0.4051
 1122SOL    MW4 4535   2.661   2.698   1.884  0.5913 -0.5279 -0.1264
 1123SOL     OW 4536   2.702   2.716   1.614  0.2281  0.1242 -0.3157
 1123SOL    HW2 4537   2.616   2.747   1.589 -0.1485  0.0470  0.8799
 1123SOL    HW3 4538   2.763   2.776   1.571 -0.4298  0.7312 -0.4024
 1123SOL    MW4 4539   2.699   2.728   1.605  0.0916  0.1941 -0.1693
 1124SOL     OW 4540   2.914   2.805   2.008  0.0193 -0.3129 -0.3643
 1124SOL    HW2 4541   2.892   2.885   1.960  1.5644 -0.0994 -0.7264
 1124SOL    HW3 4542   2.844   2.744   1.987 -1.4687  1.1038  0.3184
 1124SOL    MW4 4543   2.902   2.808   1.999  0.0267 -0.0978 -0.3219
 1125SOL     OW 4544   2.934   3.056   1.878  0.0418 -0.0137 -0.0805
 1125SOL    HW2 4545   3.010   3.104   1.909  0.9637 -0.9388 -0.8502
 1125SOL    HW3 4546   2.859   3.103   1.914  1.0048  0.2540  1.6361
 1125SOL    MW4 4547   2.934   3.068   1.887  0.2904 -0.1004  0.0446
 1126SOL     OW 4548   2.721   3.201   1.974 -0.2749 -0.1607 -0.3880
 1126SOL    HW2 4549   2.715   3.292   1.945  0.4670 -0.2886 -0.9463
 1126SOL    HW3 4550   2.640   3.160   1.942 -0.4252  0.1990 -0.4668
 1126SOL    MW4 4551   2.709   3.207   1.966 -0.1967 -0.1299 -0.4719
 1127SOL     OW 4552   2.698   3.472   1.913  0.5038  0.1620 -0.0060
 1127SOL    HW2 4553   2.763   3.542   1.920 -0.3312  0.9788 -0.3033
 1127SOL    HW3 4554   2.616   3.512   1.941  0.0662 -0.7871  0.1090
 1127SOL    MW4 4555   2.695   3.486   1.917  0.3359  0.1445 -0.0302
 1128SOL     OW 4556   2.910   3.650   1.954  0.6015 -0.8727  0.2728
 1128SOL    HW2 4557   2.914   3.636   2.048  0.8959  1.3806  0.6168
 1128SOL    HW3 4558   2.981   3.596   1.919  1.4327 -0.5985  1.4958
 1128SOL    MW4 4559   2.920   3.641   1.962  0.7501 -0.5391  0.4796
 1129SOL     OW 4560   2.940   3.916   1.868  0.6273 -0.4498 -0.5419
 1129SOL    HW2 4561   2.945   3.898   1.774 -0.2722 -0.5693 -0.5759
 1129SOL    HW3 4562   2.934   3.830   1.909  0.7793 -0.3896 -0.3921
 1129SOL    MW4 4563   2.940   3.903   1.861  0.5288 -0.4575 -0.5267
 1130SOL     OW 4564   2.711   4.008   1.994 -0.5002  0.0960  0.3052
 1130SOL    HW2 4565   2.789   3.967   1.957  0.3765  0.2383  1.9560
 1130SOL    HW3 4566   2.639   3.970   1.944  0.5422 -0.8870 -0.4921
 1130SOL    MW4 4567   2.712   3.997   1.983 -0.2470 -0.0153  0.4177
 1131SOL     OW 4568   2.708   4.271   1.897  0.5509  0.0874 -0.1652
 1131SOL    HW2 4569   2.712   4.182   1.932  1.1567  0.4945  0.8469
 1131SOL    HW3 4570   2.729   4.262   1.805  1.4863 -0.7174  0.1176
 1131SOL    MW4 4571   2.711   4.258   1.890  0.7541  0.0343  0.0057
 1132SOL     OW 4572   2.920   4.426   2.000  0.2345 -0.0796  0.2880
 1132SOL    HW2 4573   2.912   4.429   2.095 -1.3993 -3.5925  0.3282
 1132SOL    HW3 4574   2.845   4.375   1.971  1.9884 -1.0814 -2.7060
 1132SOL    MW4 4575   2.909   4.420   2.009  0.2506 -0.6752 -0.1016
 1133SOL     OW 4576   3.365   0.004   1.879 -0.4889 -0.0196 -0.6565
 1133SOL    HW2 4577   3.380  -0.084   1.914  0.6553  0.7033  0.7028
 1133SOL    HW3 4578   3.363  -0.009   1.784 -0.6625 -1.5563 -0.4643
 1133SOL    MW4 4579   3.367  -0.009   1.871 -0.3610 -0.1270 -0.4518
 1134SOL     OW 4580   3.121   0.167   2.044  0.0852 -0.3730 -0.0782
 1134SOL    HW2 4581   3.111   0.155   2.138  0.1740 -0.9216 -0.1354
 1134SOL    HW3 4582   3.209   0.133   2.024  0.6694  1.1149 -0.1320
 1134SOL    MW4 4583   3.132   0.161   2.054  0.1738 -0.2491 -0.0927
 1135SOL     OW 4584   3.149   0.402   1.923 -0.2380 -0.0150  0.0799
 1135SOL    HW2 4585   3.120   0.321   1.963  0.5108 -0.4718 -0.2813
 1135SOL    HW3 4586   3.141   0.387   1.829 -0.4150  0.4501  0.0177
 1135SOL    MW4 4587   3.144   0.390   1.916 -0.1624 -0.0139  0.0241
 1136SOL     OW 4588   3.390   0.517   2.294 -0.2309  0.0332 -0.2359
 1136SOL    HW2 4589   3.453   0.450   2.319 -2.2041 -1.9812 -0.5224
 1136SOL    HW3 4590   3.397   0.522   2.199 -1.4529 -1.2215 -0.4166
 1136SOL    MW4 4591   3.399   0.509   2.285 -0.6523 -0.3981 -0.2975
 1137SOL     OW 4592   3.361   0.560   2.020  0.1782  0.1560  0.7136
 1137SOL    HW2 4593   3.284   0.504   2.005  0.5338 -0.2201  0.2654
 1137SOL    HW3 4594   3.433   0.512   1.979  0.4962  0.9232  0.3764
 1137SOL    MW4 4595   3.360   0.546   2.012  0.2670  0.2075  0.6096
 1138SOL     OW 4596   3.344   0.772   1.842 -0.0632 -0.6669  0.4271
 1138SOL    HW2 4597   3.360   0.708   1.912 -1.5884  0.4003  1.8017
 1138SOL    HW3 4598   3.272   0.826   1.875  0.3216  0.9390 -1.2574
 1138SOL    MW4 4599   3.336   0.771   1.856 -0.2134 -0.3142  0.3862
 1139SOL     OW 4600   3.150   1.147   1.551  0.2691 -0.0614  0.8633
 1139SOL    HW2 4601   3.152   1.149   1.646 -0.4701 -0.0254  0.8755
 1139SOL    HW3 4602   3.140   1.054   1.530  0.1490 -0.0396  0.8245
 1139SOL    MW4 4603   3.149   1.135   1.561  0.1554 -0.0539  0.8597
 1140SOL     OW 4604   3.141   1.145   1.831 -0.2320 -0.2548 -0.2100
 1140SOL    HW2 4605   3.221   1.179   1.872 -0.2344 -0.9840  0.4147
 1140SOL    HW3 4606   3.070   1.190   1.875 -0.1540  0.6650 -1.0202
 1140SOL    MW4 4607   3.142   1.155   1.842 -0.2220 -0.2296 -0.2345
 1141SOL     OW 4608   3.361   1.518   1.852  0.7022  0.2311 -0.2509
 1141SOL    HW2 4609   3.432   1.568   1.892  0.2869  1.3075 -0.8356
 1141SOL    HW3 4610   3.281   1.565   1.877  0.2395 -0.5511 -0.2107
 1141SOL    MW4 4611   3.360   1.531   1.861  0.5863  0.2700 -0.3227
 1142SOL     OW 4612   3.157   1.683   1.913  0.3092  0.0950  0.4037
 1142SOL    HW2 4613   3.158   1.688   2.008 -0.6343 -0.2813  0.4382
 1142SOL    HW3 4614   3.141   1.773   1.884  1.5413  0.3807  0.5656
 1142SOL    MW4 4615   3.155   1.695   1.922  0.3471  0.0831  0.4295
 1143SOL     OW 4616   3.096   1.937   1.844 -0.1153  0.0773 -0.1908
 1143SOL    HW2 4617   3.167   1.988   1.883 -0.5665  0.0030  0.7422
 1143SOL    HW3 4618   3.123   1.924   1.753  0.8672  0.4066  0.0468
 1143SOL    MW4 4619   3.109   1.942   1.837 -0.0451  0.1109 -0.0364
 1144SOL     OW 4620   3.332   2.034   1.934  0.4644 -0.3535 -0.3047
 1144SOL    HW2 4621   3.406   1.986   1.898  0.2378 -0.3885 -0.7307
 1144SOL    HW3 4622   3.350   2.126   1.912  0.1620 -0.4108 -0.8103
 1144SOL    MW4 4623   3.344   2.040   1.926  0.3946 -0.3660 -0.4276
 1145SOL     OW 4624   3.345   2.318   1.839 -0.0950  0.0374  0.1810
 1145SOL    HW2 4625   3.271   2.364   1.879  0.3166  1.0399 -0.1923
 1145SOL    HW3 4626   3.328   2.324   1.745 -0.1568 -0.7815  0.1357
 1145SOL    MW4 4627   3.333   2.325   1.832 -0.0486  0.0618  0.1258
 1146SOL     OW 4628   3.156   2.444   2.225  0.3556 -0.3267 -0.2452
 1146SOL    HW2 4629   3.077   2.413   2.270  0.1861 -0.3847 -0.5796
 1146SOL    HW3 4630   3.178   2.525   2.270  0.0486 -0.2608 -0.2084
 1146SOL    MW4 4631   3.148   2.451   2.236  0.2925 -0.3254 -0.2844
 1147SOL     OW 4632   3.116   2.718   1.834  0.0779  0.5085 -0.1470
 1147SOL    HW2 4633   3.047   2.765   1.881 -0.7873 -0.1203 -0.7696
 1147SOL    HW3 4634   3.122   2.633   1.877 -0.3815  0.1124 -0.8447
 1147SOL    MW4 4635   3.107   2.713   1.846 -0.0968  0.3734 -0.3213
 1148SOL     OW 4636   3.341   2.881   1.937 -0.1217  0.5054  0.0096
 1148SOL    HW2 4637   3.356   2.876   2.031 -1.4404  1.4235  0.2902
 1148SOL    HW3 4638   3.265   2.824   1.922  0.1432  0.2862 -0.5093
 1148SOL    MW4 4639   3.333   2.873   1.948 -0.2608  0.5977 -0.0218
 1149SOL     OW 4640   3.401   3.143   1.871  0.2910 -0.0449 -0.0550
 1149SOL    HW2 4641   3.398   3.052   1.901  0.0765  0.6472  2.0876
 1149SOL    HW3 4642   3.489   3.173   1.892 -0.3722  0.9310  1.3531
 1149SOL    MW4 4643   3.412   3.135   1.877  0.1752  0.1755  0.4134
 1150SOL     OW 4644   3.136   3.221   1.981 -0.6611 -0.0127  0.5722
 1150SOL    HW2 4645   3.107   3.303   1.940 -1.0107 -0.7457 -0.6919
 1150SOL    HW3 4646   3.224   3.206   1.946 -0.5070 -0.0567  0.9802
 1150SOL    MW4 4647   3.143   3.230   1.971 -0.6869 -0.1152  0.4593
 1151SOL     OW 4648   3.126   3.489   1.874  0.1008  0.5268 -0.3746
 1151SOL    HW2 4649   3.213   3.504   1.910  0.2462 -0.2468 -0.4041
 1151SOL    HW3 4650   3.138   3.494   1.779  0.2397 -0.2852 -0.3974
 1151SOL    MW4 4651   3.139   3.492   1.867  0.1380  0.3178 -0.3816
 1152SOL     OW 4652   3.373   3.595   1.981 -0.4300 -0.2893 -0.4860
 1152SOL    HW2 4653   3.446   3.549   1.941 -1.6602 -0.6874 -2.3715
 1152SOL    HW3 4654   3.380   3.684   1.949 -1.6489 -0.7030 -1.9645
 1152SOL    MW4 4655   3.383   3.601   1.972 -0.7532 -0.3965 -0.9298
 1153SOL     OW 4656   3.394   3.869   1.914  0.6003  0.1852 -0.3565
 1153SOL    HW2 4657   3.311   3.911   1.934  1.2507  0.5965  1.5692
 1153SOL    HW3 4658   3.410   3.890   1.822 -1.7156 -0.4456 -0.9328
 1153SOL    MW4 4659   3.386   3.877   1.904  0.3808  0.1562 -0.1786
 1154SOL     OW 4660   3.181   4.041   1.973 -0.2586  0.3323 -0.1008
 1154SOL    HW2 4661   3.188   4.040   2.069 -1.3251  2.1593  0.0063
 1154SOL    HW3 4662   3.099   3.996   1.955 -0.2740  0.3834 -0.1530
 1154SOL    MW4 4663   3.171   4.035   1.984 -0.4013  0.5803 -0.0935
 1155SOL     OW 4664   3.168   4.304   1.872  0.2613 -0.2341  0.4729
 1155SOL    HW2 4665   3.187   4.215   1.902  0.9644  0.1499  1.1838
 1155SOL    HW3 4666   3.091   4.330   1.922 -0.4483 -0.7589 -0.3528
 1155SOL    MW4 4667   3.161   4.296   1.883  0.2606 -0.2527  0.4579
 1156SOL     OW 4668   3.400   4.413   1.977  0.0075  0.2851 -0.1285
 1156SOL    HW2 4669   3.471   4.372   1.927 -0.4660 -0.5525 -0.1354
 1156SOL    HW3 4670   3.321   4.377   1.938 -0.3594 -1.1478  1.8352
 1156SOL    MW4 4671   3.399   4.403   1.966 -0.1035 -0.0138  0.1296
 1157SOL     OW 4672   3.784   4.652   1.888  0.1293  0.2114  0.2616
 1157SOL    HW2 4673   3.798   4.573   1.941 -0.3367 -0.1231 -0.1129
 1157SOL    HW3 4674   3.711   4.696   1.931 -1.4413 -0.9677 -1.1214
 1157SOL    MW4 4675   3.776   4.647   1.901 -0.1397  0.0119  0.0299
 1158SOL     OW 4676   3.572   0.146   1.975 -0.5749 -0.0314  0.0663
 1158SOL    HW2 4677   3.555   0.145   2.069 -0.6819 -1.7132  0.0353
 1158SOL    HW3 4678   3.501   0.095   1.937  0.0111 -0.1962 -0.8287
 1158SOL    MW4 4679   3.560   0.139   1.982 -0.5114 -0.2750 -0.0559
 1159SOL     OW 4680   3.554   0.410   1.903 -0.3209  0.1912  0.4311
 1159SOL    HW2 4681   3.548   0.316   1.921  1.1776  0.0712  0.3574
 1159SOL    HW3 4682   3.564   0.415   1.808 -0.3304  0.4256  0.4439
 1159SOL    MW4 4683   3.554   0.398   1.893 -0.1245  0.2063  0.4232
 1160SOL     OW 4684   3.779   0.508   2.017  0.5196  0.1254 -0.4079
 1160SOL    HW2 4685   3.786   0.591   1.969  1.4294  0.8121  0.8766
 1160SOL    HW3 4686   3.699   0.468   1.984 -0.4874  2.0135 -0.3188
 1160SOL    MW4 4687   3.769   0.514   2.007  0.5069  0.4651 -0.2267
 1161SOL     OW 4688   3.808   0.736   1.888  0.3884 -0.1597  0.2011
 1161SOL    HW2 4689   3.719   0.767   1.907  0.8938  0.6231  1.3368
 1161SOL    HW3 4690   3.817   0.747   1.794  0.4900  3.0248  0.5235
 1161SOL    MW4 4691   3.797   0.742   1.878  0.4687  0.3638  0.3935
 1162SOL     OW 4692   3.570   0.860   1.957 -0.1829 -0.6436  0.2760
 1162SOL    HW2 4693   3.591   0.950   1.933 -2.4089 -0.1195  0.1437
 1162SOL    HW3 4694   3.491   0.839   1.907 -1.2707 -1.6942  2.3217
 1162SOL    MW4 4695   3.562   0.869   1.947 -0.6199 -0.7131  0.5285
 1163SOL     OW 4696   3.604   1.108   1.849  0.7074  0.0452  0.4465
 1163SOL    HW2 4697   3.526   1.153   1.883 -0.2420 -2.1892  1.2977
 1163SOL    HW3 4698   3.595   1.116   1.754 -0.9298 -0.7309  0.5078
 1163SOL    MW4 4699   3.592   1.115   1.841  0.3662 -0.3520  0.5670
 1164SOL     OW 4700   3.807   1.245   1.943 -0.2272 -0.3822  0.0660
 1164SOL    HW2 4701   3.802   1.252   2.038 -1.7072  1.2536 -0.0929
 1164SOL    HW3 4702   3.731   1.192   1.919 -0.1832 -0.3157 -0.2194
 1164SOL    MW4 4703   3.796   1.239   1.952 -0.4168 -0.1575  0.0074
 1165SOL     OW 4704   3.833   1.522   1.851  0.3350  0.2259 -0.3824
 1165SOL    HW2 4705   3.900   1.561   1.907 -0.5471  0.3108  0.6286
 1165SOL    HW3 4706   3.821   1.433   1.887 -0.0258  0.1809 -0.6137
 1165SOL    MW4 4707   3.840   1.515   1.863  0.1709  0.2311 -0.2795
 1166SOL     OW 4708   3.594   1.635   1.906  0.1312  0.3714 -0.1847
 1166SOL    HW2 4709   3.585   1.718   1.859  0.7189 -0.4366 -1.7513
 1166SOL    HW3 4710   3.676   1.598   1.873 -1.2616 -1.8965 -1.1509
 1166SOL    MW4 4711   3.604   1.641   1.895  0.0250 -0.0343 -0.5187
 1167SOL     OW 4712   3.557   1.900   1.847  0.0578  0.3323  0.3571
 1167SOL    HW2 4713   3.629   1.949   1.886  1.1689 -1.7715  1.0296
 1167SOL    HW3 4714   3.560   1.922   1.754  1.4609  0.3986  0.4159
 1167SOL    MW4 4715   3.567   1.909   1.840  0.3893  0.0635  0.4536
 1168SOL     OW 4716   3.771   2.033   1.953 -0.1810  0.8178 -0.4385
 1168SOL    HW2 4717   3.860   2.001   1.940  0.0485  1.6906 -1.0217
 1168SOL    HW3 4718   3.775   2.126   1.930 -0.4729  1.6685  2.7177
 1168SOL    MW4 4719   3.783   2.041   1.948 -0.1891  1.0452 -0.0991
 1169SOL     OW 4720   3.791   2.307   1.885 -0.2806  0.2340 -0.0277
 1169SOL    HW2 4721   3.866   2.359   1.913 -1.2185  0.5773  1.9394
 1169SOL    HW3 4722   3.719   2.338   1.940 -1.7005 -0.5968 -1.3833
 1169SOL    MW4 4723   3.791   2.318   1.896 -0.5918  0.1698  0.0532
 1170SOL     OW 4724   3.554   2.438   1.991 -0.8167  0.3723  0.0268
 1170SOL    HW2 4725   3.548   2.526   1.954 -0.9103  0.1767 -0.4215
 1170SOL    HW3 4726   3.485   2.388   1.947  0.2654 -0.3493 -0.8899
 1170SOL    MW4 4727   3.544   2.443   1.980 -0.6862  0.2513 -0.1532
 1171SOL     OW 4728   3.530   2.696   1.882  0.3037 -0.3448 -0.3980
 1171SOL    HW2 4729   3.617   2.733   1.896  0.3053 -1.1312  1.8906
 1171SOL    HW3 4730   3.470   2.767   1.905  0.3331 -0.3634 -0.2628
 1171SOL    MW4 4731   3.533   2.710   1.887  0.3078 -0.4508 -0.0783
 1172SOL     OW 4732   3.774   2.814   1.947  0.1681  0.7782 -0.4810
 1172SOL    HW2 4733   3.796   2.810   2.040 -1.9122  0.6210  0.0237
 1172SOL    HW3 4734   3.805   2.900   1.919  1.0765  0.7018  0.2820
 1172SOL    MW4 4735   3.781   2.825   1.956  0.0136  0.7474 -0.3138
 1173SOL     OW 4736   3.848   3.069   1.868  0.0617 -0.4453  0.3528
 1173SOL    HW2 4737   3.785   3.136   1.897  1.1543  0.5854  0.4007
 1173SOL    HW3 4738   3.841   3.070   1.773  1.2728  0.9358  0.2699
 1173SOL    MW4 4739   3.838   3.078   1.859  0.3655 -0.1271  0.3482
 1174SOL     OW 4740   3.656   3.224   1.999  0.0777 -0.0626  0.0418
 1174SOL    HW2 4741   3.633   3.217   2.092  0.0870  0.0632  0.0535
 1174SOL    HW3 4742   3.662   3.318   1.983 -0.7125 -0.0665 -0.2850
 1174SOL    MW4 4743   3.654   3.235   2.009 -0.0253 -0.0467  0.0000
 1175SOL     OW 4744   3.640   3.477   1.906  0.3809 -0.3511 -0.4625
 1175SOL    HW2 4745   3.711   3.536   1.930  0.5019 -0.6947  0.0454
 1175SOL    HW3 4746   3.636   3.481   1.810  0.1061  0.7984 -0.3999
 1175SOL    MW4 4747   3.649   3.485   1.896  0.3607 -0.2446 -0.3872
 1176SOL     OW 4748   3.852   3.642   1.997  0.3539  0.1083  0.2619
 1176SOL    HW2 4749   3.927   3.614   1.945 -0.6299 -1.0158 -0.5654
 1176SOL    HW3 4750   3.835   3.731   1.968 -0.7618 -0.8216 -2.0318
 1176SOL    MW4 4751   3.860   3.650   1.987  0.0768 -0.1626 -0.1498
 1177SOL     OW 4752   3.818   3.896   1.899  0.1262  0.5164  0.0144
 1177SOL    HW2 4753   3.743   3.950   1.924  0.3988  1.8638 -1.9983
 1177SOL    HW3 4754   3.813   3.892   1.803  1.2202 -1.4297  0.0250
 1177SOL    MW4 4755   3.807   3.902   1.890  0.3068  0.4375 -0.2499
 1178SOL     OW 4756   3.600   4.033   1.992  0.3492 -0.5951  0.0698
 1178SOL    HW2 4757   3.610   4.022   2.086  1.7054 -0.9301 -0.1054
 1178SOL    HW3 4758   3.523   3.979   1.970  1.1756 -2.0600  0.6949
 1178SOL    MW4 4759   3.591   4.024   2.001  0.6373 -0.8316  0.1290
 1179SOL     OW 4760   3.595   4.276   1.837 -0.2399 -0.3211 -0.3639
 1179SOL    HW2 4761   3.673   4.320   1.869 -0.1502 -0.4137 -0.4548
 1179SOL    HW3 4762   3.590   4.196   1.889 -1.0128  0.3219  0.5578
 1179SOL    MW4 4763   3.605   4.271   1.848 -0.3300 -0.2480 -0.2543
 1180SOL     OW 4764   3.806   4.387   1.988 -0.3326 -0.2651  0.2625
 1180SOL    HW2 4765   3.815   4.361   2.079 -0.8257 -0.9048  0.1325
 1180SOL    HW3 4766   3.875   4.337   1.942  0.0243  0.1822  0.3052
 1180SOL    MW4 4767   3.817   4.377   1.994 -0.3505 -0.2904  0.2509
 1181SOL     OW 4768   4.245   0.006   1.852 -0.1347 -0.3625  0.4368
 1181SOL    HW2 4769   4.170   0.044   1.897  0.4764  1.3109  0.0828
 1181SOL    HW3 4770   4.321   0.036   1.902  0.3668 -1.1550  0.1663
 1181SOL    MW4 4771   4.245   0.015   1.865  0.0119 -0.2463  0.3543
 1182SOL     OW 4772   4.002   0.119   1.965 -0.4885  0.3034  0.0669
 1182SOL    HW2 4773   4.009   0.107   2.059 -1.4380  0.6393  0.1835
 1182SOL    HW3 4774   3.918   0.079   1.941  0.0818 -0.4466 -0.7521
 1182SOL    MW4 4775   3.992   0.112   1.974 -0.5383  0.2488 -0.0257
 1183SOL     OW 4776   3.992   0.387   1.879 -0.1010  0.2316 -0.0426
 1183SOL    HW2 4777   4.001   0.298   1.914 -2.1371  0.2310  0.5062
 1183SOL    HW3 4778   3.923   0.427   1.931 -0.6674  1.4499 -1.6758
 1183SOL    MW4 4779   3.984   0.381   1.890 -0.4444  0.3923 -0.1856
 1184SOL     OW 4780   4.228   0.530   1.962 -0.0919  0.4387  0.3025
 1184SOL    HW2 4781   4.239   0.506   2.054 -0.7785  1.6694  0.7272
 1184SOL    HW3 4782   4.144   0.491   1.938  0.8250 -1.2149 -0.2724
 1184SOL    MW4 4783   4.218   0.522   1.971 -0.0610  0.3829  0.2828
 1185SOL     OW 4784   4.311   0.774   1.883  0.0842  0.2841 -0.1957
 1185SOL    HW2 4785   4.276   0.686   1.900  0.9237 -0.0834 -0.3532
 1185SOL    HW3 4786   4.337   0.771   1.791 -1.0372  1.1031 -0.5558
 1185SOL    MW4 4787   4.309   0.762   1.873  0.0472  0.3436 -0.2639
 1186SOL     OW 4788   4.064   0.884   1.987 -0.1236 -0.1815 -0.1789
 1186SOL    HW2 4789   4.145   0.845   1.953  0.6239  0.1706  1.1317
 1186SOL    HW3 4790   3.996   0.821   1.964  0.6958 -1.0319 -0.3274
 1186SOL    MW4 4791   4.066   0.870   1.980  0.0830 -0.2472 -0.0257
 1187SOL     OW 4792   4.067   1.137   1.861  0.0888 -0.3091  0.0100
 1187SOL    HW2 4793   4.071   1.045   1.887 -1.3157 -0.5208 -0.4613
 1187SOL    HW3 4794   3.980   1.166   1.889  0.4750  0.8324  0.0244
 1187SOL    MW4 4795   4.056   1.128   1.868 -0.0458 -0.1864 -0.0502
 1188SOL     OW 4796   4.312   1.253   1.922  0.2994 -0.2282 -0.0147
 1188SOL    HW2 4797   4.303   1.259   2.018  0.1321  1.4335 -0.1167
 1188SOL    HW3 4798   4.231   1.210   1.894 -1.3038  2.4240  0.3115
 1188SOL    MW4 4799   4.300   1.248   1.931  0.0648  0.3409  0.0149
 1189SOL     OW 4800   4.280   1.537   1.870 -0.0875 -0.0498 -0.2428
 1189SOL    HW2 4801   4.313   1.456   1.909  2.7850  0.7796 -0.8059
 1189SOL    HW3 4802   4.259   1.512   1.780 -0.4165 -0.4556 -0.0567
 1189SOL    MW4 4803   4.282   1.523   1.863  0.2484  0.0061 -0.2927
 1190SOL     OW 4804   4.049   1.617   1.976  0.2347  0.7035 -0.1069
 1190SOL    HW2 4805   4.060   1.618   2.071 -0.9919 -0.5963  0.0606
 1190SOL    HW3 4806   4.137   1.601   1.942  0.5671  0.5252  0.8310
 1190SOL    MW4 4807   4.062   1.615   1.984  0.1168  0.5084  0.0391
 1191SOL     OW 4808   4.012   1.892   1.894  0.0813 -0.2131  0.1544
 1191SOL    HW2 4809   4.037   1.807   1.929  1.2973  0.5072  1.1084
 1191SOL    HW3 4810   4.017   1.882   1.799 -0.2980 -1.3463  0.2533
 1191SOL    MW4 4811   4.016   1.880   1.886  0.1917 -0.2675  0.2933
 1192SOL     OW 4812   4.247   2.060   1.972  0.0057  0.0377 -0.4227
 1192SOL    HW2 4813   4.242   2.065   2.067 -1.3007 -0.9848 -0.4245
 1192SOL    HW3 4814   4.177   1.999   1.947  0.4938  0.0983 -2.0124
 1192SOL    MW4 4815   4.237   2.052   1.981 -0.1020 -0.0894 -0.6326
 1193SOL     OW 4816   4.259   2.339   1.898  0.1770  0.1223  0.1563
 1193SOL    HW2 4817   4.275   2.246   1.915 -0.9033  0.1421  1.3283
 1193SOL    HW3 4818   4.338   2.383   1.929  0.6949 -0.4018 -0.4073
 1193SOL    MW4 4819   4.272   2.333   1.904  0.1025  0.0560  0.2365
 1194SOL     OW 4820   4.009   2.442   1.959 -0.3090 -0.0333  0.1754
 1194SOL    HW2 4821   4.024   2.445   2.053 -1.8013 -0.5770  0.4447
 1194SOL    HW3 4822   4.088   2.401   1.923 -0.5817 -1.6556  1.3819
 1194SOL    MW4 4823   4.021   2.437   1.967 -0.5422 -0.3190  0.3700
 1195SOL     OW 4824   4.033   2.718   1.913  0.1346  0.1500  0.3667
 1195SOL    HW2 4825   4.030   2.624   1.931 -0.1937  0.3532  1.3620
 1195SOL    HW3 4826   3.943   2.748   1.922 -0.2972  0.0398 -2.8657
 1195SOL    MW4 4827   4.021   2.709   1.916  0.0343  0.1621  0.0715
 1196SOL     OW 4828   4.271   2.847   2.023 -0.1581  0.1344  0.6985
 1196SOL    HW2 4829   4.279   2.844   2.118  0.5714  0.5770  0.6579
 1196SOL    HW3 4830   4.190   2.800   2.003 -0.2966  0.0259  1.5349
 1196SOL    MW4 4831   4.262   2.841   2.033 -0.0796  0.1786  0.8035
 1197SOL     OW 4832   4.275   3.094   1.905 -0.0962 -0.1982 -0.3525
 1197SOL    HW2 4833   4.195   3.142   1.927  0.4841  0.1622  0.9908
 1197SOL    HW3 4834   4.274   3.017   1.962  0.2927 -0.4352 -0.6572
 1197SOL    MW4 4835   4.264   3.090   1.915  0.0319 -0.1819 -0.2155
 1198SOL     OW 4836   4.034   3.249   1.959  0.2269  0.3809 -0.2573
 1198SOL    HW2 4837   4.016   3.237   2.052  1.4086  0.0488 -0.0580
 1198SOL    HW3 4838   3.973   3.191   1.915 -0.8679  1.1151  0.2769
 1198SOL    MW4 4839   4.024   3.240   1.966  0.2384  0.4339 -0.1606
 1199SOL     OW 4840   4.050   3.523   1.853  0.2460  0.3220  0.4047
 1199SOL    HW2 4841   4.119   3.557   1.908  1.2250 -0.4959 -0.2868
 1199SOL    HW3 4842   4.031   3.436   1.889  0.5607 -0.0230 -0.2446
 1199SOL    MW4 4843   4.057   3.516   1.865  0.4168  0.1690  0.2278
 1200SOL     OW 4844   4.240   3.652   2.015 -0.1056 -0.2915 -0.1303
 1200SOL    HW2 4845   4.227   3.738   1.975  1.9868  0.4484  0.7585
 1200SOL    HW3 4846   4.311   3.612   1.964  0.8949 -0.3280  1.2892
 1200SOL    MW4 4847   4.247   3.658   2.003  0.3023 -0.1988  0.1743
 1201SOL     OW 4848   4.244   3.898   1.857 -0.0139 -0.1068 -0.5383
 1201SOL    HW2 4849   4.325   3.939   1.888  1.3685 -2.6727 -0.6403
 1201SOL    HW3 4850   4.257   3.889   1.762 -0.9107  0.5323 -0.7247
 1201SOL    MW4 4851   4.256   3.902   1.849  0.0505 -0.3607 -0.5764
 1202SOL     OW 4852   4.031   4.035   1.995 -0.0936 -0.1826  0.3428
 1202SOL    HW2 4853   4.101   3.993   1.945  0.3023  1.1237 -0.2081
 1202SOL    HW3 4854   3.952   3.986   1.972  0.1244  0.2490 -1.3937
 1202SOL    MW4 4855   4.030   4.023   1.985 -0.0124  0.0463  0.0409
 1203SOL     OW 4856   4.038   4.263   1.848  0.0570 -0.1139  0.0434
 1203SOL    HW2 4857   4.118   4.310   1.873 -0.8806  0.1132  2.7491
 1203SOL    HW3 4858   4.049   4.176   1.886 -1.4204  0.2452  1.3143
 1203SOL    MW4 4859   4.050   4.258   1.856 -0.2613 -0.0367  0.5682
 1204SOL     OW 4860   4.282   4.407   1.921 -0.9616  0.3407  0.4041
 1204SOL    HW2 4861   4.280   4.400   2.017 -0.0335  0.8951  0.4748
 1204SOL    HW3 4862   4.273   4.501   1.905 -0.7623  0.2808 -0.0400
 1204SOL    MW4 4863   4.281   4.419   1.932 -0.8125  0.4053  0.3546
 1205SOL     OW 4864   0.243   4.646   2.369 -0.4624  0.2305 -0.0124
 1205SOL    HW2 4865   0.253   4.653   2.464  0.5181  0.7938 -0.1500
 1205SOL    HW3 4866   0.315   4.697   2.334 -1.3125  0.7334 -1.0635
 1205SOL    MW4 4867   0.254   4.654   2.377 -0.4452  0.3715 -0.1695
 1206SOL     OW 4868   0.025   0.120   2.294 -0.2941  0.5056 -0.0267
 1206SOL    HW2 4869   0.104   0.073   2.321 -0.5074 -0.2844 -0.7633
 1206SOL    HW3 4870   0.018   0.105   2.200 -0.5025  1.8222 -0.2415
 1206SOL    MW4 4871   0.034   0.112   2.285 -0.3497  0.5751 -0.1523
 1207SOL     OW 4872   0.005   0.404   2.342 -0.2791  0.1413 -0.4939
 1207SOL    HW2 4873   0.085   0.448   2.313  1.0711 -1.7229  0.3624
 1207SOL    HW3 4874   0.016   0.313   2.315 -1.8140 -0.2919  0.2645
 1207SOL    MW4 4875   0.017   0.398   2.334 -0.3033 -0.1618 -0.2806
 1208SOL     OW 4876   0.255   0.504   2.262 -0.2215  0.2265 -0.0106
 1208SOL    HW2 4877   0.321   0.444   2.295 -0.6477 -0.4285 -0.3379
 1208SOL    HW3 4878   0.251   0.487   2.168 -0.5973  0.5155 -0.0501
 1208SOL    MW4 4879   0.263   0.494   2.254 -0.3273  0.1782 -0.0591
 1209SOL     OW 4880   0.200   0.743   2.383  0.1495  0.0741  0.1698
 1209SOL    HW2 4881   0.206   0.746   2.478 -1.0875 -0.2242  0.2636
 1209SOL    HW3 4882   0.214   0.651   2.361  1.7347  0.3511 -0.0428
 1209SOL    MW4 4883   0.203   0.731   2.392  0.1954  0.0713  0.1543
 1210SOL     OW 4884   4.475   0.862   2.273 -0.5103  0.1924  0.3213
 1210SOL    HW2 4885   4.549   0.827   2.322 -1.6923 -2.4824  0.2806
 1210SOL    HW3 4886   4.510   0.882   2.186  0.3883 -0.0881  0.6180
 1210SOL    MW4 4887   4.489   0.860   2.268 -0.5479 -0.1975  0.3548
 1211SOL     OW 4888   4.474   1.153   2.325  0.4586 -0.1927  0.3397
 1211SOL    HW2 4889   4.461   1.160   2.419  1.9987 -0.1794  0.5564
 1211SOL    HW3 4890   4.480   1.059   2.308 -1.2893 -0.2749  0.0297
 1211SOL    MW4 4891   4.473   1.142   2.335  0.4311 -0.2018  0.3273
 1212SOL     OW 4892   0.221   1.264   2.231  0.6772  0.0010  0.3717
 1212SOL    HW2 4893   0.128   1.247   2.244  0.4038  1.8879  1.0603
 1212SOL    HW3 4894   0.233   1.264   2.136 -0.1625  0.4236  0.2617
 1212SOL    MW4 4895   0.210   1.262   2.220  0.5303  0.3058  0.4482
 1213SOL     OW 4896   0.202   1.507   2.336  0.0974 -0.3540 -0.6756
 1213SOL    HW2 4897   0.217   1.491   2.430 -1.4907  1.2586 -0.1336
 1213SOL    HW3 4898   0.206   1.420   2.297 -0.8652 -1.2430  1.1332
 1213SOL    MW4 4899   0.204   1.493   2.343 -0.2391 -0.2584 -0.3653
 1214SOL     OW 4900   4.480   1.682   2.233 -0.5943  0.4998 -0.0243
 1214SOL    HW2 4901   4.450   1.757   2.283 -1.3139 -0.4796  1.0283
 1214SOL    HW3 4902   4.559   1.653   2.278  0.3136  1.2829 -1.0782
 1214SOL    MW4 4903   4.486   1.688   2.245 -0.5695  0.4740 -0.0248
 1215SOL     OW 4904   4.473   1.919   2.365 -0.1612 -0.1132  0.2533
 1215SOL    HW2 4905   4.406   1.977   2.328 -0.9384 -1.2855 -0.2086
 1215SOL    HW3 4906   4.551   1.936   2.313 -1.0067 -1.1166 -1.3828
 1215SOL    MW4 4907   4.474   1.929   2.353 -0.3753 -0.4002 -0.0231
 1216SOL     OW 4908   0.211   2.008   2.203 -0.4076 -0.4333  0.4294
 1216SOL    HW2 4909   0.288   1.976   2.249 -0.2373  1.3297  1.3991
 1216SOL    HW3 4910   0.240   2.020   2.112  0.6704  0.8645  0.9229
 1216SOL    MW4 4911   0.225   2.005   2.197 -0.2429 -0.0296  0.6223
 1217SOL     OW 4912   0.201   2.292   2.293  0.0274  0.1025 -0.5026
 1217SOL    HW2 4913   0.219   2.274   2.385 -0.9024  0.4714 -0.2408
 1217SOL    HW3 4914   0.197   2.206   2.252  0.7437 -0.0483 -0.2572
 1217SOL    MW4 4915   0.203   2.278   2.300 -0.0008  0.1316 -0.4356
 1218SOL     OW 4916   4.485   2.471   2.243 -0.2514 -0.1663 -0.1986
 1218SOL    HW2 4917   4.489   2.563   2.272  0.6131  0.2444 -1.5692
 1218SOL    HW3 4918   4.561   2.430   2.284 -0.8252 -0.3633  0.6858
 1218SOL    MW4 4919   4.495   2.478   2.252 -0.2127 -0.1380 -0.2630
 1219SOL     OW 4920   4.488   2.726   2.393 -0.2377 -0.3213 -0.1235
 1219SOL    HW2 4921   4.500   2.722   2.488 -1.7680  1.3721  0.1779
 1219SOL    HW3 4922   4.567   2.767   2.360  0.5955 -1.5409  0.3407
 1219SOL    MW4 4923   4.500   2.731   2.401 -0.3295 -0.2587 -0.0226
 1220SOL     OW 4924   0.220   2.838   2.252  0.3200  0.4825  0.3190
 1220SOL    HW2 4925   0.303   2.804   2.284 -0.0403 -1.6645 -0.8999
 1220SOL    HW3 4926   0.226   2.830   2.157 -1.4320 -0.1209  0.2399
 1220SOL    MW4 4927   0.232   2.833   2.243  0.0413  0.1194  0.1478
 1221SOL     OW 4928   0.251   3.111   2.344 -0.0305 -0.0112  0.2472
 1221SOL    HW2 4929   0.169   3.154   2.320 -1.6510 -2.9450  0.2930
 1221SOL    HW3 4930   0.236   3.018   2.327  3.0215 -0.7308  1.0225
 1221SOL    MW4 4931   0.238   3.105   2.339  0.1584 -0.4933  0.3557
 1222SOL     OW 4932   0.030   3.240   2.260 -0.0683 -0.2607  0.0724
 1222SOL    HW2 4933   0.029   3.334   2.278  1.5248 -0.0880 -0.6704
 1222SOL    HW3 4934   0.024   3.233   2.165  1.9101 -0.8346 -0.0330
 1222SOL    MW4 4935   0.029   3.251   2.250  0.4029 -0.3133 -0.0393
 1223SOL     OW 4936   4.487   3.492   2.349  0.0924  0.3497 -0.1701
 1223SOL    HW2 4937   4.482   3.503   2.444 -1.4314 -0.0663 -0.1955
 1223SOL    HW3 4938   4.410   3.536   2.316  0.9465  1.0311 -1.2794
 1223SOL    MW4 4939   4.476   3.499   2.357  0.0043  0.3846 -0.3200
 1224SOL     OW 4940   0.235   3.590   2.263  0.0930  0.2427  0.0547
 1224SOL    HW2 4941   0.311   3.537   2.287 -0.6307 -0.8321 -0.0162
 1224SOL    HW3 4942   0.161   3.548   2.307 -0.8826 -0.3490 -2.0851
 1224SOL    MW4 4943   0.235   3.578   2.272 -0.1312  0.0229 -0.2370
 1225SOL     OW 4944   0.268   3.830   2.394  0.6687  0.4164 -0.1911
 1225SOL    HW2 4945   0.197   3.890   2.369  0.3281 -0.2081 -0.7335
 1225SOL    HW3 4946   0.253   3.752   2.342  1.5793  0.1531 -0.0665
 1225SOL    MW4 4947   0.256   3.828   2.384  0.7439  0.2992 -0.2460
 1226SOL     OW 4948   0.028   3.998   2.255 -0.2526 -0.5446 -0.0184
 1226SOL    HW2 4949  -0.004   4.079   2.294 -0.6322 -0.9218  0.4730
 1226SOL    HW3 4950   0.011   4.008   2.162  0.5442  0.3163 -0.0680
 1226SOL    MW4 4951   0.021   4.010   2.248 -0.1976 -0.4807  0.0398
 1227SOL     OW 4952   4.473   4.255   2.391 -0.0395 -0.4090 -0.2771
 1227SOL    HW2 4953   4.477   4.271   2.485 -1.9305  0.8794 -0.3890
 1227SOL    HW3 4954   4.544   4.308   2.354  0.1303 -0.2119  0.3413
 1227SOL    MW4 4955   4.483   4.264   2.398 -0.2666 -0.2136 -0.2103
 1228SOL     OW 4956   0.205   4.382   2.250 -0.0785 -0.9705 -0.1000
 1228SOL    HW2 4957   0.261   4.326   2.304 -0.3001  0.6565  1.8275
 1228SOL    HW3 4958   0.218   4.470   2.284 -1.4920 -0.1461 -1.6333
 1228SOL    MW4 4959   0.214   4.386   2.262 -0.2942 -0.6471 -0.0482
 1229SOL     OW 4960   0.684   4.641   2.355 -0.1706  0.1772 -0.2077
 1229SOL    HW2 4961   0.676   4.662   2.449  0.3787 -1.5852  0.2496
 1229SOL    HW3 4962   0.775   4.665   2.334 -0.7422  2.0240 -0.6914
 1229SOL    MW4 4963   0.695   4.647   2.365 -0.1736  0.1884 -0.2110
 1230SOL     OW 4964   0.476   0.132   2.247 -0.8163 -0.0238 -0.0059
 1230SOL    HW2 4965   0.549   0.076   2.273  0.1778  1.2301 -0.0839
 1230SOL    HW3 4966   0.457   0.106   2.156 -1.1063 -1.0151  0.3345
 1230SOL    MW4 4967   0.483   0.121   2.238 -0.7234  0.0108  0.0286
 1231SOL     OW 4968   0.460   0.367   2.390  0.0492  0.0942  0.1190
 1231SOL    HW2 4969   0.472   0.353   2.483 -0.5849 -1.0508  0.0346
 1231SOL    HW3 4970   0.447   0.280   2.353  1.7440  0.3903 -1.2550
 1231SOL    MW4 4971   0.460   0.354   2.397  0.1892 -0.0178 -0.0730
 1232SOL     OW 4972   0.664   0.503   2.261  0.4814 -0.0406  0.6027
 1232SOL    HW2 4973   0.649   0.591   2.296  0.2705  0.9942 -1.9691
 1232SOL    HW3 4974   0.589   0.452   2.289 -0.8663  1.3917 -0.3082
 1232SOL    MW4 4975   0.652   0.508   2.269  0.2758  0.2849  0.1435
 1233SOL     OW 4976   0.657   0.754   2.384  0.1102  0.2000  0.5075
 1233SOL    HW2 4977   0.664   0.769   2.478  0.7504  1.0224  0.3292
 1233SOL    HW3 4978   0.574   0.796   2.359  0.1004  0.2667  0.6538
 1233SOL    MW4 4979   0.647   0.762   2.393  0.1934  0.3173  0.5031
 1234SOL     OW 4980   0.423   0.887   2.310 -0.1417 -0.2759 -0.3657
 1234SOL    HW2 4981   0.342   0.838   2.319 -0.2584 -0.2955 -1.4481
 1234SOL    HW3 4982   0.432   0.902   2.216  0.7996  0.2445 -0.2035
 1234SOL    MW4 4983   0.414   0.882   2.299 -0.0329 -0.2097 -0.4871
 1235SOL     OW 4984   0.420   1.161   2.386  0.4583  0.3938 -1.0152
 1235SOL    HW2 4985   0.413   1.068   2.364  0.3180  0.5424 -1.5911
 1235SOL    HW3 4986   0.343   1.201   2.346 -1.0111  0.3152  1.5946
 1235SOL    MW4 4987   0.409   1.154   2.378  0.2459  0.4030 -0.7467
 1236SOL     OW 4988   0.664   1.222   2.266 -0.0609 -0.1131  0.1351
 1236SOL    HW2 4989   0.673   1.309   2.305 -1.4451 -0.3060  0.9222
 1236SOL    HW3 4990   0.579   1.191   2.296 -0.6587 -0.7553 -2.1289
 1236SOL    MW4 4991   0.654   1.229   2.275 -0.3224 -0.2230 -0.0596
 1237SOL     OW 4992   0.661   1.476   2.374  0.1628  0.1198 -0.2123
 1237SOL    HW2 4993   0.679   1.471   2.467  1.4719  1.2107 -0.3983
 1237SOL    HW3 4994   0.727   1.535   2.339 -0.7190  0.2567 -1.7282
 1237SOL    MW4 4995   0.672   1.483   2.381  0.2192  0.2818 -0.4370
 1238SOL     OW 4996   0.439   1.626   2.246 -0.0192  0.2920  0.1998
 1238SOL    HW2 4997   0.502   1.580   2.301  0.7079  0.4763 -0.4834
 1238SOL    HW3 4998   0.355   1.584   2.266  0.3407 -0.0625  0.9804
 1238SOL    MW4 4999   0.436   1.615   2.256  0.1242  0.2695  0.2127
 1239SOL     OW 5000   0.450   1.877   2.339  0.3535  0.0226  0.2356
 1239SOL    HW2 5001   0.534   1.919   2.324  0.4817 -0.2083  0.2926
 1239SOL    HW3 5002   0.462   1.788   2.306  0.2044 -0.0778  0.4514
 1239SOL    MW4 5003   0.463   1.871   2.333  0.3507 -0.0211  0.2718
 1240SOL     OW 5004   0.685   2.013   2.260 -0.5181 -0.4595 -0.2687
 1240SOL    HW2 5005   0.772   1.989   2.291 -0.3071 -0.0136 -0.5115
 1240SOL    HW3 5006   0.667   2.097   2.300 -1.4454 -1.2192  0.9407
 1240SOL    MW4 5007   0.694   2.021   2.269 -0.6126 -0.5009 -0.1409
 1241SOL     OW 5008   0.628   2.270   2.353 -0.3971  0.5226  0.0834
 1241SOL    HW2 5009   0.634   2.298   2.444  1.1949 -0.4799  0.3071
 1241SOL    HW3 5010   0.707   2.305   2.311 -0.9751  0.7372 -0.8507
 1241SOL    MW4 5011   0.639   2.278   2.359 -0.2633  0.4187 -0.0103
 1242SOL     OW 5012   0.420   2.435   2.249 -0.6769 -0.9841  0.0108
 1242SOL    HW2 5013   0.486   2.376   2.285  0.1495  0.0034  0.1338
 1242SOL    HW3 5014   0.342   2.380   2.238  0.6064 -2.5366 -1.6095
 1242SOL    MW4 5015   0.418   2.420   2.252 -0.3985 -1.0588 -0.1869
 1243SOL     OW 5016   0.432   2.697   2.354 -0.6010  0.7596  0.1138
 1243SOL    HW2 5017   0.432   2.685   2.449 -1.2107  0.2708  0.0604
 1243SOL    HW3 5018   0.429   2.609   2.318  0.9274  0.8959 -0.3895
 1243SOL    MW4 5019   0.431   2.684   2.362 -0.4798  0.7129  0.0405
 1244SOL     OW 5020   0.681   2.807   2.277  0.4652  0.0250  0.0070
 1244SOL    HW2 5021   0.754   2.747   2.295  0.3411 -0.2798 -0.4745
 1244SOL    HW3 5022   0.605   2.763   2.315  0.6693  0.7849  1.3399
 1244SOL    MW4 5023   0.681   2.793   2.284  0.4757  0.0851  0.1192
 1245SOL     OW 5024   0.690   3.073   2.342 -0.8772  0.1885  0.0806
 1245SOL    HW2 5025   0.618   3.121   2.301 -0.3558  0.7247 -0.2055
 1245SOL    HW3 5026   0.681   2.983   2.308 -0.7309  0.5155 -0.8459
 1245SOL    MW4 5027   0.679   3.067   2.332 -0.7891  0.3023 -0.0796
 1246SOL     OW 5028   0.483   3.204   2.222 -0.6401  0.1102  0.2734
 1246SOL    HW2 5029   0.394   3.191   2.253 -0.4008 -0.1119  0.8723
 1246SOL    HW3 5030   0.478   3.192   2.127 -1.4258  1.0726  0.1849
 1246SOL    MW4 5031   0.471   3.201   2.213 -0.7122  0.2077  0.3407
 1247SOL     OW 5032   0.458   3.450   2.368  0.0706  0.1650  0.2125
 1247SOL    HW2 5033   0.522   3.508   2.325 -0.7904 -0.6234 -2.2145
 1247SOL    HW3 5034   0.478   3.363   2.334 -0.5049 -0.5366  1.6187
 1247SOL    MW4 5035   0.469   3.446   2.358 -0.1189 -0.0315  0.0780
 1248SOL     OW 5036   0.680   3.616   2.261  0.4412  0.1246  0.1068
 1248SOL    HW2 5037   0.699   3.708   2.281  1.4779 -0.2936  1.1514
 1248SOL    HW3 5038   0.662   3.614   2.167  0.1657  1.4293  0.1251
 1248SOL    MW4 5039   0.680   3.628   2.252  0.5416  0.2413  0.2470
 1249SOL     OW 5040   0.693   3.881   2.368 -0.1294 -0.1548  0.5304
 1249SOL    HW2 5041   0.670   3.868   2.459 -0.5758  2.2813  0.8014
 1249SOL    HW3 5042   0.611   3.906   2.325  0.4591  0.7664 -0.0909
 1249SOL    MW4 5043   0.679   3.883   2.374 -0.1106  0.2882  0.4842
 1250SOL     OW 5044   0.481   3.943   2.218  0.1367 -0.5396  0.4741
 1250SOL    HW2 5045   0.412   3.899   2.268  0.4966  0.2792  1.7071
 1250SOL    HW3 5046   0.442   3.957   2.132 -1.6182  0.7864  1.4463
 1250SOL    MW4 5047   0.467   3.939   2.213 -0.0474 -0.2565  0.7648
 1251SOL     OW 5048   0.427   4.237   2.362  0.0260  0.2935 -0.5637
 1251SOL    HW2 5049   0.499   4.288   2.325  0.3123  1.3155  1.3445
 1251SOL    HW3 5050   0.434   4.152   2.319  2.5170  0.2979 -0.2287
 1251SOL    MW4 5051   0.437   4.233   2.351  0.3924  0.4292 -0.2677
 1252SOL     OW 5052   0.663   4.381   2.249  0.3258  0.0598  0.2896
 1252SOL    HW2 5053   0.673   4.473   2.271  0.0012 -0.0199  0.7848
 1252SOL    HW3 5054   0.673   4.377   2.154 -0.1609  0.6679  0.2161
 1252SOL    MW4 5055   0.666   4.393   2.239  0.2188  0.1287  0.3452
 1253SOL     OW 5056   1.153   4.622   2.352 -0.0767 -0.2289  0.5989
 1253SOL    HW2 5057   1.123   4.611   2.442  0.2173  0.8972  0.8501
 1253SOL    HW3 5058   1.086   4.678   2.312  0.2882  0.0652  0.3929
 1253SOL    MW4 5059   1.140   4.628   2.358  0.0103 -0.0410  0.6049
 1254SOL     OW 5060   0.917   0.096   2.283 -0.6199 -0.0402 -0.5782
 1254SOL    HW2 5061   0.885   0.182   2.311 -0.8800 -0.1181 -0.6392
 1254SOL    HW3 5062   0.908   0.097   2.188 -0.3166 -0.0135 -0.6089
 1254SOL    MW4 5063   0.912   0.108   2.274 -0.6141 -0.0470 -0.5901
 1255SOL     OW 5064   0.866   0.367   2.370  0.1526  0.0674 -0.0558
 1255SOL    HW2 5065   0.946   0.395   2.326 -0.3856  1.7851  0.0159
 1255SOL    HW3 5066   0.797   0.421   2.331 -1.0532 -1.6714 -0.4190
 1255SOL    MW4 5067   0.868   0.378   2.359 -0.0775  0.0646 -0.0942
 1256SOL     OW 5068   1.085   0.468   2.242 -0.1176 -0.3396  0.0368
 1256SOL    HW2 5069   1.164   0.423   2.271 -0.0513 -0.6342 -0.5755
 1256SOL    HW3 5070   1.085   0.455   2.147 -1.1537 -0.7687  0.0903
 1256SOL    MW4 5071   1.095   0.460   2.233 -0.2455 -0.4351 -0.0370
 1257SOL     OW 5072   1.117   0.725   2.353  0.2930  0.1477 -0.5835
 1257SOL    HW2 5073   1.041   0.773   2.320 -0.2651 -0.1722  0.2131
 1257SOL    HW3 5074   1.105   0.636   2.320  0.5988  0.2197 -0.8930
 1257SOL    MW4 5075   1.105   0.719   2.344  0.2598  0.1150 -0.5193
 1258SOL     OW 5076   0.893   0.843   2.267  0.7882  0.0946  0.3990
 1258SOL    HW2 5077   0.894   0.935   2.295  0.2145  0.7405 -1.6068
 1258SOL    HW3 5078   0.815   0.806   2.309  1.7977  0.1392  2.3452
 1258SOL    MW4 5079   0.883   0.850   2.276  0.8456  0.1857  0.3912
 1259SOL     OW 5080   0.899   1.105   2.370 -0.5075  0.1378 -0.7335
 1259SOL    HW2 5081   0.967   1.163   2.337 -2.3299  2.4737 -0.5187
 1259SOL    HW3 5082   0.817   1.140   2.333 -1.6586 -2.3776 -0.7067
 1259SOL    MW4 5083   0.897   1.118   2.360 -0.8998  0.1142 -0.7019
 1260SOL     OW 5084   1.088   1.260   2.240 -0.2259  0.4021  0.1930
 1260SOL    HW2 5085   1.170   1.214   2.258 -0.1724  0.4997  0.1997
 1260SOL    HW3 5086   1.085   1.268   2.145  0.8586  2.3631  0.2966
 1260SOL    MW4 5087   1.099   1.255   2.230 -0.0757  0.6738  0.2079
 1261SOL     OW 5088   1.118   1.523   2.317 -0.0802  0.0428  0.7016
 1261SOL    HW2 5089   1.030   1.557   2.299  0.5219  0.0542 -2.5822
 1261SOL    HW3 5090   1.117   1.433   2.285  1.6799  0.7012 -1.3357
 1261SOL    MW4 5091   1.106   1.516   2.310  0.2314  0.1311 -0.0002
 1262SOL     OW 5092   0.880   1.625   2.265  0.3284 -0.0782 -0.2007
 1262SOL    HW2 5093   0.879   1.715   2.297  0.7906 -0.0595 -0.2324
 1262SOL    HW3 5094   0.901   1.632   2.172 -0.5617 -0.1635 -0.4161
 1262SOL    MW4 5095   0.883   1.638   2.257  0.2719 -0.0870 -0.2332
 1263SOL     OW 5096   0.919   1.903   2.352 -0.2428  0.5804  0.9674
 1263SOL    HW2 5097   0.931   1.910   2.447 -1.6230  1.5354  1.0934
 1263SOL    HW3 5098   0.987   1.960   2.315  0.3202  0.1762  1.3887
 1263SOL    MW4 5099   0.930   1.912   2.360 -0.3506  0.6531  1.0397
 1264SOL     OW 5100   1.124   2.029   2.257  0.0240 -0.1017  0.1392
 1264SOL    HW2 5101   1.204   1.981   2.280  0.1258  0.0992  0.2061
 1264SOL    HW3 5102   1.134   2.050   2.165 -0.0025 -0.1742  0.1198
 1264SOL    MW4 5103   1.136   2.025   2.248  0.0340 -0.0849  0.1454
 1265SOL     OW 5104   1.101   2.298   2.335 -0.3589  0.5813  0.1284
 1265SOL    HW2 5105   1.183   2.344   2.318  0.5758  0.3628  3.5486
 1265SOL    HW3 5106   1.120   2.207   2.313  0.1017  0.6610  0.1769
 1265SOL    MW4 5107   1.115   2.292   2.330 -0.1748  0.5629  0.5860
 1266SOL     OW 5108   0.866   2.381   2.230 -0.1798 -0.1504  0.7015
 1266SOL    HW2 5109   0.954   2.356   2.259 -0.6038 -0.2256  1.9447
 1266SOL    HW3 5110   0.877   2.405   2.138  1.0907 -0.4286  0.7739
 1266SOL    MW4 5111   0.879   2.381   2.222 -0.0681 -0.1969  0.8752
 1267SOL     OW 5112   0.893   2.649   2.335 -0.5058  0.3404  0.1752
 1267SOL    HW2 5113   0.892   2.644   2.431 -0.0975  0.0447  0.1623
 1267SOL    HW3 5114   0.892   2.558   2.306 -0.1271  0.4242 -0.1011
 1267SOL    MW4 5115   0.893   2.636   2.344 -0.4019  0.3128  0.1371
 1268SOL     OW 5116   1.114   2.797   2.252 -0.2080  0.2012  0.2480
 1268SOL    HW2 5117   1.185   2.745   2.290  0.5329  0.7910 -0.3108
 1268SOL    HW3 5118   1.035   2.745   2.267  0.4256 -0.7431  0.3322
 1268SOL    MW4 5119   1.113   2.784   2.259 -0.0266  0.1545  0.1853
 1269SOL     OW 5120   1.132   3.077   2.333 -0.3338  0.5535 -0.1388
 1269SOL    HW2 5121   1.051   3.117   2.300 -0.4991 -0.6115 -1.1891
 1269SOL    HW3 5122   1.130   2.988   2.298  2.1315  0.9804 -1.4837
 1269SOL    MW4 5123   1.121   3.071   2.324 -0.0303  0.4561 -0.4547
 1270SOL     OW 5124   0.916   3.213   2.241 -0.6083  0.1458 -0.0121
 1270SOL    HW2 5125   0.921   3.300   2.282 -0.4785  0.1697 -0.0757
 1270SOL    HW3 5126   0.839   3.172   2.280 -0.7705  0.3555 -0.1077
 1270SOL    MW4 5127   0.907   3.219   2.252 -0.6126  0.1767 -0.0331
 1271SOL     OW 5128   0.904   3.459   2.332 -0.2383  0.1608  0.0346
 1271SOL    HW2 5129   0.909   3.460   2.428 -0.4280 -2.6936  0.1245
 1271SOL    HW3 5130   0.837   3.525   2.311 -0.6501  0.3669  1.9006
 1271SOL    MW4 5131   0.896   3.468   2.342 -0.3176 -0.1888  0.2928
 1272SOL     OW 5132   1.123   3.586   2.216 -0.5968  0.1008  0.4039
 1272SOL    HW2 5133   1.193   3.530   2.249  0.1944  0.3627 -0.8071
 1272SOL    HW3 5134   1.042   3.543   2.244  0.0222 -1.0420  0.4328
 1272SOL    MW4 5135   1.121   3.573   2.224 -0.4108 -0.0157  0.2480
 1273SOL     OW 5136   1.115   3.844   2.302  0.8446  0.5325 -0.0305
 1273SOL    HW2 5137   1.198   3.879   2.271  1.2727 -0.1064  0.3925
 1273SOL    HW3 5138   1.115   3.753   2.274  0.3571  0.4845  0.1165
 1273SOL    MW4 5139   1.126   3.837   2.294  0.8368  0.4420  0.0448
 1274SOL     OW 5140   0.898   4.004   2.222  0.0862 -0.5894  0.1866
 1274SOL    HW2 5141   0.971   3.952   2.255  0.2402  0.1088  0.9758
 1274SOL    HW3 5142   0.821   3.964   2.263  0.1289 -0.6676  0.1910
 1274SOL    MW4 5143   0.897   3.992   2.232  0.1122 -0.5081  0.2916
 1275SOL     OW 5144   0.880   4.246   2.345 -0.7565  0.6534 -0.1452
 1275SOL    HW2 5145   0.878   4.156   2.314 -0.1272 -0.0377  1.7718
 1275SOL    HW3 5146   0.805   4.288   2.304 -2.0820 -1.2203  0.3431
 1275SOL    MW4 5147   0.870   4.240   2.336 -0.8484  0.3152  0.1719
 1276SOL     OW 5148   1.138   4.356   2.264  0.2307 -0.0323  0.3027
 1276SOL    HW2 5149   1.053   4.315   2.278  0.1312  0.2148  0.4417
 1276SOL    HW3 5150   1.127   4.445   2.299 -0.3122  0.9287 -2.1868
 1276SOL    MW4 5151   1.125   4.363   2.271  0.1460  0.1268 -0.0074
 1277SOL     OW 5152   1.584   4.618   2.348 -0.3355 -0.0537 -0.0912
 1277SOL    HW2 5153   1.662   4.667   2.323  0.1898 -1.9989 -2.4536
 1277SOL    HW3 5154   1.511   4.668   2.311  0.1697 -0.7181 -2.0837
 1277SOL    MW4 5155   1.584   4.631   2.340 -0.1997 -0.3982 -0.6659
 1278SOL     OW 5156   1.335   0.120   1.987 -0.7501  0.2664  0.2633
 1278SOL    HW2 5157   1.405   0.081   1.935 -0.7561  1.9699 -1.0509
 1278SOL    HW3 5158   1.355   0.095   2.077  0.5991 -0.6843 -0.2830
 1278SOL    MW4 5159   1.347   0.111   1.992 -0.5729  0.3657  0.0178
 1279SOL     OW 5160   1.364   0.101   2.253  0.1102 -0.3843 -0.1593
 1279SOL    HW2 5161   1.297   0.058   2.307 -1.0637 -0.6337 -1.7521
 1279SOL    HW3 5162   1.358   0.194   2.277 -0.6331 -0.4448 -0.0787
 1279SOL    MW4 5163   1.354   0.108   2.263 -0.1427 -0.4252 -0.3591
 1280SOL     OW 5164   1.322   0.344   2.354  0.5752 -0.5872 -0.7814
 1280SOL    HW2 5165   1.325   0.357   2.449 -0.9532  0.3210 -0.8413
 1280SOL    HW3 5166   1.384   0.407   2.318 -1.0084  1.1401 -0.5571
 1280SOL    MW4 5167   1.331   0.354   2.362  0.1646 -0.2395 -0.7598
 1281SOL     OW 5168   1.571   0.729   2.352 -0.7643 -0.7919  0.1945
 1281SOL    HW2 5169   1.653   0.771   2.328 -0.6961 -0.1902  1.4607
 1281SOL    HW3 5170   1.575   0.643   2.310  0.4209 -0.6939  0.0944
 1281SOL    MW4 5171   1.582   0.723   2.343 -0.5990 -0.6996  0.3483
 1282SOL     OW 5172   1.344   0.867   2.274  0.0149 -0.2673  0.1726
 1282SOL    HW2 5173   1.421   0.819   2.304 -0.9545 -2.3186 -0.5362
 1282SOL    HW3 5174   1.270   0.819   2.312 -0.9825  0.4814 -0.7977
 1282SOL    MW4 5175   1.345   0.854   2.283 -0.2447 -0.4392 -0.0491
 1283SOL     OW 5176   1.332   1.162   2.330  0.6537 -0.6678  0.5520
 1283SOL    HW2 5177   1.346   1.158   2.424 -2.3749 -1.1787  1.0243
 1283SOL    HW3 5178   1.312   1.072   2.304 -1.8080 -0.0057  0.0167
 1283SOL    MW4 5179   1.332   1.150   2.339 -0.0706 -0.6479  0.5436
 1284SOL     OW 5180   1.579   1.249   2.215  0.5464  0.2223 -0.0983
 1284SOL    HW2 5181   1.497   1.218   2.252  1.0272 -1.0981 -0.1398
 1284SOL    HW3 5182   1.559   1.263   2.122 -0.1481  1.7636  0.2663
 1284SOL    MW4 5183   1.566   1.247   2.207  0.5182  0.2514 -0.0558
 1285SOL     OW 5184   1.578   1.511   2.339  0.0289 -0.0489  0.2774
 1285SOL    HW2 5185   1.657   1.560   2.315 -1.4430  1.8791 -0.8319
 1285SOL    HW3 5186   1.593   1.423   2.304  1.2238  0.6051 -0.9211
 1285SOL    MW4 5187   1.591   1.506   2.331 -0.0076  0.2918 -0.0269
 1286SOL     OW 5188   1.363   1.674   2.223 -0.1692  0.5114  0.5929
 1286SOL    HW2 5189   1.446   1.632   2.248 -0.4602 -0.4192  0.0092
 1286SOL    HW3 5190   1.296   1.623   2.269 -0.5930 -0.2494 -0.8503
 1286SOL    MW4 5191   1.365   1.661   2.233 -0.2636  0.2884  0.3257
 1287SOL     OW 5192   1.340   1.905   2.352 -0.3203  0.5509 -0.3133
 1287SOL    HW2 5193   1.411   1.957   2.314  1.1446 -1.0601  0.1435
 1287SOL    HW3 5194   1.348   1.819   2.309 -0.5040 -0.3639  1.4534
 1287SOL    MW4 5195   1.351   1.900   2.341 -0.1514  0.2176 -0.0198
 1288SOL     OW 5196   1.540   2.067   2.236 -0.1089 -0.1392 -0.0409
 1288SOL    HW2 5197   1.623   2.028   2.264 -0.3482 -0.2290  0.5525
 1288SOL    HW3 5198   1.539   2.057   2.141  1.0997  0.9251 -0.1769
 1288SOL    MW4 5199   1.551   2.060   2.228  0.0190 -0.0107  0.0196
 1289SOL     OW 5200   1.592   2.318   2.358  0.0474 -0.6172 -0.1586
 1289SOL    HW2 5201   1.586   2.306   2.453 -0.1006  0.5709 -0.0056
 1289SOL    HW3 5202   1.576   2.231   2.322 -1.0263 -0.8607  0.8598
 1289SOL    MW4 5203   1.589   2.305   2.366 -0.1137 -0.4928 -0.0038
 1290SOL     OW 5204   1.352   2.419   2.270 -0.4276  0.0886  0.3695
 1290SOL    HW2 5205   1.423   2.370   2.311 -0.1597 -0.3026 -0.5485
 1290SOL    HW3 5206   1.377   2.426   2.178 -0.9893  1.0062  0.2739
 1290SOL    MW4 5207   1.364   2.414   2.263 -0.4663  0.1578  0.2356
 1291SOL     OW 5208   1.350   2.682   2.348 -0.2328  0.3442  0.0826
 1291SOL    HW2 5209   1.421   2.733   2.312  1.1949 -0.3868  1.7476
 1291SOL    HW3 5210   1.361   2.595   2.310  0.7924 -0.2105  1.5836
 1291SOL    MW4 5211   1.361   2.677   2.339  0.0908  0.1745  0.5002
 1292SOL     OW 5212   1.545   2.833   2.216 -0.1923  0.1272 -0.2676
 1292SOL    HW2 5213   1.621   2.792   2.257 -0.0009 -0.5259 -1.2669
 1292SOL    HW3 5214   1.547   2.923   2.248  1.3984  0.3018 -0.8116
 1292SOL    MW4 5215   1.555   2.840   2.226  0.0428  0.0641 -0.4714
 1293SOL     OW 5216   1.584   3.079   2.347 -0.1647  0.2573 -0.6766
 1293SOL    HW2 5217   1.584   3.093   2.442  0.2923 -0.0276 -0.6301
 1293SOL    HW3 5218   1.524   3.145   2.313 -0.9432 -0.1591 -0.1180
 1293SOL    MW4 5219   1.576   3.090   2.355 -0.2071  0.1645 -0.5970
 1294SOL     OW 5220   1.374   3.205   2.251  0.1436  0.2322 -0.0025
 1294SOL    HW2 5221   1.298   3.157   2.283  0.8588  0.7520  2.6125
 1294SOL    HW3 5222   1.361   3.211   2.156 -2.0994 -1.3277  0.1741
 1294SOL    MW4 5223   1.362   3.200   2.242 -0.0581  0.0949  0.3657
 1295SOL     OW 5224   1.349   3.478   2.353  0.0723 -0.2798  0.1021
 1295SOL    HW2 5225   1.329   3.484   2.446  0.8534  1.5668  0.1690
 1295SOL    HW3 5226   1.352   3.384   2.335  0.2991 -0.6526  2.0117
 1295SOL    MW4 5227   1.347   3.467   2.363  0.2052 -0.0851  0.3626
 1296SOL     OW 5228   1.558   3.599   2.211 -0.0273  0.0737  0.0306
 1296SOL    HW2 5229   1.559   3.692   2.232 -0.5931  0.7321 -2.6363
 1296SOL    HW3 5230   1.505   3.559   2.280  1.2824  1.5135  1.9111
 1296SOL    MW4 5231   1.551   3.606   2.223  0.0709  0.3507 -0.0732
 1297SOL     OW 5232   1.587   3.864   2.302  0.4443  0.3221 -0.2336
 1297SOL    HW2 5233   1.588   3.851   2.397  2.5531 -2.3435 -0.5891
 1297SOL    HW3 5234   1.664   3.918   2.285  1.1257 -0.7882 -0.6478
 1297SOL    MW4 5235   1.597   3.869   2.313  0.8125 -0.1762 -0.3352
 1298SOL     OW 5236   1.353   3.982   2.197  0.0024  0.5885  0.0133
 1298SOL    HW2 5237   1.433   3.939   2.229 -0.5865  0.2334  1.0300
 1298SOL    HW3 5238   1.358   3.973   2.102  0.2208 -1.1735  0.1686
 1298SOL    MW4 5239   1.364   3.975   2.189 -0.0465  0.3090  0.1678
 1299SOL     OW 5240   1.353   4.220   2.363  0.2491  0.6225 -0.0232
 1299SOL    HW2 5241   1.365   4.152   2.297 -1.0298 -0.9882  1.3639
 1299SOL    HW3 5242   1.270   4.262   2.340 -0.2193  0.0311  0.5647
 1299SOL    MW4 5243   1.344   4.217   2.352  0.0186  0.3319  0.2375
 1300SOL     OW 5244   1.557   4.351   2.239 -0.4110 -0.2736 -0.2751
 1300SOL    HW2 5245   1.487   4.313   2.291 -0.9891  1.0261 -0.0803
 1300SOL    HW3 5246   1.555   4.444   2.261  1.3722 -0.2249 -0.2661
 1300SOL    MW4 5247   1.548   4.358   2.248 -0.2519 -0.0949 -0.2484
 1301SOL     OW 5248   2.012   4.644   2.368  0.0348  0.1173  0.0643
 1301SOL    HW2 5249   2.097   4.679   2.342  0.4813  0.3837  1.8330
 1301SOL    HW3 5250   2.017   4.551   2.347  0.8125  0.1104  0.2660
 1301SOL    MW4 5251   2.024   4.636   2.362  0.1965  0.1512  0.3242
 1302SOL     OW 5252   1.778   0.102   2.267 -0.1948  0.0735 -0.2128
 1302SOL    HW2 5253   1.758   0.184   2.312 -1.1690 -0.0847 -0.3546
 1302SOL    HW3 5254   1.857   0.070   2.310  0.0415  0.9503  0.0220
 1302SOL    MW4 5255   1.786   0.108   2.278 -0.2922  0.1683 -0.2005
 1303SOL     OW 5256   1.753   0.368   2.358 -0.2057 -0.1078  0.0964
 1303SOL    HW2 5257   1.765   0.372   2.453 -1.2076 -0.4442  0.2451
 1303SOL    HW3 5258   1.833   0.406   2.322 -0.8703  2.2879  1.0936
 1303SOL    MW4 5259   1.766   0.373   2.366 -0.4255  0.1639  0.2475
 1304SOL     OW 5260   1.980   0.498   2.261 -0.2671 -0.1837 -0.2873
 1304SOL    HW2 5261   2.005   0.582   2.299 -1.0693  0.0046 -0.1568
 1304SOL    HW3 5262   2.000   0.506   2.168  0.2037 -0.0616 -0.1779
 1304SOL    MW4 5263   1.986   0.510   2.254 -0.3108 -0.1427 -0.2558
 1305SOL     OW 5264   2.041   0.759   2.350 -0.5439 -0.4081 -0.3287
 1305SOL    HW2 5265   2.108   0.814   2.310 -1.0083  1.1298  0.9564
 1305SOL    HW3 5266   1.960   0.782   2.303 -0.7921  0.2109  0.4063
 1305SOL    MW4 5267   2.039   0.769   2.338 -0.6378 -0.1235 -0.0620
 1306SOL     OW 5268   1.794   0.855   2.240  0.6693 -0.1780 -0.3232
 1306SOL    HW2 5269   1.802   0.942   2.279 -1.5485  0.1726 -0.5926
 1306SOL    HW3 5270   1.772   0.873   2.148 -2.1770 -1.0103  0.1671
 1306SOL    MW4 5271   1.792   0.869   2.233  0.0012 -0.2415 -0.2940
 1307SOL     OW 5272   1.825   1.132   2.307  0.5316 -0.2785 -0.5144
 1307SOL    HW2 5273   1.899   1.191   2.292  1.2455 -0.9641  0.2644
 1307SOL    HW3 5274   1.748   1.182   2.279  1.2292  0.6542 -0.7835
 1307SOL    MW4 5275   1.825   1.146   2.301  0.7178 -0.2458 -0.4473
 1308SOL     OW 5276   2.079   1.264   2.263 -0.0967  0.0095  0.3431
 1308SOL    HW2 5277   2.055   1.348   2.301 -3.1020 -0.0174 -1.3539
 1308SOL    HW3 5278   2.074   1.277   2.169 -2.6324 -2.5748  0.0534
 1308SOL    MW4 5279   2.075   1.277   2.256 -0.8278 -0.3351  0.0811
 1309SOL     OW 5280   2.025   1.524   2.313 -0.0843 -0.6053 -0.5450
 1309SOL    HW2 5281   2.021   1.523   2.409  0.0229  0.6976 -0.5279
 1309SOL    HW3 5282   1.957   1.585   2.287 -0.2066 -1.0710 -1.3084
 1309SOL    MW4 5283   2.016   1.532   2.323 -0.0865 -0.4948 -0.6435
 1310SOL     OW 5284   1.789   1.675   2.275  0.0071  0.4320 -0.6399
 1310SOL    HW2 5285   1.770   1.765   2.303  0.9120  0.1189  1.0786
 1310SOL    HW3 5286   1.789   1.679   2.180  3.5449  3.0415 -0.6435
 1310SOL    MW4 5287   1.786   1.688   2.266  0.5931  0.7349 -0.4137
 1311SOL     OW 5288   1.761   1.937   2.353  0.0272 -0.0537  0.3102
 1311SOL    HW2 5289   1.782   1.944   2.446  1.9191 -0.8379 -0.0391
 1311SOL    HW3 5290   1.842   1.962   2.308 -0.4247 -1.0472 -1.1002
 1311SOL    MW4 5291   1.774   1.941   2.360  0.2171 -0.2882  0.0782
 1312SOL     OW 5292   2.009   1.991   2.256 -0.6130  0.1377  0.3217
 1312SOL    HW2 5293   2.085   1.961   2.306 -0.9000  0.6592  1.0959
 1312SOL    HW3 5294   2.032   1.977   2.164 -0.6030 -2.0830  0.6417
 1312SOL    MW4 5295   2.022   1.985   2.251 -0.6497 -0.0864  0.4659
 1313SOL     OW 5296   2.039   2.273   2.335 -0.0909  0.2119 -0.1687
 1313SOL    HW2 5297   2.048   2.181   2.312  3.1588  0.0132  1.5376
 1313SOL    HW3 5298   2.120   2.314   2.302 -1.3539  2.3881 -0.6451
 1313SOL    MW4 5299   2.051   2.267   2.328  0.1717  0.4730 -0.0064
 1314SOL     OW 5300   1.829   2.443   2.269 -0.3018 -0.4998 -0.0819
 1314SOL    HW2 5301   1.742   2.412   2.296 -0.3472  0.1336  0.4922
 1314SOL    HW3 5302   1.890   2.379   2.306 -0.5858 -1.5713 -1.4193
 1314SOL    MW4 5303   1.825   2.430   2.277 -0.3452 -0.5577 -0.1826
 1315SOL     OW 5304   1.758   2.703   2.342 -0.2139  0.2462 -0.0702
 1315SOL    HW2 5305   1.790   2.618   2.310 -1.6061 -0.3060 -0.0335
 1315SOL    HW3 5306   1.777   2.701   2.436 -0.1949  0.0019 -0.0788
 1315SOL    MW4 5307   1.765   2.691   2.350 -0.3949  0.1414 -0.0665
 1316SOL     OW 5308   2.004   2.815   2.256  0.1637  0.4558  0.0797
 1316SOL    HW2 5309   2.074   2.766   2.298 -0.1371  0.6146  0.7688
 1316SOL    HW3 5310   1.924   2.778   2.291 -0.0990  0.3777 -0.5946
 1316SOL    MW4 5311   2.003   2.804   2.266  0.0892  0.4666  0.0815
 1317SOL     OW 5312   2.015   3.109   2.342 -0.3046  0.3216  0.1498
 1317SOL    HW2 5313   2.085   3.160   2.302  1.3244 -1.2060  0.9505
 1317SOL    HW3 5314   2.020   3.024   2.298 -0.9952 -0.1162  0.9049
 1317SOL    MW4 5315   2.025   3.104   2.331 -0.1805  0.0622  0.3550
 1318SOL     OW 5316   1.803   3.243   2.251 -0.3511  0.3351  0.2925
 1318SOL    HW2 5317   1.885   3.203   2.279 -1.4882 -1.6524  0.8630
 1318SOL    HW3 5318   1.736   3.203   2.306 -1.9215  0.6428 -1.3399
 1318SOL    MW4 5319   1.805   3.233   2.262 -0.7083  0.1137  0.1523
 1319SOL     OW 5320   1.805   3.515   2.347  0.2049  0.7709 -0.1141
 1319SOL    HW2 5321   1.817   3.428   2.309  1.6486 -0.2997  2.6386
 1319SOL    HW3 5322   1.725   3.548   2.307  0.8590 -0.8788 -2.8851
 1319SOL    MW4 5323   1.796   3.508   2.337  0.4816  0.4115 -0.1168
 1320SOL     OW 5324   2.007   3.661   2.213  0.0716  0.0669 -0.0766
 1320SOL    HW2 5325   1.947   3.592   2.241 -0.3251  0.2512 -0.4775
 1320SOL    HW3 5326   2.007   3.656   2.118 -0.3702  0.9728 -0.1278
 1320SOL    MW4 5327   1.999   3.651   2.204 -0.0390  0.2105 -0.1361
 1321SOL     OW 5328   2.017   3.900   2.351 -0.2703 -0.1327  0.2472
 1321SOL    HW2 5329   2.014   3.894   2.446 -0.1964 -1.0602  0.2004
 1321SOL    HW3 5330   2.010   3.809   2.321  0.5456  0.0726 -0.6023
 1321SOL    MW4 5331   2.016   3.887   2.360 -0.1528 -0.2282  0.1290
 1322SOL     OW 5332   1.819   4.019   2.215  0.0527  0.3273  0.5297
 1322SOL    HW2 5333   1.890   3.974   2.261  1.7785  0.7660 -1.6021
 1322SOL    HW3 5334   1.816   3.978   2.128 -1.2615  1.3728  0.0542
 1322SOL    MW4 5335   1.828   4.008   2.209  0.1069  0.5226  0.1857
 1323SOL     OW 5336   1.806   4.277   2.338 -0.6029 -0.0934 -0.0722
 1323SOL    HW2 5337   1.826   4.197   2.288 -0.7734 -0.4545  0.4365
 1323SOL    HW3 5338   1.727   4.311   2.297 -1.9145 -1.5051  1.2457
 1323SOL    MW4 5339   1.798   4.271   2.326 -0.7985 -0.3271  0.1690
 1324SOL     OW 5340   2.033   4.386   2.259 -0.1789  0.3872  0.0560
 1324SOL    HW2 5341   1.957   4.339   2.294  1.0762 -0.9160  1.1204
 1324SOL    HW3 5342   2.024   4.380   2.164 -0.7206 -0.9128  0.1846
 1324SOL    MW4 5343   2.022   4.379   2.251 -0.0846  0.0434  0.2134
 1325SOL     OW 5344   2.479   0.012   2.369  0.1787 -0.2725 -0.2606
 1325SOL    HW2 5345   2.556   0.060   2.340 -0.2265  0.3333 -0.3284
 1325SOL    HW3 5346   2.477  -0.065   2.312  1.4434 -0.9472  0.5749
 1325SOL    MW4 5347   2.489   0.008   2.358  0.2921 -0.2815 -0.1590
 1326SOL     OW 5348   2.232   0.097   2.267 -0.5246  0.3725 -0.1690
 1326SOL    HW2 5349   2.228   0.192   2.273  0.3028  0.4411 -0.5810
 1326SOL    HW3 5350   2.318   0.074   2.304 -0.1872 -0.1073 -1.2147
 1326SOL    MW4 5351   2.243   0.106   2.273 -0.3710  0.3182 -0.3612
 1327SOL     OW 5352   2.225   0.361   2.330  0.4195  0.2033 -0.5806
 1327SOL    HW2 5353   2.295   0.421   2.303  1.7424 -0.5314  1.0844
 1327SOL    HW3 5354   2.144   0.411   2.318  1.3632  1.6977 -0.8784
 1327SOL    MW4 5355   2.224   0.375   2.325  0.7186  0.3035 -0.4005
 1328SOL     OW 5356   2.451   0.506   2.221 -0.0870 -0.7613  0.1436
 1328SOL    HW2 5357   2.535   0.460   2.228  0.9516  0.8785 -1.0498
 1328SOL    HW3 5358   2.435   0.511   2.126 -0.2851  1.1068  0.2645
 1328SOL    MW4 5359   2.460   0.501   2.209  0.0241 -0.2984  0.0021
 1329SOL     OW 5360   2.473   0.764   2.335  0.6062 -0.4620  0.2913
 1329SOL    HW2 5361   2.556   0.806   2.311  0.5642 -1.1804 -1.2139
 1329SOL    HW3 5362   2.481   0.675   2.303 -0.7014 -0.5717  0.2249
 1329SOL    MW4 5363   2.485   0.758   2.327  0.4280 -0.5713  0.0839
 1330SOL     OW 5364   2.257   0.900   2.226 -0.0709 -0.7249 -0.1927
 1330SOL    HW2 5365   2.279   0.985   2.263 -0.5428 -0.1411 -1.2453
 1330SOL    HW3 5366   2.328   0.843   2.254  1.9730  0.7661 -2.2027
 1330SOL    MW4 5367   2.269   0.903   2.234  0.1366 -0.4512 -0.5970
 1331SOL     OW 5368   2.297   1.146   2.347  0.4369  0.4437 -0.0930
 1331SOL    HW2 5369   2.362   1.190   2.292  0.1598  1.7449  0.5839
 1331SOL    HW3 5370   2.213   1.167   2.305  0.3009  0.6166  0.2625
 1331SOL    MW4 5371   2.294   1.155   2.334  0.3822  0.6382  0.0432
 1332SOL     OW 5372   2.484   1.278   2.204  0.1007  0.1392  0.1594
 1332SOL    HW2 5373   2.572   1.246   2.224  0.3513  0.2013 -0.8164
 1332SOL    HW3 5374   2.473   1.355   2.260 -0.0916 -1.0104  1.7229
 1332SOL    MW4 5375   2.494   1.284   2.214  0.1085 -0.0042  0.2370
 1333SOL     OW 5376   2.464   1.514   2.342  0.3880  0.0064 -0.1086
 1333SOL    HW2 5377   2.453   1.523   2.437 -1.4395  2.2978 -0.4985
 1333SOL    HW3 5378   2.532   1.579   2.321  1.2724 -0.9649 -0.3103
 1333SOL    MW4 5379   2.472   1.524   2.352  0.2637  0.1807 -0.1864
 1334SOL     OW 5380   2.251   1.662   2.248  0.3150  0.0813  0.0973
 1334SOL    HW2 5381   2.322   1.607   2.281  0.9301  0.9703  0.2692
 1334SOL    HW3 5382   2.172   1.611   2.265  0.8327 -0.5195  0.7429
 1334SOL    MW4 5383   2.250   1.648   2.254  0.4644  0.1193  0.2050
 1335SOL     OW 5384   2.242   1.913   2.365 -0.2686  0.1043 -0.3495
 1335SOL    HW2 5385   2.308   1.963   2.317 -1.1260  1.1560 -0.4412
 1335SOL    HW3 5386   2.249   1.824   2.329  1.3062  0.1156 -0.1363
 1335SOL    MW4 5387   2.252   1.908   2.354 -0.1740  0.2446 -0.3335
 1336SOL     OW 5388   2.418   2.093   2.252 -0.4617  0.5923 -0.4098
 1336SOL    HW2 5389   2.497   2.047   2.281 -1.0049 -0.0445  0.0923
 1336SOL    HW3 5390   2.416   2.079   2.157 -0.2759  0.1078 -0.3467
 1336SOL    MW4 5391   2.428   2.085   2.243 -0.5088  0.4444 -0.3352
 1337SOL     OW 5392   2.462   2.346   2.338 -0.4581 -0.4574 -0.7324
 1337SOL    HW2 5393   2.459   2.352   2.434  0.5958  1.8460 -0.7951
 1337SOL    HW3 5394   2.445   2.254   2.319  0.8002 -1.2703  1.7538
 1337SOL    MW4 5395   2.460   2.335   2.348 -0.1526 -0.2606 -0.4125
 1338SOL     OW 5396   2.233   2.445   2.234  0.4078 -0.4139 -0.4307
 1338SOL    HW2 5397   2.318   2.408   2.256  0.0675 -0.1056  1.5522
 1338SOL    HW3 5398   2.239   2.537   2.262 -1.0225 -0.7468  1.0890
 1338SOL    MW4 5399   2.245   2.452   2.241  0.1745 -0.4170  0.0312
 1339SOL     OW 5400   2.258   2.716   2.371 -0.2776  0.5865  0.3992
 1339SOL    HW2 5401   2.260   2.708   2.466  0.5065 -0.9975  0.2622
 1339SOL    HW3 5402   2.328   2.778   2.351  0.6688 -0.3624  0.7416
 1339SOL    MW4 5403   2.267   2.724   2.381 -0.0496  0.2522  0.4265
 1340SOL     OW 5404   2.459   2.876   2.275  0.1990 -0.3038 -0.4593
 1340SOL    HW2 5405   2.542   2.837   2.305  0.2334  0.3710  0.3604
 1340SOL    HW3 5406   2.462   2.869   2.180  0.5794 -1.5297 -0.3743
 1340SOL    MW4 5407   2.471   2.870   2.266  0.2537 -0.3767 -0.3397
 1341SOL     OW 5408   2.439   3.130   2.370  0.3859  0.5322 -0.1357
 1341SOL    HW2 5409   2.524   3.160   2.338  2.2658 -2.5645  1.7389
 1341SOL    HW3 5410   2.427   3.044   2.330 -0.5239 -0.3052  1.8628
 1341SOL    MW4 5411   2.448   3.123   2.361  0.5138  0.0129  0.3753
 1342SOL     OW 5412   2.215   3.260   2.241  0.0460 -0.6106 -0.5419
 1342SOL    HW2 5413   2.220   3.355   2.249  0.1930 -0.5840 -0.9495
 1342SOL    HW3 5414   2.298   3.229   2.277  0.1364 -0.5690 -0.7175
 1342SOL    MW4 5415   2.227   3.269   2.247  0.0772 -0.6015 -0.6185
 1343SOL     OW 5416   2.222   3.521   2.307 -0.4679  0.3055 -0.2117
 1343SOL    HW2 5417   2.228   3.511   2.402 -0.3568  1.0189 -0.1403
 1343SOL    HW3 5418   2.150   3.583   2.294  0.5837  1.4743 -0.5193
 1343SOL    MW4 5419   2.213   3.528   2.317 -0.3147  0.5538 -0.2429
 1344SOL     OW 5420   2.475   3.632   2.233  0.0485 -0.3267  0.0822
 1344SOL    HW2 5421   2.488   3.717   2.273  1.8575 -0.0117 -1.1072
 1344SOL    HW3 5422   2.386   3.606   2.259 -0.4006  1.7530  0.7104
 1344SOL    MW4 5423   2.465   3.639   2.242  0.2279 -0.0105  0.0083
 1345SOL     OW 5424   2.489   3.882   2.361 -0.2244  0.6889 -0.0732
 1345SOL    HW2 5425   2.494   3.905   2.454 -1.6536 -2.0655  0.7416
 1345SOL    HW3 5426   2.400   3.905   2.335 -0.5311 -0.5531 -0.1636
 1345SOL    MW4 5427   2.478   3.888   2.370 -0.4535  0.1616  0.0224
 1346SOL     OW 5428   2.253   3.989   2.248  0.2393 -0.0288 -0.3566
 1346SOL    HW2 5429   2.267   4.081   2.272  2.2122 -0.7978  1.6456
 1346SOL    HW3 5430   2.168   3.967   2.286 -0.4748  1.0732 -1.2628
 1346SOL    MW4 5431   2.244   3.999   2.256  0.4055  0.0153 -0.2120
 1347SOL     OW 5432   2.277   4.266   2.323  0.5390  0.4400 -0.8607
 1347SOL    HW2 5433   2.287   4.250   2.417 -1.9550 -0.6241 -0.7149
 1347SOL    HW3 5434   2.191   4.307   2.315  0.2432 -0.4724 -2.7697
 1347SOL    MW4 5435   2.267   4.269   2.334  0.1709  0.1793 -1.0931
 1348SOL     OW 5436   2.473   4.422   2.241 -0.3727 -0.2320 -0.7225
 1348SOL    HW2 5437   2.547   4.375   2.279 -0.7073 -1.0657 -1.0914
 1348SOL    HW3 5438   2.396   4.380   2.280 -0.6342  1.5052  0.6873
 1348SOL    MW4 5439   2.472   4.410   2.251 -0.4513 -0.1125 -0.5851
 1349SOL     OW 5440   2.884   0.013   2.375 -0.6140  0.1201  0.0674
 1349SOL    HW2 5441   2.968   0.057   2.365 -0.2075 -0.1675  2.0088
 1349SOL    HW3 5442   2.897  -0.073   2.336 -0.1618  0.2683 -0.1043
 1349SOL    MW4 5443   2.897   0.007   2.369 -0.5007  0.1011  0.3009
 1350SOL     OW 5444   2.690   0.138   2.239  0.1518  0.2941  0.0577
 1350SOL    HW2 5445   2.698   0.231   2.258  0.8058  0.2085  0.2204
 1350SOL    HW3 5446   2.758   0.097   2.292 -0.3471 -0.3092  0.2337
 1350SOL    MW4 5447   2.700   0.145   2.249  0.1721  0.2032  0.1023
 1351SOL     OW 5448   2.704   0.411   2.319  0.1756 -0.5911 -0.5835
 1351SOL    HW2 5449   2.706   0.398   2.413 -0.4254  0.2391 -0.4506
 1351SOL    HW3 5450   2.790   0.449   2.299  0.3701 -0.9323 -0.3958
 1351SOL    MW4 5451   2.716   0.415   2.329  0.1221 -0.5266 -0.5410
 1352SOL     OW 5452   2.951   0.548   2.240 -0.0134 -0.0724 -0.3949
 1352SOL    HW2 5453   2.969   0.635   2.274  1.3710 -0.7036  0.4865
 1352SOL    HW3 5454   2.914   0.564   2.153  1.3519  1.3426 -0.7234
 1352SOL    MW4 5455   2.948   0.561   2.233  0.3498  0.0310 -0.3219
 1353SOL     OW 5456   2.960   0.819   2.343  0.0409  0.2616 -0.0460
 1353SOL    HW2 5457   2.951   0.793   2.435 -0.0460 -0.6391 -0.3066
 1353SOL    HW3 5458   2.871   0.842   2.316 -0.0152  0.0578 -0.0394
 1353SOL    MW4 5459   2.947   0.819   2.351  0.0219  0.1159 -0.0794
 1354SOL     OW 5460   2.707   0.878   2.238 -0.6084  0.0272  0.0415
 1354SOL    HW2 5461   2.699   0.971   2.259 -3.2381 -0.2595  0.4318
 1354SOL    HW3 5462   2.686   0.873   2.145 -1.7095 -0.3257  0.3053
 1354SOL    MW4 5463   2.703   0.890   2.229 -1.1008 -0.0572  0.1278
 1355SOL     OW 5464   2.700   1.155   2.313  0.0475 -0.5641 -0.2123
 1355SOL    HW2 5465   2.681   1.163   2.407 -2.8284  0.1870 -0.8083
 1355SOL    HW3 5466   2.782   1.202   2.301 -0.5357  0.9897  1.6223
 1355SOL    MW4 5467   2.708   1.162   2.324 -0.4086 -0.2601 -0.0486
 1356SOL     OW 5468   2.940   1.279   2.239  0.4464  0.4349 -0.1547
 1356SOL    HW2 5469   3.013   1.230   2.276 -0.2326 -0.3969  0.0980
 1356SOL    HW3 5470   2.955   1.278   2.145  0.6424  0.0792 -0.1170
 1356SOL    MW4 5471   2.952   1.273   2.232  0.3827  0.2781 -0.1163
 1357SOL     OW 5472   2.912   1.547   2.295  0.4997 -0.4434 -0.3790
 1357SOL    HW2 5473   2.927   1.557   2.389  2.8202  0.1631 -0.7763
 1357SOL    HW3 5474   2.919   1.453   2.280 -0.0127 -0.5558  0.0696
 1357SOL    MW4 5475   2.915   1.536   2.306  0.7381 -0.3783 -0.3724
 1358SOL     OW 5476   2.673   1.680   2.235 -0.4699  0.0237 -0.0176
 1358SOL    HW2 5477   2.752   1.642   2.275 -0.9809 -0.5261  0.4810
 1358SOL    HW3 5478   2.692   1.682   2.142  0.4035  0.5190  0.1617
 1358SOL    MW4 5479   2.686   1.676   2.228 -0.4222  0.0165  0.0718
 1359SOL     OW 5480   2.667   1.961   2.324 -0.2939 -0.2724 -0.3098
 1359SOL    HW2 5481   2.679   1.952   2.419 -1.1014 -1.0710 -0.2859
 1359SOL    HW3 5482   2.658   1.872   2.292  0.5514 -0.0382 -1.2245
 1359SOL    MW4 5483   2.667   1.948   2.332 -0.2892 -0.3468 -0.4272
 1360SOL     OW 5484   2.874   2.092   2.190  0.5614  0.5586  0.3078
 1360SOL    HW2 5485   2.949   2.035   2.206  1.0563  0.8368 -1.0329
 1360SOL    HW3 5486   2.799   2.042   2.225  1.1717 -0.3061  0.3967
 1360SOL    MW4 5487   2.874   2.078   2.197  0.7071  0.4809  0.1426
 1361SOL     OW 5488   2.724   2.451   2.270 -0.1018  0.0561 -0.0271
 1361SOL    HW2 5489   2.789   2.391   2.308 -0.4482  1.0467  2.1936
 1361SOL    HW3 5490   2.640   2.412   2.293 -0.3286 -0.2083 -1.2528
 1361SOL    MW4 5491   2.722   2.438   2.278 -0.1776  0.1521  0.1042
 1362SOL     OW 5492   2.696   2.440   1.967  0.0830  0.2678  0.1169
 1362SOL    HW2 5493   2.683   2.527   1.930  1.3564 -0.2538 -1.5942
 1362SOL    HW3 5494   2.729   2.457   2.055 -1.2880  1.5026  0.4197
 1362SOL    MW4 5495   2.699   2.454   1.974  0.0701  0.3622 -0.0689
 1363SOL     OW 5496   2.696   2.718   2.346 -0.3727 -0.2901  0.0954
 1363SOL    HW2 5497   2.786   2.746   2.327 -0.1645 -1.3209 -0.4464
 1363SOL    HW3 5498   2.691   2.628   2.313 -1.6051 -0.2410  0.1331
 1363SOL    MW4 5499   2.708   2.710   2.339 -0.5076 -0.4199  0.0286
 1364SOL     OW 5500   2.948   2.826   2.284  0.5183  0.3446 -0.0510
 1364SOL    HW2 5501   2.945   2.915   2.318  2.0515  0.8449 -1.1711
 1364SOL    HW3 5502   2.926   2.835   2.192  0.8900 -0.4126 -0.2163
 1364SOL    MW4 5503   2.944   2.839   2.277  0.7699  0.3107 -0.2205
 1365SOL     OW 5504   2.909   3.090   2.366  0.0247  0.1850 -0.1175
 1365SOL    HW2 5505   2.987   3.137   2.338  0.4472  0.0779  0.8414
 1365SOL    HW3 5506   2.838   3.129   2.316  0.7536 -0.0096 -1.3203
 1365SOL    MW4 5507   2.910   3.101   2.356  0.1769  0.1452 -0.1500
 1366SOL     OW 5508   2.672   3.225   2.249 -0.1643  0.1172  1.0175
 1366SOL    HW2 5509   2.680   3.315   2.281  0.3713  0.3799  0.1531
 1366SOL    HW3 5510   2.676   3.232   2.154 -0.7606 -0.7638  0.9197
 1366SOL    MW4 5511   2.674   3.238   2.241 -0.1721  0.0355  0.8905
 1367SOL     OW 5512   2.694   3.494   2.332  0.0434 -0.3157 -0.2818
 1367SOL    HW2 5513   2.777   3.535   2.309  0.0178  0.3524  0.7479
 1367SOL    HW3 5514   2.628   3.552   2.294 -0.0181  1.2365  2.0842
 1367SOL    MW4 5515   2.696   3.507   2.324  0.0317 -0.0226  0.1664
 1368SOL     OW 5516   2.917   3.600   2.214 -0.0696 -0.4730  0.0918
 1368SOL    HW2 5517   2.992   3.546   2.242 -0.3403 -1.2744 -0.7192
 1368SOL    HW3 5518   2.935   3.686   2.252  1.6443 -0.4519 -0.7221
 1368SOL    MW4 5519   2.929   3.604   2.223  0.1209 -0.5760 -0.1225
 1369SOL     OW 5520   2.956   3.864   2.319 -0.0475  0.0313  0.1700
 1369SOL    HW2 5521   2.970   3.870   2.414 -0.6865  2.2400  0.1549
 1369SOL    HW3 5522   2.874   3.912   2.304 -0.4747 -1.1301 -1.3956
 1369SOL    MW4 5523   2.947   3.871   2.330 -0.1881  0.1698 -0.0386
 1370SOL     OW 5524   2.722   4.005   2.268  0.3577 -0.7934  0.1711
 1370SOL    HW2 5525   2.643   3.958   2.297  0.0825 -0.7974 -0.5612
 1370SOL    HW3 5526   2.720   3.997   2.172  1.1530 -0.6350  0.1447
 1370SOL    MW4 5527   2.711   3.998   2.259  0.4263 -0.7732  0.0710
 1371SOL     OW 5528   2.704   4.268   2.359  0.0496  0.4154 -0.3299
 1371SOL    HW2 5529   2.700   4.252   2.454  0.5664  1.4253 -0.1244
 1371SOL    HW3 5530   2.715   4.181   2.320 -0.9517 -0.0891  0.4809
 1371SOL    MW4 5531   2.705   4.254   2.367 -0.0143  0.4821 -0.1960
 1372SOL     OW 5532   2.922   4.430   2.278  0.2919  0.1910 -0.0146
 1372SOL    HW2 5533   3.006   4.390   2.300  1.2209  1.2678 -1.4620
 1372SOL    HW3 5534   2.856   4.367   2.306  1.5820 -0.6163  1.2471
 1372SOL    MW4 5535   2.924   4.417   2.285  0.5848  0.2270 -0.0391
 1373SOL     OW 5536   3.353   4.630   2.341  0.1631 -0.0240  0.3333
 1373SOL    HW2 5537   3.363   4.627   2.436  0.2036 -2.0764  0.2968
 1373SOL    HW3 5538   3.427   4.681   2.310  0.0400  0.8187  1.4194
 1373SOL    MW4 5539   3.364   4.636   2.350  0.1523 -0.1836  0.4718
 1374SOL     OW 5540   3.123   0.113   2.319  0.1773 -0.0786 -0.1811
 1374SOL    HW2 5541   3.159   0.197   2.350 -1.3160  0.8468 -0.9178
 1374SOL    HW3 5542   3.194   0.050   2.334  0.9229  1.1006  1.4137
 1374SOL    MW4 5543   3.137   0.116   2.325  0.0784  0.1990 -0.0677
 1375SOL     OW 5544   3.160   0.395   2.343 -0.2770  0.2614 -0.3673
 1375SOL    HW2 5545   3.236   0.441   2.307 -1.0528  0.7236 -1.4471
 1375SOL    HW3 5546   3.085   0.450   2.319 -1.0039 -0.4478  0.2436
 1375SOL    MW4 5547   3.160   0.408   2.335 -0.4754  0.2288 -0.4292
 1376SOL     OW 5548   3.411   0.791   2.368 -0.0936 -0.6179  0.4727
 1376SOL    HW2 5549   3.431   0.698   2.359  1.1853 -0.3817  0.8207
 1376SOL    HW3 5550   3.486   0.836   2.330 -0.6454  0.2798  0.4211
 1376SOL    MW4 5551   3.423   0.785   2.362  0.0021 -0.4683  0.5119
 1377SOL     OW 5552   3.205   0.894   2.228  0.2455  0.0700  0.3486
 1377SOL    HW2 5553   3.282   0.859   2.273  0.3587  1.2248  1.0691
 1377SOL    HW3 5554   3.132   0.841   2.261  0.6177 -0.4750  0.3011
 1377SOL    MW4 5555   3.206   0.883   2.239  0.3097  0.1504  0.4375
 1378SOL     OW 5556   3.136   1.136   2.361 -0.9794 -0.2415  0.3430
 1378SOL    HW2 5557   3.213   1.181   2.327 -0.7057 -1.5747 -0.8324
 1378SOL    HW3 5558   3.138   1.050   2.319 -1.9722 -1.0329  1.8865
 1378SOL    MW4 5559   3.146   1.131   2.351 -1.0741 -0.5219  0.3915
 1379SOL     OW 5560   3.321   1.271   2.215 -0.4250 -0.7660  0.2229
 1379SOL    HW2 5561   3.316   1.365   2.234  0.2605 -0.6221 -0.2707
 1379SOL    HW3 5562   3.405   1.244   2.251  0.9293 -0.4753 -2.6032
 1379SOL    MW4 5563   3.331   1.280   2.222 -0.1557 -0.7086 -0.2151
 1380SOL     OW 5564   3.382   1.249   1.947 -0.4020  0.6662  0.4059
 1380SOL    HW2 5565   3.361   1.251   2.040  1.6213  1.9134  0.8635
 1380SOL    HW3 5566   3.396   1.340   1.923  2.3473  0.1160 -0.3115
 1380SOL    MW4 5567   3.381   1.261   1.956  0.2279  0.7582  0.3717
 1381SOL     OW 5568   3.348   1.547   2.280  0.3059  0.2538  0.4954
 1381SOL    HW2 5569   3.361   1.559   2.374 -0.8752  1.0115  0.5786
 1381SOL    HW3 5570   3.264   1.589   2.262  0.8215  0.6860 -1.0125
 1381SOL    MW4 5571   3.339   1.554   2.290  0.2182  0.4109  0.3073
 1382SOL     OW 5572   3.126   1.701   2.198 -0.3775 -0.0859 -0.6406
 1382SOL    HW2 5573   3.121   1.784   2.245  0.7580  0.4943 -1.4910
 1382SOL    HW3 5574   3.054   1.649   2.232 -0.1966  0.6941  0.9892
 1382SOL    MW4 5575   3.116   1.705   2.208 -0.2041  0.0936 -0.5379
 1383SOL     OW 5576   3.083   1.945   2.306 -0.2775  0.2121  0.0866
 1383SOL    HW2 5577   3.092   1.938   2.401 -0.6965 -1.0447  0.0386
 1383SOL    HW3 5578   3.173   1.955   2.274 -0.0210 -0.6792  0.5209
 1383SOL    MW4 5579   3.096   1.945   2.314 -0.2990 -0.0715  0.1378
 1384SOL     OW 5580   3.348   2.022   2.212 -0.4340 -0.0242  0.2902
 1384SOL    HW2 5581   3.416   1.958   2.235  2.1932  2.8848  0.8840
 1384SOL    HW3 5582   3.349   2.024   2.116  0.3392  0.0259  0.2968
 1384SOL    MW4 5583   3.357   2.014   2.202  0.0148  0.3662  0.3693
 1385SOL     OW 5584   3.349   2.279   2.312  0.0580 -0.3190 -0.2486
 1385SOL    HW2 5585   3.273   2.317   2.269  0.5402 -1.2608 -1.9690
 1385SOL    HW3 5586   3.343   2.185   2.294  1.1022 -0.5305  0.4283
 1385SOL    MW4 5587   3.338   2.271   2.304  0.2592 -0.4711 -0.3860
 1386SOL     OW 5588   2.945   2.306   2.344  0.3161  0.3220 -0.2448
 1386SOL    HW2 5589   2.943   2.301   2.440 -1.3578  0.4803 -0.2619
 1386SOL    HW3 5590   2.920   2.219   2.315 -0.2160  0.5605 -0.5216
 1386SOL    MW4 5591   2.941   2.294   2.353  0.0250  0.3741 -0.2840
 1387SOL     OW 5592   3.159   2.687   2.354  0.2417 -0.9136  0.7684
 1387SOL    HW2 5593   3.088   2.746   2.330  1.6026  0.6171  0.3513
 1387SOL    HW3 5594   3.162   2.691   2.450  0.6193  0.0826  0.7243
 1387SOL    MW4 5595   3.150   2.695   2.364  0.4711 -0.5803  0.7079
 1388SOL     OW 5596   3.354   2.830   2.206 -0.4615 -0.4944 -0.0999
 1388SOL    HW2 5597   3.365   2.906   2.263  0.3632 -1.0517  0.5004
 1388SOL    HW3 5598   3.285   2.779   2.247 -2.5067  0.9452 -1.6310
 1388SOL    MW4 5599   3.346   2.833   2.219 -0.6225 -0.3779 -0.2229
 1389SOL     OW 5600   3.387   3.060   2.356 -0.0123 -0.0601 -0.2477
 1389SOL    HW2 5601   3.467   3.105   2.328  0.1148  0.0749  0.3241
 1389SOL    HW3 5602   3.316   3.115   2.324  0.1106 -0.4885 -1.2743
 1389SOL    MW4 5603   3.388   3.073   2.348  0.0207 -0.0987 -0.3078
 1390SOL     OW 5604   3.152   3.204   2.249 -0.0852  0.3001  0.0082
 1390SOL    HW2 5605   3.146   3.297   2.271  0.8948  0.3934 -0.1000
 1390SOL    HW3 5606   3.150   3.201   2.153  2.6790  0.4405 -0.0899
 1390SOL    MW4 5607   3.151   3.216   2.239  0.4089  0.3309 -0.0188
 1391SOL     OW 5608   3.137   3.461   2.310 -0.3747 -0.2853  0.1992
 1391SOL    HW2 5609   3.132   3.471   2.405 -3.0729  1.3536 -0.0670
 1391SOL    HW3 5610   3.217   3.506   2.284 -0.2251  0.2459  1.5768
 1391SOL    MW4 5611   3.147   3.468   2.319 -0.7107  0.0010  0.3462
 1392SOL     OW 5612   3.387   3.571   2.254  0.2578  0.5578  0.0276
 1392SOL    HW2 5613   3.457   3.512   2.282  0.7833  0.7339 -0.8829
 1392SOL    HW3 5614   3.389   3.566   2.158 -1.6769 -0.2632  0.0052
 1392SOL    MW4 5615   3.397   3.562   2.245  0.0718  0.4728 -0.0954
 1393SOL     OW 5616   3.398   3.855   2.343 -0.4709  0.0551 -0.4857
 1393SOL    HW2 5617   3.482   3.883   2.306  0.3120 -1.1134  0.3587
 1393SOL    HW3 5618   3.392   3.762   2.322 -2.6054  0.5873 -2.4565
 1393SOL    MW4 5619   3.408   3.847   2.335 -0.6492 -0.0288 -0.6340
 1394SOL     OW 5620   3.185   4.003   2.261 -0.5009 -0.1379  0.2397
 1394SOL    HW2 5621   3.256   3.945   2.288 -2.5273 -3.3330 -0.9949
 1394SOL    HW3 5622   3.105   3.957   2.287 -2.2121  1.6542 -1.6408
 1394SOL    MW4 5623   3.184   3.990   2.268 -0.9942 -0.3228 -0.1714
 1395SOL     OW 5624   3.136   4.262   2.353  0.2247 -0.5949  0.1371
 1395SOL    HW2 5625   3.210   4.322   2.345  0.5649 -0.7182  2.0726
 1395SOL    HW3 5626   3.159   4.189   2.296  0.6008  0.3228 -0.9147
 1395SOL    MW4 5627   3.149   4.260   2.345  0.3190 -0.4907  0.2537
 1396SOL     OW 5628   3.382   4.379   2.267  0.2163 -0.1398  0.2486
 1396SOL    HW2 5629   3.383   4.472   2.288  0.0980  0.0277 -0.4912
 1396SOL    HW3 5630   3.392   4.375   2.172  0.0229 -0.8753  0.2548
 1396SOL    MW4 5631   3.384   4.390   2.257  0.1750 -0.2151  0.1519
 1397SOL     OW 5632   3.803   4.616   2.348 -0.0587 -0.2982  0.7190
 1397SOL    HW2 5633   3.818   4.615   2.442 -0.6011  1.0630  0.8280
 1397SOL    HW3 5634   3.877   4.666   2.312 -0.1825 -0.2895  0.4744
 1397SOL    MW4 5635   3.815   4.622   2.355 -0.1464 -0.1173  0.7010
 1398SOL     OW 5636   3.574   0.100   2.260  0.6145  0.7466  0.0872
 1398SOL    HW2 5637   3.575   0.184   2.306  0.6953  1.3998 -1.0845
 1398SOL    HW3 5638   3.661   0.063   2.278  0.8396  1.2371  0.0326
 1398SOL    MW4 5639   3.586   0.106   2.269  0.6547  0.8975 -0.0749
 1399SOL     OW 5640   3.580   0.359   2.400  0.7980 -0.0117  0.0121
 1399SOL    HW2 5641   3.569   0.371   2.494  1.9598  0.2304  0.1182
 1399SOL    HW3 5642   3.652   0.417   2.376  0.6489 -0.2224 -0.9935
 1399SOL    MW4 5643   3.588   0.368   2.409  0.9315 -0.0076 -0.1066
 1400SOL     OW 5644   3.796   0.504   2.300 -0.0249 -0.1342 -0.1319
 1400SOL    HW2 5645   3.799   0.591   2.340  0.0372 -0.5523  0.7639
 1400SOL    HW3 5646   3.806   0.521   2.206  0.1173  0.8161  0.0531
 1400SOL    MW4 5647   3.798   0.518   2.293  0.0019 -0.0640  0.0107
 1401SOL     OW 5648   3.817   0.779   2.363  0.0865  0.0818  0.3985
 1401SOL    HW2 5649   3.822   0.783   2.459 -0.1213 -1.6498  0.4985
 1401SOL    HW3 5650   3.886   0.839   2.333  1.1041 -0.4384  1.6399
 1401SOL    MW4 5651   3.827   0.788   2.372  0.1934 -0.2153  0.5753
 1402SOL     OW 5652   3.615   0.919   2.237 -0.0750  0.5006  0.2996
 1402SOL    HW2 5653   3.700   0.890   2.269  0.4115  1.8207  0.2234
 1402SOL    HW3 5654   3.607   0.879   2.151  0.1900 -0.1257  0.5594
 1402SOL    MW4 5655   3.625   0.910   2.230  0.0241  0.5921  0.3235
 1403SOL     OW 5656   3.572   1.194   2.322 -0.0951 -0.2553 -0.3000
 1403SOL    HW2 5657   3.571   1.186   2.417  0.0688  0.3313 -0.2431
 1403SOL    HW3 5658   3.577   1.104   2.290  1.5905 -0.3891  0.2806
 1403SOL    MW4 5659   3.573   1.181   2.330  0.1488 -0.1956 -0.2160
 1404SOL     OW 5660   3.807   1.289   2.215 -0.4108 -0.0783  0.3073
 1404SOL    HW2 5661   3.808   1.372   2.262  1.9548 -0.9905  1.9350
 1404SOL    HW3 5662   3.723   1.250   2.238 -0.4487  0.7266  1.5923
 1404SOL    MW4 5663   3.796   1.295   2.224 -0.1037 -0.0925  0.6914
 1405SOL     OW 5664   3.828   1.531   2.341  0.4980 -0.1846  0.0900
 1405SOL    HW2 5665   3.806   1.538   2.434  1.3451 -0.0448  0.2808
 1405SOL    HW3 5666   3.753   1.571   2.296  0.1144 -0.1945  0.7082
 1405SOL    MW4 5667   3.815   1.537   2.348  0.5591 -0.1675  0.1965
 1406SOL     OW 5668   3.613   1.635   2.192  0.2013 -0.3254 -0.0755
 1406SOL    HW2 5669   3.523   1.610   2.216 -0.3267  1.4606 -0.0883
 1406SOL    HW3 5670   3.614   1.634   2.097  0.2000 -0.3554 -0.0755
 1406SOL    MW4 5671   3.601   1.632   2.183  0.1316 -0.0936 -0.0772
 1407SOL     OW 5672   3.545   1.872   2.310  0.0349 -0.1827 -0.3809
 1407SOL    HW2 5673   3.611   1.940   2.299  0.0197  0.2696  2.1265
 1407SOL    HW3 5674   3.586   1.793   2.274  1.8423  0.1564  0.8525
 1407SOL    MW4 5675   3.559   1.870   2.303  0.2713 -0.0783  0.1128
 1408SOL     OW 5676   3.760   2.022   2.242  0.1294  0.2641  0.3421
 1408SOL    HW2 5677   3.837   1.968   2.261 -0.4319 -0.8455 -0.4657
 1408SOL    HW3 5678   3.759   2.030   2.147 -1.0948 -0.2555  0.2972
 1408SOL    MW4 5679   3.770   2.016   2.232 -0.1066  0.0489  0.2296
 1409SOL     OW 5680   3.829   2.309   2.346  0.2398  0.2250  0.1727
 1409SOL    HW2 5681   3.749   2.353   2.318  0.1837 -0.4109 -0.6510
 1409SOL    HW3 5682   3.819   2.219   2.317  1.2823  0.1530  0.0216
 1409SOL    MW4 5683   3.817   2.303   2.339  0.3698  0.1314  0.0441
 1410SOL     OW 5684   3.591   2.402   2.275 -0.1950  0.2223  0.1790
 1410SOL    HW2 5685   3.505   2.370   2.304 -0.5514  0.9316 -0.0916
 1410SOL    HW3 5686   3.584   2.409   2.180  0.7044 -1.2912 -0.0067
 1410SOL    MW4 5687   3.578   2.399   2.267 -0.1233  0.1163  0.1187
 1411SOL     OW 5688   3.573   2.697   2.343 -1.2527 -0.2650  0.1506
 1411SOL    HW2 5689   3.581   2.602   2.333 -0.5569 -0.1581 -0.3921
 1411SOL    HW3 5690   3.510   2.723   2.276 -0.1899 -0.1474 -0.8265
 1411SOL    MW4 5691   3.566   2.688   2.333 -1.0207 -0.2353 -0.0501
 1412SOL     OW 5692   3.820   2.809   2.263  0.0479  0.3487 -0.2733
 1412SOL    HW2 5693   3.833   2.901   2.288 -1.2087  0.5118 -0.1881
 1412SOL    HW3 5694   3.736   2.785   2.303  0.7202 -1.0646  0.3244
 1412SOL    MW4 5695   3.811   2.818   2.272 -0.0293  0.1838 -0.1833
 1413SOL     OW 5696   3.881   3.056   2.376  0.1484  0.0212  0.1452
 1413SOL    HW2 5697   3.859   3.074   2.468 -1.1075 -1.7343  0.2212
 1413SOL    HW3 5698   3.921   3.137   2.345 -0.9488  1.2382  1.7660
 1413SOL    MW4 5699   3.883   3.069   2.384 -0.1621 -0.0503  0.3691
 1414SOL     OW 5700   3.610   3.178   2.269 -0.3074  0.4227  0.0206
 1414SOL    HW2 5701   3.610   3.260   2.320  0.7066 -0.3425  1.2820
 1414SOL    HW3 5702   3.680   3.126   2.309  1.4604  0.3472 -3.0619
 1414SOL    MW4 5703   3.620   3.182   2.281  0.0594  0.3119 -0.2196
 1415SOL     OW 5704   3.607   3.439   2.353  0.0353 -0.4197 -0.2622
 1415SOL    HW2 5705   3.608   3.456   2.447 -0.3538 -0.2868 -0.2822
 1415SOL    HW3 5706   3.668   3.503   2.316  0.6870 -0.8994 -0.0311
 1415SOL    MW4 5707   3.615   3.450   2.360  0.0701 -0.4654 -0.2344
 1416SOL     OW 5708   3.815   3.624   2.284 -0.4388 -0.8326 -0.3160
 1416SOL    HW2 5709   3.818   3.708   2.330  1.2016 -0.9305 -0.2265
 1416SOL    HW3 5710   3.837   3.645   2.193  0.2540 -1.2017 -0.2358
 1416SOL    MW4 5711   3.818   3.638   2.278 -0.1307 -0.8941 -0.2937
 1417SOL     OW 5712   3.853   3.885   2.414  0.3893 -0.5558  0.4579
 1417SOL    HW2 5713   3.865   3.898   2.508  0.4951 -3.9672  0.9545
 1417SOL    HW3 5714   3.929   3.927   2.374  1.9144 -1.7228  2.0879
 1417SOL    MW4 5715   3.864   3.892   2.422  0.6046 -1.1599  0.7384
 1418SOL     OW 5716   3.617   3.999   2.262  0.0463  0.3161  0.1017
 1418SOL    HW2 5717   3.603   4.089   2.291 -0.7607  0.0533  0.5565
 1418SOL    HW3 5718   3.691   3.968   2.315  0.3222  0.7066 -0.0547
 1418SOL    MW4 5719   3.625   4.007   2.273 -0.0236  0.3328  0.1411
 1419SOL     OW 5720   3.595   4.254   2.396  0.3138 -0.1861 -0.1841
 1419SOL    HW2 5721   3.683   4.284   2.370  0.2052 -1.0961 -1.6756
 1419SOL    HW3 5722   3.535   4.313   2.351  0.1306 -1.4435 -1.6366
 1419SOL    MW4 5723   3.599   4.265   2.387  0.2751 -0.4716 -0.5727
 1420SOL     OW 5724   3.817   4.339   2.255 -0.5871 -0.2702  0.1566
 1420SOL    HW2 5725   3.901   4.304   2.283  0.6172  0.0171 -2.8597
 1420SOL    HW3 5726   3.817   4.430   2.283 -0.1005 -0.4134  0.6048
 1420SOL    MW4 5727   3.828   4.346   2.262 -0.3641 -0.2518 -0.1822
 1421SOL     OW 5728   4.281   4.661   2.331 -0.2863 -0.2373 -0.0075
 1421SOL    HW2 5729   4.275   4.663   2.427 -0.8000 -1.1969 -0.0140
 1421SOL    HW3 5730   4.364   4.705   2.311 -0.3269  0.2492  0.8565
 1421SOL    MW4 5731   4.291   4.667   2.341 -0.3595 -0.2995  0.1059
 1422SOL     OW 5732   4.024   0.097   2.244 -0.2044  0.2256  0.1250
 1422SOL    HW2 5733   4.038   0.182   2.285 -1.4964 -0.2743  1.6600
 1422SOL    HW3 5734   4.101   0.046   2.268  0.0075  0.5866  0.2111
 1422SOL    MW4 5735   4.036   0.101   2.253 -0.3467  0.2073  0.3386
 1423SOL     OW 5736   4.056   0.346   2.356 -0.2551 -0.3078  0.3018
 1423SOL    HW2 5737   4.108   0.399   2.296 -0.5225 -0.7204 -0.3071
 1423SOL    HW3 5738   3.968   0.385   2.352 -0.4239 -0.7199 -0.0596
 1423SOL    MW4 5739   4.051   0.358   2.347 -0.3128 -0.4166  0.1738
 1424SOL     OW 5740   4.228   0.501   2.242  0.3255  0.1790 -0.3490
 1424SOL    HW2 5741   4.231   0.586   2.286 -0.9190 -0.3305  0.7291
 1424SOL    HW3 5742   4.314   0.462   2.259  0.2014  0.3951  0.8301
 1424SOL    MW4 5743   4.240   0.507   2.250  0.1450  0.1402 -0.0513
 1425SOL     OW 5744   4.218   0.764   2.370 -0.1218  0.0834 -0.0532
 1425SOL    HW2 5745   4.152   0.824   2.337  1.3658  0.3945 -2.6473
 1425SOL    HW3 5746   4.301   0.808   2.352  0.8526 -0.9310  1.8215
 1425SOL    MW4 5747   4.220   0.777   2.364  0.2031 -0.0094 -0.1481
 1426SOL     OW 5748   4.033   0.937   2.263 -0.2804  0.5093 -0.2857
 1426SOL    HW2 5749   4.042   1.032   2.270  2.4534  0.2307  0.4162
 1426SOL    HW3 5750   4.035   0.919   2.169 -1.3798  1.1860 -0.4411
 1426SOL    MW4 5751   4.035   0.947   2.252 -0.0648  0.5618 -0.2134
 1427SOL     OW 5752   4.048   1.212   2.343  0.1704 -0.4136 -0.1540
 1427SOL    HW2 5753   4.052   1.230   2.437  1.2398 -1.3655 -0.0045
 1427SOL    HW3 5754   3.959   1.237   2.317  0.8620  2.9920  0.4498
 1427SOL    MW4 5755   4.037   1.218   2.352  0.4025 -0.0899 -0.0548
 1428SOL     OW 5756   4.295   1.292   2.192  0.0619  0.6580  0.3956
 1428SOL    HW2 5757   4.215   1.251   2.226  0.3542 -0.6396 -0.4413
 1428SOL    HW3 5758   4.366   1.246   2.237  0.4565 -1.2272 -2.0504
 1428SOL    MW4 5759   4.294   1.280   2.203  0.1531  0.2379 -0.0372
 1429SOL     OW 5760   4.318   1.514   2.363  0.1845  0.3023  0.0916
 1429SOL    HW2 5761   4.312   1.447   2.294 -0.9360  0.2512  0.2343
 1429SOL    HW3 5762   4.373   1.582   2.324 -2.3614  1.3817 -1.8059
 1429SOL    MW4 5763   4.324   1.514   2.349 -0.2990  0.4379 -0.1397
 1430SOL     OW 5764   4.069   1.634   2.249  0.0146  0.1803 -0.1649
 1430SOL    HW2 5765   4.137   1.584   2.294  0.3789  0.5608 -0.2853
 1430SOL    HW3 5766   3.987   1.591   2.273  0.2199  0.2848  0.7254
 1430SOL    MW4 5767   4.067   1.621   2.258  0.0896  0.2443 -0.0637
 1431SOL     OW 5768   4.026   1.912   2.317  0.0853 -0.3083 -0.8640
 1431SOL    HW2 5769   4.009   1.920   2.411 -1.6403 -0.6017 -1.1265
 1431SOL    HW3 5770   4.046   1.820   2.303  0.5994 -0.2136 -0.7417
 1431SOL    MW4 5771   4.026   1.901   2.327 -0.0744 -0.3344 -0.8824
 1432SOL     OW 5772   4.258   2.056   2.236  0.2420  0.0981  0.3498
 1432SOL    HW2 5773   4.275   2.138   2.282 -0.3073  0.2308  0.3230
 1432SOL    HW3 5774   4.183   2.018   2.281  0.3643 -0.2922  0.2316
 1432SOL    MW4 5775   4.250   2.062   2.248  0.1855  0.0641  0.3309
 1433SOL     OW 5776   4.282   2.315   2.337  0.1704  0.0548 -0.4888
 1433SOL    HW2 5777   4.209   2.352   2.288  1.0965 -0.3653 -2.2103
 1433SOL    HW3 5778   4.356   2.373   2.318 -0.0684  1.4273  2.5503
 1433SOL    MW4 5779   4.283   2.328   2.328  0.2613  0.1805 -0.3150
 1434SOL     OW 5780   4.043   2.432   2.239  0.4405 -0.3421  0.0212
 1434SOL    HW2 5781   4.045   2.515   2.286  2.2141 -0.8356  0.8622
 1434SOL    HW3 5782   3.974   2.382   2.282 -0.3159  0.5184 -0.1879
 1434SOL    MW4 5783   4.034   2.436   2.251  0.5746 -0.2937  0.1044
 1435SOL     OW 5784   4.041   2.686   2.357 -0.3741  0.4163 -0.2667
 1435SOL    HW2 5785   4.045   2.699   2.452  0.0376  0.4765 -0.2926
 1435SOL    HW3 5786   3.961   2.731   2.330  0.1631  1.4845 -0.1150
 1435SOL    MW4 5787   4.031   2.694   2.366 -0.2494  0.5653 -0.2501
 1436SOL     OW 5788   4.263   2.855   2.294  0.1000 -0.1723 -0.4152
 1436SOL    HW2 5789   4.187   2.810   2.331  0.6577  0.3937  1.4844
 1436SOL    HW3 5790   4.339   2.807   2.329  0.6490  0.0459 -1.2747
 1436SOL    MW4 5791   4.263   2.843   2.304  0.2460 -0.0687 -0.2780
 1437SOL     OW 5792   4.267   3.145   2.327  0.0627 -0.0688  0.7294
 1437SOL    HW2 5793   4.258   3.052   2.309  0.8919  0.0971 -0.7076
 1437SOL    HW3 5794   4.355   3.167   2.294 -0.9277  1.6257 -0.8947
 1437SOL    MW4 5795   4.277   3.136   2.320  0.0410  0.1769  0.3257
 1438SOL     OW 5796   4.019   3.251   2.242  0.1562  0.1363  0.2561
 1438SOL    HW2 5797   4.012   3.335   2.288 -2.2223  0.0457  0.1492
 1438SOL    HW3 5798   4.103   3.215   2.270  0.7458  2.0901  1.0903
 1438SOL    MW4 5799   4.029   3.257   2.252 -0.0796  0.3822  0.3519
 1439SOL     OW 5800   4.014   3.478   2.388  0.2049 -0.0417 -0.4124
 1439SOL    HW2 5801   4.096   3.513   2.355 -0.2831  0.5623 -0.9885
 1439SOL    HW3 5802   3.946   3.530   2.346 -0.4395  0.4249  1.1520
 1439SOL    MW4 5803   4.016   3.489   2.378  0.0553  0.0994 -0.2820
 1440SOL     OW 5804   4.233   3.633   2.289 -0.4041 -0.0348  0.3258
 1440SOL    HW2 5805   4.265   3.714   2.327  3.1983 -0.7084 -1.1073
 1440SOL    HW3 5806   4.233   3.648   2.194 -1.1374 -1.2145  0.1187
 1440SOL    MW4 5807   4.237   3.645   2.281 -0.0257 -0.2794  0.1097
 1441SOL     OW 5808   4.295   3.882   2.357  0.0717  0.3330  0.2023
 1441SOL    HW2 5809   4.299   3.909   2.449  0.5028  0.7554  0.0611
 1441SOL    HW3 5810   4.374   3.919   2.317 -0.4951  0.7987 -0.5083
 1441SOL    MW4 5811   4.306   3.891   2.364  0.0539  0.4501  0.0899
 1442SOL     OW 5812   4.062   3.990   2.281  0.0765 -0.0903  0.1342
 1442SOL    HW2 5813   4.144   3.943   2.294  0.2340  0.3739  0.8383
 1442SOL    HW3 5814   4.048   3.987   2.186  0.8924 -0.1902  0.0096
 1442SOL    MW4 5815   4.071   3.983   2.270  0.2046 -0.0422  0.2105
 1443SOL     OW 5816   4.073   4.266   2.336  0.4518 -0.3507  0.4491
 1443SOL    HW2 5817   4.139   4.315   2.287 -0.6113  1.0750  0.4154
 1443SOL    HW3 5818   4.096   4.174   2.323  2.0641  0.1172 -0.0635
 1443SOL    MW4 5819   4.085   4.260   2.328  0.5245 -0.1011  0.3769
 1444SOL     OW 5820   4.289   4.396   2.212  0.2307 -0.3265  0.4466
 1444SOL    HW2 5821   4.275   4.472   2.267 -2.0558 -0.1336 -0.3662
 1444SOL    HW3 5822   4.344   4.338   2.265 -2.5817 -0.5169  3.2603
 1444SOL    MW4 5823   4.294   4.398   2.226 -0.4411 -0.3252  0.7105
 1445SOL     OW 5824   0.268   4.652   2.655  0.0269  0.1168 -0.7813
 1445SOL    HW2 5825   0.249   4.575   2.709 -0.5016 -0.3424 -1.6056
 1445SOL    HW3 5826   0.187   4.703   2.656  0.6847  1.1455  0.5399
 1445SOL    MW4 5827   0.255   4.649   2.662  0.0439  0.1922 -0.7157
 1446SOL     OW 5828   0.033   0.129   2.694 -0.0749  0.4518  0.1337
 1446SOL    HW2 5829   0.002   0.112   2.783 -0.8360  0.1216 -0.1886
 1446SOL    HW3 5830   0.036   0.225   2.688 -1.2944  0.4991  0.0981
 1446SOL    MW4 5831   0.029   0.140   2.705 -0.3362  0.4145  0.0865
 1447SOL     OW 5832   4.471   0.413   2.626  0.3445  0.2929  0.0772
 1447SOL    HW2 5833   4.555   0.451   2.652  0.4023 -0.5378  1.1666
 1447SOL    HW3 5834   4.468   0.422   2.531  1.9008 -0.1348 -0.0199
 1447SOL    MW4 5835   4.482   0.419   2.617  0.5574  0.1269  0.2081
 1448SOL     OW 5836   0.219   0.496   2.749 -0.6374  0.0591 -0.0241
 1448SOL    HW2 5837   0.183   0.483   2.837  0.1775  1.5338  0.5438
 1448SOL    HW3 5838   0.294   0.435   2.746 -1.5969 -1.1312 -0.2795
 1448SOL    MW4 5839   0.224   0.486   2.761 -0.6565  0.0966  0.0172
 1449SOL     OW 5840   0.222   0.759   2.663 -0.0023 -0.1709  0.0124
 1449SOL    HW2 5841   0.305   0.790   2.701  0.7421 -0.8312 -1.0662
 1449SOL    HW3 5842   0.211   0.671   2.698 -0.6824  0.2277  0.8184
 1449SOL    MW4 5843   0.232   0.752   2.673  0.0062 -0.2055 -0.0236
 1450SOL     OW 5844   4.483   0.911   2.737  0.2103  0.1612  0.4848
 1450SOL    HW2 5845   4.414   0.850   2.711  0.9678 -0.4192 -0.2158
 1450SOL    HW3 5846   4.564   0.867   2.711  0.8618  0.6995  1.5554
 1450SOL    MW4 5847   4.485   0.897   2.730  0.3958  0.1556  0.5333
 1451SOL     OW 5848   4.454   1.159   2.605  0.7804 -0.3116  0.0721
 1451SOL    HW2 5849   4.534   1.193   2.646 -0.1472 -0.3915  2.0327
 1451SOL    HW3 5850   4.446   1.070   2.642 -0.7106  0.0472  0.6337
 1451SOL    MW4 5851   4.464   1.151   2.615  0.4616 -0.2748  0.4051
 1452SOL     OW 5852   0.200   1.244   2.754  0.0017  0.3812  0.8158
 1452SOL    HW2 5853   0.287   1.210   2.730 -0.7060  0.2956 -1.8074
 1452SOL    HW3 5854   0.203   1.337   2.730 -0.4972  0.4631  1.0624
 1452SOL    MW4 5855   0.212   1.252   2.748 -0.1575  0.3808  0.5026
 1453SOL     OW 5856   0.209   1.498   2.605  0.2231 -0.2666  0.3380
 1453SOL    HW2 5857   0.286   1.551   2.626  0.6483  0.2385 -2.3091
 1453SOL    HW3 5858   0.136   1.544   2.647  1.0958  0.2788  1.2908
 1453SOL    MW4 5859   0.210   1.511   2.614  0.3943 -0.1280  0.1144
 1454SOL     OW 5860   0.017   1.633   2.738  0.1379  0.0889 -0.4625
 1454SOL    HW2 5861   0.007   1.630   2.833  0.0235  0.9411 -0.4387
 1454SOL    HW3 5862   0.014   1.727   2.717 -0.1851 -0.1142 -1.3398
 1454SOL    MW4 5863   0.015   1.645   2.748  0.0801  0.1745 -0.5753
 1455SOL     OW 5864   4.464   1.898   2.645 -0.4782 -0.1407 -0.3530
 1455SOL    HW2 5865   4.540   1.944   2.680 -1.3744  1.2715 -0.2268
 1455SOL    HW3 5866   4.467   1.916   2.551 -0.2018 -0.7658 -0.4651
 1455SOL    MW4 5867   4.475   1.907   2.637 -0.5600 -0.0368 -0.3510
 1456SOL     OW 5868   0.208   2.034   2.687 -0.3281 -0.3081  0.0655
 1456SOL    HW2 5869   0.293   1.996   2.664  0.6924  1.1164  1.4012
 1456SOL    HW3 5870   0.205   2.117   2.639 -0.6650 -0.0223  0.5744
 1456SOL    MW4 5871   0.219   2.040   2.677 -0.2379 -0.0823  0.3088
 1457SOL     OW 5872   0.197   2.272   2.557  0.2007 -0.2353 -0.3344
 1457SOL    HW2 5873   0.269   2.319   2.600 -0.1171  0.0432 -0.0993
 1457SOL    HW3 5874   0.118   2.313   2.593 -0.0752 -0.7547 -0.3553
 1457SOL    MW4 5875   0.196   2.284   2.567  0.1224 -0.2673 -0.3059
 1458SOL     OW 5876   4.464   2.407   2.681  0.0999 -0.3034  0.0653
 1458SOL    HW2 5877   4.465   2.419   2.776 -0.6820  0.9272 -0.0666
 1458SOL    HW3 5878   4.378   2.368   2.663  0.7036 -1.6287 -0.0320
 1458SOL    MW4 5879   4.453   2.403   2.691  0.0768 -0.3161  0.0350
 1459SOL     OW 5880   0.001   2.685   2.681  0.0788 -0.1674  0.0217
 1459SOL    HW2 5881  -0.078   2.734   2.704  0.6318  0.0685  1.4328
 1459SOL    HW3 5882  -0.029   2.595   2.673 -0.4861  0.0403 -0.2516
 1459SOL    MW4 5883  -0.013   2.680   2.683  0.0772 -0.1090  0.1719
 1460SOL     OW 5884   0.241   2.839   2.737 -0.1124  0.4076 -0.3166
 1460SOL    HW2 5885   0.241   2.926   2.697 -0.6161  0.3714 -0.4100
 1460SOL    HW3 5886   0.154   2.804   2.717  0.2672 -0.3151 -0.7050
 1460SOL    MW4 5887   0.229   2.846   2.729 -0.1288  0.3073 -0.3803
 1461SOL     OW 5888   0.263   3.074   2.620  0.3031 -0.0770  0.2574
 1461SOL    HW2 5889   0.345   3.116   2.647  1.2930 -1.9608  0.2075
 1461SOL    HW3 5890   0.258   3.092   2.525  0.9093 -0.3993  0.1644
 1461SOL    MW4 5891   0.273   3.082   2.611  0.5137 -0.3681  0.2387
 1462SOL     OW 5892   0.012   3.207   2.728 -0.0029 -0.2720 -0.0377
 1462SOL    HW2 5893  -0.062   3.176   2.675 -1.0388  2.9374 -0.5870
 1462SOL    HW3 5894   0.090   3.176   2.680 -0.9641 -1.3107 -0.9621
 1462SOL    MW4 5895   0.013   3.198   2.714 -0.2664  0.0143 -0.2320
 1463SOL     OW 5896   0.014   3.496   2.637  0.0907  0.1803  0.0833
 1463SOL    HW2 5897   0.098   3.515   2.680  0.8184 -0.9216 -0.8198
 1463SOL    HW3 5898  -0.001   3.403   2.655 -1.5286  0.6438  1.2226
 1463SOL    MW4 5899   0.023   3.486   2.645 -0.0267  0.0958  0.1149
 1464SOL     OW 5900   0.245   3.600   2.759  0.0813  0.0905 -0.2562
 1464SOL    HW2 5901   0.243   3.610   2.855  1.0185 -0.1551 -0.2078
 1464SOL    HW3 5902   0.331   3.562   2.741 -0.5697 -1.0086 -1.0875
 1464SOL    MW4 5903   0.256   3.596   2.770  0.1191 -0.0868 -0.3595
 1465SOL     OW 5904   0.225   3.851   2.667 -0.6591  0.0182  0.3864
 1465SOL    HW2 5905   0.229   3.764   2.707  1.8955  0.1639  0.4982
 1465SOL    HW3 5906   0.248   3.837   2.576  1.0898  0.7477  0.7051
 1465SOL    MW4 5907   0.228   3.838   2.660 -0.0913  0.1338  0.4432
 1466SOL     OW 5908   0.008   4.027   2.773  0.5386 -0.3378 -0.1928
 1466SOL    HW2 5909   0.010   4.112   2.729 -0.4750 -0.7000 -0.9540
 1466SOL    HW3 5910   0.081   3.979   2.733  0.3682 -0.2486 -0.6158
 1466SOL    MW4 5911   0.018   4.032   2.762  0.3824 -0.3738 -0.3488
 1467SOL     OW 5912   0.009   4.283   2.657 -0.2670  0.0388  0.2605
 1467SOL    HW2 5913  -0.067   4.330   2.692  0.3737  0.4453  1.1286
 1467SOL    HW3 5914   0.084   4.325   2.699  0.4448 -0.2823 -0.6845
 1467SOL    MW4 5915   0.009   4.295   2.667 -0.0886  0.0501  0.2506
 1468SOL     OW 5916   0.227   4.387   2.776  0.0775 -0.4479 -0.1369
 1468SOL    HW2 5917   0.232   4.389   2.872  0.4024 -0.6395 -0.1511
 1468SOL    HW3 5918   0.306   4.342   2.749 -0.0127 -0.3867 -0.4994
 1468SOL    MW4 5919   0.238   4.382   2.785  0.1085 -0.4649 -0.1867
 1469SOL     OW 5920   0.720   0.039   2.621  0.0814  0.5491 -0.1788
 1469SOL    HW2 5921   0.789   0.083   2.670 -0.4551  0.8365  0.3361
 1469SOL    HW3 5922   0.639   0.073   2.658 -0.3453 -0.7406  0.1256
 1469SOL    MW4 5923   0.718   0.049   2.633 -0.0457  0.4168 -0.0708
 1470SOL     OW 5924   0.484   0.124   2.764 -0.5924  0.4269  0.6376
 1470SOL    HW2 5925   0.491   0.099   2.856 -0.2863  2.7073  1.2661
 1470SOL    HW3 5926   0.413   0.069   2.730  0.6410 -1.9015  1.6897
 1470SOL    MW4 5927   0.475   0.113   2.772 -0.3893  0.4205  0.8593
 1471SOL     OW 5928   0.449   0.376   2.665  0.5308 -0.0233  0.1145
 1471SOL    HW2 5929   0.523   0.420   2.707  1.9543 -1.0097 -1.3464
 1471SOL    HW3 5930   0.450   0.287   2.701  1.4197 -0.7075 -1.5692
 1471SOL    MW4 5931   0.459   0.370   2.675  0.8359 -0.2437 -0.3004
 1472SOL     OW 5932   0.659   0.524   2.772 -0.4579  0.2935  0.3377
 1472SOL    HW2 5933   0.664   0.534   2.867 -0.9120  0.7584  0.3135
 1472SOL    HW3 5934   0.741   0.481   2.748 -1.2260 -1.6986  1.1856
 1472SOL    MW4 5935   0.671   0.519   2.781 -0.6192  0.0920  0.4463
 1473SOL     OW 5936   0.650   0.776   2.659 -0.2205 -0.4718  0.1857
 1473SOL    HW2 5937   0.737   0.811   2.676 -0.6411  0.3225  0.7853
 1473SOL    HW3 5938   0.656   0.683   2.682  0.1857 -0.1898  1.2460
 1473SOL    MW4 5939   0.662   0.768   2.664 -0.2224 -0.3298  0.4046
 1474SOL     OW 5940   0.443   0.901   2.779  0.3823 -0.0806 -0.2289
 1474SOL    HW2 5941   0.444   0.983   2.730 -1.2460 -0.5779 -1.1253
 1474SOL    HW3 5942   0.514   0.849   2.740  2.4599  1.4714  1.3988
 1474SOL    MW4 5943   0.453   0.905   2.767  0.4416  0.0586 -0.1323
 1475SOL     OW 5944   0.447   1.156   2.673  0.1015 -0.1353  0.0365
 1475SOL    HW2 5945   0.537   1.177   2.698  0.7269 -0.6578 -1.6768
 1475SOL    HW3 5946   0.445   1.169   2.578 -0.5490 -3.8513 -0.5446
 1475SOL    MW4 5947   0.458   1.160   2.664  0.0982 -0.6946 -0.2663
 1476SOL     OW 5948   0.683   1.247   2.782  0.0718  0.5010  0.3918
 1476SOL    HW2 5949   0.693   1.246   2.878 -2.4408 -0.6057  0.6719
 1476SOL    HW3 5950   0.753   1.191   2.750 -0.6782 -1.2520  1.7621
 1476SOL    MW4 5951   0.694   1.240   2.791 -0.3587  0.1236  0.6092
 1477SOL     OW 5952   0.685   1.491   2.643  0.4076  0.1286 -0.3928
 1477SOL    HW2 5953   0.600   1.532   2.658  0.8953  0.8939  0.3705
 1477SOL    HW3 5954   0.681   1.408   2.690 -0.1405 -0.1333 -0.8953
 1477SOL    MW4 5955   0.674   1.486   2.651  0.3996  0.1950 -0.3581
 1478SOL     OW 5956   0.449   1.625   2.684 -0.2970  0.1946 -0.2583
 1478SOL    HW2 5957   0.448   1.642   2.779  1.1754  2.4295 -0.6001
 1478SOL    HW3 5958   0.434   1.711   2.645 -0.1581 -0.5950 -2.0732
 1478SOL    MW4 5959   0.447   1.639   2.692 -0.0844  0.3852 -0.5429
 1479SOL     OW 5960   0.437   1.899   2.609  0.0492 -0.1013 -0.9756
 1479SOL    HW2 5961   0.497   1.965   2.642 -0.2376 -0.5648  0.5063
 1479SOL    HW3 5962   0.452   1.897   2.515  0.9277  1.1990 -0.8628
 1479SOL    MW4 5963   0.447   1.907   2.601  0.1273  0.0091 -0.7651
 1480SOL     OW 5964   0.671   2.055   2.703  0.5446 -0.1201  0.1401
 1480SOL    HW2 5965   0.751   2.011   2.676 -0.7567 -2.3346 -0.2005
 1480SOL    HW3 5966   0.669   2.045   2.798  0.8030  0.1998  0.1822
 1480SOL    MW4 5967   0.681   2.048   2.712  0.4070 -0.3698  0.1009
 1481SOL     OW 5968   0.663   2.327   2.622  0.3941  0.0236  0.2196
 1481SOL    HW2 5969   0.738   2.372   2.662  0.5800 -0.4277  0.3808
 1481SOL    HW3 5970   0.671   2.236   2.651  0.0196 -0.1160 -0.1071
 1481SOL    MW4 5971   0.674   2.321   2.631  0.3692 -0.0548  0.1976
 1482SOL     OW 5972   0.413   2.400   2.690  0.1745  0.2275  0.2432
 1482SOL    HW2 5973   0.409   2.493   2.670 -0.7215  0.1498  0.0374
 1482SOL    HW3 5974   0.504   2.375   2.673  0.3692  1.0200  0.1248
 1482SOL    MW4 5975   0.425   2.409   2.686  0.0820  0.3216  0.2005
 1483SOL     OW 5976   0.445   2.676   2.629  0.1903  0.2355  0.1783
 1483SOL    HW2 5977   0.534   2.698   2.659 -0.4989  1.4989  1.3452
 1483SOL    HW3 5978   0.390   2.747   2.663 -1.4345 -1.0767  0.3266
 1483SOL    MW4 5979   0.450   2.688   2.638 -0.1150  0.2291  0.3519
 1484SOL     OW 5980   0.689   2.795   2.704 -0.0486  0.0081 -0.3349
 1484SOL    HW2 5981   0.691   2.800   2.800  2.1930 -1.0186 -0.2961
 1484SOL    HW3 5982   0.672   2.884   2.676  1.0236  0.6672  1.0201
 1484SOL    MW4 5983   0.687   2.807   2.713  0.3886 -0.0405 -0.1507
 1485SOL     OW 5984   0.713   3.068   2.642 -0.4378  0.0502  0.4726
 1485SOL    HW2 5985   0.796   3.112   2.660 -0.5852 -0.2587  2.0315
 1485SOL    HW3 5986   0.712   3.055   2.547  1.8800 -1.0885  0.5727
 1485SOL    MW4 5987   0.724   3.072   2.632 -0.1514 -0.1409  0.6914
 1486SOL     OW 5988   0.484   3.222   2.711  0.2292 -0.7959 -0.2944
 1486SOL    HW2 5989   0.487   3.239   2.805  0.2748  1.0274 -0.5984
 1486SOL    HW3 5990   0.563   3.171   2.694  2.0338  1.7449  0.1569
 1486SOL    MW4 5991   0.495   3.217   2.721  0.4733 -0.2201 -0.2751
 1487SOL     OW 5992   0.470   3.479   2.637 -0.3152  0.0734 -0.1073
 1487SOL    HW2 5993   0.489   3.390   2.668  0.5328  0.6086  0.9428
 1487SOL    HW3 5994   0.475   3.472   2.541 -0.0298 -0.9530 -0.0300
 1487SOL    MW4 5995   0.473   3.466   2.628 -0.1657  0.0086  0.0415
 1488SOL     OW 5996   0.684   3.624   2.743 -0.3581 -0.4014 -0.1494
 1488SOL    HW2 5997   0.675   3.622   2.839 -1.8681  1.1275 -0.2484
 1488SOL    HW3 5998   0.602   3.587   2.711 -0.2043 -0.0942 -0.8863
 1488SOL    MW4 5999   0.672   3.619   2.752 -0.5369 -0.1593 -0.2596
 1489SOL     OW 6000   0.648   3.879   2.648 -0.0884 -0.0596  0.0785
 1489SOL    HW2 6001   0.566   3.904   2.692  0.1024 -1.4495  1.2509
 1489SOL    HW3 6002   0.669   3.793   2.684  1.3721 -0.1485 -0.9608
 1489SOL    MW4 6003   0.640   3.871   2.659  0.1295 -0.2549  0.0961
 1490SOL     OW 6004   0.433   4.002   2.786 -0.0195 -0.1267  0.0522
 1490SOL    HW2 6005   0.439   4.085   2.739  0.6717 -0.6698 -0.8331
 1490SOL    HW3 6006   0.364   3.954   2.741  0.7018 -0.6819 -0.4917
 1490SOL    MW4 6007   0.425   4.007   2.774  0.1668 -0.2718 -0.1366
 1491SOL     OW 6008   0.465   4.239   2.657  0.1430  0.6545  0.4528
 1491SOL    HW2 6009   0.535   4.303   2.671 -0.0975  0.9160  0.4568
 1491SOL    HW3 6010   0.446   4.243   2.563  0.1947  0.5186  0.4357
 1491SOL    MW4 6011   0.472   4.248   2.646  0.1181  0.6709  0.4508
 1492SOL     OW 6012   0.686   4.426   2.722 -0.2007 -0.2264  0.3061
 1492SOL    HW2 6013   0.759   4.369   2.697  0.9557  1.0948  0.6352
 1492SOL    HW3 6014   0.701   4.507   2.674 -1.3606  0.1409  0.5376
 1492SOL    MW4 6015   0.697   4.429   2.712 -0.2012 -0.0038  0.3800
 1493SOL     OW 6016   1.098   4.611   2.628  0.2512 -0.0680 -0.5322
 1493SOL    HW2 6017   1.179   4.654   2.656 -0.1398  1.1376 -1.2031
 1493SOL    HW3 6018   1.110   4.519   2.651  2.0888 -0.0263 -1.2436
 1493SOL    MW4 6019   1.110   4.605   2.635  0.4420  0.0973 -0.7145
 1494SOL     OW 6020   0.939   0.128   2.789  0.0616 -0.9808  0.3741
 1494SOL    HW2 6021   0.949   0.123   2.884 -0.4445 -1.7897  0.3895
 1494SOL    HW3 6022   1.010   0.073   2.755  1.2435  0.6117  0.2364
 1494SOL    MW4 6023   0.950   0.120   2.797  0.1507 -0.8774  0.3583
 1495SOL     OW 6024   0.904   0.391   2.665 -0.1570  0.2856 -0.3211
 1495SOL    HW2 6025   0.913   0.302   2.700  1.0440  0.5970  0.1829
 1495SOL    HW3 6026   0.894   0.378   2.570  1.3971 -0.3423 -0.4209
 1495SOL    MW4 6027   0.904   0.377   2.657  0.2065  0.2438 -0.2677
 1496SOL     OW 6028   1.146   0.489   2.760  0.3217 -0.0686  0.8171
 1496SOL    HW2 6029   1.148   0.576   2.720 -0.5563  0.2269  1.4070
 1496SOL    HW3 6030   1.058   0.456   2.742  0.4465 -0.5867  1.1422
 1496SOL    MW4 6031   1.135   0.496   2.752  0.2224 -0.0980  0.9379
 1497SOL     OW 6032   1.136   0.735   2.616  0.3639  0.0457  0.2667
 1497SOL    HW2 6033   1.212   0.792   2.625  0.0883  0.3125  0.9958
 1497SOL    HW3 6034   1.120   0.731   2.522  1.1192  0.1998  0.1302
 1497SOL    MW4 6035   1.144   0.742   2.605  0.4271  0.1012  0.3448
 1498SOL     OW 6036   0.916   0.839   2.718  0.1462 -0.6652 -0.2556
 1498SOL    HW2 6037   0.928   0.812   2.809  2.6604 -0.6519 -0.5486
 1498SOL    HW3 6038   0.998   0.815   2.675  0.4518  2.6428 -1.6707
 1498SOL    MW4 6039   0.928   0.832   2.724  0.5182 -0.2270 -0.4811
 1499SOL     OW 6040   0.880   1.112   2.648  0.5327 -0.0577  0.6589
 1499SOL    HW2 6041   0.892   1.018   2.661  2.0877  0.0195 -0.0548
 1499SOL    HW3 6042   0.887   1.123   2.553  0.4496  0.7987  0.7522
 1499SOL    MW4 6043   0.882   1.101   2.637  0.7269  0.0654  0.5770
 1500SOL     OW 6044   1.129   1.214   2.703 -0.2084  0.3905 -0.1789
 1500SOL    HW2 6045   1.123   1.306   2.677  0.4737 -0.0608 -1.9774
 1500SOL    HW3 6046   1.039   1.183   2.698 -0.3318  0.7626 -0.3367
 1500SOL    MW4 6047   1.116   1.222   2.699 -0.1348  0.3802 -0.4370
 1501SOL     OW 6048   1.101   1.479   2.603  0.4943  0.1114  0.1830
 1501SOL    HW2 6049   1.027   1.535   2.626 -0.5485 -1.6550  1.2483
 1501SOL    HW3 6050   1.103   1.481   2.507 -0.8363  0.3186  0.1436
 1501SOL    MW4 6051   1.091   1.487   2.593  0.1812 -0.0944  0.3183
 1502SOL     OW 6052   0.906   1.655   2.703 -0.5626 -0.3059  0.0060
 1502SOL    HW2 6053   0.917   1.665   2.797  1.8686 -0.2584 -0.2475
 1502SOL    HW3 6054   0.823   1.609   2.693 -0.7656 -0.4519  2.1707
 1502SOL    MW4 6055   0.897   1.650   2.714 -0.2686 -0.3188  0.2580
 1503SOL     OW 6056   0.939   1.918   2.639 -0.1540  0.2294 -0.0771
 1503SOL    HW2 6057   1.018   1.935   2.689  0.4452 -0.8646 -0.6403
 1503SOL    HW3 6058   0.923   1.824   2.649 -1.0253  0.3219 -0.4914
 1503SOL    MW4 6059   0.947   1.908   2.647 -0.1898  0.0972 -0.2060
 1504SOL     OW 6060   1.180   2.040   2.755  0.0904  0.1389  0.0760
 1504SOL    HW2 6061   1.253   1.992   2.717 -0.0049  0.9998 -1.2524
 1504SOL    HW3 6062   1.183   2.125   2.712 -1.5639  0.2504  0.1412
 1504SOL    MW4 6063   1.190   2.045   2.744 -0.1404  0.2670 -0.0906
 1505SOL     OW 6064   1.115   2.277   2.613  0.0613 -0.0978 -0.2773
 1505SOL    HW2 6065   1.191   2.330   2.633 -0.7170  1.0012 -0.1784
 1505SOL    HW3 6066   1.106   2.282   2.518 -0.2037  0.2171 -0.2365
 1505SOL    MW4 6067   1.124   2.285   2.603 -0.0763  0.0889 -0.2589
 1506SOL     OW 6068   0.908   2.423   2.736 -0.6489  0.1088 -0.2723
 1506SOL    HW2 6069   0.931   2.511   2.708 -0.5448  0.2487  0.2514
 1506SOL    HW3 6070   0.977   2.367   2.700  0.5532  0.5259  1.2889
 1506SOL    MW4 6071   0.920   2.427   2.728 -0.4765  0.1822  0.0029
 1507SOL     OW 6072   0.922   2.671   2.615  0.3397 -0.2646  0.2393
 1507SOL    HW2 6073   0.989   2.735   2.637 -0.1453 -0.1459  1.4312
 1507SOL    HW3 6074   0.841   2.710   2.648  0.0518 -1.5304  1.0597
 1507SOL    MW4 6075   0.920   2.685   2.623  0.2376 -0.4163  0.5047
 1508SOL     OW 6076   1.130   2.830   2.669  0.4411 -0.2053 -0.3212
 1508SOL    HW2 6077   1.127   2.814   2.763 -1.8208 -0.6271 -0.4392
 1508SOL    HW3 6078   1.211   2.787   2.640  0.8408 -0.5963  1.3329
 1508SOL    MW4 6079   1.141   2.822   2.678  0.1954 -0.3123 -0.1187
 1509SOL     OW 6080   1.148   3.096   2.625  0.0000  0.0000 -0.0048
 1509SOL    HW2 6081   1.122   3.007   2.647  0.0000  0.0000 -0.0143
 1509SOL    HW3 6082   1.136   3.101   2.530  0.0000  0.0000 -0.0046
 1509SOL    MW4 6083   1.143   3.085   2.615  0.0000  0.0000 -0.0057
 1510SOL     OW 6084   0.919   3.208   2.725  0.0000  0.0000 -0.0968
 1510SOL    HW2 6085   0.903   3.287   2.672  0.0000  0.0000 -0.0731
 1510SOL    HW3 6086   1.006   3.179   2.697  0.0000  0.0000 -0.1338
 1510SOL    MW4 6087   0.928   3.215   2.714  0.0000  0.0000 -0.0982
 1511SOL     OW 6088   0.887   3.462   2.610  0.0000  0.0000  0.1760
 1511SOL    HW2 6089   0.961   3.509   2.650  0.0000  0.0000  0.1587
 1511SOL    HW3 6090   0.810   3.512   2.638  0.0000  0.0000  0.1949
 1511SOL    MW4 6091   0.887   3.475   2.619  0.0000  0.0000  0.1762
 1512SOL     OW 6092   1.102   3.599   2.696  0.0000  0.0000  0.1390
 1512SOL    HW2 6093   1.101   3.626   2.788  0.0000  0.0000  0.1381
 1512SOL    HW3 6094   1.100   3.681   2.648  0.0000  0.0000  0.1360
 1512SOL    MW4 6095   1.102   3.613   2.702  0.0000  0.0000  0.1385
 1513SOL     OW 6096   1.098   3.851   2.582  0.0000  0.0000 -0.4870
 1513SOL    HW2 6097   1.178   3.889   2.620  0.0000  0.0000 -0.4851
 1513SOL    HW3 6098   1.110   3.859   2.487  0.0000  0.0000 -0.4867
 1513SOL    MW4 6099   1.110   3.857   2.574  0.0000  0.0000 -0.4866
 1514SOL     OW 6100   0.893   4.008   2.703  0.0000  0.0000 -0.4792
 1514SOL    HW2 6101   0.957   3.963   2.648  0.0000  0.0000 -0.4889
 1514SOL    HW3 6102   0.809   3.969   2.677  0.0000  0.0000 -0.4576
 1514SOL    MW4 6103   0.890   3.997   2.692  0.0000  0.0000 -0.4778
 1515SOL     OW 6104   0.888   4.266   2.623  0.0000  0.0000  0.0771
 1515SOL    HW2 6105   0.892   4.173   2.648  0.0000  0.0000  0.0811
 1515SOL    HW3 6106   0.884   4.265   2.528  0.0000  0.0000  0.0769
 1515SOL    MW4 6107   0.888   4.254   2.614  0.0000  0.0000  0.0777
 1516SOL     OW 6108   1.144   4.351   2.716  0.0000  0.0000  0.8413
 1516SOL    HW2 6109   1.137   4.378   2.808  0.0000  0.0000  0.8410
 1516SOL    HW3 6110   1.055   4.327   2.691  0.0000  0.0000  0.8443
 1516SOL    MW4 6111   1.131   4.351   2.725  0.0000  0.0000  0.8416
 1517SOL     OW 6112   1.593   4.643   2.626  0.0000  0.0000 -0.5694
 1517SOL    HW2 6113   1.588   4.549   2.642  0.0000  0.0000 -0.5687
 1517SOL    HW3 6114   1.581   4.652   2.531  0.0000  0.0000 -0.5698
 1517SOL    MW4 6115   1.591   4.632   2.616  0.0000  0.0000 -0.5693
 1518SOL     OW 6116   1.312   0.061   2.745 -0.2274 -0.6245  0.2636
 1518SOL    HW2 6117   1.323   0.147   2.705 -2.8198  0.1304  1.0745
 1518SOL    HW3 6118   1.384   0.009   2.710  0.0111  1.1957 -2.0807
 1518SOL    MW4 6119   1.323   0.065   2.735 -0.5379 -0.2847  0.0613
 1519SOL     OW 6120   1.314   0.317   2.637  0.2939 -0.4601 -0.1490
 1519SOL    HW2 6121   1.390   0.356   2.680 -0.2258 -0.7381  1.0196
 1519SOL    HW3 6122   1.239   0.363   2.673 -0.0937  0.0302 -1.5363
 1519SOL    MW4 6123   1.314   0.328   2.647  0.1742 -0.4321 -0.1779
 1520SOL     OW 6124   1.542   0.446   2.703  0.4142  0.0016  0.3087
 1520SOL    HW2 6125   1.631   0.414   2.687  0.9381  1.5761  0.0047
 1520SOL    HW3 6126   1.544   0.539   2.679 -1.1127  0.2531  1.0212
 1520SOL    MW4 6127   1.554   0.454   2.698  0.2819  0.2425  0.3626
 1521SOL     OW 6128   1.557   0.699   2.618 -0.4657 -0.1859  0.2575
 1521SOL    HW2 6129   1.487   0.750   2.658  1.0089  2.1473 -0.0392
 1521SOL    HW3 6130   1.549   0.716   2.524 -0.0773 -0.6362  0.1405
 1521SOL    MW4 6131   1.547   0.708   2.611 -0.2199  0.0625  0.2027
 1522SOL     OW 6132   1.358   0.875   2.717 -0.4119 -0.0568 -0.4076
 1522SOL    HW2 6133   1.339   0.872   2.811 -0.1458  2.3246 -0.2414
 1522SOL    HW3 6134   1.362   0.969   2.697  1.4514 -0.5367 -2.4167
 1522SOL    MW4 6135   1.356   0.887   2.727 -0.1310  0.1941 -0.6506
 1523SOL     OW 6136   1.369   1.133   2.604  0.3041  0.3431  0.3980
 1523SOL    HW2 6137   1.440   1.188   2.638  1.0437 -0.7728  0.6786
 1523SOL    HW3 6138   1.293   1.158   2.656  0.5990  1.2033  0.4279
 1523SOL    MW4 6139   1.369   1.144   2.615  0.4405  0.3093  0.4392
 1524SOL     OW 6140   1.584   1.273   2.717  0.4164  0.4648  0.3627
 1524SOL    HW2 6141   1.593   1.241   2.807  0.5266  0.4258  0.3385
 1524SOL    HW3 6142   1.638   1.214   2.665 -0.0990  0.1450  0.1898
 1524SOL    MW4 6143   1.593   1.261   2.722  0.3629  0.4175  0.3362
 1525SOL     OW 6144   1.529   1.544   2.636  0.2664  0.1965 -0.5403
 1525SOL    HW2 6145   1.548   1.451   2.647 -1.3220 -0.0265  0.4257
 1525SOL    HW3 6146   1.545   1.560   2.543 -0.3139 -1.2509 -0.9085
 1525SOL    MW4 6147   1.534   1.534   2.625 -0.0198 -0.0238 -0.4611
 1526SOL     OW 6148   1.290   1.649   2.739  0.3540 -0.2047  0.5581
 1526SOL    HW2 6149   1.376   1.618   2.711  0.6587  0.1107  1.1466
 1526SOL    HW3 6150   1.228   1.588   2.697  0.8458 -0.2992 -0.0440
 1526SOL    MW4 6151   1.293   1.637   2.729  0.4591 -0.1755  0.5565
 1527SOL     OW 6152   1.387   1.900   2.646  0.0567 -0.0251 -0.3849
 1527SOL    HW2 6153   1.339   1.819   2.662  0.9285 -0.2086  1.4117
 1527SOL    HW3 6154   1.387   1.909   2.551  1.2416 -2.9435 -0.7201
 1527SOL    MW4 6155   1.381   1.891   2.635  0.3281 -0.4345 -0.1922
 1528SOL     OW 6156   1.586   2.057   2.763  0.1491 -0.9366  0.3613
 1528SOL    HW2 6157   1.589   2.145   2.723 -0.1418 -0.6398  0.9891
 1528SOL    HW3 6158   1.520   2.010   2.711  1.6870 -1.4077 -1.2134
 1528SOL    MW4 6159   1.577   2.063   2.751  0.3135 -0.9596  0.2360
 1529SOL     OW 6160   1.584   2.297   2.625  0.1823 -0.0606  0.2579
 1529SOL    HW2 6161   1.502   2.343   2.645 -0.2339  0.6962 -2.8626
 1529SOL    HW3 6162   1.652   2.353   2.662 -0.6227 -0.1764  1.9810
 1529SOL    MW4 6163   1.582   2.311   2.633  0.0211  0.0238  0.0734
 1530SOL     OW 6164   1.349   2.413   2.709 -0.3095 -0.2364  0.1398
 1530SOL    HW2 6165   1.350   2.508   2.699  0.3313 -0.2163  0.4178
 1530SOL    HW3 6166   1.344   2.399   2.804  0.2841 -0.4848  0.1336
 1530SOL    MW4 6167   1.348   2.424   2.720 -0.1466 -0.2666  0.1760
 1531SOL     OW 6168   1.361   2.683   2.621  0.1417 -0.4450  0.9202
 1531SOL    HW2 6169   1.449   2.710   2.646 -0.4088  0.6970  1.6998
 1531SOL    HW3 6170   1.362   2.682   2.525  0.6323  0.8586  0.9080
 1531SOL    MW4 6171   1.372   2.687   2.611  0.1338 -0.1225  1.0211
 1532SOL     OW 6172   1.594   2.876   2.715  0.7846  0.0568 -0.0547
 1532SOL    HW2 6173   1.592   2.968   2.690  1.0526 -0.0396 -0.4258
 1532SOL    HW3 6174   1.557   2.874   2.803  1.3746  0.6035  0.2096
 1532SOL    MW4 6175   1.589   2.888   2.724  0.8979  0.1161 -0.0691
 1533SOL     OW 6176   1.582   3.134   2.644 -0.2072 -0.2221  0.0119
 1533SOL    HW2 6177   1.659   3.183   2.672 -0.9695  1.3096 -0.5634
 1533SOL    HW3 6178   1.508   3.193   2.660 -1.0216 -0.7308 -1.7327
 1533SOL    MW4 6179   1.583   3.148   2.650 -0.4153 -0.0868 -0.2942
 1534SOL     OW 6180   1.356   3.250   2.720  0.2567 -0.0501  0.1143
 1534SOL    HW2 6181   1.287   3.197   2.681  0.2015 -0.1285  0.3185
 1534SOL    HW3 6182   1.349   3.234   2.814  1.8296 -1.5899 -0.0161
 1534SOL    MW4 6183   1.346   3.241   2.728  0.4569 -0.2635  0.1240
 1535SOL     OW 6184   1.358   3.513   2.628 -0.2880 -0.1698  0.3806
 1535SOL    HW2 6185   1.346   3.425   2.664 -0.4865 -0.6408 -0.8141
 1535SOL    HW3 6186   1.279   3.561   2.656 -1.0778 -0.9102 -0.5347
 1535SOL    MW4 6187   1.346   3.507   2.636 -0.4184 -0.3295  0.1020
 1536SOL     OW 6188   1.590   3.626   2.716 -0.1609 -0.5250 -0.4235
 1536SOL    HW2 6189   1.667   3.588   2.676  0.8900  0.6869  0.4157
 1536SOL    HW3 6190   1.520   3.563   2.698  1.5707 -3.0049  1.1777
 1536SOL    MW4 6191   1.591   3.613   2.709  0.2062 -0.6921 -0.1016
 1537SOL     OW 6192   1.578   3.852   2.574 -0.3241  0.3029 -0.1325
 1537SOL    HW2 6193   1.487   3.880   2.582 -0.0979  0.5125  1.8236
 1537SOL    HW3 6194   1.582   3.770   2.624  0.8298  0.8984  0.7567
 1537SOL    MW4 6195   1.566   3.845   2.582 -0.1421  0.4091  0.2427
 1538SOL     OW 6196   1.335   3.930   2.699 -0.1243  0.0734  0.1276
 1538SOL    HW2 6197   1.325   3.930   2.795  1.0716 -0.8896  0.2564
 1538SOL    HW3 6198   1.347   4.022   2.676 -0.4192  0.3090  0.9007
 1538SOL    MW4 6199   1.335   3.942   2.709 -0.0055 -0.0229  0.2470
 1539SOL     OW 6200   1.359   4.185   2.637  0.1609  0.0687 -0.0572
 1539SOL    HW2 6201   1.284   4.237   2.665 -0.3772 -0.2382 -0.8956
 1539SOL    HW3 6202   1.354   4.185   2.542 -1.3750 -3.6411 -0.0941
 1539SOL    MW4 6203   1.348   4.192   2.628 -0.1127 -0.4611 -0.1726
 1540SOL     OW 6204   1.578   4.371   2.710 -0.0982 -0.0280 -0.6794
 1540SOL    HW2 6205   1.587   4.347   2.802  0.7847  0.1337 -0.7198
 1540SOL    HW3 6206   1.503   4.320   2.679  0.4117 -1.0768 -0.2114
 1540SOL    MW4 6207   1.569   4.361   2.718  0.0855 -0.1445 -0.6227
 1541SOL     OW 6208   2.008   4.642   2.649 -0.5145 -0.7170  0.0541
 1541SOL    HW2 6209   2.071   4.710   2.669 -0.5524 -0.8099  0.4870
 1541SOL    HW3 6210   1.997   4.647   2.554 -0.9617  0.2641  0.1564
 1541SOL    MW4 6211   2.015   4.652   2.639 -0.5786 -0.6003  0.1245
 1542SOL     OW 6212   1.801   0.115   2.770  0.1558 -0.3268 -0.0094
 1542SOL    HW2 6213   1.874   0.061   2.740 -0.5242 -1.0994 -0.3191
 1542SOL    HW3 6214   1.725   0.081   2.722 -0.2607  1.0111 -0.3115
 1542SOL    MW4 6215   1.800   0.103   2.760  0.0112 -0.2522 -0.0901
 1543SOL     OW 6216   1.815   0.357   2.633  0.0765 -0.8094  0.0696
 1543SOL    HW2 6217   1.895   0.407   2.650 -0.5140  0.6264 -1.2459
 1543SOL    HW3 6218   1.825   0.276   2.684  2.8560 -1.1559 -0.9725
 1543SOL    MW4 6219   1.827   0.353   2.642  0.3655 -0.6657 -0.2413
 1544SOL     OW 6220   2.034   0.526   2.744  0.2729 -0.1313 -0.3834
 1544SOL    HW2 6221   2.104   0.479   2.699 -1.5989 -0.6358 -2.8609
 1544SOL    HW3 6222   2.025   0.608   2.697 -1.9339 -0.7976 -1.2066
 1544SOL    MW4 6223   2.042   0.530   2.732 -0.2651 -0.2859 -0.8187
 1545SOL     OW 6224   2.058   0.761   2.621 -0.0622  0.2040  0.2921
 1545SOL    HW2 6225   1.978   0.806   2.650 -0.6669 -0.4361 -0.3598
 1545SOL    HW3 6226   2.058   0.771   2.526  1.2968  1.2670  0.3954
 1545SOL    MW4 6227   2.047   0.769   2.613  0.0372  0.2598  0.2196
 1546SOL     OW 6228   1.816   0.875   2.692 -0.6281 -0.1793  0.7608
 1546SOL    HW2 6229   1.798   0.955   2.644  0.7471 -1.7856 -2.5806
 1546SOL    HW3 6230   1.740   0.819   2.676  0.2862 -1.1048 -0.4328
 1546SOL    MW4 6231   1.804   0.878   2.684 -0.3262 -0.5134  0.1626
 1547SOL     OW 6232   1.775   1.112   2.581 -0.4005  0.4306  0.1664
 1547SOL    HW2 6233   1.856   1.146   2.620  0.2539  0.5570 -1.2409
 1547SOL    HW3 6234   1.792   1.115   2.487 -2.0116  0.3395 -0.1358
 1547SOL    MW4 6235   1.788   1.117   2.574 -0.5268  0.4352 -0.0591
 1548SOL     OW 6236   1.984   1.263   2.684 -0.6978 -0.1367  0.3180
 1548SOL    HW2 6237   1.987   1.271   2.780  0.1483 -1.5849  0.4319
 1548SOL    HW3 6238   2.074   1.242   2.659 -0.7384  1.1137 -0.8957
 1548SOL    MW4 6239   1.996   1.261   2.694 -0.5916 -0.1630  0.1726
 1549SOL     OW 6240   2.007   1.533   2.607 -0.0917  0.3297 -0.0032
 1549SOL    HW2 6241   1.927   1.577   2.635 -1.8147 -1.5132 -1.8500
 1549SOL    HW3 6242   1.994   1.442   2.632  0.7082 -0.2917 -1.8121
 1549SOL    MW4 6243   1.995   1.527   2.614 -0.2136  0.0048 -0.4854
 1550SOL     OW 6244   1.779   1.705   2.714 -0.1733  0.0847 -0.3017
 1550SOL    HW2 6245   1.773   1.696   2.809  0.7079 -0.0036 -0.2536
 1550SOL    HW3 6246   1.703   1.658   2.680 -1.0004  0.9006  0.3951
 1550SOL    MW4 6247   1.768   1.698   2.722 -0.1662  0.1807 -0.2034
 1551SOL     OW 6248   1.808   1.955   2.620  0.0414  0.2427  0.3429
 1551SOL    HW2 6249   1.731   1.989   2.666 -1.1661  0.2461 -1.6389
 1551SOL    HW3 6250   1.811   1.862   2.642  0.3444  0.5484  1.6195
 1551SOL    MW4 6251   1.799   1.947   2.629 -0.0781  0.2836  0.2496
 1552SOL     OW 6252   2.020   2.096   2.752 -0.2535  0.1321  0.5055
 1552SOL    HW2 6253   2.006   2.093   2.846  0.8959 -0.7970  0.6576
 1552SOL    HW3 6254   1.945   2.049   2.715 -0.1310 -0.4679  1.0191
 1552SOL    MW4 6255   2.008   2.090   2.759 -0.0858 -0.0696  0.5937
 1553SOL     OW 6256   2.017   2.331   2.610  0.3867 -0.3613  0.0269
 1553SOL    HW2 6257   2.018   2.249   2.660 -0.5558 -0.8456 -0.7296
 1553SOL    HW3 6258   2.026   2.304   2.519 -1.4815  0.2503 -0.3578
 1553SOL    MW4 6259   2.018   2.316   2.605  0.0157 -0.3448 -0.1237
 1554SOL     OW 6260   1.790   2.477   2.736  0.1260 -0.0803  0.1709
 1554SOL    HW2 6261   1.784   2.448   2.827 -0.1434 -0.7837 -0.0686
 1554SOL    HW3 6262   1.872   2.440   2.704  0.0740 -0.0803  0.0381
 1554SOL    MW4 6263   1.800   2.469   2.744  0.0836 -0.1731  0.1218
 1555SOL     OW 6264   1.797   2.718   2.610 -0.1539  0.0865  0.4850
 1555SOL    HW2 6265   1.738   2.767   2.667 -1.5743  0.4069 -1.2202
 1555SOL    HW3 6266   1.813   2.636   2.657  0.2635  1.1338  2.2142
 1555SOL    MW4 6267   1.791   2.714   2.623 -0.2862  0.2670  0.4880
 1556SOL     OW 6268   2.005   2.868   2.739  0.1259 -0.4430  0.5935
 1556SOL    HW2 6269   2.092   2.841   2.710  1.2728  2.7368  0.8962
 1556SOL    HW3 6270   1.945   2.817   2.685  2.1918  0.0686 -2.3522
 1556SOL    MW4 6271   2.008   2.858   2.728  0.5498  0.0441  0.2449
 1557SOL     OW 6272   2.041   3.122   2.609  0.0065  0.5727 -0.2309
 1557SOL    HW2 6273   2.037   3.032   2.641 -1.4686  0.8479  0.3648
 1557SOL    HW3 6274   2.033   3.114   2.514 -1.1229  0.1367 -0.1048
 1557SOL    MW4 6275   2.039   3.109   2.600 -0.3371  0.5515 -0.1357
 1558SOL     OW 6276   1.807   3.251   2.737  0.6104 -0.1319 -0.2764
 1558SOL    HW2 6277   1.796   3.337   2.695  2.2897  0.3542  0.2495
 1558SOL    HW3 6278   1.888   3.217   2.700  0.8230 -0.7645  0.7752
 1558SOL    MW4 6279   1.816   3.258   2.726  0.8601 -0.1512 -0.0684
 1559SOL     OW 6280   1.809   3.486   2.611 -0.0112  0.1342  0.8848
 1559SOL    HW2 6281   1.893   3.525   2.635 -0.1539  0.5872  0.6469
 1559SOL    HW3 6282   1.801   3.501   2.517 -0.4283  0.2214  0.9325
 1559SOL    MW4 6283   1.819   3.493   2.602 -0.0851  0.2053  0.8597
 1560SOL     OW 6284   2.033   3.603   2.708 -0.0578 -0.1893  0.3847
 1560SOL    HW2 6285   2.022   3.621   2.802 -0.2129  0.8625  0.1712
 1560SOL    HW3 6286   2.120   3.563   2.702  0.0706 -0.0070  0.9458
 1560SOL    MW4 6287   2.043   3.600   2.720 -0.0615 -0.0265  0.4306
 1561SOL     OW 6288   2.031   3.887   2.623  0.0720  0.2122  0.1751
 1561SOL    HW2 6289   1.951   3.921   2.662  1.5077  2.5099  1.1684
 1561SOL    HW3 6290   2.040   3.799   2.660 -1.0326  0.6207  1.4422
 1561SOL    MW4 6291   2.022   3.880   2.633  0.1159  0.5691  0.4737
 1562SOL     OW 6292   1.783   3.992   2.737 -0.2324  0.1535  0.5139
 1562SOL    HW2 6293   1.793   4.079   2.700 -1.0607  1.2389  2.7627
 1562SOL    HW3 6294   1.699   3.961   2.703  0.6282 -0.2670 -1.2470
 1562SOL    MW4 6295   1.773   3.999   2.728 -0.2280  0.2418  0.5782
 1563SOL     OW 6296   1.816   4.245   2.614  0.3537  0.6254  0.1620
 1563SOL    HW2 6297   1.738   4.286   2.652  0.0503  2.4059 -2.2680
 1563SOL    HW3 6298   1.804   4.255   2.519  3.6547  1.1305 -0.2425
 1563SOL    MW4 6299   1.804   4.252   2.606  0.7492  0.9270 -0.2122
 1564SOL     OW 6300   2.062   4.378   2.729 -0.3546 -0.1342 -0.6602
 1564SOL    HW2 6301   1.996   4.331   2.678 -1.1659 -0.3492  0.5680
 1564SOL    HW3 6302   2.051   4.470   2.703  0.8194 -0.5243 -2.6023
 1564SOL    MW4 6303   2.052   4.384   2.719 -0.3066 -0.2146 -0.7548
 1565SOL     OW 6304   2.442   0.023   2.637  0.1376 -0.3646  0.4480
 1565SOL    HW2 6305   2.517   0.073   2.671 -1.1199  1.8977  0.0240
 1565SOL    HW3 6306   2.462   0.012   2.544  0.5660 -0.9656  0.6038
 1565SOL    MW4 6307   2.455   0.028   2.629  0.0281 -0.1450  0.4127
 1566SOL     OW 6308   2.223   0.155   2.721 -0.0888  0.2092  0.1251
 1566SOL    HW2 6309   2.237   0.150   2.816 -0.7749 -0.5603  0.1913
 1566SOL    HW3 6310   2.293   0.101   2.684 -0.4196 -0.3202  0.2540
 1566SOL    MW4 6311   2.234   0.147   2.729 -0.2229  0.0378  0.1507
 1567SOL     OW 6312   2.264   0.409   2.600  0.0608  0.0628  0.2152
 1567SOL    HW2 6313   2.260   0.322   2.640  1.4848 -0.2931 -0.3903
 1567SOL    HW3 6314   2.248   0.394   2.507 -2.6262  0.8190  0.5096
 1567SOL    MW4 6315   2.262   0.395   2.593 -0.1059  0.1156  0.1743
 1568SOL     OW 6316   2.496   0.519   2.689  0.1192 -0.1899 -0.1229
 1568SOL    HW2 6317   2.504   0.610   2.662 -1.3028 -0.2468 -0.7760
 1568SOL    HW3 6318   2.407   0.494   2.664  0.1680 -1.4694  0.9233
 1568SOL    MW4 6319   2.485   0.528   2.682 -0.0620 -0.3662 -0.0710
 1569SOL     OW 6320   2.493   0.792   2.623 -0.2981 -0.4182 -0.1448
 1569SOL    HW2 6321   2.417   0.838   2.658 -0.6615 -0.9657 -0.2061
 1569SOL    HW3 6322   2.471   0.773   2.532 -0.1152 -0.6316 -0.1474
 1569SOL    MW4 6323   2.480   0.795   2.615 -0.3221 -0.5186 -0.1531
 1570SOL     OW 6324   2.260   0.922   2.721  0.1258 -0.3719  0.0422
 1570SOL    HW2 6325   2.251   0.894   2.812 -0.4179 -1.7856 -0.4244
 1570SOL    HW3 6326   2.190   0.875   2.675  0.3085  0.4354 -1.0795
 1570SOL    MW4 6327   2.250   0.912   2.727  0.0782 -0.4519 -0.1674
 1571SOL     OW 6328   2.248   1.184   2.620  0.3658  0.4371 -0.0640
 1571SOL    HW2 6329   2.255   1.095   2.655  0.2812  0.2203 -0.5905
 1571SOL    HW3 6330   2.258   1.174   2.526  2.5740  1.2440  0.0505
 1571SOL    MW4 6331   2.251   1.171   2.612  0.6461  0.5150 -0.1183
 1572SOL     OW 6332   2.485   1.304   2.697  0.4827 -0.2245 -0.1066
 1572SOL    HW2 6333   2.559   1.250   2.670  0.2622  0.8791 -3.1343
 1572SOL    HW3 6334   2.408   1.256   2.669  0.1749  0.2824 -0.1366
 1572SOL    MW4 6335   2.485   1.291   2.690  0.4129 -0.0119 -0.5102
 1573SOL     OW 6336   2.449   1.586   2.613 -0.0103  0.1668 -0.4768
 1573SOL    HW2 6337   2.369   1.613   2.657  0.8357  3.1337 -0.6753
 1573SOL    HW3 6338   2.464   1.496   2.643 -3.1062 -0.2350 -0.0565
 1573SOL    MW4 6339   2.441   1.578   2.623 -0.3071  0.5053 -0.4473
 1574SOL     OW 6340   2.202   1.672   2.743 -0.0296 -0.5287  0.0925
 1574SOL    HW2 6341   2.207   1.761   2.709 -0.1974 -0.9909 -1.1799
 1574SOL    HW3 6342   2.136   1.629   2.689  0.0490 -1.4270  0.6963
 1574SOL    MW4 6343   2.194   1.678   2.732 -0.0412 -0.7082  0.0045
 1575SOL     OW 6344   2.233   1.934   2.646  0.8322  0.1334  0.2000
 1575SOL    HW2 6345   2.156   1.986   2.669  0.4970 -0.9228  1.5735
 1575SOL    HW3 6346   2.226   1.920   2.551 -0.3060  0.6126  0.2106
 1575SOL    MW4 6347   2.222   1.939   2.636  0.6380  0.0571  0.3827
 1576SOL     OW 6348   2.474   2.080   2.703  0.1743 -0.1492 -0.2840
 1576SOL    HW2 6349   2.457   2.172   2.683 -1.6519 -0.0645  1.4250
 1576SOL    HW3 6350   2.389   2.037   2.691  0.5409 -1.2247  0.8791
 1576SOL    MW4 6351   2.461   2.086   2.699 -0.0184 -0.2799  0.0951
 1577SOL     OW 6352   2.477   2.329   2.608 -0.0408  0.3415 -0.6265
 1577SOL    HW2 6353   2.562   2.362   2.638 -0.3968  0.9981 -0.3141
 1577SOL    HW3 6354   2.413   2.382   2.656 -0.6203  0.2636 -1.3138
 1577SOL    MW4 6355   2.480   2.341   2.618 -0.1643  0.4179 -0.6762
 1578SOL     OW 6356   2.231   2.452   2.727  0.0208 -0.4717  0.1837
 1578SOL    HW2 6357   2.216   2.443   2.821 -0.4363 -0.5627  0.1021
 1578SOL    HW3 6358   2.154   2.414   2.686 -0.1020  0.1979 -0.2202
 1578SOL    MW4 6359   2.219   2.446   2.734 -0.0558 -0.3953  0.1194
 1579SOL     OW 6360   2.228   2.719   2.650 -0.3147 -0.2102 -0.6697
 1579SOL    HW2 6361   2.309   2.750   2.690  0.1181  0.5466 -2.1022
 1579SOL    HW3 6362   2.217   2.630   2.684 -0.4132  0.6910  1.7818
 1579SOL    MW4 6363   2.237   2.711   2.660 -0.2706  0.0088 -0.5352
 1580SOL     OW 6364   2.468   2.827   2.741  0.3091 -0.0277 -0.0169
 1580SOL    HW2 6365   2.550   2.803   2.697  0.4369  0.1704  0.1145
 1580SOL    HW3 6366   2.456   2.919   2.719  0.7773  0.2784  1.0196
 1580SOL    MW4 6367   2.477   2.836   2.732  0.3874  0.0386  0.1371
 1581SOL     OW 6368   2.476   3.090   2.631  0.1648  0.1904  0.2060
 1581SOL    HW2 6369   2.414   3.147   2.676 -1.1473 -0.6855 -0.4646
 1581SOL    HW3 6370   2.451   3.094   2.539  0.6324 -0.7411  0.0235
 1581SOL    MW4 6371   2.464   3.098   2.625  0.0532 -0.0484  0.0935
 1582SOL     OW 6372   2.264   3.253   2.706 -0.1431  0.6990 -0.2332
 1582SOL    HW2 6373   2.243   3.259   2.799 -1.8158  3.5538 -0.7532
 1582SOL    HW3 6374   2.197   3.193   2.671 -1.4055  2.0198 -0.1187
 1582SOL    MW4 6375   2.252   3.246   2.714 -0.5305  1.2498 -0.2866
 1583SOL     OW 6376   2.279   3.488   2.576 -0.1027  0.0329 -0.0974
 1583SOL    HW2 6377   2.354   3.538   2.609  0.5702 -1.9200  1.4395
 1583SOL    HW3 6378   2.293   3.399   2.609 -1.6699 -1.0135 -2.1218
 1583SOL    MW4 6379   2.291   3.483   2.585 -0.2203 -0.3626 -0.1619
 1584SOL     OW 6380   2.487   3.626   2.700  0.2996 -0.4585  0.5099
 1584SOL    HW2 6381   2.466   3.621   2.794 -2.1219  1.6459  0.1426
 1584SOL    HW3 6382   2.502   3.719   2.684 -1.3273 -0.5223 -1.5839
 1584SOL    MW4 6383   2.486   3.638   2.711 -0.2346 -0.1893  0.1853
 1585SOL     OW 6384   2.510   3.901   2.634  0.4806  0.4712  0.2818
 1585SOL    HW2 6385   2.581   3.938   2.686 -0.0619  0.5501  0.9708
 1585SOL    HW3 6386   2.431   3.942   2.668 -0.0782 -0.9515  0.7192
 1585SOL    MW4 6387   2.509   3.912   2.645  0.3350  0.2942  0.4306
 1586SOL     OW 6388   2.275   4.002   2.733  0.0905  0.4413  0.2300
 1586SOL    HW2 6389   2.262   3.994   2.828  0.2015 -0.4203  0.1793
 1586SOL    HW3 6390   2.195   3.967   2.695  0.1033  0.6632  0.0016
 1586SOL    MW4 6391   2.263   3.996   2.741  0.1070  0.3574  0.1931
 1587SOL     OW 6392   2.292   4.248   2.602 -0.1048 -0.3562 -0.4080
 1587SOL    HW2 6393   2.290   4.157   2.630  0.0299 -0.0371  0.6715
 1587SOL    HW3 6394   2.206   4.283   2.627 -0.3853 -0.3492 -1.3762
 1587SOL    MW4 6395   2.280   4.241   2.609 -0.1240 -0.3128 -0.3932
 1588SOL     OW 6396   2.481   4.424   2.724 -0.2921 -0.2323 -0.1714
 1588SOL    HW2 6397   2.414   4.376   2.676 -1.7563  1.2190  0.3770
 1588SOL    HW3 6398   2.472   4.515   2.695  1.3822  0.0095 -0.0162
 1588SOL    MW4 6399   2.471   4.430   2.714 -0.2644 -0.0091 -0.0789
 1589SOL     OW 6400   2.902   4.608   2.640 -0.3313  0.0559 -0.1075
 1589SOL    HW2 6401   2.973   4.670   2.659 -0.0242  0.1143 -1.3504
 1589SOL    HW3 6402   2.883   4.623   2.547 -0.9311 -1.0228 -0.1597
 1589SOL    MW4 6403   2.909   4.618   2.630 -0.3698 -0.0787 -0.2785
 1590SOL     OW 6404   2.694   0.150   2.699  0.6288 -0.8199  0.1527
 1590SOL    HW2 6405   2.696   0.135   2.794  1.3877  0.3521  0.3415
 1590SOL    HW3 6406   2.765   0.096   2.665  1.7663  0.3893  0.5310
 1590SOL    MW4 6407   2.704   0.141   2.707  0.8790 -0.5057  0.2272
 1591SOL     OW 6408   2.716   0.399   2.594 -0.4824  0.0075  0.3793
 1591SOL    HW2 6409   2.703   0.308   2.620 -1.5618 -0.1391 -0.6461
 1591SOL    HW3 6410   2.645   0.447   2.635  0.0217  0.3757  0.8287
 1591SOL    MW4 6411   2.705   0.393   2.603 -0.5584  0.0367  0.3030
 1592SOL     OW 6412   2.926   0.502   2.736  0.5384 -0.1782  0.2633
 1592SOL    HW2 6413   2.916   0.586   2.692  1.2293 -0.9747 -1.4685
 1592SOL    HW3 6414   2.856   0.447   2.699 -0.3140 -0.1881  1.8494
 1592SOL    MW4 6415   2.915   0.506   2.725  0.5171 -0.2846  0.2441
 1593SOL     OW 6416   2.917   0.780   2.631 -0.3359  0.0494 -0.0248
 1593SOL    HW2 6417   2.997   0.824   2.659 -0.3106  0.7132 -1.1024
 1593SOL    HW3 6418   2.846   0.837   2.663 -0.3717 -0.3967  0.6936
 1593SOL    MW4 6419   2.918   0.793   2.639 -0.3374  0.0782 -0.0718
 1594SOL     OW 6420   2.710   0.925   2.737  0.1737 -0.1411  0.0996
 1594SOL    HW2 6421   2.723   0.895   2.827 -0.1368  0.3261  0.3017
 1594SOL    HW3 6422   2.626   0.888   2.712  0.0889  0.0363  0.1268
 1594SOL    MW4 6423   2.701   0.916   2.746  0.1216 -0.0561  0.1299
 1595SOL     OW 6424   2.701   1.187   2.605  0.4334  0.3659  0.1425
 1595SOL    HW2 6425   2.773   1.245   2.629  1.7127 -0.4443 -1.5934
 1595SOL    HW3 6426   2.717   1.107   2.655  1.6341 -0.3655 -1.3449
 1595SOL    MW4 6427   2.713   1.184   2.615  0.7606  0.1625 -0.2830
 1596SOL     OW 6428   2.908   1.344   2.697  0.4811 -0.1823 -0.2958
 1596SOL    HW2 6429   2.908   1.324   2.790  0.3768  1.5913  0.0993
 1596SOL    HW3 6430   2.989   1.305   2.664 -0.4261 -2.5172  0.1385
 1596SOL    MW4 6431   2.919   1.336   2.705  0.3476 -0.2563 -0.1864
 1597SOL     OW 6432   2.925   1.592   2.590 -0.3166  0.1956 -0.9279
 1597SOL    HW2 6433   2.849   1.645   2.614 -0.3329 -0.3201  0.1859
 1597SOL    HW3 6434   2.909   1.507   2.631  1.1927  0.2970 -0.0797
 1597SOL    MW4 6435   2.913   1.588   2.599 -0.1197  0.1409 -0.6690
 1598SOL     OW 6436   2.700   1.718   2.695  0.1914  0.3170  0.3230
 1598SOL    HW2 6437   2.707   1.703   2.789 -0.9908  1.5059  0.6253
 1598SOL    HW3 6438   2.631   1.658   2.667 -0.5978  1.1036  0.5285
 1598SOL    MW4 6439   2.692   1.708   2.704 -0.0689  0.5777  0.3898
 1599SOL     OW 6440   2.714   1.982   2.606 -0.3100  0.3121  0.3016
 1599SOL    HW2 6441   2.705   1.893   2.641  1.5237  0.1845  0.5347
 1599SOL    HW3 6442   2.631   2.025   2.627 -1.1083 -1.2578  0.4446
 1599SOL    MW4 6443   2.702   1.976   2.614 -0.1733  0.0883  0.3510
 1600SOL     OW 6444   2.941   2.081   2.728 -0.2372  0.2226 -0.0399
 1600SOL    HW2 6445   2.950   2.172   2.701  1.4994  0.2377  0.5164
 1600SOL    HW3 6446   2.865   2.049   2.679 -0.9810  2.0129 -0.0812
 1600SOL    MW4 6447   2.932   2.089   2.718 -0.1063  0.4609  0.0279
 1601SOL     OW 6448   2.943   2.337   2.619  0.0191  0.0285  0.0324
 1601SOL    HW2 6449   3.014   2.379   2.668 -0.5569  0.8979  0.1496
 1601SOL    HW3 6450   2.868   2.395   2.633 -0.6624 -0.7809 -0.2447
 1601SOL    MW4 6451   2.943   2.351   2.627 -0.1469  0.0365  0.0112
 1602SOL     OW 6452   2.715   2.441   2.697  0.5691  0.5478 -0.0118
 1602SOL    HW2 6453   2.723   2.446   2.792  1.9278  0.9882 -0.1379
 1602SOL    HW3 6454   2.699   2.531   2.669  0.4459  0.4621 -0.2217
 1602SOL    MW4 6455   2.714   2.454   2.705  0.7322  0.5949 -0.0563
 1603SOL     OW 6456   2.704   2.712   2.635 -0.2702 -0.2232  0.2123
 1603SOL    HW2 6457   2.771   2.777   2.655 -1.9855  1.9739 -0.8534
 1603SOL    HW3 6458   2.710   2.699   2.540 -0.1575 -1.3750  0.3707
 1603SOL    MW4 6459   2.713   2.719   2.625 -0.4816 -0.0851  0.0927
 1604SOL     OW 6460   2.927   2.852   2.723  0.3585 -0.4097 -0.3161
 1604SOL    HW2 6461   2.938   2.851   2.818  0.3688 -0.3441 -0.3166
 1604SOL    HW3 6462   2.946   2.942   2.697 -1.5173  0.0603 -0.1528
 1604SOL    MW4 6463   2.931   2.864   2.732  0.1125 -0.3388 -0.2944
 1605SOL     OW 6464   2.956   3.114   2.654  0.0344  0.5608  0.3268
 1605SOL    HW2 6465   2.880   3.147   2.703  0.1120  0.1008  0.7611
 1605SOL    HW3 6466   2.930   3.119   2.563 -0.5371  0.3832  0.4782
 1605SOL    MW4 6467   2.943   3.119   2.649 -0.0312  0.4766  0.4041
 1606SOL     OW 6468   2.700   3.218   2.728 -0.2862 -0.4388  0.2106
 1606SOL    HW2 6469   2.691   3.308   2.698  0.2655 -0.2738  0.5420
 1606SOL    HW3 6470   2.628   3.171   2.686 -1.3398  0.4114  1.0546
 1606SOL    MW4 6471   2.689   3.223   2.718 -0.3526 -0.3049  0.3657
 1607SOL     OW 6472   2.693   3.459   2.616 -0.2590  0.3590  0.1271
 1607SOL    HW2 6473   2.614   3.502   2.649 -0.6870  0.3073 -0.8286
 1607SOL    HW3 6474   2.690   3.470   2.521 -0.0639 -1.2448 -0.0839
 1607SOL    MW4 6475   2.683   3.466   2.608 -0.2899  0.1409 -0.0269
 1608SOL     OW 6476   2.878   3.644   2.730  0.5609  0.0716  0.1414
 1608SOL    HW2 6477   2.910   3.609   2.813 -0.2387  1.4349  1.0551
 1608SOL    HW3 6478   2.823   3.575   2.694  0.9057 -0.5224  0.7552
 1608SOL    MW4 6479   2.875   3.631   2.736  0.5007  0.1731  0.3431
 1609SOL     OW 6480   2.928   3.880   2.602  0.2238 -0.6548  0.0674
 1609SOL    HW2 6481   3.011   3.918   2.630  0.8781 -0.8851 -1.5004
 1609SOL    HW3 6482   2.922   3.797   2.649  0.6581 -0.4177  0.5435
 1609SOL    MW4 6483   2.938   3.874   2.612  0.3674 -0.6540 -0.0768
 1610SOL     OW 6484   2.726   3.991   2.778 -0.5382 -0.5518  0.2179
 1610SOL    HW2 6485   2.722   4.072   2.728 -0.5329 -0.9242 -0.3919
 1610SOL    HW3 6486   2.795   3.940   2.735  0.3339 -0.3574  1.3751
 1610SOL    MW4 6487   2.735   3.995   2.766 -0.4227 -0.5758  0.2899
 1611SOL     OW 6488   2.691   4.230   2.625 -0.0781  0.4118  0.0211
 1611SOL    HW2 6489   2.770   4.258   2.671 -0.5617  0.3021  0.9366
 1611SOL    HW3 6490   2.626   4.297   2.646  0.6994  2.4128 -3.5872
 1611SOL    MW4 6491   2.693   4.243   2.634 -0.0396  0.6614 -0.3343
 1612SOL     OW 6492   2.937   4.351   2.721 -0.1516 -0.2273 -0.3853
 1612SOL    HW2 6493   2.939   4.355   2.816 -1.9916 -0.1086 -0.3383
 1612SOL    HW3 6494   2.931   4.443   2.693  0.5923 -0.2488 -0.6265
 1612SOL    MW4 6495   2.936   4.364   2.730 -0.2961 -0.2146 -0.4110
 1613SOL     OW 6496   3.351   4.650   2.621  0.1256  0.3559 -0.3601
 1613SOL    HW2 6497   3.341   4.569   2.672 -0.1801  1.2270  0.9909
 1613SOL    HW3 6498   3.275   4.703   2.646  0.7921  1.4167 -0.5629
 1613SOL    MW4 6499   3.340   4.646   2.631  0.1731  0.6113 -0.2091
 1614SOL     OW 6500   3.120   0.109   2.697 -0.1325 -0.1722  0.0364
 1614SOL    HW2 6501   3.137   0.098   2.790 -0.9377  0.2676  0.2363
 1614SOL    HW3 6502   3.120   0.204   2.683 -1.9196 -0.1635 -0.0403
 1614SOL    MW4 6503   3.122   0.120   2.707 -0.4749 -0.1130  0.0527
 1615SOL     OW 6504   3.151   0.377   2.658 -0.1588  0.0637 -0.1031
 1615SOL    HW2 6505   3.084   0.432   2.700 -0.2611  0.2294 -0.4825
 1615SOL    HW3 6506   3.144   0.399   2.565  2.0652  1.8468  0.1209
 1615SOL    MW4 6507   3.141   0.387   2.651  0.1214  0.3208 -0.1237
 1616SOL     OW 6508   3.363   0.521   2.749  0.6440  0.2249 -0.6245
 1616SOL    HW2 6509   3.359   0.608   2.709  1.3197  0.5307 -0.0463
 1616SOL    HW3 6510   3.289   0.474   2.712  1.1719  0.5494 -2.1164
 1616SOL    MW4 6511   3.353   0.526   2.739  0.8028  0.3080 -0.7448
 1617SOL     OW 6512   3.310   0.757   2.639 -0.0011 -0.4186  0.0139
 1617SOL    HW2 6513   3.395   0.782   2.676  0.2076 -1.1485  0.0239
 1617SOL    HW3 6514   3.323   0.759   2.544  0.1671 -1.0317  0.0256
 1617SOL    MW4 6515   3.323   0.761   2.631  0.0484 -0.5957  0.0172
 1618SOL     OW 6516   3.133   0.933   2.729  0.2860 -0.0706  0.5150
 1618SOL    HW2 6517   3.149   0.931   2.824  0.5269  0.1465  0.4816
 1618SOL    HW3 6518   3.204   0.880   2.693 -1.3960 -2.4704  0.6521
 1618SOL    MW4 6519   3.145   0.926   2.737  0.0958 -0.3586  0.5288
 1619SOL     OW 6520   3.136   1.203   2.631  0.4334 -0.4315 -0.1232
 1619SOL    HW2 6521   3.134   1.121   2.682 -0.2552 -0.6098 -0.4435
 1619SOL    HW3 6522   3.131   1.174   2.540  0.6980 -0.0563 -0.2553
 1619SOL    MW4 6523   3.135   1.188   2.626  0.3774 -0.4053 -0.1829
 1620SOL     OW 6524   3.368   1.328   2.689 -0.2148 -0.0727  0.2469
 1620SOL    HW2 6525   3.374   1.315   2.783  0.4972 -1.3361  0.0483
 1620SOL    HW3 6526   3.283   1.291   2.664 -0.1508 -0.2712  0.3202
 1620SOL    MW4 6527   3.358   1.321   2.698 -0.1125 -0.2657  0.2301
 1621SOL     OW 6528   3.390   1.568   2.552 -0.0103  0.2641  0.0253
 1621SOL    HW2 6529   3.319   1.624   2.584  0.8917  0.7011  1.3155
 1621SOL    HW3 6530   3.370   1.481   2.589  0.4716  0.5368  0.9460
 1621SOL    MW4 6531   3.378   1.564   2.561  0.1721  0.3577  0.3169
 1622SOL     OW 6532   3.165   1.688   2.672 -0.4071  0.2963  0.2955
 1622SOL    HW2 6533   3.156   1.781   2.648 -0.5612 -0.0603 -1.0807
 1622SOL    HW3 6534   3.095   1.645   2.623  0.4032 -0.7113  0.0313
 1622SOL    MW4 6535   3.154   1.695   2.662 -0.3204  0.1163  0.0789
 1623SOL     OW 6536   3.130   1.944   2.582 -0.5010  0.0402  0.2365
 1623SOL    HW2 6537   3.212   1.987   2.608  0.1413 -1.1106  0.1305
 1623SOL    HW3 6538   3.063   1.987   2.635  0.2264  0.6875  0.6470
 1623SOL    MW4 6539   3.132   1.956   2.592 -0.3202 -0.0261  0.2768
 1624SOL     OW 6540   3.366   2.049   2.678 -0.0543  0.3014  0.2630
 1624SOL    HW2 6541   3.372   2.065   2.772 -0.8803  0.2433  0.3321
 1624SOL    HW3 6542   3.352   2.135   2.639  0.4481  0.3445  0.1818
 1624SOL    MW4 6543   3.365   2.062   2.685 -0.0968  0.2995  0.2615
 1625SOL     OW 6544   3.313   2.301   2.585  0.3299  0.1396  0.2374
 1625SOL    HW2 6545   3.394   2.346   2.612  0.2620 -0.0382  0.7519
 1625SOL    HW3 6546   3.316   2.301   2.490  0.4929  0.9384  0.2427
 1625SOL    MW4 6547   3.324   2.307   2.576  0.3421  0.2217  0.3059
 1626SOL     OW 6548   3.165   2.467   2.743 -0.4363  0.1841 -0.0828
 1626SOL    HW2 6549   3.183   2.553   2.704 -0.2673  0.6606  1.0219
 1626SOL    HW3 6550   3.214   2.406   2.689 -0.3655  0.8134 -0.7437
 1626SOL    MW4 6551   3.174   2.471   2.731 -0.4046  0.3302 -0.0243
 1627SOL     OW 6552   3.170   2.747   2.650 -0.6204  0.6064 -0.3680
 1627SOL    HW2 6553   3.250   2.792   2.676  0.1135 -0.3480 -0.9439
 1627SOL    HW3 6554   3.099   2.802   2.683  0.2763  1.0113  0.8966
 1627SOL    MW4 6555   3.171   2.760   2.658 -0.4055  0.5341 -0.2770
 1628SOL     OW 6556   3.398   2.871   2.742  0.0995  0.3800  0.4045
 1628SOL    HW2 6557   3.399   2.836   2.831  0.7324 -0.1953  0.1781
 1628SOL    HW3 6558   3.471   2.827   2.698  0.2370  1.1920 -0.1968
 1628SOL    MW4 6559   3.407   2.860   2.748  0.2012  0.4113  0.2952
 1629SOL     OW 6560   3.370   3.130   2.647  0.4256 -0.3688 -0.2211
 1629SOL    HW2 6561   3.370   3.044   2.689  0.3579 -0.7544 -1.0018
 1629SOL    HW3 6562   3.327   3.116   2.563  0.3166  0.4528 -0.3073
 1629SOL    MW4 6563   3.365   3.117   2.642  0.4022 -0.3111 -0.3355
 1630SOL     OW 6564   3.151   3.279   2.758 -0.2029  0.3271 -0.0109
 1630SOL    HW2 6565   3.232   3.254   2.713 -0.2918  0.7629 -0.4205
 1630SOL    HW3 6566   3.086   3.218   2.724 -0.1873  0.4038 -0.1785
 1630SOL    MW4 6567   3.153   3.268   2.748 -0.2127  0.3946 -0.0870
 1631SOL     OW 6568   3.121   3.514   2.570  0.2773 -0.4024 -0.0900
 1631SOL    HW2 6569   3.090   3.448   2.633 -1.0597  0.4601  0.1841
 1631SOL    HW3 6570   3.041   3.560   2.543  0.9786 -0.0340 -1.5879
 1631SOL    MW4 6571   3.106   3.511   2.574  0.1934 -0.2401 -0.2513
 1632SOL     OW 6572   3.333   3.611   2.722  0.0366 -0.1751 -0.2895
 1632SOL    HW2 6573   3.313   3.609   2.816  1.7710 -0.9257  0.0825
 1632SOL    HW3 6574   3.257   3.570   2.680 -1.1507  0.9794  0.6958
 1632SOL    MW4 6575   3.320   3.606   2.729  0.1087 -0.1218 -0.1101
 1633SOL     OW 6576   3.382   3.868   2.627 -0.0603 -0.2596 -0.3389
 1633SOL    HW2 6577   3.367   3.775   2.648 -0.0635 -0.2835 -0.4460
 1633SOL    HW3 6578   3.401   3.868   2.533  0.8950 -0.2678 -0.1586
 1633SOL    MW4 6579   3.383   3.855   2.617  0.0653 -0.2637 -0.3290
 1634SOL     OW 6580   3.158   3.989   2.739  0.0118  0.0242  0.5497
 1634SOL    HW2 6581   3.163   4.084   2.726  1.3932 -0.0019  0.8208
 1634SOL    HW3 6582   3.239   3.955   2.701 -0.7676 -1.1154 -0.1039
 1634SOL    MW4 6583   3.169   3.997   2.733  0.0916 -0.1292  0.4992
 1635SOL     OW 6584   3.176   4.248   2.630 -0.1237  0.0516  0.0138
 1635SOL    HW2 6585   3.095   4.289   2.662  0.5732  1.3627  0.0856
 1635SOL    HW3 6586   3.168   4.250   2.535  0.4415  1.4165 -0.0059
 1635SOL    MW4 6587   3.164   4.253   2.622  0.0429  0.4048  0.0207
 1636SOL     OW 6588   3.375   4.399   2.731 -0.5138 -0.0235  0.3456
 1636SOL    HW2 6589   3.361   4.394   2.826 -2.9854  0.4032  0.0334
 1636SOL    HW3 6590   3.311   4.339   2.694  0.3512 -0.0814 -1.0832
 1636SOL    MW4 6591   3.365   4.391   2.739 -0.7257  0.0248  0.1159
 1637SOL     OW 6592   3.795   4.645   2.628 -0.1154 -0.3925 -0.4412
 1637SOL    HW2 6593   3.818   4.565   2.676  2.2906  0.1847 -0.5694
 1637SOL    HW3 6594   3.713   4.674   2.667 -0.1207 -1.9916  0.7677
 1637SOL    MW4 6595   3.787   4.638   2.639  0.2015 -0.5279 -0.2987
 1638SOL     OW 6596   3.577   0.079   2.749 -0.2902  0.0092  0.5926
 1638SOL    HW2 6597   3.577   0.170   2.721 -0.3804  0.3903  1.8080
 1638SOL    HW3 6598   3.498   0.042   2.708 -1.5458  1.0768  2.0003
 1638SOL    MW4 6599   3.567   0.086   2.740 -0.4678  0.2003  0.9387
 1639SOL     OW 6600   3.557   0.338   2.678  0.0019  1.0026 -0.4358
 1639SOL    HW2 6601   3.644   0.374   2.696  0.4322 -0.8187  1.2976
 1639SOL    HW3 6602   3.496   0.407   2.707  0.8423  1.4395  0.3354
 1639SOL    MW4 6603   3.560   0.352   2.684  0.1695  0.8200 -0.1054
 1640SOL     OW 6604   3.800   0.487   2.717  0.1583 -0.5139 -0.2227
 1640SOL    HW2 6605   3.812   0.495   2.811  2.3558  0.8364 -0.5884
 1640SOL    HW3 6606   3.879   0.444   2.686  0.1795  0.5195 -1.6514
 1640SOL    MW4 6607   3.812   0.483   2.725  0.4506 -0.1994 -0.4594
 1641SOL     OW 6608   3.777   0.761   2.654 -0.1368  0.4500 -0.1334
 1641SOL    HW2 6609   3.698   0.788   2.700  0.8539  1.5426  0.9789
 1641SOL    HW3 6610   3.786   0.667   2.674 -0.8567  0.4507  0.1815
 1641SOL    MW4 6611   3.768   0.752   2.663 -0.1011  0.5943  0.0548
 1642SOL     OW 6612   3.536   0.873   2.756 -0.0572 -0.0735 -0.0513
 1642SOL    HW2 6613   3.562   0.894   2.846  2.5020 -0.1086 -0.7285
 1642SOL    HW3 6614   3.529   0.958   2.713  1.8266 -0.1677 -0.5928
 1642SOL    MW4 6615   3.539   0.887   2.763  0.5288 -0.0907 -0.2122
 1643SOL     OW 6616   3.561   1.113   2.616 -0.0012  0.2769 -0.3467
 1643SOL    HW2 6617   3.638   1.155   2.653 -1.1659  0.5616  1.8647
 1643SOL    HW3 6618   3.490   1.176   2.630 -1.4765 -1.7814  1.6872
 1643SOL    MW4 6619   3.562   1.127   2.623 -0.3495  0.0429  0.2134
 1644SOL     OW 6620   3.767   1.271   2.733  0.0627 -0.2723 -0.0397
 1644SOL    HW2 6621   3.843   1.240   2.684  1.6013 -0.2453  2.2123
 1644SOL    HW3 6622   3.775   1.367   2.732 -0.1067 -0.2599 -0.0945
 1644SOL    MW4 6623   3.778   1.280   2.727  0.2434 -0.2670  0.2503
 1645SOL     OW 6624   3.804   1.523   2.635 -0.2901 -0.0589 -0.2399
 1645SOL    HW2 6625   3.877   1.557   2.686 -1.4766 -0.6526  1.9037
 1645SOL    HW3 6626   3.735   1.589   2.645 -0.9995 -0.8392  0.0922
 1645SOL    MW4 6627   3.805   1.536   2.643 -0.5400 -0.2402  0.0868
 1646SOL     OW 6628   3.598   1.676   2.698  0.1051  0.5790  0.0221
 1646SOL    HW2 6629   3.607   1.757   2.648 -0.5719 -0.1943 -1.3949
 1646SOL    HW3 6630   3.524   1.631   2.657  0.1612 -0.5335  1.1065
 1646SOL    MW4 6631   3.589   1.681   2.686  0.0234  0.3302 -0.0219
 1647SOL     OW 6632   3.580   1.939   2.570  0.0053 -0.3488 -0.2265
 1647SOL    HW2 6633   3.501   1.959   2.620  1.2835 -0.3430  1.8208
 1647SOL    HW3 6634   3.548   1.918   2.482 -2.0213  2.6830 -0.2737
 1647SOL    MW4 6635   3.565   1.939   2.565 -0.0937  0.0521  0.0374
 1648SOL     OW 6636   3.793   2.045   2.692 -0.4020  0.6729 -0.0871
 1648SOL    HW2 6637   3.865   2.005   2.644 -0.9837 -0.3607 -0.1077
 1648SOL    HW3 6638   3.715   2.002   2.659 -0.9411  1.0575  0.6730
 1648SOL    MW4 6639   3.792   2.034   2.682 -0.5498  0.5872  0.0100
 1649SOL     OW 6640   3.760   2.301   2.609 -0.4295  0.2861  0.0531
 1649SOL    HW2 6641   3.795   2.215   2.633  1.8777  1.1696 -0.0075
 1649SOL    HW3 6642   3.780   2.309   2.515 -0.2012  1.0571  0.1616
 1649SOL    MW4 6643   3.768   2.290   2.599 -0.0947  0.5045  0.0594
 1650SOL     OW 6644   3.517   2.424   2.688 -0.1395 -0.1037  0.1638
 1650SOL    HW2 6645   3.525   2.439   2.782  0.1961  0.2817  0.0748
 1650SOL    HW3 6646   3.603   2.389   2.662 -0.2187 -0.1719 -0.0064
 1650SOL    MW4 6647   3.530   2.421   2.697 -0.1059 -0.0620  0.1295
 1651SOL     OW 6648   3.576   2.713   2.603 -0.7239  0.1411  0.2231
 1651SOL    HW2 6649   3.567   2.626   2.641  2.4665  0.0043  0.7708
 1651SOL    HW3 6650   3.562   2.700   2.509  0.2977 -1.0747  0.2299
 1651SOL    MW4 6651   3.573   2.700   2.595 -0.1686 -0.0374  0.2961
 1652SOL     OW 6652   3.783   2.867   2.692 -0.0538  0.0554 -0.2131
 1652SOL    HW2 6653   3.865   2.819   2.692 -0.4048 -0.5534  0.5556
 1652SOL    HW3 6654   3.719   2.805   2.656 -0.4732 -0.0123  0.6276
 1652SOL    MW4 6655   3.785   2.852   2.687 -0.1557 -0.0341 -0.0007
 1653SOL     OW 6656   3.804   3.155   2.639  0.0084 -0.6797 -0.0299
 1653SOL    HW2 6657   3.736   3.201   2.686  0.2291 -0.2553 -0.1228
 1653SOL    HW3 6658   3.790   3.063   2.660  0.5307 -0.4455  1.4218
 1653SOL    MW4 6659   3.793   3.149   2.648  0.1063 -0.5927  0.1493
 1654SOL     OW 6660   3.575   3.279   2.760  0.6605 -0.0876 -0.1993
 1654SOL    HW2 6661   3.580   3.361   2.711 -0.2842 -0.1331 -0.3989
 1654SOL    HW3 6662   3.508   3.228   2.714 -1.2845  0.4356  1.9291
 1654SOL    MW4 6663   3.567   3.283   2.748  0.2792 -0.0243  0.0553
 1655SOL     OW 6664   3.605   3.526   2.627  0.3779  0.4902 -0.1962
 1655SOL    HW2 6665   3.671   3.549   2.692 -0.5013  0.7590  0.6104
 1655SOL    HW3 6666   3.523   3.560   2.663 -0.1767  0.3012 -1.2625
 1655SOL    MW4 6667   3.603   3.534   2.640  0.1886  0.5007 -0.2306
 1656SOL     OW 6668   3.823   3.618   2.784  0.8170  0.2603  0.0646
 1656SOL    HW2 6669   3.895   3.577   2.735  0.3357  0.2869 -0.6697
 1656SOL    HW3 6670   3.844   3.711   2.782  0.4337  0.3315 -0.6903
 1656SOL    MW4 6671   3.836   3.625   2.777  0.7031  0.2735 -0.1316
 1657SOL     OW 6672   3.845   3.900   2.707  0.0315  0.1849 -0.1297
 1657SOL    HW2 6673   3.907   3.967   2.734 -1.1023  1.6799 -1.1738
 1657SOL    HW3 6674   3.766   3.918   2.759 -0.1941 -0.4823 -0.2370
 1657SOL    MW4 6675   3.843   3.911   2.717 -0.1481  0.2942 -0.2818
 1658SOL     OW 6676   3.592   3.969   2.768 -0.2098  0.0249 -0.0449
 1658SOL    HW2 6677   3.586   4.061   2.744 -2.9075  0.2737  1.3742
 1658SOL    HW3 6678   3.530   3.925   2.709  0.1754 -0.7081  0.0928
 1658SOL    MW4 6679   3.583   3.975   2.757 -0.5150 -0.0389  0.1602
 1659SOL     OW 6680   3.595   4.229   2.675 -0.1221  0.1710  0.0623
 1659SOL    HW2 6681   3.520   4.283   2.700 -0.3113  0.9068 -2.0567
 1659SOL    HW3 6682   3.584   4.215   2.581 -0.0928 -3.5879  0.5634
 1659SOL    MW4 6683   3.584   4.234   2.666 -0.1431 -0.2275 -0.1512
 1660SOL     OW 6684   3.837   4.391   2.739  0.0375 -0.1817  0.4564
 1660SOL    HW2 6685   3.911   4.359   2.688  0.3916 -0.4158  1.1049
 1660SOL    HW3 6686   3.763   4.338   2.710  0.3165 -0.5779  0.4618
 1660SOL    MW4 6687   3.837   4.380   2.729  0.1209 -0.2651  0.5426
 1661SOL     OW 6688   4.263   0.033   2.607 -0.0039  0.3252 -0.3465
 1661SOL    HW2 6689   4.176   0.063   2.635 -0.3885 -0.9364 -0.1690
 1661SOL    HW3 6690   4.324   0.095   2.647 -0.6043 -0.8850  2.5396
 1661SOL    MW4 6691   4.260   0.045   2.616 -0.1335 -0.0009  0.0577
 1662SOL     OW 6692   4.024   0.120   2.713  0.5156 -0.3092  0.1167
 1662SOL    HW2 6693   4.015   0.098   2.806  1.3238 -1.0164  0.0413
 1662SOL    HW3 6694   3.946   0.083   2.671  0.2028 -0.0796  0.5027
 1662SOL    MW4 6695   4.013   0.112   2.720  0.5817 -0.3723  0.1574
 1663SOL     OW 6696   4.039   0.369   2.646  0.0672  0.2401  0.1680
 1663SOL    HW2 6697   4.052   0.279   2.676  0.2903  0.2779  0.1787
 1663SOL    HW3 6698   4.058   0.367   2.553  0.1935  0.3036  0.1925
 1663SOL    MW4 6699   4.043   0.357   2.638  0.1135  0.2535  0.1729
 1664SOL     OW 6700   4.249   0.505   2.760  0.0316  0.5417 -0.0386
 1664SOL    HW2 6701   4.183   0.447   2.722 -0.2240  1.3671 -0.8672
 1664SOL    HW3 6702   4.330   0.483   2.714  0.0423  0.4781  0.0112
 1664SOL    MW4 6703   4.251   0.494   2.749 -0.0010  0.6422 -0.1411
 1665SOL     OW 6704   4.267   0.760   2.666  0.0616 -0.7475  0.3711
 1665SOL    HW2 6705   4.253   0.668   2.687 -1.4903 -0.7205 -0.4399
 1665SOL    HW3 6706   4.249   0.766   2.572 -1.3499  0.6559  0.7097
 1665SOL    MW4 6707   4.263   0.749   2.656 -0.3290 -0.5588  0.3088
 1666SOL     OW 6708   4.024   0.884   2.733 -0.3185  0.4770 -0.4809
 1666SOL    HW2 6709   4.092   0.825   2.702 -0.4089 -0.0504  0.3085
 1666SOL    HW3 6710   3.942   0.838   2.716 -0.3201 -0.3666  1.6253
 1666SOL    MW4 6711   4.022   0.870   2.727 -0.3304  0.2961 -0.0987
 1667SOL     OW 6712   4.009   1.160   2.655  0.4954 -0.2199 -0.2747
 1667SOL    HW2 6713   4.084   1.211   2.687  0.1096 -0.5625  1.2124
 1667SOL    HW3 6714   4.026   1.070   2.684 -0.7205 -0.2133  0.5063
 1667SOL    MW4 6715   4.021   1.155   2.663  0.2837 -0.2640  0.0243
 1668SOL     OW 6716   4.245   1.287   2.715 -0.2060 -0.2378  0.0687
 1668SOL    HW2 6717   4.242   1.375   2.676 -0.5843  0.3107  1.3210
 1668SOL    HW3 6718   4.315   1.242   2.666 -2.1371 -0.3131 -2.7708
 1668SOL    MW4 6719   4.254   1.293   2.703 -0.5112 -0.1755 -0.1404
 1669SOL     OW 6720   4.262   1.564   2.625  0.2372 -0.0343  0.0158
 1669SOL    HW2 6721   4.351   1.580   2.656  0.7873 -0.3453 -1.3454
 1669SOL    HW3 6722   4.273   1.542   2.532 -1.3173  0.6548 -0.3524
 1669SOL    MW4 6723   4.276   1.563   2.617  0.1044  0.0157 -0.2122
 1670SOL     OW 6724   4.028   1.671   2.725  0.2467  0.1768 -0.2278
 1670SOL    HW2 6725   4.048   1.690   2.817 -1.1647 -1.5839  0.4572
 1670SOL    HW3 6726   4.103   1.621   2.694  0.9106  1.1169 -0.1557
 1670SOL    MW4 6727   4.040   1.667   2.733  0.1478  0.0685 -0.1278
 1671SOL     OW 6728   4.015   1.920   2.582 -0.6339  0.2987  0.0287
 1671SOL    HW2 6729   4.086   1.958   2.634 -0.9900  0.9735  0.0337
 1671SOL    HW3 6730   4.000   1.834   2.620  2.2230 -1.1256 -1.8471
 1671SOL    MW4 6731   4.022   1.914   2.594 -0.3042  0.1998 -0.2179
 1672SOL     OW 6732   4.240   2.014   2.718 -0.1016 -0.5590 -0.2283
 1672SOL    HW2 6733   4.248   2.109   2.708  0.2432 -0.3889  1.5878
 1672SOL    HW3 6734   4.327   1.980   2.697 -0.4499 -0.5614 -1.7223
 1672SOL    MW4 6735   4.252   2.022   2.714 -0.1020 -0.5372 -0.1860
 1673SOL     OW 6736   4.228   2.294   2.627  0.5148  0.1410 -0.0567
 1673SOL    HW2 6737   4.140   2.328   2.640  0.7751  1.1185 -0.8138
 1673SOL    HW3 6738   4.246   2.308   2.534  0.9013 -1.4160 -0.2396
 1673SOL    MW4 6739   4.219   2.300   2.616  0.5999  0.0646 -0.1810
 1674SOL     OW 6740   4.002   2.459   2.684 -0.2367  0.1620  0.0720
 1674SOL    HW2 6741   4.020   2.463   2.778 -1.3019  0.0818  0.2898
 1674SOL    HW3 6742   3.911   2.429   2.678 -0.3879  0.7857 -0.9750
 1674SOL    MW4 6743   3.993   2.455   2.695 -0.3972  0.2337 -0.0374
 1675SOL     OW 6744   4.026   2.732   2.660 -0.0132 -0.2923  0.5910
 1675SOL    HW2 6745   4.115   2.762   2.677 -0.2114 -0.1851  1.4475
 1675SOL    HW3 6746   4.030   2.637   2.670  0.1957 -0.3829 -0.2662
 1675SOL    MW4 6747   4.038   2.723   2.663 -0.0119 -0.2899  0.5908
 1676SOL     OW 6748   4.266   2.839   2.741 -0.0313 -0.4441 -0.1520
 1676SOL    HW2 6749   4.256   2.856   2.834  0.9357  1.9147 -0.4322
 1676SOL    HW3 6750   4.264   2.926   2.700 -1.8693 -1.4987 -2.4945
 1676SOL    MW4 6751   4.264   2.853   2.748 -0.1464 -0.2718 -0.4981
 1677SOL     OW 6752   4.270   3.108   2.623 -0.2056 -0.3715  0.5166
 1677SOL    HW2 6753   4.188   3.145   2.654 -0.3227 -0.0848 -0.1243
 1677SOL    HW3 6754   4.263   3.111   2.528  0.3341 -0.8237  0.4586
 1677SOL    MW4 6755   4.258   3.113   2.615 -0.1507 -0.3932  0.4241
 1678SOL     OW 6756   4.037   3.225   2.754  0.5840  0.0346 -0.4615
 1678SOL    HW2 6757   4.053   3.313   2.718  1.4110 -0.1963 -0.6577
 1678SOL    HW3 6758   3.951   3.201   2.720  0.7872  0.3615 -1.2304
 1678SOL    MW4 6759   4.028   3.234   2.744  0.7200  0.0474 -0.5887
 1679SOL     OW 6760   4.042   3.486   2.655 -0.3447  0.1724 -0.0572
 1679SOL    HW2 6761   4.123   3.537   2.667  0.7448 -1.6491  0.5170
 1679SOL    HW3 6762   4.020   3.498   2.563  0.5501  0.7496 -0.2018
 1679SOL    MW4 6763   4.050   3.494   2.644 -0.0830  0.0083 -0.0007
 1680SOL     OW 6764   4.263   3.649   2.702  0.0109  0.2507 -0.2813
 1680SOL    HW2 6765   4.254   3.636   2.797 -1.7915 -1.7907 -0.7080
 1680SOL    HW3 6766   4.342   3.600   2.680 -0.0422  0.0259  0.0180
 1680SOL    MW4 6767   4.273   3.641   2.712 -0.2337 -0.0479 -0.2980
 1681SOL     OW 6768   4.275   3.935   2.628 -0.1584 -0.1409 -0.1296
 1681SOL    HW2 6769   4.260   3.847   2.662 -0.9660 -0.0911 -0.3504
 1681SOL    HW3 6770   4.351   3.967   2.677  0.3538 -1.0893 -0.2982
 1681SOL    MW4 6771   4.283   3.928   2.639 -0.1969 -0.2594 -0.1812
 1682SOL     OW 6772   4.078   4.060   2.743 -0.0486 -0.2950 -0.3734
 1682SOL    HW2 6773   4.091   4.041   2.836  1.0347  0.6713 -0.3147
 1682SOL    HW3 6774   4.150   4.014   2.699  0.4520  0.6621 -0.5661
 1682SOL    MW4 6775   4.089   4.051   2.749  0.1607 -0.0410 -0.3912
 1683SOL     OW 6776   4.060   4.305   2.604 -0.8221 -0.4440 -0.4630
 1683SOL    HW2 6777   4.049   4.219   2.645 -0.5787  0.0570  0.6682
 1683SOL    HW3 6778   4.074   4.286   2.511  0.9011 -1.7276  0.0323
 1683SOL    MW4 6779   4.060   4.291   2.597 -0.5627 -0.5474 -0.2484
 1684SOL     OW 6780   4.275   4.416   2.715 -0.5728 -0.0308 -0.5283
 1684SOL    HW2 6781   4.197   4.376   2.676  0.5660 -1.0824 -1.7432
 1684SOL    HW3 6782   4.284   4.500   2.670 -0.8757  0.0032 -0.5271
 1684SOL    MW4 6783   4.266   4.422   2.704 -0.4621 -0.1645 -0.6881
 1685SOL     OW 6784   0.223   4.611   3.152  0.1831 -0.1622 -0.7342
 1685SOL    HW2 6785   0.188   4.617   3.241 -0.7887 -1.9022 -0.9903
 1685SOL    HW3 6786   0.167   4.667   3.100 -1.3164 -1.7359 -0.8545
 1685SOL    MW4 6787   0.211   4.619   3.157 -0.1429 -0.5999 -0.7839
 1686SOL     OW 6788   0.035   0.076   2.985 -0.2405  0.9502 -0.0291
 1686SOL    HW2 6789  -0.051   0.036   2.997  0.0283  0.3194 -0.1995
 1686SOL    HW3 6790   0.025   0.164   3.021 -0.7651  0.6522  0.5685
 1686SOL    MW4 6791   0.022   0.082   2.991 -0.2743  0.8277  0.0274
 1687SOL     OW 6792   4.490   0.314   3.114  0.0007  0.1896 -0.1076
 1687SOL    HW2 6793   4.498   0.339   3.206  0.8847  0.7037 -0.3182
 1687SOL    HW3 6794   4.406   0.351   3.087 -0.0142  0.5015  0.3520
 1687SOL    MW4 6795   4.480   0.322   3.123  0.1159  0.2986 -0.0749
 1688SOL     OW 6796   0.197   0.455   3.016  0.6922 -0.0276  0.3735
 1688SOL    HW2 6797   0.283   0.413   3.024  0.1864 -0.4793  3.7337
 1688SOL    HW3 6798   0.136   0.395   3.058 -0.7612  1.8774  1.0550
 1688SOL    MW4 6799   0.200   0.442   3.022  0.4337  0.1642  0.9067
 1689SOL     OW 6800   0.206   0.727   3.114  0.4014  0.3756 -0.1625
 1689SOL    HW2 6801   0.203   0.721   3.210 -0.1855  0.3478 -0.1810
 1689SOL    HW3 6802   0.181   0.640   3.084  1.0561  0.2458 -0.3397
 1689SOL    MW4 6803   0.202   0.715   3.123  0.4104  0.3548 -0.1884
 1690SOL     OW 6804   4.483   0.891   3.048 -0.1885  0.0666 -0.2952
 1690SOL    HW2 6805   4.566   0.846   3.064 -0.7474 -1.0461 -0.4503
 1690SOL    HW3 6806   4.481   0.904   2.953 -0.3308 -0.1837 -0.3264
 1690SOL    MW4 6807   4.494   0.887   3.037 -0.2809 -0.1132 -0.3200
 1691SOL     OW 6808   4.460   1.138   3.150  0.2826 -0.0844  0.1692
 1691SOL    HW2 6809   4.393   1.179   3.096  0.0607 -0.0395  0.4799
 1691SOL    HW3 6810   4.482   1.057   3.104 -0.9747 -0.7868  0.7766
 1691SOL    MW4 6811   4.454   1.133   3.137  0.0873 -0.1711  0.2906
 1692SOL     OW 6812   0.208   1.235   3.036  0.5795  0.4311 -0.0909
 1692SOL    HW2 6813   0.120   1.202   3.058  1.3854 -1.2414  0.7663
 1692SOL    HW3 6814   0.216   1.218   2.942  0.6218 -1.0105  0.1583
 1692SOL    MW4 6815   0.197   1.228   3.027  0.6914  0.0203  0.0548
 1693SOL     OW 6816   0.247   1.495   3.104  0.1924  0.0061  0.5695
 1693SOL    HW2 6817   0.165   1.535   3.074  0.1931 -1.8355 -2.0221
 1693SOL    HW3 6818   0.236   1.402   3.088  2.4693 -0.3737  1.0226
 1693SOL    MW4 6819   0.235   1.488   3.098  0.4929 -0.2871  0.2873
 1694SOL     OW 6820   0.018   1.616   3.018  0.1968 -0.3474 -0.0095
 1694SOL    HW2 6821  -0.061   1.583   3.061  0.7357  0.1835  1.4118
 1694SOL    HW3 6822   0.021   1.709   3.040  0.1228  0.0917 -1.7827
 1694SOL    MW4 6823   0.008   1.624   3.027  0.2584 -0.2195 -0.0560
 1695SOL     OW 6824   4.486   1.891   3.076 -0.0508  0.6933 -0.4924
 1695SOL    HW2 6825   4.400   1.930   3.061 -0.2018  0.2597 -0.7737
 1695SOL    HW3 6826   4.546   1.946   3.025 -0.3970 -0.0333 -1.7183
 1695SOL    MW4 6827   4.482   1.903   3.067 -0.1163  0.5403 -0.6912
 1696SOL     OW 6828   0.186   2.041   2.965 -0.1825 -0.9188 -0.1777
 1696SOL    HW2 6829   0.192   2.133   2.990  0.5605 -0.8332 -0.6489
 1696SOL    HW3 6830   0.186   2.042   2.869 -1.4412 -1.3347 -0.1899
 1696SOL    MW4 6831   0.187   2.053   2.955 -0.2506 -0.9623 -0.2415
 1697SOL     OW 6832   0.242   2.294   3.095 -0.3240 -0.0060 -0.1779
 1697SOL    HW2 6833   0.254   2.308   3.189 -0.2292 -1.4570  0.0382
 1697SOL    HW3 6834   0.322   2.328   3.055 -1.1543  2.3208  0.0830
 1697SOL    MW4 6835   0.254   2.300   3.102 -0.4210  0.1097 -0.1149
 1698SOL     OW 6836   0.014   2.428   2.979  0.1965 -0.5793  0.3743
 1698SOL    HW2 6837   0.012   2.516   3.016 -1.4274 -0.1683 -0.6401
 1698SOL    HW3 6838   0.091   2.387   3.018  0.6677  1.1125  1.2541
 1698SOL    MW4 6839   0.024   2.434   2.989  0.0444 -0.3018  0.3562
 1699SOL     OW 6840   4.479   2.687   3.122  0.0644 -0.0970  0.3748
 1699SOL    HW2 6841   4.492   2.700   3.216  0.3539  0.0856  0.3080
 1699SOL    HW3 6842   4.560   2.716   3.082  0.2206 -0.8736  0.1234
 1699SOL    MW4 6843   4.491   2.692   3.129  0.1235 -0.1750  0.3328
 1700SOL     OW 6844   0.213   2.831   3.024  0.1331  0.3289  0.1028
 1700SOL    HW2 6845   0.291   2.778   3.043  0.6162  0.9163 -0.2017
 1700SOL    HW3 6846   0.217   2.846   2.929 -0.6791 -0.1465 -0.0071
 1700SOL    MW4 6847   0.224   2.826   3.014  0.0897  0.3436  0.0482
 1701SOL     OW 6848   0.212   3.102   3.109 -0.0237  0.6648  0.2912
 1701SOL    HW2 6849   0.133   3.140   3.070 -0.7291  0.9264  1.9382
 1701SOL    HW3 6850   0.214   3.012   3.076  1.3314  1.8697 -3.1545
 1701SOL    MW4 6851   0.202   3.095   3.099  0.0620  0.8585  0.0539
 1702SOL     OW 6852   4.490   3.237   2.991 -0.4812  0.0597  0.3490
 1702SOL    HW2 6853   4.411   3.205   3.033 -1.1292  1.7240  0.4477
 1702SOL    HW3 6854   4.487   3.202   2.902 -1.0048 -0.3831  0.5415
 1702SOL    MW4 6855   4.479   3.228   2.984 -0.6357  0.2210  0.3870
 1703SOL     OW 6856   4.460   3.484   3.095  0.2397 -0.2022 -0.1544
 1703SOL    HW2 6857   4.378   3.505   3.050 -0.1587 -0.6322  0.3628
 1703SOL    HW3 6858   4.488   3.401   3.057 -0.5942 -1.0501  1.0454
 1703SOL    MW4 6859   4.453   3.476   3.084  0.0772 -0.3705  0.0720
 1704SOL     OW 6860   0.199   3.618   3.032  0.2458  0.0752  0.0785
 1704SOL    HW2 6861   0.190   3.702   3.076  0.4425 -0.8945  1.9944
 1704SOL    HW3 6862   0.113   3.576   3.040  0.2721 -0.0974 -0.4838
 1704SOL    MW4 6863   0.186   3.623   3.039  0.2752 -0.0756  0.2570
 1705SOL     OW 6864   0.287   3.897   3.152  0.7590  0.3543 -0.1976
 1705SOL    HW2 6865   0.250   3.893   3.240 -1.8062 -0.2807 -1.2568
 1705SOL    HW3 6866   0.344   3.974   3.153  0.0427  0.8803  1.7492
 1705SOL    MW4 6867   0.290   3.907   3.163  0.3260  0.3400 -0.0803
 1706SOL     OW 6868   0.029   4.018   3.053 -0.3698 -0.0355  0.3720
 1706SOL    HW2 6869   0.118   3.995   3.079 -0.1923 -0.7033 -0.8066
 1706SOL    HW3 6870   0.033   4.023   2.958 -1.5810  0.0021  0.3226
 1706SOL    MW4 6871   0.041   4.016   3.044 -0.5062 -0.1187  0.2100
 1707SOL     OW 6872   4.478   4.304   3.146 -0.2096  0.2605  0.2991
 1707SOL    HW2 6873   4.501   4.322   3.237 -0.8951  1.8729  0.1594
 1707SOL    HW3 6874   4.461   4.209   3.144 -0.7445  0.3121  1.9690
 1707SOL    MW4 6875   4.479   4.294   3.157 -0.3710  0.4797  0.5007
 1708SOL     OW 6876   0.237   4.360   3.051 -0.1650 -0.3331 -0.1966
 1708SOL    HW2 6877   0.154   4.331   3.089  0.4829  0.2669  1.7293
 1708SOL    HW3 6878   0.242   4.453   3.073  0.8801 -0.2991 -0.5742
 1708SOL    MW4 6879   0.226   4.368   3.059  0.0583 -0.2494  0.0076
 1709SOL     OW 6880   0.700   4.617   3.099 -0.3584  0.2751 -0.5041
 1709SOL    HW2 6881   0.699   4.526   3.070 -0.3110  0.4978 -1.2093
 1709SOL    HW3 6882   0.617   4.653   3.069 -1.4430 -0.1613  1.8363
 1709SOL    MW4 6883   0.689   4.610   3.092 -0.4952  0.2475 -0.2882
 1710SOL     OW 6884   0.453   0.051   3.025 -0.0827 -0.1636  0.2678
 1710SOL    HW2 6885   0.432   0.144   3.030 -0.7047 -0.2364 -0.7964
 1710SOL    HW3 6886   0.383   0.007   3.073  0.4239 -0.0586  1.1074
 1710SOL    MW4 6887   0.441   0.057   3.032 -0.0980 -0.1593  0.2384
 1711SOL     OW 6888   0.455   0.343   3.084 -0.2786 -0.4988  0.4011
 1711SOL    HW2 6889   0.434   0.355   3.177  1.9996 -0.7023  0.9754
 1711SOL    HW3 6890   0.530   0.401   3.070 -0.4132 -0.7156 -1.2400
 1711SOL    MW4 6891   0.463   0.353   3.095  0.0042 -0.5543  0.2604
 1712SOL     OW 6892   0.662   0.508   3.043 -0.1846  0.2334  0.4727
 1712SOL    HW2 6893   0.733   0.463   3.089  1.4527  1.1597 -1.0980
 1712SOL    HW3 6894   0.646   0.587   3.095  0.1954  0.2189  0.6142
 1712SOL    MW4 6895   0.670   0.513   3.056  0.0817  0.3537  0.2840
 1713SOL     OW 6896   0.680   0.761   3.135 -0.0518 -0.1351 -0.4166
 1713SOL    HW2 6897   0.677   0.768   3.230  0.1184 -0.5311 -0.3816
 1713SOL    HW3 6898   0.594   0.790   3.106 -0.1659 -0.1846 -0.1286
 1713SOL    MW4 6899   0.669   0.766   3.144 -0.0443 -0.1939 -0.3741
 1714SOL     OW 6900   0.441   0.862   3.063  0.2863  0.1176 -0.1357
 1714SOL    HW2 6901   0.358   0.816   3.074 -0.1304  0.8999  0.0439
 1714SOL    HW3 6902   0.445   0.883   2.970  0.4991 -0.3108 -0.2261
 1714SOL    MW4 6903   0.431   0.858   3.052  0.2594  0.1643 -0.1240
 1715SOL     OW 6904   0.463   1.124   3.143  0.1513 -0.6600  0.1776
 1715SOL    HW2 6905   0.466   1.031   3.122  1.5346 -0.1784 -1.9074
 1715SOL    HW3 6906   0.384   1.157   3.100 -1.1546 -1.1488  2.1764
 1715SOL    MW4 6907   0.453   1.116   3.135  0.1615 -0.6610  0.1662
 1716SOL     OW 6908   0.714   1.241   3.066  0.4380  0.2525  0.1611
 1716SOL    HW2 6909   0.791   1.190   3.091  0.6155  1.0454  1.2526
 1716SOL    HW3 6910   0.640   1.193   3.102  0.5883  0.6054  0.9656
 1716SOL    MW4 6911   0.714   1.228   3.074  0.4812  0.4035  0.4110
 1717SOL     OW 6912   0.638   1.507   3.084 -0.1331 -0.9072  0.2189
 1717SOL    HW2 6913   0.651   1.514   3.178 -0.2563 -1.1859  0.2563
 1717SOL    HW3 6914   0.650   1.414   3.065  0.6057 -0.7454 -0.1435
 1717SOL    MW4 6915   0.641   1.496   3.094 -0.0520 -0.9227  0.1760
 1718SOL     OW 6916   0.425   1.642   2.973 -0.1427 -0.0992 -0.3493
 1718SOL    HW2 6917   0.515   1.624   3.000 -0.2996  0.7428  0.7413
 1718SOL    HW3 6918   0.371   1.586   3.029 -0.4883  1.9120  1.3811
 1718SOL    MW4 6919   0.430   1.632   2.984 -0.2090  0.2773  0.0226
 1719SOL     OW 6920   0.366   1.886   3.101  0.1190 -0.3140  0.0672
 1719SOL    HW2 6921   0.391   1.813   3.044 -1.1500  0.2507 -1.2387
 1719SOL    HW3 6922   0.292   1.927   3.057  0.3311  1.3114  1.1682
 1719SOL    MW4 6923   0.360   1.882   3.088 -0.0204 -0.0250  0.0401
 1720SOL     OW 6924   0.581   2.047   2.999 -0.1876 -0.2707 -0.6460
 1720SOL    HW2 6925   0.651   1.997   3.041  1.1349  0.7545 -1.5765
 1720SOL    HW3 6926   0.501   2.004   3.027  0.8106 -1.4786  0.4418
 1720SOL    MW4 6927   0.580   2.035   3.008  0.1186 -0.2949 -0.6251
 1721SOL     OW 6928   0.644   2.305   3.061  0.6174 -0.0719  0.0576
 1721SOL    HW2 6929   0.645   2.312   3.156 -0.1241  1.1559 -0.0222
 1721SOL    HW3 6930   0.636   2.211   3.044  0.7112 -0.2914  1.2031
 1721SOL    MW4 6931   0.643   2.293   3.071  0.5319  0.0615  0.1984
 1722SOL     OW 6932   0.428   2.456   2.949 -0.1208 -0.4628  0.1653
 1722SOL    HW2 6933   0.518   2.430   2.970  0.8285  0.5032 -2.4591
 1722SOL    HW3 6934   0.421   2.443   2.854 -2.4511  0.3874  0.1890
 1722SOL    MW4 6935   0.439   2.451   2.939 -0.3030 -0.2234 -0.1779
 1723SOL     OW 6936   0.435   2.694   3.089 -0.5980  0.5416 -0.4135
 1723SOL    HW2 6937   0.521   2.725   3.060 -1.1284  1.8863 -0.5812
 1723SOL    HW3 6938   0.425   2.609   3.046 -0.1908  1.2637 -1.9974
 1723SOL    MW4 6939   0.445   2.687   3.079 -0.6142  0.8142 -0.6447
 1724SOL     OW 6940   0.680   2.807   2.984  0.0010 -0.1495 -0.0333
 1724SOL    HW2 6941   0.764   2.771   3.012  1.2666  1.5345 -1.5450
 1724SOL    HW3 6942   0.688   2.901   2.999 -2.7592 -0.2589  2.6245
 1724SOL    MW4 6943   0.693   2.815   2.989 -0.1963  0.0582  0.1175
 1725SOL     OW 6944   0.679   3.089   3.062 -0.3810  0.8220 -0.1741
 1725SOL    HW2 6945   0.685   3.074   3.156  1.2905 -1.4374 -0.6046
 1725SOL    HW3 6946   0.591   3.124   3.049 -1.6573 -1.4518  1.9139
 1725SOL    MW4 6947   0.668   3.092   3.073 -0.3289  0.2241  0.0446
 1726SOL     OW 6948   0.447   3.228   2.995 -0.3084  0.1521  0.0006
 1726SOL    HW2 6949   0.453   3.317   3.032  0.2465 -0.3477  1.1475
 1726SOL    HW3 6950   0.362   3.195   3.027 -0.6265  0.3561 -0.6289
 1726SOL    MW4 6951   0.436   3.236   3.004 -0.2772  0.1130  0.0687
 1727SOL     OW 6952   0.446   3.491   3.102  0.1345 -0.2725  0.2380
 1727SOL    HW2 6953   0.456   3.498   3.197  1.0786  2.2221 -0.0068
 1727SOL    HW3 6954   0.363   3.536   3.084 -0.5753 -1.6659 -0.0327
 1727SOL    MW4 6955   0.436   3.498   3.112  0.1655 -0.1271  0.1700
 1728SOL     OW 6956   0.685   3.610   3.026  0.2369  0.0612 -0.0961
 1728SOL    HW2 6957   0.754   3.560   3.070 -0.3180 -1.9054 -1.3885
 1728SOL    HW3 6958   0.605   3.588   3.074  0.2276  0.9746  0.3176
 1728SOL    MW4 6959   0.684   3.601   3.039  0.1624 -0.0777 -0.2120
 1729SOL     OW 6960   0.670   3.887   3.120 -0.1231  0.4844 -0.5516
 1729SOL    HW2 6961   0.645   3.899   3.212  1.1662  0.0803 -0.1459
 1729SOL    HW3 6962   0.669   3.792   3.107 -0.2921  0.5399 -0.9647
 1729SOL    MW4 6963   0.666   3.876   3.131  0.0247  0.4385 -0.5524
 1730SOL     OW 6964   0.562   4.120   3.007  0.3412 -0.0458  0.0884
 1730SOL    HW2 6965   0.601   4.042   3.047 -0.1787  0.1369  0.9843
 1730SOL    HW3 6966   0.503   4.086   2.940  1.6878 -0.3399 -0.9714
 1730SOL    MW4 6967   0.559   4.105   3.004  0.4503 -0.0606  0.0670
 1731SOL     OW 6968   0.358   4.169   3.191 -0.0764  0.6095  0.0379
 1731SOL    HW2 6969   0.432   4.160   3.132 -1.4171 -1.1570 -1.4666
 1731SOL    HW3 6970   0.308   4.243   3.157 -2.1835 -1.8967 -2.7250
 1731SOL    MW4 6971   0.361   4.177   3.179 -0.5313  0.0463 -0.5252
 1732SOL     OW 6972   0.695   4.360   3.004  0.2965  0.1601  0.0744
 1732SOL    HW2 6973   0.645   4.279   3.003 -0.6649  0.7034  1.4734
 1732SOL    HW3 6974   0.683   4.397   2.917 -0.7260 -0.3472 -0.0120
 1732SOL    MW4 6975   0.687   4.354   2.992  0.0347  0.1650  0.2475
 1733SOL     OW 6976   1.178   4.635   3.139  0.3907 -0.7017 -0.0865
 1733SOL    HW2 6977   1.247   4.675   3.087  0.0615 -0.8789 -0.6658
 1733SOL    HW3 6978   1.098   4.680   3.111  0.0939 -1.3970 -0.3544
 1733SOL    MW4 6979   1.176   4.646   3.129  0.3080 -0.8173 -0.1981
 1734SOL     OW 6980   0.939   0.103   3.072 -0.0377  0.2026 -0.2737
 1734SOL    HW2 6981   0.917   0.193   3.099 -1.5560 -0.1095 -0.4290
 1734SOL    HW3 6982   0.858   0.053   3.087  1.0565 -1.3287  0.6134
 1734SOL    MW4 6983   0.925   0.109   3.078 -0.0936 -0.0406 -0.1771
 1735SOL     OW 6984   1.134   0.457   3.023 -0.0772 -0.9608 -0.6961
 1735SOL    HW2 6985   1.215   0.421   3.060  1.0786  0.5096 -1.7667
 1735SOL    HW3 6986   1.154   0.470   2.930 -1.7985 -1.2735 -1.1293
 1735SOL    MW4 6987   1.147   0.454   3.015 -0.1519 -0.8081 -0.8948
 1736SOL     OW 6988   1.374   0.356   3.094  0.1269  0.1986 -0.1011
 1736SOL    HW2 6989   1.375   0.371   3.189  0.1522 -0.6526  0.0459
 1736SOL    HW3 6990   1.455   0.397   3.063  0.1736  0.3930  0.2659
 1736SOL    MW4 6991   1.385   0.363   3.103  0.1363  0.1120 -0.0334
 1737SOL     OW 6992   1.152   0.711   3.128  0.6882  0.0956 -0.6227
 1737SOL    HW2 6993   1.151   0.703   3.223 -0.2622  0.7039 -0.5768
 1737SOL    HW3 6994   1.130   0.624   3.096  0.5796 -0.0048 -0.2757
 1737SOL    MW4 6995   1.149   0.699   3.136  0.5485  0.1625 -0.5710
 1738SOL     OW 6996   0.933   0.807   3.017  0.0228  0.0386 -0.2352
 1738SOL    HW2 6997   1.002   0.769   3.071  0.4567  2.5817  1.0750
 1738SOL    HW3 6998   0.852   0.786   3.063  0.2103  0.1860  0.1613
 1738SOL    MW4 6999   0.931   0.800   3.030  0.1048  0.3936 -0.0100
 1739SOL     OW 7000   0.921   1.074   3.113  0.0473 -0.3088 -0.2101
 1739SOL    HW2 7001   0.972   1.123   3.049 -0.5294 -0.2766 -0.6532
 1739SOL    HW3 7002   0.899   0.992   3.069 -0.9194 -0.0086 -0.3020
 1739SOL    MW4 7003   0.925   1.069   3.099 -0.1564 -0.2650 -0.2806
 1740SOL     OW 7004   1.101   1.244   2.985  0.3361  0.3437  0.1901
 1740SOL    HW2 7005   1.174   1.201   3.029  0.4946  1.0433  0.6157
 1740SOL    HW3 7006   1.125   1.245   2.893  0.7552  0.3680  0.3012
 1740SOL    MW4 7007   1.114   1.238   2.979  0.4122  0.4393  0.2608
 1741SOL     OW 7008   1.092   1.517   3.118  0.1175 -0.6344 -0.2224
 1741SOL    HW2 7009   1.173   1.562   3.095  0.0119  0.3681  1.2893
 1741SOL    HW3 7010   1.100   1.431   3.078  1.8958 -0.5192 -0.1471
 1741SOL    MW4 7011   1.104   1.512   3.110  0.3381 -0.4872 -0.0129
 1742SOL     OW 7012   0.887   1.658   2.987  0.2676 -0.1495 -0.7230
 1742SOL    HW2 7013   0.950   1.612   3.042  0.1268  2.1705  1.4670
 1742SOL    HW3 7014   0.804   1.614   3.003  0.8974 -1.8646 -2.0070
 1742SOL    MW4 7015   0.884   1.646   2.996  0.3322 -0.0699 -0.6034
 1743SOL     OW 7016   0.843   1.920   3.059 -0.3514 -0.0292 -0.5792
 1743SOL    HW2 7017   0.862   1.931   3.153 -1.3197 -0.0683 -0.3808
 1743SOL    HW3 7018   0.869   1.830   3.040  0.2031  0.0946 -0.4418
 1743SOL    MW4 7019   0.849   1.910   3.069 -0.4058 -0.0180 -0.5350
 1744SOL     OW 7020   1.090   2.011   3.024  0.1540  0.0532 -0.2566
 1744SOL    HW2 7021   1.001   1.974   3.030  0.6795 -1.3274 -0.8546
 1744SOL    HW3 7022   1.111   2.008   2.931  0.5750  1.0300 -0.1984
 1744SOL    MW4 7023   1.081   2.006   3.013  0.2789  0.0000 -0.3276
 1745SOL     OW 7024   1.120   2.265   3.150  0.5360  0.1884  0.3991
 1745SOL    HW2 7025   1.070   2.329   3.099  1.5679  0.4241 -0.3443
 1745SOL    HW3 7026   1.097   2.180   3.112 -0.4753  0.1522  1.0782
 1745SOL    MW4 7027   1.110   2.262   3.138  0.5387  0.2148  0.3905
 1746SOL     OW 7028   0.917   2.391   3.009 -0.2436  0.2480 -0.1627
 1746SOL    HW2 7029   0.831   2.358   3.035 -0.2493  0.2092 -0.2311
 1746SOL    HW3 7030   0.914   2.393   2.913 -0.4284  0.9434 -0.1494
 1746SOL    MW4 7031   0.905   2.387   2.999 -0.2688  0.3350 -0.1702
 1747SOL     OW 7032   0.897   2.678   3.066 -0.2788 -0.0603  0.3363
 1747SOL    HW2 7033   0.882   2.696   3.158 -1.9392  0.5266 -0.0326
 1747SOL    HW3 7034   0.874   2.585   3.055  0.7076 -0.3539  0.6555
 1747SOL    MW4 7035   0.892   2.668   3.077 -0.3676 -0.0219  0.3300
 1748SOL     OW 7036   1.119   2.789   2.941 -0.0210  0.0690  0.2582
 1748SOL    HW2 7037   1.109   2.878   2.975  1.0443  0.1003  0.5214
 1748SOL    HW3 7038   1.045   2.741   2.977 -0.8792  0.9593 -0.2786
 1748SOL    MW4 7039   1.108   2.794   2.950  0.0063  0.1907  0.2220
 1749SOL     OW 7040   1.137   3.056   3.039  0.1669 -0.0863 -0.3995
 1749SOL    HW2 7041   1.219   3.104   3.027  0.1942 -0.1854 -0.6182
 1749SOL    HW3 7042   1.069   3.123   3.029  0.1390 -0.3470 -2.2624
 1749SOL    MW4 7043   1.139   3.071   3.036  0.1669 -0.1338 -0.6742
 1750SOL     OW 7044   0.917   3.209   2.992 -0.3834 -0.0548 -0.0090
 1750SOL    HW2 7045   0.835   3.166   3.019 -0.4004 -0.2409 -0.3519
 1750SOL    HW3 7046   0.908   3.219   2.898  0.4291 -1.0063 -0.2023
 1750SOL    MW4 7047   0.905   3.204   2.983 -0.2784 -0.2046 -0.0799
 1751SOL     OW 7048   0.910   3.468   3.103  0.1928  0.6824  0.5861
 1751SOL    HW2 7049   0.983   3.513   3.061 -0.6201 -0.0292 -1.6866
 1751SOL    HW3 7050   0.913   3.379   3.067  0.7300 -0.5983  3.6751
 1751SOL    MW4 7051   0.920   3.462   3.093  0.1564  0.4196  0.6940
 1752SOL     OW 7052   1.112   3.603   2.977  0.3655  0.0203  0.4953
 1752SOL    HW2 7053   1.192   3.562   3.011  1.7927  0.7310 -1.8685
 1752SOL    HW3 7054   1.107   3.687   3.023  1.4407  0.3171  0.0933
 1752SOL    MW4 7055   1.122   3.608   2.988  0.6958  0.1533  0.1302
 1753SOL     OW 7056   1.104   3.856   3.112 -0.5630  0.0707  0.0561
 1753SOL    HW2 7057   1.108   3.880   3.205  0.0104  2.8594 -0.6300
 1753SOL    HW3 7058   1.029   3.905   3.078 -0.1202 -0.0869 -1.1732
 1753SOL    MW4 7059   1.095   3.866   3.120 -0.4289  0.4177 -0.1965
 1754SOL     OW 7060   0.901   3.983   2.971 -0.0723 -0.1095  0.5847
 1754SOL    HW2 7061   0.817   3.966   3.012  0.1114 -0.3013  0.8835
 1754SOL    HW3 7062   0.884   3.981   2.877 -0.2222 -1.0272  0.6319
 1754SOL    MW4 7063   0.888   3.981   2.964 -0.0678 -0.2558  0.6304
 1755SOL     OW 7064   0.955   4.232   3.058 -0.3996  0.1758  0.2104
 1755SOL    HW2 7065   0.964   4.141   3.028  0.6179  0.3784 -0.1136
 1755SOL    HW3 7066   0.870   4.259   3.025 -0.0248 -0.1512 -1.0695
 1755SOL    MW4 7067   0.945   4.223   3.050 -0.2159  0.1593 -0.0012
 1756SOL     OW 7068   1.174   4.411   3.000  0.1160 -0.1156  0.0772
 1756SOL    HW2 7069   1.113   4.351   3.042  1.1967 -1.0149  0.3752
 1756SOL    HW3 7070   1.178   4.486   3.059  1.0824 -1.0629  1.2309
 1756SOL    MW4 7071   1.166   4.413   3.013  0.3861 -0.3595  0.2687
 1757SOL     OW 7072   1.810   0.120   3.052 -0.4152 -0.0922  0.3589
 1757SOL    HW2 7073   1.740   0.055   3.060  0.2647 -0.9794 -0.6609
 1757SOL    HW3 7074   1.816   0.137   2.958  0.8247 -0.1255  0.4232
 1757SOL    MW4 7075   1.801   0.114   3.040 -0.1616 -0.2136  0.2327
 1758SOL     OW 7076   1.593   4.570   3.090  0.1061  0.4104 -0.6123
 1758SOL    HW2 7077   1.599   4.582   3.185 -1.0804 -2.4583 -0.1076
 1758SOL    HW3 7078   1.525   4.632   3.063 -0.0736  0.7374  0.5388
 1758SOL    MW4 7079   1.585   4.580   3.099 -0.0740  0.0753 -0.3939
 1759SOL     OW 7080   1.396   0.090   3.011 -0.2206  0.0039 -0.0162
 1759SOL    HW2 7081   1.394   0.179   3.046  0.0952 -0.1642  0.4288
 1759SOL    HW3 7082   1.347   0.096   2.929 -1.5791  0.2478  0.7998
 1759SOL    MW4 7083   1.389   0.102   3.004 -0.3582  0.0139  0.1502
 1760SOL     OW 7084   1.586   0.474   2.973 -0.3086 -0.4329  0.2592
 1760SOL    HW2 7085   1.581   0.569   2.986  1.9670 -0.2732  0.2084
 1760SOL    HW3 7086   1.574   0.463   2.879  0.2320 -0.1009  0.1443
 1760SOL    MW4 7087   1.584   0.485   2.962  0.0628 -0.3680  0.2375
 1761SOL     OW 7088   1.552   0.725   3.085 -0.7558 -0.5155  0.0629
 1761SOL    HW2 7089   1.552   0.726   3.181  2.3775  1.0638  0.1127
 1761SOL    HW3 7090   1.465   0.756   3.060 -1.7759 -1.4113  2.3685
 1761SOL    MW4 7091   1.541   0.729   3.094 -0.4770 -0.4253  0.3736
 1762SOL     OW 7092   1.314   0.893   2.992  0.2305 -0.1373 -0.0440
 1762SOL    HW2 7093   1.325   0.977   3.038  2.9079 -1.0451  1.0446
 1762SOL    HW3 7094   1.254   0.843   3.047  0.3868  0.2329  0.4666
 1762SOL    MW4 7095   1.307   0.898   3.005  0.6043 -0.2082  0.1669
 1763SOL     OW 7096   1.333   1.135   3.109 -0.5468  0.6625  0.5203
 1763SOL    HW2 7097   1.332   1.163   3.200  0.6521  0.9277  0.4524
 1763SOL    HW3 7098   1.413   1.173   3.072 -0.5543 -0.1841 -0.3996
 1763SOL    MW4 7099   1.343   1.143   3.116 -0.3896  0.5859  0.3901
 1764SOL     OW 7100   1.573   1.237   3.005 -0.1062  0.4232  0.1770
 1764SOL    HW2 7101   1.651   1.197   3.044 -0.5520 -0.6998 -0.0840
 1764SOL    HW3 7102   1.580   1.330   3.029  0.6535  0.1086  1.2266
 1764SOL    MW4 7103   1.584   1.244   3.013 -0.0648  0.2337  0.2809
 1765SOL     OW 7104   1.559   1.505   3.074  0.3874  0.4816  0.0489
 1765SOL    HW2 7105   1.633   1.551   3.035  0.7765  0.8019  1.1614
 1765SOL    HW3 7106   1.484   1.564   3.059  0.3918  0.2576 -0.8764
 1765SOL    MW4 7107   1.559   1.519   3.067  0.4392  0.4944  0.0737
 1766SOL     OW 7108   1.319   1.641   3.018  0.2654  0.0024  0.1189
 1766SOL    HW2 7109   1.311   1.728   3.056  1.3569  0.2204 -0.1427
 1766SOL    HW3 7110   1.312   1.655   2.923 -0.1895 -0.2710  0.1092
 1766SOL    MW4 7111   1.317   1.654   3.010  0.3493 -0.0049  0.0834
 1767SOL     OW 7112   1.332   1.905   3.113  0.5172  0.1249 -0.4889
 1767SOL    HW2 7113   1.339   1.919   3.207  1.6750 -0.3814 -0.4947
 1767SOL    HW3 7114   1.243   1.934   3.091  0.2688  0.3158  0.7385
 1767SOL    MW4 7115   1.321   1.911   3.123  0.6371  0.0832 -0.3278
 1768SOL     OW 7116   1.559   2.058   3.043  0.1860  0.5830 -0.7560
 1768SOL    HW2 7117   1.482   2.006   3.068 -0.3034  1.6009 -0.0824
 1768SOL    HW3 7118   1.560   2.056   2.947 -0.5767  0.4051 -0.7623
 1768SOL    MW4 7119   1.549   2.051   3.034  0.0207  0.6938 -0.6683
 1769SOL     OW 7120   1.596   2.312   3.134  0.1964  0.4756 -0.1910
 1769SOL    HW2 7121   1.612   2.315   3.228  0.2240  0.3305 -0.1917
 1769SOL    HW3 7122   1.577   2.220   3.115 -0.5672  0.6294 -0.2030
 1769SOL    MW4 7123   1.596   2.300   3.144  0.0993  0.4768 -0.1929
 1770SOL     OW 7124   1.353   2.376   3.007  0.1815 -0.1174  0.4274
 1770SOL    HW2 7125   1.291   2.338   3.070 -0.1247 -1.0668 -0.4318
 1770SOL    HW3 7126   1.439   2.364   3.047 -0.0517 -0.2845  0.8763
 1770SOL    MW4 7127   1.356   2.369   3.021  0.1103 -0.2646  0.3731
 1771SOL     OW 7128   1.334   2.662   3.062  0.3948 -0.4273 -0.4931
 1771SOL    HW2 7129   1.355   2.575   3.026  1.1000 -0.2675 -0.4703
 1771SOL    HW3 7130   1.257   2.690   3.012 -1.1785 -1.9904  0.9927
 1771SOL    MW4 7131   1.327   2.654   3.050  0.2804 -0.6125 -0.2942
 1772SOL     OW 7132   1.544   2.842   2.997 -0.5318 -0.1007 -0.1155
 1772SOL    HW2 7133   1.620   2.784   3.009  0.5171  1.4994  1.1157
 1772SOL    HW3 7134   1.468   2.785   3.015  0.4627 -1.1856  0.7970
 1772SOL    MW4 7135   1.544   2.827   3.001 -0.2621 -0.0329  0.1671
 1773SOL     OW 7136   1.603   3.102   3.064  0.0504  0.2477  0.1785
 1773SOL    HW2 7137   1.583   3.113   3.157 -0.4837  0.0214  0.0951
 1773SOL    HW3 7138   1.589   3.009   3.046 -1.7897  0.6398 -0.5539
 1773SOL    MW4 7139   1.598   3.092   3.074 -0.2629  0.2697  0.0708
 1774SOL     OW 7140   1.356   3.217   2.998 -0.2067 -0.0453 -0.0321
 1774SOL    HW2 7141   1.354   3.294   3.055 -1.5281 -0.9217  1.1151
 1774SOL    HW3 7142   1.443   3.180   3.012 -0.8216 -0.7721  2.1605
 1774SOL    MW4 7143   1.367   3.222   3.008 -0.4622 -0.2568  0.4084
 1775SOL     OW 7144   1.333   3.474   3.095 -0.1641  0.1043 -0.0669
 1775SOL    HW2 7145   1.411   3.523   3.068 -0.8103  1.2209  0.0904
 1775SOL    HW3 7146   1.331   3.483   3.190 -0.3653 -0.1142 -0.0503
 1775SOL    MW4 7147   1.343   3.482   3.104 -0.2760  0.2229 -0.0441
 1776SOL     OW 7148   1.552   3.632   2.991  0.0191  0.3918  0.0481
 1776SOL    HW2 7149   1.618   3.565   3.010  0.1307  0.5451  0.2013
 1776SOL    HW3 7150   1.549   3.636   2.895  1.2249  1.3613  0.0474
 1776SOL    MW4 7151   1.560   3.624   2.981  0.1929  0.5395  0.0684
 1777SOL     OW 7152   1.533   3.887   3.103  0.1211  0.0936  0.3399
 1777SOL    HW2 7153   1.616   3.928   3.079  0.0294 -0.8080 -1.5950
 1777SOL    HW3 7154   1.541   3.797   3.073 -1.4785 -0.0448  0.2825
 1777SOL    MW4 7155   1.545   3.881   3.096 -0.1022 -0.0436  0.0772
 1778SOL     OW 7156   1.312   3.996   2.975  0.1629  0.1577 -0.3112
 1778SOL    HW2 7157   1.389   3.966   3.023  0.2724 -0.0531 -0.6161
 1778SOL    HW3 7158   1.239   3.944   3.011 -0.0592  1.2808  0.8950
 1778SOL    MW4 7159   1.312   3.985   2.986  0.1479  0.2780 -0.1924
 1779SOL     OW 7160   1.361   4.235   3.126 -0.4527  0.1037 -0.3326
 1779SOL    HW2 7161   1.340   4.149   3.089  0.6024 -0.1656 -0.3343
 1779SOL    HW3 7162   1.311   4.297   3.073 -0.7926 -0.4650 -0.6806
 1779SOL    MW4 7163   1.352   4.232   3.114 -0.3582 -0.0067 -0.3788
 1780SOL     OW 7164   1.589   4.327   2.981 -0.0465  0.1564  0.4464
 1780SOL    HW2 7165   1.511   4.283   3.014 -1.3103  2.3098  0.4513
 1780SOL    HW3 7166   1.584   4.416   3.017  1.8990  0.6233 -0.3422
 1780SOL    MW4 7167   1.578   4.333   2.990  0.0434  0.5021  0.3431
 1781SOL     OW 7168   2.055   4.379   3.006 -0.1856 -0.2336 -0.6251
 1781SOL    HW2 7169   2.053   4.386   2.910 -2.4414  0.6828 -0.5525
 1781SOL    HW3 7170   2.037   4.468   3.037 -1.2329 -0.8520  0.6106
 1781SOL    MW4 7171   2.052   4.392   2.997 -0.6213 -0.1945 -0.4525
 1782SOL     OW 7172   2.050   4.655   3.134 -0.4280 -0.0731  0.4410
 1782SOL    HW2 7173   2.037   4.653   3.229 -1.1245  1.3690  0.3863
 1782SOL    HW3 7174   1.978   4.708   3.101  0.8290  0.9573 -0.7148
 1782SOL    MW4 7175   2.039   4.662   3.142 -0.3543  0.2532  0.2813
 1783SOL     OW 7176   1.814   0.389   3.132 -0.3032 -0.4024 -0.0714
 1783SOL    HW2 7177   1.807   0.294   3.116 -1.7715 -0.5228  1.1462
 1783SOL    HW3 7178   1.732   0.425   3.099  0.5607  0.5540 -1.1924
 1783SOL    MW4 7179   1.802   0.381   3.126 -0.3829 -0.2921 -0.0587
 1784SOL     OW 7180   2.027   0.527   3.016  0.2706  0.4500  0.0459
 1784SOL    HW2 7181   1.953   0.477   3.052  0.7680 -0.0251  0.4203
 1784SOL    HW3 7182   2.023   0.511   2.921 -0.2971  0.6891  0.0285
 1784SOL    MW4 7183   2.017   0.518   3.008  0.2613  0.4188  0.0927
 1785SOL     OW 7184   2.050   0.790   3.107  0.0096  0.0704  0.0768
 1785SOL    HW2 7185   1.966   0.823   3.076  0.2985  0.8161  0.0863
 1785SOL    HW3 7186   2.053   0.699   3.077 -1.2386 -0.2671  0.9566
 1785SOL    MW4 7187   2.039   0.782   3.099 -0.1171  0.1242  0.1941
 1786SOL     OW 7188   1.789   0.862   2.999 -0.0854 -0.1459 -0.1010
 1786SOL    HW2 7189   1.702   0.824   3.015 -0.7223  1.1573 -0.3500
 1786SOL    HW3 7190   1.799   0.858   2.903  0.5142 -1.1123  0.0019
 1786SOL    MW4 7191   1.779   0.856   2.988 -0.0904 -0.1014 -0.1202
 1787SOL     OW 7192   1.818   1.114   3.113 -0.0823 -0.3707 -0.0906
 1787SOL    HW2 7193   1.791   1.128   3.204  0.3913 -0.1140  0.0113
 1787SOL    HW3 7194   1.806   1.020   3.098  0.0438 -0.4495  0.3057
 1787SOL    MW4 7195   1.813   1.103   3.123 -0.0032 -0.3471 -0.0250
 1788SOL     OW 7196   1.995   1.275   2.957 -0.3816  0.2227  0.2196
 1788SOL    HW2 7197   2.083   1.242   2.971 -0.8532 -0.9021  0.5917
 1788SOL    HW3 7198   1.939   1.217   3.009 -1.4535  0.2362 -0.8963
 1788SOL    MW4 7199   1.999   1.263   2.966 -0.5852  0.0762  0.1216
 1789SOL     OW 7200   1.992   1.531   3.079  0.2763  0.1781 -0.3019
 1789SOL    HW2 7201   1.994   1.522   3.175 -2.1276  0.4363 -0.2124
 1789SOL    HW3 7202   2.017   1.444   3.047 -0.5377 -0.3790  0.5582
 1789SOL    MW4 7203   1.996   1.518   3.088 -0.1484  0.1386 -0.1764
 1790SOL     OW 7204   1.780   1.666   2.973  0.6988  0.0149  0.2944
 1790SOL    HW2 7205   1.778   1.745   3.027 -0.6579  0.5741 -0.5472
 1790SOL    HW3 7206   1.851   1.614   3.010  0.1498  0.6168  2.3019
 1790SOL    MW4 7207   1.789   1.669   2.985  0.4474  0.1681  0.4480
 1791SOL     OW 7208   1.785   1.921   3.104 -0.4723  0.1140 -0.1684
 1791SOL    HW2 7209   1.851   1.989   3.089 -0.5272  0.4328  0.9346
 1791SOL    HW3 7210   1.702   1.964   3.083 -0.5870  0.6900  1.4053
 1791SOL    MW4 7211   1.783   1.936   3.099 -0.4947  0.2321  0.1848
 1792SOL     OW 7212   2.007   2.079   3.044 -0.3818 -0.3420  0.0656
 1792SOL    HW2 7213   2.087   2.027   3.043 -0.8672 -1.1885  2.3819
 1792SOL    HW3 7214   2.032   2.160   3.087 -0.3013  0.2476 -1.0620
 1792SOL    MW4 7215   2.021   2.083   3.049 -0.4351 -0.3757  0.2224
 1793SOL     OW 7216   2.037   2.329   3.157  0.0296 -0.0839  0.3129
 1793SOL    HW2 7217   2.112   2.364   3.109 -1.1013  0.3806 -1.1438
 1793SOL    HW3 7218   1.962   2.347   3.100 -0.9704 -2.0273  0.9889
 1793SOL    MW4 7219   2.037   2.336   3.143 -0.2515 -0.2792  0.2098
 1794SOL     OW 7220   1.823   2.414   3.005  0.0521  0.2317 -0.5749
 1794SOL    HW2 7221   1.818   2.501   3.045 -0.8440 -0.1156  0.0673
 1794SOL    HW3 7222   1.749   2.366   3.041  1.6892 -1.4605  0.6072
 1794SOL    MW4 7223   1.813   2.419   3.015  0.1498 -0.0374 -0.3345
 1795SOL     OW 7224   1.795   2.686   3.042 -0.4704 -0.1730 -0.8019
 1795SOL    HW2 7225   1.772   2.696   3.134  1.5039 -2.3438 -0.0292
 1795SOL    HW3 7226   1.870   2.745   3.030 -0.4908 -0.1723 -0.9230
 1795SOL    MW4 7227   1.802   2.695   3.053 -0.2126 -0.4597 -0.7157
 1796SOL     OW 7228   2.049   2.832   3.017  0.0431 -0.4341  0.0166
 1796SOL    HW2 7229   2.059   2.922   3.048 -1.5802 -0.0749 -0.4484
 1796SOL    HW3 7230   2.033   2.841   2.923  2.3389 -1.3642 -0.5013
 1796SOL    MW4 7231   2.048   2.845   3.009  0.1316 -0.5095 -0.1132
 1797SOL     OW 7232   2.036   3.114   3.112  0.3452  0.8018 -0.5562
 1797SOL    HW2 7233   2.038   3.133   3.206  0.4818 -1.5182 -0.0481
 1797SOL    HW3 7234   1.956   3.156   3.080 -1.1905 -0.7268  1.1642
 1797SOL    MW4 7235   2.026   3.122   3.120  0.1607  0.2940 -0.2623
 1798SOL     OW 7236   1.825   3.237   3.008  0.3598 -0.2846 -0.5283
 1798SOL    HW2 7237   1.743   3.191   3.025  0.0992  0.0811 -0.7816
 1798SOL    HW3 7238   1.823   3.256   2.914  1.8343 -2.3721 -1.0161
 1798SOL    MW4 7239   1.814   3.234   2.998  0.5201 -0.5119 -0.6263
 1799SOL     OW 7240   1.784   3.503   3.104 -0.2447 -0.7742  0.1719
 1799SOL    HW2 7241   1.801   3.416   3.068  0.4991 -0.6962  0.3217
 1799SOL    HW3 7242   1.843   3.561   3.057  0.5348 -0.6280  1.3106
 1799SOL    MW4 7243   1.794   3.499   3.093 -0.0437 -0.7448  0.3421
 1800SOL     OW 7244   2.008   3.648   2.979 -0.0637 -0.2199 -0.3427
 1800SOL    HW2 7245   2.019   3.736   3.015  0.1528 -0.7020  0.7943
 1800SOL    HW3 7246   2.073   3.595   3.026 -0.5897 -1.1049 -0.6063
 1800SOL    MW4 7247   2.018   3.652   2.990 -0.1049 -0.4003 -0.2275
 1801SOL     OW 7248   1.998   3.889   3.123  0.2284  0.5897 -0.0680
 1801SOL    HW2 7249   1.999   3.898   3.218  1.1729  1.0478 -0.1168
 1801SOL    HW3 7250   1.921   3.939   3.095  0.2615  0.9094  0.4115
 1801SOL    MW4 7251   1.988   3.897   3.132  0.3574  0.6924 -0.0110
 1802SOL     OW 7252   1.769   4.003   3.004  0.4571 -0.2388 -0.1053
 1802SOL    HW2 7253   1.788   4.091   3.038 -1.5043 -0.3339  1.3210
 1802SOL    HW3 7254   1.757   4.016   2.910 -1.5841  1.3693  0.3324
 1802SOL    MW4 7255   1.770   4.017   2.997 -0.0710 -0.0396  0.1407
 1803SOL     OW 7256   1.817   4.249   3.110  0.2455  0.0178 -0.5189
 1803SOL    HW2 7257   1.894   4.292   3.072  0.0846  0.4133 -0.4043
 1803SOL    HW3 7258   1.743   4.289   3.065  0.0195  0.9724  0.6628
 1803SOL    MW4 7259   1.818   4.260   3.099  0.1943  0.1960 -0.3479
 1804SOL     OW 7260   2.272   4.252   3.109 -0.3358  0.0239 -0.4749
 1804SOL    HW2 7261   2.192   4.294   3.077 -0.3724  0.0449 -0.3534
 1804SOL    HW3 7262   2.276   4.168   3.062  0.2537  0.5940 -1.4499
 1804SOL    MW4 7263   2.262   4.246   3.098 -0.2627  0.1016 -0.5875
 1805SOL     OW 7264   2.478   0.004   3.092 -0.2226  0.3803  0.5506
 1805SOL    HW2 7265   2.479  -0.087   3.060 -1.3342 -0.6794  3.3285
 1805SOL    HW3 7266   2.393   0.038   3.065  0.1773  0.6119 -0.4551
 1805SOL    MW4 7267   2.467  -0.004   3.084 -0.3164  0.2713  0.7844
 1806SOL     OW 7268   2.246   0.114   2.994 -0.4331  0.4356  0.0439
 1806SOL    HW2 7269   2.251   0.203   3.030 -0.4713  0.0325  1.0548
 1806SOL    HW3 7270   2.180   0.070   3.047 -1.2536  0.1338 -1.1912
 1806SOL    MW4 7271   2.238   0.120   3.005 -0.5465  0.3426  0.0145
 1807SOL     OW 7272   2.248   0.395   3.093 -0.0450  0.4864  0.7770
 1807SOL    HW2 7273   2.242   0.389   3.189 -0.0381  0.6873  0.7908
 1807SOL    HW3 7274   2.176   0.452   3.068 -1.7792 -1.7857  0.3969
 1807SOL    MW4 7275   2.238   0.402   3.103 -0.2730  0.2132  0.7288
 1808SOL     OW 7276   2.502   0.457   2.996 -0.2865  0.2291 -0.4189
 1808SOL    HW2 7277   2.414   0.435   3.025 -0.0512 -2.5560 -1.6348
 1808SOL    HW3 7278   2.492   0.489   2.907 -0.0164 -0.6001 -0.7488
 1808SOL    MW4 7279   2.489   0.458   2.988 -0.2201 -0.2477 -0.6225
 1809SOL     OW 7280   2.488   0.730   3.085 -0.3846  0.4183  0.1890
 1809SOL    HW2 7281   2.564   0.769   3.042 -0.4188  0.2168 -0.0529
 1809SOL    HW3 7282   2.491   0.638   3.060  0.2041  0.0637  1.4866
 1809SOL    MW4 7283   2.499   0.723   3.076 -0.3114  0.3449  0.3283
 1810SOL     OW 7284   2.276   0.889   2.983 -0.5266 -0.0568 -0.4969
 1810SOL    HW2 7285   2.355   0.843   3.009 -0.3130  1.2040  1.2223
 1810SOL    HW3 7286   2.205   0.845   3.031 -0.4672  0.6330  0.2473
 1810SOL    MW4 7287   2.277   0.877   2.993 -0.4902  0.2005 -0.1719
 1811SOL     OW 7288   2.239   1.151   3.040 -0.2980  0.1848 -0.0790
 1811SOL    HW2 7289   2.236   1.153   3.135  0.5123 -0.6152 -0.0362
 1811SOL    HW3 7290   2.262   1.061   3.018 -0.5795  0.3379 -1.0311
 1811SOL    MW4 7291   2.242   1.140   3.049 -0.2282  0.0995 -0.1991
 1812SOL     OW 7292   2.484   1.283   3.008 -0.3844  0.7291  0.0673
 1812SOL    HW2 7293   2.393   1.252   3.014 -0.9393  2.3701  0.6072
 1812SOL    HW3 7294   2.496   1.303   2.916 -0.5110  0.2921 -0.0430
 1812SOL    MW4 7295   2.473   1.282   2.997 -0.4745  0.8880  0.1240
 1813SOL     OW 7296   2.484   1.542   3.092 -0.1693  0.4993 -0.2585
 1813SOL    HW2 7297   2.401   1.581   3.064  0.5015  2.2198  0.0970
 1813SOL    HW3 7298   2.485   1.455   3.052 -1.3965  1.0919 -1.5894
 1813SOL    MW4 7299   2.473   1.535   3.083 -0.2429  0.8045 -0.3872
 1814SOL     OW 7300   2.230   1.671   3.008  0.0391 -0.6826 -0.1262
 1814SOL    HW2 7301   2.158   1.623   3.049 -1.6239  0.3770 -1.6894
 1814SOL    HW3 7302   2.209   1.670   2.915  1.6057  0.3940 -0.5064
 1814SOL    MW4 7303   2.218   1.665   3.001  0.0265 -0.4009 -0.3824
 1815SOL     OW 7304   2.244   1.929   3.095 -0.3589  0.1679  0.2929
 1815SOL    HW2 7305   2.321   1.962   3.049 -0.4126 -1.3859 -0.9385
 1815SOL    HW3 7306   2.238   1.837   3.070 -3.2832  0.5263 -0.5980
 1815SOL    MW4 7307   2.253   1.921   3.085 -0.7517  0.0103  0.0129
 1816SOL     OW 7308   2.483   2.049   2.980  0.4898 -0.0080  0.2022
 1816SOL    HW2 7309   2.556   1.991   3.001  1.0119  0.3304 -0.6465
 1816SOL    HW3 7310   2.481   2.051   2.884  0.7752  1.7097  0.2121
 1816SOL    MW4 7311   2.493   2.042   2.970  0.5965  0.2635  0.0916
 1817SOL     OW 7312   2.510   2.325   3.080  0.0264 -0.1786 -0.0007
 1817SOL    HW2 7313   2.492   2.312   3.173 -0.3999 -0.0671 -0.0642
 1817SOL    HW3 7314   2.513   2.236   3.044  2.2136 -0.3096  0.4816
 1817SOL    MW4 7315   2.508   2.311   3.088  0.2587 -0.1810  0.0546
 1818SOL     OW 7316   2.249   2.422   3.004  0.3684  0.6427  0.0649
 1818SOL    HW2 7317   2.262   2.504   3.051  0.0136  0.0314  1.2296
 1818SOL    HW3 7318   2.336   2.381   3.003  0.4268  0.7667 -0.0395
 1818SOL    MW4 7319   2.262   2.427   3.010  0.3290  0.5784  0.2046
 1819SOL     OW 7320   2.252   2.676   3.126  0.0626 -0.2442 -0.2332
 1819SOL    HW2 7321   2.331   2.709   3.083  1.2735 -1.1583  1.2373
 1819SOL    HW3 7322   2.181   2.726   3.086  1.4181  0.9493 -1.2305
 1819SOL    MW4 7323   2.253   2.687   3.115  0.4013 -0.2074 -0.1707
 1820SOL     OW 7324   2.481   2.824   3.028  0.4173 -0.4103 -0.6356
 1820SOL    HW2 7325   2.449   2.909   3.059  1.7420  0.2582 -1.0273
 1820SOL    HW3 7326   2.473   2.829   2.933  0.3189 -0.7886 -0.6451
 1820SOL    MW4 7327   2.476   2.836   3.019  0.5791 -0.3717 -0.6883
 1821SOL     OW 7328   2.451   3.096   3.082 -0.1024 -0.0125  0.0381
 1821SOL    HW2 7329   2.533   3.115   3.035 -0.8082 -0.2318 -1.3011
 1821SOL    HW3 7330   2.386   3.154   3.041 -0.7584 -0.3202  0.6413
 1821SOL    MW4 7331   2.453   3.106   3.070 -0.2823 -0.0818 -0.0591
 1822SOL     OW 7332   2.232   3.252   2.981 -0.1154  0.0131 -0.0467
 1822SOL    HW2 7333   2.230   3.339   3.021 -1.9373 -0.0198 -0.0337
 1822SOL    HW3 7334   2.161   3.204   3.024  0.1512 -1.1201 -0.8526
 1822SOL    MW4 7335   2.222   3.257   2.992 -0.3207 -0.1409 -0.1514
 1823SOL     OW 7336   2.215   3.515   3.098 -0.4579  0.5341  0.4603
 1823SOL    HW2 7337   2.291   3.561   3.063 -0.4949 -0.1931 -0.6221
 1823SOL    HW3 7338   2.232   3.507   3.192 -0.5437  2.8927  0.6864
 1823SOL    MW4 7339   2.227   3.520   3.106 -0.4742  0.7493  0.3471
 1824SOL     OW 7340   2.480   3.622   2.983 -0.1019 -0.0248 -0.4605
 1824SOL    HW2 7341   2.565   3.582   3.001  0.1017  0.4125 -0.4574
 1824SOL    HW3 7342   2.477   3.698   3.041  0.0108  0.6496 -1.3360
 1824SOL    MW4 7343   2.491   3.627   2.993 -0.0603  0.1218 -0.5758
 1825SOL     OW 7344   2.484   3.834   3.137  0.1717 -0.3267  0.5607
 1825SOL    HW2 7345   2.460   3.844   3.229 -0.4900  0.9222  0.2635
 1825SOL    HW3 7346   2.556   3.895   3.124 -0.1783 -0.0068  0.0923
 1825SOL    MW4 7347   2.490   3.844   3.148  0.0381 -0.1197  0.4594
 1826SOL     OW 7348   2.275   4.001   3.009  0.1563  0.0796  0.2952
 1826SOL    HW2 7349   2.348   3.947   3.040 -0.3215 -1.3034 -0.8919
 1826SOL    HW3 7350   2.198   3.963   3.052  0.0478  1.1158  1.0324
 1826SOL    MW4 7351   2.274   3.989   3.019  0.0789  0.0339  0.2358
 1827SOL     OW 7352   2.268   4.296   3.384 -0.2713 -0.2246 -0.0450
 1827SOL    HW2 7353   2.258   4.287   3.289 -1.1141 -0.0491  0.0306
 1827SOL    HW3 7354   2.184   4.329   3.414  0.3416  0.7109  0.6364
 1827SOL    MW4 7355   2.256   4.299   3.375 -0.3016 -0.0787  0.0548
 1828SOL     OW 7356   2.490   4.401   3.001  0.1514 -0.4556 -0.0830
 1828SOL    HW2 7357   2.419   4.344   3.030  0.8858 -1.7529 -0.7912
 1828SOL    HW3 7358   2.482   4.402   2.905  0.1423  0.6616 -0.0858
 1828SOL    MW4 7359   2.479   4.394   2.992  0.2472 -0.4797 -0.1767
 1829SOL     OW 7360   2.928   4.644   3.104  0.0042  0.0708  0.1116
 1829SOL    HW2 7361   2.993   4.676   3.041 -1.5135  0.4287 -1.2744
 1829SOL    HW3 7362   2.920   4.551   3.084 -0.4006  0.1622 -0.1542
 1829SOL    MW4 7363   2.936   4.636   3.093 -0.2496  0.1297 -0.1061
 1830SOL     OW 7364   2.704   0.089   2.963  0.2729  0.0598 -0.0430
 1830SOL    HW2 7365   2.780   0.039   2.993 -0.1396 -1.0903 -0.8641
 1830SOL    HW3 7366   2.631   0.057   3.016  0.2441  0.7012  0.3028
 1830SOL    MW4 7367   2.704   0.078   2.974  0.2146 -0.0073 -0.1056
 1831SOL     OW 7368   2.733   0.331   3.106  0.2644 -0.9083  0.8596
 1831SOL    HW2 7369   2.739   0.251   3.054  2.1355  0.7339 -1.5748
 1831SOL    HW3 7370   2.656   0.376   3.071  0.2122 -0.8360  1.0670
 1831SOL    MW4 7371   2.723   0.326   3.095  0.5045 -0.6821  0.5655
 1832SOL     OW 7372   2.955   0.507   3.030 -0.5551  0.1207  0.3886
 1832SOL    HW2 7373   2.881   0.449   3.045  0.2526 -1.2142 -0.7052
 1832SOL    HW3 7374   2.956   0.520   2.935  0.7624 -0.0902  0.3681
 1832SOL    MW4 7375   2.945   0.501   3.019 -0.2749 -0.0833  0.2418
 1833SOL     OW 7376   2.946   0.770   3.116  0.4231  0.2134 -0.1741
 1833SOL    HW2 7377   2.940   0.781   3.211  4.0358 -0.3790  0.2013
 1833SOL    HW3 7378   2.947   0.675   3.103 -0.3928  0.2949 -0.8421
 1833SOL    MW4 7379   2.945   0.759   3.127  0.7918  0.1461 -0.2124
 1834SOL     OW 7380   2.719   0.852   3.004 -0.1473  0.2610 -0.3756
 1834SOL    HW2 7381   2.703   0.941   3.035 -1.1572  0.0423 -0.2312
 1834SOL    HW3 7382   2.803   0.827   3.041 -0.6724  0.5232  1.0252
 1834SOL    MW4 7383   2.728   0.860   3.013 -0.3498  0.2667 -0.1719
 1835SOL     OW 7384   2.698   1.125   3.098 -0.3958 -0.3803  0.0776
 1835SOL    HW2 7385   2.766   1.185   3.070  0.1658 -1.5045 -0.9943
 1835SOL    HW3 7386   2.616   1.172   3.082  0.0439  0.1695 -0.5736
 1835SOL    MW4 7387   2.696   1.139   3.092 -0.2637 -0.4562 -0.1497
 1836SOL     OW 7388   2.903   1.283   2.969  0.7814 -0.4649  0.1390
 1836SOL    HW2 7389   2.980   1.242   3.007  1.0460 -0.1224 -0.0166
 1836SOL    HW3 7390   2.902   1.371   3.007  1.8359  0.3630 -1.6744
 1836SOL    MW4 7391   2.913   1.289   2.979  0.9556 -0.3105 -0.1206
 1837SOL     OW 7392   2.913   1.531   3.086  0.3286 -0.0343 -0.3160
 1837SOL    HW2 7393   2.914   1.531   3.182  0.4877 -0.3600 -0.3192
 1837SOL    HW3 7394   2.993   1.577   3.062 -0.5729  1.5858 -0.2791
 1837SOL    MW4 7395   2.923   1.537   3.096  0.2306  0.1364 -0.3119
 1838SOL     OW 7396   2.687   1.655   2.973  0.1484  0.2397 -0.3510
 1838SOL    HW2 7397   2.766   1.609   3.001  0.0672  0.1224 -0.3154
 1838SOL    HW3 7398   2.616   1.612   3.021  0.0288  0.1431 -0.6133
 1838SOL    MW4 7399   2.688   1.643   2.983  0.1221  0.2115 -0.3810
 1839SOL     OW 7400   2.693   1.913   3.084 -0.1621  0.3211 -0.5116
 1839SOL    HW2 7401   2.780   1.946   3.063 -0.2462  0.9528  0.1172
 1839SOL    HW3 7402   2.693   1.823   3.052  0.4887  0.5363 -1.1236
 1839SOL    MW4 7403   2.704   1.905   3.077 -0.0873  0.4328 -0.5095
 1840SOL     OW 7404   2.913   2.033   2.997  0.8079  0.1626 -0.2089
 1840SOL    HW2 7405   2.903   2.113   3.049  0.9329  0.9477 -1.3596
 1840SOL    HW3 7406   2.908   2.063   2.906  0.2231 -1.2252 -0.6553
 1840SOL    MW4 7407   2.911   2.048   2.992  0.7472  0.0832 -0.4196
 1841SOL     OW 7408   2.912   2.314   3.103 -0.0291  0.2264 -0.3581
 1841SOL    HW2 7409   2.990   2.343   3.056 -0.6213  1.3206 -0.6717
 1841SOL    HW3 7410   2.849   2.385   3.092 -0.7812 -0.2758  0.6092
 1841SOL    MW4 7411   2.914   2.327   3.096 -0.2065  0.3045 -0.2720
 1842SOL     OW 7412   2.720   2.470   2.984 -0.1988  0.3974  0.3319
 1842SOL    HW2 7413   2.713   2.559   3.019 -1.1784  0.3984  0.1366
 1842SOL    HW3 7414   2.648   2.422   3.024  0.3057 -0.3113  0.4131
 1842SOL    MW4 7415   2.710   2.475   2.994 -0.2615  0.3040  0.3169
 1843SOL     OW 7416   2.715   2.724   3.127  0.2536  0.1478 -0.3582
 1843SOL    HW2 7417   2.708   2.722   3.223 -0.5226 -1.8514 -0.4289
 1843SOL    HW3 7418   2.630   2.756   3.098  0.5709  0.9789 -0.3742
 1843SOL    MW4 7419   2.703   2.728   3.136  0.1934 -0.0062 -0.3695
 1844SOL     OW 7420   2.950   2.827   2.997 -0.0851 -0.2150  0.2021
 1844SOL    HW2 7421   3.014   2.766   3.034 -0.8866 -1.0693  0.1941
 1844SOL    HW3 7422   2.868   2.805   3.040 -0.5022  0.4723 -0.2369
 1844SOL    MW4 7423   2.948   2.816   3.007 -0.2458 -0.2370  0.1433
 1845SOL     OW 7424   2.939   3.070   3.115 -0.0723  0.3893 -0.2684
 1845SOL    HW2 7425   2.859   3.105   3.075 -0.9019 -1.6364 -0.4503
 1845SOL    HW3 7426   2.946   2.981   3.080  0.0494 -0.8758  2.8293
 1845SOL    MW4 7427   2.929   3.063   3.105 -0.1657 -0.0448  0.1163
 1846SOL     OW 7428   2.692   3.178   2.999  0.3266 -0.4609  0.0856
 1846SOL    HW2 7429   2.680   3.270   3.021 -0.5964 -0.5720  0.1031
 1846SOL    HW3 7430   2.701   3.176   2.904 -1.6551 -0.5242 -0.1238
 1846SOL    MW4 7431   2.691   3.190   2.989 -0.0565 -0.4838  0.0606
 1847SOL     OW 7432   2.676   3.446   3.046 -0.0862  0.1167  0.6129
 1847SOL    HW2 7433   2.665   3.446   3.141  3.7641  0.2578  1.1554
 1847SOL    HW3 7434   2.763   3.485   3.033 -0.0865 -0.9331 -2.8913
 1847SOL    MW4 7435   2.686   3.451   3.057  0.4218 -0.0033  0.2222
 1848SOL     OW 7436   2.928   3.555   3.001 -0.1110 -0.4163  0.1383
 1848SOL    HW2 7437   3.002   3.511   3.044 -0.9445 -1.0054  0.9719
 1848SOL    HW3 7438   2.925   3.641   3.042  0.1135 -0.3857  0.0940
 1848SOL    MW4 7439   2.938   3.560   3.012 -0.1912 -0.4900  0.2425
 1849SOL     OW 7440   2.907   3.806   3.104  0.0237  0.0181  0.3021
 1849SOL    HW2 7441   2.918   3.807   3.199  0.7903 -0.5220  0.2246
 1849SOL    HW3 7442   2.844   3.876   3.086  0.4610  0.6249  1.1304
 1849SOL    MW4 7443   2.900   3.815   3.114  0.1826  0.0267  0.4015
 1850SOL     OW 7444   2.707   3.995   3.061 -0.1236  0.1159  0.3260
 1850SOL    HW2 7445   2.709   4.089   3.079  1.5929 -0.0301  1.0912
 1850SOL    HW3 7446   2.722   3.988   2.967  0.6033  0.5896  0.4026
 1850SOL    MW4 7447   2.710   4.007   3.051  0.1986  0.1593  0.4370
 1851SOL     OW 7448   2.696   4.251   3.134  0.2020  0.2280 -0.6961
 1851SOL    HW2 7449   2.697   4.267   3.229  2.1404  0.6506 -0.7690
 1851SOL    HW3 7450   2.613   4.288   3.105 -0.6713 -0.4010  0.9183
 1851SOL    MW4 7451   2.685   4.258   3.143  0.3424  0.2012 -0.4926
 1852SOL     OW 7452   2.934   4.364   3.021 -0.0968  0.3395  0.1166
 1852SOL    HW2 7453   3.009   4.317   3.058 -0.7143  0.5009  1.6281
 1852SOL    HW3 7454   2.858   4.315   3.052 -0.6191 -0.0192 -1.6824
 1852SOL    MW4 7455   2.934   4.351   3.030 -0.2472  0.3133  0.0789
 1853SOL     OW 7456   3.348   4.622   3.114 -0.0284 -0.1853  0.4010
 1853SOL    HW2 7457   3.428   4.663   3.082 -0.9641  0.5014 -1.1086
 1853SOL    HW3 7458   3.350   4.533   3.078 -0.2832  0.0525 -0.1953
 1853SOL    MW4 7459   3.359   4.616   3.105 -0.1855 -0.0629  0.1230
 1854SOL     OW 7460   3.145   0.083   2.962  0.3595 -0.7453 -0.3327
 1854SOL    HW2 7461   3.142   0.166   3.010  0.7463 -0.5733 -0.6002
 1854SOL    HW3 7462   3.221   0.037   2.999  0.1740 -0.9616 -0.2175
 1854SOL    MW4 7463   3.155   0.088   2.973  0.3860 -0.7512 -0.3524
 1855SOL     OW 7464   3.162   0.344   3.072 -0.3680 -0.2876  0.1696
 1855SOL    HW2 7465   3.238   0.402   3.065 -1.0353  0.7143  1.0551
 1855SOL    HW3 7466   3.086   0.401   3.055 -0.9361 -1.2322 -0.5242
 1855SOL    MW4 7467   3.162   0.359   3.069 -0.5312 -0.2801  0.1950
 1856SOL     OW 7468   3.372   0.505   3.018  0.3173 -0.7602 -0.0993
 1856SOL    HW2 7469   3.459   0.467   3.027  1.3100  1.3309 -0.5321
 1856SOL    HW3 7470   3.360   0.517   2.924  0.7423  1.5395  0.1091
 1856SOL    MW4 7471   3.382   0.501   3.007  0.5043 -0.1808 -0.1290
 1857SOL     OW 7472   3.387   0.774   3.120 -0.1649  0.0933  0.0449
 1857SOL    HW2 7473   3.382   0.681   3.095 -0.3565  0.0700  0.1681
 1857SOL    HW3 7474   3.384   0.772   3.216 -2.2658  0.3443  0.0218
 1857SOL    MW4 7475   3.386   0.761   3.130 -0.4673  0.1234  0.0579
 1858SOL     OW 7476   3.158   0.900   2.994 -0.2377 -0.0282 -0.6138
 1858SOL    HW2 7477   3.241   0.862   3.024 -0.2009  0.2770 -0.3143
 1858SOL    HW3 7478   3.091   0.842   3.029 -0.1813  0.1605 -0.1850
 1858SOL    MW4 7479   3.160   0.888   3.003 -0.2255  0.0370 -0.5176
 1859SOL     OW 7480   3.142   1.156   3.069 -0.3432 -0.0779  0.0069
 1859SOL    HW2 7481   3.223   1.200   3.044  0.4454 -0.4036  1.8872
 1859SOL    HW3 7482   3.164   1.063   3.067  0.0360 -0.0934  2.7212
 1859SOL    MW4 7483   3.155   1.150   3.066 -0.1891 -0.1229  0.6130
 1860SOL     OW 7484   3.359   1.290   2.979 -0.4631 -0.1829  0.7558
 1860SOL    HW2 7485   3.426   1.237   3.023 -0.2161 -0.8870 -0.4388
 1860SOL    HW3 7486   3.370   1.378   3.015  1.6067 -0.1230  0.0598
 1860SOL    MW4 7487   3.369   1.295   2.989 -0.1576 -0.2679  0.5064
 1861SOL     OW 7488   3.397   1.556   3.077  0.0411  0.4624 -0.3237
 1861SOL    HW2 7489   3.395   1.566   3.172  0.8033  0.6336 -0.3236
 1861SOL    HW3 7490   3.468   1.613   3.048 -0.7567  1.0692 -1.0828
 1861SOL    MW4 7491   3.406   1.565   3.086  0.0365  0.5651 -0.4241
 1862SOL     OW 7492   3.148   1.637   2.943  0.1369  0.0222  0.3855
 1862SOL    HW2 7493   3.237   1.622   2.975  0.6263  1.4119 -0.2949
 1862SOL    HW3 7494   3.156   1.634   2.847 -0.6594 -0.4754  0.3290
 1862SOL    MW4 7495   3.161   1.634   2.934  0.0966  0.1398  0.2882
 1863SOL     OW 7496   3.148   1.908   3.014  0.0185 -0.1645 -0.1096
 1863SOL    HW2 7497   3.134   1.815   2.996 -2.6450  0.0531  0.6481
 1863SOL    HW3 7498   3.064   1.949   2.995  0.8831  1.9651  0.4839
 1863SOL    MW4 7499   3.135   1.901   3.009 -0.2191  0.1452  0.0689
 1864SOL     OW 7500   3.350   2.080   2.975 -0.0569  0.0308 -0.6063
 1864SOL    HW2 7501   3.426   2.035   3.011  0.6939  1.2691 -0.5907
 1864SOL    HW3 7502   3.279   2.017   2.982  0.2964 -0.1382  2.1124
 1864SOL    MW4 7503   3.351   2.066   2.981  0.0889  0.1719 -0.2456
 1865SOL     OW 7504   3.356   2.311   3.125 -0.0905  0.3775 -0.3517
 1865SOL    HW2 7505   3.376   2.289   3.216 -1.2913  1.0785  0.1024
 1865SOL    HW3 7506   3.345   2.227   3.082  2.5034 -0.0007 -0.3393
 1865SOL    MW4 7507   3.357   2.297   3.132  0.0937  0.4199 -0.2902
 1866SOL     OW 7508   3.142   2.454   3.009 -0.1186  0.1283 -0.3940
 1866SOL    HW2 7509   3.216   2.405   3.045  0.9118  0.9773 -1.3450
 1866SOL    HW3 7510   3.160   2.459   2.915 -1.2339  0.6037 -0.5865
 1866SOL    MW4 7511   3.154   2.448   3.001 -0.1299  0.3030 -0.5448
 1867SOL     OW 7512   3.140   2.688   3.130  0.5944 -0.2467 -0.4766
 1867SOL    HW2 7513   3.143   2.689   3.226 -1.7103 -0.2649 -0.3888
 1867SOL    HW3 7514   3.136   2.595   3.108  1.0731 -0.2403 -0.6036
 1867SOL    MW4 7515   3.140   2.676   3.140  0.3533 -0.2484 -0.4818
 1868SOL     OW 7516   3.346   2.829   3.009 -0.6658 -0.4316  0.2418
 1868SOL    HW2 7517   3.345   2.916   3.049 -1.9823 -0.6622  0.7294
 1868SOL    HW3 7518   3.265   2.788   3.039 -1.2106 -0.9769 -1.8780
 1868SOL    MW4 7519   3.335   2.835   3.018 -0.9112 -0.5341  0.0265
 1869SOL     OW 7520   3.405   3.079   3.112 -0.0258 -0.6051 -0.2846
 1869SOL    HW2 7521   3.415   3.111   3.202  0.1946  0.3599 -0.6560
 1869SOL    HW3 7522   3.330   3.126   3.077  0.3105 -0.4750 -0.8389
 1869SOL    MW4 7523   3.397   3.089   3.119  0.0477 -0.4606 -0.4067
 1870SOL     OW 7524   3.171   3.187   3.016  0.2302 -0.5254  0.1930
 1870SOL    HW2 7525   3.083   3.167   3.048  0.0034 -0.5328 -0.4278
 1870SOL    HW3 7526   3.157   3.226   2.930  0.8806 -1.2776 -0.2575
 1870SOL    MW4 7527   3.157   3.190   3.009  0.2861 -0.6258  0.0517
 1871SOL     OW 7528   3.154   3.447   3.134 -0.2816  0.3972 -0.6811
 1871SOL    HW2 7529   3.216   3.494   3.078  0.0528 -0.4859 -1.0677
 1871SOL    HW3 7530   3.180   3.355   3.126  0.5077  0.3666  1.8396
 1871SOL    MW4 7531   3.166   3.441   3.125 -0.1333  0.2766 -0.3994
 1872SOL     OW 7532   3.348   3.593   3.009 -0.6396  0.5026 -0.6811
 1872SOL    HW2 7533   3.427   3.543   3.033 -0.5315  0.5774 -0.8720
 1872SOL    HW3 7534   3.366   3.682   3.039 -0.7833  0.4503 -0.4445
 1872SOL    MW4 7535   3.361   3.598   3.016 -0.6444  0.5057 -0.6752
 1873SOL     OW 7536   3.359   3.839   3.141 -0.2540 -0.1864  0.1603
 1873SOL    HW2 7537   3.363   3.833   3.236  0.5653  2.4360  0.3377
 1873SOL    HW3 7538   3.272   3.875   3.123  0.6348  2.0334  0.1330
 1873SOL    MW4 7539   3.348   3.843   3.151 -0.0288  0.4523  0.1800
 1874SOL     OW 7540   3.129   3.949   3.033 -0.0143  0.3121 -0.0400
 1874SOL    HW2 7541   3.053   3.895   3.057  0.4297 -0.4885 -0.3880
 1874SOL    HW3 7542   3.118   3.965   2.940  1.7223 -2.2553 -0.7320
 1874SOL    MW4 7543   3.118   3.944   3.024  0.2732 -0.1323 -0.1774
 1875SOL     OW 7544   3.149   4.210   3.135 -0.1472 -0.0364  0.0411
 1875SOL    HW2 7545   3.162   4.197   3.229 -1.6389  0.2078  0.2879
 1875SOL    HW3 7546   3.129   4.122   3.102  1.5939 -0.3477 -0.2814
 1875SOL    MW4 7547   3.148   4.196   3.143 -0.1144 -0.0453  0.0315
 1876SOL     OW 7548   3.338   4.369   3.010 -0.5073 -0.2838  0.0030
 1876SOL    HW2 7549   3.425   4.337   3.034 -0.5603 -1.1192 -0.8772
 1876SOL    HW3 7550   3.278   4.310   3.057 -0.5984  0.8949  1.3759
 1876SOL    MW4 7551   3.341   4.357   3.019 -0.5264 -0.2384  0.0682
 1877SOL     OW 7552   3.801   4.646   3.150 -0.0029  0.7577 -0.3586
 1877SOL    HW2 7553   3.800   4.556   3.118 -0.8105  0.3038  0.8791
 1877SOL    HW3 7554   3.716   4.682   3.125  0.5401  1.3595 -1.3434
 1877SOL    MW4 7555   3.790   4.639   3.143 -0.0377  0.7777 -0.3252
 1878SOL     OW 7556   3.569   0.109   3.027 -0.3921  0.7037  0.1009
 1878SOL    HW2 7557   3.601   0.195   3.056  1.1604 -0.0498  0.6813
 1878SOL    HW3 7558   3.572   0.114   2.931 -1.1643  1.6115  0.1237
 1878SOL    MW4 7559   3.574   0.121   3.018 -0.2892  0.7240  0.1805
 1879SOL     OW 7560   3.611   0.381   3.100 -0.4593 -0.5438 -0.1537
 1879SOL    HW2 7561   3.618   0.409   3.192  0.1628  0.4662 -0.5052
 1879SOL    HW3 7562   3.695   0.404   3.061 -0.5486 -1.4152 -0.8691
 1879SOL    MW4 7563   3.623   0.388   3.107 -0.3891 -0.5255 -0.2947
 1880SOL     OW 7564   3.839   0.477   2.997  0.1123  0.3675 -0.3447
 1880SOL    HW2 7565   3.905   0.421   3.039 -1.1670 -1.0956 -0.2414
 1880SOL    HW3 7566   3.848   0.561   3.042  1.0638 -0.1774  0.5314
 1880SOL    MW4 7567   3.849   0.481   3.009  0.0691  0.1026 -0.2155
 1881SOL     OW 7568   3.818   0.770   3.102  0.3108  0.0164  0.5138
 1881SOL    HW2 7569   3.827   0.802   3.192  0.9677  0.8244  0.1650
 1881SOL    HW3 7570   3.889   0.813   3.054 -1.2357  1.1089 -0.8302
 1881SOL    MW4 7571   3.829   0.780   3.107  0.1931  0.2672  0.2904
 1882SOL     OW 7572   3.607   0.901   3.029  0.7457 -0.4575  0.0442
 1882SOL    HW2 7573   3.682   0.850   3.060  0.3187 -0.4539  1.1182
 1882SOL    HW3 7574   3.531   0.857   3.066  0.2265 -0.3374 -0.8771
 1882SOL    MW4 7575   3.607   0.889   3.038  0.6211 -0.4411  0.0644
 1883SOL     OW 7576   3.583   1.172   3.108  0.2401 -0.5657  0.5600
 1883SOL    HW2 7577   3.670   1.197   3.075 -0.1572 -0.0681 -0.1331
 1883SOL    HW3 7578   3.578   1.077   3.094  0.3168 -0.4545 -0.2634
 1883SOL    MW4 7579   3.594   1.163   3.102  0.1976 -0.4854  0.3603
 1884SOL     OW 7580   3.829   1.258   3.009  0.2834 -0.2480  0.2304
 1884SOL    HW2 7581   3.825   1.350   3.033  1.0606 -0.3958  0.9137
 1884SOL    HW3 7582   3.805   1.257   2.916 -0.5872  0.5418  0.4349
 1884SOL    MW4 7583   3.825   1.270   3.000  0.2711 -0.1633  0.3474
 1885SOL     OW 7584   3.842   1.532   3.072  0.3387  0.2338  0.1518
 1885SOL    HW2 7585   3.838   1.549   3.166 -1.0829 -0.8406  0.3089
 1885SOL    HW3 7586   3.778   1.591   3.034  0.3734  0.1402 -0.0528
 1885SOL    MW4 7587   3.833   1.542   3.079  0.1559  0.0798  0.1457
 1886SOL     OW 7588   3.636   1.689   2.967 -0.0207  0.3369 -0.0123
 1886SOL    HW2 7589   3.620   1.779   2.995  1.4775  0.3582  0.8320
 1886SOL    HW3 7590   3.609   1.687   2.875 -2.1397  1.0564  0.5639
 1886SOL    MW4 7591   3.630   1.701   2.958 -0.1028  0.4346  0.1752
 1887SOL     OW 7592   3.600   1.957   3.056  0.4854 -0.1013 -0.1666
 1887SOL    HW2 7593   3.608   1.947   3.151  1.1083  0.2096 -0.1845
 1887SOL    HW3 7594   3.679   2.003   3.030  0.5819 -0.6886 -0.9172
 1887SOL    MW4 7595   3.611   1.962   3.065  0.5803 -0.1377 -0.2680
 1888SOL     OW 7596   3.832   2.078   2.992 -0.3698 -0.0445 -0.1682
 1888SOL    HW2 7597   3.811   2.159   3.037 -1.5911 -0.8396  0.7188
 1888SOL    HW3 7598   3.831   2.100   2.899 -0.8987  0.8925  0.0654
 1888SOL    MW4 7599   3.829   2.091   2.985 -0.6006 -0.0260 -0.0205
 1889SOL     OW 7600   3.799   2.347   3.096 -0.2055 -0.1378  0.3050
 1889SOL    HW2 7601   3.796   2.336   3.191 -0.4120  0.5578  0.3761
 1889SOL    HW3 7602   3.717   2.390   3.074 -0.1825 -0.3486 -0.1997
 1889SOL    MW4 7603   3.788   2.351   3.106 -0.2298 -0.0741  0.2480
 1890SOL     OW 7604   3.561   2.465   2.982 -0.0447 -0.2873  0.3346
 1890SOL    HW2 7605   3.564   2.544   3.037  0.1511 -0.2416  0.2619
 1890SOL    HW3 7606   3.497   2.408   3.025 -0.8988  0.3011 -0.1462
 1890SOL    MW4 7607   3.553   2.468   2.995 -0.1314 -0.2036  0.2613
 1891SOL     OW 7608   3.581   2.712   3.129  0.3804  0.2104  0.2755
 1891SOL    HW2 7609   3.643   2.746   3.066 -0.6371 -1.4270 -1.6559
 1891SOL    HW3 7610   3.499   2.758   3.110 -0.3138 -1.3704 -0.6016
 1891SOL    MW4 7611   3.578   2.723   3.118  0.1545 -0.2143 -0.0949
 1892SOL     OW 7612   3.766   2.820   2.956  0.0059 -0.2976  0.3226
 1892SOL    HW2 7613   3.764   2.902   3.006 -0.7623  0.4226 -0.8787
 1892SOL    HW3 7614   3.772   2.848   2.865 -0.5816 -1.5819 -0.1088
 1892SOL    MW4 7615   3.766   2.835   2.951 -0.1731 -0.3717  0.1070
 1893SOL     OW 7616   3.815   3.055   3.095 -0.1386  0.1088 -0.1544
 1893SOL    HW2 7617   3.893   3.109   3.087  0.4796 -0.7007  0.2888
 1893SOL    HW3 7618   3.744   3.108   3.059  0.3595  1.4134  0.7798
 1893SOL    MW4 7619   3.816   3.069   3.089  0.0083  0.1743  0.0272
 1894SOL     OW 7620   3.621   3.225   3.027  0.2197 -0.2551  0.1218
 1894SOL    HW2 7621   3.547   3.166   3.040  0.1049  0.0708  1.0595
 1894SOL    HW3 7622   3.615   3.252   2.936 -1.4485  0.5809  0.4517
 1894SOL    MW4 7623   3.611   3.221   3.017 -0.0157 -0.1020  0.2890
 1895SOL     OW 7624   3.555   3.458   3.138 -0.4247 -0.2252  0.0345
 1895SOL    HW2 7625   3.627   3.516   3.114 -0.0005 -1.2253 -1.1531
 1895SOL    HW3 7626   3.580   3.372   3.104 -1.2288 -1.0291  1.4088
 1895SOL    MW4 7627   3.568   3.454   3.130 -0.4749 -0.4630  0.0591
 1896SOL     OW 7628   3.762   3.616   3.055 -0.1679 -0.6157  0.3209
 1896SOL    HW2 7629   3.751   3.710   3.059 -0.4870 -0.6269 -0.1501
 1896SOL    HW3 7630   3.775   3.598   2.962  0.2504 -0.9958  0.4515
 1896SOL    MW4 7631   3.762   3.626   3.043 -0.1552 -0.6671  0.2766
 1897SOL     OW 7632   3.835   3.895   3.088  0.2125 -0.4514  0.1689
 1897SOL    HW2 7633   3.841   3.882   3.182  0.5543 -2.4941 -0.1238
 1897SOL    HW3 7634   3.749   3.936   3.075  0.8397  1.3672  1.4913
 1897SOL    MW4 7635   3.825   3.899   3.099  0.3405 -0.4809  0.3047
 1898SOL     OW 7636   3.570   3.985   3.033  0.3547  0.3644  0.2705
 1898SOL    HW2 7637   3.487   3.943   3.052  0.1643  0.6576  0.0924
 1898SOL    HW3 7638   3.568   4.000   2.938  1.1563 -0.7964  0.0583
 1898SOL    MW4 7639   3.559   3.981   3.023  0.4354  0.2501  0.2191
 1899SOL     OW 7640   3.570   4.255   3.113 -0.0495 -0.0325  0.0502
 1899SOL    HW2 7641   3.655   4.285   3.082 -0.3625  0.6995 -0.1093
 1899SOL    HW3 7642   3.562   4.166   3.080  0.3292  0.1628 -0.5668
 1899SOL    MW4 7643   3.580   4.247   3.105 -0.0410  0.0896 -0.0520
 1900SOL     OW 7644   3.806   4.382   3.022 -0.0879  0.2286  0.0835
 1900SOL    HW2 7645   3.890   4.350   3.054  1.0155  1.7153 -1.2493
 1900SOL    HW3 7646   3.818   4.391   2.927 -1.6143  0.8873 -0.0640
 1900SOL    MW4 7647   3.818   4.379   3.013 -0.1440  0.5116 -0.1116
 1901SOL     OW 7648   4.243   4.654   3.082 -0.5062  0.1112  0.2131
 1901SOL    HW2 7649   4.254   4.653   3.177  0.0116 -0.7074  0.1488
 1901SOL    HW3 7650   4.243   4.562   3.056  1.0626  0.3522 -0.7563
 1901SOL    MW4 7651   4.244   4.642   3.091 -0.2308  0.0353  0.0770
 1902SOL     OW 7652   4.003   0.058   2.984  0.4757 -0.1083  0.4264
 1902SOL    HW2 7653   4.087   0.023   3.014  0.5040  0.6688  1.2606
 1902SOL    HW3 7654   3.940   0.029   3.050 -0.0023 -1.1025 -0.4550
 1902SOL    MW4 7655   4.006   0.049   2.997  0.4158 -0.1369  0.4203
 1903SOL     OW 7656   4.031   0.312   3.129  0.2483  0.0279  0.0265
 1903SOL    HW2 7657   4.104   0.361   3.090  0.0169 -0.6112 -1.2602
 1903SOL    HW3 7658   4.046   0.222   3.099 -0.7931 -0.1933  0.1796
 1903SOL    MW4 7659   4.043   0.307   3.120  0.0806 -0.0856 -0.1230
 1904SOL     OW 7660   4.263   0.465   3.034  0.4066  0.1110 -0.0006
 1904SOL    HW2 7661   4.275   0.550   3.076  0.5395  0.1614 -0.1396
 1904SOL    HW3 7662   4.249   0.486   2.942 -3.1445  0.2180  0.4911
 1904SOL    MW4 7663   4.263   0.479   3.027 -0.0448  0.1318  0.0460
 1905SOL     OW 7664   4.292   0.725   3.144 -0.5096 -0.0705 -0.2748
 1905SOL    HW2 7665   4.210   0.770   3.124 -1.5195 -1.3926  0.8672
 1905SOL    HW3 7666   4.360   0.784   3.111 -1.8848  1.3260 -0.6539
 1905SOL    MW4 7667   4.290   0.739   3.137 -0.8240 -0.0606 -0.1738
 1906SOL     OW 7668   4.068   0.862   3.032 -0.2149 -0.1847  0.2871
 1906SOL    HW2 7669   4.068   0.953   3.061  0.1957 -0.1310  0.1184
 1906SOL    HW3 7670   4.076   0.866   2.937 -0.4340 -0.3889  0.2601
 1906SOL    MW4 7671   4.069   0.874   3.023 -0.1893 -0.2046  0.2613
 1907SOL     OW 7672   4.057   1.144   3.132 -0.0117 -0.5626  0.0764
 1907SOL    HW2 7673   4.059   1.172   3.224  1.6304  0.6436 -0.3042
 1907SOL    HW3 7674   3.976   1.181   3.097 -0.8597 -1.3811  1.1326
 1907SOL    MW4 7675   4.046   1.153   3.140  0.0935 -0.5115  0.1657
 1908SOL     OW 7676   4.266   1.269   2.996 -0.0225  0.1495  0.0308
 1908SOL    HW2 7677   4.195   1.230   3.046  0.1123  0.9541  0.8723
 1908SOL    HW3 7678   4.234   1.271   2.906 -0.1087 -1.6667  0.0100
 1908SOL    MW4 7679   4.253   1.264   2.990 -0.0162  0.0160  0.1392
 1909SOL     OW 7680   4.280   1.532   3.128  0.2017  0.1693 -0.4618
 1909SOL    HW2 7681   4.210   1.587   3.094  2.0728  2.3314 -0.9415
 1909SOL    HW3 7682   4.282   1.456   3.070 -0.6175  0.9229 -1.4936
 1909SOL    MW4 7683   4.271   1.529   3.116  0.3405  0.5540 -0.6611
 1910SOL     OW 7684   4.059   1.692   3.004 -0.2417  0.0196  0.4943
 1910SOL    HW2 7685   4.046   1.777   3.046 -0.5047  1.2337 -1.9473
 1910SOL    HW3 7686   3.995   1.635   3.045 -0.2269  1.0572  1.9982
 1910SOL    MW4 7687   4.049   1.696   3.015 -0.2742  0.3167  0.3710
 1911SOL     OW 7688   4.027   1.927   3.133  0.2213  0.3514  0.0338
 1911SOL    HW2 7689   4.112   1.954   3.100  0.3577  0.3096  0.3515
 1911SOL    HW3 7690   3.965   1.985   3.090  0.3010 -0.4107 -1.1336
 1911SOL    MW4 7691   4.030   1.938   3.123  0.2503  0.2451 -0.0784
 1912SOL     OW 7692   4.257   2.032   3.012  0.1860 -0.0073  0.2243
 1912SOL    HW2 7693   4.271   2.124   3.033  2.4643 -0.3789  0.3948
 1912SOL    HW3 7694   4.235   2.032   2.918  1.0311  0.6325  0.0260
 1912SOL    MW4 7695   4.256   2.044   3.002  0.5984  0.0281  0.2210
 1913SOL     OW 7696   4.259   2.302   3.077 -0.2106 -0.0347 -0.0672
 1913SOL    HW2 7697   4.199   2.363   3.034  0.2221 -0.0689 -0.7259
 1913SOL    HW3 7698   4.346   2.330   3.048  0.1794  0.6937  1.7422
 1913SOL    MW4 7699   4.263   2.314   3.067 -0.1020  0.0567  0.0846
 1914SOL     OW 7700   4.050   2.465   2.979  0.0986 -0.0633 -0.0095
 1914SOL    HW2 7701   4.038   2.556   3.008 -0.3890 -0.4746  1.0929
 1914SOL    HW3 7702   3.979   2.417   3.020  0.2340 -0.9140 -0.7612
 1914SOL    MW4 7703   4.039   2.471   2.989  0.0525 -0.2301  0.0367
 1915SOL     OW 7704   4.000   2.731   3.079  0.2462  0.5820 -0.0245
 1915SOL    HW2 7705   3.998   2.732   3.175  0.6863 -0.9704  0.0234
 1915SOL    HW3 7706   3.912   2.758   3.053  0.0983  0.9298  0.8169
 1915SOL    MW4 7707   3.988   2.734   3.089  0.2849  0.4232  0.0927
 1916SOL     OW 7708   4.263   2.827   3.014 -0.6771 -0.1271 -0.3825
 1916SOL    HW2 7709   4.175   2.795   3.033 -0.6010 -0.8685 -1.2748
 1916SOL    HW3 7710   4.322   2.761   3.051 -0.4974 -0.0660 -0.5554
 1916SOL    MW4 7711   4.260   2.814   3.022 -0.6433 -0.2170 -0.5231
 1917SOL     OW 7712   4.273   3.093   3.102  0.0824 -0.2659  0.3194
 1917SOL    HW2 7713   4.188   3.127   3.076  0.4876  0.1680 -0.4697
 1917SOL    HW3 7714   4.278   3.007   3.060  0.3406  0.0312 -0.2724
 1917SOL    MW4 7715   4.263   3.086   3.093  0.1698 -0.1693  0.1371
 1918SOL     OW 7716   4.032   3.217   3.034  0.6012 -0.1890  0.4571
 1918SOL    HW2 7717   4.029   3.309   3.061  1.4099 -0.2371  0.7126
 1918SOL    HW3 7718   4.029   3.221   2.938  0.2683  0.0836  0.4761
 1918SOL    MW4 7719   4.031   3.230   3.025  0.6638 -0.1590  0.4933
 1919SOL     OW 7720   4.021   3.483   3.107 -0.1220 -0.0370 -0.3209
 1919SOL    HW2 7721   4.033   3.469   3.201  1.0636 -0.0482 -0.4565
 1919SOL    HW3 7722   3.937   3.528   3.099  0.1782  0.7634  0.8273
 1919SOL    MW4 7723   4.012   3.487   3.118  0.0744  0.0672 -0.1872
 1920SOL     OW 7724   4.241   3.585   2.980 -0.4239  0.5472 -0.2533
 1920SOL    HW2 7725   4.251   3.671   3.021 -0.8496 -0.2353  1.5242
 1920SOL    HW3 7726   4.172   3.542   3.031 -0.1785 -0.8782 -1.0959
 1920SOL    MW4 7727   4.233   3.591   2.992 -0.4478  0.2558 -0.1302
 1921SOL     OW 7728   4.298   3.841   3.075 -0.3129 -0.0135  0.3440
 1921SOL    HW2 7729   4.223   3.898   3.055 -0.2482 -0.0912 -0.1427
 1921SOL    HW3 7730   4.374   3.898   3.067 -0.2300 -0.2230 -0.3827
 1921SOL    MW4 7731   4.298   3.856   3.071 -0.2937 -0.0513  0.1841
 1922SOL     OW 7732   4.072   3.998   3.030  0.0979 -0.1282 -1.0883
 1922SOL    HW2 7733   4.063   4.080   3.080  0.9012 -0.1358 -0.9340
 1922SOL    HW3 7734   3.996   3.946   3.057  0.1189  0.1697 -0.4395
 1922SOL    MW4 7735   4.060   4.002   3.040  0.2065 -0.0896 -0.9820
 1923SOL     OW 7736   4.046   4.254   3.137  0.1526 -0.3586 -0.1349
 1923SOL    HW2 7737   4.054   4.270   3.231  0.5558 -3.3808  0.4067
 1923SOL    HW3 7738   4.104   4.319   3.097  0.0992  0.8636  1.6850
 1923SOL    MW4 7739   4.055   4.265   3.144  0.1988 -0.5960  0.1764
 1924SOL     OW 7740   4.261   4.395   3.009  0.0056  0.2685  0.2381
 1924SOL    HW2 7741   4.343   4.362   3.048 -0.4504 -1.2697 -0.0742
 1924SOL    HW3 7742   4.273   4.384   2.915  0.1772  1.8243  0.0612
 1924SOL    MW4 7743   4.273   4.389   3.002 -0.0315  0.2713  0.1736
 1925SOL     OW 7744   0.198   4.642   3.434 -0.5426 -0.1167  0.0954
 1925SOL    HW2 7745   0.284   4.683   3.442 -1.3387  1.2176  2.1670
 1925SOL    HW3 7746   0.209   4.555   3.471 -0.0090 -0.0768  0.0378
 1925SOL    MW4 7747   0.211   4.636   3.440 -0.5772  0.0648  0.3610
 1926SOL     OW 7748   4.442   0.115   3.518  0.2116  0.2780  0.4872
 1926SOL    HW2 7749   4.445   0.199   3.473 -0.5521  0.3503  0.5630
 1926SOL    HW3 7750   4.519   0.068   3.486 -0.2396  0.3915 -0.7891
 1926SOL    MW4 7751   4.452   0.120   3.508  0.0510  0.3026  0.3288
 1927SOL     OW 7752   0.020   0.350   3.409 -0.1600  0.1463  0.6129
 1927SOL    HW2 7753  -0.061   0.392   3.437  0.2034  1.1238  0.2098
 1927SOL    HW3 7754   0.089   0.410   3.435  0.5975 -1.5500  2.6161
 1927SOL    MW4 7755   0.018   0.363   3.416 -0.0124  0.0514  0.8242
 1928SOL     OW 7756   0.205   0.527   3.510 -0.1420  0.1250 -0.2098
 1928SOL    HW2 7757   0.266   0.479   3.454 -0.8163 -1.7843  0.6603
 1928SOL    HW3 7758   0.196   0.612   3.467  2.5650  0.1972 -0.7264
 1928SOL    MW4 7759   0.212   0.532   3.497  0.1262 -0.1174 -0.1631
 1929SOL     OW 7760   0.174   0.768   3.396  0.1268 -0.1185 -0.0589
 1929SOL    HW2 7761   0.250   0.808   3.439 -0.1502 -0.6355  0.9247
 1929SOL    HW3 7762   0.098   0.809   3.439 -0.1555 -0.4229 -0.2675
 1929SOL    MW4 7763   0.174   0.779   3.407  0.0530 -0.2269  0.0432
 1930SOL     OW 7764   4.453   0.884   3.528  0.1571  0.2397  0.0246
 1930SOL    HW2 7765   4.440   0.878   3.623 -1.6977 -0.8744 -0.2646
 1930SOL    HW3 7766   4.450   0.978   3.510 -0.1064  0.4319  0.9994
 1930SOL    MW4 7767   4.451   0.895   3.538 -0.1225  0.1181  0.1152
 1931SOL     OW 7768   4.458   1.158   3.441 -0.3632 -0.0807  0.1967
 1931SOL    HW2 7769   4.551   1.181   3.439 -0.5797  0.8225 -0.0537
 1931SOL    HW3 7770   4.434   1.147   3.349 -0.5380 -0.1512  0.2504
 1931SOL    MW4 7771   4.467   1.160   3.429 -0.4144  0.0291  0.1705
 1932SOL     OW 7772   0.210   1.245   3.481 -0.1572 -0.4514  0.3805
 1932SOL    HW2 7773   0.292   1.198   3.466 -0.3708 -0.4882 -0.7418
 1932SOL    HW3 7774   0.229   1.334   3.451 -0.2635 -0.2426  0.9338
 1932SOL    MW4 7775   0.224   1.251   3.475 -0.1995 -0.4288  0.3052
 1933SOL     OW 7776   0.251   1.505   3.386 -0.4488  0.2727  0.4543
 1933SOL    HW2 7777   0.320   1.566   3.411 -0.4470  0.2131  0.5962
 1933SOL    HW3 7778   0.251   1.507   3.290 -0.0456  0.0464  0.4449
 1933SOL    MW4 7779   0.260   1.513   3.376 -0.3954  0.2348  0.4718
 1934SOL     OW 7780   0.020   1.668   3.445  0.4988  0.0269  0.2100
 1934SOL    HW2 7781  -0.050   1.622   3.399 -0.1025  0.7026  0.4289
 1934SOL    HW3 7782   0.093   1.606   3.448  0.0791 -0.4964 -0.4702
 1934SOL    MW4 7783   0.020   1.654   3.440  0.3641  0.0470  0.1490
 1935SOL     OW 7784   0.070   1.929   3.348 -0.2059  0.3720 -0.0496
 1935SOL    HW2 7785   0.059   1.838   3.376  1.0553  0.4058  0.5824
 1935SOL    HW3 7786   0.048   1.928   3.255 -1.0613 -0.4092  0.1538
 1935SOL    MW4 7787   0.066   1.917   3.339 -0.1524  0.2733  0.0608
 1936SOL     OW 7788   0.272   2.054   3.477  0.2641 -0.0935 -0.1402
 1936SOL    HW2 7789   0.244   2.046   3.568  1.4573  0.3692  0.2819
 1936SOL    HW3 7790   0.210   2.001   3.427  0.4606 -1.5248  1.1057
 1936SOL    MW4 7791   0.260   2.046   3.482  0.4475 -0.2213  0.0799
 1937SOL     OW 7792   0.248   2.325   3.371 -0.2472  0.2164  0.0508
 1937SOL    HW2 7793   0.167   2.362   3.407 -0.5782  0.0743 -0.5401
 1937SOL    HW3 7794   0.256   2.240   3.413 -0.9964 -0.2378 -0.7172
 1937SOL    MW4 7795   0.238   2.319   3.381 -0.3897  0.1378 -0.1285
 1938SOL     OW 7796   0.004   2.435   3.472  0.2822  0.5731  0.0133
 1938SOL    HW2 7797  -0.006   2.445   3.567  0.8024  1.5236 -0.0221
 1938SOL    HW3 7798  -0.075   2.389   3.444  0.5893 -0.6355  1.0459
 1938SOL    MW4 7799  -0.008   2.430   3.481  0.3915  0.5391  0.1450
 1939SOL     OW 7800   0.015   2.697   3.400  0.6952 -0.1833  0.2700
 1939SOL    HW2 7801   0.080   2.752   3.443  1.5190 -0.7850 -0.1864
 1939SOL    HW3 7802   0.030   2.610   3.436  0.9045 -0.5441 -0.6811
 1939SOL    MW4 7803   0.026   2.693   3.410  0.8315 -0.3104  0.0842
 1940SOL     OW 7804   0.238   2.832   3.526 -0.1800  0.1708 -0.2975
 1940SOL    HW2 7805   0.302   2.785   3.473 -1.2361 -1.0557 -0.5011
 1940SOL    HW3 7806   0.240   2.921   3.493  0.2123 -0.2488 -1.4253
 1940SOL    MW4 7807   0.247   2.837   3.515 -0.2676 -0.0463 -0.4733
 1941SOL     OW 7808   0.215   3.103   3.400 -0.3667 -0.0238  0.1771
 1941SOL    HW2 7809   0.130   3.122   3.438 -0.4905  0.1846 -0.2036
 1941SOL    HW3 7810   0.201   3.106   3.305  0.2068  0.6542  0.1082
 1941SOL    MW4 7811   0.202   3.106   3.393 -0.3074  0.0932  0.1178
 1942SOL     OW 7812   4.477   3.201   3.506 -0.6396  0.1498 -0.5226
 1942SOL    HW2 7813   4.416   3.150   3.453  0.1064 -0.8588 -0.4316
 1942SOL    HW3 7814   4.474   3.289   3.469 -0.8328 -0.3179 -1.6332
 1942SOL    MW4 7815   4.469   3.206   3.494 -0.5665 -0.0451 -0.6573
 1943SOL     OW 7816   0.003   3.441   3.365  0.3783  0.4020 -0.2299
 1943SOL    HW2 7817  -0.074   3.489   3.396  1.0270  0.6987  0.9922
 1943SOL    HW3 7818   0.008   3.459   3.272 -0.0146  1.8376  0.0186
 1943SOL    MW4 7819  -0.007   3.449   3.357  0.4120  0.6306 -0.0358
 1944SOL     OW 7820   0.215   3.595   3.496 -0.0380  0.0295 -0.6721
 1944SOL    HW2 7821   0.199   3.584   3.590  2.5161 -3.2534 -0.5109
 1944SOL    HW3 7822   0.139   3.555   3.454 -0.4103  0.0274 -0.0001
 1944SOL    MW4 7823   0.203   3.588   3.503  0.2499 -0.4036 -0.5622
 1945SOL     OW 7824   0.227   3.888   3.445  0.1568  0.0222  0.2272
 1945SOL    HW2 7825   0.148   3.942   3.444 -0.1351 -0.4013 -0.0668
 1945SOL    HW3 7826   0.196   3.801   3.472  0.8172  0.2927  1.8858
 1945SOL    MW4 7827   0.212   3.883   3.448  0.2054  0.0019  0.4072
 1946SOL     OW 7828   4.471   4.024   3.479 -0.4417  0.2390  0.0773
 1946SOL    HW2 7829   4.475   4.008   3.573  2.4167  0.6000  0.0649
 1946SOL    HW3 7830   4.478   4.119   3.471 -0.4207  0.1897 -0.5127
 1946SOL    MW4 7831   4.472   4.035   3.490 -0.0620  0.2799 -0.0021
 1947SOL     OW 7832   0.022   4.296   3.424 -0.6059 -0.3281 -0.5223
 1947SOL    HW2 7833  -0.062   4.332   3.454 -0.5720 -0.5073 -0.2059
 1947SOL    HW3 7834   0.088   4.345   3.472 -0.5622 -0.8841  0.0005
 1947SOL    MW4 7835   0.020   4.307   3.434 -0.5957 -0.4258 -0.4115
 1948SOL     OW 7836   0.239   4.397   3.559 -0.6882 -0.0035 -0.4679
 1948SOL    HW2 7837   0.249   4.390   3.654 -0.4643  0.5382 -0.4469
 1948SOL    HW3 7838   0.315   4.351   3.524 -0.2401  0.6504 -0.3656
 1948SOL    MW4 7839   0.251   4.390   3.567 -0.5995  0.1545 -0.4516
 1949SOL     OW 7840   0.664   0.006   3.360 -0.6211 -0.2153  0.3286
 1949SOL    HW2 7841   0.749   0.047   3.377 -0.2336 -0.7788 -0.2414
 1949SOL    HW3 7842   0.668  -0.021   3.269 -0.9895 -1.2569  0.6205
 1949SOL    MW4 7843   0.676   0.008   3.350 -0.6185 -0.4271  0.2918
 1950SOL     OW 7844   0.441   0.145   3.477 -0.7198  0.1115 -0.6505
 1950SOL    HW2 7845   0.446   0.116   3.568 -2.0177  0.0797 -0.5821
 1950SOL    HW3 7846   0.521   0.111   3.437 -0.0011  0.3572  0.5363
 1950SOL    MW4 7847   0.453   0.136   3.484 -0.7962  0.1398 -0.4847
 1951SOL     OW 7848   0.397   0.381   3.352  0.4008  0.3702 -0.5162
 1951SOL    HW2 7849   0.483   0.407   3.384  0.8468 -0.2350 -1.1935
 1951SOL    HW3 7850   0.388   0.290   3.381 -0.1623  0.5431 -0.1459
 1951SOL    MW4 7851   0.407   0.372   3.360  0.3853  0.3132 -0.5567
 1952SOL     OW 7852   0.640   0.478   3.451 -0.4675 -0.3407  0.6168
 1952SOL    HW2 7853   0.645   0.496   3.545 -0.9925 -1.1582  0.7988
 1952SOL    HW3 7854   0.721   0.430   3.432 -1.0436 -1.4561  0.9357
 1952SOL    MW4 7855   0.652   0.474   3.461 -0.6127 -0.5957  0.6828
 1953SOL     OW 7856   0.656   0.758   3.405  0.3595 -0.1691 -1.0055
 1953SOL    HW2 7857   0.571   0.793   3.432  0.3465 -1.3729  0.5673
 1953SOL    HW3 7858   0.645   0.663   3.409  1.4670 -0.3416 -1.8479
 1953SOL    MW4 7859   0.643   0.750   3.409  0.5039 -0.3507 -0.9093
 1954SOL     OW 7860   0.421   0.874   3.514  0.1846  0.2122 -0.0969
 1954SOL    HW2 7861   0.412   0.878   3.609 -0.2066 -0.0723 -0.1210
 1954SOL    HW3 7862   0.437   0.965   3.487  0.7281  0.2307  0.2827
 1954SOL    MW4 7863   0.422   0.887   3.523  0.2047  0.1773 -0.0501
 1955SOL     OW 7864   0.452   1.130   3.417 -0.3090  0.2921  0.5923
 1955SOL    HW2 7865   0.532   1.177   3.442 -0.4561  1.1097 -0.4375
 1955SOL    HW3 7866   0.448   1.138   3.321 -0.4556 -1.6431  0.4152
 1955SOL    MW4 7867   0.462   1.137   3.407 -0.3477  0.1446  0.4332
 1956SOL     OW 7868   0.672   1.272   3.505 -0.1846  0.0311  0.0836
 1956SOL    HW2 7869   0.747   1.220   3.476  0.0914  1.0001 -0.9780
 1956SOL    HW3 7870   0.680   1.354   3.457 -1.4934  0.4456  0.5582
 1956SOL    MW4 7871   0.683   1.276   3.495 -0.3209  0.2135  0.0060
 1957SOL     OW 7872   0.685   1.522   3.365 -0.1892 -0.0112 -0.1231
 1957SOL    HW2 7873   0.744   1.574   3.420 -0.3374  1.4907 -1.3534
 1957SOL    HW3 7874   0.597   1.546   3.394 -0.2511  0.0512 -0.3604
 1957SOL    MW4 7875   0.681   1.532   3.376 -0.2170  0.1953 -0.3166
 1958SOL     OW 7876   0.454   1.644   3.479 -0.2878 -0.2808  0.7291
 1958SOL    HW2 7877   0.438   1.662   3.571  0.0938 -0.0047  0.7412
 1958SOL    HW3 7878   0.459   1.730   3.437 -1.5168 -0.4267  0.2670
 1958SOL    MW4 7879   0.453   1.657   3.485 -0.3996 -0.2638  0.6700
 1959SOL     OW 7880   0.467   1.895   3.363 -0.5376 -0.3358  0.0030
 1959SOL    HW2 7881   0.384   1.937   3.387 -0.7198 -0.8408  0.2808
 1959SOL    HW3 7882   0.463   1.886   3.268 -0.0475  1.1948 -0.1776
 1959SOL    MW4 7883   0.455   1.899   3.354 -0.4969 -0.2005  0.0157
 1960SOL     OW 7884   0.653   2.053   3.473  0.1100  0.1124  0.4490
 1960SOL    HW2 7885   0.652   2.056   3.569  0.2456  0.7629  0.4355
 1960SOL    HW3 7886   0.591   1.984   3.450  0.2975 -0.2437  1.0138
 1960SOL    MW4 7887   0.644   2.045   3.483  0.1526  0.1514  0.5219
 1961SOL     OW 7888   0.668   2.310   3.336 -0.1748  0.0701  0.1990
 1961SOL    HW2 7889   0.729   2.368   3.381 -0.7131  0.3221  0.6151
 1961SOL    HW3 7890   0.663   2.232   3.391  1.0723 -0.6718 -0.7097
 1961SOL    MW4 7891   0.676   2.307   3.349 -0.0813  0.0057  0.1345
 1962SOL     OW 7892   0.467   2.448   3.477  0.2619  0.1209  0.0024
 1962SOL    HW2 7893   0.539   2.404   3.432  1.2245  2.6355 -1.0248
 1962SOL    HW3 7894   0.389   2.400   3.450  1.0276  0.3867 -2.9284
 1962SOL    MW4 7895   0.466   2.436   3.467  0.4899  0.4880 -0.5198
 1963SOL     OW 7896   0.433   2.718   3.365  0.1005 -0.2875 -0.3161
 1963SOL    HW2 7897   0.443   2.626   3.389 -0.0922 -0.2125  0.0426
 1963SOL    HW3 7898   0.436   2.718   3.269 -0.1890 -0.7012 -0.3260
 1963SOL    MW4 7899   0.435   2.706   3.355  0.0369 -0.3321 -0.2704
 1964SOL     OW 7900   0.664   2.806   3.456  0.0397 -0.1362 -0.7345
 1964SOL    HW2 7901   0.732   2.760   3.407  0.0535 -2.5556  1.4291
 1964SOL    HW3 7902   0.582   2.769   3.423  0.0262 -1.3033  0.5593
 1964SOL    MW4 7903   0.662   2.795   3.445  0.0398 -0.6094 -0.2785
 1965SOL     OW 7904   0.671   3.068   3.349 -1.0354  0.1536  0.3221
 1965SOL    HW2 7905   0.615   3.125   3.402  0.5461  0.3459  1.8340
 1965SOL    HW3 7906   0.666   2.983   3.392 -0.8211 -0.0402 -0.0332
 1965SOL    MW4 7907   0.663   3.064   3.361 -0.7985  0.1533  0.4745
 1966SOL     OW 7908   0.469   3.209   3.488  0.0345 -0.0838 -0.2971
 1966SOL    HW2 7909   0.464   3.218   3.583  0.3514  1.9226 -0.4501
 1966SOL    HW3 7910   0.388   3.165   3.463 -0.0891 -0.5201  0.8839
 1966SOL    MW4 7911   0.458   3.204   3.497  0.0601  0.1230 -0.1616
 1967SOL     OW 7912   0.448   3.467   3.391 -0.1072  0.2315  0.5243
 1967SOL    HW2 7913   0.361   3.493   3.421 -1.0619 -0.8415 -1.2004
 1967SOL    HW3 7914   0.460   3.378   3.424  0.3083  0.3558  0.7119
 1967SOL    MW4 7915   0.438   3.459   3.399 -0.1784  0.1061  0.3219
 1968SOL     OW 7916   0.651   3.611   3.510 -0.4238  0.1049 -0.1610
 1968SOL    HW2 7917   0.724   3.553   3.486  0.2660  0.5232  0.8598
 1968SOL    HW3 7918   0.573   3.567   3.477  0.1483 -1.1510  0.1307
 1968SOL    MW4 7919   0.651   3.597   3.503 -0.2573 -0.0055  0.0119
 1969SOL     OW 7920   0.619   3.858   3.396 -0.3444 -0.2823 -0.0943
 1969SOL    HW2 7921   0.553   3.899   3.453 -0.3540 -1.3814  0.7061
 1969SOL    HW3 7922   0.630   3.771   3.433  1.9315  0.0514  0.0637
 1969SOL    MW4 7923   0.612   3.852   3.409 -0.0454 -0.3834  0.0319
 1970SOL     OW 7924   0.454   3.978   3.562 -0.2558 -0.1088  0.2954
 1970SOL    HW2 7925   0.463   4.068   3.529 -0.1285 -0.5865 -0.9969
 1970SOL    HW3 7926   0.370   3.948   3.526  0.3721 -0.9899 -0.4495
 1970SOL    MW4 7927   0.444   3.986   3.552 -0.1562 -0.2880  0.0265
 1971SOL     OW 7928   0.451   4.237   3.448 -0.3073 -0.5803  0.4209
 1971SOL    HW2 7929   0.529   4.288   3.424 -0.8546  0.1593  0.2042
 1971SOL    HW3 7930   0.409   4.217   3.364 -1.5097  0.8661  0.6726
 1971SOL    MW4 7931   0.456   4.241   3.434 -0.5382 -0.2918  0.4253
 1972SOL     OW 7932   0.672   4.415   3.466  0.4712 -0.1483 -0.3267
 1972SOL    HW2 7933   0.736   4.385   3.401  2.1944  1.7042  0.4278
 1972SOL    HW3 7934   0.661   4.508   3.446 -1.2413 -0.2378  0.2007
 1972SOL    MW4 7935   0.679   4.424   3.455  0.4727  0.0844 -0.1578
 1973SOL     OW 7936   1.162   4.666   3.413  0.2095  0.4043 -0.0159
 1973SOL    HW2 7937   1.241   4.713   3.440 -0.2642  0.3082  1.5810
 1973SOL    HW3 7938   1.178   4.644   3.321  1.5861  1.3067 -0.0161
 1973SOL    MW4 7939   1.175   4.670   3.404  0.3285  0.5112  0.1948
 1974SOL     OW 7940   0.892   0.361   3.411 -0.1314 -0.0529  0.1851
 1974SOL    HW2 7941   0.898   0.270   3.438  0.6040  0.3639  1.4870
 1974SOL    HW3 7942   0.974   0.400   3.440 -0.2294  0.9126 -0.8047
 1974SOL    MW4 7943   0.903   0.354   3.419 -0.0473  0.1295  0.2265
 1975SOL     OW 7944   0.892   0.375   3.136  0.3820  0.0975 -0.0754
 1975SOL    HW2 7945   0.972   0.410   3.098 -0.6849  2.9564  0.1604
 1975SOL    HW3 7946   0.908   0.373   3.230  0.6501 -0.5751 -0.1383
 1975SOL    MW4 7947   0.904   0.379   3.143  0.2766  0.3859 -0.0527
 1976SOL     OW 7948   1.134   0.470   3.484  0.1969 -0.4274 -0.4330
 1976SOL    HW2 7949   1.129   0.477   3.579  0.0933 -0.3438 -0.4448
 1976SOL    HW3 7950   1.155   0.559   3.454 -1.5479 -0.0593 -0.6167
 1976SOL    MW4 7951   1.136   0.483   3.493 -0.0471 -0.3678 -0.4590
 1977SOL     OW 7952   1.152   0.749   3.402  0.4789 -0.0584  0.0780
 1977SOL    HW2 7953   1.216   0.816   3.424  0.0904  1.0139 -1.9083
 1977SOL    HW3 7954   1.067   0.789   3.423  0.2796 -0.2019 -0.4550
 1977SOL    MW4 7955   1.149   0.763   3.408  0.4015  0.0641 -0.2542
 1978SOL     OW 7956   0.906   0.879   3.489  0.2834 -0.5388  0.3318
 1978SOL    HW2 7957   0.903   0.972   3.468  1.2077 -0.5669  0.0840
 1978SOL    HW3 7958   0.820   0.846   3.463  0.0107  0.2108  0.2700
 1978SOL    MW4 7959   0.894   0.887   3.483  0.3694 -0.4436  0.2913
 1979SOL     OW 7960   0.897   1.141   3.401  0.6667 -0.4189 -0.1328
 1979SOL    HW2 7961   0.975   1.188   3.429 -0.3064  0.9835  0.3014
 1979SOL    HW3 7962   0.912   1.121   3.309  1.6302 -0.3745  0.0073
 1979SOL    MW4 7963   0.909   1.145   3.393  0.6654 -0.2280 -0.0570
 1980SOL     OW 7964   1.098   1.312   3.511 -0.4990 -0.3601  0.0503
 1980SOL    HW2 7965   1.114   1.325   3.604 -0.2330 -0.7981  0.0694
 1980SOL    HW3 7966   1.099   1.400   3.474  0.1500 -0.2373  0.3435
 1980SOL    MW4 7967   1.100   1.325   3.518 -0.3784 -0.4016  0.0913
 1981SOL     OW 7968   1.082   1.580   3.395 -0.0412  0.2012  0.2195
 1981SOL    HW2 7969   1.174   1.605   3.405  0.1319 -1.0003  1.7506
 1981SOL    HW3 7970   1.077   1.542   3.307  0.7436  1.0270 -0.1906
 1981SOL    MW4 7971   1.094   1.578   3.384  0.0851  0.1516  0.3674
 1982SOL     OW 7972   0.853   1.717   3.470 -0.6426 -0.2818  0.4550
 1982SOL    HW2 7973   0.864   1.795   3.417 -1.2374 -0.8267 -0.4960
 1982SOL    HW3 7974   0.928   1.662   3.449 -1.5899 -1.0961 -0.9068
 1982SOL    MW4 7975   0.864   1.720   3.461 -0.8461 -0.4611  0.1502
 1983SOL     OW 7976   0.856   1.940   3.334  0.2193  0.0924 -0.0370
 1983SOL    HW2 7977   0.939   1.972   3.369  0.9352 -0.9302 -0.7695
 1983SOL    HW3 7978   0.789   1.979   3.391  1.1967  0.8920  0.5798
 1983SOL    MW4 7979   0.858   1.949   3.346  0.4427  0.0629 -0.0522
 1984SOL     OW 7980   1.106   2.013   3.475  0.2096  0.0959  0.3194
 1984SOL    HW2 7981   1.197   1.989   3.456 -0.2330 -0.0784 -1.7400
 1984SOL    HW3 7982   1.107   2.108   3.480  0.3064  0.1692 -0.8986
 1984SOL    MW4 7983   1.118   2.022   3.473  0.1639  0.0827 -0.1132
 1985SOL     OW 7984   1.097   2.278   3.432  0.2800 -0.0136 -0.5888
 1985SOL    HW2 7985   1.179   2.318   3.460  0.8131 -1.2843 -0.3326
 1985SOL    HW3 7986   1.105   2.271   3.337 -0.1753  1.2621 -0.7370
 1985SOL    MW4 7987   1.109   2.282   3.423  0.2903 -0.0131 -0.5744
 1986SOL     OW 7988   0.896   2.474   3.451 -0.8844 -0.0518 -0.0077
 1986SOL    HW2 7989   0.864   2.470   3.541 -0.8062 -0.4190  0.0037
 1986SOL    HW3 7990   0.960   2.403   3.444 -1.6320 -0.6787 -0.6415
 1986SOL    MW4 7991   0.900   2.464   3.462 -0.9727 -0.1829 -0.0899
 1987SOL     OW 7992   0.919   2.722   3.335  0.2655  0.5976  0.2502
 1987SOL    HW2 7993   0.997   2.766   3.369  0.1499  0.0649  1.2223
 1987SOL    HW3 7994   0.919   2.637   3.379 -1.1225  0.7844  0.6257
 1987SOL    MW4 7995   0.929   2.717   3.345  0.0671  0.5522  0.4277
 1988SOL     OW 7996   1.135   2.853   3.436  0.3322 -0.5433 -0.1042
 1988SOL    HW2 7997   1.138   2.844   3.531  0.6927  0.0643 -0.0566
 1988SOL    HW3 7998   1.189   2.781   3.403  1.7553  0.3471  0.2187
 1988SOL    MW4 7999   1.143   2.842   3.444  0.5674 -0.3457 -0.0553
 1989SOL     OW 8000   1.087   3.105   3.312 -0.1516 -0.3995  0.0701
 1989SOL    HW2 8001   1.108   3.022   3.355 -0.4453 -0.5291 -0.0332
 1989SOL    HW3 8002   1.101   3.088   3.219  1.5149  0.1934  0.2007
 1989SOL    MW4 8003   1.092   3.091   3.306  0.0294 -0.3383  0.0734
 1990SOL     OW 8004   0.883   3.204   3.482 -0.0196  0.1234 -0.2166
 1990SOL    HW2 8005   0.953   3.173   3.424 -0.6308  0.0135 -0.9044
 1990SOL    HW3 8006   0.803   3.173   3.441 -0.6379  2.2994 -0.7170
 1990SOL    MW4 8007   0.882   3.196   3.469 -0.1819  0.3960 -0.3731
 1991SOL     OW 8008   0.867   3.463   3.390  0.1576  0.1927 -0.0792
 1991SOL    HW2 8009   0.878   3.372   3.419 -1.1502 -0.2094 -0.7946
 1991SOL    HW3 8010   0.893   3.462   3.298 -0.7451  0.3396 -0.3419
 1991SOL    MW4 8011   0.872   3.451   3.381 -0.1340  0.1588 -0.2081
 1992SOL     OW 8012   1.082   3.634   3.454  0.1900  0.1187 -0.0907
 1992SOL    HW2 8013   1.092   3.622   3.549 -0.0257  0.8186  0.0295
 1992SOL    HW3 8014   0.997   3.596   3.434 -0.6205  1.6622  0.3318
 1992SOL    MW4 8015   1.072   3.628   3.464  0.0546  0.4144 -0.0188
 1993SOL     OW 8016   1.087   3.921   3.391  0.3780  0.2978  0.3548
 1993SOL    HW2 8017   1.169   3.950   3.432  0.7386 -0.6000  0.2759
 1993SOL    HW3 8018   1.086   3.826   3.405 -0.1574  0.1742 -0.5440
 1993SOL    MW4 8019   1.098   3.912   3.399  0.3549  0.1631  0.2260
 1994SOL     OW 8020   0.835   4.030   3.470 -0.0170  0.1536 -0.3500
 1994SOL    HW2 8021   0.920   3.990   3.455 -0.1707  0.6638 -2.7071
 1994SOL    HW3 8022   0.771   3.964   3.443 -0.4219 -0.5310  2.1614
 1994SOL    MW4 8023   0.838   4.016   3.465 -0.0906  0.1302 -0.3295
 1995SOL     OW 8024   0.863   4.273   3.314  0.1041 -0.0009 -0.2226
 1995SOL    HW2 8025   0.855   4.195   3.369 -0.6669 -0.0015 -0.3268
 1995SOL    HW3 8026   0.900   4.241   3.232 -1.0538 -0.4229 -0.5962
 1995SOL    MW4 8027   0.867   4.259   3.310 -0.1504 -0.0567 -0.2859
 1996SOL     OW 8028   1.071   4.397   3.459 -0.4768 -0.1876  0.4933
 1996SOL    HW2 8029   1.000   4.360   3.407  0.4055 -0.0789 -0.8349
 1996SOL    HW3 8030   1.077   4.489   3.430 -0.0312 -0.1076  0.8308
 1996SOL    MW4 8031   1.063   4.404   3.448 -0.3016 -0.1626  0.3629
 1997SOL     OW 8032   1.569   4.646   3.373  0.2876 -0.1607 -0.4405
 1997SOL    HW2 8033   1.590   4.568   3.423  1.1787  0.2168 -0.2089
 1997SOL    HW3 8034   1.500   4.689   3.424  0.4811 -0.2995 -0.0572
 1997SOL    MW4 8035   1.563   4.642   3.387  0.4307 -0.1297 -0.3595
 1998SOL     OW 8036   1.390   0.125   3.501  0.2253 -0.2318  0.5709
 1998SOL    HW2 8037   1.379   0.136   3.595  1.5942 -1.6995  0.9395
 1998SOL    HW3 8038   1.389   0.213   3.465 -0.4915  0.3232  1.9314
 1998SOL    MW4 8039   1.388   0.138   3.508  0.3113 -0.3522  0.7992
 1999SOL     OW 8040   1.372   0.368   3.375 -0.4149  0.2614 -0.1181
 1999SOL    HW2 8041   1.448   0.417   3.405  0.1700 -0.2764 -0.7198
 1999SOL    HW3 8042   1.301   0.397   3.433  0.6996 -0.8267  1.8661
 1999SOL    MW4 8043   1.372   0.378   3.387 -0.1907  0.0469  0.0644
 2000SOL     OW 8044   1.571   0.524   3.486 -0.1636 -0.3533  0.1766
 2000SOL    HW2 8045   1.547   0.531   3.578 -1.3657 -0.7065 -0.1041
 2000SOL    HW3 8046   1.654   0.476   3.486  0.6615  1.0217  1.1650
 2000SOL    MW4 8047   1.579   0.519   3.498 -0.2133 -0.2185  0.2699
 2001SOL     OW 8048   1.562   0.789   3.391 -0.0537  0.3211  0.2379
 2001SOL    HW2 8049   1.481   0.834   3.412 -0.0966 -0.1710  1.1470
 2001SOL    HW3 8050   1.554   0.703   3.432  0.8581  0.2141  0.2170
 2001SOL    MW4 8051   1.551   0.784   3.399  0.0609  0.2421  0.3552
 2002SOL     OW 8052   1.346   0.945   3.474  0.1430  0.1089  0.3195
 2002SOL    HW2 8053   1.352   0.951   3.570 -0.8657  1.2607  0.3203
 2002SOL    HW3 8054   1.343   1.036   3.444  2.3637 -0.2243 -0.9549
 2002SOL    MW4 8055   1.346   0.958   3.483  0.3029  0.2169  0.1512
 2003SOL     OW 8056   1.302   1.197   3.389  0.2007 -0.2057 -0.4941
 2003SOL    HW2 8057   1.377   1.228   3.439  0.9495 -0.9105 -1.1682
 2003SOL    HW3 8058   1.226   1.229   3.438  0.9190 -0.2451  0.6774
 2003SOL    MW4 8059   1.302   1.205   3.402  0.3942 -0.3039 -0.4287
 2004SOL     OW 8060   1.546   1.275   3.484  0.0437 -0.2790  0.0582
 2004SOL    HW2 8061   1.632   1.244   3.456  1.0590  1.5483  1.0045
 2004SOL    HW3 8062   1.554   1.284   3.579 -1.2086 -0.1182  0.1538
 2004SOL    MW4 8063   1.558   1.272   3.493  0.0124 -0.0166  0.1957
 2005SOL     OW 8064   1.540   1.515   3.348 -0.5520  0.2834  0.0416
 2005SOL    HW2 8065   1.545   1.427   3.386  0.1808  0.3767  0.1637
 2005SOL    HW3 8066   1.550   1.501   3.253 -0.2337  0.2508  0.0786
 2005SOL    MW4 8067   1.542   1.501   3.340 -0.4132  0.2913  0.0625
 2006SOL     OW 8068   1.329   1.665   3.444  0.1464 -0.0437 -0.6295
 2006SOL    HW2 8069   1.342   1.660   3.539 -1.1236 -3.2048 -0.5517
 2006SOL    HW3 8070   1.395   1.606   3.409  0.5038  0.9988 -1.7261
 2006SOL    MW4 8071   1.340   1.656   3.452  0.0260 -0.3234 -0.7639
 2007SOL     OW 8072   1.356   1.927   3.397  0.3969  0.2500  0.2923
 2007SOL    HW2 8073   1.421   1.972   3.451  0.8962  0.2897 -0.3282
 2007SOL    HW3 8074   1.360   1.836   3.425  1.0936  0.1574 -0.1027
 2007SOL    MW4 8075   1.365   1.921   3.408  0.5546  0.2429  0.1583
 2008SOL     OW 8076   1.578   2.048   3.507 -0.0143  0.5949  0.2781
 2008SOL    HW2 8077   1.651   1.994   3.475 -1.4111 -1.3193  0.2361
 2008SOL    HW3 8078   1.592   2.134   3.467  0.8833 -0.4310 -1.6695
 2008SOL    MW4 8079   1.589   2.052   3.497 -0.0801  0.2067  0.0157
 2009SOL     OW 8080   1.615   2.304   3.411 -0.3322  0.2052  0.0862
 2009SOL    HW2 8081   1.539   2.354   3.441 -1.4894 -0.3763 -1.7841
 2009SOL    HW3 8082   1.689   2.341   3.460 -1.4309  2.5252  0.0699
 2009SOL    MW4 8083   1.615   2.315   3.421 -0.6298  0.4346 -0.1626
 2010SOL     OW 8084   1.381   2.411   3.487  0.0144 -0.1997  0.1295
 2010SOL    HW2 8085   1.350   2.445   3.571 -1.6995 -0.9879 -0.1663
 2010SOL    HW3 8086   1.368   2.484   3.426 -0.1941 -0.1418  0.2422
 2010SOL    MW4 8087   1.375   2.425   3.490 -0.2391 -0.2959  0.1056
 2011SOL     OW 8088   1.327   2.645   3.362  0.0510  0.0097 -0.0527
 2011SOL    HW2 8089   1.401   2.702   3.382 -0.8741  1.4816 -0.7286
 2011SOL    HW3 8090   1.321   2.646   3.266 -1.7160  1.0926  0.0392
 2011SOL    MW4 8091   1.336   2.653   3.352 -0.3041  0.3467 -0.1297
 2012SOL     OW 8092   1.554   2.821   3.414 -0.2779 -0.0198 -0.1514
 2012SOL    HW2 8093   1.643   2.799   3.387  0.4019  0.2117  1.8237
 2012SOL    HW3 8094   1.548   2.916   3.401 -0.0540  0.0415  0.1688
 2012SOL    MW4 8095   1.565   2.831   3.409 -0.1587  0.0188  0.1516
 2013SOL     OW 8096   1.551   3.105   3.340 -0.7695  0.2378  0.4420
 2013SOL    HW2 8097   1.610   3.147   3.403 -0.7188 -0.4512  0.8657
 2013SOL    HW3 8098   1.467   3.148   3.354 -0.9030 -0.3112  1.4031
 2013SOL    MW4 8099   1.548   3.116   3.350 -0.7805  0.0744  0.6249
 2014SOL     OW 8100   1.323   3.248   3.434  0.2240 -0.1409 -0.0311
 2014SOL    HW2 8101   1.329   3.218   3.525  0.6671 -0.3909 -0.1417
 2014SOL    HW3 8102   1.232   3.230   3.410  0.5830 -1.8350 -0.2352
 2014SOL    MW4 8103   1.312   3.241   3.443  0.3297 -0.3974 -0.0725
 2015SOL     OW 8104   1.327   3.521   3.358  0.6999  0.4932  0.2515
 2015SOL    HW2 8105   1.318   3.433   3.394  1.5421 -0.0726 -0.8925
 2015SOL    HW3 8106   1.244   3.563   3.379  0.1160 -0.7124  0.4395
 2015SOL    MW4 8107   1.315   3.515   3.365  0.7340  0.2594  0.1256
 2016SOL     OW 8108   1.547   3.639   3.472  0.3519 -0.2267  0.1173
 2016SOL    HW2 8109   1.553   3.601   3.560 -1.2816 -0.4174  0.1643
 2016SOL    HW3 8110   1.478   3.589   3.429  1.9718 -0.9485 -1.7268
 2016SOL    MW4 8111   1.539   3.628   3.478  0.3501 -0.3471 -0.1194
 2017SOL     OW 8112   1.532   3.913   3.404 -0.6094 -0.2338  0.1067
 2017SOL    HW2 8113   1.534   3.823   3.434  2.4160 -0.6447 -1.2036
 2017SOL    HW3 8114   1.522   3.907   3.309 -0.0407  0.8008 -0.0270
 2017SOL    MW4 8115   1.531   3.901   3.396 -0.1352 -0.1516 -0.0839
 2018SOL     OW 8116   1.286   4.034   3.538  0.2635 -0.1503 -0.1479
 2018SOL    HW2 8117   1.295   4.123   3.504 -0.2340 -0.7052 -1.8011
 2018SOL    HW3 8118   1.372   3.994   3.524  0.4639  0.0489  0.5212
 2018SOL    MW4 8119   1.299   4.040   3.532  0.2244 -0.1969 -0.2778
 2019SOL     OW 8120   1.319   4.284   3.415 -0.3178  0.1821 -0.1644
 2019SOL    HW2 8121   1.233   4.325   3.425 -0.3803 -0.0020  0.0763
 2019SOL    HW3 8122   1.331   4.275   3.321  0.1089  1.6231 -0.2652
 2019SOL    MW4 8123   1.310   4.288   3.404 -0.2698  0.3481 -0.1464
 2020SOL     OW 8124   1.584   4.397   3.510 -0.3616  0.5340  0.0114
 2020SOL    HW2 8125   1.657   4.346   3.475 -1.7014 -1.4624  0.0384
 2020SOL    HW3 8126   1.507   4.362   3.465 -1.3353  2.4497  0.1522
 2020SOL    MW4 8127   1.584   4.386   3.500 -0.6667  0.5231  0.0339
 2021SOL     OW 8128   2.034   4.633   3.417 -0.1404 -0.3471 -0.3141
 2021SOL    HW2 8129   2.107   4.691   3.439  0.0315 -0.6712 -0.0308
 2021SOL    HW3 8130   1.956   4.679   3.449 -0.0885  0.1247 -0.8587
 2021SOL    MW4 8131   2.033   4.647   3.424 -0.1109 -0.3276 -0.3486
 2022SOL     OW 8132   1.799   0.083   3.479  0.1983 -0.1363  0.3944
 2022SOL    HW2 8133   1.801   0.085   3.574 -1.3883  0.8344  0.4325
 2022SOL    HW3 8134   1.727   0.024   3.458  0.8531 -0.7244 -0.2035
 2022SOL    MW4 8135   1.790   0.076   3.489  0.0755 -0.0858  0.3204
 2023SOL     OW 8136   1.800   0.391   3.413  0.3606 -0.2439 -0.0476
 2023SOL    HW2 8137   1.796   0.302   3.447 -1.0597  0.1265  0.7980
 2023SOL    HW3 8138   1.815   0.381   3.319  1.0166 -1.3429  0.1676
 2023SOL    MW4 8139   1.802   0.378   3.405  0.2598 -0.3400  0.0923
 2024SOL     OW 8140   2.046   0.518   3.508  0.3044 -0.1817  0.5326
 2024SOL    HW2 8141   2.063   0.603   3.467  0.0537 -0.3937 -0.0242
 2024SOL    HW3 8142   1.958   0.494   3.478 -0.5909  0.4568  2.6042
 2024SOL    MW4 8143   2.037   0.526   3.499  0.1531 -0.1254  0.7324
 2025SOL     OW 8144   2.031   0.781   3.394 -0.2859 -0.1383 -0.1614
 2025SOL    HW2 8145   2.107   0.829   3.428  0.2432 -0.3290 -1.0636
 2025SOL    HW3 8146   2.039   0.786   3.299 -0.7775 -1.1454 -0.2708
 2025SOL    MW4 8147   2.042   0.788   3.386 -0.2811 -0.2964 -0.2952
 2026SOL     OW 8148   1.788   0.905   3.509  0.3243 -0.5717  0.2930
 2026SOL    HW2 8149   1.869   0.866   3.476  1.1000  0.1072  1.3679
 2026SOL    HW3 8150   1.718   0.855   3.467  1.2980 -1.6204 -0.0913
 2026SOL    MW4 8151   1.789   0.894   3.499  0.5550 -0.6205  0.3841
 2027SOL     OW 8152   1.782   1.163   3.385 -0.2359  0.0390 -0.0015
 2027SOL    HW2 8153   1.869   1.197   3.406 -0.3348  0.0099  0.4597
 2027SOL    HW3 8154   1.783   1.073   3.418 -0.2144 -0.1783 -0.5907
 2027SOL    MW4 8155   1.794   1.155   3.393 -0.2462  0.0063 -0.0186
 2028SOL     OW 8156   2.048   1.277   3.471 -0.0942 -0.1575  0.1579
 2028SOL    HW2 8157   2.046   1.262   3.566 -0.1725  0.6817  0.2917
 2028SOL    HW3 8158   2.019   1.367   3.461 -1.6568 -0.7558 -0.7891
 2028SOL    MW4 8159   2.044   1.287   3.482 -0.3107 -0.1258  0.0505
 2029SOL     OW 8160   2.003   1.551   3.361 -0.0415  0.1854  0.2304
 2029SOL    HW2 8161   2.072   1.609   3.393  0.0018  0.9704 -1.2649
 2029SOL    HW3 8162   1.921   1.597   3.379 -0.0535  0.2870 -0.0728
 2029SOL    MW4 8163   2.001   1.565   3.368 -0.0374  0.3023 -0.0072
 2030SOL     OW 8164   1.739   1.648   3.470 -0.4312  0.5250 -0.4848
 2030SOL    HW2 8165   1.745   1.729   3.420 -0.4004  0.2780 -0.8831
 2030SOL    HW3 8166   1.675   1.595   3.423 -0.7226  0.4613 -0.0221
 2030SOL    MW4 8167   1.732   1.651   3.457 -0.4658  0.4841 -0.4764
 2031SOL     OW 8168   1.777   1.898   3.387 -0.0844 -0.2836  0.6834
 2031SOL    HW2 8169   1.852   1.946   3.423  0.7028 -1.0586  0.1045
 2031SOL    HW3 8170   1.786   1.906   3.292 -0.5701 -0.6318  0.6050
 2031SOL    MW4 8171   1.788   1.905   3.379 -0.0447 -0.4318  0.5968
 2032SOL     OW 8172   2.016   2.029   3.491 -0.4946  0.5374  0.2401
 2032SOL    HW2 8173   2.012   2.021   3.586 -0.7838  2.0030  0.3535
 2032SOL    HW3 8174   2.023   2.123   3.475 -1.9924  0.4199 -1.2324
 2032SOL    MW4 8175   2.016   2.040   3.502 -0.7305  0.7153  0.0606
 2033SOL     OW 8176   2.017   2.312   3.442  0.7259  0.6186  0.0571
 2033SOL    HW2 8177   2.093   2.362   3.470  1.7754 -1.0828  0.3203
 2033SOL    HW3 8178   2.013   2.325   3.347  2.0484 -0.2228 -0.1215
 2033SOL    MW4 8179   2.026   2.320   3.433  1.0388  0.2835  0.0682
 2034SOL     OW 8180   1.803   2.464   3.519 -0.7126  0.2670 -0.1514
 2034SOL    HW2 8181   1.879   2.421   3.480 -1.0399  0.3200 -0.8589
 2034SOL    HW3 8182   1.802   2.433   3.609  1.1117  1.5637  0.3375
 2034SOL    MW4 8183   1.813   2.454   3.526 -0.5151  0.4451 -0.1802
 2035SOL     OW 8184   1.808   2.687   3.358  0.2411  0.0901  0.0120
 2035SOL    HW2 8185   1.886   2.739   3.378 -0.6650  0.7201  2.1311
 2035SOL    HW3 8186   1.810   2.616   3.422 -0.2164 -0.6523 -0.7993
 2035SOL    MW4 8187   1.819   2.684   3.369  0.0613  0.0753  0.1848
 2036SOL     OW 8188   2.015   2.842   3.455  0.2348  0.1167  0.0384
 2036SOL    HW2 8189   1.993   2.846   3.548 -0.2075 -0.7543 -0.0274
 2036SOL    HW3 8190   2.006   2.933   3.425  0.7542  0.4653  0.9277
 2036SOL    MW4 8191   2.011   2.854   3.463  0.2453  0.0477  0.1473
 2037SOL     OW 8192   2.014   3.106   3.384 -0.3395  0.0409  0.1599
 2037SOL    HW2 8193   2.094   3.144   3.421  0.6932 -1.2514 -0.6994
 2037SOL    HW3 8194   1.944   3.164   3.414  0.7953  0.6437  1.7402
 2037SOL    MW4 8195   2.016   3.119   3.393 -0.0534 -0.0501  0.2551
 2038SOL     OW 8196   1.780   3.243   3.479  0.7200 -0.3091  0.5924
 2038SOL    HW2 8197   1.783   3.256   3.574  3.5255  0.3803  0.4455
 2038SOL    HW3 8198   1.775   3.331   3.443  0.2234 -0.5431  0.0837
 2038SOL    MW4 8199   1.780   3.256   3.487  1.0246 -0.2489  0.5059
 2039SOL     OW 8200   1.809   3.508   3.411 -0.3515 -0.0960 -0.9392
 2039SOL    HW2 8201   1.747   3.571   3.447 -1.0681 -2.0032  1.3231
 2039SOL    HW3 8202   1.789   3.506   3.317 -1.1222  2.1241 -0.8395
 2039SOL    MW4 8203   1.798   3.516   3.404 -0.5476 -0.0546 -0.6278
 2040SOL     OW 8204   2.045   3.623   3.509 -0.7784  0.3036 -0.1855
 2040SOL    HW2 8205   2.122   3.583   3.470  0.3696  0.8515  1.4653
 2040SOL    HW3 8206   1.972   3.572   3.476  0.1571  0.6628 -2.9065
 2040SOL    MW4 8207   2.045   3.611   3.500 -0.5035  0.4234 -0.3266
 2041SOL     OW 8208   2.017   3.882   3.394 -0.2407  0.1741 -0.3258
 2041SOL    HW2 8209   1.936   3.927   3.415  0.6227  1.3278  0.6040
 2041SOL    HW3 8210   2.020   3.808   3.455  0.1588  1.0417  0.7257
 2041SOL    MW4 8211   2.007   3.878   3.405 -0.0741  0.4408 -0.0646
 2042SOL     OW 8212   1.785   4.008   3.506  0.0921  0.0076 -0.0684
 2042SOL    HW2 8213   1.788   4.001   3.601  0.2634  0.4705 -0.0404
 2042SOL    HW3 8214   1.693   3.988   3.484  0.2050 -0.7473  0.1349
 2042SOL    MW4 8215   1.773   4.004   3.515  0.1297 -0.0310 -0.0377
 2043SOL     OW 8216   1.792   4.265   3.411  0.0005  0.3710 -0.2187
 2043SOL    HW2 8217   1.793   4.177   3.448  2.0696  0.5576  0.1907
 2043SOL    HW3 8218   1.793   4.250   3.316 -0.0467 -0.0416 -0.1580
 2043SOL    MW4 8219   1.792   4.251   3.403  0.2673  0.3414 -0.1566
 2044SOL     OW 8220   2.037   4.371   3.513  0.1374 -0.4204 -0.5557
 2044SOL    HW2 8221   1.955   4.341   3.474 -0.9341  0.0970  1.2288
 2044SOL    HW3 8222   2.038   4.466   3.497 -0.0765 -0.2811  0.2236
 2044SOL    MW4 8223   2.026   4.380   3.505 -0.0327 -0.3338 -0.2174
 2045SOL     OW 8224   2.462   4.653   3.386 -0.0582 -0.5389 -0.0987
 2045SOL    HW2 8225   2.464   4.561   3.413 -1.2016 -0.8154 -0.9040
 2045SOL    HW3 8226   2.480   4.651   3.292 -0.3486  0.0329 -0.1702
 2045SOL    MW4 8227   2.465   4.641   3.377 -0.2475 -0.5000 -0.2143
 2046SOL     OW 8228   2.268   0.111   3.505  0.3318  0.0353  0.3822
 2046SOL    HW2 8229   2.254   0.189   3.452 -0.7497 -0.8934 -0.7439
 2046SOL    HW3 8230   2.329   0.058   3.454 -0.6773 -0.8378  0.0529
 2046SOL    MW4 8231   2.274   0.114   3.491  0.0560 -0.2025  0.1903
 2047SOL     OW 8232   2.255   0.386   3.369 -0.1388  0.3099 -0.3222
 2047SOL    HW2 8233   2.336   0.418   3.407 -0.4123  0.4716  0.1340
 2047SOL    HW3 8234   2.186   0.420   3.427 -0.5488  0.4099 -0.8625
 2047SOL    MW4 8235   2.256   0.394   3.382 -0.2291  0.3444 -0.3333
 2048SOL     OW 8236   2.508   0.503   3.463  0.3927 -0.5550 -0.1059
 2048SOL    HW2 8237   2.593   0.458   3.456  0.3802 -0.4534 -0.9771
 2048SOL    HW3 8238   2.525   0.591   3.430  0.2584 -0.1140  0.9818
 2048SOL    MW4 8239   2.522   0.509   3.458  0.3731 -0.4833 -0.0775
 2049SOL     OW 8240   2.472   0.761   3.360 -0.0514  0.3711  0.2907
 2049SOL    HW2 8241   2.492   0.770   3.267  0.1119 -1.2949  0.1538
 2049SOL    HW3 8242   2.545   0.804   3.405  0.2665  0.4773 -0.3307
 2049SOL    MW4 8243   2.484   0.768   3.354  0.0119  0.1653  0.1907
 2050SOL     OW 8244   2.260   0.918   3.466 -0.0356 -0.2248 -0.0471
 2050SOL    HW2 8245   2.244   0.994   3.410 -0.1676  0.1466  0.4923
 2050SOL    HW3 8246   2.309   0.857   3.411 -0.1116  0.1672 -0.5451
 2050SOL    MW4 8247   2.264   0.920   3.452 -0.0632 -0.1241 -0.0417
 2051SOL     OW 8248   2.224   1.138   3.312  0.3705  0.0864  0.1150
 2051SOL    HW2 8249   2.294   1.170   3.368 -1.3048  0.4140  2.0761
 2051SOL    HW3 8250   2.145   1.182   3.345 -1.2577 -2.6339 -0.0264
 2051SOL    MW4 8251   2.223   1.148   3.324 -0.0656 -0.2292  0.3548
 2052SOL     OW 8252   2.432   1.238   3.472  0.1542 -0.0368  0.1271
 2052SOL    HW2 8253   2.443   1.240   3.567  1.2806 -2.3378  0.0710
 2052SOL    HW3 8254   2.511   1.194   3.439  0.9008  2.8075 -2.0809
 2052SOL    MW4 8255   2.444   1.232   3.480  0.4015  0.0348 -0.1717
 2053SOL     OW 8256   2.449   1.538   3.406  0.3720 -0.0071  0.4583
 2053SOL    HW2 8257   2.447   1.448   3.438 -0.2177 -0.0484  0.3118
 2053SOL    HW3 8258   2.412   1.533   3.317  0.1472  0.4024  0.5242
 2053SOL    MW4 8259   2.443   1.526   3.399  0.2646  0.0415  0.4475
 2054SOL     OW 8260   2.224   1.689   3.471  0.1621 -0.0474  0.2767
 2054SOL    HW2 8261   2.236   1.774   3.429  1.2265 -0.7831 -0.9770
 2054SOL    HW3 8262   2.305   1.642   3.451 -0.0252 -1.0267  1.7485
 2054SOL    MW4 8263   2.237   1.694   3.463  0.2780 -0.2737  0.3057
 2055SOL     OW 8264   2.252   1.925   3.362  0.1028  0.0462  0.2537
 2055SOL    HW2 8265   2.174   1.972   3.390  0.2734  0.2312  0.4172
 2055SOL    HW3 8266   2.245   1.920   3.266  0.1994  0.6052  0.2179
 2055SOL    MW4 8267   2.241   1.930   3.353  0.1380  0.1444  0.2706
 2056SOL     OW 8268   2.466   2.063   3.465  0.9502  0.0407 -0.1328
 2056SOL    HW2 8269   2.449   2.044   3.557  1.6112 -0.3919 -0.0979
 2056SOL    HW3 8270   2.391   2.025   3.419  0.6819  0.1495  0.2122
 2056SOL    MW4 8271   2.454   2.055   3.471  1.0021 -0.0017 -0.0825
 2057SOL     OW 8272   2.450   2.326   3.342  0.1055  0.5511  0.1583
 2057SOL    HW2 8273   2.519   2.375   3.387 -0.4092  0.6157  0.8862
 2057SOL    HW3 8274   2.459   2.237   3.375  0.3601  0.3816 -0.3649
 2057SOL    MW4 8275   2.461   2.321   3.352  0.0710  0.5372  0.1853
 2058SOL     OW 8276   2.238   2.465   3.493 -0.0866  0.1910 -0.3547
 2058SOL    HW2 8277   2.228   2.550   3.451  1.0525  0.2569 -0.4860
 2058SOL    HW3 8278   2.299   2.417   3.438 -1.7798 -1.2358 -1.0644
 2058SOL    MW4 8279   2.245   2.470   3.481 -0.1597  0.0117 -0.4656
 2059SOL     OW 8280   2.250   2.718   3.394 -0.2267  0.4147 -0.1671
 2059SOL    HW2 8281   2.165   2.757   3.414 -0.0518  0.7533 -0.0688
 2059SOL    HW3 8282   2.246   2.698   3.300 -1.0040 -1.0606  0.1718
 2059SOL    MW4 8283   2.238   2.720   3.384 -0.3059  0.2646 -0.1094
 2060SOL     OW 8284   2.454   2.869   3.513  0.7028 -0.1806 -0.3001
 2060SOL    HW2 8285   2.459   2.953   3.469  0.3160 -0.5118 -0.9869
 2060SOL    HW3 8286   2.388   2.820   3.464  1.1360 -0.9857 -0.0901
 2060SOL    MW4 8287   2.446   2.873   3.501  0.7088 -0.3304 -0.3629
 2061SOL     OW 8288   2.489   3.090   3.368  0.0632 -0.4081  0.2847
 2061SOL    HW2 8289   2.546   3.166   3.374  1.1742 -1.1902 -0.2740
 2061SOL    HW3 8290   2.458   3.090   3.278 -1.4637  0.4663  0.7964
 2061SOL    MW4 8291   2.492   3.100   3.357  0.0083 -0.3960  0.2785
 2062SOL     OW 8292   2.254   3.200   3.472 -0.6085 -0.2403  0.3286
 2062SOL    HW2 8293   2.259   3.198   3.568 -0.6295  1.4790  0.3834
 2062SOL    HW3 8294   2.333   3.156   3.442 -0.4137 -0.4399  1.1248
 2062SOL    MW4 8295   2.265   3.194   3.481 -0.5856 -0.0401  0.4411
 2063SOL     OW 8296   2.229   3.476   3.365  0.2844 -0.3274 -0.2907
 2063SOL    HW2 8297   2.218   3.386   3.396 -0.7378  0.1631  0.7955
 2063SOL    HW3 8298   2.304   3.509   3.415 -0.6026  0.0641  0.8228
 2063SOL    MW4 8299   2.237   3.468   3.376  0.0324 -0.2112 -0.0007
 2064SOL     OW 8300   2.430   3.620   3.473  0.7046  0.1366 -0.2588
 2064SOL    HW2 8301   2.433   3.714   3.457  1.4619  0.4282  1.5426
 2064SOL    HW3 8302   2.447   3.610   3.567 -2.3917 -1.5947  0.1942
 2064SOL    MW4 8303   2.433   3.631   3.483  0.3963 -0.0534  0.0386
 2065SOL     OW 8304   2.432   3.876   3.411 -0.2952  0.0823 -0.0321
 2065SOL    HW2 8305   2.517   3.918   3.425 -0.6271  0.6427  0.2707
 2065SOL    HW3 8306   2.368   3.939   3.443 -0.7090 -1.4012  2.1516
 2065SOL    MW4 8307   2.435   3.890   3.417 -0.3936 -0.0396  0.2956
 2066SOL     OW 8308   2.254   4.011   3.789 -0.4587 -0.7831  0.1651
 2066SOL    HW2 8309   2.258   4.014   3.694  0.1766  0.2019  0.2149
 2066SOL    HW3 8310   2.175   3.960   3.808 -1.2866  0.0756 -0.8916
 2066SOL    MW4 8311   2.244   4.005   3.779 -0.4840 -0.5398  0.0322
 2067SOL     OW 8312   2.215   4.037   3.506  0.0571  0.1095  0.0593
 2067SOL    HW2 8313   2.139   3.990   3.471 -0.3154  1.1102 -0.4744
 2067SOL    HW3 8314   2.225   4.112   3.448 -0.5316  1.7567  2.0393
 2067SOL    MW4 8315   2.206   4.041   3.494 -0.0696  0.4592  0.2501
 2068SOL     OW 8316   2.501   4.414   3.507 -0.1909 -0.3676 -0.3210
 2068SOL    HW2 8317   2.488   4.422   3.601 -0.7289  0.0517 -0.4334
 2068SOL    HW3 8318   2.420   4.373   3.475  0.1323 -0.8312 -0.5515
 2068SOL    MW4 8319   2.489   4.409   3.515 -0.2191 -0.3734 -0.3660
 2069SOL     OW 8320   2.955   0.008   3.375  0.2471 -0.1988  0.2684
 2069SOL    HW2 8321   2.866   0.032   3.400  0.1965  1.3245 -1.1909
 2069SOL    HW3 8322   2.950  -0.008   3.280  1.7452  1.1797 -0.0838
 2069SOL    MW4 8323   2.943   0.009   3.366  0.4380  0.1841  0.0296
 2070SOL     OW 8324   2.713   0.091   3.492 -0.2642  0.6517  0.3024
 2070SOL    HW2 8325   2.626   0.062   3.464  0.4525  0.7694 -2.1897
 2070SOL    HW3 8326   2.722   0.178   3.454  0.9380  0.6509  0.5772
 2070SOL    MW4 8327   2.703   0.098   3.483 -0.0110  0.6671  0.0098
 2071SOL     OW 8328   2.727   0.353   3.396 -0.2192 -0.3268  0.2140
 2071SOL    HW2 8329   2.807   0.400   3.419 -1.7438  2.2289  0.4381
 2071SOL    HW3 8330   2.727   0.351   3.300  0.3197 -0.7334  0.2190
 2071SOL    MW4 8331   2.737   0.359   3.386 -0.3490 -0.0433  0.2444
 2072SOL     OW 8332   2.931   0.529   3.473  0.1672 -0.1774 -0.3905
 2072SOL    HW2 8333   2.935   0.530   3.569  3.3982 -1.0142 -0.4545
 2072SOL    HW3 8334   2.945   0.620   3.448  0.3454 -0.1233 -0.1011
 2072SOL    MW4 8335   2.933   0.541   3.482  0.6170 -0.2807 -0.3607
 2073SOL     OW 8336   2.932   0.797   3.393  0.3654 -0.5279  0.3540
 2073SOL    HW2 8337   2.999   0.848   3.438 -0.1771  0.8814 -0.4079
 2073SOL    HW3 8338   2.849   0.826   3.432  0.0719 -1.0547  0.1322
 2073SOL    MW4 8339   2.930   0.807   3.404  0.2553 -0.4115  0.2244
 2074SOL     OW 8340   2.689   0.878   3.488 -0.1044  0.2028 -0.1134
 2074SOL    HW2 8341   2.718   0.881   3.579 -0.0577 -1.7155 -0.0317
 2074SOL    HW3 8342   2.689   0.969   3.459 -0.1923  0.8409  1.8259
 2074SOL    MW4 8343   2.693   0.890   3.496 -0.1097  0.0339  0.1531
 2075SOL     OW 8344   2.656   1.118   3.381  0.0221  0.0054 -0.1872
 2075SOL    HW2 8345   2.734   1.171   3.396 -2.0595  3.2428 -0.3070
 2075SOL    HW3 8346   2.650   1.111   3.286  0.1615 -0.2865 -0.1769
 2075SOL    MW4 8347   2.665   1.124   3.370 -0.2341  0.3940 -0.2017
 2076SOL     OW 8348   2.873   1.285   3.436 -0.5810 -0.3665  0.5389
 2076SOL    HW2 8349   2.889   1.325   3.521  0.5217  0.5823 -0.1077
 2076SOL    HW3 8350   2.954   1.240   3.415 -1.1144 -1.2342  0.3260
 2076SOL    MW4 8351   2.886   1.285   3.444 -0.5057 -0.3557  0.4253
 2077SOL     OW 8352   2.900   1.534   3.365  0.4621  0.3372 -0.2540
 2077SOL    HW2 8353   2.823   1.574   3.406  1.4707  1.0989  0.9210
 2077SOL    HW3 8354   2.903   1.446   3.401  0.9724  0.7917  0.8468
 2077SOL    MW4 8355   2.890   1.528   3.375  0.6623  0.4977  0.0463
 2078SOL     OW 8356   2.689   1.677   3.480  0.2885 -0.1358  0.0123
 2078SOL    HW2 8357   2.691   1.765   3.441 -0.1680 -0.0599  0.1586
 2078SOL    HW3 8358   2.617   1.632   3.436  0.3553 -0.3523  0.1209
 2078SOL    MW4 8359   2.680   1.683   3.469  0.2372 -0.1544  0.0458
 2079SOL     OW 8360   2.687   1.924   3.362  0.3022 -0.7924 -0.2202
 2079SOL    HW2 8361   2.604   1.965   3.390  0.0806  0.2238 -2.2774
 2079SOL    HW3 8362   2.682   1.923   3.266  3.3056  0.6177 -0.4375
 2079SOL    MW4 8363   2.675   1.929   3.353  0.6692 -0.4722 -0.5205
 2080SOL     OW 8364   2.904   2.084   3.444 -0.4583  0.3126 -0.2012
 2080SOL    HW2 8365   2.899   2.081   3.539 -2.8700  2.4232 -0.2009
 2080SOL    HW3 8366   2.833   2.028   3.414  1.4477 -1.8587 -0.8445
 2080SOL    MW4 8367   2.894   2.076   3.452 -0.5250  0.3049 -0.2861
 2081SOL     OW 8368   2.904   2.359   3.373 -0.0964 -0.4286 -0.4794
 2081SOL    HW2 8369   2.899   2.268   3.404  2.5618 -0.3324  0.3445
 2081SOL    HW3 8370   2.916   2.351   3.279  0.5421 -0.9347 -0.3571
 2081SOL    MW4 8371   2.905   2.346   3.365  0.3383 -0.4828 -0.3545
 2082SOL     OW 8372   2.659   2.494   3.476  0.2480  0.1276 -0.4028
 2082SOL    HW2 8373   2.657   2.475   3.570  1.2564  0.0725 -0.3908
 2082SOL    HW3 8374   2.741   2.455   3.446  0.0081  0.3008 -1.2748
 2082SOL    MW4 8375   2.670   2.486   3.485  0.3495  0.1433 -0.5164
 2083SOL     OW 8376   2.697   2.756   3.408 -0.2929 -0.8153  0.0292
 2083SOL    HW2 8377   2.678   2.673   3.451 -0.7245 -0.0683  1.2961
 2083SOL    HW3 8378   2.628   2.816   3.438  1.4292  0.6835  1.0954
 2083SOL    MW4 8379   2.685   2.753   3.418 -0.1225 -0.5190  0.3366
 2084SOL     OW 8380   3.140   2.700   3.418 -0.4224  0.0252 -0.2633
 2084SOL    HW2 8381   3.209   2.764   3.429 -1.7811  1.3294  0.8744
 2084SOL    HW3 8382   3.060   2.745   3.446 -1.4747 -2.0083  0.1210
 2084SOL    MW4 8383   3.138   2.714   3.423 -0.7403 -0.0713 -0.0622
 2085SOL     OW 8384   2.922   3.106   3.392 -0.4818 -0.0006 -0.0867
 2085SOL    HW2 8385   3.012   3.133   3.409 -0.6061  0.6987 -0.5369
 2085SOL    HW3 8386   2.922   3.079   3.300 -0.7375  0.0053 -0.0882
 2085SOL    MW4 8387   2.934   3.106   3.382 -0.5319  0.0925 -0.1462
 2086SOL     OW 8388   2.699   3.247   3.491 -0.3649 -0.8618 -0.1366
 2086SOL    HW2 8389   2.698   3.233   3.585  1.0191 -0.3582 -0.0366
 2086SOL    HW3 8390   2.779   3.204   3.460  0.5866  1.2189 -0.6940
 2086SOL    MW4 8391   2.710   3.240   3.499 -0.0565 -0.5209 -0.1972
 2087SOL     OW 8392   2.623   3.468   3.333 -0.4843  0.3133  0.1715
 2087SOL    HW2 8393   2.640   3.391   3.388 -0.6850  0.5772  0.6045
 2087SOL    HW3 8394   2.563   3.522   3.385 -2.4999 -0.5093 -1.2546
 2087SOL    MW4 8395   2.617   3.465   3.347 -0.7768  0.2394  0.0405
 2088SOL     OW 8396   2.860   3.540   3.452 -0.2043  0.1455  0.0476
 2088SOL    HW2 8397   2.873   3.631   3.426  0.1991 -0.0668 -0.5215
 2088SOL    HW3 8398   2.778   3.515   3.409 -0.2131  0.1821  0.0439
 2088SOL    MW4 8399   2.851   3.549   3.443 -0.1521  0.1223 -0.0279
 2089SOL     OW 8400   2.917   3.803   3.384  0.7209  0.5735 -0.2074
 2089SOL    HW2 8401   3.001   3.837   3.414  0.5953  1.9123 -1.3386
 2089SOL    HW3 8402   2.852   3.862   3.420  0.4143  0.8054 -1.1192
 2089SOL    MW4 8403   2.919   3.815   3.393  0.6638  0.7806 -0.4771
 2090SOL     OW 8404   2.689   3.958   3.456  0.0262 -0.5589 -0.3411
 2090SOL    HW2 8405   2.689   3.955   3.552 -1.6109  0.4503 -0.2912
 2090SOL    HW3 8406   2.701   4.051   3.435 -2.7644 -0.3132 -1.0400
 2090SOL    MW4 8407   2.690   3.970   3.466 -0.5579 -0.3932 -0.4268
 2091SOL     OW 8408   2.696   4.249   3.406  0.1210 -0.2632  0.0167
 2091SOL    HW2 8409   2.773   4.292   3.443 -0.2378  0.7561 -0.3898
 2091SOL    HW3 8410   2.622   4.297   3.443 -0.2466  0.5567 -1.7508
 2091SOL    MW4 8411   2.696   4.261   3.416  0.0250 -0.0205 -0.2701
 2092SOL     OW 8412   2.946   4.369   3.480  0.7552 -0.5883  0.1672
 2092SOL    HW2 8413   2.942   4.379   3.575  3.2163  0.2641  0.2082
 2092SOL    HW3 8414   2.942   4.458   3.446 -0.9766 -0.9366 -0.5881
 2092SOL    MW4 8415   2.945   4.382   3.488  0.8516 -0.5217  0.0730
 2093SOL     OW 8416   3.428   0.002   3.374  0.0573  0.1991  0.4770
 2093SOL    HW2 8417   3.384  -0.018   3.291 -0.1895  1.0440  0.4011
 2093SOL    HW3 8418   3.360   0.043   3.428  0.1147 -0.6764  1.2363
 2093SOL    MW4 8419   3.413   0.005   3.370  0.0324  0.1955  0.5670
 2094SOL     OW 8420   3.185   0.108   3.486 -0.2781  0.2150  0.1430
 2094SOL    HW2 8421   3.170   0.200   3.462 -0.2010 -0.1546 -1.4091
 2094SOL    HW3 8422   3.112   0.061   3.444  0.2568 -0.5454  0.0584
 2094SOL    MW4 8423   3.173   0.114   3.477 -0.1974  0.0659 -0.0730
 2095SOL     OW 8424   3.155   0.376   3.365 -0.7364 -0.5500  0.0678
 2095SOL    HW2 8425   3.068   0.401   3.396 -0.3125 -0.5840  1.2948
 2095SOL    HW3 8426   3.147   0.376   3.269 -2.0224 -0.3428  0.1665
 2095SOL    MW4 8427   3.142   0.379   3.356 -0.8502 -0.5271  0.2425
 2096SOL     OW 8428   3.379   0.554   3.475 -0.0483 -0.2484  0.2606
 2096SOL    HW2 8429   3.364   0.548   3.570 -1.2424 -0.0335  0.0838
 2096SOL    HW3 8430   3.311   0.499   3.436  1.0017 -1.0851 -0.4452
 2096SOL    MW4 8431   3.368   0.546   3.483 -0.0675 -0.3305  0.1440
 2097SOL     OW 8432   3.387   0.833   3.401  0.6563 -0.4247  0.0909
 2097SOL    HW2 8433   3.470   0.864   3.436 -1.0545  2.2249  2.0452
 2097SOL    HW3 8434   3.373   0.749   3.443  1.6137 -0.1550  0.9634
 2097SOL    MW4 8435   3.396   0.826   3.411  0.5567 -0.0396  0.4640
 2098SOL     OW 8436   3.136   0.946   3.491  0.2439  0.6899  0.1215
 2098SOL    HW2 8437   3.128   1.024   3.435  0.5095 -0.9836 -2.3086
 2098SOL    HW3 8438   3.218   0.906   3.464 -0.4174 -1.0210  0.6102
 2098SOL    MW4 8439   3.146   0.951   3.480  0.1917  0.2433 -0.1347
 2099SOL     OW 8440   3.130   1.190   3.339  0.3935  0.0449 -0.0556
 2099SOL    HW2 8441   3.209   1.239   3.361  0.4004  0.3609 -0.7830
 2099SOL    HW3 8442   3.131   1.185   3.243 -0.4095 -0.0528 -0.0558
 2099SOL    MW4 8443   3.141   1.196   3.329  0.2885  0.0737 -0.1516
 2100SOL     OW 8444   3.366   1.299   3.397 -0.4634  0.0943 -0.1092
 2100SOL    HW2 8445   3.456   1.266   3.397  0.1607  1.7466  0.5031
 2100SOL    HW3 8446   3.374   1.389   3.365 -1.9902  0.0368 -0.6679
 2100SOL    MW4 8447   3.379   1.307   3.393 -0.5822  0.3047 -0.1020
 2101SOL     OW 8448   3.383   1.560   3.342 -0.2319  0.6405  0.4473
 2101SOL    HW2 8449   3.462   1.605   3.373 -1.0667  3.1658 -1.0054
 2101SOL    HW3 8450   3.312   1.595   3.396 -0.6689 -0.2087  0.4452
 2101SOL    MW4 8451   3.384   1.570   3.353 -0.3996  0.8615  0.2553
 2102SOL     OW 8452   3.139   1.666   3.464  0.0336  0.4277 -0.0173
 2102SOL    HW2 8453   3.132   1.756   3.431 -0.6920  0.4636  0.2238
 2102SOL    HW3 8454   3.071   1.618   3.417  1.7755 -0.4725 -1.6904
 2102SOL    MW4 8455   3.129   1.671   3.453  0.1674  0.3138 -0.2060
 2103SOL     OW 8456   3.131   1.921   3.324 -0.1481  0.2106  0.1959
 2103SOL    HW2 8457   3.064   1.985   3.345 -1.7122 -1.2399 -0.2521
 2103SOL    HW3 8458   3.140   1.925   3.229  0.4595  0.4343  0.2565
 2103SOL    MW4 8459   3.124   1.930   3.314 -0.2747  0.0486  0.1447
 2104SOL     OW 8460   3.356   2.037   3.464  0.1883 -0.0792  0.1020
 2104SOL    HW2 8461   3.370   2.128   3.439  2.6610 -0.4960 -0.1098
 2104SOL    HW3 8462   3.290   2.005   3.403 -0.0280  1.3181 -0.4020
 2104SOL    MW4 8463   3.349   2.044   3.453  0.4859  0.0501  0.0079
 2105SOL     OW 8464   3.404   2.300   3.389  0.0919 -0.3975  0.9429
 2105SOL    HW2 8465   3.465   2.358   3.433  0.2394  1.0966 -1.1829
 2105SOL    HW3 8466   3.318   2.339   3.404  0.2391  0.6914 -0.9147
 2105SOL    MW4 8467   3.400   2.313   3.397  0.1304 -0.0565  0.4172
 2106SOL     OW 8468   3.154   2.706   3.880 -0.2587  0.6857 -0.2249
 2106SOL    HW2 8469   3.136   2.622   3.837 -1.3809  0.9181 -0.2329
 2106SOL    HW3 8470   3.209   2.754   3.818 -1.2385  0.7182 -1.0983
 2106SOL    MW4 8471   3.159   2.701   3.866 -0.5362  0.7207 -0.3412
 2107SOL     OW 8472   3.158   2.435   3.441  0.2908  0.1383 -0.8558
 2107SOL    HW2 8473   3.148   2.529   3.425  0.4730  0.1628 -0.8177
 2107SOL    HW3 8474   3.070   2.400   3.429  0.3194  0.2395 -1.3741
 2107SOL    MW4 8475   3.145   2.443   3.437  0.3185  0.1547 -0.9193
 2108SOL     OW 8476   3.363   2.852   3.487  0.0729  0.1537  0.2747
 2108SOL    HW2 8477   3.438   2.797   3.460  0.5785  0.1885  1.5852
 2108SOL    HW3 8478   3.376   2.934   3.440 -0.9125 -0.9628 -2.0328
 2108SOL    MW4 8479   3.375   2.855   3.477  0.0098  0.0110  0.1433
 2109SOL     OW 8480   3.404   3.131   3.390 -0.7825  0.0445  0.5900
 2109SOL    HW2 8481   3.480   3.157   3.442 -1.0919  0.9973  0.5733
 2109SOL    HW3 8482   3.329   3.153   3.445 -1.0399 -1.5362  0.9024
 2109SOL    MW4 8483   3.404   3.137   3.404 -0.8571 -0.0384  0.6289
 2110SOL     OW 8484   3.153   3.197   3.513  0.5548 -0.0105  0.1414
 2110SOL    HW2 8485   3.156   3.290   3.493  0.5600 -0.1587 -0.5525
 2110SOL    HW3 8486   3.137   3.193   3.608 -1.5957  0.6999 -0.1588
 2110SOL    MW4 8487   3.151   3.208   3.523  0.2716  0.0637  0.0100
 2111SOL     OW 8488   3.127   3.469   3.415  0.0762 -0.2579 -0.2273
 2111SOL    HW2 8489   3.033   3.471   3.430 -0.1870 -4.4428 -0.6022
 2111SOL    HW3 8490   3.136   3.469   3.319  0.4577  0.2514 -0.1930
 2111SOL    MW4 8491   3.116   3.469   3.404  0.0918 -0.7427 -0.2723
 2112SOL     OW 8492   3.355   3.586   3.532  0.6419  0.1621  0.0377
 2112SOL    HW2 8493   3.380   3.670   3.495  0.3728 -0.2353 -1.0755
 2112SOL    HW3 8494   3.270   3.567   3.494  0.4111 -0.3179  0.7803
 2112SOL    MW4 8495   3.347   3.594   3.522  0.5760  0.0463 -0.0112
 2113SOL     OW 8496   3.384   3.821   3.411  0.1335 -0.6476  0.1964
 2113SOL    HW2 8497   3.460   3.868   3.445  0.5975 -0.6098 -0.8916
 2113SOL    HW3 8498   3.309   3.866   3.449  0.6493 -0.7494  1.3639
 2113SOL    MW4 8499   3.384   3.833   3.421  0.2627 -0.6559  0.2069
 2114SOL     OW 8500   3.134   3.965   3.475  0.1139 -0.6632  0.1070
 2114SOL    HW2 8501   3.141   3.965   3.570 -1.6644 -0.1464  0.2418
 2114SOL    HW3 8502   3.146   4.057   3.450  1.6287 -0.9468 -0.2634
 2114SOL    MW4 8503   3.137   3.977   3.484  0.0789 -0.6325  0.0758
 2115SOL     OW 8504   3.172   4.238   3.410  0.2613  0.3093 -0.1497
 2115SOL    HW2 8505   3.246   4.295   3.432  1.3778 -0.4814 -1.6926
 2115SOL    HW3 8506   3.095   4.285   3.439  1.1220  2.8834 -1.9061
 2115SOL    MW4 8507   3.172   4.251   3.417  0.5224  0.5450 -0.5848
 2116SOL     OW 8508   3.396   4.407   3.498  0.2091 -0.1208 -0.4171
 2116SOL    HW2 8509   3.392   4.415   3.593 -0.5465  1.9329 -0.5956
 2116SOL    HW3 8510   3.405   4.497   3.467  1.6092 -0.8558 -2.2531
 2116SOL    MW4 8511   3.397   4.420   3.506  0.2942  0.0529 -0.6831
 2117SOL     OW 8512   3.822   4.647   3.426  0.2624 -0.1554  0.1093
 2117SOL    HW2 8513   3.756   4.712   3.446 -0.2925 -0.5982 -0.2831
 2117SOL    HW3 8514   3.822   4.641   3.331 -1.3489 -2.4222  0.2220
 2117SOL    MW4 8515   3.814   4.655   3.416 -0.0234 -0.5126  0.0725
 2118SOL     OW 8516   3.641   0.192   3.464 -0.0928  0.3825  0.2783
 2118SOL    HW2 8517   3.639   0.284   3.438  1.0321  0.5264  0.6495
 2118SOL    HW3 8518   3.566   0.153   3.419 -1.1905  1.6846  0.9431
 2118SOL    MW4 8519   3.631   0.199   3.454 -0.0892  0.5732  0.4151
 2119SOL     OW 8520   3.626   0.457   3.379  0.2355  0.3581  0.2564
 2119SOL    HW2 8521   3.694   0.510   3.420  0.4418  0.2737  0.0224
 2119SOL    HW3 8522   3.545   0.489   3.418  0.4512  0.1164  0.9074
 2119SOL    MW4 8523   3.624   0.468   3.390  0.2909  0.3151  0.3116
 2120SOL     OW 8524   3.839   0.564   3.500  0.2563 -0.2213  0.3819
 2120SOL    HW2 8525   3.848   0.551   3.595 -0.0438  0.8522  0.5722
 2120SOL    HW3 8526   3.892   0.495   3.461 -0.3016 -1.2083  1.3216
 2120SOL    MW4 8527   3.847   0.553   3.507  0.1431 -0.2099  0.5307
 2121SOL     OW 8528   3.860   0.816   3.389 -0.2158  0.6095  0.3232
 2121SOL    HW2 8529   3.931   0.860   3.436 -1.4372  1.4291  1.4275
 2121SOL    HW3 8530   3.862   0.726   3.420  0.7486  0.4621 -0.1413
 2121SOL    MW4 8531   3.870   0.810   3.399 -0.2496  0.6981  0.4075
 2122SOL     OW 8532   3.639   0.934   3.489  0.3070  0.1623  0.1704
 2122SOL    HW2 8533   3.642   0.919   3.583  1.1102  1.2568  0.3401
 2122SOL    HW3 8534   3.713   0.885   3.454  0.1360 -0.0725  0.1396
 2122SOL    MW4 8535   3.649   0.926   3.497  0.3903  0.2757  0.1888
 2123SOL     OW 8536   3.636   1.189   3.378 -0.0406  0.2329 -0.1689
 2123SOL    HW2 8537   3.633   1.096   3.403  1.7036  0.1061 -0.3139
 2123SOL    HW3 8538   3.618   1.188   3.284  0.7211 -0.0558 -0.3213
 2123SOL    MW4 8539   3.633   1.176   3.369  0.2899  0.1782 -0.2084
 2124SOL     OW 8540   3.843   1.327   3.476 -0.1592 -0.1624 -0.4788
 2124SOL    HW2 8541   3.836   1.325   3.572  1.3770 -2.8545 -0.3568
 2124SOL    HW3 8542   3.772   1.271   3.446 -1.3921  1.6595 -0.9920
 2124SOL    MW4 8543   3.833   1.319   3.485 -0.1190 -0.2772 -0.5305
 2125SOL     OW 8544   3.852   1.599   3.339 -0.2215 -0.2952 -0.0918
 2125SOL    HW2 8545   3.908   1.652   3.396  0.6699 -2.0641  0.6985
 2125SOL    HW3 8546   3.865   1.509   3.370 -1.1281 -1.0603 -1.9132
 2125SOL    MW4 8547   3.861   1.594   3.351 -0.2234 -0.6295 -0.2279
 2126SOL     OW 8548   3.611   1.700   3.430 -0.2118 -0.1333  0.1791
 2126SOL    HW2 8549   3.603   1.789   3.397  0.1172  0.0134  0.4881
 2126SOL    HW3 8550   3.690   1.665   3.388  0.1205  0.0015  0.6848
 2126SOL    MW4 8551   3.621   1.707   3.420 -0.1245 -0.0961  0.2868
 2127SOL     OW 8552   3.587   1.952   3.339 -0.2898 -0.1366 -0.1264
 2127SOL    HW2 8553   3.658   1.990   3.391  0.9359 -2.7894  0.2380
 2127SOL    HW3 8554   3.507   1.981   3.382  0.6434  0.1385  1.4734
 2127SOL    MW4 8555   3.586   1.961   3.351 -0.0052 -0.4504  0.1330
 2128SOL     OW 8556   3.798   2.063   3.481 -0.0001  0.5126 -0.2486
 2128SOL    HW2 8557   3.807   2.063   3.576 -0.8654  0.8092 -0.1594
 2128SOL    HW3 8558   3.887   2.050   3.448  0.0408 -1.6307  0.6255
 2128SOL    MW4 8559   3.811   2.061   3.489 -0.1087  0.2692 -0.1214
 2129SOL     OW 8560   3.819   2.339   3.393 -0.0426 -0.4494  0.1546
 2129SOL    HW2 8561   3.906   2.377   3.408 -0.6788  0.7104  1.0373
 2129SOL    HW3 8562   3.826   2.248   3.422  0.8619 -0.3479  0.2485
 2129SOL    MW4 8563   3.831   2.332   3.399 -0.0074 -0.2830  0.2835
 2130SOL     OW 8564   3.596   2.475   3.526  0.3471  0.3266  0.1977
 2130SOL    HW2 8565   3.587   2.561   3.485  0.0666 -0.7426 -2.0729
 2130SOL    HW3 8566   3.678   2.440   3.490 -0.5361 -1.1367 -0.4386
 2130SOL    MW4 8567   3.606   2.482   3.516  0.1936 -0.0076 -0.1860
 2131SOL     OW 8568   3.598   2.715   3.402  0.0915  0.2962  0.0420
 2131SOL    HW2 8569   3.678   2.761   3.426  1.9099 -0.8488 -3.5190
 2131SOL    HW3 8570   3.600   2.710   3.307 -3.0102 -1.9195  0.0009
 2131SOL    MW4 8571   3.609   2.720   3.393 -0.0777 -0.1469 -0.4332
 2132SOL     OW 8572   3.812   2.859   3.473  0.4137  0.1118  0.1726
 2132SOL    HW2 8573   3.832   2.871   3.566 -0.1879  0.8062  0.2094
 2132SOL    HW3 8574   3.816   2.947   3.436 -0.0445 -0.0753 -0.3200
 2132SOL    MW4 8575   3.815   2.872   3.481  0.2742  0.1791  0.1125
 2133SOL     OW 8576   3.805   3.101   3.363 -0.2122 -0.0883  0.1249
 2133SOL    HW2 8577   3.892   3.137   3.379 -0.2091  0.4333 -1.0082
 2133SOL    HW3 8578   3.804   3.081   3.269 -1.6179  0.7192 -0.0441
 2133SOL    MW4 8579   3.816   3.103   3.353 -0.3974  0.0870 -0.0467
 2134SOL     OW 8580   3.629   3.223   3.531  0.1373  0.3751 -0.1906
 2134SOL    HW2 8581   3.618   3.308   3.489  0.5535  0.2703 -0.5069
 2134SOL    HW3 8582   3.696   3.179   3.479  0.3837  0.1039  0.3557
 2134SOL    MW4 8583   3.636   3.229   3.519  0.2246  0.3254 -0.1605
 2135SOL     OW 8584   3.551   3.451   3.419  0.5369  0.4508  0.5159
 2135SOL    HW2 8585   3.470   3.477   3.462  0.6185 -0.2086  1.0747
 2135SOL    HW3 8586   3.532   3.457   3.325 -0.0325  0.6755  0.6448
 2135SOL    MW4 8587   3.538   3.455   3.412  0.4725  0.3934  0.6065
 2136SOL     OW 8588   3.796   3.587   3.459 -0.6075 -0.1774  0.0834
 2136SOL    HW2 8589   3.785   3.578   3.554 -0.5988  1.5919  0.2780
 2136SOL    HW3 8590   3.723   3.538   3.421 -2.3166  1.5107  1.0907
 2136SOL    MW4 8591   3.785   3.580   3.466 -0.8318  0.2787  0.2422
 2137SOL     OW 8592   3.803   3.863   3.376 -0.5906  0.0057 -0.3013
 2137SOL    HW2 8593   3.748   3.909   3.439 -0.2885 -0.6604  0.4547
 2137SOL    HW3 8594   3.790   3.770   3.395 -0.3688 -0.1937 -1.1098
 2137SOL    MW4 8595   3.794   3.857   3.387 -0.5217 -0.1087 -0.3085
 2138SOL     OW 8596   3.599   3.997   3.507 -0.0391  0.1885 -0.2031
 2138SOL    HW2 8597   3.555   4.002   3.592  0.3849  0.2822  0.0172
 2138SOL    HW3 8598   3.580   4.081   3.465  0.5763  0.5524  0.2216
 2138SOL    MW4 8599   3.591   4.009   3.513  0.0980  0.2489 -0.1180
 2139SOL     OW 8600   3.587   4.242   3.389  0.2394 -0.1196  0.7658
 2139SOL    HW2 8601   3.530   4.311   3.422 -0.2638 -0.8095  1.3524
 2139SOL    HW3 8602   3.584   4.253   3.294 -0.8093 -0.0890  0.7915
 2139SOL    MW4 8603   3.579   4.252   3.381  0.0346 -0.2065  0.8464
 2140SOL     OW 8604   3.831   4.376   3.516  0.0662  0.2581 -0.4411
 2140SOL    HW2 8605   3.751   4.347   3.473 -0.2477 -0.3003  0.4900
 2140SOL    HW3 8606   3.836   4.470   3.496  0.7280 -0.2892 -2.8921
 2140SOL    MW4 8607   3.821   4.385   3.508  0.1123  0.1130 -0.6416
 2141SOL     OW 8608   4.241   0.002   3.366 -0.0139 -0.2253  0.0034
 2141SOL    HW2 8609   4.252  -0.087   3.399  0.4639  0.1534  0.8866
 2141SOL    HW3 8610   4.308   0.053   3.412 -0.6439  0.6902 -0.0825
 2141SOL    MW4 8611   4.252  -0.003   3.376 -0.0334 -0.0548  0.1085
 2142SOL     OW 8612   4.053   0.102   3.527 -0.2800  0.0925  0.5708
 2142SOL    HW2 8613   4.118   0.059   3.471  0.3520  0.0402  1.3431
 2142SOL    HW3 8614   3.970   0.061   3.502 -0.0496  0.2900 -0.5486
 2142SOL    MW4 8615   4.050   0.091   3.516 -0.1659  0.1117  0.5250
 2143SOL     OW 8616   4.033   0.365   3.426  0.0362 -0.4297  0.4198
 2143SOL    HW2 8617   4.043   0.279   3.467  2.2244 -1.0941 -1.3813
 2143SOL    HW3 8618   4.013   0.345   3.334 -0.7289  0.9991  0.2686
 2143SOL    MW4 8619   4.031   0.351   3.419  0.2236 -0.3288  0.1624
 2144SOL     OW 8620   4.273   0.478   3.485 -0.1837 -0.4087 -0.2641
 2144SOL    HW2 8621   4.272   0.570   3.460  0.7809 -1.0302 -2.6849
 2144SOL    HW3 8622   4.185   0.446   3.464 -0.6026  0.0077  0.8234
 2144SOL    MW4 8623   4.261   0.486   3.479 -0.1121 -0.4358 -0.4401
 2145SOL     OW 8624   4.241   0.749   3.419 -0.2912 -0.0270  0.0230
 2145SOL    HW2 8625   4.320   0.791   3.454 -1.3164  0.3990  1.8946
 2145SOL    HW3 8626   4.256   0.744   3.324  0.8361  2.4297  0.0476
 2145SOL    MW4 8627   4.253   0.754   3.411 -0.2775  0.3533  0.2732
 2146SOL     OW 8628   4.058   0.912   3.544 -0.4136  0.3826 -0.1835
 2146SOL    HW2 8629   4.062   0.993   3.492  1.8124  0.5904  0.2599
 2146SOL    HW3 8630   4.120   0.853   3.501 -0.8080 -0.5093  0.4612
 2146SOL    MW4 8631   4.067   0.915   3.531 -0.1717  0.2924 -0.0398
 2147SOL     OW 8632   4.063   1.172   3.401 -0.2165  0.2820 -0.0635
 2147SOL    HW2 8633   4.130   1.219   3.451 -1.3306  0.3767  1.3795
 2147SOL    HW3 8634   3.981   1.214   3.426 -1.0731 -1.4041  0.0757
 2147SOL    MW4 8635   4.061   1.183   3.411 -0.4768  0.0720  0.1450
 2148SOL     OW 8636   4.252   1.307   3.565  0.7075 -0.0244 -0.1655
 2148SOL    HW2 8637   4.257   1.396   3.528 -1.1957  0.5461  0.8535
 2148SOL    HW3 8638   4.325   1.260   3.525  2.2730  2.2409 -0.0617
 2148SOL    MW4 8639   4.262   1.313   3.554  0.6628  0.3498 -0.0174
 2149SOL     OW 8640   4.249   1.542   3.419 -0.1685 -0.1725  0.1475
 2149SOL    HW2 8641   4.178   1.605   3.433  0.5185  0.1442  2.3427
 2149SOL    HW3 8642   4.247   1.524   3.325 -1.9340  1.2773 -0.1118
 2149SOL    MW4 8643   4.239   1.548   3.409 -0.3109  0.0606  0.4027
 2150SOL     OW 8644   4.054   1.734   3.472  0.4827 -0.0255 -0.1365
 2150SOL    HW2 8645   4.042   1.727   3.566 -1.0392 -2.0811 -0.4442
 2150SOL    HW3 8646   4.045   1.827   3.453 -3.8701 -0.0981  1.1914
 2150SOL    MW4 8647   4.051   1.745   3.482 -0.2923 -0.3064 -0.0017
 2151SOL     OW 8648   4.055   2.003   3.386  0.0457  0.6291  0.0855
 2151SOL    HW2 8649   4.149   2.007   3.399  0.2484 -2.4530 -0.1018
 2151SOL    HW3 8650   4.044   1.957   3.303 -1.6375 -1.0458  1.2046
 2151SOL    MW4 8651   4.066   1.997   3.377 -0.1493  0.0014  0.2081
 2152SOL     OW 8652   4.319   2.036   3.449  0.2243 -0.3579 -0.0785
 2152SOL    HW2 8653   4.400   1.988   3.435  0.8477  0.7828 -0.4522
 2152SOL    HW3 8654   4.337   2.124   3.417 -1.6412 -0.4731 -1.5331
 2152SOL    MW4 8655   4.332   2.042   3.443  0.0606 -0.2227 -0.3197
 2153SOL     OW 8656   4.277   2.290   3.372 -0.0296 -0.1710  0.4051
 2153SOL    HW2 8657   4.199   2.313   3.423 -0.2096 -0.3461  0.2068
 2153SOL    HW3 8658   4.250   2.301   3.281  0.9931  2.4657  0.3809
 2153SOL    MW4 8659   4.263   2.294   3.367  0.0820  0.1538  0.3755
 2154SOL     OW 8660   4.061   2.442   3.479  0.6412 -0.7742 -0.1146
 2154SOL    HW2 8661   4.025   2.456   3.566 -1.4716 -0.2468 -1.0428
 2154SOL    HW3 8662   4.058   2.528   3.437  0.6056 -1.2461 -1.0922
 2154SOL    MW4 8663   4.056   2.455   3.485  0.3581 -0.7670 -0.3662
 2155SOL     OW 8664   4.009   2.702   3.362  0.3629 -0.0465 -0.1390
 2155SOL    HW2 8665   4.096   2.724   3.395  0.4923 -1.5576  0.5927
 2155SOL    HW3 8666   3.949   2.754   3.415  0.6609 -1.2951  1.4945
 2155SOL    MW4 8667   4.013   2.712   3.373  0.4191 -0.4106  0.1731
 2156SOL     OW 8668   4.241   2.783   3.460 -0.3222  0.3597 -0.2346
 2156SOL    HW2 8669   4.249   2.802   3.554  0.1313 -0.1844 -0.1582
 2156SOL    HW3 8670   4.323   2.739   3.438 -0.9870 -0.7422 -0.5831
 2156SOL    MW4 8671   4.253   2.780   3.470 -0.3500  0.1426 -0.2701
 2157SOL     OW 8672   4.273   3.065   3.382  0.2637  0.4781  0.4227
 2157SOL    HW2 8673   4.270   2.970   3.396  0.1147  0.4712  0.3468
 2157SOL    HW3 8674   4.264   3.075   3.287  2.1185  0.4770  0.2264
 2157SOL    MW4 8675   4.271   3.054   3.371  0.4883  0.4768  0.3870
 2158SOL     OW 8676   4.030   3.179   3.485  0.3825  0.4050 -0.1024
 2158SOL    HW2 8677   4.033   3.270   3.456 -0.2354  0.8860  1.2849
 2158SOL    HW3 8678   4.114   3.142   3.460  0.9712  1.6014  0.0958
 2158SOL    MW4 8679   4.041   3.186   3.478  0.3786  0.6263  0.1068
 2159SOL     OW 8680   4.044   3.452   3.386  0.0745 -0.4937 -0.1676
 2159SOL    HW2 8681   4.118   3.510   3.407  0.6644 -1.5216  0.6646
 2159SOL    HW3 8682   3.969   3.494   3.427  0.6790 -0.8453  1.3327
 2159SOL    MW4 8683   4.044   3.465   3.394  0.2322 -0.6757  0.1400
 2160SOL     OW 8684   4.271   3.614   3.435  0.3621  0.0780 -0.3402
 2160SOL    HW2 8685   4.258   3.625   3.529  0.5290  2.0238 -0.5184
 2160SOL    HW3 8686   4.290   3.703   3.403  0.0088 -0.5113 -2.2454
 2160SOL    MW4 8687   4.272   3.627   3.443  0.3371  0.2570 -0.6151
 2161SOL     OW 8688   4.271   3.867   3.349  0.1246  0.1083 -0.0226
 2161SOL    HW2 8689   4.346   3.914   3.386 -0.5094  0.4880  0.8218
 2161SOL    HW3 8690   4.292   3.856   3.257  0.6844  1.2835 -0.0461
 2161SOL    MW4 8691   4.284   3.872   3.342  0.1154  0.3138  0.0856
 2162SOL     OW 8692   4.052   3.994   3.439 -0.2910  0.0198 -0.0063
 2162SOL    HW2 8693   4.123   3.939   3.406  0.4689 -0.3252  2.1851
 2162SOL    HW3 8694   3.974   3.940   3.431  0.0918 -0.5277 -0.0145
 2162SOL    MW4 8695   4.051   3.980   3.433 -0.1402 -0.0978  0.2818
 2163SOL     OW 8696   4.062   4.274   3.415 -0.2646  0.0745  0.2382
 2163SOL    HW2 8697   4.060   4.179   3.427  1.1109 -0.1211 -0.8795
 2163SOL    HW3 8698   3.979   4.305   3.451 -0.8800 -1.5872  0.2981
 2163SOL    MW4 8699   4.051   4.266   3.421 -0.1645 -0.1707  0.0987
 2164SOL     OW 8700   4.290   4.438   3.521  0.0267 -0.5848  0.2934
 2164SOL    HW2 8701   4.277   4.459   3.614 -0.2034  0.5285  0.0201
 2164SOL    HW3 8702   4.220   4.377   3.500 -0.2987 -0.3551  0.7028
 2164SOL    MW4 8703   4.279   4.433   3.531 -0.0467 -0.4077  0.3111
 2165SOL     OW 8704   0.230   4.667   3.860  0.2265 -0.1163 -0.4979
 2165SOL    HW2 8705   0.242   4.665   3.955 -0.4057  0.4977 -0.3982
 2165SOL    HW3 8706   0.140   4.699   3.848  0.8472  1.3533 -1.3432
 2165SOL    MW4 8707   0.219   4.671   3.871  0.2250  0.1586 -0.5963
 2166SOL     OW 8708   4.474   0.092   3.797 -0.1809  0.0063  0.2197
 2166SOL    HW2 8709   4.463   0.186   3.807  1.2134  0.2368 -0.2807
 2166SOL    HW3 8710   4.467   0.077   3.702 -1.8606 -0.5967  0.4271
 2166SOL    MW4 8711   4.472   0.102   3.786 -0.2189 -0.0429  0.1812
 2167SOL     OW 8712   4.431   0.364   3.848  0.3353 -0.0873 -0.1045
 2167SOL    HW2 8713   4.361   0.421   3.814  1.0787  1.3210  0.6750
 2167SOL    HW3 8714   4.511   0.401   3.811  0.7501 -1.2034 -0.3277
 2167SOL    MW4 8715   4.432   0.377   3.838  0.4873 -0.0488 -0.0310
 2168SOL     OW 8716   0.184   0.504   3.785  0.2803 -0.1020  0.5025
 2168SOL    HW2 8717   0.173   0.596   3.807  1.1453 -0.2361  1.5615
 2168SOL    HW3 8718   0.193   0.502   3.690  1.7298  1.0595  0.6094
 2168SOL    MW4 8719   0.184   0.516   3.775  0.5856  0.0336  0.6566
 2169SOL     OW 8720   0.183   0.783   3.858  0.5026 -0.2046 -0.4048
 2169SOL    HW2 8721   0.191   0.807   3.951  2.3438  0.5844 -0.7448
 2169SOL    HW3 8722   0.095   0.811   3.834  0.3913  0.5580  0.8313
 2169SOL    MW4 8723   0.172   0.790   3.867  0.7308  0.0001 -0.2866
 2170SOL     OW 8724   4.421   0.854   3.795 -0.1907  0.2823  0.3846
 2170SOL    HW2 8725   4.416   0.942   3.832 -1.8918  1.4093 -2.3535
 2170SOL    HW3 8726   4.351   0.805   3.839  0.4683  0.4206  1.5898
 2170SOL    MW4 8727   4.411   0.859   3.806 -0.3281  0.4492  0.1826
 2171SOL     OW 8728   4.275   1.298   3.846 -0.1824 -0.6229  0.1546
 2171SOL    HW2 8729   4.259   1.299   3.752  0.4848 -0.7232  0.0410
 2171SOL    HW3 8730   4.274   1.391   3.871 -1.3138 -0.6504  0.2114
 2171SOL    MW4 8731   4.273   1.310   3.837 -0.2441 -0.6399  0.1469
 2172SOL     OW 8732   0.204   1.231   3.761  0.0990 -0.2801  0.2298
 2172SOL    HW2 8733   0.214   1.326   3.772  0.5276 -0.3373  0.3307
 2172SOL    HW3 8734   0.213   1.216   3.667  0.3518 -0.2601  0.2518
 2172SOL    MW4 8735   0.206   1.242   3.750  0.1888 -0.2848  0.2460
 2173SOL     OW 8736   2.694   0.182   4.651  0.2299  0.0772  0.3192
 2173SOL    HW2 8737   2.641   0.184   4.571 -1.4202 -0.1306  1.3764
 2173SOL    HW3 8738   2.678   0.267   4.693  1.3816  0.3381  0.2538
 2173SOL    MW4 8739   2.685   0.194   4.646  0.1643  0.0842  0.4501
 2174SOL     OW 8740   0.021   1.675   3.733  0.2260 -0.1279 -0.0723
 2174SOL    HW2 8741  -0.065   1.646   3.764  1.2878 -2.2616  1.0453
 2174SOL    HW3 8742   0.014   1.673   3.637 -1.3184  0.8934  0.0053
 2174SOL    MW4 8743   0.009   1.671   3.724  0.1626 -0.2745  0.0854
 2175SOL     OW 8744   0.208   1.491   3.828  0.1235 -0.0204  0.0056
 2175SOL    HW2 8745   0.141   1.552   3.796 -1.0910 -0.6239  1.3356
 2175SOL    HW3 8746   0.200   1.494   3.923  0.5638 -1.6955  0.1086
 2175SOL    MW4 8747   0.198   1.499   3.836  0.0213 -0.3209  0.1945
 2176SOL     OW 8748   0.646   2.075   3.754 -0.1999 -0.6391 -0.2203
 2176SOL    HW2 8749   0.571   2.022   3.782  1.7528 -2.0686  2.6273
 2176SOL    HW3 8750   0.630   2.161   3.792 -1.4043 -0.3038 -1.4396
 2176SOL    MW4 8751   0.634   2.080   3.763 -0.1011 -0.7834 -0.0055
 2177SOL     OW 8752   4.474   2.467   3.746  0.1739 -0.0145  0.0283
 2177SOL    HW2 8753   4.487   2.552   3.788 -1.2226  0.0705  0.3170
 2177SOL    HW3 8754   4.536   2.409   3.789  0.1671  0.5413  0.8043
 2177SOL    MW4 8755   4.484   2.471   3.757 -0.0105  0.0701  0.1686
 2178SOL     OW 8756   0.210   2.334   3.827  0.2711 -0.4026 -0.6959
 2178SOL    HW2 8757   0.212   2.241   3.803 -1.3633 -0.8887  0.8983
 2178SOL    HW3 8758   0.214   2.333   3.923  1.5023  1.2371 -0.7267
 2178SOL    MW4 8759   0.211   2.321   3.836  0.2179 -0.2506 -0.4895
 2179SOL     OW 8760   0.237   2.863   3.827 -0.0689 -0.4352  0.3541
 2179SOL    HW2 8761   0.316   2.824   3.864  1.6764  2.0664 -0.6066
 2179SOL    HW3 8762   0.240   2.839   3.734  0.5906  1.1982 -0.0746
 2179SOL    MW4 8763   0.247   2.855   3.819  0.2484  0.1104  0.1705
 2180SOL     OW 8764   4.392   3.206   3.777 -0.2087 -0.0711  0.9205
 2180SOL    HW2 8765   4.474   3.185   3.821  0.4403 -2.4364 -1.2994
 2180SOL    HW3 8766   4.414   3.207   3.684 -2.5283  0.0932  0.3370
 2180SOL    MW4 8767   4.406   3.204   3.771 -0.4296 -0.3617  0.5505
 2181SOL     OW 8768   0.529   0.977   4.601 -0.0788  0.1609 -0.3731
 2181SOL    HW2 8769   0.539   0.992   4.695  0.1226 -0.7169 -0.2487
 2181SOL    HW3 8770   0.582   1.046   4.560  1.5767 -0.7261  0.1980
 2181SOL    MW4 8771   0.538   0.988   4.608  0.1663 -0.0719 -0.2813
 2182SOL     OW 8772   0.419   3.225   3.803  0.4641  0.3859  0.3304
 2182SOL    HW2 8773   0.333   3.191   3.827 -0.1280  0.5064 -1.5623
 2182SOL    HW3 8774   0.413   3.319   3.817  0.1763  0.4376 -0.1578
 2182SOL    MW4 8775   0.407   3.233   3.808  0.3480  0.4086  0.0162
 2183SOL     OW 8776   0.144   3.132   3.888  0.5637  0.5231  0.9555
 2183SOL    HW2 8777   0.160   3.046   3.848 -0.6958  0.1560  1.2063
 2183SOL    HW3 8778   0.161   3.118   3.981  1.8898  0.9583  0.7895
 2183SOL    MW4 8779   0.149   3.119   3.895  0.5725  0.5319  0.9668
 2184SOL     OW 8780   0.177   3.591   3.783  0.1616 -0.1948 -0.4743
 2184SOL    HW2 8781   0.179   3.682   3.812 -0.4077 -0.3117 -0.0630
 2184SOL    HW3 8782   0.115   3.548   3.842  0.7804 -0.9568 -0.3637
 2184SOL    MW4 8783   0.169   3.598   3.795  0.1681 -0.3107 -0.4053
 2185SOL     OW 8784   0.186   3.858   3.874 -0.0622 -0.1129 -0.4483
 2185SOL    HW2 8785   0.117   3.903   3.825  0.3193 -1.0531 -1.9067
 2185SOL    HW3 8786   0.264   3.912   3.860 -0.3698  0.6112  0.6686
 2185SOL    MW4 8787   0.187   3.871   3.865 -0.0525 -0.1414 -0.4933
 2186SOL     OW 8788   4.475   4.003   3.758  0.9323  0.1055  0.3469
 2186SOL    HW2 8789   4.478   4.087   3.804 -0.4119 -0.0038  0.6327
 2186SOL    HW3 8790   4.394   3.962   3.787  0.5579 -0.3983 -1.3434
 2186SOL    MW4 8791   4.465   4.009   3.768  0.7057  0.0243  0.1616
 2187SOL     OW 8792   4.252   4.417   3.818  0.1081 -0.4907  0.3467
 2187SOL    HW2 8793   4.176   4.361   3.837  0.2120 -0.2141  1.6283
 2187SOL    HW3 8794   4.328   4.362   3.837  0.2108 -0.0817  1.1677
 2187SOL    MW4 8795   4.252   4.403   3.823  0.1349 -0.4001  0.6242
 2188SOL     OW 8796   0.181   4.399   3.839 -0.0130 -0.2802  0.1632
 2188SOL    HW2 8797   0.266   4.362   3.864  0.7087  0.3955 -1.2576
 2188SOL    HW3 8798   0.193   4.493   3.847 -0.8646 -0.2224  0.6927
 2188SOL    MW4 8799   0.194   4.406   3.843 -0.0302 -0.1836  0.0458
 2189SOL     OW 8800   1.549   0.889   4.190 -0.3142 -0.4121  0.3036
 2189SOL    HW2 8801   1.607   0.922   4.258  0.8124  0.4087 -1.0094
 2189SOL    HW3 8802   1.492   0.962   4.170 -2.2562 -1.4128  2.0222
 2189SOL    MW4 8803   1.549   0.903   4.196 -0.4219 -0.4358  0.3576
 2190SOL     OW 8804   0.451   0.111   3.754  0.2068  0.1720 -0.1150
 2190SOL    HW2 8805   0.466   0.203   3.777  0.6973  0.4001 -1.3513
 2190SOL    HW3 8806   0.365   0.091   3.793  0.7339  0.7270  1.3786
 2190SOL    MW4 8807   0.441   0.121   3.762  0.3410  0.2754 -0.0811
 2191SOL     OW 8808   0.421   0.370   3.843  0.2283  0.1243 -0.1114
 2191SOL    HW2 8809   0.490   0.427   3.808  0.9738  0.1163  1.3148
 2191SOL    HW3 8810   0.341   0.420   3.833  0.7059  0.9160 -0.0085
 2191SOL    MW4 8811   0.420   0.384   3.837  0.3897  0.2277  0.0901
 2192SOL     OW 8812   0.714   0.738   3.862 -0.2726 -0.2384  0.3346
 2192SOL    HW2 8813   0.723   0.758   3.956  0.2641  0.5572  0.1149
 2192SOL    HW3 8814   0.629   0.775   3.839 -0.3282 -0.2825  0.4626
 2192SOL    MW4 8815   0.704   0.745   3.872 -0.2092 -0.1392  0.3226
 2193SOL     OW 8816   2.772   4.590   4.758  0.0143  0.2979 -0.0527
 2193SOL    HW2 8817   2.775   4.596   4.854  0.5363  1.3938 -0.1339
 2193SOL    HW3 8818   2.751   4.678   4.729 -1.8840 -0.4157 -0.8863
 2193SOL    MW4 8819   2.770   4.602   4.767 -0.1671  0.3486 -0.1736
 2194SOL     OW 8820   0.463   0.861   3.792  0.2201  0.3460  0.1962
 2194SOL    HW2 8821   0.453   0.945   3.837  0.9085 -0.3700  1.7016
 2194SOL    HW3 8822   0.382   0.814   3.810  0.1448  0.3878 -0.0265
 2194SOL    MW4 8823   0.451   0.866   3.800  0.3010  0.2570  0.3655
 2195SOL     OW 8824   0.434   1.120   3.880  0.1141  0.2822 -0.1115
 2195SOL    HW2 8825   0.356   1.173   3.867  1.1337  2.0807  0.9863
 2195SOL    HW3 8826   0.505   1.171   3.841  0.6242 -1.7536 -1.9372
 2195SOL    MW4 8827   0.433   1.133   3.873  0.3159  0.2511 -0.2074
 2196SOL     OW 8828   0.655   1.271   3.770 -0.5582  0.1850 -0.5834
 2196SOL    HW2 8829   0.743   1.237   3.785 -0.6470  0.1169 -0.2040
 2196SOL    HW3 8830   0.648   1.278   3.675 -0.2356 -0.0503 -0.6262
 2196SOL    MW4 8831   0.666   1.267   3.760 -0.5273  0.1448 -0.5391
 2197SOL     OW 8832   1.101   1.283   4.560  0.0304  0.0386  0.3662
 2197SOL    HW2 8833   1.188   1.302   4.526  0.8251 -0.5609  2.0415
 2197SOL    HW3 8834   1.072   1.366   4.599  0.1184  0.0461  0.4142
 2197SOL    MW4 8835   1.109   1.297   4.561  0.1470 -0.0396  0.5941
 2198SOL     OW 8836   0.647   1.544   3.833  0.0093 -0.0318 -0.2314
 2198SOL    HW2 8837   0.629   1.552   3.927  2.4497  0.8438  0.2071
 2198SOL    HW3 8838   0.656   1.450   3.819 -2.4254 -0.3243 -0.0255
 2198SOL    MW4 8839   0.646   1.533   3.844  0.0101  0.0452 -0.1466
 2199SOL     OW 8840   3.321   2.324   4.095 -0.0691  0.2387 -0.3921
 2199SOL    HW2 8841   3.399   2.363   4.135  1.6341 -2.2838 -1.1289
 2199SOL    HW3 8842   3.294   2.256   4.157  0.1060 -0.9080 -1.5603
 2199SOL    MW4 8843   3.327   2.320   4.109  0.1788 -0.2453 -0.6428
 2200SOL     OW 8844   1.335   1.900   3.865  0.4681 -0.3454  0.0878
 2200SOL    HW2 8845   1.404   1.954   3.825  0.8410 -1.7125 -1.1552
 2200SOL    HW3 8846   1.255   1.926   3.819  0.5588 -0.5031 -0.1568
 2200SOL    MW4 8847   1.334   1.911   3.853  0.5292 -0.5466 -0.1085
 2201SOL     OW 8848   0.216   2.069   4.458 -0.5458  0.1573  0.4862
 2201SOL    HW2 8849   0.256   2.080   4.372 -1.3041  0.6677  0.2031
 2201SOL    HW3 8850   0.253   1.986   4.490  0.7223  0.6045  0.2243
 2201SOL    MW4 8851   0.226   2.059   4.451 -0.4786  0.2837  0.4139
 2202SOL     OW 8852   0.427   2.497   3.747  0.2774 -0.5459  0.0160
 2202SOL    HW2 8853   0.346   2.451   3.772  0.5257 -1.6871 -1.1658
 2202SOL    HW3 8854   0.432   2.484   3.652  1.3982  0.2653 -0.0362
 2202SOL    MW4 8855   0.417   2.489   3.738  0.4580 -0.5891 -0.1466
 2203SOL     OW 8856   0.152   3.065   4.149 -0.2382 -0.0176 -0.2322
 2203SOL    HW2 8857   0.236   3.088   4.190 -0.3743 -0.5982  0.3801
 2203SOL    HW3 8858   0.091   3.132   4.179  0.0388  0.4906 -0.7949
 2203SOL    MW4 8859   0.155   3.077   4.158 -0.2196 -0.0269 -0.2255
 2204SOL     OW 8860   0.634   2.845   3.724  0.1649 -0.2536  0.2038
 2204SOL    HW2 8861   0.721   2.813   3.749  0.6205 -0.1760 -1.2209
 2204SOL    HW3 8862   0.636   2.845   3.628 -0.6811  1.7635  0.1708
 2204SOL    MW4 8863   0.646   2.841   3.714  0.1134  0.0226  0.0114
 2205SOL     OW 8864   0.656   3.097   3.854 -0.2403 -0.1239 -0.4479
 2205SOL    HW2 8865   0.575   3.145   3.837 -1.2809 -1.4668  0.6064
 2205SOL    HW3 8866   0.646   3.014   3.806 -0.2301 -1.0109  1.0557
 2205SOL    MW4 8867   0.644   3.092   3.845 -0.3763 -0.4184 -0.1101
 2206SOL     OW 8868   0.806   2.132   4.364  0.2142  0.2672 -0.2421
 2206SOL    HW2 8869   0.857   2.212   4.355  3.4304 -1.4425  1.8428
 2206SOL    HW3 8870   0.829   2.080   4.286 -0.6597  0.6780 -0.7894
 2206SOL    MW4 8871   0.815   2.136   4.352  0.5233  0.0958 -0.0396
 2207SOL     OW 8872   3.762   1.573   4.120 -0.0761 -0.2425  0.5440
 2207SOL    HW2 8873   3.818   1.645   4.149 -0.2910 -0.1946  0.8358
 2207SOL    HW3 8874   3.675   1.612   4.114 -0.5371 -0.9273  2.4637
 2207SOL    MW4 8875   3.758   1.588   4.123 -0.1652 -0.3265  0.8364
 2208SOL     OW 8876   0.664   3.868   3.928  0.0307  0.1266  0.3944
 2208SOL    HW2 8877   0.712   3.921   3.865  1.1116  1.8275  2.5909
 2208SOL    HW3 8878   0.668   3.779   3.892  1.8484  0.8084 -1.1943
 2208SOL    MW4 8879   0.671   3.863   3.915  0.4131  0.4408  0.4747
 2209SOL     OW 8880   0.836   4.017   3.746 -0.3810  0.4140 -0.2484
 2209SOL    HW2 8881   0.828   4.026   3.651  1.2124 -1.9042 -0.6544
 2209SOL    HW3 8882   0.859   4.105   3.777 -2.0096  1.4335 -1.8512
 2209SOL    MW4 8883   0.838   4.030   3.738 -0.3857  0.2427 -0.5136
 2210SOL     OW 8884   0.432   4.006   3.850  0.0931 -0.2522  0.0932
 2210SOL    HW2 8885   0.502   3.951   3.885  1.0797  0.2743 -1.0143
 2210SOL    HW3 8886   0.439   3.996   3.755 -1.3563 -0.2049 -0.0249
 2210SOL    MW4 8887   0.442   3.997   3.842  0.0320 -0.1764 -0.0684
 2211SOL     OW 8888   3.689   1.302   4.538 -0.0965 -0.1487 -0.0873
 2211SOL    HW2 8889   3.758   1.359   4.503  0.3190 -0.1422  0.7199
 2211SOL    HW3 8890   3.609   1.354   4.529  0.2211  0.4226  0.2749
 2211SOL    MW4 8891   3.688   1.317   4.532  0.0002 -0.0725  0.0672
 2212SOL     OW 8892   0.651   4.381   3.747  0.5194 -0.6635  0.1207
 2212SOL    HW2 8893   0.658   4.469   3.784 -1.2652 -1.2994  2.0902
 2212SOL    HW3 8894   0.667   4.392   3.653  0.7579  1.6660  0.4240
 2212SOL    MW4 8895   0.654   4.394   3.740  0.3154 -0.4396  0.4206
 2213SOL     OW 8896   1.299   3.328   4.119  0.2576 -0.0675  0.8523
 2213SOL    HW2 8897   1.283   3.396   4.184  1.7697  0.9695  0.1596
 2213SOL    HW3 8898   1.256   3.250   4.155 -2.9882  1.6375  0.8463
 2213SOL    MW4 8899   1.291   3.327   4.132  0.0288  0.2944  0.7601
 2214SOL     OW 8900   0.908   0.100   3.470  0.3548  0.6502  0.3694
 2214SOL    HW2 8901   0.999   0.086   3.446  0.4571 -0.3790  1.3573
 2214SOL    HW3 8902   0.904   0.081   3.564 -1.1931 -0.9108  0.0140
 2214SOL    MW4 8903   0.919   0.096   3.479  0.1641  0.3084  0.4530
 2215SOL     OW 8904   0.651   0.501   3.746 -0.1005 -0.2630 -0.6203
 2215SOL    HW2 8905   0.677   0.578   3.796  0.5562 -0.4327 -0.6946
 2215SOL    HW3 8906   0.716   0.434   3.769 -1.4627 -1.2089  0.4785
 2215SOL    MW4 8907   0.663   0.503   3.755 -0.1936 -0.4103 -0.4849
 2216SOL     OW 8908   1.073   0.514   3.756 -0.0884  0.8092  0.4466
 2216SOL    HW2 8909   1.145   0.469   3.800 -0.0881 -0.0250 -0.3885
 2216SOL    HW3 8910   0.995   0.468   3.785 -0.0476 -0.0755 -0.8005
 2216SOL    MW4 8911   1.073   0.502   3.765 -0.0830  0.5824  0.1721
 2217SOL     OW 8912   1.410   2.658   4.119  0.0784 -0.2130  0.1239
 2217SOL    HW2 8913   1.427   2.739   4.166 -1.5861 -0.1858  0.6985
 2217SOL    HW3 8914   1.497   2.620   4.105  0.9895  2.2841 -1.2955
 2217SOL    MW4 8915   1.423   2.664   4.123 -0.0210  0.1199  0.0124
 2218SOL     OW 8916   0.902   1.157   3.824 -0.7460  0.0871  0.4185
 2218SOL    HW2 8917   0.878   1.166   3.917 -1.5006 -0.2772  0.2589
 2218SOL    HW3 8918   0.912   1.063   3.811  0.7567  0.2171  0.4677
 2218SOL    MW4 8919   0.900   1.146   3.835 -0.6472  0.0561  0.4039
 2219SOL     OW 8920   1.125   1.297   3.804 -0.3295  0.3306 -0.3702
 2219SOL    HW2 8921   1.045   1.251   3.829  0.0201  0.4787  1.0311
 2219SOL    HW3 8922   1.105   1.390   3.818 -0.2450  0.4381 -0.9611
 2219SOL    MW4 8923   1.112   1.303   3.809 -0.2723  0.3643 -0.2635
 2220SOL     OW 8924   1.701   4.493   4.351  0.0767  0.4299  0.4882
 2220SOL    HW2 8925   1.618   4.450   4.373 -0.0639  0.1520 -0.5476
 2220SOL    HW3 8926   1.677   4.559   4.285  0.2159  2.4533  2.4000
 2220SOL    MW4 8927   1.687   4.496   4.345  0.0765  0.6604  0.6037
 2221SOL     OW 8928   4.089   4.340   4.616 -0.0770  0.2199 -0.4930
 2221SOL    HW2 8929   4.145   4.328   4.539 -0.1857 -0.6244 -0.4469
 2221SOL    HW3 8930   4.138   4.301   4.688 -0.5901 -0.2469 -0.3950
 2221SOL    MW4 8931   4.103   4.333   4.615 -0.1588  0.0467 -0.4745
 2222SOL     OW 8932   0.863   1.701   3.754  0.2708 -0.4080 -0.1013
 2222SOL    HW2 8933   0.855   1.706   3.659 -1.1940 -0.2469  0.0134
 2222SOL    HW3 8934   0.796   1.639   3.780 -0.5432  0.8891  0.9759
 2222SOL    MW4 8935   0.853   1.694   3.745 -0.0299 -0.2156  0.0560
 2223SOL     OW 8936   0.423   1.650   3.745  0.0825 -0.4235  0.5315
 2223SOL    HW2 8937   0.351   1.598   3.781  0.2867 -0.1354  1.3592
 2223SOL    HW3 8938   0.502   1.602   3.771  0.2092 -0.5056 -0.0006
 2223SOL    MW4 8939   0.424   1.637   3.753  0.1262 -0.3964  0.5705
 2224SOL     OW 8940   1.103   2.002   3.753 -0.2889 -0.2112 -0.1560
 2224SOL    HW2 8941   1.016   1.979   3.784 -0.0722 -1.4551 -0.4548
 2224SOL    HW3 8942   1.099   1.991   3.658  0.0745  0.1252 -0.2139
 2224SOL    MW4 8943   1.091   1.998   3.744 -0.2123 -0.3309 -0.2031
 2225SOL     OW 8944   4.485   1.450   4.523  0.0947 -0.6205 -0.1135
 2225SOL    HW2 8945   4.470   1.544   4.529 -0.9562 -0.7463 -0.6513
 2225SOL    HW3 8946   4.491   1.433   4.429  1.4864 -0.9121  0.0178
 2225SOL    MW4 8947   4.484   1.460   4.511  0.1397 -0.6756 -0.1669
 2226SOL     OW 8948   3.506   3.748   4.555 -0.4324 -0.1057 -0.0089
 2226SOL    HW2 8949   3.437   3.695   4.595 -0.6139 -0.3387 -0.6305
 2226SOL    HW3 8950   3.587   3.699   4.573 -0.3511  0.4356  1.1844
 2226SOL    MW4 8951   3.508   3.734   4.563 -0.4454 -0.0648  0.0672
 2227SOL     OW 8952   0.875   2.718   3.772 -0.0282 -0.0655  0.1446
 2227SOL    HW2 8953   0.856   2.624   3.770  0.0395 -0.0884  0.6622
 2227SOL    HW3 8954   0.963   2.725   3.736  0.6729 -0.3779  1.7522
 2227SOL    MW4 8955   0.884   2.706   3.767  0.0733 -0.1097  0.4251
 2228SOL     OW 8956   1.370   2.707   3.849  0.3896 -0.1216 -0.7227
 2228SOL    HW2 8957   1.342   2.622   3.813 -0.3562  0.3450 -1.2615
 2228SOL    HW3 8958   1.390   2.689   3.941 -1.0601 -0.6157 -0.4887
 2228SOL    MW4 8959   1.369   2.693   3.856  0.1000 -0.1254 -0.7629
 2229SOL     OW 8960   0.693   3.953   4.646 -0.1353 -0.3527  0.0815
 2229SOL    HW2 8961   0.730   3.947   4.558  0.5504 -0.0733  0.3498
 2229SOL    HW3 8962   0.672   3.863   4.669  0.2678 -0.5012 -0.1231
 2229SOL    MW4 8963   0.695   3.940   4.637  0.0083 -0.3355  0.0892
 2230SOL     OW 8964   0.878   3.210   3.759  0.4007 -0.0969 -0.0798
 2230SOL    HW2 8965   0.794   3.175   3.788  0.5552  0.4084  0.9792
 2230SOL    HW3 8966   0.871   3.211   3.664 -1.2235  1.0170  0.0268
 2230SOL    MW4 8967   0.866   3.205   3.750  0.2068  0.1168  0.0741
 2231SOL     OW 8968   1.098   3.608   3.768  0.8432 -0.1618  0.5352
 2231SOL    HW2 8969   1.083   3.703   3.776 -1.6136 -0.3598 -0.9988
 2231SOL    HW3 8970   1.031   3.569   3.824  1.8881 -0.9974  1.2055
 2231SOL    MW4 8971   1.087   3.616   3.776  0.6568 -0.2983  0.4213
 2232SOL     OW 8972   1.633   1.151   4.775 -0.0244 -0.0543  0.9393
 2232SOL    HW2 8973   1.688   1.228   4.791 -1.1441  0.6573  1.3574
 2232SOL    HW3 8974   1.693   1.077   4.788  1.2324  0.7338 -0.1223
 2232SOL    MW4 8975   1.648   1.152   4.779 -0.0064  0.1435  0.8540
 2233SOL     OW 8976   1.301   3.765   4.254  0.2186 -0.2949 -0.2591
 2233SOL    HW2 8977   1.272   3.814   4.330 -0.0437 -1.0603  0.1455
 2233SOL    HW3 8978   1.236   3.784   4.187  1.4851  1.9003 -0.9073
 2233SOL    MW4 8979   1.289   3.774   4.255  0.3511 -0.1061 -0.2913
 2234SOL     OW 8980   1.066   3.896   3.815 -0.1773 -0.1810  0.5720
 2234SOL    HW2 8981   0.989   3.942   3.781 -0.2331  0.2099  1.2017
 2234SOL    HW3 8982   1.139   3.954   3.793  0.0085 -0.8272 -0.5331
 2234SOL    MW4 8983   1.065   3.910   3.808 -0.1600 -0.2146  0.5093
 2235SOL     OW 8984   4.338   4.231   4.752  0.6253 -0.1953  0.0264
 2235SOL    HW2 8985   4.392   4.248   4.675  0.0860 -1.8007 -0.7111
 2235SOL    HW3 8986   4.385   4.162   4.799  0.7005  0.4334  0.8883
 2235SOL    MW4 8987   4.352   4.224   4.748  0.5641 -0.3242  0.0434
 2236SOL     OW 8988   1.328   0.121   3.781  0.2784  0.0402  0.1376
 2236SOL    HW2 8989   1.407   0.085   3.823  0.0599  0.4249  0.8779
 2236SOL    HW3 8990   1.257   0.067   3.815  0.3770 -1.3422 -1.7412
 2236SOL    MW4 8991   1.329   0.109   3.791  0.2626 -0.0914 -0.0126
 2237SOL     OW 8992   0.918   0.888   3.764  0.5959  0.2184 -0.1335
 2237SOL    HW2 8993   0.911   0.901   3.670 -0.4077  2.6169  0.2293
 2237SOL    HW3 8994   0.844   0.832   3.786  1.2206 -0.9001 -0.8613
 2237SOL    MW4 8995   0.907   0.883   3.755  0.5458  0.3873 -0.1814
 2238SOL     OW 8996   1.576   0.003   3.885  0.5561  0.1574  0.1091
 2238SOL    HW2 8997   1.658   0.027   3.842  0.9577 -0.3659  0.5539
 2238SOL    HW3 8998   1.559  -0.087   3.856 -0.5513  0.7216 -0.9983
 2238SOL    MW4 8999   1.585  -0.006   3.876  0.4630  0.1628  0.0219
 2239SOL     OW 9000   1.220   3.097   4.272 -0.0338 -0.0250  0.4922
 2239SOL    HW2 9001   1.167   3.117   4.350  2.4472  0.9386  1.9938
 2239SOL    HW3 9002   1.157   3.061   4.210 -2.4388  0.9013  2.2618
 2239SOL    MW4 9003   1.204   3.095   4.274 -0.0237  0.2244  0.9241
 2240SOL     OW 9004   1.787   0.375   3.828  0.2555  0.0237  1.2009
 2240SOL    HW2 9005   1.698   0.396   3.799  1.1420  1.3783 -0.6686
 2240SOL    HW3 9006   1.789   0.401   3.920 -1.3811 -0.3799  1.3760
 2240SOL    MW4 9007   1.775   0.382   3.836  0.1565  0.1492  0.9773
 2241SOL     OW 9008   1.525   0.499   3.766  0.4182  0.6440  0.1484
 2241SOL    HW2 9009   1.542   0.586   3.803 -1.1624  0.9257  0.2398
 2241SOL    HW3 9010   1.445   0.470   3.810  0.0767 -0.2085 -1.0262
 2241SOL    MW4 9011   1.516   0.507   3.777  0.1647  0.5687  0.0055
 2242SOL     OW 9012   1.353   0.884   3.762  0.2210  0.5050  0.2262
 2242SOL    HW2 9013   1.268   0.855   3.795  0.6624 -0.7093  0.3308
 2242SOL    HW3 9014   1.416   0.853   3.827  0.7833  1.1128 -0.0205
 2242SOL    MW4 9015   1.350   0.876   3.775  0.3533  0.4250  0.2072
 2243SOL     OW 9016   2.707   3.247   3.771  0.3858  0.3620 -0.0628
 2243SOL    HW2 9017   2.770   3.194   3.820 -0.2714 -0.6931 -0.3583
 2243SOL    HW3 9018   2.621   3.215   3.799 -0.0493  2.1938  0.7843
 2243SOL    MW4 9019   2.704   3.236   3.781  0.2415  0.4642  0.0100
 2244SOL     OW 9020   4.472   1.379   4.245 -0.1112 -0.2929  0.2499
 2244SOL    HW2 9021   4.470   1.284   4.229 -0.1703 -0.5679  1.8149
 2244SOL    HW3 9022   4.541   1.411   4.187 -0.3211 -1.2446 -0.5371
 2244SOL    MW4 9023   4.481   1.371   4.236 -0.1466 -0.4548  0.3524
 2245SOL     OW 9024   2.590   0.957   4.680  0.1516  0.3870 -0.0534
 2245SOL    HW2 9025   2.634   0.891   4.627  0.1454  0.2974  0.0527
 2245SOL    HW3 9026   2.544   1.012   4.617  0.1469  0.2827 -0.1407
 2245SOL    MW4 9027   2.590   0.956   4.665  0.1500  0.3614 -0.0510
 2246SOL     OW 9028   2.114   0.890   4.751  0.2063 -0.1414  0.7609
 2246SOL    HW2 9029   2.125   0.971   4.701  0.1093 -0.5810  0.0174
 2246SOL    HW3 9030   2.202   0.851   4.752  0.2242 -0.0967  1.0043
 2246SOL    MW4 9031   2.127   0.896   4.745  0.1960 -0.1935  0.6948
 2247SOL     OW 9032   0.406   3.485   3.920 -0.1792  0.1489  0.0425
 2247SOL    HW2 9033   0.476   3.542   3.887  0.1514  0.0033  0.4932
 2247SOL    HW3 9034   0.330   3.508   3.866  0.6900 -0.9972 -1.7303
 2247SOL    MW4 9035   0.405   3.496   3.908 -0.0209 -0.0217 -0.1321
 2248SOL     OW 9036   0.059   0.622   4.479 -0.0041  0.2092  0.3055
 2248SOL    HW2 9037   0.035   0.644   4.389  0.1369 -0.2942  0.1458
 2248SOL    HW3 9038   0.015   0.539   4.496 -0.2496  0.4342  0.7953
 2248SOL    MW4 9039   0.050   0.614   4.469 -0.0179  0.1724  0.3490
 2249SOL     OW 9040   1.555   2.042   3.790 -0.2094 -0.3398 -0.3157
 2249SOL    HW2 9041   1.638   2.007   3.822 -0.0724  0.4722  0.2493
 2249SOL    HW3 9042   1.568   2.051   3.695  0.5071  0.1841 -0.1753
 2249SOL    MW4 9043   1.568   2.039   3.781 -0.0968 -0.1636 -0.2227
 2250SOL     OW 9044   1.309   2.445   3.749 -0.0138 -0.3315 -0.0982
 2250SOL    HW2 9045   1.228   2.395   3.758 -0.4526  0.3214 -0.3725
 2250SOL    HW3 9046   1.378   2.385   3.779 -0.6390 -0.7396  0.5344
 2250SOL    MW4 9047   1.308   2.430   3.754 -0.1543 -0.2995 -0.0510
 2251SOL     OW 9048   1.101   3.320   4.566  0.1011 -0.4014  0.0376
 2251SOL    HW2 9049   1.087   3.227   4.546  0.3052  0.0622 -2.4867
 2251SOL    HW3 9050   1.052   3.366   4.497  1.9108  1.3338 -0.1174
 2251SOL    MW4 9051   1.092   3.314   4.554  0.3669 -0.1111 -0.3157
 2252SOL     OW 9052   1.543   2.863   3.689  0.0296  0.0092 -0.1174
 2252SOL    HW2 9053   1.490   2.808   3.746 -1.4020  2.1177  0.6716
 2252SOL    HW3 9054   1.534   2.824   3.602 -0.1737 -1.5094  0.5671
 2252SOL    MW4 9055   1.535   2.851   3.685 -0.1862  0.0870  0.0770
 2253SOL     OW 9056   0.892   1.970   4.154  0.2355  0.1477 -0.1505
 2253SOL    HW2 9057   0.960   1.914   4.190  0.4376 -0.2387 -1.1080
 2253SOL    HW3 9058   0.905   1.965   4.059 -0.4763  0.8906 -0.2941
 2253SOL    MW4 9059   0.903   1.962   4.146  0.1683  0.1948 -0.2956
 2254SOL     OW 9060   1.307   3.206   3.715 -0.2660 -0.2008 -0.1776
 2254SOL    HW2 9061   1.386   3.159   3.742  0.7192  1.6018  0.1424
 2254SOL    HW3 9062   1.314   3.292   3.757 -2.0241  0.2543 -0.7645
 2254SOL    MW4 9063   1.318   3.211   3.724 -0.3680  0.0970 -0.2127
 2255SOL     OW 9064   3.067   2.350   4.476  0.0826 -0.2164  0.0139
 2255SOL    HW2 9065   3.032   2.289   4.541 -0.9188  0.4394  0.0956
 2255SOL    HW3 9066   3.162   2.349   4.491 -0.1915  0.5165  2.0153
 2255SOL    MW4 9067   3.075   2.342   4.487 -0.0856 -0.0334  0.2885
 2256SOL     OW 9068   1.528   3.576   3.744 -0.0300 -0.4472  0.6300
 2256SOL    HW2 9069   1.527   3.661   3.787 -0.8441  0.5073 -1.1989
 2256SOL    HW3 9070   1.445   3.535   3.770 -0.3658 -0.0140  0.2537
 2256SOL    MW4 9071   1.517   3.582   3.753 -0.1817 -0.2642  0.3393
 2257SOL     OW 9072   1.307   3.443   3.859  0.5750  0.5744 -0.1847
 2257SOL    HW2 9073   1.279   3.393   3.936  0.4584  1.0975  0.1159
 2257SOL    HW3 9074   1.233   3.501   3.840  1.2366  1.5969  0.2945
 2257SOL    MW4 9075   1.294   3.444   3.867  0.6469  0.7782 -0.0820
 2258SOL     OW 9076   1.326   4.022   3.807  0.1781  0.3669  0.3033
 2258SOL    HW2 9077   1.356   4.106   3.842  0.6045  0.5539 -0.5103
 2258SOL    HW3 9078   1.320   4.036   3.713 -1.1835 -0.0730  0.3111
 2258SOL    MW4 9079   1.329   4.035   3.799  0.0547  0.3333  0.1969
 2259SOL     OW 9080   4.030   2.698   3.852 -0.2658 -0.6053  0.3897
 2259SOL    HW2 9081   4.005   2.695   3.944  0.1807  0.1017  0.5452
 2259SOL    HW3 9082   3.970   2.762   3.813  0.3215  0.0011  0.4566
 2259SOL    MW4 9083   4.019   2.706   3.859 -0.1287 -0.4323  0.4189
 2260SOL     OW 9084   1.568   4.415   3.782 -0.2577  0.1189 -0.2198
 2260SOL    HW2 9085   1.630   4.351   3.818 -2.0513 -1.8941 -0.5700
 2260SOL    HW3 9086   1.576   4.406   3.687 -0.7504  0.1478 -0.2677
 2260SOL    MW4 9087   1.577   4.405   3.774 -0.5592 -0.1431 -0.2723
 2261SOL     OW 9088   2.256   0.096   3.789  0.0310 -0.4188  0.0683
 2261SOL    HW2 9089   2.247   0.188   3.813  0.9809 -0.5181  0.8228
 2261SOL    HW3 9090   2.258   0.097   3.693 -0.5610  0.2803  0.0546
 2261SOL    MW4 9091   2.255   0.109   3.780  0.0782 -0.3396  0.1659
 2262SOL     OW 9092   1.806   0.102   3.749  0.0954  0.0720 -0.0147
 2262SOL    HW2 9093   1.881   0.076   3.802  2.0685  0.3695 -2.5514
 2262SOL    HW3 9094   1.795   0.195   3.767  1.8446  0.5668 -1.3683
 2262SOL    MW4 9095   1.814   0.111   3.758  0.5865  0.1765 -0.5279
 2263SOL     OW 9096   1.281   0.390   3.890  0.5325  0.2434 -0.3353
 2263SOL    HW2 9097   1.292   0.363   3.981  0.7520  1.6013  0.0443
 2263SOL    HW3 9098   1.280   0.308   3.841  0.3523 -0.5026  0.8925
 2263SOL    MW4 9099   1.282   0.376   3.896  0.5375  0.3241 -0.1230
 2264SOL     OW 9100   2.016   0.504   3.788  0.0119  0.4363  0.3155
 2264SOL    HW2 9101   2.042   0.516   3.697  0.2340 -0.1273  0.2999
 2264SOL    HW3 9102   1.931   0.459   3.783  0.1540  0.1600  0.3894
 2264SOL    MW4 9103   2.008   0.499   3.776  0.0596  0.3254  0.3233
 2265SOL     OW 9104   1.801   1.405   4.744  1.1243 -0.0689  0.3216
 2265SOL    HW2 9105   1.884   1.382   4.704  1.5079  0.5702  0.7268
 2265SOL    HW3 9106   1.807   1.500   4.758  0.2886 -0.0022  0.2532
 2265SOL    MW4 9107   1.813   1.415   4.741  1.0647  0.0242  0.3657
 2266SOL     OW 9108   0.966   2.771   4.049  0.1177  0.5674  0.3580
 2266SOL    HW2 9109   0.947   2.742   3.960  0.9711  1.2605 -0.0514
 2266SOL    HW3 9110   1.033   2.710   4.081 -1.2243 -0.5727  1.0507
 2266SOL    MW4 9111   0.972   2.759   4.041  0.0532  0.5083  0.3958
 2267SOL     OW 9112   1.602   1.275   3.771 -0.1031  0.1676  0.1632
 2267SOL    HW2 9113   1.516   1.239   3.793 -0.3458  0.8039  0.2526
 2267SOL    HW3 9114   1.603   1.361   3.812  0.3501  0.3978 -0.3377
 2267SOL    MW4 9115   1.590   1.281   3.779 -0.0752  0.2819  0.1090
 2268SOL     OW 9116   3.842   4.406   4.329 -0.0452  0.4613 -0.6989
 2268SOL    HW2 9117   3.819   4.346   4.400 -0.1692  0.1329 -1.0155
 2268SOL    HW3 9118   3.907   4.464   4.367 -1.7749  1.7486  0.3777
 2268SOL    MW4 9119   3.847   4.405   4.343 -0.2897  0.5879 -0.5989
 2269SOL     OW 9120   2.213   3.762   4.600 -0.0828  0.0329 -0.0895
 2269SOL    HW2 9121   2.185   3.729   4.685  0.7864  0.2453  0.2912
 2269SOL    HW3 9122   2.227   3.856   4.614  0.6978 -0.0475 -0.2912
 2269SOL    MW4 9123   2.211   3.770   4.613  0.1349  0.0503 -0.0658
 2270SOL     OW 9124   1.345   1.669   3.715 -0.0364  0.3346 -0.1586
 2270SOL    HW2 9125   1.345   1.747   3.770 -1.0676 -1.4699  2.4752
 2270SOL    HW3 9126   1.257   1.632   3.724  0.9820 -2.1613  0.1942
 2270SOL    MW4 9127   1.334   1.674   3.723 -0.0381 -0.2327  0.2353
 2271SOL     OW 9128   0.855   2.447   3.720  0.4023  0.1695  0.4709
 2271SOL    HW2 9129   0.774   2.425   3.766  0.1248 -0.6024 -0.3512
 2271SOL    HW3 9130   0.915   2.375   3.741  0.0882 -0.4935 -0.7809
 2271SOL    MW4 9131   0.852   2.434   3.729  0.3242 -0.0198  0.1972
 2272SOL     OW 9132   2.008   2.048   3.778  0.6002  0.0561  0.1396
 2272SOL    HW2 9133   2.071   1.982   3.807  0.1854 -0.0508  0.8113
 2272SOL    HW3 9134   1.926   2.023   3.819 -0.0399 -0.1828 -1.2749
 2272SOL    MW4 9135   2.006   2.036   3.788  0.4609  0.0105  0.0417
 2273SOL     OW 9136   1.463   4.371   4.387  0.0605 -0.4796 -0.0577
 2273SOL    HW2 9137   1.404   4.366   4.312  0.1772  0.8265 -0.2525
 2273SOL    HW3 9138   1.406   4.381   4.462 -0.0672 -2.0215  0.0711
 2273SOL    MW4 9139   1.448   4.372   4.387  0.0591 -0.5107 -0.0663
 2274SOL     OW 9140   2.204   2.724   3.856 -0.0398 -0.1686  0.2904
 2274SOL    HW2 9141   2.276   2.785   3.843  1.2221 -1.5093  0.8367
 2274SOL    HW3 9142   2.179   2.735   3.948 -0.1520 -0.1359  0.2568
 2274SOL    MW4 9143   2.210   2.733   3.867  0.1118 -0.3412  0.3579
 2275SOL     OW 9144   1.751   2.712   3.829 -0.0458  0.1156  0.3603
 2275SOL    HW2 9145   1.749   2.620   3.804  0.6797  0.3865 -0.7516
 2275SOL    HW3 9146   1.686   2.753   3.771  2.2188  0.8889 -1.7403
 2275SOL    MW4 9147   1.742   2.705   3.818  0.3487  0.2534 -0.0634
 2276SOL     OW 9148   0.427   1.927   3.839 -0.2641 -0.4419 -0.0062
 2276SOL    HW2 9149   0.425   1.834   3.818  0.8261 -0.8270  1.4503
 2276SOL    HW3 9150   0.442   1.929   3.934  0.1860  1.2018 -0.1014
 2276SOL    MW4 9151   0.429   1.915   3.849 -0.0609 -0.2759  0.1733
 2277SOL     OW 9152   1.807   3.235   3.754  0.3237 -0.3901  0.4456
 2277SOL    HW2 9153   1.807   3.316   3.805  1.5147 -0.7437  1.0183
 2277SOL    HW3 9154   1.719   3.199   3.766  0.3907 -0.1514  1.7281
 2277SOL    MW4 9155   1.795   3.241   3.762  0.4896 -0.4055  0.6902
 2278SOL     OW 9156   1.571   3.116   3.805 -0.2381 -0.3143  0.7022
 2278SOL    HW2 9157   1.577   3.026   3.773 -2.1332 -0.4026  0.5377
 2278SOL    HW3 9158   1.595   3.110   3.898  0.7505 -0.7864  0.4261
 2278SOL    MW4 9159   1.575   3.104   3.813 -0.3577 -0.3886  0.6442
 2279SOL     OW 9160   3.098   2.449   4.200 -0.3814  0.0526 -0.4121
 2279SOL    HW2 9161   3.165   2.399   4.153 -0.3549  0.0384 -0.3584
 2279SOL    HW3 9162   3.108   2.422   4.291  0.0077  0.5859 -0.2970
 2279SOL    MW4 9163   3.108   2.439   4.206 -0.3266  0.1211 -0.3896
 2280SOL     OW 9164   2.012   3.612   3.790  0.3627 -0.1215  0.2510
 2280SOL    HW2 9165   2.074   3.548   3.825  1.1240 -0.6877 -2.0352
 2280SOL    HW3 9166   2.028   3.612   3.696 -0.6857  2.3357  0.0284
 2280SOL    MW4 9167   2.022   3.604   3.782  0.3245  0.1280 -0.0799
 2281SOL     OW 9168   0.042   0.912   4.519  0.3579  0.1328 -0.0086
 2281SOL    HW2 9169   0.051   0.817   4.511 -0.8019 -0.0095  0.3692
 2281SOL    HW3 9170  -0.045   0.932   4.485  0.3830  0.9976  0.4130
 2281SOL    MW4 9171   0.032   0.902   4.514  0.2081  0.2282  0.0973
 2282SOL     OW 9172   1.783   3.977   3.795 -0.3042  0.3557 -0.1262
 2282SOL    HW2 9173   1.874   3.954   3.811 -0.4655 -0.0090  0.2855
 2282SOL    HW3 9174   1.777   4.070   3.819 -0.0831  0.3343  0.0120
 2282SOL    MW4 9175   1.794   3.987   3.801 -0.2965  0.3049 -0.0536
 2283SOL     OW 9176   1.997   4.367   3.781 -0.1256 -0.3612 -0.1791
 2283SOL    HW2 9177   2.002   4.456   3.816  1.4857  0.0427 -1.3544
 2283SOL    HW3 9178   2.020   4.376   3.688  1.6427 -2.1780  0.0251
 2283SOL    MW4 9179   2.001   4.380   3.773  0.3204 -0.5474 -0.3073
 2284SOL     OW 9180   0.261   1.080   4.520 -0.1121  0.1506 -0.2744
 2284SOL    HW2 9181   0.328   1.026   4.560 -0.0204  0.0925 -0.5055
 2284SOL    HW3 9182   0.179   1.031   4.534 -0.0136 -0.1120 -0.5914
 2284SOL    MW4 9183   0.259   1.066   4.527 -0.0870  0.1081 -0.3467
 2285SOL     OW 9184   4.280   0.978   4.390 -0.0666 -0.4214  0.1583
 2285SOL    HW2 9185   4.326   1.030   4.324 -1.0569  0.9957  0.5629
 2285SOL    HW3 9186   4.243   0.905   4.341 -0.5297  0.4522 -0.8135
 2285SOL    MW4 9187   4.281   0.976   4.375 -0.2589 -0.1192  0.0834
 2286SOL     OW 9188   2.507   0.006   3.899 -0.1393 -0.0488 -0.7802
 2286SOL    HW2 9189   2.580   0.043   3.850 -0.2603 -0.2483 -1.1070
 2286SOL    HW3 9190   2.429   0.051   3.865 -0.2010 -0.0248 -0.6126
 2286SOL    MW4 9191   2.506   0.017   3.888 -0.1638 -0.0720 -0.8013
 2287SOL     OW 9192   3.489   0.810   4.616 -0.3646 -0.4172 -0.1467
 2287SOL    HW2 9193   3.545   0.845   4.547 -0.1255  1.1631  0.8192
 2287SOL    HW3 9194   3.527   0.725   4.637 -0.5573 -1.0076 -2.0797
 2287SOL    MW4 9195   3.501   0.803   4.609 -0.3583 -0.2866 -0.2742
 2288SOL     OW 9196   2.476   0.547   3.726 -0.2204  0.1068  0.2250
 2288SOL    HW2 9197   2.497   0.638   3.749 -0.5477  0.6263 -1.5134
 2288SOL    HW3 9198   2.488   0.542   3.631  0.6667 -1.9041  0.4098
 2288SOL    MW4 9199   2.480   0.559   3.717 -0.1464 -0.0899  0.0200
 2289SOL     OW 9200   2.543   0.799   3.826 -0.2352  0.4371  0.2467
 2289SOL    HW2 9201   2.534   0.798   3.922 -1.0688 -3.6700  0.1967
 2289SOL    HW3 9202   2.460   0.837   3.796 -0.5844  0.3951  1.1209
 2289SOL    MW4 9203   2.531   0.804   3.835 -0.3910 -0.1103  0.3555
 2290SOL     OW 9204   2.032   0.790   3.851 -0.4164  0.2644  0.1467
 2290SOL    HW2 9205   2.106   0.839   3.816 -1.5903  0.9229 -1.4591
 2290SOL    HW3 9206   2.058   0.698   3.845  1.9844  0.5991  3.5844
 2290SOL    MW4 9207   2.045   0.785   3.846 -0.2544  0.3955  0.3884
 2291SOL     OW 9208   0.999   3.800   4.770  0.3675  0.1853 -0.0200
 2291SOL    HW2 9209   0.983   3.894   4.775  1.1798  0.4464 -1.8343
 2291SOL    HW3 9210   1.093   3.792   4.757  0.5548 -0.9773  1.8258
 2291SOL    MW4 9211   1.009   3.811   4.769  0.4994  0.0663 -0.0157
 2292SOL     OW 9212   4.384   3.821   4.549  0.0085  0.1998 -0.0614
 2292SOL    HW2 9213   4.328   3.745   4.534  0.9223 -0.7270  1.0362
 2292SOL    HW3 9214   4.405   3.854   4.462 -1.1045 -0.2856 -0.5153
 2292SOL    MW4 9215   4.379   3.815   4.536 -0.0176  0.0136  0.0243
 2293SOL     OW 9216   2.449   1.558   3.878  0.2967  0.0303 -0.0548
 2293SOL    HW2 9217   2.511   1.625   3.848 -0.3140  1.5745  2.0186
 2293SOL    HW3 9218   2.366   1.582   3.839  0.5871 -0.9484 -1.2959
 2293SOL    MW4 9219   2.446   1.570   3.869  0.2546  0.1049  0.0551
 2294SOL     OW 9220   2.231   1.652   3.746  0.1618 -0.0348  0.0601
 2294SOL    HW2 9221   2.228   1.661   3.650  1.0097 -1.7204 -0.1460
 2294SOL    HW3 9222   2.151   1.605   3.768  0.7826 -1.1434 -0.0172
 2294SOL    MW4 9223   2.220   1.647   3.736  0.3560 -0.4035  0.0226
 2295SOL     OW 9224   2.746   3.769   4.554  0.2953  0.3276 -0.1144
 2295SOL    HW2 9225   2.664   3.728   4.579 -0.5109  0.3929 -2.4838
 2295SOL    HW3 9226   2.733   3.862   4.571  0.5426  0.1288  1.1914
 2295SOL    MW4 9227   2.734   3.776   4.559  0.2217  0.3099 -0.2546
 2296SOL     OW 9228   2.201   1.907   3.872  0.1352  0.0105 -0.2052
 2296SOL    HW2 9229   2.200   1.827   3.820  0.3945  0.1504 -0.4294
 2296SOL    HW3 9230   2.270   1.961   3.832 -0.0483  0.3529 -0.0678
 2296SOL    MW4 9231   2.210   1.904   3.860  0.1452  0.0740 -0.2167
 2297SOL     OW 9232   2.675   1.948   3.882  0.4150 -0.2183 -0.2119
 2297SOL    HW2 9233   2.683   1.959   3.976  1.5066  0.8349 -0.4256
 2297SOL    HW3 9234   2.687   1.854   3.868 -0.1846 -0.4434  0.7284
 2297SOL    MW4 9235   2.677   1.937   3.892  0.4797 -0.1090 -0.1161
 2298SOL     OW 9236   2.000   2.332   3.865  0.2605  0.3755  0.3115
 2298SOL    HW2 9237   2.073   2.379   3.825 -0.7013  1.1583 -0.5669
 2298SOL    HW3 9238   2.020   2.240   3.854  0.5084  0.5938 -1.0548
 2298SOL    MW4 9239   2.012   2.326   3.858  0.1662  0.5076  0.0153
 2299SOL     OW 9240   4.458   1.116   4.191  0.1968  0.0119 -0.1098
 2299SOL    HW2 9241   4.443   1.114   4.096  1.0216 -0.0070 -0.2432
 2299SOL    HW3 9242   4.549   1.088   4.201  0.2308  0.3922  0.6592
 2299SOL    MW4 9243   4.468   1.112   4.179  0.3104  0.0596 -0.0262
 2300SOL     OW 9244   2.436   2.040   3.778  0.4658  0.2065  0.2867
 2300SOL    HW2 9245   2.521   2.001   3.797  0.6052  0.8942  1.1267
 2300SOL    HW3 9246   2.452   2.134   3.779 -0.1713  0.3254 -0.2310
 2300SOL    MW4 9247   2.449   2.047   3.781  0.4001  0.3130  0.3293
 2301SOL     OW 9248   4.057   2.741   4.511  0.0985  0.1920  0.0671
 2301SOL    HW2 9249   4.092   2.754   4.423  0.1341 -1.5684 -0.1883
 2301SOL    HW3 9250   3.989   2.808   4.519  1.6468  1.8619 -0.4343
 2301SOL    MW4 9251   4.052   2.752   4.500  0.3076  0.1800 -0.0324
 2302SOL     OW 9252   1.984   2.827   3.720 -0.5053 -0.0777 -0.5374
 2302SOL    HW2 9253   2.066   2.786   3.748  0.0882  0.5616 -1.3341
 2302SOL    HW3 9254   1.916   2.768   3.752  0.2097 -0.0251  1.1228
 2302SOL    MW4 9255   1.986   2.814   3.728 -0.3326  0.0134 -0.4232
 2303SOL     OW 9256   1.563   3.428   4.473  0.1262  0.4279  0.2858
 2303SOL    HW2 9257   1.647   3.403   4.512 -0.8467 -1.3201  1.3429
 2303SOL    HW3 9258   1.551   3.365   4.402 -0.2812  0.6912  0.1223
 2303SOL    MW4 9259   1.573   3.416   4.469 -0.0558  0.2322  0.4039
 2304SOL     OW 9260   1.976   3.868   4.154 -0.0393 -0.2784 -0.6993
 2304SOL    HW2 9261   2.012   3.814   4.224  0.1504  0.9104  0.1247
 2304SOL    HW3 9262   1.923   3.933   4.199 -0.7932 -0.1658 -1.7300
 2304SOL    MW4 9263   1.974   3.869   4.169 -0.1137 -0.1068 -0.7272
 2305SOL     OW 9264   2.679   4.007   3.712 -0.1787  0.1671  0.2609
 2305SOL    HW2 9265   2.620   3.958   3.770  0.4274  0.8083  1.4356
 2305SOL    HW3 9266   2.765   3.997   3.751  0.1767  0.9771 -0.2928
 2305SOL    MW4 9267   2.683   3.999   3.725 -0.0517  0.3591  0.3428
 2306SOL     OW 9268   2.021   3.873   3.874 -0.2751  0.4369  0.4326
 2306SOL    HW2 9269   2.013   3.782   3.847 -1.2316  1.0900 -1.6000
 2306SOL    HW3 9270   2.015   3.871   3.970 -1.7995 -1.4937  0.3214
 2306SOL    MW4 9271   2.019   3.861   3.883 -0.6022  0.2682  0.1497
 2307SOL     OW 9272   1.760   4.251   3.882  0.4888 -0.2988  0.1318
 2307SOL    HW2 9273   1.767   4.272   3.975 -1.3869  1.2300 -0.0325
 2307SOL    HW3 9274   1.841   4.284   3.843  1.5983 -1.5844  1.3176
 2307SOL    MW4 9275   1.772   4.258   3.889  0.3878 -0.2666  0.2666
 2308SOL     OW 9276   2.476   4.407   3.800  0.4582 -0.4274  0.4452
 2308SOL    HW2 9277   2.477   4.492   3.844  1.1979  0.2728 -0.9144
 2308SOL    HW3 9278   2.398   4.363   3.835  0.6508  0.3883  1.9324
 2308SOL    MW4 9279   2.465   4.412   3.810  0.5810 -0.2275  0.4621
 2309SOL     OW 9280   2.901   4.663   3.868 -0.4715 -0.2129 -0.4212
 2309SOL    HW2 9281   2.903   4.664   3.964 -2.1992  1.0652 -0.3827
 2309SOL    HW3 9282   2.990   4.686   3.842 -0.1750  0.1444  0.8825
 2309SOL    MW4 9283   2.913   4.666   3.877 -0.6604  0.0024 -0.2441
 2310SOL     OW 9284   2.712   0.148   3.768 -0.1525 -0.3771 -0.1425
 2310SOL    HW2 9285   2.782   0.094   3.805 -1.1483 -0.9878  0.8780
 2310SOL    HW3 9286   2.707   0.121   3.676  0.0278 -1.3242  0.1214
 2310SOL    MW4 9287   2.721   0.137   3.761 -0.2601 -0.5826  0.0269
 2311SOL     OW 9288   2.689   0.419   3.841 -0.0752  0.3860  0.2468
 2311SOL    HW2 9289   2.619   0.464   3.793 -0.6561  0.4055  1.1030
 2311SOL    HW3 9290   2.696   0.333   3.799  0.1500  0.7936 -0.5561
 2311SOL    MW4 9291   2.681   0.413   3.829 -0.1221  0.4423  0.2539
 2312SOL     OW 9292   2.899   0.559   3.750  0.1691 -0.2438  0.0136
 2312SOL    HW2 9293   2.821   0.509   3.776 -0.0463  1.0388  1.8934
 2312SOL    HW3 9294   2.972   0.514   3.792  0.4739 -1.4512 -1.7568
 2312SOL    MW4 9295   2.898   0.547   3.759  0.1810 -0.2339  0.0281
 2313SOL     OW 9296   3.143   0.985   3.764  0.1391 -0.0883 -0.3405
 2313SOL    HW2 9297   3.143   0.965   3.670 -0.5045  0.3500 -0.4398
 2313SOL    HW3 9298   3.090   0.917   3.804  0.7897 -0.5373 -0.2300
 2313SOL    MW4 9299   3.136   0.974   3.757  0.1400 -0.0896 -0.3390
 2314SOL     OW 9300   2.776   0.914   3.747 -0.1678  0.2843 -0.4069
 2314SOL    HW2 9301   2.849   0.920   3.809  0.2926 -0.6544 -0.8468
 2314SOL    HW3 9302   2.707   0.867   3.795  0.2960 -0.7026 -0.6915
 2314SOL    MW4 9303   2.776   0.908   3.761 -0.0460  0.0303 -0.5023
 2315SOL     OW 9304   2.907   1.602   3.873  0.2319 -0.4613  0.0183
 2315SOL    HW2 9305   2.992   1.631   3.841 -0.3827  0.1037 -1.1393
 2315SOL    HW3 9306   2.924   1.571   3.962  1.4852  0.4848  0.1262
 2315SOL    MW4 9307   2.920   1.602   3.880  0.3164 -0.2619 -0.1206
 2316SOL     OW 9308   2.459   2.103   4.502 -0.0236  0.0775 -0.2096
 2316SOL    HW2 9309   2.385   2.157   4.529  0.3310  0.1501  0.6341
 2316SOL    HW3 9310   2.536   2.147   4.538  0.2540 -1.0466  0.6021
 2316SOL    MW4 9311   2.460   2.116   4.510  0.0596 -0.0613  0.0081
 2317SOL     OW 9312   3.132   1.692   3.740 -0.0193  0.4304  0.0204
 2317SOL    HW2 9313   3.124   1.678   3.646  0.2461 -0.2044  0.0920
 2317SOL    HW3 9314   3.218   1.657   3.762 -0.0026  0.7518  0.4677
 2317SOL    MW4 9315   3.142   1.686   3.730  0.0176  0.3890  0.0892
 2318SOL     OW 9316   2.667   1.696   3.774 -0.1327 -0.3202  0.2257
 2318SOL    HW2 9317   2.744   1.651   3.810 -0.5829 -1.6957 -0.5237
 2318SOL    HW3 9318   2.690   1.714   3.683 -0.8006 -0.9668 -0.0704
 2318SOL    MW4 9319   2.680   1.693   3.767 -0.2801 -0.5870  0.0877
 2319SOL     OW 9320   2.963   0.807   3.897  0.1971 -0.0325  0.0013
 2319SOL    HW2 9321   2.961   0.819   3.992  2.1646 -0.6906  0.1544
 2319SOL    HW3 9322   2.929   0.719   3.883 -2.6051  1.0155 -0.1513
 2319SOL    MW4 9323   2.958   0.797   3.908  0.0873  0.0189  0.0010
 2320SOL     OW 9324   0.687   4.353   4.580 -0.1988  0.2515 -0.2380
 2320SOL    HW2 9325   0.631   4.420   4.543 -1.0008 -0.2660  0.0298
 2320SOL    HW3 9326   0.704   4.383   4.669 -0.2203  0.3002 -0.2502
 2320SOL    MW4 9327   0.682   4.366   4.587 -0.3074  0.1903 -0.2041
 2321SOL     OW 9328   1.495   0.474   4.240 -0.5753 -0.4986 -0.4117
 2321SOL    HW2 9329   1.569   0.497   4.184  0.3075 -1.0462  0.5193
 2321SOL    HW3 9330   1.487   0.548   4.301 -0.7699 -0.4609 -0.4820
 2321SOL    MW4 9331   1.504   0.487   4.241 -0.4845 -0.5659 -0.2985
 2322SOL     OW 9332   1.047   4.147   4.502 -0.4438 -0.0959  0.2142
 2322SOL    HW2 9333   1.017   4.230   4.465 -0.0278  0.1086  0.3290
 2322SOL    HW3 9334   0.994   4.080   4.459 -0.2683  0.1722 -0.4210
 2322SOL    MW4 9335   1.036   4.149   4.492 -0.3657 -0.0339  0.1454
 2323SOL     OW 9336   2.562   3.101   4.151  0.3961  0.2093 -0.1599
 2323SOL    HW2 9337   2.651   3.080   4.180  0.3292  0.6456  0.3801
 2323SOL    HW3 9338   2.544   3.186   4.191 -0.2344  0.1540 -0.3287
 2323SOL    MW4 9339   2.571   3.109   4.160  0.3042  0.2594 -0.1111
 2324SOL     OW 9340   2.920   2.861   3.512 -0.3713  0.0018 -0.1161
 2324SOL    HW2 9341   2.921   2.949   3.474 -1.3455  0.7389  1.5009
 2324SOL    HW3 9342   2.839   2.821   3.479 -0.5749  0.1760  0.1744
 2324SOL    MW4 9343   2.909   2.867   3.503 -0.5267  0.1223  0.1357
 2325SOL     OW 9344   2.415   1.466   4.126  0.3513  0.0582 -0.2690
 2325SOL    HW2 9345   2.392   1.552   4.162 -0.5676 -1.2396  2.3981
 2325SOL    HW3 9346   2.414   1.478   4.032  1.4961  3.3079  0.0716
 2325SOL    MW4 9347   2.412   1.479   4.119  0.3812  0.3159  0.1278
 2326SOL     OW 9348   2.677   2.456   3.761 -0.2232  0.0061  0.4355
 2326SOL    HW2 9349   2.669   2.544   3.797 -0.4487  0.4505 -0.7026
 2326SOL    HW3 9350   2.759   2.423   3.797  0.2172  0.9451  0.3012
 2326SOL    MW4 9351   2.687   2.463   3.771 -0.1945  0.1886  0.2675
 2327SOL     OW 9352   3.117   3.213   3.812  0.2716  0.3476  0.1936
 2327SOL    HW2 9353   3.204   3.193   3.845 -0.4791 -1.1576  1.2961
 2327SOL    HW3 9354   3.107   3.308   3.826  1.4215  0.3952  0.7343
 2327SOL    MW4 9355   3.127   3.223   3.818  0.3242  0.1552  0.4106
 2328SOL     OW 9356   2.908   3.911   3.823  0.2100  0.3214  0.3713
 2328SOL    HW2 9357   2.881   3.901   3.914 -1.5064 -0.5750 -0.2157
 2328SOL    HW3 9358   2.923   3.821   3.793  0.4785  0.5959 -0.3153
 2328SOL    MW4 9359   2.906   3.898   3.831  0.0188  0.2394  0.2031
 2329SOL     OW 9360   1.117   1.824   4.535 -0.2083  0.3315  0.2114
 2329SOL    HW2 9361   1.038   1.874   4.554  0.2078  0.7192  0.9565
 2329SOL    HW3 9362   1.115   1.810   4.440  0.4320  3.0815 -0.2580
 2329SOL    MW4 9363   1.106   1.829   4.525 -0.0688  0.7455  0.2475
 2330SOL     OW 9364   2.489   3.587   3.758  0.1774 -0.1030  0.1785
 2330SOL    HW2 9365   2.418   3.528   3.786  0.6975 -1.0709 -0.5260
 2330SOL    HW3 9366   2.569   3.547   3.792  0.3090  1.5794  1.9419
 2330SOL    MW4 9367   2.490   3.574   3.766  0.2632 -0.0088  0.3183
 2331SOL     OW 9368   2.237   4.269   3.904  0.2185 -0.5233 -0.3402
 2331SOL    HW2 9369   2.170   4.301   3.843  1.2732 -0.4461 -1.4937
 2331SOL    HW3 9370   2.250   4.177   3.879  0.3904 -0.5937  0.0099
 2331SOL    MW4 9371   2.230   4.261   3.892  0.3805 -0.5221 -0.4461
 2332SOL     OW 9372   2.915   4.415   3.749 -0.3164  0.2405  0.1641
 2332SOL    HW2 9373   2.830   4.375   3.770 -0.6553  1.2811  0.8088
 2332SOL    HW3 9374   2.914   4.498   3.795  1.2168  0.1029  0.4602
 2332SOL    MW4 9375   2.903   4.420   3.758 -0.1590  0.3595  0.2882
 2333SOL     OW 9376   0.857   1.980   4.584  0.3422 -0.2552 -0.5248
 2333SOL    HW2 9377   0.839   2.012   4.496 -0.0330 -0.3077 -0.4657
 2333SOL    HW3 9378   0.787   1.917   4.602  0.9186 -0.9033 -0.5320
 2333SOL    MW4 9379   0.845   1.976   4.574  0.3688 -0.3477 -0.5178
 2334SOL     OW 9380   3.140   0.109   3.768  0.0381  0.0227  0.3830
 2334SOL    HW2 9381   3.144   0.114   3.673  0.2871 -0.5125  0.3589
 2334SOL    HW3 9382   3.131   0.199   3.797 -0.3116  0.1617 -0.1606
 2334SOL    MW4 9383   3.140   0.121   3.760  0.0246 -0.0295  0.3080
 2335SOL     OW 9384   3.119   0.387   3.833 -0.2387 -0.0137 -0.0052
 2335SOL    HW2 9385   3.134   0.386   3.927  0.0102  1.0960 -0.0288
 2335SOL    HW3 9386   3.193   0.437   3.797  0.4076 -1.5916 -0.9277
 2335SOL    MW4 9387   3.131   0.394   3.841 -0.1206 -0.0755 -0.1299
 2336SOL     OW 9388   3.359   0.544   3.746 -0.3290  0.1418  0.3530
 2336SOL    HW2 9389   3.353   0.627   3.794 -0.8869 -0.0036  0.5284
 2336SOL    HW3 9390   3.433   0.499   3.786 -0.2746  0.3815  0.5225
 2336SOL    MW4 9391   3.368   0.549   3.757 -0.3955  0.1543  0.3984
 2337SOL     OW 9392   3.362   0.807   3.842  0.1638 -0.2423 -0.1521
 2337SOL    HW2 9393   3.375   0.813   3.936  1.3361 -0.3541 -0.2953
 2337SOL    HW3 9394   3.298   0.876   3.822 -1.8676 -1.7209  1.0318
 2337SOL    MW4 9395   3.355   0.817   3.852  0.0503 -0.4520 -0.0148
 2338SOL     OW 9396   2.370   1.833   4.538  0.2380  0.4456  0.1464
 2338SOL    HW2 9397   2.390   1.781   4.460 -0.0096 -0.8669  0.9322
 2338SOL    HW3 9398   2.407   1.919   4.520 -0.4853  0.4002 -1.7437
 2338SOL    MW4 9399   2.377   1.837   4.525  0.1099  0.2666  0.0010
 2339SOL     OW 9400   3.131   1.256   3.839  0.2361 -0.0163 -0.1777
 2339SOL    HW2 9401   3.113   1.167   3.809  0.2574 -0.2752  0.5626
 2339SOL    HW3 9402   3.070   1.311   3.790 -1.9393 -0.7697  1.5914
 2339SOL    MW4 9403   3.121   1.251   3.829 -0.0482 -0.1500  0.1533
 2340SOL     OW 9404   3.382   1.335   3.680  0.1414 -0.0163 -0.7174
 2340SOL    HW2 9405   3.302   1.301   3.719  0.3561  0.7689  0.4274
 2340SOL    HW3 9406   3.375   1.313   3.587 -1.8156  0.8119 -0.7902
 2340SOL    MW4 9407   3.370   1.328   3.673 -0.0885  0.1965 -0.5758
 2341SOL     OW 9408   3.385   1.585   3.804  0.0591  0.5369  0.2503
 2341SOL    HW2 9409   3.425   1.568   3.889  0.2674 -1.1216 -0.1658
 2341SOL    HW3 9410   3.402   1.506   3.753  0.4660  1.7501 -1.5483
 2341SOL    MW4 9411   3.393   1.572   3.809  0.1404  0.4781 -0.0420
 2342SOL     OW 9412   3.455   4.236   4.126 -0.2776 -0.4529 -0.1801
 2342SOL    HW2 9413   3.470   4.269   4.215 -0.6546 -0.5280 -0.0894
 2342SOL    HW3 9414   3.360   4.221   4.121 -0.1047 -1.5669 -0.2119
 2342SOL    MW4 9415   3.444   4.238   4.137 -0.3045 -0.6104 -0.1726
 2343SOL     OW 9416   1.368   0.018   4.531 -0.3278  0.2180  0.1921
 2343SOL    HW2 9417   1.373   0.015   4.435 -0.8009  0.4897  0.1525
 2343SOL    HW3 9418   1.335  -0.068   4.556  0.2531 -0.0170  0.1438
 2343SOL    MW4 9419   1.364   0.006   4.521 -0.3135  0.2228  0.1802
 2344SOL     OW 9420   2.995   1.904   4.628 -0.0525  0.2633 -0.2572
 2344SOL    HW2 9421   2.915   1.857   4.603 -1.2640  2.4232 -0.5543
 2344SOL    HW3 9422   3.032   1.933   4.544  0.8401 -0.4015 -0.0951
 2344SOL    MW4 9423   2.989   1.902   4.613 -0.0944  0.4605 -0.2751
 2345SOL     OW 9424   1.690   0.335   4.422 -0.1264  0.0340 -0.4459
 2345SOL    HW2 9425   1.657   0.260   4.472 -1.0498 -0.1938 -1.3655
 2345SOL    HW3 9426   1.645   0.329   4.338 -1.4408  2.5508  0.0252
 2345SOL    MW4 9427   1.680   0.324   4.417 -0.4216  0.3360 -0.5050
 2346SOL     OW 9428   3.997   2.451   3.740 -0.0597 -0.3508  0.1190
 2346SOL    HW2 9429   4.075   2.400   3.760 -0.8522 -2.0665 -1.0747
 2346SOL    HW3 9430   4.015   2.537   3.778  2.8002 -0.4198 -0.9206
 2346SOL    MW4 9431   4.010   2.456   3.747  0.2136 -0.5863 -0.1755
 2347SOL     OW 9432   2.034   3.725   4.819 -0.0003  0.2424 -0.3086
 2347SOL    HW2 9433   1.970   3.747   4.751 -1.5095  0.8023  1.2710
 2347SOL    HW3 9434   2.035   3.801   4.877  0.4490 -0.6955  0.9207
 2347SOL    MW4 9435   2.026   3.738   4.817 -0.1402  0.1926  0.0620
 2348SOL     OW 9436   0.676   1.805   4.242 -0.4199 -0.0654  0.6432
 2348SOL    HW2 9437   0.684   1.786   4.336 -0.0166 -0.6981  0.4791
 2348SOL    HW3 9438   0.758   1.849   4.220 -0.7242  0.5434  0.6892
 2348SOL    MW4 9439   0.688   1.808   4.252 -0.4068 -0.0685  0.6275
 2349SOL     OW 9440   3.332   2.882   3.765  0.4714 -0.5258  0.1235
 2349SOL    HW2 9441   3.326   2.874   3.670 -1.6069 -1.5308  0.3171
 2349SOL    HW3 9442   3.410   2.832   3.788  1.2893  0.1632 -1.0841
 2349SOL    MW4 9443   3.342   2.875   3.756  0.3052 -0.5674 -0.0105
 2350SOL     OW 9444   3.100   3.501   3.873  0.0479 -0.1229 -0.2116
 2350SOL    HW2 9445   3.189   3.535   3.859  0.3280 -1.2547 -1.2109
 2350SOL    HW3 9446   3.044   3.556   3.819  0.2173  0.1926 -0.0656
 2350SOL    MW4 9447   3.105   3.513   3.864  0.1073 -0.2308 -0.3242
 2351SOL     OW 9448   0.886   2.828   4.456 -0.3866 -0.2940  0.2144
 2351SOL    HW2 9449   0.960   2.774   4.429 -0.8150 -0.0848 -1.4160
 2351SOL    HW3 9450   0.835   2.842   4.376 -0.6240  1.9895  0.7166
 2351SOL    MW4 9451   0.889   2.823   4.442 -0.4744  0.0346  0.0653
 2352SOL     OW 9452   3.593   3.482   3.894  0.1632 -0.2693 -0.0834
 2352SOL    HW2 9453   3.509   3.522   3.873 -0.1605 -0.5063  0.7160
 2352SOL    HW3 9454   3.656   3.525   3.836 -0.7380 -1.1332 -1.7165
 2352SOL    MW4 9455   3.590   3.493   3.884  0.0014 -0.4146 -0.1934
 2353SOL     OW 9456   2.412   1.710   4.279  0.4160 -0.4393  0.1125
 2353SOL    HW2 9457   2.503   1.734   4.259  0.0301 -1.5353 -3.3755
 2353SOL    HW3 9458   2.361   1.783   4.245 -0.0998 -0.7410  0.2422
 2353SOL    MW4 9459   2.417   1.723   4.272  0.2971 -0.6238 -0.3309
 2354SOL     OW 9460   3.175   4.001   3.783 -0.0002 -0.2341  0.3105
 2354SOL    HW2 9461   3.087   3.970   3.804 -0.0883  0.5123  1.0651
 2354SOL    HW3 9462   3.170   4.096   3.795  1.0214 -0.2396  0.7531
 2354SOL    MW4 9463   3.163   4.010   3.787  0.1225 -0.1364  0.4685
 2355SOL     OW 9464   3.131   4.277   3.838 -0.3207  0.1575 -0.1360
 2355SOL    HW2 9465   3.055   4.331   3.817 -0.3870 -0.8919 -2.7153
 2355SOL    HW3 9466   3.206   4.333   3.817 -0.3493  0.8292  1.4622
 2355SOL    MW4 9467   3.131   4.292   3.833 -0.3333  0.1073 -0.2654
 2356SOL     OW 9468   3.351   4.403   3.767 -0.2394  0.2695  0.0478
 2356SOL    HW2 9469   3.423   4.355   3.807 -0.9217 -0.0133  0.9439
 2356SOL    HW3 9470   3.341   4.481   3.821 -0.9059  0.0755  0.2073
 2356SOL    MW4 9471   3.359   4.407   3.779 -0.4172  0.2065  0.1874
 2357SOL     OW 9472   4.408   3.218   4.229  0.0778 -0.1119  0.0276
 2357SOL    HW2 9473   4.397   3.206   4.323  0.6765 -1.3696 -0.0488
 2357SOL    HW3 9474   4.428   3.311   4.218 -0.1828  0.0795  1.1118
 2357SOL    MW4 9475   4.409   3.229   4.240  0.1230 -0.2527  0.1607
 2358SOL     OW 9476   3.549   0.368   3.867  0.6027 -0.1580  0.1771
 2358SOL    HW2 9477   3.553   0.284   3.820 -0.7659 -0.1467  0.0068
 2358SOL    HW3 9478   3.538   0.343   3.959  0.5664 -0.1703  0.1694
 2358SOL    MW4 9479   3.548   0.354   3.873  0.4172 -0.1581  0.1535
 2359SOL     OW 9480   0.616   2.300   4.146  0.3090  0.1266  0.2373
 2359SOL    HW2 9481   0.677   2.252   4.202  0.1146 -0.3019  0.0837
 2359SOL    HW3 9482   0.531   2.261   4.165  0.3878 -0.7131 -1.1190
 2359SOL    MW4 9483   0.613   2.289   4.156  0.2937 -0.0408  0.0377
 2360SOL     OW 9484   0.257   1.373   4.632 -0.0518 -0.2769  0.2527
 2360SOL    HW2 9485   0.264   1.281   4.608  0.0273  0.2314 -1.7555
 2360SOL    HW3 9486   0.170   1.399   4.601 -0.1217  0.3038  0.9123
 2360SOL    MW4 9487   0.246   1.364   4.625 -0.0506 -0.1333  0.0753
 2361SOL     OW 9488   3.812   0.488   3.849  0.2568 -0.0783  0.4058
 2361SOL    HW2 9489   3.807   0.581   3.867  0.4001 -0.2747  1.5256
 2361SOL    HW3 9490   3.721   0.458   3.855  0.2083 -0.0046  0.0281
 2361SOL    MW4 9491   3.799   0.496   3.852  0.2694 -0.0944  0.5035
 2362SOL     OW 9492   3.613   0.926   3.764  0.4346 -0.1175  0.4922
 2362SOL    HW2 9493   3.599   1.018   3.785 -0.5338  0.1639 -1.2209
 2362SOL    HW3 9494   3.533   0.882   3.791  0.3977 -0.2462  0.1812
 2362SOL    MW4 9495   3.601   0.933   3.770  0.3021 -0.0973  0.2253
 2363SOL     OW 9496   3.595   1.199   3.792 -0.2345 -0.3082 -0.1118
 2363SOL    HW2 9497   3.675   1.251   3.785 -0.4368  0.0181 -0.0186
 2363SOL    HW3 9498   3.527   1.256   3.756 -0.5818 -0.2199  0.6809
 2363SOL    MW4 9499   3.597   1.213   3.786 -0.3071 -0.2534  0.0050
 2364SOL     OW 9500   3.870   1.310   3.754 -0.0352  0.4381  0.2431
 2364SOL    HW2 9501   3.936   1.264   3.807 -0.5767  0.0632  0.6001
 2364SOL    HW3 9502   3.883   1.402   3.776  0.6439  0.4066 -0.0006
 2364SOL    MW4 9503   3.881   1.316   3.764 -0.0167  0.3847  0.2580
 2365SOL     OW 9504   3.835   1.601   3.847 -0.3779 -0.6400 -0.4268
 2365SOL    HW2 9505   3.795   1.591   3.934  0.6480 -0.1928  0.0998
 2365SOL    HW3 9506   3.761   1.621   3.789 -0.7288  1.9118  0.8405
 2365SOL    MW4 9507   3.820   1.602   3.851 -0.2890 -0.2443 -0.1900
 2366SOL     OW 9508   3.626   1.696   3.702  0.0134  0.1663  0.1425
 2366SOL    HW2 9509   3.631   1.707   3.607  0.5620 -0.2748  0.1169
 2366SOL    HW3 9510   3.536   1.669   3.718 -0.4090  1.3597 -0.1303
 2366SOL    MW4 9511   3.615   1.694   3.692  0.0298  0.2656  0.1032
 2367SOL     OW 9512   3.339   2.002   3.764 -0.1829  0.4310 -0.0917
 2367SOL    HW2 9513   3.321   2.016   3.671  0.1511 -0.1220 -0.2394
 2367SOL    HW3 9514   3.256   1.970   3.800 -0.2573  0.4593 -0.2378
 2367SOL    MW4 9515   3.325   1.999   3.757 -0.1488  0.3618 -0.1304
 2368SOL     OW 9516   3.810   2.058   3.754  0.0284  0.3186 -0.3092
 2368SOL    HW2 9517   3.785   2.147   3.781  1.8414  0.2459  1.7017
 2368SOL    HW3 9518   3.753   2.001   3.805  0.9530  0.2836  0.7219
 2368SOL    MW4 9519   3.799   2.062   3.764  0.3893  0.3045  0.0920
 2369SOL     OW 9520   2.907   0.027   4.142  0.1092 -0.1419 -0.5363
 2369SOL    HW2 9521   2.813   0.026   4.157  0.1627  0.6399 -0.1577
 2369SOL    HW3 9522   2.941  -0.046   4.194 -0.2189 -0.1013 -0.2700
 2369SOL    MW4 9523   2.899   0.017   4.151  0.0730 -0.0334 -0.4511
 2370SOL     OW 9524   2.689   1.995   4.147  0.4584  0.3323  0.3412
 2370SOL    HW2 9525   2.754   2.058   4.179  0.8001 -0.0891  0.4850
 2370SOL    HW3 9526   2.607   2.021   4.188  0.3562  1.4116 -0.5333
 2370SOL    MW4 9527   2.687   2.007   4.156  0.4902  0.4189  0.2441
 2371SOL     OW 9528   3.028   3.716   4.557 -0.4694  0.6411  0.0197
 2371SOL    HW2 9529   3.072   3.799   4.536 -0.9118  0.4246 -1.8926
 2371SOL    HW3 9530   2.936   3.731   4.535 -0.9465  0.3502  1.7901
 2371SOL    MW4 9531   3.022   3.729   4.551 -0.5908  0.5739  0.0010
 2372SOL     OW 9532   3.805   2.854   3.750  0.3877  0.0326  0.1205
 2372SOL    HW2 9533   3.737   2.794   3.780 -0.1337 -0.2590 -1.6341
 2372SOL    HW3 9534   3.795   2.932   3.805 -1.3852  0.0138 -0.1546
 2372SOL    MW4 9535   3.795   2.856   3.761  0.0849 -0.0081 -0.1471
 2373SOL     OW 9536   1.708   1.072   4.350 -0.2267 -0.0135  0.1151
 2373SOL    HW2 9537   1.759   1.116   4.282 -0.4288 -0.5597 -0.3983
 2373SOL    HW3 9538   1.764   0.999   4.378 -0.5943 -0.4483 -0.2530
 2373SOL    MW4 9539   1.722   1.068   4.344 -0.3018 -0.1431 -0.0010
 2374SOL     OW 9540   3.575   3.220   3.804 -0.3754 -0.5378 -0.6328
 2374SOL    HW2 9541   3.575   3.308   3.841 -1.0825 -1.0262  0.5716
 2374SOL    HW3 9542   3.595   3.232   3.711  0.3978  0.8057 -0.2897
 2374SOL    MW4 9543   3.577   3.233   3.797 -0.3667 -0.4249 -0.4284
 2375SOL     OW 9544   3.371   3.602   3.811 -0.3868  0.3442  0.3800
 2375SOL    HW2 9545   3.405   3.686   3.841  0.2273  0.2696 -0.0823
 2375SOL    HW3 9546   3.381   3.605   3.716  0.4499 -0.5826  0.4215
 2375SOL    MW4 9547   3.377   3.614   3.802 -0.1955  0.2122  0.3245
 2376SOL     OW 9548   4.012   3.457   3.812  0.2449  0.4420  0.1097
 2376SOL    HW2 9549   4.006   3.471   3.906  0.1996 -1.5180  0.4255
 2376SOL    HW3 9550   4.022   3.362   3.803  0.2178  0.6113 -1.8611
 2376SOL    MW4 9551   4.013   3.446   3.823  0.2356  0.2058 -0.1087
 2377SOL     OW 9552   3.528   3.223   4.293  0.2489 -0.4000 -0.1870
 2377SOL    HW2 9553   3.439   3.205   4.263 -0.0996 -0.1526  0.7026
 2377SOL    HW3 9554   3.555   3.299   4.241 -0.3775  0.0632  0.1587
 2377SOL    MW4 9555   3.520   3.231   4.282  0.1204 -0.3064 -0.0238
 2378SOL     OW 9556   3.812   2.230   4.466 -0.0486 -0.6082 -0.2077
 2378SOL    HW2 9557   3.832   2.321   4.445 -0.4913 -0.5667 -0.4674
 2378SOL    HW3 9558   3.879   2.180   4.420 -0.9343 -0.5073 -1.6125
 2378SOL    MW4 9559   3.824   2.236   4.457 -0.2236 -0.5894 -0.4277
 2379SOL     OW 9560   3.598   4.060   3.791  0.3621 -0.7592  0.2700
 2379SOL    HW2 9561   3.683   4.020   3.805  0.7449 -0.3826 -0.9463
 2379SOL    HW3 9562   3.535   3.990   3.809  1.0067 -1.8784 -1.6342
 2379SOL    MW4 9563   3.601   4.046   3.795  0.4976 -0.8578 -0.1419
 2380SOL     OW 9564   3.839   4.384   3.801 -0.0001  0.1459  0.5302
 2380SOL    HW2 9565   3.824   4.368   3.707 -1.0349 -1.1013  0.8903
 2380SOL    HW3 9566   3.754   4.369   3.842  0.8978 -1.2862  1.9158
 2380SOL    MW4 9567   3.826   4.380   3.794 -0.0179 -0.2079  0.7608
 2381SOL     OW 9568   4.041   4.239   3.915 -0.0446 -0.1501 -0.1987
 2381SOL    HW2 9569   4.048   4.246   4.010  0.1756 -1.4201 -0.1189
 2381SOL    HW3 9570   3.959   4.283   3.893 -0.3234 -0.2702  0.6174
 2381SOL    MW4 9571   4.031   4.246   3.925 -0.0525 -0.3333 -0.0803
 2382SOL     OW 9572   4.248   0.002   3.932  0.2560 -0.1314  0.0316
 2382SOL    HW2 9573   4.253  -0.090   3.908  1.2300  0.0691 -0.5900
 2382SOL    HW3 9574   4.324   0.042   3.889 -0.9346  1.2185 -0.8725
 2382SOL    MW4 9575   4.259  -0.005   3.923  0.2270  0.0734 -0.1695
 2383SOL     OW 9576   4.017   0.126   3.824  0.5605  0.8959 -0.0281
 2383SOL    HW2 9577   4.095   0.086   3.860  0.0452  0.4695  0.6269
 2383SOL    HW3 9578   4.029   0.122   3.729  1.0719  0.3247  0.0584
 2383SOL    MW4 9579   4.029   0.121   3.816  0.5598  0.7643  0.0696
 2384SOL     OW 9580   4.234   0.560   3.771  0.1413 -0.0340  0.5962
 2384SOL    HW2 9581   4.167   0.503   3.808  0.2524  0.0571  0.9438
 2384SOL    HW3 9582   4.246   0.529   3.681  0.5317 -0.8571  0.9226
 2384SOL    MW4 9583   4.227   0.548   3.764  0.2074 -0.1307  0.6852
 2385SOL     OW 9584   4.211   0.769   3.962  0.3305 -0.2144  0.7853
 2385SOL    HW2 9585   4.234   0.688   3.917 -0.3436 -0.1062  0.2416
 2385SOL    HW3 9586   4.134   0.802   3.915  1.4426  1.4750  0.1032
 2385SOL    MW4 9587   4.204   0.763   3.950  0.3881  0.0228  0.6237
 2386SOL     OW 9588   4.028   0.891   3.811  0.1716 -0.2270  0.1156
 2386SOL    HW2 9589   4.043   0.982   3.834  2.0949 -1.1160  2.4765
 2386SOL    HW3 9590   4.039   0.889   3.716 -2.6835  2.4912 -0.3646
 2386SOL    MW4 9591   4.031   0.903   3.801  0.0486  0.0143  0.3636
 2387SOL     OW 9592   4.047   1.158   3.897 -0.2375 -0.5024 -0.0190
 2387SOL    HW2 9593   4.012   1.149   3.986 -0.7449 -3.5684 -0.4945
 2387SOL    HW3 9594   4.123   1.214   3.908 -0.9791  0.1638  2.1622
 2387SOL    MW4 9595   4.052   1.165   3.910 -0.4025 -0.8190  0.2062
 2388SOL     OW 9596   4.266   1.579   3.872  0.0080  0.2321  0.0773
 2388SOL    HW2 9597   4.236   1.569   3.963 -0.5160 -0.1709 -0.1332
 2388SOL    HW3 9598   4.202   1.638   3.833 -0.3717 -0.4389 -0.3145
 2388SOL    MW4 9599   4.253   1.586   3.879 -0.1111  0.0904 -0.0019
 2389SOL     OW 9600   1.673   2.606   4.108  0.0336  0.5157  0.1138
 2389SOL    HW2 9601   1.735   2.627   4.177 -1.4276  0.3462  1.5090
 2389SOL    HW3 9602   1.705   2.653   4.031  1.7967  0.5231  0.8354
 2389SOL    MW4 9603   1.685   2.615   4.107  0.0732  0.4945  0.3929
 2390SOL     OW 9604   4.056   1.721   3.729 -0.3192 -0.5786  0.5558
 2390SOL    HW2 9605   4.055   1.811   3.762 -0.3350 -0.4571  0.2233
 2390SOL    HW3 9606   3.979   1.680   3.767 -1.2441  0.0260 -0.6281
 2390SOL    MW4 9607   4.046   1.727   3.738 -0.4430 -0.4828  0.3560
 2391SOL     OW 9608   4.042   1.964   3.852  0.1958 -0.4471 -0.0948
 2391SOL    HW2 9609   3.962   2.012   3.830 -0.7535 -2.2398 -0.5666
 2391SOL    HW3 9610   4.111   2.009   3.801 -1.1067 -1.2282 -2.6344
 2391SOL    MW4 9611   4.041   1.976   3.842 -0.1011 -0.7867 -0.4921
 2392SOL     OW 9612   0.825   0.358   4.291  0.1280 -0.3162 -0.4395
 2392SOL    HW2 9613   0.788   0.446   4.297 -0.7867 -0.7303  0.0508
 2392SOL    HW3 9614   0.919   0.371   4.304 -0.0876  0.5016  0.3483
 2392SOL    MW4 9615   0.833   0.372   4.293 -0.0211 -0.2629 -0.2708
 2393SOL     OW 9616   0.240   0.780   4.142  0.6361 -0.2762 -0.3780
 2393SOL    HW2 9617   0.311   0.722   4.169  1.0794 -0.3237 -1.6209
 2393SOL    HW3 9618   0.160   0.730   4.160  0.8638  0.0086  1.5758
 2393SOL    MW4 9619   0.239   0.766   4.148  0.7246 -0.2449 -0.2842
 2394SOL     OW 9620   4.254   2.072   3.725 -0.3597  0.5495 -0.2206
 2394SOL    HW2 9621   4.249   2.167   3.739  0.8902  0.7540 -1.0257
 2394SOL    HW3 9622   4.273   2.063   3.632 -2.5745 -0.5733 -0.5943
 2394SOL    MW4 9623   4.256   2.084   3.715 -0.4869  0.4282 -0.3760
 2395SOL     OW 9624   3.567   1.137   4.337 -0.0070 -0.0528 -0.5216
 2395SOL    HW2 9625   3.611   1.205   4.387 -1.3416  1.3837 -1.2666
 2395SOL    HW3 9626   3.581   1.161   4.245 -0.2047 -0.9490 -0.7938
 2395SOL    MW4 9627   3.574   1.149   4.331 -0.2091  0.0185 -0.6557
 2396SOL     OW 9628   4.261   2.794   3.737 -0.0411  0.5344  0.5338
 2396SOL    HW2 9629   4.332   2.752   3.785 -0.6185  0.5826  1.4558
 2396SOL    HW3 9630   4.182   2.750   3.768 -0.4967  1.1301  0.2373
 2396SOL    MW4 9631   4.260   2.783   3.747 -0.1774  0.6196  0.6163
 2397SOL     OW 9632   0.421   4.047   4.255  0.1137 -0.4892  0.5526
 2397SOL    HW2 9633   0.444   3.957   4.279 -1.3649 -1.3652 -1.1772
 2397SOL    HW3 9634   0.338   4.064   4.302  0.7174  0.2180  1.3843
 2397SOL    MW4 9635   0.413   4.038   4.265 -0.0017 -0.5112  0.4349
 2398SOL     OW 9636   4.016   3.189   3.769 -0.0382  0.0883  0.4466
 2398SOL    HW2 9637   4.030   3.187   3.674 -0.4031  3.1373  0.2570
 2398SOL    HW3 9638   4.083   3.131   3.804  1.5517  0.6323 -1.5763
 2398SOL    MW4 9639   4.027   3.181   3.761  0.1235  0.5624  0.1547
 2399SOL     OW 9640   3.126   3.960   4.456  0.1767 -0.0714 -0.0681
 2399SOL    HW2 9641   3.063   4.030   4.473  0.6402 -0.0446  1.5497
 2399SOL    HW3 9642   3.143   3.966   4.362 -1.7032  0.3694 -0.3978
 2399SOL    MW4 9643   3.120   3.970   4.445 -0.0100 -0.0095  0.1016
 2400SOL     OW 9644   3.786   3.601   3.740 -0.3666  0.1740  0.6004
 2400SOL    HW2 9645   3.806   3.692   3.762 -0.7750  1.1795 -2.8737
 2400SOL    HW3 9646   3.866   3.553   3.763  1.2408  2.0211 -0.8885
 2400SOL    MW4 9647   3.800   3.607   3.746 -0.2086  0.5503 -0.0544
 2401SOL     OW 9648   4.245   3.603   3.720 -0.3277 -0.0720 -0.8749
 2401SOL    HW2 9649   4.159   3.576   3.752 -0.3266  1.7557  0.7661
 2401SOL    HW3 9650   4.307   3.555   3.775 -0.3248  1.0196  0.0976
 2401SOL    MW4 9651   4.242   3.593   3.731 -0.3271  0.3130 -0.5300
 2402SOL     OW 9652   0.891   4.271   3.841 -0.1843  0.6069 -0.2851
 2402SOL    HW2 9653   0.888   4.262   3.936 -0.4068  0.7644 -0.2766
 2402SOL    HW3 9654   0.814   4.324   3.819 -0.2488  0.3934 -0.5739
 2402SOL    MW4 9655   0.880   4.277   3.851 -0.2221  0.5994 -0.3223
 2403SOL     OW 9656   3.780   4.633   3.892 -0.3788 -0.2910  0.0933
 2403SOL    HW2 9657   3.857   4.689   3.887 -0.3220 -0.3686  0.1043
 2403SOL    HW3 9658   3.808   4.550   3.856 -0.1787 -0.6221  1.0006
 2403SOL    MW4 9659   3.794   4.630   3.887 -0.3452 -0.3452  0.2143
 2404SOL     OW 9660   4.025   3.999   3.726  0.3785 -0.5080 -0.4253
 2404SOL    HW2 9661   4.008   4.091   3.750  0.5681 -0.4260 -0.6113
 2404SOL    HW3 9662   4.047   4.002   3.633  2.9000 -0.4473  0.1531
 2404SOL    MW4 9663   4.025   4.012   3.717  0.7362 -0.4897 -0.3736
 2405SOL     OW 9664   0.100   4.535   4.533  0.3159  0.1255  0.2559
 2405SOL    HW2 9665   0.062   4.447   4.539  1.3935 -0.3338  0.3560
 2405SOL    HW3 9666   0.181   4.530   4.583  1.0916  0.7835 -0.9216
 2405SOL    MW4 9667   0.106   4.522   4.540  0.5604  0.1516  0.1135
 2406SOL     OW 9668   2.055   3.685   4.395 -0.3825  0.4196 -0.6629
 2406SOL    HW2 9669   2.039   3.593   4.376 -1.6676  0.7485 -1.2179
 2406SOL    HW3 9670   2.108   3.684   4.475 -0.2729 -0.8013 -0.7484
 2406SOL    MW4 9671   2.060   3.673   4.403 -0.5376  0.3021 -0.7477
 2407SOL     OW 9672   1.389   1.109   4.140  0.4712  0.4042 -0.2863
 2407SOL    HW2 9673   1.377   1.122   4.046 -0.7000  0.8438 -0.0807
 2407SOL    HW3 9674   1.355   1.188   4.180 -0.1829 -0.3026  0.5741
 2407SOL    MW4 9675   1.383   1.121   4.133  0.2303  0.3690 -0.1459
 2408SOL     OW 9676   2.565   0.151   4.377 -0.3791 -0.4496 -0.5822
 2408SOL    HW2 9677   2.589   0.087   4.310 -1.8653 -0.6131 -0.9816
 2408SOL    HW3 9678   2.571   0.235   4.332 -0.2434 -0.4601 -0.5857
 2408SOL    MW4 9679   2.569   0.153   4.362 -0.5574 -0.4726 -0.6356
 2409SOL     OW 9680   2.682   1.751   4.279  0.6101 -0.0939  0.1944
 2409SOL    HW2 9681   2.709   1.745   4.370  1.2294 -1.8498 -0.0828
 2409SOL    HW3 9682   2.709   1.839   4.252  0.5518  0.3853  1.6525
 2409SOL    MW4 9683   2.689   1.762   4.287  0.6840 -0.2623  0.3510
 2410SOL     OW 9684   1.319   3.492   4.623 -0.2441  0.0392 -0.3363
 2410SOL    HW2 9685   1.248   3.428   4.634  0.2941 -0.3992  0.6072
 2410SOL    HW3 9686   1.394   3.440   4.595  0.1878  0.2577  0.3989
 2410SOL    MW4 9687   1.319   3.477   4.620 -0.1160  0.0103 -0.1144
 2411SOL     OW 9688   2.910   1.285   4.490 -0.0011  0.1719  0.0061
 2411SOL    HW2 9689   2.908   1.222   4.417  0.0733  0.5302 -0.3059
 2411SOL    HW3 9690   2.900   1.231   4.568 -0.0388 -0.2213 -0.2681
 2411SOL    MW4 9691   2.908   1.269   4.491  0.0036  0.1673 -0.0710
 2412SOL     OW 9692   3.633   2.008   4.152 -0.5110  0.1164 -0.4029
 2412SOL    HW2 9693   3.563   1.954   4.187  0.2557 -0.7906 -0.2485
 2412SOL    HW3 9694   3.643   1.979   4.061 -0.7464  0.6620 -0.6042
 2412SOL    MW4 9695   3.625   1.997   4.145 -0.4406  0.0689 -0.4096
 2413SOL     OW 9696   1.097   3.877   4.082 -0.4880  0.1415 -0.4970
 2413SOL    HW2 9697   1.004   3.862   4.100 -0.2740 -1.3643 -0.6013
 2413SOL    HW3 9698   1.101   3.889   3.987 -0.5498  0.0030 -0.5175
 2413SOL    MW4 9699   1.085   3.877   4.072 -0.4679 -0.0756 -0.5131
 2414SOL     OW 9700   0.001   4.252   4.177 -0.9630  0.1189 -0.1093
 2414SOL    HW2 9701   0.073   4.190   4.186 -0.5498  0.7035  0.7090
 2414SOL    HW3 9702  -0.074   4.208   4.218 -0.3932  0.6030  1.4910
 2414SOL    MW4 9703   0.001   4.238   4.183 -0.8333  0.2594  0.2098
 2415SOL     OW 9704   2.135   3.253   4.270  0.6840 -0.4980  0.5375
 2415SOL    HW2 9705   2.185   3.223   4.346 -1.5433 -1.0588  1.8338
 2415SOL    HW3 9706   2.108   3.172   4.226 -0.2274 -0.2620  0.6403
 2415SOL    MW4 9707   2.138   3.238   4.274  0.2699 -0.5410  0.7215
 2416SOL     OW 9708   1.513   1.154   4.532  0.1733  0.4616 -0.1301
 2416SOL    HW2 9709   1.580   1.131   4.467  1.2461  0.9894  0.7794
 2416SOL    HW3 9710   1.559   1.149   4.616 -1.5779 -1.6635  0.7299
 2416SOL    MW4 9711   1.528   1.150   4.534  0.0838  0.2508  0.1035
 2417SOL     OW 9712   1.420   0.719   4.367  0.0978 -0.3781  0.1644
 2417SOL    HW2 9713   1.439   0.774   4.291 -0.3615 -1.0505 -0.4477
 2417SOL    HW3 9714   1.325   0.707   4.364  0.0514 -0.2063  0.9887
 2417SOL    MW4 9715   1.410   0.725   4.356  0.0309 -0.4441  0.1926
 2418SOL     OW 9716   3.073   0.899   4.744  0.3471 -0.0800  0.2322
 2418SOL    HW2 9717   3.024   0.838   4.689  0.5126 -1.1829  1.3015
 2418SOL    HW3 9718   3.044   0.881   4.833  0.5569  1.2596  0.5809
 2418SOL    MW4 9719   3.063   0.889   4.748  0.3963 -0.0488  0.4196
 2419SOL     OW 9720   0.766   3.198   4.455 -0.3263 -0.4089  0.7486
 2419SOL    HW2 9721   0.721   3.168   4.375  0.6041 -1.5838  0.6460
 2419SOL    HW3 9722   0.730   3.142   4.524 -0.4933  0.0191  1.0068
 2419SOL    MW4 9723   0.755   3.186   4.453 -0.2255 -0.5076  0.7696
 2420SOL     OW 9724   0.446   1.435   4.237  0.1236 -0.2152 -0.2629
 2420SOL    HW2 9725   0.437   1.452   4.331 -0.8452 -0.3359 -0.3283
 2420SOL    HW3 9726   0.453   1.339   4.231 -0.6920 -0.2639 -0.3869
 2420SOL    MW4 9727   0.446   1.424   4.249 -0.1118 -0.2375 -0.2875
 2421SOL     OW 9728   2.153   2.006   4.137 -0.1412  0.3536 -0.0548
 2421SOL    HW2 9729   2.169   1.987   4.045 -0.9475  0.9933 -0.3385
 2421SOL    HW3 9730   2.235   2.045   4.168  0.1071  0.2054 -0.5160
 2421SOL    MW4 9731   2.166   2.009   4.129 -0.2148  0.4184 -0.1535
 2422SOL     OW 9732   0.465   1.551   4.536 -0.5150  0.1874  0.2464
 2422SOL    HW2 9733   0.547   1.501   4.543 -0.8531 -0.3919  0.1264
 2422SOL    HW3 9734   0.399   1.492   4.573 -1.4832 -0.8348 -2.9735
 2422SOL    MW4 9735   0.467   1.536   4.542 -0.6873 -0.0240 -0.1941
 2423SOL     OW 9736   3.227   0.200   4.628  0.2907  0.0810 -0.5526
 2423SOL    HW2 9737   3.151   0.210   4.571 -0.7944  0.5739  0.9398
 2423SOL    HW3 9738   3.272   0.122   4.594  0.1734  0.8748 -2.6054
 2423SOL    MW4 9739   3.223   0.191   4.616  0.1318  0.2508 -0.6266
 2424SOL     OW 9740   4.232   2.332   3.812 -0.2418  0.4507 -0.1408
 2424SOL    HW2 9741   4.317   2.368   3.788 -0.2599  0.9730  0.5845
 2424SOL    HW3 9742   4.222   2.352   3.905 -0.7231 -0.4755  0.0151
 2424SOL    MW4 9743   4.242   2.339   3.821 -0.3080  0.3974 -0.0243
 2425SOL     OW 9744   4.463   3.908   4.292  0.0694  0.4553  0.1492
 2425SOL    HW2 9745   4.530   3.874   4.232 -0.8015 -1.9299  0.4422
 2425SOL    HW3 9746   4.383   3.910   4.240 -0.2552  0.3863  0.6385
 2425SOL    MW4 9747   4.462   3.904   4.277 -0.0882  0.1316  0.2522
 2426SOL     OW 9748   4.235   2.407   4.088  0.1254 -0.0421  0.2161
 2426SOL    HW2 9749   4.145   2.403   4.119 -0.9305 -1.3077 -2.8261
 2426SOL    HW3 9750   4.285   2.356   4.152 -1.4334  0.0301  1.5066
 2426SOL    MW4 9751   4.230   2.399   4.100 -0.2193 -0.1996 -0.0153
 2427SOL     OW 9752   2.507   3.329   4.251  0.4365 -0.3120 -0.0577
 2427SOL    HW2 9753   2.432   3.381   4.221 -0.1141 -0.3322  1.2525
 2427SOL    HW3 9754   2.513   3.347   4.345  2.9133  0.7437 -0.3834
 2427SOL    MW4 9755   2.498   3.338   4.260  0.6907 -0.1755  0.0720
 2428SOL     OW 9756   0.451   3.770   4.318  0.4262  0.6861 -0.4608
 2428SOL    HW2 9757   0.528   3.717   4.297  0.0642  0.3052 -0.8355
 2428SOL    HW3 9758   0.377   3.717   4.288 -0.0026  0.8554  0.2939
 2428SOL    MW4 9759   0.451   3.756   4.311  0.3218  0.6580 -0.4106
 2429SOL     OW 9760   1.507   1.800   4.246  0.0993  0.2517  0.2306
 2429SOL    HW2 9761   1.435   1.852   4.209 -0.5125 -0.6537  0.1300
 2429SOL    HW3 9762   1.502   1.716   4.200  1.3257  0.2353  0.1172
 2429SOL    MW4 9763   1.497   1.796   4.235  0.1805  0.1301  0.2027
 2430SOL     OW 9764   3.237   0.709   4.505 -0.0791  0.8557  0.4177
 2430SOL    HW2 9765   3.311   0.744   4.555  0.5853  0.8669 -0.5566
 2430SOL    HW3 9766   3.242   0.614   4.518  1.7156  0.6044 -1.7758
 2430SOL    MW4 9767   3.248   0.701   4.513  0.2453  0.8241 -0.0005
 2431SOL     OW 9768   1.029   3.051   4.062 -0.0859  0.4436 -0.4134
 2431SOL    HW2 9769   1.075   3.060   3.979 -0.2046  0.3307 -0.4907
 2431SOL    HW3 9770   1.014   2.957   4.071  1.8003  0.2191  0.7356
 2431SOL    MW4 9771   1.033   3.040   4.052  0.1473  0.3989 -0.2718
 2432SOL     OW 9772   1.225   2.116   4.475  0.2407  0.2473 -0.4766
 2432SOL    HW2 9773   1.208   2.031   4.515  0.1892 -0.4252 -1.9051
 2432SOL    HW3 9774   1.314   2.138   4.502  1.0046 -1.2165 -1.7555
 2432SOL    MW4 9775   1.234   2.108   4.484  0.3346 -0.0346 -0.8335
 2433SOL     OW 9776   3.420   1.845   4.223  0.3697 -0.2388  0.3843
 2433SOL    HW2 9777   3.328   1.824   4.207 -0.3024  2.4506  0.5385
 2433SOL    HW3 9778   3.442   1.799   4.304 -0.5142 -1.7633 -0.2233
 2433SOL    MW4 9779   3.411   1.836   4.231  0.1645 -0.0850  0.3247
 2434SOL     OW 9780   2.530   3.380   4.519  0.1753 -0.3065 -0.0608
 2434SOL    HW2 9781   2.454   3.351   4.569 -1.4872  1.3880 -1.5425
 2434SOL    HW3 9782   2.545   3.471   4.546  0.6251 -0.0821 -1.0185
 2434SOL    MW4 9783   2.522   3.388   4.529  0.0153 -0.0532 -0.3829
 2435SOL     OW 9784   2.866   4.258   4.239 -0.2892 -0.5383  0.2635
 2435SOL    HW2 9785   2.865   4.214   4.324  0.6519 -0.3668  0.3652
 2435SOL    HW3 9786   2.914   4.339   4.254  0.8873 -1.0404 -0.6976
 2435SOL    MW4 9787   2.872   4.263   4.252 -0.0098 -0.5817  0.1502
 2436SOL     OW 9788   2.436   1.124   4.506 -0.0741  0.1835  0.3755
 2436SOL    HW2 9789   2.439   1.090   4.416 -0.8649  0.0976  0.3742
 2436SOL    HW3 9790   2.470   1.213   4.499 -0.0607  0.1497 -0.0020
 2436SOL    MW4 9791   2.441   1.131   4.493 -0.1767  0.1677  0.3262
 2437SOL     OW 9792   1.545   3.252   4.237 -0.3059 -0.2678 -0.2291
 2437SOL    HW2 9793   1.465   3.278   4.191  0.3551 -0.2031 -1.3523
 2437SOL    HW3 9794   1.613   3.310   4.202  0.4319 -1.0003 -0.0297
 2437SOL    MW4 9795   1.543   3.263   4.226 -0.1214 -0.3557 -0.3514
 2438SOL     OW 9796   0.648   3.607   4.252 -0.4654 -0.1172  0.4204
 2438SOL    HW2 9797   0.682   3.538   4.195 -1.3043 -0.0496 -0.1620
 2438SOL    HW3 9798   0.650   3.568   4.340  0.5577 -0.3174  0.3091
 2438SOL    MW4 9799   0.653   3.592   4.256 -0.4411 -0.1345  0.3290
 2439SOL     OW 9800   3.406   1.421   4.452 -0.2958 -0.5157  0.4981
 2439SOL    HW2 9801   3.381   1.401   4.362 -1.3860  2.0302  0.1968
 2439SOL    HW3 9802   3.328   1.403   4.504 -0.6929  1.0390  0.4729
 2439SOL    MW4 9803   3.393   1.416   4.447 -0.4921  0.0254  0.4554
 2440SOL     OW 9804   1.086   2.347   4.554 -0.2970  0.1727 -0.1360
 2440SOL    HW2 9805   1.133   2.268   4.529 -0.1422 -0.7124  2.7247
 2440SOL    HW3 9806   1.152   2.400   4.601 -1.2618  0.4066  0.9906
 2440SOL    MW4 9807   1.101   2.344   4.557 -0.4038  0.0868  0.3901
 2441SOL     OW 9808   1.075   2.292   3.816  0.0632  0.6200  0.3961
 2441SOL    HW2 9809   1.067   2.297   3.911  0.1317 -2.0451  0.5852
 2441SOL    HW3 9810   1.084   2.198   3.798  2.0871  1.2495 -2.0839
 2441SOL    MW4 9811   1.075   2.280   3.826  0.3393  0.3517  0.0942
 2442SOL     OW 9812   3.020   1.546   4.125 -0.5839  0.3406 -0.8868
 2442SOL    HW2 9813   3.067   1.629   4.125  0.2664 -0.1336 -1.5946
 2442SOL    HW3 9814   2.973   1.545   4.209  1.3445  0.4535  0.2330
 2442SOL    MW4 9815   3.020   1.557   4.136 -0.2170  0.2928 -0.8326
 2443SOL     OW 9816   3.815   3.635   4.198 -0.3272  0.5285  0.1325
 2443SOL    HW2 9817   3.877   3.568   4.171  0.4630  0.9575  0.8570
 2443SOL    HW3 9818   3.842   3.658   4.287 -0.4991  1.9020 -0.1628
 2443SOL    MW4 9819   3.826   3.629   4.207 -0.2453  0.7663  0.1888
 2444SOL     OW 9820   3.677   4.594   4.155  0.3165 -0.1669  0.4123
 2444SOL    HW2 9821   3.708   4.578   4.066  0.9961  0.6913  0.4977
 2444SOL    HW3 9822   3.708   4.519   4.205 -0.6869 -1.0215 -0.2157
 2444SOL    MW4 9823   3.685   4.582   4.150  0.2737 -0.1664  0.3409
 2445SOL     OW 9824   2.688   3.750   4.270  0.1525 -0.4920  0.1178
 2445SOL    HW2 9825   2.690   3.655   4.261 -0.3758 -0.6122  1.1310
 2445SOL    HW3 9826   2.707   3.766   4.363 -1.3007  0.2959  0.3033
 2445SOL    MW4 9827   2.690   3.740   4.281 -0.1090 -0.4036  0.2756
 2446SOL     OW 9828   2.469   2.328   4.120  0.3823  0.1906  0.2602
 2446SOL    HW2 9829   2.476   2.300   4.029 -0.8487  2.1211 -0.4671
 2446SOL    HW3 9830   2.380   2.362   4.128  0.5218  0.1655  2.1498
 2446SOL    MW4 9831   2.458   2.329   4.109  0.2382  0.4418  0.4139
 2447SOL     OW 9832   2.303   1.200   4.138  0.3818 -0.0661  0.3569
 2447SOL    HW2 9833   2.232   1.176   4.197 -0.0073  1.3434  0.4841
 2447SOL    HW3 9834   2.312   1.295   4.148  2.8293 -0.3137  0.9318
 2447SOL    MW4 9835   2.295   1.210   4.147  0.6533  0.0871  0.4492
 2448SOL     OW 9836   2.245   4.044   4.577 -0.8171 -0.0200  0.0513
 2448SOL    HW2 9837   2.167   4.100   4.568 -1.9253 -1.4615  0.4759
 2448SOL    HW3 9838   2.261   4.011   4.489 -0.6240  0.3534 -0.0548
 2448SOL    MW4 9839   2.237   4.047   4.564 -0.9377 -0.1612  0.0930
 2449SOL     OW 9840   0.233   2.342   4.106 -0.0722 -0.5670 -0.0402
 2449SOL    HW2 9841   0.160   2.385   4.151  0.7331  0.8219 -0.0112
 2449SOL    HW3 9842   0.250   2.264   4.158  0.3051  0.5973  1.6489
 2449SOL    MW4 9843   0.226   2.338   4.119  0.0838 -0.2301  0.1860
 2450SOL     OW 9844   3.716   0.645   4.327  0.1694 -0.0796 -0.2000
 2450SOL    HW2 9845   3.808   0.620   4.319  0.0250 -0.2830 -1.2710
 2450SOL    HW3 9846   3.718   0.722   4.383  0.8316 -1.0916  1.1979
 2450SOL    MW4 9847   3.729   0.652   4.333  0.2377 -0.2400 -0.1564
 2451SOL     OW 9848   2.423   2.060   4.222  0.7320  0.2726  0.3332
 2451SOL    HW2 9849   2.432   2.068   4.317 -1.4795  0.9073  0.5107
 2451SOL    HW3 9850   2.437   2.149   4.189  1.9383 -0.0240 -0.0108
 2451SOL    MW4 9851   2.426   2.073   4.230  0.5994  0.3173  0.3109
 2452SOL     OW 9852   4.058   0.386   3.900 -0.0053  0.1305 -0.4033
 2452SOL    HW2 9853   3.969   0.422   3.894  0.0483  0.0520 -1.8132
 2452SOL    HW3 9854   4.047   0.293   3.884 -0.1385 -0.5551  3.1911
 2452SOL    MW4 9855   4.045   0.379   3.897 -0.0162  0.0297 -0.1152
 2453SOL     OW 9856   2.246   3.468   3.848  0.0155 -0.2408 -0.0291
 2453SOL    HW2 9857   2.269   3.446   3.938  0.0148 -0.3800 -0.0629
 2453SOL    HW3 9858   2.252   3.385   3.801  0.9757  0.0044 -0.3604
 2453SOL    MW4 9859   2.250   3.454   3.853  0.1419 -0.2267 -0.0775
 2454SOL     OW 9860   0.500   4.366   4.880  0.7181 -0.0529 -0.5226
 2454SOL    HW2 9861   0.494   4.274   4.856  0.3731 -0.4150  0.9180
 2454SOL    HW3 9862   0.594   4.381   4.894  0.5964 -0.7073  1.1650
 2454SOL    MW4 9863   0.512   4.356   4.879  0.6565 -0.1869 -0.1097
 2455SOL     OW 9864   0.950   2.378   4.302 -0.1012  0.3191 -0.3657
 2455SOL    HW2 9865   1.003   2.382   4.382 -1.2684  0.3128  0.4083
 2455SOL    HW3 9866   0.880   2.441   4.317 -1.9547 -1.7344 -0.1978
 2455SOL    MW4 9867   0.948   2.387   4.315 -0.4997  0.0472 -0.2418
 2456SOL     OW 9868   3.566   4.016   4.480  0.1682  0.0059 -0.1018
 2456SOL    HW2 9869   3.562   3.926   4.513 -0.7118  0.0077 -0.2073
 2456SOL    HW3 9870   3.562   4.008   4.385  2.3637  0.0251 -0.2221
 2456SOL    MW4 9871   3.565   4.003   4.472  0.3417  0.0086 -0.1316
 2457SOL     OW 9872   4.261   0.300   4.253  0.2513  0.4736  0.1623
 2457SOL    HW2 9873   4.170   0.331   4.245  0.0997  0.3773  1.4169
 2457SOL    HW3 9874   4.255   0.205   4.242  0.4885  0.6704 -1.8957
 2457SOL    MW4 9875   4.248   0.292   4.250  0.2627  0.4869  0.0563
 2458SOL     OW 9876   0.010   0.145   4.612  0.0182  0.4103 -0.6236
 2458SOL    HW2 9877  -0.058   0.131   4.679  1.3268  1.2655  0.9066
 2458SOL    HW3 9878   0.031   0.058   4.581 -0.2397 -0.0487  0.4624
 2458SOL    MW4 9879   0.003   0.132   4.617  0.1569  0.4626 -0.2785
 2459SOL     OW 9880   2.338   3.641   4.308  0.1602 -0.1394 -0.0323
 2459SOL    HW2 9881   2.262   3.688   4.341  0.2614  0.7821 -1.0641
 2459SOL    HW3 9882   2.391   3.709   4.266 -0.1127 -1.3149 -2.3313
 2459SOL    MW4 9883   2.335   3.656   4.307  0.1373 -0.1726 -0.4721
 2460SOL     OW 9884   1.589   0.146   4.598 -0.1590  0.7233  0.5059
 2460SOL    HW2 9885   1.662   0.084   4.597  0.8934  1.9216 -0.4776
 2460SOL    HW3 9886   1.512   0.093   4.578  0.6947 -0.3013 -0.1670
 2460SOL    MW4 9887   1.588   0.131   4.595  0.0924  0.7462  0.2875
 2461SOL     OW 9888   2.763   3.220   4.519  0.1373 -0.5959 -0.6717
 2461SOL    HW2 9889   2.675   3.255   4.532  0.1662 -0.8779  0.3473
 2461SOL    HW3 9890   2.782   3.235   4.426 -1.0082 -0.5987 -0.9102
 2461SOL    MW4 9891   2.754   3.227   4.508 -0.0100 -0.6337 -0.5684
 2462SOL     OW 9892   0.215   2.065   3.735  0.0682 -0.5040 -0.1471
 2462SOL    HW2 9893   0.287   2.008   3.762  1.3265  1.3246  0.3824
 2462SOL    HW3 9894   0.138   2.028   3.780  0.8339 -1.8421  0.0888
 2462SOL    MW4 9895   0.214   2.052   3.745  0.3352 -0.4396 -0.0463
 2463SOL     OW 9896   2.093   1.094   4.271 -0.1602  0.1214 -0.5382
 2463SOL    HW2 9897   2.021   1.147   4.237 -0.7105 -0.3380 -0.1080
 2463SOL    HW3 9898   2.080   1.008   4.231 -1.2042 -0.6140  1.3295
 2463SOL    MW4 9899   2.082   1.090   4.261 -0.3707 -0.0364 -0.2346
 2464SOL     OW 9900   4.472   1.103   3.897 -0.4989  0.0805 -0.2891
 2464SOL    HW2 9901   4.558   1.124   3.860 -0.5631  0.8052 -0.0276
 2464SOL    HW3 9902   4.413   1.169   3.860 -0.9072 -0.2951 -0.3111
 2464SOL    MW4 9903   4.476   1.115   3.887 -0.5612  0.1265 -0.2575
 2465SOL     OW 9904   3.034   3.253   4.666 -0.1536 -0.5219 -0.1899
 2465SOL    HW2 9905   2.946   3.247   4.630 -0.3509  0.4850  0.1148
 2465SOL    HW3 9906   3.025   3.222   4.757 -0.1952 -0.3988 -0.1521
 2465SOL    MW4 9907   3.021   3.248   4.673 -0.1853 -0.3729 -0.1450
 2466SOL     OW 9908   4.474   0.672   4.207  0.0208  0.5392  0.2429
 2466SOL    HW2 9909   4.461   0.581   4.179 -0.1493  0.7872 -0.4822
 2466SOL    HW3 9910   4.386   0.704   4.224  0.0059  0.8666 -0.4398
 2466SOL    MW4 9911   4.461   0.664   4.206 -0.0038  0.6151  0.0567
 2467SOL     OW 9912   1.649   0.014   4.146 -0.4393  0.2714  0.0029
 2467SOL    HW2 9913   1.632  -0.000   4.053  0.4514  2.7994 -0.5980
 2467SOL    HW3 9914   1.742   0.037   4.149 -0.1932 -0.8743  1.6701
 2467SOL    MW4 9915   1.659   0.015   4.134 -0.2893  0.4538  0.1435
 2468SOL     OW 9916   3.144   1.307   4.110 -0.4084  0.6486  0.2142
 2468SOL    HW2 9917   3.101   1.393   4.118 -0.6165  0.6870 -1.2199
 2468SOL    HW3 9918   3.137   1.285   4.017 -2.6127 -2.0798  0.9589
 2468SOL    MW4 9919   3.137   1.315   4.099 -0.7267  0.2937  0.1230
 2469SOL     OW 9920   1.144   2.819   3.713 -0.1565  0.2574 -0.9676
 2469SOL    HW2 9921   1.143   2.912   3.734  0.7166  0.5813 -2.2794
 2469SOL    HW3 9922   1.226   2.787   3.752 -0.7364 -0.1028 -0.0120
 2469SOL    MW4 9923   1.155   2.827   3.721 -0.1179  0.2525 -1.0147
 2470SOL     OW 9924   4.253   3.862   3.830  0.2191  0.2486 -0.0121
 2470SOL    HW2 9925   4.252   3.774   3.793  1.5900  0.4221 -0.4955
 2470SOL    HW3 9926   4.167   3.898   3.810 -0.2554 -0.8896 -0.0232
 2470SOL    MW4 9927   4.242   3.855   3.823  0.3381  0.1214 -0.0770
 2471SOL     OW 9928   1.511   2.295   3.874 -0.0699  0.7013  0.0925
 2471SOL    HW2 9929   1.521   2.203   3.853 -2.7377  0.5085 -0.6028
 2471SOL    HW3 9930   1.506   2.298   3.970  1.8825  0.3676  0.2170
 2471SOL    MW4 9931   1.512   2.284   3.884 -0.1642  0.6318  0.0172
 2472SOL     OW 9932   0.319   0.522   4.507 -0.5940  0.4053  0.4341
 2472SOL    HW2 9933   0.296   0.430   4.516 -0.0276  0.2659  0.4518
 2472SOL    HW3 9934   0.235   0.567   4.505 -0.8918 -0.1621 -0.1480
 2472SOL    MW4 9935   0.305   0.516   4.508 -0.5586  0.3120  0.3600
 2473SOL     OW 9936   3.536   0.537   4.663 -0.3607 -0.4333  0.1075
 2473SOL    HW2 9937   3.453   0.517   4.705 -1.2102  0.2992 -1.1700
 2473SOL    HW3 9938   3.529   0.497   4.576  0.3278  0.2303 -0.2637
 2473SOL    MW4 9939   3.524   0.529   4.657 -0.3822 -0.2491 -0.1097
 2474SOL     OW 9940   1.506   2.171   4.503 -0.1038 -0.2738  0.7267
 2474SOL    HW2 9941   1.544   2.253   4.470 -0.1798  0.5647  2.6486
 2474SOL    HW3 9942   1.575   2.106   4.491  0.0960  0.1442 -0.4645
 2474SOL    MW4 9943   1.520   2.174   4.497 -0.0874 -0.1080  0.8230
 2475SOL     OW 9944   1.129   4.352   3.729 -0.5401 -0.4622 -0.1318
 2475SOL    HW2 9945   1.046   4.324   3.768 -0.9204  0.4831 -0.2636
 2475SOL    HW3 9946   1.106   4.378   3.640  0.3424 -2.6954 -1.0585
 2475SOL    MW4 9947   1.115   4.352   3.723 -0.4739 -0.6318 -0.2713
 2476SOL     OW 9948   2.906   2.330   3.831  0.2668 -0.1386  0.4552
 2476SOL    HW2 9949   2.974   2.394   3.810 -0.2573  0.3874  0.3225
 2476SOL    HW3 9950   2.895   2.338   3.926  0.9472 -0.7964  0.5945
 2476SOL    MW4 9951   2.913   2.340   3.841  0.2873 -0.1562  0.4559
 2477SOL     OW 9952   0.734   2.541   4.373 -0.4992  0.0278 -0.2986
 2477SOL    HW2 9953   0.639   2.531   4.364 -0.8971  1.4112  2.0739
 2477SOL    HW3 9954   0.746   2.582   4.459  2.2152  0.3951 -0.8171
 2477SOL    MW4 9955   0.723   2.545   4.383 -0.1935  0.2587 -0.0544
 2478SOL     OW 9956   3.235   0.660   4.225  0.3750 -0.2835 -0.1699
 2478SOL    HW2 9957   3.292   0.725   4.184 -0.5981  0.2378 -0.7236
 2478SOL    HW3 9958   3.241   0.677   4.319  0.7277  0.1017 -0.2633
 2478SOL    MW4 9959   3.243   0.671   4.232  0.2930 -0.1639 -0.2556
 2479SOL     OW 9960   1.848   3.741   4.581  0.4940  0.2014 -0.5525
 2479SOL    HW2 9961   1.765   3.715   4.542  0.3152  0.2086 -0.1787
 2479SOL    HW3 9962   1.912   3.730   4.510 -0.1410  2.1976 -1.4739
 2479SOL    MW4 9963   1.846   3.736   4.566  0.3867  0.4659 -0.6247
 2480SOL     OW 9964   3.949   1.881   4.522 -0.0040  0.2624 -0.3348
 2480SOL    HW2 9965   3.870   1.828   4.514  0.9206 -1.0047 -1.2042
 2480SOL    HW3 9966   3.931   1.940   4.595 -1.3703 -0.6699  0.0989
 2480SOL    MW4 9967   3.936   1.882   4.530 -0.0622 -0.0278 -0.3920
 2481SOL     OW 9968   2.866   2.350   4.087 -0.7426  0.3295 -0.4324
 2481SOL    HW2 9969   2.793   2.394   4.130 -1.4970 -1.4138  0.1384
 2481SOL    HW3 9970   2.943   2.399   4.115 -1.5100  1.0548  0.4836
 2481SOL    MW4 9971   2.866   2.362   4.096 -0.9437  0.1950 -0.2360
 2482SOL     OW 9972   0.725   2.979   4.629  0.0897 -0.2994  0.5712
 2482SOL    HW2 9973   0.778   2.928   4.566  2.5265  3.1979 -0.3545
 2482SOL    HW3 9974   0.760   2.954   4.715  1.6498  0.1455  0.0965
 2482SOL    MW4 9975   0.737   2.969   4.632  0.6170  0.2210  0.3862
 2483SOL     OW 9976   0.055   1.975   4.126 -0.1820 -0.1442  0.2757
 2483SOL    HW2 9977   0.054   1.975   4.030  0.8483  0.7621  0.2597
 2483SOL    HW3 9978  -0.018   1.917   4.150 -1.7229  1.1775 -1.0234
 2483SOL    MW4 9979   0.045   1.967   4.116 -0.2493  0.1497  0.1020
 2484SOL     OW 9980   0.192   0.254   4.230 -0.7936  0.3322  0.2217
 2484SOL    HW2 9981   0.271   0.281   4.183 -0.7921 -1.7747 -1.0293
 2484SOL    HW3 9982   0.122   0.306   4.191 -0.1221  1.9104  1.0596
 2484SOL    MW4 9983   0.193   0.265   4.219 -0.7048  0.2624  0.1674
 2485SOL     OW 9984   3.771   2.319   3.844 -0.3146 -0.0719 -0.5814
 2485SOL    HW2 9985   3.841   2.369   3.803 -0.0162  0.3821  0.4752
 2485SOL    HW3 9986   3.696   2.378   3.844  0.3076  0.7558  1.5586
 2485SOL    MW4 9987   3.770   2.333   3.838 -0.1934  0.0973 -0.1597
 2486SOL     OW 9988   2.028   4.634   3.869  0.0034 -0.1628 -0.0932
 2486SOL    HW2 9989   2.108   4.678   3.841 -0.5039  1.0421  0.3221
 2486SOL    HW3 9990   2.002   4.680   3.949 -2.1028  0.6883 -1.2103
 2486SOL    MW4 9991   2.035   4.646   3.876 -0.3414  0.1085 -0.1860
 2487SOL     OW 9992   4.275   0.130   4.773  0.5024  0.3095 -0.7478
 2487SOL    HW2 9993   4.194   0.104   4.730 -0.0573 -0.1408  0.5667
 2487SOL    HW3 9994   4.275   0.082   4.856  1.5306  1.2246 -0.2006
 2487SOL    MW4 9995   4.265   0.120   4.778  0.5641  0.3708 -0.5016
 2488SOL     OW 9996   3.354   3.111   3.922 -0.5892  0.0696 -0.0929
 2488SOL    HW2 9997   3.339   3.029   3.876  0.1330  0.3182 -0.7894
 2488SOL    HW3 9998   3.439   3.142   3.889 -0.6575  0.8834  0.4698
 2488SOL    MW4 9999   3.363   3.104   3.912 -0.5028  0.2096 -0.1106
 2489SOL     OW10000   4.185   4.024   4.618 -0.2883 -0.2860  0.0603
 2489SOL    HW210001   4.221   4.083   4.683 -0.6097 -0.7861  0.6907
 2489SOL    HW310002   4.249   3.954   4.611  0.2635  0.2976 -0.9428
 2489SOL    MW410003   4.198   4.023   4.625 -0.2575 -0.2742  0.0110
 2490SOL     OW10004   2.311   0.906   3.735 -0.0034 -0.0826  0.3460
 2490SOL    HW210005   2.288   0.917   3.643 -0.8465  1.1120  0.6912
 2490SOL    HW310006   2.314   0.995   3.770  1.8221 -0.4158  1.1160
 2490SOL    MW410007   2.309   0.919   3.727  0.1261  0.0309  0.4930
 2491SOL     OW10008   1.005   1.559   4.639 -0.2829  0.0204  0.1091
 2491SOL    HW210009   1.014   1.587   4.731 -2.7249  0.8971  0.1114
 2491SOL    HW310010   1.061   1.620   4.590  0.3443  0.1063  0.9175
 2491SOL    MW410011   1.014   1.571   4.645 -0.5224  0.1475  0.2160
 2492SOL     OW10012   0.381   3.355   4.458  0.0447  1.0913  0.2039
 2492SOL    HW210013   0.410   3.266   4.478  0.7273  1.7234  2.1093
 2492SOL    HW310014   0.387   3.361   4.363  2.5803 -0.0111  0.2632
 2492SOL    MW410015   0.386   3.344   4.448  0.4693  1.0290  0.4625
 2493SOL     OW10016   3.584   4.322   3.887  0.3476  0.2686 -0.0636
 2493SOL    HW210017   3.578   4.234   3.851  0.0124  0.6904 -1.0472
 2493SOL    HW310018   3.553   4.314   3.978  0.3594 -0.6223 -0.1410
 2493SOL    MW410019   3.579   4.310   3.895  0.3052  0.2060 -0.2038
 2494SOL     OW10020   0.283   2.860   4.532 -0.4376  0.0277 -0.0534
 2494SOL    HW210021   0.304   2.776   4.573  0.5305  0.0032 -0.5875
 2494SOL    HW310022   0.253   2.837   4.445 -0.6424  0.2047 -0.0290
 2494SOL    MW410023   0.282   2.846   4.526 -0.3369  0.0477 -0.1202
 2495SOL     OW10024   3.755   0.180   4.461 -0.5029  0.7490 -0.3405
 2495SOL    HW210025   3.815   0.167   4.387 -0.4423  1.2573 -0.3813
 2495SOL    HW310026   3.803   0.236   4.522  0.4159 -1.7564  1.2651
 2495SOL    MW410027   3.769   0.186   4.459 -0.3736  0.4855 -0.1335
 2496SOL     OW10028   0.824   4.279   4.108 -0.2370 -0.2201 -0.1699
 2496SOL    HW210029   0.861   4.281   4.197  1.3801 -0.5511 -0.8275
 2496SOL    HW310030   0.730   4.287   4.122  0.0612  0.6479  1.5431
 2496SOL    MW410031   0.817   4.281   4.122  0.0157 -0.1488 -0.0310
 2497SOL     OW10032   1.017   1.042   4.462  0.7835  0.5174  0.0318
 2497SOL    HW210033   1.058   1.112   4.514 -0.8218  1.1603  0.4514
 2497SOL    HW310034   1.043   1.062   4.372  2.0241  0.4761  0.3722
 2497SOL    MW410035   1.026   1.054   4.457  0.7354  0.5966  0.1321
 2498SOL     OW10036   2.294   4.014   4.306  0.3047  0.0387  0.1361
 2498SOL    HW210037   2.240   4.070   4.251  0.5179  0.0739 -0.0376
 2498SOL    HW310038   2.331   3.949   4.246  0.1051 -0.2521  0.3269
 2498SOL    MW410039   2.292   4.013   4.291  0.3064  0.0048  0.1378
 2499SOL     OW10040   2.545   0.806   4.110  0.1083  0.1768 -0.2181
 2499SOL    HW210041   2.479   0.747   4.148 -0.0946 -0.3855 -1.4165
 2499SOL    HW310042   2.629   0.771   4.141  0.0797 -1.6581 -2.1049
 2499SOL    MW410043   2.547   0.793   4.119  0.0777 -0.1394 -0.6256
 2500SOL     OW10044   0.683   0.752   4.538 -0.4151 -0.0587  0.1940
 2500SOL    HW210045   0.647   0.676   4.585 -1.3473  0.0956 -0.2458
 2500SOL    HW310046   0.620   0.822   4.556 -0.6982  0.0429 -1.1395
 2500SOL    MW410047   0.670   0.751   4.547 -0.5754 -0.0249 -0.0396
 2501SOL     OW10048   3.161   3.459   4.527  0.0268  0.2802 -0.3894
 2501SOL    HW210049   3.105   3.534   4.546 -0.5788  0.0111 -1.1010
 2501SOL    HW310050   3.134   3.393   4.591  1.4034  1.0623  1.0547
 2501SOL    MW410051   3.150   3.460   4.538  0.1287  0.3476 -0.2933
 2502SOL     OW10052   0.863   1.956   3.862  0.3416  0.4177  0.0433
 2502SOL    HW210053   0.864   1.868   3.826 -0.6115  0.2096  0.5183
 2502SOL    HW310054   0.778   1.992   3.837  0.7191  1.2028 -0.1453
 2502SOL    MW410055   0.852   1.949   3.854  0.2657  0.4940  0.0813
 2503SOL     OW10056   0.880   2.240   4.716 -0.4349  0.0834 -0.0189
 2503SOL    HW210057   0.900   2.146   4.717  1.5560  0.4690  1.7869
 2503SOL    HW310058   0.943   2.277   4.654  0.9509  0.6135  1.6658
 2503SOL    MW410059   0.891   2.232   4.708  0.0106  0.2041  0.4420
 2504SOL     OW10060   0.164   4.023   4.096 -0.2231  0.3576 -0.7532
 2504SOL    HW210061   0.166   3.969   4.018 -1.9395 -0.0754 -0.5257
 2504SOL    HW310062   0.255   4.033   4.122  0.2149 -1.0453 -1.7496
 2504SOL    MW410063   0.176   4.018   4.089 -0.3917  0.1154 -0.8545
 2505SOL     OW10064   4.469   3.974   4.791  0.0451  0.5347 -0.0926
 2505SOL    HW210065   4.559   3.992   4.765 -0.0975  0.6221 -0.5274
 2505SOL    HW310066   4.437   3.912   4.726 -0.0027  0.0015  0.4311
 2505SOL    MW410067   4.476   3.968   4.779  0.0200  0.4759 -0.0806
 2506SOL     OW10068   3.430   4.297   4.782 -0.1865 -0.2231  0.4623
 2506SOL    HW210069   3.373   4.370   4.758  0.5105  0.2233  0.1360
 2506SOL    HW310070   3.402   4.225   4.726  1.0090  0.6311 -1.2862
 2506SOL    MW410071   3.419   4.298   4.771  0.0632 -0.0520  0.1884
 2507SOL     OW10072   1.141   2.588   4.134 -0.0527 -0.3693 -0.0934
 2507SOL    HW210073   1.233   2.615   4.123 -0.4227  0.9603  0.0116
 2507SOL    HW310074   1.143   2.493   4.123  1.7124 -0.6595  2.3420
 2507SOL    MW410075   1.154   2.579   4.131  0.1314 -0.2322  0.2418
 2508SOL     OW10076   0.996   3.688   4.519  0.1357 -0.4827  0.6423
 2508SOL    HW210077   0.966   3.725   4.602  0.8798 -2.0581  1.6344
 2508SOL    HW310078   1.091   3.698   4.522  0.1478 -0.3921 -0.0881
 2508SOL    MW410079   1.004   3.694   4.531  0.2354 -0.6788  0.6766
 2509SOL     OW10080   3.020   4.483   4.309 -0.1076 -0.8041  0.2876
 2509SOL    HW210081   3.010   4.463   4.403  0.1461  1.5875  0.8541
 2509SOL    HW310082   3.113   4.506   4.300 -0.2621 -0.4761 -0.4545
 2509SOL    MW410083   3.031   4.483   4.320 -0.0944 -0.4449  0.2646
 2510SOL     OW10084   2.665   2.465   4.253  0.0727  0.1522 -0.0432
 2510SOL    HW210085   2.673   2.469   4.349  0.6583 -0.4060 -0.0632
 2510SOL    HW310086   2.581   2.421   4.238  0.6787 -1.1359  0.2304
 2510SOL    MW410087   2.655   2.459   4.264  0.2298 -0.0913 -0.0095
 2511SOL     OW10088   2.902   2.074   3.720 -0.3639  0.0846 -0.5936
 2511SOL    HW210089   2.914   2.165   3.745 -0.5518  0.0160 -0.2404
 2511SOL    HW310090   2.830   2.044   3.776  1.3233 -0.9820  1.0909
 2511SOL    MW410091   2.894   2.082   3.731 -0.1662 -0.0653 -0.3250
 2512SOL     OW10092   3.937   3.416   4.679  0.0966 -0.4459  0.3834
 2512SOL    HW210093   3.966   3.437   4.767 -0.9983 -2.7301  1.3330
 2512SOL    HW310094   4.017   3.400   4.630  0.6885  0.4233  1.0541
 2512SOL    MW410095   3.951   3.417   4.684  0.0300 -0.6325  0.5975
 2513SOL     OW10096   3.229   4.491   4.723  0.5946  0.5357  0.2420
 2513SOL    HW210097   3.274   4.548   4.660 -0.6476 -0.2172 -1.3815
 2513SOL    HW310098   3.224   4.543   4.803  2.4059  1.4413 -0.2099
 2513SOL    MW410099   3.234   4.506   4.725  0.6700  0.5565 -0.0319
 2514SOL     OW10100   3.794   3.090   3.902 -0.0179 -0.0727 -0.3757
 2514SOL    HW210101   3.861   3.149   3.869 -0.7927  0.9052 -0.2129
 2514SOL    HW310102   3.711   3.132   3.878 -0.5770 -0.4136  0.9427
 2514SOL    MW410103   3.792   3.103   3.894 -0.1938  0.0114 -0.1805
 2515SOL     OW10104   2.694   1.205   3.815 -0.0448 -0.1813  0.5347
 2515SOL    HW210105   2.715   1.194   3.907  2.6626  0.1645 -0.0117
 2515SOL    HW310106   2.707   1.118   3.777 -3.4582 -0.9222  0.8367
 2515SOL    MW410107   2.698   1.192   3.822 -0.1380 -0.2333  0.5021
 2516SOL     OW10108   3.431   3.400   4.527  0.1083 -0.1187  0.1040
 2516SOL    HW210109   3.344   3.433   4.507 -0.7615 -2.6060 -0.3745
 2516SOL    HW310110   3.456   3.350   4.450  0.5526 -2.1733  1.5288
 2516SOL    MW410111   3.423   3.398   4.515  0.0522 -0.7181  0.2294
 2517SOL     OW10112   1.199   4.095   4.261 -0.1254 -0.2284  0.4006
 2517SOL    HW210113   1.156   4.097   4.346 -0.3469  1.0504  0.2627
 2517SOL    HW310114   1.146   4.034   4.209 -0.1723 -0.7699  1.0719
 2517SOL    MW410115   1.186   4.087   4.265 -0.1609 -0.1311  0.4711
 2518SOL     OW10116   0.719   0.283   4.037  0.0493 -0.6103 -0.0674
 2518SOL    HW210117   0.758   0.316   4.118 -1.1905  1.1994 -0.1640
 2518SOL    HW310118   0.743   0.191   4.034  0.4457 -0.6015  2.1610
 2518SOL    MW410119   0.727   0.275   4.047 -0.0620 -0.3704  0.2136
 2519SOL     OW10120   0.967   0.084   4.517  0.3930 -0.0982  0.5707
 2519SOL    HW210121   0.877   0.114   4.528 -0.1422 -1.6990  0.6658
 2519SOL    HW310122   1.019   0.145   4.570 -0.7414  0.2391  1.3236
 2519SOL    MW410123   0.962   0.096   4.526  0.1727 -0.2649  0.6828
 2520SOL     OW10124   0.690   0.587   4.319 -0.2451  0.0028  0.1460
 2520SOL    HW210125   0.595   0.600   4.312 -0.2505  0.1990  0.5869
 2520SOL    HW310126   0.715   0.635   4.398  0.1984 -0.1808  0.1160
 2520SOL    MW410127   0.680   0.595   4.328 -0.1872  0.0045  0.2003
 2521SOL     OW10128   1.534   4.084   4.371 -0.6993 -0.2634 -0.1437
 2521SOL    HW210129   1.525   4.174   4.340  0.2160  0.4749  1.6518
 2521SOL    HW310130   1.528   4.030   4.292 -1.7815  1.3247 -1.1728
 2521SOL    MW410131   1.532   4.089   4.357 -0.7213  0.0434 -0.0420
 2522SOL     OW10132   4.051   4.590   4.380 -0.2336 -0.0958 -0.2987
 2522SOL    HW210133   4.135   4.595   4.333  0.2203  1.0851  0.6152
 2522SOL    HW310134   4.065   4.642   4.459 -0.8460 -2.4306  1.3917
 2522SOL    MW410135   4.064   4.597   4.384 -0.2546 -0.2480  0.0448
 2523SOL     OW10136   1.439   2.885   4.251  0.4243 -0.5254 -0.1860
 2523SOL    HW210137   1.368   2.942   4.282  0.4631 -0.9629  0.7189
 2523SOL    HW310138   1.493   2.942   4.197  0.2491  0.2173  0.4078
 2523SOL    MW410139   1.437   2.900   4.248  0.4063 -0.4852  0.0119
 2524SOL     OW10140   1.781   1.925   3.862  0.0224  0.2123  0.2743
 2524SOL    HW210141   1.777   1.928   3.958  2.6627 -1.4947  0.4730
 2524SOL    HW310142   1.762   1.834   3.840  1.9655  0.0164 -0.6515
 2524SOL    MW410143   1.778   1.914   3.872  0.6272 -0.0387  0.1783
 2525SOL     OW10144   0.539   0.553   4.675  0.1320 -0.0346 -0.7016
 2525SOL    HW210145   0.561   0.470   4.717  0.5866  0.9461  1.0143
 2525SOL    HW310146   0.471   0.530   4.612 -0.5770 -1.5199  0.5788
 2525SOL    MW410147   0.533   0.539   4.672  0.0985 -0.1012 -0.3057
 2526SOL     OW10148   1.744   1.446   4.216  1.1093  0.1523  0.0056
 2526SOL    HW210149   1.745   1.442   4.312  1.0701 -0.3335 -0.0114
 2526SOL    HW310150   1.820   1.500   4.194  1.5466 -0.3342  0.2895
 2526SOL    MW410151   1.754   1.452   4.226  1.1617  0.0240  0.0410
 2527SOL     OW10152   1.737   1.924   4.166  0.1645 -0.2874  0.1125
 2527SOL    HW210153   1.809   1.879   4.211 -0.5977 -2.1781 -0.5299
 2527SOL    HW310154   1.658   1.886   4.203 -0.4813 -0.7938 -1.7321
 2527SOL    MW410155   1.736   1.913   4.177 -0.0213 -0.6037 -0.2155
 2528SOL     OW10156   2.082   3.458   4.702  0.4783  0.3631  0.1358
 2528SOL    HW210157   2.002   3.414   4.674 -0.5011  1.4912  1.0790
 2528SOL    HW310158   2.051   3.528   4.760  2.1009  1.2582 -0.0575
 2528SOL    MW410159   2.067   3.462   4.706  0.5631  0.6299  0.2346
 2529SOL     OW10160   2.028   1.240   3.741 -0.0060  0.1479 -0.3348
 2529SOL    HW210161   2.105   1.209   3.788 -0.5874 -0.2684  0.3524
 2529SOL    HW310162   1.954   1.205   3.790 -0.6296 -0.3585 -1.5950
 2529SOL    MW410163   2.028   1.231   3.753 -0.1652  0.0262 -0.4103
 2530SOL     OW10164   2.308   3.278   4.676 -0.1463 -0.0079 -0.0177
 2530SOL    HW210165   2.259   3.224   4.615  0.7370  1.2986 -1.9237
 2530SOL    HW310166   2.245   3.343   4.707 -0.0152  0.7628 -1.3414
 2530SOL    MW410167   2.293   3.280   4.672 -0.0122  0.2661 -0.4435
 2531SOL     OW10168   1.770   1.671   3.759 -0.1803 -0.0490  0.3255
 2531SOL    HW210169   1.846   1.616   3.778  0.2964  0.8546  1.0958
 2531SOL    HW310170   1.772   1.684   3.664  0.5833 -0.0873  0.3366
 2531SOL    MW410171   1.780   1.665   3.749 -0.0167  0.0652  0.4287
 2532SOL     OW10172   4.189   0.783   4.231  0.0458 -0.2059  0.5422
 2532SOL    HW210173   4.196   0.781   4.135  1.0072 -0.8536  0.6244
 2532SOL    HW310174   4.125   0.715   4.252 -0.0043 -0.2099  0.3772
 2532SOL    MW410175   4.181   0.774   4.221  0.1659 -0.2918  0.5317
 2533SOL     OW10176   3.359   4.642   4.537 -0.4492  0.0211  0.0202
 2533SOL    HW210177   3.455   4.642   4.531 -0.4282  1.0731  0.2923
 2533SOL    HW310178   3.330   4.611   4.451  0.1192  0.0795 -0.1989
 2533SOL    MW410179   3.368   4.638   4.525 -0.3717  0.1674  0.0272
 2534SOL     OW10180   2.015   1.552   4.147  0.3543 -0.0767 -0.3128
 2534SOL    HW210181   2.026   1.647   4.153 -0.0714  0.0114 -0.8667
 2534SOL    HW310182   2.077   1.517   4.211 -0.6772  0.6319  1.1178
 2534SOL    MW410183   2.025   1.560   4.156  0.1619  0.0284 -0.1969
 2535SOL     OW10184   3.065   1.989   4.324 -0.0362  0.0992  0.4222
 2535SOL    HW210185   3.145   2.040   4.316 -0.7423  0.9995 -1.0484
 2535SOL    HW310186   2.994   2.052   4.311 -0.9542 -0.8878  0.5574
 2535SOL    MW410187   3.066   2.004   4.321 -0.2503  0.0877  0.2456
 2536SOL     OW10188   3.284   4.530   4.292 -0.0906  0.0440  0.1675
 2536SOL    HW210189   3.311   4.595   4.227  0.2067 -0.4382 -0.1908
 2536SOL    HW310190   3.356   4.468   4.296  0.3748  0.6674  1.7683
 2536SOL    MW410191   3.297   4.531   4.284  0.0100  0.0625  0.3319
 2537SOL     OW10192   1.209   0.244   4.609 -0.3349  0.3983 -0.0874
 2537SOL    HW210193   1.257   0.304   4.665 -2.1717  0.6236  1.3306
 2537SOL    HW310194   1.261   0.163   4.610  0.2219  0.7572  1.0751
 2537SOL    MW410195   1.222   0.241   4.616 -0.5038  0.4754  0.2537
 2538SOL     OW10196   2.272   1.155   3.858 -0.1395 -0.1713  0.0680
 2538SOL    HW210197   2.334   1.218   3.822  0.5501 -0.2279  1.1042
 2538SOL    HW310198   2.289   1.157   3.952 -2.3256  0.4461  0.4679
 2538SOL    MW410199   2.283   1.163   3.866 -0.3369 -0.0973  0.2575
 2539SOL     OW10200   3.763   2.915   4.135  0.2340  0.7314 -0.1948
 2539SOL    HW210201   3.843   2.863   4.140 -0.2791 -0.0627 -0.1294
 2539SOL    HW310202   3.783   2.984   4.072  0.7813  0.2071 -0.5962
 2539SOL    MW410203   3.776   2.917   4.127  0.2382  0.5579 -0.2384
 2540SOL     OW10204   3.197   4.199   4.106 -0.0489  0.2122  0.5752
 2540SOL    HW210205   3.182   4.240   4.021 -2.9722 -0.5102  0.6840
 2540SOL    HW310206   3.133   4.241   4.164  1.1440 -0.1057  2.1564
 2540SOL    MW410207   3.186   4.210   4.102 -0.2770  0.0749  0.7977
 2541SOL     OW10208   3.339   2.421   4.465 -0.2157  0.2906 -0.1356
 2541SOL    HW210209   3.361   2.513   4.452 -1.0664  0.8732  2.3319
 2541SOL    HW310210   3.423   2.376   4.469  0.2778  1.3078  1.0153
 2541SOL    MW410211   3.353   2.427   4.464 -0.2630  0.5019  0.3419
 2542SOL     OW10212   3.711   1.761   4.467 -0.0944  0.0364  0.8531
 2542SOL    HW210213   3.617   1.754   4.486 -0.6549  0.2430 -1.6590
 2542SOL    HW310214   3.737   1.671   4.446 -0.2499  0.3186 -0.6141
 2542SOL    MW410215   3.702   1.748   4.467 -0.1891  0.1011  0.3281
 2543SOL     OW10216   2.564   0.397   4.234 -0.0383  0.1513 -0.0924
 2543SOL    HW210217   2.492   0.441   4.189  0.9895  0.1455 -1.8026
 2543SOL    HW310218   2.642   0.423   4.186  0.8453 -1.6681  0.3003
 2543SOL    MW410219   2.565   0.406   4.222  0.2141 -0.0895 -0.2661
 2544SOL     OW10220   0.339   4.484   4.694  0.1832 -0.9636 -0.0576
 2544SOL    HW210221   0.397   4.509   4.623  0.6759  1.2939  1.0628
 2544SOL    HW310222   0.396   4.444   4.759  0.3217  0.1627  0.5319
 2544SOL    MW410223   0.354   4.482   4.693  0.2665 -0.5169  0.1678
 2545SOL     OW10224   2.906   3.644   3.719  0.2215 -0.3778  0.6346
 2545SOL    HW210225   2.828   3.617   3.769 -0.4995  0.5624  0.0386
 2545SOL    HW310226   2.897   3.600   3.635  1.0410 -1.3433  1.0371
 2545SOL    MW410227   2.894   3.635   3.715  0.2346 -0.3808  0.6092
 2546SOL     OW10228   0.333   2.582   4.565 -0.1492  0.3567 -0.0410
 2546SOL    HW210229   0.349   2.566   4.472 -1.6790 -1.5682  0.0020
 2546SOL    HW310230   0.412   2.548   4.609 -0.2651 -0.5158 -0.4987
 2546SOL    MW410231   0.346   2.575   4.559 -0.3664 -0.0124 -0.0958
 2547SOL     OW10232   2.894   2.817   3.786  0.2022 -0.2047  0.2449
 2547SOL    HW210233   2.983   2.788   3.807  0.2283  0.2648  0.8226
 2547SOL    HW310234   2.892   2.820   3.690 -0.0133 -2.6994  0.1337
 2547SOL    MW410235   2.906   2.814   3.776  0.1771 -0.4716  0.3061
 2548SOL     OW10236   0.854   1.443   4.251 -0.4918 -0.0129 -0.0487
 2548SOL    HW210237   0.858   1.358   4.206  1.2941  0.0843 -0.0911
 2548SOL    HW310238   0.791   1.494   4.199 -0.1578 -0.6718 -1.1228
 2548SOL    MW410239   0.846   1.439   4.238 -0.2121 -0.0870 -0.1955
 2549SOL     OW10240   3.499   1.648   4.062 -0.4535  0.0227 -1.1343
 2549SOL    HW210241   3.470   1.577   4.119  1.7524 -1.0635 -1.3071
 2549SOL    HW310242   3.470   1.728   4.106  0.7801 -0.8060  1.2789
 2549SOL    MW410243   3.491   1.649   4.075  0.0002 -0.2301 -0.8378
 2550SOL     OW10244   4.354   1.906   4.700  0.1599 -0.6374  0.7315
 2550SOL    HW210245   4.323   1.993   4.677  2.2750 -0.2283 -0.7141
 2550SOL    HW310246   4.413   1.920   4.774  0.5967 -0.8142  0.4191
 2550SOL    MW410247   4.358   1.919   4.706  0.4964 -0.6068  0.4992
 2551SOL     OW10248   3.709   0.333   4.788 -0.7222  0.6190 -0.3325
 2551SOL    HW210249   3.660   0.304   4.866  1.5697 -2.1692  0.1636
 2551SOL    HW310250   3.648   0.391   4.742 -3.3630 -0.2898  1.8264
 2551SOL    MW410251   3.694   0.337   4.793 -0.7684  0.1312  0.0176
 2552SOL     OW10252   4.209   3.019   3.877 -0.1578  0.2602  0.7910
 2552SOL    HW210253   4.233   2.941   3.827  0.1111  1.2181 -0.6093
 2552SOL    HW310254   4.255   3.090   3.833  0.1308  1.1246  2.4583
 2552SOL    MW410255   4.218   3.018   3.865 -0.0844  0.5007  0.8266
 2553SOL     OW10256   0.625   1.838   4.536 -0.0975  0.0140 -0.2449
 2553SOL    HW210257   0.543   1.796   4.562 -1.4821  3.2231  0.7474
 2553SOL    HW310258   0.601   1.929   4.519  3.0881  0.7754 -0.9362
 2553SOL    MW410259   0.611   1.844   4.537  0.1401  0.5378 -0.2050
 2554SOL     OW10260   2.895   3.292   4.273 -0.0121 -0.8586 -0.2158
 2554SOL    HW210261   2.979   3.318   4.236 -0.3037  1.7994  0.8705
 2554SOL    HW310262   2.889   3.198   4.255  2.7772 -0.9234 -1.0711
 2554SOL    MW410263   2.905   3.283   4.266  0.3171 -0.5164 -0.1850
 2555SOL     OW10264   2.227   0.378   4.547 -0.1253  0.1247  0.2257
 2555SOL    HW210265   2.264   0.463   4.523 -0.6241  0.0005 -1.0425
 2555SOL    HW310266   2.140   0.378   4.508 -0.5454 -0.5386  1.1511
 2555SOL    MW410267   2.221   0.389   4.538 -0.2465  0.0209  0.1807
 2556SOL     OW10268   3.412   2.695   4.478 -0.3118 -0.4238  0.1532
 2556SOL    HW210269   3.507   2.706   4.484 -0.5647  1.0127  1.7612
 2556SOL    HW310270   3.385   2.759   4.412 -0.4721  1.0716  1.6482
 2556SOL    MW410271   3.421   2.705   4.470 -0.3662 -0.0367  0.5622
 2557SOL     OW10272   3.256   3.082   4.524 -0.0917 -0.4661 -0.3356
 2557SOL    HW210273   3.275   3.138   4.449 -0.6023 -0.3716 -0.3972
 2557SOL    HW310274   3.186   3.127   4.571  0.5396 -0.3052  0.4466
 2557SOL    MW410275   3.249   3.095   4.520 -0.0758 -0.4325 -0.2403
 2558SOL     OW10276   3.393   1.409   4.153 -0.2373 -0.4551 -0.0681
 2558SOL    HW210277   3.460   1.353   4.113 -0.5493 -0.0776 -1.1502
 2558SOL    HW310278   3.310   1.367   4.130 -0.4039 -0.5866  0.7489
 2558SOL    MW410279   3.391   1.396   4.145 -0.3002 -0.4227 -0.1030
 2559SOL     OW10280   2.684   1.448   4.224  0.3303 -0.5392 -0.0523
 2559SOL    HW210281   2.598   1.462   4.186 -0.5331  0.1040  2.0380
 2559SOL    HW310282   2.713   1.535   4.252 -0.1519 -1.2598  2.9039
 2559SOL    MW410283   2.677   1.461   4.223  0.1528 -0.5494  0.6132
 2560SOL     OW10284   0.102   2.543   4.258  0.4817 -0.5444  0.0760
 2560SOL    HW210285   0.091   2.522   4.350  0.2551  0.9032  0.3825
 2560SOL    HW310286   0.158   2.620   4.257  0.3633 -0.4624 -0.9968
 2560SOL    MW410287   0.108   2.550   4.270  0.4361 -0.3426 -0.0253
 2561SOL     OW10288   3.855   2.925   4.538 -0.4415 -0.4536  0.2757
 2561SOL    HW210289   3.821   2.956   4.622 -0.8482 -0.5312  0.1384
 2561SOL    HW310290   3.839   2.997   4.478 -1.4091 -0.9277 -0.0511
 2561SOL    MW410291   3.848   2.939   4.541 -0.6227 -0.5267  0.2141
 2562SOL     OW10292   1.686   1.406   4.493 -0.1410  0.6009  0.1826
 2562SOL    HW210293   1.650   1.318   4.481 -0.3618  0.7472 -0.2227
 2562SOL    HW310294   1.725   1.403   4.581 -0.6106  0.2593  0.3874
 2562SOL    MW410295   1.686   1.394   4.503 -0.2322  0.5751  0.1559
 2563SOL     OW10296   1.244   0.722   4.756  0.7136  0.5793  0.3142
 2563SOL    HW210297   1.303   0.781   4.710  0.2854  1.7117  1.2000
 2563SOL    HW310298   1.163   0.724   4.705  0.8966  0.2986  0.0135
 2563SOL    MW410299   1.241   0.730   4.743  0.6813  0.6917  0.3910
 2564SOL     OW10300   2.269   0.635   4.456 -0.2449  0.0260  0.5700
 2564SOL    HW210301   2.332   0.682   4.510 -0.7884  0.9059  0.4530
 2564SOL    HW310302   2.183   0.663   4.490 -0.5746 -0.2810 -0.0053
 2564SOL    MW410303   2.266   0.645   4.467 -0.3603  0.1016  0.4783
 2565SOL     OW10304   2.955   2.166   4.698 -0.1107 -0.0889  0.3960
 2565SOL    HW210305   2.999   2.163   4.783  0.4950 -0.7249  0.0720
 2565SOL    HW310306   2.953   2.075   4.669 -0.9729  0.0318  0.0567
 2565SOL    MW410307   2.961   2.154   4.706 -0.1445 -0.1566  0.3090
 2566SOL     OW10308   3.576   0.407   4.392  0.3218  0.4732  0.1285
 2566SOL    HW210309   3.637   0.352   4.442  0.1435  1.3312  1.3109
 2566SOL    HW310310   3.631   0.477   4.356  0.2367  0.5652  0.1783
 2566SOL    MW410311   3.592   0.409   4.394  0.2871  0.5986  0.2909
 2567SOL     OW10312   3.359   4.645   3.875 -0.0720  0.2378 -0.4285
 2567SOL    HW210313   3.435   4.686   3.835  0.6509 -0.0852  0.5903
 2567SOL    HW310314   3.285   4.698   3.845  0.3221 -0.6086 -2.9915
 2567SOL    MW410315   3.359   4.658   3.866  0.0753  0.0835 -0.6323
 2568SOL     OW10316   3.679   3.543   4.623  0.4284 -0.5189 -0.3310
 2568SOL    HW210317   3.749   3.490   4.662  0.0813 -0.7682 -0.0448
 2568SOL    HW310318   3.606   3.482   4.613 -0.5313  0.2913  1.5355
 2568SOL    MW410319   3.679   3.528   4.627  0.2561 -0.4447 -0.0472
 2569SOL     OW10320   1.094   3.060   3.792 -0.1773 -0.1463  0.3116
 2569SOL    HW210321   1.157   3.121   3.755  0.8561 -0.7767  1.0134
 2569SOL    HW310322   1.009   3.095   3.766  0.4732  0.3793 -1.1512
 2569SOL    MW410323   1.091   3.073   3.783  0.0448 -0.1600  0.2112
 2570SOL     OW10324   3.913   0.106   4.215  0.3179 -0.2118 -0.4106
 2570SOL    HW210325   3.835   0.052   4.199  0.0709  0.1780 -0.5391
 2570SOL    HW310326   3.975   0.047   4.257 -0.4253 -0.2732  0.6350
 2570SOL    MW410327   3.911   0.091   4.218  0.1872 -0.1684 -0.2899
 2571SOL     OW10328   1.917   0.468   4.717  0.2229 -0.1231 -0.0064
 2571SOL    HW210329   1.937   0.376   4.698 -0.1932 -0.2425  0.1281
 2571SOL    HW310330   1.822   0.472   4.713  0.2018  0.1377  0.7686
 2571SOL    MW410331   1.907   0.456   4.714  0.1653 -0.1044  0.1140
 2572SOL     OW10332   1.611   2.401   4.403 -0.6986 -0.4351  0.4307
 2572SOL    HW210333   1.635   2.384   4.312  1.2171 -2.0640  1.1984
 2572SOL    HW310334   1.595   2.495   4.406  3.3062  0.3591 -0.7238
 2572SOL    MW410335   1.612   2.411   4.391  0.0825 -0.5450  0.3791
 2573SOL     OW10336   0.885   3.453   3.872  0.6264 -0.0583 -0.1369
 2573SOL    HW210337   0.866   3.444   3.966  1.7640  0.6030  0.1699
 2573SOL    HW310338   0.894   3.363   3.841  0.5652 -0.2762  0.4556
 2573SOL    MW410339   0.883   3.440   3.881  0.7685  0.0000 -0.0184
 2574SOL     OW10340   0.777   3.119   4.099 -0.0383  0.5640 -0.1695
 2574SOL    HW210341   0.730   3.084   4.023  0.4543 -0.8932  0.1776
 2574SOL    HW310342   0.870   3.108   4.076  0.1099  0.0953  0.6465
 2574SOL    MW410343   0.783   3.113   4.086  0.0463  0.3099 -0.0162
 2575SOL     OW10344   3.254   0.488   4.673  0.0037 -0.1293 -0.0505
 2575SOL    HW210345   3.242   0.395   4.654  0.8067 -0.4261  0.8867
 2575SOL    HW310346   3.175   0.514   4.719 -0.4984 -0.1931 -0.8640
 2575SOL    MW410347   3.242   0.479   4.676  0.0434 -0.1769 -0.0343
 2576SOL     OW10348   1.141   2.709   4.397 -0.4288  0.0194  0.2799
 2576SOL    HW210349   1.146   2.654   4.318 -0.3769 -0.2063  0.4418
 2576SOL    HW310350   1.221   2.689   4.445  0.3263  1.3389 -0.3868
 2576SOL    MW410351   1.152   2.699   4.393 -0.3223  0.1636  0.2136
 2577SOL     OW10352   3.432   0.033   4.129 -0.0230 -0.2167 -0.4938
 2577SOL    HW210353   3.508  -0.022   4.146  1.6981  2.3140  0.1944
 2577SOL    HW310354   3.407   0.013   4.038  2.6671  0.3506 -1.3839
 2577SOL    MW410355   3.438   0.023   4.119  0.5591  0.1920 -0.5207
 2578SOL     OW10356   0.885   4.357   4.391 -0.4164  0.0269 -0.0952
 2578SOL    HW210357   0.806   4.355   4.446 -0.2393 -0.6293  0.1380
 2578SOL    HW310358   0.898   4.450   4.372  0.5873  0.4602  2.5307
 2578SOL    MW410359   0.876   4.369   4.396 -0.2607 -0.0019  0.2823
 2579SOL     OW10360   3.283   3.167   4.189  0.5982 -0.3073 -0.1434
 2579SOL    HW210361   3.320   3.151   4.102 -0.9319 -2.8892 -0.3629
 2579SOL    HW310362   3.221   3.238   4.177 -0.0991 -1.1068 -1.2998
 2579SOL    MW410363   3.280   3.174   4.176  0.3047 -0.7534 -0.3252
 2580SOL     OW10364   0.268   1.796   4.461  0.0741 -0.0684 -0.1307
 2580SOL    HW210365   0.177   1.768   4.464 -0.2771  1.0990  3.2618
 2580SOL    HW310366   0.318   1.716   4.481 -0.5441  0.1857  2.7683
 2580SOL    MW410367   0.263   1.782   4.464 -0.0539  0.1191  0.6990
 2581SOL     OW10368   3.635   1.207   4.090  0.3824 -0.1579  0.0318
 2581SOL    HW210369   3.630   1.200   3.995 -0.7112 -3.6714  0.2695
 2581SOL    HW310370   3.724   1.181   4.112  0.2045 -0.7280  0.0721
 2581SOL    MW410371   3.646   1.203   4.081  0.2143 -0.6967  0.0682
 2582SOL     OW10372   2.280   4.417   4.292  0.3854 -0.4315 -0.4770
 2582SOL    HW210373   2.371   4.400   4.268  0.6281 -1.4095  1.0699
 2582SOL    HW310374   2.285   4.459   4.378 -0.6323 -0.6237 -0.3142
 2582SOL    MW410375   2.293   4.420   4.300  0.2830 -0.5860 -0.2513
 2583SOL     OW10376   3.086   1.919   3.902  0.2075  0.3512 -0.0638
 2583SOL    HW210377   3.100   1.839   3.850 -0.5258  0.6128 -0.6699
 2583SOL    HW310378   3.019   1.967   3.854 -0.6858  0.4783  1.2869
 2583SOL    MW410379   3.079   1.915   3.889 -0.0074  0.4025  0.0341
 2584SOL     OW10380   3.391   2.886   4.254 -0.6994 -0.1318  0.0896
 2584SOL    HW210381   3.363   2.978   4.248 -1.2303 -0.1221  2.0812
 2584SOL    HW310382   3.317   2.836   4.218 -0.5488  0.2009 -0.6886
 2584SOL    MW410383   3.377   2.892   4.249 -0.7491 -0.0868  0.2494
 2585SOL     OW10384   4.485   0.393   4.122  0.3709 -0.3603  0.0090
 2585SOL    HW210385   4.409   0.345   4.156 -0.3968  0.4652 -0.5011
 2585SOL    HW310386   4.483   0.376   4.028  1.4940 -1.2581  0.1373
 2585SOL    MW410387   4.474   0.384   4.114  0.4177 -0.3698 -0.0410
 2586SOL     OW10388   2.970   4.422   4.590 -0.0757  0.0904 -0.0582
 2586SOL    HW210389   2.900   4.465   4.639  0.6409  1.1154  0.0815
 2586SOL    HW310390   3.050   4.440   4.640  0.3677 -0.5797 -0.5124
 2586SOL    MW410391   2.972   4.430   4.603  0.0772  0.1373 -0.0997
 2587SOL     OW10392   2.244   3.210   3.745 -0.0260 -0.1826 -0.0746
 2587SOL    HW210393   2.316   3.181   3.801  1.0431 -1.8902 -2.2544
 2587SOL    HW310394   2.170   3.157   3.774  0.8960 -2.1657 -1.2240
 2587SOL    MW410395   2.244   3.199   3.756  0.2370 -0.6695 -0.5140
 2588SOL     OW10396   3.293   1.018   4.302 -0.0687  0.0623  0.0699
 2588SOL    HW210397   3.287   0.996   4.395  0.6867  2.0587  0.6141
 2588SOL    HW310398   3.364   1.082   4.297 -1.0449  1.0572 -1.6729
 2588SOL    MW410399   3.301   1.024   4.313 -0.0975  0.4570 -0.0877
 2589SOL     OW10400   1.396   3.882   4.516  0.0932  0.1989  0.3682
 2589SOL    HW210401   1.457   3.812   4.489  0.3410  0.2299  0.8499
 2589SOL    HW310402   1.432   3.961   4.476 -0.7554 -0.1060 -1.0413
 2589SOL    MW410403   1.409   3.883   4.507  0.0141  0.1626  0.2456
 2590SOL     OW10404   1.706   0.555   4.061 -0.1020 -0.2460  0.3337
 2590SOL    HW210405   1.762   0.598   4.125 -2.5726 -1.0603  3.1624
 2590SOL    HW310406   1.658   0.626   4.018 -0.5746  0.1616  1.5122
 2590SOL    MW410407   1.707   0.570   4.064 -0.4903 -0.2996  0.8626
 2591SOL     OW10408   2.726   3.510   3.894  0.1846  0.1779  0.0922
 2591SOL    HW210409   2.723   3.502   3.989  0.3590  0.2147  0.1013
 2591SOL    HW310410   2.746   3.422   3.863 -0.0165  0.1349  0.0813
 2591SOL    MW410411   2.728   3.497   3.903  0.1807  0.1769  0.0918
 2592SOL     OW10412   1.863   2.189   4.116 -0.1117 -0.2171  0.4412
 2592SOL    HW210413   1.815   2.106   4.125 -1.4609  0.4448 -0.4844
 2592SOL    HW310414   1.955   2.162   4.108 -0.3859 -1.5475  1.4248
 2592SOL    MW410415   1.869   2.174   4.116 -0.3259 -0.3052  0.4487
 2593SOL     OW10416   0.914   4.082   4.775 -0.3169  0.4749 -0.2429
 2593SOL    HW210417   0.827   4.066   4.738 -0.2939  0.6440 -0.3715
 2593SOL    HW310418   0.965   4.116   4.701 -0.4032  1.2767  0.0611
 2593SOL    MW410419   0.909   4.084   4.760 -0.3253  0.6037 -0.2198
 2594SOL     OW10420   2.286   0.132   4.438 -0.4093  0.0667 -0.0468
 2594SOL    HW210421   2.281   0.218   4.479  0.5050 -0.2666  0.7751
 2594SOL    HW310422   2.368   0.134   4.389 -0.6930 -0.1253 -0.5330
 2594SOL    MW410423   2.296   0.144   4.437 -0.3262 -0.0026 -0.0024
 2595SOL     OW10424   4.017   0.372   4.175  0.2148 -0.0611  0.2068
 2595SOL    HW210425   4.034   0.384   4.082  0.0239  0.1668  0.2011
 2595SOL    HW310426   3.978   0.285   4.181  1.1368 -0.4861  0.1906
 2595SOL    MW410427   4.014   0.362   4.164  0.3114 -0.0871  0.2041
 2596SOL     OW10428   1.813   1.142   3.899 -0.5436 -0.2627 -0.1398
 2596SOL    HW210429   1.743   1.192   3.856 -1.3571 -0.0572  1.3572
 2596SOL    HW310430   1.803   1.053   3.866 -1.6877 -0.2860  0.2247
 2596SOL    MW410431   1.802   1.137   3.889 -0.8018 -0.2387  0.1056
 2597SOL     OW10432   3.798   1.509   4.372  0.4334  0.6356 -0.4637
 2597SOL    HW210433   3.772   1.518   4.281 -0.1435 -0.4773 -0.4128
 2597SOL    HW310434   3.887   1.475   4.369 -0.3337 -1.3903 -0.6075
 2597SOL    MW410435   3.806   1.506   4.360  0.2558  0.2215 -0.4754
 2598SOL     OW10436   2.456   1.323   3.738 -0.0342 -0.6414 -0.2725
 2598SOL    HW210437   2.452   1.416   3.762 -0.9467 -0.5589 -0.7349
 2598SOL    HW310438   2.542   1.295   3.769 -1.2047 -0.5916  3.1518
 2598SOL    MW410439   2.467   1.332   3.745 -0.3090 -0.6238  0.1185
 2599SOL     OW10440   1.804   0.925   4.819  0.2490  0.6558 -0.0411
 2599SOL    HW210441   1.749   0.851   4.793  0.4276  0.0967  1.1369
 2599SOL    HW310442   1.892   0.901   4.793  0.4457  0.0447  1.1347
 2599SOL    MW410443   1.808   0.912   4.812  0.2986  0.5014  0.2689
 2600SOL     OW10444   2.965   0.282   4.514 -0.2609 -0.6990  0.2189
 2600SOL    HW210445   2.894   0.225   4.543 -0.7689 -1.2735 -2.0463
 2600SOL    HW310446   2.962   0.277   4.419  1.9198  0.3998  0.0657
 2600SOL    MW410447   2.955   0.274   4.505 -0.0403 -0.6298 -0.1001
 2601SOL     OW10448   1.305   4.323   4.169 -0.4329  0.4476 -0.2835
 2601SOL    HW210449   1.329   4.306   4.078  1.3151 -1.1203  0.4493
 2601SOL    HW310450   1.262   4.244   4.198  1.4492 -0.1304  1.0427
 2601SOL    MW410451   1.303   4.311   4.161  0.0460  0.1645 -0.0119
 2602SOL     OW10452   1.396   2.394   4.689 -0.0299 -0.1100 -0.3133
 2602SOL    HW210453   1.446   2.395   4.771 -0.8228  0.1719  0.1819
 2602SOL    HW310454   1.429   2.318   4.642 -0.1314 -0.7599  0.6436
 2602SOL    MW410455   1.407   2.384   4.694 -0.1481 -0.1585 -0.1216
 2603SOL     OW10456   3.878   3.705   4.459  0.2466 -0.6799  0.3914
 2603SOL    HW210457   3.821   3.662   4.523 -1.5664 -0.1243 -0.8184
 2603SOL    HW310458   3.887   3.795   4.492 -0.4930 -0.4587 -0.0142
 2603SOL    MW410459   3.872   3.711   4.472 -0.0901 -0.5777  0.1788
 2604SOL     OW10460   4.019   4.003   4.259  0.4901  0.3319  0.9052
 2604SOL    HW210461   3.994   3.992   4.350 -0.1739 -0.5909  0.6199
 2604SOL    HW310462   3.949   3.960   4.210  0.3777  1.5897 -0.0747
 2604SOL    MW410463   4.007   3.996   4.264  0.3881  0.3762  0.7381
 2605SOL     OW10464   3.694   0.869   4.142  0.2664 -0.0972 -0.2891
 2605SOL    HW210465   3.699   0.817   4.061 -0.3224 -0.1489 -0.2986
 2605SOL    HW310466   3.690   0.804   4.212 -0.8173 -0.0824 -0.3217
 2605SOL    MW410467   3.694   0.853   4.140  0.0458 -0.1020 -0.2952
 2606SOL     OW10468   2.552   4.127   4.333  0.3431  0.1439 -0.4760
 2606SOL    HW210469   2.581   4.131   4.242  0.2023  0.3288 -0.5127
 2606SOL    HW310470   2.462   4.093   4.329  0.2057  0.5006 -0.4329
 2606SOL    MW410471   2.544   4.123   4.321  0.3066  0.2151 -0.4754
 2607SOL     OW10472   1.289   1.412   4.192  0.9631 -0.2363  0.2941
 2607SOL    HW210473   1.368   1.457   4.162  0.4691  0.1968 -0.3826
 2607SOL    HW310474   1.299   1.405   4.287  1.4935  0.4356  0.2890
 2607SOL    MW410475   1.300   1.417   4.201  0.9679 -0.0905  0.2046
 2608SOL     OW10476   3.320   2.278   3.816 -0.1562 -0.6601  0.1139
 2608SOL    HW210477   3.310   2.291   3.911 -0.8035  0.0927 -0.0599
 2608SOL    HW310478   3.328   2.183   3.806 -3.2432 -1.0265  0.6341
 2608SOL    MW410479   3.320   2.267   3.828 -0.6487 -0.6094  0.1597
 2609SOL     OW10480   0.747   1.143   4.473  0.4222  0.0018 -0.1713
 2609SOL    HW210481   0.746   1.236   4.495  0.8093 -0.2632  1.0077
 2609SOL    HW310482   0.838   1.116   4.484 -0.0966 -1.0396  1.8005
 2609SOL    MW410483   0.759   1.152   4.477  0.4048 -0.1705  0.2441
 2610SOL     OW10484   2.133   1.694   4.497 -0.3660  0.2120 -0.1408
 2610SOL    HW210485   2.209   1.749   4.512 -0.4408  0.3947 -0.4360
 2610SOL    HW310486   2.119   1.649   4.581 -0.6458  1.0642  0.2740
 2610SOL    MW410487   2.141   1.695   4.510 -0.4132  0.3486 -0.1254
 2611SOL     OW10488   2.847   1.095   4.693  0.1910 -0.1253 -0.2476
 2611SOL    HW210489   2.905   1.018   4.691  0.7283  0.2695  0.1387
 2611SOL    HW310490   2.759   1.059   4.681  0.2949 -0.9527  1.3349
 2611SOL    MW410491   2.843   1.080   4.691  0.2756 -0.1823  0.0124
 2612SOL     OW10492   0.690   1.043   4.218 -0.5105  0.1451  0.1166
 2612SOL    HW210493   0.697   1.050   4.313 -0.7499 -0.5174  0.1909
 2612SOL    HW310494   0.611   1.092   4.196 -0.6868 -0.0550  0.3071
 2612SOL    MW410495   0.680   1.050   4.227 -0.5653  0.0312  0.1516
 2613SOL     OW10496   0.247   3.977   4.648  0.3980 -0.4300 -0.2206
 2613SOL    HW210497   0.315   4.044   4.659  0.8509 -0.6618 -1.4937
 2613SOL    HW310498   0.295   3.895   4.642 -0.0014 -0.6101 -0.9946
 2613SOL    MW410499   0.262   3.975   4.648  0.4050 -0.4845 -0.4907
 2614SOL     OW10500   2.452   2.866   4.226 -0.2793 -0.5538 -0.3163
 2614SOL    HW210501   2.480   2.956   4.212  1.0132 -0.8950  0.0568
 2614SOL    HW310502   2.526   2.813   4.199 -0.6546 -1.4758  0.4552
 2614SOL    MW410503   2.465   2.871   4.221 -0.1583 -0.7205 -0.1650
 2615SOL     OW10504   2.684   2.720   4.144 -0.1464  0.5384 -0.3715
 2615SOL    HW210505   2.681   2.630   4.178 -1.6304  0.8804  0.4412
 2615SOL    HW310506   2.777   2.740   4.139  0.2393 -1.3474 -1.3747
 2615SOL    MW410507   2.696   2.711   4.148 -0.2913  0.3350 -0.3967
 2616SOL     OW10508   0.502   0.258   4.677  0.1900  0.3862  0.4587
 2616SOL    HW210509   0.420   0.243   4.630  0.5256  0.3609 -0.1180
 2616SOL    HW310510   0.502   0.193   4.747 -0.1156  0.1598  0.2494
 2616SOL    MW410511   0.491   0.248   4.680  0.1940  0.3530  0.3548
 2617SOL     OW10512   3.556   2.479   3.798  0.1372 -0.0721 -0.1845
 2617SOL    HW210513   3.483   2.417   3.804  0.0729 -0.1225 -1.4140
 2617SOL    HW310514   3.578   2.481   3.705  1.4919  0.1948  0.1351
 2617SOL    MW410515   3.549   2.471   3.787  0.3076 -0.0436 -0.3047
 2618SOL     OW10516   1.739   3.057   4.491  0.0352  0.3030  0.3364
 2618SOL    HW210517   1.645   3.041   4.485 -0.1328  1.4316 -0.1040
 2618SOL    HW310518   1.770   3.057   4.401  0.6655 -1.1619  0.5277
 2618SOL    MW410519   1.731   3.055   4.479  0.0962  0.2584  0.3037
 2619SOL     OW10520   0.463   0.026   4.836 -0.1201 -0.1455 -0.1261
 2619SOL    HW210521   0.415  -0.032   4.778  0.3396 -2.0908  1.3648
 2619SOL    HW310522   0.481  -0.028   4.914  3.4709  0.8358 -0.1662
 2619SOL    MW410523   0.459   0.011   4.839  0.4143 -0.2727  0.0658
 2620SOL     OW10524   1.108   1.581   3.833  0.4294  0.4557  0.0334
 2620SOL    HW210525   1.089   1.571   3.926  0.2068 -0.7020 -0.1302
 2620SOL    HW310526   1.023   1.602   3.793  0.8492  2.9015  0.3386
 2620SOL    MW410527   1.094   1.583   3.840  0.4554  0.6256  0.0520
 2621SOL     OW10528   0.805   3.651   4.922 -0.2293  0.1880 -0.1918
 2621SOL    HW210529   0.793   3.680   5.012 -1.0635 -0.4158 -0.1036
 2621SOL    HW310530   0.884   3.697   4.892  0.0393  0.4023  0.8313
 2621SOL    MW410531   0.814   3.661   4.930 -0.3039  0.1366 -0.0448
 2622SOL     OW10532   2.880   3.075   3.886 -0.0557 -0.1259  0.7998
 2622SOL    HW210533   2.961   3.123   3.866 -1.7255  1.6253 -2.2675
 2622SOL    HW310534   2.892   2.990   3.844  0.8783 -0.5450  1.8855
 2622SOL    MW410535   2.892   3.070   3.878 -0.1526  0.0496  0.5383
 2623SOL     OW10536   1.808   2.945   4.247  0.0968  0.0973 -0.4206
 2623SOL    HW210537   1.893   2.978   4.217  0.4718  0.4083  0.9583
 2623SOL    HW310538   1.826   2.858   4.283  0.1423  0.8423  1.4180
 2623SOL    MW410539   1.821   2.938   4.248  0.1523  0.2367  0.0048
 2624SOL     OW10540   1.988   4.144   4.542 -0.3070 -0.0338 -0.3080
 2624SOL    HW210541   1.971   4.139   4.448 -0.3559 -1.1628 -0.2469
 2624SOL    HW310542   1.926   4.082   4.581 -0.7198  0.8893  0.5253
 2624SOL    MW410543   1.978   4.135   4.535 -0.3679 -0.0610 -0.1898
 2625SOL     OW10544   1.107   0.376   4.364 -0.0848  0.0683 -0.1424
 2625SOL    HW210545   1.134   0.468   4.365 -2.0613  0.6754  0.6204
 2625SOL    HW310546   1.152   0.337   4.439  0.0696  0.6301  0.0587
 2625SOL    MW410547   1.116   0.383   4.374 -0.3252  0.2225 -0.0157
 2626SOL     OW10548   3.712   4.281   4.783 -0.0194  0.8979 -0.0513
 2626SOL    HW210549   3.732   4.231   4.863  0.5165  2.9272  1.1290
 2626SOL    HW310550   3.617   4.276   4.776 -0.0168  0.1008  0.2987
 2626SOL    MW410551   3.702   4.273   4.793  0.0520  1.0600  0.1502
 2627SOL     OW10552   2.851   2.145   4.325 -0.0684 -0.0688 -0.1197
 2627SOL    HW210553   2.803   2.175   4.402  0.5504 -1.2872  0.7575
 2627SOL    HW310554   2.880   2.225   4.282 -0.6849  0.6308  0.7578
 2627SOL    MW410555   2.849   2.159   4.330 -0.0682 -0.1373  0.1116
 2628SOL     OW10556   2.955   0.709   4.584  0.4037  0.2290 -0.4811
 2628SOL    HW210557   3.033   0.726   4.531  0.6989 -0.2253 -0.1914
 2628SOL    HW310558   2.973   0.627   4.629 -0.3494 -0.0030 -0.6016
 2628SOL    MW410559   2.968   0.701   4.583  0.3433  0.1384 -0.4582
 2629SOL     OW10560   0.225   1.019   4.250  0.0965  0.2918 -0.4366
 2629SOL    HW210561   0.251   0.932   4.222  2.0307  1.2718 -1.8667
 2629SOL    HW310562   0.239   1.019   4.345  2.8238 -0.1046 -0.7917
 2629SOL    MW410563   0.231   1.008   4.259  0.7115  0.3688 -0.6719
 2630SOL     OW10564   1.067   1.552   4.109  0.0589  0.6646 -0.0357
 2630SOL    HW210565   1.147   1.503   4.129 -0.2622 -0.2238 -0.8821
 2630SOL    HW310566   0.997   1.504   4.153 -0.4562 -0.4988 -2.0227
 2630SOL    MW410567   1.069   1.540   4.117 -0.0515  0.3937 -0.4096
 2631SOL     OW10568   3.877   4.495   4.657  0.1167 -0.2533 -0.2571
 2631SOL    HW210569   3.951   4.436   4.644 -0.3986 -0.3570 -3.1982
 2631SOL    HW310570   3.820   4.449   4.718  0.7353 -1.8702 -0.8581
 2631SOL    MW410571   3.879   4.481   4.663  0.1304 -0.4802 -0.7243
 2632SOL     OW10572   0.776   2.851   4.209 -0.0680  0.2525 -0.1990
 2632SOL    HW210573   0.844   2.801   4.165  2.0138  1.9940  0.9723
 2632SOL    HW310574   0.775   2.936   4.165 -0.9596  0.5090  0.2965
 2632SOL    MW410575   0.785   2.856   4.197  0.0890  0.5159  0.0215
 2633SOL     OW10576   4.184   3.069   4.154  0.0141 -0.3390  0.3157
 2633SOL    HW210577   4.178   3.068   4.058 -0.6065  0.2096  0.3433
 2633SOL    HW310578   4.271   3.104   4.172  0.2175 -0.6524 -0.0531
 2633SOL    MW410579   4.194   3.073   4.144 -0.0405 -0.3080  0.2704
 2634SOL     OW10580   1.251   3.753   4.691  0.4976  0.1795 -0.4722
 2634SOL    HW210581   1.312   3.810   4.645 -0.1530  1.5966  0.3725
 2634SOL    HW310582   1.285   3.665   4.678  0.2131  0.5073 -3.8410
 2634SOL    MW410583   1.263   3.749   4.683  0.3742  0.4096 -0.8059
 2635SOL     OW10584   2.167   1.057   4.533  0.2426 -0.3374  0.0460
 2635SOL    HW210585   2.255   1.093   4.538 -0.8518  2.2675  1.4849
 2635SOL    HW310586   2.135   1.085   4.447  0.6759 -0.9401 -0.3112
 2635SOL    MW410587   2.174   1.065   4.522  0.1554 -0.0733  0.1888
 2636SOL     OW10588   4.467   4.236   3.898 -0.0722 -0.0882  0.2014
 2636SOL    HW210589   4.468   4.217   3.992  0.7177 -0.9867  0.0162
 2636SOL    HW310590   4.541   4.294   3.884  0.4277 -0.7765 -0.0311
 2636SOL    MW410591   4.477   4.241   3.909  0.0978 -0.2971  0.1462
 2637SOL     OW10592   2.900   4.159   4.490  0.1410  0.2691 -0.1354
 2637SOL    HW210593   2.913   4.243   4.535 -0.4914  0.0514  0.4552
 2637SOL    HW310594   2.838   4.112   4.545  0.0060 -0.3328 -0.8057
 2637SOL    MW410595   2.894   4.164   4.503  0.0396  0.1612 -0.1459
 2638SOL     OW10596   1.540   3.841   3.895 -0.1287  0.3247 -0.9572
 2638SOL    HW210597   1.614   3.887   3.856 -0.0140  2.7271  1.8989
 2638SOL    HW310598   1.463   3.892   3.867 -0.2235  0.8570  0.2608
 2638SOL    MW410599   1.540   3.854   3.886 -0.1260  0.7119 -0.4199
 2639SOL     OW10600   1.343   1.381   4.475  0.0211 -0.5096 -0.1375
 2639SOL    HW210601   1.356   1.467   4.515 -0.8334 -0.3872 -0.1181
 2639SOL    HW310602   1.388   1.320   4.534  0.4700 -0.0932 -0.0530
 2639SOL    MW410603   1.351   1.384   4.488 -0.0324 -0.4385 -0.1235
 2640SOL     OW10604   3.913   3.950   4.582  0.4353  0.3252 -0.0323
 2640SOL    HW210605   4.004   3.977   4.594  0.4623  0.0989  0.2584
 2640SOL    HW310606   3.866   4.032   4.569  0.5971  0.4811  0.3492
 2640SOL    MW410607   3.919   3.965   4.582  0.4601  0.3161  0.0563
 2641SOL     OW10608   2.006   1.818   4.253  0.8255 -0.3514  0.0442
 2641SOL    HW210609   2.066   1.884   4.218 -0.1757  0.4862 -0.1144
 2641SOL    HW310610   2.039   1.800   4.341  1.3676  0.0337 -0.0770
 2641SOL    MW410611   2.018   1.825   4.260  0.7648 -0.1901  0.0072
 2642SOL     OW10612   0.491   4.141   4.707  0.0988  0.2932  0.3965
 2642SOL    HW210613   0.555   4.070   4.698 -1.8195 -1.2623 -1.3568
 2642SOL    HW310614   0.527   4.213   4.655  0.5392 -0.4827 -0.3758
 2642SOL    MW410615   0.504   4.141   4.699 -0.0961 -0.0143  0.0629
 2643SOL     OW10616   3.186   1.344   4.586 -0.0994  0.0725  0.3382
 2643SOL    HW210617   3.110   1.315   4.535 -0.6563  1.1210  0.5600
 2643SOL    HW310618   3.228   1.262   4.615 -0.6039 -0.5172 -0.5757
 2643SOL    MW410619   3.181   1.329   4.583 -0.2394  0.1330  0.2470
 2644SOL     OW10620   3.202   2.739   4.142 -0.6207  0.3167 -0.2219
 2644SOL    HW210621   3.182   2.651   4.175 -1.3801  0.2388 -0.8829
 2644SOL    HW310622   3.205   2.729   4.047  1.0170  0.6651 -0.2262
 2644SOL    MW410623   3.200   2.726   4.134 -0.5050  0.3524 -0.3095
 2645SOL     OW10624   2.994   0.862   4.170 -0.2126 -0.1327 -0.5385
 2645SOL    HW210625   3.071   0.818   4.205 -0.3950 -0.9448 -1.1464
 2645SOL    HW310626   3.001   0.952   4.201  0.6311 -0.3711 -0.0398
 2645SOL    MW410627   3.005   0.868   4.179 -0.1256 -0.2713 -0.5527
 2646SOL     OW10628   1.141   4.612   3.871  0.3400  0.1582 -0.2724
 2646SOL    HW210629   1.155   4.601   3.965  0.4106 -0.5867 -0.3700
 2646SOL    HW310630   1.133   4.523   3.837  0.5713  0.4141 -1.0097
 2646SOL    MW410631   1.142   4.599   3.879  0.3798  0.0935 -0.3827
 2647SOL     OW10632   2.022   0.696   4.548  0.2881 -0.7871  0.2216
 2647SOL    HW210633   1.986   0.619   4.591  0.5685  0.3013  2.4916
 2647SOL    HW310634   2.037   0.758   4.619 -0.4547  1.5763 -1.6019
 2647SOL    MW410635   2.019   0.694   4.563  0.2272 -0.3317  0.2804
 2648SOL     OW10636   2.769   0.717   4.244 -0.1839 -0.6581 -0.3064
 2648SOL    HW210637   2.780   0.629   4.207  0.7105 -0.0958 -1.4017
 2648SOL    HW310638   2.852   0.761   4.226 -0.3539  0.1835  0.8946
 2648SOL    MW410639   2.781   0.711   4.237 -0.0885 -0.4728 -0.2928
 2649SOL     OW10640   1.356   1.634   4.644 -0.1549  0.2199  0.2939
 2649SOL    HW210641   1.301   1.711   4.628 -0.2647  0.0329 -0.2111
 2649SOL    HW310642   1.440   1.656   4.604 -0.1863  0.0752  0.1497
 2649SOL    MW410643   1.360   1.647   4.637 -0.1736  0.1762  0.2079
 2650SOL     OW10644   1.085   1.798   4.268 -0.2946  0.3343 -0.3586
 2650SOL    HW210645   1.070   1.721   4.214 -2.9793  0.4195  0.2075
 2650SOL    HW310646   1.160   1.842   4.227  0.1623 -1.6289 -1.6982
 2650SOL    MW410647   1.093   1.794   4.256 -0.5884  0.0864 -0.4606
 2651SOL     OW10648   0.416   0.577   4.247 -0.6888  0.4443  0.1654
 2651SOL    HW210649   0.421   0.497   4.196  0.4779  0.8907 -0.4159
 2651SOL    HW310650   0.386   0.548   4.334 -1.9652 -0.3939 -0.5419
 2651SOL    MW410651   0.412   0.563   4.252 -0.7032  0.3926 -0.0043
 2652SOL     OW10652   1.353   4.283   3.889 -0.3100 -0.4743  0.2172
 2652SOL    HW210653   1.427   4.335   3.858 -0.5294 -0.8407 -0.9226
 2652SOL    HW310654   1.280   4.308   3.833 -0.5914 -1.4837  0.1113
 2652SOL    MW410655   1.353   4.293   3.878 -0.3761 -0.6557  0.0529
 2653SOL     OW10656   4.168   3.651   4.495  0.3882 -0.0794 -0.3102
 2653SOL    HW210657   4.077   3.680   4.488  0.6943  0.6315 -1.5980
 2653SOL    HW310658   4.163   3.556   4.499 -0.4149 -0.0490 -0.4862
 2653SOL    MW410659   4.156   3.643   4.494  0.3228  0.0184 -0.5035
 2654SOL     OW10660   2.555   4.416   4.603 -0.2958 -0.2236  0.1085
 2654SOL    HW210661   2.466   4.449   4.610 -0.3378 -0.3418  0.1370
 2654SOL    HW310662   2.608   4.480   4.651 -0.0970  0.8907 -1.5358
 2654SOL    MW410663   2.550   4.429   4.610 -0.2751 -0.0920 -0.1044
 2655SOL     OW10664   1.908   4.119   4.267 -0.2018  0.5386  0.0033
 2655SOL    HW210665   1.851   4.188   4.233 -0.4660  0.0595 -0.5363
 2655SOL    HW310666   1.989   4.128   4.216  0.3698  1.4891  1.0620
 2655SOL    MW410667   1.911   4.129   4.255 -0.1613  0.6008  0.0720
 2656SOL     OW10668   4.047   1.393   4.378 -0.2567  0.2901 -0.3126
 2656SOL    HW210669   4.118   1.415   4.438 -1.2009  2.3076  0.1435
 2656SOL    HW310670   4.044   1.298   4.377  1.8697  0.1879  0.3297
 2656SOL    MW410671   4.056   1.384   4.386 -0.1006  0.5428 -0.1674
 2657SOL     OW10672   1.805   3.331   4.561  0.0786  0.1456 -0.0031
 2657SOL    HW210673   1.841   3.367   4.479  1.5663 -0.8315  0.2011
 2657SOL    HW310674   1.781   3.241   4.539  0.0293  0.0331  0.5201
 2657SOL    MW410675   1.807   3.324   4.547  0.2682  0.0019  0.0925
 2658SOL     OW10676   2.475   4.150   4.729  0.2772  0.0287 -0.4189
 2658SOL    HW210677   2.410   4.146   4.659  1.2711 -0.3042 -1.3378
 2658SOL    HW310678   2.513   4.238   4.721 -0.0653  0.2306  0.1284
 2658SOL    MW410679   2.471   4.161   4.719  0.3633  0.0114 -0.4678
 2659SOL     OW10680   2.736   3.492   4.173  0.0061  0.2946  0.1771
 2659SOL    HW210681   2.652   3.452   4.195  0.1183  0.4264  0.8871
 2659SOL    HW310682   2.801   3.425   4.196  0.1102  0.3242 -0.0354
 2659SOL    MW410683   2.734   3.478   4.179  0.0346  0.3161  0.2432
 2660SOL     OW10684   0.982   3.476   4.329  0.1720 -0.0774  1.2553
 2660SOL    HW210685   0.958   3.542   4.394 -0.9802 -0.8757  1.6604
 2660SOL    HW310686   1.078   3.475   4.330  0.1796  0.8368  2.0068
 2660SOL    MW410687   0.991   3.484   4.338  0.0210 -0.0622  1.4086
 2661SOL     OW10688   0.863   0.340   3.825 -0.3699  0.4419 -0.2163
 2661SOL    HW210689   0.808   0.322   3.901 -2.2908  1.1863 -1.3995
 2661SOL    HW310690   0.886   0.254   3.791  1.5651  0.0550  1.8884
 2661SOL    MW410691   0.859   0.327   3.831 -0.3680  0.4890 -0.0947
 2662SOL     OW10692   0.754   1.452   4.500  0.5107 -0.1006  0.4218
 2662SOL    HW210693   0.795   1.456   4.414 -0.7378 -1.8407 -0.2665
 2662SOL    HW310694   0.810   1.507   4.555  1.7321  0.4407 -1.3110
 2662SOL    MW410695   0.767   1.460   4.496  0.5072 -0.2588  0.1020
 2663SOL     OW10696   0.265   4.667   4.147 -0.1326 -0.1796 -0.2066
 2663SOL    HW210697   0.232   4.753   4.173  0.3502 -0.0255 -0.0941
 2663SOL    HW310698   0.196   4.606   4.171 -1.0737  0.3276 -1.5487
 2663SOL    MW410699   0.252   4.670   4.153 -0.1931 -0.0920 -0.3695
 2664SOL     OW10700   0.947   4.623   4.275 -0.0742 -0.2843  0.0620
 2664SOL    HW210701   1.030   4.629   4.228 -0.7778 -0.0571 -1.1766
 2664SOL    HW310702   0.957   4.682   4.349  1.2355 -1.0277  0.5002
 2664SOL    MW410703   0.960   4.631   4.279  0.0057 -0.3519 -0.0434
 2665SOL     OW10704   4.425   3.461   3.864 -0.1721 -0.5290 -0.3388
 2665SOL    HW210705   4.401   3.371   3.840  0.9161 -1.1188  0.7986
 2665SOL    HW310706   4.421   3.463   3.959 -3.1125  1.4527 -0.4213
 2665SOL    MW410707   4.421   3.449   3.873 -0.4168 -0.3452 -0.1996
 2666SOL     OW10708   2.490   3.855   3.864 -0.5727  0.2895 -0.6006
 2666SOL    HW210709   2.480   3.774   3.813 -2.1229  0.4670 -0.6204
 2666SOL    HW310710   2.409   3.903   3.847  0.0162  1.5097  0.0100
 2666SOL    MW410711   2.478   3.851   3.855 -0.6995  0.4737 -0.5229
 2667SOL     OW10712   1.566   0.750   3.910 -0.0083 -0.4936 -0.3975
 2667SOL    HW210713   1.635   0.797   3.863  0.4313 -0.1700  0.5573
 2667SOL    HW310714   1.565   0.790   3.997 -1.9357  0.0290 -0.6417
 2667SOL    MW410715   1.575   0.761   3.915 -0.2047 -0.3819 -0.3037
 2668SOL     OW10716   2.057   3.028   4.125  0.1434 -0.3651  0.1931
 2668SOL    HW210717   2.106   2.946   4.126  1.4006  0.3017 -2.4603
 2668SOL    HW310718   2.061   3.058   4.034 -0.5587  2.4829  1.0403
 2668SOL    MW410719   2.064   3.021   4.113  0.2170  0.0987 -0.0453
 2669SOL     OW10720   0.916   0.068   3.746  0.6426 -0.4584  0.4145
 2669SOL    HW210721   0.989   0.027   3.793  0.0626  1.3765  3.0408
 2669SOL    HW310722   0.839   0.024   3.781  0.3576 -0.9796 -0.8620
 2669SOL    MW410723   0.916   0.057   3.757  0.5285 -0.2851  0.5927
 2670SOL     OW10724   2.681   4.126   4.091  0.0301 -0.2837  0.1856
 2670SOL    HW210725   2.686   4.167   4.005 -1.7043  0.8493  0.5861
 2670SOL    HW310726   2.743   4.175   4.145 -0.2264  0.2157  0.0306
 2670SOL    MW410727   2.690   4.138   4.087 -0.2327 -0.0691  0.2179
 2671SOL     OW10728   3.558   2.744   3.868 -0.5611  0.1408  0.0915
 2671SOL    HW210729   3.555   2.652   3.842 -0.1744  0.0205  0.4594
 2671SOL    HW310730   3.538   2.743   3.961 -0.1070  0.3808  0.1942
 2671SOL    MW410731   3.555   2.732   3.876 -0.4499  0.1564  0.1535
 2672SOL     OW10732   1.111   1.060   4.189  0.2050  0.3327  0.1384
 2672SOL    HW210733   1.206   1.062   4.183  0.3221 -1.1381  1.0981
 2672SOL    HW310734   1.088   0.967   4.178 -1.0952  0.6580 -0.0025
 2672SOL    MW410735   1.120   1.048   4.187  0.0490  0.1816  0.2465
 2673SOL     OW10736   0.207   3.623   4.234  0.4331 -0.5970 -0.4168
 2673SOL    HW210737   0.253   3.539   4.231  1.0009 -0.3236  0.3543
 2673SOL    HW310738   0.169   3.626   4.322 -0.3795 -0.4643 -0.7755
 2673SOL    MW410739   0.208   3.612   4.246  0.4008 -0.5436 -0.3624
 2674SOL     OW10740   0.424   4.285   3.871  0.0469  0.2974  0.1876
 2674SOL    HW210741   0.426   4.192   3.847 -1.2689  0.4563 -0.6046
 2674SOL    HW310742   0.504   4.321   3.833  0.0617 -0.3145 -0.3748
 2674SOL    MW410743   0.435   4.278   3.862 -0.1248  0.2379  0.0088
 2675SOL     OW10744   2.690   0.740   4.513 -0.2550 -0.5453  0.4164
 2675SOL    HW210745   2.694   0.738   4.418 -0.9435  0.4046  0.3662
 2675SOL    HW310746   2.780   0.718   4.541  0.7666  2.2884 -0.5055
 2675SOL    MW410747   2.703   0.737   4.504 -0.2112 -0.0461  0.2880
 2676SOL     OW10748   0.229   2.805   4.258  0.6409 -0.0019  0.3736
 2676SOL    HW210749   0.185   2.885   4.230 -0.9559 -1.9432 -2.9423
 2676SOL    HW310750   0.315   2.809   4.216 -0.8206 -1.7047 -2.9815
 2676SOL    MW410751   0.234   2.816   4.249  0.2374 -0.4828 -0.5059
 2677SOL     OW10752   0.497   4.546   4.238  0.1732 -0.3759  0.2693
 2677SOL    HW210753   0.493   4.454   4.210 -1.3735 -0.4945  0.7992
 2677SOL    HW310754   0.415   4.584   4.206  0.9814  0.9282 -0.2874
 2677SOL    MW410755   0.486   4.539   4.230  0.0757 -0.2193  0.2651
 2678SOL     OW10756   2.460   2.305   3.833 -0.0789 -0.3319  0.0589
 2678SOL    HW210757   2.542   2.340   3.798  0.6401 -0.5425  1.5140
 2678SOL    HW310758   2.397   2.376   3.822  0.8148  0.6108  0.9054
 2678SOL    MW410759   2.463   2.319   3.827  0.1340 -0.2351  0.3624
 2679SOL     OW10760   1.393   2.185   4.210  0.4793  0.2242 -0.0538
 2679SOL    HW210761   1.475   2.222   4.176  0.2011  0.9437  0.0412
 2679SOL    HW310762   1.406   2.183   4.305  0.3624  0.3944 -0.0342
 2679SOL    MW410763   1.406   2.190   4.218  0.4271  0.3419 -0.0386
 2680SOL     OW10764   3.704   0.908   4.451  0.2154 -0.1152  0.0312
 2680SOL    HW210765   3.669   0.983   4.404  1.3801  0.6998  0.4401
 2680SOL    HW310766   3.756   0.946   4.522 -0.1750 -1.3124  0.9769
 2680SOL    MW410767   3.706   0.923   4.455  0.3176 -0.1656  0.2098
 2681SOL     OW10768   0.756   0.788   4.130  0.5474  0.1428  0.0011
 2681SOL    HW210769   0.756   0.873   4.173  3.3746 -0.5640  1.5175
 2681SOL    HW310770   0.726   0.727   4.198 -1.5108 -0.1014 -1.0877
 2681SOL    MW410771   0.752   0.791   4.145  0.6489  0.0174  0.0577
 2682SOL     OW10772   4.368   0.384   4.494  0.1333  0.1906 -0.1213
 2682SOL    HW210773   4.405   0.308   4.540  1.0649  0.5852 -0.2200
 2682SOL    HW310774   4.346   0.351   4.407 -1.1172 -0.4181  0.4177
 2682SOL    MW410775   4.370   0.369   4.489  0.0911  0.1624 -0.0634
 2683SOL     OW10776   3.477   0.298   4.127  0.3680  0.4580  0.4972
 2683SOL    HW210777   3.513   0.326   4.211  0.4804  0.1241  0.5603
 2683SOL    HW310778   3.471   0.203   4.134 -1.7241  0.5985  0.9765
 2683SOL    MW410779   3.481   0.289   4.139  0.1066  0.4325  0.5698
 2684SOL     OW10780   4.462   3.475   4.148  0.1159 -0.3119  0.4254
 2684SOL    HW210781   4.401   3.523   4.203  1.1046 -0.3976  1.5972
 2684SOL    HW310782   4.545   3.521   4.157 -0.5039  2.0149 -3.9870
 2684SOL    MW410783   4.465   3.487   4.156  0.1645 -0.0162 -0.0014
 2685SOL     OW10784   2.664   0.437   4.758  0.1588  0.1258 -0.0704
 2685SOL    HW210785   2.589   0.439   4.816 -0.3751 -0.5816 -0.7216
 2685SOL    HW310786   2.627   0.448   4.670  0.7191 -0.9571 -0.4608
 2685SOL    MW410787   2.649   0.439   4.754  0.1624 -0.1104 -0.2079
 2686SOL     OW10788   2.923   1.555   4.410  0.0358  0.1633 -0.1323
 2686SOL    HW210789   3.009   1.576   4.445  0.9609 -0.4936 -1.9659
 2686SOL    HW310790   2.903   1.468   4.446  0.5740 -0.1017 -0.4620
 2686SOL    MW410791   2.931   1.546   4.419  0.2289  0.0416 -0.4172
 2687SOL     OW10792   2.085   0.839   4.118  0.2291  0.0328 -0.1326
 2687SOL    HW210793   2.160   0.784   4.142 -0.2553  0.3207  2.0911
 2687SOL    HW310794   2.069   0.817   4.026  1.6776 -1.6327 -0.0216
 2687SOL    MW410795   2.093   0.829   4.109  0.3562 -0.1490  0.1755
 2688SOL     OW10796   0.662   3.682   4.689  0.2354 -0.6452 -0.4998
 2688SOL    HW210797   0.710   3.664   4.770 -2.9770 -3.7320  0.8576
 2688SOL    HW310798   0.660   3.597   4.643 -0.6341  0.3463 -2.3521
 2688SOL    MW410799   0.668   3.668   4.693 -0.3031 -0.9215 -0.5646
 2689SOL     OW10800   2.138   1.557   4.744 -0.1768 -0.1609 -0.4802
 2689SOL    HW210801   2.049   1.593   4.753  0.1094  0.3318  0.4368
 2689SOL    HW310802   2.125   1.466   4.718 -0.9339  0.2823 -1.7019
 2689SOL    MW410803   2.125   1.550   4.742 -0.2387 -0.0374 -0.5207
 2690SOL     OW10804   2.490   3.096   4.775 -0.3113  0.6620  0.0990
 2690SOL    HW210805   2.439   3.165   4.732  0.1289  0.5920 -0.5517
 2690SOL    HW310806   2.514   3.037   4.704  1.0738  0.9482  0.3129
 2690SOL    MW410807   2.486   3.098   4.760 -0.0703  0.6907  0.0415
 2691SOL     OW10808   1.933   0.055   4.115  0.0499 -0.0520  0.9409
 2691SOL    HW210809   1.982   0.126   4.156 -0.0340  0.3071  0.4307
 2691SOL    HW310810   1.972  -0.025   4.150  1.1451  0.2266  0.3865
 2691SOL    MW410811   1.945   0.054   4.125  0.1833  0.0321  0.8006
 2692SOL     OW10812   0.790   3.400   4.129  0.0501  0.2457  0.2154
 2692SOL    HW210813   0.857   3.409   4.196 -0.3534  0.3143  0.6111
 2692SOL    HW310814   0.784   3.305   4.114  0.8239  0.2896 -0.4271
 2692SOL    MW410815   0.798   3.389   4.135  0.0989  0.2608  0.1831
 2693SOL     OW10816   1.779   4.333   4.152 -0.0551  0.2347  0.1076
 2693SOL    HW210817   1.739   4.378   4.227 -0.8059 -1.2672  0.6309
 2693SOL    HW310818   1.866   4.372   4.145 -0.3270  1.0688  1.1602
 2693SOL    MW410819   1.785   4.344   4.161 -0.1900  0.1454  0.3157
 2694SOL     OW10820   1.134   0.778   3.884 -0.1637  0.7344  0.1053
 2694SOL    HW210821   1.069   0.840   3.849 -0.3976  1.1921  1.3271
 2694SOL    HW310822   1.117   0.696   3.838 -0.0951  1.4766 -1.2643
 2694SOL    MW410823   1.123   0.776   3.873 -0.1855  0.8928  0.0856
 2695SOL     OW10824   1.147   2.306   4.110 -0.2209  0.3940  0.4927
 2695SOL    HW210825   1.216   2.266   4.164  0.3172  0.2079 -0.3296
 2695SOL    HW310826   1.068   2.300   4.165 -0.0829 -1.4916  0.5311
 2695SOL    MW410827   1.146   2.300   4.125 -0.1316  0.1204  0.3891
 2696SOL     OW10828   1.258   3.504   4.333 -0.0297  0.1364 -0.4802
 2696SOL    HW210829   1.292   3.503   4.423 -0.1936 -0.5014 -0.4221
 2696SOL    HW310830   1.273   3.594   4.303  0.3191  0.2689  0.0728
 2696SOL    MW410831   1.265   3.516   4.341 -0.0054  0.0696 -0.3991
 2697SOL     OW10832   3.117   3.933   4.167 -0.1161  0.2009  0.0766
 2697SOL    HW210833   3.135   4.012   4.116  0.3040  0.1666  0.1721
 2697SOL    HW310834   3.030   3.905   4.138  0.1279  0.1737 -0.6263
 2697SOL    MW410835   3.108   3.940   4.157 -0.0284  0.1929 -0.0033
 2698SOL     OW10836   2.722   2.232   4.554 -0.1932  0.0241 -0.1247
 2698SOL    HW210837   2.784   2.227   4.627  0.6357  0.1825 -0.8075
 2698SOL    HW310838   2.689   2.322   4.557  1.7627  0.8317 -1.4739
 2698SOL    MW410839   2.726   2.243   4.564  0.1740  0.1516 -0.3929
 2699SOL     OW10840   4.488   1.733   4.474 -0.5584  0.4997  0.3426
 2699SOL    HW210841   4.434   1.752   4.397  0.8239 -0.6488 -0.9496
 2699SOL    HW310842   4.457   1.795   4.540 -1.3527  1.9627 -1.3294
 2699SOL    MW410843   4.477   1.744   4.472 -0.4807  0.5412 -0.0491
 2700SOL     OW10844   2.229   2.454   3.774 -0.1363 -0.1058  0.2732
 2700SOL    HW210845   2.214   2.548   3.789  1.6598  0.5398 -1.6921
 2700SOL    HW310846   2.256   2.449   3.683  0.4115 -2.4954  0.5454
 2700SOL    MW410847   2.231   2.466   3.764  0.1731 -0.3357  0.0498
 2701SOL     OW10848   2.133   0.613   4.867 -0.5674 -0.2558  0.2946
 2701SOL    HW210849   2.057   0.577   4.822  0.3402  0.0850 -1.5411
 2701SOL    HW310850   2.117   0.707   4.871  0.1753 -0.0780 -0.8961
 2701SOL    MW410851   2.121   0.620   4.862 -0.3498 -0.1873 -0.1049
 2702SOL     OW10852   4.230   1.384   4.629 -0.4044 -0.0508  0.3135
 2702SOL    HW210853   4.322   1.385   4.602 -1.0788  0.2874 -2.1480
 2702SOL    HW310854   4.205   1.476   4.634 -0.7622 -0.1497  0.3983
 2702SOL    MW410855   4.239   1.396   4.626 -0.5407 -0.0192  0.0005
 2703SOL     OW10856   1.789   0.880   3.795 -0.1428 -0.3213  0.2491
 2703SOL    HW210857   1.863   0.822   3.805  0.8751  0.8983 -0.0655
 2703SOL    HW310858   1.778   0.890   3.700 -0.0614  0.2920  0.2981
 2703SOL    MW410859   1.797   0.874   3.784  0.0023 -0.0795  0.2141
 2704SOL     OW10860   3.925   0.336   4.615 -0.4511 -0.0784 -0.3695
 2704SOL    HW210861   3.864   0.351   4.686  0.0588 -0.1792  0.0940
 2704SOL    HW310862   3.981   0.413   4.614  1.1106 -1.1543  0.9445
 2704SOL    MW410863   3.924   0.348   4.624 -0.1779 -0.2337 -0.1345
 2705SOL     OW10864   0.464   1.920   4.105  0.0639 -0.0035  0.0716
 2705SOL    HW210865   0.391   1.863   4.131 -0.5686  1.3000  1.2424
 2705SOL    HW310866   0.540   1.885   4.150  0.0435 -0.9832 -0.6372
 2705SOL    MW410867   0.464   1.908   4.114 -0.0223  0.0392  0.1321
 2706SOL     OW10868   4.252   2.127   4.566 -0.0097 -0.4063 -0.3049
 2706SOL    HW210869   4.333   2.170   4.540 -0.3881  0.6592  0.2442
 2706SOL    HW310870   4.192   2.142   4.493 -0.2954  0.4398  0.0962
 2706SOL    MW410871   4.255   2.134   4.553 -0.0968 -0.1540 -0.1793
 2707SOL     OW10872   4.038   1.117   4.411 -0.2990 -0.2790  0.1886
 2707SOL    HW210873   4.128   1.085   4.416  0.3159  1.4448  0.5672
 2707SOL    HW310874   4.002   1.102   4.498  0.0983  0.3812  0.4674
 2707SOL    MW410875   4.045   1.111   4.423 -0.1655  0.0355  0.2751
 2708SOL     OW10876   2.432   2.886   3.789 -0.6499  0.2067  0.1885
 2708SOL    HW210877   2.509   2.832   3.807 -0.1512  1.0348  0.5756
 2708SOL    HW310878   2.424   2.884   3.693 -2.9023 -3.6285  0.3686
 2708SOL    MW410879   2.441   2.878   3.779 -0.8814 -0.1903  0.2635
 2709SOL     OW10880   3.956   2.704   4.124 -0.4015  0.5559  0.3479
 2709SOL    HW210881   4.030   2.735   4.176 -0.7048  0.6845  0.7037
 2709SOL    HW310882   3.946   2.612   4.150  0.5468  0.1350 -0.7656
 2709SOL    MW410883   3.964   2.696   4.134 -0.3164  0.5174  0.2475
 2710SOL     OW10884   1.383   0.071   4.247  0.0015  0.1119  0.0398
 2710SOL    HW210885   1.370   0.166   4.241 -0.4564 -0.0279 -1.2995
 2710SOL    HW310886   1.472   0.058   4.214  0.1784  0.1116  0.5216
 2710SOL    MW410887   1.393   0.082   4.242 -0.0356  0.0934 -0.0734
 2711SOL     OW10888   4.026   3.248   4.301 -0.0580 -0.4733  0.6402
 2711SOL    HW210889   4.074   3.174   4.264 -0.8970 -0.0559 -1.3497
 2711SOL    HW310890   3.939   3.214   4.321 -0.2914 -0.1552  0.1790
 2711SOL    MW410891   4.021   3.234   4.299 -0.1998 -0.3762  0.3176
 2712SOL     OW10892   0.002   1.940   3.854 -0.0071  0.0483  0.4842
 2712SOL    HW210893   0.015   1.858   3.807 -0.3370 -1.2935  2.6757
 2712SOL    HW310894  -0.085   1.969   3.827  0.0507 -0.3982 -0.1956
 2712SOL    MW410895  -0.008   1.933   3.844 -0.0429 -0.1875  0.6838
 2713SOL     OW10896   2.972   0.291   4.240 -0.1743 -0.0329 -0.5063
 2713SOL    HW210897   2.969   0.203   4.202  2.0357 -0.4236  0.1146
 2713SOL    HW310898   3.054   0.328   4.208  0.1813  0.8235  1.3120
 2713SOL    MW410899   2.983   0.284   4.231  0.1640  0.0286 -0.1850
 2714SOL     OW10900   1.879   0.686   4.238 -0.1421  0.0252 -0.0864
 2714SOL    HW210901   1.848   0.742   4.310 -0.0446  0.1603 -0.1489
 2714SOL    HW310902   1.955   0.732   4.204 -0.2921  0.0486 -0.3903
 2714SOL    MW410903   1.885   0.700   4.243 -0.1489  0.0461 -0.1345
 2715SOL     OW10904   1.791   4.290   4.691 -0.5903  0.6921  0.0639
 2715SOL    HW210905   1.730   4.217   4.685 -1.1745  1.1308  0.5181
 2715SOL    HW310906   1.869   4.261   4.644 -0.7668 -0.2719  0.3614
 2715SOL    MW410907   1.794   4.277   4.684 -0.6906  0.6223  0.1626
 2716SOL     OW10908   0.458   0.344   4.108  0.3575  0.3590 -0.0035
 2716SOL    HW210909   0.429   0.346   4.017  0.3346  1.1641  0.0127
 2716SOL    HW310910   0.553   0.330   4.103  0.2502 -0.3124 -0.1258
 2716SOL    MW410911   0.467   0.343   4.095  0.3404  0.3766 -0.0176
 2717SOL     OW10912   1.583   1.688   4.499 -0.0858 -0.0617  0.4495
 2717SOL    HW210913   1.537   1.732   4.427 -0.0898 -0.3275  0.2898
 2717SOL    HW310914   1.607   1.602   4.464 -1.2048 -0.6882  1.1705
 2717SOL    MW410915   1.580   1.682   4.485 -0.2339 -0.1793  0.5231
 2718SOL     OW10916   2.374   0.514   4.795 -0.0908  0.0220 -0.0738
 2718SOL    HW210917   2.293   0.540   4.839  0.1574 -0.7206  0.8281
 2718SOL    HW310918   2.347   0.451   4.728 -0.0722 -1.4511  1.3016
 2718SOL    MW410919   2.360   0.509   4.792 -0.0558 -0.2704  0.2270
 2719SOL     OW10920   4.285   0.010   4.233 -0.2592  0.3510  0.1792
 2719SOL    HW210921   4.266  -0.012   4.142  0.0456  0.3111  0.1239
 2719SOL    HW310922   4.362  -0.043   4.255 -1.7645 -1.4676  1.2036
 2719SOL    MW410923   4.293  -0.000   4.224 -0.4177  0.1054  0.3071
 2720SOL     OW10924   3.128   2.474   3.739  0.4865 -0.2654 -0.3866
 2720SOL    HW210925   3.184   2.397   3.749  0.2532 -0.4061 -0.1296
 2720SOL    HW310926   3.143   2.503   3.649  1.5163  0.1371 -0.0924
 2720SOL    MW410927   3.137   2.468   3.728  0.5918 -0.2306 -0.3138
 2721SOL     OW10928   1.379   1.152   3.851  0.1791 -0.4004 -0.2912
 2721SOL    HW210929   1.371   1.064   3.814 -0.1344 -0.6062  0.2544
 2721SOL    HW310930   1.292   1.190   3.840  0.1704 -0.3497 -0.0504
 2721SOL    MW410931   1.366   1.145   3.845  0.1366 -0.4208 -0.1874
 2722SOL     OW10932   3.596   1.910   3.852 -0.4524  0.2311  0.3285
 2722SOL    HW210933   3.518   1.951   3.813 -0.0603  0.7623  0.0925
 2722SOL    HW310934   3.601   1.824   3.811 -1.0336  0.1118  0.4976
 2722SOL    MW410935   3.586   1.904   3.842 -0.4771  0.2855  0.3195
 2723SOL     OW10936   1.290   0.324   4.155  0.1555 -0.2208 -0.1089
 2723SOL    HW210937   1.364   0.383   4.172  0.5225 -0.8009  0.3413
 2723SOL    HW310938   1.216   0.364   4.200  0.3453  0.0310 -0.0225
 2723SOL    MW410939   1.290   0.337   4.163  0.2290 -0.2641 -0.0386
 2724SOL     OW10940   2.652   2.718   3.861  0.6042  0.5307  0.3053
 2724SOL    HW210941   2.659   2.714   3.956  0.6131 -1.5737  0.2498
 2724SOL    HW310942   2.738   2.747   3.831  0.4696  1.6006  0.9536
 2724SOL    MW410943   2.664   2.721   3.869  0.5875  0.3941  0.3834
 2725SOL     OW10944   3.203   0.409   4.113  0.0542  0.0242  0.0110
 2725SOL    HW210945   3.210   0.500   4.139 -0.0235 -0.1146  0.5299
 2725SOL    HW310946   3.293   0.377   4.111 -0.0214 -0.2714  1.2356
 2725SOL    MW410947   3.215   0.417   4.116  0.0341 -0.0331  0.2408
 2726SOL     OW10948   2.196   2.782   4.124 -0.4519 -0.1986  0.3845
 2726SOL    HW210949   2.282   2.801   4.163  0.0601  0.2782 -0.9343
 2726SOL    HW310950   2.163   2.708   4.174  0.1845  0.4039  1.7231
 2726SOL    MW410951   2.203   2.775   4.136 -0.3002 -0.0560  0.3867
 2727SOL     OW10952   1.748   2.432   3.788  0.2882  0.7121  0.0680
 2727SOL    HW210953   1.829   2.390   3.818  0.2705 -0.6696 -1.7115
 2727SOL    HW310954   1.678   2.376   3.822  0.0876  1.5465  1.0569
 2727SOL    MW410955   1.749   2.419   3.796  0.2594  0.6402 -0.0365
 2728SOL     OW10956   3.539   2.243   4.374 -0.0736 -0.0888 -0.1384
 2728SOL    HW210957   3.624   2.226   4.417  0.0879  1.1044  0.0180
 2728SOL    HW310958   3.559   2.306   4.306 -0.9312  0.5747  0.2261
 2728SOL    MW410959   3.553   2.249   4.371 -0.1655  0.1559 -0.0701
 2729SOL     OW10960   2.945   2.778   4.255 -0.3985 -0.0021 -0.1957
 2729SOL    HW210961   3.031   2.793   4.216 -0.1150  0.7080  0.6870
 2729SOL    HW310962   2.963   2.728   4.334 -0.9195 -0.9264 -0.6459
 2729SOL    MW410963   2.959   2.774   4.260 -0.4299 -0.0300 -0.1388
 2730SOL     OW10964   3.608   3.463   4.177 -0.2988  0.4692 -0.1547
 2730SOL    HW210965   3.591   3.467   4.083 -0.7794  0.9763 -0.0496
 2730SOL    HW310966   3.673   3.531   4.193  0.7533 -0.4767 -0.3178
 2730SOL    MW410967   3.614   3.473   4.166 -0.2234  0.4115 -0.1626
 2731SOL     OW10968   2.037   3.072   3.839  0.2431  0.0036  0.0076
 2731SOL    HW210969   1.973   3.142   3.823  0.8967  0.8516  1.0677
 2731SOL    HW310970   1.998   2.995   3.797 -1.5015  0.4973  0.6327
 2731SOL    MW410971   2.023   3.071   3.832  0.0989  0.1807  0.2298
 2732SOL     OW10972   1.183   4.595   4.142 -0.6440 -0.0055  0.2950
 2732SOL    HW210973   1.255   4.650   4.173 -0.8173  0.4481 -0.1020
 2732SOL    HW310974   1.213   4.506   4.157  0.6534  0.1306 -1.2593
 2732SOL    MW410975   1.197   4.591   4.148 -0.4957  0.0725  0.0372
 2733SOL     OW10976   1.764   4.573   4.605 -0.2612  0.2307  0.0584
 2733SOL    HW210977   1.763   4.545   4.514  0.7480  0.6629 -0.0968
 2733SOL    HW310978   1.733   4.498   4.654  0.8624 -0.6158 -0.4922
 2733SOL    MW410979   1.760   4.560   4.599  0.0201  0.1755 -0.0348
 2734SOL     OW10980   4.244   3.890   4.128 -0.2992 -0.2864  0.4838
 2734SOL    HW210981   4.248   3.908   4.034 -0.0311  0.6718  0.6773
 2734SOL    HW310982   4.165   3.936   4.157  1.0835  1.6580  1.2122
 2734SOL    MW410983   4.234   3.898   4.119 -0.0815  0.0966  0.6051
 2735SOL     OW10984   3.137   1.792   4.131  0.2044  0.8733  0.0580
 2735SOL    HW210985   3.139   1.832   4.045  0.8532 -0.6767 -0.6578
 2735SOL    HW310986   3.085   1.853   4.184 -1.9561  0.8282 -1.9195
 2735SOL    MW410987   3.131   1.806   4.127  0.0050  0.6629 -0.2975
 2736SOL     OW10988   1.606   3.697   4.446  0.7702  0.6311 -0.0872
 2736SOL    HW210989   1.656   3.708   4.366  0.8626  0.5286 -0.0434
 2736SOL    HW310990   1.597   3.602   4.456  0.3151  0.6591 -0.2494
 2736SOL    MW410991   1.611   3.686   4.437  0.7223  0.6213 -0.1025
 2737SOL     OW10992   1.759   4.002   4.607  0.0396 -0.1180 -0.1754
 2737SOL    HW210993   1.795   3.914   4.613 -0.7398 -0.4913 -0.8983
 2737SOL    HW310994   1.696   3.997   4.536  0.4215  1.1763 -0.6199
 2737SOL    MW410995   1.756   3.990   4.598 -0.0129  0.0038 -0.3295
 2738SOL     OW10996   2.027   1.502   3.844  0.3234 -0.0316 -0.2371
 2738SOL    HW210997   2.027   1.413   3.809  0.2393 -0.2289  0.2560
 2738SOL    HW310998   2.038   1.490   3.938  1.8790  0.5551 -0.3428
 2738SOL    MW410999   2.028   1.488   3.852  0.5176  0.0198 -0.1862
 2739SOL     OW11000   0.066   2.501   4.522 -0.0411 -0.2795  0.5161
 2739SOL    HW211001   0.152   2.521   4.561  0.6423  2.1795 -2.0626
 2739SOL    HW311002   0.011   2.574   4.547 -0.4144 -0.1613 -0.6147
 2739SOL    MW411003   0.070   2.513   4.530 -0.0002  0.0606  0.0267
 2740SOL     OW11004   0.586   2.225   4.727 -0.0841  0.0754 -0.6073
 2740SOL    HW211005   0.573   2.163   4.800  0.0919 -0.3207 -0.9095
 2740SOL    HW311006   0.681   2.236   4.722  0.0431 -1.4746 -2.0749
 2740SOL    MW411007   0.597   2.218   4.736 -0.0440 -0.1812 -0.8402
 2741SOL     OW11008   2.279   3.455   4.136 -0.1815  0.1545  0.1557
 2741SOL    HW211009   2.235   3.382   4.179  0.2567  0.3355  0.9210
 2741SOL    HW311010   2.279   3.525   4.201 -0.2547  0.7084 -0.4395
 2741SOL    MW411011   2.274   3.455   4.150 -0.1333  0.2513  0.1779
 2742SOL     OW11012   1.531   3.884   4.179  0.4547 -0.5636  0.1224
 2742SOL    HW211013   1.457   3.836   4.217  0.4891 -0.0101  0.9044
 2742SOL    HW311014   1.510   3.890   4.085 -1.0479  0.5385  0.5068
 2742SOL    MW411015   1.518   3.878   4.171  0.2611 -0.3452  0.2756
 2743SOL     OW11016   3.430   1.687   4.459 -0.0352  0.3234  0.0368
 2743SOL    HW211017   3.354   1.715   4.510 -0.6721  0.1108 -0.7812
 2743SOL    HW311018   3.427   1.591   4.462 -0.0638  0.3107 -0.3781
 2743SOL    MW411019   3.419   1.678   4.466 -0.1230  0.2936 -0.1259
 2744SOL     OW11020   1.945   3.435   4.326 -0.1411  0.1087  0.5565
 2744SOL    HW211021   2.006   3.365   4.305  0.4159  0.4445  1.0255
 2744SOL    HW311022   1.882   3.435   4.254  0.7823  0.1803 -0.2668
 2744SOL    MW411023   1.945   3.426   4.314  0.0541  0.1624  0.5097
 2745SOL     OW11024   2.028   4.446   4.531  0.2055  0.2256 -0.2695
 2745SOL    HW211025   1.966   4.504   4.576  0.4082 -0.0510  0.3773
 2745SOL    HW311026   1.987   4.360   4.535  1.0098 -0.1179  0.9096
 2745SOL    MW411027   2.014   4.442   4.538  0.3383  0.1440 -0.0286
 2746SOL     OW11028   0.706   2.622   4.639  0.0224  0.1517  0.5507
 2746SOL    HW211029   0.757   2.553   4.681  1.6623 -0.0778 -1.7616
 2746SOL    HW311030   0.748   2.703   4.668  0.5604  0.0223  0.1544
 2746SOL    MW411031   0.718   2.624   4.649  0.3098  0.1042  0.1931
 2747SOL     OW11032   3.954   2.431   4.179  0.0401 -0.2913 -0.2971
 2747SOL    HW211033   3.938   2.451   4.271  0.6693  0.1117 -0.2703
 2747SOL    HW311034   3.901   2.353   4.161  1.2725 -1.4237  0.8829
 2747SOL    MW411035   3.945   2.424   4.188  0.2856 -0.3874 -0.1373
 2748SOL     OW11036   2.971   2.630   4.503 -0.1141  0.0436  0.4419
 2748SOL    HW211037   3.007   2.542   4.508 -0.3043  0.0207  1.4576
 2748SOL    HW311038   3.034   2.685   4.549 -0.9242  0.1390  1.4691
 2748SOL    MW411039   2.984   2.626   4.510 -0.2460  0.0529  0.7114
 2749SOL     OW11040   2.764   1.730   4.552 -0.1898 -0.2237  0.6830
 2749SOL    HW211041   2.702   1.693   4.616 -0.3662  1.2551  1.3825
 2749SOL    HW311042   2.820   1.656   4.529 -0.3704 -0.8876  2.2602
 2749SOL    MW411043   2.763   1.715   4.558 -0.2367 -0.1162  0.9837
 2750SOL     OW11044   3.861   1.822   4.203  0.3818 -0.3849 -0.8596
 2750SOL    HW211045   3.801   1.884   4.162 -0.7060 -0.1143  1.0998
 2750SOL    HW311046   3.834   1.819   4.295  2.0242 -1.8612 -0.3966
 2750SOL    MW411047   3.849   1.830   4.210  0.4549 -0.5440 -0.5403
 2751SOL     OW11048   2.843   3.034   4.172  0.1067  0.4599 -0.1442
 2751SOL    HW211049   2.866   3.038   4.079 -1.4535  0.7491 -0.5293
 2751SOL    HW311050   2.880   2.951   4.202  0.5979  0.3514 -1.0253
 2751SOL    MW411051   2.851   3.024   4.164 -0.0341  0.4838 -0.3114
 2752SOL     OW11052   1.148   0.671   4.389 -0.0335 -0.2518 -0.3809
 2752SOL    HW211053   1.108   0.711   4.311  2.5352  2.7627 -0.2688
 2752SOL    HW311054   1.105   0.714   4.463 -1.3064 -1.9301 -0.1090
 2752SOL    MW411055   1.137   0.682   4.388  0.1373 -0.0755 -0.3300
 2753SOL     OW11056   0.715   0.014   4.124  0.2859 -0.4001 -0.0285
 2753SOL    HW211057   0.790  -0.005   4.181 -1.5734 -0.0585  2.6298
 2753SOL    HW311058   0.642  -0.034   4.163 -0.7462 -1.4363 -3.0548
 2753SOL    MW411059   0.715   0.005   4.137 -0.0957 -0.4917 -0.0772
 2754SOL     OW11060   1.523   1.542   4.115 -0.0615  0.2209 -0.4955
 2754SOL    HW211061   1.533   1.541   4.020 -3.1111 -1.5361 -0.8548
 2754SOL    HW311062   1.600   1.494   4.147  0.3466 -0.2580 -2.1231
 2754SOL    MW411063   1.535   1.536   4.107 -0.4100 -0.0741 -0.7577
 2755SOL     OW11064   3.582   2.705   4.165  0.0290  0.0238 -0.6950
 2755SOL    HW211065   3.516   2.759   4.210  0.1822 -0.2130 -0.1868
 2755SOL    HW311066   3.656   2.765   4.151  0.1540 -0.0169 -0.2342
 2755SOL    MW411067   3.583   2.720   4.169  0.0658 -0.0129 -0.5674
 2756SOL     OW11068   4.013   3.474   4.115  0.3775 -0.0061 -0.8018
 2756SOL    HW211069   4.009   3.393   4.166  0.7776 -0.5250 -1.5738
 2756SOL    HW311070   4.085   3.524   4.154 -0.2883  0.2601  0.0828
 2756SOL    MW411071   4.022   3.469   4.127  0.3419 -0.0396 -0.7873
 2757SOL     OW11072   3.405   0.850   4.113 -0.4245  0.2565 -0.4716
 2757SOL    HW211073   3.367   0.923   4.160 -1.6850 -0.6129 -0.1217
 2757SOL    HW311074   3.500   0.862   4.122 -0.6323  0.4527  1.7531
 2757SOL    MW411075   3.413   0.861   4.120 -0.6185  0.1677 -0.1321
 2758SOL     OW11076   4.448   2.257   4.208  0.0547 -0.3448  0.0097
 2758SOL    HW211077   4.465   2.163   4.202 -0.1175 -0.3110 -1.0298
 2758SOL    HW311078   4.461   2.278   4.301 -1.0828 -1.6267  0.4674
 2758SOL    MW411079   4.452   2.248   4.220 -0.1183 -0.5095 -0.0677
 2759SOL     OW11080   0.397   2.145   4.240  0.0575  0.2060 -0.8522
 2759SOL    HW211081   0.447   2.129   4.321  0.9163 -0.9160 -1.5952
 2759SOL    HW311082   0.425   2.076   4.180  0.1886  1.6266 -2.4689
 2759SOL    MW411083   0.407   2.134   4.243  0.1881  0.2453 -1.1635
 2760SOL     OW11084   3.285   1.028   4.612  0.3863  0.2724 -0.4333
 2760SOL    HW211085   3.222   0.989   4.673  0.1778  0.3118 -0.6225
 2760SOL    HW311086   3.359   0.967   4.611  0.2811  0.1435 -0.3374
 2760SOL    MW411087   3.287   1.015   4.620  0.3448  0.2607 -0.4458
 2761SOL     OW11088   1.741   3.711   4.195  0.7975  0.1297 -0.2017
 2761SOL    HW211089   1.818   3.750   4.154 -0.2468  1.7049 -0.6965
 2761SOL    HW311090   1.667   3.759   4.159 -0.3576 -0.5881  1.1421
 2761SOL    MW411091   1.742   3.723   4.185  0.5071  0.2427 -0.0896
 2762SOL     OW11092   2.278   0.360   3.819  0.3697  0.4055  0.5358
 2762SOL    HW211093   2.349   0.417   3.791  0.6693 -0.2593 -0.1081
 2762SOL    HW311094   2.198   0.407   3.795  0.6247 -0.0760 -1.3268
 2762SOL    MW411095   2.277   0.373   3.812  0.4430  0.2542  0.2053
 2763SOL     OW11096   0.252   0.249   4.510 -0.0187  0.4851  0.5013
 2763SOL    HW211097   0.182   0.208   4.560  0.3810 -0.9839 -0.1262
 2763SOL    HW311098   0.230   0.233   4.419 -0.1526  2.1746  0.2139
 2763SOL    MW411099   0.240   0.241   4.505  0.0163  0.5142  0.3810
 2764SOL     OW11100   1.016   3.072   4.500 -0.0033 -0.0659 -0.0201
 2764SOL    HW211101   0.987   2.982   4.484  0.8859 -0.4434  0.4633
 2764SOL    HW311102   0.937   3.125   4.487 -0.7563 -1.0057  0.5898
 2764SOL    MW411103   1.001   3.067   4.496  0.0147 -0.2396  0.1245
 2765SOL     OW11104   3.894   1.101   4.149  0.3121 -0.5167 -0.1591
 2765SOL    HW211105   3.846   1.018   4.143 -0.6759  0.0560 -0.3795
 2765SOL    HW311106   3.936   1.098   4.234  0.3122 -1.2616 -0.1763
 2765SOL    MW411107   3.893   1.089   4.159  0.1817 -0.5394 -0.1903
 2766SOL     OW11108   0.513   2.785   4.187  0.1081  0.2590 -0.0191
 2766SOL    HW211109   0.605   2.804   4.203  0.5876 -0.9754 -1.2116
 2766SOL    HW311110   0.511   2.749   4.099 -1.1092 -2.4131  1.0162
 2766SOL    MW411111   0.525   2.783   4.178  0.0107 -0.2565 -0.0401
 2767SOL     OW11112   0.826   3.812   4.143 -0.2999 -0.3312 -0.4766
 2767SOL    HW211113   0.773   3.829   4.065 -1.5937 -0.5059  0.3535
 2767SOL    HW311114   0.780   3.742   4.188  0.8229 -0.7016  0.0992
 2767SOL    MW411115   0.813   3.805   4.138 -0.3224 -0.4029 -0.2913
 2768SOL     OW11116   2.980   1.132   4.257 -0.3526  0.1282 -0.0713
 2768SOL    HW211117   3.044   1.193   4.219  0.6921 -1.0555 -0.2349
 2768SOL    HW311118   2.899   1.151   4.211  0.1790  0.7810 -0.7534
 2768SOL    MW411119   2.978   1.143   4.246 -0.1445  0.0582 -0.1831
 2769SOL     OW11120   1.963   0.434   4.375 -0.0780  0.2989 -0.3078
 2769SOL    HW211121   1.949   0.521   4.339 -1.7115  0.3650  0.4390
 2769SOL    HW311122   1.876   0.402   4.395  0.5996 -0.9437  0.7475
 2769SOL    MW411123   1.950   0.441   4.373 -0.2042  0.1437 -0.0701
 2770SOL     OW11124   3.137   1.652   4.561 -0.5866 -0.0800  0.2504
 2770SOL    HW211125   3.099   1.695   4.638 -1.5370  0.5688 -0.5587
 2770SOL    HW311126   3.163   1.566   4.591 -1.6177 -0.0919  1.1253
 2770SOL    MW411127   3.135   1.647   4.575 -0.8483  0.0039  0.2594
 2771SOL     OW11128   2.195   1.429   4.377 -0.4237  0.4462 -0.5564
 2771SOL    HW211129   2.288   1.408   4.369  0.1869  1.8008  2.2666
 2771SOL    HW311130   2.193   1.508   4.432 -3.3032 -0.6208  0.9785
 2771SOL    MW411131   2.207   1.436   4.384 -0.7231  0.4842  0.0186
 2772SOL     OW11132   0.873   2.828   4.843 -0.0859 -0.3167 -0.1882
 2772SOL    HW211133   0.952   2.803   4.794  0.2997  0.9113 -0.1870
 2772SOL    HW311134   0.906   2.856   4.928 -0.3776  1.7050 -0.7310
 2772SOL    MW411135   0.888   2.828   4.848 -0.0736  0.1121 -0.2594
 2773SOL     OW11136   0.454   1.180   4.156  0.5662  0.5179 -0.0046
 2773SOL    HW211137   0.372   1.142   4.188 -0.1025  1.3765 -0.6618
 2773SOL    HW311138   0.452   1.164   4.061  0.3561  2.0188 -0.2684
 2773SOL    MW411139   0.443   1.173   4.147  0.4502  0.8293 -0.1264
 2774SOL     OW11140   3.799   3.099   4.331  0.1932 -0.1588 -0.4183
 2774SOL    HW211141   3.716   3.145   4.343 -0.0357 -1.0570  1.7444
 2774SOL    HW311142   3.780   3.033   4.264 -1.0553 -0.8317  0.5783
 2774SOL    MW411143   3.786   3.096   4.324 -0.0017 -0.3662 -0.0014
 2775SOL     OW11144   3.306   2.102   4.260 -0.9414 -0.1797  0.8803
 2775SOL    HW211145   3.340   2.015   4.238  0.0909  0.3693  0.2307
 2775SOL    HW311146   3.373   2.140   4.316 -1.0531  0.4565  0.5864
 2775SOL    MW411147   3.319   2.095   4.264 -0.8199 -0.0231  0.7563
 2776SOL     OW11148   4.218   4.231   4.398 -0.1812  0.1942 -0.4585
 2776SOL    HW211149   4.192   4.160   4.456  0.3722 -0.9252 -1.5534
 2776SOL    HW311150   4.154   4.229   4.327  1.0742 -0.5785 -1.5750
 2776SOL    MW411151   4.206   4.222   4.396  0.0577 -0.0558 -0.7505
 2777SOL     OW11152   4.237   3.617   4.229  0.6046 -0.1323  0.0274
 2777SOL    HW211153   4.234   3.699   4.181  2.0504  0.2870  0.6046
 2777SOL    HW311154   4.230   3.642   4.321  1.3971 -0.6022  0.2292
 2777SOL    MW411155   4.236   3.631   4.235  0.9003 -0.1392  0.1297
 2778SOL     OW11156   0.018   2.694   3.885  0.0088 -1.0286 -0.0735
 2778SOL    HW211157   0.077   2.770   3.875 -2.5205  1.1216  0.7436
 2778SOL    HW311158  -0.020   2.706   3.972 -2.2345 -1.9482 -0.9143
 2778SOL    MW411159   0.021   2.706   3.895 -0.6208 -0.8664 -0.0765
 2779SOL     OW11160   0.234   1.762   4.191 -0.1570 -0.2012 -0.3330
 2779SOL    HW211161   0.183   1.841   4.173  1.4756  0.7979 -0.7631
 2779SOL    HW311162   0.264   1.773   4.281 -1.0389 -0.9864  0.0619
 2779SOL    MW411163   0.231   1.774   4.200 -0.0580 -0.1730 -0.3371
 2780SOL     OW11164   2.614   4.651   4.164  0.0286 -0.4625 -0.5753
 2780SOL    HW211165   2.554   4.647   4.090 -1.0105 -0.6206  0.2811
 2780SOL    HW311166   2.618   4.561   4.197 -0.0382 -0.2609 -0.0146
 2780SOL    MW411167   2.607   4.638   4.158 -0.1171 -0.4563 -0.3886
 2781SOL     OW11168   0.653   1.561   4.106 -0.0287  0.0523  0.0003
 2781SOL    HW211169   0.645   1.641   4.157  1.5572 -2.4612  4.5051
 2781SOL    HW311170   0.584   1.504   4.141  1.6937 -2.0754  0.0452
 2781SOL    MW411171   0.643   1.564   4.118  0.4079 -0.5599  0.6003
 2782SOL     OW11172   2.716   1.196   4.098  0.2665  0.5485 -0.2362
 2782SOL    HW211173   2.711   1.282   4.139 -1.3893  0.2769  0.1549
 2782SOL    HW311174   2.670   1.138   4.159 -0.0680 -0.3102 -1.2978
 2782SOL    MW411175   2.709   1.200   4.111  0.0043  0.3992 -0.3247
 2783SOL     OW11176   2.547   4.407   4.313 -0.0803  0.0367  0.4067
 2783SOL    HW211177   2.567   4.314   4.319 -1.4369 -0.2625  0.2687
 2783SOL    HW311178   2.540   4.436   4.404 -1.0519 -0.2961  0.4386
 2783SOL    MW411179   2.549   4.399   4.326 -0.3877 -0.0463  0.3929
 2784SOL     OW11180   2.465   3.848   4.154  0.0196 -0.0621  0.4503
 2784SOL    HW211181   2.551   3.823   4.188  1.4270  2.0803 -1.3620
 2784SOL    HW311182   2.473   3.837   4.059 -1.5653  0.5381  0.2292
 2784SOL    MW411183   2.478   3.843   4.146 -0.0041  0.2999  0.1822
 2785SOL     OW11184   2.965   0.467   4.738  0.4473  0.3493  0.2298
 2785SOL    HW211185   2.876   0.460   4.774  0.2320  0.5381 -0.2639
 2785SOL    HW311186   2.977   0.387   4.687  0.6094  0.2670  0.3947
 2785SOL    MW411187   2.955   0.456   4.736  0.4404  0.3633  0.1860
 2786SOL     OW11188   3.291   3.563   4.288  0.7272  0.0971 -0.2025
 2786SOL    HW211189   3.245   3.570   4.371  1.5812  4.1143  0.0660
 2786SOL    HW311190   3.381   3.540   4.312  0.6660 -0.0540 -0.1194
 2786SOL    MW411191   3.297   3.561   4.302  0.8321  0.6073 -0.1559
 2787SOL     OW11192   3.497   4.359   4.374  0.7290 -0.2928 -0.0477
 2787SOL    HW211193   3.441   4.329   4.445  1.0918 -0.4096  0.1859
 2787SOL    HW311194   3.567   4.407   4.417 -0.0650  1.2507 -0.4385
 2787SOL    MW411195   3.499   4.361   4.389  0.6723 -0.1044 -0.0682
 2788SOL     OW11196   4.367   2.656   4.129  0.2077  0.0805 -0.1475
 2788SOL    HW211197   4.446   2.616   4.165  0.4985  0.0767 -0.7768
 2788SOL    HW311198   4.319   2.584   4.090 -0.1736  0.0632  0.3485
 2788SOL    MW411199   4.371   2.642   4.129  0.1960  0.0777 -0.1655
 2789SOL     OW11200   0.654   3.597   3.794 -0.3707 -0.1034 -0.5513
 2789SOL    HW211201   0.729   3.540   3.814 -0.1313  0.1400 -0.7324
 2789SOL    HW311202   0.644   3.588   3.699  0.4894  1.1414 -0.7744
 2789SOL    MW411203   0.663   3.588   3.784 -0.2257  0.0930 -0.6046
 2790SOL     OW11204   1.402   0.893   4.609 -0.6866 -0.0920 -0.0980
 2790SOL    HW211205   1.404   0.860   4.519 -2.5719  0.5023 -0.3921
 2790SOL    HW311206   1.407   0.988   4.600  1.1772 -0.1185  0.5513
 2790SOL    MW411207   1.403   0.901   4.596 -0.6894 -0.0171 -0.0510
 2791SOL     OW11208   2.538   1.616   4.643 -0.1443 -0.4947 -0.1771
 2791SOL    HW211209   2.475   1.688   4.634  0.8429  0.4638  0.5539
 2791SOL    HW311210   2.514   1.574   4.726  0.2241 -0.0907  0.1324
 2791SOL    MW411211   2.526   1.620   4.653  0.0346 -0.3148 -0.0401
 2792SOL     OW11212   3.901   2.506   4.454 -0.1264 -0.2121 -0.6227
 2792SOL    HW211213   3.841   2.580   4.445  0.7873  0.2893 -2.6752
 2792SOL    HW311214   3.985   2.546   4.480  0.0563 -0.6507 -0.5301
 2792SOL    MW411215   3.904   2.521   4.456  0.0181 -0.2038 -0.8817
 2793SOL     OW11216   2.420   1.536   4.875 -0.0049 -0.8017  0.0899
 2793SOL    HW211217   2.423   1.452   4.921  0.4052 -1.7568 -1.6163
 2793SOL    HW311218   2.328   1.548   4.852 -0.0467 -0.8484  0.2333
 2793SOL    MW411219   2.408   1.526   4.878  0.0439 -0.9339 -0.1159
 2794SOL     OW11220   0.646   3.472   4.508  0.1882  0.2459 -0.0552
 2794SOL    HW211221   0.711   3.401   4.506  0.4608  0.5138 -1.0521
 2794SOL    HW311222   0.562   3.428   4.501  0.1966 -0.1810  2.2937
 2794SOL    MW411223   0.644   3.457   4.507  0.2252  0.2248  0.1240
 2795SOL     OW11224   1.347   0.455   4.756  0.2680  0.4328 -0.0910
 2795SOL    HW211225   1.331   0.438   4.849  0.5392  0.1966 -0.0890
 2795SOL    HW311226   1.322   0.547   4.744  0.3195  0.4886  0.2350
 2795SOL    MW411227   1.342   0.465   4.767  0.3105  0.4089 -0.0472
 2796SOL     OW11228   2.313   0.659   4.184 -0.4352  0.2185  0.0984
 2796SOL    HW211229   2.296   0.642   4.276 -0.4383  0.4774  0.1475
 2796SOL    HW311230   2.298   0.575   4.140 -0.9191  0.2190  0.2674
 2796SOL    MW411231   2.309   0.646   4.190 -0.4995  0.2528  0.1278
 2797SOL     OW11232   1.278   1.938   4.136  0.1279 -0.3662  0.5456
 2797SOL    HW211233   1.306   2.029   4.146 -1.4114  0.1826  0.0148
 2797SOL    HW311234   1.282   1.921   4.042 -0.1586 -0.6714  0.5882
 2797SOL    MW411235   1.282   1.948   4.125 -0.1130 -0.3341  0.4816
 2798SOL     OW11236   0.170   4.067   4.402  0.2720 -0.1271  0.6207
 2798SOL    HW211237   0.182   4.018   4.483 -0.9444  0.2526  1.0502
 2798SOL    HW311238   0.110   4.014   4.350 -1.4482  1.0881  1.2962
 2798SOL    MW411239   0.163   4.054   4.406 -0.1154  0.0830  0.7668
 2799SOL     OW11240   1.570   2.685   4.408  0.3700  0.5760 -0.1756
 2799SOL    HW211241   1.533   2.751   4.349  0.6757  0.1324 -0.8662
 2799SOL    HW311242   1.664   2.690   4.394  0.5166  1.1051  0.9572
 2799SOL    MW411243   1.577   2.694   4.399  0.4296  0.5872 -0.1178
 2800SOL     OW11244   4.056   0.065   4.610  0.2028  0.5237 -0.3693
 2800SOL    HW211245   4.021   0.154   4.617 -1.2815  0.2269 -3.5459
 2800SOL    HW311246   3.988   0.009   4.647  0.5926  0.5831  0.4482
 2800SOL    MW411247   4.043   0.069   4.616  0.0582  0.4924 -0.6804
 2801SOL     OW11248   4.044   2.086   4.342 -0.0646  0.0246 -0.2600
 2801SOL    HW211249   4.018   2.008   4.390  0.8467  0.1372  0.4464
 2801SOL    HW311250   4.080   2.053   4.260  1.6380 -0.4035  0.6356
 2801SOL    MW411251   4.045   2.072   4.337  0.2799 -0.0172 -0.0491
 2802SOL     OW11252   2.483   3.149   3.885  0.2416  0.5520  0.3200
 2802SOL    HW211253   2.513   3.143   3.976 -1.7201  0.4312  0.9703
 2802SOL    HW311254   2.477   3.059   3.855 -0.7323  0.5265  0.6030
 2802SOL    MW411255   2.486   3.136   3.893 -0.1454  0.5326  0.4432
 2803SOL     OW11256   1.274   4.422   4.587  0.0922 -0.2804  0.0233
 2803SOL    HW211257   1.188   4.452   4.613  0.2980  0.1154  0.2471
 2803SOL    HW311258   1.278   4.331   4.617 -0.7215 -0.6964 -1.1171
 2803SOL    MW411259   1.263   4.414   4.595  0.0120 -0.2832 -0.0973
 2804SOL     OW11260   3.567   0.106   3.753  0.2635  0.3145  0.1931
 2804SOL    HW211261   3.649   0.066   3.784  0.7509  1.0863 -0.1038
 2804SOL    HW311262   3.587   0.137   3.665 -0.2749  0.7267  0.2157
 2804SOL    MW411263   3.581   0.105   3.746  0.2570  0.4707  0.1569
 2805SOL     OW11264   3.356   3.805   4.147 -0.5546  0.3216  0.0810
 2805SOL    HW211265   3.265   3.835   4.148 -0.4051  0.7810 -0.5148
 2805SOL    HW311266   3.358   3.733   4.211 -1.3654  0.2268 -0.0008
 2805SOL    MW411267   3.344   3.799   4.156 -0.6421  0.3698 -0.0081
 2806SOL     OW11268   1.654   0.756   4.651 -0.1025 -0.3703  0.0666
 2806SOL    HW211269   1.566   0.792   4.640  0.0946  0.0967  0.0040
 2806SOL    HW311270   1.645   0.663   4.630 -0.5749 -0.3162  0.0290
 2806SOL    MW411271   1.641   0.748   4.647 -0.1388 -0.3015  0.0534
 2807SOL     OW11272   2.478   3.660   4.571  0.5600 -0.7065 -0.0111
 2807SOL    HW211273   2.403   3.682   4.626  0.4244 -1.0128 -0.0718
 2807SOL    HW311274   2.445   3.665   4.481  0.5550 -1.0525 -0.0290
 2807SOL    MW411275   2.464   3.664   4.566  0.5414 -0.7927 -0.0210
 2808SOL     OW11276   1.272   4.159   4.672 -0.1640  0.2094 -0.2101
 2808SOL    HW211277   1.317   4.074   4.674  0.1067  0.3049 -1.6034
 2808SOL    HW311278   1.195   4.144   4.617 -0.6214  0.6326  0.3125
 2808SOL    MW411279   1.268   4.146   4.665 -0.1886  0.2785 -0.3247
 2809SOL     OW11280   4.349   2.730   4.553 -0.2064  0.2782 -0.0381
 2809SOL    HW211281   4.295   2.715   4.630  0.8530  1.0420  0.8723
 2809SOL    HW311282   4.287   2.734   4.480 -1.2666  0.1309  0.8548
 2809SOL    MW411283   4.334   2.729   4.553 -0.2069  0.3595  0.1998
 2810SOL     OW11284   0.434   3.085   4.230 -0.5366  0.1922 -0.3287
 2810SOL    HW211285   0.458   3.004   4.184 -2.1889 -0.0184 -0.8490
 2810SOL    HW311286   0.454   3.068   4.322  0.3210 -0.3335 -0.6069
 2810SOL    MW411287   0.440   3.072   4.236 -0.6414  0.0949 -0.4344
 2811SOL     OW11288   2.284   4.529   4.547  0.3581 -0.3717 -0.3487
 2811SOL    HW211289   2.195   4.496   4.560  1.1214 -2.7866 -1.0279
 2811SOL    HW311290   2.272   4.622   4.527 -1.9236 -0.4067  0.6921
 2811SOL    MW411291   2.271   4.537   4.546  0.1576 -0.6952 -0.3009
 2812SOL     OW11292   2.555   0.495   4.503 -0.0425  0.0433 -0.0382
 2812SOL    HW211293   2.577   0.466   4.415 -0.1015  0.0518 -0.0555
 2812SOL    HW311294   2.592   0.583   4.509 -0.9074  0.4290 -0.3963
 2812SOL    MW411295   2.563   0.503   4.492 -0.1645  0.0952 -0.0873
 2813SOL     OW11296   0.045   4.521   4.270 -0.1091  0.2686  0.6034
 2813SOL    HW211297   0.010   4.434   4.249 -1.6507  0.9493  0.2548
 2813SOL    HW311298   0.059   4.520   4.364 -1.3452  0.0575  0.7930
 2813SOL    MW411299   0.042   4.510   4.279 -0.4756  0.3304  0.5822
 2814SOL     OW11300   0.538   4.286   4.126  0.1462  0.1164 -0.1561
 2814SOL    HW211301   0.502   4.272   4.038 -1.9772  1.5184  0.4632
 2814SOL    HW311302   0.514   4.207   4.174 -1.0820  0.5356 -0.0763
 2814SOL    MW411303   0.530   4.274   4.120 -0.2960  0.3572 -0.0634
 2815SOL     OW11304   1.127   2.809   4.698 -0.1319 -0.3468 -0.1558
 2815SOL    HW211305   1.196   2.745   4.681  0.2602  0.4151 -1.5542
 2815SOL    HW311306   1.166   2.894   4.675 -1.5342  0.0902 -1.0006
 2815SOL    MW411307   1.141   2.812   4.693 -0.2651 -0.1888 -0.4516
 2816SOL     OW11308   3.640   4.588   4.494 -0.0729 -0.0747 -0.2403
 2816SOL    HW211309   3.713   4.554   4.545  0.0480  1.4187  0.6058
 2816SOL    HW311310   3.667   4.677   4.470 -0.9667 -0.0563 -1.2365
 2816SOL    MW411311   3.653   4.595   4.497 -0.1750  0.1249 -0.2604
 2817SOL     OW11312   3.799   3.868   3.836  0.6204  0.5902  0.0233
 2817SOL    HW211313   3.816   3.872   3.931  1.9269 -2.5177 -0.0238
 2817SOL    HW311314   3.873   3.915   3.797  0.9939  0.4077  0.5002
 2817SOL    MW411315   3.811   3.875   3.844  0.8421  0.1559  0.0801
 2818SOL     OW11316   4.393   3.203   4.492  0.0822 -0.2619  0.4535
 2818SOL    HW211317   4.408   3.122   4.540 -0.0198  0.1322  1.1585
 2818SOL    HW311318   4.469   3.258   4.511 -0.4997  0.3339  1.0985
 2818SOL    MW411319   4.405   3.200   4.501 -0.0076 -0.1311  0.6318
 2819SOL     OW11320   1.634   2.337   4.124  0.1352  0.0492 -0.0626
 2819SOL    HW211321   1.653   2.430   4.120  0.0007  0.0809  0.0421
 2819SOL    HW311322   1.718   2.294   4.105 -0.2560  0.1914 -2.2473
 2819SOL    MW411323   1.647   2.344   4.121  0.0658  0.0720 -0.3376
 2820SOL     OW11324   0.705   0.179   4.495 -0.4315 -0.7999 -0.3290
 2820SOL    HW211325   0.728   0.244   4.429 -0.7603 -2.4182 -2.0754
 2820SOL    HW311326   0.643   0.223   4.552  0.6449  0.9541 -0.4708
 2820SOL    MW411327   0.700   0.193   4.494 -0.3329 -0.7820 -0.5779
 2821SOL     OW11328   0.010   2.975   4.605 -0.0939  0.6517 -0.0359
 2821SOL    HW211329   0.099   2.952   4.629 -0.7750 -1.9309  0.1381
 2821SOL    HW311330  -0.036   2.891   4.596 -1.7401  1.7762 -3.1265
 2821SOL    MW411331   0.015   2.961   4.607 -0.4010  0.4592 -0.4210
 2822SOL     OW11332   1.559   1.532   3.839  0.6125  0.5088 -0.1780
 2822SOL    HW211333   1.485   1.577   3.799 -0.2022  0.6601  1.4369
 2822SOL    HW311334   1.636   1.576   3.805 -0.0581  0.6528 -1.5296
 2822SOL    MW411335   1.559   1.543   3.829  0.4165  0.5476 -0.1433
 2823SOL     OW11336   1.873   1.219   4.165 -0.1855  0.4560 -0.4582
 2823SOL    HW211337   1.820   1.298   4.174 -0.7273 -0.0738  1.1589
 2823SOL    HW311338   1.847   1.182   4.080 -2.3889  0.2355  0.2832
 2823SOL    MW411339   1.863   1.224   4.155 -0.5476  0.3570 -0.1469
 2824SOL     OW11340   2.845   3.898   4.107  0.4071  0.0411  0.7278
 2824SOL    HW211341   2.814   3.831   4.168  0.9122 -1.3749 -0.5371
 2824SOL    HW311342   2.775   3.963   4.105 -2.0725 -2.5693 -1.3160
 2824SOL    MW411343   2.832   3.897   4.115  0.1466 -0.4904  0.2913
 2825SOL     OW11344   1.626   3.040   4.071 -0.4031  0.2632  0.3680
 2825SOL    HW211345   1.605   3.097   4.145 -2.2736 -0.4235  0.3759
 2825SOL    HW311346   1.695   2.982   4.105  1.0266  2.0235  0.5668
 2825SOL    MW411347   1.632   3.040   4.085 -0.4613  0.4048  0.3953
 2826SOL     OW11348   2.043   1.327   4.605 -0.1221 -0.1360 -0.3477
 2826SOL    HW211349   2.067   1.235   4.614  1.0472 -0.0629 -2.3813
 2826SOL    HW311350   2.069   1.350   4.515  3.9964  3.4389  1.5690
 2826SOL    MW411351   2.049   1.318   4.594  0.5758  0.3453 -0.3629
 2827SOL     OW11352   0.534   2.096   4.472 -0.1441 -0.8507 -0.1868
 2827SOL    HW211353   0.521   2.151   4.549  0.9759 -0.9866  0.1033
 2827SOL    HW311354   0.622   2.117   4.441  0.0370 -1.9771 -0.4719
 2827SOL    MW411355   0.544   2.106   4.478  0.0276 -1.0173 -0.1864
 2828SOL     OW11356   3.783   0.759   3.893  0.4838 -0.2862 -0.5579
 2828SOL    HW211357   3.727   0.811   3.836  0.9968  0.1423 -0.6696
 2828SOL    HW311358   3.866   0.806   3.896  0.0391  0.4021  1.6277
 2828SOL    MW411359   3.786   0.772   3.886  0.4928 -0.1388 -0.2842
 2829SOL     OW11360   2.293   0.420   4.084 -0.1167 -0.6819 -0.1451
 2829SOL    HW211361   2.283   0.406   3.990 -0.2925 -2.3242  0.1112
 2829SOL    HW311362   2.233   0.358   4.125 -1.2757  1.1703  1.0377
 2829SOL    MW411363   2.284   0.410   4.077 -0.2928 -0.6543  0.0443
 2830SOL     OW11364   1.004   0.770   4.618  0.3029  0.0208  0.6431
 2830SOL    HW211365   1.019   0.863   4.605 -0.2259  0.1375  0.8695
 2830SOL    HW311366   0.909   0.760   4.615  0.4070 -0.6974 -0.7088
 2830SOL    MW411367   0.994   0.781   4.616  0.2469 -0.0586  0.4945
 2831SOL     OW11368   0.209   1.498   4.117 -0.4880 -0.2230  0.0859
 2831SOL    HW211369   0.289   1.466   4.160  0.1532  0.3264 -0.6750
 2831SOL    HW311370   0.206   1.591   4.139 -1.3559 -0.4160  0.7808
 2831SOL    MW411371   0.219   1.506   4.126 -0.5179 -0.1760  0.0772
 2832SOL     OW11372   1.343   2.648   4.595  0.2167  0.2259  0.1649
 2832SOL    HW211373   1.415   2.670   4.536 -0.9333 -1.8326 -2.0866
 2832SOL    HW311374   1.362   2.558   4.622  0.6259  1.0595  2.8746
 2832SOL    MW411375   1.355   2.639   4.591  0.1190  0.0646  0.2251
 2833SOL     OW11376   0.466   2.734   3.919  0.5085  0.0578  0.1848
 2833SOL    HW211377   0.520   2.772   3.850  0.0542 -1.4760 -1.0447
 2833SOL    HW311378   0.447   2.645   3.889 -1.8407  0.2209  1.0636
 2833SOL    MW411379   0.471   2.727   3.906  0.1386 -0.1233  0.1385
 2834SOL     OW11380   0.001   2.237   4.482 -0.4380 -0.0021  0.0556
 2834SOL    HW211381   0.021   2.319   4.528 -0.0023 -1.7868  3.1967
 2834SOL    HW311382   0.085   2.192   4.474 -0.7002 -0.2532 -1.5120
 2834SOL    MW411383   0.015   2.242   4.487 -0.4153 -0.2704  0.2637
 2835SOL     OW11384   4.037   4.260   4.199  0.6029 -0.3922 -0.4107
 2835SOL    HW211385   4.018   4.167   4.207 -0.1835 -0.2178 -0.1289
 2835SOL    HW311386   3.959   4.303   4.235  1.4445  0.3691  0.5417
 2835SOL    MW411387   4.024   4.253   4.205  0.6104 -0.2689 -0.2480
 2836SOL     OW11388   1.824   0.858   4.436  0.3381 -0.4636 -0.2741
 2836SOL    HW211389   1.901   0.812   4.470  0.6294 -0.6489 -1.1736
 2836SOL    HW311390   1.755   0.839   4.500  1.2457  0.3969  0.9914
 2836SOL    MW411391   1.825   0.849   4.449  0.4964 -0.3747 -0.2260
 2837SOL     OW11392   3.763   2.238   4.115  0.1286 -0.3571 -0.0367
 2837SOL    HW211393   3.766   2.248   4.020 -2.5171 -0.1399 -0.1331
 2837SOL    HW311394   3.703   2.164   4.129 -1.9175  1.5511  1.5229
 2837SOL    MW411395   3.755   2.229   4.104 -0.4904 -0.0765  0.1559
 2838SOL     OW11396   2.905   1.371   3.706 -0.0786 -0.4233 -0.4953
 2838SOL    HW211397   2.846   1.300   3.733 -0.4207  0.6263  1.6044
 2838SOL    HW311398   2.887   1.442   3.768  1.2710  0.9859 -1.6969
 2838SOL    MW411399   2.895   1.371   3.718  0.0546 -0.0988 -0.3769
 2839SOL     OW11400   4.333   1.795   4.236 -0.0456  0.6854  0.4559
 2839SOL    HW211401   4.260   1.836   4.191 -0.1137 -0.8673 -0.9078
 2839SOL    HW311402   4.311   1.702   4.239  2.7399 -0.1366 -1.7766
 2839SOL    MW411403   4.321   1.788   4.231  0.3123  0.3722 -0.0186
 2840SOL     OW11404   2.151   4.195   4.180  0.4436 -0.3154  0.3124
 2840SOL    HW211405   2.186   4.258   4.244  0.3951  0.5616 -0.5143
 2840SOL    HW311406   2.181   4.228   4.095 -2.4562  0.5680 -0.4545
 2840SOL    MW411407   2.159   4.208   4.177  0.0548 -0.0830  0.1020
 2841SOL     OW11408   3.702   2.701   4.442 -0.1273  0.3620  0.0773
 2841SOL    HW211409   3.674   2.713   4.351 -0.1222 -0.1132  0.0133
 2841SOL    HW311410   3.768   2.770   4.456  0.4590 -0.0741 -0.5223
 2841SOL    MW411411   3.707   2.712   4.432 -0.0494  0.2418 -0.0105
 2842SOL     OW11412   3.113   3.387   4.154 -0.1020 -0.1428 -0.3926
 2842SOL    HW211413   3.173   3.457   4.182 -0.7772 -0.2738  1.4360
 2842SOL    HW311414   3.094   3.407   4.062  1.8089  0.5585 -0.6715
 2842SOL    MW411415   3.119   3.399   4.145  0.0608 -0.0679 -0.1884
 2843SOL     OW11416   3.996   0.597   4.328  0.6747  0.1548 -0.3397
 2843SOL    HW211417   4.015   0.520   4.274  2.0431  1.2509 -1.4792
 2843SOL    HW311418   4.025   0.572   4.416  0.0009 -1.0512 -0.4509
 2843SOL    MW411419   4.003   0.583   4.332  0.7663  0.1402 -0.5050
 2844SOL     OW11420   4.185   2.796   4.269  0.4446  0.3059  0.2449
 2844SOL    HW211421   4.258   2.746   4.232 -0.1931  0.0565 -0.6840
 2844SOL    HW311422   4.202   2.886   4.241 -1.0764 -0.1713 -2.3760
 2844SOL    MW411423   4.197   2.801   4.260  0.1602  0.2100 -0.2236
 2845SOL     OW11424   0.965   4.511   4.649  0.0324 -0.3595  0.5852
 2845SOL    HW211425   0.964   4.598   4.607 -1.8533 -0.3262  0.6817
 2845SOL    HW311426   0.960   4.449   4.576 -0.0021 -0.3646  0.5923
 2845SOL    MW411427   0.964   4.515   4.634 -0.2210 -0.3557  0.5989
 2846SOL     OW11428   1.026   0.771   4.153 -0.4724  0.1515  0.2009
 2846SOL    HW211429   1.066   0.757   4.067 -0.9152 -0.9103  0.1574
 2846SOL    HW311430   0.932   0.765   4.138 -0.5843  0.7166  0.6353
 2846SOL    MW411431   1.019   0.768   4.140 -0.5455  0.0859  0.2527
 2847SOL     OW11432   3.187   2.802   4.610  0.0471 -0.4433  0.0623
 2847SOL    HW211433   3.201   2.896   4.600 -1.3611 -0.4234 -1.8231
 2847SOL    HW311434   3.275   2.764   4.607  0.4745  0.6262 -1.1277
 2847SOL    MW411435   3.200   2.810   4.608 -0.0825 -0.2997 -0.3433
 2848SOL     OW11436   3.564   3.987   4.190  0.2729 -0.2112 -0.0290
 2848SOL    HW211437   3.489   3.932   4.171  0.8358 -1.0097  0.0429
 2848SOL    HW311438   3.540   4.074   4.158 -0.1480 -0.7708 -1.2174
 2848SOL    MW411439   3.551   3.991   4.183  0.2913 -0.3903 -0.1764
 2849SOL     OW11440   4.121   0.514   4.561 -0.2017  0.1312 -0.1348
 2849SOL    HW211441   4.144   0.586   4.620  0.7542 -0.9288  0.8125
 2849SOL    HW311442   4.201   0.462   4.554 -0.8823 -0.8475 -0.8047
 2849SOL    MW411443   4.135   0.517   4.568 -0.1655 -0.1377 -0.0982
 2850SOL     OW11444   2.508   1.399   4.462  0.1751 -0.1264 -0.1948
 2850SOL    HW211445   2.525   1.469   4.525 -0.3682 -1.2753  1.2501
 2850SOL    HW311446   2.570   1.414   4.391 -0.8078  2.5906 -0.5415
 2850SOL    MW411447   2.518   1.410   4.461 -0.0262  0.0805 -0.0501
 2851SOL     OW11448   3.781   4.194   4.520  0.4122 -0.0852  0.0225
 2851SOL    HW211449   3.698   4.150   4.502 -0.1227  1.0837 -0.4072
 2851SOL    HW311450   3.769   4.231   4.607  0.9888 -1.0474  0.5273
 2851SOL    MW411451   3.768   4.193   4.529  0.4177 -0.0582  0.0319
 2852SOL     OW11452   3.425   3.868   3.876 -0.1373 -0.2121 -0.1157
 2852SOL    HW211453   3.335   3.892   3.852  0.3319  1.6288 -0.1604
 2852SOL    HW311454   3.418   3.839   3.967 -0.5251  1.7193  0.5077
 2852SOL    MW411455   3.412   3.868   3.885 -0.1266  0.2856 -0.0393
 2853SOL     OW11456   4.117   1.917   4.125  0.2305 -0.8170  0.1546
 2853SOL    HW211457   4.041   1.872   4.163 -0.5405 -0.4809 -0.9796
 2853SOL    HW311458   4.090   1.940   4.037  1.0409  0.8578  0.3211
 2853SOL    MW411459   4.103   1.914   4.119  0.2360 -0.5517  0.0267
 2854SOL     OW11460   1.627   0.468   4.674  0.2165 -0.4989  0.1269
 2854SOL    HW211461   1.549   0.440   4.722  1.2219 -2.2185  0.8179
 2854SOL    HW311462   1.621   0.421   4.591  0.5338 -0.6837  0.2080
 2854SOL    MW411463   1.616   0.458   4.669  0.3910 -0.7502  0.2284
 2855SOL     OW11464   3.345   4.153   4.548 -0.2807 -0.1982 -0.2345
 2855SOL    HW211465   3.413   4.096   4.511  0.3770  0.7670 -0.5648
 2855SOL    HW311466   3.262   4.111   4.524  0.1930 -1.0120 -0.4620
 2855SOL    MW411467   3.343   4.140   4.540 -0.1314 -0.1783 -0.3085
 2856SOL     OW11468   0.126   3.658   4.514 -0.7237  0.1123 -0.1318
 2856SOL    HW211469   0.048   3.709   4.538 -1.8757 -1.3478 -0.7108
 2856SOL    HW311470   0.195   3.691   4.571 -1.4604  2.2826 -0.4506
 2856SOL    MW411471   0.124   3.669   4.524 -0.9729  0.2060 -0.2508
 2857SOL     OW11472   0.466   2.547   4.296 -0.0226 -0.1624  0.3963
 2857SOL    HW211473   0.441   2.499   4.217 -0.8632 -1.0020  1.1441
 2857SOL    HW311474   0.498   2.631   4.265  1.0254 -1.0358 -0.9251
 2857SOL    MW411475   0.467   2.552   4.281  0.0048 -0.3884  0.3204
 2858SOL     OW11476   0.801   4.360   4.830 -0.2991 -0.1180  0.4872
 2858SOL    HW211477   0.832   4.270   4.816 -0.1917  0.0798 -0.5780
 2858SOL    HW311478   0.867   4.415   4.789 -0.5543  0.4359  0.8155
 2858SOL    MW411479   0.814   4.355   4.822 -0.3186 -0.0191  0.3896
 2859SOL     OW11480   0.907   3.937   4.397 -0.4737  0.3474 -0.4357
 2859SOL    HW211481   0.938   3.854   4.433  1.2225  0.6090 -1.2484
 2859SOL    HW311482   0.864   3.913   4.315 -1.0817  0.1519 -0.0651
 2859SOL    MW411483   0.905   3.923   4.391 -0.3300  0.3562 -0.4935
 2860SOL     OW11484   1.779   3.481   3.879  0.0229 -0.2841 -0.0448
 2860SOL    HW211485   1.702   3.508   3.828 -0.4196  0.8212  1.1807
 2860SOL    HW311486   1.852   3.527   3.839 -0.1057 -0.4908 -0.5284
 2860SOL    MW411487   1.778   3.490   3.867 -0.0525 -0.1655  0.0529
 2861SOL     OW11488   0.457   3.081   4.512  0.0977  0.0267 -0.1819
 2861SOL    HW211489   0.523   3.041   4.568 -1.0117  0.9195  1.8187
 2861SOL    HW311490   0.381   3.023   4.519 -0.4294  0.7427  0.1529
 2861SOL    MW411491   0.456   3.068   4.520 -0.1182  0.2389  0.1264
 2862SOL     OW11492   0.352   3.383   4.170  0.1397 -0.6134 -0.2607
 2862SOL    HW211493   0.377   3.430   4.090  0.0891  0.3349  0.2654
 2862SOL    HW311494   0.368   3.291   4.151 -1.0789 -0.5229 -1.8186
 2862SOL    MW411495   0.357   3.377   4.157 -0.0277 -0.4764 -0.3967
 2863SOL     OW11496   0.104   3.384   4.515  0.0469 -0.2936 -0.3857
 2863SOL    HW211497   0.194   3.368   4.487  0.8844  2.9375  0.3489
 2863SOL    HW311498   0.097   3.479   4.522 -2.4525 -0.6111  2.6758
 2863SOL    MW411499   0.115   3.394   4.512 -0.1724  0.0906  0.1154
 2864SOL     OW11500   2.662   4.034   4.565  0.1460 -0.2352  0.1157
 2864SOL    HW211501   2.598   4.065   4.629 -0.3341 -0.3757 -0.2911
 2864SOL    HW311502   2.629   4.067   4.481 -0.6576 -2.2482 -0.4080
 2864SOL    MW411503   2.649   4.043   4.562 -0.0236 -0.5193 -0.0076
 2865SOL     OW11504   2.503   1.039   4.250 -0.3094 -0.3413 -0.2355
 2865SOL    HW211505   2.450   1.100   4.199  1.4243  0.9115 -0.5795
 2865SOL    HW311506   2.515   0.964   4.192 -1.4396 -0.5011 -0.2713
 2865SOL    MW411507   2.498   1.037   4.235 -0.2298 -0.1971 -0.2856
 2866SOL     OW11508   3.577   2.422   4.181 -0.2726 -0.3365 -0.1480
 2866SOL    HW211509   3.593   2.514   4.160  0.9503 -0.4211  0.3698
 2866SOL    HW311510   3.648   2.375   4.137  0.0838 -0.8723  0.9870
 2866SOL    MW411511   3.588   2.428   4.173 -0.0641 -0.4184  0.0701
 2867SOL     OW11512   2.109   0.225   4.231 -0.1789 -0.4834 -0.7339
 2867SOL    HW211513   2.046   0.279   4.280 -1.3558 -1.8665 -0.6967
 2867SOL    HW311514   2.158   0.178   4.299 -0.2823 -0.7046 -0.8112
 2867SOL    MW411515   2.107   0.226   4.247 -0.3479 -0.6951 -0.7391
 2868SOL     OW11516   0.664   4.631   3.842 -0.7049  0.0275 -0.1615
 2868SOL    HW211517   0.581   4.676   3.826 -0.9647 -0.0024  1.0553
 2868SOL    HW311518   0.664   4.615   3.936  1.1212  0.8738 -0.0109
 2868SOL    MW411519   0.653   4.635   3.852 -0.4982  0.1345  0.0191
 2869SOL     OW11520   2.797   0.481   4.120  0.2723  0.1118  0.1101
 2869SOL    HW211521   2.860   0.416   4.149 -0.2963 -0.2953  0.4454
 2869SOL    HW311522   2.767   0.449   4.035 -0.7909 -0.6255  0.7538
 2869SOL    MW411523   2.801   0.468   4.113  0.0572 -0.0392  0.2394
 2870SOL     OW11524   0.540   4.560   4.503  0.4462  0.1052  0.0652
 2870SOL    HW211525   0.586   4.642   4.519  0.2589  0.3574 -0.6584
 2870SOL    HW311526   0.526   4.559   4.408 -0.5074 -0.2486  0.2054
 2870SOL    MW411527   0.544   4.571   4.492  0.2956  0.0920 -0.0119
 2871SOL     OW11528   2.190   2.408   4.089 -0.2758  0.1761  0.4326
 2871SOL    HW211529   2.117   2.365   4.045 -0.0993  0.5230 -0.2094
 2871SOL    HW311530   2.150   2.478   4.141 -0.3409  0.9217 -0.5918
 2871SOL    MW411531   2.175   2.412   4.090 -0.2613  0.3202  0.2122
 2872SOL     OW11532   4.210   1.542   4.168 -0.0119  0.3756 -0.3183
 2872SOL    HW211533   4.286   1.485   4.172  0.3515  0.9655  1.3527
 2872SOL    HW311534   4.144   1.499   4.223  0.0864  1.2813  0.5285
 2872SOL    MW411535   4.211   1.529   4.176  0.0486  0.5729  0.0138
 2873SOL     OW11536   4.156   3.381   4.500  0.2011  0.4450 -0.2182
 2873SOL    HW211537   4.241   3.337   4.501  0.3093  0.6653  0.1265
 2873SOL    HW311538   4.107   3.335   4.431  0.3394 -0.1638  0.0823
 2873SOL    MW411539   4.161   3.369   4.491  0.2337  0.3941 -0.1335
 2874SOL     OW11540   4.187   1.702   4.597 -0.2323  0.4322  0.1122
 2874SOL    HW211541   4.251   1.764   4.631 -1.4102  0.4178  2.4187
 2874SOL    HW311542   4.109   1.756   4.580  0.3179  0.4459 -2.6306
 2874SOL    MW411543   4.185   1.717   4.599 -0.3152  0.4321  0.0548
 2875SOL     OW11544   0.636   2.343   3.850 -0.4790 -0.1271  0.3560
 2875SOL    HW211545   0.627   2.347   3.945 -0.4242  0.5125  0.3349
 2875SOL    HW311546   0.566   2.400   3.817  0.3573  0.7330  0.0528
 2875SOL    MW411547   0.625   2.351   3.858 -0.3615  0.0708  0.3130
 2876SOL     OW11548   2.361   0.778   4.685  0.1453  0.2354 -0.4949
 2876SOL    HW211549   2.443   0.827   4.699 -0.2651  0.7872  0.0604
 2876SOL    HW311550   2.379   0.691   4.720 -0.1868  0.9944  1.6273
 2876SOL    MW411551   2.374   0.773   4.692  0.0474  0.4083 -0.1411
 2877SOL     OW11552   3.819   3.897   4.108 -0.1615  0.0808  0.4312
 2877SOL    HW211553   3.818   3.805   4.134  1.4198  0.2774  1.2719
 2877SOL    HW311554   3.730   3.928   4.122 -0.5527 -1.1694  0.7169
 2877SOL    MW411555   3.807   3.889   4.113 -0.0043 -0.0582  0.5794
 2878SOL     OW11556   0.376   3.738   4.595 -0.0252  0.3832 -0.1514
 2878SOL    HW211557   0.401   3.741   4.502  0.1429  0.8729 -0.0918
 2878SOL    HW311558   0.444   3.684   4.636  0.0048  0.3219 -0.2777
 2878SOL    MW411559   0.388   3.731   4.588  0.0009  0.4399 -0.1602
 2879SOL     OW11560   2.709   4.265   3.841  0.4119  0.1060 -0.0557
 2879SOL    HW211561   2.626   4.306   3.865  0.0502 -0.2357 -0.7011
 2879SOL    HW311562   2.684   4.194   3.782  0.9953 -1.2622  1.3194
 2879SOL    MW411563   2.695   4.261   3.837  0.4408 -0.1197  0.0403
 2880SOL     OW11564   2.011   4.482   4.228  0.0861  0.1527 -0.0515
 2880SOL    HW211565   2.012   4.473   4.323  1.9753  0.9454  0.0355
 2880SOL    HW311566   2.103   4.471   4.203  0.0311  2.7010 -1.4999
 2880SOL    MW411567   2.024   4.479   4.237  0.3281  0.5941 -0.2308
 2881SOL     OW11568   4.490   4.274   4.475 -0.2053  0.0829 -0.7052
 2881SOL    HW211569   4.549   4.199   4.470 -0.1552  0.0575  0.1163
 2881SOL    HW311570   4.407   4.242   4.441  0.3377  0.2094 -2.1655
 2881SOL    MW411571   4.487   4.260   4.470 -0.1273  0.0963 -0.7896
 2882SOL     OW11572   1.731   3.441   4.156  0.2107  0.2512 -0.1920
 2882SOL    HW211573   1.716   3.533   4.178 -0.8278  0.3611 -1.3012
 2882SOL    HW311574   1.760   3.442   4.065  1.3520 -0.4411  0.1532
 2882SOL    MW411575   1.733   3.453   4.147  0.2241  0.1745 -0.2933
 2883SOL     OW11576   3.861   1.094   4.632  0.2686 -0.1577 -0.4472
 2883SOL    HW211577   3.818   1.161   4.579 -0.5831 -0.8205 -0.5904
 2883SOL    HW311578   3.863   1.131   4.720 -0.3103  0.0071 -0.5029
 2883SOL    MW411579   3.856   1.108   4.637  0.0799 -0.2235 -0.4735
 2884SOL     OW11580   0.872   1.207   4.110  0.3452  0.3663  0.3100
 2884SOL    HW211581   0.803   1.152   4.147 -1.7991  1.5543 -1.7789
 2884SOL    HW311582   0.954   1.164   4.135 -1.2222 -2.6872  0.3999
 2884SOL    MW411583   0.874   1.194   4.118 -0.1445  0.1200  0.0467
 2885NA      NA11584   1.514   2.864   0.736  0.4209  0.6315 -0.3810
   4.49070   4.66690  10.00000
