Gromacs Runs On Most of All Computer Systems in water
11583
    1DC     O5'    1   2.141   2.586   4.620  0.1319  0.0339  0.5110
    1DC     H5T    2   2.149   2.491   4.612 -1.2758 -0.2146  1.8105
    1DC     C5'    3   2.078   2.625   4.504  0.3185  0.0051 -0.4562
    1DC    H5'1    4   2.143   2.630   4.417  1.5961  2.0682  0.5975
    1DC    H5'2    5   2.038   2.725   4.519 -0.3301 -0.1135 -1.2802
    1DC     C4'    6   1.964   2.532   4.474  0.7355  0.6638  0.0475
    1DC     H4'    7   1.914   2.567   4.384  0.4044 -0.1189 -0.0795
    1DC     O4'    8   2.013   2.399   4.447  0.5579  0.3200  0.0017
    1DC     C1'    9   1.920   2.308   4.510 -0.0496  0.3478  0.7008
    1DC     H1'   10   1.839   2.284   4.442 -0.0617 -2.4767  1.6227
    1DC      N1   11   1.982   2.179   4.562  0.0514 -0.2807  0.4432
    1DC      C6   12   1.918   2.058   4.544 -0.0219 -0.0615  0.3025
    1DC      H6   13   1.825   2.050   4.490  0.7473  0.2405 -1.0869
    1DC      C5   14   1.971   1.943   4.591 -0.4140 -0.5223  0.3167
    1DC      H5   15   1.925   1.847   4.570 -1.7767  0.4172 -1.0456
    1DC      C4   16   2.088   1.951   4.671  0.6852  0.5141 -0.5021
    1DC      N4   17   2.132   1.837   4.717  0.0998 -0.1258  0.0190
    1DC     H41   18   2.073   1.755   4.719  0.2908 -0.2606  0.0504
    1DC     H42   19   2.219   1.845   4.768 -0.7014  0.1421  1.3716
    1DC      N3   20   2.150   2.062   4.689  0.6173  0.1329  0.4083
    1DC      C2   21   2.102   2.177   4.629 -0.6647  0.0333  0.3867
    1DC      O2   22   2.170   2.282   4.648 -0.2295  0.1582 -0.3789
    1DC     C3'   23   1.859   2.530   4.586  0.0861 -0.0907 -0.0214
    1DC     H3'   24   1.895   2.586   4.672  1.1237 -1.4585  0.4570
    1DC     C2'   25   1.868   2.381   4.631  0.0247  0.0919 -0.4076
    1DC    H2'1   26   1.942   2.374   4.710  0.0064 -0.0826 -0.4047
    1DC    H2'2   27   1.770   2.342   4.660  0.8639 -1.9051 -0.1381
    1DC     O3'   28   1.729   2.568   4.542  0.3659  0.9117  0.7245
    2DG       P   29   1.682   2.713   4.487 -0.1730 -0.0678  0.1524
    2DG     O1P   30   1.722   2.728   4.343 -0.0761  0.0445 -0.3421
    2DG     O2P   31   1.736   2.810   4.588 -0.3059  0.0437 -0.1694
    2DG     O5'   32   1.520   2.691   4.495 -0.2896 -0.0712  0.3199
    2DG     C5'   33   1.461   2.675   4.620 -0.3774 -0.4349  0.0086
    2DG    H5'1   34   1.465   2.767   4.679 -0.2540  0.2071 -0.9782
    2DG    H5'2   35   1.505   2.589   4.671 -0.6382 -1.5718 -1.6511
    2DG     C4'   36   1.315   2.654   4.600  0.2999  0.1217 -0.8930
    2DG     H4'   37   1.265   2.738   4.550 -0.3026  0.0974 -0.3338
    2DG     O4'   38   1.293   2.537   4.524 -0.0404 -0.4830  0.2136
    2DG     C1'   39   1.271   2.423   4.603  0.3325  0.2578 -0.4773
    2DG     H1'   40   1.171   2.382   4.590  0.2976  0.4961 -0.9747
    2DG      N9   41   1.374   2.320   4.565 -0.0873  0.2262  0.1206
    2DG      C8   42   1.495   2.342   4.511  0.3376  0.3780 -0.1674
    2DG      H8   43   1.530   2.438   4.478 -2.5267  1.5400  0.0419
    2DG      N7   44   1.570   2.234   4.494 -0.1989 -0.8661 -0.3796
    2DG      C5   45   1.484   2.131   4.541 -0.7743 -0.1989 -0.5804
    2DG      C6   46   1.497   1.987   4.549  0.1997  0.1016 -0.3348
    2DG      O6   47   1.588   1.918   4.512 -0.2870 -0.1927 -0.1333
    2DG      N1   48   1.385   1.919   4.602  0.5237  0.2542 -0.2593
    2DG      H1   49   1.395   1.819   4.613  1.4369  0.5418  1.8709
    2DG      C2   50   1.272   1.981   4.643 -0.1209 -0.4686 -0.0004
    2DG      N2   51   1.181   1.905   4.702 -0.0791  0.1685  0.4736
    2DG     H21   52   1.193   1.805   4.706  1.1976  0.2649 -0.7122
    2DG     H22   53   1.093   1.948   4.726 -0.0450  0.7640 -0.4292
    2DG      N3   54   1.253   2.112   4.627 -0.0928 -0.0516 -0.2300
    2DG      C4   55   1.361   2.184   4.580  0.1351 -0.7866  0.0247
    2DG     C3'   56   1.253   2.616   4.737 -0.1271  0.3541 -0.3840
    2DG     H3'   57   1.305   2.675   4.812 -2.7952  1.7369  0.4402
    2DG     C2'   58   1.280   2.470   4.751 -0.5524  0.0251  0.3843
    2DG    H2'1   59   1.379   2.454   4.794  0.4353  0.0895 -1.7983
    2DG    H2'2   60   1.211   2.412   4.812  0.3557 -2.2499 -0.6961
    2DG     O3'   61   1.118   2.657   4.744  0.0355 -0.1457 -0.4051
    2DG     H3T   62   1.117   2.749   4.772 -0.5862 -0.6289  1.2347
    5SOL     OW   63   3.464   3.094   0.865 -0.2293  0.0449  0.1439
    5SOL    HW2   64   3.447   3.083   0.959  1.2618 -0.3921  0.3743
    5SOL    HW3   65   3.466   3.004   0.831  0.2538  0.1527 -0.1174
    5SOL    MW4   66   3.462   3.080   0.873  0.0310  0.0014  0.1398
    6SOL     OW   67   1.284   3.644   0.535  0.4066  0.3078 -0.0507
    6SOL    HW2   68   1.356   3.629   0.597  1.2683  1.4654 -0.7589
    6SOL    HW3   69   1.297   3.577   0.467 -1.2069 -1.7145  1.5691
    6SOL    MW4   70   1.296   3.633   0.534  0.3076  0.1934  0.0696
    7SOL     OW   71   0.172   0.173   0.286  0.3143 -0.6116  0.2143
    7SOL    HW2   72   0.178   0.210   0.374 -0.5476 -0.0394  0.0389
    7SOL    HW3   73   0.111   0.230   0.240 -1.2063 -2.3583  0.0014
    7SOL    MW4   74   0.165   0.185   0.292 -0.0000 -0.7666  0.1630
    8SOL     OW   75   1.447   0.753   0.398  0.3141  0.2259 -0.5795
    8SOL    HW2   76   1.464   0.668   0.357  1.1119  0.8846 -1.6557
    8SOL    HW3   77   1.532   0.797   0.397  0.3420  0.2714  1.7952
    8SOL    MW4   78   1.461   0.747   0.392  0.4230  0.3188 -0.4082
    9SOL     OW   79   2.483   1.346   0.523  0.2487  0.0668 -0.0241
    9SOL    HW2   80   2.481   1.324   0.616  3.4845 -2.6623 -0.4695
    9SOL    HW3   81   2.546   1.417   0.517  0.9499 -0.5690 -0.2477
    9SOL    MW4   82   2.491   1.352   0.535  0.7679 -0.3773 -0.1124
   10SOL     OW   83   3.800   0.016   0.855  0.1145  0.0382  0.1889
   10SOL    HW2   84   3.817  -0.067   0.810  0.6037  0.5526 -0.5973
   10SOL    HW3   85   3.718   0.047   0.817  0.6189  0.5586 -0.4668
   10SOL    MW4   86   3.792   0.009   0.844  0.2453  0.1747 -0.0013
   11SOL     OW   87   2.907   0.739   0.841  0.0657  0.3553  0.4165
   11SOL    HW2   88   2.896   0.661   0.787  1.1653  0.6912 -0.3028
   11SOL    HW3   89   2.844   0.802   0.805 -1.7481 -0.6090  1.8175
   11SOL    MW4   90   2.897   0.737   0.829 -0.0284  0.2725  0.5064
   12SOL     OW   91   1.162   4.383   0.688  0.0866  0.0367  0.4280
   12SOL    HW2   92   1.235   4.345   0.738  0.3345 -0.1367 -0.0703
   12SOL    HW3   93   1.084   4.356   0.736  0.3449  0.2342  0.9757
   12SOL    MW4   94   1.161   4.375   0.701  0.1532  0.0396  0.4345
   13SOL     OW   95   4.309   3.616   0.770  0.6149  0.1197 -0.2762
   13SOL    HW2   96   4.398   3.589   0.791  0.0746 -1.2662  0.2683
   13SOL    HW3   97   4.297   3.699   0.817  0.8674 -0.7929  1.4289
   13SOL    MW4   98   4.319   3.624   0.779  0.5765 -0.1836  0.0206
   14SOL     OW   99   3.661   0.881   0.511  0.5249 -0.4864  0.1460
   14SOL    HW2  100   3.585   0.837   0.472  0.6578 -0.0588 -0.5902
   14SOL    HW3  101   3.647   0.973   0.493  1.1668 -0.3953  0.1092
   14SOL    MW4  102   3.649   0.887   0.504  0.6270 -0.4179  0.0440
   15SOL     OW  103   4.082   3.507   0.390  0.1219 -0.4897  0.4092
   15SOL    HW2  104   4.168   3.545   0.408  0.8205 -1.8668  0.0211
   15SOL    HW3  105   4.088   3.417   0.422 -0.9557 -0.7930 -0.2249
   15SOL    MW4  106   4.094   3.500   0.397  0.0715 -0.7114  0.2743
   16SOL     OW  107   2.497   0.264   0.356 -0.0146 -0.2286 -0.0199
   16SOL    HW2  108   2.486   0.292   0.265  0.9017 -0.7810 -0.3095
   16SOL    HW3  109   2.516   0.344   0.404 -0.0719  0.0082 -0.3924
   16SOL    MW4  110   2.498   0.278   0.350  0.0989 -0.2703 -0.1073
   17SOL     OW  111   4.479   0.404   1.149  0.2444  0.2897  0.0469
   17SOL    HW2  112   4.506   0.412   1.058  1.1426 -0.3504  0.2480
   17SOL    HW3  113   4.494   0.311   1.170 -1.8446 -0.0176  0.2557
   17SOL    MW4  114   4.485   0.392   1.140  0.0868  0.1647  0.1011
   18SOL     OW  115   4.343   4.423   0.431 -0.1837 -0.1397 -0.0656
   18SOL    HW2  116   4.261   4.471   0.419 -0.0782  0.2820  0.8461
   18SOL    HW3  117   4.411   4.485   0.407 -0.0843 -0.1548  0.1808
   18SOL    MW4  118   4.341   4.437   0.426 -0.1564 -0.0863  0.0872
   19SOL     OW  119   0.450   0.817   0.628  0.0686 -0.3940  0.6259
   19SOL    HW2  120   0.500   0.879   0.576 -0.2793  0.8776  1.7918
   19SOL    HW3  121   0.497   0.811   0.711 -1.0437 -0.0786  1.2971
   19SOL    MW4  122   0.463   0.824   0.632 -0.1240 -0.1846  0.8683
   20SOL     OW  123   2.479   2.048   0.725 -0.1900 -0.4204  0.5164
   20SOL    HW2  124   2.555   2.007   0.767  0.8124  0.9130  0.0634
   20SOL    HW3  125   2.488   2.141   0.746 -0.3283  0.0929 -1.5889
   20SOL    MW4  126   2.490   2.055   0.733 -0.0761 -0.1764  0.1789
   21SOL     OW  127   2.847   1.958   0.481  0.0845  0.6239 -0.5131
   21SOL    HW2  128   2.838   1.864   0.497  0.9400  0.6541  0.1652
   21SOL    HW3  129   2.757   1.991   0.481 -0.2656 -0.3075 -1.4527
   21SOL    MW4  130   2.834   1.950   0.483  0.1512  0.5050 -0.5476
   22SOL     OW  131   3.813   4.199   0.487  0.1444  0.1108 -0.4664
   22SOL    HW2  132   3.879   4.130   0.481 -0.3845 -0.5107  0.7030
   22SOL    HW3  133   3.729   4.153   0.486 -0.2163  0.7208  0.3229
   22SOL    MW4  134   3.810   4.184   0.486  0.0272  0.1097 -0.2080
   23SOL     OW  135   0.212   2.405   0.878 -0.6307 -0.4542 -0.1985
   23SOL    HW2  136   0.291   2.368   0.838 -1.0179  0.4818 -1.9204
   23SOL    HW3  137   0.211   2.370   0.967  1.2998 -1.1054 -0.4013
   23SOL    MW4  138   0.222   2.396   0.884 -0.4271 -0.4165 -0.4525
   24SOL     OW  139   3.787   2.909   0.672  0.2554 -0.2633  0.2038
   24SOL    HW2  140   3.790   2.972   0.745 -0.6119 -0.7587  0.6721
   24SOL    HW3  141   3.750   2.830   0.710 -0.2634 -0.5098 -0.8039
   24SOL    MW4  142   3.783   2.907   0.687  0.0725 -0.3610  0.1327
   25SOL     OW  143   0.627   0.813   0.869 -0.1871  0.2080  0.0401
   25SOL    HW2  144   0.658   0.723   0.862 -0.1948  0.0804  1.4339
   25SOL    HW3  145   0.704   0.866   0.847 -0.0505 -0.1325 -0.3166
   25SOL    MW4  146   0.641   0.808   0.865 -0.1701  0.1462  0.1770
   26SOL     OW  147   2.275   1.680   0.811  0.5737 -0.4909  0.0593
   26SOL    HW2  148   2.295   1.675   0.718  0.0923  0.1650 -0.0778
   26SOL    HW3  149   2.186   1.647   0.819  0.6786 -0.7172  0.3143
   26SOL    MW4  150   2.266   1.675   0.800  0.5238 -0.4340  0.0749
   27SOL     OW  151   1.850   2.707   0.855  0.0830  0.2881  0.2796
   27SOL    HW2  152   1.851   2.711   0.950  0.4745 -1.3555  0.3559
   27SOL    HW3  153   1.836   2.614   0.835  1.7468  0.3475 -1.2611
   27SOL    MW4  154   1.848   2.695   0.865  0.3543  0.0792  0.0864
   28SOL     OW  155   3.206   1.095   0.839  0.5086  0.1424  0.0875
   28SOL    HW2  156   3.264   1.160   0.800  0.0186 -0.1679 -1.2120
   28SOL    HW3  157   3.221   1.101   0.933  1.3657  1.2686 -0.1183
   28SOL    MW4  158   3.215   1.105   0.846  0.5572  0.2500 -0.1111
   29SOL     OW  159   3.396   4.375   0.771  0.2732 -0.0136  0.0148
   29SOL    HW2  160   3.410   4.467   0.792  3.8375 -0.4017 -0.2947
   29SOL    HW3  161   3.381   4.374   0.676 -0.2463  0.2999  0.0956
   29SOL    MW4  162   3.396   4.387   0.761  0.6750 -0.0234 -0.0153
   30SOL     OW  163   0.799   4.363   0.179  0.3006  0.0834  0.3661
   30SOL    HW2  164   0.722   4.418   0.187 -0.4540 -0.9611  0.4199
   30SOL    HW3  165   0.872   4.418   0.207 -0.4740  0.9669  0.6379
   30SOL    MW4  166   0.799   4.377   0.183  0.0988  0.0629  0.4090
   31SOL     OW  167   3.883   2.404   0.310 -0.5918  0.2849 -0.0646
   31SOL    HW2  168   3.935   2.388   0.231 -1.0315 -0.6671 -0.1667
   31SOL    HW3  169   3.892   2.324   0.361 -0.3879  0.8585  0.8186
   31SOL    MW4  170   3.891   2.391   0.306 -0.6227  0.2351  0.0384
   32SOL     OW  171   4.071   4.277   0.847  0.2778 -0.3757 -0.3812
   32SOL    HW2  172   4.145   4.329   0.816  0.0492  0.0216 -0.2538
   32SOL    HW3  173   3.994   4.332   0.833  0.1636 -0.1998  0.8434
   32SOL    MW4  174   4.071   4.291   0.841  0.2322 -0.2999 -0.2028
   33SOL     OW  175   1.789   0.170   0.704 -0.1486  0.1053  0.0018
   33SOL    HW2  176   1.721   0.119   0.748 -0.7120  1.2685  0.4995
   33SOL    HW3  177   1.870   0.122   0.722 -0.5433 -0.1170  1.2469
   33SOL    MW4  178   1.791   0.157   0.712 -0.2751  0.2295  0.2318
   34SOL     OW  179   3.701   2.099   0.244  0.2048  0.6132  0.3313
   34SOL    HW2  180   3.649   2.030   0.286  1.0441  0.1799  0.6750
   34SOL    HW3  181   3.784   2.099   0.292  0.7045  0.9696 -0.5240
   34SOL    MW4  182   3.705   2.090   0.256  0.3817  0.6030  0.2638
   35SOL     OW  183   1.863   3.186   0.739 -0.2863  0.2785 -0.0632
   35SOL    HW2  184   1.786   3.147   0.781  0.2653  0.0960  0.8032
   35SOL    HW3  185   1.937   3.142   0.781  0.2781 -0.2528 -1.5832
   35SOL    MW4  186   1.862   3.175   0.750 -0.1391  0.1841 -0.1493
   36SOL     OW  187   4.088   4.550   0.455  0.0985 -0.0786 -0.0463
   36SOL    HW2  188   4.101   4.587   0.542 -1.0952 -0.9943  0.5432
   36SOL    HW3  189   3.996   4.521   0.454  0.6452 -1.8799 -0.8960
   36SOL    MW4  190   4.077   4.551   0.466  0.0134 -0.4373 -0.0806
   37SOL     OW  191   1.490   1.472   0.448  0.1409 -0.2472  0.1838
   37SOL    HW2  192   1.461   1.559   0.475 -0.1648 -0.6828  1.3103
   37SOL    HW3  193   1.533   1.436   0.526 -0.4527 -1.4173 -0.0226
   37SOL    MW4  194   1.492   1.479   0.462  0.0223 -0.4591  0.3052
   38SOL     OW  195   1.853   4.243   0.811 -0.5466  0.3340  0.1926
   38SOL    HW2  196   1.856   4.253   0.906  1.3678 -0.3965  0.2201
   38SOL    HW3  197   1.930   4.289   0.779 -1.7784  1.5265 -1.1082
   38SOL    MW4  198   1.863   4.250   0.819 -0.4566  0.3953  0.0246
   39SOL     OW  199   0.667   4.400   0.750  0.7074  0.5701 -1.1054
   39SOL    HW2  200   0.681   4.404   0.655 -1.3669  0.6054 -1.4541
   39SOL    HW3  201   0.591   4.341   0.759 -0.1635  1.8926  0.4060
   39SOL    MW4  202   0.659   4.393   0.739  0.3189  0.7491 -0.9520
   40SOL     OW  203   1.643   2.335   0.853  0.1247 -0.0442 -0.0187
   40SOL    HW2  204   1.563   2.376   0.819  0.1117  0.3989  0.5390
   40SOL    HW3  205   1.711   2.362   0.791 -0.2020 -0.6562 -0.6524
   40SOL    MW4  206   1.642   2.344   0.840  0.0800 -0.0668 -0.0287
   41SOL     OW  207   2.936   2.289   0.831 -0.1373 -0.1713  0.5022
   41SOL    HW2  208   2.911   2.293   0.924 -1.8464 -1.8747  0.1557
   41SOL    HW3  209   2.920   2.197   0.807  0.9671  0.1032 -1.2878
   41SOL    MW4  210   2.930   2.277   0.840 -0.2172 -0.3600  0.2203
   42SOL     OW  211   0.219   0.001   1.119  0.1413  0.0378  0.1886
   42SOL    HW2  212   0.298   0.050   1.142 -0.0364  0.5380 -0.2716
   42SOL    HW3  213   0.212   0.009   1.024  1.1197 -2.4080 -0.1232
   42SOL    MW4  214   0.228   0.009   1.110  0.2469 -0.2189  0.0867
   43SOL     OW  215   0.655   3.827   0.862 -0.4692 -0.4699 -0.0906
   43SOL    HW2  216   0.607   3.746   0.846 -0.3922 -0.4754 -0.2898
   43SOL    HW3  217   0.595   3.896   0.833  0.6242 -0.5797 -2.7222
   43SOL    MW4  218   0.640   3.826   0.856 -0.3148 -0.4849 -0.4641
   44SOL     OW  219   1.192   2.800   0.670  0.2655 -0.2651  0.1040
   44SOL    HW2  220   1.210   2.765   0.582  0.5937 -1.7294  0.7423
   44SOL    HW3  221   1.116   2.752   0.700  0.1436  0.2451  0.6300
   44SOL    MW4  222   1.184   2.789   0.662  0.2928 -0.3912  0.2576
   45SOL     OW  223   2.191   3.421   0.515  0.2139  0.0550  0.2307
   45SOL    HW2  224   2.114   3.389   0.467  1.3504 -0.4349 -1.2735
   45SOL    HW3  225   2.194   3.514   0.494 -1.6424  0.7131  2.6288
   45SOL    MW4  226   2.181   3.429   0.506  0.1190  0.0770  0.3486
   46SOL     OW  227   2.950   3.835   0.872 -0.2188 -0.4062 -0.0206
   46SOL    HW2  228   2.873   3.873   0.831 -0.9781 -2.6797 -0.7829
   46SOL    HW3  229   2.926   3.827   0.965  0.0877  1.2676  0.2138
   46SOL    MW4  230   2.937   3.839   0.879 -0.2785 -0.4854 -0.0903
   47SOL     OW  231   1.790   0.634   0.331  0.2918  0.1937  0.2452
   47SOL    HW2  232   1.797   0.630   0.235 -0.2095  0.3935  0.2015
   47SOL    HW3  233   1.736   0.558   0.354  0.9701 -0.2445  0.4304
   47SOL    MW4  234   1.784   0.623   0.321  0.3151  0.1622  0.2638
   48SOL     OW  235   3.377   4.599   0.354  0.3695 -0.0040  0.3360
   48SOL    HW2  236   3.468   4.625   0.343  0.4313  0.6839  2.2267
   48SOL    HW3  237   3.327   4.679   0.336  0.2549  0.0772  0.9922
   48SOL    MW4  238   3.382   4.613   0.350  0.3626  0.0973  0.6721
   49SOL     OW  239   3.933   2.594   0.853 -0.3335 -0.1451 -0.1125
   49SOL    HW2  240   3.986   2.635   0.785 -0.2669  0.7050  0.4381
   49SOL    HW3  241   3.846   2.634   0.843 -0.2457  0.2050  0.4868
   49SOL    MW4  242   3.928   2.605   0.842 -0.3133  0.0134  0.0393
   50SOL     OW  243   2.493   4.654   0.806  0.0217 -0.1568  0.2613
   50SOL    HW2  244   2.492   4.648   0.902 -2.0556  0.0819  0.2750
   50SOL    HW3  245   2.485   4.563   0.776  0.6712 -0.2315  0.3130
   50SOL    MW4  246   2.492   4.641   0.815 -0.1669 -0.1354  0.2699
   51SOL     OW  247   0.606   0.924   0.401  0.0732 -0.0016 -0.4135
   51SOL    HW2  248   0.575   0.845   0.358 -2.1159  0.1386  0.8291
   51SOL    HW3  249   0.698   0.906   0.423 -0.0853 -1.7396 -1.1451
   51SOL    MW4  250   0.614   0.911   0.398 -0.2365 -0.2124 -0.3461
   52SOL     OW  251   3.389   2.498   0.417  0.2988 -0.2469  0.4825
   52SOL    HW2  252   3.451   2.445   0.367 -0.0568  1.6750 -2.1018
   52SOL    HW3  253   3.312   2.442   0.426 -0.0051 -0.2971 -2.0506
   52SOL    MW4  254   3.387   2.484   0.412  0.2120  0.0000 -0.1927
   53SOL     OW  255   1.616   4.621   0.804 -0.2872 -0.4915  0.1874
   53SOL    HW2  256   1.616   4.533   0.767 -0.4248 -0.4443  0.0700
   53SOL    HW3  257   1.599   4.609   0.897  1.0217 -0.6782  0.4093
   53SOL    MW4  258   1.613   4.608   0.811 -0.1327 -0.5102  0.2012
   54SOL     OW  259   3.426   0.764   0.363 -0.1999 -0.0753  0.1353
   54SOL    HW2  260   3.445   0.842   0.311  2.7556  0.1116  1.4192
   54SOL    HW3  261   3.355   0.791   0.421  0.6411  1.6199  0.4096
   54SOL    MW4  262   3.419   0.778   0.363  0.3009  0.1732  0.3408
   55SOL     OW  263   2.291   1.348   0.189  0.0910 -0.0374 -0.1226
   55SOL    HW2  264   2.208   1.364   0.145  0.3485 -0.6917 -0.8689
   55SOL    HW3  265   2.268   1.299   0.268 -0.4155  1.5206  0.7044
   55SOL    MW4  266   2.277   1.343   0.193  0.0584  0.0818 -0.1119
   56SOL     OW  267   3.131   2.387   0.446  0.2698 -0.1270 -0.0928
   56SOL    HW2  268   3.120   2.293   0.433 -0.6812 -0.1638  0.9486
   56SOL    HW3  269   3.046   2.425   0.426 -0.0948  0.2317  1.9478
   56SOL    MW4  270   3.118   2.380   0.442  0.0966 -0.0842  0.3138
   57SOL     OW  271   0.243   0.031   0.853 -0.1426 -0.3120  0.5588
   57SOL    HW2  272   0.171   0.083   0.817 -0.5774 -0.4440  1.2244
   57SOL    HW3  273   0.322   0.082   0.836 -0.2925 -0.5622 -0.9600
   57SOL    MW4  274   0.244   0.044   0.846 -0.2197 -0.3624  0.4462
   58SOL     OW  275   2.270   3.438   0.882  0.1443  0.2081 -0.1103
   58SOL    HW2  276   2.269   3.361   0.825  1.5047  0.4285 -0.4568
   58SOL    HW3  277   2.206   3.498   0.842 -0.3658 -0.4396 -0.2674
   58SOL    MW4  278   2.261   3.436   0.869  0.2568  0.1516 -0.1768
   59SOL     OW  279   1.125   0.473   0.793  0.0346 -0.6876  0.3073
   59SOL    HW2  280   1.217   0.446   0.795  0.2616 -0.1664 -1.9718
   59SOL    HW3  281   1.106   0.489   0.700 -2.3643 -0.7918  0.7354
   59SOL    MW4  282   1.135   0.472   0.781 -0.2520 -0.6326  0.0632
   60SOL     OW  283   0.987   4.052   0.674 -0.4145 -0.2410 -0.1091
   60SOL    HW2  284   0.920   3.993   0.639 -2.4097  2.3891 -0.8161
   60SOL    HW3  285   1.041   4.074   0.599 -0.3610 -0.2288 -0.0671
   60SOL    MW4  286   0.985   4.047   0.660 -0.6707  0.1078 -0.1968
   61SOL     OW  287   3.867   1.347   0.510 -0.0598 -0.3549 -0.1122
   61SOL    HW2  288   3.885   1.362   0.603  1.4137 -0.3577 -0.3853
   61SOL    HW3  289   3.873   1.434   0.470  1.0233 -0.5861 -0.4755
   61SOL    MW4  290   3.870   1.361   0.517  0.2775 -0.3859 -0.1962
   62SOL     OW  291   4.021   3.978   0.511 -0.3730 -0.1372 -0.0884
   62SOL    HW2  292   4.108   3.959   0.476  0.0617 -0.1532  0.9670
   62SOL    HW3  293   3.976   3.893   0.511  0.6910 -0.7632  2.2317
   62SOL    MW4  294   4.027   3.964   0.507 -0.1760 -0.2217  0.3570
   63SOL     OW  295   2.255   1.202   0.428 -0.8198 -0.0903 -0.2976
   63SOL    HW2  296   2.328   1.238   0.478 -1.7248 -0.0574  1.0302
   63SOL    HW3  297   2.277   1.109   0.418  0.5706  0.3861 -2.0450
   63SOL    MW4  298   2.268   1.195   0.433 -0.7555 -0.0230 -0.3530
   64SOL     OW  299   3.768   3.386   0.370 -0.1467 -0.0616  0.4290
   64SOL    HW2  300   3.850   3.436   0.368  0.1476 -0.4750  1.5974
   64SOL    HW3  301   3.704   3.441   0.325  1.2800 -0.6794 -2.4785
   64SOL    MW4  302   3.770   3.400   0.364  0.0803 -0.1979  0.1996
   65SOL     OW  303   3.374   0.748   1.198 -0.2992 -0.2297  0.2277
   65SOL    HW2  304   3.396   0.757   1.105  2.1055  2.6056  1.0204
   65SOL    HW3  305   3.288   0.790   1.206 -0.4312 -0.3153 -0.6540
   65SOL    MW4  306   3.365   0.755   1.187  0.0007  0.1332  0.2160
   66SOL     OW  307   2.246   0.922   0.719  0.0867  0.1748  0.1639
   66SOL    HW2  308   2.163   0.879   0.741 -0.7834  1.5525 -0.3709
   66SOL    HW3  309   2.246   1.002   0.770  2.5925 -1.3054  2.6504
   66SOL    MW4  310   2.235   0.927   0.728  0.3028  0.1613  0.4214
   67SOL     OW  311   3.604   2.984   0.475  0.0394  0.0741 -0.3721
   67SOL    HW2  312   3.578   3.069   0.510 -0.4117 -0.2627  0.1149
   67SOL    HW3  313   3.663   2.948   0.542  1.3833  0.6176 -1.2365
   67SOL    MW4  314   3.608   2.991   0.489  0.1569  0.1016 -0.4219
   68SOL     OW  315   1.072   2.427   0.527 -0.1056 -0.0259 -0.1862
   68SOL    HW2  316   1.167   2.422   0.517  0.2143  0.9670  2.1497
   68SOL    HW3  317   1.046   2.337   0.549  0.4120 -0.0908  0.1621
   68SOL    MW4  318   1.081   2.414   0.528  0.0050  0.0968  0.1679
   69SOL     OW  319   1.807   3.704   0.425 -0.2685 -0.0100 -0.3168
   69SOL    HW2  320   1.785   3.629   0.481  0.2317  0.3158  0.3225
   69SOL    HW3  321   1.802   3.670   0.336  1.6532 -1.2446  0.0322
   69SOL    MW4  322   1.803   3.689   0.421  0.0510 -0.1299 -0.1864
   70SOL     OW  323   1.397   3.229   0.803  0.5371 -0.1371  0.5825
   70SOL    HW2  324   1.360   3.303   0.852 -0.1272 -1.4340  2.0831
   70SOL    HW3  325   1.321   3.175   0.781  0.8807  0.2428 -1.5967
   70SOL    MW4  326   1.382   3.232   0.807  0.4947 -0.2582  0.4930
   71SOL     OW  327   0.071   0.404   0.887  0.1333 -0.2282 -0.8236
   71SOL    HW2  328  -0.012   0.449   0.871 -0.3841 -1.1173 -0.7030
   71SOL    HW3  329   0.060   0.319   0.843 -0.0804 -1.4540  1.4897
   71SOL    MW4  330   0.058   0.399   0.879  0.0369 -0.5073 -0.5025
   72SOL     OW  331   2.531   2.304   0.805  0.3655 -0.1346  0.0096
   72SOL    HW2  332   2.458   2.348   0.762  0.7196 -0.9130 -1.4051
   72SOL    HW3  333   2.609   2.349   0.771  0.6077 -0.2035  0.4731
   72SOL    MW4  334   2.531   2.316   0.795  0.4444 -0.2465 -0.1159
   73SOL     OW  335   3.205   3.486   0.870  0.2038 -0.1302  0.1273
   73SOL    HW2  336   3.124   3.520   0.831  0.8465  0.8158 -0.3976
   73SOL    HW3  337   3.205   3.393   0.846 -0.7515 -0.1436  0.1669
   73SOL    MW4  338   3.194   3.478   0.861  0.1624 -0.0072  0.0632
   74SOL     OW  339   3.892   1.613   0.397  1.1431 -0.3088  0.2272
   74SOL    HW2  340   3.899   1.650   0.309 -0.2253  0.6915  0.5157
   74SOL    HW3  341   3.944   1.672   0.451 -0.9993  1.2177  0.6792
   74SOL    MW4  342   3.900   1.626   0.392  0.6802  0.0247  0.3249
   75SOL     OW  343   4.261   0.541   1.243  0.2553 -0.2221 -0.2351
   75SOL    HW2  344   4.341   0.495   1.219  1.8964  1.5209  1.7777
   75SOL    HW3  345   4.244   0.515   1.333  0.1926  1.6828  0.3210
   75SOL    MW4  346   4.269   0.532   1.251  0.4635  0.2592  0.1040
   76SOL     OW  347   0.208   3.071   0.845  0.0704  0.0918 -0.1065
   76SOL    HW2  348   0.251   2.986   0.837  0.1172  0.1753 -0.7690
   76SOL    HW3  349   0.190   3.080   0.939  0.8260 -0.2686  0.0783
   76SOL    MW4  350   0.211   3.061   0.857  0.1763  0.0551 -0.1695
   77SOL     OW  351   0.594   2.598   0.514 -0.2031 -0.3881 -0.5453
   77SOL    HW2  352   0.575   2.670   0.574 -0.9501  0.0222 -1.2609
   77SOL    HW3  353   0.689   2.602   0.501 -0.1081 -0.1611  0.2111
   77SOL    MW4  354   0.604   2.608   0.520 -0.2890 -0.3040 -0.5400
   78SOL     OW  355   2.510   3.827   0.885  0.0536 -0.2089 -0.1902
   78SOL    HW2  356   2.437   3.878   0.851  0.6084  1.3371  0.9360
   78SOL    HW3  357   2.588   3.874   0.857  0.5407  0.6331  2.4644
   78SOL    MW4  358   2.511   3.840   0.876  0.1910  0.1061  0.3086
   79SOL     OW  359   4.279   2.404   0.837 -0.0549  0.0374  0.1618
   79SOL    HW2  360   4.231   2.419   0.755  1.2764  1.7105 -0.3323
   79SOL    HW3  361   4.360   2.362   0.809  0.2569  0.3171  0.6461
   79SOL    MW4  362   4.283   2.400   0.822  0.1621  0.2949  0.1605
   80SOL     OW  363   3.937   0.192   0.705  0.4565  0.0014 -0.0514
   80SOL    HW2  364   4.028   0.164   0.700  0.0316 -1.5748  0.7221
   80SOL    HW3  365   3.898   0.137   0.773 -1.3253 -0.0424 -1.0682
   80SOL    MW4  366   3.944   0.181   0.713  0.1655 -0.2123 -0.0835
   81SOL     OW  367   0.672   3.109   0.380  0.0935 -0.4378  0.1312
   81SOL    HW2  368   0.631   3.104   0.466  0.8182  0.0586  0.5027
   81SOL    HW3  369   0.766   3.107   0.397  0.2396 -0.5135 -0.6559
   81SOL    MW4  370   0.679   3.108   0.393  0.2084 -0.3824  0.0764
   82SOL     OW  371   3.179   2.711   0.849 -0.4217 -0.1893  0.2755
   82SOL    HW2  372   3.273   2.731   0.842 -0.4159 -0.6449 -1.2100
   82SOL    HW3  373   3.173   2.619   0.824 -1.3739  0.0952 -0.5778
   82SOL    MW4  374   3.191   2.702   0.845 -0.5467 -0.2120 -0.0330
   83SOL     OW  375   3.388   3.866   0.899 -0.0518 -0.5142  0.0859
   83SOL    HW2  376   3.378   3.878   0.993 -0.9503 -0.7836  0.0268
   83SOL    HW3  377   3.311   3.909   0.861  2.2443  3.0266 -0.7637
   83SOL    MW4  378   3.377   3.873   0.906  0.1326 -0.0827 -0.0340
   84SOL     OW  379   2.474   3.645   0.480  0.9202 -0.0739 -0.6491
   84SOL    HW2  380   2.561   3.671   0.448  1.7351 -1.6337  0.1751
   84SOL    HW3  381   2.492   3.608   0.567 -0.7176  0.5080 -0.0617
   84SOL    MW4  382   2.488   3.643   0.488  0.8118 -0.2029 -0.4628
   85SOL     OW  383   1.612   1.327   0.660 -0.5921  1.1398  0.0707
   85SOL    HW2  384   1.630   1.400   0.720  0.4800  1.0896 -0.1835
   85SOL    HW3  385   1.535   1.285   0.697  0.2917  0.8739  1.6524
   85SOL    MW4  386   1.604   1.331   0.673 -0.3340  1.0980  0.2459
   86SOL     OW  387   1.375   4.259   0.822  0.4330 -0.1173 -0.1625
   86SOL    HW2  388   1.384   4.169   0.792  0.4516 -0.0079 -0.4892
   86SOL    HW3  389   1.459   4.300   0.802 -0.0079  0.3109 -1.1838
   86SOL    MW4  390   1.387   4.253   0.815  0.3771 -0.0458 -0.3403
   87SOL     OW  391   3.946   0.851   0.521 -0.1175  0.1803  0.7133
   87SOL    HW2  392   3.851   0.849   0.518 -0.0520 -1.1771 -1.4407
   87SOL    HW3  393   3.970   0.939   0.492 -0.6688 -0.3992 -1.5933
   87SOL    MW4  394   3.937   0.862   0.517 -0.1817 -0.0752  0.1248
   88SOL     OW  395   0.433   2.285   0.776 -0.2651 -0.1243  0.2684
   88SOL    HW2  396   0.437   2.294   0.681  0.8065 -1.5781  0.1774
   88SOL    HW3  397   0.505   2.339   0.809 -1.6681  1.7509  0.3679
   88SOL    MW4  398   0.443   2.294   0.768 -0.3088 -0.0687  0.2695
   89SOL     OW  399   1.315   3.496   0.888 -0.1060 -0.4926  0.3587
   89SOL    HW2  400   1.372   3.536   0.822 -0.6645 -0.6507 -0.2226
   89SOL    HW3  401   1.226   3.519   0.860 -0.5420 -3.3602 -0.8284
   89SOL    MW4  402   1.311   3.504   0.875 -0.2371 -0.8914  0.1254
   90SOL     OW  403   0.880   0.354   0.869  0.4696  0.0209 -0.3240
   90SOL    HW2  404   0.886   0.262   0.843  0.8837 -0.3275  0.9483
   90SOL    HW3  405   0.966   0.390   0.848  1.0759 -0.4612  1.2626
   90SOL    MW4  406   0.892   0.346   0.863  0.6042 -0.0887  0.0532
   91SOL     OW  407   2.656   1.178   0.399  0.2503  0.5235  0.5159
   91SOL    HW2  408   2.624   1.184   0.309  0.1741 -0.5584  0.4663
   91SOL    HW3  409   2.597   1.236   0.448 -0.1483  0.5720 -0.0090
   91SOL    MW4  410   2.644   1.187   0.394  0.1876  0.3872  0.4401
   92SOL     OW  411   1.403   0.348   0.834 -0.0427 -0.2829 -0.1002
   92SOL    HW2  412   1.399   0.257   0.807  0.9707 -0.0205 -1.1403
   92SOL    HW3  413   1.387   0.345   0.929  1.3339 -1.6707  0.1096
   92SOL    MW4  414   1.400   0.336   0.843  0.2726 -0.4314 -0.2097
   93SOL     OW  415   0.700   1.524   1.146 -0.3316  0.4200 -0.0828
   93SOL    HW2  416   0.625   1.569   1.185 -0.6862 -1.3286  1.3317
   93SOL    HW3  417   0.776   1.572   1.178 -0.8606  2.9755 -2.5401
   93SOL    MW4  418   0.700   1.536   1.156 -0.4482  0.5264 -0.2203
   94SOL     OW  419   3.270   4.373   0.513 -0.2362 -0.1747  0.0870
   94SOL    HW2  420   3.298   4.450   0.464 -1.0267 -2.4228 -4.1060
   94SOL    HW3  421   3.174   4.380   0.515 -0.2154 -0.1173  1.3796
   94SOL    MW4  422   3.261   4.384   0.507 -0.3376 -0.4635 -0.2958
   95SOL     OW  423   4.402   0.945   0.712 -0.2011 -0.1740 -0.2674
   95SOL    HW2  424   4.484   0.909   0.679  0.4650  0.0633  1.0956
   95SOL    HW3  425   4.428   1.018   0.768 -1.3556  0.0755 -0.0367
   95SOL    MW4  426   4.416   0.950   0.715 -0.2651 -0.1099 -0.0570
   96SOL     OW  427   3.096   0.071   0.521 -0.1210  0.3305  0.2538
   96SOL    HW2  428   3.038   0.147   0.517 -0.9287 -0.2778  0.2321
   96SOL    HW3  429   3.118   0.062   0.614 -1.3075 -0.3493  0.4849
   96SOL    MW4  430   3.091   0.080   0.533 -0.3841  0.1606  0.2815
   97SOL     OW  431   2.083   2.330   0.850 -0.4302  0.1162  0.3096
   97SOL    HW2  432   2.104   2.326   0.944 -1.3544  0.6180  0.5477
   97SOL    HW3  433   2.164   2.357   0.808  0.2169 -0.8987  0.8797
   97SOL    MW4  434   2.096   2.333   0.857 -0.4671  0.0484  0.4162
   98SOL     OW  435   2.259   0.105   0.751  0.1324  0.4669  0.1660
   98SOL    HW2  436   2.278   0.122   0.659 -0.1631  0.6681  0.1436
   98SOL    HW3  437   2.342   0.070   0.786 -0.0944 -0.7182 -0.4480
   98SOL    MW4  438   2.273   0.103   0.744  0.0634  0.3371  0.0821
   99SOL     OW  439   0.698   3.383   0.457  0.2382 -0.1359 -0.8140
   99SOL    HW2  440   0.660   3.310   0.408 -0.8311 -0.6168  0.6923
   99SOL    HW3  441   0.636   3.455   0.445 -0.9681 -0.7888  1.2803
   99SOL    MW4  442   0.685   3.383   0.449 -0.0620 -0.2856 -0.3390
  100SOL     OW  443   0.597   3.362   0.888  0.0590 -0.6780  0.1071
  100SOL    HW2  444   0.536   3.305   0.841 -0.9577  1.2627 -1.0001
  100SOL    HW3  445   0.547   3.393   0.963  0.4272 -0.8068  0.4071
  100SOL    MW4  446   0.582   3.358   0.892 -0.0266 -0.4389  0.0006
  101SOL     OW  447   0.475   2.825   0.663  0.4759 -0.3337  0.0961
  101SOL    HW2  448   0.409   2.827   0.595  0.8281 -2.9327 -0.3605
  101SOL    HW3  449   0.426   2.821   0.745  0.0353 -2.0192 -0.2328
  101SOL    MW4  450   0.460   2.825   0.665  0.4643 -0.8986 -0.0076
  102SOL     OW  451   4.034   3.221   0.758  0.3213  0.3666 -0.6550
  102SOL    HW2  452   4.037   3.313   0.784 -1.4093  0.7502 -1.7101
  102SOL    HW3  453   4.123   3.190   0.771  0.3099  1.4251  2.3895
  102SOL    MW4  454   4.046   3.229   0.763  0.0911  0.5567 -0.3926
  103SOL     OW  455   0.899   1.510   0.555  0.0562 -0.4590 -0.3884
  103SOL    HW2  456   0.804   1.509   0.541 -0.2555  0.5609  1.3871
  103SOL    HW3  457   0.925   1.419   0.550 -0.9603 -0.7122 -1.2496
  103SOL    MW4  458   0.890   1.498   0.553 -0.1190 -0.3579 -0.2678
  104SOL     OW  459   3.836   0.819   0.942  0.0027 -0.0411  0.8342
  104SOL    HW2  460   3.838   0.736   0.894  0.7792 -0.1293  1.0095
  104SOL    HW3  461   3.821   0.793   1.033  0.0776  0.0227  0.8644
  104SOL    MW4  462   3.834   0.804   0.948  0.1152 -0.0442  0.8613
  105SOL     OW  463   2.666   1.900   0.859 -0.2353 -0.4213  0.5332
  105SOL    HW2  464   2.680   1.890   0.953 -0.8118  0.2312  0.6889
  105SOL    HW3  465   2.753   1.921   0.824 -0.1538  0.0505  1.0181
  105SOL    MW4  466   2.680   1.902   0.867 -0.3009 -0.2729  0.6177
  106SOL     OW  467   2.552   2.940   0.319  0.0048 -0.3596  0.1890
  106SOL    HW2  468   2.596   2.925   0.235  0.0919 -2.3619  0.5742
  106SOL    HW3  469   2.586   3.024   0.349 -0.2926  0.5693 -1.9444
  106SOL    MW4  470   2.562   2.949   0.312 -0.0229 -0.5014 -0.0416
  107SOL     OW  471   0.039   1.819   0.845 -0.3005 -0.4997 -0.6281
  107SOL    HW2  472   0.039   1.834   0.939  0.0201  0.1667 -0.7361
  107SOL    HW3  473  -0.028   1.751   0.832 -0.1292 -0.8196  0.1090
  107SOL    MW4  474   0.030   1.812   0.856 -0.2355 -0.4541 -0.5451
  108SOL     OW  475   1.418   2.723   0.815 -0.2517 -0.0328 -0.4083
  108SOL    HW2  476   1.497   2.759   0.774  0.1353 -0.4676 -0.0476
  108SOL    HW3  477   1.346   2.769   0.772  0.2476  1.5845  0.4196
  108SOL    MW4  478   1.419   2.734   0.804 -0.1347  0.1230 -0.2515
  109SOL     OW  479   1.348   0.281   0.406  0.4913 -0.2510  0.4712
  109SOL    HW2  480   1.379   0.192   0.423  2.3152  0.1801 -0.5474
  109SOL    HW3  481   1.427   0.335   0.405 -0.4745  1.1828 -0.2351
  109SOL    MW4  482   1.362   0.276   0.408  0.6045 -0.0050  0.2436
  110SOL     OW  483   0.881   3.364   0.944  0.0223 -0.3457 -0.1715
  110SOL    HW2  484   0.911   3.441   0.897 -0.1414  0.5794  1.2119
  110SOL    HW3  485   0.786   3.366   0.936 -0.0730  0.3749  1.0397
  110SOL    MW4  486   0.872   3.374   0.937 -0.0119 -0.1285  0.1708
  111SOL     OW  487   3.332   2.039   0.756  0.2220  0.2911 -0.2269
  111SOL    HW2  488   3.266   2.006   0.817 -0.6163  0.4854 -1.0204
  111SOL    HW3  489   3.335   2.133   0.772  2.3350 -0.0557  1.7638
  111SOL    MW4  490   3.324   2.047   0.766  0.3903  0.2711 -0.0690
  112SOL     OW  491   4.033   1.117   0.436 -0.2948  0.0209 -0.0451
  112SOL    HW2  492   3.983   1.195   0.458 -1.0876 -0.3778 -0.4070
  112SOL    HW3  493   4.040   1.119   0.340  0.3021  0.0287 -0.0001
  112SOL    MW4  494   4.027   1.127   0.426 -0.3209 -0.0308 -0.0869
  113SOL     OW  495   2.528   1.197   0.150  0.2708 -0.1456  0.2900
  113SOL    HW2  496   2.541   1.203   0.056  0.7817 -0.4319  0.3365
  113SOL    HW3  497   2.448   1.247   0.167 -0.2209 -0.6967 -0.3849
  113SOL    MW4  498   2.519   1.204   0.140  0.2735 -0.2561  0.2071
  114SOL     OW  499   0.212   0.298   0.523 -0.2461  0.2204  0.2330
  114SOL    HW2  500   0.168   0.280   0.605 -0.1502 -0.2058  0.1928
  114SOL    HW3  501   0.266   0.375   0.541  2.9239 -2.2397  1.7551
  114SOL    MW4  502   0.214   0.306   0.536  0.1848 -0.1604  0.4286
  115SOL     OW  503   0.606   2.100   0.497  0.1077  0.1672  0.0618
  115SOL    HW2  504   0.555   2.179   0.477 -0.5558 -0.5005 -0.8882
  115SOL    HW3  505   0.557   2.056   0.566  0.1258  0.2348  0.1182
  115SOL    MW4  506   0.593   2.105   0.504  0.0226  0.0882 -0.0561
  116SOL     OW  507   2.780   3.972   0.454 -0.2528  0.3532 -0.0769
  116SOL    HW2  508   2.873   3.995   0.455 -0.3039  0.5842 -0.7123
  116SOL    HW3  509   2.776   3.894   0.398 -0.3084 -0.2318  0.7324
  116SOL    MW4  510   2.792   3.964   0.447 -0.2670  0.3066 -0.0540
  117SOL     OW  511   0.924   0.109   0.732  0.0859  0.2926 -0.1520
  117SOL    HW2  512   0.847   0.056   0.752  0.2768  0.5325  1.2613
  117SOL    HW3  513   0.998   0.057   0.761  0.3015  1.1084  0.8178
  117SOL    MW4  514   0.923   0.095   0.738  0.1396  0.4319  0.1624
  118SOL     OW  515   2.455   0.753   0.830  0.2780  0.4317 -0.0586
  118SOL    HW2  516   2.393   0.823   0.807  1.4054  2.4628  2.8325
  118SOL    HW3  517   2.539   0.782   0.794  0.4465 -0.1875 -0.1672
  118SOL    MW4  518   2.458   0.766   0.822  0.4489  0.6180  0.3086
  119SOL     OW  519   0.999   3.698   0.544 -0.0475 -0.2515 -0.0453
  119SOL    HW2  520   0.980   3.605   0.543  0.1932 -0.2942 -0.7110
  119SOL    HW3  521   1.095   3.703   0.549 -0.0962 -0.0377  0.8086
  119SOL    MW4  522   1.010   3.687   0.545 -0.0221 -0.2289 -0.0205
  120SOL     OW  523   3.376   3.402   0.429  0.4749  0.1122  0.1751
  120SOL    HW2  524   3.385   3.496   0.444 -0.0721 -0.1361  2.2215
  120SOL    HW3  525   3.419   3.387   0.345  1.9157  1.9474  0.5502
  120SOL    MW4  526   3.382   3.413   0.420  0.5932  0.3216  0.4946
  121SOL     OW  527   4.160   2.088   0.553 -0.6045  0.1647  0.0374
  121SOL    HW2  528   4.157   1.992   0.549  0.4884  0.1292 -0.0540
  121SOL    HW3  529   4.145   2.108   0.646  0.0055 -0.1406  0.2089
  121SOL    MW4  530   4.158   2.078   0.565 -0.3796  0.1197  0.0480
  122SOL     OW  531   4.086   1.177   0.918 -0.5230 -0.0216 -0.0135
  122SOL    HW2  532   4.053   1.164   1.007 -0.7674 -0.9596 -0.2325
  122SOL    HW3  533   4.059   1.098   0.871 -1.0008  0.7688 -1.1004
  122SOL    MW4  534   4.078   1.165   0.923 -0.6180 -0.0410 -0.1858
  123SOL     OW  535   4.013   0.418   0.444 -0.1074  0.4787  0.9864
  123SOL    HW2  536   3.941   0.364   0.477  0.8602 -0.5292  1.5086
  123SOL    HW3  537   4.076   0.355   0.409  0.4191  1.3606  0.3161
  123SOL    MW4  538   4.012   0.403   0.444  0.0896  0.4621  0.9669
  124SOL     OW  539   4.048   3.976   4.241 -0.0815  0.3419  0.5892
  124SOL    HW2  540   4.036   4.067   4.215 -1.9210  0.4462  1.6625
  124SOL    HW3  541   4.130   3.949   4.200 -1.5039  1.2680 -3.0058
  124SOL    MW4  542   4.057   3.985   4.232 -0.5121  0.4778  0.2565
  125SOL     OW  543   3.389   2.317   0.873 -0.0719 -0.0232 -0.5092
  125SOL    HW2  544   3.308   2.353   0.839 -0.6981 -1.5859 -0.7047
  125SOL    HW3  545   3.374   2.308   0.967  0.2178  0.5336 -0.4030
  125SOL    MW4  546   3.377   2.321   0.881 -0.1166 -0.1559 -0.5210
  126SOL     OW  547   1.049   3.572   0.829  0.2777  0.1782  0.2481
  126SOL    HW2  548   1.064   3.665   0.813  0.8543 -0.0003 -0.3276
  126SOL    HW3  549   1.060   3.532   0.742 -1.3305 -0.2623  0.2307
  126SOL    MW4  550   1.053   3.579   0.815  0.1415  0.0963  0.1698
  127SOL     OW  551   2.388   1.898   0.340 -0.1339  0.1457 -0.2700
  127SOL    HW2  552   2.441   1.975   0.362  1.0780 -0.5004 -0.9063
  127SOL    HW3  553   2.308   1.935   0.303  0.2852  1.1167 -0.2319
  127SOL    MW4  554   2.384   1.913   0.338  0.0813  0.1886 -0.3489
  128SOL     OW  555   0.016   2.746   0.640  0.1496 -0.5347  0.0265
  128SOL    HW2  556  -0.063   2.800   0.638 -0.6998 -1.7265  0.6991
  128SOL    HW3  557   0.078   2.793   0.585 -1.0889  0.3281 -0.6726
  128SOL    MW4  558   0.014   2.759   0.632 -0.1258 -0.5779  0.0230
  129SOL     OW  559   2.757   2.712   0.825 -0.1592 -0.2850  0.3235
  129SOL    HW2  560   2.681   2.755   0.787 -0.5815 -0.6394  0.7607
  129SOL    HW3  561   2.740   2.712   0.919 -0.2751 -1.6174  0.3171
  129SOL    MW4  562   2.745   2.718   0.833 -0.2303 -0.5078  0.3804
  130SOL     OW  563   0.909   3.458   1.185  0.1521  0.2891 -0.3904
  130SOL    HW2  564   0.893   3.444   1.092 -0.3166  1.1333 -0.4481
  130SOL    HW3  565   0.829   3.500   1.217  0.1746 -0.3003  0.4642
  130SOL    MW4  566   0.896   3.462   1.177  0.0933  0.3228 -0.2851
  131SOL     OW  567   1.779   1.182   1.107 -0.6602  0.0123  0.6952
  131SOL    HW2  568   1.771   1.193   1.012 -0.6742  0.9422  0.7987
  131SOL    HW3  569   1.779   1.087   1.120  0.1187 -0.1419 -0.3034
  131SOL    MW4  570   1.778   1.171   1.096 -0.5592  0.1147  0.5771
  132SOL     OW  571   0.259   3.648   0.735 -0.2560 -0.1758  0.3115
  132SOL    HW2  572   0.246   3.714   0.803 -1.0762  0.1242 -0.1327
  132SOL    HW3  573   0.347   3.615   0.751 -0.1574  0.4297  1.0582
  132SOL    MW4  574   0.269   3.653   0.746 -0.3513 -0.0563  0.3514
  133SOL     OW  575   1.634   1.153   0.427  0.0876 -0.5463  0.1413
  133SOL    HW2  576   1.670   1.066   0.441 -1.0209 -1.2907 -1.4736
  133SOL    HW3  577   1.655   1.202   0.507  0.2396 -2.4428  1.2724
  133SOL    MW4  578   1.641   1.148   0.439 -0.0385 -0.8948  0.0775
  134SOL     OW  579   1.155   4.630   0.821 -0.0955  0.7113 -0.2812
  134SOL    HW2  580   1.239   4.676   0.808  0.4293 -0.0814  0.3077
  134SOL    HW3  581   1.165   4.549   0.772  0.1511 -0.1947  1.2508
  134SOL    MW4  582   1.167   4.626   0.813  0.0063  0.4873 -0.0013
  135SOL     OW  583   0.782   0.595   0.525 -0.2260 -0.2174 -0.0400
  135SOL    HW2  584   0.749   0.585   0.614 -0.7649  1.2047 -0.0684
  135SOL    HW3  585   0.808   0.686   0.519  1.6710 -0.7813 -0.7207
  135SOL    MW4  586   0.781   0.605   0.536 -0.0468 -0.1041 -0.1335
  136SOL     OW  587   1.056   0.722   0.884 -0.1106 -0.5207 -0.3391
  136SOL    HW2  588   1.063   0.716   0.979 -2.5705 -0.8955 -0.1529
  136SOL    HW3  589   1.073   0.634   0.853  0.5724 -0.4250 -0.2430
  136SOL    MW4  590   1.059   0.710   0.892 -0.3451 -0.5575 -0.3019
  137SOL     OW  591   3.447   1.055   0.270 -0.6248 -0.1497 -0.1984
  137SOL    HW2  592   3.366   1.066   0.321  0.4956  0.2667  1.5331
  137SOL    HW3  593   3.515   1.096   0.324  0.5934  0.3522 -2.0802
  137SOL    MW4  594   3.445   1.062   0.284 -0.3161 -0.0286 -0.2182
  138SOL     OW  595   3.609   0.889   0.785  0.1371  0.1444  0.0706
  138SOL    HW2  596   3.619   0.857   0.695  0.2166  0.3752 -0.0025
  138SOL    HW3  597   3.691   0.862   0.828  1.4609  2.7349 -0.7400
  138SOL    MW4  598   3.621   0.881   0.779  0.3223  0.5167 -0.0460
  139SOL     OW  599   1.666   4.626   0.322 -0.2555 -0.0735 -0.0496
  139SOL    HW2  600   1.682   4.597   0.232 -0.2297  0.1396 -0.1135
  139SOL    HW3  601   1.735   4.582   0.372 -0.7987 -0.8823  0.0000
  139SOL    MW4  602   1.678   4.616   0.316 -0.3238 -0.1521 -0.0515
  140SOL     OW  603   0.427   4.276   0.822 -0.2362  0.2253  0.2491
  140SOL    HW2  604   0.445   4.185   0.799 -1.1855  0.5088 -1.6960
  140SOL    HW3  605   0.434   4.279   0.917 -0.2336 -1.8824  0.3262
  140SOL    MW4  606   0.431   4.265   0.831 -0.3611 -0.0148  0.0026
  141SOL     OW  607   2.970   0.650   0.456  0.0111 -0.1550  0.2063
  141SOL    HW2  608   2.948   0.596   0.532  0.6434 -0.9754 -0.1913
  141SOL    HW3  609   2.885   0.677   0.421 -0.2835  0.2718  1.2256
  141SOL    MW4  610   2.956   0.647   0.461  0.0558 -0.2069  0.2884
  142SOL     OW  611   1.389   2.692   1.112  0.1043  0.0155  0.8122
  142SOL    HW2  612   1.391   2.698   1.017 -1.4620 -1.0126  0.7022
  142SOL    HW3  613   1.308   2.736   1.138  0.3478 -0.0110  1.6438
  142SOL    MW4  614   1.379   2.698   1.103 -0.0701 -0.1235  0.9074
  143SOL     OW  615   3.161   3.233   0.530 -0.2499 -0.0159  0.2706
  143SOL    HW2  616   3.233   3.286   0.496  0.7087 -1.4866 -0.0183
  143SOL    HW3  617   3.174   3.147   0.492 -1.1315 -0.7855  1.6612
  143SOL    MW4  618   3.172   3.229   0.520 -0.2396 -0.3114  0.4160
  144SOL     OW  619   2.948   1.209   0.456  0.1099 -0.4272  0.4454
  144SOL    HW2  620   2.855   1.194   0.439  0.4679 -1.7248 -0.5229
  144SOL    HW3  621   2.954   1.222   0.550 -1.1791  0.7277  0.3835
  144SOL    MW4  622   2.937   1.209   0.466 -0.0131 -0.4462  0.3095
  145SOL     OW  623   0.185   0.639   0.821  0.1756  0.3857  0.2472
  145SOL    HW2  624   0.188   0.676   0.910 -1.6419  1.2698 -0.0440
  145SOL    HW3  625   0.159   0.548   0.834  0.8418  0.2542  0.6865
  145SOL    MW4  626   0.182   0.632   0.835  0.0237  0.4849  0.2667
  146SOL     OW  627   2.927   0.484   0.692 -0.4770  0.2913  0.5216
  146SOL    HW2  628   2.845   0.442   0.718  0.2091 -0.2176  1.9649
  146SOL    HW3  629   2.991   0.449   0.754  0.9328  0.2595 -0.9546
  146SOL    MW4  630   2.924   0.474   0.704 -0.2005  0.2200  0.5172
  147SOL     OW  631   0.361   1.179   0.847  0.2836  0.3899  0.2078
  147SOL    HW2  632   0.450   1.171   0.813  0.7779 -2.6322  2.0646
  147SOL    HW3  633   0.321   1.093   0.833 -1.9331  1.3246  0.5271
  147SOL    MW4  634   0.367   1.167   0.841  0.0563  0.1144  0.4950
  148SOL     OW  635   2.003   1.292   0.770 -0.5756  0.6375  0.2320
  148SOL    HW2  636   2.022   1.295   0.676 -0.3546  0.1882  0.2609
  148SOL    HW3  637   2.074   1.239   0.807 -1.2778 -0.1288  0.5016
  148SOL    MW4  638   2.015   1.285   0.763 -0.6392  0.4771  0.2714
  149SOL     OW  639   3.852   3.124   0.380 -0.8083  0.0558  0.2675
  149SOL    HW2  640   3.812   3.209   0.360 -0.3051  0.6821  1.8297
  149SOL    HW3  641   3.781   3.072   0.415 -1.0493 -0.0681 -0.3964
  149SOL    MW4  642   3.838   3.129   0.382 -0.7739  0.1221  0.3860
  150SOL     OW  643   2.024   3.892   0.821 -0.5995 -0.2411  0.2903
  150SOL    HW2  644   2.015   3.903   0.916 -0.4076 -0.1740  0.3015
  150SOL    HW3  645   1.942   3.927   0.785 -0.9416 -0.8602  0.4696
  150SOL    MW4  646   2.012   3.898   0.829 -0.6194 -0.3140  0.3154
  151SOL     OW  647   1.597   4.202   0.495  0.0393 -0.0846 -0.0530
  151SOL    HW2  648   1.522   4.223   0.440  1.3367  1.1679 -1.3949
  151SOL    HW3  649   1.619   4.112   0.473 -1.1774 -0.5398  0.5133
  151SOL    MW4  650   1.590   4.193   0.485  0.0499  0.0210 -0.1554
  152SOL     OW  651   0.471   1.804   0.870  0.2321  0.4730 -0.0442
  152SOL    HW2  652   0.449   1.878   0.814 -0.9565  1.3002  1.4803
  152SOL    HW3  653   0.562   1.820   0.897  0.5445  0.4729 -1.0842
  152SOL    MW4  654   0.480   1.816   0.867  0.1165  0.5821  0.0198
  153SOL     OW  655   4.251   1.531   1.118 -0.1402 -0.3009 -0.0263
  153SOL    HW2  656   4.325   1.578   1.157 -0.7719  0.1813  0.6133
  153SOL    HW3  657   4.239   1.455   1.175 -0.3841 -0.1707  0.0944
  153SOL    MW4  658   4.259   1.528   1.130 -0.2556 -0.2201  0.0740
  154SOL     OW  659   2.125   2.035   0.275  0.3996 -0.7199 -0.2266
  154SOL    HW2  660   2.056   1.971   0.256  0.3712 -0.4773 -0.9483
  154SOL    HW3  661   2.091   2.086   0.349  0.1970 -1.1952  0.0076
  154SOL    MW4  662   2.111   2.034   0.282  0.3688 -0.7505 -0.2909
  155SOL     OW  663   0.623   1.555   0.537  0.2571  0.0700  0.4217
  155SOL    HW2  664   0.603   1.638   0.494 -1.4756 -0.8477 -0.6143
  155SOL    HW3  665   0.578   1.559   0.621 -0.0791  0.0766  0.2438
  155SOL    MW4  666   0.614   1.566   0.542 -0.0158 -0.0502  0.2616
  156SOL     OW  667   2.236   1.955   0.872 -0.3203  0.1462 -0.3908
  156SOL    HW2  668   2.235   1.861   0.852  2.5396 -0.0716  0.1904
  156SOL    HW3  669   2.313   1.988   0.824 -0.5359  1.9457  0.4644
  156SOL    MW4  670   2.246   1.947   0.863  0.0286  0.3548 -0.2013
  157SOL     OW  671   3.920   2.151   0.427 -0.3111 -0.0991  0.1073
  157SOL    HW2  672   3.858   2.181   0.493  1.5549  2.2898  0.8585
  157SOL    HW3  673   3.998   2.126   0.478  0.7893  0.8343 -1.0900
  157SOL    MW4  674   3.922   2.151   0.443  0.0803  0.3393  0.0485
  158SOL     OW  675   1.532   2.164   0.444 -0.0596 -0.0824  0.0880
  158SOL    HW2  676   1.612   2.124   0.410 -0.6556  1.5111 -3.3403
  158SOL    HW3  677   1.468   2.093   0.443  1.2890 -1.4629  3.1779
  158SOL    MW4  678   1.534   2.150   0.440  0.0397 -0.0546  0.0433
  159SOL     OW  679   0.480   3.170   0.194  0.2926  0.5595 -0.2949
  159SOL    HW2  680   0.568   3.144   0.222  0.0629 -0.8560 -0.8404
  159SOL    HW3  681   0.477   3.149   0.101 -0.8239  0.0359 -0.1461
  159SOL    MW4  682   0.492   3.164   0.186  0.1150  0.3035 -0.3472
  160SOL     OW  683   3.583   3.529   0.215  0.0644  0.1019 -0.2898
  160SOL    HW2  684   3.604   3.613   0.256 -0.2210 -0.1189  0.3190
  160SOL    HW3  685   3.569   3.550   0.123  1.3396  0.5060 -0.4008
  160SOL    MW4  686   3.584   3.543   0.208  0.1950  0.1264 -0.2241
  161SOL     OW  687   3.583   1.658   0.750 -0.0330  0.0255 -0.5368
  161SOL    HW2  688   3.517   1.619   0.807 -0.0882  0.7194 -0.1206
  161SOL    HW3  689   3.583   1.751   0.773  0.3168  0.2215 -1.2968
  161SOL    MW4  690   3.574   1.665   0.760  0.0057  0.1429 -0.5822
  162SOL     OW  691   0.396   4.250   0.326 -0.6506  0.1528  0.3980
  162SOL    HW2  692   0.306   4.222   0.308 -0.4906 -0.3175  0.2993
  162SOL    HW3  693   0.429   4.183   0.386 -0.0953 -0.1495 -0.2389
  162SOL    MW4  694   0.388   4.237   0.331 -0.5562  0.0510  0.3009
  163SOL     OW  695   1.896   1.854   0.212 -0.1668  0.0150 -0.1337
  163SOL    HW2  696   1.907   1.794   0.286  0.7238  0.7119  0.3094
  163SOL    HW3  697   1.887   1.798   0.136 -0.1665 -0.6924  0.3854
  163SOL    MW4  698   1.896   1.839   0.212 -0.0494  0.0136 -0.0067
  164SOL     OW  699   1.818   1.605   0.055 -0.5238 -0.1431  0.0437
  164SOL    HW2  700   1.898   1.562   0.085 -0.2017  0.6418  0.3105
  164SOL    HW3  701   1.753   1.583   0.123 -0.6226 -1.0487 -0.3403
  164SOL    MW4  702   1.820   1.596   0.068 -0.4944 -0.1589  0.0282
  165SOL     OW  703   1.870   3.467   0.846 -0.0549  0.1495 -0.1845
  165SOL    HW2  704   1.860   3.464   0.941  0.2891  0.8852 -0.1218
  165SOL    HW3  705   1.878   3.376   0.820 -1.0769 -0.1183  0.3926
  165SOL    MW4  706   1.870   3.455   0.855 -0.1445  0.2110 -0.1001
  166SOL     OW  707   4.182   0.058   0.664  0.4144 -0.3880 -0.1282
  166SOL    HW2  708   4.241   0.099   0.601 -0.2124  0.1722 -0.3457
  166SOL    HW3  709   4.238   0.039   0.740  0.4944  1.8237  0.4048
  166SOL    MW4  710   4.198   0.061   0.666  0.3419 -0.0222 -0.0866
  167SOL     OW  711   0.698   0.559   0.793  0.1983 -0.3117 -0.1664
  167SOL    HW2  712   0.765   0.494   0.810 -0.2981 -0.3441  1.6907
  167SOL    HW3  713   0.615   0.515   0.813 -0.2380  0.4029 -0.3787
  167SOL    MW4  714   0.696   0.545   0.798  0.0753 -0.2217  0.0506
  168SOL     OW  715   2.716   0.379   0.821  0.2773 -0.2776 -0.1595
  168SOL    HW2  716   2.730   0.293   0.781 -0.8225 -0.6564  0.2396
  168SOL    HW3  717   2.708   0.361   0.915  0.3572  0.2952 -0.0430
  168SOL    MW4  718   2.717   0.365   0.828  0.1428 -0.2520 -0.0914
  169SOL     OW  719   4.469   1.417   0.732 -0.1391  0.3644 -0.1954
  169SOL    HW2  720   4.470   1.396   0.639 -0.5993  0.3457 -0.2005
  169SOL    HW3  721   4.436   1.337   0.774  0.9634  0.0432  0.0776
  169SOL    MW4  722   4.464   1.403   0.726 -0.0545  0.3197 -0.1600
  170SOL     OW  723   2.184   4.490   0.469 -0.2937  0.8409  0.0926
  170SOL    HW2  724   2.263   4.439   0.452 -0.8669 -0.3032  0.8072
  170SOL    HW3  725   2.213   4.581   0.470  1.1356  0.3754  1.0957
  170SOL    MW4  726   2.198   4.495   0.467 -0.1810  0.6285  0.3192
  171SOL     OW  727   1.557   0.522   0.673  0.0526 -0.2258  0.3387
  171SOL    HW2  728   1.502   0.467   0.729 -1.0881 -0.0901 -0.6301
  171SOL    HW3  729   1.553   0.608   0.713  0.0102 -0.3364  0.5754
  171SOL    MW4  730   1.550   0.526   0.686 -0.1035 -0.2224  0.2421
  172SOL     OW  731   1.606   0.447   0.416  0.4676 -0.2266 -0.4242
  172SOL    HW2  732   1.662   0.370   0.430  1.2754  0.4614  0.1816
  172SOL    HW3  733   1.584   0.477   0.504  2.6417  2.0198 -0.5846
  172SOL    MW4  734   1.611   0.441   0.430  0.8609  0.1605 -0.3654
  173SOL     OW  735   2.687   0.690   0.358  0.3142  0.0562 -0.0646
  173SOL    HW2  736   2.632   0.679   0.281  0.1334 -0.9865  0.1957
  173SOL    HW3  737   2.659   0.619   0.417 -0.0136  1.2438  1.2305
  173SOL    MW4  738   2.676   0.679   0.356  0.2470  0.0753  0.1406
  174SOL     OW  739   1.589   3.072   1.100 -0.6045 -0.5656  0.1694
  174SOL    HW2  740   1.509   3.108   1.138  1.1439  1.4768  2.0053
  174SOL    HW3  741   1.660   3.124   1.137  1.4776 -0.8844 -3.1203
  174SOL    MW4  742   1.588   3.083   1.110 -0.0992 -0.3383 -0.0224
  175SOL     OW  743   2.737   2.452   0.675  0.3921  0.2044 -0.1531
  175SOL    HW2  744   2.810   2.409   0.719 -0.1018  0.7348  1.2056
  175SOL    HW3  745   2.718   2.530   0.727 -2.6913 -1.1793  0.9527
  175SOL    MW4  746   2.744   2.456   0.687 -0.0799  0.0918  0.1721
  176SOL     OW  747   4.252   2.339   1.102 -0.2144 -0.1646  0.5355
  176SOL    HW2  748   4.257   2.360   1.009  1.5956  1.9433  1.0629
  176SOL    HW3  749   4.161   2.359   1.126 -0.8542 -1.2453 -0.8476
  176SOL    MW4  750   4.240   2.344   1.093 -0.0596 -0.0288  0.4227
  177SOL     OW  751   3.648   3.292   0.817 -0.2270  0.1262 -0.1131
  177SOL    HW2  752   3.661   3.279   0.723  0.6407  0.0067  0.0245
  177SOL    HW3  753   3.587   3.223   0.842  0.7814 -0.8429 -0.2859
  177SOL    MW4  754   3.641   3.281   0.807  0.0203 -0.0176 -0.1178
  178SOL     OW  755   3.628   3.783   0.373  0.0889  0.1160 -0.2852
  178SOL    HW2  756   3.596   3.863   0.413  0.5894  0.1277  0.0839
  178SOL    HW3  757   3.718   3.774   0.403 -0.4030 -1.3272  0.8093
  178SOL    MW4  758   3.636   3.792   0.382  0.0901 -0.0730 -0.0921
  179SOL     OW  759   3.321   2.285   1.156  0.0100  0.7001  0.1808
  179SOL    HW2  760   3.410   2.308   1.181  0.2766  1.2040 -1.2149
  179SOL    HW3  761   3.266   2.354   1.193  0.2831  0.8139  0.3707
  179SOL    MW4  762   3.326   2.297   1.164  0.0811  0.7818  0.0217
  180SOL     OW  763   2.072   3.064   0.862  0.4165  0.5578 -0.3268
  180SOL    HW2  764   2.075   3.084   0.956 -0.0675 -1.4336  0.1300
  180SOL    HW3  765   2.134   3.125   0.823  0.8770  1.1834  1.3273
  180SOL    MW4  766   2.080   3.075   0.869  0.4132  0.3777 -0.0483
  181SOL     OW  767   2.087   3.619   0.770 -0.0668 -0.1745  0.0701
  181SOL    HW2  768   2.012   3.561   0.788 -0.0585  0.2243  1.4775
  181SOL    HW3  769   2.062   3.702   0.810  0.2242  0.5951 -1.3376
  181SOL    MW4  770   2.074   3.622   0.778 -0.0269 -0.0200  0.0700
  182SOL     OW  771   0.016   3.241   0.730  0.0458  0.1482  0.3441
  182SOL    HW2  772   0.081   3.177   0.759 -0.6748 -1.8671 -2.2932
  182SOL    HW3  773  -0.067   3.208   0.765 -0.1435  0.3715  0.1100
  182SOL    MW4  774   0.014   3.228   0.739 -0.0743 -0.0880 -0.0347
  183SOL     OW  775   3.523   1.909   0.387 -0.3512  0.3291 -0.2775
  183SOL    HW2  776   3.432   1.924   0.411 -0.5665 -0.9125 -0.2949
  183SOL    HW3  777   3.537   1.815   0.400  1.4032  0.7839  1.3244
  183SOL    MW4  778   3.513   1.898   0.392 -0.1483  0.2254 -0.0684
  184SOL     OW  779   0.596   0.177   0.500  0.0235 -0.0650 -0.0052
  184SOL    HW2  780   0.553   0.099   0.464 -0.5042  0.9551 -1.6293
  184SOL    HW3  781   0.688   0.166   0.477 -0.5219  1.2857 -3.0677
  184SOL    MW4  782   0.602   0.165   0.492 -0.1181  0.2478 -0.6235
  185SOL     OW  783   2.336   2.500   0.428 -0.7071  0.4580 -0.4136
  185SOL    HW2  784   2.416   2.456   0.398 -2.4813 -0.7092 -3.8172
  185SOL    HW3  785   2.359   2.592   0.434  1.4652 -0.1483  0.8607
  185SOL    MW4  786   2.349   2.506   0.425 -0.6547  0.2241 -0.6945
  186SOL     OW  787   2.073   2.367   1.157  0.1281  0.0760 -0.0424
  186SOL    HW2  788   2.068   2.279   1.194 -0.0297 -0.0112 -0.2644
  186SOL    HW3  789   2.151   2.405   1.196  0.3669 -0.2732 -0.1708
  186SOL    MW4  790   2.083   2.360   1.167  0.1388  0.0184 -0.0886
  187SOL     OW  791   2.040   0.566   0.487 -0.2069  0.0250  0.3523
  187SOL    HW2  792   2.036   0.559   0.582  1.7527  2.0899  0.6427
  187SOL    HW3  793   1.954   0.601   0.462 -0.5446 -0.0306  1.4137
  187SOL    MW4  794   2.028   0.570   0.496  0.0069  0.2901  0.5307
  188SOL     OW  795   3.670   2.681   0.838  0.2678  0.2486  0.0330
  188SOL    HW2  796   3.640   2.598   0.800 -1.3525  1.0367 -0.4571
  188SOL    HW3  797   3.657   2.670   0.932  0.3834 -0.1788  0.0025
  188SOL    MW4  798   3.664   2.668   0.845  0.0691  0.2964 -0.0357
  189SOL     OW  799   0.096   0.767   0.601 -0.6641 -0.0429  0.5329
  189SOL    HW2  800   0.020   0.718   0.568  0.9457 -1.5634 -1.0933
  189SOL    HW3  801   0.122   0.721   0.681 -1.1320  0.1491  0.7938
  189SOL    MW4  802   0.090   0.754   0.607 -0.5135 -0.2181  0.3528
  190SOL     OW  803   3.118   3.779   0.347 -0.2069  0.1048  0.5259
  190SOL    HW2  804   3.206   3.744   0.359 -0.1465  0.3482  0.8179
  190SOL    HW3  805   3.060   3.707   0.372 -0.0876  0.0752  0.7231
  190SOL    MW4  806   3.122   3.765   0.352 -0.1833  0.1330  0.5904
  191SOL     OW  807   0.698   0.003   0.825 -0.0700  0.4870 -0.5683
  191SOL    HW2  808   0.691  -0.087   0.793 -0.2808  0.0350  0.6855
  191SOL    HW3  809   0.674  -0.003   0.918  3.9593  1.1147  0.6044
  191SOL    MW4  810   0.694  -0.010   0.833  0.4338  0.5102 -0.2481
  192SOL     OW  811   3.243   1.911   0.521 -0.5952 -0.3993 -0.1836
  192SOL    HW2  812   3.262   1.956   0.604 -1.5932 -0.4311  0.0671
  192SOL    HW3  813   3.188   1.972   0.472 -0.3190 -0.5362 -0.6632
  192SOL    MW4  814   3.238   1.925   0.526 -0.6905 -0.4216 -0.2138
  193SOL     OW  815   2.348   0.939   0.454  0.4526 -0.0303 -0.3172
  193SOL    HW2  816   2.324   0.935   0.546  0.1330 -0.0043 -0.4001
  193SOL    HW3  817   2.444   0.940   0.455  0.4440  0.3741  0.0245
  193SOL    MW4  818   2.358   0.938   0.466  0.4091  0.0265 -0.2830
  194SOL     OW  819   3.434   2.814   0.794  0.2646  0.0884  0.2757
  194SOL    HW2  820   3.510   2.767   0.826  0.0627 -0.8031 -0.5261
  194SOL    HW3  821   3.436   2.803   0.699 -0.8573  0.0541  0.2405
  194SOL    MW4  822   3.444   2.807   0.786  0.0899 -0.0341  0.1652
  195SOL     OW  823   1.435   0.031   0.471 -0.3009 -0.1983 -0.1419
  195SOL    HW2  824   1.364  -0.030   0.448 -0.6630 -0.3793  1.4350
  195SOL    HW3  825   1.511  -0.005   0.426 -0.8023 -1.0703 -0.3298
  195SOL    MW4  826   1.435   0.018   0.462 -0.4150 -0.3372  0.0413
  196SOL     OW  827   1.172   3.074   0.692 -0.0790 -0.1777  0.1004
  196SOL    HW2  828   1.183   2.981   0.672 -1.9563 -0.5578  0.7509
  196SOL    HW3  829   1.097   3.077   0.751  0.0986  1.7398  0.2574
  196SOL    MW4  830   1.164   3.062   0.697 -0.3033  0.0250  0.2069
  197SOL     OW  831   3.160   2.435   0.746 -0.1079  0.1334 -0.3364
  197SOL    HW2  832   3.081   2.386   0.770  0.0850 -0.6212 -1.2247
  197SOL    HW3  833   3.158   2.438   0.650  1.7153 -1.2064 -0.4530
  197SOL    MW4  834   3.149   2.429   0.736  0.1583 -0.1428 -0.4690
  198SOL     OW  835   1.566   3.835   0.872  0.2676  0.4816 -0.0719
  198SOL    HW2  836   1.650   3.871   0.842 -0.0227  0.4626 -0.9418
  198SOL    HW3  837   1.501   3.897   0.839 -0.0989  0.1878  0.0988
  198SOL    MW4  838   1.568   3.848   0.863  0.1810  0.4401 -0.1642
  199SOL     OW  839   3.561   2.445   1.251 -0.4899 -0.0707  0.4412
  199SOL    HW2  840   3.584   2.459   1.343 -0.6029 -0.9644  0.6127
  199SOL    HW3  841   3.634   2.395   1.215 -1.3272 -1.4228  0.5544
  199SOL    MW4  842   3.574   2.440   1.259 -0.6156 -0.3669  0.4789
  200SOL     OW  843   3.591   2.337   0.313 -0.1670 -0.0503  0.2956
  200SOL    HW2  844   3.677   2.377   0.304  0.0487 -0.6266 -0.3115
  200SOL    HW3  845   3.600   2.253   0.268 -0.3607 -1.1400  2.2397
  200SOL    MW4  846   3.604   2.331   0.306 -0.1643 -0.2701  0.4720
  201SOL     OW  847   1.365   1.222   0.474  0.1138  0.2358 -0.2926
  201SOL    HW2  848   1.451   1.198   0.440  0.5248  0.6656  0.4529
  201SOL    HW3  849   1.358   1.316   0.458 -0.8305 -0.0495 -1.7059
  201SOL    MW4  850   1.375   1.231   0.467  0.0434  0.2549 -0.3807
  202SOL     OW  851   1.341   1.311   0.745 -0.4305  0.0873 -0.0942
  202SOL    HW2  852   1.321   1.267   0.662 -0.3576  0.7752 -0.4774
  202SOL    HW3  853   1.266   1.368   0.760  0.5131  1.5307 -0.7568
  202SOL    MW4  854   1.328   1.312   0.736 -0.2962  0.3685 -0.2323
  203SOL     OW  855   4.087   1.796   0.823  0.3835  0.1753 -0.2699
  203SOL    HW2  856   4.171   1.750   0.817  0.6816  0.4694  1.5039
  203SOL    HW3  857   4.024   1.728   0.846  0.8696  0.6631  2.6214
  203SOL    MW4  858   4.090   1.781   0.825  0.4873  0.2786  0.3456
  204SOL     OW  859   1.767   1.168   0.832  0.6655 -0.2910  0.2111
  204SOL    HW2  860   1.728   1.231   0.770  0.7727  0.1780  0.6202
  204SOL    HW3  861   1.861   1.185   0.828  0.4795  1.4961  2.3965
  204SOL    MW4  862   1.774   1.179   0.823  0.6551  0.0067  0.5534
  205SOL     OW  863   1.862   2.460   0.725 -0.0398  0.2448  0.3745
  205SOL    HW2  864   1.900   2.466   0.637 -1.5636  0.4139 -0.2768
  205SOL    HW3  865   1.926   2.407   0.774 -0.0202 -1.3429 -1.3072
  205SOL    MW4  866   1.876   2.454   0.720 -0.2381  0.0577  0.0667
  206SOL     OW  867   2.224   0.354   0.875  0.2875 -0.3974  0.5622
  206SOL    HW2  868   2.308   0.397   0.855 -0.4999 -0.2775 -2.7810
  206SOL    HW3  869   2.229   0.271   0.829 -1.5809 -0.2352  0.0674
  206SOL    MW4  870   2.236   0.349   0.867 -0.0629 -0.3602  0.0558
  207SOL     OW  871   1.578   2.092   0.734 -0.0387 -0.0143 -0.2250
  207SOL    HW2  872   1.584   2.172   0.786 -1.3413 -0.2408  0.2825
  207SOL    HW3  873   1.567   2.122   0.644  0.4621  0.3661 -0.1674
  207SOL    MW4  874   1.578   2.106   0.729 -0.1445  0.0060 -0.1504
  208SOL     OW  875   2.289   3.971   0.786 -0.0020 -0.0059 -0.2304
  208SOL    HW2  876   2.290   3.946   0.694 -0.0876 -0.2309 -0.1687
  208SOL    HW3  877   2.203   3.946   0.817  0.3210 -0.6830  0.1234
  208SOL    MW4  878   2.278   3.965   0.778  0.0293 -0.1247 -0.1755
  209SOL     OW  879   3.062   2.123   0.372  0.1518 -0.3753 -0.1286
  209SOL    HW2  880   3.070   2.141   0.279  0.5828 -0.1278 -0.0488
  209SOL    HW3  881   2.988   2.063   0.380 -1.3571  1.4134 -0.4074
  209SOL    MW4  882   3.054   2.118   0.361  0.0095 -0.1066 -0.1548
  210SOL     OW  883   3.876   1.350   0.812  0.3879 -0.4107 -0.0452
  210SOL    HW2  884   3.954   1.304   0.844 -0.0380 -0.1786  1.3809
  210SOL    HW3  885   3.803   1.291   0.833  0.1990 -0.7254 -1.5701
  210SOL    MW4  886   3.876   1.336   0.819  0.3068 -0.4216 -0.0582
  211SOL     OW  887   3.636   4.284   0.857 -0.3654  0.1821 -0.2292
  211SOL    HW2  888   3.558   4.328   0.821 -0.3080  1.0670  0.7181
  211SOL    HW3  889   3.626   4.192   0.830 -1.8507  0.2445  0.0903
  211SOL    MW4  890   3.624   4.278   0.848 -0.5536  0.3076 -0.0621
  212SOL     OW  891   2.030   2.195   0.483 -0.4351  0.1366  0.1070
  212SOL    HW2  892   2.060   2.285   0.499  1.1402 -0.5534  1.1189
  212SOL    HW3  893   2.019   2.158   0.571 -0.3493 -0.8963 -0.3178
  212SOL    MW4  894   2.033   2.202   0.497 -0.2155 -0.0906  0.1844
  213SOL     OW  895   2.600   2.083   0.469  0.1266 -0.0758  0.4609
  213SOL    HW2  896   2.547   2.091   0.549 -0.0062  1.9861  0.2159
  213SOL    HW3  897   2.615   2.174   0.442  0.8827 -0.7319 -1.3995
  213SOL    MW4  898   2.595   2.096   0.476  0.2086  0.1097  0.1831
  214SOL     OW  899   2.273   4.263   0.824  0.2241 -0.1593 -0.5570
  214SOL    HW2  900   2.298   4.171   0.821  0.6991 -0.0610  0.1179
  214SOL    HW3  901   2.342   4.309   0.776  0.4725 -0.0599 -0.1074
  214SOL    MW4  902   2.286   4.257   0.818  0.3195 -0.1330 -0.4086
  215SOL     OW  903   0.602   3.073   0.635  0.1784  0.0145  0.2434
  215SOL    HW2  904   0.524   3.127   0.643  0.6523  0.7597 -0.1199
  215SOL    HW3  905   0.569   2.983   0.638 -0.8241  0.3179 -1.0939
  215SOL    MW4  906   0.587   3.068   0.636  0.1087  0.1531  0.0190
  216SOL     OW  907   1.083   3.193   0.444  0.5379  0.0424  0.0625
  216SOL    HW2  908   1.100   3.163   0.533  0.7260 -1.1839 -0.3822
  216SOL    HW3  909   1.015   3.135   0.412  0.1244  0.7924 -0.4352
  216SOL    MW4  910   1.076   3.181   0.452  0.5081 -0.0203 -0.0618
  217SOL     OW  911   2.628   2.366   0.430 -0.3802 -0.4913 -0.1818
  217SOL    HW2  912   2.712   2.389   0.390 -0.2641 -1.4817 -0.5391
  217SOL    HW3  913   2.637   2.391   0.522  0.5149 -1.0884 -0.0980
  217SOL    MW4  914   2.640   2.372   0.437 -0.2470 -0.7007 -0.2179
  218SOL     OW  915   0.486   4.033   0.490 -0.1927 -0.5187  0.5699
  218SOL    HW2  916   0.577   4.009   0.474 -0.4029  0.0559 -1.6818
  218SOL    HW3  917   0.438   3.951   0.483 -0.0625 -0.5410 -0.1313
  218SOL    MW4  918   0.492   4.019   0.487 -0.2032 -0.4458  0.1803
  219SOL     OW  919   3.792   0.212   0.431  0.2855 -0.1509 -0.2226
  219SOL    HW2  920   3.811   0.190   0.522 -1.1863 -1.5694 -0.2358
  219SOL    HW3  921   3.701   0.242   0.432  0.5699  0.7504 -1.0790
  219SOL    MW4  922   3.783   0.213   0.443  0.1290 -0.2191 -0.3373
  220SOL     OW  923   3.859   4.413   0.767 -0.3530 -0.3450 -0.1929
  220SOL    HW2  924   3.841   4.413   0.673 -1.5780 -1.4820  0.0232
  220SOL    HW3  925   3.784   4.368   0.805  0.1858  0.0327  1.3237
  220SOL    MW4  926   3.847   4.407   0.759 -0.4437 -0.4449  0.0358
  221SOL     OW  927   3.222   3.221   0.801  0.3241  0.4210 -0.0075
  221SOL    HW2  928   3.311   3.185   0.807  0.7005  1.3188 -0.1091
  221SOL    HW3  929   3.203   3.222   0.707 -0.1715 -0.6724  0.0779
  221SOL    MW4  930   3.232   3.217   0.789  0.3083  0.3953 -0.0097
  222SOL     OW  931   0.261   4.568   0.611 -0.2962  0.1896 -0.2494
  222SOL    HW2  932   0.283   4.608   0.695 -1.0872  0.1868 -0.0435
  222SOL    HW3  933   0.257   4.474   0.630  0.3736  0.1108 -0.4775
  222SOL    MW4  934   0.264   4.561   0.624 -0.3122  0.1788 -0.2523
  223SOL     OW  935   0.334   2.819   0.888  0.2262  0.4098  0.0662
  223SOL    HW2  936   0.370   2.793   0.973 -0.5891 -2.2364 -0.3531
  223SOL    HW3  937   0.257   2.763   0.876 -2.0381  3.4939 -0.6483
  223SOL    MW4  938   0.328   2.808   0.898 -0.1801  0.4675 -0.0834
  224SOL     OW  939   4.364   0.596   0.577  0.5077  0.4085  0.0843
  224SOL    HW2  940   4.281   0.629   0.543  0.9065  0.8170 -0.5146
  224SOL    HW3  941   4.346   0.571   0.668 -0.6390 -0.9322 -0.5017
  224SOL    MW4  942   4.351   0.597   0.585  0.4091  0.2856 -0.0720
  225SOL     OW  943   0.231   3.896   0.871 -0.3337 -0.4214  0.2165
  225SOL    HW2  944   0.239   3.920   0.963  0.6648  0.4206 -0.0813
  225SOL    HW3  945   0.144   3.927   0.845 -1.3890 -2.3170  1.3432
  225SOL    MW4  946   0.220   3.903   0.880 -0.3412 -0.5605  0.3258
  226SOL     OW  947   4.303   4.433   0.745 -0.1472  0.1742 -0.3336
  226SOL    HW2  948   4.309   4.426   0.650  0.8668 -0.9357 -0.2026
  226SOL    HW3  949   4.368   4.371   0.778 -1.3956 -0.4090  1.0920
  226SOL    MW4  950   4.312   4.424   0.737 -0.1774 -0.0496 -0.1283
  227SOL     OW  951   3.672   4.666   0.308  0.2487 -0.2291 -0.2135
  227SOL    HW2  952   3.678   4.677   0.213  0.2821 -0.8925 -0.2865
  227SOL    HW3  953   3.711   4.746   0.343  1.1322 -0.4109 -0.7496
  227SOL    MW4  954   3.678   4.678   0.300  0.3698 -0.3405 -0.2938
  228SOL     OW  955   2.321   0.635   0.414  0.1364 -0.3077  0.2094
  228SOL    HW2  956   2.234   0.608   0.444 -0.1718 -0.1124 -0.4956
  228SOL    HW3  957   2.318   0.731   0.415 -0.3731 -0.2689 -1.7920
  228SOL    MW4  958   2.309   0.644   0.418  0.0286 -0.2769 -0.1477
  229SOL     OW  959   1.218   4.479   0.420  0.7267 -0.2997 -0.0954
  229SOL    HW2  960   1.131   4.501   0.389  0.8935 -0.0863 -0.4184
  229SOL    HW3  961   1.204   4.443   0.508  0.3706  0.2581  0.0811
  229SOL    MW4  962   1.205   4.477   0.428  0.7018 -0.1979 -0.1147
  230SOL     OW  963   2.090   3.699   0.475 -0.3664 -0.1139 -0.2814
  230SOL    HW2  964   1.999   3.705   0.446 -0.3839 -0.3472 -0.2784
  230SOL    HW3  965   2.085   3.668   0.565 -0.3292  1.0741  0.1348
  230SOL    MW4  966   2.078   3.695   0.483 -0.3636  0.0119 -0.2261
  231SOL     OW  967   0.319   1.725   0.453 -0.1208  0.2791  0.1975
  231SOL    HW2  968   0.404   1.742   0.412 -0.2680  1.3550  0.3329
  231SOL    HW3  969   0.279   1.658   0.398 -0.6675  2.2849 -1.9234
  231SOL    MW4  970   0.325   1.718   0.440 -0.2123  0.6857 -0.0645
  232SOL     OW  971   3.580   4.046   0.502  0.1310  0.1612 -0.5780
  232SOL    HW2  972   3.491   4.079   0.489 -0.1551 -0.7748 -1.0787
  232SOL    HW3  973   3.589   4.036   0.597  0.7567  3.0694 -0.2635
  232SOL    MW4  974   3.569   4.049   0.513  0.1757  0.4206 -0.6025
  233SOL     OW  975   2.487   1.511   0.907 -0.5567 -0.1294  0.3138
  233SOL    HW2  976   2.560   1.550   0.859 -1.2917  0.7982 -0.0600
  233SOL    HW3  977   2.412   1.566   0.885 -1.7556 -2.1269 -0.7542
  233SOL    MW4  978   2.487   1.523   0.898 -0.8118 -0.2705  0.1236
  234SOL     OW  979   0.217   4.308   0.665 -0.0364 -0.1320 -0.1357
  234SOL    HW2  980   0.301   4.300   0.710  0.4880 -1.1175 -1.2557
  234SOL    HW3  981   0.151   4.301   0.734  0.7784 -0.7141  0.5841
  234SOL    MW4  982   0.219   4.306   0.680  0.1403 -0.3390 -0.1884
  235SOL     OW  983   1.501   3.620   0.711 -0.3252  0.0242  0.1279
  235SOL    HW2  984   1.587   3.587   0.687  0.3065  1.1542  0.7771
  235SOL    HW3  985   1.519   3.697   0.765 -1.7272 -0.3251  1.1417
  235SOL    MW4  986   1.515   3.626   0.715 -0.4269  0.1271  0.3474
  236SOL     OW  987   0.109   2.668   0.900 -0.7391  0.2707  0.1084
  236SOL    HW2  988   0.149   2.584   0.876  0.7631  1.2888 -1.0869
  236SOL    HW3  989   0.066   2.698   0.819 -1.2634  0.6591  0.5269
  236SOL    MW4  990   0.109   2.661   0.886 -0.6101  0.4561  0.0060
  237SOL     OW  991   0.883   1.793   0.454  0.0933  0.0772 -0.1917
  237SOL    HW2  992   0.890   1.820   0.546 -0.4992  0.9790 -0.4052
  237SOL    HW3  993   0.896   1.698   0.456  0.3536  0.1305  0.7954
  237SOL    MW4  994   0.885   1.784   0.466  0.0495  0.2031 -0.0896
  238SOL     OW  995   4.024   0.937   0.787  0.1609 -0.3946 -0.2007
  238SOL    HW2  996   3.955   0.901   0.843  0.4128 -0.1091  0.3050
  238SOL    HW3  997   3.994   0.921   0.698 -0.6164 -0.1692  0.0173
  238SOL    MW4  998   4.011   0.930   0.783  0.0906 -0.3272 -0.1051
  239SOL     OW  999   1.540   0.771   0.801 -0.0791  0.2783  0.2067
  239SOL    HW2 1000   1.458   0.816   0.781  0.1822  1.0100  0.7736
  239SOL    HW3 1001   1.608   0.834   0.777  0.3299 -0.4346 -0.5307
  239SOL    MW4 1002   1.538   0.785   0.795  0.0093  0.2808  0.1842
  240SOL     OW 1003   4.278   3.106   0.865  0.0810  0.2481 -0.4688
  240SOL    HW2 1004   4.279   3.091   0.959  0.3134 -0.1098 -0.5250
  240SOL    HW3 1005   4.284   3.018   0.827 -2.8487  0.1529 -0.8189
  240SOL    MW4 1006   4.279   3.092   0.872 -0.2751  0.1881 -0.5224
  241SOL     OW 1007   0.291   0.952   0.396 -0.3137 -0.5151 -0.2941
  241SOL    HW2 1008   0.276   1.025   0.457  0.2219 -0.5959 -0.0641
  241SOL    HW3 1009   0.362   0.982   0.340 -1.2175 -0.1955 -1.2866
  241SOL    MW4 1010   0.298   0.966   0.397 -0.3623 -0.4836 -0.3947
  242SOL     OW 1011   1.893   3.072   0.494 -0.3855  0.0396 -0.3053
  242SOL    HW2 1012   1.910   3.152   0.444  1.4568 -1.6364 -2.4744
  242SOL    HW3 1013   1.888   3.101   0.585 -1.2778  2.8240 -1.1896
  242SOL    MW4 1014   1.895   3.086   0.499 -0.2602  0.1857 -0.7081
  243SOL     OW 1015   3.392   1.289   0.782 -0.1254 -0.1413 -0.3928
  243SOL    HW2 1016   3.472   1.237   0.793  0.9431  1.0875 -2.1126
  243SOL    HW3 1017   3.378   1.291   0.688 -2.0365 -0.0747 -0.1221
  243SOL    MW4 1018   3.401   1.282   0.771 -0.2365  0.0296 -0.5839
  244SOL     OW 1019   3.802   3.881   0.894  0.2253  0.2305 -0.1551
  244SOL    HW2 1020   3.809   3.788   0.874 -0.1575  0.4540 -1.4202
  244SOL    HW3 1021   3.885   3.919   0.864 -0.1010  0.4792 -0.7476
  244SOL    MW4 1022   3.814   3.874   0.887  0.1314  0.2928 -0.4002
  245SOL     OW 1023   3.190   1.088   0.405 -0.0039  0.0952  0.5506
  245SOL    HW2 1024   3.112   1.143   0.414  0.7946  1.3201 -0.0047
  245SOL    HW3 1025   3.159   1.000   0.429 -1.5289  0.5812  0.4462
  245SOL    MW4 1026   3.176   1.083   0.409 -0.0999  0.3209  0.4635
  246SOL     OW 1027   2.974   1.215   0.738  0.2200 -0.2326  0.0600
  246SOL    HW2 1028   3.045   1.172   0.786 -1.5613 -1.6907  1.4625
  246SOL    HW3 1029   2.973   1.305   0.772  0.7488 -0.4910  0.7641
  246SOL    MW4 1030   2.983   1.221   0.749  0.0548 -0.4591  0.3380
  247SOL     OW 1031   3.142   2.942   0.508 -0.2986 -0.0705  0.2616
  247SOL    HW2 1032   3.102   2.939   0.595 -1.3038 -1.2432 -0.2183
  247SOL    HW3 1033   3.215   2.880   0.512 -0.8322 -0.7199  0.0452
  247SOL    MW4 1034   3.146   2.933   0.520 -0.5016 -0.3109  0.1698
  248SOL     OW 1035   1.775   0.911   0.720  0.1137  0.3132 -0.2125
  248SOL    HW2 1036   1.784   0.995   0.765 -0.6732  0.0552  0.4547
  248SOL    HW3 1037   1.861   0.870   0.727  0.6167  1.2404 -0.9089
  248SOL    MW4 1038   1.787   0.917   0.727  0.0763  0.4015 -0.2164
  249SOL     OW 1039   1.198   2.062   0.716 -0.0671  0.2541  0.1835
  249SOL    HW2 1040   1.109   2.027   0.718  0.4446 -1.3109 -2.4415
  249SOL    HW3 1041   1.246   2.010   0.781 -0.0975 -1.7772 -1.3688
  249SOL    MW4 1042   1.193   2.051   0.725 -0.0037 -0.2203 -0.3676
  250SOL     OW 1043   4.064   3.221   1.232  0.0370 -0.2376 -0.1720
  250SOL    HW2 1044   3.976   3.189   1.210  0.0932 -0.9769  0.6630
  250SOL    HW3 1045   4.066   3.221   1.328 -0.0192  2.4421 -0.1440
  250SOL    MW4 1046   4.053   3.217   1.242  0.0367  0.0184 -0.0581
  251SOL     OW 1047   1.371   3.913   0.498  0.4279 -0.3266  0.0513
  251SOL    HW2 1048   1.341   3.823   0.510 -2.0990  0.4842  0.1389
  251SOL    HW3 1049   1.295   3.959   0.462  1.8143  1.6773 -0.4031
  251SOL    MW4 1050   1.357   3.908   0.495  0.2775  0.0448  0.0030
  252SOL     OW 1051   1.637   3.131   0.440  0.3704 -0.5769  0.7188
  252SOL    HW2 1052   1.732   3.127   0.452  0.7820 -0.8825 -2.2089
  252SOL    HW3 1053   1.609   3.039   0.437  0.7161 -0.6431 -3.1003
  252SOL    MW4 1054   1.646   3.118   0.441  0.4704 -0.6261 -0.1714
  253SOL     OW 1055   0.721   3.016   0.875  0.3627 -0.3731 -0.1365
  253SOL    HW2 1056   0.684   3.038   0.789 -1.4042 -1.0537  0.4090
  253SOL    HW3 1057   0.686   2.929   0.894  3.2147 -1.5549 -0.0525
  253SOL    MW4 1058   0.711   3.008   0.866  0.5059 -0.6185 -0.0534
  254SOL     OW 1059   0.102   4.231   0.418 -0.8388  0.2689 -0.2104
  254SOL    HW2 1060   0.154   4.278   0.483 -0.5271 -1.5382  0.8733
  254SOL    HW3 1061   0.015   4.270   0.425  0.1519  2.7532 -1.4677
  254SOL    MW4 1062   0.097   4.242   0.428 -0.6670  0.3576 -0.2334
  255SOL     OW 1063   1.866   4.525   0.475 -0.3082 -0.2249 -0.4785
  255SOL    HW2 1064   1.954   4.499   0.447 -0.7790 -1.0808 -1.1619
  255SOL    HW3 1065   1.839   4.457   0.536 -0.4444  0.1177 -0.1533
  255SOL    MW4 1066   1.874   4.513   0.480 -0.3883 -0.2928 -0.5257
  256SOL     OW 1067   2.076   2.878   0.457  0.2365 -0.6007 -0.0819
  256SOL    HW2 1068   2.090   2.871   0.551 -1.4110  0.3221  0.2534
  256SOL    HW3 1069   2.017   2.953   0.447  0.1440 -0.8850 -1.8171
  256SOL    MW4 1070   2.070   2.887   0.468  0.0069 -0.5167 -0.2666
  257SOL     OW 1071   0.912   4.153   0.309  0.1765  0.2921 -0.0479
  257SOL    HW2 1072   0.845   4.085   0.301  0.2031  0.0017  1.9142
  257SOL    HW3 1073   0.887   4.219   0.245  0.4130 -1.7653 -2.3439
  257SOL    MW4 1074   0.900   4.153   0.300  0.2113 -0.0181 -0.0919
  258SOL     OW 1075   0.259   1.163   0.563 -0.5079 -0.5095  0.2125
  258SOL    HW2 1076   0.272   1.166   0.658 -1.8337  1.6060  0.3531
  258SOL    HW3 1077   0.306   1.240   0.530 -1.8975  0.0115 -0.6050
  258SOL    MW4 1078   0.267   1.174   0.571 -0.8661 -0.1616  0.1232
  259SOL     OW 1079   1.930   3.349   0.424  0.0781  0.1165 -0.0569
  259SOL    HW2 1080   1.874   3.387   0.356 -1.5596 -3.2203 -0.6792
  259SOL    HW3 1081   1.884   3.368   0.506 -0.8796 -0.7515 -0.3868
  259SOL    MW4 1082   1.916   3.356   0.426 -0.2643 -0.4385 -0.1825
  260SOL     OW 1083   0.009   1.297   0.474 -0.0079 -0.1623 -0.1821
  260SOL    HW2 1084  -0.064   1.234   0.477 -1.1836  1.2137  2.4559
  260SOL    HW3 1085   0.087   1.243   0.485 -0.9777 -1.2438  1.7642
  260SOL    MW4 1086   0.010   1.281   0.476 -0.2910 -0.1234  0.4227
  261SOL     OW 1087   4.369   1.198   0.885 -0.0163  0.2313 -0.4414
  261SOL    HW2 1088   4.407   1.217   0.970  1.3906  0.1419 -1.0408
  261SOL    HW3 1089   4.275   1.186   0.902  0.3492 -0.3857  1.1751
  261SOL    MW4 1090   4.362   1.199   0.898  0.2174  0.1379 -0.3071
  262SOL     OW 1091   3.410   4.643   0.839  0.0574  0.1662  0.0121
  262SOL    HW2 1092   3.415   4.642   0.935 -1.0442 -1.4094  0.0785
  262SOL    HW3 1093   3.321   4.672   0.820  0.3535  0.7200 -0.5456
  262SOL    MW4 1094   3.399   4.646   0.849 -0.0489  0.0310 -0.0528
  263SOL     OW 1095   4.077   3.249   0.486 -0.3775  0.0562 -0.3064
  263SOL    HW2 1096   4.055   3.252   0.580 -2.8042  1.8435 -0.8701
  263SOL    HW3 1097   4.007   3.197   0.447 -0.7779  1.4584 -1.4736
  263SOL    MW4 1098   4.065   3.243   0.493 -0.7501  0.4771 -0.5348
  264SOL     OW 1099   1.174   2.325   0.824 -0.6514  0.0071  0.0241
  264SOL    HW2 1100   1.083   2.343   0.800 -1.0136 -2.2519 -0.4183
  264SOL    HW3 1101   1.196   2.246   0.774  1.0388 -0.3738  1.3489
  264SOL    MW4 1102   1.164   2.317   0.814 -0.4761 -0.3409  0.1405
  265SOL     OW 1103   1.323   3.376   0.381 -0.3446 -0.3150  0.3032
  265SOL    HW2 1104   1.384   3.363   0.453  0.8475 -2.3515 -1.0372
  265SOL    HW3 1105   1.257   3.308   0.393  0.3695 -1.2644 -1.0301
  265SOL    MW4 1106   1.322   3.366   0.392 -0.0930 -0.7093 -0.0496
  266SOL     OW 1107   2.104   1.573   0.402  0.2329  0.2026 -0.6870
  266SOL    HW2 1108   2.084   1.489   0.445 -0.6264 -0.0531 -1.5528
  266SOL    HW3 1109   2.164   1.617   0.462 -0.8673 -0.1837  0.7404
  266SOL    MW4 1110   2.109   1.568   0.416 -0.0255  0.1179 -0.6129
  267SOL     OW 1111   2.328   1.704   0.534  0.5244 -0.4269 -0.3810
  267SOL    HW2 1112   2.343   1.786   0.487  1.0063 -0.4303 -0.2276
  267SOL    HW3 1113   2.370   1.637   0.480 -0.1813 -0.6264 -0.6953
  267SOL    MW4 1114   2.335   1.706   0.520  0.4947 -0.4537 -0.4022
  268SOL     OW 1115   3.275   0.187   0.343  0.0759  0.2321 -0.2939
  268SOL    HW2 1116   3.358   0.223   0.375  1.1857 -1.0247 -1.6655
  268SOL    HW3 1117   3.230   0.157   0.421  0.7085  1.3669  0.5193
  268SOL    MW4 1118   3.280   0.188   0.357  0.3059  0.2160 -0.3676
  269SOL     OW 1119   4.380   0.001   0.853  0.1049  0.5629  0.6218
  269SOL    HW2 1120   4.358  -0.084   0.813 -1.4406  1.5984 -0.8191
  269SOL    HW3 1121   4.357  -0.010   0.945  0.7977 -0.8817  0.6414
  269SOL    MW4 1122   4.374  -0.012   0.860 -0.0072  0.5088  0.4343
  270SOL     OW 1123   1.361   3.991   0.761  0.3049 -0.5643 -0.0725
  270SOL    HW2 1124   1.359   3.951   0.674  2.5716 -1.2061  0.1356
  270SOL    HW3 1125   1.298   3.941   0.813 -0.8199 -0.3850 -1.2300
  270SOL    MW4 1126   1.352   3.979   0.756  0.4555 -0.6256 -0.1977
  271SOL     OW 1127   0.682   1.184   0.488 -0.4953  0.0520  0.2700
  271SOL    HW2 1128   0.666   1.096   0.454  0.7042 -0.4162  0.8681
  271SOL    HW3 1129   0.604   1.234   0.466 -1.1174 -1.1308 -0.2075
  271SOL    MW4 1130   0.670   1.179   0.481 -0.4191 -0.1659  0.2859
  272SOL     OW 1131   2.885   2.504   0.432  0.3343 -0.0591 -0.1749
  272SOL    HW2 1132   2.888   2.599   0.425 -1.4802 -0.0583 -1.1157
  272SOL    HW3 1133   2.858   2.488   0.522  1.5124  0.2943  0.2489
  272SOL    MW4 1134   2.882   2.514   0.443  0.2501 -0.0124 -0.2431
  273SOL     OW 1135   1.893   2.672   0.484 -0.5361 -0.2265  0.3233
  273SOL    HW2 1136   1.871   2.683   0.576 -0.2955 -2.3306  0.6613
  273SOL    HW3 1137   1.944   2.750   0.461 -1.1950  0.6342  1.7744
  273SOL    MW4 1138   1.897   2.684   0.493 -0.5912 -0.3908  0.5594
  274SOL     OW 1139   3.391   1.503   0.400  0.0853 -0.2813 -0.4944
  274SOL    HW2 1140   3.379   1.482   0.307 -0.6616  2.0546 -0.9624
  274SOL    HW3 1141   3.478   1.544   0.404 -0.2566  0.4439 -0.3351
  274SOL    MW4 1142   3.401   1.506   0.388 -0.0587  0.1225 -0.5352
  275SOL     OW 1143   1.823   1.327   0.308 -0.1214  0.4318 -0.3821
  275SOL    HW2 1144   1.750   1.265   0.315 -0.4835  1.0716  1.8433
  275SOL    HW3 1145   1.780   1.412   0.300  0.3896  0.6053 -1.3443
  275SOL    MW4 1146   1.808   1.330   0.308 -0.1017  0.5391 -0.2154
  276SOL     OW 1147   4.372   0.845   0.318 -0.1855  0.1400 -0.8735
  276SOL    HW2 1148   4.307   0.777   0.338  1.7662 -1.5316  0.0353
  276SOL    HW3 1149   4.355   0.914   0.383  0.1942 -1.1810  0.6836
  276SOL    MW4 1150   4.361   0.845   0.330  0.1216 -0.2548 -0.5482
  277SOL     OW 1151   1.116   1.044   0.439  0.4266  0.0948 -0.6020
  277SOL    HW2 1152   1.155   0.959   0.458  1.0463  0.1888 -1.3860
  277SOL    HW3 1153   1.191   1.103   0.428 -0.0366  1.1455  1.6896
  277SOL    MW4 1154   1.131   1.041   0.440  0.4473  0.2458 -0.4031
  278SOL     OW 1155   4.234   3.873   0.853  0.3380  0.1019  0.1434
  278SOL    HW2 1156   4.213   3.881   0.946  1.8366  0.9213  0.4218
  278SOL    HW3 1157   4.157   3.910   0.808 -0.0600  0.4111  1.0652
  278SOL    MW4 1158   4.221   3.879   0.859  0.4830  0.2506  0.3017
  279SOL     OW 1159   3.808   4.475   0.486 -0.1947  0.0893 -0.0412
  279SOL    HW2 1160   3.741   4.512   0.427  0.1323 -0.6702 -0.8933
  279SOL    HW3 1161   3.805   4.381   0.470 -0.4986 -0.1880  1.5861
  279SOL    MW4 1162   3.798   4.468   0.476 -0.1917 -0.0477  0.0611
  280SOL     OW 1163   2.031   0.269   0.402  0.2410  0.0675  0.0508
  280SOL    HW2 1164   2.031   0.360   0.430 -0.7016  0.4847 -1.2635
  280SOL    HW3 1165   1.939   0.244   0.401  0.4278 -0.6256 -0.4239
  280SOL    MW4 1166   2.019   0.278   0.405  0.1411  0.0311 -0.1853
  281SOL     OW 1167   3.559   2.461   0.699 -0.1630  0.5802 -0.2832
  281SOL    HW2 1168   3.519   2.466   0.613 -0.2930 -0.2432 -0.2764
  281SOL    HW3 1169   3.489   2.430   0.757  0.2481 -0.0751 -0.1212
  281SOL    MW4 1170   3.544   2.458   0.695 -0.1259  0.3850 -0.2609
  282SOL     OW 1171   1.275   0.873   0.794  0.2703  0.1953  0.4531
  282SOL    HW2 1172   1.211   0.814   0.835 -0.8694  0.6346 -0.6683
  282SOL    HW3 1173   1.265   0.858   0.701  0.4720  1.6724  0.1854
  282SOL    MW4 1174   1.265   0.863   0.787  0.1466  0.4482  0.2698
  283SOL     OW 1175   2.706   1.640   0.796  0.4929 -0.3893 -0.5883
  283SOL    HW2 1176   2.663   1.721   0.822 -0.9659 -1.5626  0.6776
  283SOL    HW3 1177   2.743   1.660   0.710  0.5430  1.7540 -0.0972
  283SOL    MW4 1178   2.706   1.653   0.788  0.3071 -0.2613 -0.3566
  284SOL     OW 1179   2.997   3.115   0.915  0.0308 -0.6561  0.5874
  284SOL    HW2 1180   2.989   3.028   0.875 -0.2918 -0.5432  0.4026
  284SOL    HW3 1181   3.071   3.155   0.869 -1.0156 -0.1270 -0.6486
  284SOL    MW4 1182   3.006   3.109   0.903 -0.1497 -0.5715  0.3999
  285SOL     OW 1183   0.003   4.271   0.833 -0.1181 -0.1412 -0.5152
  285SOL    HW2 1184  -0.014   4.179   0.811 -0.8203  0.0099 -0.6194
  285SOL    HW3 1185  -0.002   4.275   0.928 -1.1611  0.0006 -0.5788
  285SOL    MW4 1186   0.000   4.260   0.842 -0.3484 -0.1025 -0.5373
  286SOL     OW 1187   2.978   4.473   0.488  0.6147  0.1310  0.0622
  286SOL    HW2 1188   3.025   4.554   0.467  0.0575  0.1289 -1.2341
  286SOL    HW3 1189   2.895   4.480   0.442  0.6480 -1.2833 -0.2559
  286SOL    MW4 1190   2.973   4.484   0.479  0.5457 -0.0558 -0.1509
  287SOL     OW 1191   0.180   1.917   0.626 -0.2515  0.6111  0.0843
  287SOL    HW2 1192   0.212   1.851   0.564 -0.8339  1.7141 -1.4400
  287SOL    HW3 1193   0.132   1.867   0.692  0.4460 -0.6005 -0.3084
  287SOL    MW4 1194   0.178   1.902   0.626 -0.2363  0.5968 -0.1686
  288SOL     OW 1195   3.368   3.659   0.728  0.2021 -0.2888  0.0113
  288SOL    HW2 1196   3.362   3.736   0.784 -1.0370  0.7085 -1.4792
  288SOL    HW3 1197   3.305   3.598   0.765 -0.9938  0.5681 -0.5924
  288SOL    MW4 1198   3.359   3.661   0.740 -0.1194 -0.0441 -0.2650
  289SOL     OW 1199   2.011   4.658   0.789  0.0333 -0.0565  0.0458
  289SOL    HW2 1200   2.013   4.567   0.760  0.8822 -0.3066  0.8627
  289SOL    HW3 1201   2.100   4.690   0.776  0.1867  0.1280  1.4017
  289SOL    MW4 1202   2.023   4.650   0.784  0.1655 -0.0653  0.3324
  290SOL     OW 1203   3.642   1.146   0.464 -0.6993  0.1571 -0.4408
  290SOL    HW2 1204   3.572   1.198   0.503 -0.6505 -1.2646  1.6590
  290SOL    HW3 1205   3.719   1.203   0.468 -1.3108  1.0272 -0.9894
  290SOL    MW4 1206   3.643   1.161   0.470 -0.7737  0.0845 -0.2361
  291SOL     OW 1207   4.247   0.807   0.900  0.3516  0.0577 -0.3068
  291SOL    HW2 1208   4.322   0.840   0.850 -0.7963  0.2033 -1.9584
  291SOL    HW3 1209   4.170   0.839   0.853 -0.7569 -1.0357  0.7187
  291SOL    MW4 1210   4.247   0.815   0.887  0.0539 -0.0674 -0.3894
  292SOL     OW 1211   3.336   1.336   0.165 -0.1602  0.2734  0.0537
  292SOL    HW2 1212   3.248   1.329   0.126 -0.2071  0.0671  0.1976
  292SOL    HW3 1213   3.370   1.247   0.163  0.6117  0.5790 -1.3191
  292SOL    MW4 1214   3.329   1.324   0.159 -0.0644  0.2865 -0.1085
  293SOL     OW 1215   0.235   2.873   0.471  0.5773  0.0076  0.4817
  293SOL    HW2 1216   0.239   2.961   0.434 -0.1497  0.3568  1.2070
  293SOL    HW3 1217   0.269   2.816   0.403  0.3144  0.7708 -0.2895
  293SOL    MW4 1218   0.240   2.877   0.457  0.4467  0.1545  0.4756
  294SOL     OW 1219   2.265   0.117   0.481  0.7072  0.3141 -0.2566
  294SOL    HW2 1220   2.181   0.153   0.453  0.6492  0.2665 -0.1429
  294SOL    HW3 1221   2.330   0.169   0.433  0.5872 -0.3264 -1.1338
  294SOL    MW4 1222   2.263   0.129   0.471  0.6835  0.2233 -0.3573
  295SOL     OW 1223   0.470   1.549   0.780 -0.8247 -0.3035 -0.1881
  295SOL    HW2 1224   0.395   1.515   0.829  0.5386 -0.9091  1.5688
  295SOL    HW3 1225   0.479   1.639   0.811 -0.9401 -0.1825 -0.5153
  295SOL    MW4 1226   0.462   1.556   0.791 -0.6601 -0.3675  0.0005
  296SOL     OW 1227   3.181   0.818   0.486  0.1281  0.0316  0.2075
  296SOL    HW2 1228   3.172   0.814   0.581  2.0010 -0.4116  0.3855
  296SOL    HW3 1229   3.119   0.752   0.454  1.3428 -1.6690  1.2521
  296SOL    MW4 1230   3.171   0.808   0.494  0.5355 -0.2512  0.3688
  297SOL     OW 1231   2.497   4.375   0.410 -0.1708  0.2774  0.1103
  297SOL    HW2 1232   2.520   4.283   0.405  1.3263  0.5301  1.7570
  297SOL    HW3 1233   2.572   4.421   0.372 -0.3440  0.8630  0.4574
  297SOL    MW4 1234   2.510   4.369   0.404  0.0038  0.3877  0.3734
  298SOL     OW 1235   4.483   3.399   0.501 -0.0607  0.2791  0.2121
  298SOL    HW2 1236   4.477   3.340   0.576 -0.4444 -0.0251 -0.0545
  298SOL    HW3 1237   4.489   3.341   0.425  2.2970  0.5669  0.1302
  298SOL    MW4 1238   4.483   3.384   0.501  0.1998  0.2773  0.1661
  299SOL     OW 1239   4.198   2.374   0.556  0.4874  0.1032 -0.4301
  299SOL    HW2 1240   4.284   2.404   0.526  0.3043 -0.3435 -1.4334
  299SOL    HW3 1241   4.195   2.282   0.531 -0.0314 -0.0498  0.1849
  299SOL    MW4 1242   4.209   2.366   0.548  0.3948  0.0241 -0.4813
  300SOL     OW 1243   2.445   1.585   0.300 -0.2302 -0.0156  0.0920
  300SOL    HW2 1244   2.386   1.525   0.255  2.2668 -0.2952 -3.0321
  300SOL    HW3 1245   2.427   1.671   0.261  1.1361 -0.0481 -0.6553
  300SOL    MW4 1246   2.435   1.589   0.289  0.2797 -0.0567 -0.4188
  301SOL     OW 1247   4.453   2.489   0.526  0.1623 -0.2900 -0.0415
  301SOL    HW2 1248   4.461   2.424   0.596 -1.0528  0.3217  0.6702
  301SOL    HW3 1249   4.459   2.573   0.570 -2.1650  0.1201 -0.4556
  301SOL    MW4 1250   4.455   2.491   0.541 -0.3047 -0.1552 -0.0023
  302SOL     OW 1251   0.468   4.007   0.768 -0.0172  0.1947 -0.3640
  302SOL    HW2 1252   0.383   3.963   0.781  0.1126  0.1581  0.3861
  302SOL    HW3 1253   0.479   4.010   0.673 -0.9528  0.3679 -0.4777
  302SOL    MW4 1254   0.458   4.002   0.757 -0.1235  0.2122 -0.2800
  303SOL     OW 1255   2.616   0.939   0.501  0.1175  0.0838  0.4187
  303SOL    HW2 1256   2.663   0.872   0.451 -0.1425 -0.5025  0.9534
  303SOL    HW3 1257   2.650   1.022   0.467 -0.3288 -0.2964 -0.9858
  303SOL    MW4 1258   2.627   0.941   0.490  0.0243 -0.0437  0.3040
  304SOL     OW 1259   2.680   3.177   0.398  0.5762  0.0398  0.1054
  304SOL    HW2 1260   2.614   3.246   0.405  0.1322 -0.4373  0.6014
  304SOL    HW3 1261   2.758   3.214   0.440  0.3631  0.2706  0.2939
  304SOL    MW4 1262   2.682   3.191   0.404  0.4900  0.0072  0.1957
  305SOL     OW 1263   0.954   1.171   0.858 -0.1869 -0.1613 -0.3528
  305SOL    HW2 1264   0.951   1.215   0.773 -1.4911 -0.4894 -0.4954
  305SOL    HW3 1265   1.046   1.172   0.883 -0.0806  1.9356 -0.7286
  305SOL    MW4 1266   0.966   1.177   0.850 -0.3450  0.0720 -0.4212
  306SOL     OW 1267   0.955   4.527   0.360 -0.3782  0.1345  0.2000
  306SOL    HW2 1268   0.940   4.619   0.385 -0.3502  0.4952 -1.0694
  306SOL    HW3 1269   0.901   4.477   0.420  0.0562  0.9577  1.2913
  306SOL    MW4 1270   0.945   4.533   0.371 -0.3172  0.2909  0.1765
  307SOL     OW 1271   3.398   0.512   0.790 -0.0175 -0.0781 -0.1309
  307SOL    HW2 1272   3.421   0.515   0.697  0.0685  0.8397 -0.0825
  307SOL    HW3 1273   3.413   0.601   0.821 -0.5458 -0.2590  0.6478
  307SOL    MW4 1274   3.403   0.524   0.782 -0.0756  0.0192 -0.0218
  308SOL     OW 1275   3.833   0.561   0.846  0.2942  0.3098  0.7988
  308SOL    HW2 1276   3.762   0.500   0.868  0.2461 -0.2284 -0.7621
  308SOL    HW3 1277   3.913   0.509   0.852  0.3883  0.4589  0.8427
  308SOL    MW4 1278   3.834   0.546   0.849  0.3004  0.2585  0.5987
  309SOL     OW 1279   0.367   0.536   0.562  0.2327 -0.3400 -0.1980
  309SOL    HW2 1280   0.450   0.512   0.520  0.0337 -2.0542  0.3167
  309SOL    HW3 1281   0.381   0.514   0.654 -0.6740 -0.2921 -0.0480
  309SOL    MW4 1282   0.380   0.530   0.569  0.0868 -0.5597 -0.1104
  310SOL     OW 1283   2.519   2.808   0.700  0.3361 -0.0970 -0.0005
  310SOL    HW2 1284   2.524   2.896   0.738 -0.7193 -0.9920  2.2729
  310SOL    HW3 1285   2.465   2.819   0.621 -1.5871  0.9217  1.4376
  310SOL    MW4 1286   2.513   2.821   0.694 -0.0567 -0.0806  0.4892
  311SOL     OW 1287   0.873   0.892   0.799 -0.4834 -0.3148  0.2011
  311SOL    HW2 1288   0.910   0.975   0.830 -1.1569 -0.4057  1.2481
  311SOL    HW3 1289   0.937   0.826   0.826  0.1554 -0.1354 -0.8122
  311SOL    MW4 1290   0.887   0.894   0.806 -0.4879 -0.3031  0.2056
  312SOL     OW 1291   2.736   3.956   0.753  0.5394  0.3571  0.2666
  312SOL    HW2 1292   2.732   3.967   0.658 -0.4405  0.0026  0.2570
  312SOL    HW3 1293   2.722   4.044   0.788  1.1655  0.5328  0.0831
  312SOL    MW4 1294   2.733   3.969   0.746  0.4926  0.3335  0.2411
  313SOL     OW 1295   0.737   2.728   0.879  0.2877 -0.1146 -0.6292
  313SOL    HW2 1296   0.768   2.725   0.970 -0.9700 -2.0193 -0.2451
  313SOL    HW3 1297   0.817   2.717   0.827  0.9865  0.7581  0.2243
  313SOL    MW4 1298   0.752   2.726   0.884  0.2139 -0.2508 -0.4659
  314SOL     OW 1299   2.703   0.899   0.754 -0.5599 -0.4745  0.5307
  314SOL    HW2 1300   2.687   0.923   0.663  0.5038 -2.1985 -0.1489
  314SOL    HW3 1301   2.709   0.982   0.801 -1.5786  0.4115 -0.8917
  314SOL    MW4 1302   2.702   0.913   0.748 -0.5541 -0.5850  0.2533
  315SOL     OW 1303   3.154   4.255   0.834 -0.4530  0.3553 -0.3093
  315SOL    HW2 1304   3.244   4.281   0.817 -0.0077 -0.6773  0.3771
  315SOL    HW3 1305   3.156   4.159   0.833 -1.3166  0.3022  0.8089
  315SOL    MW4 1306   3.166   4.245   0.832 -0.5081  0.2122 -0.0712
  316SOL     OW 1307   3.977   1.826   0.570  0.4263 -0.2196 -0.1935
  316SOL    HW2 1308   4.008   1.812   0.659  0.2181 -2.3628 -0.4255
  316SOL    HW3 1309   3.898   1.879   0.580  0.6705 -0.0407  0.8600
  316SOL    MW4 1310   3.971   1.831   0.583  0.4308 -0.4787 -0.0851
  317SOL     OW 1311   0.975   3.115   0.885 -0.0171 -0.2241  0.0932
  317SOL    HW2 1312   0.889   3.079   0.864  0.0275  0.2814 -0.9391
  317SOL    HW3 1313   0.960   3.209   0.898  0.5742  0.0502 -1.1968
  317SOL    MW4 1314   0.962   3.123   0.884  0.0668 -0.1211 -0.2132
  318SOL     OW 1315   0.709   1.419   0.877  0.4983  0.1125  0.0607
  318SOL    HW2 1316   0.712   1.452   0.967  0.1339 -0.4612  0.2878
  318SOL    HW3 1317   0.630   1.459   0.839  0.9797  0.8337 -0.2011
  318SOL    MW4 1318   0.699   1.429   0.884  0.5137  0.1320  0.0561
  319SOL     OW 1319   1.615   3.081   0.838  0.0903 -0.0089 -0.3052
  319SOL    HW2 1320   1.542   3.143   0.832  0.3630  0.3289 -0.1462
  319SOL    HW3 1321   1.618   3.058   0.931  0.7208  0.6199 -0.1724
  319SOL    MW4 1322   1.606   3.086   0.849  0.2096  0.1187 -0.2667
  320SOL     OW 1323   4.274   2.901   0.661 -0.2207 -0.3920 -0.3933
  320SOL    HW2 1324   4.189   2.856   0.664 -0.0546 -0.6621  0.4266
  320SOL    HW3 1325   4.264   2.966   0.591 -0.7038 -1.2158 -1.1095
  320SOL    MW4 1326   4.261   2.903   0.652 -0.2618 -0.5364 -0.3796
  321SOL     OW 1327   0.051   3.957   0.488  0.4502 -0.1307  0.4610
  321SOL    HW2 1328   0.056   4.049   0.462  0.1727 -0.1732  0.2612
  321SOL    HW3 1329  -0.030   3.925   0.450  0.1868 -0.2700  1.1234
  321SOL    MW4 1330   0.041   3.965   0.480  0.3788 -0.1545  0.5220
  322SOL     OW 1331   3.396   1.253   0.520  0.3648  0.5473  0.1159
  322SOL    HW2 1332   3.326   1.200   0.481  1.6058 -0.1552 -1.1670
  322SOL    HW3 1333   3.390   1.337   0.474 -0.2632  0.8304  0.7024
  322SOL    MW4 1334   3.386   1.257   0.509  0.4456  0.4919  0.0241
  323SOL     OW 1335   2.721   1.167   0.832  0.2445 -0.4231  0.3865
  323SOL    HW2 1336   2.729   1.178   0.927  2.0927  1.0298  0.0940
  323SOL    HW3 1337   2.804   1.200   0.797 -0.3773 -1.0415 -1.7285
  323SOL    MW4 1338   2.733   1.173   0.840  0.4063 -0.3130  0.0688
  324SOL     OW 1339   1.361   1.666   0.793  0.6504  0.2546  0.0696
  324SOL    HW2 1340   1.376   1.746   0.843 -1.2745  1.2215 -0.8434
  324SOL    HW3 1341   1.440   1.614   0.805  1.1393  1.4763  2.2209
  324SOL    MW4 1342   1.373   1.670   0.801  0.4610  0.5434  0.2330
  325SOL     OW 1343   0.788   3.858   0.634  0.3317  0.1270 -0.5141
  325SOL    HW2 1344   0.751   3.831   0.717  1.3443  1.0733  0.2622
  325SOL    HW3 1345   0.854   3.791   0.615 -0.7841 -0.7987 -1.2160
  325SOL    MW4 1346   0.792   3.845   0.642  0.3181  0.1297 -0.5043
  326SOL     OW 1347   4.308   3.625   0.490 -0.8669  0.0109  0.1949
  326SOL    HW2 1348   4.362   3.548   0.471 -1.2371 -0.1694 -0.1417
  326SOL    HW3 1349   4.310   3.633   0.585  1.9497  1.6066  0.0535
  326SOL    MW4 1350   4.315   3.616   0.500 -0.5441  0.1976  0.1318
  327SOL     OW 1351   0.911   2.961   0.376 -0.4222  0.3400 -0.0084
  327SOL    HW2 1352   0.974   2.907   0.330 -0.5592  0.3173 -0.1674
  327SOL    HW3 1353   0.852   2.899   0.418 -1.8363  0.3741 -1.9042
  327SOL    MW4 1354   0.912   2.946   0.376 -0.6267  0.3412 -0.2795
  328SOL     OW 1355   1.797   2.068   0.395  0.0533 -0.0508  0.0325
  328SOL    HW2 1356   1.866   2.128   0.423  1.2913 -1.9870  1.2651
  328SOL    HW3 1357   1.830   2.029   0.314 -0.7995  0.9798 -0.8281
  328SOL    MW4 1358   1.811   2.071   0.388  0.1042 -0.1705  0.0816
  329SOL     OW 1359   0.633   1.172   0.764  0.0918  0.1197  0.2492
  329SOL    HW2 1360   0.653   1.176   0.670  0.0340  0.5797  0.2560
  329SOL    HW3 1361   0.664   1.256   0.799 -1.3809  0.6448  0.3521
  329SOL    MW4 1362   0.640   1.184   0.756 -0.1101  0.2497  0.2638
  330SOL     OW 1363   4.481   4.007   0.774  0.0463 -0.0160  0.7531
  330SOL    HW2 1364   4.401   3.958   0.797 -1.6617  1.5615 -1.5901
  330SOL    HW3 1365   4.497   3.984   0.683  0.9281  1.4851  0.5212
  330SOL    MW4 1366   4.473   3.997   0.765 -0.0634  0.3908  0.4134
  331SOL     OW 1367   2.235   1.166   0.890  0.4753 -0.1533 -0.1693
  331SOL    HW2 1368   2.321   1.203   0.867 -0.4299  2.3536  0.3027
  331SOL    HW3 1369   2.240   1.152   0.984  0.1301  0.7159 -0.0134
  331SOL    MW4 1370   2.247   1.169   0.899  0.3102  0.2921 -0.0864
  332SOL     OW 1371   3.593   3.255   0.540  0.3145  0.1136  0.0775
  332SOL    HW2 1372   3.512   3.302   0.522 -0.0802 -0.8541 -0.7468
  332SOL    HW3 1373   3.660   3.302   0.491 -0.0015  0.0832 -0.3850
  332SOL    MW4 1374   3.591   3.267   0.531  0.2208 -0.0181 -0.0923
  333SOL     OW 1375   2.907   2.030   0.756  0.1677  0.5630  0.5231
  333SOL    HW2 1376   2.898   2.012   0.662 -0.7403 -0.5636  0.8144
  333SOL    HW3 1377   2.995   2.001   0.778  0.5485  1.2480 -0.0690
  333SOL    MW4 1378   2.917   2.024   0.746  0.0985  0.5047  0.4833
  334SOL     OW 1379   2.501   3.080   0.811  0.6469 -0.3804 -0.1818
  334SOL    HW2 1380   2.488   3.085   0.906  0.9810 -0.0451 -0.1530
  334SOL    HW3 1381   2.594   3.100   0.798  0.4952  0.0486 -0.6175
  334SOL    MW4 1382   2.511   3.083   0.822  0.6709 -0.2794 -0.2355
  335SOL     OW 1383   2.995   2.883   0.773  0.3166 -0.3302 -0.2618
  335SOL    HW2 1384   2.910   2.838   0.766  0.1254  0.2312 -1.6321
  335SOL    HW3 1385   3.056   2.813   0.798 -0.0359 -1.3371 -2.0737
  335SOL    MW4 1386   2.991   2.868   0.775  0.2451 -0.3889 -0.6816
  336SOL     OW 1387   4.029   2.760   0.650  0.2361  0.8714 -0.1064
  336SOL    HW2 1388   4.023   2.696   0.579  2.2322  0.9530 -0.3680
  336SOL    HW3 1389   3.948   2.811   0.642 -0.8713 -0.8928 -0.5713
  336SOL    MW4 1390   4.017   2.758   0.639  0.3533  0.6495 -0.2023
  337SOL     OW 1391   2.491   4.379   0.700 -0.2183 -0.1697 -0.2850
  337SOL    HW2 1392   2.556   4.316   0.732 -0.9381  0.1793  1.9343
  337SOL    HW3 1393   2.481   4.357   0.607  1.1813 -1.8737 -0.0723
  337SOL    MW4 1394   2.498   4.368   0.692 -0.1287 -0.3490  0.0359
  338SOL     OW 1395   4.318   1.617   0.852 -0.3027 -0.1193 -0.3078
  338SOL    HW2 1396   4.362   1.551   0.799  0.9433 -0.5911  1.2756
  338SOL    HW3 1397   4.300   1.573   0.935  0.9482  1.6552  0.9424
  338SOL    MW4 1398   4.321   1.602   0.856  0.0267  0.0527  0.0660
  339SOL     OW 1399   3.570   1.912   0.817  0.0221 -0.5629  0.0042
  339SOL    HW2 1400   3.602   1.934   0.730 -0.6329 -2.1869 -0.6662
  339SOL    HW3 1401   3.479   1.940   0.818  0.2805  0.2940  0.5000
  339SOL    MW4 1402   3.562   1.919   0.806 -0.0303 -0.6640 -0.0190
  340SOL     OW 1403   0.469   0.162   0.771 -0.0012 -0.0665 -0.0568
  340SOL    HW2 1404   0.551   0.114   0.786  1.0861  2.1593  1.4373
  340SOL    HW3 1405   0.475   0.193   0.681  0.1086 -1.1550 -0.4340
  340SOL    MW4 1406   0.480   0.160   0.761  0.1567  0.0835  0.0905
  341SOL     OW 1407   1.776   0.421   0.831 -0.3215 -0.3580  0.2599
  341SOL    HW2 1408   1.699   0.457   0.786 -0.4153  1.0346  1.4881
  341SOL    HW3 1409   1.791   0.336   0.789 -0.5125  0.7976 -2.2869
  341SOL    MW4 1410   1.768   0.415   0.819 -0.3591 -0.0218  0.0859
  342SOL     OW 1411   4.160   0.690   0.424 -0.2764 -0.0647 -0.0983
  342SOL    HW2 1412   4.126   0.604   0.402 -2.0057  0.3077  0.9998
  342SOL    HW3 1413   4.085   0.737   0.460  0.5578  2.0077 -0.9704
  342SOL    MW4 1414   4.146   0.685   0.426 -0.3943  0.2578 -0.0685
  343SOL     OW 1415   3.577   0.164   0.712  0.0392 -0.0606 -0.2299
  343SOL    HW2 1416   3.594   0.228   0.781 -0.4032 -0.2940  0.0993
  343SOL    HW3 1417   3.511   0.106   0.749 -0.1391 -0.2382 -0.8211
  343SOL    MW4 1418   3.571   0.165   0.726 -0.0427 -0.1149 -0.2644
  344SOL     OW 1419   0.437   2.022   0.688 -0.0435  0.1473 -0.0092
  344SOL    HW2 1420   0.435   2.110   0.726  0.8606 -0.0604  0.5525
  344SOL    HW3 1421   0.347   2.003   0.664 -0.0470  1.7672 -1.3719
  344SOL    MW4 1422   0.425   2.031   0.689  0.0753  0.3335 -0.1148
  345SOL     OW 1423   0.647   2.439   0.878 -0.0273  0.0234  0.0848
  345SOL    HW2 1424   0.640   2.535   0.886 -2.1195 -0.1677  0.9676
  345SOL    HW3 1425   0.653   2.409   0.968 -2.3103 -0.8519 -0.0372
  345SOL    MW4 1426   0.647   2.448   0.891 -0.6046 -0.1173  0.1851
  346SOL     OW 1427   2.030   0.526   0.762  0.1078 -0.0348 -0.0018
  346SOL    HW2 1428   2.095   0.473   0.808 -0.5228 -0.3337  0.5651
  346SOL    HW3 1429   1.946   0.494   0.795 -0.2470  2.2944  1.4592
  346SOL    MW4 1430   2.027   0.515   0.773 -0.0222  0.2331  0.2658
  347SOL     OW 1431   0.193   1.494   0.336 -0.0505 -0.3042 -0.0121
  347SOL    HW2 1432   0.126   1.523   0.274 -0.3346  0.2387  0.5458
  347SOL    HW3 1433   0.145   1.448   0.405  0.2236 -0.5732  0.0019
  347SOL    MW4 1434   0.178   1.491   0.337 -0.0518 -0.2680  0.0633
  348SOL     OW 1435   0.966   3.428   0.550  0.4269  0.3857 -0.4351
  348SOL    HW2 1436   1.009   3.346   0.527  0.2676 -0.3443  1.7928
  348SOL    HW3 1437   0.872   3.409   0.541  0.3335 -0.1218  1.4262
  348SOL    MW4 1438   0.959   3.415   0.546  0.3935  0.2222  0.1044
  349SOL     OW 1439   1.363   4.253   0.329  0.1271  0.0185 -0.1994
  349SOL    HW2 1440   1.323   4.253   0.241  1.5451 -0.7320 -0.8625
  349SOL    HW3 1441   1.328   4.332   0.371 -1.6063 -0.3212 -0.9550
  349SOL    MW4 1442   1.353   4.264   0.323  0.0855 -0.1254 -0.3866
  350SOL     OW 1443   0.475   3.582   0.464 -0.6556  0.5070  0.3477
  350SOL    HW2 1444   0.401   3.523   0.482 -0.2510  0.1399  0.7915
  350SOL    HW3 1445   0.434   3.666   0.445 -1.2067  0.2334  0.3149
  350SOL    MW4 1446   0.460   3.585   0.464 -0.6749  0.4225  0.4019
  351SOL     OW 1447   3.740   0.532   0.585 -1.0188 -0.4987 -0.5064
  351SOL    HW2 1448   3.815   0.543   0.527 -0.7343  1.0297  0.1247
  351SOL    HW3 1449   3.774   0.551   0.672 -1.4959 -2.5752  0.1492
  351SOL    MW4 1450   3.754   0.536   0.589 -1.0445 -0.5710 -0.3366
  352SOL     OW 1451   0.015   2.296   0.727  0.1706 -0.1666 -0.6632
  352SOL    HW2 1452  -0.015   2.220   0.776 -0.8077  0.9406  0.5082
  352SOL    HW3 1453   0.088   2.331   0.777 -0.6213  0.7768 -0.1365
  352SOL    MW4 1454   0.020   2.291   0.740 -0.0629  0.1040 -0.4392
  353SOL     OW 1455   2.013   0.798   0.806  0.0108 -0.5063  0.0382
  353SOL    HW2 1456   2.028   0.706   0.788  0.7833 -0.3671 -0.0637
  353SOL    HW3 1457   2.025   0.807   0.901  0.7591 -0.3685 -0.0632
  353SOL    MW4 1458   2.017   0.787   0.816  0.2117 -0.4698  0.0114
  354SOL     OW 1459   1.692   1.582   0.297  0.4037  0.3410  0.0803
  354SOL    HW2 1460   1.723   1.655   0.350  1.1934 -0.0598  0.1868
  354SOL    HW3 1461   1.610   1.555   0.338  0.6561  0.4800  0.6822
  354SOL    MW4 1462   1.685   1.588   0.309  0.5413  0.3065  0.1737
  355SOL     OW 1463   4.059   0.140   0.322  0.5886  0.0494 -0.0813
  355SOL    HW2 1464   3.966   0.163   0.321  0.3294 -0.8780  1.6578
  355SOL    HW3 1465   4.062   0.051   0.357  2.0055 -0.5885 -1.7393
  355SOL    MW4 1466   4.047   0.132   0.326  0.7415 -0.1572 -0.0706
  356SOL     OW 1467   3.826   3.094   0.889 -0.1920  0.1254  0.0537
  356SOL    HW2 1468   3.763   3.162   0.866  0.6133  1.1685  0.8826
  356SOL    HW3 1469   3.908   3.123   0.848  0.3406  0.0593  1.0720
  356SOL    MW4 1470   3.829   3.107   0.880 -0.0155  0.2542  0.2974
  357SOL     OW 1471   1.144   1.494   0.835 -0.0402  0.1061  0.0470
  357SOL    HW2 1472   1.058   1.535   0.827  0.4297  1.0859 -0.0681
  357SOL    HW3 1473   1.205   1.560   0.802  0.7516 -0.5897  0.1109
  357SOL    MW4 1474   1.141   1.509   0.830  0.1264  0.1436  0.0403
  358SOL     OW 1475   0.879   0.160   0.460  0.2969 -0.2395 -0.1177
  358SOL    HW2 1476   0.914   0.143   0.548 -0.3047  1.0545  0.3747
  358SOL    HW3 1477   0.951   0.205   0.415 -0.6381  2.3133  0.8582
  358SOL    MW4 1478   0.893   0.163   0.466  0.0942  0.2681  0.0761
  359SOL     OW 1479   1.393   0.077   0.738  0.1509  0.1023 -0.1267
  359SOL    HW2 1480   1.390   0.067   0.643 -0.2925 -2.5055  0.1156
  359SOL    HW3 1481   1.474   0.033   0.764  0.6281  1.4197  0.6557
  359SOL    MW4 1482   1.403   0.070   0.729  0.1554 -0.0679  0.0085
  360SOL     OW 1483   4.435   0.421   0.356  0.1967  0.3748 -0.4059
  360SOL    HW2 1484   4.353   0.419   0.306 -1.2028 -1.1430  1.8784
  360SOL    HW3 1485   4.414   0.473   0.433  1.0942 -0.8632  0.6883
  360SOL    MW4 1486   4.421   0.428   0.359  0.1307  0.0111  0.0398
  361SOL     OW 1487   4.160   2.820   0.320  0.0376  0.3182 -0.7859
  361SOL    HW2 1488   4.238   2.779   0.282  0.1288 -0.8396  0.6248
  361SOL    HW3 1489   4.112   2.748   0.361 -0.6029  1.3681  0.3530
  361SOL    MW4 1490   4.164   2.805   0.320 -0.0343  0.3042 -0.4495
  362SOL     OW 1491   2.024   2.085   0.748 -0.0327  0.5846  0.5231
  362SOL    HW2 1492   2.027   2.172   0.788 -0.2770  0.9101 -0.1534
  362SOL    HW3 1493   2.109   2.047   0.768 -0.0239  0.8809  1.0516
  362SOL    MW4 1494   2.036   2.092   0.756 -0.0637  0.6666  0.5036
  363SOL     OW 1495   0.044   4.638   0.431 -0.0083  0.0176 -0.7805
  363SOL    HW2 1496   0.103   4.621   0.504 -0.3919  1.7275 -0.0640
  363SOL    HW3 1497   0.097   4.689   0.369 -0.2534  0.1628 -0.8708
  363SOL    MW4 1498   0.059   4.643   0.432 -0.0913  0.2627 -0.6979
  364SOL     OW 1499   4.063   0.388   0.860  0.1917 -0.0946  0.0070
  364SOL    HW2 1500   4.022   0.311   0.821 -0.5053  0.1144  0.3175
  364SOL    HW3 1501   4.055   0.374   0.954 -2.8219  1.8223  0.1311
  364SOL    MW4 1502   4.056   0.376   0.867 -0.2975  0.1859  0.0644
  365SOL     OW 1503   3.719   2.227   0.642 -0.0996 -0.5394  0.4719
  365SOL    HW2 1504   3.653   2.297   0.640 -0.4123 -0.8595 -0.4879
  365SOL    HW3 1505   3.774   2.249   0.717 -0.7981  0.1932  0.7772
  365SOL    MW4 1506   3.718   2.239   0.651 -0.2329 -0.4849  0.3856
  366SOL     OW 1507   1.769   0.211   0.430 -0.0979  0.0512 -0.0716
  366SOL    HW2 1508   1.761   0.194   0.524  0.0262  2.4732  0.4083
  366SOL    HW3 1509   1.726   0.136   0.389 -1.6065 -0.2438  1.9535
  366SOL    MW4 1510   1.762   0.199   0.437 -0.2806  0.3318  0.2589
  367SOL     OW 1511   4.017   4.020   0.786  0.0015  0.2034 -0.2489
  367SOL    HW2 1512   4.032   4.022   0.692  1.2448  0.2574 -0.0595
  367SOL    HW3 1513   4.034   4.109   0.816  0.9539 -0.1200  0.2101
  367SOL    MW4 1514   4.022   4.032   0.777  0.2913  0.1678 -0.1634
  368SOL     OW 1515   1.650   3.920   0.467 -0.1304  0.0171 -0.8931
  368SOL    HW2 1516   1.688   3.835   0.447 -0.0867 -0.1411 -0.1392
  368SOL    HW3 1517   1.556   3.906   0.465 -0.1150 -0.1383 -0.3506
  368SOL    MW4 1518   1.643   3.907   0.464 -0.1225 -0.0243 -0.7221
  369SOL     OW 1519   3.716   1.953   0.582 -0.2416 -0.0037  0.3848
  369SOL    HW2 1520   3.669   1.927   0.503  0.2715 -2.3816  0.7980
  369SOL    HW3 1521   3.703   2.047   0.589 -1.9219 -0.0749 -1.4565
  369SOL    MW4 1522   3.708   1.962   0.573 -0.3955 -0.3269  0.1964
  370SOL     OW 1523   2.729   4.513   0.351  0.4639 -0.0305  0.0986
  370SOL    HW2 1524   2.724   4.606   0.373 -3.6320 -0.0771 -0.1174
  370SOL    HW3 1525   2.741   4.512   0.256 -0.5931  0.3090 -0.0465
  370SOL    MW4 1526   2.730   4.525   0.341 -0.2162  0.0081  0.0509
  371SOL     OW 1527   0.475   2.350   0.477 -0.4382 -0.0393  0.3940
  371SOL    HW2 1528   0.393   2.377   0.435 -0.0839  1.4578  0.6050
  371SOL    HW3 1529   0.522   2.433   0.491  0.8311 -0.8272  0.8392
  371SOL    MW4 1530   0.470   2.365   0.473 -0.2240  0.0541  0.4806
  372SOL     OW 1531   2.727   3.724   0.345  0.3463 -0.0721 -0.1812
  372SOL    HW2 1532   2.698   3.668   0.273  2.6534  1.1237 -2.1562
  372SOL    HW3 1533   2.797   3.674   0.388 -0.5869 -0.5139  0.8378
  372SOL    MW4 1534   2.733   3.710   0.341  0.5276  0.0274 -0.3073
  373SOL     OW 1535   2.990   3.601   0.754  0.2153 -0.5685 -0.0429
  373SOL    HW2 1536   2.907   3.554   0.759 -0.0703  0.0476  1.0908
  373SOL    HW3 1537   2.974   3.685   0.797  1.4696 -0.5085  0.3534
  373SOL    MW4 1538   2.977   3.606   0.760  0.3431 -0.4792  0.1590
  374SOL     OW 1539   0.169   2.179   0.538 -0.0211 -0.3516  0.2134
  374SOL    HW2 1540   0.156   2.085   0.552 -0.2174 -0.2462  0.7386
  374SOL    HW3 1541   0.115   2.221   0.604  0.5518  0.1299  0.3764
  374SOL    MW4 1542   0.160   2.172   0.548  0.0286 -0.2739  0.3043
  375SOL     OW 1543   0.403   0.007   0.368  0.0502 -0.0107  0.4120
  375SOL    HW2 1544   0.346   0.067   0.321 -0.3978 -0.6369  0.1521
  375SOL    HW3 1545   0.350  -0.022   0.443 -0.1051 -0.8630 -0.0231
  375SOL    MW4 1546   0.388   0.011   0.372 -0.0294 -0.2058  0.3203
  376SOL     OW 1547   0.894   1.604   0.808 -0.1183 -0.0127 -0.0910
  376SOL    HW2 1548   0.852   1.527   0.848  1.1387 -0.7371 -0.1263
  376SOL    HW3 1549   0.899   1.583   0.715  1.3169 -0.4444  0.0570
  376SOL    MW4 1550   0.889   1.591   0.801  0.2369 -0.1652 -0.0761
  377SOL     OW 1551   3.617   0.388   0.904  0.0575 -0.0846 -0.3202
  377SOL    HW2 1552   3.612   0.383   0.999  0.4927 -1.1131 -0.3416
  377SOL    HW3 1553   3.536   0.432   0.878  0.4511  1.1768  0.5880
  377SOL    MW4 1554   3.605   0.393   0.913  0.1671 -0.0539 -0.2032
  378SOL     OW 1555   4.480   2.703   1.144  0.2501 -0.2746 -0.1519
  378SOL    HW2 1556   4.474   2.610   1.166 -0.6270 -0.1167  0.3162
  378SOL    HW3 1557   4.503   2.704   1.051  1.1739 -0.9570  0.0653
  378SOL    MW4 1558   4.482   2.691   1.135  0.2561 -0.3440 -0.0615
  379SOL     OW 1559   3.912   3.712   0.473 -0.0934 -0.4781  0.0676
  379SOL    HW2 1560   3.900   3.687   0.565  1.3061 -0.4858  0.2661
  379SOL    HW3 1561   3.970   3.644   0.438 -0.0976 -0.1134 -0.6434
  379SOL    MW4 1562   3.918   3.700   0.481  0.0906 -0.4308 -0.0000
  380SOL     OW 1563   3.360   1.563   0.873  0.0710  0.4246 -0.5125
  380SOL    HW2 1564   3.369   1.471   0.848  1.5904  0.6627 -0.8548
  380SOL    HW3 1565   3.356   1.561   0.969 -1.8375 -0.1403 -0.5688
  380SOL    MW4 1566   3.360   1.551   0.882  0.0196  0.3814 -0.5651
  381SOL     OW 1567   1.378   2.422   0.462  0.6267 -0.1982 -0.2290
  381SOL    HW2 1568   1.423   2.339   0.443  0.7183 -0.3073  0.4365
  381SOL    HW3 1569   1.396   2.438   0.555 -0.6766 -0.2211  0.0326
  381SOL    MW4 1570   1.387   2.413   0.472  0.4668 -0.2155 -0.1067
  382SOL     OW 1571   2.465   0.486   0.792 -0.0494 -0.0584  0.0498
  382SOL    HW2 1572   2.476   0.577   0.818  0.0564 -0.2619  0.7402
  382SOL    HW3 1573   2.545   0.443   0.823 -1.2171 -0.8798  2.0000
  382SOL    MW4 1574   2.477   0.492   0.799 -0.1895 -0.1936  0.3982
  383SOL     OW 1575   1.772   3.464   0.214  0.5162  0.5360 -0.3944
  383SOL    HW2 1576   1.690   3.419   0.233  0.3837  0.9046 -0.0895
  383SOL    HW3 1577   1.789   3.444   0.122 -0.3259  1.1114 -0.6853
  383SOL    MW4 1578   1.763   3.456   0.204  0.3877  0.6607 -0.3925
  384SOL     OW 1579   1.398   1.932   0.863  0.4331  0.0322 -0.3647
  384SOL    HW2 1580   1.392   1.959   0.955  1.4463 -0.2079 -0.2166
  384SOL    HW3 1581   1.461   1.992   0.825 -0.2108  0.3180 -0.9790
  384SOL    MW4 1582   1.405   1.943   0.870  0.4820  0.0383 -0.4262
  385SOL     OW 1583   0.759   4.391   0.481 -0.1323 -0.3022  0.5169
  385SOL    HW2 1584   0.701   4.418   0.411 -0.8598 -0.7012  0.9537
  385SOL    HW3 1585   0.783   4.301   0.459  0.0698 -0.2439  0.4998
  385SOL    MW4 1586   0.755   4.383   0.469 -0.2016 -0.3471  0.5723
  386SOL     OW 1587   0.568   0.468   0.393  0.8552  0.3305  0.0945
  386SOL    HW2 1588   0.644   0.523   0.415  1.3229 -1.3014  2.7005
  386SOL    HW3 1589   0.595   0.380   0.418 -1.0797 -0.6141 -1.0876
  386SOL    MW4 1590   0.582   0.464   0.399  0.6617 -0.0094  0.2824
  387SOL     OW 1591   1.701   0.884   0.453  0.2246  0.3387  0.0865
  387SOL    HW2 1592   1.719   0.796   0.421  2.3878  0.7313  0.1621
  387SOL    HW3 1593   1.713   0.879   0.548  0.3039  0.7113  0.0988
  387SOL    MW4 1594   1.705   0.872   0.462  0.5205  0.4396  0.0981
  388SOL     OW 1595   0.208   2.304   1.159  0.2240  0.2773 -0.0151
  388SOL    HW2 1596   0.283   2.364   1.162  0.9705 -0.6258 -0.2555
  388SOL    HW3 1597   0.137   2.352   1.200  1.1924  0.7935  1.0894
  388SOL    MW4 1598   0.209   2.318   1.165  0.4502  0.2263  0.0988
  389SOL     OW 1599   1.609   4.350   0.736  0.0246 -0.5509 -0.1554
  389SOL    HW2 1600   1.686   4.298   0.757 -0.4770 -0.9302  0.7819
  389SOL    HW3 1601   1.576   4.311   0.655 -0.2091 -1.5574  0.4102
  389SOL    MW4 1602   1.615   4.338   0.728 -0.0724 -0.7339  0.0429
  390SOL     OW 1603   2.932   1.480   0.870 -0.1149 -0.2760  0.4200
  390SOL    HW2 1604   2.852   1.523   0.839 -0.7535 -1.6258  0.1405
  390SOL    HW3 1605   3.003   1.539   0.844 -1.0574  1.1903  1.1460
  390SOL    MW4 1606   2.931   1.493   0.862 -0.3235 -0.2606  0.4789
  391SOL     OW 1607   2.894   3.294   0.525  0.5670  0.0761 -0.2774
  391SOL    HW2 1608   2.988   3.276   0.520  1.5427  4.3170  0.9751
  391SOL    HW3 1609   2.866   3.251   0.606  1.4726 -1.0106 -0.5319
  391SOL    MW4 1610   2.903   3.286   0.535  0.8154  0.4923 -0.1457
  392SOL     OW 1611   2.477   0.466   1.203 -0.0524  0.7386  0.1963
  392SOL    HW2 1612   2.484   0.468   1.298 -0.3110  1.5705  0.1952
  392SOL    HW3 1613   2.391   0.428   1.185  0.8913 -1.4951  0.2721
  392SOL    MW4 1614   2.467   0.461   1.213  0.0381  0.5536  0.2062
  393SOL     OW 1615   2.334   3.895   0.517  0.0603  0.4204  0.1613
  393SOL    HW2 1616   2.374   3.809   0.500  0.8065  0.6028  0.9226
  393SOL    HW3 1617   2.240   3.881   0.503  0.2737 -0.2941 -0.5936
  393SOL    MW4 1618   2.327   3.882   0.513  0.1869  0.3505  0.1621
  394SOL     OW 1619   0.441   1.161   1.118  0.3821  0.0739 -0.3336
  394SOL    HW2 1620   0.522   1.199   1.153  0.4452  0.4189 -0.8425
  394SOL    HW3 1621   0.443   1.182   1.025 -0.3241  0.1418 -0.3394
  394SOL    MW4 1622   0.452   1.169   1.111  0.2972  0.1284 -0.4013
  395SOL     OW 1623   3.231   1.134   1.108  0.2848 -0.2964 -0.2381
  395SOL    HW2 1624   3.155   1.166   1.157 -0.6669 -0.4178 -1.6056
  395SOL    HW3 1625   3.304   1.187   1.140 -0.7727  1.3573 -0.4641
  395SOL    MW4 1626   3.231   1.145   1.119  0.0196 -0.0944 -0.4486
  396SOL     OW 1627   1.118   3.856   0.816 -0.3260  0.4669 -0.6512
  396SOL    HW2 1628   1.107   3.861   0.911  0.8808 -0.2977 -0.4632
  396SOL    HW3 1629   1.067   3.929   0.782 -0.4501  0.9782  0.6115
  396SOL    MW4 1630   1.110   3.866   0.824 -0.1831  0.4337 -0.4598
  397SOL     OW 1631   2.021   1.328   0.507 -0.4119  0.0008 -0.3124
  397SOL    HW2 1632   2.091   1.268   0.479  0.8816  0.4346  1.8735
  397SOL    HW3 1633   1.950   1.312   0.445  1.0595 -1.5580 -1.6604
  397SOL    MW4 1634   2.021   1.318   0.495 -0.0470 -0.1476 -0.2019
  398SOL     OW 1635   2.517   4.103   0.454 -0.3178  0.5861 -0.4165
  398SOL    HW2 1636   2.599   4.057   0.436 -0.3855 -0.6281  2.1691
  398SOL    HW3 1637   2.456   4.033   0.478 -1.6865  1.6204 -0.9044
  398SOL    MW4 1638   2.520   4.087   0.455 -0.5074  0.5617 -0.1397
  399SOL     OW 1639   0.914   1.943   0.691  0.1592  0.5062  0.0187
  399SOL    HW2 1640   0.872   2.022   0.658  0.7200  0.7422 -0.1452
  399SOL    HW3 1641   0.865   1.920   0.770 -1.1594 -0.0376 -0.9483
  399SOL    MW4 1642   0.902   1.950   0.697  0.0591  0.4655 -0.1304
  400SOL     OW 1643   2.316   2.659   0.833  0.1316 -0.0315  0.2882
  400SOL    HW2 1644   2.390   2.696   0.786 -0.0742 -0.1615 -0.1349
  400SOL    HW3 1645   2.242   2.713   0.808  0.6462  2.1627  3.2331
  400SOL    MW4 1646   2.316   2.671   0.824  0.1721  0.2408  0.6209
  401SOL     OW 1647   2.723   0.128   0.711 -0.2623 -0.0822  0.3718
  401SOL    HW2 1648   2.704   0.121   0.617 -0.9140  0.6820  0.4390
  401SOL    HW3 1649   2.655   0.076   0.753 -0.4915  0.2864  0.4624
  401SOL    MW4 1650   2.711   0.120   0.704 -0.3786  0.0673  0.3926
  402SOL     OW 1651   3.881   3.633   0.731  0.1922 -0.2865  0.7211
  402SOL    HW2 1652   3.953   3.580   0.765  0.2818  0.5049  1.7640
  402SOL    HW3 1653   3.803   3.597   0.773 -0.0545 -1.2277 -0.5059
  402SOL    MW4 1654   3.880   3.621   0.741  0.1714 -0.3061  0.6968
  403SOL     OW 1655   4.309   1.064   0.481  0.0290  0.3269 -0.2360
  403SOL    HW2 1656   4.333   1.034   0.569  0.0681 -0.1754 -0.4192
  403SOL    HW3 1657   4.213   1.064   0.481  0.0274  0.5473 -0.1198
  403SOL    MW4 1658   4.300   1.060   0.493  0.0339  0.2897 -0.2448
  404SOL     OW 1659   0.424   0.696   0.282 -0.0651  0.5230 -0.1640
  404SOL    HW2 1660   0.339   0.675   0.244 -0.3263 -0.8193  1.1168
  404SOL    HW3 1661   0.470   0.612   0.288  0.4467  0.8898  1.2946
  404SOL    MW4 1662   0.419   0.682   0.278 -0.0320  0.3943  0.1975
  405SOL     OW 1663   4.450   3.203   0.299  0.4044 -0.3389  0.0914
  405SOL    HW2 1664   4.401   3.219   0.218 -0.4237 -0.5433  0.5533
  405SOL    HW3 1665   4.397   3.141   0.348  1.6114 -1.3319  0.1652
  405SOL    MW4 1666   4.436   3.197   0.295  0.4549 -0.4969  0.1621
  406SOL     OW 1667   0.944   4.301   0.825  0.6800  0.1706  0.4183
  406SOL    HW2 1668   0.863   4.346   0.802  0.9510  1.1282  1.2996
  406SOL    HW3 1669   0.940   4.218   0.778 -0.4246  0.5705 -0.2003
  406SOL    MW4 1670   0.933   4.296   0.816  0.5701  0.3500  0.4531
  407SOL     OW 1671   3.122   1.924   0.879 -0.3513  0.5520 -0.6114
  407SOL    HW2 1672   3.119   1.915   0.974 -1.9734  0.3374 -0.6651
  407SOL    HW3 1673   3.120   1.834   0.846 -0.3569  0.6380 -0.8493
  407SOL    MW4 1674   3.121   1.911   0.887 -0.5658  0.5351 -0.6499
  408SOL     OW 1675   4.358   0.191   0.500 -0.3544 -0.5868 -0.0353
  408SOL    HW2 1676   4.395   0.114   0.457 -2.1212 -0.1514 -2.4673
  408SOL    HW3 1677   4.381   0.264   0.442  2.3717  0.9868  2.8531
  408SOL    MW4 1678   4.366   0.190   0.486 -0.2284 -0.3217  0.0249
  409SOL     OW 1679   1.079   0.300   0.340  0.5373 -0.4286  0.4698
  409SOL    HW2 1680   1.093   0.277   0.248 -0.7175  1.2271 -0.1536
  409SOL    HW3 1681   1.167   0.298   0.379  1.0263 -1.5230 -0.6577
  409SOL    MW4 1682   1.093   0.297   0.333  0.4362 -0.3546  0.2388
  410SOL     OW 1683   0.283   3.381   0.509 -0.4000 -0.1568 -0.2259
  410SOL    HW2 1684   0.270   3.303   0.456 -0.0650  0.8119 -1.7624
  410SOL    HW3 1685   0.195   3.408   0.534 -0.5806 -0.4409 -0.5514
  410SOL    MW4 1686   0.270   3.375   0.506 -0.3796 -0.0663 -0.4716
  411SOL     OW 1687   0.948   1.231   0.559  0.2572 -0.1865 -0.4271
  411SOL    HW2 1688   1.001   1.163   0.519  0.6292  0.1328 -0.4849
  411SOL    HW3 1689   0.863   1.225   0.515  0.7674  0.3852 -1.5090
  411SOL    MW4 1690   0.944   1.221   0.548  0.3735 -0.0689 -0.5774
  412SOL     OW 1691   1.233   1.120   0.916 -0.5921  0.5309  0.2291
  412SOL    HW2 1692   1.252   1.037   0.871 -3.1047  0.7088 -1.2791
  412SOL    HW3 1693   1.284   1.185   0.868  1.3126 -0.0973  1.3531
  412SOL    MW4 1694   1.242   1.117   0.904 -0.6725  0.4714  0.1785
  413SOL     OW 1695   0.372   2.637   0.348  0.2567  0.1445  0.0598
  413SOL    HW2 1696   0.455   2.605   0.383  0.1071 -1.0817 -0.6929
  413SOL    HW3 1697   0.308   2.570   0.372 -0.3540  0.6482 -0.1421
  413SOL    MW4 1698   0.374   2.624   0.356  0.1564  0.0494 -0.0662
  414SOL     OW 1699   3.838   1.624   0.859  0.0897  0.0209  0.0355
  414SOL    HW2 1700   3.751   1.628   0.818 -0.0972 -0.7579  0.3479
  414SOL    HW3 1701   3.868   1.535   0.842  0.4797  0.0353  0.6345
  414SOL    MW4 1702   3.830   1.612   0.852  0.1163 -0.0799  0.1557
  415SOL     OW 1703   0.408   3.230   0.730 -0.2471  0.2468  0.1347
  415SOL    HW2 1704   0.345   3.188   0.789 -0.8194  0.1201 -0.5534
  415SOL    HW3 1705   0.357   3.251   0.651  0.4993  0.4206 -0.3105
  415SOL    MW4 1706   0.393   3.227   0.727 -0.2241  0.2532 -0.0148
  416SOL     OW 1707   0.866   2.184   0.559 -0.0400  0.2046 -0.0915
  416SOL    HW2 1708   0.776   2.161   0.535 -0.5703  1.0268  1.0231
  416SOL    HW3 1709   0.920   2.144   0.492 -1.1120 -1.9453  0.3014
  416SOL    MW4 1710   0.861   2.176   0.547 -0.2515  0.0293  0.1074
  417SOL     OW 1711   0.763   1.831   0.899  0.1981 -0.1128 -0.2200
  417SOL    HW2 1712   0.798   1.841   0.987  2.5990  0.1048 -1.1515
  417SOL    HW3 1713   0.799   1.747   0.868 -0.4070 -0.0675 -1.0777
  417SOL    MW4 1714   0.772   1.821   0.906  0.4351 -0.0782 -0.4560
  418SOL     OW 1715   2.544   0.502   0.502  0.4343  0.3574  0.5517
  418SOL    HW2 1716   2.517   0.474   0.590  0.1057  0.4614  0.4856
  418SOL    HW3 1717   2.470   0.553   0.470  0.0872 -0.6167 -0.2239
  418SOL    MW4 1718   2.531   0.505   0.509  0.3452  0.2426  0.4407
  419SOL     OW 1719   1.510   3.320   0.578  0.1421  0.1766 -0.0312
  419SOL    HW2 1720   1.549   3.247   0.530  0.7178  0.2396  0.3439
  419SOL    HW3 1721   1.465   3.279   0.652 -0.4251  0.1131 -0.4050
  419SOL    MW4 1722   1.509   3.305   0.581  0.1434  0.1764 -0.0310
  420SOL     OW 1723   3.599   4.016   0.797 -0.2254  0.2421  0.3327
  420SOL    HW2 1724   3.675   3.964   0.824 -0.4632 -0.9841 -1.2248
  420SOL    HW3 1725   3.524   3.963   0.823 -0.5520  1.3559  1.6805
  420SOL    MW4 1726   3.599   4.002   0.804 -0.2999  0.2275  0.3051
  421SOL     OW 1727   3.621   1.664   0.455  0.1074  0.5215 -0.4113
  421SOL    HW2 1728   3.715   1.674   0.445 -0.0618  1.5660 -0.9908
  421SOL    HW3 1729   3.607   1.656   0.550  0.9119 -1.1205 -0.4224
  421SOL    MW4 1730   3.631   1.664   0.466  0.1912  0.4425 -0.4892
  422SOL     OW 1731   0.612   1.817   0.428  0.0960 -0.4047 -0.2215
  422SOL    HW2 1732   0.603   1.903   0.468  0.0448 -0.5346  0.0472
  422SOL    HW3 1733   0.704   1.811   0.402 -0.0253 -0.0545 -0.7300
  422SOL    MW4 1734   0.623   1.827   0.430  0.0733 -0.3757 -0.2531
  423SOL     OW 1735   2.910   2.817   0.401 -0.1975 -0.5505 -0.0402
  423SOL    HW2 1736   2.980   2.863   0.447 -0.6292 -1.0221  1.1432
  423SOL    HW3 1737   2.833   2.873   0.412 -0.6609 -1.3903  1.1720
  423SOL    MW4 1738   2.909   2.830   0.409 -0.3154 -0.7234  0.2759
  424SOL     OW 1739   0.309   3.800   0.491  0.4360  0.2027  0.2204
  424SOL    HW2 1740   0.298   3.755   0.575 -1.5085 -0.6778 -0.4494
  424SOL    HW3 1741   0.225   3.843   0.476  0.1401 -1.0676 -2.0436
  424SOL    MW4 1742   0.296   3.799   0.500  0.1404 -0.0811 -0.1667
  425SOL     OW 1743   1.551   3.299   0.207 -0.0428 -0.5851 -0.2003
  425SOL    HW2 1744   1.564   3.244   0.284  0.8683 -1.6210 -1.0690
  425SOL    HW3 1745   1.466   3.339   0.220 -0.0161 -0.9639  1.2173
  425SOL    MW4 1746   1.542   3.297   0.219  0.0808 -0.7715 -0.1279
  426SOL     OW 1747   2.482   3.571   0.766 -0.3937  0.1299 -0.5958
  426SOL    HW2 1748   2.410   3.541   0.822  0.7693 -0.8530  0.3933
  426SOL    HW3 1749   2.498   3.661   0.794 -1.8623  0.6818 -1.4772
  426SOL    MW4 1750   2.474   3.579   0.777 -0.4339  0.0732 -0.5816
  427SOL     OW 1751   1.149   4.087   0.447  0.0685  0.1554 -0.3251
  427SOL    HW2 1752   1.219   4.144   0.414 -0.6495  1.8121  0.9722
  427SOL    HW3 1753   1.069   4.122   0.407 -0.5165  0.7852  1.3650
  427SOL    MW4 1754   1.148   4.099   0.437 -0.1035  0.4573  0.0690
  428SOL     OW 1755   1.322   1.983   0.475  0.4458 -0.4037  0.4518
  428SOL    HW2 1756   1.242   1.998   0.423  0.4349 -0.3122  0.4954
  428SOL    HW3 1757   1.297   2.005   0.564  0.8585  0.7705  0.2796
  428SOL    MW4 1758   1.308   1.987   0.480  0.4988 -0.2366  0.4348
  429SOL     OW 1759   3.640   1.166   0.835  0.5859 -0.0509  0.3147
  429SOL    HW2 1760   3.628   1.078   0.800 -1.7046 -0.0450  0.9734
  429SOL    HW3 1761   3.635   1.155   0.930 -2.7938  1.1162  0.3518
  429SOL    MW4 1762   3.638   1.153   0.843 -0.1621  0.1038  0.4065
  430SOL     OW 1763   0.572   4.470   0.289 -0.4365 -0.1908  0.0684
  430SOL    HW2 1764   0.509   4.543   0.290 -0.9204 -0.6184  1.2701
  430SOL    HW3 1765   0.518   4.392   0.276 -0.0060 -0.4297 -0.3029
  430SOL    MW4 1766   0.557   4.470   0.287 -0.4436 -0.2785  0.1779
  431SOL     OW 1767   2.352   2.777   0.440 -0.5521 -0.3851 -0.1389
  431SOL    HW2 1768   2.270   2.825   0.425  0.5669  2.3361  1.8731
  431SOL    HW3 1769   2.418   2.829   0.394  0.3027 -1.5598 -0.2458
  431SOL    MW4 1770   2.349   2.790   0.432 -0.2916 -0.1810  0.1124
  432SOL     OW 1771   3.162   3.971   0.764  0.2274  0.0107 -0.2101
  432SOL    HW2 1772   3.090   3.927   0.808  0.0974  0.4606  0.0272
  432SOL    HW3 1773   3.146   3.956   0.671  0.6896 -1.2396 -0.1047
  432SOL    MW4 1774   3.151   3.963   0.758  0.2711 -0.0947 -0.1649
  433SOL     OW 1775   1.769   3.972   0.737 -0.2551 -0.0445  0.5982
  433SOL    HW2 1776   1.772   3.971   0.641  2.2800 -1.3225  0.6530
  433SOL    HW3 1777   1.780   4.064   0.760  0.1305  0.1478 -0.3202
  433SOL    MW4 1778   1.771   3.984   0.727  0.1303 -0.1876  0.4842
  434SOL     OW 1779   3.177   0.813   0.769  0.2529 -0.4383 -0.5150
  434SOL    HW2 1780   3.091   0.777   0.791  0.3049  0.6444  1.6371
  434SOL    HW3 1781   3.177   0.900   0.810  2.9021 -0.9930  0.7947
  434SOL    MW4 1782   3.165   0.820   0.778  0.6092 -0.3686 -0.0583
  435SOL     OW 1783   3.074   4.005   0.507  0.4526 -0.2341 -0.2271
  435SOL    HW2 1784   3.090   3.922   0.463 -0.8960 -0.5328 -0.2024
  435SOL    HW3 1785   3.153   4.056   0.493  0.8514 -1.1004 -1.2093
  435SOL    MW4 1786   3.086   4.001   0.500  0.3271 -0.3877 -0.3534
  436SOL     OW 1787   3.408   2.787   0.526  0.2524  0.0469  0.5205
  436SOL    HW2 1788   3.483   2.839   0.497  0.7964 -0.4207  1.0894
  436SOL    HW3 1789   3.406   2.712   0.466  0.7865 -0.4119  1.0782
  436SOL    MW4 1790   3.417   2.784   0.514  0.3948 -0.0753  0.6691
  437SOL     OW 1791   3.148   0.383   0.838  0.4240 -0.2382  0.5359
  437SOL    HW2 1792   3.233   0.421   0.815  0.4575  0.3069  1.5613
  437SOL    HW3 1793   3.144   0.388   0.933 -0.0586 -1.7643  0.6155
  437SOL    MW4 1794   3.159   0.389   0.847  0.3648 -0.3676  0.6816
  438SOL     OW 1795   2.922   3.579   0.478  0.1565 -0.3829  0.4974
  438SOL    HW2 1796   2.911   3.485   0.467 -2.1499 -0.1053  0.1041
  438SOL    HW3 1797   2.950   3.590   0.569  0.0112 -1.4107  0.6729
  438SOL    MW4 1798   2.924   3.568   0.489 -0.1671 -0.4816  0.4687
  439SOL     OW 1799   2.455   3.383   0.389  0.3565  0.0328 -0.1454
  439SOL    HW2 1800   2.363   3.366   0.409  0.2236  0.6403 -0.2100
  439SOL    HW3 1801   2.464   3.478   0.398  1.2666 -0.1603  1.0768
  439SOL    MW4 1802   2.444   3.393   0.393  0.4590  0.0875  0.0074
  440SOL     OW 1803   2.905   4.648   0.858  0.2772 -0.0146  0.6164
  440SOL    HW2 1804   2.908   4.556   0.830  1.8488  0.2029  0.0189
  440SOL    HW3 1805   2.844   4.690   0.798  0.0040 -0.5418  0.5218
  440SOL    MW4 1806   2.897   4.641   0.846  0.4485 -0.0553  0.5251
  441SOL     OW 1807   2.259   3.216   0.714  0.5646 -0.0946 -0.6358
  441SOL    HW2 1808   2.251   3.280   0.643  2.1170  1.0630  0.2105
  441SOL    HW3 1809   2.346   3.178   0.701  0.0016 -1.4259 -0.6029
  441SOL    MW4 1810   2.269   3.219   0.703  0.6950 -0.1175 -0.5198
  442SOL     OW 1811   3.376   3.681   0.427  0.0130  0.4518  0.2293
  442SOL    HW2 1812   3.377   3.671   0.522  0.0659 -1.0512  0.0922
  442SOL    HW3 1813   3.461   3.717   0.405  0.4240 -0.2537  0.6551
  442SOL    MW4 1814   3.387   3.684   0.436  0.0739  0.1605  0.2674
  443SOL     OW 1815   1.307   2.711   0.387  0.0490  0.2531  0.1392
  443SOL    HW2 1816   1.387   2.758   0.411  0.5307  0.0369 -1.0171
  443SOL    HW3 1817   1.333   2.619   0.382  0.0833  0.3598 -1.7304
  443SOL    MW4 1818   1.321   2.705   0.390  0.1171  0.2389 -0.2600
  444SOL     OW 1819   0.906   2.621   0.460  0.1705  0.4803 -0.4951
  444SOL    HW2 1820   0.958   2.545   0.485 -2.3955 -1.3846 -0.6522
  444SOL    HW3 1821   0.949   2.654   0.381  1.4511 -0.6680 -0.2970
  444SOL    MW4 1822   0.918   2.615   0.453  0.0009  0.0827 -0.4897
  445SOL     OW 1823   1.657   2.836   0.720 -0.1657 -0.1151 -0.2690
  445SOL    HW2 1824   1.709   2.780   0.777  0.1387  0.9343  0.4947
  445SOL    HW3 1825   1.638   2.914   0.772 -0.5242  0.5327 -1.3333
  445SOL    MW4 1826   1.661   2.839   0.734 -0.1729  0.1087 -0.3087
  446SOL     OW 1827   0.209   2.439   0.423 -0.0683  0.3907  0.1316
  446SOL    HW2 1828   0.191   2.346   0.410  0.4504  0.4527 -1.0980
  446SOL    HW3 1829   0.127   2.475   0.457  0.1360 -0.7597  1.8840
  446SOL    MW4 1830   0.196   2.432   0.426  0.0271  0.2472  0.2006
  447SOL     OW 1831   4.390   2.078   0.831 -0.1492 -0.0180 -0.1209
  447SOL    HW2 1832   4.298   2.053   0.822  0.2326 -1.5729  0.1590
  447SOL    HW3 1833   4.436   1.995   0.842  1.0765  0.8575  1.5868
  447SOL    MW4 1834   4.384   2.064   0.832  0.0629 -0.1078  0.1414
  448SOL     OW 1835   1.414   2.460   0.751  0.0137 -0.0079  0.4298
  448SOL    HW2 1836   1.411   2.553   0.774 -0.1689  0.7695 -2.6042
  448SOL    HW3 1837   1.332   2.424   0.786  0.1713  0.8958  1.7755
  448SOL    MW4 1838   1.403   2.467   0.759  0.0105  0.2141  0.2071
  449SOL     OW 1839   2.023   1.453   0.152  0.0814 -0.3291 -0.0785
  449SOL    HW2 1840   2.060   1.501   0.226  0.0643  0.0129 -0.2891
  449SOL    HW3 1841   1.949   1.405   0.189  0.1529 -0.2620  0.1512
  449SOL    MW4 1842   2.018   1.453   0.166  0.0885 -0.2751 -0.0759
  450SOL     OW 1843   3.635   3.580   0.857  0.2081 -0.1780  0.1904
  450SOL    HW2 1844   3.546   3.607   0.835  0.1737  1.0593  1.6917
  450SOL    HW3 1845   3.636   3.485   0.845 -1.3141 -0.2030  0.1663
  450SOL    MW4 1846   3.623   3.571   0.852  0.0026 -0.0181  0.3853
  451SOL     OW 1847   3.399   0.767   0.917 -0.0425  0.2527 -0.3380
  451SOL    HW2 1848   3.470   0.821   0.880 -0.4516  1.3395  0.4291
  451SOL    HW3 1849   3.322   0.791   0.866 -0.4520  1.2057  0.7126
  451SOL    MW4 1850   3.398   0.778   0.905 -0.1507  0.5218 -0.0982
  452SOL     OW 1851   4.067   3.481   0.864  0.3536 -0.3052  0.0258
  452SOL    HW2 1852   4.047   3.489   0.957 -0.4540  0.1354 -0.1788
  452SOL    HW3 1853   4.152   3.523   0.854 -0.2040  0.9217  0.3346
  452SOL    MW4 1854   4.075   3.488   0.875  0.1731 -0.0851  0.0395
  453SOL     OW 1855   4.293   3.882   0.388 -0.1673 -0.3535  0.4508
  453SOL    HW2 1856   4.303   3.803   0.442 -0.0762 -0.3276  0.4713
  453SOL    HW3 1857   4.301   3.851   0.298 -2.4719 -0.7463  0.3529
  453SOL    MW4 1858   4.295   3.867   0.384 -0.4597 -0.4020  0.4406
  454SOL     OW 1859   0.469   1.907   1.120  0.4752  0.1496  0.2902
  454SOL    HW2 1860   0.454   1.824   1.164  1.0904 -0.0087  0.2135
  454SOL    HW3 1861   0.462   1.887   1.027 -0.6576  0.4495  0.3094
  454SOL    MW4 1862   0.466   1.893   1.114  0.4069  0.1682  0.2826
  455SOL     OW 1863   1.147   1.548   1.097  0.1764  0.3785 -0.0026
  455SOL    HW2 1864   1.121   1.543   1.005 -0.4947  0.6884  0.1664
  455SOL    HW3 1865   1.132   1.460   1.131  0.9275  0.1238 -0.3179
  455SOL    MW4 1866   1.141   1.536   1.089  0.1869  0.3858 -0.0218
  456SOL     OW 1867   0.229   1.437   0.905 -0.7697 -0.1788 -0.4962
  456SOL    HW2 1868   0.162   1.438   0.837 -1.8283 -0.7631  0.5153
  456SOL    HW3 1869   0.263   1.347   0.904 -1.9215 -0.6387  0.8246
  456SOL    MW4 1870   0.225   1.425   0.896 -1.0613 -0.3165 -0.1884
  457SOL     OW 1871   3.129   1.670   0.787  0.1449  0.0181 -0.1635
  457SOL    HW2 1872   3.138   1.668   0.691  2.6231  1.9160 -0.0395
  457SOL    HW3 1873   3.210   1.630   0.819 -0.8549 -0.9852  1.1625
  457SOL    MW4 1874   3.141   1.664   0.778  0.3400  0.1363  0.0278
  458SOL     OW 1875   1.064   2.749   0.258 -0.2707 -0.0006  0.2657
  458SOL    HW2 1876   1.149   2.739   0.302  0.7440  0.2466 -1.6227
  458SOL    HW3 1877   1.078   2.715   0.170 -2.4859 -1.1270  0.3151
  458SOL    MW4 1878   1.077   2.743   0.252 -0.4292 -0.1163  0.0231
  459SOL     OW 1879   0.960   2.665   0.727 -0.0462  0.2413 -0.0249
  459SOL    HW2 1880   0.943   2.651   0.634 -2.0337  0.2796  0.3023
  459SOL    HW3 1881   0.953   2.579   0.767  0.4633  0.2759  0.1461
  459SOL    MW4 1882   0.957   2.652   0.720 -0.2412  0.2511  0.0409
  460SOL     OW 1883   3.845   4.650   1.134  0.1374  0.0424  0.1015
  460SOL    HW2 1884   3.826   4.661   1.041 -0.4182  0.4668  0.2674
  460SOL    HW3 1885   3.845   4.555   1.147 -1.6699  0.0332  0.0560
  460SOL    MW4 1886   3.843   4.639   1.124 -0.1743  0.0968  0.1174
  461SOL     OW 1887   0.273   0.935   0.834  0.6281 -0.2122 -0.1958
  461SOL    HW2 1888   0.231   0.893   0.909  0.3031 -1.2468 -0.9603
  461SOL    HW3 1889   0.305   0.863   0.780  1.8906  0.5423 -0.4753
  461SOL    MW4 1890   0.272   0.920   0.837  0.7519 -0.2491 -0.3336
  462SOL     OW 1891   4.268   3.049   0.434  0.2688 -0.1854 -0.0314
  462SOL    HW2 1892   4.232   2.973   0.388  0.3989 -0.7728  0.8313
  462SOL    HW3 1893   4.191   3.103   0.454  0.0922 -0.4522  0.0122
  462SOL    MW4 1894   4.253   3.046   0.431  0.2627 -0.2980  0.0882
  463SOL     OW 1895   0.263   3.130   0.369  0.5657  0.2878 -0.6059
  463SOL    HW2 1896   0.186   3.137   0.312 -0.0902 -0.7663  0.1470
  463SOL    HW3 1897   0.337   3.122   0.308 -0.0251  0.2511 -1.3221
  463SOL    MW4 1898   0.263   3.130   0.353  0.4012  0.1440 -0.6010
  464SOL     OW 1899   4.124   2.153   0.823 -0.3343  0.2174 -0.5165
  464SOL    HW2 1900   4.038   2.193   0.840 -0.3789  0.0383 -0.3204
  464SOL    HW3 1901   4.186   2.226   0.830 -0.2961  0.0567  0.8913
  464SOL    MW4 1902   4.120   2.168   0.826 -0.3357  0.1726 -0.3049
  465SOL     OW 1903   2.736   3.458   0.818 -0.0717 -0.0693 -0.3980
  465SOL    HW2 1904   2.738   3.485   0.910  2.8892  1.9012 -0.9797
  465SOL    HW3 1905   2.646   3.476   0.790 -1.0198 -0.7981  2.1325
  465SOL    MW4 1906   2.724   3.464   0.826  0.1938  0.0947 -0.1408
  466SOL     OW 1907   2.048   2.464   0.479 -0.0588  0.3717  0.0939
  466SOL    HW2 1908   1.987   2.535   0.460 -1.7643 -1.7434 -2.6955
  466SOL    HW3 1909   2.127   2.486   0.430 -0.7141  0.2282 -1.0572
  466SOL    MW4 1910   2.051   2.476   0.470 -0.3705  0.0734 -0.4260
  467SOL     OW 1911   4.088   1.941   1.065 -0.0424 -0.2737 -0.1166
  467SOL    HW2 1912   4.097   1.915   0.973 -1.6043  0.4772 -0.4838
  467SOL    HW3 1913   4.084   1.858   1.112  0.0086 -0.6683 -0.7924
  467SOL    MW4 1914   4.089   1.927   1.059 -0.2413 -0.2267 -0.2543
  468SOL     OW 1915   3.319   4.125   0.411  0.1107 -0.6048 -0.2484
  468SOL    HW2 1916   3.298   4.217   0.431  0.2299 -0.7548  0.5846
  468SOL    HW3 1917   3.338   4.125   0.317  1.2725  0.4322 -0.0224
  468SOL    MW4 1918   3.318   4.137   0.401  0.2797 -0.4883 -0.1087
  469SOL     OW 1919   2.298   2.419   0.696 -0.2015  0.3549 -0.9060
  469SOL    HW2 1920   2.299   2.437   0.602 -0.2440  1.7021 -0.6628
  469SOL    HW3 1921   2.297   2.506   0.736 -0.9964 -0.2168  0.3279
  469SOL    MW4 1922   2.298   2.433   0.689 -0.3121  0.4573 -0.7110
  470SOL     OW 1923   1.517   2.870   0.459 -0.0337 -0.3407 -0.2636
  470SOL    HW2 1924   1.558   2.856   0.544 -0.2014  1.7404  0.1912
  470SOL    HW3 1925   1.569   2.817   0.399  0.7770 -0.9598  0.9514
  470SOL    MW4 1926   1.529   2.861   0.462  0.0511 -0.1481 -0.0433
  471SOL     OW 1927   4.039   2.575   0.436 -0.4750  0.3554 -0.0076
  471SOL    HW2 1928   4.103   2.507   0.456  0.5002  1.3574  0.3206
  471SOL    HW3 1929   3.971   2.530   0.386  0.8714 -0.5635 -1.0428
  471SOL    MW4 1930   4.038   2.560   0.432 -0.1688  0.3667 -0.1009
  472SOL     OW 1931   2.719   0.113   0.428 -0.2772  0.0819 -0.0260
  472SOL    HW2 1932   2.797   0.168   0.425 -0.7126  0.7141  0.1173
  472SOL    HW3 1933   2.652   0.163   0.381 -0.9853  0.1778  1.0553
  472SOL    MW4 1934   2.721   0.126   0.421 -0.4280  0.1780  0.1356
  473SOL     OW 1935   0.532   3.605   0.751 -0.2962 -0.1731  0.3771
  473SOL    HW2 1936   0.574   3.521   0.773 -0.8873 -0.2219  1.3396
  473SOL    HW3 1937   0.524   3.603   0.655  1.2869 -0.4486  0.2243
  473SOL    MW4 1938   0.537   3.593   0.741 -0.1653 -0.2158  0.4840
  474SOL     OW 1939   1.806   1.952   0.849  0.3731 -0.0015  0.3874
  474SOL    HW2 1940   1.734   1.990   0.799  0.0380 -0.4935  0.5020
  474SOL    HW3 1941   1.885   1.993   0.812  0.1869 -0.8736 -0.9863
  474SOL    MW4 1942   1.807   1.963   0.838  0.3043 -0.1814  0.2213
  475SOL     OW 1943   2.697   4.231   0.812 -0.2802  0.0888 -0.2018
  475SOL    HW2 1944   2.766   4.289   0.779 -0.7417  0.9399  0.3041
  475SOL    HW3 1945   2.701   4.241   0.908 -0.1397 -0.9730 -0.0960
  475SOL    MW4 1946   2.707   4.240   0.821 -0.3223  0.0610 -0.1211
  476SOL     OW 1947   0.445   0.435   0.841  0.1300 -0.2121  0.3537
  476SOL    HW2 1948   0.424   0.437   0.935  1.6794  1.0514  0.6870
  476SOL    HW3 1949   0.463   0.343   0.823  1.0031 -0.2906  1.5611
  476SOL    MW4 1950   0.444   0.423   0.851  0.4497 -0.0557  0.5570
  477SOL     OW 1951   3.507   0.278   0.460  0.6208 -0.5880  0.2321
  477SOL    HW2 1952   3.500   0.372   0.473  1.5173 -0.3462 -0.9290
  477SOL    HW3 1953   3.527   0.243   0.547  1.5457  0.4368  0.4490
  477SOL    MW4 1954   3.509   0.286   0.473  0.8609 -0.4208  0.1075
  478SOL     OW 1955   0.899   2.368   0.786  0.7737 -0.0179 -0.1346
  478SOL    HW2 1956   0.816   2.398   0.822  1.5940 -0.5844  2.3197
  478SOL    HW3 1957   0.874   2.305   0.717 -0.8183  0.6386 -0.1770
  478SOL    MW4 1958   0.885   2.363   0.781  0.6718 -0.0060  0.1836
  479SOL     OW 1959   1.614   1.556   0.826  0.0546 -0.0005 -0.3255
  479SOL    HW2 1960   1.680   1.612   0.786 -0.8443  1.4034  0.1101
  479SOL    HW3 1961   1.620   1.575   0.920  0.6260 -1.6203 -0.0047
  479SOL    MW4 1962   1.624   1.566   0.833  0.0112 -0.0288 -0.2256
  480SOL     OW 1963   3.163   0.088   0.790  0.0892 -0.2568 -0.1171
  480SOL    HW2 1964   3.087   0.039   0.823  0.6079 -0.8077  0.2788
  480SOL    HW3 1965   3.156   0.174   0.832 -0.3734 -0.2724 -0.1609
  480SOL    MW4 1966   3.152   0.093   0.800  0.0966 -0.3315 -0.0707
  481SOL     OW 1967   3.127   1.668   0.504 -0.2243  0.0830  0.1215
  481SOL    HW2 1968   3.171   1.753   0.507 -0.5153  0.3454 -2.2423
  481SOL    HW3 1969   3.187   1.612   0.454 -0.7435 -0.6794  0.3413
  481SOL    MW4 1970   3.141   1.672   0.498 -0.3312  0.0169 -0.1614
  482SOL     OW 1971   2.776   3.199   0.768 -0.1289  0.3690 -0.0041
  482SOL    HW2 1972   2.851   3.178   0.824  0.8029  0.3810 -1.2191
  482SOL    HW3 1973   2.764   3.293   0.778  0.4411  0.4769 -0.3199
  482SOL    MW4 1974   2.784   3.208   0.777  0.0689  0.3850 -0.2060
  483SOL     OW 1975   1.433   1.735   0.554 -0.3052 -0.3651  0.2663
  483SOL    HW2 1976   1.402   1.712   0.642  0.0034  0.7077  0.6634
  483SOL    HW3 1977   1.395   1.821   0.536 -1.2689 -1.0646 -1.1124
  483SOL    MW4 1978   1.424   1.743   0.563 -0.3916 -0.3158  0.1368
  484SOL     OW 1979   1.044   2.021   0.374  0.3407 -0.0012  0.6658
  484SOL    HW2 1980   0.997   1.942   0.401 -0.3632  0.5610  1.0755
  484SOL    HW3 1981   1.002   2.047   0.292  1.3081 -0.6825 -0.0633
  484SOL    MW4 1982   1.032   2.014   0.367  0.3755 -0.0169  0.6236
  485SOL     OW 1983   0.204   4.396   1.215  0.3326 -0.0267 -0.1270
  485SOL    HW2 1984   0.216   4.409   1.309 -2.8962  0.2830  0.3109
  485SOL    HW3 1985   0.205   4.484   1.178 -0.6482  0.0319 -0.0408
  485SOL    MW4 1986   0.206   4.409   1.222 -0.2228  0.0224 -0.0578
  486SOL     OW 1987   0.018   0.147   1.241  0.0331 -0.3166 -0.1887
  486SOL    HW2 1988   0.092   0.096   1.206  1.0725  0.0395  1.4138
  486SOL    HW3 1989  -0.058   0.114   1.194  1.3070 -0.1678 -2.4288
  486SOL    MW4 1990   0.018   0.136   1.230  0.3381 -0.2500 -0.2730
  487SOL     OW 1991   0.206   0.551   1.249 -0.0965  0.4890 -0.0211
  487SOL    HW2 1992   0.204   0.625   1.189  1.4512  0.3415 -0.2735
  487SOL    HW3 1993   0.140   0.491   1.214 -2.1646  2.2137  0.8322
  487SOL    MW4 1994   0.197   0.553   1.236 -0.1652  0.6971  0.0583
  488SOL     OW 1995   0.184   0.770   1.069  0.1657  0.2573  0.7914
  488SOL    HW2 1996   0.108   0.806   1.116 -0.0667  0.5184  0.2147
  488SOL    HW3 1997   0.259   0.818   1.104 -0.2114  1.7550 -0.4268
  488SOL    MW4 1998   0.184   0.781   1.080  0.0853  0.4894  0.5546
  489SOL     OW 1999   2.033   1.565   0.844  0.0395  0.3939 -0.5152
  489SOL    HW2 2000   2.027   1.471   0.827 -0.3635  0.1886  0.7182
  489SOL    HW3 2001   1.963   1.604   0.791  0.8038  0.1059 -1.7534
  489SOL    MW4 2002   2.023   1.558   0.835  0.0873  0.3289 -0.5158
  490SOL     OW 2003   4.468   0.942   1.212  0.0468 -0.2750  0.2452
  490SOL    HW2 2004   4.492   0.923   1.303 -0.3341 -1.0518  0.1906
  490SOL    HW3 2005   4.384   0.898   1.200  0.1051 -0.1915 -0.4906
  490SOL    MW4 2006   4.460   0.934   1.223  0.0042 -0.3665  0.1409
  491SOL     OW 2007   4.471   1.208   1.138  0.0578 -0.0294 -0.7713
  491SOL    HW2 2008   4.469   1.116   1.166  0.5754  0.0139 -0.5813
  491SOL    HW3 2009   4.415   1.253   1.201  2.5557  0.3469  1.2854
  491SOL    MW4 2010   4.464   1.202   1.150  0.4554  0.0260 -0.4748
  492SOL     OW 2011   0.228   1.301   1.240  0.0638 -0.0892  0.0248
  492SOL    HW2 2012   0.306   1.267   1.197  0.5132  2.0439 -0.8805
  492SOL    HW3 2013   0.155   1.258   1.194  0.6597 -0.9442 -0.1262
  492SOL    MW4 2014   0.228   1.291   1.228  0.2017  0.0794 -0.1144
  493SOL     OW 2015   0.209   1.556   1.156 -0.0403 -0.3681 -0.0799
  493SOL    HW2 2016   0.199   1.472   1.200  0.0005 -0.0599  0.5202
  493SOL    HW3 2017   0.208   1.534   1.062  0.3007 -1.0653  0.0748
  493SOL    MW4 2018   0.207   1.542   1.149  0.0101 -0.4195  0.0197
  494SOL     OW 2019   4.447   1.663   1.230 -0.1944  0.4182 -0.1197
  494SOL    HW2 2020   4.464   1.755   1.209  1.0834  0.1733 -0.1769
  494SOL    HW3 2021   4.524   1.616   1.198 -1.4212 -0.8457 -1.2989
  494SOL    MW4 2022   4.460   1.669   1.223 -0.1879  0.2191 -0.2829
  495SOL     OW 2023   4.486   1.914   1.141  0.2031 -0.4957  0.2691
  495SOL    HW2 2024   4.414   1.972   1.165  0.1509  0.3992 -1.9267
  495SOL    HW3 2025   4.565   1.959   1.170  0.0223 -0.5251  0.8231
  495SOL    MW4 2026   4.487   1.927   1.148  0.1721 -0.3814  0.0523
  496SOL     OW 2027   0.216   2.040   1.227  0.0766  0.1985  0.6365
  496SOL    HW2 2028   0.216   2.134   1.206  1.9464  0.2130  0.6604
  496SOL    HW3 2029   0.291   2.005   1.180 -0.9626 -1.4234  0.1454
  496SOL    MW4 2030   0.226   2.048   1.218  0.1862 -0.0138  0.5748
  497SOL     OW 2031   0.846   0.871   0.508  0.4516 -0.0876 -0.2907
  497SOL    HW2 2032   0.927   0.905   0.470  1.0271 -1.4856 -0.3540
  497SOL    HW3 2033   0.847   0.903   0.598  0.5291  0.8116 -0.6052
  497SOL    MW4 2034   0.857   0.879   0.515  0.5378 -0.1534 -0.3405
  498SOL     OW 2035   4.472   2.449   1.230  0.2495 -0.1961  0.0259
  498SOL    HW2 2036   4.456   2.456   1.324  1.3986 -1.5113  0.3537
  498SOL    HW3 2037   4.387   2.425   1.193  0.1645 -1.4769  0.9832
  498SOL    MW4 2038   4.459   2.447   1.237  0.3896 -0.5386  0.1956
  499SOL     OW 2039   4.253   2.831   1.252 -0.0905 -0.2140  0.1433
  499SOL    HW2 2040   4.188   2.781   1.202 -0.3688  1.0609 -0.7819
  499SOL    HW3 2041   4.337   2.795   1.226 -0.3413 -0.8682  0.2288
  499SOL    MW4 2042   4.255   2.819   1.242 -0.1607 -0.1321  0.0324
  500SOL     OW 2043   0.194   2.851   1.262  0.4494  0.1575  0.0854
  500SOL    HW2 2044   0.185   2.864   1.356 -0.5613  0.6224 -0.0725
  500SOL    HW3 2045   0.124   2.791   1.238  2.1807 -1.9004  0.0125
  500SOL    MW4 2046   0.184   2.845   1.271  0.5445 -0.0527  0.0552
  501SOL     OW 2047   0.239   3.105   1.127 -0.3984 -0.3211  0.0185
  501SOL    HW2 2048   0.220   3.019   1.164  1.3838 -0.4020  0.7994
  501SOL    HW3 2049   0.317   3.135   1.174 -0.3330  1.2324 -1.0294
  501SOL    MW4 2050   0.247   3.098   1.138 -0.1546 -0.1271 -0.0168
  502SOL     OW 2051   0.010   3.240   1.225 -0.1589  0.5677 -0.0100
  502SOL    HW2 2052  -0.052   3.173   1.196 -0.2937  1.2242 -1.2531
  502SOL    HW3 2053   0.095   3.209   1.196 -0.0139  0.1524  0.8334
  502SOL    MW4 2054   0.013   3.227   1.218 -0.1576  0.5994 -0.0628
  503SOL     OW 2055   4.451   3.493   1.105  0.6577 -0.3973 -0.3416
  503SOL    HW2 2056   4.482   3.406   1.132  2.0941  0.5211  1.0579
  503SOL    HW3 2057   4.480   3.501   1.014  0.9920 -1.1816 -0.3090
  503SOL    MW4 2058   4.459   3.482   1.096  0.8913 -0.3796 -0.1526
  504SOL     OW 2059   0.209   3.633   1.198 -0.1802  0.2286 -0.2796
  504SOL    HW2 2060   0.212   3.617   1.292  1.3504  0.2346 -0.3106
  504SOL    HW3 2061   0.122   3.604   1.171 -0.4260 -0.2812  1.0451
  504SOL    MW4 2062   0.198   3.627   1.207 -0.0107  0.1621 -0.1091
  505SOL     OW 2063   0.223   3.906   1.148 -0.0450  0.5118 -0.1053
  505SOL    HW2 2064   0.132   3.931   1.167  0.0416  0.2816  0.6666
  505SOL    HW3 2065   0.224   3.811   1.161 -0.2390  0.1589 -2.4354
  505SOL    MW4 2066   0.211   3.897   1.152 -0.0592  0.4349 -0.3109
  506SOL     OW 2067   4.212   3.882   1.124 -0.4692  0.8520  0.0842
  506SOL    HW2 2068   4.143   3.933   1.166 -1.6809 -0.1170 -0.6910
  506SOL    HW3 2069   4.214   3.799   1.171 -0.7275  0.3813 -0.7162
  506SOL    MW4 2070   4.203   3.878   1.136 -0.6633  0.6616 -0.1237
  507SOL     OW 2071   4.451   4.008   1.174 -0.1060 -0.4227 -0.6541
  507SOL    HW2 2072   4.450   4.015   1.269 -0.2669 -1.5292 -0.5662
  507SOL    HW3 2073   4.368   3.963   1.153  0.3467 -0.9949 -1.2339
  507SOL    MW4 2074   4.440   4.003   1.184 -0.0682 -0.6437 -0.7191
  508SOL     OW 2075   4.472   4.274   1.121  0.2813  0.0728  0.0819
  508SOL    HW2 2076   4.476   4.180   1.139 -0.2621  0.0198 -0.0473
  508SOL    HW3 2077   4.554   4.309   1.155  0.0063 -0.2801  1.1223
  508SOL    MW4 2078   4.483   4.266   1.128  0.1731  0.0191  0.2022
  509SOL     OW 2079   0.626   4.644   1.100  0.0327  0.2156 -0.3890
  509SOL    HW2 2080   0.709   4.664   1.143 -0.6385 -0.2930  1.2136
  509SOL    HW3 2081   0.612   4.551   1.116 -0.7245  0.2449 -0.8382
  509SOL    MW4 2082   0.635   4.634   1.108 -0.1558  0.1526 -0.2369
  510SOL     OW 2083   0.435   0.162   1.209  0.0933  0.4002 -0.0349
  510SOL    HW2 2084   0.448   0.252   1.177  0.4515  0.0636 -0.8505
  510SOL    HW3 2085   0.504   0.111   1.166 -0.8881 -0.4979 -0.5614
  510SOL    MW4 2086   0.446   0.167   1.199  0.0111  0.2373 -0.2121
  511SOL     OW 2087   0.419   0.430   1.124 -0.1087  0.4028 -0.2133
  511SOL    HW2 2088   0.499   0.453   1.171 -0.0831 -1.3775  0.6967
  511SOL    HW3 2089   0.348   0.466   1.178 -0.0119 -0.3699  0.4536
  511SOL    MW4 2090   0.420   0.438   1.137 -0.0925  0.0660 -0.0052
  512SOL     OW 2091   0.676   0.502   1.230 -0.3532 -0.3074 -0.1581
  512SOL    HW2 2092   0.676   0.590   1.192 -0.0513 -0.1828  0.1173
  512SOL    HW3 2093   0.751   0.458   1.190 -0.4726 -0.4210 -0.2570
  512SOL    MW4 2094   0.686   0.508   1.220 -0.3291 -0.3060 -0.1348
  513SOL     OW 2095   0.637   0.770   1.143 -0.3189  0.2345  0.5025
  513SOL    HW2 2096   0.561   0.814   1.182 -0.7218  0.1284 -0.1540
  513SOL    HW3 2097   0.638   0.801   1.053 -0.2549 -0.6480  0.2010
  513SOL    MW4 2098   0.627   0.780   1.137 -0.3636  0.1041  0.3760
  514SOL     OW 2099   0.372   0.911   1.218  0.2727 -0.3285 -0.2121
  514SOL    HW2 2100   0.379   0.921   1.312 -1.6064 -1.0580  0.0145
  514SOL    HW3 2101   0.394   0.998   1.183  0.2778  0.1307  0.9057
  514SOL    MW4 2102   0.376   0.924   1.225  0.0255 -0.3641 -0.0347
  515SOL     OW 2103   1.824   1.697   0.730 -0.2295 -0.3153  0.2369
  515SOL    HW2 2104   1.837   1.781   0.774  2.0889 -0.3725 -0.2506
  515SOL    HW3 2105   1.798   1.720   0.641 -0.0356 -0.1043  0.2323
  515SOL    MW4 2106   1.822   1.711   0.724  0.1020 -0.2949  0.1719
  516SOL     OW 2107   0.038   0.188   0.722 -0.1461  0.2177  0.7389
  516SOL    HW2 2108  -0.008   0.119   0.770  0.6531  0.6152  2.1125
  516SOL    HW3 2109  -0.015   0.203   0.644 -2.4102  0.7277  2.3266
  516SOL    MW4 2110   0.025   0.181   0.718 -0.3395  0.3374  1.1296
  517SOL     OW 2111   0.681   1.248   1.241 -0.1395 -0.3607  0.0159
  517SOL    HW2 2112   0.758   1.197   1.214  0.6068  0.6219  0.2728
  517SOL    HW3 2113   0.702   1.338   1.215 -1.2831 -0.1201 -0.0789
  517SOL    MW4 2114   0.694   1.253   1.234 -0.1919 -0.1992  0.0373
  518SOL     OW 2115   0.453   1.660   1.244 -0.0857  0.5419  0.7492
  518SOL    HW2 2116   0.450   1.652   1.339 -0.0317  0.8672  0.7778
  518SOL    HW3 2117   0.371   1.620   1.214  0.2420 -0.2423  0.8838
  518SOL    MW4 2118   0.442   1.654   1.253 -0.0354  0.4814  0.7707
  519SOL     OW 2119   0.658   2.090   1.207  0.0604  0.3721  0.2816
  519SOL    HW2 2120   0.592   2.031   1.169  0.0741  1.2198 -1.0743
  519SOL    HW3 2121   0.645   2.082   1.302 -0.7725 -0.8545  0.0821
  519SOL    MW4 2122   0.648   2.081   1.215 -0.0477  0.3221  0.0763
  520SOL     OW 2123   0.867   1.930   1.147  0.4525 -0.5345  0.7218
  520SOL    HW2 2124   0.951   1.974   1.156  0.3241  0.9089 -4.0769
  520SOL    HW3 2125   0.803   1.993   1.181  0.8255  0.5775 -0.6234
  520SOL    MW4 2126   0.869   1.944   1.153  0.4848 -0.1973 -0.0888
  521SOL     OW 2127   0.668   2.354   1.133 -0.4072  0.0236  0.1726
  521SOL    HW2 2128   0.759   2.377   1.155 -0.3516 -0.5724  0.5761
  521SOL    HW3 2129   0.664   2.259   1.146 -0.6948 -0.1770 -1.2620
  521SOL    MW4 2130   0.680   2.344   1.137 -0.4379 -0.0813  0.0365
  522SOL     OW 2131   0.419   2.472   1.212  0.2581  0.1849 -0.0714
  522SOL    HW2 2132   0.404   2.468   1.307 -0.6981 -0.9259 -0.2646
  522SOL    HW3 2133   0.507   2.437   1.201  0.2506  0.0172  0.3743
  522SOL    MW4 2134   0.429   2.467   1.223  0.1310  0.0160 -0.0379
  523SOL     OW 2135   0.402   2.738   1.135 -0.1435 -0.2481  0.2439
  523SOL    HW2 2136   0.327   2.771   1.185  0.0124 -0.6770  0.7618
  523SOL    HW3 2137   0.411   2.647   1.163  0.4638 -0.2453  0.0583
  523SOL    MW4 2138   0.393   2.730   1.146 -0.0428 -0.3042  0.2878
  524SOL     OW 2139   0.638   2.842   1.237 -0.1419  0.0066 -0.1264
  524SOL    HW2 2140   0.651   2.933   1.211 -0.9578 -0.6355 -2.9387
  524SOL    HW3 2141   0.559   2.815   1.192  0.0982 -2.1195  0.6593
  524SOL    MW4 2142   0.630   2.850   1.228 -0.2179 -0.3586 -0.3939
  525SOL     OW 2143   2.085   2.817   0.743 -0.2435 -0.1482  0.1767
  525SOL    HW2 2144   2.081   2.903   0.785 -1.0748 -0.9245  1.7094
  525SOL    HW3 2145   2.008   2.770   0.776  1.1151 -2.0783  0.6945
  525SOL    MW4 2146   2.075   2.822   0.753 -0.1740 -0.5052  0.4473
  526SOL     OW 2147   0.443   3.240   1.252  0.2077  0.2339 -0.2996
  526SOL    HW2 2148   0.438   3.310   1.187  0.1206  0.7092  0.2142
  526SOL    HW3 2149   0.522   3.191   1.229  1.0848  1.3819  0.2009
  526SOL    MW4 2150   0.453   3.242   1.241  0.3119  0.4482 -0.1657
  527SOL     OW 2151   0.434   3.488   1.092 -0.2478 -0.3253 -0.2140
  527SOL    HW2 2152   0.508   3.535   1.131 -0.8701 -0.2753  0.9136
  527SOL    HW3 2153   0.357   3.522   1.136 -0.9965 -0.1134 -1.6535
  527SOL    MW4 2154   0.434   3.498   1.103 -0.4287 -0.2904 -0.2551
  528SOL     OW 2155   0.677   3.598   1.195 -0.1190  0.1616 -0.3265
  528SOL    HW2 2156   0.681   3.610   1.289 -1.0235 -0.3429 -0.2131
  528SOL    HW3 2157   0.668   3.686   1.159  1.3538  0.4413 -0.0146
  528SOL    MW4 2158   0.676   3.611   1.202 -0.0440  0.1318 -0.2705
  529SOL     OW 2159   0.683   3.878   1.136  0.0590 -0.1596 -0.5556
  529SOL    HW2 2160   0.606   3.928   1.160  0.4065  0.4127 -0.6362
  529SOL    HW3 2161   0.677   3.869   1.040  0.3730  0.3439 -0.6220
  529SOL    MW4 2162   0.672   3.883   1.126  0.1463 -0.0179 -0.5749
  530SOL     OW 2163   0.464   4.014   1.218  0.1641  0.5435  0.1746
  530SOL    HW2 2164   0.378   3.975   1.200  0.2289  0.5779 -0.2245
  530SOL    HW3 2165   0.454   4.105   1.190  0.5848  0.3375 -0.6587
  530SOL    MW4 2166   0.451   4.021   1.212  0.2282  0.5202  0.0122
  531SOL     OW 2167   0.428   4.281   1.099 -0.6558  0.2198  0.1997
  531SOL    HW2 2168   0.503   4.325   1.139 -0.6275  1.6314 -1.3701
  531SOL    HW3 2169   0.352   4.312   1.149 -0.2784 -0.8089  1.4504
  531SOL    MW4 2170   0.428   4.291   1.111 -0.6023  0.2704  0.1577
  532SOL     OW 2171   0.685   4.369   1.189  0.0835  0.2164 -0.1820
  532SOL    HW2 2172   0.688   4.371   1.285  0.3399  2.2567 -0.2135
  532SOL    HW3 2173   0.770   4.332   1.163 -0.3090 -1.1283  0.3634
  532SOL    MW4 2174   0.697   4.364   1.198  0.0655  0.3085 -0.1142
  533SOL     OW 2175   1.103   4.642   1.116 -0.1277 -0.4507  0.4013
  533SOL    HW2 2176   1.114   4.633   1.021  1.3784  0.1044  0.4976
  533SOL    HW3 2177   1.097   4.552   1.148 -1.2569 -0.6270 -0.2798
  533SOL    MW4 2178   1.104   4.629   1.108 -0.0780 -0.4010  0.3241
  534SOL     OW 2179   0.868   0.093   1.221 -0.4735  0.4496  0.1418
  534SOL    HW2 2180   0.865   0.078   1.316  0.4013  0.5109  0.1874
  534SOL    HW3 2181   0.955   0.063   1.195 -0.8960 -0.0248 -0.7304
  534SOL    MW4 2182   0.879   0.087   1.230 -0.4138  0.3951  0.0328
  535SOL     OW 2183   0.899   0.352   1.144  0.3880 -0.2985 -0.3867
  535SOL    HW2 2184   0.888   0.259   1.164 -0.4774 -0.0232  0.4790
  535SOL    HW3 2185   0.898   0.356   1.048 -1.0656 -1.0350 -0.4249
  535SOL    MW4 2186   0.897   0.340   1.134  0.0821 -0.3593 -0.2774
  536SOL     OW 2187   1.123   0.485   1.230  0.2463 -0.1708 -0.4263
  536SOL    HW2 2188   1.114   0.488   1.325 -0.3317  2.1013 -0.5406
  536SOL    HW3 2189   1.049   0.432   1.201 -0.0463 -0.1710  0.3057
  536SOL    MW4 2190   1.112   0.478   1.239  0.1315  0.1290 -0.3448
  537SOL     OW 2191   1.104   0.747   1.162 -0.2020  0.4063 -0.0413
  537SOL    HW2 2192   1.113   0.662   1.205 -1.9500  0.1817 -0.0985
  537SOL    HW3 2193   1.027   0.786   1.202 -0.3283  1.3036 -1.1486
  537SOL    MW4 2194   1.095   0.741   1.173 -0.4492  0.4951 -0.1949
  538SOL     OW 2195   0.881   0.890   1.282 -0.2956  0.2094 -0.0017
  538SOL    HW2 2196   0.894   0.977   1.244 -1.6280  0.8148  0.9047
  538SOL    HW3 2197   0.798   0.860   1.246 -0.2991 -0.3078  0.4242
  538SOL    MW4 2198   0.872   0.897   1.272 -0.4719  0.2210  0.1739
  539SOL     OW 2199   0.911   1.134   1.124 -0.0850  0.2061  0.0138
  539SOL    HW2 2200   0.922   1.145   1.030 -0.1612 -2.0127 -0.2743
  539SOL    HW3 2201   0.993   1.165   1.162  0.8605 -1.0498 -0.9559
  539SOL    MW4 2202   0.923   1.139   1.117  0.0297 -0.2524 -0.1520
  540SOL     OW 2203   1.114   1.296   1.199  0.0893 -0.5338 -0.1995
  540SOL    HW2 2204   1.099   1.328   1.288  2.1888  0.5769 -0.2236
  540SOL    HW3 2205   1.201   1.258   1.201  0.9927  1.2846 -2.2483
  540SOL    MW4 2206   1.123   1.295   1.211  0.4855 -0.1473 -0.4730
  541SOL     OW 2207   1.377   1.666   1.183 -0.0092  0.0669  0.0644
  541SOL    HW2 2208   1.456   1.620   1.156 -0.7124 -0.8358 -0.5058
  541SOL    HW3 2209   1.306   1.619   1.139 -0.8899  0.6415  0.8484
  541SOL    MW4 2210   1.378   1.654   1.173 -0.2183  0.0236  0.0926
  542SOL     OW 2211   0.919   1.677   1.217  0.1688 -0.2337 -0.5276
  542SOL    HW2 2212   0.903   1.770   1.200  0.1137 -0.4963 -1.9498
  542SOL    HW3 2213   0.994   1.656   1.162  1.1901 -0.6566  0.9974
  542SOL    MW4 2214   0.927   1.687   1.208  0.2963 -0.3241 -0.5141
  543SOL     OW 2215   2.920   4.392   0.751  0.1238  0.0644  0.1682
  543SOL    HW2 2216   2.926   4.413   0.658 -0.1611 -0.6806 -0.0231
  543SOL    HW3 2217   2.999   4.340   0.769 -0.3510 -0.7068  0.0849
  543SOL    MW4 2218   2.931   4.388   0.741  0.0236 -0.1359  0.1320
  544SOL     OW 2219   1.062   0.533   0.490  0.5033  0.3175 -0.5521
  544SOL    HW2 2220   0.970   0.548   0.512  0.3972  0.7393 -1.2715
  544SOL    HW3 2221   1.060   0.453   0.436  0.4876  0.6903 -1.1030
  544SOL    MW4 2222   1.049   0.524   0.486  0.4872  0.4223 -0.7197
  545SOL     OW 2223   1.157   2.303   1.125 -0.1961 -0.2195  0.0154
  545SOL    HW2 2224   1.246   2.331   1.145  0.2594 -1.4452 -0.2874
  545SOL    HW3 2225   1.157   2.291   1.030 -0.9417  0.6690 -0.1043
  545SOL    MW4 2226   1.169   2.305   1.115 -0.2344 -0.2639 -0.0403
  546SOL     OW 2227   0.913   2.422   1.228 -0.0196  0.4303 -0.0814
  546SOL    HW2 2228   0.907   2.411   1.323 -0.0211 -0.9012 -0.2173
  546SOL    HW3 2229   0.999   2.386   1.206 -0.9376 -1.4025 -0.8375
  546SOL    MW4 2230   0.924   2.416   1.238 -0.1410  0.0129 -0.1991
  547SOL     OW 2231   0.857   2.692   1.135  0.2983  0.1849  0.3572
  547SOL    HW2 2232   0.850   2.608   1.180 -1.1075 -0.7061 -1.4449
  547SOL    HW3 2233   0.785   2.744   1.170 -0.3633 -0.2563 -0.3435
  547SOL    MW4 2234   0.846   2.688   1.146  0.0255  0.0088  0.0272
  548SOL     OW 2235   1.124   2.799   1.201 -0.3927 -0.1015  0.0835
  548SOL    HW2 2236   1.133   2.797   1.297  0.8244 -0.9135 -0.0361
  548SOL    HW3 2237   1.049   2.741   1.183 -2.7896  2.6684  0.7415
  548SOL    MW4 2238   1.115   2.791   1.212 -0.5484  0.1566  0.1545
  549SOL     OW 2239   1.112   3.061   1.122 -0.7566 -0.2452 -0.2537
  549SOL    HW2 2240   1.111   2.968   1.145 -0.3056 -0.2946 -0.4202
  549SOL    HW3 2241   1.074   3.064   1.034 -0.6437 -0.2872 -0.3037
  549SOL    MW4 2242   1.107   3.049   1.113 -0.6821 -0.2573 -0.2822
  550SOL     OW 2243   0.659   3.095   1.141 -0.0669  0.2765  0.4425
  550SOL    HW2 2244   0.677   3.096   1.047 -1.2101  1.3109  0.2266
  550SOL    HW3 2245   0.738   3.133   1.180 -0.2041  1.2695 -0.2190
  550SOL    MW4 2246   0.672   3.100   1.134 -0.2359  0.5441  0.3269
  551SOL     OW 2247   0.873   3.197   1.253  0.8515 -0.5997  0.6523
  551SOL    HW2 2248   0.877   3.291   1.234  0.0599 -0.7536 -0.3626
  551SOL    HW3 2249   0.957   3.163   1.220  0.5264 -0.4664 -0.3477
  551SOL    MW4 2250   0.885   3.205   1.246  0.7042 -0.6022  0.3864
  552SOL     OW 2251   1.121   3.608   1.259 -0.3792  0.2109 -0.3614
  552SOL    HW2 2252   1.191   3.552   1.225 -1.5706 -1.2978 -0.3826
  552SOL    HW3 2253   1.040   3.569   1.226 -1.3074  1.2684  0.5958
  552SOL    MW4 2254   1.119   3.596   1.251 -0.6590  0.1516 -0.2378
  553SOL     OW 2255   1.144   3.841   1.105  0.1657  0.1038 -0.0456
  553SOL    HW2 2256   1.074   3.898   1.136  0.8791  0.8341  0.2238
  553SOL    HW3 2257   1.139   3.764   1.162  1.2129  1.2649  1.6508
  553SOL    MW4 2258   1.134   3.838   1.117  0.3980  0.3533  0.2139
  554SOL     OW 2259   0.920   4.004   1.182 -0.0383 -0.0761 -0.1811
  554SOL    HW2 2260   0.915   4.011   1.277 -1.0799  2.4813 -0.3882
  554SOL    HW3 2261   0.840   3.957   1.157  0.0583 -0.4245  0.1599
  554SOL    MW4 2262   0.909   3.999   1.191 -0.1630  0.2151 -0.1637
  555SOL     OW 2263   0.919   4.262   1.110  0.6922 -0.1230 -0.2394
  555SOL    HW2 2264   0.929   4.171   1.138  1.1448 -0.3832 -1.1969
  555SOL    HW3 2265   0.921   4.257   1.014  1.2637  0.9488 -0.2893
  555SOL    MW4 2266   0.921   4.249   1.101  0.8273 -0.0157 -0.3724
  556SOL     OW 2267   1.143   4.391   1.236 -0.1264  0.0266  0.1639
  556SOL    HW2 2268   1.139   4.368   1.329 -2.3031  1.3349  0.4260
  556SOL    HW3 2269   1.064   4.352   1.199  0.0001  0.7284 -0.8541
  556SOL    MW4 2270   1.132   4.383   1.243 -0.3968  0.2913  0.0641
  557SOL     OW 2271   1.532   4.633   1.074  0.2191  0.0150 -0.0515
  557SOL    HW2 2272   1.607   4.664   1.125  0.6536  0.1994 -0.7974
  557SOL    HW3 2273   1.528   4.539   1.094  1.5508 -0.3011 -1.1090
  557SOL    MW4 2274   1.542   4.624   1.084  0.4522 -0.0019 -0.2893
  558SOL     OW 2275   1.339   0.106   1.207  0.4979 -0.3941  0.2226
  558SOL    HW2 2276   1.407   0.056   1.160  0.4171  0.5538 -0.9297
  558SOL    HW3 2277   1.258   0.084   1.161  0.3785  0.3496  0.0795
  558SOL    MW4 2278   1.337   0.096   1.194  0.4715 -0.1709  0.0517
  559SOL     OW 2279   1.357   0.369   1.137  0.1891 -0.0263  0.1902
  559SOL    HW2 2280   1.348   0.279   1.167 -2.4407  0.3101  0.4493
  559SOL    HW3 2281   1.273   0.410   1.154  1.0691  2.2765 -0.6875
  559SOL    MW4 2282   1.345   0.363   1.143 -0.0418  0.3219  0.1086
  560SOL     OW 2283   1.573   0.519   1.219  0.0287 -0.1404  0.5278
  560SOL    HW2 2284   1.576   0.593   1.158  0.2470 -0.9329 -0.4358
  560SOL    HW3 2285   1.488   0.478   1.203 -0.1415 -0.0424  1.1435
  560SOL    MW4 2286   1.562   0.524   1.209  0.0350 -0.2320  0.4818
  561SOL     OW 2287   1.567   0.756   1.079  0.5241  0.0434 -0.1921
  561SOL    HW2 2288   1.638   0.815   1.104  0.4945  0.0324 -0.0831
  561SOL    HW3 2289   1.563   0.762   0.983 -1.1536  2.1509 -0.0265
  561SOL    MW4 2290   1.576   0.765   1.070  0.2989  0.3201 -0.1559
  562SOL     OW 2291   1.349   0.880   1.205 -0.3843 -0.2088 -0.4531
  562SOL    HW2 2292   1.411   0.828   1.154  1.0534  0.5198  0.5140
  562SOL    HW3 2293   1.263   0.854   1.172  0.3825 -1.9525 -1.1474
  562SOL    MW4 2294   1.346   0.870   1.194 -0.0936 -0.3427 -0.4172
  563SOL     OW 2295   1.356   1.160   1.187 -0.0977  0.0274 -0.0655
  563SOL    HW2 2296   1.319   1.145   1.100 -1.2141 -0.9886  0.5662
  563SOL    HW3 2297   1.374   1.072   1.221  2.5026  0.4733 -0.1663
  563SOL    MW4 2298   1.354   1.146   1.180  0.0981 -0.0476  0.0045
  564SOL     OW 2299   1.565   1.311   1.252 -0.5028  0.1207 -0.1137
  564SOL    HW2 2300   1.642   1.266   1.216  0.2226  0.8698  0.4814
  564SOL    HW3 2301   1.491   1.265   1.214  0.2420 -0.5460 -0.7875
  564SOL    MW4 2302   1.566   1.299   1.242 -0.3089  0.1316 -0.1242
  565SOL     OW 2303   1.623   1.561   1.117 -0.0748 -0.3003  0.3989
  565SOL    HW2 2304   1.621   1.481   1.171  0.1931  0.4286  1.5166
  565SOL    HW3 2305   1.698   1.610   1.150  1.3681 -0.7791 -2.0641
  565SOL    MW4 2306   1.633   1.557   1.129  0.1509 -0.2673  0.2215
  566SOL     OW 2307   1.125   2.027   1.223 -0.0913  0.1921 -0.1727
  566SOL    HW2 2308   1.130   2.118   1.194  1.6672 -0.2417 -1.3008
  566SOL    HW3 2309   1.123   2.032   1.318  1.0030  1.3798 -0.2027
  566SOL    MW4 2310   1.125   2.040   1.231  0.2851  0.2913 -0.3254
  567SOL     OW 2311   1.370   1.942   1.138 -0.1333 -0.0252  0.0219
  567SOL    HW2 2312   1.365   1.846   1.144 -0.3539 -0.0263 -0.1657
  567SOL    HW3 2313   1.294   1.973   1.185 -1.6009 -0.0261 -2.2847
  567SOL    MW4 2314   1.360   1.933   1.145 -0.3561 -0.0255 -0.3072
  568SOL     OW 2315   1.585   2.074   1.257 -0.1810 -0.7340 -0.0885
  568SOL    HW2 2316   1.518   2.028   1.207 -0.1372 -0.6879 -0.1897
  568SOL    HW3 2317   1.591   2.160   1.216 -0.5766 -0.4799  0.3805
  568SOL    MW4 2318   1.577   2.079   1.245 -0.2275 -0.6943 -0.0399
  569SOL     OW 2319   1.649   2.325   1.128  0.2321 -0.0540  0.4326
  569SOL    HW2 2320   1.562   2.362   1.147  0.6778 -0.2402  3.0580
  569SOL    HW3 2321   1.656   2.329   1.033 -1.7668  1.9941  0.3112
  569SOL    MW4 2322   1.638   2.330   1.118  0.0273  0.1915  0.7628
  570SOL     OW 2323   1.412   2.422   1.189  0.3629 -0.2216 -0.1876
  570SOL    HW2 2324   1.397   2.510   1.155  0.3557 -0.5613 -1.0758
  570SOL    HW3 2325   1.382   2.426   1.279 -0.0469  0.5690 -0.3535
  570SOL    MW4 2326   1.406   2.434   1.196  0.3078 -0.1619 -0.3268
  571SOL     OW 2327   1.615   2.829   1.223 -0.1377  0.0548 -0.4054
  571SOL    HW2 2328   1.602   2.920   1.197 -1.2169  0.6669  2.0829
  571SOL    HW3 2329   1.546   2.780   1.179 -0.2396  0.6118 -0.8589
  571SOL    MW4 2330   1.604   2.834   1.214 -0.2935  0.2089 -0.1370
  572SOL     OW 2331   1.862   2.712   1.138  0.1113  0.3658  0.0345
  572SOL    HW2 2332   1.864   2.626   1.180 -0.8001  0.3306  0.0198
  572SOL    HW3 2333   1.782   2.753   1.171  0.3074  1.0307 -0.3030
  572SOL    MW4 2334   1.852   2.706   1.148  0.0170  0.4489 -0.0119
  573SOL     OW 2335   1.812   3.201   1.216  0.0123 -0.4942  0.3661
  573SOL    HW2 2336   1.809   3.293   1.191  2.2472 -0.4711  0.0883
  573SOL    HW3 2337   1.815   3.202   1.312  1.7103 -0.2038  0.3197
  573SOL    MW4 2338   1.812   3.213   1.226  0.5312 -0.4528  0.3233
  574SOL     OW 2339   1.347   3.188   1.188 -0.2822 -0.2783  0.0540
  574SOL    HW2 2340   1.371   3.157   1.275 -0.6171 -1.2092 -0.1860
  574SOL    HW3 2341   1.273   3.133   1.162 -0.6102  0.4330 -0.5500
  574SOL    MW4 2342   1.340   3.177   1.196 -0.3698 -0.3073 -0.0576
  575SOL     OW 2343   1.341   3.462   1.160  0.1438  0.4012 -0.2367
  575SOL    HW2 2344   1.334   3.367   1.172 -1.5124  0.6756  1.1461
  575SOL    HW3 2345   1.319   3.477   1.068 -0.1289 -0.5035 -0.3192
  575SOL    MW4 2346   1.337   3.452   1.149 -0.1107  0.3183 -0.0652
  576SOL     OW 2347   1.583   3.571   1.226  0.1522  0.4505 -0.3381
  576SOL    HW2 2348   1.582   3.661   1.193  1.0870  0.2079 -1.0422
  576SOL    HW3 2349   1.498   3.536   1.198 -0.0714  0.9988 -0.3691
  576SOL    MW4 2350   1.571   3.579   1.218  0.2460  0.4909 -0.4351
  577SOL     OW 2351   1.569   3.839   1.150 -0.3554  0.0191  0.0596
  577SOL    HW2 2352   1.481   3.874   1.167 -0.3361 -0.6182  1.5863
  577SOL    HW3 2353   1.575   3.835   1.055 -1.8982  0.2884 -0.0710
  577SOL    MW4 2354   1.558   3.843   1.140 -0.5565 -0.0293  0.2437
  578SOL     OW 2355   1.348   3.996   1.225 -0.0125 -0.5567 -0.6302
  578SOL    HW2 2356   1.357   4.082   1.183 -1.0220 -0.8273 -1.4317
  578SOL    HW3 2357   1.265   3.962   1.191 -0.7908 -0.8359  1.4969
  578SOL    MW4 2358   1.338   4.003   1.215 -0.2484 -0.6289 -0.4553
  579SOL     OW 2359   1.351   4.247   1.122 -0.0861  0.6264  0.1496
  579SOL    HW2 2360   1.339   4.251   1.027 -1.4803  0.0627  0.2963
  579SOL    HW3 2361   1.282   4.303   1.157 -0.5805 -0.4480  0.8969
  579SOL    MW4 2362   1.340   4.255   1.114 -0.3352  0.4101  0.2676
  580SOL     OW 2363   1.567   4.399   1.201 -0.9241  0.6801  0.0739
  580SOL    HW2 2364   1.554   4.409   1.295 -0.9814 -0.1236  0.1525
  580SOL    HW3 2365   1.500   4.337   1.174 -0.2005  0.0480 -0.2973
  580SOL    MW4 2366   1.556   4.392   1.210 -0.8361  0.4902  0.0354
  581SOL     OW 2367   1.993   4.665   1.076  0.0407 -0.0004  0.0997
  581SOL    HW2 2368   2.023   4.583   1.114  1.0875  0.2891 -0.1062
  581SOL    HW3 2369   1.993   4.650   0.982  1.1642  0.5537  0.0106
  581SOL    MW4 2370   1.997   4.652   1.069  0.3271  0.1106  0.0607
  582SOL     OW 2371   1.758   0.080   1.195  0.1641 -0.2362  0.2228
  582SOL    HW2 2372   1.748   0.170   1.164  0.0199 -0.0629  0.7762
  582SOL    HW3 2373   1.840   0.051   1.156  0.1928  0.1221  0.0108
  582SOL    MW4 2374   1.767   0.088   1.185  0.1490 -0.1661  0.2679
  583SOL     OW 2375   1.764   0.350   1.099  0.2966  0.4753 -0.0678
  583SOL    HW2 2376   1.761   0.377   1.008  0.8170  1.8685  0.3237
  583SOL    HW3 2377   1.694   0.400   1.142  0.1814 -0.0242  0.3366
  583SOL    MW4 2378   1.754   0.360   1.093  0.3500  0.5932  0.0370
  584SOL     OW 2379   1.992   0.527   1.199 -0.2393  0.3394 -0.8660
  584SOL    HW2 2380   1.994   0.518   1.294 -0.5057  1.8679 -0.7057
  584SOL    HW3 2381   1.921   0.468   1.171  0.1735 -0.4982 -0.1791
  584SOL    MW4 2382   1.983   0.518   1.208 -0.2198  0.4305 -0.7542
  585SOL     OW 2383   2.032   0.773   1.077 -0.0731  0.0891  0.1032
  585SOL    HW2 2384   2.026   0.679   1.093 -1.8668  0.3150  0.9725
  585SOL    HW3 2385   2.105   0.802   1.132 -0.4514 -0.5794  0.9744
  585SOL    MW4 2386   2.041   0.765   1.087 -0.3598  0.0306  0.3328
  586SOL     OW 2387   1.791   0.902   1.160 -0.1767  0.9065 -0.1974
  586SOL    HW2 2388   1.780   0.891   1.255 -3.1971 -0.6240 -0.6467
  586SOL    HW3 2389   1.864   0.844   1.138 -1.2852 -0.9431  0.8157
  586SOL    MW4 2390   1.799   0.893   1.170 -0.7213  0.4605 -0.1229
  587SOL     OW 2391   1.996   1.327   1.213  0.0659 -0.3871  0.6855
  587SOL    HW2 2392   2.072   1.269   1.207  0.8358  0.5756  0.9405
  587SOL    HW3 2393   1.926   1.279   1.171  0.5735 -1.7128  1.3209
  587SOL    MW4 2394   1.997   1.313   1.207  0.2346 -0.4351  0.8031
  588SOL     OW 2395   3.468   0.544   0.528 -0.1264  0.4991  0.3820
  588SOL    HW2 2396   3.563   0.546   0.544  0.0387 -0.7431 -0.3557
  588SOL    HW3 2397   3.454   0.606   0.457  0.0121  1.3614  1.1116
  588SOL    MW4 2398   3.479   0.552   0.521 -0.0863  0.4490  0.3809
  589SOL     OW 2399   1.996   1.579   1.113  0.2102 -0.2570 -0.2474
  589SOL    HW2 2400   1.974   1.488   1.132 -0.7737 -0.1676 -0.9467
  589SOL    HW3 2401   2.017   1.580   1.020 -2.2330  0.6896 -0.8180
  589SOL    MW4 2402   1.996   1.568   1.103 -0.2419 -0.1204 -0.4150
  590SOL     OW 2403   1.813   1.981   1.114  0.1122 -0.0531  0.3340
  590SOL    HW2 2404   1.730   2.014   1.148  0.0298 -0.7716  0.8585
  590SOL    HW3 2405   1.806   1.990   1.019 -0.3796  0.3286  0.4064
  590SOL    MW4 2406   1.801   1.986   1.106  0.0365 -0.0976  0.4127
  591SOL     OW 2407   1.805   1.731   1.231 -0.0422 -0.1175  0.0797
  591SOL    HW2 2408   1.885   1.687   1.203  1.2041  0.8269  2.0323
  591SOL    HW3 2409   1.812   1.820   1.196  0.3969  0.3420  1.2751
  591SOL    MW4 2410   1.817   1.737   1.223  0.1802  0.0676  0.4951
  592SOL     OW 2411   2.040   2.096   1.223  0.0358  0.2978 -0.4763
  592SOL    HW2 2412   2.019   2.089   1.316 -0.6554  1.3447 -0.5456
  592SOL    HW3 2413   1.960   2.070   1.178 -0.7737  3.0932 -0.7464
  592SOL    MW4 2414   2.027   2.092   1.230 -0.1621  0.8047 -0.5209
  593SOL     OW 2415   2.300   2.474   1.245 -0.3334 -0.4236  0.6670
  593SOL    HW2 2416   2.368   2.411   1.222 -0.5067 -0.6277  0.7169
  593SOL    HW3 2417   2.310   2.487   1.339 -0.3672 -0.4567  0.6749
  593SOL    MW4 2418   2.310   2.467   1.254 -0.3607 -0.4549  0.6746
  594SOL     OW 2419   1.843   2.455   1.266 -0.1632 -0.1523 -0.3592
  594SOL    HW2 2420   1.926   2.427   1.226  1.2961 -0.2441  2.5693
  594SOL    HW3 2421   1.777   2.400   1.224  1.4753 -1.2349 -1.6049
  594SOL    MW4 2422   1.845   2.444   1.256  0.2457 -0.3073 -0.1372
  595SOL     OW 2423   1.730   3.483   0.612 -0.0353 -0.4587 -0.0726
  595SOL    HW2 2424   1.762   3.481   0.702 -0.9474  2.4534  0.3729
  595SOL    HW3 2425   1.660   3.418   0.609 -0.6733  0.1468  1.5890
  595SOL    MW4 2426   1.725   3.474   0.623 -0.2397  0.0055  0.2054
  596SOL     OW 2427   2.707   1.495   0.432  0.1743  0.0165 -0.3956
  596SOL    HW2 2428   2.656   1.552   0.374  0.6607 -0.1158 -0.9635
  596SOL    HW3 2429   2.726   1.418   0.378  1.2735  0.2170 -0.2982
  596SOL    MW4 2430   2.703   1.492   0.417  0.3834  0.0256 -0.4577
  597SOL     OW 2431   0.723   3.935   0.362  0.1521  0.9379  0.2883
  597SOL    HW2 2432   0.756   3.923   0.451 -0.9775 -0.1791  0.5744
  597SOL    HW3 2433   0.766   3.867   0.311 -2.5112 -1.3164  0.9054
  597SOL    MW4 2434   0.733   3.925   0.367 -0.3483  0.4933  0.4074
  598SOL     OW 2435   2.065   3.125   1.136  0.7774  0.1524 -0.4840
  598SOL    HW2 2436   2.067   3.035   1.168  1.3881  0.0914 -0.6867
  598SOL    HW3 2437   1.973   3.151   1.142  0.7938 -0.0495  0.7920
  598SOL    MW4 2438   2.053   3.116   1.141  0.8600  0.1173 -0.3424
  599SOL     OW 2439   1.825   3.449   1.126 -0.5769  0.0831 -0.4285
  599SOL    HW2 2440   1.896   3.499   1.167 -0.0392 -2.2855  1.6404
  599SOL    HW3 2441   1.745   3.497   1.149  0.1447  1.6407 -1.0594
  599SOL    MW4 2442   1.824   3.462   1.134 -0.4109 -0.0238 -0.2389
  600SOL     OW 2443   2.014   3.643   1.198  0.5802 -0.6208  0.1358
  600SOL    HW2 2444   2.002   3.664   1.291  0.6398  0.3257 -0.0614
  600SOL    HW3 2445   2.086   3.580   1.197  1.1287 -0.0145  0.6738
  600SOL    MW4 2446   2.022   3.638   1.210  0.6602 -0.4160  0.1807
  601SOL     OW 2447   1.980   3.910   1.094  0.1995  0.4599  0.4323
  601SOL    HW2 2448   1.906   3.948   1.141 -1.0020  0.2409 -1.2447
  601SOL    HW3 2449   1.974   3.816   1.113 -0.9125  0.2295 -0.9735
  601SOL    MW4 2450   1.970   3.903   1.103 -0.1057  0.4008  0.0257
  602SOL     OW 2451   1.752   4.028   1.200 -0.3044  0.3345  0.0573
  602SOL    HW2 2452   1.749   4.029   1.295 -0.4303 -0.8374  0.0752
  602SOL    HW3 2453   1.683   3.967   1.174 -1.5265  2.0791 -0.8624
  602SOL    MW4 2454   1.743   4.020   1.209 -0.4822  0.4101 -0.0618
  603SOL     OW 2455   1.814   4.282   1.095  0.2568  0.6676 -0.1664
  603SOL    HW2 2456   1.743   4.335   1.131 -0.0219  0.2175 -0.0464
  603SOL    HW3 2457   1.801   4.195   1.133  0.0097  0.2092 -1.2859
  603SOL    MW4 2458   1.803   4.277   1.105  0.1875  0.5484 -0.2983
  604SOL     OW 2459   2.055   4.417   1.171  0.1576  0.3725 -0.1846
  604SOL    HW2 2460   2.043   4.421   1.266  1.9703 -0.2633  0.0944
  604SOL    HW3 2461   1.976   4.376   1.138 -1.3319  2.2961  0.8542
  604SOL    MW4 2462   2.043   4.412   1.180  0.2000  0.5426 -0.0106
  605SOL     OW 2463   2.459   4.667   1.084  0.5496  0.2044 -0.0352
  605SOL    HW2 2464   2.521   4.686   1.155 -0.0477 -0.1466  0.5896
  605SOL    HW3 2465   2.377   4.706   1.113  0.0312 -0.8832 -0.0288
  605SOL    MW4 2466   2.457   4.674   1.097  0.4022  0.0148  0.0480
  606SOL     OW 2467   2.227   0.107   1.212 -0.2245 -0.1843  0.6278
  606SOL    HW2 2468   2.228   0.200   1.190  1.0718 -0.1684  0.7007
  606SOL    HW3 2469   2.146   0.074   1.173 -0.3355  0.8241 -0.0281
  606SOL    MW4 2470   2.216   0.115   1.204 -0.0684 -0.0491  0.5510
  607SOL     OW 2471   2.463   1.251   0.786  0.4712  0.2505 -0.2629
  607SOL    HW2 2472   2.546   1.206   0.802  0.7633  0.5798 -0.8390
  607SOL    HW3 2473   2.471   1.333   0.833  0.1791 -0.0349  0.2876
  607SOL    MW4 2474   2.475   1.256   0.794  0.4714  0.2563 -0.2663
  608SOL     OW 2475   2.219   0.383   1.166  0.2114 -0.4341  0.2860
  608SOL    HW2 2476   2.213   0.379   1.070  1.0013 -0.4175  0.2339
  608SOL    HW3 2477   2.150   0.444   1.191 -1.3153 -1.9717 -0.1117
  608SOL    MW4 2478   2.209   0.391   1.156  0.1142 -0.6348  0.2267
  609SOL     OW 2479   2.479   0.727   1.102  0.0583  0.3123  0.3212
  609SOL    HW2 2480   2.475   0.635   1.128 -0.6304  0.3832  0.4878
  609SOL    HW3 2481   2.473   0.726   1.006  0.9406  0.1393  0.2654
  609SOL    MW4 2482   2.478   0.715   1.093  0.0839  0.2989  0.3359
  610SOL     OW 2483   2.258   0.884   1.214 -0.2117  0.5853  0.6451
  610SOL    HW2 2484   2.338   0.837   1.190 -0.9391  0.4549 -1.5660
  610SOL    HW3 2485   2.258   0.882   1.310  1.2236 -1.4562  0.6403
  610SOL    MW4 2486   2.269   0.877   1.224 -0.1183  0.2988  0.3529
  611SOL     OW 2487   2.246   1.176   1.167 -0.0698 -0.2527 -0.1666
  611SOL    HW2 2488   2.322   1.211   1.213  0.0025  0.0255 -0.4951
  611SOL    HW3 2489   2.240   1.085   1.196  0.0053 -0.0953  0.3489
  611SOL    MW4 2490   2.255   1.169   1.177 -0.0503 -0.1954 -0.1417
  612SOL     OW 2491   2.502   1.279   1.252  0.3063  0.0216 -0.0308
  612SOL    HW2 2492   2.553   1.229   1.188 -1.2656 -0.4290 -0.9593
  612SOL    HW3 2493   2.504   1.369   1.219 -0.3061 -0.1674 -0.5862
  612SOL    MW4 2494   2.509   1.284   1.239  0.0179 -0.0627 -0.2265
  613SOL     OW 2495   2.482   1.535   1.175 -0.5651 -0.1574  0.5929
  613SOL    HW2 2496   2.404   1.580   1.206 -0.1874 -0.1949  1.6366
  613SOL    HW3 2497   2.480   1.544   1.080  0.2210  3.2849  0.8445
  613SOL    MW4 2498   2.472   1.542   1.167 -0.4115  0.2918  0.7637
  614SOL     OW 2499   2.239   1.665   1.232 -0.5767  0.3970  0.3170
  614SOL    HW2 2500   2.248   1.753   1.196 -2.5346  1.1423  1.5894
  614SOL    HW3 2501   2.165   1.627   1.185 -1.2928  0.3297  1.4874
  614SOL    MW4 2502   2.231   1.672   1.221 -0.9294  0.4866  0.6393
  615SOL     OW 2503   2.259   1.929   1.150 -0.0870 -0.4012 -0.2005
  615SOL    HW2 2504   2.192   1.982   1.193  0.5526  1.3297 -1.2963
  615SOL    HW3 2505   2.236   1.931   1.057  0.7122 -0.8990 -0.4178
  615SOL    MW4 2506   2.247   1.936   1.143  0.1028 -0.2385 -0.3737
  616SOL     OW 2507   2.501   2.038   1.238  0.0075 -0.0779 -0.6489
  616SOL    HW2 2508   2.565   1.972   1.209  0.4556  0.6460 -1.3576
  616SOL    HW3 2509   2.416   1.997   1.221  0.2586 -1.4649  1.2718
  616SOL    MW4 2510   2.498   2.024   1.232  0.0999 -0.1655 -0.4891
  617SOL     OW 2511   2.497   2.303   1.125 -0.2139  0.2132 -0.1448
  617SOL    HW2 2512   2.513   2.216   1.163  1.9279  0.4689 -0.4020
  617SOL    HW3 2513   2.506   2.290   1.031  1.7861  1.0320 -0.0833
  617SOL    MW4 2514   2.500   2.290   1.118  0.3326  0.3545 -0.1705
  618SOL     OW 2515   2.308   2.728   1.123 -0.3322  0.5619  0.0892
  618SOL    HW2 2516   2.298   2.638   1.154 -1.4838  0.4772 -0.5096
  618SOL    HW3 2517   2.324   2.720   1.029  0.9782  0.9263  0.2708
  618SOL    MW4 2518   2.309   2.715   1.115 -0.3114  0.5989  0.0342
  619SOL     OW 2519   2.530   2.868   1.236  0.3364  0.1580  0.4542
  619SOL    HW2 2520   2.515   2.863   1.330  1.9183 -0.1669  0.7060
  619SOL    HW3 2521   2.459   2.816   1.198  0.3011 -0.5982  1.5242
  619SOL    MW4 2522   2.518   2.860   1.243  0.5405  0.0153  0.6287
  620SOL     OW 2523   2.486   2.839   1.504 -0.4315 -0.1491 -0.4014
  620SOL    HW2 2524   2.497   2.921   1.553 -2.3735  0.2490 -0.6050
  620SOL    HW3 2525   2.406   2.800   1.541  0.1641 -1.6817 -0.6978
  620SOL    MW4 2526   2.477   2.844   1.516 -0.6089 -0.2987 -0.4673
  621SOL     OW 2527   2.481   3.096   1.095 -0.3252  0.4683 -0.2301
  621SOL    HW2 2528   2.425   3.152   1.150 -0.0993 -0.2904  0.7851
  621SOL    HW3 2529   2.500   3.020   1.150 -0.7622 -0.6866 -1.6720
  621SOL    MW4 2530   2.476   3.094   1.110 -0.3531  0.2158 -0.2865
  622SOL     OW 2531   2.286   3.209   1.275  0.0794 -0.1111 -0.4029
  622SOL    HW2 2532   2.288   3.302   1.251  2.0962  0.1474  0.6316
  622SOL    HW3 2533   2.206   3.175   1.235 -1.9014  2.5836  1.1590
  622SOL    MW4 2534   2.276   3.217   1.267  0.0839  0.2785 -0.0603
  623SOL     OW 2535   2.239   3.459   1.172  0.1209  0.1293  0.5663
  623SOL    HW2 2536   2.328   3.494   1.176  0.1534  0.0058  0.9508
  623SOL    HW3 2537   2.223   3.446   1.078 -0.4560  2.6325  0.2689
  623SOL    MW4 2538   2.249   3.462   1.160  0.0491  0.4435  0.5779
  624SOL     OW 2539   2.505   3.577   1.214  0.2116  0.1256 -0.0957
  624SOL    HW2 2540   2.485   3.574   1.307  0.4378 -0.4779 -0.0633
  624SOL    HW3 2541   2.488   3.668   1.188  1.9718  0.7624  0.9417
  624SOL    MW4 2542   2.500   3.588   1.223  0.4735  0.1302  0.0455
  625SOL     OW 2543   2.459   3.838   1.156 -0.2868  0.2813 -0.2177
  625SOL    HW2 2544   2.386   3.899   1.164  0.5242  1.3958 -1.3083
  625SOL    HW3 2545   2.475   3.831   1.062  1.8095  0.9987  0.0716
  625SOL    MW4 2546   2.451   3.845   1.145  0.0970  0.5231 -0.3234
  626SOL     OW 2547   2.231   4.013   1.192  0.2147 -0.2408 -0.1223
  626SOL    HW2 2548   2.234   4.092   1.138 -0.8303 -0.1193 -0.0166
  626SOL    HW3 2549   2.151   3.969   1.165  1.4571 -1.9506 -1.1183
  626SOL    MW4 2550   2.221   4.018   1.181  0.2410 -0.4501 -0.2397
  627SOL     OW 2551   2.281   4.277   1.097 -0.3642  0.2739  0.4131
  627SOL    HW2 2552   2.274   4.290   1.003 -0.1511  1.2060  0.5149
  627SOL    HW3 2553   2.209   4.329   1.134 -0.7521 -0.4848  0.7370
  627SOL    MW4 2554   2.271   4.286   1.090 -0.3872  0.2966  0.4692
  628SOL     OW 2555   2.492   4.424   1.214  0.0216  0.3811  0.1260
  628SOL    HW2 2556   2.414   4.375   1.188  0.7785 -0.9329  0.2978
  628SOL    HW3 2557   2.478   4.512   1.178 -1.3131  0.0317 -0.2461
  628SOL    MW4 2558   2.480   4.429   1.206 -0.0546  0.1621  0.0995
  629SOL     OW 2559   2.928   4.653   1.138  0.0723  0.1771  0.2035
  629SOL    HW2 2560   2.937   4.560   1.159  0.3235  0.2126  0.2570
  629SOL    HW3 2561   2.908   4.656   1.045 -0.6840  0.0304  0.3623
  629SOL    MW4 2562   2.927   4.641   1.129  0.0057  0.1621  0.2315
  630SOL     OW 2563   2.674   0.076   1.249 -0.1032  0.0573 -0.1080
  630SOL    HW2 2564   2.684   0.088   1.344 -0.2444 -0.1888 -0.0619
  630SOL    HW3 2565   2.757   0.035   1.222 -0.3736 -0.5866  0.0335
  630SOL    MW4 2566   2.687   0.072   1.258 -0.1574 -0.0601 -0.0834
  631SOL     OW 2567   2.708   0.329   1.114  0.1660 -0.3539  0.0715
  631SOL    HW2 2568   2.689   0.247   1.161  0.7153 -0.4805  0.0802
  631SOL    HW3 2569   2.636   0.387   1.137 -0.1173 -0.7667  0.2394
  631SOL    MW4 2570   2.696   0.326   1.124  0.2012 -0.4251  0.0948
  632SOL     OW 2571   2.912   0.476   1.232  0.2845 -0.1399 -0.0626
  632SOL    HW2 2572   2.921   0.559   1.186 -0.8479  0.1606  0.2428
  632SOL    HW3 2573   2.834   0.436   1.194  1.0939 -1.2816 -0.5328
  632SOL    MW4 2574   2.903   0.482   1.221  0.2420 -0.2509 -0.0843
  633SOL     OW 2575   2.925   0.753   1.133  0.2146 -0.5700  0.1785
  633SOL    HW2 2576   2.999   0.800   1.172 -1.5164  1.4940  1.0965
  633SOL    HW3 2577   2.933   0.769   1.039  0.3646  0.4944  0.3648
  633SOL    MW4 2578   2.936   0.761   1.126  0.0060 -0.1573  0.3242
  634SOL     OW 2579   2.690   0.876   1.215  0.2632 -0.7805  0.1827
  634SOL    HW2 2580   2.772   0.829   1.201  0.6979 -0.1437  0.5717
  634SOL    HW3 2581   2.627   0.834   1.156  1.2236 -0.3090 -1.1971
  634SOL    MW4 2582   2.692   0.864   1.206  0.4475 -0.6343  0.0520
  635SOL     OW 2583   2.726   1.133   1.116  0.1411  0.4025  0.0116
  635SOL    HW2 2584   2.805   1.165   1.161 -0.2580  0.8044  0.4312
  635SOL    HW3 2585   2.707   1.050   1.160  0.8252 -0.1242 -0.6712
  635SOL    MW4 2586   2.734   1.126   1.128  0.1786  0.3860 -0.0231
  636SOL     OW 2587   2.960   1.210   1.241 -0.4699 -0.3776 -0.1794
  636SOL    HW2 2588   2.941   1.217   1.334  0.3973 -0.4485  0.0089
  636SOL    HW3 2589   2.963   1.301   1.210 -1.0553 -0.3650 -0.2014
  636SOL    MW4 2590   2.958   1.223   1.249 -0.4327 -0.3854 -0.1575
  637SOL     OW 2591   2.923   1.463   1.147 -0.1785 -0.1982 -0.2115
  637SOL    HW2 2592   2.980   1.531   1.183 -2.7863  2.5609 -1.1484
  637SOL    HW3 2593   2.937   1.468   1.053 -1.9272  0.4463 -0.4352
  637SOL    MW4 2594   2.933   1.473   1.139 -0.7532  0.2509 -0.3645
  638SOL     OW 2595   2.722   1.619   1.246  0.1488 -0.4547  0.0630
  638SOL    HW2 2596   2.787   1.558   1.211 -1.4975 -0.8135 -2.4484
  638SOL    HW3 2597   2.639   1.571   1.241 -0.3283 -0.1254  3.5190
  638SOL    MW4 2598   2.720   1.605   1.241 -0.1314 -0.4585  0.1876
  639SOL     OW 2599   2.704   1.878   1.129 -0.3042  0.4654  0.0607
  639SOL    HW2 2600   2.775   1.933   1.162  0.3551  0.4535 -1.2989
  639SOL    HW3 2601   2.729   1.789   1.156 -0.3310  0.5787  0.4696
  639SOL    MW4 2602   2.717   1.873   1.137 -0.2208  0.4787 -0.0646
  640SOL     OW 2603   2.919   2.042   1.239 -0.2762 -0.1491  0.0561
  640SOL    HW2 2604   2.937   2.067   1.330 -0.0515  0.1628 -0.0711
  640SOL    HW3 2605   2.920   2.125   1.191  1.1314 -0.4638 -0.4799
  640SOL    MW4 2606   2.922   2.057   1.245 -0.0608 -0.1495 -0.0314
  641SOL     OW 2607   2.907   2.308   1.111 -0.1282  0.3179 -0.3166
  641SOL    HW2 2608   2.990   2.345   1.141 -0.5393  0.4539  0.6586
  641SOL    HW3 2609   2.843   2.378   1.125 -0.5679 -0.0958 -0.2478
  641SOL    MW4 2610   2.909   2.322   1.117 -0.2406  0.2813 -0.1789
  642SOL     OW 2611   2.701   2.473   1.176 -0.5841 -0.2741 -0.5657
  642SOL    HW2 2612   2.704   2.479   1.271 -1.4658  1.1072 -0.6029
  642SOL    HW3 2613   2.625   2.419   1.157 -1.0669  0.3845 -0.5080
  642SOL    MW4 2614   2.692   2.467   1.186 -0.7641 -0.0048 -0.5630
  643SOL     OW 2615   2.723   2.736   1.111 -0.0459 -0.1933  0.5384
  643SOL    HW2 2616   2.711   2.643   1.133 -2.6333  0.3290  1.5431
  643SOL    HW3 2617   2.650   2.780   1.155  0.1345  2.1105 -1.3797
  643SOL    MW4 2618   2.712   2.729   1.120 -0.3633  0.1795  0.4179
  644SOL     OW 2619   2.955   2.827   1.221  0.1601  0.7157  0.1924
  644SOL    HW2 2620   2.921   2.820   1.311  0.8166 -0.0088  0.3917
  644SOL    HW3 2621   2.881   2.804   1.165 -0.3002  1.3333  0.5399
  644SOL    MW4 2622   2.941   2.823   1.226  0.1862  0.7017  0.2645
  645SOL     OW 2623   2.992   3.100   1.188  0.0037 -0.0936  0.3464
  645SOL    HW2 2624   2.984   3.008   1.216  0.4645 -0.7739 -1.7393
  645SOL    HW3 2625   2.988   3.097   1.093 -1.9458  2.2513  0.2944
  645SOL    MW4 2626   2.990   3.088   1.179 -0.1926  0.1261  0.0644
  646SOL     OW 2627   2.714   3.229   1.214 -0.0207  0.4543  0.4010
  646SOL    HW2 2628   2.804   3.197   1.208 -0.7355 -1.2984 -2.1148
  646SOL    HW3 2629   2.663   3.164   1.165 -2.4089  2.3231  0.3515
  646SOL    MW4 2630   2.719   3.216   1.207 -0.4301  0.4697  0.0627
  647SOL     OW 2631   2.730   3.467   1.104  0.3117  0.0841 -0.2093
  647SOL    HW2 2632   2.653   3.512   1.139  0.2887 -0.1397  0.0244
  647SOL    HW3 2633   2.722   3.377   1.134  0.8102  0.1233  0.0546
  647SOL    MW4 2634   2.719   3.461   1.113  0.3743  0.0601 -0.1436
  648SOL     OW 2635   2.911   3.588   1.271 -0.1961  0.0512 -0.2048
  648SOL    HW2 2636   2.998   3.567   1.238 -0.3998  0.1859 -0.8174
  648SOL    HW3 2637   2.852   3.533   1.220 -0.5600  0.6791 -0.4540
  648SOL    MW4 2638   2.915   3.578   1.260 -0.2713  0.1519 -0.3185
  649SOL     OW 2639   2.896   3.827   1.136  0.4814  0.2168  0.2680
  649SOL    HW2 2640   2.975   3.862   1.177 -0.1184  1.6117  0.2466
  649SOL    HW3 2641   2.882   3.743   1.180  1.6542  0.2221  0.6625
  649SOL    MW4 2642   2.904   3.820   1.148  0.5569  0.4017  0.3172
  650SOL     OW 2643   2.695   4.003   1.215  0.1181  0.4112 -0.2700
  650SOL    HW2 2644   2.753   3.933   1.185  0.6425  0.4077  0.7285
  650SOL    HW3 2645   2.607   3.965   1.210  0.5137 -0.8108  1.5576
  650SOL    MW4 2646   2.691   3.989   1.211  0.2396  0.2494  0.1030
  651SOL     OW 2647   2.705   4.269   1.098  0.0889  0.1170  0.0154
  651SOL    HW2 2648   2.703   4.175   1.118  0.8904 -0.0679 -0.7709
  651SOL    HW3 2649   2.635   4.306   1.152 -0.4786 -0.9831  0.0507
  651SOL    MW4 2650   2.696   4.261   1.108  0.1197 -0.0525 -0.0837
  652SOL     OW 2651   2.942   4.402   1.213  0.1313  0.2678  0.1410
  652SOL    HW2 2652   3.015   4.352   1.177  0.5700  1.2215 -0.3115
  652SOL    HW3 2653   2.863   4.360   1.178  0.5146  0.2326 -0.6699
  652SOL    MW4 2654   2.941   4.390   1.204  0.2396  0.3891 -0.0256
  653SOL     OW 2655   3.374   4.625   1.119 -0.4346  0.2018 -0.1632
  653SOL    HW2 2656   3.447   4.675   1.156  1.1640 -1.2048 -1.3116
  653SOL    HW3 2657   3.296   4.676   1.141  0.7934  1.2471  1.9357
  653SOL    MW4 2658   3.374   4.638   1.127 -0.0620  0.1540 -0.0378
  654SOL     OW 2659   3.169   0.131   1.198 -0.3661 -0.2881  0.2585
  654SOL    HW2 2660   3.187   0.123   1.292 -0.7266 -0.7145  0.2942
  654SOL    HW3 2661   3.088   0.081   1.185 -1.7958  1.9527  0.1984
  654SOL    MW4 2662   3.161   0.123   1.209 -0.6022 -0.0487  0.2553
  655SOL     OW 2663   3.136   0.392   1.114 -0.4432  0.1453  0.0029
  655SOL    HW2 2664   3.147   0.303   1.147 -0.0404  0.5155  0.8939
  655SOL    HW3 2665   3.072   0.431   1.172 -0.5020  0.4856 -0.2918
  655SOL    MW4 2666   3.129   0.385   1.126 -0.3979  0.2390  0.0817
  656SOL     OW 2667   3.369   0.471   1.254  0.0816  0.3852  0.1641
  656SOL    HW2 2668   3.386   0.562   1.230 -3.1434  0.6783 -1.2136
  656SOL    HW3 2669   3.294   0.445   1.200 -0.8527 -2.2067  2.5812
  656SOL    MW4 2670   3.361   0.480   1.244 -0.4671  0.0819  0.3014
  657SOL     OW 2671   0.417   1.368   0.466  0.0317 -0.3866 -0.4929
  657SOL    HW2 2672   0.483   1.435   0.485 -1.0461  0.2042  1.2807
  657SOL    HW3 2673   0.360   1.408   0.401  1.1873 -0.7590 -1.7540
  657SOL    MW4 2674   0.418   1.382   0.460  0.0419 -0.3577 -0.4253
  658SOL     OW 2675   3.147   0.887   1.230 -0.2134 -0.0882  0.5379
  658SOL    HW2 2676   3.147   0.882   1.325 -0.4485  0.1072  0.5502
  658SOL    HW3 2677   3.144   0.981   1.211  0.0634 -0.1193  0.3373
  658SOL    MW4 2678   3.147   0.899   1.240 -0.2077 -0.0665  0.5130
  659SOL     OW 2679   3.417   1.310   1.204 -0.2296  0.0201  0.2425
  659SOL    HW2 2680   3.417   1.312   1.300  0.1634 -0.4043  0.2519
  659SOL    HW3 2681   3.406   1.402   1.179  0.0398  0.1793  0.6945
  659SOL    MW4 2682   3.415   1.322   1.214 -0.1423 -0.0148  0.3034
  660SOL     OW 2683   3.357   1.578   1.144  0.3341 -0.0984 -0.0664
  660SOL    HW2 2684   3.283   1.592   1.203  0.8625 -1.0734  0.8659
  660SOL    HW3 2685   3.424   1.639   1.175  0.8060 -0.9939  0.7115
  660SOL    MW4 2686   3.356   1.588   1.156  0.4661 -0.3451  0.1593
  661SOL     OW 2687   0.132   0.677   0.298  0.1083  0.5890  0.3523
  661SOL    HW2 2688   0.056   0.735   0.292 -0.2192  0.2078  0.7947
  661SOL    HW3 2689   0.095   0.589   0.303  0.6222  0.2858 -1.0348
  661SOL    MW4 2690   0.117   0.673   0.298  0.1329  0.4986  0.2277
  662SOL     OW 2691   3.097   1.646   1.265  0.0048 -0.5384 -0.2458
  662SOL    HW2 2692   3.107   1.643   1.360 -4.1129  2.7677  0.4040
  662SOL    HW3 2693   3.127   1.733   1.240  0.0426 -0.9982 -1.8666
  662SOL    MW4 2694   3.102   1.657   1.274 -0.5338 -0.1628 -0.3740
  663SOL     OW 2695   4.307   0.522   0.833 -0.3011  0.0302 -0.2273
  663SOL    HW2 2696   4.220   0.483   0.830 -0.4051  0.3144 -1.0297
  663SOL    HW3 2697   4.295   0.606   0.878 -0.3791 -0.0895 -0.0263
  663SOL    MW4 2698   4.294   0.528   0.838 -0.3247  0.0519 -0.3067
  664SOL     OW 2699   3.140   1.885   1.150 -0.1106 -0.0861 -0.2189
  664SOL    HW2 2700   3.076   1.949   1.182  0.0797  0.0674 -0.1463
  664SOL    HW3 2701   3.225   1.921   1.175  0.1478  0.8197 -2.2683
  664SOL    MW4 2702   3.143   1.898   1.158 -0.0513  0.0535 -0.4797
  665SOL     OW 2703   3.380   2.016   1.202 -0.0375  0.1868 -0.1936
  665SOL    HW2 2704   3.372   2.109   1.182  0.6357  0.4987  0.9748
  665SOL    HW3 2705   3.463   1.990   1.162  0.9215  0.6331  1.4474
  665SOL    MW4 2706   3.390   2.024   1.194  0.1776  0.2868  0.1769
  666SOL     OW 2707   3.112   2.473   1.213  0.1940 -0.6718  0.2364
  666SOL    HW2 2708   3.114   2.490   1.308 -0.1124  0.2433  0.0806
  666SOL    HW3 2709   3.145   2.553   1.173  0.9087 -1.2777 -0.4202
  666SOL    MW4 2710   3.117   2.486   1.221  0.2480 -0.6311  0.1293
  667SOL     OW 2711   3.182   2.726   1.115  0.4969 -0.0889  0.2164
  667SOL    HW2 2712   3.104   2.761   1.157  1.0256  0.5169  0.7140
  667SOL    HW3 2713   3.169   2.739   1.022 -0.0030 -0.0164  0.2981
  667SOL    MW4 2714   3.170   2.732   1.108  0.5009  0.0007  0.2929
  668SOL     OW 2715   3.401   2.834   1.234  0.2243 -0.1169 -0.4692
  668SOL    HW2 2716   3.392   2.926   1.211 -0.9539  0.2720  1.4233
  668SOL    HW3 2717   3.319   2.794   1.205 -0.8342  0.1799  1.9544
  668SOL    MW4 2718   3.389   2.841   1.227 -0.0706 -0.0265  0.1003
  669SOL     OW 2719   3.413   3.106   1.156  0.6306 -0.4541 -0.9353
  669SOL    HW2 2720   3.495   3.144   1.188  0.4181 -0.1804 -0.7094
  669SOL    HW3 2721   3.346   3.171   1.180  0.0428 -1.6788  0.8367
  669SOL    MW4 2722   3.415   3.120   1.163  0.5252 -0.5794 -0.6716
  670SOL     OW 2723   3.196   3.274   1.244 -0.1882 -0.1599  0.0174
  670SOL    HW2 2724   3.167   3.357   1.206  2.0460 -0.0565 -1.5231
  670SOL    HW3 2725   3.123   3.214   1.228 -2.3512  1.7363  2.2286
  670SOL    MW4 2726   3.182   3.277   1.237 -0.1788  0.1040  0.1059
  671SOL     OW 2727   3.144   3.535   1.145  0.4412 -0.4417  0.3423
  671SOL    HW2 2728   3.220   3.580   1.182  0.8489 -1.5851  0.9333
  671SOL    HW3 2729   3.173   3.508   1.057  0.7327 -0.8881  0.5721
  671SOL    MW4 2730   3.158   3.537   1.138  0.5336 -0.6514  0.4506
  672SOL     OW 2731   3.356   3.651   1.273 -0.2462  0.0224 -0.0272
  672SOL    HW2 2732   3.382   3.647   1.365  0.4350  1.6338 -0.1339
  672SOL    HW3 2733   3.425   3.603   1.226 -0.7721 -1.0985  0.3082
  672SOL    MW4 2734   3.368   3.644   1.279 -0.2258  0.0873  0.0030
  673SOL     OW 2735   3.386   3.920   1.169  0.0950 -0.4507  0.6548
  673SOL    HW2 2736   3.296   3.945   1.192 -0.2443 -0.4267 -0.6812
  673SOL    HW3 2737   3.396   3.833   1.209 -1.5967 -1.8187 -1.7344
  673SOL    MW4 2738   3.375   3.912   1.177 -0.1729 -0.6280  0.1633
  674SOL     OW 2739   3.107   3.993   1.224 -0.1258 -0.1313 -0.2201
  674SOL    HW2 2740   3.121   4.001   1.319  0.3176 -0.9511 -0.2131
  674SOL    HW3 2741   3.117   4.082   1.191  1.7492 -0.1473  0.2417
  674SOL    MW4 2742   3.110   4.006   1.232  0.1798 -0.2418 -0.1582
  675SOL     OW 2743   3.137   4.243   1.109 -0.3663  0.0919  0.4752
  675SOL    HW2 2744   3.216   4.272   1.154 -0.0633 -1.9400  1.3112
  675SOL    HW3 2745   3.154   4.261   1.016  0.4646  1.0204  0.8012
  675SOL    MW4 2746   3.149   4.249   1.103 -0.2170 -0.0534  0.6286
  676SOL     OW 2747   3.316   4.386   1.257  0.2906  0.3443  0.2605
  676SOL    HW2 2748   3.394   4.351   1.215 -0.6890  0.1111 -1.4520
  676SOL    HW3 2749   3.311   4.477   1.226  0.7917  0.8794  1.7121
  676SOL    MW4 2750   3.325   4.394   1.247  0.2275  0.3843  0.2260
  677SOL     OW 2751   2.942   0.287   0.446 -0.1377 -0.3033  0.2713
  677SOL    HW2 2752   2.938   0.337   0.528 -0.5584  0.0207  0.0505
  677SOL    HW3 2753   3.027   0.311   0.409 -0.2198  0.0408  0.2998
  677SOL    MW4 2754   2.953   0.297   0.452 -0.2041 -0.2151  0.2459
  678SOL     OW 2755   3.594   0.067   1.229 -0.0549 -0.0801 -0.0597
  678SOL    HW2 2756   3.598   0.159   1.202  2.1461 -0.0471  0.3372
  678SOL    HW3 2757   3.675   0.029   1.197  0.8095 -0.9740  3.0605
  678SOL    MW4 2758   3.605   0.074   1.221  0.3495 -0.1937  0.4042
  679SOL     OW 2759   3.612   0.343   1.187  0.2694 -0.0835  0.1745
  679SOL    HW2 2760   3.683   0.386   1.234  0.8155 -2.1957  1.3484
  679SOL    HW3 2761   3.532   0.378   1.226  0.6628  0.9872  0.0453
  679SOL    MW4 2762   3.610   0.353   1.198  0.3934 -0.2209  0.3123
  680SOL     OW 2763   3.830   0.496   1.227  0.2935 -0.1942  0.3547
  680SOL    HW2 2764   3.911   0.458   1.193  0.8598  1.3385 -0.0353
  680SOL    HW3 2765   3.830   0.586   1.194 -1.5620 -0.1796  0.3745
  680SOL    MW4 2766   3.841   0.503   1.218  0.1237  0.0100  0.3059
  681SOL     OW 2767   3.805   0.763   1.202  0.4148  0.2679 -0.4838
  681SOL    HW2 2768   3.876   0.814   1.242 -0.0125  1.5814 -1.3705
  681SOL    HW3 2769   3.726   0.813   1.221 -0.3300 -1.3089  0.6913
  681SOL    MW4 2770   3.804   0.776   1.210  0.2604  0.2332 -0.4457
  682SOL     OW 2771   3.592   0.918   1.263 -0.3587  0.7884  0.1803
  682SOL    HW2 2772   3.595   0.994   1.204  0.7256 -0.0239 -0.8371
  682SOL    HW3 2773   3.508   0.877   1.245 -0.2733  0.8657 -0.4020
  682SOL    MW4 2774   3.582   0.923   1.253 -0.2041  0.6914 -0.0306
  683SOL     OW 2775   3.622   1.152   1.107  0.3124 -0.2969  0.0473
  683SOL    HW2 2776   3.696   1.193   1.152 -0.0151 -0.2471  0.5443
  683SOL    HW3 2777   3.545   1.200   1.138  0.0302 -0.6152 -0.1535
  683SOL    MW4 2778   3.622   1.164   1.117  0.2317 -0.3324  0.0864
  684SOL     OW 2779   3.809   1.287   1.258 -0.8315 -0.0905  0.1497
  684SOL    HW2 2780   3.794   1.301   1.351  0.3509  0.3415  0.2827
  684SOL    HW3 2781   3.808   1.375   1.220 -0.6442 -0.2181 -0.1524
  684SOL    MW4 2782   3.807   1.300   1.265 -0.6509 -0.0503  0.1274
  685SOL     OW 2783   3.810   1.557   1.140  0.4848  0.4114  0.4455
  685SOL    HW2 2784   3.889   1.600   1.172  0.9916 -0.3111  0.1532
  685SOL    HW3 2785   3.802   1.587   1.050  1.9679 -1.7014 -0.4115
  685SOL    MW4 2786   3.819   1.567   1.133  0.7477  0.0373  0.2939
  686SOL     OW 2787   3.609   1.722   1.251  0.7853  0.0939 -0.1771
  686SOL    HW2 2788   3.616   1.809   1.214 -2.1404 -1.2614 -4.3318
  686SOL    HW3 2789   3.682   1.673   1.212 -0.0423 -0.3588 -1.1733
  686SOL    MW4 2790   3.620   1.727   1.241  0.2902 -0.1446 -0.8569
  687SOL     OW 2791   3.623   1.941   1.084 -0.0303 -0.3527 -0.9605
  687SOL    HW2 2792   3.697   1.999   1.103  0.1219 -0.5531 -0.9397
  687SOL    HW3 2793   3.626   1.929   0.990 -0.4436  0.1810 -1.0444
  687SOL    MW4 2794   3.633   1.947   1.074 -0.0651 -0.3088 -0.9688
  688SOL     OW 2795   3.862   2.078   1.153 -0.3341  0.2396  0.4201
  688SOL    HW2 2796   3.852   2.040   1.240 -1.0525 -0.7575 -0.0820
  688SOL    HW3 2797   3.932   2.028   1.112 -2.4136 -1.7387 -0.8515
  688SOL    MW4 2798   3.870   2.066   1.159 -0.7031 -0.1528  0.1860
  689SOL     OW 2799   3.786   2.360   1.109  0.0464  0.4242 -0.0339
  689SOL    HW2 2800   3.815   2.272   1.130 -1.2880  0.2107  0.9975
  689SOL    HW3 2801   3.851   2.418   1.150  0.4717 -0.0745 -0.0094
  689SOL    MW4 2802   3.798   2.356   1.117 -0.0734  0.3302  0.1054
  690SOL     OW 2803   3.620   2.692   1.106  0.0914 -0.0365  0.8245
  690SOL    HW2 2804   3.540   2.741   1.127 -1.4820 -2.5052  0.7256
  690SOL    HW3 2805   3.612   2.611   1.156  1.4601 -1.3112 -0.9779
  690SOL    MW4 2806   3.608   2.688   1.116  0.0644 -0.5302  0.5736
  691SOL     OW 2807   1.679   2.709   0.302  0.0353 -0.1489  0.5716
  691SOL    HW2 2808   1.758   2.701   0.356  0.2038 -0.7849  0.2408
  691SOL    HW3 2809   1.671   2.624   0.259  0.7706  0.8282 -1.5928
  691SOL    MW4 2810   1.689   2.697   0.304  0.1546 -0.1042  0.2424
  692SOL     OW 2811   3.814   2.847   1.230 -0.0822  0.0358 -0.1590
  692SOL    HW2 2812   3.812   2.844   1.326  1.3811 -0.8405 -0.1474
  692SOL    HW3 2813   3.752   2.779   1.203 -0.0796 -0.0948  0.1566
  692SOL    MW4 2814   3.805   2.837   1.239  0.1111 -0.0973 -0.1158
  693SOL     OW 2815   3.827   3.113   1.149  0.7129  0.3962 -0.3243
  693SOL    HW2 2816   3.840   3.112   1.054  1.1920 -1.3765 -0.2629
  693SOL    HW3 2817   3.818   3.021   1.173  1.7534  0.7381  1.5188
  693SOL    MW4 2818   3.827   3.101   1.140  0.9134  0.2074 -0.0730
  694SOL     OW 2819   3.637   3.264   1.252 -0.4113 -0.0429  0.0549
  694SOL    HW2 2820   3.605   3.341   1.205  0.2869  0.1621 -0.0959
  694SOL    HW3 2821   3.702   3.225   1.193 -0.5347 -0.5726  0.2621
  694SOL    MW4 2822   3.641   3.269   1.238 -0.3352 -0.0858  0.0623
  695SOL     OW 2823   3.567   3.533   1.136 -0.1305 -0.3918  0.2589
  695SOL    HW2 2824   3.647   3.561   1.181 -2.1293  1.1139  3.0603
  695SOL    HW3 2825   3.574   3.570   1.048  1.9864  0.1720  0.6331
  695SOL    MW4 2826   3.578   3.541   1.131 -0.1149 -0.1190  0.6779
  696SOL     OW 2827   3.812   3.607   1.254 -0.1486  0.0293 -0.2780
  696SOL    HW2 2828   3.820   3.602   1.349 -0.7309  0.9942 -0.1740
  696SOL    HW3 2829   3.817   3.701   1.234 -0.3184 -0.1446 -1.1749
  696SOL    MW4 2830   3.814   3.619   1.264 -0.2477  0.1335 -0.3825
  697SOL     OW 2831   3.820   3.864   1.166 -0.3222 -0.1858  0.0402
  697SOL    HW2 2832   3.760   3.931   1.198 -1.0139 -0.2892 -1.0064
  697SOL    HW3 2833   3.816   3.872   1.071 -0.1897 -1.5170 -0.0862
  697SOL    MW4 2834   3.812   3.873   1.158 -0.3955 -0.3750 -0.1146
  698SOL     OW 2835   3.625   4.036   1.231 -1.0040 -0.2308  0.1827
  698SOL    HW2 2836   3.619   4.029   1.326 -1.9625 -0.7157  0.0985
  698SOL    HW3 2837   3.542   4.001   1.199 -1.0238  0.6574 -0.8001
  698SOL    MW4 2838   3.613   4.031   1.239 -1.1327 -0.1779  0.0420
  699SOL     OW 2839   3.564   4.290   1.137 -0.3408 -0.0982  0.0882
  699SOL    HW2 2840   3.578   4.200   1.165 -1.0851 -0.2246  0.0618
  699SOL    HW3 2841   3.592   4.292   1.046  1.9888  0.2855  0.7794
  699SOL    MW4 2842   3.569   4.279   1.129 -0.1316 -0.0644  0.1760
  700SOL     OW 2843   3.817   4.387   1.200 -0.4531 -0.2281  0.2567
  700SOL    HW2 2844   3.828   4.382   1.295  2.7441 -2.5780 -0.1473
  700SOL    HW3 2845   3.725   4.367   1.185 -1.3308  1.6298  2.9215
  700SOL    MW4 2846   3.807   4.384   1.210 -0.1471 -0.2933  0.5550
  701SOL     OW 2847   4.285   0.028   1.115  0.0684  0.5189 -0.0300
  701SOL    HW2 2848   4.262  -0.057   1.153 -0.2841  0.8199  0.4386
  701SOL    HW3 2849   4.217   0.087   1.146  0.9521  1.2210  0.6010
  701SOL    MW4 2850   4.273   0.024   1.124  0.1388  0.6514  0.1150
  702SOL     OW 2851   4.065   0.143   1.240  0.1826  0.2356 -0.0762
  702SOL    HW2 2852   4.088   0.142   1.333  0.9751 -1.0358 -0.2785
  702SOL    HW3 2853   3.994   0.080   1.232  0.1871  0.2665 -0.3583
  702SOL    MW4 2854   4.059   0.135   1.252  0.2880  0.0719 -0.1401
  703SOL     OW 2855   4.204   0.357   0.216 -0.2519  0.2493  0.1567
  703SOL    HW2 2856   4.123   0.397   0.186 -0.6908  0.1102  1.1207
  703SOL    HW3 2857   4.183   0.264   0.228 -0.3452  0.4491  1.7023
  703SOL    MW4 2858   4.191   0.350   0.214 -0.3219  0.2573  0.4878
  704SOL     OW 2859   4.060   0.389   1.122 -0.5586  0.0227 -0.2634
  704SOL    HW2 2860   4.126   0.446   1.161 -1.8546  0.9874  0.6018
  704SOL    HW3 2861   4.062   0.310   1.176 -0.2841  0.1519 -0.0841
  704SOL    MW4 2862   4.069   0.386   1.135 -0.6928  0.1670 -0.1256
  705SOL     OW 2863   4.225   0.804   1.171 -0.6713 -0.0584 -0.1785
  705SOL    HW2 2864   4.242   0.713   1.196  0.1418  0.2360  0.3381
  705SOL    HW3 2865   4.212   0.801   1.077  2.8690 -0.2103 -0.7257
  705SOL    MW4 2866   4.225   0.792   1.162 -0.0968 -0.0396 -0.1826
  706SOL     OW 2867   4.021   0.903   1.321 -0.5169  0.3513 -0.0332
  706SOL    HW2 2868   4.041   0.902   1.415 -0.7836  1.5838  0.0483
  706SOL    HW3 2869   4.099   0.867   1.279 -1.2067 -2.2006  0.7794
  706SOL    MW4 2870   4.034   0.898   1.328 -0.6428  0.1772  0.0849
  707SOL     OW 2871   4.042   1.156   1.213 -0.0316  0.4123  0.0308
  707SOL    HW2 2872   4.034   1.073   1.260  0.0144  0.6425  0.4544
  707SOL    HW3 2873   3.969   1.209   1.246  0.3325  0.7748  0.2627
  707SOL    MW4 2874   4.031   1.152   1.224  0.0229  0.4904  0.1172
  708SOL     OW 2875   1.732   1.790   0.482 -0.7622 -0.1147  0.2451
  708SOL    HW2 2876   1.756   1.877   0.449 -0.5529 -0.3968 -0.3691
  708SOL    HW3 2877   1.643   1.800   0.516 -0.9939  0.1917 -0.4370
  708SOL    MW4 2878   1.723   1.802   0.482 -0.7651 -0.1116  0.0741
  709SOL     OW 2879   4.253   1.317   1.277  0.1519  0.0481  0.4405
  709SOL    HW2 2880   4.183   1.253   1.259  0.2641 -0.0376  0.3009
  709SOL    HW3 2881   4.250   1.330   1.371  0.0517 -0.0795  0.4559
  709SOL    MW4 2882   4.243   1.310   1.287  0.1535  0.0200  0.4241
  710SOL     OW 2883   4.053   1.697   1.207  0.0512 -0.4270  0.4357
  710SOL    HW2 2884   4.056   1.695   1.302 -0.0393 -0.7378  0.4320
  710SOL    HW3 2885   4.114   1.628   1.179 -0.1108 -0.5055  0.2735
  710SOL    MW4 2886   4.061   1.688   1.216  0.0181 -0.4784  0.4138
  711SOL     OW 2887   4.020   2.458   1.221  0.3019  0.0134  0.1842
  711SOL    HW2 2888   4.048   2.456   1.313  0.6716  0.5601  0.0867
  711SOL    HW3 2889   4.043   2.546   1.191  0.4715 -0.2689 -0.5228
  711SOL    MW4 2890   4.027   2.469   1.230  0.3729  0.0484  0.0781
  712SOL     OW 2891   4.280   2.082   1.241  0.3665 -0.8670  0.0888
  712SOL    HW2 2892   4.300   2.170   1.209 -0.2537  0.0179  2.0283
  712SOL    HW3 2893   4.220   2.046   1.176  0.4762  0.2102 -0.6258
  712SOL    MW4 2894   4.275   2.089   1.228  0.2990 -0.6082  0.2505
  713SOL     OW 2895   3.900   2.311   0.838 -0.6849  0.6260 -0.3766
  713SOL    HW2 2896   3.908   2.403   0.812  1.9768  0.9196  1.2947
  713SOL    HW3 2897   3.851   2.314   0.921  1.9985  0.8600  1.2573
  713SOL    MW4 2898   3.895   2.324   0.846  0.0203  0.6955  0.0594
  714SOL     OW 2899   4.077   2.470   1.495 -0.1845  0.5686  0.2215
  714SOL    HW2 2900   4.137   2.416   1.545 -1.4142 -0.3202  0.7795
  714SOL    HW3 2901   4.071   2.552   1.544  0.0844  0.4157  0.5066
  714SOL    MW4 2902   4.084   2.473   1.508 -0.3109  0.4311  0.3327
  715SOL     OW 2903   2.845   1.690   0.531 -0.3437  0.0392 -0.1386
  715SOL    HW2 2904   2.939   1.675   0.519 -0.3354 -0.2406  0.2486
  715SOL    HW3 2905   2.804   1.608   0.504 -0.2388 -1.0437  2.7903
  715SOL    MW4 2906   2.852   1.677   0.526 -0.3290 -0.1404  0.2989
  716SOL     OW 2907   4.034   2.712   1.109  0.1414  0.6539 -0.0329
  716SOL    HW2 2908   4.010   2.677   1.024  0.5966  1.3995 -0.4693
  716SOL    HW3 2909   3.952   2.741   1.148 -0.1999 -0.5679  0.1936
  716SOL    MW4 2910   4.020   2.711   1.103  0.1564  0.5913 -0.0607
  717SOL     OW 2911   2.058   4.386   0.705  0.1244  0.0910  0.2099
  717SOL    HW2 2912   2.125   4.335   0.751  0.7077  1.6695  1.1503
  717SOL    HW3 2913   2.106   4.432   0.637 -0.2109  0.2941  0.1109
  717SOL    MW4 2914   2.073   4.385   0.702  0.1569  0.3262  0.3209
  718SOL     OW 2915   4.025   3.479   1.141  0.5495  0.1395  0.2191
  718SOL    HW2 2916   4.030   3.389   1.175 -1.8244  0.0003  0.2845
  718SOL    HW3 2917   3.944   3.514   1.178  0.3551  1.5951 -1.5062
  718SOL    MW4 2918   4.015   3.472   1.151  0.2103  0.3133 -0.0001
  719SOL     OW 2919   0.065   3.499   0.842 -0.6694  0.2118  0.4055
  719SOL    HW2 2920   0.063   3.416   0.793 -3.2716  0.3077  0.3048
  719SOL    HW3 2921   0.129   3.552   0.794  0.3516 -1.3911 -0.0715
  719SOL    MW4 2922   0.073   3.495   0.829 -0.8780  0.0129  0.3293
  720SOL     OW 2923   4.237   3.631   1.245 -0.7256  0.4826  0.0999
  720SOL    HW2 2924   4.173   3.574   1.203 -0.5342  0.0516  0.3880
  720SOL    HW3 2925   4.322   3.594   1.221 -0.5637  1.3476 -0.6965
  720SOL    MW4 2926   4.240   3.619   1.237 -0.6795  0.5403  0.0329
  721SOL     OW 2927   1.192   0.779   0.524  0.3052  0.2680 -0.5354
  721SOL    HW2 2928   1.278   0.767   0.484  1.1039 -0.0392  1.2290
  721SOL    HW3 2929   1.145   0.698   0.503  1.4200 -0.7711  0.8063
  721SOL    MW4 2930   1.197   0.767   0.516  0.5578  0.0904 -0.1256
  722SOL     OW 2931   4.023   4.006   1.287 -0.5594  0.1466 -0.1425
  722SOL    HW2 2932   4.023   4.096   1.253  0.1223  0.6893  1.2672
  722SOL    HW3 2933   3.950   3.964   1.242 -0.2914  1.1191 -1.5494
  722SOL    MW4 2934   4.014   4.012   1.276 -0.4349  0.3462 -0.1421
  723SOL     OW 2935   4.048   4.235   1.127  0.3181 -0.2177 -0.0018
  723SOL    HW2 2936   4.049   4.240   1.031 -0.2701  1.3569  0.0596
  723SOL    HW3 2937   3.966   4.277   1.152 -0.1868 -1.8529  1.1497
  723SOL    MW4 2938   4.037   4.241   1.117  0.1740 -0.2255  0.1582
  724SOL     OW 2939   4.251   4.421   1.187 -0.3131  0.1124  0.1084
  724SOL    HW2 2940   4.184   4.357   1.163  0.5983 -0.7009 -0.2824
  724SOL    HW3 2941   4.334   4.381   1.160  0.1845  1.8859 -1.0689
  724SOL    MW4 2942   4.253   4.408   1.181 -0.1273  0.2389 -0.0985
  725SOL     OW 2943   0.246   4.620   1.647 -0.2339  0.2024  0.2864
  725SOL    HW2 2944   0.318   4.671   1.609 -0.5199 -0.5996 -1.3710
  725SOL    HW3 2945   0.167   4.663   1.616 -0.4765 -1.1925 -1.0773
  725SOL    MW4 2946   0.245   4.633   1.638 -0.3036 -0.0873 -0.1121
  726SOL     OW 2947   0.050   0.101   1.540  0.1288 -0.4543 -0.4435
  726SOL    HW2 2948  -0.036   0.060   1.553  0.4256 -1.3336 -1.2121
  726SOL    HW3 2949   0.061   0.103   1.445  1.3977 -1.2353 -0.3116
  726SOL    MW4 2950   0.040   0.096   1.529  0.3353 -0.6734 -0.5275
  727SOL     OW 2951   4.488   0.401   1.633  0.2010  0.6941  0.1504
  727SOL    HW2 2952   4.470   0.391   1.727  1.2133  2.1972  0.5144
  727SOL    HW3 2953   4.494   0.311   1.601 -2.2930  0.1452  1.0921
  727SOL    MW4 2954   4.486   0.388   1.641  0.0052  0.8200  0.3226
  728SOL     OW 2955   0.212   0.521   1.527 -0.0437  0.2715 -0.0729
  728SOL    HW2 2956   0.125   0.488   1.549  0.6594 -1.0877  0.7046
  728SOL    HW3 2957   0.211   0.529   1.431 -0.3228 -1.7424 -0.2493
  728SOL    MW4 2958   0.200   0.518   1.517  0.0123 -0.1735  0.0063
  729SOL     OW 2959   0.240   0.781   1.588 -0.1820  0.2617  0.2134
  729SOL    HW2 2960   0.328   0.809   1.560  0.0794 -1.0985 -0.3658
  729SOL    HW3 2961   0.238   0.687   1.569 -1.4506  0.1146  1.0665
  729SOL    MW4 2962   0.252   0.772   1.582 -0.3149  0.0629  0.2496
  730SOL     OW 2963   0.011   0.881   1.494 -0.2486 -0.2938 -0.2039
  730SOL    HW2 2964   0.017   0.971   1.526 -1.7226 -0.6609  1.1807
  730SOL    HW3 2965   0.093   0.840   1.521 -0.1393  0.2675  0.3225
  730SOL    MW4 2966   0.023   0.887   1.502 -0.4286 -0.2682  0.0482
  731SOL     OW 2967   4.470   1.156   1.573 -0.2595 -0.1452 -0.5957
  731SOL    HW2 2968   4.471   1.137   1.667  0.1652 -0.1020 -0.5932
  731SOL    HW3 2969   4.549   1.206   1.557 -0.6416  0.3808 -0.8701
  731SOL    MW4 2970   4.480   1.160   1.583 -0.2532 -0.0700 -0.6315
  732SOL     OW 2971   0.230   1.296   1.512 -0.1731 -0.3925 -0.3289
  732SOL    HW2 2972   0.229   1.387   1.543 -0.4231 -0.0224 -1.3727
  732SOL    HW3 2973   0.237   1.304   1.417 -2.0448 -1.4391 -0.5746
  732SOL    MW4 2974   0.231   1.309   1.503 -0.4530 -0.4818 -0.4990
  733SOL     OW 2975   0.241   1.546   1.598 -0.4214  0.0642 -0.1518
  733SOL    HW2 2976   0.241   1.526   1.692 -1.1589 -1.3158 -0.4331
  733SOL    HW3 2977   0.149   1.562   1.577 -0.2618  0.3066 -0.6563
  733SOL    MW4 2978   0.229   1.545   1.608 -0.4977 -0.0859 -0.2555
  734SOL     OW 2979   0.004   1.631   1.490  0.1459 -0.0071 -0.0755
  734SOL    HW2 2980   0.041   1.715   1.518 -2.1472  0.7711  0.7241
  734SOL    HW3 2981  -0.022   1.646   1.398 -1.9831  0.8082  0.6172
  734SOL    MW4 2982   0.005   1.644   1.481 -0.4375  0.2031  0.1215
  735SOL     OW 2983   0.054   1.883   1.610 -1.2577 -0.5997  0.0656
  735SOL    HW2 2984   0.056   1.885   1.706 -0.5619  1.4198  0.0546
  735SOL    HW3 2985  -0.027   1.928   1.587 -1.0965 -0.4816 -0.2822
  735SOL    MW4 2986   0.044   1.889   1.620 -1.1446 -0.3177  0.0184
  736SOL     OW 2987   0.249   2.045   1.494  0.0017 -0.1588  0.3033
  736SOL    HW2 2988   0.174   2.001   1.534  0.9180 -1.3946  0.7027
  736SOL    HW3 2989   0.236   2.034   1.400 -2.1074  2.6637  0.2073
  736SOL    MW4 2990   0.238   2.038   1.487 -0.1557  0.0508  0.3433
  737SOL     OW 2991   0.243   2.301   1.608 -0.0480  0.5580 -0.1483
  737SOL    HW2 2992   0.250   2.277   1.700 -1.0301  0.6851 -0.0338
  737SOL    HW3 2993   0.232   2.217   1.562 -0.9216  0.5928 -0.0083
  737SOL    MW4 2994   0.242   2.286   1.614 -0.2928  0.5794 -0.1148
  738SOL     OW 2995   4.473   2.421   1.506 -0.5473 -0.0709  0.9208
  738SOL    HW2 2996   4.393   2.388   1.547 -0.7211 -0.5898  0.1708
  738SOL    HW3 2997   4.542   2.368   1.543 -0.6226 -0.0609  1.0768
  738SOL    MW4 2998   4.471   2.410   1.516 -0.5802 -0.1383  0.8425
  739SOL     OW 2999   0.011   2.659   1.631 -0.0478 -0.0714 -0.0586
  739SOL    HW2 3000  -0.078   2.695   1.628  0.0100 -0.0156 -1.5487
  739SOL    HW3 3001   0.004   2.575   1.586  0.4425 -0.5403  0.7464
  739SOL    MW4 3002  -0.002   2.653   1.625  0.0248 -0.1261 -0.1490
  740SOL     OW 3003   0.182   2.872   1.539  0.0411 -0.1178 -0.4452
  740SOL    HW2 3004   0.272   2.843   1.548  0.1214  0.4225  0.5199
  740SOL    HW3 3005   0.130   2.800   1.575 -0.0482 -1.3203 -2.8233
  740SOL    MW4 3006   0.187   2.859   1.545  0.0399 -0.2050 -0.6316
  741SOL     OW 3007   0.204   3.129   1.616 -0.0695  0.1883 -0.3412
  741SOL    HW2 3008   0.125   3.175   1.587 -0.2272  0.2365  0.1759
  741SOL    HW3 3009   0.187   3.037   1.597 -1.0469 -0.0476  1.5745
  741SOL    MW4 3010   0.191   3.123   1.609 -0.2193  0.1633 -0.0203
  742SOL     OW 3011   4.445   3.207   1.504  0.4177 -0.7049 -0.5328
  742SOL    HW2 3012   4.450   3.301   1.524 -0.9627 -0.6935 -0.1819
  742SOL    HW3 3013   4.463   3.202   1.410  1.2918 -0.1686 -0.3987
  742SOL    MW4 3014   4.448   3.219   1.494  0.3510 -0.6328 -0.4690
  743SOL     OW 3015   4.487   3.464   1.589  0.1891 -0.0959  0.0399
  743SOL    HW2 3016   4.499   3.475   1.683  0.0367 -1.6205  0.2527
  743SOL    HW3 3017   4.409   3.515   1.568  0.5161  0.6599  0.6475
  743SOL    MW4 3018   4.478   3.472   1.599  0.2120 -0.1976  0.1481
  744SOL     OW 3019   0.208   3.594   1.485  0.1452 -0.0980 -0.1503
  744SOL    HW2 3020   0.205   3.686   1.509 -0.1737  0.4174 -2.0330
  744SOL    HW3 3021   0.136   3.554   1.534  0.5567  0.5557  1.0080
  744SOL    MW4 3022   0.198   3.601   1.494  0.1574  0.0560 -0.2458
  745SOL     OW 3023   0.194   3.848   1.599  0.0027 -0.0364 -0.5080
  745SOL    HW2 3024   0.199   3.861   1.694 -0.9549  1.2272 -0.6148
  745SOL    HW3 3025   0.270   3.896   1.565 -0.4555  0.7198 -0.4799
  745SOL    MW4 3026   0.205   3.856   1.607 -0.1841  0.2303 -0.5183
  746SOL     OW 3027   4.471   3.998   1.462 -0.3585  0.0486 -0.1984
  746SOL    HW2 3028   4.472   4.080   1.510  1.2727  1.0651 -1.8888
  746SOL    HW3 3029   4.546   3.949   1.495 -0.4507 -0.1264 -0.2463
  746SOL    MW4 3030   4.481   4.002   1.473 -0.1554  0.1597 -0.4278
  747SOL     OW 3031   0.023   4.256   1.589 -0.4348  0.1784 -0.6113
  747SOL    HW2 3032   0.028   4.270   1.683  3.2394  0.5046 -0.7931
  747SOL    HW3 3033  -0.051   4.309   1.560 -0.1145  1.9689  1.7630
  747SOL    MW4 3034   0.014   4.265   1.597  0.0923  0.4573 -0.3220
  748SOL     OW 3035   0.245   4.389   1.492  0.0157  0.1578 -0.1052
  748SOL    HW2 3036   0.158   4.357   1.516  0.4831 -0.6246  0.5302
  748SOL    HW3 3037   0.255   4.470   1.542  0.0537 -0.2630  0.5712
  748SOL    MW4 3038   0.235   4.396   1.501  0.0824 -0.0010  0.0677
  749SOL     OW 3039   0.614   4.619   1.591  0.1746  0.0200 -0.0034
  749SOL    HW2 3040   0.703   4.647   1.572  0.5208 -0.1873  1.2892
  749SOL    HW3 3041   0.559   4.678   1.540  1.0741 -0.5437 -1.6589
  749SOL    MW4 3042   0.618   4.631   1.582  0.3390 -0.0815 -0.0511
  750SOL     OW 3043   0.417   0.119   1.503  0.3226 -0.5012  0.4115
  750SOL    HW2 3044   0.426   0.208   1.535 -1.6725 -0.6536  1.4813
  750SOL    HW3 3045   0.410   0.128   1.408  1.8115  0.3198  0.3647
  750SOL    MW4 3046   0.417   0.132   1.494  0.2558 -0.4130  0.5465
  751SOL     OW 3047   0.432   0.374   1.619 -0.0040 -0.2720 -0.0562
  751SOL    HW2 3048   0.502   0.430   1.588  0.4093 -0.0008  1.3747
  751SOL    HW3 3049   0.352   0.416   1.586  0.3678  0.5556  0.0815
  751SOL    MW4 3050   0.430   0.387   1.610  0.0995 -0.1270  0.1506
  752SOL     OW 3051   0.653   0.494   1.504  0.1806 -0.4663  0.2093
  752SOL    HW2 3052   0.666   0.584   1.531 -1.0005 -0.3622  0.4529
  752SOL    HW3 3053   0.672   0.494   1.410 -1.7082  0.4474 -0.1898
  752SOL    MW4 3054   0.657   0.506   1.495 -0.2245 -0.3320  0.1888
  753SOL     OW 3055   0.711   0.764   1.586 -0.0070 -0.6747 -0.0644
  753SOL    HW2 3056   0.692   0.762   1.680 -1.9748  1.2417 -0.3824
  753SOL    HW3 3057   0.790   0.817   1.578 -0.2398 -0.2499  0.4559
  753SOL    MW4 3058   0.719   0.771   1.597 -0.2973 -0.3658 -0.0378
  754SOL     OW 3059   0.474   0.887   1.504  0.5710  0.2767 -0.0152
  754SOL    HW2 3060   0.475   0.971   1.549  2.0109  0.5547 -0.5623
  754SOL    HW3 3061   0.557   0.846   1.527 -0.0959 -0.9896  0.2049
  754SOL    MW4 3062   0.485   0.893   1.513  0.6730  0.1463 -0.0583
  755SOL     OW 3063   0.467   1.146   1.625  0.5019 -0.1741  0.2740
  755SOL    HW2 3064   0.546   1.189   1.593  0.2378  0.1316  0.0349
  755SOL    HW3 3065   0.395   1.203   1.597  0.0290 -1.5735 -1.4938
  755SOL    MW4 3066   0.468   1.159   1.617  0.4047 -0.3183  0.0093
  756SOL     OW 3067   0.699   1.246   1.509 -0.0128 -0.3786 -0.7143
  756SOL    HW2 3068   0.704   1.336   1.541  0.2314 -0.2442 -1.1163
  756SOL    HW3 3069   0.680   1.256   1.415  0.1595 -0.7409 -0.7861
  756SOL    MW4 3070   0.698   1.260   1.501  0.0422 -0.4086 -0.7768
  757SOL     OW 3071   0.723   1.511   1.599 -0.3243 -0.1348  0.2821
  757SOL    HW2 3072   0.790   1.576   1.579  0.4336 -0.9307  0.2158
  757SOL    HW3 3073   0.644   1.545   1.557  0.4194 -0.0092 -1.0590
  757SOL    MW4 3074   0.721   1.524   1.590 -0.1262 -0.2234  0.0964
  758SOL     OW 3075   0.491   1.612   1.511  0.3270  0.3412 -0.0202
  758SOL    HW2 3076   0.489   1.706   1.529 -1.4489  0.1008  1.1454
  758SOL    HW3 3077   0.404   1.581   1.535  0.0280 -1.1873 -2.8203
  758SOL    MW4 3078   0.480   1.621   1.516  0.0533  0.1078 -0.2358
  759SOL     OW 3079   0.460   1.876   1.576  0.3214 -0.0441 -0.1994
  759SOL    HW2 3080   0.460   1.875   1.672 -1.3566 -0.5228 -0.1894
  759SOL    HW3 3081   0.389   1.936   1.553  1.3585  0.8320 -1.1490
  759SOL    MW4 3082   0.451   1.884   1.585  0.2368  0.0082 -0.3234
  760SOL     OW 3083   0.638   2.064   1.479 -0.5369  0.0879 -0.4345
  760SOL    HW2 3084   0.723   2.027   1.502 -0.8263  0.1177  0.6898
  760SOL    HW3 3085   0.575   1.999   1.509 -1.0039  1.0008  0.5954
  760SOL    MW4 3086   0.641   2.050   1.486 -0.6367  0.2122 -0.1501
  761SOL     OW 3087   0.639   2.326   1.588  0.1042  0.8167 -0.3773
  761SOL    HW2 3088   0.563   2.372   1.551 -0.5892  0.2469  0.3068
  761SOL    HW3 3089   0.625   2.235   1.564  1.1021  0.8508 -1.1110
  761SOL    MW4 3090   0.627   2.320   1.580  0.1444  0.7463 -0.3839
  762SOL     OW 3091   0.416   2.470   1.481 -0.3802 -0.1896  0.4107
  762SOL    HW2 3092   0.410   2.545   1.541  2.1097 -0.4326  0.9976
  762SOL    HW3 3093   0.358   2.405   1.521  1.3768 -0.4149  2.7045
  762SOL    MW4 3094   0.407   2.472   1.494  0.1802 -0.2513  0.7908
  763SOL     OW 3095   0.423   2.717   1.621 -0.0360 -0.4775 -0.3157
  763SOL    HW2 3096   0.439   2.701   1.715  1.2520 -0.5323 -0.5358
  763SOL    HW3 3097   0.510   2.731   1.584 -0.4980 -0.9109 -1.5928
  763SOL    MW4 3098   0.437   2.716   1.629  0.0730 -0.5422 -0.5132
  764SOL     OW 3099   0.659   2.823   1.511  0.1966 -0.4187  0.0837
  764SOL    HW2 3100   0.652   2.914   1.539 -1.4915 -1.1098  2.0387
  764SOL    HW3 3101   0.660   2.826   1.415 -1.3425  1.5532  0.1142
  764SOL    MW4 3102   0.659   2.835   1.502 -0.2292 -0.2496  0.3457
  765SOL     OW 3103   0.681   3.081   1.615  0.0385 -0.3919  0.1353
  765SOL    HW2 3104   0.756   3.133   1.588  0.2459 -1.4599 -1.3967
  765SOL    HW3 3105   0.605   3.136   1.595  0.3669  0.4190  1.0739
  765SOL    MW4 3106   0.681   3.095   1.609  0.1092 -0.4261  0.0570
  766SOL     OW 3107   0.468   3.230   1.562  0.2122  0.1704 -0.1007
  766SOL    HW2 3108   0.384   3.192   1.588 -0.1212  0.4567 -0.7460
  766SOL    HW3 3109   0.467   3.228   1.466  0.4964  1.1205 -0.1305
  766SOL    MW4 3110   0.456   3.225   1.553  0.2057  0.3335 -0.1898
  767SOL     OW 3111   0.444   3.492   1.624 -0.2436 -0.4207 -0.1013
  767SOL    HW2 3112   0.448   3.400   1.598 -0.5107 -0.5397  0.2645
  767SOL    HW3 3113   0.367   3.527   1.580 -1.1313 -0.8137  1.0972
  767SOL    MW4 3114   0.435   3.484   1.615 -0.3959 -0.4880  0.1050
  768SOL     OW 3115   0.679   3.600   1.468  0.3500 -0.1897 -0.0038
  768SOL    HW2 3116   0.759   3.567   1.509  0.7551  1.0309  0.1871
  768SOL    HW3 3117   0.609   3.574   1.527  0.6997 -0.4310  0.3035
  768SOL    MW4 3118   0.680   3.592   1.481  0.4496 -0.0606  0.0619
  769SOL     OW 3119   0.696   3.870   1.581 -0.1660 -0.4014 -0.3051
  769SOL    HW2 3120   0.771   3.920   1.546  1.4288 -1.2528  1.8298
  769SOL    HW3 3121   0.707   3.782   1.546  0.5125 -0.8323  0.9658
  769SOL    MW4 3122   0.707   3.865   1.572  0.1339 -0.5708  0.1442
  770SOL     OW 3123   0.433   3.964   1.499 -0.2428  0.1284  0.1175
  770SOL    HW2 3124   0.519   3.928   1.523 -0.1447  0.5437  0.4050
  770SOL    HW3 3125   0.439   3.977   1.404 -0.5994 -1.4306 -0.1225
  770SOL    MW4 3126   0.445   3.961   1.490 -0.2769 -0.0224  0.1237
  771SOL     OW 3127   0.448   4.232   1.590  0.2333  0.1013  0.0791
  771SOL    HW2 3128   0.434   4.140   1.568  0.2387  0.4694 -1.5544
  771SOL    HW3 3129   0.367   4.276   1.565  0.6665  0.7269 -0.2574
  771SOL    MW4 3130   0.435   4.226   1.584  0.2912  0.2322 -0.1808
  772SOL     OW 3131   0.654   4.367   1.461 -0.4613  0.3667  0.2010
  772SOL    HW2 3132   0.582   4.311   1.490  0.7885 -1.1397  0.4727
  772SOL    HW3 3133   0.642   4.448   1.509 -1.8883  0.0743  0.3600
  772SOL    MW4 3134   0.643   4.370   1.471 -0.4847  0.1297  0.2577
  773SOL     OW 3135   1.097   4.619   1.591  0.1683  0.0941 -0.1159
  773SOL    HW2 3136   1.086   4.617   1.686  0.5356 -0.8285 -0.0911
  773SOL    HW3 3137   1.183   4.658   1.577  0.7901 -1.2388 -0.0187
  773SOL    MW4 3138   1.107   4.624   1.601  0.2989 -0.2027 -0.0998
  774SOL     OW 3139   0.850   0.055   1.503  0.1310  0.0847  0.4301
  774SOL    HW2 3140   0.840   0.143   1.539  0.5363 -0.4166  1.8205
  774SOL    HW3 3141   0.937   0.027   1.531 -0.7362 -1.4763  1.6698
  774SOL    MW4 3142   0.860   0.063   1.512  0.0701 -0.1874  0.7771
  775SOL     OW 3143   0.860   0.322   1.599 -0.2684 -0.0489  0.0781
  775SOL    HW2 3144   0.862   0.325   1.695 -0.5409 -1.2112  0.1271
  775SOL    HW3 3145   0.793   0.385   1.574  0.8939  1.4003  0.5835
  775SOL    MW4 3146   0.851   0.330   1.608 -0.1509 -0.0110  0.1510
  776SOL     OW 3147   1.086   0.451   1.498  0.4209  0.2433 -0.0596
  776SOL    HW2 3148   1.074   0.543   1.520  0.5128  0.1511  0.3853
  776SOL    HW3 3149   1.003   0.410   1.524  0.6202  0.0926  0.3346
  776SOL    MW4 3150   1.073   0.458   1.505  0.4594  0.2113  0.0511
  777SOL     OW 3151   1.106   0.707   1.608  0.1183  0.3157 -0.0827
  777SOL    HW2 3152   1.123   0.712   1.702  2.4695 -2.1981 -0.3114
  777SOL    HW3 3153   1.185   0.743   1.567  0.1610 -0.8711 -1.0868
  777SOL    MW4 3154   1.119   0.712   1.615  0.4342 -0.1726 -0.2452
  778SOL     OW 3155   0.943   0.926   1.534 -0.0491  0.4507  0.1429
  778SOL    HW2 3156   1.004   0.854   1.552 -2.0164 -1.1797  0.6135
  778SOL    HW3 3157   0.919   0.914   1.443  0.1399  0.9222  0.0335
  778SOL    MW4 3158   0.948   0.915   1.525 -0.2837  0.2978  0.1905
  779SOL     OW 3159   0.931   1.176   1.630 -0.2245  0.1011 -0.3656
  779SOL    HW2 3160   0.938   1.086   1.601 -2.0716 -0.1391 -0.1373
  779SOL    HW3 3161   0.859   1.213   1.579 -0.5555  0.9744  0.7080
  779SOL    MW4 3162   0.923   1.169   1.620 -0.5119  0.1848 -0.1937
  780SOL     OW 3163   1.091   1.328   1.475 -0.1685 -0.2536  0.0814
  780SOL    HW2 3164   1.177   1.288   1.489  0.6005  1.1887 -0.5054
  780SOL    HW3 3165   1.032   1.276   1.529  1.1381 -0.9959  0.8188
  780SOL    MW4 3166   1.094   1.316   1.484  0.1055 -0.1613  0.1014
  781SOL     OW 3167   1.120   1.564   1.610 -0.5451  0.8993  0.8389
  781SOL    HW2 3168   1.198   1.597   1.566 -1.6114  1.8372 -0.3941
  781SOL    HW3 3169   1.092   1.490   1.557 -0.7545  0.8589  1.0078
  781SOL    MW4 3170   1.127   1.559   1.597 -0.7135  1.0177  0.6984
  782SOL     OW 3171   0.919   1.686   1.491  0.0501  0.3126 -0.0603
  782SOL    HW2 3172   0.998   1.653   1.533  0.1258  2.1227  1.2855
  782SOL    HW3 3173   0.932   1.671   1.398  1.5999 -0.2011  0.2422
  782SOL    MW4 3174   0.931   1.680   1.484  0.2646  0.4836  0.1572
  783SOL     OW 3175   0.862   1.939   1.582  0.3176  0.1424  0.4246
  783SOL    HW2 3176   0.953   1.968   1.578 -0.2352  1.7275 -1.0248
  783SOL    HW3 3177   0.866   1.846   1.558  1.6422 -0.0206  1.2038
  783SOL    MW4 3178   0.875   1.930   1.578  0.4195  0.3301  0.3362
  784SOL     OW 3179   1.126   2.043   1.530 -0.5826 -0.1967 -0.5084
  784SOL    HW2 3180   1.202   1.998   1.568 -0.3083 -0.7470 -1.6953
  784SOL    HW3 3181   1.137   2.134   1.557  0.9714 -0.1100 -1.4061
  784SOL    MW4 3182   1.138   2.049   1.539 -0.3412 -0.2580 -0.7836
  785SOL     OW 3183   1.137   2.324   1.603  0.2084 -0.2595 -0.0027
  785SOL    HW2 3184   1.206   2.365   1.550  0.3970 -0.7377 -0.1303
  785SOL    HW3 3185   1.056   2.362   1.569  0.3530 -0.3074 -0.4048
  785SOL    MW4 3186   1.136   2.334   1.591  0.2522 -0.3290 -0.0727
  786SOL     OW 3187   0.909   2.417   1.498 -0.0471 -0.1027 -0.0282
  786SOL    HW2 3188   0.919   2.509   1.524  0.9369 -0.0190 -0.6669
  786SOL    HW3 3189   0.824   2.391   1.533  0.9220  0.2026  2.6498
  786SOL    MW4 3190   0.899   2.426   1.506  0.2106 -0.0515  0.2409
  787SOL     OW 3191   0.893   2.683   1.575  0.0492  0.0663  0.1600
  787SOL    HW2 3192   0.906   2.694   1.669 -0.4593 -1.4956  0.4204
  787SOL    HW3 3193   0.811   2.728   1.557 -0.2077 -0.2348  0.5794
  787SOL    MW4 3194   0.884   2.690   1.585 -0.0518 -0.1798  0.2496
  788SOL     OW 3195   1.117   2.810   1.479  0.3919 -0.5429  0.1974
  788SOL    HW2 3196   1.116   2.903   1.501 -1.1991  0.2369 -2.9171
  788SOL    HW3 3197   1.040   2.774   1.523  1.4093 -0.5682  2.0007
  788SOL    MW4 3198   1.107   2.818   1.488  0.3161 -0.4432  0.0244
  789SOL     OW 3199   1.160   3.081   1.562  0.3760  0.2982 -0.0901
  789SOL    HW2 3200   1.173   3.077   1.656  1.5819 -0.4169 -0.2820
  789SOL    HW3 3201   1.246   3.100   1.526  0.6993 -2.9875 -1.2722
  789SOL    MW4 3202   1.173   3.083   1.570  0.5777 -0.2298 -0.2714
  790SOL     OW 3203   0.921   3.223   1.525 -0.2412  0.1168  0.1429
  790SOL    HW2 3204   1.012   3.197   1.541 -0.2623  0.0823  0.2080
  790SOL    HW3 3205   0.911   3.217   1.430 -0.5442 -1.1267  0.2490
  790SOL    MW4 3206   0.932   3.219   1.514 -0.2840 -0.0520  0.1656
  791SOL     OW 3207   0.901   3.506   1.595  0.4546 -0.5627  0.1970
  791SOL    HW2 3208   0.983   3.544   1.563  0.8946 -1.2217  0.5363
  791SOL    HW3 3209   0.911   3.412   1.581 -0.8876 -0.5178 -1.2427
  791SOL    MW4 3210   0.913   3.499   1.589  0.3356 -0.6440  0.0519
  792SOL     OW 3211   1.154   3.591   1.527 -0.1863  0.1321 -0.1906
  792SOL    HW2 3212   1.216   3.524   1.553 -0.5210 -0.6163 -1.3110
  792SOL    HW3 3213   1.153   3.588   1.431 -1.8378  0.2202 -0.1986
  792SOL    MW4 3214   1.162   3.582   1.518 -0.4483  0.0453 -0.3396
  793SOL     OW 3215   1.114   3.858   1.578  0.1293  0.5715 -0.8714
  793SOL    HW2 3216   1.196   3.904   1.562  0.8350  0.3121  1.8575
  793SOL    HW3 3217   1.133   3.767   1.555  0.4477  0.6187 -0.8023
  793SOL    MW4 3218   1.127   3.852   1.573  0.2644  0.5434 -0.5022
  794SOL     OW 3219   0.892   3.996   1.462 -0.2354 -0.3363 -0.6283
  794SOL    HW2 3220   0.889   4.083   1.501  0.1201  0.2769 -1.9667
  794SOL    HW3 3221   0.968   3.954   1.504 -0.8013 -0.2617  0.5104
  794SOL    MW4 3222   0.901   4.002   1.473 -0.2631 -0.2451 -0.6546
  795SOL     OW 3223   0.877   4.253   1.563  0.3536  0.1395  0.0038
  795SOL    HW2 3224   0.860   4.242   1.657 -0.8941 -1.8340 -0.4171
  795SOL    HW3 3225   0.795   4.288   1.528  0.7735  0.7580 -0.3671
  795SOL    MW4 3226   0.864   4.256   1.571  0.2444 -0.0391 -0.1007
  796SOL     OW 3227   1.136   4.342   1.515  0.0611 -0.1813 -0.5169
  796SOL    HW2 3228   1.046   4.310   1.508 -0.3303  0.9426 -0.7388
  796SOL    HW3 3229   1.126   4.436   1.531  1.1976 -0.0723 -0.4672
  796SOL    MW4 3230   1.122   4.350   1.517  0.1595 -0.0191 -0.5398
  797SOL     OW 3231   1.583   0.007   1.605  0.6181 -0.5444 -0.0810
  797SOL    HW2 3232   1.585   0.002   1.700  0.7169 -1.1873 -0.1154
  797SOL    HW3 3233   1.491   0.021   1.583  0.7200  0.5225  0.1495
  797SOL    MW4 3234   1.571   0.008   1.615  0.6444 -0.4884 -0.0551
  798SOL     OW 3235   1.325   0.077   1.514  0.0611 -0.3078 -0.4840
  798SOL    HW2 3236   1.332   0.171   1.532  1.6764  0.0361 -2.6902
  798SOL    HW3 3237   1.321   0.071   1.418 -1.6553 -2.4078 -0.3263
  798SOL    MW4 3238   1.326   0.088   1.504  0.0477 -0.5395 -0.7544
  799SOL     OW 3239   1.326   0.341   1.584 -0.3423 -0.0515 -0.5397
  799SOL    HW2 3240   1.401   0.393   1.556 -0.6841  0.9851  0.4337
  799SOL    HW3 3241   1.250   0.385   1.546 -0.5988 -0.1067 -0.0906
  799SOL    MW4 3242   1.326   0.354   1.575 -0.4213  0.0780 -0.3519
  800SOL     OW 3243   1.583   0.459   1.524 -0.1395 -0.4165 -0.1407
  800SOL    HW2 3244   1.665   0.423   1.556 -0.1999 -0.3343  0.1041
  800SOL    HW3 3245   1.591   0.455   1.428  0.5270  0.4537 -0.1236
  800SOL    MW4 3246   1.595   0.453   1.515 -0.0596 -0.2909 -0.1061
  801SOL     OW 3247   1.570   0.746   1.562 -0.1939  0.1319  0.2834
  801SOL    HW2 3248   1.560   0.756   1.656 -1.3120 -0.8786  0.2789
  801SOL    HW3 3249   1.589   0.653   1.550 -0.6769  0.1393 -0.5500
  801SOL    MW4 3250   1.571   0.735   1.572 -0.4051 -0.0005  0.1729
  802SOL     OW 3251   1.304   0.861   1.502 -0.1983 -0.1731  0.7401
  802SOL    HW2 3252   1.386   0.823   1.533 -0.6542 -1.3275  0.5742
  802SOL    HW3 3253   1.310   0.858   1.407 -0.1866  0.2950  0.7245
  802SOL    MW4 3254   1.315   0.856   1.494 -0.2569 -0.2637  0.7162
  803SOL     OW 3255   1.312   1.155   1.544 -0.1904 -0.0157 -0.1471
  803SOL    HW2 3256   1.304   1.156   1.640 -0.0184  1.3568 -0.1452
  803SOL    HW3 3257   1.315   1.062   1.522  1.2852 -0.3427  1.3067
  803SOL    MW4 3258   1.311   1.143   1.554  0.0271  0.1223  0.0448
  804SOL     OW 3259   1.545   1.294   1.524  0.4501 -0.1661 -0.1143
  804SOL    HW2 3260   1.467   1.239   1.532 -0.6556  1.3062 -0.4667
  804SOL    HW3 3261   1.556   1.306   1.429  1.1918 -0.4860 -0.0709
  804SOL    MW4 3262   1.536   1.289   1.512  0.4020 -0.0139 -0.1551
  805SOL     OW 3263   1.540   1.568   1.626 -0.0987  0.4325  0.0208
  805SOL    HW2 3264   1.548   1.571   1.721 -0.5527 -0.6364  0.0970
  805SOL    HW3 3265   1.533   1.475   1.605 -1.2992  0.7181 -0.9373
  805SOL    MW4 3266   1.540   1.556   1.635 -0.3170  0.3291 -0.0956
  806SOL     OW 3267   1.326   1.664   1.465  0.3526 -0.2640  0.0854
  806SOL    HW2 3268   1.401   1.629   1.513  0.1325  0.2633  0.8257
  806SOL    HW3 3269   1.353   1.664   1.374  1.5852  0.7855  0.4432
  806SOL    MW4 3270   1.339   1.659   1.459  0.4864 -0.0560  0.2302
  807SOL     OW 3271   1.358   1.905   1.608  0.2035  0.6724  0.1991
  807SOL    HW2 3272   1.363   1.874   1.699  1.5717  0.8734  0.2014
  807SOL    HW3 3273   1.326   1.830   1.559 -0.0524  0.4033  0.7738
  807SOL    MW4 3274   1.354   1.891   1.614  0.3502  0.6634  0.2751
  808SOL     OW 3275   1.578   2.042   1.534  0.0018  0.3875  0.5713
  808SOL    HW2 3276   1.510   1.980   1.560  0.6848 -0.6365 -0.0072
  808SOL    HW3 3277   1.568   2.050   1.439  1.5982 -0.9126  0.2690
  808SOL    MW4 3278   1.568   2.035   1.525  0.3026  0.0806  0.4550
  809SOL     OW 3279   1.559   2.314   1.598 -0.1604 -0.3535 -0.2119
  809SOL    HW2 3280   1.648   2.345   1.586 -0.1854 -0.3590 -0.4067
  809SOL    HW3 3281   1.564   2.220   1.581 -0.6395 -0.0023 -2.5142
  809SOL    MW4 3282   1.571   2.306   1.594 -0.2269 -0.3078 -0.5413
  810SOL     OW 3283   1.340   2.441   1.471  0.1473 -0.0121 -0.0232
  810SOL    HW2 3284   1.338   2.526   1.515 -0.4210 -1.3061  2.5998
  810SOL    HW3 3285   1.421   2.400   1.502 -0.6870 -1.2878  0.5525
  810SOL    MW4 3286   1.351   2.447   1.481 -0.0377 -0.3512  0.3988
  811SOL     OW 3287   1.328   2.694   1.593 -0.4580  0.1507  0.0290
  811SOL    HW2 3288   1.405   2.735   1.552 -0.2274 -0.7407 -0.4523
  811SOL    HW3 3289   1.254   2.727   1.542 -0.6284  2.7335  1.8647
  811SOL    MW4 3290   1.328   2.704   1.581 -0.4500  0.3738  0.2078
  812SOL     OW 3291   1.569   2.790   1.501  0.3012 -0.3881  0.1366
  812SOL    HW2 3292   1.647   2.748   1.536  0.0640 -1.1708 -0.2745
  812SOL    HW3 3293   1.585   2.799   1.407  0.8067  1.4363  0.3734
  812SOL    MW4 3294   1.581   2.786   1.493  0.3365 -0.2503  0.1137
  813SOL     OW 3295   1.591   3.049   1.606  0.2200  0.1027  0.4914
  813SOL    HW2 3296   1.676   3.084   1.578  0.0248  0.9523  0.9625
  813SOL    HW3 3297   1.589   2.961   1.568  0.7226  0.5746 -0.6662
  813SOL    MW4 3298   1.602   3.042   1.597  0.2605  0.2768  0.4008
  814SOL     OW 3299   1.401   3.151   1.463 -0.3473 -0.1335  0.5114
  814SOL    HW2 3300   1.391   3.242   1.493  0.1814  1.0677 -2.7870
  814SOL    HW3 3301   1.475   3.117   1.513 -0.8130  1.0995  2.0870
  814SOL    MW4 3302   1.409   3.159   1.474 -0.3390  0.1876  0.2842
  815SOL     OW 3303   1.352   3.406   1.554 -0.1404  0.1832 -0.2154
  815SOL    HW2 3304   1.367   3.405   1.649 -1.2206 -0.8460 -0.0439
  815SOL    HW3 3305   1.419   3.466   1.520 -0.1339  1.0501  1.2595
  815SOL    MW4 3306   1.363   3.414   1.562 -0.2822  0.1619  0.0018
  816SOL     OW 3307   1.565   3.582   1.513  0.3996  0.0941 -0.3986
  816SOL    HW2 3308   1.565   3.673   1.542 -3.6562  0.2369 -0.5750
  816SOL    HW3 3309   1.581   3.587   1.419 -0.8911  0.7443 -0.5979
  816SOL    MW4 3310   1.567   3.595   1.505 -0.3058  0.1988 -0.4482
  817SOL     OW 3311   1.554   3.856   1.565  0.0998  0.1599  0.6354
  817SOL    HW2 3312   1.566   3.873   1.659 -0.2655 -0.0362  0.7168
  817SOL    HW3 3313   1.470   3.898   1.544 -0.9749 -1.8091  0.9054
  817SOL    MW4 3314   1.544   3.864   1.575 -0.0901 -0.1256  0.6818
  818SOL     OW 3315   1.339   3.999   1.522 -0.3189  0.2268  0.0995
  818SOL    HW2 3316   1.374   4.081   1.557  2.1113 -1.2125  1.1022
  818SOL    HW3 3317   1.346   4.010   1.427 -0.4881  1.3734  0.2060
  818SOL    MW4 3318   1.344   4.011   1.514 -0.0205  0.1884  0.2457
  819SOL     OW 3319   1.400   4.243   1.609  0.1245  0.2656  0.2728
  819SOL    HW2 3320   1.454   4.307   1.561 -0.2289 -0.2459 -0.8211
  819SOL    HW3 3321   1.310   4.271   1.593 -0.0926 -1.2271 -1.2763
  819SOL    MW4 3322   1.395   4.255   1.601  0.0494  0.0014 -0.0758
  820SOL     OW 3323   1.556   4.426   1.480 -0.0788 -0.3412  0.1294
  820SOL    HW2 3324   1.640   4.387   1.502 -0.0886 -0.1767  0.4538
  820SOL    HW3 3325   1.552   4.506   1.532  0.4145  0.6534 -1.3233
  820SOL    MW4 3326   1.566   4.432   1.490 -0.0150 -0.1879 -0.0194
  821SOL     OW 3327   2.040   4.666   1.566  0.5417 -0.1810  0.4949
  821SOL    HW2 3328   2.029   4.669   1.661 -1.1120 -0.9702  0.3390
  821SOL    HW3 3329   1.962   4.709   1.531  1.1087  0.0491 -0.5168
  821SOL    MW4 3330   2.028   4.672   1.574  0.3984 -0.2547  0.3409
  822SOL     OW 3331   1.808   0.107   1.472  0.5783 -0.4967  0.0024
  822SOL    HW2 3332   1.729   0.078   1.516 -0.9874  0.4565 -2.0830
  822SOL    HW3 3333   1.787   0.102   1.379  3.1866 -0.7968 -0.6235
  822SOL    MW4 3334   1.795   0.102   1.465  0.7157 -0.4105 -0.3554
  823SOL     OW 3335   1.826   0.369   1.597 -0.4701 -0.3991 -0.0495
  823SOL    HW2 3336   1.898   0.407   1.546 -0.1762 -1.2837 -0.3073
  823SOL    HW3 3337   1.822   0.278   1.568 -1.1772 -0.5619  0.5465
  823SOL    MW4 3338   1.835   0.362   1.586 -0.5246 -0.5373 -0.0049
  824SOL     OW 3339   2.020   0.521   1.478 -0.2294  0.1359  0.0612
  824SOL    HW2 3340   2.100   0.486   1.518 -0.4359 -1.2088 -0.6640
  824SOL    HW3 3341   2.014   0.610   1.511  2.2463  0.6918 -0.8496
  824SOL    MW4 3342   2.030   0.528   1.488  0.0701  0.0318 -0.1546
  825SOL     OW 3343   2.005   0.782   1.561 -0.1205  0.2864 -0.4594
  825SOL    HW2 3344   1.996   0.772   1.656 -1.2127  2.0252 -0.3565
  825SOL    HW3 3345   1.915   0.787   1.529  0.2057 -1.6669 -1.7815
  825SOL    MW4 3346   1.992   0.781   1.570 -0.2216  0.2581 -0.6202
  826SOL     OW 3347   1.768   0.882   1.439  0.0036 -0.0827  0.5534
  826SOL    HW2 3348   1.775   0.966   1.483 -1.8965  0.0235  0.6796
  826SOL    HW3 3349   1.685   0.846   1.469 -0.2937 -0.9733 -1.2732
  826SOL    MW4 3350   1.758   0.888   1.449 -0.2865 -0.1862  0.3291
  827SOL     OW 3351   1.768   1.136   1.566 -0.2469  0.1342 -0.1906
  827SOL    HW2 3352   1.845   1.177   1.527  0.1249 -1.4779 -1.2376
  827SOL    HW3 3353   1.696   1.196   1.549  0.0962 -0.0692 -2.5341
  827SOL    MW4 3354   1.769   1.149   1.559 -0.1525 -0.1053 -0.6379
  828SOL     OW 3355   1.991   1.282   1.495  0.6544 -0.3569  0.6090
  828SOL    HW2 3356   1.985   1.368   1.536 -0.4346 -0.7376  1.2532
  828SOL    HW3 3357   2.009   1.301   1.403  0.7247  0.5510  0.8020
  828SOL    MW4 3358   1.993   1.296   1.488  0.5200 -0.2874  0.7195
  829SOL     OW 3359   2.012   1.538   1.613  0.3989  0.6321  0.2949
  829SOL    HW2 3360   2.084   1.580   1.566  0.6011  0.6255  0.5944
  829SOL    HW3 3361   1.934   1.585   1.585  0.6104  1.1468  0.5521
  829SOL    MW4 3362   2.011   1.550   1.603  0.4535  0.6992  0.3681
  830SOL     OW 3363   1.795   1.680   1.514 -0.3611 -0.3454 -0.7614
  830SOL    HW2 3364   1.702   1.664   1.534 -0.4332 -0.1632 -0.9469
  830SOL    HW3 3365   1.800   1.672   1.419 -0.7972  2.6654 -1.0879
  830SOL    MW4 3366   1.783   1.677   1.504 -0.4281  0.0758 -0.8290
  831SOL     OW 3367   1.821   1.942   1.591 -0.0020 -0.0479 -0.3826
  831SOL    HW2 3368   1.821   1.851   1.562 -0.2121 -0.6488  1.4424
  831SOL    HW3 3369   1.735   1.976   1.568  0.0029 -0.3705 -0.8687
  831SOL    MW4 3370   1.810   1.935   1.584 -0.0290 -0.1698 -0.2060
  832SOL     OW 3371   2.022   2.094   1.508 -0.3402  0.3379 -0.3895
  832SOL    HW2 3372   2.102   2.041   1.514 -0.9191 -0.6280 -1.1579
  832SOL    HW3 3373   1.951   2.034   1.530 -0.8208  1.3350  0.8716
  832SOL    MW4 3374   2.023   2.079   1.512 -0.4802  0.3421 -0.3245
  833SOL     OW 3375   2.064   2.332   1.616  0.0877 -0.3675  0.2420
  833SOL    HW2 3376   2.066   2.316   1.710  1.2945  0.5799  0.3810
  833SOL    HW3 3377   2.061   2.245   1.577 -0.3154 -0.7662  1.1495
  833SOL    MW4 3378   2.064   2.319   1.623  0.1936 -0.2952  0.3800
  834SOL     OW 3379   1.809   2.427   1.560 -0.0825  0.1308 -0.1812
  834SOL    HW2 3380   1.900   2.404   1.580 -0.1166 -0.3421 -0.5590
  834SOL    HW3 3381   1.806   2.432   1.464 -0.2877  0.8399 -0.1395
  834SOL    MW4 3382   1.820   2.425   1.550 -0.1140  0.1624 -0.2255
  835SOL     OW 3383   1.806   2.701   1.617 -0.2325 -0.3637 -0.4980
  835SOL    HW2 3384   1.883   2.737   1.573  0.7625  0.5511  1.9092
  835SOL    HW3 3385   1.812   2.607   1.604  1.1423 -0.2611 -0.5971
  835SOL    MW4 3386   1.817   2.693   1.610  0.0802 -0.2298 -0.1935
  836SOL     OW 3387   2.070   2.857   1.229  0.2557  0.5746  0.5134
  836SOL    HW2 3388   2.145   2.818   1.184  0.5200  0.2707  1.2147
  836SOL    HW3 3389   1.994   2.813   1.192  0.5267 -0.2924  0.9903
  836SOL    MW4 3390   2.070   2.846   1.218  0.3264  0.4201  0.6688
  837SOL     OW 3391   2.049   2.824   1.505 -0.0389 -0.6144  0.4649
  837SOL    HW2 3392   2.042   2.912   1.542 -1.8296 -0.4342 -0.2796
  837SOL    HW3 3393   2.059   2.838   1.410  2.3728 -1.1400  0.6039
  837SOL    MW4 3394   2.050   2.837   1.497  0.0432 -0.6599  0.3850
  838SOL     OW 3395   1.813   3.184   1.506  0.0844 -0.2143  0.5553
  838SOL    HW2 3396   1.801   3.278   1.520 -0.6945 -0.1310 -0.5962
  838SOL    HW3 3397   1.902   3.166   1.538 -0.1086  0.7197  1.6695
  838SOL    MW4 3398   1.823   3.194   1.512 -0.0439 -0.0801  0.5503
  839SOL     OW 3399   1.793   3.452   1.602  0.6386  0.0863  0.0329
  839SOL    HW2 3400   1.783   3.444   1.697 -1.1984 -0.0570 -0.1619
  839SOL    HW3 3401   1.715   3.498   1.573  1.1352  0.0303 -1.4348
  839SOL    MW4 3402   1.782   3.457   1.611  0.4616  0.0598 -0.1864
  840SOL     OW 3403   1.965   3.621   1.475  0.1329 -0.1445  0.3267
  840SOL    HW2 3404   2.048   3.592   1.513  0.0435  0.8853  1.3287
  840SOL    HW3 3405   1.898   3.571   1.522  0.0551  0.7312  1.1623
  840SOL    MW4 3406   1.967   3.610   1.487  0.1107  0.1068  0.5692
  841SOL     OW 3407   1.971   3.877   1.581 -0.1547 -0.0822 -0.0645
  841SOL    HW2 3408   2.050   3.912   1.542  0.2453 -0.5846  0.2926
  841SOL    HW3 3409   1.974   3.783   1.562 -0.7275 -0.0852 -0.1620
  841SOL    MW4 3410   1.982   3.869   1.573 -0.1776 -0.1490 -0.0303
  842SOL     OW 3411   1.762   4.036   1.468  0.0611  0.4580 -0.0480
  842SOL    HW2 3412   1.844   3.996   1.499  0.2884 -0.0662 -1.3040
  842SOL    HW3 3413   1.694   3.977   1.501  0.1644  1.0066  1.1798
  842SOL    MW4 3414   1.764   4.023   1.476  0.1045  0.4611 -0.0517
  843SOL     OW 3415   1.774   4.287   1.587  0.3042 -0.0005  0.2243
  843SOL    HW2 3416   1.845   4.326   1.536 -1.2594  1.4084 -0.9228
  843SOL    HW3 3417   1.757   4.203   1.544 -0.5518  0.8811 -1.1788
  843SOL    MW4 3418   1.781   4.281   1.575 -0.0149  0.3018 -0.1122
  844SOL     OW 3419   1.997   4.421   1.439 -0.0468  0.2193  0.1042
  844SOL    HW2 3420   2.075   4.377   1.472  1.4783  1.2235 -2.0684
  844SOL    HW3 3421   2.000   4.508   1.479 -1.3495 -0.4875  1.8492
  844SOL    MW4 3422   2.007   4.427   1.449 -0.0174  0.2584  0.0479
  845SOL     OW 3423   2.440   4.640   1.562  0.5173 -0.1286 -0.0089
  845SOL    HW2 3424   2.441   4.676   1.651 -0.8490 -0.6752  0.2328
  845SOL    HW3 3425   2.387   4.701   1.511 -0.5906 -1.0036  0.0748
  845SOL    MW4 3426   2.433   4.653   1.567  0.1907 -0.3161  0.0340
  846SOL     OW 3427   2.249   0.151   1.472 -0.4885  0.0552 -0.8345
  846SOL    HW2 3428   2.186   0.095   1.518 -0.4259  1.8068  1.5017
  846SOL    HW3 3429   2.233   0.134   1.379 -2.6509 -1.4325 -0.2397
  846SOL    MW4 3430   2.239   0.141   1.466 -0.7656  0.0900 -0.4476
  847SOL     OW 3431   2.263   0.401   1.561  0.1682  0.4247  0.2719
  847SOL    HW2 3432   2.269   0.385   1.655  0.5448  0.4086  0.2448
  847SOL    HW3 3433   2.246   0.316   1.522  0.2720  0.3890  0.3037
  847SOL    MW4 3434   2.262   0.388   1.568  0.2317  0.4179  0.2725
  848SOL     OW 3435   2.500   0.514   1.474 -0.1549 -0.3822  0.3626
  848SOL    HW2 3436   2.566   0.453   1.507  0.3686  0.7049  1.3694
  848SOL    HW3 3437   2.417   0.471   1.491  0.2191 -0.9276  0.8292
  848SOL    MW4 3438   2.498   0.500   1.481 -0.0365 -0.3107  0.5569
  849SOL     OW 3439   2.484   0.759   1.609 -0.5332  0.0324  0.2015
  849SOL    HW2 3440   2.410   0.806   1.571 -0.8381 -0.3364  0.3379
  849SOL    HW3 3441   2.482   0.672   1.568 -1.3912 -0.6692  1.6941
  849SOL    MW4 3442   2.474   0.754   1.599 -0.6869 -0.1088  0.4165
  850SOL     OW 3443   2.274   0.877   1.495  0.4542 -0.4720 -0.5582
  850SOL    HW2 3444   2.266   0.966   1.531  0.4153 -0.6888 -0.0272
  850SOL    HW3 3445   2.190   0.836   1.513  0.1897 -0.3529 -1.5322
  850SOL    MW4 3446   2.262   0.884   1.502  0.4144 -0.4849 -0.6166
  851SOL     OW 3447   2.224   1.151   1.584  0.4341 -0.3442 -0.0863
  851SOL    HW2 3448   2.215   1.166   1.678 -0.2384 -0.4772 -0.1303
  851SOL    HW3 3449   2.140   1.178   1.547  0.8310  0.0669 -0.6950
  851SOL    MW4 3450   2.212   1.156   1.592  0.3979 -0.3076 -0.1725
  852SOL     OW 3451   2.489   1.265   1.524 -0.3825 -0.1088  0.0597
  852SOL    HW2 3452   2.401   1.231   1.537 -1.0860  1.6648  0.1139
  852SOL    HW3 3453   2.500   1.268   1.429 -0.3398 -0.4256  0.0541
  852SOL    MW4 3454   2.479   1.261   1.513 -0.4699  0.0836  0.0662
  853SOL     OW 3455   2.499   1.525   1.594  0.1524 -0.3287 -0.6280
  853SOL    HW2 3456   2.571   1.563   1.543  0.4160 -0.1179 -0.1056
  853SOL    HW3 3457   2.491   1.435   1.562  1.1187 -0.5721 -0.1956
  853SOL    MW4 3458   2.507   1.518   1.584  0.3145 -0.3328 -0.5022
  854SOL     OW 3459   2.262   1.678   1.520  0.0087 -0.1610  0.5630
  854SOL    HW2 3460   2.332   1.618   1.543 -0.7830 -1.1414  0.4137
  854SOL    HW3 3461   2.255   1.672   1.425 -1.7135 -1.6772  0.7686
  854SOL    MW4 3462   2.270   1.670   1.510 -0.3231 -0.4903  0.5705
  855SOL     OW 3463   2.238   1.938   1.584  0.3090  0.2297 -0.0107
  855SOL    HW2 3464   2.255   1.845   1.567 -0.9406  0.2767 -1.6378
  855SOL    HW3 3465   2.228   1.943   1.679  0.1058 -1.3625  0.0729
  855SOL    MW4 3466   2.239   1.926   1.594  0.1171  0.0259 -0.2143
  856SOL     OW 3467   2.476   2.065   1.513  0.0407  0.0247 -0.3044
  856SOL    HW2 3468   2.399   2.016   1.541 -0.6687  1.4453  0.3253
  856SOL    HW3 3469   2.477   2.056   1.418  0.2163 -1.5992 -0.1664
  856SOL    MW4 3470   2.466   2.058   1.504 -0.0298 -0.0021 -0.2031
  857SOL     OW 3471   2.531   2.317   1.589  0.4292 -0.2572 -0.0163
  857SOL    HW2 3472   2.534   2.321   1.685 -0.4397  1.6814 -0.0447
  857SOL    HW3 3473   2.520   2.224   1.569  0.7030 -0.6859  1.7616
  857SOL    MW4 3474   2.530   2.305   1.599  0.3507 -0.0579  0.2145
  858SOL     OW 3475   2.303   2.453   1.518 -0.1019  0.0355 -0.6408
  858SOL    HW2 3476   2.371   2.391   1.543  0.6849  0.6453 -1.2164
  858SOL    HW3 3477   2.220   2.409   1.538  0.4383 -1.3281 -1.3618
  858SOL    MW4 3478   2.301   2.439   1.524  0.0734 -0.0641 -0.8119
  859SOL     OW 3479   2.259   2.711   1.626 -0.3989 -0.1943  0.5557
  859SOL    HW2 3480   2.260   2.620   1.597  1.3313  0.1786 -0.6607
  859SOL    HW3 3481   2.189   2.752   1.574  1.4857  0.0527 -1.8728
  859SOL    MW4 3482   2.250   2.704   1.615  0.0780 -0.1125  0.0749
  860SOL     OW 3483   2.500   3.092   1.605  0.2429 -0.4197  0.1139
  860SOL    HW2 3484   2.575   3.145   1.576 -0.2479 -0.0980 -0.5896
  860SOL    HW3 3485   2.424   3.145   1.581 -0.2660 -1.6740 -1.0713
  860SOL    MW4 3486   2.500   3.106   1.598  0.1109 -0.5429 -0.1352
  861SOL     OW 3487   2.280   3.235   1.547  0.4067 -0.3781  0.3407
  861SOL    HW2 3488   2.234   3.318   1.555  0.1253 -0.6267  1.3606
  861SOL    HW3 3489   2.295   3.225   1.453  0.2439  0.7129  0.1931
  861SOL    MW4 3490   2.276   3.244   1.535  0.3481 -0.2668  0.4559
  862SOL     OW 3491   2.058   3.077   1.604 -0.3622 -0.0527  0.0024
  862SOL    HW2 3492   2.057   3.074   1.699 -1.5972 -1.3583 -0.0462
  862SOL    HW3 3493   2.132   3.135   1.583  0.4660 -0.4514  1.7187
  862SOL    MW4 3494   2.068   3.085   1.614 -0.4158 -0.2778  0.2226
  863SOL     OW 3495   2.209   3.500   1.608 -0.4680 -0.1832 -0.0591
  863SOL    HW2 3496   2.227   3.520   1.700  0.4721 -0.2696 -0.2195
  863SOL    HW3 3497   2.295   3.496   1.567 -0.8862  0.0306 -0.9836
  863SOL    MW4 3498   2.222   3.502   1.614 -0.3994 -0.1664 -0.2023
  864SOL     OW 3499   2.457   3.596   1.492  0.0423 -0.0276  0.1224
  864SOL    HW2 3500   2.537   3.596   1.545  0.5604  0.5531 -0.6537
  864SOL    HW3 3501   2.431   3.687   1.488 -0.6490 -0.2144  0.3433
  864SOL    MW4 3502   2.464   3.608   1.499  0.0198  0.0243  0.0491
  865SOL     OW 3503   2.399   3.871   1.540 -0.0375 -0.3437 -0.4671
  865SOL    HW2 3504   2.401   3.876   1.635 -1.1256  2.8536 -0.5541
  865SOL    HW3 3505   2.484   3.907   1.513 -0.4554  0.4723 -0.7197
  865SOL    MW4 3506   2.410   3.877   1.549 -0.2360  0.1857 -0.5119
  866SOL     OW 3507   2.183   4.032   1.461 -0.0900  0.0780 -0.1387
  866SOL    HW2 3508   2.254   3.974   1.490  0.6305  0.9819 -0.0866
  866SOL    HW3 3509   2.187   4.028   1.365 -1.6735 -1.9284 -0.1740
  866SOL    MW4 3510   2.193   4.024   1.452 -0.2036 -0.0677 -0.1365
  867SOL     OW 3511   2.228   4.295   1.572  0.2128 -0.4383  0.0588
  867SOL    HW2 3512   2.317   4.331   1.571 -0.0459  0.3613  2.7637
  867SOL    HW3 3513   2.240   4.200   1.564  1.2200 -0.2306 -1.0247
  867SOL    MW4 3514   2.241   4.287   1.570  0.3116 -0.3052  0.2726
  868SOL     OW 3515   2.485   4.383   1.503  0.2198  0.0172  0.1581
  868SOL    HW2 3516   2.483   4.469   1.544 -0.4563 -0.4559  1.1340
  868SOL    HW3 3517   2.496   4.402   1.409  0.9618  1.1207  0.4598
  868SOL    MW4 3518   2.486   4.397   1.496  0.2286  0.1001  0.3268
  869SOL     OW 3519   2.931   4.626   1.563  0.1332  0.4519  0.1561
  869SOL    HW2 3520   2.925   4.613   1.658  0.8962  0.4681  0.2076
  869SOL    HW3 3521   2.854   4.678   1.542 -0.8400 -0.8272  0.5342
  869SOL    MW4 3522   2.920   4.631   1.573  0.1054  0.2847  0.2128
  870SOL     OW 3523   2.694   0.088   1.520  0.4968  0.0426 -0.1285
  870SOL    HW2 3524   2.681   0.178   1.549  0.5425 -0.1911  0.6251
  870SOL    HW3 3525   2.616   0.041   1.550  0.6573 -0.2508 -0.1633
  870SOL    MW4 3526   2.682   0.093   1.528  0.5238 -0.0269 -0.0336
  871SOL     OW 3527   2.673   0.348   1.599 -0.1317 -0.4456 -0.2742
  871SOL    HW2 3528   2.662   0.338   1.694 -0.2684 -0.5490 -0.3019
  871SOL    HW3 3529   2.758   0.391   1.590 -0.5246  0.3827 -0.0620
  871SOL    MW4 3530   2.683   0.353   1.611 -0.2015 -0.3499 -0.2499
  872SOL     OW 3531   2.905   0.462   1.536 -0.0625  0.2848  0.2692
  872SOL    HW2 3532   2.921   0.555   1.553  0.5923  0.6284 -1.9789
  872SOL    HW3 3533   2.870   0.460   1.447  0.9996 -1.7034 -0.1437
  872SOL    MW4 3534   2.903   0.474   1.526  0.1640  0.0679 -0.0819
  873SOL     OW 3535   2.955   0.709   1.603 -0.5199 -0.1486  0.0487
  873SOL    HW2 3536   2.964   0.734   1.695 -0.3995 -1.6533  0.4580
  873SOL    HW3 3537   2.882   0.761   1.571  0.5761  1.7379  0.4989
  873SOL    MW4 3538   2.947   0.719   1.611 -0.3593 -0.0982  0.1621
  874SOL     OW 3539   2.725   0.837   1.499  0.3269  0.1859  0.3106
  874SOL    HW2 3540   2.645   0.804   1.541 -0.1957  1.0328  0.0105
  874SOL    HW3 3541   2.702   0.843   1.406  0.8393  0.1440  0.1810
  874SOL    MW4 3542   2.711   0.834   1.492  0.3257  0.2921  0.2538
  875SOL     OW 3543   2.694   1.092   1.622 -0.1345 -0.0387  0.1739
  875SOL    HW2 3544   2.693   1.011   1.571  0.3955  0.9373 -1.4100
  875SOL    HW3 3545   2.632   1.150   1.577  0.3042  0.8166  0.6462
  875SOL    MW4 3546   2.686   1.089   1.609 -0.0067  0.2029  0.0272
  876SOL     OW 3547   2.907   1.239   1.514 -0.1570 -0.2392  0.3716
  876SOL    HW2 3548   2.980   1.183   1.540 -0.3782 -0.5653  0.2917
  876SOL    HW3 3549   2.829   1.190   1.539 -0.3784 -0.5267 -0.8302
  876SOL    MW4 3550   2.906   1.225   1.521 -0.2153 -0.3201  0.2027
  877SOL     OW 3551   2.924   1.480   1.669  0.3450  0.0803 -0.7624
  877SOL    HW2 3552   2.852   1.530   1.631  0.4200  0.2083 -0.7359
  877SOL    HW3 3553   2.917   1.394   1.629  0.0016  0.0050 -0.5469
  877SOL    MW4 3554   2.913   1.475   1.659  0.3097  0.0873 -0.7305
  878SOL     OW 3555   2.739   1.639   1.525  0.2496  0.6260  0.2713
  878SOL    HW2 3556   2.734   1.734   1.536  0.8001  0.6403  0.4420
  878SOL    HW3 3557   2.748   1.626   1.431 -0.2491  0.7230  0.2111
  878SOL    MW4 3558   2.739   1.650   1.514  0.2563  0.6407  0.2859
  879SOL     OW 3559   2.702   1.921   1.586 -0.1197 -0.6153  0.2590
  879SOL    HW2 3560   2.709   1.912   1.681  0.1933  0.3479  0.3285
  879SOL    HW3 3561   2.623   1.975   1.573 -0.0676 -0.6068 -0.0179
  879SOL    MW4 3562   2.692   1.927   1.597 -0.0715 -0.4872  0.2316
  880SOL     OW 3563   2.942   2.057   1.506 -0.2248 -0.0418 -0.0416
  880SOL    HW2 3564   2.937   2.142   1.548 -0.9805  0.1634 -0.5357
  880SOL    HW3 3565   2.857   2.017   1.522  0.1526 -0.7353  0.2548
  880SOL    MW4 3566   2.930   2.063   1.514 -0.2749 -0.1061 -0.0677
  881SOL     OW 3567   2.922   2.316   1.609 -0.1585 -0.1596 -0.4734
  881SOL    HW2 3568   2.932   2.327   1.704  1.1054 -0.5417 -0.5554
  881SOL    HW3 3569   2.851   2.375   1.586 -0.3871  0.0428  0.6940
  881SOL    MW4 3570   2.914   2.325   1.619 -0.0219 -0.1836 -0.3302
  882SOL     OW 3571   2.715   2.478   1.468 -0.2635  0.0970 -0.1380
  882SOL    HW2 3572   2.708   2.553   1.527 -0.4201  0.3521 -0.4758
  882SOL    HW3 3573   2.643   2.420   1.494  0.0524 -0.0842  0.3312
  882SOL    MW4 3574   2.704   2.480   1.479 -0.2427  0.1066 -0.1206
  883SOL     OW 3575   2.706   2.723   1.618  0.1889 -0.4618 -0.6681
  883SOL    HW2 3576   2.770   2.769   1.563  0.3189  0.1259 -0.0282
  883SOL    HW3 3577   2.621   2.755   1.586  0.2669 -0.0427 -0.4660
  883SOL    MW4 3578   2.703   2.734   1.606  0.2160 -0.3290 -0.5569
  884SOL     OW 3579   2.916   2.839   1.496 -0.4255 -0.1221  0.5391
  884SOL    HW2 3580   2.990   2.802   1.543 -0.4434  0.9970  1.4732
  884SOL    HW3 3581   2.915   2.932   1.521 -2.1259 -0.1163  0.5545
  884SOL    MW4 3582   2.926   2.847   1.505 -0.6523  0.0265  0.6644
  885SOL     OW 3583   2.915   3.093   1.589 -0.2257 -0.0318  0.2018
  885SOL    HW2 3584   2.912   3.083   1.685  0.9735 -2.4955  0.0244
  885SOL    HW3 3585   2.989   3.152   1.573  0.4266 -0.6853  0.7497
  885SOL    MW4 3586   2.924   3.099   1.600  0.0188 -0.4427  0.2508
  886SOL     OW 3587   2.698   3.271   1.502 -0.3956 -0.0602 -0.0783
  886SOL    HW2 3588   2.780   3.227   1.527 -0.5600 -0.4246 -0.1797
  886SOL    HW3 3589   2.693   3.259   1.407 -0.7698 -0.3954 -0.0205
  886SOL    MW4 3590   2.708   3.263   1.492 -0.4666 -0.1523 -0.0840
  887SOL     OW 3591   2.663   3.517   1.647  0.3423 -0.4243 -0.2665
  887SOL    HW2 3592   2.657   3.509   1.742  0.3183  0.5565 -0.1816
  887SOL    HW3 3593   2.668   3.426   1.616 -0.2304 -0.7729  0.6262
  887SOL    MW4 3594   2.663   3.504   1.655  0.2639 -0.3412 -0.1374
  888SOL     OW 3595   2.911   3.609   1.550 -0.0227  0.1172  0.3452
  888SOL    HW2 3596   2.829   3.562   1.565 -0.9654  1.2794 -1.0689
  888SOL    HW3 3597   2.920   3.612   1.455  1.9968 -0.5427  0.4961
  888SOL    MW4 3598   2.902   3.603   1.539  0.1192  0.1836  0.1786
  889SOL     OW 3599   2.904   3.868   1.592  0.1405  0.2337 -0.0189
  889SOL    HW2 3600   2.818   3.895   1.561  0.2493  0.1160 -0.4259
  889SOL    HW3 3601   2.904   3.773   1.582 -0.2679  0.0575  1.4737
  889SOL    MW4 3602   2.893   3.859   1.587  0.1011  0.1950  0.1243
  890SOL     OW 3603   2.655   3.979   1.496  0.0300  0.0810 -0.0127
  890SOL    HW2 3604   2.654   4.067   1.533  1.0605 -0.2065  0.7207
  890SOL    HW3 3605   2.677   3.992   1.404 -2.2610  0.7796 -0.4762
  890SOL    MW4 3606   2.658   3.992   1.489 -0.1361  0.1354  0.0230
  891SOL     OW 3607   2.689   4.234   1.612 -0.8488  0.4267 -0.2925
  891SOL    HW2 3608   2.771   4.264   1.572 -0.9900  1.1143 -0.0675
  891SOL    HW3 3609   2.622   4.293   1.578 -1.0956  0.5007  0.3153
  891SOL    MW4 3610   2.691   4.246   1.602 -0.8998  0.5274 -0.1826
  892SOL     OW 3611   2.906   4.358   1.493  0.0093 -0.1360  0.3732
  892SOL    HW2 3612   2.916   4.450   1.517 -1.7004 -0.0353  0.7659
  892SOL    HW3 3613   2.901   4.357   1.398  2.7728 -0.1156  0.2035
  892SOL    MW4 3614   2.907   4.370   1.484  0.1488 -0.1197  0.4026
  893SOL     OW 3615   3.387   4.634   1.609 -0.3999 -0.5061 -0.2930
  893SOL    HW2 3616   3.478   4.641   1.580 -0.8276 -2.2349 -2.1777
  893SOL    HW3 3617   3.360   4.545   1.583 -2.6421  0.0060  0.1404
  893SOL    MW4 3618   3.395   4.623   1.602 -0.7522 -0.6661 -0.4845
  894SOL     OW 3619   3.157   0.098   1.491 -0.0003 -0.3396  0.3116
  894SOL    HW2 3620   3.241   0.067   1.525  0.3388 -0.8235 -0.9077
  894SOL    HW3 3621   3.092   0.041   1.532  0.3469 -0.5350  0.6000
  894SOL    MW4 3622   3.160   0.086   1.501  0.0904 -0.4292  0.1888
  895SOL     OW 3623   3.149   0.365   1.614 -0.4992 -0.4150 -0.3944
  895SOL    HW2 3624   3.166   0.276   1.583  0.5890 -0.3288 -0.0848
  895SOL    HW3 3625   3.069   0.392   1.569 -1.6677 -2.0986  0.6360
  895SOL    MW4 3626   3.141   0.357   1.604 -0.5095 -0.6258 -0.2176
  896SOL     OW 3627   3.388   0.477   1.528  0.3273 -0.0436  0.0773
  896SOL    HW2 3628   3.303   0.446   1.557  0.8277 -1.0455  0.4875
  896SOL    HW3 3629   3.382   0.476   1.432  0.4133 -1.6221  0.0847
  896SOL    MW4 3630   3.376   0.473   1.519  0.4048 -0.3840  0.1324
  897SOL     OW 3631   3.381   0.729   1.640 -0.3786 -0.3222  0.2255
  897SOL    HW2 3632   3.391   0.717   1.735 -0.7035 -1.6633  0.1098
  897SOL    HW3 3633   3.391   0.641   1.604  0.4712  0.2928 -1.0588
  897SOL    MW4 3634   3.383   0.716   1.648 -0.3092 -0.4180  0.0408
  898SOL     OW 3635   3.163   0.859   1.509 -0.3526 -0.0722  0.2970
  898SOL    HW2 3636   3.235   0.823   1.561 -0.0424  1.1513  0.7274
  898SOL    HW3 3637   3.085   0.818   1.546  0.1519 -1.8001 -0.5049
  898SOL    MW4 3638   3.162   0.849   1.521 -0.2451 -0.1387  0.2480
  899SOL     OW 3639   3.160   1.132   1.566 -0.1699 -0.2898 -0.1440
  899SOL    HW2 3640   3.167   1.142   1.661  1.2987  2.2752 -0.4732
  899SOL    HW3 3641   3.174   1.038   1.551 -0.1958 -0.6979  2.1336
  899SOL    MW4 3642   3.163   1.121   1.577  0.0205 -0.0052  0.1132
  900SOL     OW 3643   3.399   1.280   1.474  0.1200 -0.2145 -0.3649
  900SOL    HW2 3644   3.469   1.228   1.514 -0.4665 -0.8718 -0.1855
  900SOL    HW3 3645   3.319   1.229   1.490 -0.4958  0.8888  0.0731
  900SOL    MW4 3646   3.398   1.266   1.481 -0.0386 -0.1556 -0.2834
  901SOL     OW 3647   3.365   1.523   1.606  0.4132 -0.1361  0.0777
  901SOL    HW2 3648   3.381   1.513   1.700 -2.3965 -0.9438  0.5053
  901SOL    HW3 3649   3.378   1.436   1.570 -1.4757 -0.4684  0.1946
  901SOL    MW4 3650   3.369   1.510   1.614 -0.2069 -0.2865  0.1496
  902SOL     OW 3651   3.118   1.647   1.552 -0.3418 -0.1252 -0.0749
  902SOL    HW2 3652   3.205   1.611   1.572 -0.2720 -0.1813 -0.4810
  902SOL    HW3 3653   3.057   1.588   1.597 -0.1612  0.0539  0.4138
  902SOL    MW4 3654   3.122   1.634   1.561 -0.3088 -0.1091 -0.0640
  903SOL     OW 3655   3.164   1.911   1.598 -0.0083 -0.2266 -0.0821
  903SOL    HW2 3656   3.153   1.817   1.585 -2.5447 -0.1216  1.1213
  903SOL    HW3 3657   3.085   1.951   1.561  0.5689  1.3609  0.3355
  903SOL    MW4 3658   3.152   1.904   1.591 -0.2666 -0.0033  0.1317
  904SOL     OW 3659   3.383   2.041   1.474  0.4223 -0.6862  0.0633
  904SOL    HW2 3660   3.317   1.978   1.505  0.4473 -0.7219  0.0431
  904SOL    HW3 3661   3.386   2.027   1.380  0.0713 -0.3147 -0.0050
  904SOL    MW4 3662   3.375   2.031   1.466  0.3793 -0.6421  0.0515
  905SOL     OW 3663   3.368   2.301   1.583 -0.6312 -0.1591  0.2538
  905SOL    HW2 3664   3.450   2.346   1.565 -1.1922  0.7819  0.0282
  905SOL    HW3 3665   3.381   2.213   1.549  0.4357 -0.1373  0.5964
  905SOL    MW4 3666   3.380   2.295   1.576 -0.5648 -0.0322  0.2693
  906SOL     OW 3667   3.150   2.471   1.502  0.7202  0.4632  0.4168
  906SOL    HW2 3668   3.229   2.422   1.523  0.4182 -0.4720 -0.5598
  906SOL    HW3 3669   3.078   2.411   1.525  0.3396  0.5404 -0.5653
  906SOL    MW4 3670   3.151   2.457   1.508  0.6301  0.3498  0.1584
  907SOL     OW 3671   3.130   2.710   1.613 -0.0055  0.1555 -0.0893
  907SOL    HW2 3672   3.211   2.755   1.590 -0.4464  0.5761 -0.8457
  907SOL    HW3 3673   3.141   2.621   1.580 -1.3326  1.2196 -3.5942
  907SOL    MW4 3674   3.142   2.704   1.606 -0.2387  0.3512 -0.6516
  908SOL     OW 3675   3.355   2.847   1.512 -0.2970 -0.3191  0.3209
  908SOL    HW2 3676   3.343   2.941   1.527 -1.6243 -0.4025 -0.1525
  908SOL    HW3 3677   3.377   2.840   1.420  0.3916 -0.4257  0.4931
  908SOL    MW4 3678   3.356   2.858   1.502 -0.3812 -0.3443  0.2811
  909SOL     OW 3679   3.351   3.109   1.591  0.3549 -0.1907 -0.4268
  909SOL    HW2 3680   3.367   3.094   1.685 -1.1020 -0.0525 -0.1559
  909SOL    HW3 3681   3.433   3.148   1.560  0.7818 -0.0404  0.8301
  909SOL    MW4 3682   3.364   3.112   1.599  0.2193 -0.1526 -0.2254
  910SOL     OW 3683   3.134   3.240   1.522 -0.1314  0.0854 -0.3748
  910SOL    HW2 3684   3.202   3.179   1.550 -2.3082 -2.6254 -0.8401
  910SOL    HW3 3685   3.165   3.274   1.438  0.9646 -0.5636 -0.2391
  910SOL    MW4 3686   3.147   3.236   1.515 -0.2742 -0.3579 -0.4183
  911SOL     OW 3687   3.146   3.496   1.634  0.0617  0.1229  0.3516
  911SOL    HW2 3688   3.148   3.407   1.597  0.4379  0.5854 -0.7571
  911SOL    HW3 3689   3.063   3.533   1.604 -0.1934  0.0735  0.9931
  911SOL    MW4 3690   3.136   3.489   1.625  0.0777  0.1771  0.2899
  912SOL     OW 3691   3.395   3.631   1.554 -0.0241  0.7389  0.1800
  912SOL    HW2 3692   3.472   3.580   1.582  0.0107 -0.8200 -2.5249
  912SOL    HW3 3693   3.321   3.576   1.579 -0.1014  0.6778 -0.1795
  912SOL    MW4 3694   3.396   3.617   1.561 -0.0296  0.5252 -0.2244
  913SOL     OW 3695   3.383   3.904   1.587  0.0721 -0.1894 -0.1909
  913SOL    HW2 3696   3.296   3.934   1.559  0.0156 -0.3370 -0.1732
  913SOL    HW3 3697   3.381   3.809   1.574 -0.7086 -0.5651  2.2758
  913SOL    MW4 3698   3.371   3.895   1.581 -0.0381 -0.2584  0.1370
  914SOL     OW 3699   3.134   3.999   1.503 -0.0531 -0.2656  0.5764
  914SOL    HW2 3700   3.116   4.088   1.534 -0.7579 -0.4328  0.6575
  914SOL    HW3 3701   3.060   3.947   1.534 -1.7784 -0.0859 -2.9618
  914SOL    MW4 3702   3.122   4.004   1.511 -0.3736 -0.2637  0.1203
  915SOL     OW 3703   3.123   4.243   1.608  0.3403  0.2075  0.0801
  915SOL    HW2 3704   3.108   4.243   1.703  0.4838 -1.4968  0.1273
  915SOL    HW3 3705   3.045   4.284   1.571  0.3481  1.0128  0.9470
  915SOL    MW4 3706   3.111   4.248   1.616  0.3603  0.0887  0.2007
  916SOL     OW 3707   3.344   4.381   1.525  0.2705  0.1346 -0.3592
  916SOL    HW2 3708   3.277   4.332   1.573  1.4812 -1.3200 -0.1396
  916SOL    HW3 3709   3.326   4.362   1.433  1.5482 -1.8062 -0.2213
  916SOL    MW4 3710   3.333   4.372   1.519  0.5989 -0.3133 -0.3121
  917SOL     OW 3711   3.867   4.624   1.598  0.3215 -0.3558 -0.0261
  917SOL    HW2 3712   3.864   4.648   1.691 -0.9216  0.4313 -0.2603
  917SOL    HW3 3713   3.948   4.664   1.566  0.2831  0.1628  0.5062
  917SOL    MW4 3714   3.878   4.633   1.606  0.1526 -0.1836  0.0134
  918SOL     OW 3715   3.628   0.059   1.501  0.0963 -0.7327  0.0205
  918SOL    HW2 3716   3.706   0.014   1.531 -0.4228 -1.7318 -0.0883
  918SOL    HW3 3717   3.633   0.055   1.405 -0.1018 -0.8228  0.0133
  918SOL    MW4 3718   3.639   0.053   1.492  0.0014 -0.8764  0.0052
  919SOL     OW 3719   3.630   0.326   1.577 -0.4926 -0.2282  0.0212
  919SOL    HW2 3720   3.626   0.242   1.532 -1.3946  0.2436 -0.7940
  919SOL    HW3 3721   3.545   0.367   1.560  0.1964  1.1535 -0.1822
  919SOL    MW4 3722   3.618   0.321   1.569 -0.5207  0.0164 -0.1131
  920SOL     OW 3723   3.836   0.494   1.496 -0.3908 -0.1315  0.7385
  920SOL    HW2 3724   3.760   0.445   1.528 -0.3753 -0.5335  0.1733
  920SOL    HW3 3725   3.818   0.507   1.403  0.6956 -1.1138  0.3715
  920SOL    MW4 3726   3.823   0.489   1.488 -0.2456 -0.3141  0.6154
  921SOL     OW 3727   3.839   0.730   1.647  0.4683 -0.2525 -0.3413
  921SOL    HW2 3728   3.757   0.775   1.629  0.3941 -0.7873 -1.4194
  921SOL    HW3 3729   3.840   0.656   1.586  1.6671 -0.3548 -0.2245
  921SOL    MW4 3730   3.829   0.726   1.636  0.6168 -0.3366 -0.4681
  922SOL     OW 3731   3.617   0.865   1.533  0.3253 -0.0646 -0.1767
  922SOL    HW2 3732   3.534   0.825   1.557  0.3615  1.2154  2.1514
  922SOL    HW3 3733   3.606   0.888   1.440 -1.6865 -0.4636 -0.0607
  922SOL    MW4 3734   3.605   0.863   1.524  0.0646  0.0516  0.1458
  923SOL     OW 3735   3.580   1.129   1.589  0.2849  0.1286  0.4614
  923SOL    HW2 3736   3.659   1.179   1.565 -0.0935  0.1944 -0.6896
  923SOL    HW3 3737   3.602   1.039   1.565 -0.3572  0.3010 -0.8022
  923SOL    MW4 3738   3.594   1.124   1.583  0.1502  0.1601  0.1427
  924SOL     OW 3739   3.802   1.286   1.529  0.6250  0.2880  0.0347
  924SOL    HW2 3740   3.877   1.241   1.569  0.0673 -0.0983  0.6784
  924SOL    HW3 3741   3.805   1.374   1.565  0.8677  0.3213 -0.0674
  924SOL    MW4 3742   3.812   1.291   1.539  0.5836  0.2415  0.1061
  925SOL     OW 3743   3.829   1.536   1.593 -0.0502 -0.2938  0.2604
  925SOL    HW2 3744   3.820   1.542   1.688  1.8606  1.0931  0.3937
  925SOL    HW3 3745   3.750   1.578   1.559 -0.5079 -0.3424  1.2515
  925SOL    MW4 3746   3.818   1.542   1.601  0.1414 -0.1173  0.4086
  926SOL     OW 3747   3.595   1.643   1.512  0.1064  0.0820  0.0264
  926SOL    HW2 3748   3.508   1.627   1.547  0.0500  0.2329 -0.0469
  926SOL    HW3 3749   3.582   1.657   1.418  0.0866  1.0930  0.1691
  926SOL    MW4 3750   3.582   1.643   1.504  0.0966  0.2354  0.0356
  927SOL     OW 3751   3.633   1.930   1.590  0.6940 -0.7009 -0.0675
  927SOL    HW2 3752   3.621   1.841   1.557 -0.3695 -0.5596 -0.0711
  927SOL    HW3 3753   3.552   1.976   1.568  0.7121 -0.0856  1.0734
  927SOL    MW4 3754   3.621   1.925   1.583  0.5560 -0.6009  0.0826
  928SOL     OW 3755   3.836   2.052   1.451  0.4959  0.3498 -0.4826
  928SOL    HW2 3756   3.835   2.141   1.488 -1.3922  0.8512 -1.6801
  928SOL    HW3 3757   3.765   2.006   1.498  1.5321 -0.5772  0.2074
  928SOL    MW4 3758   3.826   2.058   1.462  0.3836  0.2937 -0.5496
  929SOL     OW 3759   3.824   2.307   1.554 -0.0168 -0.2553 -0.4958
  929SOL    HW2 3760   3.828   2.306   1.650 -0.9193 -0.1742 -0.4513
  929SOL    HW3 3761   3.903   2.355   1.527  1.1880 -1.8236  0.1372
  929SOL    MW4 3762   3.835   2.313   1.563  0.0231 -0.4516 -0.4064
  930SOL     OW 3763   3.607   2.465   1.518  0.4441  0.0805 -0.7007
  930SOL    HW2 3764   3.633   2.551   1.551  1.2560  0.2092 -1.6331
  930SOL    HW3 3765   3.687   2.412   1.523  0.6358  0.1373 -2.5210
  930SOL    MW4 3766   3.621   2.469   1.523  0.5765  0.1051 -1.0638
  931SOL     OW 3767   3.597   2.732   1.620  0.0002 -0.0108 -0.1092
  931SOL    HW2 3768   3.588   2.743   1.714  0.0665 -0.6219 -0.0295
  931SOL    HW3 3769   3.513   2.762   1.584 -0.7245 -1.5264  0.2943
  931SOL    MW4 3770   3.585   2.738   1.627 -0.0865 -0.2911 -0.0455
  932SOL     OW 3771   3.831   2.837   1.498  0.5021 -0.0026 -0.0670
  932SOL    HW2 3772   3.905   2.787   1.533  1.0646  0.6286 -0.3330
  932SOL    HW3 3773   3.753   2.794   1.534  0.9805 -0.9337 -0.1255
  932SOL    MW4 3774   3.830   2.825   1.507  0.6397 -0.0422 -0.1099
  933SOL     OW 3775   3.815   3.095   1.624  0.5843  0.1640  0.1172
  933SOL    HW2 3776   3.896   3.133   1.590  0.4683 -0.6690 -1.0845
  933SOL    HW3 3777   3.813   3.006   1.589  0.0190 -0.4156  1.5826
  933SOL    MW4 3778   3.826   3.089   1.615  0.4945 -0.0222  0.1520
  934SOL     OW 3779   3.595   3.220   1.515 -0.4460  0.0251  0.7917
  934SOL    HW2 3780   3.670   3.172   1.550  0.1712  0.6543  0.3449
  934SOL    HW3 3781   3.618   3.235   1.423 -0.7843  0.8741  0.8437
  934SOL    MW4 3782   3.608   3.216   1.507 -0.4091  0.2203  0.7397
  935SOL     OW 3783   3.611   3.470   1.622 -0.3218 -0.4617  0.1335
  935SOL    HW2 3784   3.691   3.506   1.583 -1.0247  0.6395 -0.3167
  935SOL    HW3 3785   3.603   3.383   1.584 -0.6853  0.3781 -1.8227
  935SOL    MW4 3786   3.620   3.464   1.612 -0.4623 -0.2055 -0.1841
  936SOL     OW 3787   3.817   3.629   1.537 -0.1593  0.2770  0.6247
  936SOL    HW2 3788   3.887   3.583   1.583 -0.0587 -1.3741 -1.1342
  936SOL    HW3 3789   3.825   3.720   1.566  2.1751 -0.0391  1.0527
  936SOL    MW4 3790   3.827   3.635   1.547  0.1619  0.0176  0.4489
  937SOL     OW 3791   3.812   3.894   1.603 -0.0236 -0.0461  0.2078
  937SOL    HW2 3792   3.892   3.939   1.575 -0.1579 -0.7470 -1.3903
  937SOL    HW3 3793   3.741   3.946   1.564 -0.3630  0.6153  1.6773
  937SOL    MW4 3794   3.813   3.907   1.594 -0.0863 -0.0513  0.1910
  938SOL     OW 3795   3.601   4.039   1.503  0.1586  0.3957 -0.2534
  938SOL    HW2 3796   3.597   4.127   1.541  0.2026  0.5778 -0.6749
  938SOL    HW3 3797   3.531   3.991   1.547 -0.2061  0.7893 -0.4074
  938SOL    MW4 3798   3.591   4.044   1.514  0.1163  0.4721 -0.3293
  939SOL     OW 3799   3.580   4.293   1.635 -0.2033 -0.1763  0.2076
  939SOL    HW2 3800   3.571   4.295   1.731  0.2082  2.0211  0.2191
  939SOL    HW3 3801   3.496   4.324   1.602  0.3839  1.1358 -0.0857
  939SOL    MW4 3802   3.568   4.297   1.643 -0.0713  0.2866  0.1704
  940SOL     OW 3803   3.830   4.379   1.478 -0.0658  0.4424 -0.2836
  940SOL    HW2 3804   3.761   4.341   1.531  1.1973  0.3937  1.3486
  940SOL    HW3 3805   3.852   4.461   1.522  0.2998  0.8957 -1.2918
  940SOL    MW4 3806   3.824   4.385   1.490  0.1493  0.4954 -0.2012
  941SOL     OW 3807   4.296   4.637   1.597  0.1188  0.2479 -0.4707
  941SOL    HW2 3808   4.277   4.621   1.689 -2.2347  1.4494 -0.7083
  941SOL    HW3 3809   4.292   4.550   1.556  0.0373 -0.1370  0.3478
  941SOL    MW4 3810   4.293   4.623   1.603 -0.2027  0.3552 -0.3941
  942SOL     OW 3811   4.080   0.123   1.516  0.0558  0.2117 -0.3294
  942SOL    HW2 3812   4.092   0.206   1.561 -0.3238  0.4471 -0.6619
  942SOL    HW3 3813   4.165   0.079   1.524 -0.1378  0.0701  0.9744
  942SOL    MW4 3814   4.093   0.128   1.523 -0.0196  0.2241 -0.2012
  943SOL     OW 3815   4.075   0.357   1.639 -0.3128  0.4215  0.3950
  943SOL    HW2 3816   4.064   0.360   1.734  0.7837 -0.7568  0.5795
  943SOL    HW3 3817   3.992   0.390   1.604 -0.4939  1.4566  1.7622
  943SOL    MW4 3818   4.063   0.361   1.647 -0.1917  0.4026  0.5996
  944SOL     OW 3819   4.271   0.509   1.516  0.7640 -0.2323 -0.0786
  944SOL    HW2 3820   4.198   0.492   1.575  0.7796 -1.2570 -0.3358
  944SOL    HW3 3821   4.344   0.459   1.553  1.2689  0.6027  0.0496
  944SOL    MW4 3822   4.271   0.500   1.528  0.8326 -0.2573 -0.0957
  945SOL     OW 3823   4.277   0.778   1.607 -0.6187  0.3725  0.3463
  945SOL    HW2 3824   4.279   0.688   1.573  0.4419 -0.5059  2.6427
  945SOL    HW3 3825   4.360   0.816   1.578 -1.1416  0.6727 -0.7697
  945SOL    MW4 3826   4.289   0.771   1.598 -0.5474  0.2962  0.5021
  946SOL     OW 3827   4.042   0.921   1.601  0.2926 -0.0484  0.6310
  946SOL    HW2 3828   4.126   0.876   1.612  0.2894  0.3836  2.5562
  946SOL    HW3 3829   3.976   0.855   1.620  0.2101 -0.1290  0.0731
  946SOL    MW4 3830   4.044   0.907   1.605  0.2813 -0.0020  0.8113
  947SOL     OW 3831   4.035   1.187   1.634  0.0837  0.6214 -0.7558
  947SOL    HW2 3832   4.037   1.202   1.728 -0.2062  2.5694 -1.0364
  947SOL    HW3 3833   4.046   1.092   1.624 -0.1848  0.3677  1.2317
  947SOL    MW4 3834   4.037   1.177   1.645  0.0100  0.8450 -0.5306
  948SOL     OW 3835   4.251   1.314   1.550  0.1994  0.1140 -0.1454
  948SOL    HW2 3836   4.178   1.261   1.582 -0.5190  0.6463 -0.8933
  948SOL    HW3 3837   4.328   1.257   1.559 -0.1902 -0.2212  1.2602
  948SOL    MW4 3838   4.252   1.300   1.556  0.0529  0.1400 -0.0585
  949SOL     OW 3839   4.264   1.571   1.631  0.7450  0.4340  0.5107
  949SOL    HW2 3840   4.256   1.480   1.602 -0.1252  0.6816 -0.0163
  949SOL    HW3 3841   4.338   1.606   1.582  0.1892  0.4244 -0.3377
  949SOL    MW4 3842   4.273   1.564   1.621  0.5565  0.4654  0.3293
  950SOL     OW 3843   4.049   1.672   1.487 -0.5429 -0.1159 -0.0538
  950SOL    HW2 3844   4.126   1.656   1.543  0.7573 -1.5271 -2.1916
  950SOL    HW3 3845   3.979   1.622   1.529 -0.0444  0.3415  1.3537
  950SOL    MW4 3846   4.050   1.663   1.500 -0.3057 -0.2416 -0.1501
  951SOL     OW 3847   4.045   1.939   1.599  0.1432  0.2984 -0.3613
  951SOL    HW2 3848   4.050   1.856   1.551 -1.7499 -0.7409  1.1346
  951SOL    HW3 3849   3.970   1.984   1.561 -0.5686  0.0470  0.7381
  951SOL    MW4 3850   4.036   1.934   1.588 -0.2003  0.1283 -0.0190
  952SOL     OW 3851   4.301   2.008   1.534 -0.0476 -0.0293  0.5967
  952SOL    HW2 3852   4.212   1.982   1.557  0.3668 -1.9915  0.0194
  952SOL    HW3 3853   4.299   2.022   1.439  0.4792 -0.9638  0.4465
  952SOL    MW4 3854   4.289   2.007   1.525  0.0772 -0.4115  0.5007
  953SOL     OW 3855   4.256   2.294   1.617  0.0693 -0.3942  0.2731
  953SOL    HW2 3856   4.240   2.287   1.711 -1.6246  0.6566  0.0837
  953SOL    HW3 3857   4.256   2.203   1.586  0.7010 -0.7474  1.2924
  953SOL    MW4 3858   4.254   2.281   1.625 -0.0710 -0.3021  0.3825
  954SOL     OW 3859   4.038   2.719   1.630 -0.1438  0.0682  1.1074
  954SOL    HW2 3860   4.112   2.776   1.607 -0.0260 -0.0393  1.2216
  954SOL    HW3 3861   4.040   2.714   1.725 -0.0732 -0.2293  1.0942
  954SOL    MW4 3862   4.048   2.726   1.639 -0.1192  0.0150  1.1207
  955SOL     OW 3863   4.285   2.817   1.562 -0.2325 -0.1204  0.0066
  955SOL    HW2 3864   4.271   2.906   1.592  0.3055 -0.4393  1.2308
  955SOL    HW3 3865   4.297   2.825   1.468 -0.6909  1.0395  0.0372
  955SOL    MW4 3866   4.284   2.830   1.554 -0.2217 -0.0095  0.1721
  956SOL     OW 3867   4.285   3.072   1.137 -0.0151  0.1356 -0.1576
  956SOL    HW2 3868   4.218   3.128   1.175  0.5728  0.9884 -0.3822
  956SOL    HW3 3869   4.272   2.987   1.180 -0.9390  0.4195  0.1332
  956SOL    MW4 3870   4.274   3.068   1.147 -0.0587  0.2856 -0.1489
  957SOL     OW 3871   4.245   3.076   1.636 -0.0925  0.2939 -0.0468
  957SOL    HW2 3872   4.258   3.093   1.729  0.2648  0.9996 -0.2159
  957SOL    HW3 3873   4.319   3.120   1.593 -0.9756  1.1338 -0.7504
  957SOL    MW4 3874   4.257   3.084   1.642 -0.1616  0.4978 -0.1619
  958SOL     OW 3875   4.045   3.220   1.514  0.8251  0.0637  0.0421
  958SOL    HW2 3876   4.062   3.305   1.553  0.2196 -0.2257  0.9685
  958SOL    HW3 3877   4.092   3.158   1.569  0.6986 -0.2627 -0.2135
  958SOL    MW4 3878   4.053   3.223   1.526  0.7286 -0.0174  0.1305
  959SOL     OW 3879   4.038   3.482   1.626 -0.3764  0.0581  0.1617
  959SOL    HW2 3880   4.046   3.469   1.720  1.4150  1.0977  0.1813
  959SOL    HW3 3881   4.120   3.525   1.601 -0.4722 -0.9522 -2.0037
  959SOL    MW4 3882   4.050   3.486   1.635 -0.1526  0.0622 -0.1215
  960SOL     OW 3883   4.271   3.595   1.522  0.0072  0.1319  0.0024
  960SOL    HW2 3884   4.286   3.680   1.564 -0.2048 -0.1497  0.6520
  960SOL    HW3 3885   4.247   3.617   1.432 -1.2000  0.8101  0.4861
  960SOL    MW4 3886   4.270   3.609   1.515 -0.1802  0.1845  0.1519
  961SOL     OW 3887   4.302   3.855   1.612  0.4585  0.0913 -0.5445
  961SOL    HW2 3888   4.215   3.891   1.591  1.3888  2.5140 -0.3293
  961SOL    HW3 3889   4.361   3.901   1.553  2.0255  0.8336  1.5585
  961SOL    MW4 3890   4.298   3.866   1.601  0.7877  0.5088 -0.2387
  962SOL     OW 3891   4.052   3.982   1.555 -0.0121  0.2539 -0.0675
  962SOL    HW2 3892   4.039   4.071   1.587 -1.1321  0.3409 -0.7653
  962SOL    HW3 3893   4.051   3.990   1.460 -0.7248 -0.5964 -0.1367
  962SOL    MW4 3894   4.050   3.994   1.547 -0.2542  0.1533 -0.1687
  963SOL     OW 3895   4.068   4.261   1.605  0.4761 -0.4093 -0.0945
  963SOL    HW2 3896   4.055   4.263   1.700  0.6449 -2.8868  0.0106
  963SOL    HW3 3897   3.987   4.300   1.570  0.2024  0.0734  1.0302
  963SOL    MW4 3898   4.055   4.267   1.613  0.4625 -0.6719  0.0677
  964SOL     OW 3899   4.276   4.388   1.499 -0.1009 -0.0148 -0.1425
  964SOL    HW2 3900   4.212   4.335   1.547  1.2752 -2.6454 -1.0865
  964SOL    HW3 3901   4.249   4.381   1.407  0.9336 -0.3022 -0.4331
  964SOL    MW4 3902   4.264   4.380   1.493  0.2174 -0.4001 -0.3054
  965SOL     OW 3903   0.203   4.624   1.919 -0.1814 -0.7006  0.0903
  965SOL    HW2 3904   0.270   4.687   1.945 -1.1735  0.0921  0.7643
  965SOL    HW3 3905   0.208   4.622   1.823 -0.8353  1.2119 -0.0195
  965SOL    MW4 3906   0.212   4.632   1.909 -0.3986 -0.3443  0.1646
  966SOL     OW 3907   0.001   0.109   2.020  0.4931 -0.0968  0.1343
  966SOL    HW2 3908   0.006   0.194   1.978 -0.8164  0.0133  0.1908
  966SOL    HW3 3909   0.077   0.061   1.986  0.1905  0.4402 -1.3270
  966SOL    MW4 3910   0.012   0.114   2.010  0.2809 -0.0114 -0.0513
  967SOL     OW 3911   4.465   0.360   1.906  0.4027  0.0339  0.2942
  967SOL    HW2 3912   4.403   0.428   1.933  0.4257  0.5441 -0.8993
  967SOL    HW3 3913   4.551   0.401   1.914  0.3824  0.3362 -0.9364
  967SOL    MW4 3914   4.468   0.374   1.910  0.4034  0.1411 -0.0255
  968SOL     OW 3915   0.188   0.506   1.999 -0.2139  0.4941 -0.1056
  968SOL    HW2 3916   0.274   0.475   1.970 -0.8564 -0.6167 -0.8505
  968SOL    HW3 3917   0.183   0.596   1.967 -0.1029 -0.0673 -1.7309
  968SOL    MW4 3918   0.199   0.514   1.991 -0.2840  0.2735 -0.4183
  969SOL     OW 3919   0.202   0.754   1.883 -0.1649 -0.8847  0.4454
  969SOL    HW2 3920   0.283   0.794   1.914 -0.6705 -0.3821  1.1541
  969SOL    HW3 3921   0.208   0.757   1.788 -0.5470  1.6383  0.4764
  969SOL    MW4 3922   0.213   0.760   1.874 -0.2820 -0.4855  0.5430
  970SOL     OW 3923   0.003   0.896   2.010 -0.1298  0.1109 -0.1438
  970SOL    HW2 3924  -0.077   0.850   1.982 -0.0793  0.0144 -0.1301
  970SOL    HW3 3925   0.074   0.840   1.981 -0.0738  0.0624  0.0865
  970SOL    MW4 3926   0.002   0.882   2.002 -0.1154  0.0918 -0.1116
  971SOL     OW 3927   4.486   1.110   1.851  0.2317  0.1561  0.2555
  971SOL    HW2 3928   4.425   1.172   1.891 -1.3623 -1.2018 -0.0470
  971SOL    HW3 3929   4.492   1.039   1.914  1.6331  0.3325  0.3439
  971SOL    MW4 3930   4.479   1.109   1.865  0.2060  0.0002  0.2272
  972SOL     OW 3931   0.197   1.235   1.990  0.0419 -0.8279  0.3597
  972SOL    HW2 3932   0.220   1.320   1.952 -0.4017 -0.3410  1.1721
  972SOL    HW3 3933   0.131   1.199   1.930  0.6250 -0.8404 -0.2775
  972SOL    MW4 3934   0.191   1.241   1.977  0.0603 -0.7653  0.3829
  973SOL     OW 3935   0.238   1.481   1.883  0.1565 -0.1943 -0.1478
  973SOL    HW2 3936   0.326   1.515   1.901  0.1031 -0.1789  0.0853
  973SOL    HW3 3937   0.180   1.538   1.933  0.0740 -0.7033  0.3429
  973SOL    MW4 3938   0.242   1.493   1.892  0.1386 -0.2594 -0.0523
  974SOL     OW 3939   0.045   1.654   2.011  0.1407 -0.2374  0.1210
  974SOL    HW2 3940   0.027   1.659   2.105  0.5788  1.3409  0.1370
  974SOL    HW3 3941  -0.036   1.621   1.973 -1.0250  1.7729  0.7665
  974SOL    MW4 3942   0.032   1.650   2.018  0.0446  0.2360  0.2084
  975SOL     OW 3943   0.032   1.886   1.897 -0.0785 -0.0455  0.1433
  975SOL    HW2 3944  -0.057   1.916   1.916  0.0327 -0.1958  0.9487
  975SOL    HW3 3945   0.038   1.801   1.941  0.3387 -0.2167 -0.2359
  975SOL    MW4 3946   0.021   1.879   1.905 -0.0086 -0.0880  0.1996
  976SOL     OW 3947   0.252   2.019   1.990 -0.1120  0.2267 -0.1785
  976SOL    HW2 3948   0.244   2.107   1.952  1.5639 -0.7912 -2.9885
  976SOL    HW3 3949   0.168   1.978   1.973 -0.5845  0.9548  0.3487
  976SOL    MW4 3950   0.240   2.025   1.983  0.0468  0.1884 -0.4797
  977SOL     OW 3951   0.233   2.273   1.902 -0.2383 -0.3514  0.1968
  977SOL    HW2 3952   0.284   2.342   1.945 -1.3248  0.2485  0.5534
  977SOL    HW3 3953   0.144   2.309   1.897 -0.3059 -0.7335 -1.8181
  977SOL    MW4 3954   0.228   2.287   1.907 -0.3906 -0.3226 -0.0219
  978SOL     OW 3955   4.480   2.396   1.942 -0.4389 -0.0903 -0.2510
  978SOL    HW2 3956   4.457   2.394   2.036 -0.6605 -0.4787 -0.3101
  978SOL    HW3 3957   4.496   2.488   1.923 -1.2986  0.1116 -0.0382
  978SOL    MW4 3958   4.479   2.408   1.952 -0.5816 -0.1152 -0.2306
  979SOL     OW 3959   0.002   2.666   1.897 -0.1981  0.3609 -0.0124
  979SOL    HW2 3960  -0.080   2.715   1.910  0.2301  0.7485  1.3505
  979SOL    HW3 3961   0.011   2.659   1.802 -0.8237  2.0003 -0.2093
  979SOL    MW4 3962  -0.008   2.672   1.886 -0.2242  0.6282  0.1415
  980SOL     OW 3963   0.201   2.820   2.027  0.5879 -0.3846 -0.4330
  980SOL    HW2 3964   0.207   2.910   1.996  0.0704  0.2375  1.2385
  980SOL    HW3 3965   0.127   2.783   1.978 -0.1438  0.5475 -0.0476
  980SOL    MW4 3966   0.192   2.827   2.016  0.4231 -0.1795 -0.1616
  981SOL     OW 3967   0.218   3.088   1.915 -0.2777 -0.2132 -0.0725
  981SOL    HW2 3968   0.296   3.133   1.946 -1.2214  0.6435  1.0785
  981SOL    HW3 3969   0.228   3.087   1.819  1.7429 -1.2513  0.1319
  981SOL    MW4 3970   0.230   3.094   1.906 -0.1356 -0.2372  0.1063
  982SOL     OW 3971   4.482   3.238   2.007 -0.0799  0.6067 -0.4532
  982SOL    HW2 3972   4.403   3.205   1.966  0.7898  0.2760 -1.8916
  982SOL    HW3 3973   4.552   3.183   1.973  0.4976 -0.6683  2.6533
  982SOL    MW4 3974   4.481   3.227   1.997  0.1110  0.3948 -0.2332
  983SOL     OW 3975   0.023   3.473   1.864 -0.0058 -0.4476  0.0176
  983SOL    HW2 3976   0.101   3.521   1.894  0.1550 -0.6425 -0.0942
  983SOL    HW3 3977   0.020   3.395   1.920  0.6364 -1.1205 -0.8831
  983SOL    MW4 3978   0.033   3.469   1.876  0.1002 -0.5622 -0.1160
  984SOL     OW 3979   0.227   3.618   1.979 -0.0004 -0.6255 -0.2812
  984SOL    HW2 3980   0.207   3.607   2.072  0.4366  0.5630 -0.0451
  984SOL    HW3 3981   0.309   3.569   1.967  0.3854 -0.0924  0.1427
  984SOL    MW4 3982   0.235   3.610   1.990  0.1082 -0.3982 -0.1942
  985SOL     OW 3983   0.197   3.874   1.882  0.0551 -0.0071  0.1511
  985SOL    HW2 3984   0.268   3.926   1.919 -0.1543 -0.4271  1.1746
  985SOL    HW3 3985   0.208   3.787   1.922 -0.2972 -0.4087 -0.6260
  985SOL    MW4 3986   0.208   3.869   1.892 -0.0190 -0.1152  0.1837
  986SOL     OW 3987   4.482   4.008   1.989  0.0027 -0.6784  0.2888
  986SOL    HW2 3988   4.488   4.088   1.938  0.3461 -0.1659  1.1222
  986SOL    HW3 3989   4.558   3.957   1.962  0.3606 -0.2702  0.5223
  986SOL    MW4 3990   4.493   4.012   1.979  0.0954 -0.5569  0.4294
  987SOL     OW 3991   0.022   4.271   1.868  0.1770  0.6411 -0.2851
  987SOL    HW2 3992  -0.058   4.307   1.905 -0.4542 -1.1047  0.0733
  987SOL    HW3 3993   0.092   4.304   1.924 -0.2093  2.5456 -0.8651
  987SOL    MW4 3994   0.021   4.280   1.880  0.0427  0.6618 -0.3144
  988SOL     OW 3995   0.257   4.376   1.998  0.0675 -0.0019  0.1496
  988SOL    HW2 3996   0.252   4.367   2.093  0.3631 -0.8432  0.0887
  988SOL    HW3 3997   0.244   4.470   1.982 -1.6515 -0.0973  0.8928
  988SOL    MW4 3998   0.255   4.388   2.009 -0.1203 -0.1249  0.2396
  989SOL     OW 3999   0.638   4.641   1.889  0.0213 -0.4718  0.2110
  989SOL    HW2 4000   0.680   4.559   1.917  0.5356 -0.5537 -0.7779
  989SOL    HW3 4001   0.618   4.628   1.796 -1.3156 -0.0562  0.4256
  989SOL    MW4 4002   0.641   4.628   1.880 -0.0872 -0.4272  0.1086
  990SOL     OW 4003   0.411   0.121   2.003 -0.1243  0.5433 -0.0995
  990SOL    HW2 4004   0.422   0.210   1.970 -2.1379  0.0111 -2.3645
  990SOL    HW3 4005   0.487   0.073   1.970 -0.0400  0.9684 -0.5276
  990SOL    MW4 4006   0.422   0.127   1.995 -0.3788  0.5292 -0.4549
  991SOL     OW 4007   0.410   0.379   1.889 -0.1173 -0.5080 -0.8581
  991SOL    HW2 4008   0.487   0.412   1.935 -0.4333 -0.0761 -0.6276
  991SOL    HW3 4009   0.434   0.383   1.796  0.5616 -1.4845 -0.7328
  991SOL    MW4 4010   0.423   0.384   1.883 -0.0694 -0.5799 -0.8111
  992SOL     OW 4011   0.629   0.491   1.988 -0.7158  0.0597 -0.0209
  992SOL    HW2 4012   0.646   0.497   2.082 -0.6103 -0.8925  0.0221
  992SOL    HW3 4013   0.703   0.440   1.954  1.1646  3.4171 -1.1590
  992SOL    MW4 4014   0.641   0.485   1.996 -0.4537  0.3770 -0.1653
  993SOL     OW 4015   0.679   0.743   1.874 -0.2563 -0.0059 -0.0494
  993SOL    HW2 4016   0.744   0.793   1.923 -0.6807  0.4943  0.0085
  993SOL    HW3 4017   0.692   0.653   1.903  1.1228 -0.0618 -0.8390
  993SOL    MW4 4018   0.689   0.738   1.885 -0.1303  0.0528 -0.1459
  994SOL     OW 4019   0.457   0.851   1.972 -0.1314 -0.1708 -0.4084
  994SOL    HW2 4020   0.457   0.941   1.940  0.5320  0.6114  1.6596
  994SOL    HW3 4021   0.536   0.812   1.935 -0.6152 -0.0075 -1.6102
  994SOL    MW4 4022   0.467   0.858   1.963 -0.1077 -0.0460 -0.2943
  995SOL     OW 4023   0.436   1.118   1.897  0.1017 -0.3677  0.4233
  995SOL    HW2 4024   0.357   1.165   1.925  0.0535 -0.7868  0.9887
  995SOL    HW3 4025   0.444   1.140   1.804  0.5007  1.3501  0.8456
  995SOL    MW4 4026   0.426   1.127   1.888  0.1480 -0.1963  0.5537
  996SOL     OW 4027   0.670   1.270   1.957  0.3356 -0.3619 -0.4040
  996SOL    HW2 4028   0.660   1.282   2.051 -0.6323  1.6129 -0.7251
  996SOL    HW3 4029   0.593   1.220   1.931 -0.3346  0.6609 -0.4088
  996SOL    MW4 4030   0.659   1.265   1.966  0.1195  0.0335 -0.4472
  997SOL     OW 4031   0.753   1.531   1.890  0.2072  0.1966  0.0300
  997SOL    HW2 4032   0.728   1.440   1.907 -0.0103 -0.0235 -1.3472
  997SOL    HW3 4033   0.750   1.538   1.794  0.3453  1.6178  0.1255
  997SOL    MW4 4034   0.749   1.520   1.879  0.1968  0.3550 -0.1392
  998SOL     OW 4035   0.483   1.612   1.974 -0.0659 -0.2028  0.1860
  998SOL    HW2 4036   0.464   1.644   2.062  1.2128 -0.0115  0.3958
  998SOL    HW3 4037   0.572   1.579   1.978  0.2676  0.4592 -1.2202
  998SOL    MW4 4038   0.492   1.612   1.986  0.1468 -0.0902  0.0281
  999SOL     OW 4039   0.456   1.857   1.870 -0.1113  0.0304 -0.1893
  999SOL    HW2 4040   0.469   1.769   1.905 -0.5651 -0.1929 -0.5780
  999SOL    HW3 4041   0.374   1.886   1.911 -0.1683  0.1151 -0.3628
  999SOL    MW4 4042   0.447   1.849   1.880 -0.1787  0.0122 -0.2635
 1000SOL     OW 4043   0.634   2.048   1.961  0.1955 -0.2287  0.2093
 1000SOL    HW2 4044   0.638   2.036   2.055 -0.1102 -0.2853  0.2175
 1000SOL    HW3 4045   0.583   1.972   1.929 -0.3759  0.1998  0.0866
 1000SOL    MW4 4046   0.628   2.036   1.969  0.0798 -0.1795  0.1943
 1001SOL     OW 4047   0.643   2.301   1.861 -0.0310  0.2792 -0.5093
 1001SOL    HW2 4048   0.632   2.210   1.887  0.9176  0.1882 -0.4091
 1001SOL    HW3 4049   0.642   2.299   1.765 -0.7797  0.2641 -0.5028
 1001SOL    MW4 4050   0.642   2.289   1.851 -0.0046  0.2649 -0.4952
 1002SOL     OW 4051   0.415   2.453   1.995  0.0800  0.3896 -0.5417
 1002SOL    HW2 4052   0.407   2.470   2.089  1.3200  1.9052 -0.6906
 1002SOL    HW3 4053   0.501   2.414   1.984  1.2338  3.0675 -1.3919
 1002SOL    MW4 4054   0.425   2.450   2.006  0.3958  0.9429 -0.6733
 1003SOL     OW 4055   0.445   2.719   1.914 -0.0701 -0.0483 -0.4148
 1003SOL    HW2 4056   0.441   2.626   1.938 -0.1751 -0.1128 -0.6900
 1003SOL    HW3 4057   0.371   2.758   1.961 -0.4222 -0.2189 -0.8271
 1003SOL    MW4 4058   0.435   2.712   1.924 -0.1304 -0.0792 -0.5056
 1004SOL     OW 4059   0.690   2.830   1.983  0.0480  0.3120 -0.5833
 1004SOL    HW2 4060   0.688   2.828   2.079  0.6134  0.3478 -0.5683
 1004SOL    HW3 4061   0.609   2.788   1.956 -1.0910  2.1367 -0.0679
 1004SOL    MW4 4062   0.679   2.824   1.992 -0.0277  0.5574 -0.5133
 1005SOL     OW 4063   0.663   3.086   1.893  0.2581 -0.0689  0.5928
 1005SOL    HW2 4064   0.664   2.999   1.933  0.7200 -1.0464 -1.4601
 1005SOL    HW3 4065   0.684   3.070   1.801 -0.1306  2.1731  0.0843
 1005SOL    MW4 4066   0.666   3.072   1.886  0.2678  0.0980  0.2549
 1006SOL     OW 4067   0.436   3.212   2.000 -0.1380  0.4243 -0.2075
 1006SOL    HW2 4068   0.417   3.300   1.967  0.0345  1.0726  1.3396
 1006SOL    HW3 4069   0.514   3.184   1.952 -0.5068  0.9050 -1.0887
 1006SOL    MW4 4070   0.444   3.220   1.989 -0.1639  0.5734 -0.1197
 1007SOL     OW 4071   0.444   3.464   1.891  0.1527 -0.0159  0.0488
 1007SOL    HW2 4072   0.522   3.503   1.930  1.0994 -1.5574 -0.2247
 1007SOL    HW3 4073   0.452   3.482   1.798  0.1518 -0.1204  0.0283
 1007SOL    MW4 4074   0.455   3.471   1.884  0.2775 -0.2332  0.0100
 1008SOL     OW 4075   0.662   3.639   1.983 -0.2628 -0.3050  0.3750
 1008SOL    HW2 4076   0.738   3.593   1.949  0.1272 -0.6229  1.6455
 1008SOL    HW3 4077   0.660   3.721   1.935  0.0645 -0.8965 -0.6576
 1008SOL    MW4 4078   0.672   3.644   1.973 -0.1681 -0.4251  0.4064
 1009SOL     OW 4079   0.665   3.885   1.861 -0.5833  0.3208  0.2903
 1009SOL    HW2 4080   0.741   3.931   1.897 -0.1870 -0.1396  0.0599
 1009SOL    HW3 4081   0.679   3.887   1.766 -0.6445 -0.1216  0.2680
 1009SOL    MW4 4082   0.677   3.891   1.853 -0.5392  0.2017  0.2569
 1010SOL     OW 4083   0.422   4.005   1.984  0.0442 -0.0235  0.3659
 1010SOL    HW2 4084   0.422   4.097   1.958  0.9259 -0.1152  0.0335
 1010SOL    HW3 4085   0.503   3.970   1.946 -0.9638 -1.2559 -0.6872
 1010SOL    MW4 4086   0.433   4.013   1.975  0.0275 -0.1979  0.1831
 1011SOL     OW 4087   0.489   4.290   1.873 -0.0844 -0.2409 -0.1963
 1011SOL    HW2 4088   0.412   4.335   1.907  0.0950  0.7432 -1.0847
 1011SOL    HW3 4089   0.467   4.272   1.781 -0.3191 -2.3322  0.2240
 1011SOL    MW4 4090   0.476   4.293   1.865 -0.0917 -0.3867 -0.2581
 1012SOL     OW 4091   0.711   4.396   2.007 -0.2178  0.1877  0.2895
 1012SOL    HW2 4092   0.795   4.368   1.972 -0.5746 -1.0230  0.3670
 1012SOL    HW3 4093   0.646   4.359   1.947 -0.7919 -1.0115  1.6253
 1012SOL    MW4 4094   0.713   4.388   1.995 -0.3406 -0.1307  0.4758
 1013SOL     OW 4095   1.081   4.644   1.897 -0.4335  0.4211 -0.2659
 1013SOL    HW2 4096   1.156   4.689   1.937 -0.2596 -0.7833  0.7920
 1013SOL    HW3 4097   1.105   4.552   1.898 -1.8942  0.0333  0.0076
 1013SOL    MW4 4098   1.094   4.638   1.902 -0.6033  0.2108 -0.0901
 1014SOL     OW 4099   0.852   0.111   2.024 -0.3710  0.0569 -0.0615
 1014SOL    HW2 4100   0.929   0.058   2.000  0.8839  1.5079  0.6879
 1014SOL    HW3 4101   0.778   0.063   1.986  0.9412 -1.1120 -1.2393
 1014SOL    MW4 4102   0.853   0.097   2.016 -0.0324  0.0941 -0.1180
 1015SOL     OW 4103   0.860   0.355   1.871 -0.3212 -0.1616 -0.1786
 1015SOL    HW2 4104   0.934   0.409   1.898 -1.4672  0.7826  1.1983
 1015SOL    HW3 4105   0.877   0.269   1.910  0.3028 -0.1036 -0.3184
 1015SOL    MW4 4106   0.872   0.351   1.880 -0.3901 -0.0294 -0.0153
 1016SOL     OW 4107   1.102   0.501   1.960 -0.0424  0.1183 -0.0672
 1016SOL    HW2 4108   1.177   0.462   1.915  0.7794  0.3308  1.1020
 1016SOL    HW3 4109   1.105   0.594   1.936  0.4573  0.2516  0.5189
 1016SOL    MW4 4110   1.112   0.508   1.951  0.1321  0.1639  0.1643
 1017SOL     OW 4111   1.103   0.757   1.873  0.1254 -0.3799  0.1970
 1017SOL    HW2 4112   1.171   0.807   1.918  0.2155 -1.4026  1.2333
 1017SOL    HW3 4113   1.021   0.790   1.909  0.2107 -1.4554  1.4187
 1017SOL    MW4 4114   1.101   0.768   1.884  0.1484 -0.6567  0.4950
 1018SOL     OW 4115   0.887   0.876   1.999 -0.5734 -0.2416  0.2064
 1018SOL    HW2 4116   0.915   0.882   2.090 -0.1464 -1.1291  0.1306
 1018SOL    HW3 4117   0.892   0.967   1.967 -0.8818  0.0985  1.1002
 1018SOL    MW4 4118   0.891   0.889   2.007 -0.5579 -0.3138  0.3142
 1019SOL     OW 4119   0.903   1.133   1.910  0.3217  0.1421  0.2110
 1019SOL    HW2 4120   0.817   1.169   1.930 -0.3717 -1.6118  0.4665
 1019SOL    HW3 4121   0.919   1.158   1.819 -0.3279  0.7122  0.2506
 1019SOL    MW4 4122   0.894   1.141   1.901  0.1445 -0.0142  0.2500
 1020SOL     OW 4123   1.134   1.261   1.994 -0.3690 -0.5658  0.1453
 1020SOL    HW2 4124   1.112   1.345   1.954  1.3383  0.2347  0.8608
 1020SOL    HW3 4125   1.067   1.201   1.962 -2.1866  1.2736  0.3823
 1020SOL    MW4 4126   1.122   1.264   1.985 -0.3836 -0.2174  0.2710
 1021SOL     OW 4127   1.136   1.548   1.901  0.0416 -0.2225 -0.1233
 1021SOL    HW2 4128   1.068   1.609   1.929  0.0682 -0.1042 -0.3220
 1021SOL    HW3 4129   1.127   1.543   1.806 -1.2025 -1.9599  0.0497
 1021SOL    MW4 4130   1.125   1.555   1.892 -0.1191 -0.4362 -0.1268
 1022SOL     OW 4131   0.927   1.703   2.011 -0.0845  0.4140 -0.4114
 1022SOL    HW2 4132   0.923   1.787   1.965 -2.9499  0.4441 -0.1609
 1022SOL    HW3 4133   0.862   1.648   1.967 -0.3083 -0.7210  1.2939
 1022SOL    MW4 4134   0.918   1.707   1.999 -0.4921  0.2683 -0.1534
 1023SOL     OW 4135   0.891   1.942   1.871  0.0067 -0.0232  0.0300
 1023SOL    HW2 4136   0.818   1.992   1.908 -0.2761  0.4425 -1.1461
 1023SOL    HW3 4137   0.878   1.947   1.776  1.9941  0.6886 -0.2222
 1023SOL    MW4 4138   0.879   1.949   1.863  0.2317  0.1321 -0.1584
 1024SOL     OW 4139   1.135   2.052   1.988  0.1112 -0.0914  0.2394
 1024SOL    HW2 4140   1.142   2.131   1.934  0.3312  0.0173  0.4221
 1024SOL    HW3 4141   1.057   2.008   1.957  1.0095 -0.7487 -1.1308
 1024SOL    MW4 4142   1.126   2.057   1.977  0.2589 -0.1638  0.0829
 1025SOL     OW 4143   1.115   2.298   1.873 -0.5646 -0.0214  0.1423
 1025SOL    HW2 4144   1.197   2.336   1.906 -0.0177 -0.2174 -0.9776
 1025SOL    HW3 4145   1.118   2.312   1.779 -2.5323  1.3086  0.2647
 1025SOL    MW4 4146   1.127   2.305   1.865 -0.7520  0.1285  0.0105
 1026SOL     OW 4147   0.880   2.433   1.947  0.0556  0.0511 -0.2412
 1026SOL    HW2 4148   0.805   2.390   1.908 -0.8827  0.6068  0.9061
 1026SOL    HW3 4149   0.956   2.381   1.919 -0.7059 -0.2726 -1.7342
 1026SOL    MW4 4150   0.880   2.421   1.939 -0.1687  0.0818 -0.2867
 1027SOL     OW 4151   0.916   2.698   1.854  0.0951  0.2432  0.0027
 1027SOL    HW2 4152   0.902   2.605   1.868 -1.1736  0.2120 -1.2717
 1027SOL    HW3 4153   0.836   2.740   1.886  0.8493  0.9480  1.0057
 1027SOL    MW4 4154   0.903   2.691   1.860  0.0272  0.3321 -0.0330
 1028SOL     OW 4155   1.126   2.848   1.981  0.6026 -0.3267  0.6001
 1028SOL    HW2 4156   1.117   2.840   2.076  0.0840 -0.7197  0.5147
 1028SOL    HW3 4157   1.063   2.786   1.945  0.4986  0.1259 -0.0055
 1028SOL    MW4 4158   1.117   2.839   1.989  0.5203 -0.3188  0.5089
 1029SOL     OW 4159   1.141   3.101   1.856  0.0899  0.0786  0.0342
 1029SOL    HW2 4160   1.068   3.149   1.893 -0.0080  0.1665 -0.2724
 1029SOL    HW3 4161   1.142   3.017   1.903 -0.3938 -0.0456 -0.1714
 1029SOL    MW4 4162   1.132   3.096   1.867  0.0132  0.0737 -0.0335
 1030SOL     OW 4163   0.906   3.211   1.970  0.3363 -0.3068  0.0958
 1030SOL    HW2 4164   0.915   3.228   2.064  1.7285 -0.0570 -0.0709
 1030SOL    HW3 4165   0.837   3.144   1.964  0.0523 -0.1304  1.2714
 1030SOL    MW4 4166   0.898   3.204   1.982  0.4824 -0.2506  0.2290
 1031SOL     OW 4167   0.854   3.466   1.882  0.6512  0.6245 -0.2501
 1031SOL    HW2 4168   0.858   3.373   1.901  0.7749  0.6895  0.0489
 1031SOL    HW3 4169   0.865   3.472   1.787  0.5945  0.3322 -0.2738
 1031SOL    MW4 4170   0.856   3.455   1.872  0.6601  0.5944 -0.2139
 1032SOL     OW 4171   1.114   3.551   1.937  0.0017  0.2112  0.3414
 1032SOL    HW2 4172   1.114   3.562   2.032  1.5357 -0.5091  0.4381
 1032SOL    HW3 4173   1.027   3.516   1.916 -0.6770  1.2760  1.3635
 1032SOL    MW4 4174   1.103   3.548   1.946  0.1146  0.2568  0.4890
 1033SOL     OW 4175   1.095   3.841   1.870  0.2100 -0.4223 -0.2609
 1033SOL    HW2 4176   1.088   3.748   1.892 -1.5026 -0.3901 -0.6089
 1033SOL    HW3 4177   1.094   3.844   1.774  1.8709 -0.1548 -0.2766
 1033SOL    MW4 4178   1.094   3.829   1.860  0.2033 -0.3829 -0.3090
 1034SOL     OW 4179   0.891   4.012   1.950 -0.0382 -0.4360 -0.0457
 1034SOL    HW2 4180   0.892   4.022   2.045 -1.1140 -1.8262  0.1331
 1034SOL    HW3 4181   0.977   3.978   1.928  0.4139  0.4396  0.3655
 1034SOL    MW4 4182   0.902   4.009   1.960 -0.1205 -0.5040  0.0322
 1035SOL     OW 4183   0.889   4.277   1.844  0.2438  0.8033  0.1750
 1035SOL    HW2 4184   0.977   4.310   1.861  0.7082 -0.1884 -0.2378
 1035SOL    HW3 4185   0.891   4.187   1.877 -1.1483  1.3369  1.7679
 1035SOL    MW4 4186   0.901   4.269   1.850  0.1215  0.7424  0.3308
 1036SOL     OW 4187   1.152   4.392   1.933  0.1310 -0.3606  0.0583
 1036SOL    HW2 4188   1.152   4.386   2.028 -1.2165 -1.7905 -0.0279
 1036SOL    HW3 4189   1.235   4.352   1.906  0.1811 -0.6067  0.5805
 1036SOL    MW4 4190   1.163   4.386   1.942 -0.0402 -0.5817  0.1159
 1037SOL     OW 4191   1.545   0.015   1.894  0.1853  0.1232  0.5697
 1037SOL    HW2 4192   1.620   0.063   1.927 -0.2513 -0.0734  1.8635
 1037SOL    HW3 4193   1.559  -0.075   1.922 -0.1572 -0.0660  0.1501
 1037SOL    MW4 4194   1.557   0.009   1.902  0.0824  0.0725  0.6850
 1038SOL     OW 4195   1.304   0.124   1.986 -0.2823 -0.2063 -0.2330
 1038SOL    HW2 4196   1.306   0.118   2.082 -0.5051 -1.4555 -0.2976
 1038SOL    HW3 4197   1.380   0.073   1.958 -0.9294 -0.8653 -0.7704
 1038SOL    MW4 4198   1.314   0.117   1.995 -0.3968 -0.4581 -0.3124
 1039SOL     OW 4199   1.323   0.373   1.854 -0.0789  0.5889 -0.0925
 1039SOL    HW2 4200   1.321   0.285   1.891 -0.3363  0.6052 -0.0682
 1039SOL    HW3 4201   1.336   0.360   1.760  0.8740  0.5557  0.0377
 1039SOL    MW4 4202   1.325   0.360   1.847  0.0129  0.5866 -0.0721
 1040SOL     OW 4203   1.543   0.503   1.967 -0.4685  0.0778  0.2793
 1040SOL    HW2 4204   1.626   0.461   1.940 -0.5975  0.5906 -0.9444
 1040SOL    HW3 4205   1.475   0.450   1.925 -0.6780  0.8096 -0.3195
 1040SOL    MW4 4206   1.545   0.490   1.958 -0.5132  0.2420  0.0387
 1041SOL     OW 4207   1.560   0.771   1.841  0.0767  0.1573  0.4642
 1041SOL    HW2 4208   1.549   0.689   1.890  0.7484 -0.9043 -1.0788
 1041SOL    HW3 4209   1.642   0.807   1.874  1.4671 -1.4631 -1.0353
 1041SOL    MW4 4210   1.570   0.765   1.852  0.3488 -0.1966  0.0628
 1042SOL     OW 4211   1.325   0.902   1.964  0.4780 -0.1023 -0.0850
 1042SOL    HW2 4212   1.340   0.896   2.058  1.9377  2.6337 -0.0885
 1042SOL    HW3 4213   1.397   0.852   1.925  0.7129 -0.0075  0.2268
 1042SOL    MW4 4214   1.336   0.895   1.971  0.7017  0.2711 -0.0443
 1043SOL     OW 4215   1.332   1.146   1.830 -0.2202  0.5434 -0.0036
 1043SOL    HW2 4216   1.327   1.062   1.877 -0.5469  0.2572 -0.5397
 1043SOL    HW3 4217   1.268   1.202   1.875 -1.1860 -0.0137 -0.6580
 1043SOL    MW4 4218   1.323   1.142   1.842 -0.3906  0.4321 -0.1607
 1044SOL     OW 4219   1.575   1.257   1.913  0.1309 -0.4578 -0.3067
 1044SOL    HW2 4220   1.579   1.351   1.901  0.6181 -0.3242  0.8728
 1044SOL    HW3 4221   1.494   1.231   1.869 -0.8386  0.7253  0.7532
 1044SOL    MW4 4222   1.565   1.266   1.905  0.0672 -0.2841 -0.0112
 1045SOL     OW 4223   1.577   1.532   1.896  0.2994  0.5072 -0.3094
 1045SOL    HW2 4224   1.656   1.577   1.926  0.1929 -0.8702  2.1839
 1045SOL    HW3 4225   1.505   1.577   1.941 -0.0181 -0.4834  0.1921
 1045SOL    MW4 4226   1.578   1.544   1.906  0.2435  0.1948  0.0856
 1046SOL     OW 4227   1.361   1.649   2.039  0.0378 -0.5932  0.1898
 1046SOL    HW2 4228   1.359   1.646   2.135 -1.5941 -0.9809  0.1549
 1046SOL    HW3 4229   1.281   1.606   2.012  0.6275 -0.7438 -1.3759
 1046SOL    MW4 4230   1.350   1.643   2.048 -0.0997 -0.6641 -0.0212
 1047SOL     OW 4231   1.329   1.893   1.892 -0.1281  0.0520 -0.3900
 1047SOL    HW2 4232   1.331   1.819   1.953 -1.7629 -0.7214 -1.2386
 1047SOL    HW3 4233   1.265   1.954   1.930  0.6978  0.7103 -0.0529
 1047SOL    MW4 4234   1.320   1.891   1.905 -0.2348  0.0368 -0.4574
 1048SOL     OW 4235   1.563   2.011   1.981 -0.1591  0.2192  0.1814
 1048SOL    HW2 4236   1.565   2.091   1.929 -1.0412  1.0526  1.4133
 1048SOL    HW3 4237   1.478   1.972   1.962 -0.1533  0.1089  0.3804
 1048SOL    MW4 4238   1.552   2.017   1.971 -0.2747  0.3145  0.3701
 1049SOL     OW 4239   1.603   2.278   1.872  0.0352  0.1627 -0.5712
 1049SOL    HW2 4240   1.667   2.340   1.907 -0.8633  0.6665  0.2040
 1049SOL    HW3 4241   1.598   2.298   1.779  0.8151  0.2924 -0.5844
 1049SOL    MW4 4242   1.611   2.289   1.865  0.0197  0.2463 -0.4705
 1050SOL     OW 4243   1.362   2.393   1.958 -0.3764  0.1928 -0.6616
 1050SOL    HW2 4244   1.369   2.485   1.933 -0.1196  0.8500  1.6302
 1050SOL    HW3 4245   1.439   2.351   1.918 -0.2165  1.0856 -1.2923
 1050SOL    MW4 4246   1.373   2.399   1.950 -0.3214  0.3972 -0.4424
 1051SOL     OW 4247   1.359   2.683   1.896 -0.0433 -0.3038  0.6048
 1051SOL    HW2 4248   1.280   2.726   1.931  0.2328 -0.3230  1.2650
 1051SOL    HW3 4249   1.351   2.693   1.801  0.5205  2.1065  0.7649
 1051SOL    MW4 4250   1.347   2.690   1.888  0.0674  0.0122  0.7130
 1052SOL     OW 4251   1.581   2.837   1.998  0.2096 -0.5052  0.2546
 1052SOL    HW2 4252   1.655   2.784   1.970  0.2012 -0.4042  0.0453
 1052SOL    HW3 4253   1.504   2.789   1.970  0.2162  0.2293 -1.0442
 1052SOL    MW4 4254   1.581   2.824   1.991  0.2093 -0.3951  0.0557
 1053SOL     OW 4255   1.574   3.086   1.874  0.3959  0.5490  0.3140
 1053SOL    HW2 4256   1.571   2.998   1.912  0.7754  1.2290  1.9776
 1053SOL    HW3 4257   1.570   3.072   1.780  0.2606 -1.2445  0.5730
 1053SOL    MW4 4258   1.573   3.072   1.867  0.4282  0.4020  0.5678
 1054SOL     OW 4259   1.361   3.215   1.981 -0.4633  0.1997 -0.1511
 1054SOL    HW2 4260   1.434   3.161   1.949 -1.0589 -0.3447 -0.6014
 1054SOL    HW3 4261   1.284   3.179   1.937 -1.0552  0.5246  0.6221
 1054SOL    MW4 4262   1.360   3.203   1.971 -0.6200  0.1709 -0.1085
 1055SOL     OW 4263   1.364   3.457   1.838 -0.2069 -0.0162 -0.1209
 1055SOL    HW2 4264   1.362   3.374   1.885  1.3693 -0.7586 -1.3554
 1055SOL    HW3 4265   1.281   3.500   1.862  0.5239 -0.4016  3.2355
 1055SOL    MW4 4266   1.353   3.452   1.847  0.0975 -0.1647  0.1590
 1056SOL     OW 4267   1.577   3.625   1.886 -0.1035  0.1005 -0.2234
 1056SOL    HW2 4268   1.573   3.617   1.981 -0.2203  0.0104 -0.2363
 1056SOL    HW3 4269   1.499   3.579   1.854 -1.9380  3.0609 -0.1902
 1056SOL    MW4 4270   1.567   3.618   1.894 -0.3610  0.4795 -0.2207
 1057SOL     OW 4271   1.551   3.896   1.839  0.4045  0.2987  0.1849
 1057SOL    HW2 4272   1.624   3.934   1.888  0.0887  0.5957  0.4290
 1057SOL    HW3 4273   1.556   3.802   1.856  0.1386  0.4274  1.0012
 1057SOL    MW4 4274   1.561   3.889   1.848  0.3277  0.3548  0.3247
 1058SOL     OW 4275   1.320   4.001   1.940  0.0351  0.1554 -0.2000
 1058SOL    HW2 4276   1.390   3.966   1.884  0.7550 -1.7912  1.8214
 1058SOL    HW3 4277   1.249   3.938   1.930 -0.0349  0.0995  0.6404
 1058SOL    MW4 4278   1.320   3.988   1.931  0.1209 -0.1087  0.1776
 1059SOL     OW 4279   1.386   4.263   1.886  0.0433  0.0579 -0.5069
 1059SOL    HW2 4280   1.347   4.181   1.914 -1.4355  1.0824  0.5117
 1059SOL    HW3 4281   1.387   4.259   1.790 -0.6580 -0.8447 -0.4724
 1059SOL    MW4 4282   1.381   4.252   1.877 -0.2444  0.0739 -0.3679
 1060SOL     OW 4283   1.578   4.427   1.982  0.0471  0.4909  0.0285
 1060SOL    HW2 4284   1.568   4.435   2.077 -1.7069  0.9428 -0.1792
 1060SOL    HW3 4285   1.507   4.369   1.955  2.1375 -1.8273 -0.6973
 1060SOL    MW4 4286   1.567   4.420   1.991  0.0914  0.2441 -0.0947
 1061SOL     OW 4287   2.002   0.039   1.841 -0.1637 -0.2139 -0.4636
 1061SOL    HW2 4288   2.077   0.096   1.858 -0.3500  0.0132 -0.4046
 1061SOL    HW3 4289   2.026  -0.045   1.879 -0.0394 -0.0729 -0.2301
 1061SOL    MW4 4290   2.015   0.035   1.848 -0.1719 -0.1654 -0.4250
 1062SOL     OW 4291   1.788   0.143   1.964  0.0439  0.3215 -0.1116
 1062SOL    HW2 4292   1.805   0.146   2.059  1.1861  1.1636 -0.3277
 1062SOL    HW3 4293   1.861   0.093   1.928 -0.2876  0.1695 -0.5774
 1062SOL    MW4 4294   1.800   0.137   1.972  0.1508  0.4125 -0.2016
 1063SOL     OW 4295   1.784   0.401   1.874 -0.2179  0.1531 -0.2320
 1063SOL    HW2 4296   1.790   0.309   1.898 -1.5790  0.1512  0.1430
 1063SOL    HW3 4297   1.781   0.401   1.778  1.7861 -0.0558 -0.3083
 1063SOL    MW4 4298   1.784   0.389   1.864 -0.1332  0.1253 -0.1925
 1064SOL     OW 4299   2.045   0.505   1.982 -0.4457 -0.0486  0.2151
 1064SOL    HW2 4300   2.029   0.500   2.077  0.7060 -0.0281  0.4161
 1064SOL    HW3 4301   1.967   0.466   1.943 -2.4099  2.9042  1.0596
 1064SOL    MW4 4302   2.033   0.499   1.990 -0.5527  0.3437  0.3530
 1065SOL     OW 4303   2.004   0.751   1.850 -0.2121 -0.3629  0.3536
 1065SOL    HW2 4304   2.091   0.778   1.878  0.2822 -0.4046 -1.1057
 1065SOL    HW3 4305   1.992   0.664   1.889  0.5179 -0.4895  0.2958
 1065SOL    MW4 4306   2.014   0.743   1.859 -0.0508 -0.3851  0.1535
 1066SOL     OW 4307   1.788   0.898   1.943  0.0591  0.6567  0.6740
 1066SOL    HW2 4308   1.792   0.984   1.900  0.4840  0.3108  0.0228
 1066SOL    HW3 4309   1.867   0.853   1.914 -0.3363 -0.0825  0.7507
 1066SOL    MW4 4310   1.799   0.904   1.934  0.0628  0.5135  0.5982
 1067SOL     OW 4311   1.822   1.161   1.837  0.2751  0.0256  0.3241
 1067SOL    HW2 4312   1.737   1.197   1.862 -0.9807 -2.5543 -0.1309
 1067SOL    HW3 4313   1.814   1.144   1.743  1.3243 -0.1581  0.2594
 1067SOL    MW4 4314   1.809   1.164   1.828  0.2478 -0.3392  0.2555
 1068SOL     OW 4315   2.024   1.302   1.957  0.3425  0.1645  0.3825
 1068SOL    HW2 4316   2.089   1.247   1.914  0.6778 -0.1235  1.2524
 1068SOL    HW3 4317   1.940   1.261   1.936  0.5550 -0.3903  0.5958
 1068SOL    MW4 4318   2.021   1.289   1.949  0.4148  0.0534  0.5252
 1069SOL     OW 4319   2.044   1.563   1.881 -0.2506  0.0255  0.5720
 1069SOL    HW2 4320   2.047   1.471   1.908  1.8122 -0.3821 -0.8974
 1069SOL    HW3 4321   2.010   1.560   1.792  1.4724  0.4964 -0.1236
 1069SOL    MW4 4322   2.040   1.550   1.873  0.2487  0.0339  0.2865
 1070SOL     OW 4323   1.815   1.640   2.010 -0.1396 -0.2295  0.0448
 1070SOL    HW2 4324   1.805   1.721   1.960 -0.2939 -0.3884 -0.1800
 1070SOL    HW3 4325   1.893   1.599   1.973  1.0758  0.7487  1.4420
 1070SOL    MW4 4326   1.824   1.646   1.998  0.0005 -0.1214  0.1996
 1071SOL     OW 4327   1.779   1.872   1.871  0.3902  0.3809  0.2378
 1071SOL    HW2 4328   1.692   1.897   1.901 -1.0496 -2.3222 -1.4125
 1071SOL    HW3 4329   1.786   1.910   1.783  1.2723  1.3504  0.7120
 1071SOL    MW4 4330   1.769   1.880   1.863  0.3165  0.1522  0.0826
 1072SOL     OW 4331   2.010   2.044   1.975  0.0577  0.0099  0.2549
 1072SOL    HW2 4332   2.095   2.001   1.961  1.5463  3.0717 -0.6288
 1072SOL    HW3 4333   1.946   1.982   1.940  2.1142 -1.4259 -1.1243
 1072SOL    MW4 4334   2.013   2.030   1.969  0.5257  0.2248 -0.0437
 1073SOL     OW 4335   2.055   2.307   1.885 -0.0682  0.2754 -0.0364
 1073SOL    HW2 4336   2.135   2.343   1.924 -0.6084  0.4318  0.9509
 1073SOL    HW3 4337   2.051   2.217   1.919 -0.5567  0.4219  0.3036
 1073SOL    MW4 4338   2.065   2.300   1.895 -0.2038  0.3152  0.1388
 1074SOL     OW 4339   1.811   2.429   1.956  0.7514 -0.0224 -0.0635
 1074SOL    HW2 4340   1.824   2.432   2.050 -1.6405 -0.5322  0.3107
 1074SOL    HW3 4341   1.886   2.380   1.922  1.7393  0.3744  1.5335
 1074SOL    MW4 4342   1.823   2.423   1.964  0.5662 -0.0372  0.1966
 1075SOL     OW 4343   1.797   2.706   1.918  0.2323 -1.0359 -0.0307
 1075SOL    HW2 4344   1.795   2.612   1.937 -1.3026 -0.8987  0.5467
 1075SOL    HW3 4345   1.794   2.711   1.822 -0.5396 -1.5689 -0.0369
 1075SOL    MW4 4346   1.796   2.694   1.908 -0.0719 -1.0881  0.0446
 1076SOL     OW 4347   2.012   2.861   2.008 -0.1880  0.2365  0.3588
 1076SOL    HW2 4348   2.009   2.865   2.104 -0.2877  1.2397  0.3234
 1076SOL    HW3 4349   1.938   2.805   1.984  1.6981 -2.6401  0.9898
 1076SOL    MW4 4350   2.002   2.854   2.018  0.0477 -0.0105  0.4373
 1077SOL     OW 4351   2.040   3.090   1.875  0.2809 -0.1788  0.1007
 1077SOL    HW2 4352   1.957   3.132   1.895  0.4187 -0.8298  2.1172
 1077SOL    HW3 4353   2.038   3.007   1.922  2.0959 -0.1659  0.2633
 1077SOL    MW4 4354   2.029   3.084   1.883  0.5386 -0.2627  0.3883
 1078SOL     OW 4355   1.812   3.220   1.961  0.0111  0.3126  0.5018
 1078SOL    HW2 4356   1.814   3.225   2.056 -1.5987  0.6910  0.5250
 1078SOL    HW3 4357   1.741   3.159   1.941 -1.0536  1.8505 -0.4951
 1078SOL    MW4 4358   1.803   3.212   1.971 -0.3418  0.5653  0.3734
 1079SOL     OW 4359   1.808   3.477   1.867  0.2099 -0.2198 -0.3485
 1079SOL    HW2 4360   1.803   3.390   1.906  0.2524 -0.6615 -1.3268
 1079SOL    HW3 4361   1.731   3.523   1.901 -0.0427 -0.7785 -0.1727
 1079SOL    MW4 4362   1.797   3.472   1.877  0.1822 -0.3519 -0.4543
 1080SOL     OW 4363   2.021   3.629   1.939 -0.2563  0.0068  0.4542
 1080SOL    HW2 4364   2.004   3.718   1.909  3.1873  0.1388 -1.4074
 1080SOL    HW3 4365   1.955   3.576   1.895  0.7982  1.0331 -2.5379
 1080SOL    MW4 4366   2.010   3.634   1.929  0.3369  0.1595 -0.1862
 1081SOL     OW 4367   1.992   3.886   1.871 -0.2810  0.0797  0.1347
 1081SOL    HW2 4368   2.073   3.932   1.894 -0.0073 -0.7823  0.9117
 1081SOL    HW3 4369   1.986   3.897   1.776  0.3614  0.7726  0.1618
 1081SOL    MW4 4370   2.002   3.894   1.861 -0.1602  0.0577  0.2408
 1082SOL     OW 4371   1.770   4.008   1.970 -0.3198 -0.2001 -0.1315
 1082SOL    HW2 4372   1.775   4.098   1.940  1.9860 -0.0415  0.5720
 1082SOL    HW3 4373   1.845   3.965   1.929 -0.9461 -1.5920  0.1527
 1082SOL    MW4 4374   1.781   4.014   1.961 -0.0981 -0.3629 -0.0013
 1083SOL     OW 4375   1.781   4.282   1.889  0.0139 -0.1313 -0.2456
 1083SOL    HW2 4376   1.708   4.337   1.918  0.1502  0.1877 -0.4976
 1083SOL    HW3 4377   1.773   4.280   1.794 -0.4481 -1.1971 -0.1897
 1083SOL    MW4 4378   1.770   4.289   1.881 -0.0292 -0.2298 -0.2714
 1084SOL     OW 4379   2.016   4.439   1.933 -0.5581 -0.2256 -0.5588
 1084SOL    HW2 4380   2.088   4.380   1.914  0.7534  1.3414 -0.6008
 1084SOL    HW3 4381   1.937   4.389   1.911  0.5415 -1.6862 -1.2532
 1084SOL    MW4 4382   2.015   4.425   1.927 -0.2401 -0.2108 -0.6560
 1085SOL     OW 4383   2.466   0.011   1.854  0.0964  0.0280  0.5849
 1085SOL    HW2 4384   2.546   0.039   1.898  0.1013 -0.6886  1.0499
 1085SOL    HW3 4385   2.468  -0.085   1.860 -0.8203  0.0087  0.6434
 1085SOL    MW4 4386   2.477   0.002   1.861 -0.0241 -0.0696  0.6541
 1086SOL     OW 4387   2.230   0.138   1.946 -0.1002  0.6882  0.0405
 1086SOL    HW2 4388   2.235   0.139   2.042 -0.8755 -1.0492  0.1220
 1086SOL    HW3 4389   2.305   0.084   1.919 -0.7882 -0.1504 -0.2315
 1086SOL    MW4 4390   2.241   0.131   1.955 -0.2933  0.3483  0.0155
 1087SOL     OW 4391   2.260   0.390   1.852 -0.1677  0.1939  0.3255
 1087SOL    HW2 4392   2.257   0.304   1.896 -0.3791 -0.1285 -0.3088
 1087SOL    HW3 4393   2.187   0.439   1.890  1.0014  0.7217  1.9538
 1087SOL    MW4 4394   2.250   0.385   1.863 -0.0412  0.2210  0.4567
 1088SOL     OW 4395   2.485   0.492   1.991 -0.2220 -0.1042 -0.2918
 1088SOL    HW2 4396   2.565   0.445   1.968 -1.1142 -2.1532  0.6424
 1088SOL    HW3 4397   2.418   0.454   1.934 -0.9761 -0.0524  0.5466
 1088SOL    MW4 4398   2.487   0.481   1.981 -0.4392 -0.3677 -0.0579
 1089SOL     OW 4399   2.483   0.758   1.914 -0.2721 -0.1715  0.0135
 1089SOL    HW2 4400   2.477   0.668   1.944 -1.7798 -0.1410 -0.1418
 1089SOL    HW3 4401   2.477   0.752   1.818  0.4280  0.0339 -0.0454
 1089SOL    MW4 4402   2.481   0.745   1.905 -0.3786 -0.1403 -0.0148
 1090SOL     OW 4403   2.236   0.888   1.955 -0.3324 -0.6103 -0.1976
 1090SOL    HW2 4404   2.242   0.907   2.049  0.8566  1.9798 -0.7545
 1090SOL    HW3 4405   2.320   0.850   1.932 -0.6367 -1.2775 -0.2197
 1090SOL    MW4 4406   2.248   0.886   1.964 -0.2155 -0.3566 -0.2738
 1091SOL     OW 4407   2.211   1.136   1.855 -0.4930  0.6290  0.4442
 1091SOL    HW2 4408   2.290   1.166   1.900  0.0462 -0.1717  0.0498
 1091SOL    HW3 4409   2.206   1.043   1.877 -2.4962  1.0993  2.1931
 1091SOL    MW4 4410   2.221   1.128   1.864 -0.6862  0.5854  0.6229
 1092SOL     OW 4411   2.444   1.228   1.984 -0.0045  0.1061  0.1768
 1092SOL    HW2 4412   2.467   1.231   2.077  0.2007 -1.4369  0.1797
 1092SOL    HW3 4413   2.449   1.320   1.956  0.2198  0.5497  1.6085
 1092SOL    MW4 4414   2.448   1.241   1.993  0.0525 -0.0389  0.3662
 1093SOL     OW 4415   2.494   1.490   1.888  0.0987 -0.2449  0.1961
 1093SOL    HW2 4416   2.424   1.543   1.926  1.1136  1.1335  0.1802
 1093SOL    HW3 4417   2.492   1.510   1.795  0.9523  0.3392  0.2925
 1093SOL    MW4 4418   2.485   1.500   1.881  0.3452  0.0138  0.2067
 1094SOL     OW 4419   2.301   1.676   1.959  0.2244 -0.2165  0.1317
 1094SOL    HW2 4420   2.287   1.701   2.050 -0.6823 -2.1292  0.5548
 1094SOL    HW3 4421   2.216   1.643   1.930  0.5172  0.3305 -1.3994
 1094SOL    MW4 4422   2.288   1.675   1.967  0.1433 -0.3968 -0.0143
 1095SOL     OW 4423   2.274   1.938   1.881  0.0327 -0.2643  0.1269
 1095SOL    HW2 4424   2.357   1.976   1.909  0.6028 -0.0600 -1.7961
 1095SOL    HW3 4425   2.282   1.845   1.900  0.9427 -0.3386 -0.6219
 1095SOL    MW4 4426   2.286   1.931   1.887  0.2279 -0.2471 -0.2258
 1096SOL     OW 4427   2.518   2.037   1.958  0.0343 -0.0243  0.7770
 1096SOL    HW2 4428   2.595   1.991   1.926 -0.5874 -0.4841 -0.0764
 1096SOL    HW3 4429   2.522   2.123   1.917 -0.9431 -0.7295 -0.8420
 1096SOL    MW4 4430   2.529   2.042   1.949 -0.1769 -0.1781  0.4507
 1097SOL     OW 4431   2.518   2.313   1.896 -0.3061 -0.0688  0.0956
 1097SOL    HW2 4432   2.592   2.370   1.916  0.5404 -0.3182 -2.1379
 1097SOL    HW3 4433   2.442   2.361   1.928  0.6682  0.9056  1.0164
 1097SOL    MW4 4434   2.518   2.327   1.903 -0.0660  0.0269 -0.0775
 1098SOL     OW 4435   2.285   2.438   1.988 -0.1219 -0.1338 -0.1612
 1098SOL    HW2 4436   2.276   2.422   2.082 -0.7850 -0.4535 -0.2688
 1098SOL    HW3 4437   2.275   2.532   1.978  0.2844 -0.0602  0.1242
 1098SOL    MW4 4438   2.282   2.448   1.999 -0.1559 -0.1664 -0.1378
 1099SOL     OW 4439   2.257   2.711   1.907 -0.3181 -0.3156  0.0503
 1099SOL    HW2 4440   2.182   2.759   1.941 -0.7923 -0.8444 -0.2396
 1099SOL    HW3 4441   2.246   2.713   1.812  0.5493  0.4248 -0.0433
 1099SOL    MW4 4442   2.246   2.718   1.899 -0.2661 -0.2878 -0.0002
 1100SOL     OW 4443   2.479   2.852   1.945 -0.2536  0.4763 -0.4408
 1100SOL    HW2 4444   2.452   2.944   1.939 -1.6368  0.1136  0.0696
 1100SOL    HW3 4445   2.400   2.802   1.923  0.2759 -0.6052  0.0779
 1100SOL    MW4 4446   2.465   2.857   1.941 -0.3664  0.2856 -0.3051
 1101SOL     OW 4447   2.483   3.135   1.899  0.2096  0.0358  0.3424
 1101SOL    HW2 4448   2.396   3.174   1.907 -0.7149 -2.0799  1.0979
 1101SOL    HW3 4449   2.490   3.109   1.807 -0.6802 -1.3279  0.6374
 1101SOL    MW4 4450   2.472   3.137   1.888 -0.0296 -0.4234  0.4811
 1102SOL     OW 4451   2.250   3.258   1.959  0.2105  0.1614  0.0321
 1102SOL    HW2 4452   2.242   3.250   2.054  1.2022  1.2094  0.2197
 1102SOL    HW3 4453   2.178   3.206   1.924 -0.6984  0.5092  1.3673
 1102SOL    MW4 4454   2.240   3.250   1.967  0.2217  0.3455  0.2329
 1103SOL     OW 4455   2.264   3.512   1.874  0.4821 -0.7020  0.0221
 1103SOL    HW2 4456   2.254   3.421   1.900 -0.1671 -0.2278  1.4896
 1103SOL    HW3 4457   2.182   3.554   1.901  0.3693  0.1162 -1.5374
 1103SOL    MW4 4458   2.252   3.506   1.881  0.3815 -0.5312  0.0099
 1104SOL     OW 4459   2.482   3.640   1.939  0.2162 -0.9388  0.1561
 1104SOL    HW2 4460   2.450   3.660   2.027  1.2674 -1.1164  0.5860
 1104SOL    HW3 4461   2.423   3.571   1.908  0.5906 -1.7432  1.2012
 1104SOL    MW4 4462   2.470   3.634   1.947  0.4041 -1.0686  0.3508
 1105SOL     OW 4463   2.431   3.870   1.810 -0.4655 -0.1025 -0.3257
 1105SOL    HW2 4464   2.360   3.912   1.859  0.5143 -0.3032  1.2752
 1105SOL    HW3 4465   2.438   3.783   1.848 -0.3157 -0.5895 -1.4596
 1105SOL    MW4 4466   2.422   3.864   1.821 -0.3166 -0.1931 -0.2642
 1106SOL     OW 4467   2.213   4.015   1.957 -0.1302 -0.4801 -0.0407
 1106SOL    HW2 4468   2.223   4.012   2.052  0.1214 -0.7217 -0.0763
 1106SOL    HW3 4469   2.242   4.104   1.933 -1.6254  0.0973  0.2753
 1106SOL    MW4 4470   2.218   4.027   1.966 -0.2942 -0.4358 -0.0039
 1107SOL     OW 4471   2.226   4.287   1.881 -0.2480  0.4852  0.9627
 1107SOL    HW2 4472   2.313   4.327   1.881 -0.1241  0.2967 -0.8553
 1107SOL    HW3 4473   2.200   4.287   1.788 -2.2660  0.7202  1.5057
 1107SOL    MW4 4474   2.234   4.292   1.868 -0.4981  0.4911  0.7945
 1108SOL     OW 4475   2.472   4.404   1.930 -0.1825  0.0147  0.5595
 1108SOL    HW2 4476   2.470   4.415   2.025 -0.0827  0.7563  0.4743
 1108SOL    HW3 4477   2.551   4.353   1.914 -0.7508 -1.0118  0.9659
 1108SOL    MW4 4478   2.482   4.399   1.941 -0.2444 -0.0229  0.6019
 1109SOL     OW 4479   2.947   4.612   1.858 -0.1702 -0.3704 -0.0694
 1109SOL    HW2 4480   3.025   4.655   1.893 -0.9955  1.3260 -0.2787
 1109SOL    HW3 4481   2.938   4.533   1.911  1.5677 -0.4909  0.0891
 1109SOL    MW4 4482   2.956   4.607   1.870 -0.0496 -0.1626 -0.0761
 1110SOL     OW 4483   2.717   0.090   1.954  0.3526  0.1027 -0.1906
 1110SOL    HW2 4484   2.703   0.085   2.049  0.1139 -1.4248 -0.2829
 1110SOL    HW3 4485   2.799   0.043   1.939  0.4924  0.5102 -0.7173
 1110SOL    MW4 4486   2.726   0.083   1.964  0.3393 -0.0451 -0.2722
 1111SOL     OW 4487   2.709   0.352   1.889 -0.0135  0.2555 -0.0869
 1111SOL    HW2 4488   2.790   0.390   1.923 -0.0628 -0.2714  0.6319
 1111SOL    HW3 4489   2.718   0.258   1.907 -1.5948  0.4279  1.6894
 1111SOL    MW4 4490   2.721   0.344   1.896 -0.2286  0.2087  0.2424
 1112SOL     OW 4491   2.934   0.503   1.994  0.0492  0.1587  0.0635
 1112SOL    HW2 4492   3.005   0.455   1.950  0.7023  1.3901 -0.2487
 1112SOL    HW3 4493   2.941   0.592   1.960 -1.2288  0.4522  0.5569
 1112SOL    MW4 4494   2.945   0.508   1.984 -0.0334  0.3599  0.0875
 1113SOL     OW 4495   2.926   0.769   1.871 -0.3972 -0.1486  0.4557
 1113SOL    HW2 4496   3.006   0.810   1.904  0.5435 -0.4849 -1.3236
 1113SOL    HW3 4497   2.856   0.808   1.922  0.7398  1.5592  0.7538
 1113SOL    MW4 4498   2.928   0.779   1.882 -0.1230  0.0324  0.2601
 1114SOL     OW 4499   2.719   0.878   2.003  0.1013 -0.2790  0.2507
 1114SOL    HW2 4500   2.724   0.966   1.967  1.4294 -0.3593  0.1939
 1114SOL    HW3 4501   2.647   0.836   1.956  1.9627 -0.4606 -2.5372
 1114SOL    MW4 4502   2.710   0.884   1.992  0.5221 -0.3135 -0.1248
 1115SOL     OW 4503   2.698   1.132   1.894  0.0917  0.4106  0.1249
 1115SOL    HW2 4504   2.612   1.165   1.917  0.0438 -0.0867  0.6568
 1115SOL    HW3 4505   2.689   1.102   1.804 -0.4723 -0.2691  0.4030
 1115SOL    MW4 4506   2.686   1.132   1.885  0.0107  0.2551  0.2319
 1116SOL     OW 4507   2.957   1.220   1.961  0.1861  0.1968  0.3588
 1116SOL    HW2 4508   2.957   1.315   1.966 -0.1718  0.1645  1.1002
 1116SOL    HW3 4509   2.867   1.197   1.938  0.7019  0.1129 -1.6440
 1116SOL    MW4 4510   2.945   1.229   1.959  0.2069  0.1814  0.1923
 1117SOL     OW 4511   2.938   1.499   1.947  0.1158 -0.5705 -0.0658
 1117SOL    HW2 4512   3.007   1.565   1.954  0.8109 -1.2560 -0.3455
 1117SOL    HW3 4513   2.934   1.479   1.853 -0.6835 -0.3065 -0.0939
 1117SOL    MW4 4514   2.947   1.505   1.935  0.1016 -0.6260 -0.1065
 1118SOL     OW 4515   2.711   1.643   1.985 -0.2918  0.1767  0.1189
 1118SOL    HW2 4516   2.796   1.605   1.962 -0.4191  0.4821 -0.8988
 1118SOL    HW3 4517   2.648   1.578   1.955 -0.4084 -0.2686  1.3119
 1118SOL    MW4 4518   2.714   1.629   1.978 -0.3235  0.1582  0.1421
 1119SOL     OW 4519   2.739   1.895   1.866 -0.6437  0.1139  0.2948
 1119SOL    HW2 4520   2.804   1.954   1.904  1.0632 -1.1690 -0.5791
 1119SOL    HW3 4521   2.745   1.815   1.919 -1.0056 -0.2590 -0.2253
 1119SOL    MW4 4522   2.748   1.892   1.878 -0.4663 -0.1045  0.1109
 1120SOL     OW 4523   2.915   2.071   1.961 -0.6413  0.3019  0.1288
 1120SOL    HW2 4524   2.927   2.080   2.056  0.2512 -0.1718  0.0577
 1120SOL    HW3 4525   2.998   2.035   1.929 -0.1215  2.5346 -1.1325
 1120SOL    MW4 4526   2.927   2.068   1.970 -0.4549  0.5338 -0.0470
 1121SOL     OW 4527   2.938   2.341   1.871  0.4036 -0.1411 -0.5100
 1121SOL    HW2 4528   3.018   2.361   1.918  0.5038 -0.4216 -0.5612
 1121SOL    HW3 4529   2.922   2.248   1.888 -0.8096  0.3033  0.8744
 1121SOL    MW4 4530   2.946   2.331   1.879  0.2568 -0.1197 -0.3340
 1122SOL     OW 4531   2.724   2.450   1.999  0.3962  0.0484 -1.0661
 1122SOL    HW2 4532   2.718   2.540   1.967  1.4097  0.8498  0.9091
 1122SOL    HW3 4533   2.809   2.419   1.967  1.5061  0.9220  0.8922
 1122SOL    MW4 4534   2.735   2.458   1.991  0.6764  0.2694 -0.5471
 1123SOL     OW 4535   2.727   2.715   1.892 -0.5322  0.1557 -0.1937
 1123SOL    HW2 4536   2.649   2.770   1.901 -1.5923 -1.3475  0.1364
 1123SOL    HW3 4537   2.728   2.691   1.799  0.6392  1.7247 -0.6007
 1123SOL    MW4 4538   2.717   2.719   1.881 -0.5176  0.1643 -0.2040
 1124SOL     OW 4539   2.942   2.857   2.021  0.2804 -0.0699  0.2727
 1124SOL    HW2 4540   2.936   2.938   1.970 -0.3324 -1.0164 -1.2187
 1124SOL    HW3 4541   2.866   2.806   1.993  0.8240 -1.2817  0.9639
 1124SOL    MW4 4542   2.931   2.861   2.010  0.2713 -0.3548  0.1669
 1125SOL     OW 4543   2.925   3.094   1.855  0.1106  0.6521  0.2865
 1125SOL    HW2 4544   2.995   3.157   1.875 -0.0652  0.6150  1.0224
 1125SOL    HW3 4545   2.847   3.133   1.894 -0.4674  1.1530 -1.3456
 1125SOL    MW4 4546   2.924   3.108   1.863  0.0110  0.7133  0.1683
 1126SOL     OW 4547   2.723   3.241   1.982  0.2141 -0.6348 -0.1249
 1126SOL    HW2 4548   2.727   3.334   1.960 -1.2674 -0.2978  0.9505
 1126SOL    HW3 4549   2.636   3.214   1.954  0.7414 -1.7781 -0.6826
 1126SOL    MW4 4550   2.712   3.250   1.975  0.0882 -0.7412 -0.0565
 1127SOL     OW 4551   2.719   3.505   1.910  0.2680  0.1272  0.5381
 1127SOL    HW2 4552   2.793   3.560   1.936  0.2642  1.2740 -1.7281
 1127SOL    HW3 4553   2.642   3.558   1.928  0.2416  0.7264 -1.2258
 1127SOL    MW4 4554   2.719   3.519   1.916  0.2639  0.3576  0.0063
 1128SOL     OW 4555   2.935   3.663   2.006  0.3826 -0.1551 -0.4917
 1128SOL    HW2 4556   2.932   3.628   2.095 -0.1051  0.2958 -0.3327
 1128SOL    HW3 4557   3.012   3.622   1.967  0.2621 -0.8086 -0.0503
 1128SOL    MW4 4558   2.945   3.653   2.012  0.3023 -0.1819 -0.4125
 1129SOL     OW 4559   2.891   3.898   1.876  0.1914  0.4445 -0.7376
 1129SOL    HW2 4560   2.913   3.810   1.908 -0.1907  0.8790  0.7672
 1129SOL    HW3 4561   2.885   3.888   1.781 -1.6683 -1.5793 -0.4504
 1129SOL    MW4 4562   2.893   3.885   1.867 -0.1044  0.2346 -0.5012
 1130SOL     OW 4563   2.645   3.969   1.963  0.0989  0.1637 -0.4738
 1130SOL    HW2 4564   2.728   3.924   1.953 -0.6784 -1.3623 -0.2535
 1130SOL    HW3 4565   2.586   3.926   1.900 -1.0058 -0.0247  0.6600
 1130SOL    MW4 4566   2.648   3.958   1.953 -0.1493 -0.0622 -0.2952
 1131SOL     OW 4567   2.700   4.235   1.888 -0.1525  0.1800 -0.2040
 1131SOL    HW2 4568   2.678   4.143   1.901 -0.1394  0.2969  0.6587
 1131SOL    HW3 4569   2.704   4.245   1.793  2.0439 -1.2315 -0.2833
 1131SOL    MW4 4570   2.698   4.224   1.877  0.1390  0.0091 -0.1007
 1132SOL     OW 4571   2.903   4.390   1.998  0.0386 -0.0332  0.2992
 1132SOL    HW2 4572   2.896   4.412   2.091  0.0717 -1.3343  0.6217
 1132SOL    HW3 4573   2.830   4.330   1.982  0.8718 -0.9396 -0.1781
 1132SOL    MW4 4574   2.892   4.385   2.008  0.1528 -0.3242  0.2787
 1133SOL     OW 4575   3.388   4.640   1.878 -0.3149  0.5554 -0.0200
 1133SOL    HW2 4576   3.390   4.548   1.903  0.1234  0.1174 -1.6359
 1133SOL    HW3 4577   3.382   4.639   1.782  0.5948  2.2015 -0.1085
 1133SOL    MW4 4578   3.387   4.628   1.868 -0.1373  0.7153 -0.2450
 1134SOL     OW 4579   3.154   0.082   1.965 -0.1099 -0.3567  0.1322
 1134SOL    HW2 4580   3.159   0.097   2.059  0.2613  0.8070 -0.0653
 1134SOL    HW3 4581   3.225   0.020   1.947  0.7903  0.5791  0.4017
 1134SOL    MW4 4582   3.164   0.076   1.975  0.0577 -0.0797  0.1417
 1135SOL     OW 4583   3.142   0.351   1.902 -0.0134 -0.0806  0.3464
 1135SOL    HW2 4584   3.137   0.260   1.932 -1.0749  0.1231  0.8203
 1135SOL    HW3 4585   3.123   0.347   1.808  0.4690 -0.4001  0.2594
 1135SOL    MW4 4586   3.139   0.338   1.894 -0.0899 -0.0959  0.3973
 1136SOL     OW 4587   3.379   0.449   1.994 -1.2363  0.7638 -0.3846
 1136SOL    HW2 4588   3.443   0.418   1.931 -0.1485  1.8096  0.1753
 1136SOL    HW3 4589   3.296   0.414   1.963 -0.3224 -1.1394 -0.7696
 1136SOL    MW4 4590   3.376   0.441   1.982 -0.9720  0.6506 -0.3614
 1137SOL     OW 4591   3.403   0.711   1.936 -0.3895 -0.4610 -0.1595
 1137SOL    HW2 4592   3.319   0.754   1.949 -0.2937 -0.2867 -0.1143
 1137SOL    HW3 4593   3.387   0.620   1.959 -1.1136 -0.8717 -2.1700
 1137SOL    MW4 4594   3.390   0.705   1.940 -0.4723 -0.4922 -0.4187
 1138SOL     OW 4595   3.167   0.875   1.955  0.1724  0.0314 -0.4627
 1138SOL    HW2 4596   3.177   0.963   1.919  3.2486 -0.8518 -1.9489
 1138SOL    HW3 4597   3.167   0.887   2.050 -1.0070  1.7621 -0.6666
 1138SOL    MW4 4598   3.168   0.888   1.963  0.4227  0.1432 -0.6858
 1139SOL     OW 4599   3.184   1.122   1.846 -0.1224  0.0232 -0.1590
 1139SOL    HW2 4600   3.250   1.181   1.884 -0.1886 -0.1515  0.2278
 1139SOL    HW3 4601   3.100   1.157   1.876 -0.1362 -0.5723  0.5010
 1139SOL    MW4 4602   3.182   1.134   1.855 -0.1330 -0.0783 -0.0209
 1140SOL     OW 4603   3.366   1.291   1.964 -0.1518  0.3102 -0.3948
 1140SOL    HW2 4604   3.362   1.306   2.059 -1.4872  0.0324 -0.3983
 1140SOL    HW3 4605   3.398   1.374   1.928 -0.7184  0.7952  0.2032
 1140SOL    MW4 4606   3.370   1.304   1.972 -0.4027  0.3375 -0.3163
 1141SOL     OW 4607   3.402   1.548   1.880 -0.0482 -0.4194 -0.0498
 1141SOL    HW2 4608   3.468   1.604   1.921 -0.0690 -0.2341 -0.2651
 1141SOL    HW3 4609   3.318   1.583   1.912 -0.0325 -0.7851  0.3849
 1141SOL    MW4 4610   3.399   1.560   1.890 -0.0486 -0.4432 -0.0210
 1142SOL     OW 4611   3.137   1.702   1.955 -0.4478  0.3725  0.1406
 1142SOL    HW2 4612   3.160   1.697   2.048 -1.2206  0.2562  0.3343
 1142SOL    HW3 4613   3.139   1.796   1.936 -0.1872  0.3898  0.2495
 1142SOL    MW4 4614   3.140   1.714   1.965 -0.5155  0.3595  0.1805
 1143SOL     OW 4615   3.157   1.971   1.884  0.4796  0.3548  0.5829
 1143SOL    HW2 4616   3.249   1.988   1.905  0.5440  0.1944  0.4296
 1143SOL    HW3 4617   3.157   1.953   1.790  0.6642 -2.3064  1.0438
 1143SOL    MW4 4618   3.170   1.971   1.875  0.5126 -0.0175  0.6235
 1144SOL     OW 4619   3.397   2.055   2.005 -0.2788  0.1313  0.2321
 1144SOL    HW2 4620   3.476   2.026   1.960  0.6086  0.7899  1.3284
 1144SOL    HW3 4621   3.386   2.146   1.979 -1.3709 -0.3081 -0.8658
 1144SOL    MW4 4622   3.406   2.063   1.996 -0.3054  0.1602  0.2317
 1145SOL     OW 4623   3.397   2.318   1.865 -0.3318 -0.5468 -0.0340
 1145SOL    HW2 4624   3.317   2.362   1.894 -1.2167 -2.2256  0.0951
 1145SOL    HW3 4625   3.382   2.299   1.772  0.5964  0.6078 -0.4306
 1145SOL    MW4 4626   3.385   2.321   1.857 -0.3259 -0.6158 -0.0694
 1146SOL     OW 4627   3.170   2.423   1.983  0.0010 -0.1059 -0.1912
 1146SOL    HW2 4628   3.190   2.440   2.075  0.9205  0.9043 -0.5638
 1146SOL    HW3 4629   3.157   2.510   1.946 -0.6721 -0.5291 -0.9576
 1146SOL    MW4 4630   3.171   2.437   1.991  0.0336 -0.0284 -0.3415
 1147SOL     OW 4631   3.148   2.703   1.901 -0.5211  0.1350 -0.1284
 1147SOL    HW2 4632   3.078   2.757   1.938  0.5984  2.4618 -1.2910
 1147SOL    HW3 4633   3.123   2.691   1.810  0.1601  0.2253 -0.3281
 1147SOL    MW4 4634   3.136   2.708   1.894 -0.2837  0.4539 -0.3083
 1148SOL     OW 4635   3.337   2.876   2.011 -0.1393 -0.4028  0.3719
 1148SOL    HW2 4636   3.347   2.848   2.103  0.1050  1.3759  0.8929
 1148SOL    HW3 4637   3.266   2.821   1.978 -0.3763 -0.9129  1.6860
 1148SOL    MW4 4638   3.329   2.865   2.019 -0.1385 -0.2353  0.6142
 1149SOL     OW 4639   3.391   3.105   1.864 -0.5538  0.0407  0.1198
 1149SOL    HW2 4640   3.460   3.152   1.911 -0.0997  0.1566 -0.6566
 1149SOL    HW3 4641   3.376   3.027   1.917  0.3884 -0.1341  0.1468
 1149SOL    MW4 4642   3.398   3.101   1.877 -0.3698  0.0327  0.0209
 1150SOL     OW 4643   3.143   3.237   1.956 -0.0378  0.0359 -0.0882
 1150SOL    HW2 4644   3.148   3.331   1.936  1.7734 -0.3056 -1.4254
 1150SOL    HW3 4645   3.227   3.202   1.925 -0.3682 -1.8919  1.1277
 1150SOL    MW4 4646   3.155   3.245   1.949  0.1576 -0.2637 -0.1041
 1151SOL     OW 4647   3.155   3.509   1.916  0.1260  0.1581 -0.1396
 1151SOL    HW2 4648   3.243   3.538   1.939 -0.1789  0.5986  0.4713
 1151SOL    HW3 4649   3.154   3.508   1.820  0.6297  0.6698 -0.1490
 1151SOL    MW4 4650   3.166   3.512   1.906  0.1521  0.2835 -0.0602
 1152SOL     OW 4651   3.383   3.633   2.003 -0.3979  0.3121 -0.3319
 1152SOL    HW2 4652   3.459   3.587   1.966 -1.1428  0.2414 -1.8330
 1152SOL    HW3 4653   3.381   3.716   1.956  0.3152  1.4460  1.6239
 1152SOL    MW4 4654   3.393   3.638   1.992 -0.4020  0.4520 -0.2719
 1153SOL     OW 4655   3.366   3.856   1.867 -0.4595  0.3847 -0.0823
 1153SOL    HW2 4656   3.274   3.874   1.889 -0.4497 -0.3076  0.5427
 1153SOL    HW3 4657   3.376   3.889   1.778 -1.6908 -0.7529 -0.6747
 1153SOL    MW4 4658   3.355   3.863   1.858 -0.6208  0.1433 -0.0780
 1154SOL     OW 4659   3.147   3.990   1.962 -0.4504  0.5990 -0.2660
 1154SOL    HW2 4660   3.161   3.989   2.057  0.8876 -1.5957 -0.4422
 1154SOL    HW3 4661   3.067   3.940   1.949 -0.5096  0.7053 -0.3130
 1154SOL    MW4 4662   3.138   3.984   1.973 -0.2813  0.3233 -0.2953
 1155SOL     OW 4663   3.135   4.260   1.881  0.1770  0.5452 -0.2188
 1155SOL    HW2 4664   3.147   4.174   1.921  2.3239  0.8226 -0.2207
 1155SOL    HW3 4665   3.061   4.298   1.928  0.1264 -0.7357  0.7555
 1155SOL    MW4 4666   3.127   4.254   1.893  0.4535  0.4129 -0.0904
 1156SOL     OW 4667   3.355   4.374   1.990  0.2162  0.3942 -0.5471
 1156SOL    HW2 4668   3.439   4.329   1.979  0.0730 -0.0655  0.2017
 1156SOL    HW3 4669   3.293   4.321   1.940  0.1282 -0.0053 -0.0187
 1156SOL    MW4 4670   3.358   4.361   1.982  0.1857  0.2809 -0.3785
 1157SOL     OW 4671   3.870   4.665   1.894 -0.3383 -0.4820  0.8607
 1157SOL    HW2 4672   3.868   4.575   1.928 -1.4827 -1.3760 -1.4963
 1157SOL    HW3 4673   3.786   4.702   1.920 -0.1190 -0.2805  1.2931
 1157SOL    MW4 4674   3.859   4.658   1.902 -0.4606 -0.5732  0.6068
 1158SOL     OW 4675   3.617   0.080   1.984 -0.1769  0.2953 -0.2549
 1158SOL    HW2 4676   3.621   0.087   2.079  1.2080 -0.1425 -0.2732
 1158SOL    HW3 4677   3.537   0.031   1.967  0.0456 -0.4281  0.7367
 1158SOL    MW4 4678   3.607   0.075   1.994  0.0353  0.1421 -0.1264
 1159SOL     OW 4679   3.622   0.345   1.852  0.6546  0.2548 -0.0221
 1159SOL    HW2 4680   3.604   0.256   1.882  1.2939 -0.1287 -0.7603
 1159SOL    HW3 4681   3.633   0.337   1.757 -1.8215  1.5097 -0.4605
 1159SOL    MW4 4682   3.621   0.332   1.843  0.4120  0.3698 -0.1774
 1160SOL     OW 4683   3.807   0.478   2.004 -0.2584 -0.4937  0.2744
 1160SOL    HW2 4684   3.796   0.571   1.984 -1.0888 -0.6551 -0.0411
 1160SOL    HW3 4685   3.754   0.433   1.938  0.5120 -1.2130  0.1329
 1160SOL    MW4 4686   3.798   0.485   1.993 -0.2661 -0.6099  0.2141
 1161SOL     OW 4687   3.819   0.751   1.923 -0.0347 -0.2923 -0.5592
 1161SOL    HW2 4688   3.740   0.797   1.951 -0.9364 -2.2955  0.3221
 1161SOL    HW3 4689   3.821   0.760   1.828 -0.7113  0.7353 -0.4741
 1161SOL    MW4 4690   3.809   0.758   1.914 -0.2432 -0.4210 -0.4318
 1162SOL     OW 4691   3.602   0.888   2.033  0.1375 -0.1253 -0.1979
 1162SOL    HW2 4692   3.604   0.967   1.980  2.8044 -0.1538 -0.1864
 1162SOL    HW3 4693   3.532   0.835   1.994 -0.8206  1.6678 -0.9771
 1162SOL    MW4 4694   3.593   0.891   2.021  0.3631  0.1075 -0.2990
 1163SOL     OW 4695   3.576   1.130   1.891 -0.1653  0.2245  0.0574
 1163SOL    HW2 4696   3.495   1.173   1.920  0.9978  1.5841  1.3396
 1163SOL    HW3 4697   3.563   1.116   1.797 -1.7210  0.7928  0.1675
 1163SOL    MW4 4698   3.563   1.133   1.882 -0.2172  0.4790  0.2410
 1164SOL     OW 4699   3.798   1.288   1.973  0.2395  0.1897 -0.0097
 1164SOL    HW2 4700   3.800   1.295   2.068  0.3300  0.5786 -0.0414
 1164SOL    HW3 4701   3.726   1.226   1.955  0.3935 -0.0859  0.3189
 1164SOL    MW4 4702   3.789   1.281   1.983  0.2720  0.2046  0.0294
 1165SOL     OW 4703   3.810   1.549   1.865 -0.1591 -0.7034 -0.0608
 1165SOL    HW2 4704   3.900   1.579   1.877 -0.3730 -0.6203  1.4720
 1165SOL    HW3 4705   3.807   1.464   1.908 -0.0721 -2.0792 -2.6636
 1165SOL    MW4 4706   3.821   1.542   1.872 -0.1757 -0.8739 -0.2021
 1166SOL     OW 4707   3.614   1.692   2.000 -0.0570 -0.5638 -0.1589
 1166SOL    HW2 4708   3.603   1.784   1.975 -0.9861 -0.3425  0.9699
 1166SOL    HW3 4709   3.680   1.658   1.940  0.0344  0.7473 -0.8255
 1166SOL    MW4 4710   3.621   1.700   1.989 -0.1674 -0.3616 -0.0978
 1167SOL     OW 4711   3.611   1.985   1.870  0.3480 -0.0992  0.4197
 1167SOL    HW2 4712   3.677   2.044   1.906  0.4632 -0.7858  1.3656
 1167SOL    HW3 4713   3.631   1.981   1.777  1.4071  0.0095  0.6340
 1167SOL    MW4 4714   3.622   1.992   1.863  0.5028 -0.1754  0.5728
 1168SOL     OW 4715   3.834   2.112   1.995 -0.3611 -0.0042  0.0102
 1168SOL    HW2 4716   3.907   2.051   1.982 -0.1028  0.1131  0.8427
 1168SOL    HW3 4717   3.842   2.176   1.925  0.9321  0.5787  0.6681
 1168SOL    MW4 4718   3.844   2.112   1.984 -0.1564  0.0880  0.2068
 1169SOL     OW 4719   3.834   2.348   1.856  0.5937  0.2463  0.2052
 1169SOL    HW2 4720   3.907   2.375   1.912  0.1553  0.3121  0.7554
 1169SOL    HW3 4721   3.756   2.383   1.900  0.2526  0.3928 -0.5050
 1169SOL    MW4 4722   3.833   2.356   1.869  0.4909  0.2742  0.1841
 1170SOL     OW 4723   3.600   2.452   1.964 -0.1369  0.0589  0.6573
 1170SOL    HW2 4724   3.588   2.546   1.948  0.2022  0.0685  0.4533
 1170SOL    HW3 4725   3.536   2.409   1.908  1.6164  0.0505 -1.3619
 1170SOL    MW4 4726   3.590   2.459   1.955  0.1395  0.0594  0.3641
 1171SOL     OW 4727   3.576   2.737   1.901  0.4369  0.7549 -0.1805
 1171SOL    HW2 4728   3.650   2.769   1.953 -0.5604  0.1526  1.6274
 1171SOL    HW3 4729   3.500   2.781   1.937 -0.3812 -0.3026 -0.5813
 1171SOL    MW4 4730   3.576   2.747   1.913  0.1974  0.5357  0.0051
 1172SOL     OW 4731   3.816   2.819   2.016 -0.0758 -0.3156  0.0059
 1172SOL    HW2 4732   3.833   2.835   2.109  1.0445 -0.3979 -0.1786
 1172SOL    HW3 4733   3.814   2.907   1.977 -0.0093 -0.3098  0.0159
 1172SOL    MW4 4734   3.818   2.833   2.023  0.0806 -0.3254 -0.0169
 1173SOL     OW 4735   3.779   3.064   1.893 -0.6315 -0.0492  0.3914
 1173SOL    HW2 4736   3.699   3.105   1.925 -0.9247 -0.5866  0.3487
 1173SOL    HW3 4737   3.775   3.074   1.798 -1.0295 -0.7605  0.3276
 1173SOL    MW4 4738   3.768   3.071   1.885 -0.7229 -0.2141  0.3773
 1174SOL     OW 4739   3.590   3.252   2.010 -0.2578  0.2583 -0.0068
 1174SOL    HW2 4740   3.604   3.252   2.105  0.2063 -0.3907 -0.0746
 1174SOL    HW3 4741   3.582   3.345   1.988  1.4378  0.5291  0.4098
 1174SOL    MW4 4742   3.591   3.264   2.020  0.0272  0.2084  0.0389
 1175SOL     OW 4743   3.618   3.515   1.896  0.2481  0.3848  0.0818
 1175SOL    HW2 4744   3.705   3.539   1.930  0.0723  0.3656  0.5453
 1175SOL    HW3 4745   3.633   3.496   1.803  0.8132  0.0173  0.2425
 1175SOL    MW4 4746   3.632   3.515   1.888  0.2997  0.3340  0.1642
 1176SOL     OW 4747   3.849   3.615   2.029  0.3603  0.2860  0.3120
 1176SOL    HW2 4748   3.918   3.565   1.985  1.5139  2.0132  0.1206
 1176SOL    HW3 4749   3.870   3.706   2.010 -1.4547  0.8701  1.0497
 1176SOL    MW4 4750   3.861   3.620   2.020  0.2728  0.5910  0.3839
 1177SOL     OW 4751   3.844   3.858   1.901 -0.4502  0.1588 -0.0216
 1177SOL    HW2 4752   3.752   3.872   1.923 -0.1552  2.8586 -0.3868
 1177SOL    HW3 4753   3.850   3.883   1.809  0.4148 -1.2293 -0.3549
 1177SOL    MW4 4754   3.832   3.863   1.892 -0.2971  0.3316 -0.1137
 1178SOL     OW 4755   3.619   3.990   1.985 -0.5120  0.5962  0.0922
 1178SOL    HW2 4756   3.615   3.996   2.081  0.5311 -0.8108  0.2457
 1178SOL    HW3 4757   3.529   3.967   1.959 -0.7810  0.9046  0.7476
 1178SOL    MW4 4758   3.606   3.988   1.994 -0.4096  0.4513  0.1990
 1179SOL     OW 4759   3.600   4.244   1.899 -0.5226  0.3640 -0.3307
 1179SOL    HW2 4760   3.672   4.299   1.930  0.1448 -0.8414  0.2839
 1179SOL    HW3 4761   3.612   4.160   1.944 -0.6221 -0.8047 -2.3959
 1179SOL    MW4 4762   3.611   4.240   1.909 -0.4475  0.0510 -0.5221
 1180SOL     OW 4763   3.813   4.397   1.985 -0.3951  0.0540  0.4750
 1180SOL    HW2 4764   3.806   4.388   2.080  0.1538  0.9213  0.6053
 1180SOL    HW3 4765   3.892   4.349   1.961 -0.1293  0.4553  0.5500
 1180SOL    MW4 4766   3.823   4.390   1.994 -0.2875  0.2213  0.5022
 1181SOL     OW 4767   4.295   4.658   1.892  0.0977 -0.1416  0.3363
 1181SOL    HW2 4768   4.219   4.697   1.936  0.2605 -1.9149  2.2623
 1181SOL    HW3 4769   4.370   4.706   1.928  0.1414 -0.7430  1.0453
 1181SOL    MW4 4770   4.294   4.670   1.903  0.1249 -0.4554  0.6839
 1182SOL     OW 4771   4.078   0.113   2.017  0.3621 -0.6389  0.5319
 1182SOL    HW2 4772   4.081   0.103   2.112  1.5186 -0.1266  0.5691
 1182SOL    HW3 4773   3.994   0.077   1.991  0.1899 -1.1141  1.7150
 1182SOL    MW4 4774   4.068   0.107   2.026  0.4916 -0.6340  0.6928
 1183SOL     OW 4775   4.062   0.380   1.918  0.1137  0.4246  0.5857
 1183SOL    HW2 4776   4.062   0.292   1.956 -0.0526 -0.6330 -1.7705
 1183SOL    HW3 4777   3.975   0.415   1.939 -1.1756 -1.3768 -1.4948
 1183SOL    MW4 4778   4.050   0.373   1.926 -0.0782  0.0474  0.0002
 1184SOL     OW 4779   4.258   0.535   2.024  0.1163  0.1900 -0.0294
 1184SOL    HW2 4780   4.264   0.525   2.119  1.5495  2.3044  0.1166
 1184SOL    HW3 4781   4.199   0.464   1.997 -0.6407 -0.1864  2.4630
 1184SOL    MW4 4782   4.251   0.524   2.033  0.2050  0.4192  0.3185
 1185SOL     OW 4783   4.270   0.779   1.888  0.5143  0.1990  0.2992
 1185SOL    HW2 4784   4.265   0.689   1.918 -0.2149  0.2533  0.3537
 1185SOL    HW3 4785   4.271   0.773   1.792  1.1381  0.1085  0.3058
 1185SOL    MW4 4786   4.270   0.766   1.879  0.5002  0.1941  0.3072
 1186SOL     OW 4787   4.039   0.920   1.981 -0.5436 -0.2846  0.0433
 1186SOL    HW2 4788   4.125   0.882   1.961 -0.5186  0.8596 -2.0593
 1186SOL    HW3 4789   3.981   0.844   1.988  0.8167 -1.1751  2.7124
 1186SOL    MW4 4790   4.043   0.905   1.979 -0.3610 -0.2511  0.1181
 1187SOL     OW 4791   4.067   1.205   1.918 -0.1217 -0.5450  0.1884
 1187SOL    HW2 4792   4.064   1.112   1.940 -0.8648 -0.5464  0.0709
 1187SOL    HW3 4793   3.980   1.238   1.939  0.4669  0.3694  1.2970
 1187SOL    MW4 4794   4.055   1.197   1.924 -0.1416 -0.4245  0.3191
 1188SOL     OW 4795   4.312   1.279   2.001  0.8128 -0.2617  0.4804
 1188SOL    HW2 4796   4.315   1.276   2.096 -0.5998 -1.3835  0.4957
 1188SOL    HW3 4797   4.222   1.258   1.978  1.1285  0.0033 -1.1103
 1188SOL    MW4 4798   4.301   1.276   2.010  0.6680 -0.3748  0.2725
 1189SOL     OW 4799   4.322   1.529   1.895 -0.3620  0.1896  0.0869
 1189SOL    HW2 4800   4.317   1.440   1.930 -2.0627 -0.6564 -2.2142
 1189SOL    HW3 4801   4.308   1.519   1.801  1.0873  2.7390 -0.4401
 1189SOL    MW4 4802   4.319   1.516   1.887 -0.3953  0.4144 -0.2863
 1190SOL     OW 4803   4.071   1.638   1.951 -0.2517 -0.2749 -0.7697
 1190SOL    HW2 4804   4.082   1.642   2.046 -2.3524  1.6161 -0.5762
 1190SOL    HW3 4805   4.157   1.612   1.918  0.5931 -0.6024  1.6285
 1190SOL    MW4 4806   4.084   1.635   1.959 -0.4177 -0.0687 -0.4278
 1191SOL     OW 4807   4.014   1.899   1.891  0.1697  0.4420 -0.1062
 1191SOL    HW2 4808   4.028   1.808   1.917  0.7021  0.8881  1.2119
 1191SOL    HW3 4809   4.024   1.899   1.796 -1.6449 -1.2102 -0.3397
 1191SOL    MW4 4810   4.017   1.887   1.882  0.0005  0.2830  0.0367
 1192SOL     OW 4811   4.281   1.986   1.958  0.8276 -0.3222 -0.0226
 1192SOL    HW2 4812   4.279   2.015   2.050  0.6651 -1.0247  0.1991
 1192SOL    HW3 4813   4.193   1.951   1.943  1.2038 -1.2427 -0.1060
 1192SOL    MW4 4814   4.269   1.985   1.968  0.8559 -0.5362 -0.0042
 1193SOL     OW 4815   4.252   2.256   1.896 -0.0044 -0.3346  0.1175
 1193SOL    HW2 4816   4.272   2.168   1.926  0.6138  0.5093  2.3089
 1193SOL    HW3 4817   4.333   2.305   1.911 -0.7285  0.8934  0.1087
 1193SOL    MW4 4818   4.266   2.251   1.902 -0.0186 -0.0610  0.4054
 1194SOL     OW 4819   4.052   2.424   1.986 -0.4228  0.1479  0.3459
 1194SOL    HW2 4820   4.070   2.415   2.080  0.4070 -1.2901  0.0478
 1194SOL    HW3 4821   4.110   2.361   1.944  0.7264  2.2180 -1.3044
 1194SOL    MW4 4822   4.062   2.415   1.993 -0.1621  0.2313  0.0890
 1195SOL     OW 4823   4.032   2.690   1.899 -0.3424 -0.1036  0.2745
 1195SOL    HW2 4824   4.046   2.600   1.929 -0.5954  0.2416  1.4637
 1195SOL    HW3 4825   3.957   2.720   1.950 -0.8174  0.4948 -0.7569
 1195SOL    MW4 4826   4.024   2.682   1.910 -0.4377  0.0210  0.2954
 1196SOL     OW 4827   4.272   2.813   1.981 -0.3266 -0.2139 -0.2873
 1196SOL    HW2 4828   4.255   2.816   2.075 -0.1673 -0.1412 -0.2612
 1196SOL    HW3 4829   4.190   2.780   1.943 -0.4186 -0.1660 -0.1311
 1196SOL    MW4 4830   4.259   2.809   1.988 -0.3181 -0.1981 -0.2632
 1197SOL     OW 4831   4.267   3.099   1.930 -0.1425 -0.2756 -0.1774
 1197SOL    HW2 4832   4.189   3.144   1.963  0.0628  0.0337 -0.1118
 1197SOL    HW3 4833   4.257   3.008   1.959 -0.5371 -0.2615 -0.2736
 1197SOL    MW4 4834   4.256   3.093   1.938 -0.1674 -0.2334 -0.1814
 1198SOL     OW 4835   4.007   3.208   1.990 -0.1947  0.6045  0.1904
 1198SOL    HW2 4836   4.019   3.213   2.085 -0.9066 -0.5549  0.3551
 1198SOL    HW3 4837   3.928   3.155   1.979 -0.5546  1.3745 -1.0340
 1198SOL    MW4 4838   3.998   3.202   2.001 -0.3364  0.5534  0.0505
 1199SOL     OW 4839   4.049   3.455   1.896  0.3228  0.0899  0.1465
 1199SOL    HW2 4840   4.124   3.496   1.940 -1.1565  0.4501  2.3696
 1199SOL    HW3 4841   4.037   3.372   1.941 -2.5750  1.4331  1.9684
 1199SOL    MW4 4842   4.057   3.450   1.908 -0.2546  0.3145  0.6803
 1200SOL     OW 4843   4.276   3.593   1.999 -0.6911  0.5685  0.2673
 1200SOL    HW2 4844   4.281   3.684   1.967 -1.6802  0.2359 -0.8763
 1200SOL    HW3 4845   4.340   3.546   1.946 -0.4698  0.5109  0.5829
 1200SOL    MW4 4846   4.285   3.599   1.987 -0.7920  0.5169  0.1580
 1201SOL     OW 4847   4.279   3.845   1.888  0.2013  0.0714  0.0204
 1201SOL    HW2 4848   4.343   3.900   1.933 -0.7837  0.2947  1.1566
 1201SOL    HW3 4849   4.304   3.850   1.796  1.8152  0.1610  0.4550
 1201SOL    MW4 4850   4.291   3.853   1.882  0.2842  0.1128  0.2276
 1202SOL     OW 4851   4.054   4.003   2.003 -0.2483 -0.4334  0.3544
 1202SOL    HW2 4852   4.122   3.949   1.962  0.3842 -0.4420  1.4039
 1202SOL    HW3 4853   3.972   3.961   1.976  0.1840 -0.8713 -0.3019
 1202SOL    MW4 4854   4.052   3.990   1.994 -0.1078 -0.4923  0.4060
 1203SOL     OW 4855   4.056   4.275   1.882 -0.0130  0.2019 -0.1436
 1203SOL    HW2 4856   4.134   4.317   1.919 -1.4878  2.5450  0.4385
 1203SOL    HW3 4857   4.064   4.183   1.907  1.9491  0.6362  0.9434
 1203SOL    MW4 4858   4.068   4.269   1.890  0.0515  0.5684  0.0765
 1204SOL     OW 4859   4.291   4.398   1.977  0.0740  0.0124 -0.2157
 1204SOL    HW2 4860   4.294   4.418   2.071  0.0404  0.5488 -0.3245
 1204SOL    HW3 4861   4.289   4.484   1.935  0.5206 -0.2218 -0.7234
 1204SOL    MW4 4862   4.292   4.412   1.984  0.1283  0.0520 -0.2971
 1205SOL     OW 4863   0.220   4.631   2.332  0.5890 -0.3500  0.1002
 1205SOL    HW2 4864   0.212   4.636   2.427  0.6883 -0.0216  0.0914
 1205SOL    HW3 4865   0.279   4.703   2.309  0.0282 -0.0031 -0.2749
 1205SOL    MW4 4866   0.226   4.641   2.342  0.5281 -0.2613  0.0496
 1206SOL     OW 4867   4.468   0.090   2.284 -0.1337  0.2921  0.1674
 1206SOL    HW2 4868   4.546   0.043   2.315 -0.8664 -1.6964 -0.8981
 1206SOL    HW3 4869   4.473   0.084   2.189 -1.5378  0.2399  0.0938
 1206SOL    MW4 4870   4.479   0.083   2.276 -0.4158  0.0228  0.0172
 1207SOL     OW 4871   0.012   0.343   2.394  0.4311  0.1788  0.4284
 1207SOL    HW2 4872   0.074   0.396   2.344 -0.4586  1.3006  0.5014
 1207SOL    HW3 4873   0.006   0.261   2.344  0.9110  0.5945 -0.3326
 1207SOL    MW4 4874   0.020   0.339   2.381  0.3767  0.3817  0.3374
 1208SOL     OW 4875   0.195   0.527   2.275 -0.0450 -0.0743  0.0240
 1208SOL    HW2 4876   0.280   0.487   2.295  0.2086  0.7168  0.5221
 1208SOL    HW3 4877   0.189   0.524   2.180  0.8928  0.6025 -0.0558
 1208SOL    MW4 4878   0.205   0.521   2.265  0.1122  0.1194  0.0794
 1209SOL     OW 4879   0.218   0.783   2.367  0.0189 -0.6264  0.0535
 1209SOL    HW2 4880   0.224   0.766   2.461 -1.8705 -1.6162  0.0310
 1209SOL    HW3 4881   0.204   0.696   2.329  1.3755 -0.2961 -1.2045
 1209SOL    MW4 4882   0.217   0.769   2.375 -0.0514 -0.7134 -0.1154
 1210SOL     OW 4883   4.480   0.885   2.281  0.1697 -0.0280  0.2258
 1210SOL    HW2 4884   4.564   0.854   2.313  1.0049  1.2434 -0.6931
 1210SOL    HW3 4885   4.495   0.904   2.188 -0.8713  1.1560  0.2885
 1210SOL    MW4 4886   4.493   0.883   2.273  0.1421  0.2959  0.1128
 1211SOL     OW 4887   0.017   1.156   2.382  0.2382 -0.1714 -0.0828
 1211SOL    HW2 4888   0.001   1.150   2.476 -0.0340 -0.6358 -0.1569
 1211SOL    HW3 4889   0.011   1.066   2.350  2.0725 -0.2330 -0.2780
 1211SOL    MW4 4890   0.014   1.143   2.390  0.4443 -0.2407 -0.1183
 1212SOL     OW 4891   0.259   1.275   2.279 -0.2622  0.0095 -0.1118
 1212SOL    HW2 4892   0.181   1.231   2.313 -1.7068  1.8837 -0.9438
 1212SOL    HW3 4893   0.253   1.263   2.184  1.2246 -1.0404 -0.0980
 1212SOL    MW4 4894   0.248   1.267   2.271 -0.2566  0.1181 -0.2198
 1213SOL     OW 4895   0.201   1.556   2.378 -0.3293 -0.6763 -0.4261
 1213SOL    HW2 4896   0.219   1.530   2.468 -0.5721 -1.1939 -0.5232
 1213SOL    HW3 4897   0.196   1.474   2.330  1.6199 -0.3235 -1.2747
 1213SOL    MW4 4898   0.202   1.542   2.384 -0.1042 -0.6980 -0.5512
 1214SOL     OW 4899   4.473   1.696   2.277  0.1579 -0.1851  0.2509
 1214SOL    HW2 4900   4.478   1.785   2.311  2.3016 -0.0316 -0.4295
 1214SOL    HW3 4901   4.547   1.650   2.318  0.3485 -1.0706 -1.0687
 1214SOL    MW4 4902   4.483   1.701   2.287  0.4659 -0.2818 -0.0129
 1215SOL     OW 4903   4.481   1.938   2.384  0.0827  0.3004 -0.3991
 1215SOL    HW2 4904   4.412   1.985   2.339  0.3417  0.1196 -0.9911
 1215SOL    HW3 4905   4.562   1.977   2.352  0.3322 -1.1336 -1.5833
 1215SOL    MW4 4906   4.483   1.949   2.374  0.1502  0.0874 -0.6335
 1216SOL     OW 4907   0.249   2.064   2.257 -0.2612 -0.4772 -0.2485
 1216SOL    HW2 4908   0.319   2.015   2.300 -0.6114  0.1588  1.0535
 1216SOL    HW3 4909   0.263   2.047   2.164  1.1881 -0.9406  0.0318
 1216SOL    MW4 4910   0.260   2.055   2.250 -0.1161 -0.4544 -0.0398
 1217SOL     OW 4911   0.204   2.324   2.343  0.2167 -0.1678  0.5223
 1217SOL    HW2 4912   0.202   2.317   2.439 -0.9958 -2.3556  0.3561
 1217SOL    HW3 4913   0.234   2.239   2.313  0.1213  0.3449 -1.0858
 1217SOL    MW4 4914   0.208   2.312   2.352  0.0441 -0.3889  0.2882
 1218SOL     OW 4915   4.455   2.415   2.220 -0.4157  0.1577  0.4756
 1218SOL    HW2 4916   4.445   2.505   2.249 -0.6503 -0.1404  1.3354
 1218SOL    HW3 4917   4.535   2.384   2.263 -0.0183  0.1293 -0.2676
 1218SOL    MW4 4918   4.465   2.423   2.230 -0.3934  0.1144  0.4909
 1219SOL     OW 4919   4.425   2.675   2.362 -0.0569  0.1651 -0.2258
 1219SOL    HW2 4920   4.421   2.677   2.458 -0.9072 -0.0653 -0.2514
 1219SOL    HW3 4921   4.510   2.713   2.341 -0.4860  1.5751  0.5647
 1219SOL    MW4 4922   4.436   2.680   2.372 -0.2255  0.3209 -0.1249
 1220SOL     OW 4923   0.195   2.791   2.301 -0.1731  0.2311 -0.2054
 1220SOL    HW2 4924   0.284   2.776   2.331 -0.3921 -1.1877 -0.2177
 1220SOL    HW3 4925   0.202   2.796   2.206 -0.1426 -0.1453 -0.2231
 1220SOL    MW4 4926   0.207   2.790   2.293 -0.1980 -0.0057 -0.2096
 1221SOL     OW 4927   0.207   3.068   2.389  0.3674  0.2287 -0.0917
 1221SOL    HW2 4928   0.122   3.106   2.368 -0.1532 -0.1703  1.1921
 1221SOL    HW3 4929   0.202   2.978   2.356 -0.3701 -0.3332  1.4950
 1221SOL    MW4 4930   0.195   3.061   2.382  0.2014  0.1020  0.2871
 1222SOL     OW 4931   4.465   3.187   2.284 -0.0117  0.0251 -0.3241
 1222SOL    HW2 4932   4.475   3.278   2.313  0.6157 -0.4249  0.9235
 1222SOL    HW3 4933   4.480   3.190   2.190  2.9859  0.7935  0.1252
 1222SOL    MW4 4934   4.469   3.199   2.276  0.4666  0.0670 -0.0999
 1223SOL     OW 4935   4.489   3.455   2.376 -0.7390 -0.2597 -0.2168
 1223SOL    HW2 4936   4.499   3.464   2.470  0.2962 -2.5297 -0.0764
 1223SOL    HW3 4937   4.399   3.482   2.358 -0.7958  0.6085  1.3517
 1223SOL    MW4 4938   4.478   3.460   2.386 -0.6099 -0.4447  0.0088
 1224SOL     OW 4939   0.191   3.613   2.264 -0.0319  0.5506 -0.0306
 1224SOL    HW2 4940   0.266   3.570   2.305 -0.3634  1.0185  1.0925
 1224SOL    HW3 4941   0.117   3.557   2.283 -0.1324  0.6040 -0.2650
 1224SOL    MW4 4942   0.191   3.600   2.272 -0.0889  0.6192  0.0865
 1225SOL     OW 4943   0.224   3.875   2.357  0.1693  0.3254  0.0952
 1225SOL    HW2 4944   0.153   3.926   2.319 -0.2583  0.2627  0.8094
 1225SOL    HW3 4945   0.214   3.788   2.318 -0.0664  0.3534  0.0931
 1225SOL    MW4 4946   0.213   3.870   2.347  0.0818  0.3209  0.1891
 1226SOL     OW 4947   0.000   4.001   2.258  0.0955  0.3682  0.2905
 1226SOL    HW2 4948   0.007   4.020   2.164 -0.2176 -0.2762  0.1322
 1226SOL    HW3 4949  -0.014   4.086   2.299  1.1533  0.7678 -0.1522
 1226SOL    MW4 4950  -0.001   4.014   2.251  0.1938  0.3352  0.2112
 1227SOL     OW 4951   4.483   4.252   2.374 -0.2297  0.0404 -0.4952
 1227SOL    HW2 4952   4.496   4.281   2.464 -0.1872 -1.3577 -0.0450
 1227SOL    HW3 4953   4.564   4.276   2.329 -0.8689  2.1813 -0.5569
 1227SOL    MW4 4954   4.495   4.259   2.380 -0.3084  0.1388 -0.4439
 1228SOL     OW 4955   0.225   4.356   2.273 -0.6535 -0.2331  0.5762
 1228SOL    HW2 4956   0.284   4.314   2.336  0.4059 -0.9725 -0.8783
 1228SOL    HW3 4957   0.243   4.449   2.282 -0.2024 -0.3632  1.0792
 1228SOL    MW4 4958   0.235   4.362   2.283 -0.4542 -0.3476  0.4506
 1229SOL     OW 4959   0.629   4.655   2.375  0.2900  0.1222  0.3379
 1229SOL    HW2 4960   0.629   4.656   2.470 -1.5059 -1.1120  0.3666
 1229SOL    HW3 4961   0.712   4.695   2.350  0.4897  0.9962  2.4105
 1229SOL    MW4 4962   0.640   4.660   2.384  0.0794  0.0749  0.6151
 1230SOL     OW 4963   0.428   0.149   2.273  0.0682 -0.6737  0.0287
 1230SOL    HW2 4964   0.496   0.094   2.311  0.0957 -0.8923 -0.3369
 1230SOL    HW3 4965   0.432   0.131   2.179  0.5148  0.4281 -0.1765
 1230SOL    MW4 4966   0.438   0.140   2.266  0.1308 -0.5572 -0.0463
 1231SOL     OW 4967   0.431   0.405   2.343  0.2738 -0.4272 -0.2262
 1231SOL    HW2 4968   0.438   0.406   2.439  1.1315 -0.0212 -0.2908
 1231SOL    HW3 4969   0.425   0.312   2.321  0.2476 -0.5328  0.2113
 1231SOL    MW4 4970   0.431   0.393   2.353  0.3835 -0.3876 -0.1771
 1232SOL     OW 4971   0.684   0.496   2.264  0.2618  0.4098 -0.1953
 1232SOL    HW2 4972   0.685   0.590   2.280 -0.2838  0.4247 -0.2358
 1232SOL    HW3 4973   0.599   0.467   2.297 -0.1770  0.1587 -1.5336
 1232SOL    MW4 4974   0.673   0.504   2.271  0.1319  0.3787 -0.3772
 1233SOL     OW 4975   0.693   0.770   2.342  0.3558 -0.4075  0.1662
 1233SOL    HW2 4976   0.676   0.760   2.435  0.0581 -0.7532  0.0764
 1233SOL    HW3 4977   0.612   0.807   2.307  0.7937  0.5798  0.1942
 1233SOL    MW4 4978   0.680   0.774   2.349  0.3743 -0.3228  0.1578
 1234SOL     OW 4979   0.450   0.881   2.267  0.1477  0.0719  0.0109
 1234SOL    HW2 4980   0.370   0.841   2.302  0.5254  0.9509  1.9643
 1234SOL    HW3 4981   0.442   0.871   2.173 -1.6281 -1.0763  0.2438
 1234SOL    MW4 4982   0.438   0.874   2.260 -0.0367  0.0364  0.2995
 1235SOL     OW 4983   0.491   1.151   2.368  0.5165 -0.6604 -0.1262
 1235SOL    HW2 4984   0.469   1.061   2.343  1.2379 -0.5763 -1.0717
 1235SOL    HW3 4985   0.421   1.204   2.331  0.3201 -0.7852  0.0638
 1235SOL    MW4 4986   0.479   1.146   2.360  0.5858 -0.6658 -0.2260
 1236SOL     OW 4987   0.698   1.282   2.250  0.4551 -0.3289  0.1100
 1236SOL    HW2 4988   0.697   1.364   2.300 -1.3053  0.5791 -1.3546
 1236SOL    HW3 4989   0.641   1.223   2.299 -0.0648  0.0662 -0.0131
 1236SOL    MW4 4990   0.690   1.285   2.263  0.1543 -0.1568 -0.0992
 1237SOL     OW 4991   0.664   1.522   2.369  0.1324 -0.2074 -0.8114
 1237SOL    HW2 4992   0.662   1.519   2.465 -3.0342  0.3130 -0.8180
 1237SOL    HW3 4993   0.728   1.591   2.349 -0.7731  1.1905  0.9582
 1237SOL    MW4 4994   0.672   1.531   2.379 -0.4048  0.0458 -0.5789
 1238SOL     OW 4995   0.437   1.659   2.276 -0.1231  0.3477 -0.8558
 1238SOL    HW2 4996   0.501   1.606   2.324 -1.2117  0.1859  0.4475
 1238SOL    HW3 4997   0.352   1.621   2.299 -0.8177  1.6729 -1.1635
 1238SOL    MW4 4998   0.434   1.647   2.285 -0.3583  0.5010 -0.7243
 1239SOL     OW 4999   0.460   1.910   2.389  0.0697  0.2346 -0.2852
 1239SOL    HW2 5000   0.532   1.943   2.336  0.1869 -1.0435 -0.9434
 1239SOL    HW3 5001   0.444   1.821   2.356 -1.8329  0.5109 -0.1862
 1239SOL    MW4 5002   0.467   1.902   2.378 -0.1659  0.1024 -0.3591
 1240SOL     OW 5003   0.640   2.021   2.219  0.6479  0.3000  0.5490
 1240SOL    HW2 5004   0.720   2.001   2.268 -0.1732 -1.5255  1.2272
 1240SOL    HW3 5005   0.608   2.103   2.257  1.1757  0.0283  1.6079
 1240SOL    MW4 5006   0.646   2.029   2.231  0.6092  0.0234  0.7782
 1241SOL     OW 5007   0.615   2.273   2.334  0.8090 -0.3455 -0.3958
 1241SOL    HW2 5008   0.621   2.278   2.430 -0.7411  0.1314 -0.3203
 1241SOL    HW3 5009   0.687   2.328   2.303  1.2196 -0.3645  0.4940
 1241SOL    MW4 5010   0.626   2.281   2.343  0.6587 -0.2849 -0.2682
 1242SOL     OW 5011   0.429   2.475   2.266 -0.0373 -0.6124  0.1097
 1242SOL    HW2 5012   0.492   2.406   2.287 -0.1452 -0.4636  0.9564
 1242SOL    HW3 5013   0.345   2.441   2.296 -0.1069 -0.1612  0.4454
 1242SOL    MW4 5014   0.426   2.462   2.273 -0.0607 -0.5336  0.2656
 1243SOL     OW 5015   0.455   2.734   2.373  0.5155 -0.0197 -0.2996
 1243SOL    HW2 5016   0.443   2.717   2.467  1.2222  0.3520 -0.1380
 1243SOL    HW3 5017   0.454   2.647   2.333  0.6162 -0.2092  0.1050
 1243SOL    MW4 5018   0.453   2.720   2.380  0.6221  0.0043 -0.2246
 1244SOL     OW 5019   0.679   2.846   2.255  0.4861  0.3471 -0.3931
 1244SOL    HW2 5020   0.746   2.790   2.292 -0.1577  0.0049  0.2614
 1244SOL    HW3 5021   0.597   2.817   2.296 -0.0334  0.8895 -1.0271
 1244SOL    MW4 5022   0.677   2.835   2.265  0.3326  0.3736 -0.3905
 1245SOL     OW 5023   0.689   3.108   2.349 -0.1198  0.0062  0.6605
 1245SOL    HW2 5024   0.605   3.145   2.318  0.2655  0.1528 -0.2301
 1245SOL    HW3 5025   0.684   3.016   2.326  0.2103  0.1359  0.0754
 1245SOL    MW4 5026   0.677   3.101   2.342 -0.0254  0.0424  0.4659
 1246SOL     OW 5027   0.442   3.195   2.279  0.1134  0.2753  0.0621
 1246SOL    HW2 5028   0.364   3.143   2.299 -0.4899  1.6699  1.4081
 1246SOL    HW3 5029   0.442   3.200   2.183 -1.3029  0.0162  0.0252
 1246SOL    MW4 5030   0.431   3.189   2.269 -0.1530  0.4251  0.2348
 1247SOL     OW 5031   0.411   3.479   2.346 -0.1782 -0.4872 -0.1810
 1247SOL    HW2 5032   0.477   3.539   2.313 -1.9714  0.2334 -2.5665
 1247SOL    HW3 5033   0.439   3.393   2.315  0.3769 -0.3761  0.0099
 1247SOL    MW4 5034   0.424   3.475   2.338 -0.3416 -0.3774 -0.4709
 1248SOL     OW 5035   0.635   3.644   2.253  0.0978  0.1232 -0.4814
 1248SOL    HW2 5036   0.663   3.731   2.280  0.1535  0.4192 -1.4895
 1248SOL    HW3 5037   0.655   3.639   2.160  0.8510 -1.2647 -0.2616
 1248SOL    MW4 5038   0.641   3.655   2.245  0.2046 -0.0207 -0.5853
 1249SOL     OW 5039   0.694   3.896   2.346 -0.1931 -0.3672  0.1173
 1249SOL    HW2 5040   0.685   3.897   2.441  1.8073  0.1660  0.3083
 1249SOL    HW3 5041   0.610   3.931   2.314 -0.0249  1.5633  1.7454
 1249SOL    MW4 5042   0.682   3.901   2.354  0.0930 -0.0422  0.3572
 1250SOL     OW 5043   0.452   4.008   2.273  0.0507 -0.0983  0.3612
 1250SOL    HW2 5044   0.376   3.964   2.309 -0.9876  0.9554 -0.5132
 1250SOL    HW3 5045   0.434   4.017   2.180  0.6929  1.2324  0.3456
 1250SOL    MW4 5046   0.440   4.004   2.266 -0.0015  0.2160  0.2439
 1251SOL     OW 5047   0.454   4.253   2.384  0.3639 -0.5922 -0.1751
 1251SOL    HW2 5048   0.534   4.298   2.356 -0.5432  1.0132 -0.2392
 1251SOL    HW3 5049   0.456   4.169   2.338  1.3542 -0.0205 -1.1916
 1251SOL    MW4 5050   0.465   4.248   2.374  0.3749 -0.3052 -0.3176
 1252SOL     OW 5051   0.670   4.381   2.288  0.0650 -0.3976  0.3560
 1252SOL    HW2 5052   0.665   4.472   2.318  0.9087 -0.0781 -0.4314
 1252SOL    HW3 5053   0.670   4.387   2.193 -0.0461 -1.2364  0.2983
 1252SOL    MW4 5054   0.670   4.394   2.280  0.1616 -0.4663  0.2446
 1253SOL     OW 5055   1.092   4.648   2.375  0.2530 -0.1012 -0.0287
 1253SOL    HW2 5056   1.074   4.653   2.469  0.2047  0.1163 -0.0508
 1253SOL    HW3 5057   1.025   4.702   2.334  0.2712 -0.1995 -0.1901
 1253SOL    MW4 5058   1.081   4.656   2.382  0.2490 -0.0858 -0.0527
 1254SOL     OW 5059   0.862   0.127   2.297 -0.3696  0.1229 -0.1767
 1254SOL    HW2 5060   0.878   0.216   2.328  1.4837 -0.2459 -0.0289
 1254SOL    HW3 5061   0.854   0.135   2.202  0.2352  0.3916 -0.2048
 1254SOL    MW4 5062   0.863   0.140   2.289 -0.0454  0.1096 -0.1609
 1255SOL     OW 5063   0.901   0.387   2.393  0.2641 -0.5146  0.1457
 1255SOL    HW2 5064   0.977   0.410   2.339 -0.5208 -0.6143 -1.0335
 1255SOL    HW3 5065   0.828   0.433   2.351 -0.4832 -1.2131  0.6771
 1255SOL    MW4 5066   0.901   0.396   2.380  0.0619 -0.6199  0.0603
 1256SOL     OW 5067   1.113   0.483   2.235 -0.3214 -0.0797 -0.0291
 1256SOL    HW2 5068   1.198   0.446   2.258 -0.8090 -1.0985  0.1844
 1256SOL    HW3 5069   1.111   0.482   2.139  0.3990  1.1061 -0.0618
 1256SOL    MW4 5070   1.124   0.478   2.225 -0.2905 -0.0577 -0.0052
 1257SOL     OW 5071   1.144   0.732   2.356 -0.4119 -0.2448 -0.0236
 1257SOL    HW2 5072   1.077   0.792   2.323 -0.9644 -0.2619  1.0326
 1257SOL    HW3 5073   1.127   0.650   2.310 -0.6467 -0.0272 -0.3245
 1257SOL    MW4 5074   1.133   0.729   2.346 -0.5158 -0.2183  0.0758
 1258SOL     OW 5075   0.930   0.889   2.271 -0.2479 -0.3081 -0.4967
 1258SOL    HW2 5076   0.931   0.981   2.296  1.3927 -0.4596  0.0359
 1258SOL    HW3 5077   0.844   0.857   2.300 -0.9821  1.1312 -1.0377
 1258SOL    MW4 5078   0.919   0.897   2.278 -0.1284 -0.1382 -0.4976
 1259SOL     OW 5079   0.915   1.135   2.344  0.2426  0.3140  0.1947
 1259SOL    HW2 5080   0.993   1.185   2.319  0.6505  0.2644  1.3336
 1259SOL    HW3 5081   0.843   1.178   2.297  0.7752  1.1220  0.0989
 1259SOL    MW4 5082   0.916   1.147   2.334  0.3667  0.4140  0.3324
 1260SOL     OW 5083   1.140   1.273   2.271  0.0137 -0.2350  0.1050
 1260SOL    HW2 5084   1.222   1.232   2.298  0.0773  0.2327  0.6272
 1260SOL    HW3 5085   1.137   1.259   2.176  0.0524 -1.4064  0.2617
 1260SOL    MW4 5086   1.151   1.266   2.262  0.0273 -0.3279  0.1948
 1261SOL     OW 5087   1.112   1.533   2.372  0.2456  0.5730  0.2848
 1261SOL    HW2 5088   1.035   1.585   2.347 -0.7150  0.0676  2.1132
 1261SOL    HW3 5089   1.097   1.449   2.328 -1.4214 -0.2967  2.4115
 1261SOL    MW4 5090   1.100   1.529   2.363 -0.1011  0.3916  0.8068
 1262SOL     OW 5091   0.868   1.690   2.293 -0.2555 -0.0672 -0.5596
 1262SOL    HW2 5092   0.853   1.777   2.329 -0.5603 -0.1749 -0.4167
 1262SOL    HW3 5093   0.879   1.704   2.199 -1.2974  0.0251 -0.6792
 1262SOL    MW4 5094   0.867   1.703   2.285 -0.4331 -0.0691 -0.5567
 1263SOL     OW 5095   0.857   1.971   2.350  0.3728 -0.2679 -0.1595
 1263SOL    HW2 5096   0.854   1.974   2.445 -0.8819  0.2376 -0.2042
 1263SOL    HW3 5097   0.945   2.003   2.328  0.8185 -0.7886  0.8349
 1263SOL    MW4 5098   0.868   1.976   2.359  0.2660 -0.2698 -0.0343
 1264SOL     OW 5099   1.087   2.081   2.255 -0.4099  0.5148 -0.0850
 1264SOL    HW2 5100   1.166   2.046   2.296 -0.1981  1.1628  0.0695
 1264SOL    HW3 5101   1.101   2.068   2.161 -1.2549 -1.7230  0.0693
 1264SOL    MW4 5102   1.099   2.075   2.248 -0.4936  0.3049 -0.0443
 1265SOL     OW 5103   1.083   2.332   2.369 -0.5821 -0.2104  0.2740
 1265SOL    HW2 5104   1.077   2.243   2.333  0.2235  0.3917 -1.3722
 1265SOL    HW3 5105   1.159   2.371   2.326 -1.4570  1.5870  0.3145
 1265SOL    MW4 5106   1.092   2.325   2.359 -0.5912  0.1063  0.0625
 1266SOL     OW 5107   0.833   2.422   2.246  0.1815 -0.1290 -0.1331
 1266SOL    HW2 5108   0.910   2.384   2.288  0.9456 -0.3966 -1.7326
 1266SOL    HW3 5109   0.851   2.416   2.152 -0.9718  1.5025 -0.4939
 1266SOL    MW4 5110   0.846   2.416   2.239  0.1301  0.0510 -0.3917
 1267SOL     OW 5111   0.865   2.687   2.353  0.3127  0.1530 -0.2181
 1267SOL    HW2 5112   0.862   2.675   2.448  0.5869 -0.2687 -0.2595
 1267SOL    HW3 5113   0.844   2.600   2.318  2.3417 -0.2269 -0.5305
 1267SOL    MW4 5114   0.862   2.674   2.361  0.6166  0.0472 -0.2649
 1268SOL     OW 5115   1.111   2.834   2.253 -0.1813 -0.4333 -0.0258
 1268SOL    HW2 5116   1.186   2.786   2.288  1.1830  0.2633 -1.8576
 1268SOL    HW3 5117   1.035   2.782   2.277  1.2351 -3.5050 -1.9284
 1268SOL    MW4 5118   1.111   2.821   2.261  0.1856 -0.7470 -0.5186
 1269SOL     OW 5119   1.130   3.102   2.360 -0.1965  0.3074  0.6244
 1269SOL    HW2 5120   1.043   3.133   2.336 -0.0365 -0.6792 -1.4182
 1269SOL    HW3 5121   1.131   3.011   2.329  1.2572  0.0549  1.4048
 1269SOL    MW4 5122   1.119   3.094   2.353  0.0165  0.1440  0.4580
 1270SOL     OW 5123   0.904   3.238   2.239 -0.2435  0.0636  0.0747
 1270SOL    HW2 5124   0.894   3.327   2.272  0.8173  0.0325  0.5084
 1270SOL    HW3 5125   0.833   3.189   2.281 -0.4511  0.5646  0.3158
 1270SOL    MW4 5126   0.893   3.243   2.249 -0.1310  0.1259  0.1638
 1271SOL     OW 5127   0.880   3.500   2.344 -0.1980  0.0002 -0.3239
 1271SOL    HW2 5128   0.884   3.496   2.440  1.0327  1.4338 -0.2962
 1271SOL    HW3 5129   0.801   3.551   2.325  1.3848  2.7068  0.0434
 1271SOL    MW4 5130   0.870   3.506   2.354  0.1732  0.5462 -0.2716
 1272SOL     OW 5131   1.129   3.588   2.214 -0.1046  0.5975  0.4887
 1272SOL    HW2 5132   1.206   3.569   2.268 -0.2816 -0.1070  0.5020
 1272SOL    HW3 5133   1.056   3.546   2.260 -0.0916 -0.9287 -0.8422
 1272SOL    MW4 5134   1.129   3.580   2.227 -0.1262  0.3030  0.3147
 1273SOL     OW 5135   1.111   3.850   2.296  0.4142 -0.2056  0.4767
 1273SOL    HW2 5136   1.190   3.900   2.275 -0.3624 -0.1347 -2.5714
 1273SOL    HW3 5137   1.125   3.765   2.256 -2.0938  0.6805 -2.4821
 1273SOL    MW4 5138   1.123   3.846   2.288 -0.0193 -0.0796 -0.3159
 1274SOL     OW 5139   0.912   4.014   2.217 -0.2443 -0.1161  0.2690
 1274SOL    HW2 5140   0.980   3.958   2.254 -0.0980 -0.3067 -0.2859
 1274SOL    HW3 5141   0.830   3.974   2.245 -0.1352  0.5959  1.6627
 1274SOL    MW4 5142   0.910   4.001   2.225 -0.2106 -0.0472  0.3796
 1275SOL     OW 5143   0.923   4.264   2.334 -0.6624 -0.0809  0.4128
 1275SOL    HW2 5144   0.930   4.177   2.294  0.4002 -0.0812  0.5879
 1275SOL    HW3 5145   0.833   4.292   2.315  0.1151  0.3604 -2.8848
 1275SOL    MW4 5146   0.912   4.256   2.326 -0.4197 -0.0229  0.0010
 1276SOL     OW 5147   1.133   4.414   2.220 -0.0371  0.4041 -0.2357
 1276SOL    HW2 5148   1.051   4.372   2.246  0.0268  1.4085  1.6930
 1276SOL    HW3 5149   1.133   4.498   2.267  2.9555 -0.3830  1.3254
 1276SOL    MW4 5150   1.123   4.419   2.230  0.3661  0.4334  0.2248
 1277SOL     OW 5151   1.563   0.017   2.368  0.1161  0.4651  0.4009
 1277SOL    HW2 5152   1.636   0.062   2.327  0.5255  0.5704  1.2503
 1277SOL    HW3 5153   1.485   0.061   2.333  0.4482  0.3694 -0.4763
 1277SOL    MW4 5154   1.562   0.029   2.358  0.2140  0.4663  0.3974
 1278SOL     OW 5155   1.315   0.110   2.271  0.2270 -0.3917  0.0254
 1278SOL    HW2 5156   1.321   0.201   2.301 -0.6640 -0.1740 -0.4203
 1278SOL    HW3 5157   1.236   0.076   2.313  1.0752 -1.2580  0.9409
 1278SOL    MW4 5158   1.305   0.118   2.280  0.2213 -0.4773  0.0873
 1279SOL     OW 5159   1.340   0.382   2.346  0.7531  0.3347  0.3229
 1279SOL    HW2 5160   1.347   0.375   2.442  1.4130  0.6883  0.3010
 1279SOL    HW3 5161   1.408   0.444   2.321  1.1623 -0.4274 -0.4670
 1279SOL    MW4 5162   1.350   0.389   2.356  0.8941  0.2809  0.2160
 1280SOL     OW 5163   1.563   0.508   2.239 -0.5155  0.0758 -0.1733
 1280SOL    HW2 5164   1.644   0.459   2.252 -0.1841  0.4905 -0.6756
 1280SOL    HW3 5165   1.543   0.498   2.146 -1.0429 -0.0255 -0.0503
 1280SOL    MW4 5166   1.571   0.500   2.229 -0.5414  0.1171 -0.2232
 1281SOL     OW 5167   1.609   0.752   2.363  0.0937 -0.2277 -0.3460
 1281SOL    HW2 5168   1.679   0.790   2.310  0.4139 -0.3968 -0.0393
 1281SOL    HW3 5169   1.590   0.669   2.320 -0.3960  0.1304 -0.8354
 1281SOL    MW4 5170   1.616   0.746   2.350  0.0713 -0.2027 -0.3698
 1282SOL     OW 5171   1.366   0.888   2.248 -0.3027  0.2152 -0.4460
 1282SOL    HW2 5172   1.444   0.842   2.282  0.2868  0.7931 -1.0187
 1282SOL    HW3 5173   1.294   0.852   2.300  0.3302 -0.3853  0.0407
 1282SOL    MW4 5174   1.367   0.877   2.259 -0.1416  0.2122 -0.4573
 1283SOL     OW 5175   1.382   1.170   2.325 -0.2321  0.3147 -0.3262
 1283SOL    HW2 5176   1.379   1.171   2.421  1.5530 -0.0461 -0.2651
 1283SOL    HW3 5177   1.360   1.080   2.301 -1.7134  0.6473 -0.3237
 1283SOL    MW4 5178   1.378   1.159   2.335 -0.1920  0.3109 -0.3178
 1284SOL     OW 5179   1.613   1.284   2.182 -0.1733 -0.2533 -0.0629
 1284SOL    HW2 5180   1.541   1.244   2.232 -0.6140  0.5292 -0.0609
 1284SOL    HW3 5181   1.594   1.262   2.091 -0.3190 -0.2026 -0.0451
 1284SOL    MW4 5182   1.601   1.276   2.177 -0.2506 -0.1434 -0.0603
 1285SOL     OW 5183   1.538   1.526   2.299  0.1854 -0.1504 -0.3963
 1285SOL    HW2 5184   1.624   1.567   2.295  0.4894 -0.6956  0.3013
 1285SOL    HW3 5185   1.543   1.451   2.239 -0.3357  0.7581 -1.5920
 1285SOL    MW4 5186   1.550   1.521   2.291  0.1570 -0.1026 -0.4618
 1286SOL     OW 5187   1.312   1.696   2.311  0.1738  0.3975 -0.3799
 1286SOL    HW2 5188   1.389   1.643   2.331  0.6223  1.8445  1.9535
 1286SOL    HW3 5189   1.239   1.648   2.349  0.3523  0.5761  0.1972
 1286SOL    MW4 5190   1.313   1.683   2.319  0.2564  0.6120  0.0038
 1287SOL     OW 5191   1.305   1.974   2.380 -0.3087 -0.0796 -0.0205
 1287SOL    HW2 5192   1.389   2.006   2.347  0.3588 -0.0638  1.6314
 1287SOL    HW3 5193   1.305   1.881   2.359  0.1233 -0.0809 -0.0281
 1287SOL    MW4 5194   1.316   1.966   2.373 -0.1636 -0.0777  0.1965
 1288SOL     OW 5195   1.533   2.057   2.250  0.4265 -0.0518  0.0258
 1288SOL    HW2 5196   1.613   2.019   2.287  0.3898 -1.9562 -1.7704
 1288SOL    HW3 5197   1.549   2.058   2.156 -1.2707  0.5433 -0.2632
 1288SOL    MW4 5198   1.546   2.052   2.243  0.1978 -0.2244 -0.2494
 1289SOL     OW 5199   1.568   2.328   2.323  0.1002  0.4841  0.0918
 1289SOL    HW2 5200   1.565   2.326   2.419 -0.1123 -2.0146  0.0725
 1289SOL    HW3 5201   1.566   2.236   2.297  0.5382  1.1160 -2.3171
 1289SOL    MW4 5202   1.567   2.316   2.332  0.1299  0.2377 -0.2284
 1290SOL     OW 5203   1.315   2.432   2.227  0.1569  0.4460  0.1106
 1290SOL    HW2 5204   1.397   2.394   2.259  1.0435  1.1639 -1.2681
 1290SOL    HW3 5205   1.319   2.421   2.132 -2.3256 -1.4454  0.1629
 1290SOL    MW4 5206   1.326   2.425   2.219 -0.0538  0.2911 -0.0644
 1291SOL     OW 5207   1.340   2.697   2.329  0.0556 -0.6831  0.5598
 1291SOL    HW2 5208   1.428   2.734   2.328 -0.1074 -0.2785  1.6025
 1291SOL    HW3 5209   1.352   2.608   2.295  1.0348 -1.0048  1.7272
 1291SOL    MW4 5210   1.353   2.690   2.324  0.1632 -0.6723  0.8514
 1292SOL     OW 5211   1.586   2.806   2.284  0.3643 -0.4002  0.7336
 1292SOL    HW2 5212   1.590   2.896   2.316  0.1369 -0.7993  1.9222
 1292SOL    HW3 5213   1.573   2.814   2.189  0.8940  0.8121  0.7563
 1292SOL    MW4 5214   1.585   2.819   2.276  0.4041 -0.2930  0.8934
 1293SOL     OW 5215   1.585   3.063   2.350 -0.1727  0.5123  0.2870
 1293SOL    HW2 5216   1.574   3.075   2.444 -1.9242  1.7087 -0.0458
 1293SOL    HW3 5217   1.512   3.111   2.311  0.7727  0.3773 -1.7027
 1293SOL    MW4 5218   1.574   3.071   2.357 -0.2789  0.6526 -0.0193
 1294SOL     OW 5219   1.358   3.216   2.268 -0.1862  0.6818 -0.1624
 1294SOL    HW2 5220   1.271   3.181   2.286  0.3256 -0.9807 -0.8011
 1294SOL    HW3 5221   1.363   3.220   2.172  0.8690 -0.3426 -0.1558
 1294SOL    MW4 5222   1.347   3.212   2.258  0.0206  0.3271 -0.2458
 1295SOL     OW 5223   1.355   3.517   2.361 -0.1876 -0.2091  0.5301
 1295SOL    HW2 5224   1.354   3.521   2.457  0.9957 -1.2087  0.5907
 1295SOL    HW3 5225   1.349   3.423   2.341  1.8147 -0.1664 -0.3317
 1295SOL    MW4 5226   1.354   3.505   2.371  0.2327 -0.3355  0.4241
 1296SOL     OW 5227   1.553   3.614   2.182  0.3651  0.0546  0.4810
 1296SOL    HW2 5228   1.567   3.703   2.215 -0.9258  0.6351 -0.5096
 1296SOL    HW3 5229   1.482   3.579   2.236 -0.3338  0.2601 -0.3043
 1296SOL    MW4 5230   1.546   3.621   2.194  0.1024  0.1585  0.2468
 1297SOL     OW 5231   1.558   3.858   2.336 -0.3065  0.0034 -0.1899
 1297SOL    HW2 5232   1.534   3.852   2.428 -0.8893 -0.4634 -0.3682
 1297SOL    HW3 5233   1.634   3.916   2.334 -0.1880 -0.1288  0.5998
 1297SOL    MW4 5234   1.565   3.865   2.348 -0.3676 -0.0758 -0.1092
 1298SOL     OW 5235   1.338   3.988   2.212 -0.2027 -0.1165 -0.7120
 1298SOL    HW2 5236   1.425   3.959   2.240 -0.4932 -0.4734 -0.1542
 1298SOL    HW3 5237   1.337   3.975   2.118  0.2343 -0.4178 -0.6760
 1298SOL    MW4 5238   1.349   3.983   2.204 -0.1833 -0.2034 -0.6335
 1299SOL     OW 5239   1.347   4.259   2.323  0.0201 -0.0629 -0.0635
 1299SOL    HW2 5240   1.351   4.178   2.273 -0.6699 -0.3334  0.3178
 1299SOL    HW3 5241   1.272   4.306   2.287 -0.6339 -0.3729  0.8829
 1299SOL    MW4 5242   1.338   4.254   2.311 -0.1571 -0.1392  0.1116
 1300SOL     OW 5243   1.571   4.421   2.264  0.6712 -0.7847 -0.0374
 1300SOL    HW2 5244   1.496   4.367   2.289  1.3294 -1.4950  0.4619
 1300SOL    HW3 5245   1.557   4.504   2.308 -0.5890 -0.3697 -1.1817
 1300SOL    MW4 5246   1.559   4.425   2.273  0.5916 -0.8230 -0.1228
 1301SOL     OW 5247   2.043   4.641   2.343  0.3536  0.1054  0.1241
 1301SOL    HW2 5248   2.120   4.685   2.307  0.5667  0.2949  0.7934
 1301SOL    HW3 5249   2.043   4.555   2.302 -0.5930  1.0585 -1.9105
 1301SOL    MW4 5250   2.054   4.636   2.333  0.2568  0.2561 -0.0560
 1302SOL     OW 5251   1.814   0.112   2.244 -0.2691 -0.3059 -0.0974
 1302SOL    HW2 5252   1.816   0.193   2.295 -1.1689 -0.2891 -0.0706
 1302SOL    HW3 5253   1.892   0.064   2.271 -0.3572  0.0254  0.7580
 1302SOL    MW4 5254   1.824   0.116   2.254 -0.3994 -0.2600  0.0188
 1303SOL     OW 5255   1.802   0.381   2.345  0.4368 -0.4465  0.2052
 1303SOL    HW2 5256   1.799   0.378   2.441 -1.7578  1.8182  0.2485
 1303SOL    HW3 5257   1.885   0.425   2.326  1.4678 -1.9986  1.0117
 1303SOL    MW4 5258   1.813   0.387   2.355  0.2834 -0.3525  0.3173
 1304SOL     OW 5259   2.024   0.518   2.265 -0.3357 -0.1292 -0.0564
 1304SOL    HW2 5260   2.020   0.605   2.303  0.2285  0.1123 -0.5378
 1304SOL    HW3 5261   2.101   0.478   2.306 -1.0218 -0.6690  0.7170
 1304SOL    MW4 5262   2.034   0.524   2.276 -0.3517 -0.1686 -0.0179
 1305SOL     OW 5263   2.033   0.784   2.375 -0.3988  0.6117  1.1706
 1305SOL    HW2 5264   2.105   0.823   2.324  0.0510 -0.3739  1.0326
 1305SOL    HW3 5265   1.955   0.804   2.324  0.3384 -2.9286 -1.5811
 1305SOL    MW4 5266   2.032   0.792   2.361 -0.2420  0.0145  0.7894
 1306SOL     OW 5267   1.814   0.883   2.225 -0.1862  0.6739  0.0936
 1306SOL    HW2 5268   1.818   0.970   2.264  0.8685  0.6767 -0.0281
 1306SOL    HW3 5269   1.822   0.897   2.131  1.6492  0.3227  0.1849
 1306SOL    MW4 5270   1.815   0.896   2.218  0.1951  0.6279  0.0896
 1307SOL     OW 5271   1.823   1.150   2.323 -0.4321  0.1573  0.4752
 1307SOL    HW2 5272   1.903   1.190   2.289  0.7548 -1.8074  0.8837
 1307SOL    HW3 5273   1.753   1.191   2.273  1.0086  0.0751 -1.6801
 1307SOL    MW4 5274   1.825   1.160   2.312 -0.0852 -0.1129  0.2446
 1308SOL     OW 5275   2.055   1.279   2.234 -0.2612 -0.3899 -0.3829
 1308SOL    HW2 5276   2.057   1.367   2.271  2.3598 -0.6392  0.1972
 1308SOL    HW3 5277   2.053   1.292   2.139  2.2998  0.3554 -0.3711
 1308SOL    MW4 5278   2.055   1.292   2.226  0.4230 -0.3244 -0.3049
 1309SOL     OW 5279   2.016   1.536   2.332  0.4098 -0.1073 -0.0017
 1309SOL    HW2 5280   2.031   1.551   2.426 -0.4735 -1.7496  0.4119
 1309SOL    HW3 5281   1.924   1.559   2.319  0.7181  0.7999 -0.6237
 1309SOL    MW4 5282   2.006   1.541   2.343  0.3340 -0.2044 -0.0293
 1310SOL     OW 5283   1.778   1.661   2.277  0.1528 -0.1435  0.2310
 1310SOL    HW2 5284   1.771   1.755   2.296 -1.3601 -0.2730  0.3399
 1310SOL    HW3 5285   1.779   1.656   2.182 -0.0008 -0.0317  0.2224
 1310SOL    MW4 5286   1.777   1.673   2.267 -0.0670 -0.1460  0.2441
 1311SOL     OW 5287   1.778   1.952   2.341 -0.3175  0.3054 -0.1883
 1311SOL    HW2 5288   1.769   1.958   2.436 -1.8956  0.3864 -0.3158
 1311SOL    HW3 5289   1.861   1.994   2.321  0.0700  0.1922  1.1721
 1311SOL    MW4 5290   1.788   1.959   2.351 -0.4746  0.3011 -0.0257
 1312SOL     OW 5291   2.004   2.096   2.241  0.0278  0.3668  0.5310
 1312SOL    HW2 5292   2.075   2.043   2.277 -1.7671 -1.2268  1.7755
 1312SOL    HW3 5293   2.010   2.082   2.146 -0.8692 -2.6779  0.8822
 1312SOL    MW4 5294   2.014   2.087   2.233 -0.3276 -0.2453  0.7415
 1313SOL     OW 5295   2.011   2.308   2.393 -0.0803 -0.6033  0.2583
 1313SOL    HW2 5296   2.091   2.346   2.357  0.3310 -0.9206  0.8267
 1313SOL    HW3 5297   1.998   2.226   2.343 -1.6695  0.8687 -1.8514
 1313SOL    MW4 5298   2.019   2.302   2.381 -0.2358 -0.4511  0.0551
 1314SOL     OW 5299   1.815   2.410   2.225 -0.1831 -0.3141 -0.5785
 1314SOL    HW2 5300   1.872   2.353   2.276  0.0660  1.3640  1.0990
 1314SOL    HW3 5301   1.727   2.379   2.244  0.0239 -1.0850 -0.8687
 1314SOL    MW4 5302   1.811   2.398   2.234 -0.1230 -0.1943 -0.3955
 1315SOL     OW 5303   1.812   2.681   2.332 -0.2298 -0.1021  0.7621
 1315SOL    HW2 5304   1.800   2.592   2.298  1.3499  0.2899 -0.9019
 1315SOL    HW3 5305   1.734   2.729   2.302  0.5839 -0.0645 -1.3685
 1315SOL    MW4 5306   1.800   2.676   2.324  0.0859 -0.0453  0.2613
 1316SOL     OW 5307   2.044   2.876   2.315 -0.0492  0.3165 -0.4956
 1316SOL    HW2 5308   2.119   2.820   2.330 -0.2473 -0.3162 -1.7436
 1316SOL    HW3 5309   1.970   2.816   2.307 -0.2149  0.6919 -2.1642
 1316SOL    MW4 5310   2.044   2.861   2.316 -0.0973  0.2825 -0.8802
 1317SOL     OW 5311   1.997   3.148   2.386 -0.4690 -0.0631  0.1887
 1317SOL    HW2 5312   2.079   3.182   2.348 -1.0995  0.8472 -0.3703
 1317SOL    HW3 5313   1.998   3.055   2.364  0.8006 -0.2289  0.8755
 1317SOL    MW4 5314   2.008   3.140   2.378 -0.3848  0.0350  0.2058
 1318SOL     OW 5315   1.776   3.237   2.247 -0.1485  0.3267 -0.1851
 1318SOL    HW2 5316   1.856   3.211   2.292  0.1977  1.2967 -0.2407
 1318SOL    HW3 5317   1.710   3.176   2.279  0.4009  0.1337  0.5847
 1318SOL    MW4 5318   1.778   3.226   2.257 -0.0304  0.4292 -0.0911
 1319SOL     OW 5319   1.773   3.511   2.307 -0.1166 -0.3586  0.5201
 1319SOL    HW2 5320   1.758   3.418   2.288 -0.9942 -0.5120  1.8831
 1319SOL    HW3 5321   1.699   3.556   2.265  0.0587 -0.3162  0.2550
 1319SOL    MW4 5322   1.761   3.505   2.299 -0.2091 -0.3734  0.6649
 1320SOL     OW 5323   2.015   3.662   2.230  0.4029 -0.0314  0.3253
 1320SOL    HW2 5324   1.944   3.610   2.267 -0.4808 -0.0411 -1.3063
 1320SOL    HW3 5325   2.004   3.653   2.135  2.6618 -0.1428  0.0353
 1320SOL    MW4 5326   2.004   3.654   2.222  0.5844 -0.0472  0.0718
 1321SOL     OW 5327   1.996   3.908   2.337  0.2861 -0.0431  0.3365
 1321SOL    HW2 5328   2.009   3.887   2.429  1.1527  0.2075  0.2842
 1321SOL    HW3 5329   2.021   3.828   2.290  0.7918  0.1427  0.2790
 1321SOL    MW4 5330   2.001   3.895   2.343  0.4673  0.0145  0.3221
 1322SOL     OW 5331   1.754   4.034   2.261 -0.6072 -0.1565  0.4345
 1322SOL    HW2 5332   1.833   3.989   2.292  0.3996  1.0773 -0.2606
 1322SOL    HW3 5333   1.758   4.024   2.166  0.2537  2.3359  0.1718
 1322SOL    MW4 5334   1.765   4.027   2.252 -0.3607  0.3347  0.3080
 1323SOL     OW 5335   1.797   4.310   2.354  0.3512  0.0252  0.9388
 1323SOL    HW2 5336   1.778   4.226   2.313  2.9421 -0.3393  0.3788
 1323SOL    HW3 5337   1.718   4.362   2.341 -0.5928 -1.6879 -0.3452
 1323SOL    MW4 5338   1.784   4.306   2.347  0.5684 -0.2489  0.6955
 1324SOL     OW 5339   2.032   4.392   2.208 -0.4580 -0.3047 -0.3715
 1324SOL    HW2 5340   1.951   4.350   2.238 -0.7408  1.1812  1.0274
 1324SOL    HW3 5341   2.019   4.404   2.114 -2.0975  0.4092 -0.0707
 1324SOL    MW4 5342   2.020   4.388   2.200 -0.7117 -0.0148 -0.1476
 1325SOL     OW 5343   2.481   0.007   2.354  0.3056  0.4679 -0.1851
 1325SOL    HW2 5344   2.550   0.063   2.320  1.4525 -0.2432  0.9295
 1325SOL    HW3 5345   2.494  -0.077   2.310  0.5256  0.1556  0.4695
 1325SOL    MW4 5346   2.492   0.003   2.344  0.4857  0.3328  0.0479
 1326SOL     OW 5347   2.232   0.123   2.215  0.0711 -0.1626  0.2595
 1326SOL    HW2 5348   2.220   0.210   2.255  1.1634  0.0797  0.0678
 1326SOL    HW3 5349   2.321   0.098   2.238 -0.4571 -1.5308  0.8655
 1326SOL    MW4 5350   2.242   0.131   2.224  0.1457 -0.3111  0.3145
 1327SOL     OW 5351   2.232   0.377   2.339 -0.2740  0.0167  0.0888
 1327SOL    HW2 5352   2.309   0.428   2.313 -0.1124 -0.4071 -0.2699
 1327SOL    HW3 5353   2.235   0.377   2.435  1.6563 -2.2172  0.0549
 1327SOL    MW4 5354   2.243   0.384   2.349  0.0019 -0.3340  0.0370
 1328SOL     OW 5355   2.451   0.520   2.258 -0.0895  0.4650  0.8192
 1328SOL    HW2 5356   2.530   0.482   2.295  1.0971  0.7732 -1.3219
 1328SOL    HW3 5357   2.465   0.516   2.163 -1.9515  1.9892  0.4631
 1328SOL    MW4 5358   2.463   0.514   2.251 -0.1786  0.7067  0.4897
 1329SOL     OW 5359   2.445   0.772   2.390 -0.1378  0.4743 -0.6583
 1329SOL    HW2 5360   2.522   0.813   2.351  0.3775 -0.7554 -0.9488
 1329SOL    HW3 5361   2.445   0.683   2.356 -1.3008  0.2528 -0.1093
 1329SOL    MW4 5362   2.455   0.766   2.381 -0.2234  0.2828 -0.6239
 1330SOL     OW 5363   2.252   0.894   2.244 -0.0119 -0.3564  0.4057
 1330SOL    HW2 5364   2.259   0.979   2.289 -0.2714  0.6469 -1.4352
 1330SOL    HW3 5365   2.324   0.843   2.282  0.2207  0.7009  1.4640
 1330SOL    MW4 5366   2.263   0.899   2.255 -0.0153 -0.0846  0.3028
 1331SOL     OW 5367   2.289   1.137   2.359 -0.3997  0.0861 -0.6444
 1331SOL    HW2 5368   2.365   1.177   2.318 -0.1438  2.5593  2.0272
 1331SOL    HW3 5369   2.214   1.181   2.319 -0.3253 -0.4188 -1.3452
 1331SOL    MW4 5370   2.289   1.148   2.349 -0.3562  0.3457 -0.3841
 1332SOL     OW 5371   2.504   1.267   2.238 -0.1732 -0.2154 -0.1378
 1332SOL    HW2 5372   2.585   1.220   2.259  0.1084 -0.6054 -2.0794
 1332SOL    HW3 5373   2.517   1.354   2.275  0.0182 -1.0743  1.9228
 1332SOL    MW4 5374   2.516   1.272   2.246 -0.1109 -0.3803 -0.1218
 1333SOL     OW 5375   2.447   1.544   2.343  0.3861  0.2095 -0.2560
 1333SOL    HW2 5376   2.449   1.553   2.438  1.2559 -0.1782 -0.2343
 1333SOL    HW3 5377   2.524   1.592   2.312  1.0600 -1.0955 -0.6335
 1333SOL    MW4 5378   2.458   1.551   2.351  0.5898 -0.0138 -0.3028
 1334SOL     OW 5379   2.235   1.698   2.227 -0.3733 -0.1354 -0.2185
 1334SOL    HW2 5380   2.300   1.651   2.279 -0.3492  1.0490  0.8597
 1334SOL    HW3 5381   2.152   1.657   2.250 -0.2720 -0.1142  0.2049
 1334SOL    MW4 5382   2.233   1.687   2.237 -0.3569  0.0236 -0.0205
 1335SOL     OW 5383   2.224   1.953   2.356 -0.2256  0.4649  0.1276
 1335SOL    HW2 5384   2.306   1.992   2.327 -1.0042  1.3955 -0.8268
 1335SOL    HW3 5385   2.224   1.864   2.319  0.7512  0.1436  0.8794
 1335SOL    MW4 5386   2.235   1.946   2.348 -0.1996  0.5453  0.1009
 1336SOL     OW 5387   2.459   2.062   2.251 -0.0187 -0.3570  0.4022
 1336SOL    HW2 5388   2.538   2.023   2.289  0.6379  0.8670  0.3191
 1336SOL    HW3 5389   2.471   2.053   2.157  0.4750  0.6841  0.3599
 1336SOL    MW4 5390   2.471   2.055   2.244  0.1333 -0.0582  0.3855
 1337SOL     OW 5391   2.499   2.307   2.367  0.3620 -0.1550  0.1965
 1337SOL    HW2 5392   2.574   2.357   2.335  0.3074 -0.6979 -0.7931
 1337SOL    HW3 5393   2.501   2.225   2.317 -1.3269  0.1272 -0.3635
 1337SOL    MW4 5394   2.509   2.303   2.356  0.1318 -0.1893 -0.0076
 1338SOL     OW 5395   2.230   2.442   2.278 -0.0085  0.1145 -0.2169
 1338SOL    HW2 5396   2.245   2.535   2.290  1.3600  0.1445 -1.9117
 1338SOL    HW3 5397   2.303   2.400   2.324 -0.0937 -0.0890 -0.2661
 1338SOL    MW4 5398   2.242   2.449   2.286  0.1609  0.0918 -0.4470
 1339SOL     OW 5399   2.256   2.722   2.347 -0.6855 -0.0325 -0.1372
 1339SOL    HW2 5400   2.281   2.727   2.439  0.0331  0.1470 -0.3448
 1339SOL    HW3 5401   2.319   2.778   2.301 -1.6401  0.6769 -0.6130
 1339SOL    MW4 5402   2.267   2.730   2.353 -0.7167  0.0849 -0.2270
 1340SOL     OW 5403   2.448   2.871   2.214 -0.0696 -0.3325 -0.0127
 1340SOL    HW2 5404   2.530   2.846   2.257  0.2381  0.2878 -0.2265
 1340SOL    HW3 5405   2.464   2.853   2.121  0.0487  0.3751 -0.1300
 1340SOL    MW4 5406   2.461   2.865   2.207 -0.0136 -0.1574 -0.0565
 1341SOL     OW 5407   2.435   3.141   2.312 -0.4068 -0.5216  0.1662
 1341SOL    HW2 5408   2.519   3.171   2.279 -1.2231  2.1684  0.4239
 1341SOL    HW3 5409   2.433   3.048   2.291  2.3440 -0.5001 -0.4094
 1341SOL    MW4 5410   2.446   3.133   2.305 -0.1519 -0.1640  0.1240
 1342SOL     OW 5411   2.198   3.255   2.240  0.9016  0.0705 -0.4270
 1342SOL    HW2 5412   2.205   3.347   2.266  0.7685 -0.4397  1.4754
 1342SOL    HW3 5413   2.277   3.214   2.276  0.4122 -0.7792 -0.3231
 1342SOL    MW4 5414   2.209   3.262   2.248  0.8199 -0.1092 -0.1621
 1343SOL     OW 5415   2.248   3.540   2.285  0.1757  0.1301  0.1233
 1343SOL    HW2 5416   2.257   3.520   2.378 -0.7590 -1.4365 -0.1081
 1343SOL    HW3 5417   2.170   3.595   2.280 -0.0310 -0.1558  0.2112
 1343SOL    MW4 5418   2.239   3.544   2.296  0.0253 -0.1144  0.1042
 1344SOL     OW 5419   2.478   3.666   2.221 -0.1794 -0.0800  0.0867
 1344SOL    HW2 5420   2.476   3.750   2.267  0.8244 -0.2123  0.3984
 1344SOL    HW3 5421   2.395   3.624   2.243 -0.0301  0.1746  1.1788
 1344SOL    MW4 5422   2.467   3.672   2.230 -0.0274 -0.0639  0.2716
 1345SOL     OW 5423   2.487   3.918   2.343 -0.3472  0.4127 -0.1554
 1345SOL    HW2 5424   2.479   3.935   2.437  0.0057 -0.5680  0.0572
 1345SOL    HW3 5425   2.402   3.943   2.307 -0.3641  1.1188  0.3761
 1345SOL    MW4 5426   2.474   3.923   2.351 -0.3033  0.3765 -0.0575
 1346SOL     OW 5427   2.242   3.996   2.252 -0.1640  0.4576  0.3453
 1346SOL    HW2 5428   2.242   4.090   2.267 -2.0820  1.1486 -3.4212
 1346SOL    HW3 5429   2.156   3.966   2.282 -0.2786  0.2140 -0.2238
 1346SOL    MW4 5430   2.231   4.004   2.258 -0.4320  0.5164 -0.2270
 1347SOL     OW 5431   2.260   4.263   2.331  0.0528  0.3381 -0.5919
 1347SOL    HW2 5432   2.233   4.256   2.423 -0.3972 -1.7714 -0.8514
 1347SOL    HW3 5433   2.186   4.305   2.288  0.2063  1.2078 -0.0268
 1347SOL    MW4 5434   2.247   4.267   2.338  0.0136  0.1745 -0.5517
 1348SOL     OW 5435   2.461   4.436   2.213 -0.0886 -0.1196 -0.1412
 1348SOL    HW2 5436   2.537   4.380   2.229 -0.0430  0.4841  1.9161
 1348SOL    HW3 5437   2.387   4.387   2.250 -0.6231 -0.4459 -1.6103
 1348SOL    MW4 5438   2.461   4.422   2.220 -0.1533 -0.0830 -0.0634
 1349SOL     OW 5439   2.910   0.019   2.361 -0.2857  0.2509 -0.3089
 1349SOL    HW2 5440   2.916  -0.076   2.347  1.7641  0.1588  0.9541
 1349SOL    HW3 5441   2.992   0.053   2.326  0.0592  1.2523  1.4016
 1349SOL    MW4 5442   2.922   0.011   2.355  0.0300  0.3709  0.0832
 1350SOL     OW 5443   2.701   0.143   2.237  0.1141  0.1621  0.0332
 1350SOL    HW2 5444   2.700   0.231   2.276  1.3967  0.4107 -0.4578
 1350SOL    HW3 5445   2.769   0.096   2.286 -0.0950 -0.3367 -0.1534
 1350SOL    MW4 5446   2.710   0.149   2.249  0.2556  0.1291 -0.0563
 1351SOL     OW 5447   2.676   0.398   2.345 -0.2926  0.1117 -0.2721
 1351SOL    HW2 5448   2.677   0.393   2.441 -1.0256 -2.4194 -0.3873
 1351SOL    HW3 5449   2.762   0.434   2.323  0.6368 -1.0979  1.2541
 1351SOL    MW4 5450   2.688   0.402   2.355 -0.2666 -0.3818 -0.0861
 1352SOL     OW 5451   2.930   0.493   2.275  0.2885  0.4674  0.2612
 1352SOL    HW2 5452   2.931   0.582   2.309 -0.4598  0.6243 -0.1180
 1352SOL    HW3 5453   2.921   0.504   2.180 -2.5015 -0.0521  0.4357
 1352SOL    MW4 5454   2.929   0.506   2.267 -0.1781  0.4196  0.2344
 1353SOL     OW 5455   2.919   0.764   2.330 -0.0119  0.6093 -0.3451
 1353SOL    HW2 5456   2.907   0.759   2.425  2.6512  0.6344  0.0150
 1353SOL    HW3 5457   2.836   0.801   2.298 -0.3388  2.1467  2.1323
 1353SOL    MW4 5458   2.906   0.769   2.338  0.2964  0.8155  0.0293
 1354SOL     OW 5459   2.661   0.888   2.269  0.1354 -0.1689 -0.2707
 1354SOL    HW2 5460   2.697   0.974   2.293 -0.3881 -0.5022  1.8568
 1354SOL    HW3 5461   2.674   0.882   2.175 -1.1631  2.8730 -0.7129
 1354SOL    MW4 5462   2.668   0.899   2.260 -0.1051  0.1885 -0.0486
 1355SOL     OW 5463   2.747   1.148   2.351  0.3820  0.9616  0.2928
 1355SOL    HW2 5464   2.730   1.173   2.442  1.4498  1.3299  0.4055
 1355SOL    HW3 5465   2.826   1.198   2.327  0.1260  0.8455 -0.8248
 1355SOL    MW4 5466   2.756   1.158   2.360  0.4890  0.9949  0.1600
 1356SOL     OW 5467   2.973   1.286   2.254  0.1761  0.3016 -0.3972
 1356SOL    HW2 5468   3.039   1.231   2.295 -0.7756 -0.1830  0.5285
 1356SOL    HW3 5469   2.974   1.261   2.162  1.7345  0.7733 -0.5223
 1356SOL    MW4 5470   2.981   1.276   2.247  0.2563  0.2998 -0.2918
 1357SOL     OW 5471   2.945   1.553   2.356  0.2197 -0.2669  0.1276
 1357SOL    HW2 5472   2.937   1.548   2.451 -0.0980  1.3154  0.1950
 1357SOL    HW3 5473   2.956   1.462   2.328 -3.1361 -1.0984  1.3562
 1357SOL    MW4 5474   2.945   1.540   2.365 -0.2651 -0.1678  0.2985
 1358SOL     OW 5475   2.689   1.660   2.261  0.0000  0.5291 -0.1495
 1358SOL    HW2 5476   2.764   1.610   2.292 -1.0896 -0.4310  1.0197
 1358SOL    HW3 5477   2.695   1.656   2.165  1.0250 -0.1734 -0.0600
 1358SOL    MW4 5478   2.700   1.653   2.252 -0.0086  0.3098  0.0167
 1359SOL     OW 5479   2.702   1.945   2.329  0.7266 -0.2385 -0.2207
 1359SOL    HW2 5480   2.722   1.953   2.422 -1.3772  0.1353  0.2291
 1359SOL    HW3 5481   2.693   1.851   2.314  0.8613 -0.2866  0.0035
 1359SOL    MW4 5482   2.703   1.934   2.339  0.4666 -0.1955 -0.1316
 1360SOL     OW 5483   2.941   2.073   2.229 -0.2403  0.3999  0.5467
 1360SOL    HW2 5484   2.995   2.004   2.267  0.1027 -0.5943 -1.6638
 1360SOL    HW3 5485   2.851   2.043   2.243 -0.1234  0.1493  0.7643
 1360SOL    MW4 5486   2.936   2.060   2.236 -0.1798  0.2356  0.2840
 1361SOL     OW 5487   2.969   2.349   2.336  0.5333 -0.2987  0.1898
 1361SOL    HW2 5488   2.977   2.331   2.430  1.0767 -0.3730  0.1280
 1361SOL    HW3 5489   2.951   2.264   2.297 -1.3299 -0.0240  0.4116
 1361SOL    MW4 5490   2.968   2.335   2.343  0.3591 -0.2723  0.2110
 1362SOL     OW 5491   2.705   2.493   2.275 -0.1317  0.0753 -0.6618
 1362SOL    HW2 5492   2.788   2.463   2.311 -0.2750  0.3129 -0.1339
 1362SOL    HW3 5493   2.717   2.488   2.180 -0.2922 -2.0750 -0.5952
 1362SOL    MW4 5494   2.717   2.488   2.267 -0.1719 -0.1771 -0.5834
 1363SOL     OW 5495   2.638   2.750   2.365  0.2378 -0.1515 -0.1584
 1363SOL    HW2 5496   2.718   2.790   2.332 -0.9767  0.4167 -2.4554
 1363SOL    HW3 5497   2.638   2.662   2.328  0.3546 -0.5576  0.7772
 1363SOL    MW4 5498   2.648   2.743   2.356  0.0930 -0.1302 -0.3381
 1364SOL     OW 5499   2.898   2.840   2.309  0.2791 -0.3737  0.0569
 1364SOL    HW2 5500   2.905   2.931   2.337 -2.0545 -0.2096  0.2326
 1364SOL    HW3 5501   2.909   2.842   2.214 -0.1259  0.1501  0.0199
 1364SOL    MW4 5502   2.900   2.852   2.300 -0.0823 -0.2828  0.0753
 1365SOL     OW 5503   2.949   3.111   2.358  0.2285 -0.0513  0.5045
 1365SOL    HW2 5504   3.032   3.149   2.328  0.6979  0.5377  2.4782
 1365SOL    HW3 5505   2.882   3.173   2.329  0.4392 -0.5572 -1.1459
 1365SOL    MW4 5506   2.951   3.124   2.350  0.3183 -0.0403  0.5472
 1366SOL     OW 5507   2.693   3.246   2.259  0.1070 -0.5562  0.2852
 1366SOL    HW2 5508   2.680   3.339   2.277 -0.1400 -0.6539  0.6353
 1366SOL    HW3 5509   2.717   3.242   2.166  2.5825  0.0642  0.8556
 1366SOL    MW4 5510   2.694   3.258   2.249  0.4010 -0.4873  0.4067
 1367SOL     OW 5511   2.663   3.511   2.348 -0.3686 -0.1024 -0.1331
 1367SOL    HW2 5512   2.737   3.553   2.305 -0.7208  0.4801 -0.1787
 1367SOL    HW3 5513   2.586   3.555   2.311 -0.7030 -0.1247  0.5311
 1367SOL    MW4 5514   2.662   3.522   2.338 -0.4592 -0.0286 -0.0515
 1368SOL     OW 5515   2.925   3.611   2.264 -0.1205  0.5626 -0.1141
 1368SOL    HW2 5516   3.007   3.569   2.291 -1.0228 -0.5864  0.9417
 1368SOL    HW3 5517   2.934   3.702   2.293  2.2539  1.4107 -3.2743
 1368SOL    MW4 5518   2.937   3.617   2.272  0.0739  0.5229 -0.3917
 1369SOL     OW 5519   2.940   3.880   2.337  0.1277  0.4242  0.0994
 1369SOL    HW2 5520   2.941   3.897   2.431 -1.9631  0.1149  0.1904
 1369SOL    HW3 5521   2.872   3.938   2.303  1.5594  1.2701 -1.3758
 1369SOL    MW4 5522   2.931   3.890   2.345  0.0405  0.4950 -0.0834
 1370SOL     OW 5523   2.726   4.029   2.260  0.2317 -0.0882  0.0411
 1370SOL    HW2 5524   2.642   3.992   2.285  0.7225 -1.1653  0.1323
 1370SOL    HW3 5525   2.720   4.040   2.165  0.2454 -0.8492 -0.0530
 1370SOL    MW4 5526   2.714   4.026   2.251  0.2983 -0.3309  0.0408
 1371SOL     OW 5527   2.674   4.294   2.311  0.2762  0.3507 -0.0540
 1371SOL    HW2 5528   2.672   4.280   2.406 -2.3671 -1.7637 -0.3647
 1371SOL    HW3 5529   2.690   4.208   2.274  0.2003  0.9756 -1.5884
 1371SOL    MW4 5530   2.676   4.281   2.319 -0.0825  0.1545 -0.2975
 1372SOL     OW 5531   2.921   4.419   2.275  0.3533 -0.2671 -0.2743
 1372SOL    HW2 5532   2.987   4.363   2.317 -0.0276  0.7869  1.7446
 1372SOL    HW3 5533   2.837   4.381   2.300  0.1279  0.2144 -0.2912
 1372SOL    MW4 5534   2.919   4.407   2.283  0.2735 -0.0644 -0.0100
 1373SOL     OW 5535   3.328   4.647   2.378  0.4980  0.0369  0.1988
 1373SOL    HW2 5536   3.342   4.645   2.472 -0.2922  0.7451  0.3371
 1373SOL    HW3 5537   3.414   4.666   2.341  0.8413 -0.4168  0.7651
 1373SOL    MW4 5538   3.341   4.649   2.385  0.4389  0.0706  0.2916
 1374SOL     OW 5539   3.160   0.131   2.236  0.3604  0.8955 -0.1491
 1374SOL    HW2 5540   3.164   0.216   2.279  0.3454  0.4905  0.6462
 1374SOL    HW3 5541   3.215   0.074   2.289 -0.6759  0.0823  0.0649
 1374SOL    MW4 5542   3.168   0.135   2.248  0.2217  0.7348 -0.0162
 1375SOL     OW 5543   3.163   0.375   2.369 -0.1015  0.0692 -0.0119
 1375SOL    HW2 5544   3.230   0.435   2.336  0.5243 -1.0729 -0.8519
 1375SOL    HW3 5545   3.080   0.411   2.337  0.3211  0.1328 -1.0436
 1375SOL    MW4 5546   3.161   0.388   2.361  0.0370 -0.0731 -0.2589
 1376SOL     OW 5547   3.401   0.531   2.270 -0.0949  0.0937  0.1198
 1376SOL    HW2 5548   3.473   0.481   2.307  0.6192  1.4718  0.6202
 1376SOL    HW3 5549   3.388   0.494   2.182  0.8182 -0.5409  0.2499
 1376SOL    MW4 5550   3.409   0.520   2.263  0.1197  0.1917  0.2031
 1377SOL     OW 5551   3.381   0.785   2.334  0.2611  0.2490 -0.2424
 1377SOL    HW2 5552   3.471   0.816   2.332  0.8371 -1.2975  0.2985
 1377SOL    HW3 5553   3.386   0.695   2.301 -1.2227  0.4540 -1.0759
 1377SOL    MW4 5554   3.393   0.777   2.330  0.1414  0.0721 -0.2811
 1378SOL     OW 5555   3.141   0.913   2.234  1.2809  0.4817 -0.4916
 1378SOL    HW2 5556   3.218   0.874   2.275  1.0374  1.0546  0.5167
 1378SOL    HW3 5557   3.068   0.857   2.261  1.3317 -0.0818 -1.4748
 1378SOL    MW4 5558   3.141   0.900   2.243  1.2553  0.4830 -0.4883
 1379SOL     OW 5559   3.177   1.146   2.374  0.1269 -0.0812  0.2656
 1379SOL    HW2 5560   3.263   1.180   2.348  0.2495 -0.0615  0.7024
 1379SOL    HW3 5561   3.168   1.064   2.325  0.0440  0.3285 -0.4071
 1379SOL    MW4 5562   3.187   1.140   2.364  0.1321 -0.0246  0.2346
 1380SOL     OW 5563   3.395   1.261   2.231  0.0552  0.0008 -0.0698
 1380SOL    HW2 5564   3.468   1.224   2.280 -1.0514 -0.8010  1.0026
 1380SOL    HW3 5565   3.380   1.347   2.270 -0.5170 -0.4428  0.7151
 1380SOL    MW4 5566   3.403   1.267   2.242 -0.1662 -0.1636  0.1752
 1381SOL     OW 5567   3.353   1.493   2.360  0.3253  0.1304 -0.2860
 1381SOL    HW2 5568   3.370   1.522   2.450 -0.1964 -2.4065  0.6874
 1381SOL    HW3 5569   3.293   1.558   2.325  0.3956  1.0600  1.2858
 1381SOL    MW4 5570   3.347   1.505   2.367  0.2658 -0.0817  0.0498
 1382SOL     OW 5571   3.164   1.661   2.233  0.1293 -0.2144  0.0241
 1382SOL    HW2 5572   3.169   1.747   2.273 -0.0809  0.2182 -0.8603
 1382SOL    HW3 5573   3.082   1.624   2.266 -0.1679  0.2401 -0.2053
 1382SOL    MW4 5574   3.154   1.667   2.243  0.0625 -0.0973 -0.1230
 1383SOL     OW 5575   3.157   1.921   2.374 -0.4125 -0.3733 -0.4937
 1383SOL    HW2 5576   3.150   1.928   2.469  0.5642 -2.0170 -0.2777
 1383SOL    HW3 5577   3.222   1.987   2.350 -0.5052 -0.0974  0.0058
 1383SOL    MW4 5578   3.165   1.931   2.383 -0.2961 -0.5537 -0.3994
 1384SOL     OW 5579   3.358   2.085   2.308 -0.3485  0.4002 -0.9405
 1384SOL    HW2 5580   3.433   2.038   2.345 -0.7412  1.2975  1.0483
 1384SOL    HW3 5581   3.356   2.058   2.216  0.8537 -1.6080 -0.4021
 1384SOL    MW4 5582   3.368   2.076   2.300 -0.2418  0.2537 -0.6070
 1385SOL     OW 5583   3.400   2.338   2.379 -0.3920  0.2094 -0.1265
 1385SOL    HW2 5584   3.324   2.392   2.358 -0.4564 -0.5047 -1.7415
 1385SOL    HW3 5585   3.375   2.249   2.354  0.4620 -0.2616  0.6456
 1385SOL    MW4 5586   3.387   2.333   2.373 -0.2882  0.0529 -0.2375
 1386SOL     OW 5587   3.193   2.491   2.253  0.1890  0.3301 -0.0639
 1386SOL    HW2 5588   3.176   2.581   2.281  1.9681  0.1619  1.5933
 1386SOL    HW3 5589   3.115   2.442   2.281 -0.1857  1.0804  0.2041
 1386SOL    MW4 5590   3.180   2.496   2.260  0.3746  0.4067  0.1903
 1387SOL     OW 5591   3.153   2.737   2.375 -0.0982  0.1410  0.0260
 1387SOL    HW2 5592   3.155   2.721   2.470 -2.1007 -2.3786 -0.3107
 1387SOL    HW3 5593   3.063   2.767   2.358  0.2821  0.6746 -1.0645
 1387SOL    MW4 5594   3.141   2.739   2.385 -0.3123 -0.1211 -0.1624
 1388SOL     OW 5595   3.393   2.815   2.277 -0.0881  0.3465 -0.2464
 1388SOL    HW2 5596   3.373   2.905   2.305 -2.1986  0.5583 -2.1863
 1388SOL    HW3 5597   3.316   2.765   2.304  0.3958 -0.5598 -0.5538
 1388SOL    MW4 5598   3.380   2.820   2.284 -0.3026  0.2551 -0.5431
 1389SOL     OW 5599   3.362   3.074   2.386 -0.0709  0.0815 -0.0305
 1389SOL    HW2 5600   3.437   3.125   2.355 -0.5614  0.9157  0.1582
 1389SOL    HW3 5601   3.286   3.112   2.342 -0.3646 -0.9595 -0.4571
 1389SOL    MW4 5602   3.362   3.085   2.376 -0.1745  0.0541 -0.0620
 1390SOL     OW 5603   3.181   3.217   2.239 -0.0762 -0.5009  0.0183
 1390SOL    HW2 5604   3.185   3.305   2.275  2.6083 -0.9968  1.0808
 1390SOL    HW3 5605   3.184   3.230   2.144 -0.0997  0.5733  0.1593
 1390SOL    MW4 5606   3.182   3.230   2.231  0.2751 -0.4249  0.1771
 1391SOL     OW 5607   3.163   3.481   2.339 -0.0900 -0.0484 -0.3508
 1391SOL    HW2 5608   3.171   3.471   2.434  0.9815 -1.1137 -0.5497
 1391SOL    HW3 5609   3.226   3.549   2.316  0.3019 -0.4443 -0.4314
 1391SOL    MW4 5610   3.172   3.489   2.349  0.1032 -0.2413 -0.3877
 1392SOL     OW 5611   3.371   3.656   2.275  0.3049  0.3831 -0.3808
 1392SOL    HW2 5612   3.438   3.596   2.309 -1.3443 -0.4553  1.4704
 1392SOL    HW3 5613   3.376   3.646   2.180  2.6035  0.1322 -0.2540
 1392SOL    MW4 5614   3.381   3.647   2.267  0.3905  0.2391 -0.1202
 1393SOL     OW 5615   3.375   3.895   2.402 -0.4272  0.3484 -0.3841
 1393SOL    HW2 5616   3.451   3.938   2.363  0.9564 -1.0392  0.7084
 1393SOL    HW3 5617   3.374   3.808   2.363 -1.7691  0.5193 -0.7591
 1393SOL    MW4 5618   3.384   3.889   2.392 -0.4215  0.1879 -0.2894
 1394SOL     OW 5619   3.156   4.023   2.251  0.0380 -0.0617 -0.2291
 1394SOL    HW2 5620   3.228   3.980   2.296 -0.5660  0.8556  1.6838
 1394SOL    HW3 5621   3.079   3.970   2.273 -0.2268  0.2809 -0.3293
 1394SOL    MW4 5622   3.155   4.010   2.260 -0.0768  0.1044  0.0100
 1395SOL     OW 5623   3.141   4.274   2.358  0.0576 -0.0410  0.4497
 1395SOL    HW2 5624   3.216   4.319   2.317 -0.5955  0.3946 -0.2873
 1395SOL    HW3 5625   3.138   4.190   2.313  0.4094 -0.2533  0.8259
 1395SOL    MW4 5626   3.151   4.269   2.346  0.0179 -0.0114  0.4022
 1396SOL     OW 5627   3.369   4.393   2.268 -0.0984 -0.5660  0.7692
 1396SOL    HW2 5628   3.355   4.481   2.303 -0.3957 -0.4346  0.3194
 1396SOL    HW3 5629   3.369   4.405   2.173  0.0235 -1.0287  0.7099
 1396SOL    MW4 5630   3.367   4.406   2.260 -0.1218 -0.6099  0.7021
 1397SOL     OW 5631   3.807   4.616   2.385  0.4541 -0.3659  0.0362
 1397SOL    HW2 5632   3.814   4.639   2.478  0.9927  0.7843 -0.2860
 1397SOL    HW3 5633   3.874   4.669   2.342  0.5769 -1.3095 -0.9392
 1397SOL    MW4 5634   3.817   4.626   2.391  0.5414 -0.3386 -0.1349
 1398SOL     OW 5635   3.574   0.070   2.276  0.3643  0.0435  0.1991
 1398SOL    HW2 5636   3.576   0.160   2.309  3.2488  0.1504 -0.2051
 1398SOL    HW3 5637   3.647   0.026   2.319  0.8237 -1.2855 -1.8579
 1398SOL    MW4 5638   3.584   0.076   2.286  0.8054 -0.1177 -0.1256
 1399SOL     OW 5639   3.588   0.336   2.371 -0.2612  0.3448  0.5317
 1399SOL    HW2 5640   3.589   0.359   2.463 -1.0811 -0.8532  0.8614
 1399SOL    HW3 5641   3.674   0.362   2.338 -0.0961  1.1063  1.5449
 1399SOL    MW4 5642   3.599   0.342   2.379 -0.3474  0.2872  0.7091
 1400SOL     OW 5643   3.813   0.465   2.277  0.3602 -0.1265 -0.4984
 1400SOL    HW2 5644   3.829   0.553   2.310  0.7205 -0.5521  0.4836
 1400SOL    HW3 5645   3.809   0.475   2.182 -1.1778  1.1940 -0.3050
 1400SOL    MW4 5646   3.815   0.478   2.268  0.2048 -0.0084 -0.3433
 1401SOL     OW 5647   3.862   0.727   2.408 -0.3969 -0.3464 -0.3283
 1401SOL    HW2 5648   3.837   0.764   2.493 -1.2535 -3.1216  0.6816
 1401SOL    HW3 5649   3.939   0.777   2.381 -2.3536  3.1632  0.2201
 1401SOL    MW4 5650   3.869   0.739   2.415 -0.7679 -0.2495 -0.1228
 1402SOL     OW 5651   3.640   0.899   2.318  0.0406  0.1192  0.3328
 1402SOL    HW2 5652   3.722   0.863   2.352 -0.4324 -1.4901 -0.2052
 1402SOL    HW3 5653   3.639   0.875   2.226 -1.1902 -0.1226  0.4096
 1402SOL    MW4 5654   3.651   0.891   2.311 -0.1841 -0.1249  0.2720
 1403SOL     OW 5655   3.619   1.182   2.373 -0.0923  0.2385  0.3599
 1403SOL    HW2 5656   3.591   1.200   2.463  0.3349 -0.1355  0.5657
 1403SOL    HW3 5657   3.616   1.087   2.365  3.0845  0.0284  1.0350
 1403SOL    MW4 5658   3.615   1.172   2.384  0.3831  0.1614  0.4761
 1404SOL     OW 5659   3.844   1.299   2.256 -0.2291  0.4348  0.0810
 1404SOL    HW2 5660   3.856   1.391   2.281  1.0241  0.2312  0.2295
 1404SOL    HW3 5661   3.773   1.268   2.313 -0.5770  1.2736  0.1135
 1404SOL    MW4 5662   3.836   1.307   2.267 -0.1097  0.5187  0.1049
 1405SOL     OW 5663   3.853   1.546   2.348 -0.1600  0.1507 -0.0294
 1405SOL    HW2 5664   3.865   1.556   2.442 -0.3084  2.3798 -0.2120
 1405SOL    HW3 5665   3.763   1.577   2.332 -0.2246 -0.4505 -0.8586
 1405SOL    MW4 5666   3.842   1.552   2.358 -0.1881  0.3656 -0.1628
 1406SOL     OW 5667   3.585   1.614   2.278  0.1311 -0.5028 -0.2827
 1406SOL    HW2 5668   3.502   1.568   2.289 -0.0023 -0.2959 -0.4098
 1406SOL    HW3 5669   3.590   1.631   2.184 -0.3926  0.7924 -0.0924
 1406SOL    MW4 5670   3.575   1.610   2.267  0.0441 -0.3045 -0.2744
 1407SOL     OW 5671   3.562   1.899   2.380 -0.0726  0.1250 -0.1856
 1407SOL    HW2 5672   3.628   1.938   2.323 -0.1883 -0.3438 -0.6477
 1407SOL    HW3 5673   3.561   1.806   2.355  0.7486 -0.3314  1.4329
 1407SOL    MW4 5674   3.571   1.892   2.369  0.0205  0.0030 -0.0331
 1408SOL     OW 5675   3.772   2.059   2.256 -0.1854 -0.0091 -0.6225
 1408SOL    HW2 5676   3.859   2.035   2.287 -0.3157 -0.2232 -0.4096
 1408SOL    HW3 5677   3.783   2.080   2.164 -0.1131 -1.1913 -0.8891
 1408SOL    MW4 5678   3.785   2.058   2.248 -0.1931 -0.1934 -0.6297
 1409SOL     OW 5679   3.769   2.300   2.381  0.4222 -0.3331  0.0959
 1409SOL    HW2 5680   3.705   2.363   2.348  1.5096  0.3305 -0.8002
 1409SOL    HW3 5681   3.755   2.222   2.328  1.3980  0.3493 -1.2220
 1409SOL    MW4 5682   3.759   2.298   2.370  0.6945 -0.1552 -0.1962
 1410SOL     OW 5683   3.606   2.495   2.248  0.2639 -0.3964 -0.1834
 1410SOL    HW2 5684   3.520   2.463   2.277  0.0210  0.0743 -0.3804
 1410SOL    HW3 5685   3.602   2.493   2.153 -0.4349  1.9824 -0.2375
 1410SOL    MW4 5686   3.594   2.490   2.239  0.1397 -0.0205 -0.2165
 1411SOL     OW 5687   3.604   2.722   2.424  0.1015 -0.1243 -0.1272
 1411SOL    HW2 5688   3.618   2.641   2.375  1.2812 -0.2448  0.3852
 1411SOL    HW3 5689   3.525   2.760   2.386  0.9532 -0.2387 -2.1011
 1411SOL    MW4 5690   3.595   2.717   2.413  0.3693 -0.1552 -0.3200
 1412SOL     OW 5691   3.844   2.844   2.308 -0.2901  0.0916  0.0403
 1412SOL    HW2 5692   3.855   2.933   2.342  1.0798  0.0992 -0.3951
 1412SOL    HW3 5693   3.757   2.818   2.337  0.0735  0.8424  1.8451
 1412SOL    MW4 5694   3.834   2.853   2.316 -0.0615  0.1917  0.2210
 1413SOL     OW 5695   3.831   3.133   2.391  0.0662 -0.2238  0.2856
 1413SOL    HW2 5696   3.850   3.131   2.485 -1.0849  0.6273  0.5508
 1413SOL    HW3 5697   3.907   3.176   2.352  0.3586 -0.1988  0.8720
 1413SOL    MW4 5698   3.844   3.138   2.398 -0.0470 -0.1085  0.3979
 1414SOL     OW 5699   3.580   3.196   2.273 -0.1858  0.1801  0.0401
 1414SOL    HW2 5700   3.570   3.289   2.293  1.7001  0.5742 -0.6865
 1414SOL    HW3 5701   3.655   3.168   2.326  1.3031 -0.1117 -2.1448
 1414SOL    MW4 5702   3.589   3.205   2.283  0.2594  0.1936 -0.3440
 1415SOL     OW 5703   3.567   3.463   2.361  0.1665  0.0679  0.0040
 1415SOL    HW2 5704   3.568   3.468   2.457  0.6917  0.6663 -0.0350
 1415SOL    HW3 5705   3.649   3.502   2.333 -0.3704  0.6995 -0.7315
 1415SOL    MW4 5706   3.578   3.469   2.370  0.1652  0.2301 -0.0982
 1416SOL     OW 5707   3.825   3.589   2.297 -0.4782  0.2318 -0.1774
 1416SOL    HW2 5708   3.824   3.682   2.318 -0.0076  0.3374 -0.6219
 1416SOL    HW3 5709   3.834   3.586   2.202  0.8195 -0.2811 -0.0460
 1416SOL    MW4 5710   3.826   3.601   2.287 -0.2449  0.1779 -0.2186
 1417SOL     OW 5711   3.821   3.862   2.367  0.2047  0.0786  0.0531
 1417SOL    HW2 5712   3.802   3.869   2.461 -0.2284  0.4636 -0.0611
 1417SOL    HW3 5713   3.890   3.925   2.352 -0.4965  0.8215 -0.0951
 1417SOL    MW4 5714   3.827   3.871   2.378  0.0553  0.2275  0.0184
 1418SOL     OW 5715   3.597   3.975   2.268  0.1487 -0.0638 -0.1338
 1418SOL    HW2 5716   3.601   4.063   2.305 -1.1991 -0.6788  1.5288
 1418SOL    HW3 5717   3.666   3.927   2.315  0.7072  0.0417 -0.8497
 1418SOL    MW4 5718   3.607   3.980   2.279  0.0446 -0.1309 -0.0091
 1419SOL     OW 5719   3.574   4.240   2.333  0.0013  0.0829 -0.7206
 1419SOL    HW2 5720   3.652   4.290   2.308  0.5537 -0.0002  0.7628
 1419SOL    HW3 5721   3.501   4.298   2.310  0.5873  1.0793 -0.1339
 1419SOL    MW4 5722   3.574   4.254   2.327  0.1514  0.2031 -0.4473
 1420SOL     OW 5723   3.804   4.372   2.251  0.1836 -0.1383 -0.3992
 1420SOL    HW2 5724   3.887   4.333   2.278 -0.7654 -2.0190 -0.0963
 1420SOL    HW3 5725   3.799   4.454   2.299  1.4564 -0.4267  0.2429
 1420SOL    MW4 5726   3.814   4.378   2.261  0.2265 -0.4249 -0.2749
 1421SOL     OW 5727   4.261   4.626   2.416 -0.3589 -0.1142  0.0014
 1421SOL    HW2 5728   4.257   4.642   2.510 -0.4242 -0.1944  0.0126
 1421SOL    HW3 5729   4.335   4.679   2.385 -0.9412  0.6895 -0.0566
 1421SOL    MW4 5730   4.270   4.635   2.424 -0.4444 -0.0191 -0.0048
 1422SOL     OW 5731   4.025   0.104   2.314 -0.6078  0.6182  0.3008
 1422SOL    HW2 5732   4.048   0.191   2.349  0.8567  1.7116 -3.1811
 1422SOL    HW3 5733   4.088   0.045   2.355  2.5620  2.2212 -2.0340
 1422SOL    MW4 5734   4.037   0.108   2.324  0.0033  0.9740 -0.4666
 1423SOL     OW 5735   4.030   0.361   2.412 -0.3832 -0.2289 -0.1066
 1423SOL    HW2 5736   4.109   0.407   2.384 -0.3096 -0.8774 -0.9838
 1423SOL    HW3 5737   3.958   0.414   2.377 -0.3777  0.8828  1.5006
 1423SOL    MW4 5738   4.031   0.374   2.404 -0.3724 -0.1678 -0.0103
 1424SOL     OW 5739   4.279   0.491   2.292  0.7332 -0.1347  0.4128
 1424SOL    HW2 5740   4.277   0.575   2.337 -0.1327 -0.2617  0.6179
 1424SOL    HW3 5741   4.352   0.444   2.332  1.8670  0.8952 -0.4031
 1424SOL    MW4 5742   4.289   0.496   2.303  0.7687 -0.0156  0.3324
 1425SOL     OW 5743   4.275   0.752   2.406 -0.2662  0.0948 -0.0661
 1425SOL    HW2 5744   4.200   0.803   2.374 -0.4200  0.0321  0.1920
 1425SOL    HW3 5745   4.349   0.785   2.355 -0.4868  0.0756 -0.4070
 1425SOL    MW4 5746   4.275   0.763   2.395 -0.3161  0.0840 -0.0770
 1426SOL     OW 5747   4.055   0.910   2.306  0.0341  0.0929  0.1857
 1426SOL    HW2 5748   4.048   0.995   2.349  0.6920  0.1792  0.1374
 1426SOL    HW3 5749   4.046   0.929   2.212  0.1674  0.1132  0.1759
 1426SOL    MW4 5750   4.053   0.924   2.299  0.1383  0.1070  0.1781
 1427SOL     OW 5751   4.068   1.171   2.395 -0.3066  0.0351 -0.1835
 1427SOL    HW2 5752   4.039   1.167   2.486  0.5167 -1.0127  0.0425
 1427SOL    HW3 5753   3.989   1.197   2.346 -1.2918 -1.4131  0.5893
 1427SOL    MW4 5754   4.054   1.174   2.400 -0.3276 -0.2943 -0.0517
 1428SOL     OW 5755   4.284   1.276   2.268  0.1728  0.1208  0.0518
 1428SOL    HW2 5756   4.214   1.243   2.324  0.8275 -0.9873  0.2333
 1428SOL    HW3 5757   4.364   1.261   2.318  0.5955  0.8869 -0.3800
 1428SOL    MW4 5758   4.285   1.270   2.282  0.3147  0.0757  0.0188
 1429SOL     OW 5759   4.247   1.546   2.352 -0.0458  0.3026  0.4133
 1429SOL    HW2 5760   4.256   1.468   2.298  2.0055 -0.7212  2.1535
 1429SOL    HW3 5761   4.321   1.601   2.327 -0.9646  1.3127 -0.1516
 1429SOL    MW4 5762   4.258   1.543   2.341  0.1035  0.3009  0.5682
 1430SOL     OW 5763   4.070   1.690   2.226 -0.2607  0.1027  0.2113
 1430SOL    HW2 5764   4.131   1.639   2.278 -0.6015 -0.4249  0.1011
 1430SOL    HW3 5765   3.986   1.646   2.237 -0.2782 -0.2165 -1.0361
 1430SOL    MW4 5766   4.067   1.678   2.234 -0.3085 -0.0089  0.0319
 1431SOL     OW 5767   4.026   1.956   2.332  0.1449 -0.2007  0.3654
 1431SOL    HW2 5768   4.029   1.950   2.427 -1.5946 -0.3194  0.4329
 1431SOL    HW3 5769   4.064   1.873   2.302 -0.4308 -0.6889  0.9728
 1431SOL    MW4 5770   4.031   1.944   2.340 -0.1607 -0.2809  0.4542
 1432SOL     OW 5771   4.260   2.074   2.247  0.2956 -0.2146  0.3493
 1432SOL    HW2 5772   4.272   2.156   2.293 -0.5339 -0.2903  0.7083
 1432SOL    HW3 5773   4.173   2.043   2.274  0.8534 -1.5047  0.6894
 1432SOL    MW4 5774   4.250   2.081   2.256  0.2599 -0.3951  0.4416
 1433SOL     OW 5775   4.250   2.319   2.379  0.1432 -0.0376  0.4370
 1433SOL    HW2 5776   4.162   2.339   2.348  0.0007  2.2912  2.1960
 1433SOL    HW3 5777   4.308   2.360   2.316  0.0306 -2.0892 -1.0611
 1433SOL    MW4 5778   4.246   2.327   2.367  0.1097 -0.0012  0.4714
 1434SOL     OW 5779   4.013   2.382   2.276  0.5232 -0.3126  0.4174
 1434SOL    HW2 5780   4.022   2.468   2.318 -1.5588  0.5704 -0.8313
 1434SOL    HW3 5781   3.935   2.344   2.316  1.1118 -1.3808  0.5567
 1434SOL    MW4 5782   4.003   2.388   2.287  0.3262 -0.3371  0.2713
 1435SOL     OW 5783   4.055   2.651   2.361  0.4873  0.2353  0.1624
 1435SOL    HW2 5784   4.067   2.655   2.456  0.4759  2.3097  0.0804
 1435SOL    HW3 5785   3.988   2.717   2.342 -1.1159 -1.6643 -1.0519
 1435SOL    MW4 5786   4.048   2.660   2.371  0.2737  0.2582 -0.0088
 1436SOL     OW 5787   4.218   2.827   2.244 -0.1470 -0.2074  0.4466
 1436SOL    HW2 5788   4.145   2.767   2.260 -0.2136 -0.5564 -1.1425
 1436SOL    HW3 5789   4.294   2.782   2.282 -0.1548 -1.4305 -0.9257
 1436SOL    MW4 5790   4.218   2.813   2.251 -0.1569 -0.4148  0.0558
 1437SOL     OW 5791   4.232   3.078   2.363 -0.5986 -0.1916  0.1451
 1437SOL    HW2 5792   4.228   2.991   2.324 -1.7004 -0.5991  1.1234
 1437SOL    HW3 5793   4.309   3.119   2.323 -1.1583 -0.9201 -1.7191
 1437SOL    MW4 5794   4.242   3.072   2.353 -0.8173 -0.3417  0.0284
 1438SOL     OW 5795   4.040   3.248   2.262  0.3314 -0.4428  0.2688
 1438SOL    HW2 5796   4.048   3.335   2.300  0.7486 -0.2786 -0.1845
 1438SOL    HW3 5797   4.108   3.196   2.305  0.2850 -0.4622  0.3181
 1438SOL    MW4 5798   4.050   3.252   2.273  0.3805 -0.4234  0.2155
 1439SOL     OW 5799   4.040   3.470   2.416 -0.3049 -0.3396 -0.2021
 1439SOL    HW2 5800   4.115   3.512   2.376 -0.4239 -1.5277 -1.7153
 1439SOL    HW3 5801   3.964   3.509   2.373 -0.5303  0.0996  0.5765
 1439SOL    MW4 5802   4.040   3.481   2.405 -0.3500 -0.4385 -0.2990
 1440SOL     OW 5803   4.248   3.591   2.286  0.2736  0.0709 -0.0739
 1440SOL    HW2 5804   4.241   3.685   2.302 -0.9529 -0.0247 -0.0136
 1440SOL    HW3 5805   4.261   3.583   2.191 -0.5480  0.2602 -0.2027
 1440SOL    MW4 5806   4.249   3.602   2.275  0.0033  0.0832 -0.0827
 1441SOL     OW 5807   4.265   3.868   2.339  0.2963 -0.1797  0.2227
 1441SOL    HW2 5808   4.261   3.886   2.433 -1.2627  1.0426 -0.0595
 1441SOL    HW3 5809   4.350   3.903   2.312 -0.1277  1.3936  0.8144
 1441SOL    MW4 5810   4.276   3.875   2.348  0.0348  0.1891  0.2637
 1442SOL     OW 5811   4.037   4.015   2.296 -0.2447  0.1251 -0.0478
 1442SOL    HW2 5812   4.118   3.966   2.312  0.9362  1.2938 -2.1285
 1442SOL    HW3 5813   4.028   4.016   2.201 -1.0570  2.5971  0.0165
 1442SOL    MW4 5814   4.047   4.009   2.285 -0.1960  0.6051 -0.3138
 1443SOL     OW 5815   4.044   4.283   2.324  0.4094  0.1961  0.0094
 1443SOL    HW2 5816   4.114   4.329   2.278  2.4108 -0.3598  2.3188
 1443SOL    HW3 5817   4.062   4.190   2.308 -0.9727  0.0826 -0.9746
 1443SOL    MW4 5818   4.056   4.277   2.316  0.4911  0.1078  0.1843
 1444SOL     OW 5819   4.272   4.408   2.246  0.3439  0.4945  0.3316
 1444SOL    HW2 5820   4.266   4.477   2.313  1.4900 -0.0626  1.0355
 1444SOL    HW3 5821   4.346   4.355   2.275 -0.9987 -1.4685  0.1908
 1444SOL    MW4 5822   4.281   4.410   2.259  0.3181  0.1621  0.4060
 1445SOL     OW 5823   0.216   0.012   2.607 -0.1584  0.0190 -0.0355
 1445SOL    HW2 5824   0.216  -0.070   2.656 -0.4534 -0.7088 -1.2292
 1445SOL    HW3 5825   0.138   0.058   2.638 -1.0282 -0.9849 -0.7079
 1445SOL    MW4 5826   0.205   0.008   2.618 -0.3121 -0.2093 -0.2816
 1446SOL     OW 5827   4.491   0.157   2.735 -0.7626 -0.5681  0.2600
 1446SOL    HW2 5828   4.488   0.165   2.830 -0.2794 -0.8162  0.2943
 1446SOL    HW3 5829   4.472   0.246   2.704  1.6369  0.1170  0.6247
 1446SOL    MW4 5830   4.488   0.170   2.743 -0.3823 -0.5104  0.3126
 1447SOL     OW 5831   4.456   0.421   2.645 -0.5885  0.6374  0.1107
 1447SOL    HW2 5832   4.544   0.445   2.671 -0.5937 -0.9539  1.6694
 1447SOL    HW3 5833   4.464   0.395   2.553  0.5110  0.6871  0.1909
 1447SOL    MW4 5834   4.468   0.421   2.636 -0.4444  0.4340  0.3271
 1448SOL     OW 5835   0.219   0.465   2.730  0.1780  0.0937  0.2651
 1448SOL    HW2 5836   0.224   0.491   2.822  0.2456  0.2982  0.2045
 1448SOL    HW3 5837   0.308   0.438   2.708 -0.4543 -2.7285  1.0663
 1448SOL    MW4 5838   0.232   0.465   2.739  0.1035 -0.2517  0.3629
 1449SOL     OW 5839   0.225   0.722   2.635 -0.2663 -0.3968  0.1430
 1449SOL    HW2 5840   0.310   0.755   2.663 -0.6049 -0.2110  0.9686
 1449SOL    HW3 5841   0.219   0.634   2.672 -0.7376 -0.1304  0.7063
 1449SOL    MW4 5842   0.235   0.715   2.643 -0.3731 -0.3372  0.3262
 1450SOL     OW 5843   4.473   0.879   2.749  0.3129 -0.2182 -0.3373
 1450SOL    HW2 5844   4.527   0.811   2.708  0.1009 -0.0088 -0.9639
 1450SOL    HW3 5845   4.385   0.862   2.717  0.1370 -0.0811  0.0723
 1450SOL    MW4 5846   4.469   0.868   2.739  0.2623 -0.1726 -0.3660
 1451SOL     OW 5847   4.470   1.156   2.663 -0.0589  0.4691  0.0428
 1451SOL    HW2 5848   4.539   1.192   2.718  1.0840 -0.4149 -0.7877
 1451SOL    HW3 5849   4.469   1.062   2.684 -1.1741  0.5165  0.2309
 1451SOL    MW4 5850   4.479   1.148   2.673 -0.0548  0.3588 -0.0422
 1452SOL     OW 5851   0.210   1.265   2.754  0.0359  0.3473 -0.0372
 1452SOL    HW2 5852   0.288   1.231   2.712 -0.4327 -1.3929  0.4360
 1452SOL    HW3 5853   0.206   1.357   2.728  0.8708 -0.1648 -2.0869
 1452SOL    MW4 5854   0.219   1.273   2.745  0.0842  0.0501 -0.2453
 1453SOL     OW 5855   0.208   1.529   2.676 -0.1502 -0.1319  0.0228
 1453SOL    HW2 5856   0.281   1.587   2.700 -0.0632 -0.6409  0.9946
 1453SOL    HW3 5857   0.130   1.578   2.701 -0.1199  0.1157 -0.3633
 1453SOL    MW4 5858   0.208   1.543   2.683 -0.1347 -0.1663  0.1004
 1454SOL     OW 5859   4.488   1.676   2.752  0.4104  0.3513 -0.5901
 1454SOL    HW2 5860   4.507   1.668   2.845 -1.3075 -2.6549 -0.4316
 1454SOL    HW3 5861   4.476   1.769   2.738  0.8434  0.8682  2.1704
 1454SOL    MW4 5862   4.489   1.687   2.762  0.2408  0.0229 -0.2050
 1455SOL     OW 5863   4.454   1.934   2.676  0.4521 -0.5404 -0.1189
 1455SOL    HW2 5864   4.529   1.977   2.716  0.1550 -1.0175  0.9719
 1455SOL    HW3 5865   4.465   1.948   2.582  0.4739  1.7045  0.2024
 1455SOL    MW4 5866   4.465   1.941   2.669  0.4158 -0.3072  0.0675
 1456SOL     OW 5867   0.194   2.050   2.772  0.0307 -0.1954  0.5120
 1456SOL    HW2 5868   0.256   1.989   2.732 -0.9185 -0.3871 -0.6902
 1456SOL    HW3 5869   0.212   2.134   2.731 -0.5388 -0.2656  0.1065
 1456SOL    MW4 5870   0.204   2.053   2.761 -0.1697 -0.2298  0.2999
 1457SOL     OW 5871   0.210   2.301   2.635  0.0850 -0.3472  0.0260
 1457SOL    HW2 5872   0.282   2.350   2.675 -0.2066 -1.4003  1.9126
 1457SOL    HW3 5873   0.131   2.345   2.667 -0.2112 -2.5245  2.5131
 1457SOL    MW4 5874   0.209   2.313   2.645  0.0074 -0.7734  0.6030
 1458SOL     OW 5875   0.026   2.447   2.756  0.3032 -0.0341 -0.2658
 1458SOL    HW2 5876   0.024   2.447   2.852  0.6908 -1.3251 -0.2425
 1458SOL    HW3 5877  -0.055   2.401   2.731  0.8548 -0.8729 -0.5232
 1458SOL    MW4 5878   0.015   2.441   2.766  0.4271 -0.3147 -0.2966
 1459SOL     OW 5879   0.011   2.683   2.639 -0.0888  0.1347 -0.3166
 1459SOL    HW2 5880  -0.050   2.731   2.696  1.4544  0.8431  0.7901
 1459SOL    HW3 5881   0.021   2.597   2.682  0.8039  0.5439  0.3176
 1459SOL    MW4 5882   0.004   2.678   2.652  0.2326  0.2820 -0.0870
 1460SOL     OW 5883   0.222   2.836   2.747 -0.3872 -0.2535  0.2992
 1460SOL    HW2 5884   0.209   2.925   2.713  0.7405  0.1716  0.9632
 1460SOL    HW3 5885   0.155   2.784   2.702 -2.5673  1.3445  1.5900
 1460SOL    MW4 5886   0.211   2.841   2.736 -0.5261  0.0134  0.5572
 1461SOL     OW 5887   0.210   3.105   2.657  0.3169 -0.2973 -0.1187
 1461SOL    HW2 5888   0.300   3.122   2.686  1.2864 -0.5952 -2.7769
 1461SOL    HW3 5889   0.218   3.094   2.562 -2.5233 -0.4761 -0.3626
 1461SOL    MW4 5890   0.223   3.105   2.648  0.0701 -0.3600 -0.5016
 1462SOL     OW 5891   4.479   3.224   2.763  0.5537  0.1689  0.0546
 1462SOL    HW2 5892   4.410   3.181   2.713  0.6581  1.3845 -1.1290
 1462SOL    HW3 5893   4.560   3.181   2.735  0.4574 -0.2142  0.3442
 1462SOL    MW4 5894   4.480   3.212   2.753  0.5541  0.2789 -0.0634
 1463SOL     OW 5895   4.479   3.487   2.660  0.1720 -0.1963  0.2742
 1463SOL    HW2 5896   4.562   3.525   2.687  0.9905 -0.9086 -1.2131
 1463SOL    HW3 5897   4.483   3.396   2.692 -1.0931  0.4439  2.3783
 1463SOL    MW4 5898   4.490   3.480   2.668  0.1135 -0.2060  0.3557
 1464SOL     OW 5899   0.228   3.596   2.749  0.0719  0.4329 -0.3629
 1464SOL    HW2 5900   0.237   3.584   2.843 -2.4070 -1.6919 -0.3447
 1464SOL    HW3 5901   0.297   3.541   2.711  0.0827  0.0671  0.1868
 1464SOL    MW4 5902   0.238   3.587   2.756 -0.2537  0.1042 -0.2880
 1465SOL     OW 5903   0.178   3.865   2.635  0.2584 -0.0084 -0.1401
 1465SOL    HW2 5904   0.155   3.773   2.651  0.7416 -0.2678 -0.8940
 1465SOL    HW3 5905   0.185   3.871   2.540  0.3211  0.7914 -0.0819
 1465SOL    MW4 5906   0.176   3.853   2.625  0.3304  0.0629 -0.2317
 1466SOL     OW 5907   4.475   4.037   2.748  0.6654  0.6787  0.0426
 1466SOL    HW2 5908   4.487   4.130   2.730 -0.9173  0.7089 -0.9137
 1466SOL    HW3 5909   4.539   3.993   2.691  0.9910  1.1474  0.0419
 1466SOL    MW4 5910   4.485   4.043   2.738  0.4992  0.7439 -0.0834
 1467SOL     OW 5911   0.043   4.294   2.641  0.3660  0.2360 -0.0944
 1467SOL    HW2 5912  -0.042   4.327   2.669  0.0329 -1.0026  0.4172
 1467SOL    HW3 5913   0.107   4.352   2.682 -0.2072  0.2926  0.7264
 1467SOL    MW4 5914   0.040   4.306   2.650  0.2465  0.0801  0.0813
 1468SOL     OW 5915   0.258   4.445   2.760  0.2031  0.4335 -0.2260
 1468SOL    HW2 5916   0.293   4.428   2.847 -0.3922  0.2552 -0.0177
 1468SOL    HW3 5917   0.301   4.380   2.703  0.5028  0.4754 -0.0454
 1468SOL    MW4 5918   0.268   4.434   2.764  0.1642  0.4158 -0.1748
 1469SOL     OW 5919   0.646   4.654   2.657 -0.1236  0.2504  0.1479
 1469SOL    HW2 5920   0.721   4.696   2.699 -1.9790  2.2822  1.5223
 1469SOL    HW3 5921   0.570   4.704   2.687 -2.0697 -1.8706 -1.0522
 1469SOL    MW4 5922   0.646   4.666   2.667 -0.6252  0.2389  0.1709
 1470SOL     OW 5923   0.446   0.130   2.740  0.1716  0.0945 -0.1901
 1470SOL    HW2 5924   0.439   0.123   2.835  1.2575 -0.2883 -0.1268
 1470SOL    HW3 5925   0.371   0.080   2.707  0.2736 -0.5054  0.4645
 1470SOL    MW4 5926   0.436   0.122   2.748  0.3284 -0.0352 -0.0954
 1471SOL     OW 5927   0.472   0.386   2.622  0.0872 -0.4512  0.8266
 1471SOL    HW2 5928   0.548   0.429   2.661  0.2732 -0.6859  0.7213
 1471SOL    HW3 5929   0.476   0.296   2.653 -0.5833 -0.2755  1.4530
 1471SOL    MW4 5930   0.483   0.380   2.631  0.0233 -0.4590  0.8955
 1472SOL     OW 5931   0.684   0.496   2.757 -0.6207 -0.1738 -0.3950
 1472SOL    HW2 5932   0.693   0.484   2.852  0.6065  0.8274 -0.3694
 1472SOL    HW3 5933   0.765   0.460   2.721  0.0153  1.6971 -0.8621
 1472SOL    MW4 5934   0.696   0.490   2.765 -0.3749  0.2051 -0.4530
 1473SOL     OW 5935   0.667   0.735   2.616  0.4017  0.2186  0.6574
 1473SOL    HW2 5936   0.749   0.777   2.643 -0.1874  0.8058  1.5967
 1473SOL    HW3 5937   0.669   0.649   2.657 -0.1490  0.8268  1.9963
 1473SOL    MW4 5938   0.678   0.729   2.625  0.2513  0.3763  0.9582
 1474SOL     OW 5939   0.462   0.873   2.740  0.0798  0.2381 -0.1998
 1474SOL    HW2 5940   0.448   0.959   2.701  1.7153  0.4368 -0.4038
 1474SOL    HW3 5941   0.542   0.841   2.698  0.9734 -0.2331  1.8145
 1474SOL    MW4 5942   0.471   0.880   2.729  0.4135  0.2021  0.0389
 1475SOL     OW 5943   0.433   1.136   2.663  0.0157  0.0510 -0.1204
 1475SOL    HW2 5944   0.514   1.175   2.697 -1.1371  1.8310  0.7061
 1475SOL    HW3 5945   0.439   1.147   2.568  0.1953  1.3298  0.0233
 1475SOL    MW4 5946   0.444   1.143   2.655 -0.1127  0.4545  0.0076
 1476SOL     OW 5947   0.671   1.249   2.740  0.4340  0.1481  0.1890
 1476SOL    HW2 5948   0.674   1.261   2.835  1.5335 -0.4553  0.2375
 1476SOL    HW3 5949   0.754   1.206   2.719 -0.7062 -1.6358 -0.7775
 1476SOL    MW4 5950   0.683   1.245   2.750  0.4287 -0.1669  0.0677
 1477SOL     OW 5951   0.651   1.522   2.671 -0.6567 -0.3883  0.4775
 1477SOL    HW2 5952   0.569   1.551   2.711 -0.3250 -0.4175  1.1879
 1477SOL    HW3 5953   0.657   1.430   2.694 -0.2714 -0.3099  0.6937
 1477SOL    MW4 5954   0.641   1.514   2.679 -0.5621 -0.3818  0.5996
 1478SOL     OW 5955   0.438   1.665   2.803 -0.1031 -0.1101 -0.2641
 1478SOL    HW2 5956   0.455   1.703   2.889 -1.0711 -0.9211  0.2957
 1478SOL    HW3 5957   0.428   1.740   2.744  1.9688  0.4411  0.0294
 1478SOL    MW4 5958   0.439   1.680   2.806  0.0426 -0.1445 -0.1516
 1479SOL     OW 5959   0.391   1.900   2.660  0.1315  0.8161 -0.1838
 1479SOL    HW2 5960   0.465   1.952   2.690 -0.8056  0.8326  2.1483
 1479SOL    HW3 5961   0.400   1.899   2.564  2.7235  1.3969  0.0277
 1479SOL    MW4 5962   0.402   1.907   2.651  0.3498  0.8949  0.1519
 1480SOL     OW 5963   0.606   2.033   2.770  0.4291 -0.0861  0.3080
 1480SOL    HW2 5964   0.600   2.029   2.866 -1.6064 -1.0422  0.1591
 1480SOL    HW3 5965   0.699   2.015   2.752  0.2159 -3.2576  1.9623
 1480SOL    MW4 5966   0.618   2.030   2.780  0.1324 -0.6304  0.5066
 1481SOL     OW 5967   0.613   2.288   2.620 -0.4613 -0.0458  0.0379
 1481SOL    HW2 5968   0.695   2.325   2.653 -1.7218  1.1805  1.9152
 1481SOL    HW3 5969   0.619   2.194   2.641  0.6842 -0.0545 -0.3210
 1481SOL    MW4 5970   0.624   2.280   2.627 -0.4765  0.1149  0.2382
 1482SOL     OW 5971   0.423   2.434   2.737 -0.1371 -0.0815 -0.6996
 1482SOL    HW2 5972   0.428   2.527   2.713  0.0426 -0.4506 -2.1442
 1482SOL    HW3 5973   0.497   2.394   2.692 -0.3737 -0.9737 -0.2995
 1482SOL    MW4 5974   0.434   2.441   2.728 -0.1446 -0.2480 -0.8373
 1483SOL     OW 5975   0.449   2.701   2.651  0.1963  0.1850  0.1070
 1483SOL    HW2 5976   0.520   2.753   2.688 -0.4724 -1.0506  3.3095
 1483SOL    HW3 5977   0.370   2.733   2.696 -0.6073 -1.5591  0.0031
 1483SOL    MW4 5978   0.448   2.712   2.662  0.0020 -0.2081  0.5159
 1484SOL     OW 5979   0.691   2.804   2.760  0.4168  0.1577 -0.7973
 1484SOL    HW2 5980   0.682   2.808   2.855 -1.6823  1.5727 -1.0166
 1484SOL    HW3 5981   0.700   2.895   2.733 -0.1834 -0.1379 -2.0439
 1484SOL    MW4 5982   0.691   2.817   2.769  0.0607  0.3054 -0.9906
 1485SOL     OW 5983   0.700   3.053   2.639 -0.2127 -0.0677 -0.3524
 1485SOL    HW2 5984   0.774   3.100   2.676  1.3219 -1.9991 -0.8969
 1485SOL    HW3 5985   0.712   3.059   2.544 -1.0474  0.0593 -0.4563
 1485SOL    MW4 5986   0.711   3.060   2.631 -0.1204 -0.3057 -0.4380
 1486SOL     OW 5987   0.478   3.194   2.723 -0.1770  0.0952  0.0868
 1486SOL    HW2 5988   0.483   3.211   2.817 -2.0935  0.3441  0.1521
 1486SOL    HW3 5989   0.552   3.135   2.706 -0.9203 -1.4646  2.0693
 1486SOL    MW4 5990   0.489   3.188   2.733 -0.5280 -0.0780  0.3572
 1487SOL     OW 5991   0.452   3.478   2.630  0.2082  0.5661 -0.1371
 1487SOL    HW2 5992   0.474   3.388   2.655  0.0373  0.4687 -0.3313
 1487SOL    HW3 5993   0.432   3.473   2.536  1.2791  1.0095 -0.3887
 1487SOL    MW4 5994   0.452   3.465   2.621  0.3269  0.6115 -0.1962
 1488SOL     OW 5995   0.675   3.622   2.714  0.3462  0.2775 -0.1529
 1488SOL    HW2 5996   0.662   3.618   2.809  0.8822 -0.1119 -0.0929
 1488SOL    HW3 5997   0.605   3.567   2.678  0.1024  0.4799  0.0123
 1488SOL    MW4 5998   0.664   3.614   2.722  0.3847  0.2532 -0.1233
 1489SOL     OW 5999   0.660   3.887   2.615  0.2970 -0.1068  0.2168
 1489SOL    HW2 6000   0.576   3.914   2.650 -0.0857 -0.4414 -0.4395
 1489SOL    HW3 6001   0.670   3.797   2.646  0.0424 -0.3407 -0.3810
 1489SOL    MW4 6002   0.651   3.878   2.624  0.2130 -0.1819  0.0513
 1490SOL     OW 6003   0.432   3.966   2.737 -0.1136 -0.2425  0.2802
 1490SOL    HW2 6004   0.414   4.055   2.705 -0.1708 -0.6138 -0.7418
 1490SOL    HW3 6005   0.353   3.917   2.717 -0.6016 -0.2164  2.0677
 1490SOL    MW4 6006   0.419   3.971   2.730 -0.1855 -0.2880  0.3812
 1491SOL     OW 6007   0.421   4.220   2.651 -0.0968 -0.5311  0.2460
 1491SOL    HW2 6008   0.492   4.276   2.681 -0.9944 -0.0822  1.5761
 1491SOL    HW3 6009   0.425   4.224   2.556  0.6181  0.7979  0.3314
 1491SOL    MW4 6010   0.430   4.228   2.643 -0.1209 -0.2966  0.4330
 1492SOL     OW 6011   0.639   4.378   2.726  0.2147  0.0595 -0.4810
 1492SOL    HW2 6012   0.719   4.341   2.688 -0.9890 -1.3560 -1.7000
 1492SOL    HW3 6013   0.643   4.471   2.703  1.3693 -0.0522 -0.7856
 1492SOL    MW4 6014   0.650   4.386   2.718  0.2082 -0.1426 -0.6819
 1493SOL     OW 6015   1.114   4.659   2.644 -0.2004  0.0672  0.4179
 1493SOL    HW2 6016   1.187   4.718   2.659  0.7227 -0.9871  0.1059
 1493SOL    HW3 6017   1.147   4.572   2.667 -1.4685 -0.3738  0.6546
 1493SOL    MW4 6018   1.128   4.655   2.649 -0.2460 -0.1297  0.4079
 1494SOL     OW 6019   0.874   0.113   2.739  0.5038 -0.0422  0.1998
 1494SOL    HW2 6020   0.901   0.112   2.831 -0.8577 -1.7963  0.6218
 1494SOL    HW3 6021   0.942   0.065   2.693 -1.1667 -3.3731  1.0673
 1494SOL    MW4 6022   0.887   0.107   2.745  0.1038 -0.7131  0.3700
 1495SOL     OW 6023   0.919   0.382   2.664 -0.7727  0.4677  0.6503
 1495SOL    HW2 6024   0.900   0.291   2.685  0.6922  0.1504  0.6762
 1495SOL    HW3 6025   0.926   0.383   2.568  1.0146  0.1491  0.7453
 1495SOL    MW4 6026   0.918   0.370   2.654 -0.3437  0.3838  0.6664
 1496SOL     OW 6027   1.162   0.472   2.749 -0.0736 -0.2294 -0.2669
 1496SOL    HW2 6028   1.158   0.551   2.695  0.0399 -0.2467 -0.3019
 1496SOL    HW3 6029   1.073   0.436   2.746 -0.5454  0.7672  1.0688
 1496SOL    MW4 6030   1.150   0.478   2.741 -0.1208 -0.1001 -0.0951
 1497SOL     OW 6031   1.147   0.742   2.638 -0.6059 -0.2309 -0.3105
 1497SOL    HW2 6032   1.238   0.764   2.657 -0.6585  1.2081 -1.6503
 1497SOL    HW3 6033   1.145   0.728   2.544 -2.1321  1.5655 -0.5764
 1497SOL    MW4 6034   1.159   0.743   2.628 -0.8142  0.1959 -0.5224
 1498SOL     OW 6035   0.889   0.856   2.706 -0.2359  0.3093 -0.0246
 1498SOL    HW2 6036   0.892   0.866   2.801  0.7538 -0.1627 -0.0040
 1498SOL    HW3 6037   0.978   0.831   2.681 -0.3313  1.0352 -1.1490
 1498SOL    MW4 6038   0.901   0.854   2.715 -0.1179  0.3428 -0.1702
 1499SOL     OW 6039   0.913   1.139   2.639 -0.5999 -0.1955  0.5019
 1499SOL    HW2 6040   0.891   1.049   2.663  0.8704 -0.9923 -1.0353
 1499SOL    HW3 6041   0.899   1.142   2.544 -0.9955  1.3187  0.6038
 1499SOL    MW4 6042   0.908   1.127   2.629 -0.4582 -0.1009  0.3126
 1500SOL     OW 6043   1.143   1.259   2.749 -0.4008  0.5269  0.1943
 1500SOL    HW2 6044   1.139   1.351   2.722 -0.7566  0.6364  0.6190
 1500SOL    HW3 6045   1.060   1.222   2.718  0.0357  0.1838 -0.5768
 1500SOL    MW4 6046   1.132   1.267   2.741 -0.3902  0.4960  0.1485
 1501SOL     OW 6047   1.139   1.523   2.674 -0.4327  0.3340  0.1733
 1501SOL    HW2 6048   1.064   1.580   2.696 -0.2045  1.0521 -0.8822
 1501SOL    HW3 6049   1.137   1.518   2.579  0.9269  0.4307  0.1412
 1501SOL    MW4 6050   1.129   1.530   2.664 -0.2233  0.4414  0.0298
 1502SOL     OW 6051   0.906   1.648   2.740 -0.0013  0.2230  0.2025
 1502SOL    HW2 6052   0.918   1.657   2.834 -0.5233 -0.8767  0.3862
 1502SOL    HW3 6053   0.819   1.609   2.731 -0.4797  1.4828 -0.7830
 1502SOL    MW4 6054   0.896   1.644   2.751 -0.1332  0.2441  0.0966
 1503SOL     OW 6055   0.853   1.931   2.635  0.0452  0.0795 -0.1948
 1503SOL    HW2 6056   0.935   1.972   2.664 -0.1335  1.2294 -1.3158
 1503SOL    HW3 6057   0.861   1.840   2.664  2.0265  0.0070 -0.9067
 1503SOL    MW4 6058   0.865   1.924   2.643  0.2830  0.2216 -0.4368
 1504SOL     OW 6059   1.065   2.069   2.751  0.1963 -0.0565  0.7052
 1504SOL    HW2 6060   1.148   2.028   2.725  1.2631  1.0228  2.2559
 1504SOL    HW3 6061   1.079   2.163   2.735 -0.9988  0.0452  0.2593
 1504SOL    MW4 6062   1.078   2.076   2.746  0.1794  0.0994  0.8514
 1505SOL     OW 6063   1.097   2.331   2.665 -0.2644 -0.1267  0.0834
 1505SOL    HW2 6064   1.179   2.376   2.685  0.3205 -0.4468 -1.5020
 1505SOL    HW3 6065   1.095   2.327   2.569 -2.1628 -0.0710  0.0967
 1505SOL    MW4 6066   1.107   2.337   2.655 -0.4377 -0.1616 -0.1240
 1506SOL     OW 6067   0.835   2.409   2.708 -0.3255  0.3415  0.7368
 1506SOL    HW2 6068   0.838   2.500   2.679 -1.0835  0.6524  1.6161
 1506SOL    HW3 6069   0.925   2.378   2.696 -0.6950  0.2906 -2.3569
 1506SOL    MW4 6070   0.848   2.417   2.703 -0.4742  0.3755  0.4447
 1507SOL     OW 6071   0.898   2.671   2.641  0.2886 -0.3747 -0.6961
 1507SOL    HW2 6072   0.972   2.721   2.677  0.0550 -1.0449  0.7641
 1507SOL    HW3 6073   0.821   2.708   2.685 -0.0095 -1.2193 -0.5085
 1507SOL    MW4 6074   0.898   2.683   2.652  0.2185 -0.5746 -0.4785
 1508SOL     OW 6075   1.124   2.820   2.738  0.4800 -0.4519  0.1778
 1508SOL    HW2 6076   1.153   2.840   2.827  1.5114 -0.0150 -0.2404
 1508SOL    HW3 6077   1.205   2.797   2.692  0.5256  2.9637 -1.6134
 1508SOL    MW4 6078   1.139   2.820   2.744  0.6222  0.0567 -0.1137
 1509SOL     OW 6079   1.148   3.096   2.630  0.0000  0.0000  0.0962
 1509SOL    HW2 6080   1.122   3.007   2.652  0.0000  0.0000  0.0923
 1509SOL    HW3 6081   1.136   3.101   2.535  0.0000  0.0000  0.0960
 1509SOL    MW4 6082   1.143   3.085   2.620  0.0000  0.0000  0.0956
 1510SOL     OW 6083   0.919   3.208   2.729  0.0000  0.0000 -0.2832
 1510SOL    HW2 6084   0.903   3.287   2.676  0.0000  0.0000 -0.2624
 1510SOL    HW3 6085   1.006   3.179   2.701  0.0000  0.0000 -0.3196
 1510SOL    MW4 6086   0.928   3.215   2.718  0.0000  0.0000 -0.2851
 1511SOL     OW 6087   0.887   3.462   2.618  0.0000  0.0000  0.0757
 1511SOL    HW2 6088   0.961   3.508   2.659  0.0000  0.0000  0.1060
 1511SOL    HW3 6089   0.810   3.511   2.648  0.0000  0.0000  0.0553
 1511SOL    MW4 6090   0.887   3.475   2.627  0.0000  0.0000  0.0770
 1512SOL     OW 6091   1.102   3.599   2.714  0.0000  0.0000 -0.4913
 1512SOL    HW2 6092   1.101   3.626   2.806  0.0000  0.0000 -0.4906
 1512SOL    HW3 6093   1.100   3.681   2.665  0.0000  0.0000 -0.4899
 1512SOL    MW4 6094   1.102   3.613   2.719  0.0000  0.0000 -0.4911
 1513SOL     OW 6095   1.098   3.851   2.567  0.0000  0.0000 -0.0699
 1513SOL    HW2 6096   1.178   3.889   2.605  0.0000  0.0000 -0.0736
 1513SOL    HW3 6097   1.110   3.859   2.472  0.0000  0.0000 -0.0705
 1513SOL    MW4 6098   1.110   3.857   2.559  0.0000  0.0000 -0.0703
 1514SOL     OW 6099   0.893   4.008   2.718  0.0000  0.0000  0.1090
 1514SOL    HW2 6100   0.957   3.963   2.663  0.0000  0.0000  0.1133
 1514SOL    HW3 6101   0.809   3.969   2.692  0.0000  0.0000  0.1209
 1514SOL    MW4 6102   0.890   3.997   2.708  0.0000  0.0000  0.1113
 1515SOL     OW 6103   0.888   4.266   2.624  0.0000  0.0000  0.1092
 1515SOL    HW2 6104   0.892   4.173   2.648  0.0000  0.0000  0.1150
 1515SOL    HW3 6105   0.884   4.265   2.528  0.0000  0.0000  0.1095
 1515SOL    MW4 6106   0.888   4.254   2.614  0.0000  0.0000  0.1099
 1516SOL     OW 6107   1.144   4.351   2.697  0.0000  0.0000 -0.2095
 1516SOL    HW2 6108   1.136   4.378   2.789  0.0000  0.0000 -0.2087
 1516SOL    HW3 6109   1.055   4.327   2.672  0.0000  0.0000 -0.2035
 1516SOL    MW4 6110   1.131   4.351   2.706  0.0000  0.0000 -0.2084
 1517SOL     OW 6111   1.593   4.643   2.637  0.0000  0.0000 -0.5581
 1517SOL    HW2 6112   1.588   4.549   2.653  0.0000  0.0000 -0.5581
 1517SOL    HW3 6113   1.581   4.652   2.542  0.0000  0.0000 -0.5581
 1517SOL    MW4 6114   1.591   4.632   2.627  0.0000  0.0000 -0.5579
 1518SOL     OW 6115   1.362   0.125   2.685 -0.3297  0.2126 -0.2054
 1518SOL    HW2 6116   1.375   0.215   2.654 -1.8940  0.2150 -0.8974
 1518SOL    HW3 6117   1.445   0.081   2.666  0.0738  1.2270 -0.8434
 1518SOL    MW4 6118   1.375   0.131   2.678 -0.4828  0.3468 -0.3810
 1519SOL     OW 6119   1.383   0.386   2.616  0.0661  0.1710  0.0204
 1519SOL    HW2 6120   1.467   0.418   2.651 -0.2007  1.0844 -0.1738
 1519SOL    HW3 6121   1.317   0.419   2.677 -0.1508 -0.7331  0.2952
 1519SOL    MW4 6122   1.386   0.394   2.629  0.0021  0.1722  0.0308
 1520SOL     OW 6123   1.591   0.478   2.750 -0.6433  0.8133 -0.0790
 1520SOL    HW2 6124   1.670   0.438   2.714 -1.1936 -0.4345  0.0707
 1520SOL    HW3 6125   1.590   0.566   2.712  0.0790  0.3614 -1.1917
 1520SOL    MW4 6126   1.601   0.484   2.740 -0.6206  0.5890 -0.2062
 1521SOL     OW 6127   1.603   0.727   2.640  0.2779 -0.1996 -0.3932
 1521SOL    HW2 6128   1.520   0.768   2.663  1.1771  0.9222  0.9798
 1521SOL    HW3 6129   1.604   0.724   2.544 -0.1739  2.2514 -0.4925
 1521SOL    MW4 6130   1.592   0.732   2.630  0.3369  0.2717 -0.2253
 1522SOL     OW 6131   1.376   0.874   2.705 -0.1387 -0.2144  0.1494
 1522SOL    HW2 6132   1.345   0.895   2.793  0.4896  0.8093  0.1360
 1522SOL    HW3 6133   1.381   0.958   2.660 -0.7916 -0.7726 -0.9891
 1522SOL    MW4 6134   1.373   0.888   2.711 -0.1420 -0.1529 -0.0024
 1523SOL     OW 6135   1.374   1.147   2.615 -0.2424 -0.1208  0.5931
 1523SOL    HW2 6136   1.446   1.193   2.659 -0.8736 -0.3702  1.9131
 1523SOL    HW3 6137   1.295   1.182   2.657 -0.8911  0.0646 -0.7602
 1523SOL    MW4 6138   1.373   1.158   2.626 -0.4114 -0.1292  0.5887
 1524SOL     OW 6139   1.596   1.311   2.701  0.2212  0.6305 -0.0130
 1524SOL    HW2 6140   1.604   1.309   2.796  0.5755  0.0029 -0.0462
 1524SOL    HW3 6141   1.657   1.243   2.671  0.4912  1.1732 -0.7081
 1524SOL    MW4 6142   1.605   1.302   2.709  0.3035  0.6193 -0.1092
 1525SOL     OW 6143   1.527   1.582   2.603 -0.2238 -0.0933  0.2473
 1525SOL    HW2 6144   1.543   1.497   2.644 -0.6781 -0.5720 -0.5591
 1525SOL    HW3 6145   1.528   1.564   2.509 -2.8478  0.3337  0.1078
 1525SOL    MW4 6146   1.529   1.568   2.596 -0.6299 -0.1001  0.1225
 1526SOL     OW 6147   1.316   1.728   2.745  0.0484 -0.7339 -0.2630
 1526SOL    HW2 6148   1.394   1.686   2.708 -0.0384 -0.0558 -1.2234
 1526SOL    HW3 6149   1.248   1.660   2.741  0.2117 -0.8706 -0.7567
 1526SOL    MW4 6150   1.317   1.713   2.740  0.0585 -0.6623 -0.4547
 1527SOL     OW 6151   1.312   1.995   2.663  0.2944  0.0155 -0.2658
 1527SOL    HW2 6152   1.324   1.902   2.683  1.1690  0.5860  1.9649
 1527SOL    HW3 6153   1.327   2.001   2.568  0.9768 -1.9844 -0.3036
 1527SOL    MW4 6154   1.315   1.983   2.653  0.4998 -0.1731  0.0231
 1528SOL     OW 6155   1.567   2.084   2.759  0.0340 -0.2264  0.4675
 1528SOL    HW2 6156   1.641   2.045   2.712  0.2741  1.0317 -0.2239
 1528SOL    HW3 6157   1.490   2.055   2.711  0.1478 -0.7265  0.5910
 1528SOL    MW4 6158   1.567   2.075   2.746  0.0806 -0.1266  0.3927
 1529SOL     OW 6159   1.583   2.327   2.603  0.1856 -0.3688  0.4761
 1529SOL    HW2 6160   1.649   2.384   2.643  0.4884 -1.3047  1.3127
 1529SOL    HW3 6161   1.582   2.248   2.657 -0.7475 -0.8738 -0.2518
 1529SOL    MW4 6162   1.592   2.324   2.615  0.1024 -0.5591  0.4904
 1530SOL     OW 6163   1.335   2.428   2.726 -0.5222  0.4912  0.6357
 1530SOL    HW2 6164   1.335   2.519   2.697 -2.8350 -0.2858 -2.0047
 1530SOL    HW3 6165   1.408   2.388   2.679 -1.3835  0.3028 -0.5551
 1530SOL    MW4 6166   1.344   2.435   2.716 -0.9410  0.3638  0.1302
 1531SOL     OW 6167   1.365   2.682   2.626  0.3112 -0.2917  0.0031
 1531SOL    HW2 6168   1.443   2.724   2.664  0.9664 -1.2487 -0.2575
 1531SOL    HW3 6169   1.390   2.664   2.535  0.0409 -1.2243  0.1068
 1531SOL    MW4 6170   1.379   2.685   2.619  0.3618 -0.5412 -0.0176
 1532SOL     OW 6171   1.582   2.830   2.725 -0.2845  0.2116  0.2755
 1532SOL    HW2 6172   1.580   2.824   2.821 -0.5646  1.3033  0.3517
 1532SOL    HW3 6173   1.656   2.775   2.699  0.4195  0.6928  1.1918
 1532SOL    MW4 6174   1.591   2.822   2.734 -0.2285  0.4191  0.4063
 1533SOL     OW 6175   1.566   3.074   2.627  0.1757 -0.3591 -0.2168
 1533SOL    HW2 6176   1.624   3.135   2.672 -0.0720 -0.7207  0.5902
 1533SOL    HW3 6177   1.585   2.989   2.665 -1.2693 -0.3946  0.4682
 1533SOL    MW4 6178   1.576   3.071   2.638 -0.0477 -0.4117 -0.0196
 1534SOL     OW 6179   1.362   3.239   2.704  0.0113  0.2656 -0.1585
 1534SOL    HW2 6180   1.437   3.182   2.685  0.1010  0.5564 -0.6897
 1534SOL    HW3 6181   1.287   3.192   2.668  0.2352  1.0079 -1.6322
 1534SOL    MW4 6182   1.362   3.225   2.697  0.0526  0.4020 -0.4227
 1535SOL     OW 6183   1.355   3.508   2.645 -0.2611  0.0513  0.1407
 1535SOL    HW2 6184   1.354   3.414   2.660  0.6322  0.2457  1.5331
 1535SOL    HW3 6185   1.264   3.535   2.656 -0.7775 -0.8490 -1.7321
 1535SOL    MW4 6186   1.343   3.499   2.648 -0.2112 -0.0417  0.0772
 1536SOL     OW 6187   1.594   3.614   2.716  0.0215  0.2476  0.3012
 1536SOL    HW2 6188   1.664   3.565   2.671  0.3000  0.6128  0.3333
 1536SOL    HW3 6189   1.513   3.577   2.681  0.2330  0.0883 -0.0296
 1536SOL    MW4 6190   1.593   3.603   2.705  0.0861  0.2749  0.2615
 1537SOL     OW 6191   1.551   3.889   2.633 -0.1364  0.0293 -0.4461
 1537SOL    HW2 6192   1.465   3.916   2.665  0.3917  2.3265 -0.8359
 1537SOL    HW3 6193   1.563   3.800   2.666 -1.4096  0.7568  2.0563
 1537SOL    MW4 6194   1.541   3.881   2.641 -0.2346  0.4282 -0.1674
 1538SOL     OW 6195   1.293   3.950   2.731 -0.0802  0.5669  0.4005
 1538SOL    HW2 6196   1.311   3.959   2.824  1.8455  0.9559  0.0149
 1538SOL    HW3 6197   1.291   4.041   2.699 -0.5815  0.4269  0.0227
 1538SOL    MW4 6198   1.295   3.963   2.739  0.1078  0.5996  0.2995
 1539SOL     OW 6199   1.341   4.199   2.591  0.3665 -0.2107 -0.2340
 1539SOL    HW2 6200   1.270   4.255   2.623  0.7938  0.3503 -0.2501
 1539SOL    HW3 6201   1.336   4.206   2.496 -0.5920 -1.4882 -0.2972
 1539SOL    MW4 6202   1.331   4.207   2.583  0.2964 -0.3057 -0.2444
 1540SOL     OW 6203   1.543   4.372   2.693  0.6418 -0.0255 -0.1251
 1540SOL    HW2 6204   1.527   4.372   2.787 -0.0265  0.4158 -0.2322
 1540SOL    HW3 6205   1.478   4.310   2.659 -0.4410  1.3018 -0.5035
 1540SOL    MW4 6206   1.532   4.364   2.701  0.4108  0.2079 -0.1893
 1541SOL     OW 6207   2.041   4.643   2.627  0.0137  0.1448 -0.3856
 1541SOL    HW2 6208   2.131   4.672   2.647 -0.3916  1.1358  0.0475
 1541SOL    HW3 6209   2.039   4.638   2.531  0.9507 -1.2776 -0.3465
 1541SOL    MW4 6210   2.053   4.646   2.617  0.0839  0.0877 -0.3233
 1542SOL     OW 6211   1.826   0.092   2.763  0.2304  0.1871 -0.0370
 1542SOL    HW2 6212   1.902   0.042   2.732 -0.5038 -0.4846 -0.7804
 1542SOL    HW3 6213   1.753   0.060   2.710 -0.5803  0.8077  0.6875
 1542SOL    MW4 6214   1.826   0.081   2.752  0.0267  0.1804 -0.0396
 1543SOL     OW 6215   1.823   0.340   2.627 -0.4613  0.2400 -0.6266
 1543SOL    HW2 6216   1.884   0.400   2.670 -0.1043  0.3571 -1.2905
 1543SOL    HW3 6217   1.836   0.256   2.672 -0.4125  0.4756 -0.2039
 1543SOL    MW4 6218   1.833   0.337   2.638 -0.4078  0.2866 -0.6583
 1544SOL     OW 6219   2.023   0.536   2.718  0.3015 -0.1470 -0.1644
 1544SOL    HW2 6220   2.101   0.489   2.689  1.0363  0.8716  0.1415
 1544SOL    HW3 6221   2.038   0.627   2.691 -0.4884  0.1796  0.4697
 1544SOL    MW4 6222   2.035   0.542   2.710  0.2942  0.0305 -0.0405
 1545SOL     OW 6223   2.059   0.792   2.655  0.2700  0.4291 -0.0453
 1545SOL    HW2 6224   1.980   0.835   2.687 -1.3442 -1.7108 -1.0298
 1545SOL    HW3 6225   2.055   0.803   2.560  1.4301  0.7367 -0.0653
 1545SOL    MW4 6226   2.048   0.800   2.647  0.2100  0.1873 -0.1781
 1546SOL     OW 6227   1.814   0.895   2.747  0.2681 -0.6622 -0.3288
 1546SOL    HW2 6228   1.787   0.970   2.694  1.2795 -0.8927 -1.1761
 1546SOL    HW3 6229   1.752   0.826   2.723 -0.1761 -0.3359 -0.1283
 1546SOL    MW4 6230   1.802   0.896   2.737  0.3430 -0.6495 -0.4141
 1547SOL     OW 6231   1.784   1.132   2.596  0.0142  0.3824  0.4077
 1547SOL    HW2 6232   1.863   1.171   2.633  1.5487 -2.2202 -0.0200
 1547SOL    HW3 6233   1.792   1.145   2.502 -1.0417  1.8178  0.4956
 1547SOL    MW4 6234   1.795   1.139   2.588  0.0774  0.2285  0.3631
 1548SOL     OW 6235   2.001   1.302   2.713  0.7684  0.3327 -0.3851
 1548SOL    HW2 6236   2.006   1.298   2.809  0.1599 -0.2995 -0.3762
 1548SOL    HW3 6237   2.079   1.255   2.683 -0.2053 -1.4406 -0.2053
 1548SOL    MW4 6238   2.012   1.295   2.722  0.5596  0.0151 -0.3603
 1549SOL     OW 6239   2.025   1.560   2.621  0.4289 -0.2235  0.6701
 1549SOL    HW2 6240   1.947   1.612   2.637  1.0221  0.6688  0.7318
 1549SOL    HW3 6241   2.009   1.478   2.667 -0.3840  0.0257  0.8440
 1549SOL    MW4 6242   2.013   1.556   2.629  0.3998 -0.0728  0.7010
 1550SOL     OW 6243   1.780   1.708   2.674  0.2829  0.2324 -0.5930
 1550SOL    HW2 6244   1.784   1.707   2.770  1.0471  0.1181 -0.6178
 1550SOL    HW3 6245   1.705   1.654   2.652  0.4344 -0.1962 -0.0694
 1550SOL    MW4 6246   1.771   1.701   2.684  0.4038  0.1608 -0.5271
 1551SOL     OW 6247   1.761   1.963   2.619  0.4134  0.2123  0.0287
 1551SOL    HW2 6248   1.841   1.997   2.659  0.4645 -0.2463  0.3272
 1551SOL    HW3 6249   1.764   1.869   2.637 -0.3539  0.2440  0.3233
 1551SOL    MW4 6250   1.772   1.955   2.627  0.3189  0.1559  0.1070
 1552SOL     OW 6251   2.002   2.045   2.724 -0.1794 -0.0565  0.4109
 1552SOL    HW2 6252   2.022   2.044   2.818 -0.0951  1.8178  0.4355
 1552SOL    HW3 6253   1.997   2.138   2.702 -0.4101 -0.4863 -1.4049
 1552SOL    MW4 6254   2.004   2.057   2.734 -0.1984  0.1340  0.1745
 1553SOL     OW 6255   2.028   2.335   2.667 -0.1497  0.1273  0.2260
 1553SOL    HW2 6256   2.110   2.381   2.681 -0.5075  0.6279  0.6702
 1553SOL    HW3 6257   2.024   2.321   2.573  1.4201 -1.6911  0.3938
 1553SOL    MW4 6258   2.038   2.339   2.657  0.0103 -0.0465  0.3064
 1554SOL     OW 6259   1.785   2.473   2.732 -0.4351 -0.1354 -0.5918
 1554SOL    HW2 6260   1.800   2.471   2.826 -1.5322 -2.5105 -0.4442
 1554SOL    HW3 6261   1.872   2.457   2.694 -0.5522 -2.5340  0.0829
 1554SOL    MW4 6262   1.799   2.471   2.739 -0.5955 -0.7651 -0.4835
 1555SOL     OW 6263   1.820   2.715   2.626  0.2911 -0.1311 -0.3690
 1555SOL    HW2 6264   1.816   2.631   2.671 -1.1292 -0.1426 -0.4842
 1555SOL    HW3 6265   1.828   2.693   2.534  1.2079 -0.1234 -0.2954
 1555SOL    MW4 6266   1.820   2.701   2.620  0.2246 -0.1316 -0.3746
 1556SOL     OW 6267   2.045   2.860   2.726 -0.1112 -0.4919 -0.3099
 1556SOL    HW2 6268   2.120   2.814   2.690 -0.3929 -1.1999 -0.0008
 1556SOL    HW3 6269   1.969   2.815   2.690 -0.3931 -0.8531  0.7085
 1556SOL    MW4 6270   2.045   2.848   2.716 -0.1857 -0.6330 -0.1347
 1557SOL     OW 6271   2.013   3.141   2.654  0.3119 -0.7674 -0.3239
 1557SOL    HW2 6272   2.027   3.049   2.677 -0.7986 -1.0287 -0.6722
 1557SOL    HW3 6273   1.985   3.139   2.563  0.1958 -0.0884 -0.3029
 1557SOL    MW4 6274   2.011   3.128   2.645  0.1500 -0.7124 -0.3672
 1558SOL     OW 6275   1.755   3.235   2.741  0.2882  0.0006  0.3132
 1558SOL    HW2 6276   1.742   3.316   2.691 -1.5983 -1.0163 -0.9104
 1558SOL    HW3 6277   1.842   3.205   2.717  0.5458  1.0712 -0.0985
 1558SOL    MW4 6278   1.764   3.242   2.731  0.0732  0.0079  0.0975
 1559SOL     OW 6279   1.792   3.472   2.587  0.8133 -0.1017 -0.2061
 1559SOL    HW2 6280   1.870   3.516   2.621  1.5245 -0.6661 -1.0592
 1559SOL    HW3 6281   1.799   3.481   2.492 -0.1946 -0.1086 -0.2822
 1559SOL    MW4 6282   1.803   3.479   2.579  0.7741 -0.1771 -0.3288
 1560SOL     OW 6283   2.011   3.616   2.682 -0.2921 -0.3774  0.2107
 1560SOL    HW2 6284   2.003   3.614   2.777  0.0614 -1.0618  0.2253
 1560SOL    HW3 6285   2.101   3.589   2.664 -0.4953 -0.6986 -0.3383
 1560SOL    MW4 6286   2.022   3.612   2.692 -0.2725 -0.5102  0.1402
 1561SOL     OW 6287   2.033   3.885   2.610  0.3071 -0.1395  0.0369
 1561SOL    HW2 6288   1.968   3.937   2.657  0.8677  0.5935  0.0063
 1561SOL    HW3 6289   2.023   3.797   2.646 -0.6508 -0.0222  0.0842
 1561SOL    MW4 6290   2.023   3.880   2.621  0.2549 -0.0274  0.0389
 1562SOL     OW 6291   1.794   4.004   2.725  0.0024  0.1832 -0.1024
 1562SOL    HW2 6292   1.803   4.092   2.689 -0.2805  0.2111 -0.1134
 1562SOL    HW3 6293   1.713   3.970   2.685 -0.9487  0.6510  1.3835
 1562SOL    MW4 6294   1.784   4.011   2.715 -0.1603  0.2489  0.0923
 1563SOL     OW 6295   1.820   4.262   2.631 -0.1485  0.3452  0.0699
 1563SOL    HW2 6296   1.738   4.299   2.663 -1.2039 -0.2814 -1.8752
 1563SOL    HW3 6297   1.823   4.287   2.539  2.4723  1.4545  0.3906
 1563SOL    MW4 6298   1.810   4.270   2.623  0.0579  0.4086 -0.1442
 1564SOL     OW 6299   2.024   4.387   2.747  0.6075 -0.1507 -0.0520
 1564SOL    HW2 6300   1.948   4.346   2.707  0.7475 -1.4135  0.9561
 1564SOL    HW3 6301   2.022   4.478   2.715 -1.0931 -0.2707 -0.3193
 1564SOL    MW4 6302   2.014   4.394   2.737  0.4017 -0.3333  0.0458
 1565SOL     OW 6303   2.487   4.617   2.631  0.0116 -0.0320 -0.0297
 1565SOL    HW2 6304   2.553   4.677   2.665 -1.0085  0.2794  1.4672
 1565SOL    HW3 6305   2.475   4.643   2.540  0.3521  1.3579  0.3109
 1565SOL    MW4 6306   2.494   4.629   2.624 -0.0782  0.1926  0.2127
 1566SOL     OW 6307   2.265   0.107   2.721 -0.4037 -0.0355 -0.3613
 1566SOL    HW2 6308   2.264   0.091   2.816 -0.6528  1.4046 -0.1023
 1566SOL    HW3 6309   2.338   0.056   2.689 -0.4045 -0.6603  0.5935
 1566SOL    MW4 6310   2.274   0.098   2.729 -0.4368  0.0720 -0.2010
 1567SOL     OW 6311   2.237   0.392   2.613 -0.2773  0.3256 -0.0779
 1567SOL    HW2 6312   2.227   0.308   2.657  1.3794 -0.0926 -0.4718
 1567SOL    HW3 6313   2.321   0.426   2.644  0.3027  0.6176 -1.9164
 1567SOL    MW4 6314   2.246   0.386   2.623  0.0179  0.3090 -0.3724
 1568SOL     OW 6315   2.469   0.497   2.707 -0.6965  0.4681 -0.2290
 1568SOL    HW2 6316   2.474   0.591   2.694  0.3373  0.7993  2.3287
 1568SOL    HW3 6317   2.461   0.486   2.802 -0.4044 -2.0192 -0.4581
 1568SOL    MW4 6318   2.469   0.508   2.718 -0.5212  0.1837  0.0780
 1569SOL     OW 6319   2.470   0.760   2.669 -0.5005 -0.6096  0.2532
 1569SOL    HW2 6320   2.393   0.806   2.701  1.7402  2.0617  2.0055
 1569SOL    HW3 6321   2.471   0.777   2.575 -1.9790 -0.5793  0.2330
 1569SOL    MW4 6322   2.460   0.768   2.661 -0.4001 -0.2531  0.4816
 1570SOL     OW 6323   2.271   0.916   2.767  0.1695  0.6115 -0.0434
 1570SOL    HW2 6324   2.269   0.920   2.862  0.7876  0.0960 -0.0072
 1570SOL    HW3 6325   2.185   0.882   2.742  0.4874 -0.5198  0.3950
 1570SOL    MW4 6326   2.259   0.912   2.776  0.2930  0.3943  0.0193
 1571SOL     OW 6327   2.257   1.189   2.638  0.1414  0.0935 -0.2246
 1571SOL    HW2 6328   2.245   1.101   2.672 -0.0009  0.7118  1.3803
 1571SOL    HW3 6329   2.276   1.177   2.545  0.7132 -1.6472  0.1034
 1571SOL    MW4 6330   2.258   1.176   2.630  0.1981 -0.0544  0.0305
 1572SOL     OW 6331   2.473   1.305   2.757 -0.2630  0.5872 -0.0246
 1572SOL    HW2 6332   2.545   1.267   2.706 -0.4928 -1.4107  1.1023
 1572SOL    HW3 6333   2.394   1.264   2.721 -0.4101 -1.0223  2.0693
 1572SOL    MW4 6334   2.472   1.294   2.745 -0.3126  0.1111  0.4005
 1573SOL     OW 6335   2.442   1.550   2.618  0.1646 -0.0448  0.6721
 1573SOL    HW2 6336   2.380   1.596   2.675  0.0567  0.3686  0.2213
 1573SOL    HW3 6337   2.458   1.467   2.663 -1.4793 -0.5702  0.3203
 1573SOL    MW4 6338   2.436   1.545   2.632 -0.0665 -0.0595  0.5662
 1574SOL     OW 6339   2.236   1.705   2.747 -0.2250 -0.8737  0.1590
 1574SOL    HW2 6340   2.247   1.789   2.701 -0.5232 -0.6340  0.5284
 1574SOL    HW3 6341   2.165   1.661   2.701 -0.9701 -0.3507  0.7981
 1574SOL    MW4 6342   2.228   1.710   2.735 -0.3626 -0.7731  0.2918
 1575SOL     OW 6343   2.230   1.951   2.635  0.2971 -0.3025  0.5444
 1575SOL    HW2 6344   2.143   1.979   2.664  0.8175  0.3627  1.5180
 1575SOL    HW3 6345   2.233   1.970   2.542 -1.0183 -1.4113  0.2666
 1575SOL    MW4 6346   2.219   1.957   2.627  0.1922 -0.3611  0.6361
 1576SOL     OW 6347   2.494   2.045   2.718  0.1352  0.1791  0.2440
 1576SOL    HW2 6348   2.490   2.136   2.687  1.4694 -0.8559 -3.1434
 1576SOL    HW3 6349   2.406   2.010   2.700  0.3956  0.0750 -0.8712
 1576SOL    MW4 6350   2.482   2.052   2.712  0.3457  0.0288 -0.3502
 1577SOL     OW 6351   2.469   2.315   2.643 -0.2359 -0.1071  0.1640
 1577SOL    HW2 6352   2.548   2.367   2.659 -0.8232  1.4220 -1.6779
 1577SOL    HW3 6353   2.463   2.311   2.548 -1.6013 -1.4367  0.3003
 1577SOL    MW4 6354   2.479   2.322   2.633 -0.4935 -0.0803 -0.0608
 1578SOL     OW 6355   2.251   2.466   2.747  0.2191  0.0619 -0.6330
 1578SOL    HW2 6356   2.258   2.465   2.843  0.6275 -0.2911 -0.6662
 1578SOL    HW3 6357   2.322   2.410   2.717 -0.1880 -0.1895 -1.1292
 1578SOL    MW4 6358   2.261   2.459   2.756  0.2193 -0.0176 -0.7026
 1579SOL     OW 6359   2.280   2.710   2.632  0.2084  0.2658 -0.4699
 1579SOL    HW2 6360   2.346   2.763   2.677 -0.7017  1.5694 -0.6267
 1579SOL    HW3 6361   2.281   2.626   2.678  1.3896  0.5577  0.0529
 1579SOL    MW4 6362   2.289   2.706   2.644  0.2441  0.4766 -0.4215
 1580SOL     OW 6363   2.499   2.871   2.725  0.3104  0.5005 -0.1044
 1580SOL    HW2 6364   2.566   2.817   2.684  0.6173  1.3316 -0.7104
 1580SOL    HW3 6365   2.504   2.955   2.679  0.6862  1.4665  1.6510
 1580SOL    MW4 6366   2.508   2.875   2.713  0.4003  0.7374  0.0472
 1581SOL     OW 6367   2.505   3.120   2.574 -0.2643 -0.2852 -0.3701
 1581SOL    HW2 6368   2.441   3.180   2.612  2.1141  1.8287  0.3996
 1581SOL    HW3 6369   2.488   3.125   2.480 -0.8602  0.6896 -0.2224
 1581SOL    MW4 6370   2.494   3.129   2.566 -0.0293  0.1221 -0.2491
 1582SOL     OW 6371   2.244   3.278   2.681  0.0556 -0.0032  0.4286
 1582SOL    HW2 6372   2.272   3.262   2.771 -1.5134  3.3465  1.5843
 1582SOL    HW3 6373   2.158   3.236   2.675  0.3867 -0.6729  0.3125
 1582SOL    MW4 6374   2.236   3.270   2.692 -0.1075  0.3500  0.5660
 1583SOL     OW 6375   2.280   3.543   2.575 -0.0070  0.4584  0.0165
 1583SOL    HW2 6376   2.355   3.579   2.622 -0.7570  0.9449  0.8568
 1583SOL    HW3 6377   2.260   3.461   2.621 -0.3775  0.6407  0.1785
 1583SOL    MW4 6378   2.288   3.537   2.587 -0.1547  0.5465  0.1488
 1584SOL     OW 6379   2.501   3.655   2.722  0.1932  0.5587  0.0614
 1584SOL    HW2 6380   2.491   3.650   2.817  0.2554  0.5456  0.0675
 1584SOL    HW3 6381   2.505   3.749   2.704  0.3142  0.5583  0.0860
 1584SOL    MW4 6382   2.501   3.667   2.732  0.2174  0.5569  0.0656
 1585SOL     OW 6383   2.491   3.932   2.636 -0.2335  0.2887  0.3371
 1585SOL    HW2 6384   2.558   3.972   2.692  0.1169  2.7788 -1.8020
 1585SOL    HW3 6385   2.408   3.967   2.669 -0.2909 -0.6370  1.2124
 1585SOL    MW4 6386   2.489   3.942   2.648 -0.1950  0.4950  0.1702
 1586SOL     OW 6387   2.260   4.025   2.720  0.1626 -0.0448 -0.4404
 1586SOL    HW2 6388   2.260   4.017   2.815  1.4812  0.2680 -0.4035
 1586SOL    HW3 6389   2.201   3.956   2.690 -0.9073  0.3823  0.6432
 1586SOL    MW4 6390   2.252   4.015   2.728  0.1957  0.0525 -0.2925
 1587SOL     OW 6391   2.205   4.252   2.602  0.3140  0.3225  0.3246
 1587SOL    HW2 6392   2.219   4.171   2.651  0.1108 -0.1041 -0.3131
 1587SOL    HW3 6393   2.143   4.301   2.655  0.8297  0.2917  0.9748
 1587SOL    MW4 6394   2.199   4.248   2.615  0.3550  0.2623  0.3264
 1588SOL     OW 6395   2.444   4.374   2.739  0.2792 -0.1329 -0.1808
 1588SOL    HW2 6396   2.389   4.316   2.686  1.2286 -0.2847 -1.0169
 1588SOL    HW3 6397   2.448   4.455   2.689  3.6080 -1.2389 -1.8988
 1588SOL    MW4 6398   2.437   4.377   2.725  0.8435 -0.2985 -0.5178
 1589SOL     OW 6399   2.914   0.014   2.646  0.2458 -0.1376 -0.0831
 1589SOL    HW2 6400   2.993   0.056   2.681 -0.8475  0.6444  1.5223
 1589SOL    HW3 6401   2.921   0.025   2.551  2.6384 -1.1341 -0.0606
 1589SOL    MW4 6402   2.925   0.021   2.638  0.4172 -0.1659  0.1321
 1590SOL     OW 6403   2.673   0.124   2.723 -0.2511 -0.1684 -0.3364
 1590SOL    HW2 6404   2.674   0.134   2.818 -0.0459 -0.7625 -0.2761
 1590SOL    HW3 6405   2.751   0.072   2.703  0.6496  1.3916 -0.9906
 1590SOL    MW4 6406   2.684   0.119   2.733 -0.1051 -0.0410 -0.4148
 1591SOL     OW 6407   2.692   0.385   2.632 -0.1173  0.1943  0.4993
 1591SOL    HW2 6408   2.673   0.296   2.660 -0.3171 -0.3702 -1.3284
 1591SOL    HW3 6409   2.612   0.435   2.650 -0.1496 -0.0934  1.1366
 1591SOL    MW4 6410   2.679   0.380   2.638 -0.1481  0.0818  0.3421
 1592SOL     OW 6411   2.912   0.498   2.724  0.4267 -0.0254  0.1790
 1592SOL    HW2 6412   2.914   0.578   2.671 -1.5991  1.1449  1.7826
 1592SOL    HW3 6413   2.827   0.458   2.705  1.1758 -1.5036 -0.1474
 1592SOL    MW4 6414   2.901   0.503   2.715  0.2584 -0.0660  0.3476
 1593SOL     OW 6415   2.893   0.750   2.607  0.6397  0.0823  0.9057
 1593SOL    HW2 6416   2.967   0.797   2.644 -0.2590  0.0563  2.7875
 1593SOL    HW3 6417   2.816   0.787   2.650 -0.1565 -2.4078  1.7480
 1593SOL    MW4 6418   2.892   0.761   2.617  0.4158 -0.2496  1.2653
 1594SOL     OW 6419   2.690   0.913   2.716 -0.4870  0.1767  0.1102
 1594SOL    HW2 6420   2.706   0.925   2.809 -1.4939  0.7145  0.2187
 1594SOL    HW3 6421   2.610   0.861   2.712  0.9197 -2.0114 -0.4302
 1594SOL    MW4 6422   2.681   0.907   2.728 -0.4344 -0.0410  0.0532
 1595SOL     OW 6423   2.678   1.186   2.619 -0.4145 -0.0755  0.5184
 1595SOL    HW2 6424   2.746   1.223   2.676 -0.7678  0.0618  0.8591
 1595SOL    HW3 6425   2.668   1.096   2.650 -1.3714  0.3232  1.3992
 1595SOL    MW4 6426   2.686   1.179   2.631 -0.5875 -0.0048  0.6795
 1596SOL     OW 6427   2.895   1.266   2.768  0.7336 -0.8398 -0.0700
 1596SOL    HW2 6428   2.911   1.250   2.861  1.5028 -1.2563 -0.2676
 1596SOL    HW3 6429   2.976   1.238   2.725  0.0440 -1.4834 -0.9500
 1596SOL    MW4 6430   2.908   1.260   2.775  0.7436 -0.9795 -0.2122
 1597SOL     OW 6431   2.913   1.530   2.622 -0.4112  0.3520 -0.0504
 1597SOL    HW2 6432   2.846   1.578   2.670  1.3766  1.9207  0.9270
 1597SOL    HW3 6433   2.911   1.442   2.661 -0.3447  1.0357  1.5372
 1597SOL    MW4 6434   2.904   1.525   2.634 -0.1664  0.6491  0.2882
 1598SOL     OW 6435   2.696   1.672   2.723 -0.6258 -0.3872  0.2210
 1598SOL    HW2 6436   2.681   1.657   2.816 -0.2498 -0.0961  0.3286
 1598SOL    HW3 6437   2.619   1.634   2.680 -1.4340  0.6146  0.7458
 1598SOL    MW4 6438   2.684   1.665   2.729 -0.6831 -0.2166  0.3045
 1599SOL     OW 6439   2.737   1.942   2.629  0.3659 -0.0283 -0.5838
 1599SOL    HW2 6440   2.725   1.850   2.653  1.5540 -0.4459 -1.5940
 1599SOL    HW3 6441   2.651   1.982   2.646  0.0710 -1.1341  0.6314
 1599SOL    MW4 6442   2.724   1.935   2.635  0.4840 -0.2294 -0.5569
 1600SOL     OW 6443   2.923   2.086   2.772 -0.1876  0.5943 -0.1927
 1600SOL    HW2 6444   2.919   2.169   2.725  0.7613  0.9614  0.3892
 1600SOL    HW3 6445   2.858   2.031   2.727 -1.2134  1.8046 -0.2391
 1600SOL    MW4 6446   2.914   2.090   2.760 -0.1976  0.8025 -0.1223
 1601SOL     OW 6447   2.943   2.312   2.618  0.1111 -0.4878  0.0192
 1601SOL    HW2 6448   3.008   2.361   2.668 -0.0256  2.3571 -2.3821
 1601SOL    HW3 6449   2.859   2.340   2.654  0.0770  0.0807 -0.4862
 1601SOL    MW4 6450   2.940   2.322   2.629  0.0887 -0.0374 -0.3643
 1602SOL     OW 6451   2.708   2.440   2.740  0.2833 -0.0559  0.5242
 1602SOL    HW2 6452   2.706   2.451   2.835  2.9341 -0.8993  0.7353
 1602SOL    HW3 6453   2.698   2.528   2.705 -1.2010  0.1922  1.5762
 1602SOL    MW4 6454   2.707   2.453   2.748  0.4373 -0.1345  0.6909
 1603SOL     OW 6455   2.702   2.706   2.634  0.3845 -0.0048 -0.2912
 1603SOL    HW2 6456   2.787   2.747   2.653  1.7296 -2.2057 -1.2223
 1603SOL    HW3 6457   2.692   2.715   2.539 -0.5435  0.4502 -0.1516
 1603SOL    MW4 6458   2.712   2.712   2.624  0.4394 -0.2351 -0.3958
 1604SOL     OW 6459   2.936   2.861   2.713  0.2294 -0.0581 -0.2022
 1604SOL    HW2 6460   2.924   2.871   2.808 -0.1531 -1.4213 -0.0907
 1604SOL    HW3 6461   2.964   2.947   2.683 -2.9548  1.3457  0.6486
 1604SOL    MW4 6462   2.938   2.874   2.722 -0.2413 -0.0529 -0.0753
 1605SOL     OW 6463   2.980   3.117   2.640 -0.1195 -0.1292 -0.0738
 1605SOL    HW2 6464   2.893   3.156   2.643 -0.6879 -1.1850 -1.9722
 1605SOL    HW3 6465   3.001   3.112   2.547  1.4069 -1.1077  0.3043
 1605SOL    MW4 6466   2.972   3.122   2.628  0.0067 -0.3974 -0.2744
 1606SOL     OW 6467   2.738   3.248   2.679  0.5206 -0.2659  0.2737
 1606SOL    HW2 6468   2.735   3.338   2.644  1.7270 -0.8475 -1.4129
 1606SOL    HW3 6469   2.671   3.202   2.629 -0.4684 -0.1888  1.5171
 1606SOL    MW4 6470   2.729   3.254   2.667  0.5491 -0.3324  0.2153
 1607SOL     OW 6471   2.731   3.515   2.618 -0.3908  0.0109  0.1039
 1607SOL    HW2 6472   2.656   3.556   2.663 -0.9695  0.1131 -0.9263
 1607SOL    HW3 6473   2.707   3.517   2.526  0.1454 -1.5138 -0.0859
 1607SOL    MW4 6474   2.718   3.521   2.612 -0.3963 -0.1771 -0.0570
 1608SOL     OW 6475   2.975   3.612   2.715  0.4646  0.2384  0.4656
 1608SOL    HW2 6476   2.968   3.587   2.807  0.6996  0.6244  0.5860
 1608SOL    HW3 6477   2.895   3.577   2.675 -0.8120  2.1632  1.2879
 1608SOL    MW4 6478   2.963   3.604   2.722  0.3273  0.5434  0.5898
 1609SOL     OW 6479   2.947   3.899   2.617  0.7180 -0.2617  0.2845
 1609SOL    HW2 6480   3.016   3.941   2.667 -0.5274  2.6323 -0.3430
 1609SOL    HW3 6481   2.922   3.823   2.670  1.3006  1.1825  2.7191
 1609SOL    MW4 6482   2.953   3.894   2.630  0.6306  0.3107  0.5229
 1610SOL     OW 6483   2.725   4.044   2.722  0.3825 -0.2445 -0.0933
 1610SOL    HW2 6484   2.724   4.132   2.684  0.6288  0.0027  0.4552
 1610SOL    HW3 6485   2.794   3.998   2.674  0.9603  0.1864  0.3258
 1610SOL    MW4 6486   2.734   4.050   2.711  0.4911 -0.1550  0.0343
 1611SOL     OW 6487   2.691   4.306   2.632  0.1539  0.1465  0.6614
 1611SOL    HW2 6488   2.766   4.344   2.677  0.3216 -0.3260  0.7807
 1611SOL    HW3 6489   2.615   4.347   2.674  0.3564  1.4559 -0.1995
 1611SOL    MW4 6490   2.691   4.317   2.643  0.2027  0.2575  0.5636
 1612SOL     OW 6491   2.924   4.431   2.730 -0.4943 -0.0387  0.1376
 1612SOL    HW2 6492   2.932   4.438   2.825  0.7032 -0.2135  0.0564
 1612SOL    HW3 6493   2.913   4.521   2.700 -0.8223  0.0230  0.4302
 1612SOL    MW4 6494   2.924   4.444   2.739 -0.3793 -0.0534  0.1655
 1613SOL     OW 6495   3.394   4.664   2.651  0.0360  0.0048 -0.0630
 1613SOL    HW2 6496   3.393   4.578   2.692  0.3622 -0.1233 -0.3165
 1613SOL    HW3 6497   3.319   4.710   2.689 -0.3487 -0.5146 -0.1848
 1613SOL    MW4 6498   3.384   4.659   2.661  0.0284 -0.0806 -0.1125
 1614SOL     OW 6499   3.159   0.109   2.763 -0.4463 -0.4184  0.0808
 1614SOL    HW2 6500   3.166   0.122   2.858  2.7012  1.5705 -0.3279
 1614SOL    HW3 6501   3.135   0.195   2.729  0.9355 -0.4720 -1.0931
 1614SOL    MW4 6502   3.157   0.122   2.771  0.1514 -0.1631 -0.1280
 1615SOL     OW 6503   3.152   0.372   2.638  0.5035 -0.0247 -0.1265
 1615SOL    HW2 6504   3.076   0.429   2.650  2.4070  2.6113  0.0452
 1615SOL    HW3 6505   3.168   0.374   2.544  1.1949  0.5976 -0.0006
 1615SOL    MW4 6506   3.144   0.380   2.627  0.8459  0.4052 -0.0873
 1616SOL     OW 6507   3.370   0.513   2.758  0.6780 -0.4407 -0.0486
 1616SOL    HW2 6508   3.362   0.603   2.725  1.7713 -0.0341  0.7642
 1616SOL    HW3 6509   3.294   0.468   2.722  0.8973  0.4406 -1.6551
 1616SOL    MW4 6510   3.359   0.519   2.749  0.8512 -0.2708 -0.1531
 1617SOL     OW 6511   3.321   0.741   2.603 -0.0082 -0.0890 -0.1471
 1617SOL    HW2 6512   3.389   0.800   2.635  0.3848 -0.8901  0.4997
 1617SOL    HW3 6513   3.340   0.731   2.510  0.1582  0.4820 -0.1796
 1617SOL    MW4 6514   3.332   0.748   2.595  0.0656 -0.1194 -0.0658
 1618SOL     OW 6515   3.115   0.869   2.725  0.4412 -0.0979 -0.0735
 1618SOL    HW2 6516   3.115   0.857   2.820  0.8390 -0.9487 -0.1746
 1618SOL    HW3 6517   3.198   0.831   2.697  0.7890  1.0601 -0.6545
 1618SOL    MW4 6518   3.126   0.863   2.734  0.5395 -0.0573 -0.1633
 1619SOL     OW 6519   3.120   1.151   2.655  0.1593 -0.0498 -0.2123
 1619SOL    HW2 6520   3.108   1.058   2.675  2.4426 -0.1004  1.0725
 1619SOL    HW3 6521   3.135   1.153   2.560  0.3623 -1.0296 -0.2079
 1619SOL    MW4 6522   3.120   1.139   2.645  0.4871 -0.1857 -0.0422
 1620SOL     OW 6523   3.331   1.305   2.764 -0.2901 -0.3047 -0.4045
 1620SOL    HW2 6524   3.339   1.273   2.854 -0.8282  0.3206 -0.1225
 1620SOL    HW3 6525   3.261   1.252   2.726 -1.4409  0.7536  0.1773
 1620SOL    MW4 6526   3.322   1.294   2.771 -0.5126 -0.0826 -0.2904
 1621SOL     OW 6527   3.378   1.556   2.626 -1.1773 -0.3222 -0.5681
 1621SOL    HW2 6528   3.305   1.616   2.644 -1.8201 -0.7256 -1.8568
 1621SOL    HW3 6529   3.355   1.476   2.672 -1.8755 -0.6770 -1.5221
 1621SOL    MW4 6530   3.365   1.554   2.635 -1.3542 -0.4222 -0.8640
 1622SOL     OW 6531   3.150   1.666   2.737 -0.4282  0.3388  0.1412
 1622SOL    HW2 6532   3.129   1.750   2.697 -1.1181 -0.5243 -1.3695
 1622SOL    HW3 6533   3.089   1.604   2.696 -0.6496 -0.7168  2.0022
 1622SOL    MW4 6534   3.139   1.669   2.726 -0.5484  0.0856  0.1874
 1623SOL     OW 6535   3.132   1.936   2.650 -0.5807 -0.0619  0.0343
 1623SOL    HW2 6536   3.211   1.988   2.667 -0.2103 -0.6515  0.1411
 1623SOL    HW3 6537   3.064   1.979   2.702  0.2645 -1.1139  2.0476
 1623SOL    MW4 6538   3.134   1.949   2.659 -0.4203 -0.2785  0.3140
 1624SOL     OW 6539   3.362   2.067   2.724 -0.2586  0.0520  0.5404
 1624SOL    HW2 6540   3.354   2.068   2.819 -0.5395  0.1785  0.5132
 1624SOL    HW3 6541   3.359   2.159   2.698  2.0388  0.1845  0.6063
 1624SOL    MW4 6542   3.361   2.079   2.733  0.0079  0.0863  0.5453
 1625SOL     OW 6543   3.382   2.353   2.683 -0.2674  0.3433  0.1428
 1625SOL    HW2 6544   3.460   2.380   2.733 -0.3717  0.2218  0.3746
 1625SOL    HW3 6545   3.404   2.371   2.592  0.8656 -1.6499 -0.0157
 1625SOL    MW4 6546   3.395   2.359   2.678 -0.1314  0.0644  0.1523
 1626SOL     OW 6547   3.134   2.441   2.768  0.2859  0.0321  0.1996
 1626SOL    HW2 6548   3.146   2.533   2.744 -0.3754 -0.1521 -0.8826
 1626SOL    HW3 6549   3.214   2.397   2.737  0.3514  0.1429  0.2134
 1626SOL    MW4 6550   3.146   2.447   2.761  0.2072  0.0224  0.0589
 1627SOL     OW 6551   3.154   2.684   2.648  0.3227  0.6957  0.0925
 1627SOL    HW2 6552   3.237   2.709   2.689 -0.4109  1.6133  1.0208
 1627SOL    HW3 6553   3.092   2.752   2.674 -0.8740 -0.2902 -0.1276
 1627SOL    MW4 6554   3.157   2.696   2.657  0.0682  0.6864  0.1860
 1628SOL     OW 6555   3.379   2.848   2.768  0.0553 -0.4330  0.2195
 1628SOL    HW2 6556   3.398   2.844   2.862  0.9492 -0.1286  0.0579
 1628SOL    HW3 6557   3.450   2.798   2.727 -0.0764 -0.1754 -0.3278
 1628SOL    MW4 6558   3.391   2.841   2.775  0.1559 -0.3591  0.1259
 1629SOL     OW 6559   3.404   3.111   2.665  0.3609  0.0918  0.4801
 1629SOL    HW2 6560   3.381   3.027   2.705 -0.2349  0.5895  1.1864
 1629SOL    HW3 6561   3.405   3.094   2.571 -1.4133 -0.2971  0.5272
 1629SOL    MW4 6562   3.401   3.098   2.658  0.0482  0.1063  0.5794
 1630SOL     OW 6563   3.176   3.222   2.800  0.1527 -0.1969  0.2941
 1630SOL    HW2 6564   3.254   3.185   2.760  0.7420  1.7178 -0.3695
 1630SOL    HW3 6565   3.103   3.188   2.747  0.4581 -2.2347  1.1043
 1630SOL    MW4 6566   3.176   3.212   2.788  0.2706 -0.2134  0.3135
 1631SOL     OW 6567   3.176   3.438   2.634  0.8522 -0.7052 -0.0417
 1631SOL    HW2 6568   3.169   3.366   2.696 -0.9807 -1.9024 -1.5790
 1631SOL    HW3 6569   3.110   3.501   2.662 -0.2967 -1.4570 -1.0168
 1631SOL    MW4 6570   3.167   3.437   2.646  0.4587 -0.9625 -0.3734
 1632SOL     OW 6571   3.382   3.574   2.746  0.1665 -0.5148 -0.9436
 1632SOL    HW2 6572   3.378   3.576   2.842 -0.7311  0.9211 -0.9924
 1632SOL    HW3 6573   3.298   3.536   2.719  0.0920 -0.1895 -1.1757
 1632SOL    MW4 6574   3.371   3.570   2.755  0.0381 -0.2825 -0.9804
 1633SOL     OW 6575   3.411   3.862   2.683 -0.2879  0.6846 -0.5334
 1633SOL    HW2 6576   3.406   3.768   2.697  1.2746  0.4570 -1.4194
 1633SOL    HW3 6577   3.409   3.873   2.588  0.8920  1.4562 -0.4749
 1633SOL    MW4 6578   3.410   3.851   2.672  0.0737  0.7563 -0.6425
 1634SOL     OW 6579   3.193   4.007   2.754 -0.7087 -0.2629  0.1792
 1634SOL    HW2 6580   3.210   4.087   2.704  0.9373  0.9357  2.5671
 1634SOL    HW3 6581   3.271   3.953   2.740 -0.9758 -0.6338  0.1158
 1634SOL    MW4 6582   3.205   4.010   2.745 -0.5269 -0.1535  0.4859
 1635SOL     OW 6583   3.177   4.270   2.639 -0.1611  0.6042  0.4304
 1635SOL    HW2 6584   3.112   4.334   2.665 -0.8583 -0.5045  1.4231
 1635SOL    HW3 6585   3.172   4.269   2.543 -0.6543  1.4877  0.4421
 1635SOL    MW4 6586   3.168   4.278   2.630 -0.3183  0.5741  0.5629
 1636SOL     OW 6587   3.404   4.403   2.726 -0.0823  0.0257  0.3281
 1636SOL    HW2 6588   3.414   4.406   2.821  0.7462 -0.2492  0.2563
 1636SOL    HW3 6589   3.325   4.351   2.711 -0.6486  0.7134  0.8856
 1636SOL    MW4 6590   3.395   4.397   2.736 -0.0479  0.0801  0.3920
 1637SOL     OW 6591   3.836   4.666   2.656 -0.4704 -0.0999 -0.1508
 1637SOL    HW2 6592   3.848   4.588   2.711  0.1687 -0.8143 -1.2885
 1637SOL    HW3 6593   3.757   4.707   2.691  0.4966  0.0237  1.9653
 1637SOL    MW4 6594   3.827   4.661   2.668 -0.2587 -0.1779 -0.0217
 1638SOL     OW 6595   3.609   0.118   2.745  0.2876  0.3209 -0.6241
 1638SOL    HW2 6596   3.621   0.207   2.713  0.7111  0.6624  0.4490
 1638SOL    HW3 6597   3.523   0.092   2.714  0.3022  0.9781 -1.2311
 1638SOL    MW4 6598   3.600   0.126   2.737  0.3452  0.4527 -0.5627
 1639SOL     OW 6599   3.583   0.370   2.655  0.3216  0.2970  0.4154
 1639SOL    HW2 6600   3.650   0.421   2.701  0.0215  0.3548  0.7884
 1639SOL    HW3 6601   3.500   0.409   2.682  0.1413  0.4078 -0.2660
 1639SOL    MW4 6602   3.581   0.382   2.664  0.2582  0.3192  0.3748
 1640SOL     OW 6603   3.796   0.529   2.734 -0.4347  0.5716  0.1905
 1640SOL    HW2 6604   3.806   0.530   2.829  0.8916 -0.2930  0.0777
 1640SOL    HW3 6605   3.878   0.490   2.702 -0.2270  2.2587 -1.3888
 1640SOL    MW4 6606   3.808   0.524   2.743 -0.2322  0.6801 -0.0327
 1641SOL     OW 6607   3.767   0.792   2.659  0.0499  0.0847  0.4918
 1641SOL    HW2 6608   3.684   0.824   2.695  0.2688  0.8024  0.3552
 1641SOL    HW3 6609   3.774   0.702   2.692 -1.3893 -0.4210 -0.4801
 1641SOL    MW4 6610   3.757   0.784   2.668 -0.1111  0.1127  0.3457
 1642SOL     OW 6611   3.517   0.911   2.729  0.2684 -0.2081 -0.5106
 1642SOL    HW2 6612   3.554   0.918   2.817  0.1637 -0.2117 -0.4663
 1642SOL    HW3 6613   3.545   0.991   2.685  0.3771 -0.2372 -0.4958
 1642SOL    MW4 6614   3.526   0.922   2.735  0.2689 -0.2125 -0.5028
 1643SOL     OW 6615   3.579   1.212   2.651  0.0500 -0.4840  0.2882
 1643SOL    HW2 6616   3.657   1.262   2.676  0.0244 -1.2369  1.9417
 1643SOL    HW3 6617   3.510   1.245   2.709 -1.0772  0.7236 -1.6907
 1643SOL    MW4 6618   3.580   1.223   2.662 -0.1023 -0.4240  0.2453
 1644SOL     OW 6619   3.809   1.334   2.743 -0.3204 -0.0494  0.0674
 1644SOL    HW2 6620   3.873   1.276   2.704  0.7508  0.4493  1.0491
 1644SOL    HW3 6621   3.823   1.418   2.700  0.3020  0.2872  0.9035
 1644SOL    MW4 6622   3.819   1.337   2.732 -0.0968  0.0609  0.3073
 1645SOL     OW 6623   3.846   1.600   2.623 -0.5122 -0.2874  0.8369
 1645SOL    HW2 6624   3.914   1.621   2.687  0.6532 -0.3378 -0.3708
 1645SOL    HW3 6625   3.766   1.639   2.660 -0.0288 -0.9985  2.6930
 1645SOL    MW4 6626   3.844   1.608   2.636 -0.2947 -0.3879  0.9227
 1646SOL     OW 6627   3.587   1.681   2.747  0.1167  0.3073 -0.2024
 1646SOL    HW2 6628   3.582   1.765   2.701 -2.3313  0.1723 -0.2113
 1646SOL    HW3 6629   3.521   1.626   2.705  1.3100 -1.4563  0.1788
 1646SOL    MW4 6630   3.578   1.685   2.735 -0.0491  0.0567 -0.1533
 1647SOL     OW 6631   3.596   1.920   2.650 -0.3894  0.0968  0.5813
 1647SOL    HW2 6632   3.517   1.966   2.679 -1.3140 -1.2868  0.3019
 1647SOL    HW3 6633   3.579   1.899   2.558  0.7923  0.7950  0.1927
 1647SOL    MW4 6634   3.583   1.923   2.641 -0.3555  0.0064  0.4928
 1648SOL     OW 6635   3.825   2.046   2.761  0.4595  0.3597  0.2082
 1648SOL    HW2 6636   3.893   1.993   2.720 -0.3100 -0.7874  0.3869
 1648SOL    HW3 6637   3.744   2.019   2.718 -0.0157  0.9737  0.7110
 1648SOL    MW4 6638   3.824   2.035   2.750  0.2952  0.2892  0.2983
 1649SOL     OW 6639   3.827   2.294   2.650  0.4092 -0.7679 -0.4985
 1649SOL    HW2 6640   3.838   2.207   2.689  0.8180 -0.1693  0.7651
 1649SOL    HW3 6641   3.824   2.279   2.556 -0.1648 -2.2192 -0.2553
 1649SOL    MW4 6642   3.828   2.281   2.643  0.3872 -0.8805 -0.2997
 1650SOL     OW 6643   3.633   2.456   2.775 -0.1612 -0.2783  0.0327
 1650SOL    HW2 6644   3.627   2.449   2.870 -0.8561  0.2248  0.0270
 1650SOL    HW3 6645   3.704   2.397   2.751 -1.1837 -1.7946  0.6756
 1650SOL    MW4 6646   3.642   2.448   2.785 -0.3879 -0.4122  0.1168
 1651SOL     OW 6647   3.617   2.729   2.690 -0.6404  0.2495 -0.3648
 1651SOL    HW2 6648   3.607   2.635   2.706 -0.7110  0.4378  0.7246
 1651SOL    HW3 6649   3.618   2.737   2.594 -1.7899 -0.7399 -0.4721
 1651SOL    MW4 6650   3.616   2.718   2.679 -0.8011  0.1438 -0.2351
 1652SOL     OW 6651   3.860   2.825   2.769 -0.4123 -0.0591  0.2345
 1652SOL    HW2 6652   3.930   2.780   2.721  0.7043 -0.2381  1.9483
 1652SOL    HW3 6653   3.780   2.778   2.747  0.2674 -0.8884 -0.4790
 1652SOL    MW4 6654   3.859   2.813   2.760 -0.1755 -0.1919  0.3664
 1653SOL     OW 6655   3.865   3.104   2.697  0.4156 -0.2418  0.0964
 1653SOL    HW2 6656   3.784   3.147   2.724  0.6216 -0.0654  0.4285
 1653SOL    HW3 6657   3.855   3.014   2.725  0.5264 -0.1150  0.5410
 1653SOL    MW4 6658   3.853   3.098   2.704  0.4573 -0.2019  0.1984
 1654SOL     OW 6659   3.620   3.247   2.767 -0.2794  0.1648 -0.3599
 1654SOL    HW2 6660   3.615   3.333   2.725  0.4277  1.0413  1.3072
 1654SOL    HW3 6661   3.544   3.199   2.734  0.2980  0.8005 -2.6668
 1654SOL    MW4 6662   3.609   3.252   2.757 -0.1099  0.3643 -0.4442
 1655SOL     OW 6663   3.609   3.480   2.634  0.1681 -0.0397  0.2409
 1655SOL    HW2 6664   3.677   3.526   2.683  1.3374 -0.1367 -1.2605
 1655SOL    HW3 6665   3.527   3.514   2.670  0.9832 -0.3583  2.4622
 1655SOL    MW4 6666   3.607   3.491   2.645  0.4299 -0.0947  0.3357
 1656SOL     OW 6667   3.781   3.622   2.782 -0.2500 -0.5078  0.2182
 1656SOL    HW2 6668   3.858   3.568   2.764 -0.7003 -1.1301  0.1537
 1656SOL    HW3 6669   3.799   3.704   2.735  0.2500 -0.7470 -0.0230
 1656SOL    MW4 6670   3.794   3.626   2.773 -0.2432 -0.6213  0.1779
 1657SOL     OW 6671   3.805   3.856   2.641 -0.5315  0.6582  0.2232
 1657SOL    HW2 6672   3.887   3.893   2.670 -0.7458  0.8270  0.6176
 1657SOL    HW3 6673   3.738   3.917   2.671 -1.2363 -2.0115  4.4697
 1657SOL    MW4 6674   3.807   3.869   2.649 -0.6528  0.3283  0.8354
 1658SOL     OW 6675   3.632   4.029   2.739  0.8364 -0.2070 -0.2558
 1658SOL    HW2 6676   3.629   4.115   2.696  0.9591 -0.4464 -0.7429
 1658SOL    HW3 6677   3.547   3.990   2.720 -0.2064  0.8014  2.0502
 1658SOL    MW4 6678   3.620   4.035   2.731  0.7153 -0.1054 -0.0160
 1659SOL     OW 6679   3.616   4.264   2.614  0.1436 -0.5359  0.5270
 1659SOL    HW2 6680   3.540   4.313   2.647 -1.8874 -3.0166 -0.3461
 1659SOL    HW3 6681   3.610   4.273   2.519  0.9306 -0.7934  0.4520
 1659SOL    MW4 6682   3.605   4.272   2.605 -0.0205 -0.8969  0.4020
 1660SOL     OW 6683   3.823   4.375   2.749  0.4865  0.6068 -0.2416
 1660SOL    HW2 6684   3.898   4.336   2.704  1.1670  3.3732 -1.6014
 1660SOL    HW3 6685   3.747   4.346   2.698  1.0143  1.2975 -1.4581
 1660SOL    MW4 6686   3.823   4.366   2.736  0.6461  1.0624 -0.5817
 1661SOL     OW 6687   4.276   4.652   2.692  0.2607 -0.1769 -0.0696
 1661SOL    HW2 6688   4.190   4.688   2.713 -0.0903 -1.5855  1.0033
 1661SOL    HW3 6689   4.338   4.712   2.732 -0.3167 -0.7512  1.7345
 1661SOL    MW4 6690   4.273   4.665   2.700  0.1383 -0.4382  0.3102
 1662SOL     OW 6691   4.048   0.152   2.758 -0.6590  0.1712 -0.7104
 1662SOL    HW2 6692   4.043   0.141   2.853 -0.7889  0.8000 -0.6470
 1662SOL    HW3 6693   3.973   0.104   2.724  1.1312 -2.7873 -0.7152
 1662SOL    MW4 6694   4.038   0.144   2.766 -0.4406 -0.1362 -0.7029
 1663SOL     OW 6695   4.038   0.412   2.669  0.8229 -0.1405 -0.3922
 1663SOL    HW2 6696   4.044   0.325   2.708  0.4920 -1.0176 -2.2689
 1663SOL    HW3 6697   4.040   0.397   2.575 -0.8077  1.7444 -0.7712
 1663SOL    MW4 6698   4.039   0.399   2.662  0.5641 -0.0075 -0.6900
 1664SOL     OW 6699   4.257   0.559   2.773 -0.2245 -0.1286  0.0879
 1664SOL    HW2 6700   4.181   0.512   2.738  0.0673 -0.3929 -0.1967
 1664SOL    HW3 6701   4.332   0.510   2.740  0.0417 -1.3558  2.4442
 1664SOL    MW4 6702   4.257   0.547   2.764 -0.1507 -0.3253  0.3614
 1665SOL     OW 6703   4.227   0.803   2.670  0.3721 -0.8018 -0.0062
 1665SOL    HW2 6704   4.226   0.716   2.709 -0.5375 -0.8097 -0.0211
 1665SOL    HW3 6705   4.246   0.788   2.578  0.6677 -0.9476  0.0795
 1665SOL    MW4 6706   4.229   0.789   2.663  0.2904 -0.8219  0.0031
 1666SOL     OW 6707   3.989   0.926   2.754 -0.3858 -0.5443  0.1230
 1666SOL    HW2 6708   4.065   0.876   2.724 -0.8315 -0.2359 -1.5333
 1666SOL    HW3 6709   3.914   0.871   2.732 -0.6913 -0.5874  1.2341
 1666SOL    MW4 6710   3.989   0.912   2.747 -0.4849 -0.5093  0.0513
 1667SOL     OW 6711   3.995   1.186   2.656  0.2720 -0.3165  0.4986
 1667SOL    HW2 6712   4.085   1.215   2.669  0.5042 -0.2622 -1.1845
 1667SOL    HW3 6713   3.992   1.098   2.693  0.5047  0.3915  2.2870
 1667SOL    MW4 6714   4.007   1.178   2.663  0.3333 -0.2160  0.5126
 1668SOL     OW 6715   4.240   1.291   2.722  0.2751  0.2406  0.2594
 1668SOL    HW2 6716   4.242   1.383   2.695  0.3071  0.6309  1.5477
 1668SOL    HW3 6717   4.326   1.257   2.700  0.1397  0.4230 -0.5558
 1668SOL    MW4 6718   4.252   1.299   2.716  0.2608  0.3161  0.3219
 1669SOL     OW 6719   4.257   1.574   2.656 -0.0305  0.2738 -0.0958
 1669SOL    HW2 6720   4.333   1.625   2.684  0.6909 -0.5552 -0.5044
 1669SOL    HW3 6721   4.267   1.567   2.561  0.4490 -1.4940  0.0673
 1669SOL    MW4 6722   4.268   1.580   2.647  0.1278 -0.0690 -0.1280
 1670SOL     OW 6723   4.050   1.708   2.779  0.0935 -0.5759 -0.1406
 1670SOL    HW2 6724   4.050   1.721   2.874  0.0767  1.0665 -0.3557
 1670SOL    HW3 6725   4.136   1.673   2.759  0.5761  0.3386  0.3213
 1670SOL    MW4 6726   4.061   1.705   2.789  0.1545 -0.2385 -0.1080
 1671SOL     OW 6727   4.029   1.937   2.605 -0.4299 -0.0498 -0.1887
 1671SOL    HW2 6728   4.097   1.984   2.653  0.1541 -0.0119 -1.0321
 1671SOL    HW3 6729   4.022   1.852   2.650 -0.7105  0.4120  0.6576
 1671SOL    MW4 6730   4.037   1.932   2.617 -0.3901  0.0162 -0.1884
 1672SOL     OW 6731   4.215   2.072   2.762 -0.3403 -0.1579  0.5397
 1672SOL    HW2 6732   4.225   2.161   2.727 -1.6675 -0.4424 -0.6072
 1672SOL    HW3 6733   4.292   2.025   2.729 -1.0890 -0.1711 -1.2620
 1672SOL    MW4 6734   4.227   2.078   2.753 -0.6146 -0.1974  0.1507
 1673SOL     OW 6735   4.280   2.343   2.655  0.2359 -0.0612  0.0040
 1673SOL    HW2 6736   4.210   2.399   2.688  0.3531 -0.7322  1.4742
 1673SOL    HW3 6737   4.271   2.346   2.560 -0.9694  0.8928  0.1317
 1673SOL    MW4 6738   4.270   2.351   2.647  0.0925 -0.0238  0.2148
 1674SOL     OW 6739   4.036   2.436   2.758 -0.0624 -0.0708 -0.1025
 1674SOL    HW2 6740   4.042   2.441   2.853 -1.3179  0.6002 -0.0485
 1674SOL    HW3 6741   3.956   2.387   2.742  0.2397 -0.3401 -0.8221
 1674SOL    MW4 6742   4.026   2.430   2.768 -0.1879 -0.0176 -0.1903
 1675SOL     OW 6743   4.075   2.688   2.641 -0.4814  0.1157  0.3258
 1675SOL    HW2 6744   4.141   2.723   2.701 -1.7448 -0.0579  1.8472
 1675SOL    HW3 6745   4.057   2.600   2.673 -1.5550  0.2116  0.0232
 1675SOL    MW4 6746   4.081   2.681   2.653 -0.7896  0.1054  0.4864
 1676SOL     OW 6747   4.294   2.826   2.779 -0.4380  0.6211  0.4753
 1676SOL    HW2 6748   4.295   2.834   2.875 -1.9733  0.0244  0.5586
 1676SOL    HW3 6749   4.287   2.916   2.748 -1.0718  0.7469  0.9644
 1676SOL    MW4 6750   4.293   2.839   2.788 -0.7243  0.5589  0.5507
 1677SOL     OW 6751   4.272   3.078   2.634 -0.0547  0.3369  0.0588
 1677SOL    HW2 6752   4.207   3.137   2.673 -1.5557 -0.5733 -1.0117
 1677SOL    HW3 6753   4.253   3.080   2.540  0.7654 -0.7829 -0.1383
 1677SOL    MW4 6754   4.261   3.086   2.627 -0.1445  0.0691 -0.1087
 1678SOL     OW 6755   4.093   3.237   2.757 -0.6897 -0.7955  0.5255
 1678SOL    HW2 6756   4.078   3.327   2.731 -1.1802 -0.5278  1.7070
 1678SOL    HW3 6757   4.017   3.189   2.723 -0.3888 -0.7834 -0.1720
 1678SOL    MW4 6758   4.081   3.242   2.749 -0.7148 -0.7584  0.5891
 1679SOL     OW 6759   4.026   3.507   2.697 -0.1849 -0.8122  0.1597
 1679SOL    HW2 6760   4.099   3.565   2.715  0.4615 -1.6944  0.4254
 1679SOL    HW3 6761   4.032   3.489   2.603 -0.4868 -0.3216  0.0438
 1679SOL    MW4 6762   4.036   3.512   2.687 -0.1392 -0.8638  0.1795
 1680SOL     OW 6763   4.263   3.638   2.770  0.2622  0.1036  0.0247
 1680SOL    HW2 6764   4.283   3.649   2.863 -0.7515 -1.6383  0.4955
 1680SOL    HW3 6765   4.334   3.584   2.736  0.1993  0.0454 -0.0162
 1680SOL    MW4 6766   4.275   3.632   2.778  0.1197 -0.1340  0.0813
 1681SOL     OW 6767   4.271   3.877   2.613  0.1889  0.1258  0.7177
 1681SOL    HW2 6768   4.270   3.789   2.652  0.2575  0.5629  1.7277
 1681SOL    HW3 6769   4.337   3.924   2.664  1.9273  0.0735 -1.3929
 1681SOL    MW4 6770   4.280   3.871   2.625  0.4272  0.1764  0.5724
 1682SOL     OW 6771   4.037   3.977   2.719 -0.2879 -0.5142 -0.2789
 1682SOL    HW2 6772   4.033   3.968   2.815 -0.7792 -1.4084 -0.3747
 1682SOL    HW3 6773   4.118   3.931   2.695 -0.9696 -1.6616 -0.4321
 1682SOL    MW4 6774   4.047   3.970   2.729 -0.4425 -0.7837 -0.3116
 1683SOL     OW 6775   4.033   4.243   2.614 -0.4227 -0.1551  0.0666
 1683SOL    HW2 6776   4.032   4.148   2.626 -0.3872 -0.1719 -0.0682
 1683SOL    HW3 6777   4.036   4.255   2.519 -0.1553 -0.0206  0.0935
 1683SOL    MW4 6778   4.033   4.232   2.603 -0.3824 -0.1397  0.0522
 1684SOL     OW 6779   4.295   4.377   2.731 -0.3370  0.0702 -0.3362
 1684SOL    HW2 6780   4.215   4.342   2.690 -0.3895  1.1909 -1.2239
 1684SOL    HW3 6781   4.293   4.470   2.709  1.5344 -0.0044 -0.8799
 1684SOL    MW4 6782   4.284   4.385   2.722 -0.0968  0.2084 -0.5250
 1685SOL     OW 6783   0.254   0.021   3.115 -0.4721  0.1967 -0.5445
 1685SOL    HW2 6784   0.244   0.032   3.210  0.0738  1.3373 -0.6047
 1685SOL    HW3 6785   0.178   0.065   3.078  0.4774  1.7792 -0.6992
 1685SOL    MW4 6786   0.243   0.028   3.123 -0.2748  0.5560 -0.5729
 1686SOL     OW 6787   0.020   0.122   3.021 -0.0222  0.0542 -0.0295
 1686SOL    HW2 6788  -0.056   0.084   3.066 -0.0018  0.2356  0.1585
 1686SOL    HW3 6789   0.019   0.214   3.046  0.5961 -0.0662  0.4457
 1686SOL    MW4 6790   0.010   0.129   3.030  0.0621  0.0622  0.0579
 1687SOL     OW 6791   0.009   0.377   3.106  0.2599 -0.6443  0.2082
 1687SOL    HW2 6792   0.023   0.389   3.200 -1.6249 -0.7597  0.5205
 1687SOL    HW3 6793  -0.072   0.426   3.088 -0.0721 -1.6743 -1.1118
 1687SOL    MW4 6794   0.000   0.385   3.116 -0.0326 -0.7954  0.0751
 1688SOL     OW 6795   0.228   0.522   2.995 -0.2724 -0.4354 -0.2389
 1688SOL    HW2 6796   0.309   0.482   3.026 -0.1062  0.8625  1.0270
 1688SOL    HW3 6797   0.159   0.460   3.022  0.3530 -2.2548 -2.5587
 1688SOL    MW4 6798   0.230   0.508   3.002 -0.1680 -0.5043 -0.3781
 1689SOL     OW 6799   0.231   0.772   3.090  0.4563  0.3144 -0.3920
 1689SOL    HW2 6800   0.213   0.768   3.184 -0.5690  0.1098 -0.5894
 1689SOL    HW3 6801   0.208   0.684   3.058  1.1136  0.2821 -0.7770
 1689SOL    MW4 6802   0.225   0.760   3.098  0.4078  0.2831 -0.4687
 1690SOL     OW 6803   4.488   0.922   3.016 -0.0320 -0.1337 -0.6191
 1690SOL    HW2 6804   4.569   0.873   3.030  0.3121  0.5194 -0.2578
 1690SOL    HW3 6805   4.476   0.923   2.921  0.2600 -0.4422 -0.6582
 1690SOL    MW4 6806   4.497   0.916   3.005  0.0520 -0.0882 -0.5767
 1691SOL     OW 6807   0.002   1.171   3.134 -0.3460 -0.1918  0.2368
 1691SOL    HW2 6808  -0.060   1.229   3.091  1.6425  1.9724  0.1468
 1691SOL    HW3 6809  -0.010   1.086   3.091 -1.2557  0.8999 -1.7286
 1691SOL    MW4 6810  -0.008   1.167   3.122 -0.2041  0.2379 -0.0343
 1692SOL     OW 6811   0.221   1.329   3.057 -0.3162  0.2168 -0.1452
 1692SOL    HW2 6812   0.140   1.291   3.090 -0.2569  1.3956  1.3924
 1692SOL    HW3 6813   0.209   1.332   2.962 -1.1753 -1.6342 -0.1160
 1692SOL    MW4 6814   0.209   1.324   3.048 -0.4217  0.1280  0.0618
 1693SOL     OW 6815   0.245   1.583   3.167  0.1235 -0.3162  0.2429
 1693SOL    HW2 6816   0.175   1.636   3.128  0.5125  0.7584  0.9748
 1693SOL    HW3 6817   0.225   1.493   3.140 -0.8592  0.1289 -0.5589
 1693SOL    MW4 6818   0.233   1.578   3.158  0.0452 -0.1156  0.2337
 1694SOL     OW 6819   0.022   1.669   3.020 -0.4084  0.1199 -0.3329
 1694SOL    HW2 6820  -0.047   1.621   3.066 -1.9311  1.2763 -1.3662
 1694SOL    HW3 6821   0.025   1.755   3.061  0.2604  0.1721 -0.4707
 1694SOL    MW4 6822   0.014   1.674   3.031 -0.5210  0.2793 -0.4876
 1695SOL     OW 6823   0.002   1.934   3.101  0.4780  0.1748  0.3417
 1695SOL    HW2 6824  -0.072   1.984   3.067  0.2501 -1.1404 -1.1720
 1695SOL    HW3 6825   0.078   1.989   3.085  0.4002 -0.4827 -2.5534
 1695SOL    MW4 6826   0.002   1.948   3.095  0.4376 -0.0855 -0.2398
 1696SOL     OW 6827   0.224   2.081   3.038 -0.5828  0.0340 -0.1421
 1696SOL    HW2 6828   0.234   2.176   3.048  0.3157 -0.1223  0.5330
 1696SOL    HW3 6829   0.229   2.066   2.944  0.4420  0.5402 -0.1769
 1696SOL    MW4 6830   0.226   2.092   3.027 -0.3291  0.0803 -0.0575
 1697SOL     OW 6831   0.213   2.346   3.114  0.3380  0.2943 -0.4368
 1697SOL    HW2 6832   0.211   2.335   3.209  0.9000 -2.5511 -0.7076
 1697SOL    HW3 6833   0.290   2.401   3.098  0.9776 -0.2429  0.6918
 1697SOL    MW4 6834   0.223   2.352   3.125  0.4966 -0.1519 -0.3235
 1698SOL     OW 6835   4.481   2.464   3.038 -0.3031 -0.2215 -0.1854
 1698SOL    HW2 6836   4.496   2.556   3.062  0.1029 -0.4046  0.2881
 1698SOL    HW3 6837   4.560   2.419   3.070 -0.5376 -0.7440 -0.3499
 1698SOL    MW4 6838   4.494   2.470   3.045 -0.2805 -0.3147 -0.1450
 1699SOL     OW 6839   0.036   2.714   3.161  0.1662 -0.5141 -0.1585
 1699SOL    HW2 6840   0.023   2.722   3.255 -1.5407  0.7309 -0.4810
 1699SOL    HW3 6841   0.094   2.786   3.138 -0.2101 -0.2192 -0.1970
 1699SOL    MW4 6842   0.042   2.724   3.170 -0.1092 -0.3109 -0.2060
 1700SOL     OW 6843   0.237   2.845   3.023  0.9345  0.4109 -0.1339
 1700SOL    HW2 6844   0.313   2.789   3.039  2.2834  2.2024 -0.1500
 1700SOL    HW3 6845   0.231   2.849   2.927  0.5757 -0.0656 -0.1295
 1700SOL    MW4 6846   0.246   2.838   3.012  1.0651  0.5848 -0.1352
 1701SOL     OW 6847   0.270   3.101   3.144 -0.2034 -0.5123 -0.4314
 1701SOL    HW2 6848   0.198   3.150   3.107 -0.1057 -0.2144 -0.2252
 1701SOL    HW3 6849   0.260   3.012   3.109 -2.0529 -1.0996  1.4580
 1701SOL    MW4 6850   0.259   3.096   3.135 -0.4345 -0.5503 -0.1547
 1702SOL     OW 6851   0.033   3.223   3.036 -0.5101  0.1970  0.1723
 1702SOL    HW2 6852  -0.042   3.176   3.073 -0.3681 -0.7211 -0.6646
 1702SOL    HW3 6853   0.026   3.209   2.942  0.2345  0.8343  0.0147
 1702SOL    MW4 6854   0.022   3.215   3.029 -0.3932  0.1600  0.0410
 1703SOL     OW 6855   0.052   3.475   3.131 -0.0418  0.5069 -0.3836
 1703SOL    HW2 6856  -0.022   3.527   3.101 -0.4177  0.3670  0.2946
 1703SOL    HW3 6857   0.039   3.389   3.091 -0.5639  0.3075  0.2129
 1703SOL    MW4 6858   0.040   3.470   3.121 -0.1603  0.4621 -0.2158
 1704SOL     OW 6859   0.288   3.580   3.030  0.2978 -0.2259 -0.0890
 1704SOL    HW2 6860   0.279   3.673   3.052  1.1228  0.3389 -2.0068
 1704SOL    HW3 6861   0.209   3.539   3.065 -0.7043  1.4353 -0.3603
 1704SOL    MW4 6862   0.276   3.587   3.038  0.2744  0.0677 -0.3779
 1705SOL     OW 6863   0.240   3.856   3.086  0.2474  0.1563 -0.0201
 1705SOL    HW2 6864   0.246   3.868   3.181 -0.0305 -0.4303  0.0695
 1705SOL    HW3 6865   0.314   3.906   3.051  0.0496  0.7945  0.4723
 1705SOL    MW4 6866   0.251   3.864   3.094  0.1846  0.1631  0.0565
 1706SOL     OW 6867   0.011   4.025   3.026 -0.3094 -0.0952  0.5543
 1706SOL    HW2 6868   0.085   3.968   3.046  0.6199  0.7926 -0.3200
 1706SOL    HW3 6869   0.004   4.023   2.930 -1.9316 -0.8168  0.6710
 1706SOL    MW4 6870   0.020   4.017   3.016 -0.4008 -0.0734  0.4547
 1707SOL     OW 6871   0.043   4.290   3.120  0.0185 -0.1255 -0.2564
 1707SOL    HW2 6872   0.027   4.276   3.213 -0.9985 -0.7184 -0.5172
 1707SOL    HW3 6873   0.039   4.203   3.081 -0.1735  0.1828 -0.9414
 1707SOL    MW4 6874   0.040   4.277   3.127 -0.1410 -0.1626 -0.3812
 1708SOL     OW 6875   0.283   4.418   3.050  0.2858 -0.0873  0.4718
 1708SOL    HW2 6876   0.201   4.380   3.082  1.2736 -2.2297  0.5660
 1708SOL    HW3 6877   0.271   4.512   3.058 -2.9589 -0.2589 -1.4814
 1708SOL    MW4 6878   0.270   4.425   3.055 -0.0120 -0.3924  0.2265
 1709SOL     OW 6879   0.714   4.646   3.082 -0.2124 -0.2397 -0.1847
 1709SOL    HW2 6880   0.700   4.554   3.060  0.0194 -0.1683 -0.6230
 1709SOL    HW3 6881   0.631   4.688   3.063 -0.8958 -0.6674  1.6743
 1709SOL    MW4 6882   0.701   4.639   3.077 -0.2719 -0.2866  0.0029
 1710SOL     OW 6883   0.474   0.131   3.016  0.1042  0.3010 -0.7117
 1710SOL    HW2 6884   0.477   0.223   3.042  1.4167  0.1529 -0.3132
 1710SOL    HW3 6885   0.397   0.096   3.060  0.3724  0.8813  0.2388
 1710SOL    MW4 6886   0.464   0.138   3.025  0.3128  0.3580 -0.5333
 1711SOL     OW 6887   0.450   0.395   3.094 -0.0295  0.1345 -0.1835
 1711SOL    HW2 6888   0.470   0.390   3.187  0.3092 -1.5840 -0.3239
 1711SOL    HW3 6889   0.532   0.425   3.053 -0.5370  2.0498  0.1829
 1711SOL    MW4 6890   0.463   0.398   3.101 -0.0518  0.1605 -0.1535
 1712SOL     OW 6891   0.695   0.514   3.015  0.4693  0.5207 -0.1531
 1712SOL    HW2 6892   0.767   0.485   3.072  0.1737  0.3046  0.1101
 1712SOL    HW3 6893   0.679   0.604   3.041  1.0445  0.7657 -0.6214
 1712SOL    MW4 6894   0.703   0.522   3.026  0.5062  0.5245 -0.1802
 1713SOL     OW 6895   0.679   0.775   3.083  0.5244  0.0208  0.2455
 1713SOL    HW2 6896   0.673   0.781   3.178  0.0937  0.3392  0.1958
 1713SOL    HW3 6897   0.605   0.825   3.050 -0.1350 -1.2507 -0.2363
 1713SOL    MW4 6898   0.669   0.782   3.091  0.3806 -0.1048  0.1757
 1714SOL     OW 6899   0.444   0.930   3.019  0.1911 -0.1944 -0.2576
 1714SOL    HW2 6900   0.371   0.871   3.038  0.1659  0.0447  0.4286
 1714SOL    HW3 6901   0.458   0.923   2.925  1.5495 -2.8646  0.0934
 1714SOL    MW4 6902   0.436   0.921   3.009  0.3670 -0.5152 -0.1209
 1715SOL     OW 6903   0.460   1.190   3.132  0.2061 -0.4961  0.0878
 1715SOL    HW2 6904   0.432   1.101   3.109 -2.8974  0.0762  1.4681
 1715SOL    HW3 6905   0.394   1.247   3.093  0.9236  1.0931  1.1653
 1715SOL    MW4 6906   0.448   1.186   3.124 -0.1087 -0.2110  0.4120
 1716SOL     OW 6907   0.699   1.293   3.010  0.0727  0.2049  0.0337
 1716SOL    HW2 6908   0.766   1.230   3.036 -0.4119 -0.7098 -0.8798
 1716SOL    HW3 6909   0.621   1.267   3.059  0.6259  1.8760  1.8559
 1716SOL    MW4 6910   0.698   1.281   3.020  0.0818  0.3048  0.1538
 1717SOL     OW 6911   0.680   1.561   3.120  0.2963 -0.2800 -0.5287
 1717SOL    HW2 6912   0.669   1.571   3.214 -2.4620  0.7173 -0.9117
 1717SOL    HW3 6913   0.687   1.467   3.106  0.0921 -0.4672  0.6080
 1717SOL    MW4 6914   0.680   1.550   3.130 -0.0946 -0.1733 -0.4292
 1718SOL     OW 6915   0.464   1.729   3.077  0.1185 -0.6740 -0.5756
 1718SOL    HW2 6916   0.547   1.683   3.093 -0.1412 -0.9501 -0.0169
 1718SOL    HW3 6917   0.396   1.664   3.094 -0.2332 -0.2564 -0.3611
 1718SOL    MW4 6918   0.466   1.714   3.082  0.0378 -0.6554 -0.4735
 1719SOL     OW 6919   0.420   1.986   3.210 -0.4866  0.2240 -0.1523
 1719SOL    HW2 6920   0.437   1.905   3.161  0.5494 -0.1956  0.8678
 1719SOL    HW3 6921   0.351   2.029   3.161 -0.8487 -1.1406 -0.8837
 1719SOL    MW4 6922   0.413   1.981   3.197 -0.3977 -0.0113 -0.1144
 1720SOL     OW 6923   0.636   2.039   3.034 -0.4402 -0.0353  0.3150
 1720SOL    HW2 6924   0.712   1.993   3.070  0.7550  2.5526  1.1884
 1720SOL    HW3 6925   0.567   2.027   3.099 -0.4451 -1.3527  0.0895
 1720SOL    MW4 6926   0.637   2.031   3.047 -0.2832  0.1323  0.4003
 1721SOL     OW 6927   0.679   2.295   3.153 -0.1976 -0.1037  0.2534
 1721SOL    HW2 6928   0.692   2.291   3.247 -0.3117  0.0109  0.2745
 1721SOL    HW3 6929   0.657   2.206   3.127 -0.4671 -0.0763  0.3811
 1721SOL    MW4 6930   0.677   2.283   3.162 -0.2483 -0.0851  0.2730
 1722SOL     OW 6931   0.462   2.450   3.030 -0.4223 -0.5309 -0.0558
 1722SOL    HW2 6932   0.537   2.400   3.060  0.1628  0.7919  0.7419
 1722SOL    HW3 6933   0.465   2.445   2.934  1.1088  0.1084 -0.0518
 1722SOL    MW4 6934   0.472   2.443   3.021 -0.1431 -0.2723  0.0501
 1723SOL     OW 6935   0.484   2.694   3.166  0.1106 -0.0728 -0.4655
 1723SOL    HW2 6936   0.557   2.734   3.119  0.3154 -0.8778 -0.8511
 1723SOL    HW3 6937   0.475   2.607   3.126  0.1176 -0.6775  0.8038
 1723SOL    MW4 6938   0.492   2.688   3.154  0.1386 -0.2587 -0.3490
 1724SOL     OW 6939   0.674   2.831   3.025 -0.1114 -0.0891 -0.1833
 1724SOL    HW2 6940   0.756   2.792   3.053  0.6595  1.8459  0.3832
 1724SOL    HW3 6941   0.672   2.916   3.069 -0.8022  1.3198 -2.8100
 1724SOL    MW4 6942   0.684   2.837   3.034 -0.1009  0.3524 -0.4551
 1725SOL     OW 6943   0.682   3.093   3.123  0.2365 -0.2177  0.2756
 1725SOL    HW2 6944   0.677   3.104   3.217 -0.0383  0.4294  0.1858
 1725SOL    HW3 6945   0.610   3.145   3.088  1.0057  0.4494 -0.3576
 1725SOL    MW4 6946   0.672   3.101   3.131  0.3018 -0.0443  0.1800
 1726SOL     OW 6947   0.454   3.233   2.994 -0.7626 -0.4286 -0.2357
 1726SOL    HW2 6948   0.450   3.305   3.057 -1.2911 -1.1270  0.5596
 1726SOL    HW3 6949   0.392   3.168   3.029 -0.2169 -1.3054 -0.8673
 1726SOL    MW4 6950   0.445   3.234   3.007 -0.7603 -0.6363 -0.2141
 1727SOL     OW 6951   0.490   3.458   3.158 -0.5358  0.1841  0.0525
 1727SOL    HW2 6952   0.467   3.463   3.251 -1.7114  0.1785 -0.2263
 1727SOL    HW3 6953   0.411   3.488   3.112 -0.5678 -1.4128 -0.9884
 1727SOL    MW4 6954   0.476   3.462   3.164 -0.6951 -0.0272 -0.1216
 1728SOL     OW 6955   0.675   3.621   3.003 -0.2691  0.1514  0.0790
 1728SOL    HW2 6956   0.762   3.603   3.039 -0.2781  0.5384  0.2922
 1728SOL    HW3 6957   0.617   3.560   3.049 -0.0490 -0.3840 -0.3522
 1728SOL    MW4 6958   0.678   3.611   3.014 -0.2412  0.1321  0.0505
 1729SOL     OW 6959   0.694   3.872   3.100 -0.4041  0.4913 -0.0308
 1729SOL    HW2 6960   0.708   3.861   3.194  1.6726  0.6478 -0.2956
 1729SOL    HW3 6961   0.683   3.783   3.066 -0.6619  0.4061  0.2733
 1729SOL    MW4 6962   0.694   3.859   3.108 -0.1641  0.5007 -0.0255
 1730SOL     OW 6963   0.457   3.999   3.002  0.2554  0.2124  0.2955
 1730SOL    HW2 6964   0.538   3.957   3.029 -0.7161 -1.1098  1.1870
 1730SOL    HW3 6965   0.454   3.987   2.907  1.0632  0.2189  0.2685
 1730SOL    MW4 6966   0.468   3.992   2.993  0.2338  0.0386  0.4096
 1731SOL     OW 6967   0.485   4.237   3.118  0.6615  0.1915  0.0485
 1731SOL    HW2 6968   0.477   4.157   3.065 -2.6332 -0.5602  1.5499
 1731SOL    HW3 6969   0.424   4.298   3.077  0.4346  0.6833  1.1188
 1731SOL    MW4 6970   0.476   4.235   3.105  0.1968  0.1574  0.3877
 1732SOL     OW 6971   0.680   4.389   3.000 -0.0286  0.3456 -0.3136
 1732SOL    HW2 6972   0.616   4.341   3.052  0.1161  0.1709 -0.2950
 1732SOL    HW3 6973   0.657   4.368   2.909  1.2471 -1.3476 -0.2594
 1732SOL    MW4 6974   0.669   4.380   2.995  0.1587  0.0992 -0.3037
 1733SOL     OW 6975   1.177   0.015   3.072 -0.6868  0.1293  0.0034
 1733SOL    HW2 6976   1.247   0.060   3.024  0.0994  1.4545  2.3421
 1733SOL    HW3 6977   1.096   0.058   3.041 -0.4789 -1.0111 -2.2675
 1733SOL    MW4 6978   1.175   0.027   3.061 -0.5556  0.1535  0.0124
 1734SOL     OW 6979   0.936   0.117   3.010  0.0208  0.0469  0.4990
 1734SOL    HW2 6980   0.927   0.209   3.038  0.7602 -0.0652  1.1157
 1734SOL    HW3 6981   0.857   0.075   3.043  0.1121  0.2699  1.0060
 1734SOL    MW4 6982   0.924   0.124   3.018  0.1304  0.0615  0.6473
 1735SOL     OW 6983   0.937   0.405   3.113 -0.2440  0.2891  0.0955
 1735SOL    HW2 6984   0.938   0.410   3.209  0.9011 -0.9308  0.1664
 1735SOL    HW3 6985   1.005   0.466   3.086 -0.0091  0.0320  0.1012
 1735SOL    MW4 6986   0.946   0.414   3.122 -0.0619  0.0942  0.1056
 1736SOL     OW 6987   1.163   0.514   3.017  0.0882 -0.3650  0.1465
 1736SOL    HW2 6988   1.218   0.443   3.050  0.8911 -0.5807 -1.6021
 1736SOL    HW3 6989   1.170   0.508   2.922  1.2568  2.8642 -0.0472
 1736SOL    MW4 6990   1.171   0.504   3.009  0.3482  0.0326 -0.1099
 1737SOL     OW 6991   1.112   0.782   3.098 -0.1129  0.1395 -0.1163
 1737SOL    HW2 6992   1.095   0.777   3.192  2.3852 -0.9113  0.3009
 1737SOL    HW3 6993   1.128   0.692   3.071 -0.6705  0.4475 -1.5406
 1737SOL    MW4 6994   1.112   0.770   3.107  0.1432  0.0415 -0.2491
 1738SOL     OW 6995   0.901   0.893   2.982 -0.1010  0.2442  0.3345
 1738SOL    HW2 6996   0.973   0.840   3.016  0.7219  1.1713  0.0721
 1738SOL    HW3 6997   0.824   0.861   3.028  0.5066 -0.6341  0.7628
 1738SOL    MW4 6998   0.900   0.882   2.993  0.0877  0.2506  0.3562
 1739SOL     OW 6999   0.916   1.147   3.129 -0.0065  0.2354 -0.1998
 1739SOL    HW2 7000   0.990   1.201   3.101 -1.3589  1.6957 -1.0121
 1739SOL    HW3 7001   0.927   1.065   3.082  1.8576 -0.0767  0.7500
 1739SOL    MW4 7002   0.927   1.144   3.119  0.0611  0.3868 -0.1817
 1740SOL     OW 7003   1.152   1.280   3.030  0.3782  0.0088  0.2928
 1740SOL    HW2 7004   1.213   1.209   3.048  1.6888  0.3985 -2.5350
 1740SOL    HW3 7005   1.142   1.281   2.935 -4.2447 -0.2029  0.6176
 1740SOL    MW4 7006   1.159   1.270   3.020 -0.0588  0.0323 -0.0377
 1741SOL     OW 7007   1.157   1.548   3.107 -0.2863  0.0100 -0.3743
 1741SOL    HW2 7008   1.239   1.594   3.090 -0.8479  1.4034  0.5760
 1741SOL    HW3 7009   1.171   1.460   3.073  1.1873  0.5775 -1.2843
 1741SOL    MW4 7010   1.169   1.542   3.100 -0.1661  0.2687 -0.3693
 1742SOL     OW 7011   0.917   1.656   3.013 -0.6320  0.1605 -0.2349
 1742SOL    HW2 7012   0.995   1.612   3.047 -0.0802 -0.3115 -2.0526
 1742SOL    HW3 7013   0.845   1.624   3.068  0.0950 -1.2666 -0.1006
 1742SOL    MW4 7014   0.918   1.646   3.025 -0.4633 -0.0900 -0.4573
 1743SOL     OW 7015   0.882   1.912   3.129  0.5859  0.7059 -0.1212
 1743SOL    HW2 7016   0.883   1.910   3.224 -0.3336 -1.0497 -0.1406
 1743SOL    HW3 7017   0.905   1.823   3.102  0.3557  1.0566 -1.5419
 1743SOL    MW4 7018   0.885   1.900   3.138  0.4342  0.5207 -0.3111
 1744SOL     OW 7019   1.061   2.098   3.013  0.1275 -0.4962 -0.0320
 1744SOL    HW2 7020   1.005   2.032   3.053  0.1730 -0.7257 -0.3484
 1744SOL    HW3 7021   1.054   2.082   2.919 -0.2956  0.2933 -0.1449
 1744SOL    MW4 7022   1.053   2.087   3.006  0.0777 -0.4222 -0.0887
 1745SOL     OW 7023   1.081   2.345   3.130  0.3440  0.2542  0.3917
 1745SOL    HW2 7024   1.006   2.393   3.094 -0.2657 -0.3321  0.8674
 1745SOL    HW3 7025   1.085   2.265   3.079  0.3249  0.0503  0.7073
 1745SOL    MW4 7026   1.071   2.341   3.119  0.2609  0.1497  0.4961
 1746SOL     OW 7027   0.854   2.444   3.002 -0.3509 -0.4703 -0.0864
 1746SOL    HW2 7028   0.802   2.377   3.047  2.8577 -2.5301  0.6920
 1746SOL    HW3 7029   0.832   2.432   2.909 -1.1507 -1.3936  0.2109
 1746SOL    MW4 7030   0.844   2.434   2.996 -0.0331 -0.8638  0.0558
 1747SOL     OW 7031   0.903   2.703   3.110  0.1828  0.3051 -0.5149
 1747SOL    HW2 7032   0.889   2.702   3.205  0.4593  0.4846 -0.4729
 1747SOL    HW3 7033   0.875   2.616   3.081 -1.2950  0.7439 -0.4695
 1747SOL    MW4 7034   0.898   2.691   3.119  0.0244  0.3867 -0.5035
 1748SOL     OW 7035   1.139   2.837   3.008  0.1762 -0.0562  0.0285
 1748SOL    HW2 7036   1.115   2.927   3.032  0.3052 -0.1094  0.3495
 1748SOL    HW3 7037   1.065   2.784   3.036 -0.3631  0.0716 -1.0855
 1748SOL    MW4 7038   1.126   2.842   3.015  0.1221 -0.0465 -0.0763
 1749SOL     OW 7039   1.103   3.104   3.088 -0.2089  0.0876  0.4888
 1749SOL    HW2 7040   1.179   3.146   3.048 -0.2674 -1.6953 -1.5587
 1749SOL    HW3 7041   1.028   3.152   3.053 -0.2135 -0.8598 -0.8245
 1749SOL    MW4 7042   1.103   3.116   3.079 -0.2171 -0.2728  0.0455
 1750SOL     OW 7043   0.886   3.253   3.006 -0.4409  0.0575 -0.1301
 1750SOL    HW2 7044   0.815   3.199   3.041  0.4424 -0.8475  0.2877
 1750SOL    HW3 7045   0.879   3.242   2.911  1.0900 -2.5920  0.0273
 1750SOL    MW4 7046   0.876   3.244   2.998 -0.1224 -0.4115 -0.0544
 1751SOL     OW 7047   0.904   3.504   3.128 -0.3551  0.0181  0.2742
 1751SOL    HW2 7048   0.977   3.548   3.085  0.0766 -0.0632  0.9172
 1751SOL    HW3 7049   0.900   3.418   3.087  0.2925 -0.1957  0.6545
 1751SOL    MW4 7050   0.913   3.499   3.117 -0.2127 -0.0210  0.4091
 1752SOL     OW 7051   1.121   3.629   2.994  0.0622 -0.0720  0.3671
 1752SOL    HW2 7052   1.202   3.584   3.020  0.0909 -0.1058  0.2150
 1752SOL    HW3 7053   1.128   3.715   3.035 -0.2744 -0.4244  1.1762
 1752SOL    MW4 7054   1.133   3.634   3.003  0.0215 -0.1228  0.4539
 1753SOL     OW 7055   1.149   3.882   3.119  0.3883 -0.2411 -0.1970
 1753SOL    HW2 7056   1.124   3.872   3.211  0.6552  1.7000  0.1050
 1753SOL    HW3 7057   1.071   3.916   3.076  0.7307  0.3140 -0.3873
 1753SOL    MW4 7058   1.135   3.885   3.125  0.4687  0.0882 -0.1824
 1754SOL     OW 7059   0.924   3.994   3.016  0.7635  0.2140 -0.1858
 1754SOL    HW2 7060   0.845   3.953   3.052  0.5672  1.6064  1.0152
 1754SOL    HW3 7061   0.909   3.995   2.921 -0.1288 -0.5955 -0.0675
 1754SOL    MW4 7062   0.912   3.988   3.008  0.6199  0.2911 -0.0117
 1755SOL     OW 7063   0.924   4.275   3.089  0.1650 -0.2037  0.2729
 1755SOL    HW2 7064   0.904   4.185   3.065  0.7383 -0.1436 -0.4548
 1755SOL    HW3 7065   0.840   4.321   3.084  0.1982 -0.2746 -1.2825
 1755SOL    MW4 7066   0.910   4.269   3.085  0.2450 -0.2050 -0.0281
 1756SOL     OW 7067   1.145   4.435   2.955  0.0037  0.0906  0.0763
 1756SOL    HW2 7068   1.061   4.408   2.990 -0.2184  1.5620  0.7394
 1756SOL    HW3 7069   1.151   4.528   2.978  0.4839  0.7376 -2.5563
 1756SOL    MW4 7070   1.135   4.444   2.963  0.0378  0.3700 -0.1836
 1757SOL     OW 7071   1.617   4.586   3.095  0.2392  0.0382  0.2215
 1757SOL    HW2 7072   1.620   4.599   3.189  0.4785 -0.2187  0.2497
 1757SOL    HW3 7073   1.558   4.654   3.063  0.8492  0.6846  0.4592
 1757SOL    MW4 7074   1.610   4.597   3.103  0.3513  0.0896  0.2568
 1758SOL     OW 7075   1.423   0.097   2.957 -0.3143 -0.0723  0.8877
 1758SOL    HW2 7076   1.413   0.185   2.994 -1.1365  0.6085 -0.9049
 1758SOL    HW3 7077   1.397   0.107   2.865  0.8743 -1.9035  0.3332
 1758SOL    MW4 7078   1.418   0.110   2.950 -0.2660 -0.2241  0.5779
 1759SOL     OW 7079   1.356   0.329   3.103  0.0041 -0.5272  0.3442
 1759SOL    HW2 7080   1.337   0.351   3.194 -0.8174 -0.0752  0.0671
 1759SOL    HW3 7081   1.427   0.390   3.079  0.8949 -1.3114  0.9707
 1759SOL    MW4 7082   1.363   0.340   3.112  0.0131 -0.5710  0.3905
 1760SOL     OW 7083   1.579   0.485   3.022  0.0127  0.3734 -0.1591
 1760SOL    HW2 7084   1.667   0.462   3.052  0.3626  1.8729  0.0512
 1760SOL    HW3 7085   1.586   0.486   2.927  0.7157  2.1709 -0.1196
 1760SOL    MW4 7086   1.591   0.482   3.014  0.1515  0.8084 -0.1259
 1761SOL     OW 7087   1.575   0.768   3.114  0.3381  0.4518 -0.0315
 1761SOL    HW2 7088   1.561   0.766   3.209  1.3826 -1.3014  0.1126
 1761SOL    HW3 7089   1.573   0.676   3.088  2.7224  0.7313 -1.3130
 1761SOL    MW4 7090   1.573   0.755   3.123  0.7905  0.2574 -0.1812
 1762SOL     OW 7091   1.352   0.916   2.977 -0.0968 -0.0190  0.1719
 1762SOL    HW2 7092   1.425   0.864   3.011  0.2260  0.4855  0.2520
 1762SOL    HW3 7093   1.274   0.873   3.013  0.1417 -0.6886 -0.0859
 1762SOL    MW4 7094   1.351   0.903   2.986 -0.0229 -0.0408  0.1488
 1763SOL     OW 7095   1.410   1.150   3.114 -0.0318  0.1567 -0.2062
 1763SOL    HW2 7096   1.398   1.065   3.072 -0.8104  0.0945  0.1463
 1763SOL    HW3 7097   1.468   1.198   3.055  1.3216 -1.0115  0.1335
 1763SOL    MW4 7098   1.416   1.145   3.101  0.0440 -0.0056 -0.1147
 1764SOL     OW 7099   1.620   1.322   2.979 -0.3519  0.6365 -0.2684
 1764SOL    HW2 7100   1.673   1.268   3.038 -1.2301  0.0502  0.0065
 1764SOL    HW3 7101   1.617   1.408   3.021  0.9772  0.8833 -0.6543
 1764SOL    MW4 7102   1.627   1.326   2.993 -0.2924  0.5918 -0.2830
 1765SOL     OW 7103   1.621   1.568   3.092 -0.2276 -0.2113  0.2190
 1765SOL    HW2 7104   1.695   1.619   3.058  0.2718 -1.0448  0.0616
 1765SOL    HW3 7105   1.544   1.612   3.054  0.1895  0.4854  0.1570
 1765SOL    MW4 7106   1.621   1.581   3.082 -0.1066 -0.2294  0.1898
 1766SOL     OW 7107   1.372   1.687   3.012 -0.6671  0.4381 -0.0063
 1766SOL    HW2 7108   1.353   1.779   3.032 -1.1183  0.0418  1.5359
 1766SOL    HW3 7109   1.348   1.676   2.921 -0.3399  1.9227 -0.2826
 1766SOL    MW4 7110   1.366   1.697   3.003 -0.6833  0.5817  0.1607
 1767SOL     OW 7111   1.285   1.936   3.087  0.1813  0.1496  0.0456
 1767SOL    HW2 7112   1.284   1.946   3.183  0.2039  0.1609  0.0446
 1767SOL    HW3 7113   1.204   1.980   3.059  0.2490  0.2748  0.0467
 1767SOL    MW4 7114   1.274   1.943   3.096  0.1932  0.1676  0.0455
 1768SOL     OW 7115   1.551   2.059   3.035 -0.0792  0.2960 -0.4794
 1768SOL    HW2 7116   1.461   2.028   3.044  0.1979 -0.7640 -1.2280
 1768SOL    HW3 7117   1.564   2.066   2.940  0.6950  0.2256 -0.3811
 1768SOL    MW4 7118   1.541   2.056   3.024  0.0596  0.1466 -0.5651
 1769SOL     OW 7119   1.576   2.332   3.099  0.1405 -0.4238 -0.1081
 1769SOL    HW2 7120   1.495   2.370   3.064 -0.2437 -1.3372 -0.2292
 1769SOL    HW3 7121   1.571   2.239   3.076  0.7102 -0.6992  0.8455
 1769SOL    MW4 7122   1.565   2.325   3.091  0.1650 -0.5808  0.0019
 1770SOL     OW 7123   1.330   2.439   3.018 -0.1538 -0.0814 -0.4428
 1770SOL    HW2 7124   1.247   2.394   3.035 -0.6175  0.4911 -1.1111
 1770SOL    HW3 7125   1.344   2.428   2.924  0.0515  0.6100 -0.4971
 1770SOL    MW4 7126   1.321   2.432   3.008 -0.1879  0.0854 -0.5381
 1771SOL     OW 7127   1.360   2.714   3.118  0.3215  0.3373 -0.0111
 1771SOL    HW2 7128   1.347   2.620   3.105  0.9960  0.6765 -3.6750
 1771SOL    HW3 7129   1.280   2.754   3.084  0.2539  1.1351  1.0597
 1771SOL    MW4 7130   1.347   2.707   3.112  0.4016  0.4873 -0.3533
 1772SOL     OW 7131   1.565   2.848   3.005 -0.4401  0.0674  0.0253
 1772SOL    HW2 7132   1.647   2.806   3.030 -0.2991 -0.1594 -0.8167
 1772SOL    HW3 7133   1.497   2.790   3.041 -0.2376  0.1039  0.4744
 1772SOL    MW4 7134   1.567   2.835   3.013 -0.3947  0.0420 -0.0267
 1773SOL     OW 7135   1.565   3.105   3.101  0.1366 -0.0892 -0.1432
 1773SOL    HW2 7136   1.562   3.097   3.197  1.7287 -0.0688 -0.0863
 1773SOL    HW3 7137   1.565   3.015   3.070 -1.7454 -0.0988 -0.1925
 1773SOL    MW4 7138   1.564   3.092   3.110  0.0985 -0.0877 -0.1423
 1774SOL     OW 7139   1.331   3.204   3.000 -0.0314  0.3431  0.5224
 1774SOL    HW2 7140   1.417   3.174   3.030  0.2630  0.7533  0.0968
 1774SOL    HW3 7141   1.338   3.206   2.905 -0.4282  0.6369  0.4965
 1774SOL    MW4 7142   1.343   3.200   2.991 -0.0448  0.4358  0.4628
 1775SOL     OW 7143   1.351   3.467   3.075 -0.0938  0.1391 -0.0561
 1775SOL    HW2 7144   1.324   3.463   3.167  0.3315 -0.4480  0.0476
 1775SOL    HW3 7145   1.351   3.376   3.046  0.4967  0.2486 -0.4197
 1775SOL    MW4 7146   1.348   3.455   3.083  0.0403  0.0761 -0.0904
 1776SOL     OW 7147   1.562   3.618   2.998  0.0913  0.1816  0.3029
 1776SOL    HW2 7148   1.492   3.556   3.020  1.0410 -1.5274 -1.3073
 1776SOL    HW3 7149   1.561   3.621   2.902  1.3906  1.1226  0.3107
 1776SOL    MW4 7150   1.552   3.610   2.988  0.3880  0.0801  0.0913
 1777SOL     OW 7151   1.572   3.866   3.098 -0.3207  0.0783 -0.0355
 1777SOL    HW2 7152   1.645   3.909   3.054  0.7885 -0.0448  1.6555
 1777SOL    HW3 7153   1.578   3.774   3.070  0.2121  0.0502  0.1781
 1777SOL    MW4 7154   1.582   3.859   3.088 -0.1040  0.0587  0.2158
 1778SOL     OW 7155   1.364   3.993   2.991 -0.4346 -0.2246  0.4477
 1778SOL    HW2 7156   1.440   3.954   3.035 -0.7382  0.6521  1.7745
 1778SOL    HW3 7157   1.288   3.955   3.035 -0.7385  0.9483  0.9846
 1778SOL    MW4 7158   1.364   3.983   3.003 -0.5147  0.0458  0.6938
 1779SOL     OW 7159   1.330   4.255   3.102 -0.1722  0.1236  0.7888
 1779SOL    HW2 7160   1.356   4.176   3.054 -1.5219 -1.1308  2.0835
 1779SOL    HW3 7161   1.264   4.296   3.046  0.5109  0.3254  0.1267
 1779SOL    MW4 7162   1.325   4.250   3.088 -0.2601 -0.0153  0.8724
 1780SOL     OW 7163   1.564   4.342   2.987 -0.1986  0.0751 -0.4735
 1780SOL    HW2 7164   1.487   4.309   3.033  0.5933  0.0698  0.8632
 1780SOL    HW3 7165   1.579   4.429   3.025  1.3700 -0.5540  0.3823
 1780SOL    MW4 7166   1.556   4.349   2.998  0.1129 -0.0086 -0.1841
 1781SOL     OW 7167   2.024   4.624   3.122  0.0002  0.3699 -0.3136
 1781SOL    HW2 7168   1.991   4.629   3.212 -0.4610  0.3799 -0.4798
 1781SOL    HW3 7169   1.962   4.677   3.071 -0.7704 -1.0803 -0.9244
 1781SOL    MW4 7170   2.012   4.631   3.127 -0.1624  0.1798 -0.4163
 1782SOL     OW 7171   1.823   0.098   3.030 -0.1246  0.4611  0.2898
 1782SOL    HW2 7172   1.752   0.042   3.060 -0.9221  0.3227 -1.7555
 1782SOL    HW3 7173   1.813   0.101   2.934  3.3851 -0.6230 -0.2098
 1782SOL    MW4 7174   1.813   0.091   3.021  0.2331  0.2998 -0.0458
 1783SOL     OW 7175   1.825   0.378   3.084 -0.3790 -0.3201  0.0082
 1783SOL    HW2 7176   1.825   0.282   3.075  0.2471 -0.2896 -0.3617
 1783SOL    HW3 7177   1.899   0.406   3.031  0.6094  0.2381  1.6665
 1783SOL    MW4 7178   1.835   0.369   3.076 -0.1661 -0.2424  0.1779
 1784SOL     OW 7179   2.060   0.493   2.987  0.1993  0.1225 -0.3651
 1784SOL    HW2 7180   2.149   0.458   2.992 -0.1416 -0.7279 -0.3402
 1784SOL    HW3 7181   2.048   0.514   2.894  0.9279  1.5445 -0.1502
 1784SOL    MW4 7182   2.070   0.491   2.976  0.2506  0.1979 -0.3335
 1785SOL     OW 7183   2.027   0.734   3.133 -0.3448 -0.0060  0.5376
 1785SOL    HW2 7184   1.948   0.768   3.092 -1.0259 -1.0306  0.9653
 1785SOL    HW3 7185   2.034   0.644   3.100  0.9760  0.2769  0.0322
 1785SOL    MW4 7186   2.017   0.727   3.123 -0.2606 -0.1038  0.5274
 1786SOL     OW 7187   1.818   0.881   3.048 -0.2767  0.0806  0.3983
 1786SOL    HW2 7188   1.738   0.835   3.073 -0.8551  1.0149  0.2884
 1786SOL    HW3 7189   1.814   0.886   2.952 -1.2612  2.1906  0.5170
 1786SOL    MW4 7190   1.807   0.876   3.038 -0.4830  0.4823  0.3994
 1787SOL     OW 7191   1.782   1.151   3.125 -0.4206 -0.1591 -0.3338
 1787SOL    HW2 7192   1.789   1.166   3.220 -0.4935  0.4837 -0.4328
 1787SOL    HW3 7193   1.782   1.055   3.117  1.7146 -0.2242  0.1547
 1787SOL    MW4 7194   1.783   1.140   3.137 -0.1484 -0.0829 -0.2823
 1788SOL     OW 7195   2.017   1.291   3.005  0.0868 -0.2844  0.1689
 1788SOL    HW2 7196   2.092   1.236   3.027  1.6504  2.3925  1.8041
 1788SOL    HW3 7197   1.942   1.249   3.048  1.4837 -0.3742  2.5741
 1788SOL    MW4 7198   2.017   1.278   3.014  0.4773  0.0570  0.7019
 1789SOL     OW 7199   2.012   1.549   3.084  0.1791  0.5069  0.5546
 1789SOL    HW2 7200   2.023   1.528   3.177 -0.7107  0.1158  0.5810
 1789SOL    HW3 7201   2.008   1.464   3.041  0.5073  0.6881  0.1697
 1789SOL    MW4 7202   2.013   1.535   3.091  0.1051  0.4793  0.5076
 1790SOL     OW 7203   1.811   1.731   2.966  0.0358 -0.3603  0.3589
 1790SOL    HW2 7204   1.815   1.819   3.003 -0.7927  0.3879 -1.2537
 1790SOL    HW3 7205   1.887   1.685   3.004  1.4775  1.5780 -0.0935
 1790SOL    MW4 7206   1.822   1.736   2.976  0.1167 -0.0057  0.0861
 1791SOL     OW 7207   1.830   1.945   3.108  0.1470  0.0318 -0.6343
 1791SOL    HW2 7208   1.905   1.995   3.076  0.3521  0.6433  0.7895
 1791SOL    HW3 7209   1.754   1.997   3.084  0.1206 -0.7606 -2.4036
 1791SOL    MW4 7210   1.830   1.958   3.100  0.1706  0.0080 -0.6800
 1792SOL     OW 7211   2.058   2.057   2.992 -0.1354  0.3826  0.3226
 1792SOL    HW2 7212   2.134   2.025   3.041 -1.2080 -0.5088  1.4414
 1792SOL    HW3 7213   2.041   2.144   3.029  0.5622  0.7430 -0.1920
 1792SOL    MW4 7214   2.066   2.064   3.004 -0.1850  0.3123  0.4025
 1793SOL     OW 7215   1.999   2.311   3.096  0.0365 -0.0967  0.4735
 1793SOL    HW2 7216   2.077   2.366   3.089 -0.7287  1.0774  0.9991
 1793SOL    HW3 7217   1.926   2.369   3.073 -0.8718 -0.6559  1.8657
 1793SOL    MW4 7218   1.999   2.326   3.092 -0.1843 -0.0155  0.7265
 1794SOL     OW 7219   1.808   2.471   3.000  0.5164 -0.2836  0.1567
 1794SOL    HW2 7220   1.815   2.562   3.030  0.5631  0.0846 -0.9218
 1794SOL    HW3 7221   1.724   2.441   3.033  0.0597  0.4769 -0.2803
 1794SOL    MW4 7222   1.798   2.479   3.008  0.4622 -0.1349 -0.0434
 1795SOL     OW 7223   1.804   2.728   3.080  0.2919  0.0796 -0.5779
 1795SOL    HW2 7224   1.799   2.718   3.175 -1.8849  0.6397 -0.6154
 1795SOL    HW3 7225   1.886   2.774   3.065  0.3840  0.4792  1.0747
 1795SOL    MW4 7226   1.814   2.733   3.091  0.0169  0.2065 -0.3645
 1796SOL     OW 7227   2.068   2.854   2.994  0.0294 -0.0486  0.8231
 1796SOL    HW2 7228   2.071   2.948   3.010  1.1393  0.1412 -0.3535
 1796SOL    HW3 7229   2.059   2.847   2.899  1.1964 -1.1338  0.7892
 1796SOL    MW4 7230   2.067   2.865   2.983  0.3300 -0.1669  0.6635
 1797SOL     OW 7231   2.092   3.129   3.092  0.0671  0.0951  0.0662
 1797SOL    HW2 7232   2.090   3.112   3.186 -1.6684 -0.5242 -0.0695
 1797SOL    HW3 7233   2.011   3.176   3.073 -0.1133 -0.6933 -1.2710
 1797SOL    MW4 7234   2.081   3.133   3.102 -0.1857 -0.0908 -0.1283
 1798SOL     OW 7235   1.844   3.260   3.006 -0.2048  0.4208 -0.5859
 1798SOL    HW2 7236   1.779   3.195   3.030  0.0045 -0.0647 -1.3146
 1798SOL    HW3 7237   1.847   3.257   2.910  0.6160  0.7007 -0.5745
 1798SOL    MW4 7238   1.836   3.251   2.996 -0.0690  0.3934 -0.6807
 1799SOL     OW 7239   1.805   3.520   3.075 -0.2211  0.1762  0.1461
 1799SOL    HW2 7240   1.808   3.426   3.055  1.2687  0.0978  0.7118
 1799SOL    HW3 7241   1.722   3.549   3.038  0.2434 -0.9542 -1.8499
 1799SOL    MW4 7242   1.794   3.512   3.068  0.0367  0.0167 -0.0427
 1800SOL     OW 7243   2.039   3.611   2.969  0.3096 -0.0517 -0.2524
 1800SOL    HW2 7244   2.056   3.698   3.004  0.5827 -0.3858  0.4616
 1800SOL    HW3 7245   1.950   3.590   2.997  0.3872 -0.1622 -0.0865
 1800SOL    MW4 7246   2.029   3.620   2.977  0.3557 -0.1104 -0.1364
 1801SOL     OW 7247   2.068   3.859   3.071  0.2010  0.3933 -0.1952
 1801SOL    HW2 7248   2.056   3.854   3.166  1.0574  0.0277 -0.1026
 1801SOL    HW3 7249   1.984   3.892   3.038 -0.0410  0.6913  0.7005
 1801SOL    MW4 7250   2.055   3.863   3.079  0.2820  0.3843 -0.0648
 1802SOL     OW 7251   1.822   3.966   2.998 -0.3133 -0.6072  0.2449
 1802SOL    HW2 7252   1.805   4.051   3.039 -0.1741 -0.3253 -0.2727
 1802SOL    HW3 7253   1.799   3.979   2.906 -0.1545 -1.0905  0.1366
 1802SOL    MW4 7254   1.817   3.979   2.991 -0.2739 -0.6337  0.1624
 1803SOL     OW 7255   1.780   4.211   3.101  0.0405  0.0749 -0.9930
 1803SOL    HW2 7256   1.855   4.259   3.065  0.3111  0.4132  0.0113
 1803SOL    HW3 7257   1.704   4.259   3.068  0.3129  1.3815  0.2319
 1803SOL    MW4 7258   1.780   4.224   3.092  0.1123  0.2918 -0.6988
 1804SOL     OW 7259   2.011   4.354   3.014 -0.2046 -0.3321 -0.2659
 1804SOL    HW2 7260   2.004   4.443   3.049 -0.3455 -1.4254  2.6181
 1804SOL    HW3 7261   2.023   4.367   2.920  0.5769  2.7619  0.1784
 1804SOL    MW4 7262   2.012   4.368   3.006 -0.1199 -0.0677  0.1733
 1805SOL     OW 7263   2.492   4.645   3.115  0.5619  0.2500 -0.0264
 1805SOL    HW2 7264   2.487   4.554   3.085  0.6465  0.5410 -0.9706
 1805SOL    HW3 7265   2.415   4.687   3.077  1.4361  0.9659 -1.0551
 1805SOL    MW4 7266   2.481   4.639   3.106  0.6883  0.3829 -0.2868
 1806SOL     OW 7267   2.262   0.078   2.993 -0.0351 -0.1801  0.0184
 1806SOL    HW2 7268   2.253   0.164   3.033  1.0407 -0.1692  0.2515
 1806SOL    HW3 7269   2.194   0.025   3.034 -0.5694  0.5041  0.0209
 1806SOL    MW4 7270   2.252   0.082   3.003  0.0362 -0.0884  0.0496
 1807SOL     OW 7271   2.279   0.349   3.073 -0.0903 -0.0508 -0.3430
 1807SOL    HW2 7272   2.284   0.352   3.168  0.3144 -1.2873 -0.3098
 1807SOL    HW3 7273   2.366   0.377   3.043  0.7781 -2.5680 -0.2601
 1807SOL    MW4 7274   2.292   0.353   3.082  0.0775 -0.5460 -0.3278
 1808SOL     OW 7275   2.509   0.497   2.977  0.4596 -0.3361 -0.5866
 1808SOL    HW2 7276   2.508   0.580   3.025  1.1709 -0.5198 -0.2526
 1808SOL    HW3 7277   2.584   0.450   3.012  0.9410 -0.5003 -1.8485
 1808SOL    MW4 7278   2.518   0.502   2.988  0.6168 -0.3819 -0.7091
 1809SOL     OW 7279   2.487   0.737   3.105  0.0346 -0.3299 -0.5612
 1809SOL    HW2 7280   2.404   0.782   3.089  0.5428  1.1920  0.8620
 1809SOL    HW3 7281   2.551   0.789   3.057  0.4031 -0.4837 -0.2357
 1809SOL    MW4 7282   2.484   0.750   3.096  0.1500 -0.1493 -0.3307
 1810SOL     OW 7283   2.251   0.884   3.048 -0.1307  0.2874 -0.0760
 1810SOL    HW2 7284   2.161   0.857   3.068 -0.7988  0.2694 -2.8631
 1810SOL    HW3 7285   2.254   0.976   3.072 -0.5898  0.0496  0.9349
 1810SOL    MW4 7286   2.240   0.892   3.054 -0.2792  0.2536 -0.3099
 1811SOL     OW 7287   2.240   1.142   3.102 -0.0608 -0.1672 -0.2339
 1811SOL    HW2 7288   2.225   1.154   3.196  0.8730  1.9211 -0.3088
 1811SOL    HW3 7289   2.325   1.184   3.087 -0.1616 -0.5767 -1.9935
 1811SOL    MW4 7290   2.250   1.149   3.112  0.0491  0.0544 -0.4756
 1812SOL     OW 7291   2.500   1.271   3.029  0.2818  0.0556 -0.3161
 1812SOL    HW2 7292   2.491   1.360   3.063  0.1380 -0.5062  1.1482
 1812SOL    HW3 7293   2.500   1.282   2.933  2.2546  1.8298 -0.1757
 1812SOL    MW4 7294   2.499   1.285   3.020  0.5231  0.2155 -0.1047
 1813SOL     OW 7295   2.428   1.524   3.132  0.4278 -0.3727  0.1043
 1813SOL    HW2 7296   2.353   1.577   3.104 -0.3199 -0.6756  1.4791
 1813SOL    HW3 7297   2.504   1.571   3.098 -0.3163  0.6721 -0.1476
 1813SOL    MW4 7298   2.428   1.537   3.124  0.2310 -0.2748  0.2525
 1814SOL     OW 7299   2.249   1.693   3.020  0.1819  0.4774 -0.0700
 1814SOL    HW2 7300   2.165   1.649   3.032  0.2758  0.5301  0.8127
 1814SOL    HW3 7301   2.256   1.704   2.926  0.5349 -2.1322 -0.3943
 1814SOL    MW4 7302   2.239   1.689   3.009  0.2406  0.1402  0.0041
 1815SOL     OW 7303   2.256   1.941   3.157 -0.6523  0.1185 -0.1549
 1815SOL    HW2 7304   2.336   1.991   3.142 -1.2229  0.9219 -0.5667
 1815SOL    HW3 7305   2.270   1.858   3.112 -0.3066  0.5106 -0.7736
 1815SOL    MW4 7306   2.268   1.937   3.149 -0.6819  0.2762 -0.2909
 1816SOL     OW 7307   2.483   2.059   3.023 -0.4149  0.6084 -0.4518
 1816SOL    HW2 7308   2.565   2.026   3.059 -0.1430  0.3952 -1.2621
 1816SOL    HW3 7309   2.483   2.031   2.932 -1.2723  0.8262 -0.5266
 1816SOL    MW4 7310   2.494   2.051   3.016 -0.4919  0.6092 -0.5686
 1817SOL     OW 7311   2.484   2.332   3.119  0.1885 -0.2808  0.4138
 1817SOL    HW2 7312   2.467   2.324   3.213  0.8787 -1.4178  0.4540
 1817SOL    HW3 7313   2.490   2.241   3.088  0.5310  0.0901 -0.6282
 1817SOL    MW4 7314   2.482   2.319   3.127  0.3247 -0.3817  0.2813
 1818SOL     OW 7315   2.234   2.450   3.034 -0.0875  0.4403 -0.5221
 1818SOL    HW2 7316   2.244   2.541   3.063 -0.3880 -0.0752  1.2686
 1818SOL    HW3 7317   2.314   2.407   3.064 -0.8457 -0.3265  0.4287
 1818SOL    MW4 7318   2.246   2.456   3.042 -0.2275  0.2708 -0.1602
 1819SOL     OW 7319   2.262   2.696   3.145 -0.0320 -0.0701 -0.4719
 1819SOL    HW2 7320   2.343   2.734   3.110  0.3450 -1.2562 -0.9073
 1819SOL    HW3 7321   2.192   2.741   3.098  0.3803  0.6790 -0.3841
 1819SOL    MW4 7322   2.264   2.707   3.134  0.0722 -0.1276 -0.5176
 1820SOL     OW 7323   2.481   2.823   3.029 -0.1357 -0.4869  0.0027
 1820SOL    HW2 7324   2.472   2.917   3.045  1.6021 -0.3894  0.5977
 1820SOL    HW3 7325   2.504   2.817   2.936 -0.8364 -0.3704 -0.1810
 1820SOL    MW4 7326   2.483   2.834   3.019  0.0010 -0.4587  0.0570
 1821SOL     OW 7327   2.477   3.088   3.092  0.0158 -0.0513  0.6875
 1821SOL    HW2 7328   2.567   3.105   3.063 -0.3366 -0.8918 -0.9954
 1821SOL    HW3 7329   2.424   3.151   3.043 -0.3194  0.4412  1.6756
 1821SOL    MW4 7330   2.482   3.098   3.082 -0.0749 -0.0973  0.5960
 1822SOL     OW 7331   2.304   3.265   2.950  0.2366  0.3195  0.4362
 1822SOL    HW2 7332   2.317   3.353   2.987  1.7625 -0.3644  1.5522
 1822SOL    HW3 7333   2.228   3.231   2.997 -1.6371  1.7820 -1.4183
 1822SOL    MW4 7334   2.295   3.272   2.961  0.1910  0.4222  0.3390
 1823SOL     OW 7335   2.235   3.496   3.116 -0.0259 -0.0678  0.2162
 1823SOL    HW2 7336   2.304   3.553   3.082  0.3768  0.4458  1.8559
 1823SOL    HW3 7337   2.155   3.527   3.075  0.4070  0.7585 -0.0023
 1823SOL    MW4 7338   2.234   3.507   3.106  0.0842  0.1090  0.4034
 1824SOL     OW 7339   2.459   3.626   3.006 -0.4999  0.1827 -0.3537
 1824SOL    HW2 7340   2.537   3.581   3.038 -1.2824 -1.7389 -1.0636
 1824SOL    HW3 7341   2.466   3.715   3.041  0.7611 -0.6675  1.6319
 1824SOL    MW4 7342   2.470   3.632   3.015 -0.4365 -0.1829 -0.1855
 1825SOL     OW 7343   2.504   3.879   3.098  0.0157  0.5412 -0.1149
 1825SOL    HW2 7344   2.494   3.902   3.190  1.0526 -0.9707  0.3926
 1825SOL    HW3 7345   2.576   3.934   3.066  0.8288 -0.1904  0.4417
 1825SOL    MW4 7346   2.512   3.889   3.106  0.2601  0.2451  0.0253
 1826SOL     OW 7347   2.255   4.024   2.995 -0.3391  0.4129 -0.0147
 1826SOL    HW2 7348   2.327   3.966   3.021 -0.3218  0.0382 -0.8922
 1826SOL    HW3 7349   2.176   3.974   3.018 -0.3348 -0.5021 -1.9108
 1826SOL    MW4 7350   2.254   4.009   3.002 -0.3364  0.2432 -0.3808
 1827SOL     OW 7351   2.250   4.255   3.130 -0.2427  0.6429  0.0678
 1827SOL    HW2 7352   2.253   4.170   3.085  0.1907  0.5667  0.2474
 1827SOL    HW3 7353   2.170   4.297   3.096 -0.5347  0.1053  0.0875
 1827SOL    MW4 7354   2.240   4.249   3.119 -0.2241  0.5617  0.0942
 1828SOL     OW 7355   2.469   4.390   3.008 -0.0789  0.1458  0.2039
 1828SOL    HW2 7356   2.396   4.336   3.037 -0.6217  0.1466 -1.1250
 1828SOL    HW3 7357   2.461   4.393   2.912  0.4214  1.8796  0.1864
 1828SOL    MW4 7358   2.458   4.383   2.999 -0.0844  0.3748  0.0262
 1829SOL     OW 7359   2.915   0.008   3.092  0.2241 -0.3311  0.0921
 1829SOL    HW2 7360   3.002   0.047   3.080 -0.1819  0.4334 -0.4510
 1829SOL    HW3 7361   2.926  -0.084   3.065  0.5484  0.1004 -1.3222
 1829SOL    MW4 7362   2.928   0.001   3.087  0.2131 -0.1731 -0.1662
 1830SOL     OW 7363   2.686   0.119   2.996  0.3131  0.1973  0.1466
 1830SOL    HW2 7364   2.761   0.069   3.026  0.3109 -0.0300 -0.2172
 1830SOL    HW3 7365   2.610   0.071   3.029  0.3284  0.4842  0.6030
 1830SOL    MW4 7366   2.686   0.106   3.004  0.3147  0.2051  0.1590
 1831SOL     OW 7367   2.698   0.363   3.108 -0.2736 -0.1920  0.3082
 1831SOL    HW2 7368   2.698   0.272   3.079  0.8016 -0.2543  0.4889
 1831SOL    HW3 7369   2.707   0.358   3.203  0.0130  0.1109  0.2979
 1831SOL    MW4 7370   2.699   0.351   3.116 -0.0939 -0.1602  0.3307
 1832SOL     OW 7371   2.925   0.502   3.001  0.2487  0.4820  0.3239
 1832SOL    HW2 7372   2.840   0.466   3.027  0.7390 -1.3080 -0.4681
 1832SOL    HW3 7373   2.925   0.496   2.905  0.9362  1.2702  0.2648
 1832SOL    MW4 7374   2.914   0.497   2.992  0.4039  0.3498  0.2117
 1833SOL     OW 7375   2.937   0.754   3.102  0.4342 -0.2917 -0.0257
 1833SOL    HW2 7376   2.910   0.755   3.194 -0.0804 -1.1982 -0.1575
 1833SOL    HW3 7377   2.925   0.663   3.075  0.4525 -0.0017 -1.0275
 1833SOL    MW4 7378   2.932   0.742   3.110  0.3686 -0.3730 -0.1750
 1834SOL     OW 7379   2.702   0.882   2.983  0.6599 -0.3883  0.2832
 1834SOL    HW2 7380   2.789   0.844   2.998  0.6693 -0.0535  1.0842
 1834SOL    HW3 7381   2.704   0.965   3.031 -0.1845 -0.4860  0.4848
 1834SOL    MW4 7382   2.714   0.888   2.991  0.5498 -0.3570  0.4153
 1835SOL     OW 7383   2.704   1.117   3.119 -0.0035  0.4992  0.2038
 1835SOL    HW2 7384   2.781   1.168   3.090 -0.5628  1.1851 -0.0887
 1835SOL    HW3 7385   2.629   1.170   3.092 -0.5909 -0.4109  0.0586
 1835SOL    MW4 7386   2.705   1.131   3.112 -0.1547  0.4696  0.1462
 1836SOL     OW 7387   2.927   1.268   3.039  0.0599 -0.3754 -0.4561
 1836SOL    HW2 7388   3.000   1.213   3.068  0.9365  0.0524 -1.8341
 1836SOL    HW3 7389   2.941   1.351   3.084 -0.2700 -0.6796  0.2265
 1836SOL    MW4 7390   2.939   1.271   3.049  0.1318 -0.3592 -0.5481
 1837SOL     OW 7391   2.929   1.528   3.133 -0.0116  0.1546 -0.0085
 1837SOL    HW2 7392   2.933   1.543   3.227 -0.1739  0.1915 -0.0072
 1837SOL    HW3 7393   3.006   1.574   3.098 -0.4126  0.8602  0.0122
 1837SOL    MW4 7394   2.940   1.536   3.140 -0.0856  0.2526 -0.0052
 1838SOL     OW 7395   2.675   1.626   3.027  0.0367  0.5082  0.0185
 1838SOL    HW2 7396   2.748   1.575   3.063  0.0015  0.3101 -0.1855
 1838SOL    HW3 7397   2.676   1.708   3.075 -0.1111  0.1818  0.5889
 1838SOL    MW4 7398   2.685   1.630   3.038  0.0126  0.4392  0.0670
 1839SOL     OW 7399   2.710   1.906   3.157 -0.0419  0.2207  0.0220
 1839SOL    HW2 7400   2.719   1.906   3.252 -1.9027  1.0475  0.2271
 1839SOL    HW3 7401   2.784   1.958   3.125  0.1335  0.6197  1.0798
 1839SOL    MW4 7402   2.721   1.913   3.165 -0.2642  0.3825  0.1886
 1840SOL     OW 7403   2.902   2.067   3.051  0.0176  0.2972 -0.4459
 1840SOL    HW2 7404   2.884   2.152   3.090 -1.4773 -0.3878  0.3735
 1840SOL    HW3 7405   2.908   2.084   2.957 -0.4587  1.2629 -0.3010
 1840SOL    MW4 7406   2.901   2.080   3.044 -0.2425  0.3340 -0.3185
 1841SOL     OW 7407   2.876   2.337   3.153 -0.3292 -0.0044 -0.3262
 1841SOL    HW2 7408   2.961   2.367   3.122 -1.0244  0.2588 -2.0576
 1841SOL    HW3 7409   2.814   2.401   3.117 -1.2134  0.1621  1.4327
 1841SOL    MW4 7410   2.879   2.350   3.144 -0.5374  0.0525 -0.3226
 1842SOL     OW 7411   2.690   2.475   3.000  0.3219  0.5672 -0.9798
 1842SOL    HW2 7412   2.698   2.556   3.051  1.1351  0.6053 -1.1606
 1842SOL    HW3 7413   2.609   2.434   3.033  1.2445  0.1873  0.9139
 1842SOL    MW4 7414   2.680   2.480   3.011  0.5512  0.5219 -0.7536
 1843SOL     OW 7415   2.738   2.720   3.128  0.1937 -0.0399 -0.2024
 1843SOL    HW2 7416   2.726   2.728   3.223 -0.9760 -1.5646 -0.1869
 1843SOL    HW3 7417   2.661   2.763   3.090  1.1037  1.3561 -0.5018
 1843SOL    MW4 7418   2.726   2.726   3.136  0.1595 -0.0572 -0.2396
 1844SOL     OW 7419   2.961   2.822   3.003 -0.0755  0.0911  0.5282
 1844SOL    HW2 7420   3.041   2.780   3.036  0.9444  1.0922 -0.6308
 1844SOL    HW3 7421   2.890   2.776   3.048  1.0607 -2.0655  0.1747
 1844SOL    MW4 7422   2.962   2.810   3.014  0.2091 -0.0613  0.3288
 1845SOL     OW 7423   2.916   3.094   3.113 -0.2328  0.1235 -0.6751
 1845SOL    HW2 7424   2.846   3.120   3.053  1.0848  0.5166 -2.0600
 1845SOL    HW3 7425   2.934   3.002   3.091 -0.5807 -0.1092 -0.0273
 1845SOL    MW4 7426   2.909   3.085   3.102 -0.1047  0.1447 -0.7730
 1846SOL     OW 7427   2.702   3.208   2.948  0.1585  0.0425  0.4296
 1846SOL    HW2 7428   2.729   3.295   2.976  1.3657 -0.2921  0.3535
 1846SOL    HW3 7429   2.712   3.210   2.852 -1.8299  0.4856  0.2232
 1846SOL    MW4 7430   2.707   3.220   2.939  0.0553  0.0567  0.3924
 1847SOL     OW 7431   2.697   3.493   3.085 -0.2792 -0.0538  0.7088
 1847SOL    HW2 7432   2.702   3.503   3.180 -0.8893  1.7497  0.5759
 1847SOL    HW3 7433   2.776   3.536   3.053 -1.0561  1.1201  0.3149
 1847SOL    MW4 7434   2.708   3.500   3.094 -0.4623  0.3390  0.6394
 1848SOL     OW 7435   2.929   3.585   2.979  0.2693 -0.2951  0.4081
 1848SOL    HW2 7436   2.999   3.552   3.035  0.2362  0.2392  0.7640
 1848SOL    HW3 7437   2.926   3.679   2.997  0.6262 -0.0254 -0.9007
 1848SOL    MW4 7438   2.938   3.593   2.989  0.3121 -0.1891  0.2823
 1849SOL     OW 7439   2.913   3.854   3.062  0.0694  0.0465  0.5857
 1849SOL    HW2 7440   2.890   3.850   3.155  2.2073  1.2889  1.2159
 1849SOL    HW3 7441   2.857   3.922   3.026  1.0442  1.3918  1.5623
 1849SOL    MW4 7442   2.903   3.862   3.069  0.4799  0.3879  0.7977
 1850SOL     OW 7443   2.709   4.026   2.995  0.3344  0.0929  0.2486
 1850SOL    HW2 7444   2.696   4.113   3.033 -2.5809 -0.1233 -0.1406
 1850SOL    HW3 7445   2.721   4.042   2.902  0.7630  0.1530  0.3154
 1850SOL    MW4 7446   2.709   4.039   2.988  0.0064  0.0720  0.2060
 1851SOL     OW 7447   2.715   4.291   3.109  0.1481 -0.2771 -0.0512
 1851SOL    HW2 7448   2.699   4.297   3.203  0.2536  1.9694 -0.1339
 1851SOL    HW3 7449   2.635   4.327   3.069  0.6964  0.1736 -0.7610
 1851SOL    MW4 7450   2.702   4.297   3.116  0.2346  0.0792 -0.1557
 1852SOL     OW 7451   2.945   4.426   3.019 -0.0016  0.2127  0.0406
 1852SOL    HW2 7452   3.018   4.381   3.061  0.0202 -0.7876 -1.0474
 1852SOL    HW3 7453   2.869   4.370   3.037 -0.2998  0.6892  0.2565
 1852SOL    MW4 7454   2.944   4.412   3.027 -0.0381  0.1435 -0.0744
 1853SOL     OW 7455   3.393   4.652   3.140 -0.4121  0.2276 -0.2543
 1853SOL    HW2 7456   3.461   4.702   3.094  0.0887  0.0749  0.3007
 1853SOL    HW3 7457   3.395   4.566   3.099 -0.4466  0.3043 -0.4150
 1853SOL    MW4 7458   3.402   4.647   3.128 -0.3505  0.2179 -0.2024
 1854SOL     OW 7459   3.172   0.133   3.045  0.0077  0.4885  0.0998
 1854SOL    HW2 7460   3.177   0.227   3.062 -0.0534  0.4507  0.3399
 1854SOL    HW3 7461   3.248   0.096   3.090  0.8850  0.5918 -1.2712
 1854SOL    MW4 7462   3.182   0.140   3.053  0.1154  0.4971 -0.0494
 1855SOL     OW 7463   3.154   0.394   3.124  0.1657 -0.3349 -0.1585
 1855SOL    HW2 7464   3.228   0.453   3.105  0.1191 -0.6519 -1.3495
 1855SOL    HW3 7465   3.080   0.433   3.078 -0.7309  0.6498  2.0226
 1855SOL    MW4 7466   3.154   0.407   3.115  0.0410 -0.2468 -0.0279
 1856SOL     OW 7467   3.399   0.517   3.054 -0.7768  0.7499  0.2094
 1856SOL    HW2 7468   3.474   0.473   3.093 -0.6398  1.4576  0.7525
 1856SOL    HW3 7469   3.411   0.507   2.960 -0.1464  0.6322  0.3050
 1856SOL    MW4 7470   3.410   0.510   3.047 -0.6754  0.8277  0.2937
 1857SOL     OW 7471   3.422   0.793   3.134  0.0855 -0.0129  0.3036
 1857SOL    HW2 7472   3.437   0.796   3.228  2.4476  1.3715 -0.0748
 1857SOL    HW3 7473   3.411   0.701   3.113 -1.3179 -0.2634  2.0351
 1857SOL    MW4 7474   3.422   0.781   3.144  0.2120  0.1367  0.4823
 1858SOL     OW 7475   3.173   0.877   3.005 -0.0428  0.1184 -0.1390
 1858SOL    HW2 7476   3.249   0.846   3.055  0.2631 -1.3407 -1.4759
 1858SOL    HW3 7477   3.098   0.843   3.053  0.2003 -0.0237  0.1465
 1858SOL    MW4 7478   3.173   0.868   3.018  0.0298 -0.0929 -0.2780
 1859SOL     OW 7479   3.140   1.137   3.132  0.1586 -0.5475  0.5034
 1859SOL    HW2 7480   3.212   1.189   3.096 -0.7984  0.1210 -0.4963
 1859SOL    HW3 7481   3.148   1.052   3.089  1.2316 -0.9779  1.5175
 1859SOL    MW4 7482   3.151   1.133   3.121  0.1743 -0.5161  0.5054
 1860SOL     OW 7483   3.373   1.288   3.037 -0.3831  0.2064  0.5663
 1860SOL    HW2 7484   3.455   1.242   3.054 -0.3213 -0.2598 -0.8849
 1860SOL    HW3 7485   3.388   1.378   3.066  0.4457 -0.0122  0.8178
 1860SOL    MW4 7486   3.386   1.293   3.043 -0.2656  0.1160  0.4082
 1861SOL     OW 7487   3.358   1.556   3.133  0.0593  0.0640  0.7209
 1861SOL    HW2 7488   3.367   1.576   3.226  0.5046  0.5987  0.5673
 1861SOL    HW3 7489   3.439   1.590   3.094  0.0815 -0.5684  0.2105
 1861SOL    MW4 7490   3.370   1.563   3.140  0.1209  0.0511  0.6335
 1862SOL     OW 7491   3.139   1.669   3.018  0.1131  0.2858  0.2010
 1862SOL    HW2 7492   3.225   1.633   3.039  0.3564  0.5805 -0.2681
 1862SOL    HW3 7493   3.138   1.674   2.922 -0.4696  0.1776  0.2000
 1862SOL    MW4 7494   3.150   1.665   3.008  0.0682  0.3104  0.1390
 1863SOL     OW 7495   3.143   1.944   3.118 -0.8977  0.4304 -0.2456
 1863SOL    HW2 7496   3.141   1.853   3.089 -1.2487  0.2495  0.3261
 1863SOL    HW3 7497   3.060   1.981   3.086 -0.1053  0.9556 -1.7393
 1863SOL    MW4 7498   3.131   1.937   3.110 -0.8395  0.4759 -0.3672
 1864SOL     OW 7499   3.353   2.064   2.999 -0.1792  0.0033 -0.0446
 1864SOL    HW2 7500   3.427   2.017   3.038 -0.7812 -0.2131  0.8645
 1864SOL    HW3 7501   3.276   2.025   3.040 -0.7336  1.1512  0.0267
 1864SOL    MW4 7502   3.352   2.053   3.010 -0.3316  0.1261  0.0846
 1865SOL     OW 7503   3.336   2.308   3.127  0.1414 -0.1396 -0.0064
 1865SOL    HW2 7504   3.306   2.292   3.217  0.4206 -0.4727  0.0269
 1865SOL    HW3 7505   3.333   2.221   3.085  0.0222  0.0130 -0.3167
 1865SOL    MW4 7506   3.331   2.294   3.133  0.1624 -0.1631 -0.0432
 1866SOL     OW 7507   3.103   2.424   3.041  0.1776  0.3886 -0.4491
 1866SOL    HW2 7508   3.192   2.390   3.052  0.3838  1.0158 -0.1411
 1866SOL    HW3 7509   3.096   2.443   2.948  0.3534  0.3008 -0.4804
 1866SOL    MW4 7510   3.114   2.422   3.030  0.2284  0.4599 -0.4127
 1867SOL     OW 7511   3.167   2.691   3.137  0.0216 -0.0951  0.8232
 1867SOL    HW2 7512   3.139   2.702   3.228 -1.5558 -0.2958  0.3781
 1867SOL    HW3 7513   3.149   2.599   3.117  0.2118 -0.0090  0.2464
 1867SOL    MW4 7514   3.161   2.680   3.146 -0.1614 -0.1101  0.6883
 1868SOL     OW 7515   3.390   2.845   3.044 -0.2461 -0.1032  0.3967
 1868SOL    HW2 7516   3.389   2.927   3.094  0.3129  0.3445 -0.3263
 1868SOL    HW3 7517   3.314   2.797   3.076 -1.1927  1.1522  0.0799
 1868SOL    MW4 7518   3.380   2.850   3.055 -0.2973  0.1216  0.2596
 1869SOL     OW 7519   3.392   3.108   3.158  0.1233  0.3375 -0.0796
 1869SOL    HW2 7520   3.391   3.119   3.253 -0.9428  2.0915 -0.2792
 1869SOL    HW3 7521   3.315   3.156   3.127 -0.5943 -1.7853 -1.6823
 1869SOL    MW4 7522   3.382   3.116   3.166 -0.1121  0.2890 -0.3176
 1870SOL     OW 7523   3.155   3.219   3.072 -0.0729 -0.1155 -0.5148
 1870SOL    HW2 7524   3.073   3.172   3.085  1.3065 -1.8100  2.4862
 1870SOL    HW3 7525   3.168   3.219   2.977 -3.0900 -0.5528 -0.9645
 1870SOL    MW4 7526   3.146   3.213   3.061 -0.2890 -0.3970 -0.1781
 1871SOL     OW 7527   3.138   3.474   3.149 -0.0857 -0.1000 -0.2674
 1871SOL    HW2 7528   3.216   3.516   3.114  0.8429 -0.4297  1.3410
 1871SOL    HW3 7529   3.142   3.384   3.115  0.0895 -0.0344 -0.4224
 1871SOL    MW4 7530   3.149   3.468   3.140  0.0601 -0.1347 -0.0756
 1872SOL     OW 7531   3.369   3.575   3.021  0.4610  0.0081 -0.2316
 1872SOL    HW2 7532   3.452   3.546   3.059  0.7165  0.0537 -0.7395
 1872SOL    HW3 7533   3.365   3.668   3.039 -0.3568 -0.3385  1.3964
 1872SOL    MW4 7534   3.379   3.583   3.028  0.3870 -0.0315 -0.0837
 1873SOL     OW 7535   3.365   3.843   3.100  1.4711  0.0215 -0.4981
 1873SOL    HW2 7536   3.376   3.849   3.195  0.6939  1.0050 -0.4686
 1873SOL    HW3 7537   3.289   3.898   3.080  0.8563 -1.1655 -1.5396
 1873SOL    MW4 7538   3.356   3.851   3.110  1.2875 -0.0055 -0.6316
 1874SOL     OW 7539   3.140   4.014   3.027  0.3789  0.1020 -0.5001
 1874SOL    HW2 7540   3.058   3.965   3.037  0.6152 -0.1610  0.1292
 1874SOL    HW3 7541   3.165   4.000   2.936 -1.2033  1.6234 -1.1979
 1874SOL    MW4 7542   3.132   4.006   3.016  0.2010  0.2675 -0.5093
 1875SOL     OW 7543   3.167   4.273   3.117  0.3209  0.8091  0.2997
 1875SOL    HW2 7544   3.166   4.246   3.209  0.0569 -1.0062 -0.2019
 1875SOL    HW3 7545   3.149   4.192   3.069 -0.0095  1.8348 -1.3277
 1875SOL    MW4 7546   3.165   4.259   3.123  0.2425  0.7048  0.0186
 1876SOL     OW 7547   3.389   4.417   3.003  0.0850 -0.1885  0.5004
 1876SOL    HW2 7548   3.461   4.370   3.045 -0.2561 -0.1465  1.1309
 1876SOL    HW3 7549   3.310   4.368   3.028 -0.1661  0.1123  0.2994
 1876SOL    MW4 7550   3.388   4.404   3.012  0.0067 -0.1431  0.5569
 1877SOL     OW 7551   3.836   4.647   3.127 -0.1116 -0.4761  0.1189
 1877SOL    HW2 7552   3.834   4.558   3.092  0.0444 -0.2841 -0.3789
 1877SOL    HW3 7553   3.759   4.689   3.087  1.0589  0.2675 -1.3852
 1877SOL    MW4 7554   3.825   4.641   3.117  0.0634 -0.3524 -0.1452
 1878SOL     OW 7555   3.607   0.098   3.029  0.0655  0.4395 -0.4212
 1878SOL    HW2 7556   3.610   0.191   3.050 -1.5989  0.6464 -0.9647
 1878SOL    HW3 7557   3.588   0.095   2.935 -1.4814 -0.4133 -0.1086
 1878SOL    MW4 7558   3.605   0.110   3.019 -0.3581  0.3543 -0.4516
 1879SOL     OW 7559   3.627   0.357   3.129 -0.6777  0.3346  0.0397
 1879SOL    HW2 7560   3.623   0.370   3.223 -0.1299 -1.5949  0.3391
 1879SOL    HW3 7561   3.689   0.423   3.099  0.2756 -0.0084  1.2272
 1879SOL    MW4 7562   3.635   0.368   3.137 -0.4797  0.0347  0.2360
 1880SOL     OW 7563   3.833   0.535   3.016  0.2761  0.6823 -0.1009
 1880SOL    HW2 7564   3.907   0.485   3.050  0.1810  0.4171 -0.2871
 1880SOL    HW3 7565   3.845   0.623   3.053  0.2706  0.4446  0.4777
 1880SOL    MW4 7566   3.844   0.540   3.026  0.2630  0.6159 -0.0491
 1881SOL     OW 7567   3.851   0.782   3.138 -0.3120 -0.0200 -0.4286
 1881SOL    HW2 7568   3.846   0.784   3.234 -0.1527 -2.2937 -0.3425
 1881SOL    HW3 7569   3.932   0.829   3.117  1.2538 -2.1562  0.7391
 1881SOL    MW4 7570   3.861   0.789   3.148 -0.0844 -0.6018 -0.2632
 1882SOL     OW 7571   3.639   0.887   3.001 -0.1232 -0.0055 -0.2146
 1882SOL    HW2 7572   3.717   0.840   3.033  0.8909  0.8022 -1.4276
 1882SOL    HW3 7573   3.566   0.849   3.051  0.9481 -1.2982  0.4230
 1882SOL    MW4 7574   3.640   0.876   3.012  0.1521 -0.0695 -0.2909
 1883SOL     OW 7575   3.619   1.156   3.121  0.3450  0.0664  0.0528
 1883SOL    HW2 7576   3.703   1.186   3.088  0.3441  0.5061  0.4487
 1883SOL    HW3 7577   3.624   1.060   3.116  0.8851  0.0902  0.1170
 1883SOL    MW4 7578   3.631   1.147   3.116  0.4163  0.1277  0.1137
 1884SOL     OW 7579   3.849   1.302   3.039 -0.4427 -0.3046  0.4028
 1884SOL    HW2 7580   3.868   1.393   3.063  0.2126 -0.0709 -0.9330
 1884SOL    HW3 7581   3.837   1.305   2.944 -1.1180 -1.5069  0.4471
 1884SOL    MW4 7582   3.850   1.315   3.029 -0.4456 -0.4324  0.2327
 1885SOL     OW 7583   3.843   1.571   3.156  0.2916 -0.2492 -0.1341
 1885SOL    HW2 7584   3.820   1.568   3.248 -0.9846 -0.6900 -0.4498
 1885SOL    HW3 7585   3.761   1.590   3.111  0.8092 -0.4704 -1.2071
 1885SOL    MW4 7586   3.829   1.573   3.162  0.1915 -0.3365 -0.3173
 1886SOL     OW 7587   3.580   1.647   3.022  0.0343  0.1635  0.5535
 1886SOL    HW2 7588   3.591   1.736   3.054  0.9714  0.4742 -0.5855
 1886SOL    HW3 7589   3.587   1.655   2.927  0.3911 -1.1615  0.4590
 1886SOL    MW4 7590   3.583   1.660   3.014  0.2050  0.0298  0.3908
 1887SOL     OW 7591   3.569   1.914   3.111  0.7350 -0.3474  0.0717
 1887SOL    HW2 7592   3.562   1.917   3.206  0.1556 -0.7725  0.0439
 1887SOL    HW3 7593   3.650   1.960   3.092  1.8184 -1.8445  0.9104
 1887SOL    MW4 7594   3.579   1.920   3.121  0.8016 -0.6011  0.1788
 1888SOL     OW 7595   3.795   2.058   3.070 -0.1186  0.4109 -0.3015
 1888SOL    HW2 7596   3.800   2.152   3.090  3.1857  0.5954 -1.5873
 1888SOL    HW3 7597   3.783   2.055   2.975 -3.1525 -0.5054  0.0665
 1888SOL    MW4 7598   3.794   2.070   3.060 -0.0827  0.3142 -0.4225
 1889SOL     OW 7599   3.809   2.334   3.154  0.3890  0.0850  0.3747
 1889SOL    HW2 7600   3.791   2.338   3.248 -1.0998  0.2765  0.0939
 1889SOL    HW3 7601   3.735   2.380   3.114  1.1892  0.2932 -0.8685
 1889SOL    MW4 7602   3.797   2.341   3.161  0.2978  0.1376  0.1738
 1890SOL     OW 7603   3.581   2.451   3.060 -0.2765  0.1534 -0.3464
 1890SOL    HW2 7604   3.574   2.541   3.092 -0.4656  0.0585 -0.1203
 1890SOL    HW3 7605   3.522   2.401   3.116 -1.0866  0.0898 -1.2362
 1890SOL    MW4 7606   3.573   2.456   3.072 -0.4084  0.1323 -0.4339
 1891SOL     OW 7607   3.593   2.721   3.173 -0.3801  0.2024 -0.3653
 1891SOL    HW2 7608   3.666   2.765   3.131 -1.7546  1.3347 -1.6155
 1891SOL    HW3 7609   3.515   2.766   3.141 -1.6001 -0.4039  1.6147
 1891SOL    MW4 7610   3.592   2.733   3.163 -0.7224  0.2718 -0.2689
 1892SOL     OW 7611   3.822   2.861   3.055  0.0820 -0.1581  0.0216
 1892SOL    HW2 7612   3.852   2.951   3.058  1.3634 -0.5729 -0.0726
 1892SOL    HW3 7613   3.845   2.831   2.967 -0.1947 -0.6224  0.1069
 1892SOL    MW4 7614   3.829   2.869   3.044  0.2148 -0.2739  0.0205
 1893SOL     OW 7615   3.863   3.126   3.140  0.0022  0.0735  0.1813
 1893SOL    HW2 7616   3.933   3.185   3.112 -0.4865  0.8327  0.5686
 1893SOL    HW3 7617   3.782   3.172   3.121 -0.3948 -0.6319  0.1321
 1893SOL    MW4 7618   3.862   3.140   3.134 -0.1149  0.0806  0.2258
 1894SOL     OW 7619   3.628   3.235   3.067 -0.0505  0.1355  0.1463
 1894SOL    HW2 7620   3.557   3.176   3.093  2.0230 -2.3337  0.3226
 1894SOL    HW3 7621   3.641   3.217   2.974  0.6622  0.2517  0.2247
 1894SOL    MW4 7622   3.620   3.225   3.059  0.3171 -0.1752  0.1800
 1895SOL     OW 7623   3.609   3.497   3.131 -0.0383  0.0758  0.4220
 1895SOL    HW2 7624   3.686   3.532   3.086 -0.7168 -0.4113 -1.1528
 1895SOL    HW3 7625   3.620   3.402   3.124  0.5140 -0.0316  2.4577
 1895SOL    MW4 7626   3.621   3.489   3.124 -0.0548 -0.0026  0.4833
 1896SOL     OW 7627   3.833   3.629   3.059 -0.4770  0.0374 -0.0784
 1896SOL    HW2 7628   3.832   3.719   3.091 -0.9518 -0.4123  1.2210
 1896SOL    HW3 7629   3.813   3.636   2.966 -0.4761  1.2718  0.0063
 1896SOL    MW4 7630   3.830   3.641   3.051 -0.5398  0.1409  0.1042
 1897SOL     OW 7631   3.815   3.894   3.144 -0.0116 -0.1081  0.2132
 1897SOL    HW2 7632   3.798   3.887   3.239  0.4164  2.9694  0.5603
 1897SOL    HW3 7633   3.732   3.924   3.107  0.0099 -0.6845 -0.3099
 1897SOL    MW4 7634   3.802   3.897   3.152  0.0479  0.2217  0.1900
 1898SOL     OW 7635   3.591   3.987   3.018 -0.0961 -0.7877 -0.0520
 1898SOL    HW2 7636   3.516   3.929   3.021 -1.4488  0.9586  0.6482
 1898SOL    HW3 7637   3.613   3.994   2.925 -1.1003 -0.9378 -0.3025
 1898SOL    MW4 7638   3.584   3.980   3.006 -0.4072 -0.5772  0.0074
 1899SOL     OW 7639   3.594   4.262   3.093 -0.0034 -0.1647 -0.6396
 1899SOL    HW2 7640   3.680   4.300   3.074 -0.4482  0.1583 -2.0296
 1899SOL    HW3 7641   3.600   4.172   3.060  0.1210 -0.4420  0.1349
 1899SOL    MW4 7642   3.606   4.255   3.086 -0.0455 -0.1588 -0.7210
 1900SOL     OW 7643   3.839   4.388   3.037  0.3606  0.1237 -0.2374
 1900SOL    HW2 7644   3.918   4.352   3.076  1.0171  2.9374  1.2025
 1900SOL    HW3 7645   3.849   4.373   2.943  0.6114 -3.2531  0.2910
 1900SOL    MW4 7646   3.850   4.382   3.030  0.4807  0.0496  0.0222
 1901SOL     OW 7647   4.283   4.662   3.125  0.0270  0.0407  0.2452
 1901SOL    HW2 7648   4.286   4.656   3.220  1.0338 -0.1578  0.2074
 1901SOL    HW3 7649   4.280   4.571   3.095 -1.9753  0.1366  0.1277
 1901SOL    MW4 7650   4.283   4.649   3.134 -0.1044  0.0277  0.2248
 1902SOL     OW 7651   4.059   0.123   3.041  0.1170  0.0040  0.1156
 1902SOL    HW2 7652   4.137   0.082   3.078 -0.3175 -0.7675  0.1785
 1902SOL    HW3 7653   3.986   0.072   3.076 -0.5047  1.5999  1.2023
 1902SOL    MW4 7654   4.059   0.111   3.051 -0.0224  0.1128  0.2673
 1903SOL     OW 7655   4.041   0.383   3.133  0.0638 -0.1319  0.3145
 1903SOL    HW2 7656   4.120   0.426   3.102 -0.7906  1.3702  0.1629
 1903SOL    HW3 7657   4.047   0.294   3.100  1.4437  0.1144 -0.1214
 1903SOL    MW4 7658   4.052   0.377   3.125  0.1330  0.0988  0.2367
 1904SOL     OW 7659   4.262   0.539   3.038 -0.3575 -0.0436 -0.1150
 1904SOL    HW2 7660   4.274   0.626   3.076  0.5764 -0.5262  0.7196
 1904SOL    HW3 7661   4.258   0.554   2.944 -0.0814  0.8923  0.0193
 1904SOL    MW4 7662   4.263   0.552   3.031 -0.1974  0.0162  0.0126
 1905SOL     OW 7663   4.284   0.789   3.152  0.2403 -0.0108 -0.0796
 1905SOL    HW2 7664   4.212   0.834   3.109  0.9120  1.1370 -0.0054
 1905SOL    HW3 7665   4.363   0.826   3.113  0.8513  0.9548  2.0226
 1905SOL    MW4 7666   4.285   0.800   3.141  0.4096  0.2681  0.2074
 1906SOL     OW 7667   4.084   0.913   3.025  0.6974 -0.1360 -0.4338
 1906SOL    HW2 7668   4.097   0.999   3.064 -0.6521 -0.0091 -0.2564
 1906SOL    HW3 7669   4.058   0.931   2.934 -0.2343 -0.3401 -0.2105
 1906SOL    MW4 7670   4.082   0.926   3.018  0.3963 -0.1462 -0.3808
 1907SOL     OW 7671   4.079   1.162   3.138  0.2426  0.2303 -0.0965
 1907SOL    HW2 7672   4.075   1.164   3.233  0.3075 -1.4034 -0.0457
 1907SOL    HW3 7673   3.998   1.204   3.109  0.5885  1.4562  0.6504
 1907SOL    MW4 7674   4.068   1.168   3.147  0.2966  0.1764  0.0088
 1908SOL     OW 7675   4.290   1.317   3.008 -0.0285  0.1861 -0.0406
 1908SOL    HW2 7676   4.211   1.276   3.044  0.4826  0.0569  0.9329
 1908SOL    HW3 7677   4.277   1.313   2.913 -1.1413  0.0592  0.1061
 1908SOL    MW4 7678   4.277   1.311   3.000 -0.1073  0.1523  0.1073
 1909SOL     OW 7679   4.291   1.561   3.129  0.2616  0.3478  0.4336
 1909SOL    HW2 7680   4.218   1.612   3.093  0.2925 -0.5968 -0.9974
 1909SOL    HW3 7681   4.284   1.476   3.086  2.3341  0.3171  0.1310
 1909SOL    MW4 7682   4.281   1.557   3.119  0.5393  0.2192  0.2050
 1910SOL     OW 7683   4.057   1.730   3.054 -0.4694  0.0331 -0.4260
 1910SOL    HW2 7684   4.050   1.825   3.069  1.2833  0.2427 -0.8386
 1910SOL    HW3 7685   3.989   1.692   3.109 -1.0871  1.5274 -0.1310
 1910SOL    MW4 7686   4.047   1.738   3.063 -0.3200  0.2580 -0.4416
 1911SOL     OW 7687   4.063   1.999   3.133  0.6370 -0.0801 -0.4837
 1911SOL    HW2 7688   4.138   2.041   3.091 -0.2419  0.7293 -1.2540
 1911SOL    HW3 7689   3.986   2.042   3.095 -0.2128 -0.5447  0.6696
 1911SOL    MW4 7690   4.063   2.010   3.122  0.4091 -0.0346 -0.4330
 1912SOL     OW 7691   4.289   2.098   3.019  0.2309 -0.1250 -0.5126
 1912SOL    HW2 7692   4.279   2.185   3.058 -2.0958  0.3716 -2.0759
 1912SOL    HW3 7693   4.256   2.108   2.929 -0.0847 -2.6114 -0.7142
 1912SOL    MW4 7694   4.283   2.111   3.012 -0.1178 -0.3877 -0.7453
 1913SOL     OW 7695   4.245   2.350   3.140 -0.6278  0.2948  0.0037
 1913SOL    HW2 7696   4.169   2.394   3.102 -0.4618  0.0144 -0.6599
 1913SOL    HW3 7697   4.320   2.400   3.108 -0.3503 -1.2303 -1.8528
 1913SOL    MW4 7698   4.245   2.363   3.131 -0.5693  0.0567 -0.3293
 1914SOL     OW 7699   4.026   2.474   3.033 -0.6561  0.1924 -0.1795
 1914SOL    HW2 7700   4.031   2.560   3.075  0.6834 -0.0225  0.1277
 1914SOL    HW3 7701   3.964   2.425   3.087  0.2784  0.2531  0.9667
 1914SOL    MW4 7702   4.019   2.479   3.046 -0.3562  0.1721  0.0122
 1915SOL     OW 7703   4.041   2.736   3.151  0.2001  0.1355  0.4505
 1915SOL    HW2 7704   4.048   2.743   3.246  1.4689 -0.2103  0.3896
 1915SOL    HW3 7705   3.958   2.779   3.130 -0.2095 -0.0008  1.7308
 1915SOL    MW4 7706   4.031   2.742   3.160  0.3133  0.0715  0.6115
 1916SOL     OW 7707   4.300   2.846   3.065  0.0761  0.2694 -0.3009
 1916SOL    HW2 7708   4.215   2.806   3.083  0.3416  0.0083  0.3839
 1916SOL    HW3 7709   4.364   2.786   3.103  0.5707  0.4549 -0.8257
 1916SOL    MW4 7710   4.297   2.833   3.072  0.1760  0.2596 -0.2799
 1917SOL     OW 7711   4.304   3.101   3.150  0.2606 -0.2228 -0.1766
 1917SOL    HW2 7712   4.242   3.149   3.096 -0.1910  0.9972  1.3719
 1917SOL    HW3 7713   4.302   3.012   3.116  0.8152  0.7395 -2.8468
 1917SOL    MW4 7714   4.296   3.096   3.139  0.2747  0.0651 -0.3247
 1918SOL     OW 7715   4.086   3.239   3.027  0.0033 -0.1188  0.2818
 1918SOL    HW2 7716   4.101   3.331   3.047  0.8389 -0.2579  0.3126
 1918SOL    HW3 7717   4.098   3.233   2.932 -0.3352 -0.1465  0.2388
 1918SOL    MW4 7718   4.090   3.250   3.017  0.0691 -0.1407  0.2804
 1919SOL     OW 7719   4.090   3.508   3.121  0.5023  0.1332  0.0451
 1919SOL    HW2 7720   4.093   3.495   3.216  0.6281 -3.0606 -0.3506
 1919SOL    HW3 7721   4.004   3.546   3.104 -0.1266 -0.6825  1.3141
 1919SOL    MW4 7722   4.079   3.511   3.131  0.4358 -0.3955  0.1607
 1920SOL     OW 7723   4.324   3.643   3.047 -0.3729 -0.1671 -0.2269
 1920SOL    HW2 7724   4.321   3.730   3.087 -1.5879 -0.6874  0.8153
 1920SOL    HW3 7725   4.244   3.599   3.076  0.2609 -1.6670 -0.6819
 1920SOL    MW4 7726   4.313   3.649   3.056 -0.4497 -0.4337 -0.1493
 1921SOL     OW 7727   4.290   3.895   3.147 -0.1330  0.1738 -0.2528
 1921SOL    HW2 7728   4.205   3.915   3.107 -1.6931 -1.6340  2.0591
 1921SOL    HW3 7729   4.352   3.950   3.099 -2.4377  0.7703 -2.6833
 1921SOL    MW4 7730   4.287   3.905   3.135 -0.6433  0.0143 -0.2685
 1922SOL     OW 7731   4.048   3.985   3.024  0.5869  0.3108 -0.7822
 1922SOL    HW2 7732   4.047   4.079   3.041  0.2135  0.3076 -0.7869
 1922SOL    HW3 7733   3.979   3.950   3.079 -0.5869  0.2964 -2.2363
 1922SOL    MW4 7734   4.039   3.993   3.033  0.3824  0.3083 -0.9749
 1923SOL     OW 7735   4.069   4.262   3.133 -0.2587 -0.7474 -0.2377
 1923SOL    HW2 7736   4.066   4.263   3.229 -0.2353 -0.4449 -0.2386
 1923SOL    HW3 7737   4.154   4.300   3.111 -0.7655  0.3245 -0.3946
 1923SOL    MW4 7738   4.080   4.267   3.143 -0.3223 -0.5660 -0.2584
 1924SOL     OW 7739   4.295   4.410   3.032  0.0584  0.1522  0.3330
 1924SOL    HW2 7740   4.385   4.382   3.052  1.3891  4.5524  1.0362
 1924SOL    HW3 7741   4.285   4.392   2.938  1.7155 -0.2333  0.2027
 1924SOL    MW4 7742   4.306   4.404   3.022  0.4525  0.6824  0.4086
 1925SOL     OW 7743   0.241   4.661   3.415 -0.0311 -0.2748 -0.0067
 1925SOL    HW2 7744   0.331   4.685   3.438  0.2481 -0.1884 -1.1271
 1925SOL    HW3 7745   0.235   4.568   3.435  0.8053 -0.6412 -1.3552
 1925SOL    MW4 7746   0.252   4.652   3.421  0.1161 -0.3117 -0.3326
 1926SOL     OW 7747   0.015   0.142   3.498 -0.2595  0.1127 -0.5179
 1926SOL    HW2 7748   0.027   0.217   3.440 -2.1144  0.6767 -0.2022
 1926SOL    HW3 7749   0.081   0.079   3.471  0.6278  1.4469 -1.4799
 1926SOL    MW4 7750   0.025   0.144   3.487 -0.3872  0.3632 -0.6030
 1927SOL     OW 7751   0.004   0.386   3.374 -0.2960 -0.2510 -0.1617
 1927SOL    HW2 7752  -0.066   0.435   3.416  0.3397 -0.8760  1.6576
 1927SOL    HW3 7753   0.084   0.433   3.397  0.2033 -1.4544  0.6500
 1927SOL    MW4 7754   0.006   0.399   3.382 -0.1463 -0.4922  0.1855
 1928SOL     OW 7755   0.234   0.512   3.488 -0.0287 -0.4577 -0.1863
 1928SOL    HW2 7756   0.318   0.481   3.454  1.4802  0.8366  2.2203
 1928SOL    HW3 7757   0.224   0.599   3.450  0.0301 -0.3423  0.0680
 1928SOL    MW4 7758   0.244   0.519   3.478  0.1782 -0.2717  0.1647
 1929SOL     OW 7759   0.207   0.753   3.373 -0.0327 -0.2997 -0.1503
 1929SOL    HW2 7760   0.293   0.785   3.401 -0.5734  0.0273  1.1700
 1929SOL    HW3 7761   0.146   0.820   3.404 -0.6195  0.2676 -2.4540
 1929SOL    MW4 7762   0.210   0.766   3.381 -0.1815 -0.1817 -0.2801
 1930SOL     OW 7763   0.028   0.908   3.515 -0.4047  0.0971 -0.1402
 1930SOL    HW2 7764   0.030   0.906   3.611 -0.7453  0.0475 -0.1355
 1930SOL    HW3 7765   0.008   0.999   3.493 -2.5528 -0.3547 -0.1325
 1930SOL    MW4 7766   0.026   0.920   3.525 -0.7330  0.0309 -0.1388
 1931SOL     OW 7767   4.444   1.144   3.417  0.0796 -0.3742 -0.6324
 1931SOL    HW2 7768   4.515   1.198   3.451 -1.5746  1.6998 -0.4092
 1931SOL    HW3 7769   4.452   1.150   3.322 -0.8240  1.2751 -0.6183
 1931SOL    MW4 7770   4.455   1.152   3.409 -0.2580  0.1171 -0.6011
 1932SOL     OW 7771   0.188   1.260   3.541 -0.3558  0.0004 -0.1251
 1932SOL    HW2 7772   0.248   1.206   3.489 -1.2910  0.0178 -1.2198
 1932SOL    HW3 7773   0.198   1.348   3.506  0.2038  0.3138  0.8029
 1932SOL    MW4 7774   0.198   1.265   3.530 -0.4054  0.0440 -0.1471
 1933SOL     OW 7775   0.190   1.522   3.448 -0.2096  0.1004  0.1048
 1933SOL    HW2 7776   0.272   1.558   3.480 -0.1795  0.7017 -0.6322
 1933SOL    HW3 7777   0.196   1.529   3.353 -0.1902 -1.8937 -0.0491
 1933SOL    MW4 7778   0.202   1.528   3.440 -0.2031 -0.0833 -0.0126
 1934SOL     OW 7779   4.469   1.674   3.510 -0.5338 -0.2369 -0.1722
 1934SOL    HW2 7780   4.392   1.631   3.471 -0.3174 -2.4607  1.7540
 1934SOL    HW3 7781   4.543   1.619   3.486 -0.0558 -0.2283  1.2434
 1934SOL    MW4 7782   4.468   1.661   3.502 -0.4422 -0.5292  0.2687
 1935SOL     OW 7783   4.490   1.954   3.396 -0.0701 -0.1100 -0.0492
 1935SOL    HW2 7784   4.475   1.865   3.429 -0.1820  0.1766  0.6813
 1935SOL    HW3 7785   4.509   1.942   3.303 -0.3280 -0.8783 -0.0066
 1935SOL    MW4 7786   4.491   1.940   3.388 -0.1187 -0.1736  0.0527
 1936SOL     OW 7787   0.206   2.116   3.527 -0.1846  0.2889  0.0122
 1936SOL    HW2 7788   0.132   2.064   3.495  1.2365 -1.2813 -0.7816
 1936SOL    HW3 7789   0.205   2.102   3.622  0.5903 -1.7885 -0.2575
 1936SOL    MW4 7790   0.196   2.107   3.535  0.1052 -0.1924 -0.1280
 1937SOL     OW 7791   0.252   2.370   3.386  0.2867  0.6641  0.2881
 1937SOL    HW2 7792   0.238   2.289   3.434 -0.4319 -0.0327 -1.0715
 1937SOL    HW3 7793   0.193   2.433   3.428 -1.0423 -0.1807 -0.2669
 1937SOL    MW4 7794   0.242   2.368   3.398  0.0165  0.4609  0.0353
 1938SOL     OW 7795   0.004   2.487   3.520  0.1188  0.3165  0.7336
 1938SOL    HW2 7796  -0.002   2.495   3.615 -1.6791 -0.4051  0.6885
 1938SOL    HW3 7797  -0.070   2.432   3.496 -0.6473  2.2227 -1.3186
 1938SOL    MW4 7798  -0.006   2.481   3.530 -0.2193  0.4725  0.4570
 1939SOL     OW 7799   4.470   2.750   3.428 -0.2796  0.3462  0.0124
 1939SOL    HW2 7800   4.534   2.804   3.474 -1.7028  0.8543  1.4593
 1939SOL    HW3 7801   4.481   2.662   3.464  1.1704 -0.0846 -1.4271
 1939SOL    MW4 7802   4.480   2.746   3.438 -0.2756  0.3567  0.0136
 1940SOL     OW 7803   0.209   2.852   3.530  0.4251  0.0608 -0.2029
 1940SOL    HW2 7804   0.289   2.802   3.511  0.5529 -0.0545  0.6014
 1940SOL    HW3 7805   0.217   2.932   3.478  0.4997 -0.4861 -1.0431
 1940SOL    MW4 7806   0.221   2.856   3.521  0.4518 -0.0262 -0.2079
 1941SOL     OW 7807   0.205   3.084   3.406  0.3740  0.0929 -0.0445
 1941SOL    HW2 7808   0.128   3.139   3.420 -1.0553 -1.8043 -0.2909
 1941SOL    HW3 7809   0.226   3.095   3.313  0.6420  0.8948  0.1046
 1941SOL    MW4 7810   0.198   3.092   3.396  0.2208 -0.0515 -0.0572
 1942SOL     OW 7811   4.457   3.213   3.502  0.5167 -0.3406 -0.0183
 1942SOL    HW2 7812   4.370   3.199   3.465  1.0725 -1.2853 -1.0048
 1942SOL    HW3 7813   4.478   3.304   3.480 -0.1188 -0.1881  0.0029
 1942SOL    MW4 7814   4.448   3.223   3.494  0.5059 -0.4451 -0.1457
 1943SOL     OW 7815   4.476   3.467   3.411 -0.1065  0.0452 -0.0004
 1943SOL    HW2 7816   4.397   3.511   3.444 -1.0628 -1.1375 -0.6602
 1943SOL    HW3 7817   4.479   3.489   3.318  1.0893  1.1663  0.2915
 1943SOL    MW4 7818   4.466   3.476   3.403 -0.0753  0.0374 -0.0489
 1944SOL     OW 7819   0.242   3.598   3.528  0.0657  0.5372  0.2201
 1944SOL    HW2 7820   0.239   3.603   3.624  1.4868 -0.7758  0.3507
 1944SOL    HW3 7821   0.167   3.544   3.504  0.5310 -0.3126  0.6915
 1944SOL    MW4 7822   0.231   3.592   3.537  0.3146  0.2520  0.2995
 1945SOL     OW 7823   0.230   3.853   3.371 -0.0129  0.1529 -0.2001
 1945SOL    HW2 7824   0.163   3.897   3.423 -1.2721 -1.2404 -0.5943
 1945SOL    HW3 7825   0.234   3.764   3.407  0.2727 -0.3341 -1.3984
 1945SOL    MW4 7826   0.222   3.847   3.383 -0.1414 -0.0951 -0.4101
 1946SOL     OW 7827   0.024   3.995   3.483  0.9728 -0.1317  0.3659
 1946SOL    HW2 7828   0.022   3.993   3.579  0.7686 -0.7438  0.3546
 1946SOL    HW3 7829  -0.003   4.084   3.460  2.5996  0.5147  0.9161
 1946SOL    MW4 7830   0.020   4.006   3.493  1.1597 -0.1268  0.4368
 1947SOL     OW 7831   0.001   4.267   3.422 -0.6414 -0.0855 -0.4010
 1947SOL    HW2 7832  -0.068   4.334   3.427 -0.5159  0.1494 -1.5971
 1947SOL    HW3 7833   0.077   4.308   3.462 -1.0095 -0.0885  0.2977
 1947SOL    MW4 7834   0.002   4.281   3.428 -0.6734 -0.0548 -0.4666
 1948SOL     OW 7835   0.223   4.404   3.488 -0.1335 -0.4613 -0.8109
 1948SOL    HW2 7836   0.239   4.410   3.582 -0.0463  0.0150 -0.8526
 1948SOL    HW3 7837   0.301   4.362   3.452 -0.0485 -0.3941 -0.7033
 1948SOL    MW4 7838   0.236   4.399   3.495 -0.1108 -0.3896 -0.8023
 1949SOL     OW 7839   0.701   4.663   3.373  0.0771 -0.2136 -0.2106
 1949SOL    HW2 7840   0.768   4.723   3.405 -0.0166 -0.6678  0.8655
 1949SOL    HW3 7841   0.715   4.660   3.278  1.6536 -0.4045  0.0093
 1949SOL    MW4 7842   0.712   4.671   3.365  0.2727 -0.2990 -0.0398
 1950SOL     OW 7843   0.496   0.125   3.478  0.0079 -0.4420  0.5046
 1950SOL    HW2 7844   0.517   0.122   3.572 -0.0087  0.2098  0.5304
 1950SOL    HW3 7845   0.575   0.090   3.435  0.6744  0.8149  0.6743
 1950SOL    MW4 7846   0.509   0.120   3.485  0.0937 -0.1902  0.5302
 1951SOL     OW 7847   0.473   0.397   3.376 -0.6169  0.2213 -0.2466
 1951SOL    HW2 7848   0.563   0.425   3.392 -0.5794  1.1350 -1.9775
 1951SOL    HW3 7849   0.467   0.311   3.419  0.6606  0.7511  1.0468
 1951SOL    MW4 7850   0.484   0.389   3.384 -0.4434  0.4117 -0.3045
 1952SOL     OW 7851   0.715   0.497   3.469 -0.2307 -0.5049  0.0173
 1952SOL    HW2 7852   0.720   0.503   3.564  1.0683  0.4439 -0.0863
 1952SOL    HW3 7853   0.797   0.454   3.444  0.0764  0.5134 -0.7536
 1952SOL    MW4 7854   0.727   0.492   3.478 -0.0188 -0.2454 -0.0980
 1953SOL     OW 7855   0.676   0.752   3.363 -0.1467 -0.3596 -0.6218
 1953SOL    HW2 7856   0.597   0.779   3.409 -0.1041  1.7187 -1.6900
 1953SOL    HW3 7857   0.694   0.664   3.395 -1.7406 -0.0711  1.1457
 1953SOL    MW4 7858   0.668   0.744   3.373 -0.3514 -0.0473 -0.5295
 1954SOL     OW 7859   0.461   0.871   3.474 -0.0714 -0.1335 -0.3607
 1954SOL    HW2 7860   0.471   0.852   3.568  0.7514 -1.6521 -0.7318
 1954SOL    HW3 7861   0.460   0.966   3.468  2.7455  0.0119  0.9095
 1954SOL    MW4 7862   0.462   0.881   3.486  0.4089 -0.3147 -0.2420
 1955SOL     OW 7863   0.402   1.142   3.408 -0.2053  0.0832 -0.4282
 1955SOL    HW2 7864   0.483   1.178   3.445  1.2856 -4.1612  0.7482
 1955SOL    HW3 7865   0.412   1.152   3.313  0.3297  2.2647 -0.1619
 1955SOL    MW4 7866   0.414   1.148   3.400  0.0620 -0.1892 -0.2379
 1956SOL     OW 7867   0.642   1.277   3.481  0.0566  0.2106 -0.1966
 1956SOL    HW2 7868   0.648   1.366   3.447  1.3300 -0.0799 -0.7470
 1956SOL    HW3 7869   0.723   1.234   3.452 -0.3864 -1.0234  0.3500
 1956SOL    MW4 7870   0.654   1.283   3.473  0.1661  0.0094 -0.1972
 1957SOL     OW 7871   0.628   1.568   3.383 -0.0941  0.4320 -0.1342
 1957SOL    HW2 7872   0.708   1.583   3.435 -0.5453 -1.2060  1.0578
 1957SOL    HW3 7873   0.560   1.615   3.431 -0.3954 -0.5854  0.4454
 1957SOL    MW4 7874   0.630   1.576   3.396 -0.1934  0.0817  0.0997
 1958SOL     OW 7875   0.418   1.648   3.548 -0.1911 -0.4026 -0.3871
 1958SOL    HW2 7876   0.444   1.659   3.640  1.0722 -0.4743 -0.7213
 1958SOL    HW3 7877   0.394   1.735   3.519 -2.8391 -0.7438  0.6534
 1958SOL    MW4 7878   0.419   1.661   3.557 -0.3738 -0.4572 -0.2940
 1959SOL     OW 7879   0.393   1.916   3.473 -0.2523  0.3854 -0.0025
 1959SOL    HW2 7880   0.329   1.977   3.510 -0.0909 -0.5251  1.8520
 1959SOL    HW3 7881   0.414   1.952   3.387 -2.5970  1.1614 -0.2678
 1959SOL    MW4 7882   0.388   1.929   3.467 -0.5403  0.3676  0.2074
 1960SOL     OW 7883   0.661   2.016   3.524  0.1339  0.1242  0.0477
 1960SOL    HW2 7884   0.675   2.010   3.618 -1.5336  1.2693  0.3929
 1960SOL    HW3 7885   0.568   1.999   3.512  0.1977  0.6665 -1.3123
 1960SOL    MW4 7886   0.651   2.013   3.535 -0.0777  0.3469 -0.0861
 1961SOL     OW 7887   0.678   2.283   3.420  0.2631 -0.8142 -0.2440
 1961SOL    HW2 7888   0.749   2.342   3.444 -0.8428  0.3767  0.1746
 1961SOL    HW3 7889   0.701   2.200   3.462  0.3454  0.1480  1.6727
 1961SOL    MW4 7890   0.690   2.279   3.429  0.1281 -0.5302  0.0641
 1962SOL     OW 7891   0.476   2.434   3.526 -0.1431  0.2098 -0.1185
 1962SOL    HW2 7892   0.551   2.383   3.496  0.2862  1.4702 -1.2214
 1962SOL    HW3 7893   0.404   2.405   3.471 -0.2841 -0.3737  0.3609
 1962SOL    MW4 7894   0.476   2.423   3.515 -0.1050  0.2990 -0.2007
 1963SOL     OW 7895   0.437   2.694   3.451  0.1462  0.4250 -0.0672
 1963SOL    HW2 7896   0.461   2.605   3.475 -0.7251  0.4904  1.0875
 1963SOL    HW3 7897   0.444   2.696   3.356  2.3812 -0.2190  0.0571
 1963SOL    MW4 7898   0.441   2.683   3.442  0.3261  0.3486  0.1013
 1964SOL     OW 7899   0.672   2.830   3.535 -0.1019  0.2209  0.4804
 1964SOL    HW2 7900   0.737   2.799   3.471  0.4279  0.6261  0.8143
 1964SOL    HW3 7901   0.594   2.778   3.517  0.9567 -1.7749  1.4221
 1964SOL    MW4 7902   0.671   2.819   3.524  0.1076  0.0110  0.6485
 1965SOL     OW 7903   0.650   3.076   3.408 -0.6015  0.0641 -0.0639
 1965SOL    HW2 7904   0.574   3.113   3.452 -1.4777 -1.6289 -0.1284
 1965SOL    HW3 7905   0.665   2.992   3.452  0.5542 -0.1262 -0.7865
 1965SOL    MW4 7906   0.642   3.070   3.420 -0.5646 -0.1843 -0.1678
 1966SOL     OW 7907   0.433   3.194   3.532 -0.5747  0.0620  0.0053
 1966SOL    HW2 7908   0.432   3.191   3.628  1.8193 -1.4148  0.0267
 1966SOL    HW3 7909   0.351   3.152   3.506 -1.4835  0.9487  1.4014
 1966SOL    MW4 7910   0.422   3.188   3.541 -0.3787 -0.0160  0.1924
 1967SOL     OW 7911   0.471   3.465   3.428  0.0880 -0.1939 -0.2949
 1967SOL    HW2 7912   0.457   3.373   3.450  0.6729 -0.0677  0.6391
 1967SOL    HW3 7913   0.394   3.510   3.462 -0.0304 -0.2977 -0.4299
 1967SOL    MW4 7914   0.459   3.459   3.436  0.1495 -0.1910 -0.1895
 1968SOL     OW 7915   0.701   3.610   3.491  0.1875 -0.3934 -0.3407
 1968SOL    HW2 7916   0.782   3.570   3.459 -0.0529  0.5861 -2.2302
 1968SOL    HW3 7917   0.632   3.552   3.460 -0.0603  0.6606 -1.7882
 1968SOL    MW4 7918   0.703   3.597   3.483  0.1231 -0.1252 -0.7811
 1969SOL     OW 7919   0.715   3.859   3.381  0.2123  0.1446 -0.6046
 1969SOL    HW2 7920   0.631   3.885   3.418 -1.0759 -1.0417 -2.6044
 1969SOL    HW3 7921   0.726   3.768   3.408  0.4226  0.0335 -1.0515
 1969SOL    MW4 7922   0.705   3.850   3.389  0.0701 -0.0267 -0.9274
 1970SOL     OW 7923   0.471   3.938   3.473  0.0861  0.1326  0.2798
 1970SOL    HW2 7924   0.485   4.028   3.442 -0.7362  0.1000 -0.2076
 1970SOL    HW3 7925   0.383   3.915   3.441 -0.0104 -0.5790  1.0320
 1970SOL    MW4 7926   0.461   3.947   3.464 -0.0351  0.0343  0.3147
 1971SOL     OW 7927   0.492   4.207   3.390 -0.0358 -0.3055 -0.2728
 1971SOL    HW2 7928   0.561   4.271   3.405  0.2412 -0.6808  0.0657
 1971SOL    HW3 7929   0.486   4.200   3.294  0.5248 -0.4132 -0.2991
 1971SOL    MW4 7930   0.500   4.215   3.379  0.0747 -0.3691 -0.2317
 1972SOL     OW 7931   0.679   4.388   3.479 -0.1858  0.0460  0.3943
 1972SOL    HW2 7932   0.753   4.337   3.448  0.2723 -0.9570  3.0426
 1972SOL    HW3 7933   0.691   4.474   3.439  2.8604  0.1450  1.4037
 1972SOL    MW4 7934   0.690   4.393   3.470  0.2765 -0.0734  0.8769
 1973SOL     OW 7935   1.168   4.643   3.343  0.1811  0.1197  0.3801
 1973SOL    HW2 7936   1.232   4.705   3.378  0.7444 -0.7508  0.9080
 1973SOL    HW3 7937   1.171   4.655   3.248  1.9396 -0.7077  0.3231
 1973SOL    MW4 7938   1.177   4.653   3.335  0.4874 -0.1044  0.4418
 1974SOL     OW 7939   0.940   0.133   3.443  0.3511  0.1148 -0.1906
 1974SOL    HW2 7940   0.941   0.122   3.538  0.4839  1.7158  0.0163
 1974SOL    HW3 7941   1.018   0.088   3.412  0.8107  0.3866  0.5697
 1974SOL    MW4 7942   0.950   0.126   3.451  0.4293  0.3619 -0.0629
 1975SOL     OW 7943   0.964   0.399   3.401 -0.0967  0.0044 -0.1365
 1975SOL    HW2 7944   1.033   0.435   3.458 -0.8585  0.6507  0.4021
 1975SOL    HW3 7945   0.966   0.305   3.417  0.7640  0.0035 -0.2380
 1975SOL    MW4 7946   0.974   0.392   3.411 -0.0837  0.0896 -0.0787
 1976SOL     OW 7947   1.164   0.569   3.511  0.6492 -0.1597 -0.4588
 1976SOL    HW2 7948   1.168   0.589   3.604  0.0999 -1.6788 -0.0923
 1976SOL    HW3 7949   1.146   0.653   3.469  1.1640  0.5846  0.7734
 1976SOL    MW4 7950   1.162   0.583   3.518  0.6447 -0.2619 -0.2477
 1977SOL     OW 7951   1.091   0.816   3.381 -0.2644  0.0244 -0.0979
 1977SOL    HW2 7952   1.163   0.862   3.423 -0.4363 -1.9461  2.5359
 1977SOL    HW3 7953   1.012   0.851   3.423 -0.7809  1.1395 -1.9345
 1977SOL    MW4 7954   1.090   0.827   3.392 -0.3551 -0.0885  0.0072
 1978SOL     OW 7955   0.851   0.906   3.508 -0.5028 -0.2128  0.0094
 1978SOL    HW2 7956   0.846   0.995   3.474 -0.0145 -0.0162  0.4557
 1978SOL    HW3 7957   0.781   0.859   3.462 -0.0571  0.1324 -1.0415
 1978SOL    MW4 7958   0.841   0.911   3.497 -0.3796 -0.1414 -0.0706
 1979SOL     OW 7959   0.888   1.159   3.408  0.2373 -0.3252  0.0162
 1979SOL    HW2 7960   0.957   1.211   3.448  0.8835 -1.5987  0.5907
 1979SOL    HW3 7961   0.904   1.165   3.314 -0.1422  1.1077  0.0372
 1979SOL    MW4 7962   0.899   1.167   3.401  0.2725 -0.3041  0.0949
 1980SOL     OW 7963   1.100   1.312   3.538  0.0498 -0.1294 -0.4010
 1980SOL    HW2 7964   1.105   1.406   3.522 -0.3716 -0.1697 -0.7839
 1980SOL    HW3 7965   1.182   1.277   3.504 -0.4478 -0.0928 -1.6431
 1980SOL    MW4 7966   1.111   1.320   3.532 -0.0715 -0.1297 -0.6151
 1981SOL     OW 7967   1.090   1.559   3.397  0.1130  0.0153 -0.1665
 1981SOL    HW2 7968   1.169   1.599   3.432  1.2462 -2.0714 -0.2881
 1981SOL    HW3 7969   1.105   1.553   3.303  0.3311 -1.4394 -0.0581
 1981SOL    MW4 7970   1.102   1.563   3.389  0.2912 -0.4520 -0.1683
 1982SOL     OW 7971   0.858   1.654   3.510  0.0078  0.1762  0.3090
 1982SOL    HW2 7972   0.864   1.737   3.462  1.3842 -0.1039 -0.0183
 1982SOL    HW3 7973   0.936   1.606   3.484 -0.4977 -0.9971  0.9416
 1982SOL    MW4 7974   0.869   1.659   3.500  0.1227 -0.0156  0.3493
 1983SOL     OW 7975   0.896   1.928   3.393 -0.2085  1.2670 -0.2991
 1983SOL    HW2 7976   0.973   1.979   3.419  0.1900  0.7824 -0.5179
 1983SOL    HW3 7977   0.824   1.967   3.442  0.2204  1.5519  0.1144
 1983SOL    MW4 7978   0.897   1.940   3.403 -0.0994  1.2405 -0.2735
 1984SOL     OW 7979   1.089   2.087   3.487 -0.2690  0.2809 -0.1960
 1984SOL    HW2 7980   1.175   2.058   3.457  0.6373  0.9632  1.6477
 1984SOL    HW3 7981   1.092   2.183   3.479 -1.0984  0.2665 -0.7216
 1984SOL    MW4 7982   1.101   2.096   3.482 -0.2588  0.3686 -0.0222
 1985SOL     OW 7983   1.097   2.363   3.406 -0.2880  0.3898 -0.0037
 1985SOL    HW2 7984   1.185   2.398   3.417  0.2809 -1.0045  0.0210
 1985SOL    HW3 7985   1.096   2.328   3.316 -0.5786 -0.2335  0.2359
 1985SOL    MW4 7986   1.109   2.363   3.395 -0.2515  0.1233  0.0315
 1986SOL     OW 7987   0.876   2.488   3.508 -0.3041  0.2347  0.3953
 1986SOL    HW2 7988   0.870   2.487   3.603 -0.7154  1.6723  0.3899
 1986SOL    HW3 7989   0.965   2.457   3.490  0.2863  1.3785  1.3023
 1986SOL    MW4 7990   0.887   2.484   3.518 -0.2805  0.5753  0.5143
 1987SOL     OW 7991   0.865   2.734   3.373 -0.1237 -0.2832  0.4065
 1987SOL    HW2 7992   0.939   2.776   3.418  0.0617  0.0090 -0.1614
 1987SOL    HW3 7993   0.858   2.648   3.413  1.2341 -0.7279 -0.2946
 1987SOL    MW4 7994   0.874   2.728   3.384  0.0800 -0.3033  0.2391
 1988SOL     OW 7995   1.097   2.855   3.487 -0.0250 -0.2289 -0.0588
 1988SOL    HW2 7996   1.109   2.853   3.582  0.0464 -0.3209 -0.0693
 1988SOL    HW3 7997   1.159   2.789   3.454 -0.5932 -0.7411 -0.1073
 1988SOL    MW4 7998   1.107   2.846   3.496 -0.0906 -0.3085 -0.0663
 1989SOL     OW 7999   1.079   3.122   3.366  0.1781  0.2039  0.2336
 1989SOL    HW2 8000   1.065   3.032   3.395 -0.0519  0.2616  0.3002
 1989SOL    HW3 8001   1.096   3.114   3.272  1.4959 -0.0420  0.4760
 1989SOL    MW4 8002   1.079   3.109   3.357  0.3217  0.1791  0.2744
 1990SOL     OW 8003   0.858   3.257   3.469  0.0075 -0.1303  0.3604
 1990SOL    HW2 8004   0.932   3.210   3.432 -0.6966 -0.6695 -0.3693
 1990SOL    HW3 8005   0.781   3.209   3.439 -0.6237  0.0646  1.5997
 1990SOL    MW4 8006   0.858   3.245   3.460 -0.1687 -0.1757  0.4275
 1991SOL     OW 8007   0.951   3.516   3.392  0.1714 -0.0086  0.0284
 1991SOL    HW2 8008   0.917   3.431   3.421  0.2203 -0.0843 -0.1368
 1991SOL    HW3 8009   0.946   3.512   3.297 -1.2769  0.7522  0.0464
 1991SOL    MW4 8010   0.946   3.504   3.384 -0.0133  0.0818  0.0091
 1992SOL     OW 8011   1.166   3.619   3.517 -0.0175  0.0579 -0.1621
 1992SOL    HW2 8012   1.158   3.606   3.612  0.8029 -0.7120 -0.1942
 1992SOL    HW3 8013   1.095   3.568   3.479  0.7133 -1.0527 -0.0544
 1992SOL    MW4 8014   1.156   3.611   3.525  0.1873 -0.1903 -0.1519
 1993SOL     OW 8015   1.130   3.852   3.385 -0.2406 -0.2334 -0.2804
 1993SOL    HW2 8016   1.215   3.893   3.403  0.4115 -1.2414 -1.0193
 1993SOL    HW3 8017   1.126   3.778   3.446 -0.6338 -0.1348 -0.1868
 1993SOL    MW4 8018   1.141   3.848   3.396 -0.2064 -0.3531 -0.3655
 1994SOL     OW 8019   0.926   4.002   3.479  0.1832 -0.1096  0.1583
 1994SOL    HW2 8020   1.002   3.951   3.450 -0.1962 -0.9867  0.7096
 1994SOL    HW3 8021   0.850   3.956   3.444 -0.1451  0.2527  0.3814
 1994SOL    MW4 8022   0.926   3.989   3.471  0.0899 -0.1774  0.2604
 1995SOL     OW 8023   1.134   4.394   3.478 -0.2549 -0.0014 -0.1320
 1995SOL    HW2 8024   1.056   4.363   3.432  0.4084 -0.2601 -1.1119
 1995SOL    HW3 8025   1.146   4.484   3.446 -0.0392 -0.0335 -0.1433
 1995SOL    MW4 8026   1.126   4.402   3.468 -0.1390 -0.0401 -0.2627
 1996SOL     OW 8027   0.912   4.259   3.376 -0.1976  0.0802  0.1266
 1996SOL    HW2 8028   0.926   4.167   3.398 -0.7521  0.0439  0.3383
 1996SOL    HW3 8029   0.939   4.267   3.285 -0.1627 -0.2959  0.1061
 1996SOL    MW4 8030   0.917   4.248   3.367 -0.2662  0.0257  0.1516
 1997SOL     OW 8031   1.581   4.622   3.369 -0.6865 -0.0748  0.2047
 1997SOL    HW2 8032   1.551   4.537   3.399  0.0818 -0.4940 -0.1949
 1997SOL    HW3 8033   1.509   4.682   3.387 -1.2014 -0.8024  0.5356
 1997SOL    MW4 8034   1.568   4.619   3.375 -0.6531 -0.2255  0.1957
 1998SOL     OW 8035   1.364   0.133   3.460  0.0051 -0.2014 -0.2971
 1998SOL    HW2 8036   1.348   0.126   3.554  1.5918 -0.5186 -0.0355
 1998SOL    HW3 8037   1.343   0.223   3.438  0.1334  0.0183  0.4745
 1998SOL    MW4 8038   1.359   0.144   3.469  0.2314 -0.2142 -0.1607
 1999SOL     OW 8039   1.336   0.405   3.382 -0.3246 -0.4985 -0.0996
 1999SOL    HW2 8040   1.421   0.444   3.403 -0.4764 -1.7014  3.1838
 1999SOL    HW3 8041   1.273   0.456   3.433 -1.4653 -0.1791 -1.8041
 1999SOL    MW4 8042   1.339   0.417   3.392 -0.4953 -0.6150  0.1085
 2000SOL     OW 8043   1.577   0.489   3.471 -0.1470 -0.4961 -0.2556
 2000SOL    HW2 8044   1.582   0.485   3.567 -1.7570 -1.7514 -0.1906
 2000SOL    HW3 8045   1.659   0.450   3.441 -0.1495 -1.1977  0.6241
 2000SOL    MW4 8046   1.588   0.483   3.480 -0.3597 -0.7543 -0.1309
 2001SOL     OW 8047   1.540   0.743   3.390  0.3868  0.6828 -0.3113
 2001SOL    HW2 8048   1.470   0.795   3.428 -0.5772  0.0626 -1.1868
 2001SOL    HW3 8049   1.539   0.661   3.440  2.7344  1.9377  1.9037
 2001SOL    MW4 8050   1.531   0.739   3.401  0.5695  0.7666 -0.1345
 2002SOL     OW 8051   1.333   0.918   3.478  0.0793 -0.1188 -0.1999
 2002SOL    HW2 8052   1.338   0.928   3.573  1.7575 -0.7556 -0.2008
 2002SOL    HW3 8053   1.317   1.007   3.445 -2.9576 -0.2440  0.7889
 2002SOL    MW4 8054   1.332   0.931   3.486 -0.0999 -0.2193 -0.0696
 2003SOL     OW 8055   1.308   1.207   3.381 -0.2805 -0.5905  0.0522
 2003SOL    HW2 8056   1.327   1.204   3.287 -0.4021 -0.0871  0.0078
 2003SOL    HW3 8057   1.395   1.214   3.422 -0.2645 -0.0361 -0.0646
 2003SOL    MW4 8058   1.322   1.208   3.374 -0.2944 -0.4508  0.0308
 2004SOL     OW 8059   1.563   1.254   3.490  0.4710 -0.0412 -0.6003
 2004SOL    HW2 8060   1.563   1.264   3.585  0.0875  3.2774 -0.8893
 2004SOL    HW3 8061   1.653   1.232   3.467  1.0157  1.1609  0.3668
 2004SOL    MW4 8062   1.575   1.252   3.499  0.4923  0.5554 -0.5107
 2005SOL     OW 8063   1.571   1.543   3.389 -0.0800  0.1444 -0.1224
 2005SOL    HW2 8064   1.570   1.447   3.398 -0.1166  0.1021 -0.5957
 2005SOL    HW3 8065   1.589   1.559   3.297  0.4173  0.6020  0.0474
 2005SOL    MW4 8066   1.573   1.532   3.378 -0.0191  0.1993 -0.1624
 2006SOL     OW 8067   1.334   1.670   3.482 -0.0106  0.0666 -0.2917
 2006SOL    HW2 8068   1.337   1.676   3.578  0.2646 -0.9365 -0.2405
 2006SOL    HW3 8069   1.416   1.629   3.458  0.1186  0.7367 -1.0032
 2006SOL    MW4 8070   1.345   1.665   3.492  0.0428  0.0225 -0.3786
 2007SOL     OW 8071   1.312   1.964   3.370  0.3829  0.2800 -0.4366
 2007SOL    HW2 8072   1.393   1.993   3.411  0.1007  0.0185  0.3076
 2007SOL    HW3 8073   1.300   1.874   3.400 -0.3340  0.4156 -0.2919
 2007SOL    MW4 8074   1.321   1.956   3.379  0.2509  0.2633 -0.3195
 2008SOL     OW 8075   1.540   2.046   3.491  0.2172  0.2908  0.0580
 2008SOL    HW2 8076   1.625   2.007   3.468  0.3663 -0.0672  1.1690
 2008SOL    HW3 8077   1.551   2.140   3.472  0.8800  0.2537  0.2336
 2008SOL    MW4 8078   1.553   2.054   3.486  0.3244  0.2387  0.2277
 2009SOL     OW 8079   1.590   2.299   3.386 -0.4828  0.1234 -0.0191
 2009SOL    HW2 8080   1.513   2.352   3.405 -0.7075 -0.4427  0.6679
 2009SOL    HW3 8081   1.595   2.297   3.290  0.2636  2.4315 -0.0705
 2009SOL    MW4 8082   1.581   2.306   3.376 -0.4140  0.3536  0.0648
 2010SOL     OW 8083   1.365   2.444   3.451 -0.0105  0.6866  0.4362
 2010SOL    HW2 8084   1.353   2.440   3.546  0.0729  1.5549  0.4847
 2010SOL    HW3 8085   1.373   2.537   3.432 -2.8804  0.7532 -0.7695
 2010SOL    MW4 8086   1.364   2.456   3.461 -0.3781  0.8097  0.2832
 2011SOL     OW 8087   1.321   2.720   3.391 -0.3323 -0.0792  0.3064
 2011SOL    HW2 8088   1.403   2.759   3.422 -0.5813 -0.4554  1.4615
 2011SOL    HW3 8089   1.332   2.713   3.296 -0.1687  2.5496  0.0868
 2011SOL    MW4 8090   1.333   2.724   3.382 -0.3434  0.2179  0.4296
 2012SOL     OW 8091   1.774   2.680   3.348  0.0305  0.0069  0.1473
 2012SOL    HW2 8092   1.789   2.602   3.401 -0.0489 -0.0378  0.1036
 2012SOL    HW3 8093   1.693   2.718   3.385 -0.6806 -0.6646 -0.7120
 2012SOL    MW4 8094   1.765   2.675   3.360 -0.0737 -0.0875  0.0279
 2013SOL     OW 8095   1.549   3.080   3.387 -0.1700 -0.1634  0.1538
 2013SOL    HW2 8096   1.629   3.133   3.396 -0.0204 -0.4173  0.3381
 2013SOL    HW3 8097   1.480   3.135   3.423 -0.0695  0.0352  0.0481
 2013SOL    MW4 8098   1.551   3.094   3.393 -0.1371 -0.1707  0.1640
 2014SOL     OW 8099   1.321   3.245   3.439  0.0609 -0.0972 -0.7246
 2014SOL    HW2 8100   1.319   3.221   3.532  1.2121 -0.8663 -0.8859
 2014SOL    HW3 8101   1.242   3.206   3.402 -0.9656  1.1382  0.1464
 2014SOL    MW4 8102   1.310   3.237   3.446  0.0774 -0.0358 -0.6311
 2015SOL     OW 8103   1.338   3.499   3.344  0.3147  0.0677  0.3741
 2015SOL    HW2 8104   1.338   3.406   3.367  0.3091 -0.7865 -2.7884
 2015SOL    HW3 8105   1.273   3.538   3.401 -1.1138 -2.2521  0.3937
 2015SOL    MW4 8106   1.330   3.492   3.354  0.1254 -0.3512 -0.0405
 2016SOL     OW 8107   1.584   3.613   3.446 -0.2205  0.1484  0.0229
 2016SOL    HW2 8108   1.571   3.618   3.541  0.2139 -1.0772  0.1565
 2016SOL    HW3 8109   1.498   3.586   3.412 -0.1081 -0.3876  0.1632
 2016SOL    MW4 8110   1.571   3.610   3.454 -0.1482 -0.0837  0.0594
 2017SOL     OW 8111   1.588   3.881   3.362 -1.0043  0.2545 -0.5725
 2017SOL    HW2 8112   1.574   3.789   3.386 -0.4840  0.1668 -0.5951
 2017SOL    HW3 8113   1.592   3.881   3.266 -2.2406  0.4835 -0.6326
 2017SOL    MW4 8114   1.586   3.869   3.352 -1.0988  0.2732 -0.5834
 2018SOL     OW 8115   1.351   3.986   3.496  0.1849  0.1366  0.3416
 2018SOL    HW2 8116   1.341   4.072   3.455  0.5464 -0.0705 -0.1879
 2018SOL    HW3 8117   1.423   3.945   3.448 -1.5019 -1.3688 -0.9433
 2018SOL    MW4 8118   1.360   3.992   3.484  0.0100 -0.0894  0.1023
 2019SOL     OW 8119   1.346   4.229   3.379 -0.2694 -0.3496  0.0041
 2019SOL    HW2 8120   1.283   4.297   3.403  1.9872  1.6332  0.5168
 2019SOL    HW3 8121   1.325   4.209   3.288 -0.9311  1.0942 -0.1814
 2019SOL    MW4 8122   1.335   4.235   3.370 -0.0590  0.1020  0.0472
 2020SOL     OW 8123   1.577   4.354   3.457 -0.0898 -0.2905  0.4959
 2020SOL    HW2 8124   1.657   4.321   3.418 -0.6028  0.3155 -1.1178
 2020SOL    HW3 8125   1.507   4.299   3.420 -0.4282 -0.7866  1.8468
 2020SOL    MW4 8126   1.578   4.343   3.447 -0.2022 -0.2761  0.4613
 2021SOL     OW 8127   2.018   4.623   3.412  0.3085 -0.0047 -0.0747
 2021SOL    HW2 8128   2.097   4.677   3.421 -0.6567  1.2200  1.0662
 2021SOL    HW3 8129   1.945   4.683   3.425 -0.8450 -1.0723 -1.4058
 2021SOL    MW4 8130   2.019   4.638   3.415  0.0291  0.0157 -0.0999
 2022SOL     OW 8131   1.803   0.123   3.438 -0.0545  0.1981  0.1066
 2022SOL    HW2 8132   1.809   0.117   3.534 -0.6998 -0.0102  0.1415
 2022SOL    HW3 8133   1.722   0.075   3.417 -0.0314  0.4366 -0.5191
 2022SOL    MW4 8134   1.793   0.116   3.448 -0.1366  0.2021  0.0286
 2023SOL     OW 8135   1.790   0.369   3.361  0.5492  0.3356 -0.2045
 2023SOL    HW2 8136   1.795   0.279   3.391  0.9714  0.5683  0.4342
 2023SOL    HW3 8137   1.812   0.365   3.268  0.5759 -0.2116 -0.1761
 2023SOL    MW4 8138   1.793   0.357   3.353  0.6084  0.2941 -0.1163
 2024SOL     OW 8139   2.034   0.465   3.488 -0.6425  0.8296 -0.6914
 2024SOL    HW2 8140   2.042   0.557   3.460  0.5876  0.5148 -1.4277
 2024SOL    HW3 8141   1.952   0.435   3.447  0.1313  0.9458 -2.3631
 2024SOL    MW4 8142   2.024   0.473   3.479 -0.3779  0.8034 -1.0090
 2025SOL     OW 8143   2.010   0.733   3.403 -0.5993  0.6487 -0.3279
 2025SOL    HW2 8144   2.079   0.785   3.445 -0.8530  1.1810 -0.5594
 2025SOL    HW3 8145   2.017   0.754   3.310  1.0595 -1.8155 -0.8035
 2025SOL    MW4 8146   2.020   0.743   3.396 -0.4139  0.3938 -0.4210
 2026SOL     OW 8147   1.781   0.858   3.504  0.1265  0.2244 -0.1218
 2026SOL    HW2 8148   1.851   0.807   3.463  0.3135  0.1492  0.2781
 2026SOL    HW3 8149   1.701   0.826   3.463  0.4208  1.0855 -1.3545
 2026SOL    MW4 8150   1.780   0.847   3.493  0.1900  0.3281 -0.2320
 2027SOL     OW 8151   1.802   1.124   3.428  0.0475  0.0306  0.5344
 2027SOL    HW2 8152   1.883   1.165   3.460  0.9446 -2.0027  0.9720
 2027SOL    HW3 8153   1.802   1.038   3.469 -1.8712 -0.3574 -0.2478
 2027SOL    MW4 8154   1.813   1.118   3.438 -0.0873 -0.2890  0.4888
 2028SOL     OW 8155   2.039   1.257   3.493 -0.1865  0.4455 -0.2447
 2028SOL    HW2 8156   2.024   1.269   3.587  1.0756  1.9998 -0.2176
 2028SOL    HW3 8157   2.037   1.346   3.457 -0.6989 -0.1445 -1.7065
 2028SOL    MW4 8158   2.037   1.271   3.501 -0.0873  0.5728 -0.4342
 2029SOL     OW 8159   2.016   1.516   3.351  0.3492 -0.1239  0.0574
 2029SOL    HW2 8160   2.100   1.534   3.394 -0.3268  0.0720  1.2840
 2029SOL    HW3 8161   1.958   1.586   3.378 -0.6837 -1.1201  0.4757
 2029SOL    MW4 8162   2.020   1.527   3.360  0.1237 -0.2295  0.2744
 2030SOL     OW 8163   1.797   1.682   3.483 -0.5302 -0.5202 -0.7152
 2030SOL    HW2 8164   1.781   1.771   3.453  1.0000  0.3023  0.8721
 2030SOL    HW3 8165   1.724   1.632   3.447 -0.8533  1.1612 -2.4904
 2030SOL    MW4 8166   1.785   1.687   3.474 -0.3709 -0.1899 -0.7401
 2031SOL     OW 8167   1.792   1.943   3.390  0.3574  0.2666  0.6393
 2031SOL    HW2 8168   1.869   1.965   3.443  0.1897 -0.9574  1.4180
 2031SOL    HW3 8169   1.824   1.946   3.299  0.9845  1.0442  0.8764
 2031SOL    MW4 8170   1.807   1.946   3.385  0.4179  0.2077  0.7732
 2032SOL     OW 8171   1.998   2.034   3.536 -0.0274  0.2532 -0.1819
 2032SOL    HW2 8172   2.085   1.994   3.528 -0.0055  0.0231  1.0453
 2032SOL    HW3 8173   2.006   2.118   3.491  0.2268 -0.6560 -1.8620
 2032SOL    MW4 8174   2.011   2.040   3.529  0.0091  0.1025 -0.2418
 2033SOL     OW 8175   2.050   2.248   3.384  0.6442 -0.1708 -0.2127
 2033SOL    HW2 8176   2.111   2.317   3.411 -1.0369  0.8144  1.1862
 2033SOL    HW3 8177   2.040   2.261   3.289 -0.3158  2.0906  0.1572
 2033SOL    MW4 8178   2.056   2.259   3.375  0.2959  0.2573  0.0207
 2034SOL     OW 8179   1.811   2.423   3.486  0.1266  0.3148  0.5278
 2034SOL    HW2 8180   1.883   2.367   3.456  0.1475  0.1444  0.9015
 2034SOL    HW3 8181   1.732   2.381   3.452  0.2383  0.8021 -0.3576
 2034SOL    MW4 8182   1.810   2.410   3.477  0.1440  0.3569  0.4604
 2035SOL     OW 8183   1.979   2.835   3.481  0.2501  0.0103 -0.0306
 2035SOL    HW2 8184   1.986   2.921   3.440  0.7469  0.5549  1.1717
 2035SOL    HW3 8185   1.913   2.789   3.430  0.2633  0.9675 -0.9223
 2035SOL    MW4 8186   1.971   2.841   3.469  0.3175  0.2084  0.0105
 2036SOL     OW 8187   1.947   2.823   3.765  0.0168 -0.0141 -0.3299
 2036SOL    HW2 8188   1.962   2.909   3.803 -0.3837 -0.0267 -0.1337
 2036SOL    HW3 8189   1.953   2.837   3.670 -0.7200  0.3691 -0.3258
 2036SOL    MW4 8190   1.950   2.836   3.757 -0.1332  0.0348 -0.3035
 2037SOL     OW 8191   2.019   3.095   3.351  0.1796  0.1602 -0.0957
 2037SOL    HW2 8192   2.087   3.133   3.406  0.7543  1.6342 -1.7925
 2037SOL    HW3 8193   1.938   3.136   3.380  0.3368  0.1818  0.3102
 2037SOL    MW4 8194   2.017   3.105   3.362  0.2763  0.3572 -0.2658
 2038SOL     OW 8195   1.769   3.228   3.442  0.2743 -0.2864  0.1199
 2038SOL    HW2 8196   1.780   3.230   3.537  2.4157  0.3318 -0.1189
 2038SOL    HW3 8197   1.776   3.319   3.415 -1.7369 -0.3106 -0.4965
 2038SOL    MW4 8198   1.772   3.240   3.451  0.2915 -0.2081  0.0074
 2039SOL     OW 8199   1.807   3.471   3.343  0.1358  0.1819 -0.2103
 2039SOL    HW2 8200   1.738   3.522   3.384 -0.0166  0.3963 -0.7247
 2039SOL    HW3 8201   1.812   3.505   3.254  1.0343  0.3007 -0.1230
 2039SOL    MW4 8202   1.799   3.482   3.337  0.2341  0.2258 -0.2666
 2040SOL     OW 8203   2.035   3.593   3.475  0.1639 -0.4848 -0.2676
 2040SOL    HW2 8204   2.107   3.537   3.448  1.2177  1.2698 -1.1925
 2040SOL    HW3 8205   1.956   3.545   3.450  1.0504 -1.5607 -1.0000
 2040SOL    MW4 8206   2.034   3.580   3.468  0.4201 -0.3953 -0.4861
 2041SOL     OW 8207   1.838   3.954   3.465 -0.1743 -0.3202  0.6846
 2041SOL    HW2 8208   1.816   3.969   3.557 -0.1131  0.0407  0.6406
 2041SOL    HW3 8209   1.758   3.918   3.427  0.1495 -1.5430  1.1331
 2041SOL    MW4 8210   1.824   3.951   3.472 -0.1234 -0.4339  0.7379
 2042SOL     OW 8211   1.778   3.937   3.752 -0.0436  0.1275  0.3569
 2042SOL    HW2 8212   1.855   3.902   3.798  0.1418  0.2339  0.1324
 2042SOL    HW3 8213   1.703   3.901   3.799  0.1370  0.9474  1.2917
 2042SOL    MW4 8214   1.778   3.928   3.764  0.0045  0.2496  0.4504
 2043SOL     OW 8215   1.802   4.219   3.376  0.6825 -0.0413 -0.2720
 2043SOL    HW2 8216   1.805   4.127   3.404 -1.3711 -0.0310  0.0245
 2043SOL    HW3 8217   1.797   4.215   3.280 -2.0248 -0.3427 -0.1598
 2043SOL    MW4 8218   1.802   4.206   3.367  0.0545 -0.0792 -0.2182
 2044SOL     OW 8219   2.022   4.351   3.488 -0.0370  0.0827 -0.0211
 2044SOL    HW2 8220   1.952   4.315   3.433 -0.6741  1.2634 -0.0035
 2044SOL    HW3 8221   2.021   4.445   3.470  1.8819  0.0478 -0.3721
 2044SOL    MW4 8222   2.012   4.359   3.478  0.1321  0.2337 -0.0653
 2045SOL     OW 8223   2.492   4.639   3.402  0.0350 -0.0106  0.2766
 2045SOL    HW2 8224   2.470   4.551   3.433 -0.2842 -0.4003 -1.0423
 2045SOL    HW3 8225   2.476   4.637   3.308  0.5768  1.2952  0.1391
 2045SOL    MW4 8226   2.487   4.627   3.394  0.0641  0.1097  0.0844
 2046SOL     OW 8227   2.241   0.135   3.471  0.0280 -0.2005  0.4183
 2046SOL    HW2 8228   2.262   0.220   3.430  1.7349  0.0832  1.8197
 2046SOL    HW3 8229   2.318   0.081   3.453  0.2472 -0.4783  2.1075
 2046SOL    MW4 8230   2.254   0.139   3.463  0.2820 -0.1997  0.8264
 2047SOL     OW 8231   2.258   0.370   3.342 -0.0623 -0.3948  0.4308
 2047SOL    HW2 8232   2.329   0.413   3.389 -0.5246 -0.0163  0.7798
 2047SOL    HW3 8233   2.178   0.409   3.377 -0.4273 -0.4315 -0.3420
 2047SOL    MW4 8234   2.257   0.381   3.353 -0.1714 -0.3497  0.3748
 2048SOL     OW 8235   2.474   0.505   3.496  0.3571  0.0611 -0.5910
 2048SOL    HW2 8236   2.560   0.465   3.481 -0.2459 -0.8529 -1.6599
 2048SOL    HW3 8237   2.481   0.590   3.452  0.6514 -0.0942 -0.8559
 2048SOL    MW4 8238   2.486   0.511   3.488  0.3164 -0.0800 -0.7668
 2049SOL     OW 8239   2.445   0.761   3.386 -0.0904  0.2599 -0.3289
 2049SOL    HW2 8240   2.523   0.812   3.406  1.6467 -1.7024 -1.8990
 2049SOL    HW3 8241   2.450   0.743   3.292 -2.2454 -0.2048 -0.3925
 2049SOL    MW4 8242   2.456   0.765   3.376 -0.1457 -0.0603 -0.5445
 2050SOL     OW 8243   2.224   0.893   3.496 -0.0295 -0.4302  0.0278
 2050SOL    HW2 8244   2.291   0.838   3.456 -0.2311 -0.7311  0.1003
 2050SOL    HW3 8245   2.236   0.979   3.456  0.1306 -0.5871 -0.2588
 2050SOL    MW4 8246   2.235   0.897   3.486 -0.0348 -0.4906 -0.0005
 2051SOL     OW 8247   2.265   1.138   3.369  0.0185 -0.6187  0.4620
 2051SOL    HW2 8248   2.338   1.189   3.405  0.1208 -1.7155  1.8606
 2051SOL    HW3 8249   2.188   1.173   3.414 -0.3199  0.4966 -0.9674
 2051SOL    MW4 8250   2.264   1.150   3.380 -0.0124 -0.6163  0.4580
 2052SOL     OW 8251   2.462   1.283   3.500 -0.0686  0.6899 -0.3608
 2052SOL    HW2 8252   2.473   1.289   3.595 -1.4456 -1.3859 -0.0400
 2052SOL    HW3 8253   2.538   1.232   3.471  0.4983  1.5550 -0.4372
 2052SOL    MW4 8254   2.474   1.277   3.509 -0.1752  0.5301 -0.3283
 2053SOL     OW 8255   2.496   1.541   3.389 -0.2500 -0.3958 -0.9678
 2053SOL    HW2 8256   2.498   1.451   3.422  1.1206 -0.6736 -1.7572
 2053SOL    HW3 8257   2.469   1.533   3.298 -2.0962  0.1920 -0.4944
 2053SOL    MW4 8258   2.493   1.528   3.382 -0.3123 -0.3548 -1.0097
 2054SOL     OW 8259   2.235   1.640   3.479 -0.0803 -0.0967 -0.4362
 2054SOL    HW2 8260   2.230   1.652   3.574 -0.2722 -0.4887 -0.3959
 2054SOL    HW3 8261   2.322   1.604   3.463 -0.1256 -0.2258 -0.3888
 2054SOL    MW4 8262   2.246   1.637   3.489 -0.1118 -0.1655 -0.4244
 2055SOL     OW 8263   2.236   1.922   3.435 -0.3364 -0.0625 -0.0540
 2055SOL    HW2 8264   2.251   1.829   3.449  1.0947  0.1781  0.0516
 2055SOL    HW3 8265   2.234   1.931   3.339 -1.1735 -0.3098 -0.0596
 2055SOL    MW4 8266   2.238   1.911   3.424 -0.2582 -0.0635 -0.0408
 2056SOL     OW 8267   2.464   2.067   3.521  0.1131  0.0662  0.8276
 2056SOL    HW2 8268   2.452   2.068   3.615 -1.3674  0.4830  0.6431
 2056SOL    HW3 8269   2.392   2.014   3.487 -0.7186  1.8008 -0.2298
 2056SOL    MW4 8270   2.453   2.060   3.529 -0.1919  0.3500  0.6638
 2057SOL     OW 8271   2.455   2.322   3.392  0.0631  0.2156 -0.0534
 2057SOL    HW2 8272   2.535   2.366   3.420  0.0268  0.4946 -0.3824
 2057SOL    HW3 8273   2.451   2.242   3.445  1.0479 -0.2707 -0.7086
 2057SOL    MW4 8274   2.465   2.317   3.403  0.1884  0.1881 -0.1833
 2058SOL     OW 8275   2.211   2.464   3.466  0.1488 -0.0182 -0.4680
 2058SOL    HW2 8276   2.209   2.559   3.468 -0.8342 -0.0637  1.1686
 2058SOL    HW3 8277   2.303   2.442   3.447  0.6149  1.2330  0.3211
 2058SOL    MW4 8278   2.223   2.474   3.463  0.0806  0.1411 -0.1478
 2059SOL     OW 8279   2.239   2.726   3.426 -0.1089 -0.3061  0.2914
 2059SOL    HW2 8280   2.146   2.746   3.433  0.1378  0.5431  1.1442
 2059SOL    HW3 8281   2.256   2.722   3.332 -1.2368 -1.5717  0.1207
 2059SOL    MW4 8282   2.229   2.728   3.415 -0.2251 -0.3612  0.3815
 2060SOL     OW 8283   2.478   2.855   3.519 -0.2458  0.1513 -0.3048
 2060SOL    HW2 8284   2.396   2.811   3.494 -0.7900  1.1779 -0.3432
 2060SOL    HW3 8285   2.473   2.941   3.477  1.2006 -0.0607 -0.9247
 2060SOL    MW4 8286   2.467   2.860   3.510 -0.1266  0.2589 -0.3917
 2061SOL     OW 8287   2.457   3.108   3.383  0.2132 -0.0090 -0.0674
 2061SOL    HW2 8288   2.532   3.160   3.411  0.7110 -0.5392 -0.4068
 2061SOL    HW3 8289   2.460   3.111   3.287  0.1390 -0.5028 -0.0866
 2061SOL    MW4 8290   2.467   3.115   3.374  0.2689 -0.1440 -0.1149
 2062SOL     OW 8291   2.251   3.237   3.499 -0.2486  0.1399 -0.0096
 2062SOL    HW2 8292   2.261   3.220   3.592 -1.6573  1.7085  0.4587
 2062SOL    HW3 8293   2.321   3.187   3.457  0.1836 -0.8394  1.8516
 2062SOL    MW4 8294   2.261   3.228   3.506 -0.3774  0.2177  0.2978
 2063SOL     OW 8295   2.279   3.492   3.396 -0.5548 -0.2941 -0.3109
 2063SOL    HW2 8296   2.292   3.400   3.419 -0.0730 -0.3699 -0.8727
 2063SOL    HW3 8297   2.267   3.492   3.301 -0.2024  0.2609 -0.3615
 2063SOL    MW4 8298   2.279   3.480   3.386 -0.4449 -0.2310 -0.3920
 2064SOL     OW 8299   2.468   3.879   3.367  0.0796 -0.1152 -0.0545
 2064SOL    HW2 8300   2.536   3.933   3.406 -0.7690  0.6689  0.3732
 2064SOL    HW3 8301   2.387   3.907   3.412 -0.1983 -2.6096  1.0999
 2064SOL    MW4 8302   2.466   3.890   3.378 -0.0689 -0.3407  0.1543
 2065SOL     OW 8303   2.251   3.974   3.494  0.1870 -0.2241 -0.0679
 2065SOL    HW2 8304   2.256   4.059   3.451  2.4138  0.1544  0.9080
 2065SOL    HW3 8305   2.176   3.931   3.452 -0.0759  1.6343 -1.5738
 2065SOL    MW4 8306   2.241   3.979   3.483  0.4461  0.0710 -0.1378
 2066SOL     OW 8307   2.044   3.840   3.348 -0.2743  0.1778 -0.3073
 2066SOL    HW2 8308   1.971   3.878   3.397  1.1842  0.9621  1.3515
 2066SOL    HW3 8309   2.052   3.751   3.381  0.7240  0.7147  0.9707
 2066SOL    MW4 8310   2.036   3.834   3.359  0.0501  0.3524  0.0801
 2067SOL     OW 8311   2.246   4.221   3.400 -0.2769  0.1165  0.0990
 2067SOL    HW2 8312   2.176   4.279   3.429  1.2615  1.7176  0.6925
 2067SOL    HW3 8313   2.251   4.234   3.305 -1.4611 -0.7992 -0.1023
 2067SOL    MW4 8314   2.238   4.230   3.391 -0.2301  0.2069  0.1509
 2068SOL     OW 8315   2.459   4.385   3.505 -0.3699  0.2615 -0.0284
 2068SOL    HW2 8316   2.456   4.408   3.598 -2.1702 -0.3367  0.0847
 2068SOL    HW3 8317   2.384   4.326   3.492  0.1577 -0.0695 -1.7508
 2068SOL    MW4 8318   2.449   4.380   3.515 -0.5376  0.1388 -0.2410
 2069SOL     OW 8319   2.967   4.665   3.369  0.1241  0.0399 -0.1193
 2069SOL    HW2 8320   2.890   4.704   3.411  0.3956  0.1386  0.2942
 2069SOL    HW3 8321   2.950   4.672   3.275 -0.4605 -0.1243 -0.0223
 2069SOL    MW4 8322   2.955   4.671   3.362  0.0827  0.0313 -0.0520
 2070SOL     OW 8323   2.735   0.081   3.489 -0.2555  0.4510 -0.1160
 2070SOL    HW2 8324   2.649   0.045   3.467 -1.1098  2.1645  0.2779
 2070SOL    HW3 8325   2.737   0.081   3.585  0.7548 -0.8491 -0.1218
 2070SOL    MW4 8326   2.724   0.076   3.499 -0.2351  0.5055 -0.0648
 2071SOL     OW 8327   2.709   0.360   3.404 -0.2495 -0.5408 -0.1317
 2071SOL    HW2 8328   2.777   0.413   3.445 -0.7588  0.3290 -0.4135
 2071SOL    HW3 8329   2.701   0.283   3.461  1.5233 -1.0441 -0.5309
 2071SOL    MW4 8330   2.717   0.357   3.417 -0.0827 -0.4925 -0.2215
 2072SOL     OW 8331   2.920   0.485   3.500  0.5316 -0.5548 -0.0127
 2072SOL    HW2 8332   2.920   0.498   3.595  1.0261  0.0813 -0.1007
 2072SOL    HW3 8333   2.913   0.573   3.464 -1.1463 -0.8889 -0.5580
 2072SOL    MW4 8334   2.919   0.499   3.508  0.3753 -0.5149 -0.0963
 2073SOL     OW 8335   2.899   0.738   3.409  0.5850 -0.1325  0.1583
 2073SOL    HW2 8336   2.977   0.792   3.423  0.2557  0.5844 -0.7053
 2073SOL    HW3 8337   2.826   0.795   3.434  0.3348 -0.8329  1.0514
 2073SOL    MW4 8338   2.900   0.753   3.414  0.5085 -0.1303  0.1621
 2074SOL     OW 8339   2.672   0.890   3.466  0.0793  0.0626 -0.2361
 2074SOL    HW2 8340   2.648   0.894   3.558  0.3774 -1.2891 -0.0948
 2074SOL    HW3 8341   2.671   0.981   3.437 -0.6556  0.4379  0.9323
 2074SOL    MW4 8342   2.668   0.902   3.474  0.0219 -0.0662 -0.0634
 2075SOL     OW 8343   2.676   1.164   3.395 -0.1390 -0.2186 -0.5530
 2075SOL    HW2 8344   2.757   1.195   3.434 -0.4423  0.9121 -0.8054
 2075SOL    HW3 8345   2.695   1.159   3.301 -0.4387  0.3047 -0.6437
 2075SOL    MW4 8346   2.689   1.167   3.388 -0.2184 -0.0004 -0.5984
 2076SOL     OW 8347   2.891   1.282   3.514  0.2131 -0.3005  0.0778
 2076SOL    HW2 8348   2.904   1.292   3.608  2.2454  0.9252 -0.2898
 2076SOL    HW3 8349   2.975   1.249   3.482 -0.0191  0.5272 -1.4508
 2076SOL    MW4 8350   2.904   1.279   3.522  0.4504 -0.0296 -0.1724
 2077SOL     OW 8351   2.898   1.539   3.408  0.6705 -0.2187  0.0173
 2077SOL    HW2 8352   2.827   1.581   3.457 -0.0069  0.0074 -1.1288
 2077SOL    HW3 8353   2.898   1.449   3.440 -0.4446 -0.3435 -0.2865
 2077SOL    MW4 8354   2.888   1.533   3.419  0.4339 -0.2054 -0.1738
 2078SOL     OW 8355   2.681   1.671   3.536 -0.4431  0.1892 -0.0246
 2078SOL    HW2 8356   2.685   1.764   3.514  0.0214  0.2651  0.3781
 2078SOL    HW3 8357   2.608   1.637   3.483 -0.7731  0.8309  0.0128
 2078SOL    MW4 8358   2.672   1.679   3.526 -0.4251  0.2838  0.0331
 2079SOL     OW 8359   2.689   1.927   3.438 -0.3266 -0.2208 -0.5405
 2079SOL    HW2 8360   2.763   1.987   3.446  0.3171 -0.8858 -1.4673
 2079SOL    HW3 8361   2.614   1.976   3.472  0.8680 -0.1934  2.2024
 2079SOL    MW4 8362   2.689   1.941   3.444 -0.0839 -0.3049 -0.3009
 2080SOL     OW 8363   2.901   2.085   3.505  0.1023  0.5446  0.4484
 2080SOL    HW2 8364   2.887   2.097   3.600  1.6859  1.2353  0.6134
 2080SOL    HW3 8365   2.983   2.037   3.499  0.7439  1.7462 -0.6064
 2080SOL    MW4 8366   2.910   2.081   3.517  0.3958  0.7942  0.3309
 2081SOL     OW 8367   2.914   2.340   3.416 -0.0736  0.0713  0.2668
 2081SOL    HW2 8368   2.923   2.336   3.321  1.3342 -0.0279  0.3915
 2081SOL    HW3 8369   2.912   2.249   3.444  0.6386  0.0975  0.4193
 2081SOL    MW4 8370   2.915   2.328   3.407  0.2062  0.0615  0.3035
 2082SOL     OW 8371   2.668   2.467   3.483  0.0631  0.0199  0.4296
 2082SOL    HW2 8372   2.665   2.473   3.579 -0.2691  1.5933  0.3303
 2082SOL    HW3 8373   2.752   2.425   3.465  0.6950  0.8572  1.3691
 2082SOL    MW4 8374   2.679   2.462   3.493  0.1025  0.3378  0.5403
 2083SOL     OW 8375   2.714   2.730   3.410 -0.3643  0.0144 -0.0672
 2083SOL    HW2 8376   2.701   2.639   3.437 -1.9353 -1.0218 -3.9575
 2083SOL    HW3 8377   2.640   2.777   3.447 -1.0463 -0.8120 -0.3764
 2083SOL    MW4 8378   2.703   2.724   3.419 -0.6616 -0.2315 -0.6213
 2084SOL     OW 8379   2.908   2.885   3.505 -0.1337  0.2745  0.1867
 2084SOL    HW2 8380   2.921   2.873   3.599 -1.3405  2.4798  0.6615
 2084SOL    HW3 8381   2.839   2.823   3.483 -0.1882  0.0962  0.8359
 2084SOL    MW4 8382   2.901   2.875   3.515 -0.2999  0.5422  0.3352
 2085SOL     OW 8383   2.931   3.133   3.408  0.1314  0.1693  0.3826
 2085SOL    HW2 8384   2.933   3.047   3.451  0.2235 -0.2037 -0.3453
 2085SOL    HW3 8385   2.923   3.112   3.314 -1.1477  0.9702  0.2972
 2085SOL    MW4 8386   2.930   3.119   3.401 -0.0253  0.2255  0.2751
 2086SOL     OW 8387   2.692   3.239   3.471 -0.4851 -0.6155 -0.1543
 2086SOL    HW2 8388   2.690   3.236   3.566 -1.3739 -0.2941 -0.1557
 2086SOL    HW3 8389   2.780   3.210   3.447 -0.1274 -0.2894  0.7763
 2086SOL    MW4 8390   2.703   3.235   3.480 -0.5553 -0.5298 -0.0317
 2087SOL     OW 8391   2.696   3.502   3.355  0.6731 -0.7875  0.2047
 2087SOL    HW2 8392   2.703   3.409   3.378  0.5176 -0.6342  0.8754
 2087SOL    HW3 8393   2.634   3.538   3.419  1.1787 -0.0953  0.3116
 2087SOL    MW4 8394   2.689   3.494   3.367  0.7193 -0.6762  0.3073
 2088SOL     OW 8395   2.904   3.651   3.478 -0.4980  0.0161  0.1160
 2088SOL    HW2 8396   2.885   3.740   3.446 -0.9668 -0.2003 -0.2250
 2088SOL    HW3 8397   2.838   3.596   3.434  0.7418 -0.7240 -0.8430
 2088SOL    MW4 8398   2.893   3.656   3.468 -0.3965 -0.1101 -0.0558
 2089SOL     OW 8399   2.862   3.889   3.339 -0.1259 -0.3077 -0.1129
 2089SOL    HW2 8400   2.940   3.932   3.375 -0.2018  0.2177 -0.5578
 2089SOL    HW3 8401   2.790   3.947   3.364 -0.2381 -0.2101 -0.6566
 2089SOL    MW4 8402   2.863   3.902   3.347 -0.1507 -0.2255 -0.2434
 2090SOL     OW 8403   2.668   4.038   3.488  0.1513 -0.5390 -0.5462
 2090SOL    HW2 8404   2.668   4.050   3.583 -1.4391  1.7573 -0.7882
 2090SOL    HW3 8405   2.674   4.127   3.452 -1.6766 -1.1711 -2.5779
 2090SOL    MW4 8406   2.669   4.051   3.496 -0.2997 -0.3195 -0.8461
 2091SOL     OW 8407   2.675   4.278   3.382 -0.1360 -0.2271 -0.1741
 2091SOL    HW2 8408   2.759   4.314   3.412 -0.0235  0.0628 -0.8127
 2091SOL    HW3 8409   2.609   4.335   3.421 -0.0087 -0.0870 -0.1604
 2091SOL    MW4 8410   2.678   4.290   3.391 -0.1047 -0.1698 -0.2565
 2092SOL     OW 8411   2.921   4.412   3.459 -0.0971 -0.3194  0.0222
 2092SOL    HW2 8412   2.936   4.407   3.553 -1.9818  0.5803  0.3861
 2092SOL    HW3 8413   2.933   4.505   3.437  0.7947 -0.5953 -0.7224
 2092SOL    MW4 8414   2.925   4.424   3.468 -0.2279 -0.2375 -0.0281
 2093SOL     OW 8415   3.424   0.005   3.422  0.2801  0.2218 -0.4017
 2093SOL    HW2 8416   3.431   0.007   3.326  0.7977  0.2780 -0.3650
 2093SOL    HW3 8417   3.348   0.059   3.441 -0.3110 -0.4435 -0.8275
 2093SOL    MW4 8418   3.415   0.012   3.412  0.2704  0.1411 -0.4530
 2094SOL     OW 8419   3.177   0.120   3.505 -0.8831  0.5945  0.3164
 2094SOL    HW2 8420   3.161   0.210   3.480  0.4297  0.5028 -0.9598
 2094SOL    HW3 8421   3.112   0.069   3.456 -0.3850  0.6916 -0.4512
 2094SOL    MW4 8422   3.166   0.125   3.495 -0.6444  0.5952  0.0467
 2095SOL     OW 8423   3.156   0.404   3.409  0.1777  0.0510  0.0695
 2095SOL    HW2 8424   3.069   0.426   3.442  0.1274 -0.2730  0.1569
 2095SOL    HW3 8425   3.146   0.399   3.314 -0.2224 -1.3910  0.1827
 2095SOL    MW4 8426   3.143   0.406   3.401  0.1180 -0.1820  0.0961
 2096SOL     OW 8427   3.368   0.557   3.484  0.5516 -0.1008  0.3485
 2096SOL    HW2 8428   3.375   0.555   3.579  0.1541  0.1101  0.3836
 2096SOL    HW3 8429   3.283   0.517   3.465 -0.0184  1.1743  0.1665
 2096SOL    MW4 8430   3.358   0.552   3.494  0.4239  0.0952  0.3290
 2097SOL     OW 8431   3.362   0.807   3.411  0.0820 -0.0815  0.1270
 2097SOL    HW2 8432   3.429   0.849   3.466  0.2520 -0.3432  0.1218
 2097SOL    HW3 8433   3.361   0.716   3.441 -0.7913  0.0926  0.6265
 2097SOL    MW4 8434   3.371   0.800   3.422 -0.0110 -0.0930  0.1922
 2098SOL     OW 8435   3.122   0.898   3.470 -0.0758  0.0327 -0.0799
 2098SOL    HW2 8436   3.120   0.993   3.456  0.3572 -0.0600 -0.8371
 2098SOL    HW3 8437   3.212   0.873   3.447  0.4673 -0.2456  2.2950
 2098SOL    MW4 8438   3.134   0.908   3.465  0.0529 -0.0163  0.1335
 2099SOL     OW 8439   3.102   1.183   3.406 -0.0353 -0.0928  0.1523
 2099SOL    HW2 8440   3.188   1.216   3.433  0.2168  0.5162 -1.3605
 2099SOL    HW3 8441   3.107   1.178   3.311 -1.2542 -1.2558  0.1393
 2099SOL    MW4 8442   3.114   1.187   3.397 -0.1628 -0.1659 -0.0494
 2100SOL     OW 8443   3.348   1.297   3.481 -0.3039 -0.2434  1.2508
 2100SOL    HW2 8444   3.420   1.250   3.439  0.0094  0.5496  0.8785
 2100SOL    HW3 8445   3.359   1.388   3.451 -1.5814 -0.1554  1.0259
 2100SOL    MW4 8446   3.359   1.303   3.471 -0.4313 -0.1271  1.1718
 2101SOL     OW 8447   3.373   1.560   3.439  0.0012  0.7377  0.0076
 2101SOL    HW2 8448   3.446   1.618   3.463 -0.6070  0.6602  2.1445
 2101SOL    HW3 8449   3.295   1.606   3.468 -0.7280  0.3065 -1.2568
 2101SOL    MW4 8450   3.373   1.574   3.446 -0.1755  0.6704  0.1230
 2102SOL     OW 8451   3.126   1.671   3.514 -0.1622  0.4979 -0.1938
 2102SOL    HW2 8452   3.108   1.643   3.604 -0.8088 -1.1837 -0.8246
 2102SOL    HW3 8453   3.056   1.631   3.462  1.1590  0.0613 -1.6757
 2102SOL    MW4 8454   3.114   1.662   3.519 -0.0732  0.2184 -0.4725
 2103SOL     OW 8455   3.104   1.917   3.409  0.3024 -0.1083 -0.0282
 2103SOL    HW2 8456   3.105   1.826   3.437  0.2134 -0.1561 -0.1769
 2103SOL    HW3 8457   3.112   1.912   3.314  0.7795  0.0567  0.0043
 2103SOL    MW4 8458   3.105   1.904   3.400  0.3538 -0.0929 -0.0434
 2104SOL     OW 8459   3.309   2.048   3.519 -0.2452  0.1617 -0.3391
 2104SOL    HW2 8460   3.293   2.135   3.483  0.8169  0.4343 -0.1781
 2104SOL    HW3 8461   3.240   1.994   3.482 -0.5960  0.9528 -0.8709
 2104SOL    MW4 8462   3.298   2.053   3.509 -0.1514  0.3021 -0.3879
 2105SOL     OW 8463   3.296   2.307   3.429 -0.1105  0.2016 -0.6133
 2105SOL    HW2 8464   3.387   2.335   3.439  0.4390 -1.5885 -0.4278
 2105SOL    HW3 8465   3.245   2.378   3.467  1.2380  0.9567 -0.1832
 2105SOL    MW4 8466   3.301   2.320   3.435  0.1400  0.0651 -0.5319
 2106SOL     OW 8467   3.121   2.477   3.518  0.2751 -0.4456 -0.2366
 2106SOL    HW2 8468   3.111   2.554   3.463 -0.2242  0.2766  0.8534
 2106SOL    HW3 8469   3.046   2.421   3.494 -0.4763  0.2844  0.3618
 2106SOL    MW4 8470   3.110   2.480   3.507  0.1104 -0.2539 -0.0138
 2107SOL     OW 8471   3.117   2.732   3.413  0.0702 -0.3142 -0.2043
 2107SOL    HW2 8472   3.199   2.763   3.453  0.7849  0.1081 -1.9341
 2107SOL    HW3 8473   3.050   2.792   3.445  0.6868  0.2182  0.1052
 2107SOL    MW4 8474   3.119   2.744   3.422  0.2458 -0.1881 -0.3917
 2108SOL     OW 8475   3.346   2.872   3.534 -0.2941  0.1434 -0.0082
 2108SOL    HW2 8476   3.413   2.820   3.491  1.7298  1.1944  1.8304
 2108SOL    HW3 8477   3.360   2.961   3.502  0.0107  0.5968  1.3694
 2108SOL    MW4 8478   3.356   2.877   3.524  0.0134  0.3419  0.4163
 2109SOL     OW 8479   3.387   3.118   3.440  0.1638 -0.2148  0.0192
 2109SOL    HW2 8480   3.464   3.156   3.482 -0.1259 -0.1541  0.4935
 2109SOL    HW3 8481   3.314   3.173   3.468 -0.1736 -0.7735  0.2515
 2109SOL    MW4 8482   3.387   3.130   3.449  0.0815 -0.2806  0.1125
 2110SOL     OW 8483   3.152   3.273   3.509  0.0096  0.7495 -0.1426
 2110SOL    HW2 8484   3.150   3.360   3.470 -0.9334  1.2547  1.0080
 2110SOL    HW3 8485   3.082   3.224   3.466  0.2169  0.7120 -0.4367
 2110SOL    MW4 8486   3.143   3.278   3.498 -0.0875  0.8113 -0.0296
 2111SOL     OW 8487   3.140   3.523   3.413  0.4183  0.1316 -0.3098
 2111SOL    HW2 8488   3.074   3.589   3.436  2.2092  1.9158 -0.1210
 2111SOL    HW3 8489   3.138   3.519   3.317 -0.5084 -0.4149 -0.2742
 2111SOL    MW4 8490   3.131   3.531   3.403  0.5324  0.2947 -0.2801
 2112SOL     OW 8491   3.373   3.631   3.518 -0.2672  0.2640 -0.0545
 2112SOL    HW2 8492   3.374   3.710   3.464 -2.1035  0.7128  0.5177
 2112SOL    HW3 8493   3.296   3.583   3.488  0.6519 -1.1547 -0.1660
 2112SOL    MW4 8494   3.363   3.635   3.507 -0.3886  0.1359  0.0062
 2113SOL     OW 8495   3.357   3.875   3.373  0.2464 -0.0916  0.2098
 2113SOL    HW2 8496   3.410   3.925   3.435  0.2867  0.6188 -0.3950
 2113SOL    HW3 8497   3.267   3.901   3.392  0.3378  0.9678 -0.7633
 2113SOL    MW4 8498   3.353   3.885   3.384  0.2637  0.1419  0.0017
 2114SOL     OW 8499   3.117   3.954   3.436  0.0487  0.2701  0.0737
 2114SOL    HW2 8500   3.097   3.938   3.529  0.4974  0.7231  0.2506
 2114SOL    HW3 8501   3.123   4.049   3.430 -0.2140  0.2502 -0.4733
 2114SOL    MW4 8502   3.115   3.964   3.448  0.0730  0.3273  0.0250
 2115SOL     OW 8503   3.148   4.222   3.418  0.5221  0.1534 -0.4321
 2115SOL    HW2 8504   3.224   4.278   3.434  0.0831  1.0075 -1.2877
 2115SOL    HW3 8505   3.073   4.281   3.423 -0.1661 -0.8149  1.1474
 2115SOL    MW4 8506   3.148   4.237   3.421  0.3734  0.1383 -0.3366
 2116SOL     OW 8507   3.374   4.401   3.457 -0.4921  0.1297 -0.1376
 2116SOL    HW2 8508   3.399   4.493   3.449  2.3179 -0.6974 -1.4678
 2116SOL    HW3 8509   3.368   4.386   3.551  1.1577  1.1489  0.1505
 2116SOL    MW4 8510   3.376   4.411   3.468  0.0963  0.1550 -0.2749
 2117SOL     OW 8511   3.844   4.657   3.424 -0.1858 -0.0260  0.2795
 2117SOL    HW2 8512   3.775   4.716   3.451  0.2179  0.5899 -0.0180
 2117SOL    HW3 8513   3.850   4.669   3.329 -1.6758 -2.2468 -0.1262
 2117SOL    MW4 8514   3.836   4.666   3.415 -0.3290 -0.2377  0.1867
 2118SOL     OW 8515   3.639   0.151   3.517 -0.2553 -0.2843 -0.0499
 2118SOL    HW2 8516   3.614   0.239   3.491 -1.2763 -0.3472  0.6830
 2118SOL    HW3 8517   3.566   0.096   3.487  1.0114 -1.0741 -1.7477
 2118SOL    MW4 8518   3.626   0.155   3.510 -0.2229 -0.3968 -0.1771
 2119SOL     OW 8519   3.586   0.423   3.403 -0.4251 -0.0188 -0.3731
 2119SOL    HW2 8520   3.653   0.471   3.451 -0.3212 -1.6800  1.1921
 2119SOL    HW3 8521   3.504   0.460   3.433 -0.4106 -1.6784  1.8932
 2119SOL    MW4 8522   3.584   0.434   3.413 -0.4094 -0.4569  0.1323
 2120SOL     OW 8523   3.818   0.502   3.530 -0.4139  0.3493 -0.3730
 2120SOL    HW2 8524   3.829   0.517   3.624 -1.9270 -1.1569  0.0553
 2120SOL    HW3 8525   3.897   0.456   3.503 -0.3999 -0.0588  0.3593
 2120SOL    MW4 8526   3.830   0.498   3.539 -0.6115  0.0966 -0.2201
 2121SOL     OW 8527   3.830   0.765   3.425  0.0476  0.3129 -0.5094
 2121SOL    HW2 8528   3.908   0.802   3.467  0.1148  0.0091 -0.3640
 2121SOL    HW3 8529   3.820   0.678   3.464 -0.9346  0.7305  0.1842
 2121SOL    MW4 8530   3.839   0.758   3.435 -0.0730  0.3279 -0.3989
 2122SOL     OW 8531   3.620   0.914   3.526  0.3726 -0.0555 -0.3205
 2122SOL    HW2 8532   3.626   0.906   3.621  0.5467  0.5405 -0.2778
 2122SOL    HW3 8533   3.689   0.857   3.493  0.0236 -0.6110 -0.1062
 2122SOL    MW4 8534   3.630   0.905   3.534  0.3493 -0.0502 -0.2863
 2123SOL     OW 8535   3.547   1.138   3.393  0.1497 -0.2188  0.1738
 2123SOL    HW2 8536   3.567   1.049   3.423  1.4853  0.1325  0.3690
 2123SOL    HW3 8537   3.582   1.142   3.304 -0.8046 -0.1906 -0.2108
 2123SOL    MW4 8538   3.554   1.126   3.385  0.2003 -0.1688  0.1490
 2124SOL     OW 8539   3.763   1.281   3.490  0.4538 -0.1029 -0.0191
 2124SOL    HW2 8540   3.769   1.278   3.585  1.7065  0.3897 -0.0780
 2124SOL    HW3 8541   3.681   1.236   3.470 -0.8502  1.5644  1.4256
 2124SOL    MW4 8542   3.753   1.275   3.500  0.4470  0.1822  0.1638
 2125SOL     OW 8543   3.778   1.552   3.409  0.1901 -0.2982 -0.4936
 2125SOL    HW2 8544   3.854   1.583   3.459  0.2888 -0.5738 -0.4751
 2125SOL    HW3 8545   3.761   1.464   3.442 -1.3718  0.5023  0.9287
 2125SOL    MW4 8546   3.786   1.545   3.420 -0.0031 -0.2290 -0.3035
 2126SOL     OW 8547   3.578   1.718   3.518 -0.1021 -0.5185  0.3282
 2126SOL    HW2 8548   3.566   1.800   3.470 -0.9177 -0.7057  0.1998
 2126SOL    HW3 8549   3.647   1.672   3.471 -1.4447 -1.0565 -1.1558
 2126SOL    MW4 8550   3.585   1.723   3.505 -0.3867 -0.6143  0.1156
 2127SOL     OW 8551   3.545   1.961   3.387 -0.2615  0.3206 -0.3114
 2127SOL    HW2 8552   3.622   2.008   3.420 -0.0773 -0.6538  0.6874
 2127SOL    HW3 8553   3.471   1.997   3.436 -0.1984 -0.0213  0.0349
 2127SOL    MW4 8554   3.546   1.972   3.398 -0.2289  0.1470 -0.1335
 2128SOL     OW 8555   3.799   2.062   3.496  0.1472 -0.0741  0.3354
 2128SOL    HW2 8556   3.798   2.073   3.591  0.8620  1.3154  0.1798
 2128SOL    HW3 8557   3.884   2.022   3.477 -0.1532 -0.7111  0.3140
 2128SOL    MW4 8558   3.810   2.058   3.506  0.2015  0.0253  0.3121
 2129SOL     OW 8559   3.786   2.337   3.419 -0.2876 -0.3343 -0.2085
 2129SOL    HW2 8560   3.857   2.381   3.466 -2.1527  1.0405  1.4032
 2129SOL    HW3 8561   3.783   2.249   3.457 -0.2410  0.0068  0.6055
 2129SOL    MW4 8562   3.795   2.331   3.430 -0.5274 -0.1080  0.1116
 2130SOL     OW 8563   3.536   2.433   3.464 -0.0246 -0.1874 -0.1562
 2130SOL    HW2 8564   3.535   2.528   3.449  0.0240  0.0059  1.0610
 2130SOL    HW3 8565   3.626   2.407   3.442  0.1881  0.1749  0.2787
 2130SOL    MW4 8566   3.548   2.442   3.459  0.0100 -0.1140  0.0615
 2131SOL     OW 8567   3.556   2.717   3.470 -0.1815 -0.4143 -0.0676
 2131SOL    HW2 8568   3.628   2.756   3.519 -0.4012 -0.1206  0.0228
 2131SOL    HW3 8569   3.587   2.715   3.379  0.1153 -0.7044  0.0407
 2131SOL    MW4 8570   3.570   2.722   3.464 -0.1714 -0.4137 -0.0415
 2132SOL     OW 8571   3.778   2.835   3.577 -0.3328  0.0408 -0.0649
 2132SOL    HW2 8572   3.808   2.845   3.668  0.1164  0.1889 -0.2295
 2132SOL    HW3 8573   3.773   2.924   3.543  1.4062 -0.1222 -0.7988
 2132SOL    MW4 8574   3.781   2.848   3.585 -0.0443  0.0389 -0.1836
 2133SOL     OW 8575   3.791   3.095   3.435  0.2885  0.2070 -0.0262
 2133SOL    HW2 8576   3.865   3.147   3.467 -1.2034  2.4330 -0.1362
 2133SOL    HW3 8577   3.800   3.097   3.340  0.7460 -0.5043  0.0013
 2133SOL    MW4 8578   3.802   3.102   3.427  0.1521  0.4067 -0.0372
 2134SOL     OW 8579   3.603   3.265   3.546  0.0790 -0.5288  0.0985
 2134SOL    HW2 8580   3.593   3.343   3.491  0.7303 -1.1330 -0.8925
 2134SOL    HW3 8581   3.666   3.211   3.499  0.4296 -1.1842  1.3134
 2134SOL    MW4 8582   3.610   3.268   3.532  0.2112 -0.6950  0.1278
 2135SOL     OW 8583   3.603   3.515   3.417 -0.2124  0.3164 -0.3157
 2135SOL    HW2 8584   3.520   3.550   3.449  0.5314  2.0304 -0.2560
 2135SOL    HW3 8585   3.598   3.526   3.322 -0.8532 -1.3814 -0.5085
 2135SOL    MW4 8586   3.591   3.521   3.409 -0.1991  0.3188 -0.3331
 2136SOL     OW 8587   3.824   3.631   3.491 -0.2273 -0.0902 -0.5688
 2136SOL    HW2 8588   3.822   3.614   3.585  0.2510  0.2819 -0.4876
 2136SOL    HW3 8589   3.739   3.602   3.459 -0.0367 -1.1144 -0.1717
 2136SOL    MW4 8590   3.813   3.625   3.499 -0.1388 -0.1762 -0.5057
 2137SOL     OW 8591   3.806   3.891   3.421 -0.0994 -0.3836  0.1343
 2137SOL    HW2 8592   3.725   3.931   3.453 -0.6447  0.4438 -2.1889
 2137SOL    HW3 8593   3.799   3.799   3.448 -1.5451 -0.1934  0.4335
 2137SOL    MW4 8594   3.794   3.884   3.429 -0.3622 -0.2494 -0.1328
 2138SOL     OW 8595   3.567   4.005   3.516 -0.1808  0.0256  0.1424
 2138SOL    HW2 8596   3.585   4.016   3.610 -2.1344  1.6654  0.3512
 2138SOL    HW3 8597   3.602   4.085   3.476  4.5209 -2.5078 -1.1622
 2138SOL    MW4 8598   3.574   4.017   3.523  0.1817 -0.0920 -0.0021
 2139SOL     OW 8599   3.594   4.249   3.387  0.0959  0.4997 -0.0486
 2139SOL    HW2 8600   3.516   4.298   3.414 -0.5381 -0.4186 -0.2095
 2139SOL    HW3 8601   3.593   4.254   3.291 -1.0268 -1.4432 -0.1540
 2139SOL    MW4 8602   3.584   4.256   3.378 -0.1357  0.1225 -0.0834
 2140SOL     OW 8603   3.817   4.387   3.495 -0.3079 -0.0479 -0.2556
 2140SOL    HW2 8604   3.741   4.344   3.456  0.3955 -1.4133 -0.1810
 2140SOL    HW3 8605   3.818   4.475   3.458 -0.9920 -0.5604 -1.5018
 2140SOL    MW4 8606   3.807   4.393   3.485 -0.3054 -0.2952 -0.4103
 2141SOL     OW 8607   4.290   4.658   3.402  0.2897 -0.1601  0.1335
 2141SOL    HW2 8608   4.271   4.578   3.450 -2.9417  1.5442  1.9028
 2141SOL    HW3 8609   4.358   4.702   3.454  0.8349 -0.9271  0.0773
 2141SOL    MW4 8610   4.297   4.653   3.415 -0.0644 -0.0367  0.3595
 2142SOL     OW 8611   4.059   0.132   3.514 -0.0435  0.1849  0.1926
 2142SOL    HW2 8612   4.130   0.097   3.460  0.0284  1.6164 -0.6801
 2142SOL    HW3 8613   3.980   0.088   3.482  0.3864 -1.1259  0.9064
 2142SOL    MW4 8614   4.058   0.122   3.503  0.0229  0.2008  0.1717
 2143SOL     OW 8615   4.055   0.403   3.414  0.3537  0.0325  0.0359
 2143SOL    HW2 8616   4.054   0.312   3.445 -0.7181 -0.0545 -0.2371
 2143SOL    HW3 8617   4.045   0.396   3.319 -2.1317  0.5169  0.2385
 2143SOL    MW4 8618   4.054   0.390   3.406 -0.1159  0.0849  0.0265
 2144SOL     OW 8619   4.274   0.539   3.504  0.3411 -0.1250 -0.1509
 2144SOL    HW2 8620   4.254   0.622   3.461  0.2317 -1.5088 -2.8968
 2144SOL    HW3 8621   4.205   0.479   3.473  0.0024 -1.0977  2.3262
 2144SOL    MW4 8622   4.262   0.542   3.494  0.2823 -0.4359 -0.1864
 2145SOL     OW 8623   4.280   0.821   3.422  0.4030  0.2510 -0.2335
 2145SOL    HW2 8624   4.368   0.844   3.450  0.5811 -0.0860 -0.5211
 2145SOL    HW3 8625   4.281   0.828   3.327  0.0174  0.6051 -0.2154
 2145SOL    MW4 8626   4.292   0.825   3.414  0.3757  0.2533 -0.2692
 2146SOL     OW 8627   4.064   0.938   3.529  0.3124 -0.6074  0.4798
 2146SOL    HW2 8628   4.053   1.021   3.483 -2.3563 -1.1697  0.0300
 2146SOL    HW3 8629   4.144   0.900   3.492 -0.1676  0.3249 -1.5665
 2146SOL    MW4 8630   4.073   0.944   3.518 -0.1030 -0.5585  0.1507
 2147SOL     OW 8631   4.013   1.178   3.401  0.5281  0.8649 -0.1246
 2147SOL    HW2 8632   4.072   1.237   3.449  1.5693  0.3156 -0.7101
 2147SOL    HW3 8633   3.926   1.206   3.427  1.0535 -0.1718  3.0332
 2147SOL    MW4 8634   4.010   1.190   3.411  0.7348  0.6557  0.2148
 2148SOL     OW 8635   4.232   1.298   3.538 -0.2976  0.9289  0.1696
 2148SOL    HW2 8636   4.240   1.387   3.505  1.9239  0.8786  0.4761
 2148SOL    HW3 8637   4.297   1.248   3.489  0.1574 -0.0056  1.6827
 2148SOL    MW4 8638   4.241   1.303   3.527  0.0553  0.7989  0.4096
 2149SOL     OW 8639   4.256   1.539   3.405 -0.1965  0.0227 -0.2867
 2149SOL    HW2 8640   4.174   1.586   3.419  0.0531  0.8606 -1.5894
 2149SOL    HW3 8641   4.272   1.546   3.311  0.3515 -1.8374 -0.3490
 2149SOL    MW4 8642   4.247   1.546   3.394 -0.0911 -0.1121 -0.4673
 2150SOL     OW 8643   4.032   1.670   3.474  0.4948 -0.0559  0.4442
 2150SOL    HW2 8644   4.048   1.673   3.568  1.9402  0.0880  0.1938
 2150SOL    HW3 8645   4.013   1.761   3.450  1.7752  0.1802  0.3115
 2150SOL    MW4 8646   4.031   1.682   3.483  0.8545 -0.0057  0.3936
 2151SOL     OW 8647   4.072   1.951   3.412 -0.1819 -0.2906  0.0662
 2151SOL    HW2 8648   4.136   2.010   3.453 -1.4504  1.8255 -0.8586
 2151SOL    HW3 8649   4.076   1.974   3.319 -0.9536 -1.4551 -0.2591
 2151SOL    MW4 8650   4.081   1.962   3.405 -0.4506 -0.1650 -0.0985
 2152SOL     OW 8651   4.279   2.109   3.517  0.4433 -0.3709 -0.1458
 2152SOL    HW2 8652   4.280   2.196   3.478  1.5352  0.0183  0.7334
 2152SOL    HW3 8653   4.342   2.059   3.464 -0.2047 -0.6391 -0.6685
 2152SOL    MW4 8654   4.287   2.114   3.505  0.5021 -0.3550 -0.0989
 2153SOL     OW 8655   4.247   2.371   3.432  0.3281 -0.2200  0.1029
 2153SOL    HW2 8656   4.170   2.414   3.468  0.5214  0.5601 -0.4093
 2153SOL    HW3 8657   4.226   2.355   3.340 -0.3441 -2.6176  0.6294
 2153SOL    MW4 8658   4.234   2.374   3.424  0.2646 -0.4332  0.1047
 2154SOL     OW 8659   4.042   2.452   3.807 -0.2781 -0.0743  0.5842
 2154SOL    HW2 8660   4.046   2.534   3.856 -1.4041  1.1530 -1.3094
 2154SOL    HW3 8661   3.955   2.417   3.825  0.1758 -0.8332  1.3348
 2154SOL    MW4 8662   4.031   2.458   3.816 -0.3662 -0.0126  0.4334
 2155SOL     OW 8663   4.031   2.734   3.440  0.3650 -0.1799  0.1277
 2155SOL    HW2 8664   4.108   2.777   3.475  0.2126 -0.8997  1.3459
 2155SOL    HW3 8665   3.957   2.786   3.472  0.2462 -0.5814  0.5008
 2155SOL    MW4 8666   4.031   2.746   3.449  0.3290 -0.3278  0.3376
 2156SOL     OW 8667   4.238   2.915   3.525 -0.0066 -0.6273  0.4153
 2156SOL    HW2 8668   4.231   2.902   3.620  1.0597 -1.7297  0.3509
 2156SOL    HW3 8669   4.320   2.871   3.500  0.6483  1.1823 -0.7469
 2156SOL    MW4 8670   4.248   2.908   3.534  0.2208 -0.5341  0.2537
 2157SOL     OW 8671   4.203   3.150   3.411  0.3963 -0.0161 -0.1905
 2157SOL    HW2 8672   4.213   3.062   3.446  0.2095  0.0118 -0.0661
 2157SOL    HW3 8673   4.236   3.144   3.321  1.8083  0.1474  0.2979
 2157SOL    MW4 8674   4.209   3.138   3.404  0.5579  0.0093 -0.1097
 2158SOL     OW 8675   4.001   3.247   3.542 -0.3612  0.4157  0.1989
 2158SOL    HW2 8676   3.985   3.327   3.491 -2.4945 -0.5543 -0.7578
 2158SOL    HW3 8677   4.074   3.204   3.498 -1.6909 -0.0278 -1.6499
 2158SOL    MW4 8678   4.008   3.252   3.529 -0.8183  0.2291 -0.1714
 2159SOL     OW 8679   4.040   3.483   3.386  0.3636  0.1820  0.1870
 2159SOL    HW2 8680   4.113   3.516   3.438 -0.2364  0.8834  0.5993
 2159SOL    HW3 8681   3.966   3.539   3.410 -0.3702 -0.6691 -0.0450
 2159SOL    MW4 8682   4.040   3.495   3.396  0.1874  0.1624  0.2108
 2160SOL     OW 8683   4.251   3.601   3.510  0.0744 -0.2115 -0.3016
 2160SOL    HW2 8684   4.277   3.610   3.602 -0.1125 -1.2717 -0.1437
 2160SOL    HW3 8685   4.252   3.691   3.476  2.7975 -0.1049  0.0034
 2160SOL    MW4 8686   4.254   3.614   3.518  0.4082 -0.3371 -0.2406
 2161SOL     OW 8687   4.269   3.880   3.413 -0.1575  0.8468  0.2393
 2161SOL    HW2 8688   4.353   3.923   3.431  0.5487 -0.3392 -0.2001
 2161SOL    HW3 8689   4.259   3.885   3.318  0.6699 -1.2875  0.0086
 2161SOL    MW4 8690   4.279   3.886   3.403  0.0453  0.4089  0.1507
 2162SOL     OW 8691   4.044   4.022   3.496 -0.0860 -0.2675 -0.2257
 2162SOL    HW2 8692   4.116   3.975   3.454 -0.9549 -1.7317 -0.1102
 2162SOL    HW3 8693   3.965   3.985   3.457 -0.7670  2.5343 -1.6107
 2162SOL    MW4 8694   4.043   4.011   3.485 -0.2904 -0.0911 -0.3932
 2163SOL     OW 8695   4.061   4.284   3.410 -0.1573 -0.4340  0.4419
 2163SOL    HW2 8696   4.043   4.195   3.439 -0.8429 -0.4710 -0.0882
 2163SOL    HW3 8697   3.982   4.334   3.434 -0.2445 -0.2150 -0.2981
 2163SOL    MW4 8698   4.048   4.279   3.417 -0.2594 -0.4101  0.2742
 2164SOL     OW 8699   4.276   4.403   3.528 -0.2233  0.0330 -0.0515
 2164SOL    HW2 8700   4.265   4.406   3.623 -2.1228  1.5204 -0.3038
 2164SOL    HW3 8701   4.209   4.341   3.498  1.6286 -1.9215 -0.2742
 2164SOL    MW4 8702   4.266   4.395   3.536 -0.2294 -0.0286 -0.1140
 2165SOL     OW 8703   2.042   3.103   4.159 -0.1191 -0.6532 -0.2770
 2165SOL    HW2 8704   2.050   3.010   4.182  0.8170 -0.5022  0.0231
 2165SOL    HW3 8705   2.124   3.142   4.190 -0.6409  0.3269 -0.1503
 2165SOL    MW4 8706   2.054   3.096   4.166 -0.0644 -0.5040 -0.2208
 2166SOL     OW 8707   0.060   0.148   3.775  0.3990  0.1278  0.2156
 2166SOL    HW2 8708   0.059   0.240   3.801 -0.6531  0.2670 -0.2794
 2166SOL    HW3 8709   0.051   0.149   3.680 -0.8083 -0.5054  0.3064
 2166SOL    MW4 8710   0.058   0.160   3.766  0.1009  0.0626  0.1621
 2167SOL     OW 8711   0.049   0.400   3.894  1.0103  0.3230 -0.4353
 2167SOL    HW2 8712  -0.023   0.456   3.865  0.6057  0.5363  0.9779
 2167SOL    HW3 8713   0.126   0.434   3.848  0.7656  2.0218  0.4018
 2167SOL    MW4 8714   0.050   0.412   3.884  0.9246  0.5752 -0.1383
 2168SOL     OW 8715   0.263   0.489   3.764  0.3317  0.0161  0.2062
 2168SOL    HW2 8716   0.247   0.582   3.784 -0.7000  0.1192 -1.0250
 2168SOL    HW3 8717   0.246   0.482   3.670  2.4128 -1.0153 -0.0964
 2168SOL    MW4 8718   0.258   0.501   3.755  0.4702 -0.1063  0.0038
 2169SOL     OW 8719   0.473   0.877   3.757  0.0814  0.8165  0.8051
 2169SOL    HW2 8720   0.402   0.827   3.798 -0.8905  1.1054 -0.4780
 2169SOL    HW3 8721   0.471   0.962   3.800  0.3852  0.4491  1.5514
 2169SOL    MW4 8722   0.463   0.882   3.768 -0.0068  0.8061  0.7343
 2170SOL     OW 8723   4.489   0.918   3.788 -0.3172 -0.3611  0.3236
 2170SOL    HW2 8724   4.408   0.875   3.816  0.0633 -0.5753  1.1434
 2170SOL    HW3 8725   4.483   1.007   3.823  0.4223 -0.8064  1.6542
 2170SOL    MW4 8726   4.478   0.924   3.796 -0.1695 -0.4480  0.6073
 2171SOL     OW 8727   4.426   1.173   3.895 -0.4660 -0.1561 -0.2060
 2171SOL    HW2 8728   4.503   1.203   3.846 -0.0172 -0.7616  0.1111
 2171SOL    HW3 8729   4.358   1.236   3.874  0.2070  0.5575 -0.2502
 2171SOL    MW4 8730   4.427   1.185   3.885 -0.3176 -0.1419 -0.1702
 2172SOL     OW 8731   0.204   1.253   3.817 -0.0163  0.3151  0.4550
 2172SOL    HW2 8732   0.219   1.341   3.854  3.5298 -0.2180  0.5153
 2172SOL    HW3 8733   0.190   1.269   3.724  0.0365  1.0194  0.5628
 2172SOL    MW4 8734   0.204   1.267   3.810  0.4585  0.3376  0.4771
 2173SOL     OW 8735   0.222   1.530   3.873 -0.4124  0.3702 -0.0440
 2173SOL    HW2 8736   0.203   1.511   3.965  1.0626  0.1348  0.2338
 2173SOL    HW3 8737   0.144   1.573   3.840 -1.2727 -0.2992  1.1028
 2173SOL    MW4 8738   0.209   1.533   3.881 -0.3313  0.2508  0.1438
 2174SOL     OW 8739   4.473   1.638   3.781 -0.3274 -0.4774 -0.1977
 2174SOL    HW2 8740   4.493   1.724   3.817  0.5550 -0.5386 -0.5272
 2174SOL    HW3 8741   4.471   1.652   3.686  1.7611 -1.1972 -0.3723
 2174SOL    MW4 8742   4.475   1.651   3.773  0.0646 -0.5803 -0.2642
 2175SOL     OW 8743   0.004   1.898   3.901 -0.0613 -0.1319 -0.4414
 2175SOL    HW2 8744  -0.020   1.910   3.992  0.3038  1.7380 -0.5858
 2175SOL    HW3 8745  -0.064   1.944   3.851  1.2750  1.2489 -1.0047
 2175SOL    MW4 8746  -0.008   1.905   3.906  0.1636  0.2971 -0.5348
 2176SOL     OW 8747   0.199   2.054   3.789 -0.4261 -0.0056 -0.5354
 2176SOL    HW2 8748   0.204   2.140   3.831 -0.9694 -0.1584 -0.1439
 2176SOL    HW3 8749   0.126   2.010   3.834 -0.7309 -0.3354 -1.3387
 2176SOL    MW4 8750   0.190   2.060   3.801 -0.5380 -0.0694 -0.5898
 2177SOL     OW 8751   0.194   2.316   3.873 -0.0272 -0.1804  0.0740
 2177SOL    HW2 8752   0.185   2.311   3.968  2.7288 -1.1236  0.3498
 2177SOL    HW3 8753   0.133   2.385   3.846 -2.5090 -1.4366  2.2321
 2177SOL    MW4 8754   0.185   2.324   3.882  0.0090 -0.4704  0.3951
 2178SOL     OW 8755   4.463   2.517   3.815 -0.3629  0.3942 -0.1256
 2178SOL    HW2 8756   4.400   2.458   3.856  0.7831 -0.3644  0.5477
 2178SOL    HW3 8757   4.443   2.603   3.852 -0.8701  0.1210  0.2373
 2178SOL    MW4 8758   4.452   2.521   3.825 -0.2789  0.2580  0.0112
 2179SOL     OW 8759   4.464   2.757   3.936  0.3986 -0.6059 -0.5122
 2179SOL    HW2 8760   4.471   2.751   4.031  0.5466 -1.1660 -0.5550
 2179SOL    HW3 8761   4.552   2.782   3.907  0.0904  0.6157 -0.4274
 2179SOL    MW4 8762   4.477   2.760   3.945  0.3772 -0.5186 -0.5069
 2180SOL     OW 8763   0.216   2.856   3.808 -0.3490  0.1609 -0.0950
 2180SOL    HW2 8764   0.294   2.810   3.838 -1.8944 -2.2854  0.2323
 2180SOL    HW3 8765   0.221   2.854   3.713 -0.3093 -0.5119 -0.0770
 2180SOL    MW4 8766   0.227   2.850   3.799 -0.5477 -0.2506 -0.0494
 2181SOL     OW 8767   0.230   3.097   3.929 -0.0383 -0.1074 -0.2482
 2181SOL    HW2 8768   0.217   3.095   4.024  2.2557  0.9573  0.1100
 2181SOL    HW3 8769   0.209   3.008   3.900 -0.6677 -0.4605  1.2543
 2181SOL    MW4 8770   0.225   3.085   3.937  0.1813 -0.0134 -0.0029
 2182SOL     OW 8771   4.487   3.241   3.799  0.3920  0.4788 -0.0554
 2182SOL    HW2 8772   4.550   3.171   3.817 -1.3176 -0.7394  1.3602
 2182SOL    HW3 8773   4.466   3.232   3.706  2.9541  1.4828 -0.7809
 2182SOL    MW4 8774   4.493   3.231   3.789  0.5050  0.4506  0.0353
 2183SOL     OW 8775   0.039   3.493   3.920  0.5378 -0.0531  0.1864
 2183SOL    HW2 8776   0.125   3.519   3.889  0.7661  0.3120  1.1082
 2183SOL    HW3 8777   0.026   3.404   3.886  0.9101  0.2298 -0.6752
 2183SOL    MW4 8778   0.048   3.485   3.912  0.6170  0.0324  0.1943
 2184SOL     OW 8779   0.254   3.620   3.797  0.2179  0.2181  0.1123
 2184SOL    HW2 8780   0.330   3.570   3.827 -0.1277 -1.2129 -1.3210
 2184SOL    HW3 8781   0.260   3.703   3.844  0.9584 -1.0453  2.3427
 2184SOL    MW4 8782   0.265   3.624   3.807  0.2700 -0.1373  0.2174
 2185SOL     OW 8783   0.241   3.882   3.908  0.2810  0.2144  0.1500
 2185SOL    HW2 8784   0.234   3.896   4.003  0.3327 -0.4277  0.2507
 2185SOL    HW3 8785   0.316   3.935   3.882  1.7820 -1.5035  0.8782
 2185SOL    MW4 8786   0.250   3.891   3.917  0.4859 -0.0970  0.2594
 2186SOL     OW 8787   0.041   4.025   3.765 -0.1702  0.1947 -0.1136
 2186SOL    HW2 8788  -0.038   3.989   3.806 -0.8216 -0.5575 -1.9758
 2186SOL    HW3 8789   0.113   3.987   3.816 -0.9257 -1.5506 -0.3077
 2186SOL    MW4 8790   0.040   4.015   3.777 -0.3558 -0.1349 -0.3850
 2187SOL     OW 8791   0.041   4.285   3.846 -0.2366 -0.0010  0.1590
 2187SOL    HW2 8792   0.036   4.200   3.803 -0.0023 -0.3256  0.7637
 2187SOL    HW3 8793   0.127   4.320   3.820 -1.1919  0.9626 -1.7547
 2187SOL    MW4 8794   0.052   4.279   3.837 -0.3317  0.0834 -0.0134
 2188SOL     OW 8795   0.276   4.384   3.771 -0.1490 -0.5931 -0.3531
 2188SOL    HW2 8796   0.276   4.477   3.795  1.4056  0.2058 -3.2427
 2188SOL    HW3 8797   0.348   4.347   3.823  0.3928  0.2094 -0.5125
 2188SOL    MW4 8798   0.286   4.392   3.781  0.1276 -0.3815 -0.7553
 2189SOL     OW 8799   0.728   0.017   3.837  0.4843 -0.1006 -0.1437
 2189SOL    HW2 8800   0.728  -0.076   3.819  0.7694 -0.4575  1.5729
 2189SOL    HW3 8801   0.636   0.044   3.829  0.5813 -0.2607 -1.8690
 2189SOL    MW4 8802   0.716   0.009   3.834  0.5348 -0.1688 -0.1447
 2190SOL     OW 8803   0.278   4.656   3.869 -0.0951 -0.1273 -0.2325
 2190SOL    HW2 8804   0.282   4.660   3.964  1.1187 -0.6602 -0.2521
 2190SOL    HW3 8805   0.201   4.708   3.846 -0.3553  0.0605  1.0300
 2190SOL    MW4 8806   0.268   4.663   3.878  0.0307 -0.1728 -0.0684
 2191SOL     OW 8807   0.503   0.409   3.857 -0.1974  0.0346 -0.3111
 2191SOL    HW2 8808   0.571   0.437   3.796 -1.3641  0.1877 -1.5626
 2191SOL    HW3 8809   0.421   0.441   3.818 -0.8591  1.1618  1.9019
 2191SOL    MW4 8810   0.501   0.417   3.844 -0.4386  0.2035 -0.1843
 2192SOL     OW 8811   0.728   0.501   3.736 -0.0952  0.0253 -0.3513
 2192SOL    HW2 8812   0.802   0.452   3.772 -0.4065  0.8790  1.5056
 2192SOL    HW3 8813   0.737   0.589   3.772 -3.2667 -0.4501  1.7667
 2192SOL    MW4 8814   0.739   0.506   3.745 -0.5547  0.0752  0.1733
 2193SOL     OW 8815   0.710   0.750   3.870  0.0740  0.0455  0.4006
 2193SOL    HW2 8816   0.628   0.792   3.844 -0.2001 -0.8434 -0.1989
 2193SOL    HW3 8817   0.702   0.739   3.965 -0.4200  0.1284  0.3721
 2193SOL    MW4 8818   0.698   0.754   3.879 -0.0272 -0.0608  0.3176
 2194SOL     OW 8819   3.824   0.758   4.228 -0.4236 -0.3677 -0.2206
 2194SOL    HW2 8820   3.844   0.739   4.136  1.7286  1.2964 -0.1432
 2194SOL    HW3 8821   3.751   0.820   4.224  1.2498  1.6258 -0.9457
 2194SOL    MW4 8822   3.817   0.764   4.215  0.0811  0.1149 -0.3061
 2195SOL     OW 8823   0.465   1.140   3.895  0.2220 -0.1925  0.5367
 2195SOL    HW2 8824   0.543   1.181   3.856  0.1703  0.0999  0.7367
 2195SOL    HW3 8825   0.391   1.187   3.856  0.1518 -0.3725  0.4558
 2195SOL    MW4 8826   0.466   1.152   3.885  0.2060 -0.1776  0.5524
 2196SOL     OW 8827   0.648   1.280   3.745  0.2161 -0.5605 -0.2668
 2196SOL    HW2 8828   0.730   1.243   3.776  0.8133  0.5804 -0.4456
 2196SOL    HW3 8829   0.660   1.288   3.650 -0.7647 -1.9857 -0.5371
 2196SOL    MW4 8830   0.661   1.276   3.736  0.1655 -0.5980 -0.3262
 2197SOL     OW 8831   0.659   1.523   3.924 -0.0955 -0.8434  0.2422
 2197SOL    HW2 8832   0.738   1.556   3.881 -1.7618  0.7530 -1.7159
 2197SOL    HW3 8833   0.639   1.441   3.879  0.6133 -1.4414  0.9889
 2197SOL    MW4 8834   0.666   1.517   3.913 -0.2218 -0.7118  0.0825
 2198SOL     OW 8835   0.454   1.663   3.822 -0.0954 -0.5143  0.2541
 2198SOL    HW2 8836   0.522   1.610   3.865 -0.4185 -2.3597 -1.4353
 2198SOL    HW3 8837   0.372   1.618   3.841 -0.5451  0.1521 -0.0777
 2198SOL    MW4 8838   0.452   1.650   3.830 -0.1974 -0.6700 -0.0124
 2199SOL     OW 8839   0.446   1.951   3.835  0.3431  0.4197 -0.5670
 2199SOL    HW2 8840   0.458   1.859   3.811  0.2868  0.1117  0.5623
 2199SOL    HW3 8841   0.355   1.970   3.811  0.7768  0.5947 -2.1198
 2199SOL    MW4 8842   0.436   1.941   3.829  0.3929  0.4022 -0.6230
 2200SOL     OW 8843   0.698   2.052   3.813 -0.0705 -0.1609 -0.3229
 2200SOL    HW2 8844   0.691   2.144   3.841 -0.3547 -0.2084 -0.2423
 2200SOL    HW3 8845   0.609   2.019   3.817 -0.1662 -0.0672 -1.6470
 2200SOL    MW4 8846   0.685   2.060   3.817 -0.1206 -0.1550 -0.4869
 2201SOL     OW 8847   0.667   2.314   3.902  0.0377 -0.0798  0.1153
 2201SOL    HW2 8848   0.735   2.376   3.874  0.7902 -1.3206 -0.8649
 2201SOL    HW3 8849   0.588   2.342   3.857  0.2497  0.4867  0.0950
 2201SOL    MW4 8850   0.666   2.326   3.892  0.1649 -0.1690 -0.0167
 2202SOL     OW 8851   0.422   2.430   3.804  0.2188  0.4892  0.0345
 2202SOL    HW2 8852   0.335   2.393   3.817  0.9101 -1.0923  0.2803
 2202SOL    HW3 8853   0.438   2.422   3.710  0.7151 -0.6700  0.2065
 2202SOL    MW4 8854   0.412   2.424   3.793  0.3755  0.1273  0.0896
 2203SOL     OW 8855   0.429   2.700   3.893 -0.3351 -0.2575 -0.6090
 2203SOL    HW2 8856   0.503   2.750   3.860  0.4741 -0.4238  0.9214
 2203SOL    HW3 8857   0.441   2.612   3.858  0.4371 -0.3955 -0.0004
 2203SOL    MW4 8858   0.440   2.695   3.884 -0.1265 -0.2973 -0.3269
 2204SOL     OW 8859   0.654   2.829   3.823  0.2294 -0.0927  0.1280
 2204SOL    HW2 8860   0.660   2.851   3.730 -0.6298  0.1453  0.1232
 2204SOL    HW3 8861   0.735   2.781   3.842  0.5884  0.1983 -0.6464
 2204SOL    MW4 8862   0.666   2.826   3.814  0.1634 -0.0229  0.0253
 2205SOL     OW 8863   0.714   3.101   3.898  0.6539  0.2649 -0.2866
 2205SOL    HW2 8864   0.706   3.109   3.994 -1.2918  0.5037 -0.4505
 2205SOL    HW3 8865   0.685   3.012   3.879  1.1409  0.1835 -0.6555
 2205SOL    MW4 8866   0.710   3.090   3.908  0.4614  0.2856 -0.3569
 2206SOL     OW 8867   0.457   3.197   3.812  0.0875  0.2568  0.2047
 2206SOL    HW2 8868   0.536   3.169   3.858  0.7600  1.8498  0.0541
 2206SOL    HW3 8869   0.385   3.165   3.866  0.8588  0.5663  1.4301
 2206SOL    MW4 8870   0.458   3.189   3.825  0.2780  0.5081  0.3467
 2207SOL     OW 8871   0.479   3.487   3.910 -0.0091  0.3754  0.2699
 2207SOL    HW2 8872   0.560   3.511   3.864 -1.0748  3.2243 -0.2482
 2207SOL    HW3 8873   0.457   3.400   3.876  1.2306  0.8498 -1.8481
 2207SOL    MW4 8874   0.487   3.479   3.899  0.0139  0.8137 -0.0777
 2208SOL     OW 8875   0.686   3.602   3.767  0.2983  0.4397  0.0549
 2208SOL    HW2 8876   0.695   3.689   3.805  1.3025  0.2677  0.2228
 2208SOL    HW3 8877   0.689   3.616   3.672 -1.5793  0.7985  0.0183
 2208SOL    MW4 8878   0.687   3.615   3.759  0.1831  0.4642  0.0722
 2209SOL     OW 8879   0.707   3.866   3.847 -0.2580  0.3561 -0.0182
 2209SOL    HW2 8880   0.700   3.897   3.937  1.0810 -1.2719  0.6874
 2209SOL    HW3 8881   0.785   3.909   3.812  0.8743 -1.1807  0.5542
 2209SOL    MW4 8882   0.717   3.875   3.854  0.0681 -0.0615  0.1504
 2210SOL     OW 8883   0.483   4.015   3.763 -0.1625 -0.3960  0.4779
 2210SOL    HW2 8884   0.546   3.953   3.799  0.1055 -0.0001  0.6940
 2210SOL    HW3 8885   0.483   3.997   3.669 -0.1477 -0.7742  0.5484
 2210SOL    MW4 8886   0.491   4.005   3.755 -0.1252 -0.3939  0.5155
 2211SOL     OW 8887   0.496   4.270   3.897  0.3520  0.0746  0.3595
 2211SOL    HW2 8888   0.566   4.316   3.852  0.1243  0.7718  0.7035
 2211SOL    HW3 8889   0.487   4.187   3.851  1.9157 -0.3383  0.7817
 2211SOL    MW4 8890   0.504   4.265   3.885  0.5282  0.1121  0.4604
 2212SOL     OW 8891   0.714   4.423   3.779  0.5334 -0.4409  0.2020
 2212SOL    HW2 8892   0.786   4.373   3.818  0.6019  0.1860  0.8792
 2212SOL    HW3 8893   0.725   4.411   3.685  0.8472 -1.2907  0.3441
 2212SOL    MW4 8894   0.725   4.415   3.772  0.5839 -0.4706  0.3102
 2213SOL     OW 8895   1.163   4.354   3.751  0.3538 -0.0512 -0.5369
 2213SOL    HW2 8896   1.151   4.371   3.658 -0.6802 -0.6946 -0.5291
 2213SOL    HW3 8897   1.076   4.329   3.783  0.9730 -1.2151  0.3030
 2213SOL    MW4 8898   1.150   4.353   3.743  0.2990 -0.2899 -0.4249
 2214SOL     OW 8899   0.962   0.121   3.719  0.1491 -0.0187 -0.4724
 2214SOL    HW2 8900   0.880   0.093   3.761 -0.0082  0.3416 -0.5296
 2214SOL    HW3 8901   1.028   0.059   3.750 -0.1264 -0.2462 -0.3378
 2214SOL    MW4 8902   0.960   0.109   3.729  0.0920 -0.0012 -0.4623
 2215SOL     OW 8903   0.941   0.368   3.837 -0.3030  0.2977 -0.1420
 2215SOL    HW2 8904   0.954   0.276   3.813  0.2330  0.3924 -0.2151
 2215SOL    HW3 8905   0.934   0.368   3.932  2.7699  0.5413  0.1330
 2215SOL    MW4 8906   0.941   0.356   3.846  0.1731  0.3423 -0.1154
 2216SOL     OW 8907   1.129   0.568   3.778  0.0882 -0.2413  0.3535
 2216SOL    HW2 8908   1.207   0.516   3.797 -0.5086 -1.3057 -0.1225
 2216SOL    HW3 8909   1.055   0.514   3.804 -0.4568  1.5998  2.8053
 2216SOL    MW4 8910   1.130   0.554   3.784 -0.0625 -0.1388  0.6144
 2217SOL     OW 8911   1.146   0.819   3.882 -0.6860 -0.1508 -0.2680
 2217SOL    HW2 8912   1.073   0.875   3.855 -0.5269  0.4768  0.5576
 2217SOL    HW3 8913   1.128   0.734   3.842 -2.0097 -0.0692  0.1350
 2217SOL    MW4 8914   1.134   0.815   3.873 -0.8396 -0.0572 -0.1059
 2218SOL     OW 8915   0.923   0.904   3.778  0.3396  0.5045 -0.1071
 2218SOL    HW2 8916   0.854   0.856   3.824  0.3136  0.9896  0.3555
 2218SOL    HW3 8917   0.902   0.891   3.685 -0.1684  0.3502  0.0247
 2218SOL    MW4 8918   0.911   0.896   3.772  0.2692  0.5481 -0.0286
 2219SOL     OW 8919   0.868   1.174   3.848 -0.0593 -0.0483 -0.0462
 2219SOL    HW2 8920   0.866   1.164   3.943  0.6099 -0.2091 -0.0445
 2219SOL    HW3 8921   0.874   1.084   3.815 -1.9462 -0.0901 -0.2965
 2219SOL    MW4 8922   0.869   1.161   3.856 -0.2200 -0.0750 -0.0787
 2220SOL     OW 8923   1.135   1.271   3.815  0.2597  0.1790  0.2656
 2220SOL    HW2 8924   1.130   1.279   3.719  2.4715 -1.0165  0.0102
 2220SOL    HW3 8925   1.050   1.235   3.840 -0.0889 -0.1796 -1.3547
 2220SOL    MW4 8926   1.123   1.267   3.805  0.5056 -0.0261  0.0184
 2221SOL     OW 8927   1.103   1.538   3.896  0.5322  0.3136 -0.0227
 2221SOL    HW2 8928   1.183   1.578   3.864  0.6712 -0.3502 -0.5024
 2221SOL    HW3 8929   1.108   1.447   3.869 -0.1530  0.1490  0.3749
 2221SOL    MW4 8930   1.114   1.531   3.888  0.4601  0.2044 -0.0336
 2222SOL     OW 8931   0.869   1.675   3.798 -0.2072  0.3534  0.1022
 2222SOL    HW2 8932   0.948   1.630   3.828 -0.2824 -0.3606 -0.7612
 2222SOL    HW3 8933   0.873   1.670   3.702 -0.8953  1.0147  0.0288
 2222SOL    MW4 8934   0.880   1.668   3.789 -0.3079  0.3465 -0.0215
 2223SOL     OW 8935   0.912   1.912   3.920  0.3623 -0.2522 -0.1066
 2223SOL    HW2 8936   0.844   1.973   3.891  0.1546 -0.1793  0.5223
 2223SOL    HW3 8937   0.892   1.831   3.874  0.1505 -0.0841 -0.3160
 2223SOL    MW4 8938   0.900   1.910   3.910  0.3070 -0.2204 -0.0513
 2224SOL     OW 8939   1.100   2.092   3.772 -0.0196  0.5836  0.0110
 2224SOL    HW2 8940   1.045   2.022   3.805  0.2845  0.0700 -0.5644
 2224SOL    HW3 8941   1.083   2.093   3.678  0.9866  0.3855 -0.1756
 2224SOL    MW4 8942   1.090   2.083   3.764  0.1534  0.4895 -0.0896
 2225SOL     OW 8943   1.110   2.364   3.847 -0.7484  0.0458  0.1563
 2225SOL    HW2 8944   1.118   2.380   3.941  1.2810 -1.0860  0.1991
 2225SOL    HW3 8945   1.084   2.272   3.840  0.8886 -0.3787 -0.4260
 2225SOL    MW4 8946   1.107   2.354   3.859 -0.2645 -0.1595  0.0849
 2226SOL     OW 8947   0.866   2.478   3.787  0.0883  0.3008  0.2122
 2226SOL    HW2 8948   0.885   2.569   3.811  0.9416  0.7357 -1.9905
 2226SOL    HW3 8949   0.949   2.432   3.800 -0.1900 -0.0651  0.7542
 2226SOL    MW4 8950   0.880   2.484   3.792  0.1642  0.3097 -0.0069
 2227SOL     OW 8951   0.904   2.749   3.871 -0.0881  0.3578  0.3049
 2227SOL    HW2 8952   0.917   2.748   3.966  1.5451 -1.5757  0.0904
 2227SOL    HW3 8953   0.980   2.796   3.837  0.5476 -1.0356 -0.2055
 2227SOL    MW4 8954   0.915   2.755   3.879  0.2113 -0.0813  0.2093
 2228SOL     OW 8955   1.130   2.853   3.753  0.3899 -0.2280  0.2122
 2228SOL    HW2 8956   1.214   2.809   3.767  0.6907  0.1235 -0.4496
 2228SOL    HW3 8957   1.145   2.942   3.784  0.3308 -0.1070 -0.1005
 2228SOL    MW4 8958   1.143   2.859   3.759  0.4219 -0.1657  0.0837
 2229SOL     OW 8959   3.315   2.297   4.352 -0.0804  0.5251  0.2767
 2229SOL    HW2 8960   3.390   2.347   4.385 -1.5687  2.1989  1.2094
 2229SOL    HW3 8961   3.346   2.261   4.269  1.4946  1.8878  0.2343
 2229SOL    MW4 8962   3.329   2.299   4.345 -0.0691  0.9258  0.3939
 2230SOL     OW 8963   0.908   3.235   3.756 -0.2273 -0.1455 -0.0503
 2230SOL    HW2 8964   0.842   3.183   3.801 -0.3395  0.1007  0.0672
 2230SOL    HW3 8965   0.881   3.233   3.664  0.5743 -1.5292 -0.2860
 2230SOL    MW4 8966   0.896   3.228   3.749 -0.1364 -0.2959 -0.0658
 2231SOL     OW 8967   0.920   3.479   3.899 -0.3853  0.2113 -0.4580
 2231SOL    HW2 8968   0.925   3.391   3.861  0.4677  0.3039 -0.5661
 2231SOL    HW3 8969   0.858   3.525   3.844 -0.3413 -0.1277 -0.7951
 2231SOL    MW4 8970   0.912   3.473   3.887 -0.2670  0.1788 -0.5169
 2232SOL     OW 8971   1.136   3.598   3.792 -0.3810  0.7742 -0.2053
 2232SOL    HW2 8972   1.128   3.688   3.824  0.1342  0.8703 -0.3346
 2232SOL    HW3 8973   1.052   3.557   3.813 -0.9942  1.5718 -1.0559
 2232SOL    MW4 8974   1.124   3.604   3.799 -0.3940  0.8922 -0.3345
 2233SOL     OW 8975   1.141   3.873   3.895  0.0466  0.2248 -0.6606
 2233SOL    HW2 8976   1.167   3.869   3.986 -0.0921 -0.5265 -0.6484
 2233SOL    HW3 8977   1.209   3.924   3.852  0.9960 -0.8338 -0.4408
 2233SOL    MW4 8978   1.153   3.879   3.901  0.1535 -0.0141 -0.6299
 2234SOL     OW 8979   0.921   4.021   3.772 -0.2941 -0.2312 -0.0815
 2234SOL    HW2 8980   0.997   3.979   3.812 -0.6697 -1.4983 -0.6955
 2234SOL    HW3 8981   0.934   4.009   3.678 -0.7640  0.4211 -0.2374
 2234SOL    MW4 8982   0.933   4.014   3.765 -0.4056 -0.3119 -0.1833
 2235SOL     OW 8983   0.922   4.277   3.895 -0.0503 -0.2485  0.0972
 2235SOL    HW2 8984   0.906   4.268   3.989  1.6383 -0.4379  0.3932
 2235SOL    HW3 8985   0.904   4.191   3.859 -1.0820 -0.0742  0.1779
 2235SOL    MW4 8986   0.918   4.264   3.903  0.0364 -0.2508  0.1469
 2236SOL     OW 8987   1.395   4.266   3.866  0.2678  0.0910 -0.0751
 2236SOL    HW2 8988   1.317   4.298   3.821 -0.4830  0.8089  1.7221
 2236SOL    HW3 8989   1.467   4.316   3.828 -0.2029 -0.1734 -1.3391
 2236SOL    MW4 8990   1.394   4.277   3.855  0.1067  0.1512 -0.0050
 2237SOL     OW 8991   1.570   0.028   3.829  0.6358 -0.2326 -0.1277
 2237SOL    HW2 8992   1.584   0.019   3.923 -3.0233 -0.1729  0.5040
 2237SOL    HW3 8993   1.583  -0.061   3.795  0.5004 -0.5629  0.6576
 2237SOL    MW4 8994   1.574   0.015   3.837  0.1351 -0.2684  0.0596
 2238SOL     OW 8995   1.320   0.127   3.736 -0.1988  0.3283  0.2516
 2238SOL    HW2 8996   1.302   0.214   3.771  0.9615  0.3140  0.9103
 2238SOL    HW3 8997   1.408   0.106   3.767 -0.0271 -0.6119 -0.8417
 2238SOL    MW4 8998   1.329   0.135   3.745 -0.0231  0.2023  0.1941
 2239SOL     OW 8999   1.319   0.376   3.849 -0.3462  0.0462 -0.2202
 2239SOL    HW2 9000   1.337   0.364   3.942  0.0710  1.2252 -0.1468
 2239SOL    HW3 9001   1.402   0.408   3.812 -0.8519  0.7260 -0.7782
 2239SOL    MW4 9002   1.333   0.379   3.856 -0.3577  0.2914 -0.2842
 2240SOL     OW 9003   1.550   0.499   3.756  0.2877 -0.2195 -0.0282
 2240SOL    HW2 9004   1.637   0.475   3.789  0.0815  0.6162  1.1807
 2240SOL    HW3 9005   1.545   0.593   3.770 -0.6440 -0.1945 -0.5118
 2240SOL    MW4 9006   1.561   0.508   3.762  0.1376 -0.1059  0.0677
 2241SOL     OW 9007   1.576   0.766   3.845 -0.2820  0.0975  0.3028
 2241SOL    HW2 9008   1.641   0.829   3.813 -0.8769 -0.0463 -1.2119
 2241SOL    HW3 9009   1.493   0.814   3.840 -0.3493  0.2179  2.0560
 2241SOL    MW4 9010   1.574   0.781   3.840 -0.3694  0.0944  0.3343
 2242SOL     OW 9011   1.359   0.935   3.758 -0.1541 -0.2832 -0.1116
 2242SOL    HW2 9012   1.368   1.022   3.797 -1.0281  1.2059 -3.1412
 2242SOL    HW3 9013   1.281   0.898   3.801 -1.3730  1.5045 -0.7250
 2242SOL    MW4 9014   1.350   0.942   3.769 -0.4303  0.1491 -0.5925
 2243SOL     OW 9015   1.377   1.154   3.937  0.0922  0.1812 -0.2369
 2243SOL    HW2 9016   1.293   1.192   3.910 -0.2586  0.0763  0.6902
 2243SOL    HW3 9017   1.442   1.217   3.906 -0.3199  0.2348 -1.0155
 2243SOL    MW4 9018   1.374   1.168   3.930 -0.0083  0.1744 -0.2174
 2244SOL     OW 9019   1.574   1.293   3.772 -0.1812  0.0397 -0.2266
 2244SOL    HW2 9020   1.652   1.261   3.818 -0.2348 -0.4444 -0.4725
 2244SOL    HW3 9021   1.562   1.382   3.805  0.1946 -0.0553  0.1725
 2244SOL    MW4 9022   1.583   1.300   3.783 -0.1386 -0.0366 -0.2065
 2245SOL     OW 9023   1.556   1.551   3.877 -0.4815 -0.0438 -0.2783
 2245SOL    HW2 9024   1.555   1.584   3.967 -1.1479  1.1149 -0.6931
 2245SOL    HW3 9025   1.639   1.581   3.842 -0.1362 -0.6615  0.0088
 2245SOL    MW4 9026   1.566   1.560   3.885 -0.5238  0.0277 -0.2954
 2246SOL     OW 9027   1.334   1.668   3.758  0.6530 -0.2984  0.5723
 2246SOL    HW2 9028   1.333   1.761   3.783 -0.1319  0.0051 -0.5528
 2246SOL    HW3 9029   1.420   1.637   3.785  1.1776  0.9401  0.3703
 2246SOL    MW4 9030   1.345   1.676   3.764  0.6188 -0.0949  0.3972
 2247SOL     OW 9031   1.353   1.929   3.849 -0.0931 -0.1729  0.2844
 2247SOL    HW2 9032   1.356   1.926   3.944  0.4959 -0.1274  0.2667
 2247SOL    HW3 9033   1.276   1.983   3.830 -1.6588 -2.1879  0.6965
 2247SOL    MW4 9034   1.343   1.936   3.859 -0.2221 -0.4326  0.3366
 2248SOL     OW 9035   1.572   2.074   3.754  0.0554  0.0427 -0.3656
 2248SOL    HW2 9036   1.505   2.017   3.791 -1.8031  2.2410 -0.2820
 2248SOL    HW3 9037   1.561   2.065   3.659  1.0866 -1.2109 -0.3937
 2248SOL    MW4 9038   1.562   2.065   3.746 -0.0536  0.1674 -0.3581
 2249SOL     OW 9039   0.633   1.996   4.515 -0.1902 -0.9606  0.3412
 2249SOL    HW2 9040   0.625   2.014   4.421  1.1493 -1.9560  0.0241
 2249SOL    HW3 9041   0.589   2.070   4.557 -1.8089 -1.0836 -1.0875
 2249SOL    MW4 9042   0.626   2.008   4.508 -0.2270 -1.1082  0.1106
 2250SOL     OW 9043   1.347   2.417   3.721 -0.2799 -0.5284  0.0974
 2250SOL    HW2 9044   1.425   2.379   3.761  0.0400  0.9965  0.9423
 2250SOL    HW3 9045   1.275   2.388   3.776 -0.1364 -0.6676  0.2123
 2250SOL    MW4 9046   1.348   2.408   3.733 -0.2187 -0.3455  0.2239
 2251SOL     OW 9047   1.339   2.671   3.807  0.6119 -0.4271 -0.7274
 2251SOL    HW2 9048   1.344   2.634   3.895 -1.3403  0.1422 -0.3683
 2251SOL    HW3 9049   1.320   2.597   3.750  2.1556 -0.8448 -0.7361
 2251SOL    MW4 9050   1.337   2.656   3.811  0.5581 -0.4070 -0.6812
 2252SOL     OW 9051   1.572   3.091   3.810  0.1675 -0.3053 -0.4056
 2252SOL    HW2 9052   1.588   3.086   3.904 -0.6946 -0.2164 -0.2525
 2252SOL    HW3 9053   1.553   3.000   3.784 -0.2105 -0.2361 -0.3783
 2252SOL    MW4 9054   1.572   3.078   3.819  0.0038 -0.2847 -0.3819
 2253SOL     OW 9055   2.338   3.268   4.857  0.1964 -0.3451 -0.3215
 2253SOL    HW2 9056   2.399   3.309   4.795  1.1841  0.8417  1.3981
 2253SOL    HW3 9057   2.384   3.190   4.888 -0.4063 -1.0840 -1.2440
 2253SOL    MW4 9058   2.352   3.263   4.853  0.2472 -0.2863 -0.2170
 2254SOL     OW 9059   1.351   3.229   3.717  0.4095  0.0138  0.2456
 2254SOL    HW2 9060   1.426   3.176   3.746  0.5786  0.2975  0.3393
 2254SOL    HW3 9061   1.363   3.312   3.763 -0.4165 -0.2268  0.8950
 2254SOL    MW4 9062   1.363   3.233   3.727  0.3229  0.0196  0.3438
 2255SOL     OW 9063   1.361   3.467   3.869  0.4227  0.3378  0.0480
 2255SOL    HW2 9064   1.273   3.503   3.858 -0.0788 -1.0872 -0.7699
 2255SOL    HW3 9065   1.419   3.532   3.826 -0.3999  0.4529 -0.9112
 2255SOL    MW4 9066   1.357   3.481   3.862  0.2478  0.1650 -0.1862
 2256SOL     OW 9067   1.545   3.618   3.734 -0.4105 -0.2611  0.0642
 2256SOL    HW2 9068   1.542   3.708   3.766  0.8967 -0.8482  1.8894
 2256SOL    HW3 9069   1.625   3.581   3.771 -1.2351 -2.3742 -0.1523
 2256SOL    MW4 9070   1.555   3.625   3.743 -0.3467 -0.6173  0.2763
 2257SOL     OW 9071   4.291   2.863   4.301  0.2206  0.7549  0.6473
 2257SOL    HW2 9072   4.275   2.859   4.395  0.6270  2.0750  0.7847
 2257SOL    HW3 9073   4.313   2.955   4.285 -0.7871  0.7491 -0.8773
 2257SOL    MW4 9074   4.292   2.875   4.311  0.1411  0.9284  0.4640
 2258SOL     OW 9075   1.336   4.020   3.769  0.0790  0.0453  0.6216
 2258SOL    HW2 9076   1.368   4.100   3.810 -2.0255  1.2897 -0.0745
 2258SOL    HW3 9077   1.347   4.035   3.676 -0.3422 -0.4604  0.4891
 2258SOL    MW4 9078   1.342   4.033   3.762 -0.2542  0.1426  0.5124
 2259SOL     OW 9079   0.884   3.476   4.187  0.5357  0.4250  0.0655
 2259SOL    HW2 9080   0.885   3.492   4.093  1.5397  1.9789  0.3361
 2259SOL    HW3 9081   0.901   3.382   4.195 -1.3664 -0.0817 -1.3539
 2259SOL    MW4 9082   0.886   3.465   4.176  0.4173  0.5634 -0.0863
 2260SOL     OW 9083   1.594   4.412   3.729 -0.2068 -0.4007  0.2033
 2260SOL    HW2 9084   1.654   4.345   3.763 -0.9414 -0.8542  0.6247
 2260SOL    HW3 9085   1.581   4.389   3.638  0.3360 -0.2434  0.0831
 2260SOL    MW4 9086   1.600   4.401   3.722 -0.2320 -0.4401  0.2432
 2261SOL     OW 9087   1.981   4.638   3.840  0.1669  0.4391 -0.1186
 2261SOL    HW2 9088   2.044   4.706   3.814  2.4194 -1.5254  0.0141
 2261SOL    HW3 9089   1.967   4.654   3.934  0.8450  0.6326 -0.0419
 2261SOL    MW4 9090   1.988   4.649   3.849  0.5536  0.2055 -0.0908
 2262SOL     OW 9091   1.791   0.127   3.707 -0.4162  0.0259  0.3078
 2262SOL    HW2 9092   1.852   0.066   3.748 -0.6794 -0.4059  0.0645
 2262SOL    HW3 9093   1.705   0.099   3.738 -0.6695 -0.6761 -0.9977
 2262SOL    MW4 9094   1.788   0.115   3.716 -0.4846 -0.1236  0.1035
 2263SOL     OW 9095   1.787   0.369   3.820  0.7068 -0.0047  0.4494
 2263SOL    HW2 9096   1.812   0.290   3.772  1.4483  0.4225  0.1200
 2263SOL    HW3 9097   1.804   0.347   3.912 -0.5256 -0.7512  0.5041
 2263SOL    MW4 9098   1.793   0.355   3.826  0.6422 -0.0468  0.4132
 2264SOL     OW 9099   1.984   0.545   3.756  0.2904 -0.6404  0.2632
 2264SOL    HW2 9100   1.912   0.486   3.775  0.0474 -0.8681 -1.2582
 2264SOL    HW3 9101   2.012   0.521   3.667  0.6495  1.0324 -0.1020
 2264SOL    MW4 9102   1.978   0.534   3.746  0.3059 -0.4497  0.0143
 2265SOL     OW 9103   1.977   0.806   3.885 -0.4183  0.3444  0.5573
 2265SOL    HW2 9104   1.967   0.730   3.827 -0.5715  1.3916 -0.8275
 2265SOL    HW3 9105   2.061   0.845   3.859 -0.2430  0.5456  1.3962
 2265SOL    MW4 9106   1.987   0.801   3.874 -0.4153  0.5091  0.4852
 2266SOL     OW 9107   1.778   0.950   3.764  0.0921 -0.4721  0.5661
 2266SOL    HW2 9108   1.852   0.904   3.803 -0.6238 -1.2906  0.9864
 2266SOL    HW3 9109   1.773   0.917   3.675 -0.5308 -1.3585  0.9228
 2266SOL    MW4 9110   1.787   0.940   3.758 -0.0846 -0.6971  0.6685
 2267SOL     OW 9111   1.820   1.204   3.881  0.2399 -0.2213 -0.1993
 2267SOL    HW2 9112   1.817   1.191   3.975  0.9498  0.7914 -0.0398
 2267SOL    HW3 9113   1.813   1.115   3.845 -0.1886 -0.5968  0.7847
 2267SOL    MW4 9114   1.818   1.190   3.888  0.2770 -0.1371 -0.0484
 2268SOL     OW 9115   2.046   1.324   3.756 -0.4165  0.0657  0.3122
 2268SOL    HW2 9116   2.125   1.278   3.786 -0.3489 -0.5897 -0.8404
 2268SOL    HW3 9117   1.975   1.283   3.804 -0.5533 -2.4621 -1.9219
 2268SOL    MW4 9118   2.047   1.312   3.766 -0.4253 -0.3543 -0.1349
 2269SOL     OW 9119   1.786   1.671   3.774  0.0171 -0.2901  0.7988
 2269SOL    HW2 9120   1.794   1.764   3.797  0.8151 -0.3053  0.5824
 2269SOL    HW3 9121   1.797   1.668   3.679 -1.6508 -0.4255  0.5799
 2269SOL    MW4 9122   1.788   1.683   3.765 -0.0976 -0.3099  0.7412
 2270SOL     OW 9123   1.999   1.565   3.911  0.0043 -0.1364 -0.1704
 2270SOL    HW2 9124   1.918   1.601   3.875 -0.7328 -0.8673  0.7339
 2270SOL    HW3 9125   2.012   1.483   3.863  0.3968  0.1497 -0.5553
 2270SOL    MW4 9126   1.990   1.559   3.900 -0.0411 -0.1951 -0.1020
 2271SOL     OW 9127   1.740   4.041   4.528 -0.0097 -0.0152  0.8235
 2271SOL    HW2 9128   1.667   4.068   4.584 -0.8026 -0.2468 -0.0762
 2271SOL    HW3 9129   1.737   3.946   4.528  0.6516 -0.0336  1.2492
 2271SOL    MW4 9130   1.730   4.032   4.535 -0.0271 -0.0482  0.7610
 2272SOL     OW 9131   4.248   2.863   4.576  0.1798  0.1468 -0.3069
 2272SOL    HW2 9132   4.238   2.949   4.616 -1.4639  0.1657 -0.7150
 2272SOL    HW3 9133   4.161   2.822   4.585  1.3165 -2.0291  1.1740
 2272SOL    MW4 9134   4.235   2.869   4.582  0.1125 -0.1376 -0.1655
 2273SOL     OW 9135   1.769   2.668   3.908  0.2843  0.4114  0.3830
 2273SOL    HW2 9136   1.831   2.724   3.861 -0.4615  0.2916 -0.7577
 2273SOL    HW3 9137   1.767   2.587   3.857 -0.5644  0.2935  0.6088
 2273SOL    MW4 9138   1.777   2.664   3.895  0.0739  0.3800  0.2620
 2274SOL     OW 9139   1.565   2.808   3.764 -0.2912 -0.0966  0.4256
 2274SOL    HW2 9140   1.631   2.756   3.810 -1.4807  0.4819  2.8913
 2274SOL    HW3 9141   1.482   2.764   3.782 -0.9340  0.8827 -0.1012
 2274SOL    MW4 9142   1.563   2.796   3.773 -0.5329  0.1090  0.6814
 2275SOL     OW 9143   1.554   2.326   3.868 -0.3687  0.1004 -0.1757
 2275SOL    HW2 9144   1.554   2.234   3.844 -0.4198  0.4135 -1.4054
 2275SOL    HW3 9145   1.631   2.362   3.825 -0.4330  0.6628  0.1775
 2275SOL    MW4 9146   1.564   2.319   3.859 -0.3840  0.2155 -0.2916
 2276SOL     OW 9147   1.564   2.813   3.479  0.0832 -0.0109 -0.8296
 2276SOL    HW2 9148   1.575   2.823   3.573  0.7093  0.5701 -0.9612
 2276SOL    HW3 9149   1.563   2.902   3.445  1.4491 -0.2522 -1.5449
 2276SOL    MW4 9150   1.565   2.826   3.487  0.3461  0.0341 -0.9410
 2277SOL     OW 9151   1.978   3.093   3.876  0.8511 -0.2328  0.3160
 2277SOL    HW2 9152   2.056   3.139   3.845  0.3177  0.7507  0.3994
 2277SOL    HW3 9153   1.981   3.102   3.972  0.4126  0.1919  0.2943
 2277SOL    MW4 9154   1.988   3.100   3.885  0.7229 -0.0470  0.3242
 2278SOL     OW 9155   1.786   3.244   3.725  0.2215 -0.6163  0.1872
 2278SOL    HW2 9156   1.844   3.187   3.775 -0.6524 -2.0082 -0.3467
 2278SOL    HW3 9157   1.701   3.201   3.729 -0.9702  1.7661  1.5647
 2278SOL    MW4 9158   1.782   3.231   3.732 -0.0510 -0.4857  0.2983
 2279SOL     OW 9159   1.783   3.517   3.818  0.0675  0.0082 -0.0656
 2279SOL    HW2 9160   1.861   3.565   3.791 -1.2556  0.9995 -2.2396
 2279SOL    HW3 9161   1.788   3.433   3.772 -1.3633  1.0512 -2.1837
 2279SOL    MW4 9162   1.794   3.512   3.808 -0.2958  0.2768 -0.6318
 2280SOL     OW 9163   2.044   3.597   3.757  0.3108 -0.1170  0.0970
 2280SOL    HW2 9164   2.115   3.542   3.790 -0.6390 -1.3235  0.1668
 2280SOL    HW3 9165   2.043   3.583   3.663  0.3727  0.1603  0.0531
 2280SOL    MW4 9166   2.053   3.588   3.749  0.1938 -0.2398  0.1004
 2281SOL     OW 9167   2.025   3.854   3.851  0.3289 -0.2286  0.1632
 2281SOL    HW2 9168   2.039   3.763   3.825 -0.2228 -0.0639 -0.7062
 2281SOL    HW3 9169   2.099   3.901   3.814 -0.5655  0.0406 -1.3209
 2281SOL    MW4 9170   2.037   3.848   3.843  0.1383 -0.1714 -0.1473
 2282SOL     OW 9171   1.540   3.848   3.878 -0.2474 -0.0339 -0.5994
 2282SOL    HW2 9172   1.518   3.839   3.971  1.4139  2.6513  0.1123
 2282SOL    HW3 9173   1.473   3.906   3.842 -0.1077  0.0260 -0.7647
 2282SOL    MW4 9174   1.528   3.854   3.886 -0.0099  0.3281 -0.5271
 2283SOL     OW 9175   1.755   4.206   3.820  0.4129 -0.0318  0.2952
 2283SOL    HW2 9176   1.838   4.243   3.792  0.1226 -0.0409 -0.5889
 2283SOL    HW3 9177   1.762   4.112   3.801  0.8384 -0.3176  1.7821
 2283SOL    MW4 9178   1.767   4.198   3.814  0.4308 -0.0710  0.3748
 2284SOL     OW 9179   1.984   4.363   3.769 -0.1965 -0.0066  0.0906
 2284SOL    HW2 9180   2.008   4.455   3.784  1.4462 -0.3550 -0.3168
 2284SOL    HW3 9181   1.989   4.352   3.674 -0.5277 -0.4896  0.1252
 2284SOL    MW4 9182   1.988   4.374   3.759 -0.0235 -0.1168  0.0415
 2285SOL     OW 9183   2.432   0.063   3.861  0.2132 -0.0770 -0.9856
 2285SOL    HW2 9184   2.522   0.061   3.828  0.2850  1.4574 -0.8989
 2285SOL    HW3 9185   2.440   0.051   3.955  0.3691  0.6222 -0.9095
 2285SOL    MW4 9186   2.445   0.061   3.869  0.2434  0.2177 -0.9642
 2286SOL     OW 9187   2.181   0.154   3.762  0.4319  0.4225  0.5902
 2286SOL    HW2 9188   2.262   0.117   3.796  0.4899 -0.1514 -0.1386
 2286SOL    HW3 9189   2.201   0.175   3.671  0.0885  1.3053  0.7176
 2286SOL    MW4 9190   2.194   0.152   3.754  0.3946  0.4633  0.5105
 2287SOL     OW 9191   2.175   0.406   3.892  0.1648  0.0026 -0.2233
 2287SOL    HW2 9192   2.160   0.321   3.851  0.8100 -0.2276  0.0157
 2287SOL    HW3 9193   2.111   0.464   3.850 -1.8680 -1.1138  1.2882
 2287SOL    MW4 9194   2.164   0.402   3.881 -0.0184 -0.1751  0.0079
 2288SOL     OW 9195   2.433   0.506   3.773 -0.1222  0.2551 -0.3352
 2288SOL    HW2 9196   2.432   0.521   3.679  0.3806 -0.9173 -0.5231
 2288SOL    HW3 9197   2.350   0.461   3.791 -0.5475  1.1111 -0.1040
 2288SOL    MW4 9198   2.422   0.502   3.763 -0.1121  0.2134 -0.3297
 2289SOL     OW 9199   2.464   0.752   3.877 -0.1791 -0.7843 -0.3745
 2289SOL    HW2 9200   2.463   0.660   3.850 -0.0860 -0.6963 -0.6778
 2289SOL    HW3 9201   2.458   0.749   3.973 -2.4693 -1.0456 -0.4858
 2289SOL    MW4 9202   2.463   0.739   3.886 -0.4694 -0.8072 -0.4289
 2290SOL     OW 9203   2.228   0.879   3.787  0.5619  0.2340  0.3868
 2290SOL    HW2 9204   2.310   0.834   3.808 -0.4944 -1.1967  1.5415
 2290SOL    HW3 9205   2.224   0.880   3.692  0.0462 -3.2414  0.3316
 2290SOL    MW4 9206   2.238   0.874   3.777  0.3548 -0.4134  0.5319
 2291SOL     OW 9207   2.237   1.149   3.872  0.1985  0.0359  0.1132
 2291SOL    HW2 9208   2.242   1.150   3.968  0.2639 -1.7081  0.1482
 2291SOL    HW3 9209   2.241   1.056   3.849 -1.1720  0.3500 -1.5170
 2291SOL    MW4 9210   2.238   1.137   3.882  0.0265 -0.1527 -0.0975
 2292SOL     OW 9211   2.467   1.295   3.795  0.2875 -0.1250  0.1626
 2292SOL    HW2 9212   2.454   1.385   3.826  0.6295  0.2624 -0.8116
 2292SOL    HW3 9213   2.384   1.251   3.815  0.0681  0.4378  0.5138
 2292SOL    MW4 9214   2.454   1.301   3.802  0.3035  0.0002  0.0806
 2293SOL     OW 9215   2.446   1.546   3.899 -0.5632  0.6908  0.3561
 2293SOL    HW2 9216   2.523   1.594   3.868 -1.1700  0.7394 -1.0945
 2293SOL    HW3 9217   2.372   1.599   3.873 -1.1268  0.2786  1.1024
 2293SOL    MW4 9218   2.447   1.559   3.891 -0.7174  0.6428  0.2630
 2294SOL     OW 9219   2.230   1.663   3.774 -0.3928  0.0340 -0.1586
 2294SOL    HW2 9220   2.149   1.637   3.817  0.6353 -0.0179  1.8046
 2294SOL    HW3 9221   2.240   1.756   3.797 -0.2698  0.2434 -1.0246
 2294SOL    MW4 9222   2.221   1.672   3.782 -0.2408  0.0547 -0.0136
 2295SOL     OW 9223   2.023   2.319   3.881 -0.1774 -0.2783 -0.1895
 2295SOL    HW2 9224   2.026   2.314   3.977  3.5417  0.9179 -0.1615
 2295SOL    HW3 9225   2.040   2.230   3.852 -2.0762 -0.7993  0.2235
 2295SOL    MW4 9226   2.026   2.307   3.890  0.0625 -0.1893 -0.1314
 2296SOL     OW 9227   2.261   1.909   3.902  0.0324 -0.4461  0.1353
 2296SOL    HW2 9228   2.253   1.905   3.997  0.5047  0.1531  0.2016
 2296SOL    HW3 9229   2.187   1.962   3.874  0.1669 -0.2215  0.2072
 2296SOL    MW4 9230   2.250   1.915   3.911  0.1123 -0.3375  0.1535
 2297SOL     OW 9231   2.216   2.471   3.757 -0.5266 -0.1125  0.0722
 2297SOL    HW2 9232   2.137   2.428   3.790 -0.4093 -0.4954 -0.1390
 2297SOL    HW3 9233   2.212   2.456   3.662  0.1851 -0.7824  0.1431
 2297SOL    MW4 9234   2.205   2.463   3.749 -0.4172 -0.2515  0.0539
 2298SOL     OW 9235   2.661   2.476   3.762  0.1174  0.1610  0.1285
 2298SOL    HW2 9236   2.594   2.433   3.815  0.2893  0.9175  0.9827
 2298SOL    HW3 9237   2.742   2.430   3.785 -0.1162 -0.8482 -1.0117
 2298SOL    MW4 9238   2.663   2.464   3.772  0.1090  0.1276  0.0908
 2299SOL     OW 9239   3.265   3.460   4.559 -0.2327 -0.4699 -0.4318
 2299SOL    HW2 9240   3.298   3.375   4.588  1.7106  0.0493 -0.9739
 2299SOL    HW3 9241   3.172   3.459   4.578  0.4167 -1.3202  2.9892
 2299SOL    MW4 9242   3.257   3.449   4.565  0.1097 -0.5136 -0.0520
 2300SOL     OW 9243   4.234   3.128   4.672 -0.1205 -0.6352  0.0488
 2300SOL    HW2 9244   4.230   3.174   4.756 -2.2020  1.2549 -1.0323
 2300SOL    HW3 9245   4.316   3.159   4.632  0.0195 -0.2092  0.6578
 2300SOL    MW4 9246   4.244   3.138   4.678 -0.3767 -0.3295 -0.0134
 2301SOL     OW 9247   2.689   3.463   3.879 -0.8401  0.1734 -0.5719
 2301SOL    HW2 9248   2.757   3.514   3.835  0.4389  0.1880  1.3553
 2301SOL    HW3 9249   2.690   3.378   3.835  0.1939  0.2890 -0.7792
 2301SOL    MW4 9250   2.698   3.458   3.868 -0.5350  0.1905 -0.3450
 2302SOL     OW 9251   2.232   3.182   3.786  0.1760 -0.0634  0.1027
 2302SOL    HW2 9252   2.237   3.276   3.804  0.4440 -0.1388  0.4312
 2302SOL    HW3 9253   2.316   3.147   3.817 -0.2587 -0.5379  0.7629
 2302SOL    MW4 9254   2.244   3.190   3.793  0.1543 -0.1361  0.2332
 2303SOL     OW 9255   2.437   1.559   4.181 -0.0914 -0.0474  0.4435
 2303SOL    HW2 9256   2.455   1.558   4.087 -1.1546 -1.0427  0.2345
 2303SOL    HW3 9257   2.443   1.467   4.207 -3.2999 -0.2523  0.6463
 2303SOL    MW4 9258   2.440   1.547   4.172 -0.6549 -0.2058  0.4430
 2304SOL     OW 9259   2.509   3.627   3.509  0.4089 -0.0374 -0.2549
 2304SOL    HW2 9260   2.432   3.585   3.470 -0.0854  1.1284 -0.5460
 2304SOL    HW3 9261   2.511   3.714   3.470  0.5504  0.7580  1.5023
 2304SOL    MW4 9262   2.499   3.633   3.499  0.3624  0.2213 -0.0613
 2305SOL     OW 9263   0.029   3.259   4.334  0.3695 -0.3496 -0.1079
 2305SOL    HW2 9264  -0.050   3.219   4.297  0.7954 -0.6730 -0.6802
 2305SOL    HW3 9265   0.029   3.348   4.299  0.5491 -0.5235 -0.5514
 2305SOL    MW4 9266   0.019   3.266   4.324  0.4497 -0.4153 -0.2413
 2306SOL     OW 9267   2.232   4.005   3.767 -0.0066  0.2811 -0.1666
 2306SOL    HW2 9268   2.298   3.948   3.807  1.5580  3.0749  1.4730
 2306SOL    HW3 9269   2.245   3.994   3.673  3.4021  1.3046  0.1055
 2306SOL    MW4 9270   2.243   3.996   3.760  0.6495  0.7849  0.0858
 2307SOL     OW 9271   2.241   4.279   3.827  0.0815 -0.0504  0.5836
 2307SOL    HW2 9272   2.237   4.184   3.814  0.3678  0.0790 -0.5169
 2307SOL    HW3 9273   2.153   4.310   3.807 -0.0096 -0.0867  0.9354
 2307SOL    MW4 9274   2.229   4.271   3.823  0.1073 -0.0381  0.4847
 2308SOL     OW 9275   2.464   4.440   3.770  0.2026  0.2058  0.0799
 2308SOL    HW2 9276   2.386   4.386   3.780  0.8897 -0.3668  2.6007
 2308SOL    HW3 9277   2.444   4.521   3.818  0.7854  0.4380 -0.0560
 2308SOL    MW4 9278   2.451   4.444   3.778  0.3700  0.1612  0.3946
 2309SOL     OW 9279   2.946   0.000   3.901 -0.1259  0.2848 -0.0476
 2309SOL    HW2 9280   2.960   0.019   3.994  0.3169 -0.1602 -0.0240
 2309SOL    HW3 9281   3.001   0.065   3.856  0.3538 -0.0726  0.0160
 2309SOL    MW4 9282   2.955   0.011   3.908 -0.0043  0.1788 -0.0360
 2310SOL     OW 9283   2.688   0.077   3.774  0.1738  0.3001  0.0434
 2310SOL    HW2 9284   2.707   0.170   3.783  1.7276  0.1694 -1.5060
 2310SOL    HW3 9285   2.759   0.033   3.820 -1.2184 -0.1178  1.8163
 2310SOL    MW4 9286   2.700   0.083   3.781  0.1953  0.2277  0.0730
 2311SOL     OW 9287   2.660   0.355   3.821  0.0158  0.3909 -0.1489
 2311SOL    HW2 9288   2.655   0.349   3.916  0.5456 -1.0061 -0.2001
 2311SOL    HW3 9289   2.582   0.406   3.796  0.2302  1.3248  1.0656
 2311SOL    MW4 9290   2.649   0.361   3.830  0.1140  0.3298  0.0048
 2312SOL     OW 9291   2.937   0.513   3.780  0.3690 -0.2362  0.2690
 2312SOL    HW2 9292   3.005   0.458   3.819  0.6621  0.1941  0.3745
 2312SOL    HW3 9293   2.855   0.469   3.801  0.5924 -0.5640  0.4601
 2312SOL    MW4 9294   2.935   0.500   3.788  0.4373 -0.2227  0.3083
 2313SOL     OW 9295   3.173   0.903   3.762  0.0186 -0.0107  0.6220
 2313SOL    HW2 9296   3.097   0.871   3.810  0.9714 -2.1779  0.7674
 2313SOL    HW3 9297   3.146   0.900   3.670  0.0623 -1.2361  0.6362
 2313SOL    MW4 9298   3.160   0.898   3.756  0.1500 -0.4584  0.6430
 2314SOL     OW 9299   2.944   0.777   3.892  0.5395 -0.3576  0.4477
 2314SOL    HW2 9300   2.933   0.691   3.852  1.0916 -0.6226  0.8467
 2314SOL    HW3 9301   2.926   0.762   3.985 -1.2868  0.3612  0.2242
 2314SOL    MW4 9302   2.941   0.763   3.899  0.3715 -0.2977  0.4711
 2315SOL     OW 9303   2.714   1.144   3.928  0.1848  0.1929 -0.0970
 2315SOL    HW2 9304   2.704   1.059   3.885  0.7391  0.0824 -0.0111
 2315SOL    HW3 9305   2.639   1.195   3.898 -0.6700 -0.6408  0.5840
 2315SOL    MW4 9306   2.703   1.139   3.918  0.1454  0.0682  0.0043
 2316SOL     OW 9307   2.934   1.260   3.799 -0.3260  0.2140 -0.1316
 2316SOL    HW2 9308   2.925   1.353   3.821 -2.9189  0.7341 -3.0043
 2316SOL    HW3 9309   2.856   1.219   3.836 -0.1598 -0.4747 -0.5240
 2316SOL    MW4 9310   2.922   1.267   3.807 -0.6459  0.1917 -0.5624
 2317SOL     OW 9311   2.898   1.518   3.887 -0.3714 -0.0010 -0.4341
 2317SOL    HW2 9312   2.889   1.530   3.982 -1.1835 -0.9249 -0.3820
 2317SOL    HW3 9313   2.983   1.555   3.866 -0.3435  0.5429  0.6043
 2317SOL    MW4 9314   2.908   1.525   3.897 -0.4747 -0.0511 -0.2902
 2318SOL     OW 9315   2.673   1.682   3.806 -0.3925  0.3279  0.5959
 2318SOL    HW2 9316   2.738   1.616   3.830 -0.5717  0.6343  2.0007
 2318SOL    HW3 9317   2.675   1.685   3.711  0.1016 -1.2203  0.5446
 2318SOL    MW4 9318   2.682   1.674   3.797 -0.3510  0.1640  0.7746
 2319SOL     OW 9319   2.701   1.955   3.877  0.1311 -0.0998 -0.1891
 2319SOL    HW2 9320   2.678   1.865   3.855  0.8443 -0.1781 -0.6262
 2319SOL    HW3 9321   2.627   2.007   3.845 -0.2680 -0.5260  0.0459
 2319SOL    MW4 9322   2.688   1.950   3.870  0.1726 -0.1665 -0.2158
 2320SOL     OW 9323   2.934   2.105   3.800 -0.3524 -0.1695  0.2958
 2320SOL    HW2 9324   2.931   2.198   3.822 -0.1057 -0.0138 -0.3335
 2320SOL    HW3 9325   2.846   2.072   3.822 -0.5545  0.2868  0.1608
 2320SOL    MW4 9326   2.922   2.113   3.806 -0.3462 -0.0887  0.1948
 2321SOL     OW 9327   3.121   2.473   3.783  0.1137 -0.5610 -0.5030
 2321SOL    HW2 9328   3.111   2.482   3.688  2.5633  0.5874 -0.6788
 2321SOL    HW3 9329   3.143   2.561   3.813  1.9813 -1.4451  0.7716
 2321SOL    MW4 9330   3.123   2.486   3.774  0.6833 -0.5264 -0.3579
 2322SOL     OW 9331   0.552   2.846   4.513  0.1755  0.0770  0.5892
 2322SOL    HW2 9332   0.460   2.821   4.518  0.0737  0.5792  1.1531
 2322SOL    HW3 9333   0.596   2.790   4.577  0.3856 -0.7275 -0.2474
 2322SOL    MW4 9334   0.546   2.835   4.522  0.1898  0.0370  0.5531
 2323SOL     OW 9335   2.471   3.078   3.920 -0.3686 -0.5691 -0.2118
 2323SOL    HW2 9336   2.461   2.983   3.908  0.0715 -0.6733  0.2066
 2323SOL    HW3 9337   2.470   3.090   4.015 -0.1973 -0.1816 -0.2577
 2323SOL    MW4 9338   2.470   3.067   3.931 -0.2880 -0.5319 -0.1624
 2324SOL     OW 9339   2.956   2.868   3.793 -0.3909 -0.1103  0.2054
 2324SOL    HW2 9340   2.881   2.817   3.824 -0.8268 -0.5374 -1.4999
 2324SOL    HW3 9341   2.950   2.951   3.840 -0.0738 -1.3610  2.4935
 2324SOL    MW4 9342   2.945   2.872   3.803 -0.4067 -0.3316  0.2820
 2325SOL     OW 9343   2.909   3.129   3.858  0.4669 -0.0820 -0.6559
 2325SOL    HW2 9344   2.977   3.192   3.834  1.3781 -0.8227 -0.0435
 2325SOL    HW3 9345   2.911   3.126   3.953 -1.3473  0.8882 -0.5753
 2325SOL    MW4 9346   2.918   3.137   3.867  0.3479 -0.0520 -0.5646
 2326SOL     OW 9347   3.606   0.626   4.644 -0.3931  0.3186  0.3030
 2326SOL    HW2 9348   3.676   0.563   4.625  0.9223  1.6182  0.7651
 2326SOL    HW3 9349   3.525   0.580   4.622  0.6496 -0.9888 -0.8260
 2326SOL    MW4 9350   3.604   0.612   4.639 -0.0823  0.3175  0.2151
 2327SOL     OW 9351   2.669   3.201   3.748 -0.3842  0.3061  0.5034
 2327SOL    HW2 9352   2.606   3.157   3.804  0.0940 -0.0423  0.7707
 2327SOL    HW3 9353   2.754   3.180   3.786 -0.0508  0.0668 -0.3507
 2327SOL    MW4 9354   2.672   3.193   3.760 -0.2770  0.2286  0.4261
 2328SOL     OW 9355   2.894   3.635   3.778 -0.1400 -0.0008  0.4093
 2328SOL    HW2 9356   2.967   3.589   3.820  0.5858  0.4458 -0.3600
 2328SOL    HW3 9357   2.909   3.624   3.684  0.6951  2.7379  0.1706
 2328SOL    MW4 9358   2.906   3.628   3.771  0.0660  0.4196  0.2763
 2329SOL     OW 9359   2.873   3.893   3.855 -0.3193  0.0333  0.0499
 2329SOL    HW2 9360   2.866   3.888   3.950 -2.5943 -1.4854 -0.1534
 2329SOL    HW3 9361   2.889   3.802   3.828 -0.4385  0.3385 -1.0715
 2329SOL    MW4 9362   2.874   3.880   3.864 -0.6354 -0.1271 -0.1247
 2330SOL     OW 9363   2.647   4.033   3.778  0.0357 -0.1465  0.0988
 2330SOL    HW2 9364   2.652   4.121   3.815  0.6689  0.2739 -0.9577
 2330SOL    HW3 9365   2.718   3.985   3.821  0.7906  0.3461 -0.5881
 2330SOL    MW4 9366   2.657   4.039   3.789  0.2186 -0.0262 -0.1311
 2331SOL     OW 9367   2.691   4.307   3.854  0.3853 -0.3740 -0.3628
 2331SOL    HW2 9368   2.760   4.362   3.817 -0.4967 -0.1984 -1.7789
 2331SOL    HW3 9369   2.610   4.351   3.831 -0.2665 -1.3467  0.0293
 2331SOL    MW4 9370   2.690   4.320   3.846  0.1831 -0.4792 -0.4978
 2332SOL     OW 9371   2.928   4.430   3.746 -0.4094 -0.0262  0.0748
 2332SOL    HW2 9372   2.990   4.360   3.768 -1.7972 -1.2657  0.1369
 2332SOL    HW3 9373   2.947   4.500   3.808  1.1082 -0.2803 -0.0897
 2332SOL    MW4 9374   2.939   4.430   3.757 -0.3924 -0.2232  0.0613
 2333SOL     OW 9375   3.424   4.632   3.861 -0.1585 -0.3903  0.0023
 2333SOL    HW2 9376   3.412   4.653   3.953  1.5894 -0.6481  0.3057
 2333SOL    HW3 9377   3.496   4.688   3.832 -1.8969  1.0378 -1.7072
 2333SOL    MW4 9378   3.432   4.642   3.869 -0.1571 -0.2351 -0.1831
 2334SOL     OW 9379   3.179   0.116   3.792 -0.1049  0.2230  0.1117
 2334SOL    HW2 9380   3.251   0.056   3.811 -1.6515 -1.9155 -0.6955
 2334SOL    HW3 9381   3.167   0.111   3.698 -1.7884 -0.0115  0.3260
 2334SOL    MW4 9382   3.187   0.108   3.782 -0.5310 -0.0900  0.0334
 2335SOL     OW 9383   3.158   0.372   3.869 -0.3618  0.2141 -0.0073
 2335SOL    HW2 9384   3.177   0.280   3.851 -1.3897  0.0476 -0.2751
 2335SOL    HW3 9385   3.151   0.377   3.965 -0.4264 -0.0093 -0.0001
 2335SOL    MW4 9386   3.159   0.360   3.879 -0.5059  0.1626 -0.0415
 2336SOL     OW 9387   3.392   0.531   3.758  0.2588  0.1123  0.2504
 2336SOL    HW2 9388   3.475   0.502   3.796  0.8172  0.6960 -0.5107
 2336SOL    HW3 9389   3.326   0.475   3.798  1.1036 -0.8566  0.2900
 2336SOL    MW4 9390   3.394   0.520   3.768  0.4439  0.0615  0.1552
 2337SOL     OW 9391   1.686   1.742   4.338 -0.3321 -0.5517  0.0796
 2337SOL    HW2 9392   1.759   1.710   4.391  1.1489  1.5420 -0.6017
 2337SOL    HW3 9393   1.642   1.807   4.393 -0.0636  0.1026 -0.4659
 2337SOL    MW4 9394   1.690   1.746   4.352 -0.1013 -0.1893 -0.0825
 2338SOL     OW 9395   3.392   0.787   3.858 -0.2299 -0.3649 -0.2083
 2338SOL    HW2 9396   3.401   0.704   3.811 -0.9891 -1.4076  1.4611
 2338SOL    HW3 9397   3.312   0.826   3.823  0.6760  0.1658 -1.7295
 2338SOL    MW4 9398   3.382   0.781   3.847 -0.2108 -0.4325 -0.1888
 2339SOL     OW 9399   3.178   1.156   3.879  0.8927 -0.2325 -0.4341
 2339SOL    HW2 9400   3.194   1.076   3.831 -1.1846 -1.1808  0.3771
 2339SOL    HW3 9401   3.096   1.190   3.844  0.3120  0.0438  1.1247
 2339SOL    MW4 9402   3.169   1.150   3.868  0.5417 -0.3211 -0.1214
 2340SOL     OW 9403   3.396   1.269   3.752 -0.6721  0.6136 -0.2062
 2340SOL    HW2 9404   3.313   1.237   3.788  0.3240 -1.3969  0.3471
 2340SOL    HW3 9405   3.377   1.283   3.659 -0.9806 -2.3471 -0.6439
 2340SOL    MW4 9406   3.382   1.267   3.744 -0.5817 -0.0422 -0.1912
 2341SOL     OW 9407   3.354   1.527   3.901 -0.1977 -0.3090 -0.2514
 2341SOL    HW2 9408   3.350   1.523   3.996 -1.5318  0.0860 -0.2805
 2341SOL    HW3 9409   3.362   1.436   3.873  0.5735 -0.3982  0.2412
 2341SOL    MW4 9410   3.355   1.514   3.910 -0.2718 -0.2687 -0.1905
 2342SOL     OW 9411   3.121   1.642   3.788  0.4464 -0.3201  0.2411
 2342SOL    HW2 9412   3.115   1.735   3.808  0.4972 -0.2474 -0.0772
 2342SOL    HW3 9413   3.210   1.618   3.813  0.0751 -0.5383  1.3780
 2342SOL    MW4 9414   3.132   1.651   3.794  0.4041 -0.3394  0.3493
 2343SOL     OW 9415   3.115   1.911   3.868 -0.1344 -0.1963  0.1889
 2343SOL    HW2 9416   3.137   1.940   3.957 -0.8819 -1.1937  0.7080
 2343SOL    HW3 9417   3.064   1.982   3.831  0.0429  0.1529  0.6170
 2343SOL    MW4 9418   3.111   1.924   3.875 -0.2096 -0.2818  0.3138
 2344SOL     OW 9419   3.345   2.064   3.800 -0.0358 -0.2106  0.0732
 2344SOL    HW2 9420   3.262   2.030   3.833 -0.8094  1.3470 -0.2190
 2344SOL    HW3 9421   3.340   2.054   3.705 -0.0770  0.2937  0.0209
 2344SOL    MW4 9422   3.334   2.058   3.792 -0.1433  0.0615  0.0279
 2345SOL     OW 9423   2.048   3.352   4.599 -0.0839  0.1627 -0.3195
 2345SOL    HW2 9424   2.039   3.287   4.669  0.4966  1.5253  1.0366
 2345SOL    HW3 9425   1.976   3.331   4.539 -1.3075 -0.3192  1.2577
 2345SOL    MW4 9426   2.037   3.341   4.600 -0.1690  0.2789  0.0672
 2346SOL     OW 9427   3.346   2.337   3.887  0.2257  0.3213  0.3577
 2346SOL    HW2 9428   3.265   2.383   3.864  0.5869  0.7152 -0.1378
 2346SOL    HW3 9429   3.344   2.256   3.835 -0.3685 -0.1829  1.1641
 2346SOL    MW4 9430   3.335   2.333   3.877  0.1948  0.3064  0.3989
 2347SOL     OW 9431   3.163   2.716   3.892  0.6054  0.3246 -0.4408
 2347SOL    HW2 9432   3.143   2.710   3.985  0.6372 -1.1131 -0.5154
 2347SOL    HW3 9433   3.093   2.772   3.857  0.6409  0.9377  0.4515
 2347SOL    MW4 9434   3.151   2.722   3.900  0.6142  0.2158 -0.3331
 2348SOL     OW 9435   3.386   2.867   3.817  0.2001  0.0174 -0.2031
 2348SOL    HW2 9436   3.322   2.803   3.850 -1.3493  1.9689  0.6539
 2348SOL    HW3 9437   3.376   2.864   3.722 -1.2264  0.3341 -0.0805
 2348SOL    MW4 9438   3.376   2.858   3.809 -0.1924  0.3164 -0.0739
 2349SOL     OW 9439   3.343   3.127   3.913 -0.5136  0.1801 -0.3666
 2349SOL    HW2 9440   3.423   3.174   3.890  0.4673 -0.6746  1.1496
 2349SOL    HW3 9441   3.358   3.038   3.881 -0.3310 -0.2810  0.9472
 2349SOL    MW4 9442   3.356   3.122   3.906 -0.3600  0.0064  0.0069
 2350SOL     OW 9443   3.124   3.284   3.779  0.0144  0.2678 -0.2510
 2350SOL    HW2 9444   3.204   3.239   3.807  0.5170  0.6251 -1.0846
 2350SOL    HW3 9445   3.131   3.288   3.684 -0.7904  0.7016 -0.2959
 2350SOL    MW4 9446   3.136   3.279   3.770 -0.0255  0.3722 -0.3667
 2351SOL     OW 9447   3.122   3.531   3.894 -0.1634 -0.0310 -0.1369
 2351SOL    HW2 9448   3.206   3.573   3.876 -0.2922  0.3948  0.2541
 2351SOL    HW3 9449   3.133   3.441   3.863  0.4106  0.0468 -0.1610
 2351SOL    MW4 9450   3.135   3.524   3.888 -0.1049  0.0353 -0.0887
 2352SOL     OW 9451   3.357   3.633   3.799  0.0703  0.7170  0.2333
 2352SOL    HW2 9452   3.356   3.726   3.825  0.0389  0.8006 -0.0662
 2352SOL    HW3 9453   3.370   3.635   3.704 -2.7442  0.5034 -0.2027
 2352SOL    MW4 9454   3.359   3.646   3.790 -0.3054  0.7000  0.1361
 2353SOL     OW 9455   3.352   3.912   3.870  0.2557  0.4512 -0.2658
 2353SOL    HW2 9456   3.427   3.933   3.815  1.2673 -3.1505 -0.3388
 2353SOL    HW3 9457   3.276   3.944   3.821  1.4952  1.4178 -1.5882
 2353SOL    MW4 9458   3.352   3.919   3.857  0.5529  0.1035 -0.4501
 2354SOL     OW 9459   3.108   3.981   3.737  0.1604 -0.1028 -0.3378
 2354SOL    HW2 9460   3.130   4.072   3.756  0.4826 -0.2471 -0.0163
 2354SOL    HW3 9461   3.027   3.965   3.785  0.1032  0.0144 -0.3957
 2354SOL    MW4 9462   3.100   3.991   3.746  0.1950 -0.1063 -0.3030
 2355SOL     OW 9463   3.130   4.233   3.819 -0.1415 -0.0243  0.6505
 2355SOL    HW2 9464   3.140   4.217   3.913  1.0383 -0.7187  0.4113
 2355SOL    HW3 9465   3.209   4.281   3.795  0.6547 -1.8492 -0.4401
 2355SOL    MW4 9466   3.142   4.237   3.828  0.1192 -0.3567  0.4749
 2356SOL     OW 9467   3.367   4.365   3.747 -0.1471  0.1821  0.0165
 2356SOL    HW2 9468   3.431   4.313   3.796 -0.7078  0.6380  1.2429
 2356SOL    HW3 9469   3.370   4.452   3.787 -2.2877 -0.0690  0.7985
 2356SOL    MW4 9470   3.376   4.369   3.758 -0.5033  0.2093  0.2816
 2357SOL     OW 9471   3.862   0.006   3.879  0.3975  0.0756  0.2086
 2357SOL    HW2 9472   3.942   0.053   3.856  0.4571 -0.9968 -1.8728
 2357SOL    HW3 9473   3.870  -0.078   3.835 -0.1520 -1.5669  3.0862
 2357SOL    MW4 9474   3.873   0.001   3.870  0.3328 -0.2826  0.3138
 2358SOL     OW 9475   3.628   0.135   3.793  0.6904 -0.4306 -0.2532
 2358SOL    HW2 9476   3.707   0.091   3.823  0.7271  0.3924  0.9027
 2358SOL    HW3 9477   3.638   0.140   3.698  2.3680  0.2652 -0.0704
 2358SOL    MW4 9478   3.640   0.130   3.784  0.9167 -0.2302 -0.0763
 2359SOL     OW 9479   3.590   0.398   3.878  0.3869  0.3924 -0.0975
 2359SOL    HW2 9480   3.593   0.304   3.861  0.2718  0.1020  1.4494
 2359SOL    HW3 9481   3.676   0.429   3.849  1.2522 -0.5478  1.3777
 2359SOL    MW4 9482   3.602   0.390   3.872  0.4857  0.2300  0.3009
 2360SOL     OW 9483   3.822   0.494   3.826  0.1140  0.4243  0.0643
 2360SOL    HW2 9484   3.912   0.460   3.832  0.6426  1.5557 -1.1055
 2360SOL    HW3 9485   3.830   0.587   3.847 -0.2580  1.2011 -2.9255
 2360SOL    MW4 9486   3.835   0.502   3.829  0.1347  0.6761 -0.4842
 2361SOL     OW 9487   2.400   3.028   4.633 -0.3884 -0.1327  0.2011
 2361SOL    HW2 9488   2.373   3.111   4.594 -0.9349 -0.0815  0.6880
 2361SOL    HW3 9489   2.483   3.049   4.676  1.3420 -0.6919 -2.7283
 2361SOL    MW4 9490   2.408   3.042   4.634 -0.2322 -0.1998 -0.1211
 2362SOL     OW 9491   3.642   0.893   3.805 -0.1419 -0.3430 -0.2669
 2362SOL    HW2 9492   3.639   0.979   3.847 -1.1651 -1.0199  1.0752
 2362SOL    HW3 9493   3.553   0.860   3.811  0.2740 -1.5622 -0.6759
 2362SOL    MW4 9494   3.630   0.900   3.811 -0.2220 -0.5932 -0.1435
 2363SOL     OW 9495   3.616   1.155   3.870  0.4537  0.7621 -0.2640
 2363SOL    HW2 9496   3.689   1.208   3.838 -0.3818  1.4984 -0.9762
 2363SOL    HW3 9497   3.540   1.189   3.824 -0.2783 -0.2928  0.1465
 2363SOL    MW4 9498   3.616   1.166   3.860  0.2465  0.7201 -0.3037
 2364SOL     OW 9499   3.817   1.296   3.760  0.1549 -0.2511  0.1058
 2364SOL    HW2 9500   3.895   1.246   3.785  0.6538 -0.4942 -1.8563
 2364SOL    HW3 9501   3.825   1.378   3.809  1.0312 -0.7610  0.8312
 2364SOL    MW4 9502   3.829   1.300   3.770  0.3362 -0.3506 -0.0575
 2365SOL     OW 9503   3.820   1.566   3.853 -0.3610  0.1568 -0.6651
 2365SOL    HW2 9504   3.829   1.565   3.949 -0.0884 -1.1161 -0.6888
 2365SOL    HW3 9505   3.728   1.584   3.838 -0.3469  0.6630 -0.1630
 2365SOL    MW4 9506   3.809   1.568   3.864 -0.3235  0.0557 -0.6018
 2366SOL     OW 9507   3.564   1.676   3.807 -0.1196 -0.2494 -0.3570
 2366SOL    HW2 9508   3.490   1.620   3.831  0.4653 -0.6185  0.5950
 2366SOL    HW3 9509   3.546   1.701   3.716 -0.9156 -1.1332 -0.4543
 2366SOL    MW4 9510   3.552   1.672   3.798 -0.1476 -0.4148 -0.2441
 2367SOL     OW 9511   3.607   1.928   3.932  0.0867  0.1826  0.2941
 2367SOL    HW2 9512   3.586   1.843   3.896  0.1089 -0.4253  1.6744
 2367SOL    HW3 9513   3.526   1.979   3.921  0.1511  0.0719 -0.7457
 2367SOL    MW4 9514   3.593   1.924   3.926  0.0980  0.0879  0.3390
 2368SOL     OW 9515   3.827   2.107   3.780 -0.5906 -0.2460 -0.1316
 2368SOL    HW2 9516   3.907   2.065   3.811 -0.5288  0.7330  1.0683
 2368SOL    HW3 9517   3.756   2.060   3.822 -0.5996 -0.3604 -0.2745
 2368SOL    MW4 9518   3.828   2.096   3.789 -0.5834 -0.1318  0.0079
 2369SOL     OW 9519   3.796   2.366   3.864 -0.4522 -0.4353 -0.1474
 2369SOL    HW2 9520   3.715   2.387   3.818 -0.1312  0.8038 -0.1680
 2369SOL    HW3 9521   3.820   2.279   3.832 -1.5309 -0.6103 -0.4825
 2369SOL    MW4 9522   3.789   2.357   3.853 -0.5522 -0.2952 -0.1945
 2370SOL     OW 9523   3.568   2.434   3.738  0.1125 -0.1141 -0.4017
 2370SOL    HW2 9524   3.492   2.401   3.785  0.4872 -1.2825 -0.5950
 2370SOL    HW3 9525   3.541   2.439   3.647  0.2642 -0.5502 -0.4739
 2370SOL    MW4 9526   3.555   2.430   3.732  0.1822 -0.3254 -0.4365
 2371SOL     OW 9527   3.602   2.709   3.899  0.0079 -0.2613 -0.1621
 2371SOL    HW2 9528   3.591   2.622   3.862  0.0846  0.1738 -1.2125
 2371SOL    HW3 9529   3.525   2.758   3.869  0.8031  0.5116 -0.9798
 2371SOL    MW4 9530   3.590   2.704   3.890  0.1228 -0.1020 -0.4084
 2372SOL     OW 9531   3.831   2.862   3.842  0.0575  0.0298 -0.1754
 2372SOL    HW2 9532   3.907   2.809   3.866  0.1668 -0.7873 -2.2273
 2372SOL    HW3 9533   3.756   2.803   3.856  0.1029 -0.3707 -1.5423
 2372SOL    MW4 9534   3.831   2.847   3.847  0.0780 -0.1309 -0.6263
 2373SOL     OW 9535   3.793   3.126   3.939  0.1218 -0.0547 -0.4245
 2373SOL    HW2 9536   3.711   3.160   3.903 -0.3523 -0.4759  0.2331
 2373SOL    HW3 9537   3.795   3.035   3.910  0.4673  0.0207 -0.6301
 2373SOL    MW4 9538   3.782   3.118   3.930  0.1049 -0.1001 -0.3648
 2374SOL     OW 9539   3.562   3.255   3.825  0.0156 -0.5122  0.5672
 2374SOL    HW2 9540   3.569   3.347   3.850  1.3282 -0.4419  0.0166
 2374SOL    HW3 9541   3.574   3.255   3.730 -1.8607 -1.0782  0.3220
 2374SOL    MW4 9542   3.565   3.267   3.816 -0.0589 -0.5774  0.4623
 2375SOL     OW 9543   3.813   3.621   3.776 -0.0265 -0.1296  0.0426
 2375SOL    HW2 9544   3.897   3.580   3.796 -0.0704  0.2297  0.9600
 2375SOL    HW3 9545   3.749   3.571   3.828 -0.3033 -0.0307 -0.2025
 2375SOL    MW4 9546   3.815   3.609   3.786 -0.0689 -0.0691  0.1316
 2376SOL     OW 9547   4.077   3.510   3.894  0.1737 -0.4059  0.0840
 2376SOL    HW2 9548   4.071   3.516   3.990 -0.5043 -1.4642  0.1132
 2376SOL    HW3 9549   4.073   3.417   3.876  0.5599 -0.2197 -0.9724
 2376SOL    MW4 9550   4.075   3.499   3.904  0.1349 -0.5207 -0.0517
 2377SOL     OW 9551   1.351   4.013   4.278 -0.3249 -0.4100  0.2995
 2377SOL    HW2 9552   1.361   4.094   4.230 -0.1247 -0.2304  0.6361
 2377SOL    HW3 9553   1.273   3.972   4.242 -0.0817 -0.3547 -0.2838
 2377SOL    MW4 9554   1.342   4.018   4.267 -0.2664 -0.3786  0.2675
 2378SOL     OW 9555   3.625   4.001   3.782 -0.0243 -0.2913  0.3069
 2378SOL    HW2 9556   3.638   4.094   3.795  0.1472 -0.0329 -1.5941
 2378SOL    HW3 9557   3.694   3.959   3.833  0.0644  0.6265  0.9359
 2378SOL    MW4 9558   3.636   4.007   3.790  0.0100 -0.1359  0.1392
 2379SOL     OW 9559   3.600   4.263   3.860 -0.1820  0.1941 -0.1629
 2379SOL    HW2 9560   3.589   4.266   3.955 -1.2002  1.6144 -0.3185
 2379SOL    HW3 9561   3.666   4.329   3.841 -0.2034  0.1279 -0.4682
 2379SOL    MW4 9562   3.607   4.272   3.870 -0.3192  0.3724 -0.2239
 2380SOL     OW 9563   3.824   4.422   3.775 -0.5115 -0.2807  0.2323
 2380SOL    HW2 9564   3.890   4.361   3.808 -0.6429 -0.7425 -0.3526
 2380SOL    HW3 9565   3.836   4.421   3.680  0.0807  1.2853  0.2737
 2380SOL    MW4 9566   3.834   4.413   3.767 -0.4504 -0.1349  0.1607
 2381SOL     OW 9567   4.335   4.665   3.868 -0.6227  0.0418  0.1236
 2381SOL    HW2 9568   4.340   4.666   3.964 -1.2556  1.3480  0.1592
 2381SOL    HW3 9569   4.416   4.707   3.839 -0.7374  0.2611  0.1144
 2381SOL    MW4 9570   4.346   4.671   3.877 -0.7215  0.2432  0.1271
 2382SOL     OW 9571   4.107   0.129   3.796  0.4259  0.2449  0.2045
 2382SOL    HW2 9572   4.185   0.078   3.816  1.3304  1.6448  0.3686
 2382SOL    HW3 9573   4.100   0.125   3.700 -0.3678 -1.3909  0.3183
 2382SOL    MW4 9574   4.117   0.122   3.786  0.4406  0.2137  0.2413
 2383SOL     OW 9575   4.081   0.391   3.842 -0.8947  0.0676  0.1866
 2383SOL    HW2 9576   4.098   0.300   3.820  0.5755  0.6045 -0.9877
 2383SOL    HW3 9577   4.049   0.388   3.932 -1.5064 -1.6615 -0.0733
 2383SOL    MW4 9578   4.079   0.379   3.851 -0.7820 -0.0896 -0.0026
 2384SOL     OW 9579   4.318   0.530   3.790  0.3753 -0.2602  0.2200
 2384SOL    HW2 9580   4.243   0.475   3.809  0.8106 -1.3154 -1.0540
 2384SOL    HW3 9581   4.307   0.556   3.699  1.4043 -0.1864  0.1106
 2384SOL    MW4 9582   4.307   0.526   3.781  0.5689 -0.3897  0.0374
 2385SOL     OW 9583   4.285   0.780   3.888 -0.4026  0.0557 -0.0160
 2385SOL    HW2 9584   4.197   0.810   3.867  0.1313  1.0799 -0.8230
 2385SOL    HW3 9585   4.282   0.685   3.870 -1.2218  0.1546 -0.4361
 2385SOL    MW4 9586   4.273   0.771   3.883 -0.4401  0.2038 -0.1776
 2386SOL     OW 9587   4.043   0.871   3.790  0.6858 -0.0415  0.2746
 2386SOL    HW2 9588   4.014   0.956   3.825 -1.3659 -0.4057 -0.4860
 2386SOL    HW3 9589   4.052   0.886   3.696 -0.7377 -0.9344 -0.0156
 2386SOL    MW4 9590   4.040   0.884   3.782  0.2279 -0.2074  0.1359
 2387SOL     OW 9591   4.010   1.132   3.884  0.0974 -0.0174 -0.0940
 2387SOL    HW2 9592   4.024   1.125   3.979 -0.4009 -0.1906 -0.0288
 2387SOL    HW3 9593   4.081   1.188   3.853  1.5175 -1.6781  0.0617
 2387SOL    MW4 9594   4.021   1.138   3.893  0.2193 -0.2594 -0.0648
 2388SOL     OW 9595   4.201   1.307   3.814  0.1067 -0.2446 -0.1318
 2388SOL    HW2 9596   4.209   1.398   3.843  1.5055 -0.7506  1.1930
 2388SOL    HW3 9597   4.212   1.311   3.719 -0.5125  1.0351 -0.1618
 2388SOL    MW4 9598   4.204   1.319   3.805  0.2098 -0.1425  0.0389
 2389SOL     OW 9599   4.258   1.563   3.928  0.1359 -0.2332 -0.2466
 2389SOL    HW2 9600   4.199   1.597   3.860 -0.5569  0.3854  0.6629
 2389SOL    HW3 9601   4.346   1.575   3.892 -0.1461  1.6204 -0.3369
 2389SOL    MW4 9602   4.262   1.569   3.914  0.0076  0.0930 -0.1388
 2390SOL     OW 9603   4.071   1.666   3.756 -0.0929 -0.1467  0.1816
 2390SOL    HW2 9604   4.070   1.753   3.794 -0.4207 -0.8574  1.8144
 2390SOL    HW3 9605   3.982   1.633   3.769 -0.5462  0.0382 -2.2300
 2390SOL    MW4 9606   4.059   1.673   3.762 -0.1955 -0.2161  0.0787
 2391SOL     OW 9607   4.060   1.967   3.834  0.2422 -0.3535 -0.0472
 2391SOL    HW2 9608   4.069   1.946   3.927  0.1468  1.3959  0.3729
 2391SOL    HW3 9609   4.146   2.001   3.808 -0.5545  1.8895  0.1471
 2391SOL    MW4 9610   4.072   1.969   3.843  0.1245  0.1733  0.0339
 2392SOL     OW 9611   4.317   2.066   3.789  0.4664  0.4122  0.3534
 2392SOL    HW2 9612   4.307   2.155   3.822  1.1513  0.8717 -0.6761
 2392SOL    HW3 9613   4.319   2.075   3.694 -2.2745 -0.9770  0.1167
 2392SOL    MW4 9614   4.316   2.079   3.781  0.1945  0.2897  0.1862
 2393SOL     OW 9615   0.014   0.843   4.242  0.2928 -0.1626 -0.0439
 2393SOL    HW2 9616  -0.074   0.815   4.215 -0.0105  0.1952  0.5415
 2393SOL    HW3 9617   0.073   0.781   4.200 -0.2034  0.0043 -0.9913
 2393SOL    MW4 9618   0.010   0.831   4.233  0.1869 -0.0933 -0.0916
 2394SOL     OW 9619   4.019   2.469   3.535 -0.0380 -0.1857  0.0104
 2394SOL    HW2 9620   4.043   2.473   3.628 -2.6326 -0.0156  0.7130
 2394SOL    HW3 9621   4.024   2.559   3.505  0.6970 -0.2254  0.0034
 2394SOL    MW4 9622   4.023   2.481   3.543 -0.2837 -0.1683  0.1020
 2395SOL     OW 9623   4.280   2.336   3.884 -0.4015 -0.0987 -0.0367
 2395SOL    HW2 9624   4.197   2.367   3.847 -0.8992 -0.6839  0.5742
 2395SOL    HW3 9625   4.259   2.315   3.975  0.2765 -0.8018 -0.0350
 2395SOL    MW4 9626   4.266   2.337   3.891 -0.3777 -0.2685  0.0439
 2396SOL     OW 9627   4.235   2.866   3.789 -0.0522 -0.1147  0.0282
 2396SOL    HW2 9628   4.229   2.954   3.826  0.9169  0.4321 -1.0630
 2396SOL    HW3 9629   4.310   2.826   3.833 -0.6138 -0.4702  0.6670
 2396SOL    MW4 9630   4.244   2.872   3.800  0.0014 -0.0896 -0.0317
 2397SOL     OW 9631   4.039   3.246   3.820 -0.1545 -0.1229  0.0367
 2397SOL    HW2 9632   3.952   3.230   3.857 -0.4647  0.9469 -0.2125
 2397SOL    HW3 9633   4.025   3.242   3.725 -0.1430  1.0808 -0.0227
 2397SOL    MW4 9634   4.026   3.243   3.812 -0.1941  0.1771 -0.0038
 2398SOL     OW 9635   4.258   3.099   3.914 -0.2838 -0.0812  0.5058
 2398SOL    HW2 9636   4.338   3.143   3.886 -0.5257  0.1664  0.1971
 2398SOL    HW3 9637   4.187   3.159   3.889 -0.6267 -0.7103 -0.0524
 2398SOL    MW4 9638   4.259   3.113   3.907 -0.3610 -0.1316  0.3915
 2399SOL     OW 9639   4.447   0.318   4.146 -0.1776 -0.2418 -0.3458
 2399SOL    HW2 9640   4.483   0.236   4.178  1.8148  0.5850 -0.4104
 2399SOL    HW3 9641   4.491   0.332   4.062 -0.5865  0.8316 -0.3901
 2399SOL    MW4 9642   4.458   0.309   4.139  0.0319  0.0089 -0.3605
 2400SOL     OW 9643   4.309   3.642   3.774 -0.0391 -0.3413 -0.0102
 2400SOL    HW2 9644   4.228   3.605   3.810 -0.0554  0.0423  0.3450
 2400SOL    HW3 9645   4.379   3.600   3.824 -0.0811  0.5860  0.8389
 2400SOL    MW4 9646   4.307   3.632   3.786 -0.0467 -0.1686  0.1488
 2401SOL     OW 9647   4.305   3.895   3.890  0.8838 -0.2200 -0.3364
 2401SOL    HW2 9648   4.222   3.934   3.862  1.1825  0.9190  0.3599
 2401SOL    HW3 9649   4.308   3.811   3.843 -1.0443 -0.6611  0.2778
 2401SOL    MW4 9650   4.294   3.889   3.880  0.6685 -0.1278 -0.1633
 2402SOL     OW 9651   3.834   3.869   3.904 -0.2837  0.1325 -0.1319
 2402SOL    HW2 9652   3.909   3.917   3.869  0.0321 -0.5053 -0.3452
 2402SOL    HW3 9653   3.833   3.787   3.854 -1.3377  0.2902 -0.3737
 2402SOL    MW4 9654   3.844   3.865   3.892 -0.3810  0.0691 -0.1919
 2403SOL     OW 9655   4.030   4.264   3.881  0.3513  0.2257  0.0812
 2403SOL    HW2 9656   4.040   4.253   3.975  1.9622 -0.3668 -0.1527
 2403SOL    HW3 9657   4.099   4.325   3.856 -0.1741  0.5128 -0.6902
 2403SOL    MW4 9658   4.040   4.271   3.890  0.4945  0.1860 -0.0513
 2404SOL     OW 9659   4.270   4.404   3.811  0.1954  0.3849  0.4798
 2404SOL    HW2 9660   4.297   4.496   3.822  0.1237  0.3300  1.1303
 2404SOL    HW3 9661   4.352   4.355   3.816  0.2099  0.3921  0.3317
 2404SOL    MW4 9662   4.285   4.410   3.813  0.1879  0.3781  0.5460
 2405SOL     OW 9663   1.354   4.262   4.151 -0.1669  0.0364  0.2410
 2405SOL    HW2 9664   1.349   4.266   4.055 -0.6493 -0.9229  0.2105
 2405SOL    HW3 9665   1.284   4.320   4.181 -0.8119 -0.6000 -0.0115
 2405SOL    MW4 9666   1.344   4.270   4.142 -0.3157 -0.1740  0.2036
 2406SOL     OW 9667   0.663   0.243   4.632  0.1682  0.1794  0.1818
 2406SOL    HW2 9668   0.581   0.206   4.600  0.2306  0.4821 -0.3320
 2406SOL    HW3 9669   0.669   0.329   4.590  0.7890  0.1221  0.1470
 2406SOL    MW4 9670   0.653   0.250   4.622  0.2584  0.2118  0.1097
 2407SOL     OW 9671   2.685   0.588   4.654 -0.0835 -0.1066  0.1713
 2407SOL    HW2 9672   2.778   0.571   4.669  0.0509  0.5462  0.1023
 2407SOL    HW3 9673   2.649   0.504   4.627  0.4681 -0.3842  0.2953
 2407SOL    MW4 9674   2.692   0.575   4.652  0.0067 -0.0570  0.1783
 2408SOL     OW 9675   3.396   2.190   4.112  0.1308  0.2213 -0.6200
 2408SOL    HW2 9676   3.381   2.248   4.037  1.2786  0.1188 -0.9436
 2408SOL    HW3 9677   3.491   2.195   4.127  0.0445 -0.5225  0.2081
 2408SOL    MW4 9678   3.406   2.198   4.104  0.2708  0.1097 -0.5536
 2409SOL     OW 9679   3.122   1.521   4.549  0.6136  0.3484  0.5275
 2409SOL    HW2 9680   3.061   1.448   4.553 -0.4397  1.2871  2.2263
 2409SOL    HW3 9681   3.110   1.558   4.462 -0.2776 -0.2827  0.3785
 2409SOL    MW4 9682   3.113   1.516   4.538  0.3572  0.3890  0.7319
 2410SOL     OW 9683   1.922   3.001   4.505  0.5189 -0.0769 -0.4561
 2410SOL    HW2 9684   1.999   2.984   4.559 -0.6493  0.0532  1.2980
 2410SOL    HW3 9685   1.856   2.939   4.537 -0.5898  0.8739 -0.8470
 2410SOL    MW4 9686   1.923   2.990   4.517  0.2184  0.0658 -0.2761
 2411SOL     OW 9687   0.874   1.901   4.600  0.2454 -0.2465 -0.1630
 2411SOL    HW2 9688   0.779   1.913   4.594  0.2961  0.6513  0.7185
 2411SOL    HW3 9689   0.911   1.981   4.562  0.6224  0.4710  1.6359
 2411SOL    MW4 9690   0.867   1.913   4.594  0.3019 -0.0335  0.1907
 2412SOL     OW 9691   1.645   3.407   4.673  0.1645 -0.3825  0.4194
 2412SOL    HW2 9692   1.560   3.417   4.629  0.2055 -0.8728  0.2323
 2412SOL    HW3 9693   1.699   3.358   4.611  0.3348 -0.7599  0.8624
 2412SOL    MW4 9694   1.641   3.402   4.659  0.1924 -0.4969  0.4530
 2413SOL     OW 9695   3.422   1.621   4.668  0.4868 -0.1349 -0.0838
 2413SOL    HW2 9696   3.351   1.686   4.664  0.4247 -0.2418 -0.8462
 2413SOL    HW3 9697   3.384   1.542   4.629  0.7156 -0.4847  0.3998
 2413SOL    MW4 9698   3.407   1.619   4.662  0.5090 -0.1953 -0.1206
 2414SOL     OW 9699   3.324   4.667   4.518 -0.6071  0.1116  0.4320
 2414SOL    HW2 9700   3.243   4.716   4.525 -0.2277  0.4236  3.2123
 2414SOL    HW3 9701   3.393   4.732   4.529 -0.0330 -0.5184  0.6050
 2414SOL    MW4 9702   3.323   4.682   4.520 -0.4814  0.0696  0.8221
 2415SOL     OW 9703   2.477   2.838   4.223 -0.6335  0.2145 -0.2498
 2415SOL    HW2 9704   2.391   2.798   4.208 -1.6464  1.3296  2.3983
 2415SOL    HW3 9705   2.486   2.840   4.318  0.7777  3.4095 -0.4150
 2415SOL    MW4 9706   2.466   2.833   4.233 -0.5808  0.7832  0.0782
 2416SOL     OW 9707   3.649   3.483   4.452 -0.1229 -0.3496  0.3816
 2416SOL    HW2 9708   3.626   3.426   4.379 -0.8376 -1.1605  1.2209
 2416SOL    HW3 9709   3.707   3.549   4.414 -0.5479 -0.7099 -0.9278
 2416SOL    MW4 9710   3.654   3.485   4.437 -0.2730 -0.5040  0.3200
 2417SOL     OW 9711   2.135   2.955   4.663  0.6038  0.1582  0.1995
 2417SOL    HW2 9712   2.133   2.882   4.724  0.6738  1.3596  1.6827
 2417SOL    HW3 9713   2.227   2.976   4.652  0.6003 -0.1355 -0.4401
 2417SOL    MW4 9714   2.147   2.948   4.669  0.6123  0.2782  0.3114
 2418SOL     OW 9715   1.342   2.968   4.842  0.2452 -0.3900  0.4148
 2418SOL    HW2 9716   1.374   2.988   4.930  1.0653  0.5311 -0.0759
 2418SOL    HW3 9717   1.415   2.992   4.784 -0.4347 -0.5988 -0.5435
 2418SOL    MW4 9718   1.356   2.974   4.846  0.2637 -0.2959  0.2241
 2419SOL     OW 9719   0.247   3.897   4.200  0.6331  0.3719  0.1876
 2419SOL    HW2 9720   0.335   3.911   4.237  0.8971  0.5341 -0.4956
 2419SOL    HW3 9721   0.230   3.804   4.213  0.9849  0.3016  0.1422
 2419SOL    MW4 9722   0.256   3.886   4.207  0.7143  0.3843  0.0916
 2420SOL     OW 9723   0.059   1.981   4.581  0.0849  0.2098  0.3008
 2420SOL    HW2 9724   0.141   2.024   4.556 -0.5470 -0.0613 -2.3697
 2420SOL    HW3 9725   0.068   1.892   4.547 -0.8770 -0.1278  0.9248
 2420SOL    MW4 9726   0.071   1.975   4.573 -0.1254  0.1295  0.0310
 2421SOL     OW 9727   1.260   1.344   4.767 -0.5596  0.2752  0.1247
 2421SOL    HW2 9728   1.354   1.324   4.762 -0.4959  0.5434  0.2277
 2421SOL    HW3 9729   1.232   1.306   4.850 -0.6516 -0.2489 -0.1453
 2421SOL    MW4 9730   1.269   1.336   4.777 -0.5634  0.2415  0.1025
 2422SOL     OW 9731   1.155   4.647   4.137  0.1311  0.0184 -0.0403
 2422SOL    HW2 9732   1.146   4.652   4.041  0.3160 -1.1612 -0.1191
 2422SOL    HW3 9733   1.207   4.725   4.159  0.5623  0.0071 -0.9696
 2422SOL    MW4 9734   1.161   4.658   4.127  0.2124 -0.1383 -0.1731
 2423SOL     OW 9735   4.067   4.004   3.790  0.5828 -0.2459 -0.0179
 2423SOL    HW2 9736   4.062   4.011   3.695 -0.6696 -0.9691 -0.0147
 2423SOL    HW3 9737   4.069   4.095   3.821  0.6527 -0.0068 -0.7227
 2423SOL    MW4 9738   4.066   4.017   3.781  0.4272 -0.3095 -0.1104
 2424SOL     OW 9739   0.895   0.923   4.247  0.6444  0.0052  0.3261
 2424SOL    HW2 9740   0.905   1.013   4.215  0.8182 -0.0619  0.1914
 2424SOL    HW3 9741   0.972   0.877   4.213  1.0413  0.0368  1.1690
 2424SOL    MW4 9742   0.907   0.929   4.238  0.7197  0.0006  0.4201
 2425SOL     OW 9743   3.082   1.886   4.399 -0.1298  0.5855 -0.2309
 2425SOL    HW2 9744   3.133   1.863   4.477 -1.9461 -1.1029  0.4986
 2425SOL    HW3 9745   3.081   1.806   4.347 -1.8559  0.6450 -0.3154
 2425SOL    MW4 9746   3.088   1.873   4.403 -0.5972  0.3705 -0.1454
 2426SOL     OW 9747   0.939   3.203   4.236  0.2167  0.1597 -0.1235
 2426SOL    HW2 9748   0.939   3.202   4.332 -1.1374 -0.7278 -0.1130
 2426SOL    HW3 9749   1.030   3.182   4.212  0.6001  0.5408  0.9593
 2426SOL    MW4 9750   0.951   3.200   4.246  0.0886  0.0930  0.0210
 2427SOL     OW 9751   3.001   1.022   4.630  0.1192 -0.0757  0.2164
 2427SOL    HW2 9752   2.924   0.965   4.634 -0.6129  0.9270  0.7396
 2427SOL    HW3 9753   2.965   1.110   4.622  1.2147  0.4135  0.5427
 2427SOL    MW4 9754   2.986   1.026   4.630  0.1671  0.1211  0.3285
 2428SOL     OW 9755   2.851   3.871   4.130 -0.1949  0.3854  0.1936
 2428SOL    HW2 9756   2.787   3.924   4.177  0.0930 -0.8367  2.0377
 2428SOL    HW3 9757   2.839   3.783   4.165  0.9420 -0.2958 -1.0956
 2428SOL    MW4 9758   2.841   3.867   4.141 -0.0069  0.1342  0.2666
 2429SOL     OW 9759   2.723   1.584   4.795 -0.0098  0.1285 -0.2668
 2429SOL    HW2 9760   2.804   1.630   4.773  0.6335 -0.3389  1.1126
 2429SOL    HW3 9761   2.654   1.647   4.775  0.5382 -0.0967 -3.1956
 2429SOL    MW4 9762   2.724   1.598   4.789  0.1471  0.0370 -0.4711
 2430SOL     OW 9763   3.904   1.630   4.519 -0.0272  0.4016  0.6878
 2430SOL    HW2 9764   3.979   1.585   4.560  0.6626  0.1797 -0.8015
 2430SOL    HW3 9765   3.909   1.719   4.553  1.9073  0.8404 -0.6540
 2430SOL    MW4 9766   3.915   1.635   4.529  0.3190  0.4305  0.3147
 2431SOL     OW 9767   3.640   2.712   4.162 -0.3247 -0.0253 -0.0908
 2431SOL    HW2 9768   3.552   2.709   4.199 -0.7075  2.0471 -0.7963
 2431SOL    HW3 9769   3.628   2.696   4.068 -0.0982  1.5008 -0.3892
 2431SOL    MW4 9770   3.627   2.709   4.155 -0.3457  0.4494 -0.2236
 2432SOL     OW 9771   1.785   4.223   4.096  0.0179  0.1312 -0.1737
 2432SOL    HW2 9772   1.754   4.142   4.137  0.2423 -0.6447 -1.4999
 2432SOL    HW3 9773   1.762   4.212   4.004 -0.3329  1.7683 -0.2836
 2432SOL    MW4 9774   1.778   4.211   4.089  0.0011  0.2446 -0.3633
 2433SOL     OW 9775   2.458   2.331   3.902 -0.6485 -0.2503 -0.3044
 2433SOL    HW2 9776   2.471   2.344   3.997 -1.0472 -0.3465 -0.2367
 2433SOL    HW3 9777   2.373   2.371   3.884 -0.5406 -0.1696 -0.6384
 2433SOL    MW4 9778   2.449   2.338   3.913 -0.6866 -0.2525 -0.3393
 2434SOL     OW 9779   0.463   1.909   4.120  0.0840 -0.0429 -0.4320
 2434SOL    HW2 9780   0.440   1.910   4.027  0.1649  0.9062 -0.4391
 2434SOL    HW3 9781   0.396   1.961   4.163  0.0001 -0.5472  0.0617
 2434SOL    MW4 9782   0.451   1.916   4.113  0.0836  0.0157 -0.3672
 2435SOL     OW 9783   4.150   4.356   4.518 -0.4549  0.0061  0.0346
 2435SOL    HW2 9784   4.183   4.426   4.573  1.7617 -0.2966 -0.8551
 2435SOL    HW3 9785   4.161   4.276   4.569 -0.0830 -0.0624 -0.1538
 2435SOL    MW4 9786   4.156   4.355   4.532 -0.1135 -0.0429 -0.1078
 2436SOL     OW 9787   0.257   2.493   4.500 -0.6993  0.6889  0.1014
 2436SOL    HW2 9788   0.321   2.503   4.570 -0.6341 -1.0453  0.3161
 2436SOL    HW3 9789   0.310   2.481   4.421 -0.7694  1.5280 -0.0752
 2436SOL    MW4 9790   0.273   2.492   4.499 -0.7000  0.5708  0.1068
 2437SOL     OW 9791   3.290   3.426   4.274 -0.2078 -0.0950  0.1960
 2437SOL    HW2 9792   3.271   3.447   4.366 -2.5902 -2.0531  0.1910
 2437SOL    HW3 9793   3.225   3.476   4.224 -0.4321 -0.8898 -0.2985
 2437SOL    MW4 9794   3.279   3.436   4.280 -0.5517 -0.4585  0.1302
 2438SOL     OW 9795   3.757   1.222   4.519 -0.3751  0.2791 -0.7461
 2438SOL    HW2 9796   3.797   1.220   4.432  0.6994  0.0606 -0.2555
 2438SOL    HW3 9797   3.709   1.304   4.521 -0.8939  0.0100 -1.7601
 2438SOL    MW4 9798   3.756   1.232   4.508 -0.3021  0.2147 -0.8154
 2439SOL     OW 9799   0.625   1.536   4.199 -0.4038 -0.0456 -0.3716
 2439SOL    HW2 9800   0.645   1.521   4.106 -0.5914  1.5825 -0.6774
 2439SOL    HW3 9801   0.705   1.575   4.234 -0.1060 -1.2432  0.3093
 2439SOL    MW4 9802   0.638   1.539   4.191 -0.3892  0.0113 -0.3214
 2440SOL     OW 9803   3.839   3.123   4.228 -0.2887 -0.2376 -0.1987
 2440SOL    HW2 9804   3.844   3.157   4.139 -0.0571  4.9556  1.6012
 2440SOL    HW3 9805   3.746   3.126   4.250 -0.1666  0.1888  0.2829
 2440SOL    MW4 9806   3.828   3.128   4.219 -0.2418  0.5038  0.1025
 2441SOL     OW 9807   0.688   3.658   4.286 -0.1607 -0.3487 -0.7706
 2441SOL    HW2 9808   0.607   3.621   4.253 -1.2768 -0.1293  1.5968
 2441SOL    HW3 9809   0.752   3.588   4.278 -1.7540 -2.1734  1.7315
 2441SOL    MW4 9810   0.686   3.644   4.281 -0.5182 -0.5605 -0.1283
 2442SOL     OW 9811   1.092   1.550   4.176 -0.0107  0.4876 -0.0751
 2442SOL    HW2 9812   1.110   1.543   4.082  1.9856 -1.3777  0.4085
 2442SOL    HW3 9813   1.164   1.602   4.211  0.1097 -0.1733  0.6730
 2442SOL    MW4 9814   1.104   1.556   4.168  0.2683  0.1543  0.0873
 2443SOL     OW 9815   1.535   4.200   4.647 -0.0273  0.0984  0.0625
 2443SOL    HW2 9816   1.530   4.229   4.738  2.0455  0.2359  0.1563
 2443SOL    HW3 9817   1.546   4.280   4.596 -0.3209 -0.0428 -0.2225
 2443SOL    MW4 9818   1.536   4.214   4.652  0.2074  0.0982  0.0377
 2444SOL     OW 9819   1.147   3.851   4.181  0.0895 -0.1256 -0.3387
 2444SOL    HW2 9820   1.065   3.893   4.208 -1.2145 -1.2143 -2.4637
 2444SOL    HW3 9821   1.132   3.758   4.195  1.2206 -0.2679 -0.0833
 2444SOL    MW4 9822   1.134   3.844   4.186  0.0668 -0.2882 -0.5856
 2445SOL     OW 9823   3.848   1.258   4.223 -0.2074  0.5100 -0.5571
 2445SOL    HW2 9824   3.861   1.345   4.185 -0.7981  0.4737 -0.8604
 2445SOL    HW3 9825   3.928   1.211   4.202  0.0813  0.9576 -0.4667
 2445SOL    MW4 9826   3.860   1.263   4.215 -0.2475  0.5642 -0.5851
 2446SOL     OW 9827   3.001   3.428   4.586 -0.3618  0.1166 -0.7485
 2446SOL    HW2 9828   2.981   3.521   4.578 -0.1009  0.1643 -0.8335
 2446SOL    HW3 9829   2.915   3.386   4.589 -0.4843  0.4580  0.4735
 2446SOL    MW4 9830   2.987   3.435   4.585 -0.3436  0.1678 -0.5984
 2447SOL     OW 9831   3.100   0.535   4.565 -0.2222 -0.1798  0.0037
 2447SOL    HW2 9832   3.101   0.628   4.541  2.7626 -0.2310 -0.2499
 2447SOL    HW3 9833   3.192   0.512   4.576 -0.7964 -3.5564 -1.6122
 2447SOL    MW4 9834   3.112   0.544   4.563  0.0961 -0.6320 -0.2427
 2448SOL     OW 9835   2.679   0.085   4.213 -0.3686  0.6625 -0.1122
 2448SOL    HW2 9836   2.602   0.038   4.180 -0.2290  0.8940 -0.7721
 2448SOL    HW3 9837   2.670   0.173   4.177 -0.6504  1.1610  1.1478
 2448SOL    MW4 9838   2.668   0.090   4.204 -0.3872  0.7588 -0.0329
 2449SOL     OW 9839   1.094   3.853   4.630  0.0701  0.0414 -0.0475
 2449SOL    HW2 9840   1.123   3.762   4.616  0.1838 -0.0316  0.5999
 2449SOL    HW3 9841   1.171   3.906   4.612  0.1579 -0.0366  0.0907
 2449SOL    MW4 9842   1.108   3.848   4.626  0.0967  0.0212  0.0563
 2450SOL     OW 9843   0.700   0.488   4.244  0.0505 -0.5531  0.0974
 2450SOL    HW2 9844   0.673   0.498   4.335 -0.1827  1.1261 -0.1470
 2450SOL    HW3 9845   0.630   0.437   4.204 -0.3095 -0.4781  0.6292
 2450SOL    MW4 9846   0.687   0.483   4.251 -0.0277 -0.3216  0.1359
 2451SOL     OW 9847   0.661   3.572   4.638  0.0421  0.2631  0.1252
 2451SOL    HW2 9848   0.750   3.544   4.616  0.2517 -0.1348  1.4064
 2451SOL    HW3 9849   0.605   3.502   4.604  0.1701  0.7974 -1.1970
 2451SOL    MW4 9850   0.665   3.559   4.631  0.0867  0.2813  0.1197
 2452SOL     OW 9851   2.020   0.765   4.154 -0.1140  0.4415  0.3047
 2452SOL    HW2 9852   2.000   0.760   4.061  1.1269  0.0939  0.0407
 2452SOL    HW3 9853   2.009   0.676   4.187 -1.1542  0.6852  0.6228
 2452SOL    MW4 9854   2.016   0.753   4.146 -0.0875  0.4278  0.3119
 2453SOL     OW 9855   2.637   0.344   4.111  0.5578  0.5029 -0.4588
 2453SOL    HW2 9856   2.558   0.384   4.147  0.4144 -2.2296  2.5058
 2453SOL    HW3 9857   2.709   0.383   4.161  0.6588 -0.6312  0.2990
 2453SOL    MW4 9858   2.636   0.354   4.123  0.5524 -0.0073  0.0324
 2454SOL     OW 9859   4.081   0.121   4.237 -0.2901  0.0946  0.2154
 2454SOL    HW2 9860   4.156   0.079   4.194  0.8880  1.2301  1.1034
 2454SOL    HW3 9861   4.080   0.210   4.201 -0.5372  0.4233  1.0317
 2454SOL    MW4 9862   4.091   0.128   4.226 -0.1674  0.2878  0.4401
 2455SOL     OW 9863   2.494   2.070   4.294  0.4376  0.2198  0.0582
 2455SOL    HW2 9864   2.564   2.030   4.243  0.3639 -2.2753  1.8124
 2455SOL    HW3 9865   2.414   2.028   4.264 -0.3051  2.7659 -1.6473
 2455SOL    MW4 9866   2.492   2.059   4.283  0.3297  0.2265  0.0653
 2456SOL     OW 9867   3.824   4.446   4.183 -0.6285 -0.1603 -0.0337
 2456SOL    HW2 9868   3.841   4.461   4.277  0.6963 -0.9521 -0.1304
 2456SOL    HW3 9869   3.835   4.532   4.143  0.7980 -0.1762  0.2797
 2456SOL    MW4 9870   3.828   4.459   4.190 -0.2656 -0.2670 -0.0052
 2457SOL     OW 9871   1.607   3.085   4.083 -0.1671  0.1782 -0.3620
 2457SOL    HW2 9872   1.536   3.077   4.147  1.0796 -0.3105  0.9663
 2457SOL    HW3 9873   1.655   3.002   4.090  0.6930  0.6036 -1.0889
 2457SOL    MW4 9874   1.604   3.073   4.092  0.1110  0.1698 -0.2828
 2458SOL     OW 9875   0.035   2.328   4.525 -0.3820 -0.3187 -0.1967
 2458SOL    HW2 9876   0.105   2.393   4.527 -0.0591 -0.6658 -0.2430
 2458SOL    HW3 9877  -0.031   2.362   4.585 -1.1330  1.0898 -1.7935
 2458SOL    MW4 9878   0.035   2.341   4.534 -0.4386 -0.1786 -0.4134
 2459SOL     OW 9879   0.523   1.558   4.914  0.3944  0.3780 -0.2120
 2459SOL    HW2 9880   0.583   1.564   4.839  0.5810  0.8905 -0.0292
 2459SOL    HW3 9881   0.539   1.471   4.950  0.0434 -0.0148 -0.9791
 2459SOL    MW4 9882   0.533   1.547   4.909  0.3728  0.3939 -0.2894
 2460SOL     OW 9883   2.713   0.887   3.766  0.4492 -0.2662 -0.1602
 2460SOL    HW2 9884   2.794   0.855   3.804  0.1941  0.8275  1.3655
 2460SOL    HW3 9885   2.645   0.829   3.799  0.3081  0.3064  0.5759
 2460SOL    MW4 9886   2.715   0.875   3.776  0.3970 -0.0464  0.1380
 2461SOL     OW 9887   2.431   0.451   4.502 -0.2621  0.0891  0.1783
 2461SOL    HW2 9888   2.354   0.394   4.500 -0.3144  0.1692 -0.2479
 2461SOL    HW3 9889   2.501   0.395   4.535 -0.3202 -0.2184 -0.2061
 2461SOL    MW4 9890   2.430   0.436   4.506 -0.2766  0.0591  0.0710
 2462SOL     OW 9891   3.923   0.187   4.624  0.3357  0.4167 -0.2227
 2462SOL    HW2 9892   3.850   0.129   4.603 -0.0570 -0.0287  2.2500
 2462SOL    HW3 9893   3.897   0.272   4.587 -0.4797 -0.2348 -1.1810
 2462SOL    MW4 9894   3.910   0.191   4.617  0.1764  0.2720 -0.0229
 2463SOL     OW 9895   2.495   3.063   4.964 -0.1178  0.1644 -0.3347
 2463SOL    HW2 9896   2.530   2.974   4.960 -0.4340  0.0517 -0.6383
 2463SOL    HW3 9897   2.500   3.088   5.056 -1.0600 -0.5759 -0.0849
 2463SOL    MW4 9898   2.500   3.055   4.976 -0.2840  0.0517 -0.3414
 2464SOL     OW 9899   2.292   4.428   4.620  0.0209 -0.3479  0.1338
 2464SOL    HW2 9900   2.201   4.419   4.591 -0.2240 -0.5067  0.9296
 2464SOL    HW3 9901   2.339   4.360   4.572 -0.3492 -0.5227  0.0143
 2464SOL    MW4 9902   2.286   4.418   4.610 -0.0601 -0.3920  0.2232
 2465SOL     OW 9903   1.644   1.038   4.666  0.4175  0.2903  0.3055
 2465SOL    HW2 9904   1.561   1.018   4.624  0.5484 -0.7878  0.5362
 2465SOL    HW3 9905   1.667   0.958   4.714  0.8619  1.0725  1.4339
 2465SOL    MW4 9906   1.636   1.024   4.667  0.4933  0.2513  0.4849
 2466SOL     OW 9907   1.569   4.421   4.484  0.6264  0.5921 -0.1773
 2466SOL    HW2 9908   1.489   4.474   4.491 -0.2953 -0.9429  1.3223
 2466SOL    HW3 9909   1.577   4.403   4.390 -1.3597 -0.0743 -0.2444
 2466SOL    MW4 9910   1.559   4.426   4.472  0.2428  0.3014  0.0119
 2467SOL     OW 9911   4.490   0.729   4.499  0.0667  0.0141 -0.7751
 2467SOL    HW2 9912   4.419   0.665   4.507 -0.0289  0.2128  0.0929
 2467SOL    HW3 9913   4.468   0.781   4.422 -0.2670 -0.4936 -1.0251
 2467SOL    MW4 9914   4.478   0.727   4.490  0.0100 -0.0266 -0.6938
 2468SOL     OW 9915   0.673   3.886   4.120  0.3269  0.2606 -0.0794
 2468SOL    HW2 9916   0.753   3.923   4.156  0.2163 -0.7692  1.2692
 2468SOL    HW3 9917   0.671   3.796   4.154  0.0587 -0.6491 -2.4198
 2468SOL    MW4 9918   0.683   3.879   4.130  0.2769  0.0043 -0.2103
 2469SOL     OW 9919   1.396   3.165   4.505 -0.6826 -0.3627 -0.5210
 2469SOL    HW2 9920   1.325   3.103   4.516 -1.5107  0.5895 -0.4256
 2469SOL    HW3 9921   1.471   3.125   4.549 -1.2981 -1.1245 -0.1747
 2469SOL    MW4 9922   1.397   3.152   4.512 -0.8731 -0.3376 -0.4630
 2470SOL     OW 9923   3.347   3.999   4.130  0.3407 -0.0357 -0.4543
 2470SOL    HW2 9924   3.355   3.975   4.037 -0.9159  0.6632 -0.7532
 2470SOL    HW3 9925   3.299   3.926   4.169 -0.8764  0.5838 -0.7657
 2470SOL    MW4 9926   3.342   3.986   4.123  0.0141  0.1383 -0.5350
 2471SOL     OW 9927   1.750   3.516   4.114  0.1950 -0.4220 -0.0540
 2471SOL    HW2 9928   1.762   3.507   4.020 -1.4222 -0.9728 -0.2223
 2471SOL    HW3 9929   1.762   3.427   4.149  0.7911 -0.2211  0.2672
 2471SOL    MW4 9930   1.753   3.503   4.106  0.0603 -0.4683 -0.0339
 2472SOL     OW 9931   0.269   1.323   4.502 -0.0581  0.0402 -0.0345
 2472SOL    HW2 9932   0.263   1.418   4.505 -1.3579 -0.0378  0.3930
 2472SOL    HW3 9933   0.245   1.300   4.413 -3.1517 -0.0585  0.7582
 2472SOL    MW4 9934   0.265   1.333   4.491 -0.6377  0.0169  0.1259
 2473SOL     OW 9935   3.494   4.221   4.514  0.8286  0.0804 -0.0393
 2473SOL    HW2 9936   3.475   4.137   4.556 -0.9924  0.1062 -0.8006
 2473SOL    HW3 9937   3.537   4.197   4.432  0.5342 -0.0951 -0.1411
 2473SOL    MW4 9938   3.497   4.207   4.509  0.5493  0.0606 -0.1531
 2474SOL     OW 9939   0.225   0.425   4.201  0.5587 -0.2053 -0.0084
 2474SOL    HW2 9940   0.144   0.381   4.176  0.4195  0.0609 -0.0191
 2474SOL    HW3 9941   0.208   0.461   4.288  0.1631  1.1350 -0.6236
 2474SOL    MW4 9942   0.212   0.424   4.209  0.4882  0.0066 -0.0911
 2475SOL     OW 9943   3.574   1.215   4.164 -0.0942  0.1837 -0.3853
 2475SOL    HW2 9944   3.665   1.232   4.191  0.1583 -2.3110  0.4554
 2475SOL    HW3 9945   3.579   1.198   4.070  0.2754  0.3640 -0.3979
 2475SOL    MW4 9946   3.587   1.215   4.156 -0.0122 -0.1217 -0.2751
 2476SOL     OW 9947   1.143   3.593   4.534  0.0281 -0.2175 -0.0989
 2476SOL    HW2 9948   1.224   3.543   4.530 -0.0246 -0.2386 -0.8724
 2476SOL    HW3 9949   1.126   3.620   4.444 -1.9444 -1.9886 -0.2990
 2476SOL    MW4 9950   1.151   3.590   4.522 -0.2390 -0.4537 -0.2270
 2477SOL     OW 9951   2.697   1.906   4.162  0.2772 -0.3158  0.1018
 2477SOL    HW2 9952   2.769   1.961   4.192 -0.9933  0.6192  1.5385
 2477SOL    HW3 9953   2.687   1.928   4.070  1.3008  0.1531  0.0961
 2477SOL    MW4 9954   2.705   1.916   4.154  0.2446 -0.1307  0.2899
 2478SOL     OW 9955   3.177   2.696   4.616  0.1781 -0.2725 -0.3164
 2478SOL    HW2 9956   3.131   2.613   4.626 -0.0253 -0.0639  0.4767
 2478SOL    HW3 9957   3.107   2.761   4.606  0.2845  0.1131  1.3834
 2478SOL    MW4 9958   3.161   2.693   4.616  0.1652 -0.1943  0.0119
 2479SOL     OW 9959   1.875   1.069   4.515 -0.0297  0.4739 -0.1029
 2479SOL    HW2 9960   1.844   1.054   4.426  0.2966  0.5566 -0.2304
 2479SOL    HW3 9961   1.795   1.071   4.568 -0.2485  0.7585 -0.4408
 2479SOL    MW4 9962   1.860   1.067   4.510 -0.0154  0.5224 -0.1640
 2480SOL     OW 9963   3.362   4.660   4.135 -0.2492 -0.0282 -0.2781
 2480SOL    HW2 9964   3.299   4.719   4.177  0.7983 -0.5353  2.0291
 2480SOL    HW3 9965   3.363   4.582   4.190  2.1794 -0.1396 -0.4605
 2480SOL    MW4 9966   3.354   4.658   4.148  0.2096 -0.1098  0.0019
 2481SOL     OW 9967   0.388   2.424   4.274  0.1618 -0.0620 -0.2219
 2481SOL    HW2 9968   0.379   2.498   4.213 -2.0832 -1.3371 -1.5038
 2481SOL    HW3 9969   0.478   2.394   4.260  0.0710  0.4180 -2.0500
 2481SOL    MW4 9970   0.399   2.430   4.264 -0.1464 -0.1669 -0.6323
 2482SOL     OW 9971   4.122   3.542   4.598 -0.3265 -0.2032  0.4699
 2482SOL    HW2 9972   4.203   3.584   4.629 -0.3395  0.0163  0.2014
 2482SOL    HW3 9973   4.054   3.608   4.612 -0.4812 -0.4303  0.8048
 2482SOL    MW4 9974   4.124   3.556   4.604 -0.3490 -0.2043  0.4783
 2483SOL     OW 9975   0.923   3.442   4.619 -0.2812 -0.2377 -0.5149
 2483SOL    HW2 9976   0.945   3.426   4.711 -0.5002  1.3405 -0.1818
 2483SOL    HW3 9977   0.997   3.493   4.585 -0.2612 -0.7060 -1.1810
 2483SOL    MW4 9978   0.936   3.447   4.627 -0.3074 -0.0913 -0.5589
 2484SOL     OW 9979   2.742   2.573   4.604  0.3297  0.0623 -0.0116
 2484SOL    HW2 9980   2.653   2.565   4.636  0.5334  0.3427  0.6383
 2484SOL    HW3 9981   2.734   2.569   4.508 -0.5926  2.0788 -0.0395
 2484SOL    MW4 9982   2.729   2.571   4.595  0.2348  0.3653  0.0710
 2485SOL     OW 9983   0.170   2.308   4.143  0.0641  0.1174 -0.4330
 2485SOL    HW2 9984   0.097   2.346   4.192  0.1854 -1.9838  1.4452
 2485SOL    HW3 9985   0.248   2.346   4.183  0.0997 -0.0070 -0.3840
 2485SOL    MW4 9986   0.171   2.318   4.155  0.0848 -0.1764 -0.1783
 2486SOL     OW 9987   1.816   3.259   4.466 -0.3798 -0.4826 -0.3019
 2486SOL    HW2 9988   1.806   3.267   4.371 -0.8706  0.2372 -0.1951
 2486SOL    HW3 9989   1.830   3.165   4.481  0.6025 -0.4764 -1.1604
 2486SOL    MW4 9990   1.817   3.248   4.456 -0.3151 -0.3865 -0.4005
 2487SOL     OW 9991   3.012   2.457   4.626  0.2869 -0.3852 -0.8049
 2487SOL    HW2 9992   2.924   2.491   4.638  0.7230  0.0869  1.2789
 2487SOL    HW3 9993   3.013   2.375   4.676  1.3293  0.1361  0.0470
 2487SOL    MW4 9994   3.000   2.450   4.634  0.4818 -0.2542 -0.4182
 2488SOL     OW 9995   1.148   0.540   4.511  0.4298 -0.0437 -0.1599
 2488SOL    HW2 9996   1.156   0.522   4.418  1.9198 -0.0402 -0.0428
 2488SOL    HW3 9997   1.195   0.622   4.524 -0.4032  0.3415  0.4759
 2488SOL    MW4 9998   1.155   0.549   4.501  0.5165  0.0076 -0.0606
 2489SOL     OW 9999   3.457   3.677   4.490 -0.0925  0.7152  0.3133
 2489SOL    HW210000   3.527   3.612   4.484  0.7214  1.4665  1.3350
 2489SOL    HW310001   3.382   3.628   4.523  0.1776  0.0550 -0.0403
 2489SOL    MW410002   3.457   3.662   4.494  0.0505  0.7272  0.4015
 2490SOL     OW10003   0.669   2.699   4.710  0.1111  0.1735 -0.3826
 2490SOL    HW210004   0.720   2.762   4.761 -0.8938 -0.6450  1.6920
 2490SOL    HW310005   0.735   2.637   4.677  0.6554  0.0106  0.9684
 2490SOL    MW410006   0.685   2.699   4.712  0.0503  0.0439  0.0691
 2491SOL     OW10007   2.058   3.194   4.810  0.2065  0.0163  0.5750
 2491SOL    HW210008   2.066   3.109   4.768 -0.7621  0.1660  0.0757
 2491SOL    HW310009   2.149   3.221   4.826  0.5507 -0.6038 -0.2773
 2491SOL    MW410010   2.071   3.187   4.807  0.1242 -0.0460  0.3967
 2492SOL     OW10011   3.665   1.901   4.410 -0.2683 -0.1701  0.1061
 2492SOL    HW210012   3.749   1.870   4.445 -0.3630  0.1065  0.5792
 2492SOL    HW310013   3.687   1.933   4.322  0.0801 -0.3011  0.1413
 2492SOL    MW410014   3.679   1.901   4.403 -0.2351 -0.1508  0.1731
 2493SOL     OW10015   1.082   2.916   4.754  0.2064 -0.1551 -0.1656
 2493SOL    HW210016   1.170   2.942   4.782  0.2407  0.6399 -0.9504
 2493SOL    HW310017   1.082   2.935   4.660 -0.0984 -2.1519 -0.5740
 2493SOL    MW410018   1.094   2.922   4.745  0.1708 -0.3135 -0.3228
 2494SOL     OW10019   0.848   0.051   4.516  0.1943 -0.6700  0.1091
 2494SOL    HW210020   0.784  -0.019   4.503 -0.3448 -0.1432 -0.0956
 2494SOL    HW310021   0.797   0.125   4.548  0.6075 -0.0493 -0.6408
 2494SOL    MW410022   0.833   0.052   4.518  0.1777 -0.5186 -0.0172
 2495SOL     OW10023   2.954   4.103   4.578  0.8714  0.1934  0.4102
 2495SOL    HW210024   2.927   4.043   4.648  1.2783  0.3607  0.7051
 2495SOL    HW310025   2.985   4.045   4.508 -1.2980 -0.0751 -0.3969
 2495SOL    MW410026   2.954   4.087   4.578  0.6387  0.1798  0.3428
 2496SOL     OW10027   4.069   1.915   4.123  0.1021  0.3388  0.0159
 2496SOL    HW210028   4.046   1.833   4.167 -0.1032  1.1729  1.4802
 2496SOL    HW310029   4.117   1.965   4.189  1.3501  0.8778 -1.2841
 2496SOL    MW410030   4.072   1.911   4.137  0.2398  0.5200  0.0372
 2497SOL     OW10031   2.712   3.252   4.280  0.0597  0.1814  0.0423
 2497SOL    HW210032   2.786   3.217   4.231 -1.4980 -1.5981 -1.0991
 2497SOL    HW310033   2.695   3.337   4.240  0.5267 -0.0758 -0.7213
 2497SOL    MW410034   2.720   3.258   4.268 -0.0842 -0.0875 -0.2098
 2498SOL     OW10035   1.806   0.332   4.087  0.1277 -0.3883  0.1406
 2498SOL    HW210036   1.806   0.257   4.146  1.8787 -0.9500 -0.5096
 2498SOL    HW310037   1.724   0.377   4.104  0.0149 -1.2744  2.0520
 2498SOL    MW410038   1.795   0.328   4.097  0.3439 -0.5793  0.3071
 2499SOL     OW10039   3.296   1.104   4.623 -0.2863  0.1768  0.3552
 2499SOL    HW210040   3.204   1.079   4.632 -0.1844 -0.7487 -1.0706
 2499SOL    HW310041   3.343   1.021   4.618  0.5752  0.6496  0.5125
 2499SOL    MW410042   3.290   1.090   4.624 -0.1590  0.1171  0.1879
 2500SOL     OW10043   3.986   1.382   4.836  0.5873  0.1500 -0.5088
 2500SOL    HW210044   3.980   1.287   4.824  1.0452  0.1305 -0.6141
 2500SOL    HW310045   3.896   1.412   4.840  0.4308 -0.4228  0.5670
 2500SOL    MW410046   3.974   1.373   4.835  0.6270  0.0718 -0.3810
 2501SOL     OW10047   3.340   1.308   4.275  0.1992 -0.2056 -0.5972
 2501SOL    HW210048   3.425   1.276   4.244  0.0973  0.8496 -2.0104
 2501SOL    HW310049   3.353   1.322   4.369  0.5344 -3.4124 -0.1315
 2501SOL    MW410050   3.353   1.306   4.283  0.2298 -0.4895 -0.7219
 2502SOL     OW10051   4.262   0.492   4.251  0.2332  0.1741  0.2421
 2502SOL    HW210052   4.321   0.422   4.224 -2.6992 -1.9329 -1.0617
 2502SOL    HW310053   4.280   0.505   4.343  1.0558 -2.1540  0.4451
 2502SOL    MW410054   4.272   0.484   4.259 -0.0448 -0.4111  0.0968
 2503SOL     OW10055   2.402   0.696   4.672 -0.0915 -0.1458  0.5727
 2503SOL    HW210056   2.492   0.714   4.700  0.2174  0.3160 -0.6958
 2503SOL    HW310057   2.405   0.608   4.635 -0.4605 -0.6781  1.7716
 2503SOL    MW410058   2.414   0.687   4.671 -0.0992 -0.1551  0.5631
 2504SOL     OW10059   3.131   3.151   4.553  0.0347 -0.7020 -0.4438
 2504SOL    HW210060   3.076   3.227   4.568 -1.6028 -1.5158 -2.1173
 2504SOL    HW310061   3.204   3.161   4.614 -0.1732  2.1630 -0.6269
 2504SOL    MW410062   3.133   3.162   4.563 -0.2089 -0.4313 -0.6886
 2505SOL     OW10063   1.094   1.288   4.290  0.3243  0.8624 -0.5562
 2505SOL    HW210064   1.178   1.257   4.257  0.6689  0.7228  0.4530
 2505SOL    HW310065   1.086   1.377   4.255 -0.0161  0.1835 -2.2747
 2505SOL    MW410066   1.104   1.296   4.281  0.3247  0.7545 -0.6499
 2506SOL     OW10067   1.131   3.120   3.856  0.2093  0.0277 -0.1846
 2506SOL    HW210068   1.197   3.170   3.808  0.2826 -0.2980 -0.4227
 2506SOL    HW310069   1.047   3.158   3.830  0.1760 -0.8440 -1.3960
 2506SOL    MW410070   1.129   3.131   3.846  0.2146 -0.1302 -0.3760
 2507SOL     OW10071   1.940   0.328   4.650  0.1388  0.1674  0.3122
 2507SOL    HW210072   1.912   0.344   4.740 -0.5807  1.9711 -0.2061
 2507SOL    HW310073   1.895   0.248   4.624  1.3648 -1.0775  1.9728
 2507SOL    MW410074   1.930   0.320   4.658  0.2056  0.2412  0.4635
 2508SOL     OW10075   2.451   3.643   4.255  0.1037  0.0659 -0.0797
 2508SOL    HW210076   2.371   3.605   4.220 -0.4901 -0.3126  1.6216
 2508SOL    HW310077   2.451   3.733   4.221 -0.4658 -0.2779 -1.0029
 2508SOL    MW410078   2.440   3.650   4.246 -0.0496 -0.0296  0.0229
 2509SOL     OW10079   4.023   0.383   4.113  0.1060  0.1419  0.0801
 2509SOL    HW210080   3.942   0.403   4.159  0.1801 -1.1216  0.7983
 2509SOL    HW310081   4.090   0.433   4.160  0.0527 -0.4817  0.8410
 2509SOL    MW410082   4.022   0.392   4.125  0.1082 -0.1070  0.2751
 2510SOL     OW10083   2.100   1.269   4.509 -0.3564  0.0749  0.4998
 2510SOL    HW210084   2.179   1.217   4.520 -0.9873 -1.1758 -0.7407
 2510SOL    HW310085   2.029   1.211   4.538 -1.3740 -0.8531 -3.5282
 2510SOL    MW410086   2.101   1.255   4.514 -0.5739 -0.2127 -0.1955
 2511SOL     OW10087   3.358   1.372   4.555 -0.2250  0.3874 -0.0388
 2511SOL    HW210088   3.273   1.415   4.548 -0.2553  0.0461 -1.7962
 2511SOL    HW310089   3.339   1.286   4.592 -0.8224 -0.2697 -1.8638
 2511SOL    MW410090   3.344   1.367   4.559 -0.3078  0.2557 -0.5112
 2512SOL     OW10091   0.278   2.149   4.512  0.3299 -0.6303 -0.4475
 2512SOL    HW210092   0.221   2.226   4.515 -0.1499 -1.0104  0.0330
 2512SOL    HW310093   0.362   2.181   4.545  0.4853 -0.0073 -1.4052
 2512SOL    MW410094   0.282   2.163   4.517  0.2871 -0.5984 -0.5102
 2513SOL     OW10095   2.456   0.742   4.162 -0.7814 -0.1117 -0.3034
 2513SOL    HW210096   2.441   0.649   4.183  1.6576 -0.3138  0.6891
 2513SOL    HW310097   2.376   0.785   4.191 -0.6712 -1.4949  2.2199
 2513SOL    MW410098   2.443   0.735   4.169 -0.4449 -0.3209  0.1602
 2514SOL     OW10099   3.894   1.119   4.742  0.2774 -0.0608  0.0298
 2514SOL    HW210100   3.848   1.155   4.666 -1.0891  0.5869  1.1467
 2514SOL    HW310101   3.840   1.044   4.769 -0.2534  0.8299  1.4703
 2514SOL    MW410102   3.881   1.114   4.735  0.0272  0.1421  0.3676
 2515SOL     OW10103   0.202   0.032   4.619  0.1855 -0.1032 -0.0566
 2515SOL    HW210104   0.171   0.110   4.574  0.2899 -0.4940 -0.8203
 2515SOL    HW310105   0.297   0.032   4.604  0.0397 -0.9893 -1.0647
 2515SOL    MW410106   0.211   0.042   4.611  0.1801 -0.2717 -0.2904
 2516SOL     OW10107   2.221   0.072   4.272  0.0199  0.1278  0.1965
 2516SOL    HW210108   2.223   0.167   4.263 -1.6418  0.1629  0.0074
 2516SOL    HW310109   2.227   0.057   4.367  1.1804  0.3904  0.1604
 2516SOL    MW410110   2.222   0.083   4.284 -0.0463  0.1671  0.1669
 2517SOL     OW10111   2.111   3.599   4.808  0.3229  0.5550 -0.5336
 2517SOL    HW210112   2.121   3.505   4.825  0.8637  0.5318 -0.9764
 2517SOL    HW310113   2.017   3.612   4.803  0.2038  0.2535  0.7599
 2517SOL    MW410114   2.100   3.588   4.810  0.3786  0.5121 -0.4215
 2518SOL     OW10115   3.768   2.022   4.154  0.1544  0.0366  0.2146
 2518SOL    HW210116   3.725   1.961   4.093 -0.8307  2.1397 -1.2463
 2518SOL    HW310117   3.861   2.009   4.139 -0.0306 -1.2554  0.0765
 2518SOL    MW410118   3.775   2.012   4.144  0.0000  0.1435  0.0033
 2519SOL     OW10119   4.044   2.481   4.293 -0.0111 -0.1645  0.2243
 2519SOL    HW210120   4.037   2.576   4.284  1.1891 -0.0327  0.5427
 2519SOL    HW310121   3.955   2.449   4.279 -0.6888  1.1142  1.4508
 2519SOL    MW410122   4.032   2.490   4.290  0.0577  0.0215  0.4282
 2520SOL     OW10123   1.537   1.590   4.162  0.2724  0.0816 -0.2376
 2520SOL    HW210124   1.602   1.640   4.212  0.0180  0.6226 -0.4488
 2520SOL    HW310125   1.454   1.633   4.181 -0.0022 -0.5018 -0.1134
 2520SOL    MW410126   1.535   1.602   4.171  0.2024  0.0759 -0.2499
 2521SOL     OW10127   3.596   4.049   4.277  0.2960 -0.0894  0.3503
 2521SOL    HW210128   3.520   4.028   4.222  1.7284  1.3203 -2.2229
 2521SOL    HW310129   3.661   3.984   4.254  1.2247  1.0555 -0.2653
 2521SOL    MW410130   3.594   4.038   4.267  0.6077  0.2475 -0.0701
 2522SOL     OW10131   4.053   2.431   4.565  0.1979 -0.3840 -0.7670
 2522SOL    HW210132   4.017   2.343   4.558 -0.3464 -0.0879 -1.7639
 2522SOL    HW310133   4.056   2.464   4.475 -1.2455  1.2457 -0.2691
 2522SOL    MW410134   4.048   2.424   4.553 -0.0644 -0.1299 -0.8330
 2523SOL     OW10135   0.872   3.970   4.492 -0.1073 -0.6992  0.1059
 2523SOL    HW210136   0.789   3.927   4.515  0.3325 -1.2445  0.7138
 2523SOL    HW310137   0.938   3.920   4.540  0.3740  1.0038  1.2473
 2523SOL    MW410138   0.870   3.957   4.501  0.0142 -0.5465  0.3371
 2524SOL     OW10139   0.091   4.466   4.516 -0.2342 -0.1790  0.4584
 2524SOL    HW210140   0.003   4.498   4.534 -0.3270 -0.6950  0.9256
 2524SOL    HW310141   0.149   4.536   4.546 -0.4514 -0.2887  1.1352
 2524SOL    MW410142   0.087   4.479   4.522 -0.2751 -0.2623  0.6099
 2525SOL     OW10143   4.028   3.277   4.559 -0.0255  0.2357 -0.1041
 2525SOL    HW210144   4.063   3.363   4.583 -1.3198  0.7799 -0.1594
 2525SOL    HW310145   4.088   3.214   4.600  0.7152  1.1638  0.2343
 2525SOL    MW410146   4.041   3.280   4.568 -0.0987  0.4301 -0.0672
 2526SOL     OW10147   4.054   2.749   4.200  0.1002 -0.3711 -0.0420
 2526SOL    HW210148   4.128   2.797   4.237 -0.8062  0.7747  0.3334
 2526SOL    HW310149   3.978   2.784   4.246 -0.6844 -1.4694 -0.4875
 2526SOL    MW410150   4.054   2.760   4.211 -0.1230 -0.3648 -0.0510
 2527SOL     OW10151   1.788   1.943   3.859 -0.2034  0.0316 -0.0986
 2527SOL    HW210152   1.719   1.995   3.818 -0.2003  1.0238  1.1048
 2527SOL    HW310153   1.772   1.952   3.953  1.5813  0.3491  0.2056
 2527SOL    MW410154   1.777   1.951   3.866  0.0325  0.2043  0.1004
 2528SOL     OW10155   3.031   2.169   4.687 -0.1992 -0.1203 -0.1202
 2528SOL    HW210156   2.954   2.154   4.633 -0.8185 -0.6280  0.8704
 2528SOL    HW310157   3.104   2.172   4.626 -0.9102 -0.4764 -0.9934
 2528SOL    MW410158   3.030   2.167   4.672 -0.3748 -0.2344 -0.1054
 2529SOL     OW10159   0.002   1.125   4.163  0.0835  0.3156 -0.0095
 2529SOL    HW210160   0.026   1.034   4.180  0.2698  0.5024  0.7333
 2529SOL    HW310161  -0.023   1.126   4.070 -1.7275 -0.8964  0.4350
 2529SOL    MW410162   0.001   1.113   4.153 -0.1307  0.1805  0.1469
 2530SOL     OW10163   2.730   2.724   4.170  0.1492  0.2399 -0.0259
 2530SOL    HW210164   2.738   2.711   4.075 -1.7988 -1.7199  0.0159
 2530SOL    HW310165   2.643   2.763   4.181 -0.4431 -1.3112  1.0388
 2530SOL    MW410166   2.719   2.727   4.159 -0.1860 -0.2236  0.1197
 2531SOL     OW10167   1.303   4.085   4.550 -0.0386 -0.5707 -0.1800
 2531SOL    HW210168   1.321   4.058   4.460  0.4450  2.0398 -0.9133
 2531SOL    HW310169   1.385   4.123   4.582 -0.4848 -0.5758  1.0205
 2531SOL    MW410170   1.316   4.087   4.543 -0.0337 -0.2270 -0.1183
 2532SOL     OW10171   1.875   1.570   4.469  0.0127 -0.2079  0.3887
 2532SOL    HW210172   1.911   1.560   4.381 -1.7387 -0.5290 -0.3206
 2532SOL    HW310173   1.948   1.552   4.527  1.3811  0.7236 -1.0029
 2532SOL    MW410174   1.889   1.566   4.465 -0.0379 -0.1274  0.1111
 2533SOL     OW10175   2.037   2.064   3.803  0.1374  0.2217  0.1082
 2533SOL    HW210176   2.032   2.064   3.707 -0.5885 -0.4509  0.1320
 2533SOL    HW310177   1.957   2.018   3.830  0.5670  0.0081  1.0210
 2533SOL    MW410178   2.026   2.058   3.794  0.0985  0.1047  0.2317
 2534SOL     OW10179   3.631   1.806   4.732  0.4690  0.0596 -0.3209
 2534SOL    HW210180   3.593   1.893   4.725  0.4794  0.0150 -1.0494
 2534SOL    HW310181   3.555   1.747   4.734  0.4744 -0.0644 -2.3098
 2534SOL    MW410182   3.616   1.809   4.731  0.4711  0.0374 -0.6790
 2535SOL     OW10183   0.653   1.566   4.662 -0.0006 -0.0627  0.3312
 2535SOL    HW210184   0.603   1.632   4.612 -1.4111 -0.5219  1.1080
 2535SOL    HW310185   0.602   1.486   4.653 -0.5962 -0.0358  2.9462
 2535SOL    MW410186   0.639   1.564   4.654 -0.2653 -0.1198  0.7782
 2536SOL     OW10187   1.308   1.696   4.251 -0.0646  0.0203 -0.1370
 2536SOL    HW210188   1.313   1.791   4.243 -0.9105  0.1263  0.5381
 2536SOL    HW310189   1.346   1.676   4.336  1.6961 -0.4144 -0.9896
 2536SOL    MW410190   1.314   1.706   4.261  0.0561 -0.0231 -0.1602
 2537SOL     OW10191   1.574   3.009   4.667 -0.1279 -0.2252  0.2079
 2537SOL    HW210192   1.630   2.938   4.634  0.6725  0.1783  0.7000
 2537SOL    HW310193   1.633   3.065   4.717 -0.8028  0.6930 -0.0231
 2537SOL    MW410194   1.589   3.007   4.669 -0.1113 -0.0508  0.2422
 2538SOL     OW10195   0.750   4.663   4.125 -0.1307  0.0771 -0.3108
 2538SOL    HW210196   0.820   4.721   4.154 -0.9118  0.9669 -0.1740
 2538SOL    HW310197   0.752   4.667   4.029 -0.0956  0.2265 -0.3026
 2538SOL    MW410198   0.759   4.671   4.116 -0.2291  0.2146 -0.2913
 2539SOL     OW10199   2.898   2.055   4.278 -0.7025  0.5977  0.2894
 2539SOL    HW210200   2.867   2.076   4.366 -0.9837 -1.1519  0.6074
 2539SOL    HW310201   2.971   1.995   4.292 -0.4504  0.6698 -0.6700
 2539SOL    MW410202   2.904   2.050   4.292 -0.7064  0.3762  0.2046
 2540SOL     OW10203   3.358   4.416   4.260  0.8338 -0.1431 -0.1657
 2540SOL    HW210204   3.441   4.379   4.231  0.8045  0.1299 -0.6008
 2540SOL    HW310205   3.347   4.383   4.349  0.8589 -1.0877 -0.5069
 2540SOL    MW410206   3.367   4.407   4.268  0.8333 -0.2322 -0.2685
 2541SOL     OW10207   1.825   2.860   4.861 -0.1380  0.1137  0.0693
 2541SOL    HW210208   1.812   2.955   4.856 -2.2252 -0.1971 -1.5128
 2541SOL    HW310209   1.790   2.827   4.777 -0.4103 -2.1341  1.0260
 2541SOL    MW410210   1.819   2.868   4.849 -0.4493 -0.2239 -0.0134
 2542SOL     OW10211   3.226   4.246   4.097 -0.1242  0.1116 -0.2640
 2542SOL    HW210212   3.284   4.170   4.108 -0.1726  0.0367 -0.5321
 2542SOL    HW310213   3.269   4.316   4.148 -0.4397 -0.2794  0.5515
 2542SOL    MW410214   3.240   4.245   4.106 -0.1721  0.0505 -0.1922
 2543SOL     OW10215   2.194   0.350   4.169 -0.6316 -0.1371 -0.5082
 2543SOL    HW210216   2.184   0.356   4.074 -0.1416  1.1131 -0.4994
 2543SOL    HW310217   2.117   0.395   4.203 -0.4862 -0.0215 -0.3308
 2543SOL    MW410218   2.183   0.357   4.161 -0.5476  0.0431 -0.4840
 2544SOL     OW10219   4.050   3.506   4.185  0.4768 -0.3085 -0.4520
 2544SOL    HW210220   4.127   3.551   4.218  0.1263 -0.0784  0.0633
 2544SOL    HW310221   4.060   3.416   4.215 -0.2196  0.0680  0.9793
 2544SOL    MW410222   4.061   3.500   4.194  0.3395 -0.2284 -0.1950
 2545SOL     OW10223   1.330   3.420   4.148  0.0544 -0.0306 -0.5131
 2545SOL    HW210224   1.355   3.444   4.059  0.3466  1.2759 -0.0880
 2545SOL    HW310225   1.400   3.456   4.203 -0.1211 -0.8368  0.2385
 2545SOL    MW410226   1.343   3.428   4.143  0.0699  0.0358 -0.3581
 2546SOL     OW10227   0.003   1.728   4.494 -0.4979 -0.0315 -0.0458
 2546SOL    HW210228   0.066   1.662   4.523 -0.1207  0.3458  0.0042
 2546SOL    HW310229  -0.070   1.720   4.555 -0.4172 -0.3504  0.0069
 2546SOL    MW410230   0.002   1.718   4.506 -0.4375 -0.0238 -0.0324
 2547SOL     OW10231   0.899   1.078   4.650 -0.3366 -0.6730  0.0482
 2547SOL    HW210232   0.894   1.109   4.740 -0.9879 -0.3398 -0.0961
 2547SOL    HW310233   0.983   1.112   4.618 -0.4534 -0.1365  0.2922
 2547SOL    MW410234   0.909   1.087   4.657 -0.4380 -0.5583  0.0610
 2548SOL     OW10235   2.469   4.342   4.199  0.0279  0.0566 -0.3317
 2548SOL    HW210236   2.552   4.298   4.183  0.4926  1.2878 -1.3186
 2548SOL    HW310237   2.463   4.348   4.295  1.5428  0.8811 -0.2880
 2548SOL    MW410238   2.479   4.337   4.210  0.2892  0.3281 -0.4563
 2549SOL     OW10239   2.412   4.215   4.513  0.5999  0.0755 -0.0611
 2549SOL    HW210240   2.348   4.146   4.494  1.2596 -0.6004  0.1514
 2549SOL    HW310241   2.495   4.168   4.525  0.7651  0.7577  1.6024
 2549SOL    MW410242   2.414   4.199   4.512  0.7088  0.0768  0.1860
 2550SOL     OW10243   2.959   2.875   4.250  0.6458 -0.2437 -0.4786
 2550SOL    HW210244   2.882   2.819   4.242  0.2015  0.2816  0.1161
 2550SOL    HW310245   2.971   2.887   4.344  1.1086  0.1507 -0.5844
 2550SOL    MW410246   2.951   2.869   4.261  0.6483 -0.1225 -0.4144
 2551SOL     OW10247   3.746   3.294   4.607 -0.5205 -0.0340 -0.1293
 2551SOL    HW210248   3.831   3.271   4.568  0.0675  0.6547  0.7300
 2551SOL    HW310249   3.715   3.368   4.555 -1.7621 -1.8002 -2.0059
 2551SOL    MW410250   3.753   3.300   4.595 -0.6068 -0.1762 -0.2632
 2552SOL     OW10251   1.327   2.571   4.078 -0.1821  0.1553 -0.3694
 2552SOL    HW210252   1.392   2.507   4.106  1.4446  1.7901 -0.3535
 2552SOL    HW310253   1.322   2.634   4.149  0.5725  1.7912 -1.7233
 2552SOL    MW410254   1.335   2.571   4.091  0.1322  0.5867 -0.5460
 2553SOL     OW10255   4.075   3.254   4.296 -0.1641  0.3835  0.4300
 2553SOL    HW210256   4.070   3.274   4.389 -0.1993  0.7565  0.3506
 2553SOL    HW310257   3.998   3.201   4.278 -1.1850  1.9141  0.2267
 2553SOL    MW410258   4.065   3.250   4.306 -0.3033  0.6349  0.3929
 2554SOL     OW10259   2.926   3.131   4.132 -0.9930  0.2378 -0.1552
 2554SOL    HW210260   2.921   3.042   4.167 -0.9639  0.1919 -0.2684
 2554SOL    HW310261   3.009   3.165   4.166 -1.0598  0.2616 -0.0171
 2554SOL    MW410262   2.936   3.124   4.141 -0.9980  0.2346 -0.1521
 2555SOL     OW10263   0.401   0.651   4.617  0.1474 -0.5979  0.2786
 2555SOL    HW210264   0.443   0.724   4.571  2.3630 -3.1464 -1.9415
 2555SOL    HW310265   0.376   0.687   4.702  0.6422  2.8690 -0.9628
 2555SOL    MW410266   0.403   0.665   4.622  0.5050 -0.4767 -0.1774
 2556SOL     OW10267   0.952   1.643   4.574 -0.1076 -0.0695  0.2592
 2556SOL    HW210268   0.879   1.601   4.619 -0.9930  0.5351 -0.5936
 2556SOL    HW310269   0.939   1.737   4.589  1.2568 -0.0113  1.2418
 2556SOL    MW410270   0.941   1.650   4.582 -0.0443  0.0179  0.2761
 2557SOL     OW10271   3.565   0.380   4.161  0.4726  0.3572  0.2710
 2557SOL    HW210272   3.578   0.291   4.195 -0.4980 -0.1936 -0.7633
 2557SOL    HW310273   3.582   0.373   4.067 -0.7251  1.0074 -0.0100
 2557SOL    MW410274   3.569   0.367   4.153  0.1867  0.3704  0.0973
 2558SOL     OW10275   2.483   2.834   3.795  0.4920 -0.3097 -0.4395
 2558SOL    HW210276   2.389   2.813   3.801  0.6907 -1.3239 -0.8796
 2558SOL    HW310277   2.497   2.855   3.703  0.7671 -0.5059 -0.4436
 2558SOL    MW410278   2.472   2.834   3.784  0.5543 -0.4692 -0.4981
 2559SOL     OW10279   4.274   3.611   4.300  0.0186  0.6849 -0.1212
 2559SOL    HW210280   4.270   3.697   4.260  0.6225  2.1451  2.8118
 2559SOL    HW310281   4.273   3.628   4.394  0.7904 -2.4709  0.5299
 2559SOL    MW410282   4.274   3.624   4.307  0.1998  0.4611  0.3524
 2560SOL     OW10283   0.001   4.025   4.294  0.2066  0.3986  0.0464
 2560SOL    HW210284  -0.004   4.102   4.238 -0.8044 -1.1872 -2.1197
 2560SOL    HW310285   0.090   3.992   4.283  0.3731  0.7654  0.3056
 2560SOL    MW410286   0.012   4.030   4.285  0.0954  0.2375 -0.2055
 2561SOL     OW10287   1.970   3.849   4.118  0.1501 -0.0579  0.4512
 2561SOL    HW210288   2.036   3.915   4.134  0.1046 -0.2518  1.4688
 2561SOL    HW310289   1.961   3.846   4.022  0.9146  0.6360  0.3574
 2561SOL    MW410290   1.977   3.857   4.107  0.2449  0.0081  0.5732
 2562SOL     OW10291   2.728   2.713   3.861 -0.0095 -0.2257 -0.0782
 2562SOL    HW210292   2.664   2.781   3.840  0.2366  0.1565  0.4106
 2562SOL    HW310293   2.688   2.632   3.828 -0.7839  0.0002  0.2968
 2562SOL    MW410294   2.714   2.711   3.854 -0.0792 -0.1454  0.0360
 2563SOL     OW10295   1.549   0.561   4.504 -0.1473  0.1473  0.6731
 2563SOL    HW210296   1.525   0.606   4.585 -1.1393  0.4173  0.2285
 2563SOL    HW310297   1.641   0.538   4.517 -0.5914 -0.8306  2.3589
 2563SOL    MW410298   1.558   0.563   4.517 -0.3368  0.0538  0.8368
 2564SOL     OW10299   0.648   1.276   4.277 -0.1677  0.1957  0.7753
 2564SOL    HW210300   0.626   1.368   4.269  0.9561  0.6634  2.6832
 2564SOL    HW310301   0.566   1.230   4.259 -1.1740  1.6440  1.5119
 2564SOL    MW410302   0.634   1.282   4.274 -0.1522  0.4486  1.1239
 2565SOL     OW10303   4.040   2.712   3.928  0.1642  0.5467 -0.3227
 2565SOL    HW210304   4.047   2.727   4.023  1.2219 -0.9056 -0.1527
 2565SOL    HW310305   4.109   2.766   3.890  1.0240 -0.3795 -0.0926
 2565SOL    MW410306   4.050   2.721   3.936  0.4172  0.2329 -0.2699
 2566SOL     OW10307   4.286   1.252   4.291  0.0549 -0.1367  0.6150
 2566SOL    HW210308   4.360   1.204   4.255  0.1689  0.7756 -0.3653
 2566SOL    HW310309   4.299   1.248   4.386  2.2206  1.4011  0.4050
 2566SOL    MW410310   4.297   1.245   4.299  0.3562  0.1866  0.4582
 2567SOL     OW10311   4.037   4.240   4.158  0.7127  0.0599  0.1205
 2567SOL    HW210312   4.116   4.289   4.181  0.1447  0.5503  1.0597
 2567SOL    HW310313   3.966   4.304   4.163  0.0259 -0.7370  0.8758
 2567SOL    MW410314   4.038   4.255   4.162  0.5465  0.0196  0.3443
 2568SOL     OW10315   1.766   3.173   4.815 -0.0004 -0.1178 -0.1592
 2568SOL    HW210316   1.856   3.203   4.830  0.2207 -0.1023 -1.4380
 2568SOL    HW310317   1.715   3.254   4.810  0.0561 -0.0906 -0.3005
 2568SOL    MW410318   1.772   3.188   4.816  0.0362 -0.1123 -0.3467
 2569SOL     OW10319   4.112   1.481   4.621 -0.1793  0.0634 -0.0491
 2569SOL    HW210320   4.169   1.406   4.603  1.8337  1.3120  0.8930
 2569SOL    HW310321   4.065   1.457   4.701  0.6783 -0.1027  0.4141
 2569SOL    MW410322   4.113   1.468   4.629  0.1993  0.2062  0.1359
 2570SOL     OW10323   2.711   0.840   4.291  0.4221 -0.2799 -0.0904
 2570SOL    HW210324   2.635   0.797   4.253  0.0365  1.1667 -0.9846
 2570SOL    HW310325   2.708   0.930   4.257  1.3358  0.3964  1.5555
 2570SOL    MW410326   2.701   0.846   4.281  0.4914  0.0002  0.0086
 2571SOL     OW10327   3.379   0.487   4.543 -0.3661 -0.8176  0.1360
 2571SOL    HW210328   3.386   0.520   4.454  2.9778 -0.6699  0.3815
 2571SOL    HW310329   3.397   0.393   4.535 -1.2183 -1.0178  0.5189
 2571SOL    MW410330   3.382   0.479   4.530 -0.0374 -0.8246  0.2189
 2572SOL     OW10331   2.885   2.352   3.888  0.1613  0.1233  0.5013
 2572SOL    HW210332   2.966   2.403   3.877  0.9597 -1.0441  0.8976
 2572SOL    HW310333   2.879   2.336   3.982 -0.5946  0.2966  0.4861
 2572SOL    MW410334   2.895   2.357   3.899  0.1669 -0.0081  0.5515
 2573SOL     OW10335   1.799   0.919   4.255  0.0811  0.0856 -0.4634
 2573SOL    HW210336   1.868   0.869   4.211  0.5731 -0.5272  0.9922
 2573SOL    HW310337   1.721   0.863   4.248  0.3454 -0.3630  0.1041
 2573SOL    MW410338   1.798   0.905   4.248  0.1810 -0.0544 -0.1965
 2574SOL     OW10339   1.119   2.083   4.266 -0.7033 -0.2373 -0.3008
 2574SOL    HW210340   1.037   2.039   4.242 -0.4592 -0.0756 -1.4603
 2574SOL    HW310341   1.122   2.160   4.209 -0.0693  0.1096  0.2080
 2574SOL    MW410342   1.108   2.087   4.255 -0.5875 -0.1700 -0.3862
 2575SOL     OW10343   4.104   1.046   4.575  0.0320 -0.0817  0.4054
 2575SOL    HW210344   4.073   0.977   4.516  0.1639 -0.3926  0.6962
 2575SOL    HW310345   4.033   1.055   4.639 -0.4641  0.8039 -0.2443
 2575SOL    MW410346   4.090   1.038   4.576 -0.0162 -0.0060  0.3591
 2576SOL     OW10347   2.407   2.044   4.770 -0.0689  0.3706  0.3645
 2576SOL    HW210348   2.316   2.046   4.741 -0.4821  2.4680  1.6642
 2576SOL    HW310349   2.452   2.106   4.712 -0.2651  2.1860  2.0935
 2576SOL    MW410350   2.401   2.053   4.758 -0.1493  0.8867  0.7634
 2577SOL     OW10351   0.876   4.280   4.582  0.2035  0.2367 -0.0923
 2577SOL    HW210352   0.851   4.253   4.671 -1.7474  0.7626 -0.4581
 2577SOL    HW310353   0.856   4.204   4.527 -0.7282  0.6870 -0.3972
 2577SOL    MW410354   0.870   4.266   4.587 -0.1768  0.3653 -0.1807
 2578SOL     OW10355   2.457   2.062   3.805  0.0614 -0.3293  0.4650
 2578SOL    HW210356   2.394   2.011   3.855  1.1373 -0.9309  1.2159
 2578SOL    HW310357   2.451   2.150   3.841  0.7628 -0.7380  1.5926
 2578SOL    MW410358   2.448   2.067   3.816  0.2959 -0.4625  0.7129
 2579SOL     OW10359   3.798   2.857   4.338  0.3577  0.1519 -0.1515
 2579SOL    HW210360   3.740   2.812   4.276  1.0995  0.7439 -1.2883
 2579SOL    HW310361   3.822   2.938   4.294  1.6998  0.1218  0.5132
 2579SOL    MW410362   3.793   2.862   4.324  0.6325  0.2263 -0.2136
 2580SOL     OW10363   3.590   3.509   3.920  0.3755 -0.3870  0.2857
 2580SOL    HW210364   3.578   3.473   4.008 -0.3971 -1.2753 -0.1910
 2580SOL    HW310365   3.514   3.566   3.906  0.1771 -0.7327 -0.0519
 2580SOL    MW410366   3.579   3.512   3.930  0.2477 -0.5498  0.1783
 2581SOL     OW10367   3.884   1.891   4.618 -0.5473 -0.0700  0.0414
 2581SOL    HW210368   3.955   1.891   4.681 -0.6882 -0.4885  0.1987
 2581SOL    HW310369   3.806   1.869   4.669 -0.3728 -2.2869 -0.5934
 2581SOL    MW410370   3.883   1.888   4.633 -0.5429 -0.4177 -0.0224
 2582SOL     OW10371   1.991   2.838   4.259 -0.0908 -0.2266 -0.7769
 2582SOL    HW210372   1.957   2.867   4.343  0.8048 -1.2542 -0.0447
 2582SOL    HW310373   1.913   2.826   4.205 -0.6847  0.2405 -0.0293
 2582SOL    MW410374   1.976   2.840   4.263 -0.0510 -0.3006 -0.5813
 2583SOL     OW10375   3.254   3.799   4.318 -0.1083  0.6795 -0.5556
 2583SOL    HW210376   3.331   3.765   4.364 -1.6631 -0.3184  1.4097
 2583SOL    HW310377   3.227   3.727   4.260  0.5496  1.1065 -1.3976
 2583SOL    MW410378   3.260   3.785   4.316 -0.2265  0.6042 -0.4077
 2584SOL     OW10379   0.805   2.357   4.501  0.1995 -0.0963  0.2795
 2584SOL    HW210380   0.859   2.283   4.528  0.4527  0.1588  0.4814
 2584SOL    HW310381   0.833   2.377   4.412  0.5225  0.1138  0.4287
 2584SOL    MW410382   0.816   2.350   4.493  0.2755 -0.0350  0.3252
 2585SOL     OW10383   0.540   1.311   4.607 -0.2907 -0.2666  0.0707
 2585SOL    HW210384   0.595   1.240   4.572 -1.1151 -0.9757  0.1938
 2585SOL    HW310385   0.460   1.306   4.556 -0.6714  0.0552  0.6390
 2585SOL    MW410386   0.537   1.301   4.596 -0.4497 -0.3177  0.1616
 2586SOL     OW10387   0.490   0.350   4.135 -0.0523  0.0702 -0.3265
 2586SOL    HW210388   0.501   0.385   4.047 -0.0023 -0.3920 -0.5045
 2586SOL    HW310389   0.408   0.389   4.167  0.1033  0.4989 -0.4478
 2586SOL    MW410390   0.481   0.360   4.128 -0.0252  0.0657 -0.3662
 2587SOL     OW10391   0.683   3.084   4.593 -0.0581  0.3483  0.2980
 2587SOL    HW210392   0.632   3.006   4.569  0.2414  0.4588 -0.7263
 2587SOL    HW310393   0.618   3.154   4.595  0.0369  0.4999 -1.0628
 2587SOL    MW410394   0.667   3.083   4.590 -0.0061  0.3831 -0.0167
 2588SOL     OW10395   1.332   0.371   4.134 -0.0316 -0.2642  0.1603
 2588SOL    HW210396   1.252   0.412   4.166 -0.4238  0.1496 -1.2755
 2588SOL    HW310397   1.332   0.284   4.172 -1.0680 -0.1987  0.3242
 2588SOL    MW410398   1.322   0.365   4.143 -0.2202 -0.2010 -0.0076
 2589SOL     OW10399   2.688   1.119   4.206 -0.0719 -0.0709 -0.0331
 2589SOL    HW210400   2.622   1.181   4.235 -0.6965 -0.7123 -0.0794
 2589SOL    HW310401   2.687   1.126   4.110 -1.4289 -1.4523 -0.1444
 2589SOL    MW410402   2.679   1.128   4.197 -0.3333 -0.3377 -0.0544
 2590SOL     OW10403   3.559   3.937   4.537 -0.1571  0.0351 -0.2837
 2590SOL    HW210404   3.561   3.948   4.442 -1.1836  0.4908 -0.2545
 2590SOL    HW310405   3.518   3.851   4.550  0.3334 -0.1987 -0.2583
 2590SOL    MW410406   3.554   3.927   4.526 -0.2277  0.0644 -0.2761
 2591SOL     OW10407   4.240   1.525   4.209  0.1247  0.0324 -0.0075
 2591SOL    HW210408   4.260   1.437   4.240 -1.3189 -0.1061  0.5955
 2591SOL    HW310409   4.245   1.518   4.113  1.6365 -0.2891  0.0897
 2591SOL    MW410410   4.243   1.512   4.200  0.1330 -0.0284  0.0849
 2592SOL     OW10411   2.446   3.879   3.888 -0.1842 -0.4300  0.3562
 2592SOL    HW210412   2.466   3.788   3.864  0.4652  0.0123 -0.8518
 2592SOL    HW310413   2.518   3.929   3.850  0.5020  0.4030  2.6567
 2592SOL    MW410414   2.458   3.874   3.880 -0.0081 -0.2618  0.5004
 2593SOL     OW10415   3.656   2.320   4.648  0.1376 -0.9103 -0.6853
 2593SOL    HW210416   3.717   2.393   4.664  0.1277 -1.0288 -0.0928
 2593SOL    HW310417   3.594   2.355   4.584  1.2521 -1.0286 -1.8254
 2593SOL    MW410418   3.656   2.334   4.642  0.2830 -0.9418 -0.7577
 2594SOL     OW10419   3.370   2.768   4.228 -0.5116  0.0222 -0.5719
 2594SOL    HW210420   3.369   2.861   4.205  0.5196  0.2041  0.0943
 2594SOL    HW310421   3.283   2.737   4.206 -0.6539  1.0049 -1.4061
 2594SOL    MW410422   3.359   2.776   4.222 -0.3946  0.1757 -0.5937
 2595SOL     OW10423   0.272   2.774   4.527 -0.0532 -0.0988 -0.0288
 2595SOL    HW210424   0.238   2.686   4.514  1.2345 -0.6308  0.1635
 2595SOL    HW310425   0.256   2.819   4.444  1.8671 -1.3693 -1.0997
 2595SOL    MW410426   0.265   2.768   4.514  0.3701 -0.3364 -0.1445
 2596SOL     OW10427   4.473   1.672   4.225  0.3050 -0.5342  0.4445
 2596SOL    HW210428   4.387   1.630   4.227 -0.1546  0.3937  0.5662
 2596SOL    HW310429   4.491   1.695   4.316 -0.2995  1.1928  0.1639
 2596SOL    MW410430   4.464   1.670   4.237  0.1650 -0.1839  0.4234
 2597SOL     OW10431   1.639   1.443   4.542 -0.1016 -0.4906 -0.3371
 2597SOL    HW210432   1.724   1.481   4.518 -0.9472  2.3116  0.9802
 2597SOL    HW310433   1.609   1.400   4.461  0.3923  2.6233 -2.2718
 2597SOL    MW410434   1.646   1.442   4.528 -0.1481  0.2899 -0.4182
 2598SOL     OW10435   1.981   0.505   4.239 -0.5307 -0.7232 -0.0480
 2598SOL    HW210436   1.927   0.442   4.192 -0.9390  0.3736 -1.0774
 2598SOL    HW310437   1.937   0.516   4.323 -1.4968 -0.4388 -0.5781
 2598SOL    MW410438   1.968   0.498   4.244 -0.7119 -0.5409 -0.2542
 2599SOL     OW10439   1.563   0.769   4.163  0.0247  0.0827  0.0607
 2599SOL    HW210440   1.578   0.675   4.173 -1.1891 -0.2211 -0.8345
 2599SOL    HW310441   1.572   0.785   4.069  0.8394  0.9833  0.2794
 2599SOL    MW410442   1.567   0.759   4.152 -0.0279  0.1615 -0.0291
 2600SOL     OW10443   1.718   2.841   4.105  0.3462  0.0746  0.1100
 2600SOL    HW210444   1.728   2.763   4.049  1.3231  0.1947  0.0997
 2600SOL    HW310445   1.698   2.806   4.191  1.3751 -0.2315  0.2396
 2600SOL    MW410446   1.717   2.826   4.109  0.6107  0.0503  0.1254
 2601SOL     OW10447   2.231   4.268   4.106 -0.1757  0.0361  0.2738
 2601SOL    HW210448   2.323   4.284   4.129  0.2435  0.0009 -1.3236
 2601SOL    HW310449   2.229   4.274   4.010 -1.6954 -0.7142  0.2482
 2601SOL    MW410450   2.243   4.271   4.096 -0.3207 -0.0677  0.0596
 2602SOL     OW10451   0.288   4.643   4.148 -0.1609  0.2590 -0.0478
 2602SOL    HW210452   0.292   4.558   4.192  0.2079  0.3457  0.0868
 2602SOL    HW310453   0.364   4.691   4.180 -1.3729  1.3447  1.3062
 2602SOL    MW410454   0.298   4.638   4.158 -0.2721  0.4139  0.1488
 2603SOL     OW10455   0.407   1.683   4.256 -0.0854  0.0035 -0.2893
 2603SOL    HW210456   0.413   1.769   4.213  0.6903  0.3906  0.5820
 2603SOL    HW310457   0.473   1.630   4.211  0.1947  0.1844 -0.0925
 2603SOL    MW410458   0.417   1.688   4.244  0.0539  0.0786 -0.1488
 2604SOL     OW10459   3.997   0.677   4.573  0.0405  0.2505 -0.5689
 2604SOL    HW210460   4.012   0.724   4.491  1.1953  0.6618 -0.1240
 2604SOL    HW310461   3.943   0.735   4.625  0.8713  0.7827 -0.3000
 2604SOL    MW410462   3.992   0.691   4.569  0.3026  0.3750 -0.4745
 2605SOL     OW10463   4.017   1.689   4.268 -0.1891 -0.3394  0.2334
 2605SOL    HW210464   3.989   1.687   4.360 -2.6355 -2.4805 -0.5365
 2605SOL    HW310465   4.097   1.637   4.267 -0.2319 -0.4386  1.1258
 2605SOL    MW410466   4.024   1.682   4.280 -0.5178 -0.6349  0.2499
 2606SOL     OW10467   3.585   4.300   4.126  0.2665  0.4051 -0.2533
 2606SOL    HW210468   3.655   4.361   4.150  0.8769  0.0947 -1.1628
 2606SOL    HW310469   3.599   4.224   4.182  0.9442  0.1623 -0.7434
 2606SOL    MW410470   3.596   4.298   4.136  0.4363  0.3324 -0.4382
 2607SOL     OW10471   0.816   2.915   4.824 -0.1156 -0.0268  0.0534
 2607SOL    HW210472   0.798   2.997   4.777  0.9314  0.2511  0.1231
 2607SOL    HW310473   0.911   2.902   4.815 -0.2658 -1.2018  0.0984
 2607SOL    MW410474   0.826   2.924   4.817  0.0027 -0.1452  0.0682
 2608SOL     OW10475   3.981   4.011   4.525  0.1243 -0.8503 -0.5586
 2608SOL    HW210476   3.966   3.919   4.548 -0.8437 -0.9799 -1.6270
 2608SOL    HW310477   3.994   4.009   4.430  0.2135  0.1089 -0.5655
 2608SOL    MW410478   3.981   3.998   4.515  0.0086 -0.7408 -0.7010
 2609SOL     OW10479   2.123   2.748   4.847  0.0299  0.3759  0.0986
 2609SOL    HW210480   2.118   2.697   4.766 -0.3821 -0.3413  0.5708
 2609SOL    HW310481   2.032   2.755   4.876  0.2155  0.3184  0.6929
 2609SOL    MW410482   2.110   2.743   4.840  0.0000  0.2737  0.2394
 2610SOL     OW10483   0.137   3.673   4.544 -0.0143 -0.2726  0.0013
 2610SOL    HW210484   0.169   3.588   4.574 -0.5233 -0.5545 -0.2569
 2610SOL    HW310485   0.185   3.737   4.597  0.6315 -0.7096 -0.0588
 2610SOL    MW410486   0.148   3.670   4.555  0.0038 -0.3674 -0.0405
 2611SOL     OW10487   3.376   0.792   4.149  0.1502 -0.0095  0.1798
 2611SOL    HW210488   3.371   0.802   4.054  0.5585 -0.4214  0.1125
 2611SOL    HW310489   3.295   0.831   4.182  0.9751  2.0776 -0.1935
 2611SOL    MW410490   3.365   0.798   4.141  0.3126  0.2115  0.1216
 2612SOL     OW10491   3.066   0.109   4.505 -0.0491  0.2369  0.5326
 2612SOL    HW210492   3.010   0.040   4.540  0.6422  0.0793  1.3499
 2612SOL    HW310493   3.010   0.187   4.503 -1.2182 -0.6084 -1.5984
 2612SOL    MW410494   3.051   0.111   4.509 -0.1121  0.1046  0.3595
 2613SOL     OW10495   3.834   0.756   3.928 -1.0596  0.3266  0.2773
 2613SOL    HW210496   3.769   0.811   3.885  0.1690  1.3718 -0.2727
 2613SOL    HW310497   3.917   0.778   3.884 -0.1790 -0.2939  1.5998
 2613SOL    MW410498   3.837   0.766   3.916 -0.7813  0.3825  0.3793
 2614SOL     OW10499   0.339   0.893   4.807  0.0904  0.1355 -0.1494
 2614SOL    HW210500   0.357   0.953   4.734 -0.4240 -0.7114 -0.9820
 2614SOL    HW310501   0.244   0.891   4.813  0.1539  1.1764  1.3821
 2614SOL    MW410502   0.329   0.901   4.798  0.0309  0.1610 -0.0567
 2615SOL     OW10503   2.682   2.493   4.318 -0.3270  0.2815 -0.1940
 2615SOL    HW210504   2.690   2.574   4.269 -0.7242  0.0650 -0.6189
 2615SOL    HW310505   2.747   2.434   4.280  0.1836  0.5031  0.3269
 2615SOL    MW410506   2.691   2.496   4.307 -0.3121  0.2820 -0.1812
 2616SOL     OW10507   2.462   1.299   4.244 -0.1469  0.2221 -0.2946
 2616SOL    HW210508   2.385   1.261   4.202 -0.5950  0.8561 -0.0538
 2616SOL    HW310509   2.434   1.316   4.334  1.1192 -2.1314  0.6035
 2616SOL    MW410510   2.448   1.296   4.251 -0.0391 -0.0048 -0.1440
 2617SOL     OW10511   2.915   0.349   4.493  0.0350 -0.0869  0.1398
 2617SOL    HW210512   2.889   0.376   4.405 -1.8307  1.1885  1.0499
 2617SOL    HW310513   2.975   0.417   4.523 -0.6667  0.3693  0.5039
 2617SOL    MW410514   2.920   0.361   4.485 -0.3033  0.1416  0.3085
 2618SOL     OW10515   2.970   1.695   4.703 -0.1585  0.1843 -0.2426
 2618SOL    HW210516   3.043   1.663   4.651 -0.8902 -0.4501 -0.8994
 2618SOL    HW310517   3.009   1.755   4.766  1.0081 -0.6801 -0.1384
 2618SOL    MW410518   2.984   1.698   4.704 -0.1009 -0.0136 -0.3157
 2619SOL     OW10519   0.901   2.744   4.140 -0.3053 -0.7023  0.5461
 2619SOL    HW210520   0.816   2.771   4.175 -0.2550  0.9888 -0.5456
 2619SOL    HW310521   0.964   2.776   4.204 -0.3640  0.2850  0.1344
 2619SOL    MW410522   0.898   2.752   4.153 -0.3064 -0.3490  0.3481
 2620SOL     OW10523   1.748   3.720   4.532  0.3156 -0.0162  0.7626
 2620SOL    HW210524   1.705   3.661   4.470 -1.1563  1.6962  0.1182
 2620SOL    HW310525   1.842   3.709   4.514  0.1101 -2.4574  0.9702
 2620SOL    MW410526   1.755   3.711   4.521  0.0943 -0.1125  0.7052
 2621SOL     OW10527   2.232   0.896   4.229 -0.2255 -0.4451 -0.1875
 2621SOL    HW210528   2.156   0.841   4.212 -0.1413 -0.8373  0.6783
 2621SOL    HW310529   2.245   0.891   4.324  0.1546  0.5736 -0.1785
 2621SOL    MW410530   2.224   0.888   4.239 -0.1645 -0.3624 -0.0715
 2622SOL     OW10531   4.036   0.876   4.344  0.4336 -0.7356 -0.3762
 2622SOL    HW210532   4.109   0.833   4.301  0.5534 -0.2112 -0.6953
 2622SOL    HW310533   3.958   0.839   4.302  0.5665  0.3631 -1.6107
 2622SOL    MW410534   4.035   0.865   4.333  0.4673 -0.5214 -0.5813
 2623SOL     OW10535   2.003   1.583   4.202  0.3433  0.1328  0.0768
 2623SOL    HW210536   2.088   1.616   4.229  0.0064  0.7955  0.3228
 2623SOL    HW310537   2.006   1.583   4.107  0.7296 -0.1331  0.0898
 2623SOL    MW410538   2.015   1.587   4.193  0.3500  0.1853  0.1116
 2624SOL     OW10539   3.747   2.479   4.263 -0.0968 -0.0849 -0.0973
 2624SOL    HW210540   3.719   2.557   4.215  0.5682 -0.1938 -0.6657
 2624SOL    HW310541   3.735   2.407   4.201  0.2930 -0.2931  0.0657
 2624SOL    MW410542   3.742   2.480   4.249  0.0422 -0.1266 -0.1512
 2625SOL     OW10543   0.689   4.411   4.250 -0.6034 -0.3962  0.2177
 2625SOL    HW210544   0.696   4.486   4.191  0.2818 -0.7893 -0.1981
 2625SOL    HW310545   0.609   4.366   4.223 -1.1866  0.4496  0.5373
 2625SOL    MW410546   0.680   4.415   4.239 -0.5636 -0.3362  0.2055
 2626SOL     OW10547   3.991   2.749   4.620 -0.0239  0.3033  0.2569
 2626SOL    HW210548   4.004   2.654   4.625 -1.1306 -0.0061 -2.1462
 2626SOL    HW310549   3.897   2.761   4.634 -0.3181  0.7779 -1.8439
 2626SOL    MW410550   3.980   2.738   4.622 -0.2086  0.3252 -0.3371
 2627SOL     OW10551   1.128   4.390   4.228 -0.2066 -0.0402 -0.0130
 2627SOL    HW210552   1.146   4.479   4.196 -2.6569 -0.0120 -1.4224
 2627SOL    HW310553   1.130   4.398   4.323 -1.1862  1.7113 -0.1158
 2627SOL    MW410554   1.131   4.403   4.236 -0.6591  0.1945 -0.2127
 2628SOL     OW10555   0.966   0.146   4.256  0.6094 -0.0926  0.2423
 2628SOL    HW210556   1.000   0.067   4.213  0.1306 -0.8482  1.2430
 2628SOL    HW310557   0.972   0.127   4.349 -1.3432  0.2818  0.4552
 2628SOL    MW410558   0.972   0.133   4.262  0.2887 -0.1429  0.4025
 2629SOL     OW10559   2.629   0.040   4.518  0.3637 -0.0991  0.4680
 2629SOL    HW210560   2.707  -0.002   4.555  2.0928  0.9216 -1.8578
 2629SOL    HW310561   2.646   0.041   4.423 -2.1916  0.7400 -0.0087
 2629SOL    MW410562   2.642   0.035   4.510  0.2549  0.1463  0.0978
 2630SOL     OW10563   2.868   0.465   4.235  0.3246 -0.3350  0.5759
 2630SOL    HW210564   2.951   0.433   4.200  0.0098 -1.3185  0.7061
 2630SOL    HW310565   2.872   0.560   4.224  1.2492 -0.4233  0.1107
 2630SOL    MW410566   2.879   0.473   4.229  0.4053 -0.4764  0.5322
 2631SOL     OW10567   0.631   3.820   4.504  0.0088 -0.1628 -0.0637
 2631SOL    HW210568   0.631   3.750   4.569 -1.5055 -0.5042 -0.4119
 2631SOL    HW310569   0.656   3.778   4.422 -1.1768 -0.3724 -0.3312
 2631SOL    MW410570   0.634   3.805   4.502 -0.3473 -0.2356 -0.1454
 2632SOL     OW10571   2.949   1.301   4.541 -0.2347  0.5155 -0.0043
 2632SOL    HW210572   2.860   1.331   4.559 -0.0762 -0.4271  2.5598
 2632SOL    HW310573   2.950   1.286   4.447 -2.5351  1.3828 -0.2113
 2632SOL    MW410574   2.937   1.303   4.531 -0.5174  0.5056  0.3066
 2633SOL     OW10575   0.935   3.173   4.534  0.2629 -0.0129  0.0262
 2633SOL    HW210576   0.845   3.143   4.545  0.5346 -0.5107  0.9984
 2633SOL    HW310577   0.934   3.264   4.567  0.2134 -0.1766  0.4845
 2633SOL    MW410578   0.923   3.181   4.540  0.2922 -0.1001  0.2151
 2634SOL     OW10579   2.588   2.796   5.001  0.3433  0.2325 -0.0174
 2634SOL    HW210580   2.669   2.746   5.011  0.0454 -0.1682  0.4094
 2634SOL    HW310581   2.522   2.730   4.981 -0.0651  0.4402  0.6278
 2634SOL    MW410582   2.590   2.781   5.000  0.2499  0.2072  0.1235
 2635SOL     OW10583   0.922   0.334   4.770  0.0068 -0.0340  0.1521
 2635SOL    HW210584   0.835   0.294   4.764 -0.2252  0.1368  2.0870
 2635SOL    HW310585   0.907   0.426   4.746 -0.1426 -0.2416 -0.5644
 2635SOL    MW410586   0.908   0.341   4.766 -0.0436 -0.0388  0.3128
 2636SOL     OW10587   1.376   1.008   4.543 -0.4320  0.0894 -0.0163
 2636SOL    HW210588   1.286   1.037   4.561 -0.3283  0.4699 -0.1042
 2636SOL    HW310589   1.369   0.958   4.462 -0.4087  0.9324 -0.5414
 2636SOL    MW410590   1.363   1.005   4.535 -0.4153  0.2509 -0.0968
 2637SOL     OW10591   2.233   0.868   4.518  0.9411 -0.1511  0.2663
 2637SOL    HW210592   2.296   0.813   4.565  1.4958 -0.1137 -0.4363
 2637SOL    HW310593   2.150   0.854   4.565  1.4129 -0.3882  1.0409
 2637SOL    MW410594   2.230   0.859   4.531  1.0765 -0.1774  0.2756
 2638SOL     OW10595   1.520   2.383   4.157 -0.2602  0.0395  0.0075
 2638SOL    HW210596   1.604   2.421   4.181 -0.2386  0.3762 -0.5946
 2638SOL    HW310597   1.531   2.356   4.066 -0.5612 -0.6062  0.1594
 2638SOL    MW410598   1.532   2.384   4.148 -0.2970 -0.0012 -0.0520
 2639SOL     OW10599   4.299   3.132   4.229  0.1451  0.3901 -0.2136
 2639SOL    HW210600   4.288   3.119   4.135 -0.3127 -1.4837  0.0723
 2639SOL    HW310601   4.217   3.172   4.257 -0.2027 -0.1579 -0.4318
 2639SOL    MW410602   4.287   3.135   4.220  0.0391  0.0706 -0.2041
 2640SOL     OW10603   2.018   4.393   4.510 -0.1771  0.1563  0.2481
 2640SOL    HW210604   2.014   4.382   4.415 -0.3241  0.1472  0.2546
 2640SOL    HW310605   2.000   4.306   4.546  0.7733 -0.0345  0.2728
 2640SOL    MW410606   2.015   4.380   4.502 -0.0708  0.1302  0.2522
 2641SOL     OW10607   4.145   1.890   4.746  0.3656  0.5363  0.4526
 2641SOL    HW210608   4.208   1.944   4.699  1.5784 -1.1331  0.0838
 2641SOL    HW310609   4.186   1.803   4.749 -1.8859 -0.5794  0.2832
 2641SOL    MW410610   4.159   1.885   4.740  0.2284  0.1688  0.3810
 2642SOL     OW10611   0.479   0.035   4.527  0.0755  0.4720  0.6150
 2642SOL    HW210612   0.480   0.061   4.435 -0.0968 -0.4192  0.3505
 2642SOL    HW310613   0.539  -0.040   4.531  0.7602  1.0617  1.4001
 2642SOL    MW410614   0.487   0.028   4.515  0.1431  0.4320  0.6838
 2643SOL     OW10615   1.522   3.566   4.285  0.2595 -0.4561 -0.0350
 2643SOL    HW210616   1.486   3.653   4.267  3.1266  1.2146  1.9033
 2643SOL    HW310617   1.596   3.557   4.225  0.4153 -1.2524  0.2650
 2643SOL    MW410618   1.527   3.576   4.275  0.6582 -0.3409  0.2604
 2644SOL     OW10619   2.661   4.018   4.265  0.0311 -0.4990 -0.0583
 2644SOL    HW210620   2.661   4.097   4.210  1.6341 -0.4859 -0.0824
 2644SOL    HW310621   2.585   3.969   4.235 -0.8687  0.9298 -0.1984
 2644SOL    MW410622   2.651   4.022   4.254  0.1240 -0.3090 -0.0801
 2645SOL     OW10623   2.860   1.532   4.169 -0.2154  0.1684  0.8899
 2645SOL    HW210624   2.785   1.568   4.216 -0.2300  0.5758  0.5569
 2645SOL    HW310625   2.868   1.442   4.201 -0.7323  0.1841  1.0579
 2645SOL    MW410626   2.851   1.525   4.179 -0.2854  0.2242  0.8683
 2646SOL     OW10627   0.446   1.115   4.170  0.2424  0.5654 -0.3154
 2646SOL    HW210628   0.355   1.144   4.178 -0.3244 -0.9456 -1.0537
 2646SOL    HW310629   0.462   1.113   4.075  0.7515 -0.0895 -0.2167
 2646SOL    MW410630   0.436   1.119   4.158  0.2348  0.2797 -0.3996
 2647SOL     OW10631   1.137   4.611   3.859 -0.2741 -0.3577  0.0327
 2647SOL    HW210632   1.208   4.664   3.823 -1.0158 -1.2831 -2.8936
 2647SOL    HW310633   1.152   4.523   3.826 -1.5877 -1.0391  1.1489
 2647SOL    MW410634   1.148   4.607   3.850 -0.5454 -0.5698 -0.2060
 2648SOL     OW10635   1.699   0.816   4.816 -0.0805  0.1325  0.6822
 2648SOL    HW210636   1.708   0.797   4.909 -0.5094 -1.0670  0.4914
 2648SOL    HW310637   1.623   0.764   4.789  0.1548  0.3343 -0.3742
 2648SOL    MW410638   1.690   0.806   4.825 -0.1060  0.0009  0.5183
 2649SOL     OW10639   3.817   3.641   4.324  0.0465 -0.7599 -0.3864
 2649SOL    HW210640   3.792   3.710   4.262 -1.3629 -2.5015 -1.8486
 2649SOL    HW310641   3.876   3.584   4.274 -0.2475 -1.5908  0.1923
 2649SOL    MW410642   3.821   3.642   4.309 -0.1781 -1.0991 -0.5021
 2650SOL     OW10643   4.345   3.702   4.585 -0.2359  0.0810  0.2170
 2650SOL    HW210644   4.433   3.667   4.597 -0.8776 -1.7735 -0.4048
 2650SOL    HW310645   4.359   3.796   4.575  1.5141  0.0322  1.8582
 2650SOL    MW410646   4.359   3.710   4.585 -0.0896 -0.1700  0.3514
 2651SOL     OW10647   2.699   1.354   4.612  0.0910 -0.2554  0.0859
 2651SOL    HW210648   2.675   1.278   4.666 -1.1768  0.1945  0.1771
 2651SOL    HW310649   2.707   1.426   4.675  1.2375 -0.3016 -0.0083
 2651SOL    MW410650   2.697   1.353   4.628  0.0749 -0.2021  0.0854
 2652SOL     OW10651   0.150   0.958   4.579  0.0302  0.3483  0.1156
 2652SOL    HW210652   0.103   0.881   4.545  0.4136 -0.4880  1.4237
 2652SOL    HW310653   0.239   0.948   4.546 -0.1043  0.6430 -0.3452
 2652SOL    MW410654   0.155   0.946   4.570  0.0630  0.2769  0.2275
 2653SOL     OW10655   1.830   4.543   4.630 -0.1186 -0.3961  0.3954
 2653SOL    HW210656   1.754   4.499   4.593  0.3944 -0.1130 -1.0149
 2653SOL    HW310657   1.905   4.511   4.579  0.6718 -0.4112  1.5374
 2653SOL    MW410658   1.830   4.533   4.618  0.0535 -0.3610  0.3605
 2654SOL     OW10659   1.985   4.144   4.626  0.1607 -0.7244  0.0822
 2654SOL    HW210660   1.901   4.111   4.593 -0.4216 -0.2797  1.0926
 2654SOL    HW310661   1.979   4.134   4.721  0.8959  0.1280  0.2278
 2654SOL    MW410662   1.973   4.138   4.635  0.1808 -0.5531  0.2351
 2655SOL     OW10663   1.571   4.647   4.114 -0.3473  0.1022  0.5913
 2655SOL    HW210664   1.573   4.557   4.147  0.1829 -0.1109 -0.0009
 2655SOL    HW310665   1.637   4.692   4.166 -0.2022  0.0021  0.4964
 2655SOL    MW410666   1.580   4.641   4.125 -0.2583  0.0606  0.5002
 2656SOL     OW10667   2.267   1.924   4.188  0.2918  0.0066  0.1582
 2656SOL    HW210668   2.271   1.841   4.235  1.0007 -0.0741 -0.0379
 2656SOL    HW310669   2.184   1.963   4.215 -0.5613 -1.2642 -0.5900
 2656SOL    MW410670   2.257   1.918   4.198  0.2728 -0.1717  0.0334
 2657SOL     OW10671   2.668   1.669   4.296  0.0100  0.0558 -0.1406
 2657SOL    HW210672   2.586   1.628   4.267 -0.1560  0.5198 -0.3242
 2657SOL    HW310673   2.668   1.755   4.254  1.0927 -0.3402 -0.9673
 2657SOL    MW410674   2.657   1.675   4.287  0.1309  0.0646 -0.2737
 2658SOL     OW10675   3.122   2.664   4.166 -0.4873  0.0798 -0.8329
 2658SOL    HW210676   3.088   2.600   4.229 -3.1929  0.8948 -1.3836
 2658SOL    HW310677   3.080   2.746   4.190 -0.8878  0.5985 -3.1389
 2658SOL    MW410678   3.112   2.666   4.177 -0.8974  0.2558 -1.2097
 2659SOL     OW10679   2.175   4.002   4.215  0.6021 -0.0403  0.1186
 2659SOL    HW210680   2.178   3.996   4.311 -1.0755  0.2669  0.2094
 2659SOL    HW310681   2.192   4.094   4.196  0.0336  0.0799  0.1799
 2659SOL    MW410682   2.178   4.014   4.225  0.3057  0.0162  0.1388
 2660SOL     OW10683   3.149   3.195   4.277  0.1159 -0.5257 -0.0914
 2660SOL    HW210684   3.203   3.274   4.279 -0.4291 -0.0599 -2.2846
 2660SOL    HW310685   3.135   3.173   4.369  0.8067  1.5731  0.5387
 2660SOL    MW410686   3.154   3.203   4.290  0.1349 -0.1874 -0.2980
 2661SOL     OW10687   2.633   1.044   4.708 -0.4112 -0.0353  0.3491
 2661SOL    HW210688   2.598   1.008   4.790  0.7974  0.5318  1.1275
 2661SOL    HW310689   2.691   0.975   4.675 -0.2166  0.0880  0.4310
 2661SOL    MW410690   2.636   1.030   4.715 -0.2260  0.0559  0.4625
 2662SOL     OW10691   0.207   4.406   4.272 -0.4697 -0.4136 -0.3149
 2662SOL    HW210692   0.175   4.397   4.361 -0.4687 -0.0818 -0.2827
 2662SOL    HW310693   0.290   4.357   4.271 -0.2786 -0.0952 -0.0339
 2662SOL    MW410694   0.214   4.398   4.283 -0.4443 -0.3276 -0.2732
 2663SOL     OW10695   3.530   2.450   4.437 -0.1577  0.0631 -0.3199
 2663SOL    HW210696   3.498   2.537   4.460  0.8593  0.1730  0.7126
 2663SOL    HW310697   3.607   2.466   4.383 -0.5114 -0.1999 -0.9068
 2663SOL    MW410698   3.535   2.463   4.433 -0.0703  0.0432 -0.2613
 2664SOL     OW10699   3.586   0.120   4.293  0.3470  0.2390  0.0329
 2664SOL    HW210700   3.512   0.075   4.251  0.4484  1.4048 -1.4501
 2664SOL    HW310701   3.662   0.098   4.239  1.0104 -0.5791  1.2867
 2664SOL    MW410702   3.586   0.111   4.280  0.4478  0.2849  0.0029
 2665SOL     OW10703   3.881   4.474   4.457  0.0168 -0.1514 -0.1233
 2665SOL    HW210704   3.846   4.385   4.464  0.0336 -0.1179  0.4348
 2665SOL    HW310705   3.971   4.467   4.488 -0.3113  0.2594  0.9571
 2665SOL    MW410706   3.888   4.461   4.462 -0.0243 -0.0930  0.0930
 2666SOL     OW10707   0.543   2.251   4.580  0.6266  0.1289  0.8435
 2666SOL    HW210708   0.616   2.273   4.523  0.4904  0.7127  0.8924
 2666SOL    HW310709   0.517   2.334   4.620 -0.2161 -0.0322  0.6431
 2666SOL    MW410710   0.549   2.265   4.578  0.4974  0.1845  0.8230
 2667SOL     OW10711   1.186   1.603   4.720  0.2023  0.1490 -0.3416
 2667SOL    HW210712   1.190   1.518   4.765 -0.3259  0.3595  0.1115
 2667SOL    HW310713   1.109   1.596   4.663  0.8471 -0.1030 -1.2047
 2667SOL    MW410714   1.177   1.591   4.718  0.2176  0.1436 -0.3953
 2668SOL     OW10715   2.758   1.812   4.550 -0.2985  0.3163 -0.2084
 2668SOL    HW210716   2.753   1.763   4.467 -0.8685 -0.7070  0.4099
 2668SOL    HW310717   2.839   1.781   4.591  0.2423  1.1937 -0.6049
 2668SOL    MW410718   2.768   1.801   4.544 -0.3026  0.2972 -0.1793
 2669SOL     OW10719   0.777   1.134   4.913 -0.1156 -0.3313 -0.3563
 2669SOL    HW210720   0.691   1.173   4.895 -0.8531 -2.4703 -1.6638
 2669SOL    HW310721   0.757   1.058   4.968  1.0071 -0.5013 -0.1793
 2669SOL    MW410722   0.763   1.130   4.918 -0.0648 -0.6360 -0.5059
 2670SOL     OW10723   2.952   4.637   4.178  0.5525 -0.7879 -0.2280
 2670SOL    HW210724   2.863   4.645   4.212  0.8693 -0.4942  0.5334
 2670SOL    HW310725   2.967   4.543   4.172 -0.1403 -0.8473 -1.2435
 2670SOL    MW410726   2.942   4.626   4.182  0.5028 -0.7567 -0.2613
 2671SOL     OW10727   0.483   0.133   3.770 -0.3755 -0.0527 -0.2203
 2671SOL    HW210728   0.406   0.084   3.799 -0.7178 -0.8055 -2.2425
 2671SOL    HW310729   0.477   0.217   3.815 -1.7717 -0.5242  0.5119
 2671SOL    MW410730   0.472   0.137   3.779 -0.6049 -0.2142 -0.3908
 2672SOL     OW10731   3.360   0.532   4.270 -0.1461  0.4459 -0.0014
 2672SOL    HW210732   3.410   0.473   4.214 -0.6433  0.4707 -0.4745
 2672SOL    HW310733   3.376   0.619   4.235 -1.2322  0.3703 -0.7177
 2672SOL    MW410734   3.369   0.535   4.258 -0.3552  0.4392 -0.1583
 2673SOL     OW10735   1.343   4.567   4.526  0.0124 -0.0644 -0.4052
 2673SOL    HW210736   1.289   4.646   4.527 -0.5220 -0.4357  0.2785
 2673SOL    HW310737   1.287   4.499   4.564  0.8758 -0.5055  0.0887
 2673SOL    MW410738   1.329   4.568   4.531  0.0558 -0.1721 -0.2494
 2674SOL     OW10739   1.796   0.131   4.538 -0.1735  0.3048  0.6049
 2674SOL    HW210740   1.806   0.042   4.573  1.0344  1.2844  2.8852
 2674SOL    HW310741   1.702   0.141   4.525 -0.2781 -1.4908 -0.1829
 2674SOL    MW410742   1.785   0.120   4.541 -0.0280  0.1972  0.8016
 2675SOL     OW10743   2.090   1.541   4.630 -0.3713 -0.4018 -0.3145
 2675SOL    HW210744   2.106   1.450   4.605  0.3517 -0.7242  1.2797
 2675SOL    HW310745   2.169   1.588   4.603  0.2860 -0.6975  1.0596
 2675SOL    MW410746   2.103   1.535   4.623 -0.1891 -0.4834  0.0772
 2676SOL     OW10747   0.208   0.518   4.465 -0.1955 -0.0689  0.0357
 2676SOL    HW210748   0.282   0.541   4.521 -0.3548 -1.1080  0.6757
 2676SOL    HW310749   0.146   0.590   4.478 -0.7388 -0.8538  2.1245
 2676SOL    MW410750   0.210   0.531   4.474 -0.2882 -0.3096  0.3958
 2677SOL     OW10751   2.204   0.276   4.512 -0.4326 -0.1784 -0.8433
 2677SOL    HW210752   2.240   0.195   4.549  0.3077 -0.0196 -1.2190
 2677SOL    HW310753   2.115   0.281   4.548  0.7419  0.7386  2.1478
 2677SOL    MW410754   2.197   0.266   4.522 -0.1800 -0.0364 -0.4983
 2678SOL     OW10755   2.494   3.412   4.636  0.0896 -0.1769 -0.4105
 2678SOL    HW210756   2.498   3.505   4.616  0.0288  0.1128  0.8764
 2678SOL    HW310757   2.582   3.379   4.617  0.8928  0.6890  1.6727
 2678SOL    MW410758   2.506   3.420   4.631  0.1874 -0.0243  0.0343
 2679SOL     OW10759   4.230   2.289   4.178  0.1214 -0.1362 -0.4140
 2679SOL    HW210760   4.242   2.208   4.227 -0.6556 -0.4076 -0.6701
 2679SOL    HW310761   4.157   2.333   4.222  1.4463  1.1115  0.6202
 2679SOL    MW410762   4.222   2.284   4.190  0.1931 -0.0076 -0.3119
 2680SOL     OW10763   1.209   3.166   4.127  0.8627  0.4777  0.0674
 2680SOL    HW210764   1.213   3.145   4.033  1.7851  0.2035  0.1661
 2680SOL    HW310765   1.250   3.252   4.134 -0.6546  1.2217  0.0091
 2680SOL    MW410766   1.215   3.174   4.115  0.7843  0.5398  0.0730
 2681SOL     OW10767   4.440   2.457   4.276 -0.1432 -0.4941  0.0608
 2681SOL    HW210768   4.360   2.426   4.236  0.3081 -0.5355 -0.8197
 2681SOL    HW310769   4.443   2.414   4.361 -1.9704  0.9092  0.8747
 2681SOL    MW410770   4.430   2.447   4.282 -0.3247 -0.3142  0.0529
 2682SOL     OW10771   1.124   0.528   4.220 -0.2970  0.2202  0.4312
 2682SOL    HW210772   1.126   0.620   4.192  0.3873  0.6240  1.7448
 2682SOL    HW310773   1.043   0.493   4.183 -0.9080  1.5514  0.4701
 2682SOL    MW410774   1.113   0.536   4.212 -0.2872  0.4491  0.6094
 2683SOL     OW10775   2.993   4.363   4.457 -0.0209 -0.6972  0.0408
 2683SOL    HW210776   3.084   4.381   4.480  0.0014  0.3058 -0.8251
 2683SOL    HW310777   2.973   4.282   4.503  1.7983 -1.7957 -1.0299
 2683SOL    MW410778   3.003   4.355   4.466  0.2220 -0.7100 -0.2146
 2684SOL     OW10779   0.224   1.261   4.243  0.5335 -0.0850  0.2384
 2684SOL    HW210780   0.144   1.218   4.213  0.3835 -0.2309  0.8291
 2684SOL    HW310781   0.215   1.351   4.213  0.7103 -0.3961 -0.7474
 2684SOL    MW410782   0.212   1.267   4.235  0.5370 -0.1454  0.1860
 2685SOL     OW10783   4.293   1.259   4.575  0.1753  0.0912  0.1210
 2685SOL    HW210784   4.377   1.242   4.617  0.2021 -0.6024 -0.1998
 2685SOL    HW310785   4.246   1.176   4.580 -0.8328  0.7128  1.0580
 2685SOL    MW410786   4.297   1.246   4.581  0.0463  0.0818  0.2022
 2686SOL     OW10787   1.140   2.344   4.130 -0.9030  0.1424  0.1303
 2686SOL    HW210788   1.069   2.387   4.178  0.5997  0.9983  1.6625
 2686SOL    HW310789   1.206   2.413   4.120  0.7165 -1.2790  0.8748
 2686SOL    MW410790   1.139   2.359   4.135 -0.4911  0.0677  0.4301
 2687SOL     OW10791   3.934   3.740   4.590 -0.3405  0.0756  0.5936
 2687SOL    HW210792   3.858   3.736   4.648 -1.1732 -2.0132 -0.5902
 2687SOL    HW310793   3.903   3.708   4.506  1.0810  2.2089 -0.8220
 2687SOL    MW410794   3.920   3.735   4.586 -0.2630  0.0813  0.2508
 2688SOL     OW10795   4.485   1.946   4.192 -0.2594  0.4194 -0.3502
 2688SOL    HW210796   4.484   1.851   4.197 -1.3430  0.4271 -0.2865
 2688SOL    HW310797   4.577   1.970   4.202  0.1552 -0.6793 -1.4619
 2688SOL    MW410798   4.497   1.937   4.194 -0.3481  0.2754 -0.4888
 2689SOL     OW10799   0.121   0.243   4.467  0.1195  0.1081  0.5868
 2689SOL    HW210800   0.155   0.332   4.480  0.7997 -0.0694  0.0749
 2689SOL    HW310801   0.028   0.250   4.487  0.0337  1.0897 -0.0759
 2689SOL    MW410802   0.113   0.256   4.471  0.1979  0.2142  0.4315
 2690SOL     OW10803   1.478   0.661   4.761  0.4720 -0.4712  0.2170
 2690SOL    HW210804   1.385   0.681   4.750  0.5813  0.3503  0.6762
 2690SOL    HW310805   1.480   0.570   4.790 -0.0988 -0.9396 -1.1970
 2690SOL    MW410806   1.466   0.652   4.764  0.4110 -0.4246  0.0911
 2691SOL     OW10807   4.480   0.126   4.795 -0.4824  0.0613  0.2615
 2691SOL    HW210808   4.494   0.157   4.884 -0.6058 -0.9209  0.6201
 2691SOL    HW310809   4.565   0.091   4.768 -0.9505 -1.3777  0.6687
 2691SOL    MW410810   4.493   0.126   4.803 -0.5605 -0.2581  0.3629
 2692SOL     OW10811   4.411   3.972   4.562  0.3649  0.3141 -0.1354
 2692SOL    HW210812   4.477   4.027   4.604  0.8241  0.2978 -0.8256
 2692SOL    HW310813   4.429   3.981   4.468 -0.0371 -0.4164 -0.2835
 2692SOL    MW410814   4.422   3.980   4.555  0.3719  0.2158 -0.2456
 2693SOL     OW10815   0.066   1.226   4.674 -0.4159  0.0586 -0.2600
 2693SOL    HW210816   0.114   1.274   4.606 -0.0069  0.2419  0.1528
 2693SOL    HW310817   0.082   1.134   4.655  1.3909  0.1265  0.7723
 2693SOL    MW410818   0.074   1.221   4.662 -0.1236  0.0918 -0.0691
 2694SOL     OW10819   2.667   4.099   4.523 -0.2970  0.3889  0.0493
 2694SOL    HW210820   2.758   4.129   4.524 -0.0679 -0.1951 -1.3526
 2694SOL    HW310821   2.654   4.068   4.433 -0.6534 -3.2480  1.2546
 2694SOL    MW410822   2.678   4.099   4.511 -0.3138 -0.1683  0.0229
 2695SOL     OW10823   2.245   1.157   4.159  0.4136 -0.2969  0.0727
 2695SOL    HW210824   2.238   1.067   4.192  0.9681  0.0306  1.1034
 2695SOL    HW310825   2.161   1.197   4.182  0.7439 -0.1109  0.9738
 2695SOL    MW410826   2.233   1.150   4.167  0.5302 -0.2291  0.3276
 2696SOL     OW10827   0.060   0.080   4.254 -0.3459  0.2547  0.2332
 2696SOL    HW210828   0.136   0.045   4.207 -0.5323 -1.1269  0.9244
 2696SOL    HW310829   0.097   0.119   4.333 -0.2732  0.2389  0.2069
 2696SOL    MW410830   0.075   0.080   4.258 -0.3609  0.0703  0.3209
 2697SOL     OW10831   3.807   0.486   4.274 -0.1794 -0.2177  0.0397
 2697SOL    HW210832   3.724   0.448   4.245  0.5510 -1.2518 -0.7282
 2697SOL    HW310833   3.796   0.580   4.260 -1.1510 -0.3622 -0.2382
 2697SOL    MW410834   3.794   0.494   4.268 -0.2110 -0.3732 -0.0982
 2698SOL     OW10835   4.272   0.554   4.511  0.2226 -0.0360 -0.4942
 2698SOL    HW210836   4.301   0.481   4.567  1.0589  1.6165  1.2897
 2698SOL    HW310837   4.187   0.579   4.547  1.4139  1.9790  1.0316
 2698SOL    MW410838   4.264   0.548   4.523  0.4902  0.4479 -0.0567
 2699SOL     OW10839   3.795   3.894   4.170  0.2650  0.3407  0.1091
 2699SOL    HW210840   3.800   3.881   4.076 -0.5533 -0.2648  0.1441
 2699SOL    HW310841   3.881   3.928   4.194  0.3440  0.8740 -0.9095
 2699SOL    MW410842   3.807   3.897   4.161  0.1674  0.3312 -0.0210
 2700SOL     OW10843   3.357   3.228   4.693 -0.1704 -0.2407 -0.2233
 2700SOL    HW210844   3.430   3.188   4.647  0.1736 -0.1396  0.2366
 2700SOL    HW310845   3.393   3.255   4.777 -1.2789 -2.3226  0.9798
 2700SOL    MW410846   3.371   3.226   4.698 -0.2713 -0.5019 -0.0043
 2701SOL     OW10847   2.768   2.847   4.672 -0.0634  0.2504  0.0257
 2701SOL    HW210848   2.696   2.834   4.610 -0.6837  0.2184  0.7474
 2701SOL    HW310849   2.797   2.758   4.693  0.3354  0.2686 -0.4266
 2701SOL    MW410850   2.763   2.833   4.666 -0.0927  0.2484  0.0615
 2702SOL     OW10851   0.009   4.267   4.119  0.0638  0.1214 -0.6065
 2702SOL    HW210852   0.080   4.317   4.159 -1.2592  1.3198  0.2582
 2702SOL    HW310853   0.020   4.282   4.025  1.0116  0.1892 -0.4978
 2702SOL    MW410854   0.020   4.275   4.112  0.0143  0.2890 -0.4787
 2703SOL     OW10855   4.299   3.861   4.157  0.2062  0.2071  0.2557
 2703SOL    HW210856   4.311   3.865   4.062  2.0980 -0.4749  0.4396
 2703SOL    HW310857   4.366   3.921   4.191  0.3211 -0.4528  1.2009
 2703SOL    MW410858   4.310   3.870   4.149  0.4706  0.0303  0.4048
 2704SOL     OW10859   2.733   4.227   4.117 -0.1556  0.5777  0.4988
 2704SOL    HW210860   2.719   4.246   4.024 -0.6439 -0.3339  0.3812
 2704SOL    HW310861   2.816   4.270   4.137  0.1039  0.5340 -0.4330
 2704SOL    MW410862   2.742   4.235   4.107 -0.1857  0.4520  0.3605
 2705SOL     OW10863   4.321   4.567   4.610 -0.3383  0.1793 -0.1776
 2705SOL    HW210864   4.376   4.586   4.687 -1.4647  0.3860  0.5894
 2705SOL    HW310865   4.267   4.645   4.599 -0.9363 -0.2783 -0.5314
 2705SOL    MW410866   4.321   4.580   4.619 -0.5655  0.1464 -0.1235
 2706SOL     OW10867   2.014   3.615   4.500  0.0479  0.2911 -0.4000
 2706SOL    HW210868   2.007   3.585   4.410  0.6882  0.5993 -0.5498
 2706SOL    HW310869   2.029   3.535   4.551 -0.0949  0.1427 -0.5901
 2706SOL    MW410870   2.015   3.601   4.495  0.1140  0.3121 -0.4449
 2707SOL     OW10871   1.769   1.959   4.141  0.0600  0.3721  0.3186
 2707SOL    HW210872   1.764   1.877   4.189 -1.4745  0.1183 -0.2648
 2707SOL    HW310873   1.702   2.015   4.181  0.1937  0.8758 -0.1549
 2707SOL    MW410874   1.760   1.956   4.152 -0.1247  0.4051  0.1793
 2708SOL     OW10875   0.653   0.498   4.527 -0.2743 -0.2449 -0.4761
 2708SOL    HW210876   0.736   0.542   4.547 -0.6326  1.0134 -1.6394
 2708SOL    HW310877   0.586   0.554   4.566 -0.6726 -0.3871 -0.9512
 2708SOL    MW410878   0.655   0.511   4.535 -0.3741 -0.0976 -0.6924
 2709SOL     OW10879   2.384   2.623   4.904 -0.0298 -0.0289  0.2344
 2709SOL    HW210880   2.303   2.673   4.892  1.0993  2.1277  1.3584
 2709SOL    HW310881   2.354   2.532   4.916 -2.2129  0.5877 -0.2901
 2709SOL    MW410882   2.369   2.617   4.904 -0.1690  0.3369  0.3133
 2710SOL     OW10883   3.819   0.073   4.153  0.0113  0.5343  0.3625
 2710SOL    HW210884   3.834   0.061   4.059  0.3081  1.5682  0.2798
 2710SOL    HW310885   3.906   0.068   4.192 -0.0672  0.5378  0.5358
 2710SOL    MW410886   3.832   0.071   4.146  0.0405  0.6712  0.3743
 2711SOL     OW10887   2.913   3.696   4.547 -0.1188 -0.2589 -0.4729
 2711SOL    HW210888   2.962   3.747   4.482 -0.4187 -0.0681 -0.5494
 2711SOL    HW310889   2.835   3.749   4.565  0.8868  0.6128  1.4580
 2711SOL    MW410890   2.909   3.710   4.541 -0.0257 -0.1187 -0.2279
 2712SOL     OW10891   4.303   2.376   4.697 -0.0051  0.1902 -0.2841
 2712SOL    HW210892   4.217   2.406   4.666 -0.0159  0.5952  0.1309
 2712SOL    HW310893   4.289   2.359   4.790  0.2581 -0.1469 -0.3101
 2712SOL    MW410894   4.290   2.378   4.705  0.0281  0.1993 -0.2332
 2713SOL     OW10895   4.259   0.754   4.169 -0.3100  0.0152  0.3791
 2713SOL    HW210896   4.277   0.759   4.075 -0.5502 -1.0490  0.2718
 2713SOL    HW310897   4.254   0.660   4.188  0.7014  0.1844  1.6357
 2713SOL    MW410898   4.261   0.742   4.159 -0.2084 -0.1029  0.5302
 2714SOL     OW10899   3.087   1.644   4.298  0.1945  0.0648  0.2417
 2714SOL    HW210900   3.161   1.632   4.238 -1.1393 -2.1617 -1.0043
 2714SOL    HW310901   3.010   1.617   4.248 -1.5155  2.4907  1.4722
 2714SOL    MW410902   3.087   1.639   4.284 -0.2069  0.0911  0.2394
 2715SOL     OW10903   1.998   3.587   4.230 -0.0247 -0.1174 -0.6383
 2715SOL    HW210904   1.994   3.678   4.201  0.5725  0.0222 -0.2896
 2715SOL    HW310905   1.924   3.545   4.186 -1.9608  1.1352  1.3125
 2715SOL    MW410906   1.987   3.593   4.220 -0.2013  0.0665 -0.3347
 2716SOL     OW10907   1.148   2.998   4.511 -0.2586  0.1843  0.9842
 2716SOL    HW210908   1.084   3.065   4.534  0.2788  1.5581 -1.4122
 2716SOL    HW310909   1.102   2.940   4.450  0.3249  0.3182  0.4141
 2716SOL    MW410910   1.134   2.999   4.506 -0.1106  0.3831  0.5932
 2717SOL     OW10911   2.240   3.488   4.120 -0.0246 -0.2396 -0.2273
 2717SOL    HW210912   2.159   3.517   4.160  0.7979  0.2011  1.1667
 2717SOL    HW310913   2.247   3.395   4.143  0.3774 -0.0205  0.5658
 2717SOL    MW410914   2.230   3.479   4.128  0.1366 -0.1526  0.0615
 2718SOL     OW10915   2.427   0.480   4.228  0.0721  0.5026 -0.1203
 2718SOL    HW210916   2.345   0.436   4.205  0.2788 -0.1534  0.3691
 2718SOL    HW310917   2.432   0.473   4.323  0.4007  1.0824 -0.0886
 2718SOL    MW410918   2.417   0.473   4.238  0.1431  0.4926 -0.0520
 2719SOL     OW10919   3.663   1.485   4.523  0.0887  0.4055 -0.3430
 2719SOL    HW210920   3.592   1.525   4.574 -0.5467 -0.7817 -0.2602
 2719SOL    HW310921   3.739   1.540   4.541 -0.1460  0.0875  1.8249
 2719SOL    MW410922   3.664   1.497   4.532 -0.0260  0.2068 -0.0463
 2720SOL     OW10923   0.416   0.841   4.225 -0.0362 -0.3505 -0.1049
 2720SOL    HW210924   0.495   0.789   4.209 -0.8104 -1.7167  0.3970
 2720SOL    HW310925   0.441   0.931   4.203  2.0573 -0.5590  1.2771
 2720SOL    MW410926   0.430   0.846   4.220  0.1378 -0.5583  0.1431
 2721SOL     OW10927   0.237   3.132   4.206 -0.0646 -0.6888 -0.1094
 2721SOL    HW210928   0.163   3.180   4.242  1.2259 -0.0545  1.8303
 2721SOL    HW310929   0.228   3.044   4.242 -0.3876 -0.8775 -0.6460
 2721SOL    MW410930   0.226   3.127   4.216  0.0631 -0.6301  0.0758
 2722SOL     OW10931   0.023   2.711   4.201 -0.3496  0.3760  0.1477
 2722SOL    HW210932  -0.051   2.765   4.229  0.8463  1.8344  0.5263
 2722SOL    HW310933  -0.003   2.622   4.225 -2.4118  0.7355 -0.6297
 2722SOL    MW410934   0.010   2.707   4.208 -0.4639  0.6158  0.0954
 2723SOL     OW10935   2.237   1.686   4.301 -0.1746  0.5350  0.1767
 2723SOL    HW210936   2.257   1.693   4.394  0.6240  0.1603  0.0406
 2723SOL    HW310937   2.315   1.647   4.263 -0.1402  1.5290 -0.7907
 2723SOL    MW410938   2.250   1.682   4.308 -0.0646  0.6168  0.0310
 2724SOL     OW10939   2.241   3.443   3.837  0.5088  0.5410 -0.0203
 2724SOL    HW210940   2.303   3.514   3.818 -0.2227  1.1437 -0.1985
 2724SOL    HW310941   2.232   3.445   3.932  0.0792  1.0471 -0.0685
 2724SOL    MW410942   2.248   3.453   3.847  0.3555  0.6871 -0.0503
 2725SOL     OW10943   3.818   0.463   4.548  0.2934  0.3433 -0.2041
 2725SOL    HW210944   3.820   0.477   4.453 -0.6128 -1.2076 -0.4667
 2725SOL    HW310945   3.883   0.524   4.582  1.5262  0.0355 -1.9408
 2725SOL    MW410946   3.827   0.473   4.540  0.3366  0.0980 -0.4678
 2726SOL     OW10947   3.684   2.265   4.105  0.0843 -0.0509  0.1072
 2726SOL    HW210948   3.715   2.309   4.027  0.5923  1.0110  0.8940
 2726SOL    HW310949   3.738   2.186   4.112  0.5299  0.2299 -0.2096
 2726SOL    MW410950   3.695   2.260   4.096  0.2100  0.1261  0.1693
 2727SOL     OW10951   0.457   4.286   4.204 -0.1482  0.7380 -0.1872
 2727SOL    HW210952   0.466   4.199   4.244  1.7262  0.7692 -0.4970
 2727SOL    HW310953   0.461   4.269   4.110 -1.1769  1.0232 -0.2840
 2727SOL    MW410954   0.458   4.272   4.197 -0.0366  0.7792 -0.2408
 2728SOL     OW10955   2.502   2.340   4.179  0.3012 -0.1753 -0.5152
 2728SOL    HW210956   2.483   2.257   4.223 -3.2005  1.0617  0.4623
 2728SOL    HW310957   2.563   2.385   4.239  1.0976 -1.4030 -0.3727
 2728SOL    MW410958   2.508   2.335   4.193 -0.0556 -0.1743 -0.3672
 2729SOL     OW10959   2.482   3.619   3.805  0.7296  0.0847  0.3448
 2729SOL    HW210960   2.565   3.576   3.823  1.7224  1.2916 -1.2167
 2729SOL    HW310961   2.475   3.620   3.709 -0.2700  1.4819  0.4060
 2729SOL    MW410962   2.492   3.613   3.795  0.7288  0.4284  0.1466
 2730SOL     OW10963   0.928   0.378   4.124  0.2818 -0.3642 -0.3184
 2730SOL    HW210964   0.847   0.406   4.167 -1.3380 -0.7781 -2.9361
 2730SOL    HW310965   0.943   0.290   4.156 -1.4156 -1.0166 -1.2365
 2730SOL    MW410966   0.919   0.370   4.134 -0.1559 -0.5049 -0.7844
 2731SOL     OW10967   2.773   0.847   4.569  0.4540  0.1179 -0.0917
 2731SOL    HW210968   2.743   0.761   4.599  1.1458  0.0390  0.4137
 2731SOL    HW310969   2.743   0.853   4.478 -0.0569 -0.4362  0.0361
 2731SOL    MW410970   2.765   0.836   4.561  0.4776  0.0344 -0.0086
 2732SOL     OW10971   1.141   0.095   4.527  0.0741 -0.0429 -0.0814
 2732SOL    HW210972   1.177   0.165   4.581 -0.9561  1.2246 -0.9997
 2732SOL    HW310973   1.049   0.089   4.552  0.0693 -0.8127 -0.2694
 2732SOL    MW410974   1.134   0.103   4.537 -0.0625  0.0228 -0.2275
 2733SOL     OW10975   1.736   3.965   4.191  0.2276 -0.0544 -0.3542
 2733SOL    HW210976   1.742   3.981   4.285  0.9180  1.2077 -0.5937
 2733SOL    HW310977   1.823   3.936   4.166  0.3601  0.6957 -0.7834
 2733SOL    MW410978   1.748   3.963   4.200  0.3362  0.2112 -0.4420
 2734SOL     OW10979   0.437   0.934   4.524  0.1540 -0.2927  0.3949
 2734SOL    HW210980   0.512   0.993   4.534 -0.2235  0.3421 -0.3795
 2734SOL    HW310981   0.426   0.926   4.429 -2.5464  1.9792  0.4432
 2734SOL    MW410982   0.446   0.941   4.512 -0.2521  0.0908  0.2990
 2735SOL     OW10983   0.201   3.646   4.296 -0.1607  0.1036  0.0408
 2735SOL    HW210984   0.180   3.666   4.387 -2.2395  0.5542 -0.5241
 2735SOL    HW310985   0.127   3.595   4.265  1.2019 -1.2814 -1.0055
 2735SOL    MW410986   0.189   3.642   4.304 -0.2552 -0.0196 -0.1717
 2736SOL     OW10987   3.708   0.018   4.522  0.8329  0.3611 -0.4037
 2736SOL    HW210988   3.666   0.040   4.438  1.5289 -0.3836 -0.9522
 2736SOL    HW310989   3.753  -0.065   4.505  1.0444  0.2510  0.6903
 2736SOL    MW410990   3.708   0.010   4.509  0.9527  0.2484 -0.3319
 2737SOL     OW10991   1.505   3.813   4.144  0.0451 -0.0454 -0.7783
 2737SOL    HW210992   1.444   3.879   4.177 -1.4184 -0.4215 -2.6025
 2737SOL    HW310993   1.592   3.851   4.157 -0.6403  1.0977  0.5989
 2737SOL    MW410994   1.508   3.827   4.150 -0.2383  0.0558 -0.8368
 2738SOL     OW10995   3.795   4.225   4.510 -0.1498  0.3018 -0.2289
 2738SOL    HW210996   3.706   4.209   4.543 -0.5297  1.1153 -0.8472
 2738SOL    HW310997   3.846   4.150   4.541 -0.7083  0.5908  1.4271
 2738SOL    MW410998   3.790   4.213   4.519 -0.2737  0.4473 -0.0920
 2739SOL     OW10999   1.805   3.625   4.798 -0.3356  0.1715 -0.5689
 2739SOL    HW211000   1.751   3.546   4.787 -1.3857  1.1729 -2.8687
 2739SOL    HW311001   1.774   3.685   4.731  1.7810  1.8436 -0.1047
 2739SOL    MW411002   1.793   3.622   4.788 -0.1949  0.5243 -0.8111
 2740SOL     OW11003   2.233   3.778   4.609  0.9063 -0.0078 -0.1062
 2740SOL    HW211004   2.212   3.728   4.688 -0.6289  1.5705  0.5279
 2740SOL    HW311005   2.166   3.752   4.545  1.3359 -0.2943 -0.4355
 2740SOL    MW411006   2.221   3.768   4.611  0.7603  0.1628 -0.0658
 2741SOL     OW11007   1.514   0.124   4.507 -0.0833  0.4892  0.2158
 2741SOL    HW211008   1.474   0.038   4.523  0.1059  0.1753 -0.9718
 2741SOL    HW311009   1.498   0.173   4.588 -0.5343 -0.5312  0.7551
 2741SOL    MW411010   1.506   0.119   4.520 -0.1179  0.3131  0.1302
 2742SOL     OW11011   4.303   1.659   4.716  0.2744  0.2899  0.2016
 2742SOL    HW211012   4.241   1.594   4.683 -0.5703  0.6116  1.1125
 2742SOL    HW311013   4.327   1.627   4.803  2.1899 -0.3634 -0.5415
 2742SOL    MW411014   4.298   1.646   4.723  0.4163  0.2462  0.2236
 2743SOL     OW11015   2.328   2.332   4.870  0.1996  0.0238 -0.4092
 2743SOL    HW211016   2.269   2.323   4.794  0.0995  0.4553 -0.3824
 2743SOL    HW311017   2.361   2.243   4.885 -0.1356 -0.1476 -0.6742
 2743SOL    MW411018   2.324   2.319   4.862  0.1423  0.0579 -0.4401
 2744SOL     OW11019   2.657   3.490   4.170  0.2723 -0.5650  0.4291
 2744SOL    HW211020   2.571   3.525   4.192 -0.4973 -2.3385  0.2990
 2744SOL    HW311021   2.658   3.485   4.075  0.0001 -1.7619  0.4737
 2744SOL    MW411022   2.646   3.494   4.161  0.1349 -0.9570  0.4177
 2745SOL     OW11023   3.010   3.924   4.366 -0.5736 -0.6089  0.2412
 2745SOL    HW211024   2.969   3.925   4.280 -0.8605  0.4400  0.3810
 2745SOL    HW311025   3.099   3.892   4.351 -0.4013  0.2248 -0.5416
 2745SOL    MW411026   3.016   3.920   4.353 -0.5889 -0.3607  0.1564
 2746SOL     OW11027   2.703   3.833   4.605 -0.0686 -0.5946 -0.5519
 2746SOL    HW211028   2.619   3.796   4.580 -0.5246 -0.1555  0.3008
 2746SOL    HW311029   2.702   3.922   4.572 -0.5827 -0.0863  0.7818
 2746SOL    MW411030   2.692   3.840   4.598 -0.1965 -0.4697 -0.2637
 2747SOL     OW11031   2.654   0.301   4.576  0.4636  0.0048 -0.0717
 2747SOL    HW211032   2.635   0.208   4.565 -0.2532  0.3550 -1.9598
 2747SOL    HW311033   2.744   0.311   4.543  0.3414  0.0860 -0.3757
 2747SOL    MW411034   2.664   0.290   4.571  0.3531  0.0617 -0.3610
 2748SOL     OW11035   3.135   0.859   4.227  0.6729  0.0510  0.1148
 2748SOL    HW211036   3.126   0.952   4.208  0.3047 -0.0870 -0.4091
 2748SOL    HW311037   3.133   0.853   4.322 -0.6029  0.4485  0.1162
 2748SOL    MW411038   3.134   0.870   4.237  0.4559  0.0852  0.0463
 2749SOL     OW11039   2.347   1.654   4.555  0.7073  0.4296  0.7758
 2749SOL    HW211040   2.376   1.563   4.552  1.0847  0.4867  2.5448
 2749SOL    HW311041   2.408   1.697   4.615 -0.0834  1.6334  0.7368
 2749SOL    MW411042   2.359   1.648   4.562  0.6530  0.5959  1.0042
 2750SOL     OW11043   3.414   0.851   4.571 -0.1136 -0.7788 -0.1303
 2750SOL    HW211044   3.490   0.886   4.525 -0.2490  1.8549  1.5303
 2750SOL    HW311045   3.450   0.786   4.631  0.7699 -0.0556  0.1428
 2750SOL    MW411046   3.429   0.847   4.573 -0.0148 -0.3359  0.1245
 2751SOL     OW11047   2.436   1.385   4.511  0.1784  0.1676  0.0257
 2751SOL    HW211048   2.528   1.383   4.540  0.1890 -0.4202 -0.0547
 2751SOL    HW311049   2.399   1.303   4.544 -0.4594  0.6546  0.5178
 2751SOL    MW411050   2.443   1.374   4.519  0.0956  0.1543  0.0801
 2752SOL     OW11051   0.240   3.378   4.567 -0.4253  0.4406  0.8951
 2752SOL    HW211052   0.243   3.384   4.471  1.0874  1.1647  0.9719
 2752SOL    HW311053   0.168   3.318   4.585 -0.6298  0.1867 -0.7098
 2752SOL    MW411054   0.231   3.371   4.557 -0.2527  0.5026  0.6933
 2753SOL     OW11055   1.139   1.179   4.542  0.0766 -0.5982 -0.0337
 2753SOL    HW211056   1.186   1.242   4.597  1.1611 -1.3921 -0.0341
 2753SOL    HW311057   1.117   1.228   4.463  2.8022 -0.7575 -0.9615
 2753SOL    MW411058   1.142   1.194   4.539  0.5795 -0.7240 -0.1564
 2754SOL     OW11059   0.914   2.612   4.568  0.2408 -0.1435 -0.0219
 2754SOL    HW211060   0.888   2.521   4.556 -0.7367  0.2139 -0.6657
 2754SOL    HW311061   0.969   2.611   4.646  0.2789 -1.2897 -0.0544
 2754SOL    MW411062   0.918   2.600   4.577  0.1169 -0.2475 -0.1111
 2755SOL     OW11063   3.333   1.569   4.186 -0.3861  0.0975 -0.0223
 2755SOL    HW211064   3.339   1.478   4.217  1.4672  0.0505 -0.4626
 2755SOL    HW311065   3.415   1.610   4.215 -1.7538  2.0009  1.2779
 2755SOL    MW411066   3.345   1.562   4.194 -0.3221  0.3425  0.0911
 2756SOL     OW11067   1.122   3.580   4.259 -0.1395  0.0244 -0.3873
 2756SOL    HW211068   1.189   3.523   4.221  0.2648 -0.0866  0.4757
 2756SOL    HW311069   1.040   3.534   4.243  0.0846 -0.2904 -0.6345
 2756SOL    MW411070   1.120   3.566   4.252 -0.0566 -0.0319 -0.3061
 2757SOL     OW11071   0.523   3.308   4.555 -0.5269  0.1043  0.1687
 2757SOL    HW211072   0.516   3.284   4.463 -0.3273  1.4433 -0.2060
 2757SOL    HW311073   0.435   3.338   4.579 -0.9399 -1.5724  0.8080
 2757SOL    MW411074   0.510   3.309   4.546 -0.5550  0.0598  0.2031
 2758SOL     OW11075   3.150   0.806   4.500 -0.2327 -0.3197  0.0218
 2758SOL    HW211076   3.107   0.884   4.533  1.9530  1.1220 -0.4379
 2758SOL    HW311077   3.242   0.815   4.528  0.0528 -2.7551  0.0472
 2758SOL    MW411078   3.157   0.817   4.508  0.0932 -0.4508 -0.0358
 2759SOL     OW11079   1.116   0.808   4.157 -0.0755 -0.1360  0.0029
 2759SOL    HW211080   1.191   0.850   4.201 -0.2549  0.6103 -0.3858
 2759SOL    HW311081   1.139   0.813   4.064 -0.8931  0.6751 -0.1632
 2759SOL    MW411082   1.129   0.814   4.151 -0.2071  0.0695 -0.0706
 2760SOL     OW11083   3.478   0.201   4.593  0.1630  0.1276 -0.0270
 2760SOL    HW211084   3.567   0.173   4.568  0.8446  2.1199  0.0520
 2760SOL    HW311085   3.470   0.174   4.684 -0.1275 -1.9329 -0.6251
 2760SOL    MW411086   3.489   0.194   4.602  0.2146  0.1186 -0.0954
 2761SOL     OW11087   2.013   2.068   4.232  0.1946 -0.4296 -0.1445
 2761SOL    HW211088   1.931   2.026   4.209  0.4373 -0.3497 -1.1641
 2761SOL    HW311089   2.001   2.160   4.209  0.0718 -0.1446  1.0191
 2761SOL    MW411090   2.001   2.075   4.226  0.2103 -0.3815 -0.1254
 2762SOL     OW11091   0.199   1.525   4.146 -0.2372  0.1932 -0.1818
 2762SOL    HW211092   0.276   1.577   4.171 -0.7764  0.2120  1.5597
 2762SOL    HW311093   0.125   1.577   4.176 -0.8409 -0.8366  0.1335
 2762SOL    MW411094   0.199   1.539   4.154 -0.3880  0.0598  0.0896
 2763SOL     OW11095   0.905   3.989   4.227 -0.3299 -0.0452 -0.4400
 2763SOL    HW211096   0.904   3.986   4.323 -1.1634 -0.3639 -0.4555
 2763SOL    HW311097   0.898   4.083   4.206  0.4200  0.0675 -0.1847
 2763SOL    MW411098   0.904   4.001   4.237 -0.3409 -0.0725 -0.4086
 2764SOL     OW11099   3.800   0.854   4.666 -0.2179 -0.2615 -0.1625
 2764SOL    HW211100   3.731   0.790   4.686  0.3136 -0.9123 -0.4057
 2764SOL    HW311101   3.761   0.910   4.599 -0.5754 -0.5255 -0.1841
 2764SOL    MW411102   3.786   0.853   4.660 -0.1945 -0.3821 -0.1974
 2765SOL     OW11103   3.826   1.556   4.138 -0.1488  0.1298  0.1551
 2765SOL    HW211104   3.749   1.586   4.187  0.3077 -0.6821  1.3842
 2765SOL    HW311105   3.896   1.615   4.164 -0.2720  0.6822 -0.7398
 2765SOL    MW411106   3.825   1.568   4.148 -0.1051  0.0957  0.1993
 2766SOL     OW11107   0.653   2.061   4.249 -0.1125 -0.3872  0.1683
 2766SOL    HW211108   0.739   2.019   4.247 -0.5378 -1.2927  0.7030
 2766SOL    HW311109   0.595   2.000   4.203 -0.5654  0.0040  0.2124
 2766SOL    MW411110   0.656   2.047   4.243 -0.2283 -0.4551  0.2441
 2767SOL     OW11111   1.356   1.955   4.161  0.2768  0.0013  0.3989
 2767SOL    HW211112   1.432   2.009   4.180 -0.3052  0.8500  0.3453
 2767SOL    HW311113   1.283   2.001   4.203 -0.7644  1.0287 -2.4200
 2767SOL    MW411114   1.356   1.968   4.169  0.0626  0.2488  0.0196
 2768SOL     OW11115   1.171   4.338   4.525 -0.4084 -0.3616 -0.7440
 2768SOL    HW211116   1.184   4.244   4.536  0.9566 -0.0757  0.3626
 2768SOL    HW311117   1.077   4.351   4.533 -0.4685 -1.4738  0.4518
 2768SOL    MW411118   1.160   4.327   4.528 -0.2360 -0.4706 -0.4406
 2769SOL     OW11119   0.993   2.142   4.516 -0.0344  0.6589  0.0595
 2769SOL    HW211120   1.026   2.118   4.429  0.1139  0.8004  0.0753
 2769SOL    HW311121   1.070   2.137   4.573 -0.2394  0.0446  0.2885
 2769SOL    MW411122   1.008   2.138   4.512 -0.0418  0.5965  0.0920
 2770SOL     OW11123   0.255   2.054   4.250 -0.4401 -0.1065  0.8066
 2770SOL    HW211124   0.204   2.126   4.213  1.6939  1.0599  0.0079
 2770SOL    HW311125   0.280   2.085   4.337  0.4744  0.1121  0.4659
 2770SOL    MW411126   0.252   2.068   4.257 -0.0379  0.0765  0.6566
 2771SOL     OW11127   2.438   3.897   4.162 -0.0823 -0.0996 -0.1488
 2771SOL    HW211128   2.452   3.890   4.067  1.5770  0.6147  0.0202
 2771SOL    HW311129   2.351   3.935   4.172 -0.2421 -0.1359 -1.3824
 2771SOL    MW411130   2.429   3.901   4.151  0.1152 -0.0100 -0.2894
 2772SOL     OW11131   0.510   1.241   4.888 -0.5111 -0.5568 -0.3063
 2772SOL    HW211132   0.504   1.251   4.793 -1.5321 -1.6073 -0.3591
 2772SOL    HW311133   0.420   1.256   4.919 -0.3461 -1.0440  0.4124
 2772SOL    MW411134   0.497   1.244   4.879 -0.6240 -0.7597 -0.2189
 2773SOL     OW11135   1.413   3.040   4.272 -0.0862  0.5295 -0.0541
 2773SOL    HW211136   1.413   3.084   4.357  3.1837  2.0937 -0.7519
 2773SOL    HW311137   1.336   3.075   4.227 -0.5221  1.4991  1.4125
 2773SOL    MW411138   1.403   3.051   4.277  0.2878  0.8638  0.0472
 2774SOL     OW11139   0.669   1.093   4.507 -0.0447 -0.0405  0.3991
 2774SOL    HW211140   0.693   1.141   4.427 -0.3656  0.4753  0.6091
 2774SOL    HW311141   0.748   1.093   4.560  0.3522 -0.9351 -0.1929
 2774SOL    MW411142   0.682   1.100   4.503 -0.0347 -0.0905  0.3495
 2775SOL     OW11143   2.185   4.014   4.492  0.0562  0.5932  0.4359
 2775SOL    HW211144   2.215   3.944   4.550  1.9526  0.7619 -0.2861
 2775SOL    HW311145   2.119   4.061   4.543  0.3852 -0.3615  1.7802
 2775SOL    MW411146   2.181   4.011   4.506  0.3498  0.4892  0.5178
 2776SOL     OW11147   2.008   2.336   4.156  0.0389 -0.1939  0.2777
 2776SOL    HW211148   2.080   2.381   4.200 -0.2086  0.1525  0.3279
 2776SOL    HW311149   1.931   2.390   4.174 -0.3714 -0.9649  0.8632
 2776SOL    MW411150   2.007   2.349   4.164 -0.0477 -0.2501  0.3614
 2777SOL     OW11151   2.435   4.611   4.141 -0.1745 -0.2680  0.1889
 2777SOL    HW211152   2.364   4.662   4.180  1.4551  0.5859  2.1456
 2777SOL    HW311153   2.419   4.522   4.171 -0.9313 -0.2378 -0.1193
 2777SOL    MW411154   2.423   4.606   4.150 -0.0594 -0.1516  0.4063
 2778SOL     OW11155   2.864   3.620   4.280  0.2725  0.0263 -0.3033
 2778SOL    HW211156   2.855   3.622   4.375  2.2378 -0.4942 -0.0810
 2778SOL    HW311157   2.785   3.577   4.249 -0.5210  0.4666  1.0724
 2778SOL    MW411158   2.852   3.614   4.288  0.4272  0.0157 -0.0920
 2779SOL     OW11159   2.340   2.386   4.488 -0.0460 -0.3317 -0.0893
 2779SOL    HW211160   2.294   2.412   4.409 -0.1238  2.6746  0.8656
 2779SOL    HW311161   2.276   2.337   4.539 -0.3278 -1.3140 -1.3785
 2779SOL    MW411162   2.326   2.383   4.484 -0.0935 -0.0646 -0.1330
 2780SOL     OW11163   2.888   2.316   4.173  0.2213 -0.1325  0.0609
 2780SOL    HW211164   2.958   2.374   4.204  0.0456  0.4261 -0.5713
 2780SOL    HW311165   2.913   2.229   4.205  1.9332 -0.1723 -1.3217
 2780SOL    MW411166   2.901   2.312   4.181  0.4241 -0.0641 -0.2050
 2781SOL     OW11167   0.048   2.943   4.603  0.0123 -0.1146  0.4355
 2781SOL    HW211168   0.114   2.875   4.592  0.2568  0.0733  0.7101
 2781SOL    HW311169  -0.035   2.896   4.605  0.0634 -0.2708 -0.7849
 2781SOL    MW411170   0.046   2.928   4.602  0.0513 -0.1104  0.3104
 2782SOL     OW11171   1.776   1.180   4.158  0.1501 -0.0628 -0.5251
 2782SOL    HW211172   1.854   1.221   4.195 -0.0707 -0.0161 -0.1069
 2782SOL    HW311173   1.781   1.088   4.186 -0.7779  0.3077  0.8717
 2782SOL    MW411174   1.787   1.173   4.166 -0.0014 -0.0079 -0.2856
 2783SOL     OW11175   3.580   1.641   4.300  0.0365 -0.1198 -0.3297
 2783SOL    HW211176   3.592   1.575   4.368 -0.5159  0.9822  0.8453
 2783SOL    HW311177   3.600   1.724   4.342 -0.9047  0.6414 -1.3483
 2783SOL    MW411178   3.584   1.643   4.314 -0.1609  0.1261 -0.3090
 2784SOL     OW11179   1.387   3.455   4.523  0.2398  0.0899 -0.0947
 2784SOL    HW211180   1.378   3.363   4.497 -2.1959  0.2074  0.2534
 2784SOL    HW311181   1.430   3.496   4.448  1.9003 -1.4282 -0.0147
 2784SOL    MW411182   1.392   3.448   4.509  0.1376 -0.0949 -0.0381
 2785SOL     OW11183   3.140   1.154   4.164 -0.1074  0.1456 -0.4064
 2785SOL    HW211184   3.142   1.154   4.069  0.6562 -2.2275 -0.4408
 2785SOL    HW311185   3.219   1.202   4.190  0.3011 -0.1961 -0.9944
 2785SOL    MW411186   3.151   1.160   4.155  0.0472 -0.2126 -0.4883
 2786SOL     OW11187   0.696   0.744   4.156  0.3399 -0.0561 -0.3797
 2786SOL    HW211188   0.767   0.797   4.191  1.0225  0.0504 -1.9159
 2786SOL    HW311189   0.708   0.658   4.197  1.4321 -0.0749 -0.7249
 2786SOL    MW411190   0.707   0.740   4.166  0.5742 -0.0445 -0.6280
 2787SOL     OW11191   4.277   4.385   4.217  0.1746  0.0572  0.2741
 2787SOL    HW211192   4.359   4.341   4.193  0.1136 -0.1134  0.3777
 2787SOL    HW311193   4.271   4.373   4.312 -0.7896 -1.3215  0.0451
 2787SOL    MW411194   4.287   4.378   4.227  0.0391 -0.1469  0.2575
 2788SOL     OW11195   3.222   1.848   4.642  0.2200  0.4436  0.4757
 2788SOL    HW211196   3.250   1.930   4.601 -1.6218  1.1634  0.5710
 2788SOL    HW311197   3.159   1.875   4.709 -0.5996 -1.0668  0.3388
 2788SOL    MW411198   3.217   1.862   4.645 -0.1311  0.3393  0.4697
 2789SOL     OW11199   1.994   1.304   4.250  0.3190 -0.0573 -0.0083
 2789SOL    HW211200   1.992   1.400   4.240  1.9637 -0.0188  0.0205
 2789SOL    HW311201   2.024   1.290   4.340  1.7095 -0.6192 -0.5547
 2789SOL    MW411202   1.997   1.315   4.261  0.7193 -0.1264 -0.0763
 2790SOL     OW11203   1.554   1.346   4.299 -0.0712 -0.0639 -0.0965
 2790SOL    HW211204   1.550   1.429   4.251  2.7021  1.1218  1.5919
 2790SOL    HW311205   1.624   1.297   4.257  0.7328 -0.0339  1.1822
 2790SOL    MW411206   1.562   1.350   4.287  0.4008  0.0964  0.2947
 2791SOL     OW11207   1.798   3.256   4.175 -0.0604 -0.5699  0.0623
 2791SOL    HW211208   1.883   3.213   4.172  0.0263 -0.4073  0.2610
 2791SOL    HW311209   1.739   3.193   4.133  0.4207 -0.0741 -1.3844
 2791SOL    MW411210   1.801   3.242   4.169  0.0145 -0.4828 -0.1020
 2792SOL     OW11211   4.316   4.643   4.163 -0.2571  0.4661 -0.1399
 2792SOL    HW211212   4.397   4.668   4.207 -0.2065  0.6734 -0.3506
 2792SOL    HW311213   4.309   4.549   4.177  0.5902  0.2577 -1.0565
 2792SOL    MW411214   4.326   4.634   4.170 -0.1388  0.4659 -0.2890
 2793SOL     OW11215   0.901   0.576   4.632  0.0387 -0.1124  0.2757
 2793SOL    HW211216   0.981   0.555   4.584  0.8028  0.5061  1.2410
 2793SOL    HW311217   0.894   0.672   4.626 -1.0079 -0.2210 -0.3795
 2793SOL    MW411218   0.911   0.586   4.625  0.0014 -0.0451  0.3166
 2794SOL     OW11219   0.490   3.986   4.310  0.3605 -0.0945 -0.0336
 2794SOL    HW211220   0.531   3.956   4.391  0.1181  0.3159  0.2458
 2794SOL    HW311221   0.549   3.957   4.241 -0.3882 -2.1584  0.1390
 2794SOL    MW411222   0.503   3.978   4.312  0.2298 -0.3128  0.0257
 2795SOL     OW11223   2.526   1.771   4.715  0.3873 -0.3059 -0.0542
 2795SOL    HW211224   2.497   1.860   4.737  2.1759 -0.1357  1.8019
 2795SOL    HW311225   2.599   1.784   4.655  0.3601 -0.5167 -0.1317
 2795SOL    MW411226   2.532   1.785   4.710  0.6199 -0.3115  0.1802
 2796SOL     OW11227   0.025   4.215   4.678 -0.2363  0.1276 -0.2135
 2796SOL    HW211228  -0.059   4.216   4.725  0.0047  1.3224  0.2077
 2796SOL    HW311229   0.027   4.299   4.632  0.9801  0.3504  0.2244
 2796SOL    MW411230   0.014   4.226   4.678 -0.0440  0.3147 -0.0997
 2797SOL     OW11231   0.500   3.258   4.266  0.2372  0.4117 -0.0610
 2797SOL    HW211232   0.416   3.213   4.252 -0.1469  0.2334  2.5594
 2797SOL    HW311233   0.483   3.348   4.240 -0.7517  0.3648  0.4085
 2797SOL    MW411234   0.487   3.264   4.261  0.0560  0.3819  0.3462
 2798SOL     OW11235   4.354   0.286   4.600 -0.3213 -0.2051  0.0058
 2798SOL    HW211236   4.283   0.230   4.571 -1.9774  0.5226  2.5433
 2798SOL    HW311237   4.393   0.240   4.674 -0.1528  0.8501  0.5845
 2798SOL    MW411238   4.350   0.273   4.606 -0.5178  0.0301  0.4172
 2799SOL     OW11239   3.568   3.149   4.299  0.7234 -0.5412  0.0827
 2799SOL    HW211240   3.495   3.093   4.273 -0.0390  0.4898 -0.0467
 2799SOL    HW311241   3.562   3.152   4.395  0.6150 -0.4977  0.0754
 2799SOL    MW411242   3.558   3.142   4.309  0.6087 -0.3996  0.0648
 2800SOL     OW11243   1.054   2.767   4.369 -0.2262  0.1930  0.3810
 2800SOL    HW211244   1.018   2.723   4.446 -0.6858 -1.1209 -0.5695
 2800SOL    HW311245   1.146   2.740   4.367 -0.1757  0.3496  0.5514
 2800SOL    MW411246   1.062   2.758   4.379 -0.2800  0.0403  0.2780
 2801SOL     OW11247   1.382   1.614   4.512 -0.1737 -0.0256 -0.0490
 2801SOL    HW211248   1.330   1.578   4.584 -0.4080 -1.3760 -0.8764
 2801SOL    HW311249   1.472   1.589   4.532 -0.0419  0.9097  0.5485
 2801SOL    MW411250   1.387   1.606   4.524 -0.1872 -0.0803 -0.0792
 2802SOL     OW11251   2.262   3.231   4.226  0.4320  0.4944 -0.1397
 2802SOL    HW211252   2.350   3.202   4.203  0.8866  1.3691  0.4818
 2802SOL    HW311253   2.260   3.232   4.321 -0.7250 -0.9167 -0.1290
 2802SOL    MW411254   2.273   3.228   4.235  0.3390  0.4234 -0.0563
 2803SOL     OW11255   2.664   3.101   4.736 -0.0184 -0.5211 -0.0655
 2803SOL    HW211256   2.637   3.130   4.824  2.2834  2.0721 -0.1273
 2803SOL    HW311257   2.705   3.016   4.751  0.1564 -0.2064  1.3725
 2803SOL    MW411258   2.666   3.094   4.750  0.3085 -0.1373  0.1159
 2804SOL     OW11259   0.446   3.526   4.190  0.1123 -0.4101  0.1815
 2804SOL    HW211260   0.439   3.526   4.095  1.0690  0.1598  0.1120
 2804SOL    HW311261   0.365   3.567   4.220  0.0718 -0.0676 -0.3949
 2804SOL    MW411262   0.434   3.531   4.182  0.2332 -0.2899  0.0963
 2805SOL     OW11263   1.372   0.124   4.252  0.1074 -0.2869  0.0040
 2805SOL    HW211264   1.413   0.061   4.192  0.1142 -0.6582  0.3925
 2805SOL    HW311265   1.422   0.115   4.333  0.2049  0.3340  0.0108
 2805SOL    MW411266   1.384   0.114   4.255  0.1212 -0.2540  0.0567
 2806SOL     OW11267   0.525   0.099   4.260  0.0873 -0.2611 -0.1431
 2806SOL    HW211268   0.601   0.062   4.216  0.6871  0.5825  0.1707
 2806SOL    HW311269   0.514   0.186   4.221  0.7256  0.5563  1.4730
 2806SOL    MW411270   0.533   0.106   4.249  0.2506 -0.0420  0.1116
 2807SOL     OW11271   0.992   0.856   4.522 -0.4812  0.0467 -0.0004
 2807SOL    HW211272   0.964   0.875   4.432  2.0286 -0.1526 -0.8681
 2807SOL    HW311273   0.962   0.930   4.573 -0.3795  1.0397 -1.3523
 2807SOL    MW411274   0.984   0.868   4.517 -0.1367  0.1515 -0.2937
 2808SOL     OW11275   1.189   0.315   4.683 -0.0009 -0.2528 -0.3913
 2808SOL    HW211276   1.107   0.310   4.732  0.3799  1.2292  0.4129
 2808SOL    HW311277   1.178   0.387   4.622  1.1996  0.8672  0.6850
 2808SOL    MW411278   1.177   0.324   4.681  0.2075  0.0905 -0.1431
 2809SOL     OW11279   4.012   2.134   4.555  0.6658 -0.4572 -0.4427
 2809SOL    HW211280   3.963   2.052   4.566 -0.5356 -0.1122 -2.9562
 2809SOL    HW311281   4.104   2.108   4.562  0.2399 -1.4795  2.0139
 2809SOL    MW411282   4.017   2.119   4.558  0.4511 -0.5465 -0.4506
 2810SOL     OW11283   3.634   0.984   4.472 -0.0967 -0.1598 -0.2864
 2810SOL    HW211284   3.639   0.965   4.379 -0.6907  1.3793 -0.6355
 2810SOL    HW311285   3.646   1.079   4.479  0.4912 -0.3227  1.2435
 2810SOL    MW411286   3.636   0.994   4.461 -0.0978  0.0218 -0.1302
 2811SOL     OW11287   2.001   4.368   4.223  0.0373 -0.1803 -0.5065
 2811SOL    HW211288   2.079   4.332   4.181 -0.1803 -0.9213 -0.2726
 2811SOL    HW311289   1.928   4.335   4.171 -0.1284  0.4596 -0.6866
 2811SOL    MW411290   2.002   4.359   4.211 -0.0131 -0.1936 -0.4992
 2812SOL     OW11291   1.569   2.125   4.227 -0.2224  0.3067 -0.0059
 2812SOL    HW211292   1.581   2.144   4.321  0.6439  0.2359 -0.0992
 2812SOL    HW311293   1.551   2.210   4.188 -0.4955  0.3499  0.2081
 2812SOL    MW411294   1.568   2.138   4.235 -0.1441  0.3030  0.0105
 2813SOL     OW11295   3.560   3.085   4.574  0.5537  0.0258 -0.0888
 2813SOL    HW211296   3.635   3.140   4.597  0.9504 -1.1023  1.3879
 2813SOL    HW311297   3.596   2.997   4.566 -0.4612 -0.3866 -0.2385
 2813SOL    MW411298   3.574   3.081   4.576  0.4723 -0.1776  0.0868
 2814SOL     OW11299   0.887   1.180   4.152 -0.3389  0.0877 -0.0293
 2814SOL    HW211300   0.808   1.218   4.189 -0.6074 -0.1549 -0.3404
 2814SOL    HW311301   0.958   1.215   4.204 -0.7317 -0.4901  0.9115
 2814SOL    MW411302   0.886   1.190   4.164 -0.4261 -0.0206  0.0534
 2815SOL     OW11303   0.889   1.924   4.206 -0.1753  0.2384 -0.1122
 2815SOL    HW211304   0.895   1.896   4.115 -0.5109  0.2240 -0.1299
 2815SOL    HW311305   0.884   1.843   4.256  1.0516  0.2189  0.0003
 2815SOL    MW411306   0.889   1.910   4.201 -0.0576  0.2338 -0.0997
 2816SOL     OW11307   2.535   2.843   4.496 -0.5280 -0.4077 -0.2370
 2816SOL    HW211308   2.510   2.757   4.529 -0.6261  0.4207  1.9239
 2816SOL    HW311309   2.480   2.904   4.544  1.2775  1.0288  0.0789
 2816SOL    MW411310   2.525   2.840   4.506 -0.3028 -0.1087  0.0901
 2817SOL     OW11311   1.334   1.172   4.208 -0.4312  0.1877  0.2521
 2817SOL    HW211312   1.410   1.206   4.256 -0.8911  0.8046  0.5533
 2817SOL    HW311313   1.365   1.163   4.118  0.3148 -0.5851  0.5813
 2817SOL    MW411314   1.348   1.175   4.202 -0.3935  0.1670  0.3352
 2818SOL     OW11315   0.887   4.253   4.157  0.1764  0.2179  0.0980
 2818SOL    HW211316   0.969   4.297   4.182 -0.2146  0.0915  1.6336
 2818SOL    HW311317   0.818   4.307   4.195 -0.4128 -0.3559 -0.1447
 2818SOL    MW411318   0.889   4.266   4.165  0.0471  0.1254  0.2685
 2819SOL     OW11319   1.783   0.105   4.257  0.2637 -0.5452 -0.0277
 2819SOL    HW211320   1.818   0.125   4.344  0.6339 -2.4858  0.3031
 2819SOL    HW311321   1.844   0.041   4.222 -1.1565 -1.5032 -0.7911
 2819SOL    MW411322   1.796   0.099   4.264  0.1253 -0.9276 -0.0849
 2820SOL     OW11323   2.472   2.603   4.630  0.0630  0.0517  0.1519
 2820SOL    HW211324   2.425   2.534   4.583  1.6662 -0.7188 -0.3630
 2820SOL    HW311325   2.451   2.588   4.722  0.3437 -1.0914  0.0364
 2820SOL    MW411326   2.463   2.592   4.636  0.3116 -0.2010  0.0687
 2821SOL     OW11327   2.232   2.735   4.165  0.1716  0.2285  0.0714
 2821SOL    HW211328   2.215   2.750   4.072  0.7780 -0.3894 -0.1416
 2821SOL    HW311329   2.150   2.757   4.208 -0.2162  0.1939 -0.6440
 2821SOL    MW411330   2.219   2.740   4.158  0.2003  0.1426 -0.0510
 2822SOL     OW11331   3.610   0.931   4.209  0.0597  0.4819  0.1842
 2822SOL    HW211332   3.592   1.021   4.181 -1.6162  0.2025  0.3700
 2822SOL    HW311333   3.529   0.883   4.193  0.6626 -0.8127  0.8984
 2822SOL    MW411334   3.597   0.937   4.203 -0.0820  0.2742  0.3028
 2823SOL     OW11335   1.937   0.812   4.597  0.0584  0.3448 -0.1198
 2823SOL    HW211336   1.918   0.901   4.566 -0.5294  0.8310  1.5574
 2823SOL    HW311337   1.904   0.811   4.688  0.4972 -1.4330  0.0366
 2823SOL    MW411338   1.930   0.824   4.605  0.0386  0.1744  0.1221
 2824SOL     OW11339   0.671   4.492   4.516 -0.1923  0.3721  0.0773
 2824SOL    HW211340   0.685   4.450   4.431 -0.3968 -0.9467  0.6856
 2824SOL    HW311341   0.722   4.440   4.578  1.3204  2.3060  0.5348
 2824SOL    MW411342   0.680   4.480   4.513 -0.0196  0.4535  0.2179
 2825SOL     OW11343   3.121   0.414   4.139  0.7843 -0.4629 -0.2960
 2825SOL    HW211344   3.131   0.328   4.181  1.1191 -0.2555  0.0545
 2825SOL    HW311345   3.191   0.467   4.177 -0.4957  0.4724  0.7968
 2825SOL    MW411346   3.132   0.409   4.150  0.6597 -0.3122 -0.1054
 2826SOL     OW11347   3.115   3.605   4.165 -0.1165 -0.0517  0.4762
 2826SOL    HW211348   3.026   3.621   4.194 -0.0876  0.8530  0.0810
 2826SOL    HW311349   3.107   3.582   4.072  0.0380 -0.2993  0.5212
 2826SOL    MW411350   3.102   3.604   4.156 -0.0923  0.0348  0.4306
 2827SOL     OW11351   2.223   2.722   3.862 -0.1736  0.1300  0.1971
 2827SOL    HW211352   2.147   2.768   3.829  0.0780  0.1651 -0.3359
 2827SOL    HW311353   2.219   2.636   3.821 -0.8774 -0.4867  1.5167
 2827SOL    MW411354   2.213   2.717   3.852 -0.2332  0.0532  0.3009
 2828SOL     OW11355   2.916   0.722   4.150 -0.0216 -0.1033  0.5249
 2828SOL    HW211356   2.845   0.762   4.201  1.2995  1.9225  0.8291
 2828SOL    HW311357   2.995   0.765   4.182  1.0524 -0.3512 -1.7336
 2828SOL    MW411358   2.917   0.733   4.161  0.2944  0.1312  0.2670
 2829SOL     OW11359   2.332   0.019   4.549 -0.0544  0.1614 -0.3306
 2829SOL    HW211360   2.300  -0.062   4.588 -0.2725  0.3382 -0.1441
 2829SOL    HW311361   2.427   0.007   4.545  0.0512  0.4665  1.0085
 2829SOL    MW411362   2.341   0.006   4.554 -0.0691  0.2250 -0.1292
 2830SOL     OW11363   1.593   0.502   4.184  0.3446  0.3956 -0.1999
 2830SOL    HW211364   1.510   0.463   4.158  1.4867 -1.2728 -1.4624
 2830SOL    HW311365   1.593   0.498   4.280 -0.5965 -0.4903 -0.2290
 2830SOL    MW411366   1.582   0.497   4.193  0.3711  0.0586 -0.3705
 2831SOL     OW11367   2.803   2.095   4.555 -0.4080  0.2363 -0.1893
 2831SOL    HW211368   2.713   2.126   4.551 -0.2841  0.7587  0.9426
 2831SOL    HW311369   2.796   2.001   4.572 -0.7430  0.1953 -0.5575
 2831SOL    MW411370   2.790   2.086   4.557 -0.4358  0.2997 -0.0882
 2832SOL     OW11371   3.671   2.824   4.576 -0.1746  0.3543 -0.3560
 2832SOL    HW211372   3.590   2.776   4.557 -0.1881  0.4007 -0.4173
 2832SOL    HW311373   3.705   2.848   4.490  0.6377 -0.8754 -0.3920
 2832SOL    MW411374   3.665   2.821   4.562 -0.0691  0.1984 -0.3686
 2833SOL     OW11375   2.981   4.352   4.181  0.0326 -0.0369  0.0064
 2833SOL    HW211376   2.986   4.351   4.277 -1.7997  1.8740  0.1700
 2833SOL    HW311377   3.065   4.318   4.152  0.7275 -0.3744  2.2979
 2833SOL    MW411378   2.993   4.347   4.190 -0.1175  0.1707  0.3309
 2834SOL     OW11379   2.285   3.241   4.499  0.0178  0.0194  0.2944
 2834SOL    HW211380   2.201   3.279   4.525  0.3937 -0.3242  2.0761
 2834SOL    HW311381   2.349   3.311   4.513 -0.0312  0.4495 -1.5547
 2834SOL    MW411382   2.282   3.255   4.504  0.0610  0.0308  0.2861
 2835SOL     OW11383   3.358   3.041   4.164 -0.0445  0.0044 -0.1507
 2835SOL    HW211384   3.355   3.076   4.075  0.2425 -0.4000 -0.3224
 2835SOL    HW311385   3.277   3.072   4.205  0.0923  0.6556 -0.3756
 2835SOL    MW411386   3.347   3.049   4.157  0.0114  0.0370 -0.2027
 2836SOL     OW11387   1.598   4.388   4.207 -0.5288 -0.1774  0.4790
 2836SOL    HW211388   1.514   4.351   4.179 -0.2882 -0.8489  0.6289
 2836SOL    HW311389   1.663   4.324   4.176  0.0508  1.0944 -0.9943
 2836SOL    MW411390   1.596   4.374   4.199 -0.4206 -0.0978  0.3047
 2837SOL     OW11391   0.248   0.761   3.863 -0.4154 -0.1779 -0.0282
 2837SOL    HW211392   0.232   0.737   3.954 -1.2180  0.0721 -0.0958
 2837SOL    HW311393   0.177   0.822   3.842  2.1375  3.0578  0.4503
 2837SOL    MW411394   0.237   0.766   3.872 -0.1845  0.2820  0.0260
 2838SOL     OW11395   1.774   2.512   4.189  0.0136 -0.1906 -0.0214
 2838SOL    HW211396   1.773   2.582   4.254 -0.7672 -0.2541  0.0407
 2838SOL    HW311397   1.783   2.558   4.105 -0.5403 -0.0075  0.0151
 2838SOL    MW411398   1.775   2.527   4.187 -0.1625 -0.1748 -0.0086
 2839SOL     OW11399   3.271   4.385   4.510 -0.1694  0.2216  0.4122
 2839SOL    HW211400   3.349   4.334   4.530 -1.2522 -1.8791 -0.5952
 2839SOL    HW311401   3.299   4.476   4.518  2.8815 -0.4667 -1.6226
 2839SOL    MW411402   3.285   4.391   4.513  0.0904 -0.1464  0.0105
 2840SOL     OW11403   2.364   1.110   4.562  0.2371 -0.0557 -0.0103
 2840SOL    HW211404   2.317   1.027   4.546 -0.7354  0.4788  0.0075
 2840SOL    HW311405   2.451   1.083   4.589 -0.8274 -1.1306  2.5049
 2840SOL    MW411406   2.369   1.095   4.563 -0.0317 -0.1268  0.3238
 2841SOL     OW11407   3.440   2.706   4.491 -0.1358 -0.6193  0.4027
 2841SOL    HW211408   3.365   2.700   4.550  0.8283  1.2075  1.8772
 2841SOL    HW311409   3.404   2.738   4.408 -0.8713  1.1488  1.3805
 2841SOL    MW411410   3.425   2.709   4.488 -0.1056 -0.1450  0.7267
 2842SOL     OW11411   0.003   3.211   4.608 -0.0135 -0.3404  0.0300
 2842SOL    HW211412   0.004   3.228   4.514 -0.1596 -1.6591 -0.2095
 2842SOL    HW311413   0.030   3.120   4.617 -0.3786 -0.3409  1.2453
 2842SOL    MW411414   0.007   3.201   4.597 -0.0810 -0.5145  0.1588
 2843SOL     OW11415   3.155   0.157   4.254 -0.1665  0.2619 -0.3620
 2843SOL    HW211416   3.146   0.156   4.350  0.7070 -0.5282 -0.2804
 2843SOL    HW311417   3.090   0.093   4.224  0.6921 -0.7154 -0.1805
 2843SOL    MW411418   3.145   0.148   4.263  0.0620  0.0287 -0.3276
 2844SOL     OW11419   0.473   2.493   4.705 -0.2065 -0.6002  0.0595
 2844SOL    HW211420   0.462   2.458   4.793 -0.1557 -0.5786  0.0743
 2844SOL    HW311421   0.516   2.577   4.718  0.0581 -0.7262 -0.0074
 2844SOL    MW411422   0.477   2.500   4.718 -0.1648 -0.6142  0.0529
 2845SOL     OW11423   1.239   0.777   4.632 -0.1722  0.2747 -0.0118
 2845SOL    HW211424   1.148   0.792   4.606  0.5265  2.0554 -1.6347
 2845SOL    HW311425   1.284   0.858   4.609  1.9519 -0.7938  0.1967
 2845SOL    MW411426   1.233   0.790   4.625  0.2002  0.3687 -0.1979
 2846SOL     OW11427   0.010   3.495   4.192  0.3636  0.4921  0.4917
 2846SOL    HW211428  -0.077   3.528   4.214  0.1423  0.6040 -0.5587
 2846SOL    HW311429   0.014   3.498   4.097  1.2198 -0.2737  0.4970
 2846SOL    MW411430  -0.001   3.500   4.182  0.4478  0.4060  0.3538
 2847SOL     OW11431   3.545   2.053   4.647 -0.0983 -0.3297  0.3591
 2847SOL    HW211432   3.565   2.007   4.566 -0.3938 -0.7784  0.5406
 2847SOL    HW311433   3.575   2.143   4.632  1.0023 -0.7141  0.2215
 2847SOL    MW411434   3.551   2.059   4.635  0.0079 -0.4396  0.3648
 2848SOL     OW11435   4.076   1.126   4.156 -0.8445  0.3243  0.0445
 2848SOL    HW211436   4.145   1.170   4.205 -0.9857  1.2691 -0.5975
 2848SOL    HW311437   4.051   1.052   4.211 -0.2548  0.7522  0.8957
 2848SOL    MW411438   4.082   1.122   4.170 -0.7854  0.5053  0.0715
 2849SOL     OW11439   3.085   2.455   4.347 -0.3128 -0.1014  0.2934
 2849SOL    HW211440   3.048   2.455   4.435 -0.3361  1.0389  0.2911
 2849SOL    HW311441   3.169   2.410   4.355 -0.7403 -0.8309  0.7115
 2849SOL    MW411442   3.091   2.449   4.360 -0.3724 -0.0472  0.3481
 2850SOL     OW11443   4.303   2.100   4.613  0.1261  0.1786 -0.0711
 2850SOL    HW211444   4.320   2.192   4.633 -0.3874  0.3695 -0.5201
 2850SOL    HW311445   4.389   2.065   4.588  0.0942  0.8542 -1.1621
 2850SOL    MW411446   4.317   2.108   4.612  0.0544  0.2930 -0.2742
 2851SOL     OW11447   0.218   1.297   4.904  0.3098  0.2168  0.5160
 2851SOL    HW211448   0.162   1.273   4.830 -0.9185  0.8880  1.2148
 2851SOL    HW311449   0.195   1.233   4.972 -0.6618  1.3636  1.2907
 2851SOL    MW411450   0.208   1.285   4.904  0.0195  0.4567  0.7105
 2852SOL     OW11451   0.211   0.693   4.125  0.3169  0.0291 -0.2199
 2852SOL    HW211452   0.219   0.599   4.140 -0.5017  0.0030  0.0601
 2852SOL    HW311453   0.285   0.731   4.172  0.7867 -0.4969 -0.5346
 2852SOL    MW411454   0.222   0.686   4.133  0.2709 -0.0437 -0.2246
 2853SOL     OW11455   1.345   0.896   4.290  0.0581  0.1114  0.3026
 2853SOL    HW211456   1.417   0.848   4.249 -0.4616 -0.3303 -0.1105
 2853SOL    HW311457   1.350   0.984   4.252  1.6270  0.7033  1.8106
 2853SOL    MW411458   1.355   0.901   4.279  0.1965  0.1312  0.4473
 2854SOL     OW11459   2.245   2.461   4.236 -0.4044 -0.0679  0.2928
 2854SOL    HW211460   2.250   2.549   4.199 -1.7300 -0.4110 -0.7279
 2854SOL    HW311461   2.331   2.422   4.216 -1.6686 -0.8729 -4.1276
 2854SOL    MW411462   2.257   2.467   4.229 -0.7458 -0.2193 -0.4249
 2855SOL     OW11463   2.495   3.684   4.522  0.0322 -0.3836 -0.4264
 2855SOL    HW211464   2.495   3.672   4.426  1.0698  1.6522 -0.6919
 2855SOL    HW311465   2.409   3.722   4.541 -0.1682 -0.7728 -0.5302
 2855SOL    MW411466   2.483   3.687   4.512  0.1428 -0.1662 -0.4749
 2856SOL     OW11467   0.904   2.470   4.228 -0.5204  0.0617 -0.7247
 2856SOL    HW211468   0.815   2.456   4.196 -0.6890  0.9494 -0.6442
 2856SOL    HW311469   0.918   2.564   4.221 -0.8241  0.3963  2.5547
 2856SOL    MW411470   0.894   2.480   4.223 -0.5828  0.2229 -0.2813
 2857SOL     OW11471   2.537   2.198   4.543 -0.1270  0.1173  0.2465
 2857SOL    HW211472   2.485   2.278   4.538  0.9478  0.7798 -0.5021
 2857SOL    HW311473   2.517   2.152   4.461  0.3077  0.2695  0.0575
 2857SOL    MW411474   2.527   2.202   4.531  0.0722  0.2248  0.1230
 2858SOL     OW11475   0.655   2.819   4.247 -0.3968  0.2746  0.1314
 2858SOL    HW211476   0.626   2.820   4.338 -0.8196  0.6535 -0.0051
 2858SOL    HW311477   0.669   2.911   4.225 -0.1765  0.1751 -0.1494
 2858SOL    MW411478   0.653   2.831   4.256 -0.4235  0.3114  0.0768
 2859SOL     OW11479   0.249   1.587   4.554 -0.1098 -0.1628 -0.2444
 2859SOL    HW211480   0.329   1.638   4.541 -0.7692  1.4334  1.7551
 2859SOL    HW311481   0.236   1.586   4.648 -3.0822  0.6133 -0.6124
 2859SOL    MW411482   0.258   1.594   4.564 -0.5890  0.1503 -0.0291
 2860SOL     OW11483   4.192   4.123   4.678 -0.1212  0.0949  0.0181
 2860SOL    HW211484   4.110   4.085   4.646  0.7094 -2.3845  0.7665
 2860SOL    HW311485   4.261   4.075   4.631  0.9636  0.3544  1.3217
 2860SOL    MW411486   4.190   4.112   4.667  0.1311 -0.1979  0.2890
 2861SOL     OW11487   0.260   1.561   4.839 -0.3809  0.2933  0.7164
 2861SOL    HW211488   0.354   1.573   4.857  0.1075 -1.2105 -0.7232
 2861SOL    HW311489   0.242   1.472   4.868 -1.7963  1.1873  2.6365
 2861SOL    MW411490   0.270   1.551   4.845 -0.5032  0.2128  0.7801
 2862SOL     OW11491   3.273   2.111   4.543 -0.7226 -0.5310  0.2328
 2862SOL    HW211492   3.359   2.103   4.584  0.5049 -1.9110 -2.5440
 2862SOL    HW311493   3.286   2.175   4.473 -1.9333 -0.8653 -0.3013
 2862SOL    MW411494   3.286   2.119   4.539 -0.7205 -0.7570 -0.2046
 2863SOL     OW11495   0.697   3.084   4.168  0.2011 -0.5374  0.2752
 2863SOL    HW211496   0.630   3.138   4.210  0.7763  0.2653  0.1840
 2863SOL    HW311497   0.779   3.119   4.201  0.5888 -1.1351 -0.0643
 2863SOL    MW411498   0.699   3.096   4.178  0.3281 -0.5102  0.2189
 2864SOL     OW11499   2.916   1.277   4.262  0.0599 -0.1264  0.0367
 2864SOL    HW211500   2.838   1.224   4.252  0.2949 -0.6385  0.8569
 2864SOL    HW311501   2.986   1.225   4.224 -0.1516  0.7458 -1.5705
 2864SOL    MW411502   2.915   1.263   4.256  0.0632 -0.0788 -0.0672
 2865SOL     OW11503   3.545   3.421   4.170  0.4714  0.0448  0.1073
 2865SOL    HW211504   3.459   3.422   4.212  0.4976  1.6163  0.1574
 2865SOL    HW311505   3.572   3.330   4.173 -0.2057 -0.1160  2.1290
 2865SOL    MW411506   3.537   3.409   4.176  0.3858  0.2308  0.3810
 2866SOL     OW11507   3.236   1.954   4.125  0.4000  0.4159  0.0474
 2866SOL    HW211508   3.298   2.027   4.129  0.3794  0.4472 -0.2078
 2866SOL    HW311509   3.224   1.929   4.216  0.4335  0.7097  0.1347
 2866SOL    MW411510   3.243   1.961   4.138  0.4017  0.4590  0.0248
 2867SOL     OW11511   0.652   2.338   4.185  0.2314  0.1216  0.1683
 2867SOL    HW211512   0.641   2.342   4.090 -1.4439  0.1827  0.3475
 2867SOL    HW311513   0.670   2.246   4.203  0.8791  0.1670 -0.2437
 2867SOL    MW411514   0.653   2.326   4.175  0.0958  0.1357  0.1373
 2868SOL     OW11515   2.507   3.106   4.180  0.2071  0.1715 -0.5397
 2868SOL    HW211516   2.579   3.154   4.219 -1.1778  1.9148 -0.0672
 2868SOL    HW311517   2.514   3.018   4.217  1.3393  0.6679  0.4484
 2868SOL    MW411518   2.517   3.100   4.190  0.1738  0.4668 -0.3467
 2869SOL     OW11519   2.749   3.314   4.568  0.1740 -0.2873 -0.4570
 2869SOL    HW211520   2.738   3.232   4.617  0.5287 -0.3138 -0.4246
 2869SOL    HW311521   2.731   3.290   4.477 -2.6767  0.2103 -0.0823
 2869SOL    MW411522   2.745   3.300   4.562 -0.1550 -0.2253 -0.4034
 2870SOL     OW11523   1.524   1.290   4.746 -0.0359 -0.1943  0.0341
 2870SOL    HW211524   1.561   1.353   4.683  0.3934 -0.0158  0.4628
 2870SOL    HW311525   1.588   1.219   4.748 -0.3993 -0.5306 -0.2636
 2870SOL    MW411526   1.538   1.289   4.738 -0.0273 -0.2151  0.0515
 2871SOL     OW11527   1.781   2.430   3.765  0.1184 -0.0617 -0.1571
 2871SOL    HW211528   1.861   2.402   3.809  0.0736  0.8025  0.5010
 2871SOL    HW311529   1.792   2.403   3.674  0.1010 -2.1305  0.4299
 2871SOL    MW411530   1.793   2.423   3.759  0.1103 -0.2205  0.0072
 2872SOL     OW11531   0.243   2.870   4.274 -0.2347 -0.1521  0.5884
 2872SOL    HW211532   0.317   2.830   4.230 -0.0063  1.2097 -0.2787
 2872SOL    HW311533   0.166   2.826   4.236  0.0570 -0.5815  0.4882
 2872SOL    MW411534   0.242   2.859   4.263 -0.1660 -0.0293  0.4601
 2873SOL     OW11535   1.982   4.634   4.139 -0.0861  0.4146  0.3330
 2873SOL    HW211536   2.056   4.673   4.185 -0.0092  0.0922  0.4828
 2873SOL    HW311537   1.977   4.545   4.172 -1.7117  1.0015  1.7347
 2873SOL    MW411538   1.991   4.628   4.149 -0.2905  0.4497  0.5379
 2874SOL     OW11539   1.836   0.552   4.498  0.0150 -0.1679 -0.3025
 2874SOL    HW211540   1.859   0.639   4.532 -0.7998  0.5141 -1.4579
 2874SOL    HW311541   1.878   0.491   4.558  0.2757  1.0276  0.7500
 2874SOL    MW411542   1.844   0.556   4.510 -0.0582  0.0798 -0.3161
 2875SOL     OW11543   0.418   2.688   4.156 -0.1760 -0.0785  0.3437
 2875SOL    HW211544   0.497   2.726   4.194  0.2827 -0.8031  0.1329
 2875SOL    HW311545   0.431   2.696   4.062 -0.2221 -0.4349  0.3039
 2875SOL    MW411546   0.430   2.694   4.149 -0.1216 -0.2210  0.3104
 2876SOL     OW11547   1.343   2.739   4.290  0.1790 -0.0955 -0.3991
 2876SOL    HW211548   1.368   2.831   4.275  1.6185 -0.6588 -1.6313
 2876SOL    HW311549   1.399   2.711   4.362 -0.8766  0.2360  0.5558
 2876SOL    MW411550   1.354   2.748   4.297  0.2296 -0.1259 -0.4358
 2877SOL     OW11551   1.473   0.332   4.692 -0.1314  1.0980 -0.4998
 2877SOL    HW211552   1.488   0.387   4.615 -0.8126 -0.5299 -1.8456
 2877SOL    HW311553   1.378   0.320   4.694 -0.1817  1.6924  1.0115
 2877SOL    MW411554   1.462   0.338   4.682 -0.2279  0.9617 -0.4787
 2878SOL     OW11555   4.157   0.119   4.509 -0.1644  0.2500  0.0737
 2878SOL    HW211556   4.078   0.140   4.559 -0.5480  1.0918 -0.8667
 2878SOL    HW311557   4.126   0.106   4.420  0.5914 -0.7250 -0.0610
 2878SOL    MW411558   4.142   0.120   4.504 -0.1154  0.2324 -0.0677
 2879SOL     OW11559   2.999   2.898   4.536  0.1341  0.4565  0.1810
 2879SOL    HW211560   3.041   2.976   4.573 -0.4458  0.6646  0.4092
 2879SOL    HW311561   2.916   2.891   4.583  0.0298 -0.1047 -0.0795
 2879SOL    MW411562   2.993   2.907   4.547  0.0439  0.4101  0.1769
 2880SOL     OW11563   0.873   1.662   4.297 -0.4659 -0.0358  0.2598
 2880SOL    HW211564   0.943   1.625   4.244  0.2381  1.6350 -0.0292
 2880SOL    HW311565   0.900   1.645   4.387  1.1374  1.9370  0.2050
 2880SOL    MW411566   0.886   1.655   4.302 -0.1615  0.4448  0.2146
 2881SOL     OW11567   0.500   1.729   4.496  0.7747  0.4202 -0.4953
 2881SOL    HW211568   0.477   1.706   4.406  1.8664 -1.2321 -0.3672
 2881SOL    HW311569   0.539   1.817   4.490 -0.0808  0.7402 -1.4759
 2881SOL    MW411570   0.502   1.738   4.484  0.8059  0.2445 -0.6070
 2882SOL     OW11571   2.878   4.579   4.599 -0.1207  0.8264 -0.0728
 2882SOL    HW211572   2.921   4.507   4.552 -1.8518  1.0658 -2.0745
 2882SOL    HW311573   2.896   4.561   4.691  1.3765 -0.9359 -0.6824
 2882SOL    MW411574   2.886   4.567   4.605 -0.1514  0.6251 -0.4177
 2883SOL     OW11575   4.253   2.060   4.319  0.3041  0.5077 -0.1883
 2883SOL    HW211576   4.259   2.075   4.413 -0.7602 -0.7889  0.1048
 2883SOL    HW311577   4.338   2.022   4.295  0.3438  0.2369  0.3771
 2883SOL    MW411578   4.265   2.057   4.328  0.1688  0.3006 -0.0753
 2884SOL     OW11579   3.067   1.936   4.839  0.2209  0.2789 -0.4652
 2884SOL    HW211580   3.053   2.024   4.803  1.9365  0.7349 -0.0726
 2884SOL    HW311581   3.079   1.950   4.933 -1.0193 -0.5541 -0.1747
 2884SOL    MW411582   3.067   1.949   4.846  0.2832  0.2291 -0.3748
 2885NA      NA11583   0.282   0.733   0.474  0.0077 -0.1838  0.1770
   4.49070   4.66690  10.00000
