Gromacs Runs On Most of All Computer Systems in water
11619
    1RU5    O5'    1   1.555   2.347   4.837 -0.2967  0.1765 -0.1927
    1RU5    H5T    2   1.643   2.385   4.829 -0.0105 -0.4914 -0.3047
    1RU5    C5'    3   1.518   2.315   4.699 -0.1643 -0.7522 -0.1003
    1RU5   H5'1    4   1.473   2.403   4.653 -0.3553 -0.3623  0.8098
    1RU5   H5'2    5   1.448   2.231   4.694  0.5412 -1.3803  0.4782
    1RU5    C4'    6   1.642   2.279   4.623  1.1170 -0.2819 -0.0998
    1RU5    H4'    7   1.713   2.360   4.640  0.4920  0.0346  1.0581
    1RU5    O4'    8   1.698   2.156   4.669 -0.0487 -0.5553 -0.0769
    1RU5    C1'    9   1.680   2.057   4.568 -0.4763  0.1744  0.4014
    1RU5    H1'   10   1.775   2.049   4.514 -0.4102  0.1987  0.5132
    1RU5     N1   11   1.643   1.916   4.619 -0.0571  0.3796  0.0871
    1RU5     C6   12   1.553   1.899   4.723 -0.0007  0.3101 -0.4518
    1RU5     H6   13   1.506   1.983   4.772 -0.5370 -1.3546  1.9754
    1RU5     C5   14   1.504   1.777   4.743 -0.2706 -0.0450  0.0123
    1RU5     H5   15   1.429   1.768   4.820  2.0556 -1.5390  2.1927
    1RU5     C4   16   1.563   1.657   4.689  0.0598  0.2431  0.3239
    1RU5     O4   17   1.538   1.541   4.724 -0.6646  0.5349  0.2680
    1RU5     N3   18   1.658   1.679   4.595 -0.1141 -0.2170 -0.0549
    1RU5     H3   19   1.692   1.601   4.540  1.1961  0.4331 -0.1930
    1RU5     C2   20   1.700   1.803   4.552  0.3533  0.3375 -0.5070
    1RU5     O2   21   1.783   1.813   4.464 -0.5047 -0.1150 -0.1156
    1RU5    C3'   22   1.620   2.260   4.477 -0.8561 -0.3550  0.4280
    1RU5    H3'   23   1.541   2.323   4.436 -1.2747 -0.8723  0.4385
    1RU5    C2'   24   1.578   2.116   4.473 -0.0846 -0.5689  0.0747
    1RU5   H2'1   25   1.478   2.117   4.517  0.4579  1.2819  1.3443
    1RU5    O2'   26   1.578   2.061   4.342 -0.2749 -0.2653 -0.0087
    1RU5   HO'2   27   1.662   2.080   4.299 -0.8792  1.0036 -0.6474
    1RU5    O3'   28   1.743   2.271   4.397 -0.1612  0.4445 -0.3656
    2RG       P   29   1.804   2.410   4.346 -0.1337 -0.0248  0.0219
    2RG     O1P   30   1.736   2.520   4.417  0.1503 -0.1408 -0.5239
    2RG     O2P   31   1.798   2.412   4.200  0.1945  0.0210 -0.1428
    2RG     O5'   32   1.957   2.411   4.377  0.1028  0.0899  0.3457
    2RG     C5'   33   2.011   2.408   4.511 -0.0897 -0.0078  0.1555
    2RG    H5'1   34   1.958   2.484   4.568 -0.2317 -0.3960  0.5476
    2RG    H5'2   35   2.116   2.436   4.515 -0.0987 -0.0116  0.4257
    2RG     C4'   36   2.004   2.267   4.580  0.2700  0.1598 -0.2327
    2RG     H4'   37   1.901   2.234   4.594  0.5188 -1.2140 -1.5662
    2RG     O4'   38   2.070   2.166   4.508 -0.0626  0.2647  0.1651
    2RG     C1'   39   2.114   2.060   4.595 -0.6164  0.4099 -0.1441
    2RG     H1'   40   2.059   1.966   4.585 -0.6780  0.5301 -0.9593
    2RG      N9   41   2.262   2.037   4.571 -0.1824  0.0889  0.1802
    2RG      C8   42   2.351   2.123   4.524 -0.5110  0.1448 -0.7202
    2RG      H8   43   2.333   2.229   4.515  0.2642  0.1733 -2.0340
    2RG      N7   44   2.469   2.071   4.493 -0.1952  0.7547  0.2665
    2RG      C5   45   2.459   1.936   4.526 -0.0391  0.2969  0.2897
    2RG      C6   46   2.553   1.828   4.512  0.6087  0.4729 -0.3228
    2RG      O6   47   2.660   1.829   4.451  0.0701  0.1483 -0.1819
    2RG      N1   48   2.504   1.712   4.563 -0.0672  0.0082  0.0436
    2RG      H1   49   2.556   1.626   4.549 -0.1270 -0.2565  1.3404
    2RG      C2   50   2.377   1.695   4.606  0.6295  0.4437 -0.2011
    2RG      N2   51   2.347   1.570   4.618  0.2986 -0.1915  0.3242
    2RG     H21   52   2.423   1.505   4.608  0.6987  0.4234 -0.7229
    2RG     H22   53   2.265   1.545   4.672  0.7373 -2.5606 -0.0674
    2RG      N3   54   2.288   1.794   4.623 -0.2883  0.0211 -0.1724
    2RG      C4   55   2.334   1.917   4.584 -0.4257  0.7848  0.8150
    2RG     C3'   56   2.059   2.259   4.720 -0.2269  0.0440  0.5931
    2RG     H3'   57   2.152   2.316   4.727  0.2826 -0.7414  0.2525
    2RG     C2'   58   2.094   2.110   4.740  0.1559  0.4512  0.0830
    2RG    H2'1   59   2.185   2.105   4.798 -0.8417  0.6896  1.7010
    2RG     O2'   60   1.988   2.035   4.798 -0.2577 -0.6217 -0.6967
    2RG    HO'2   61   1.969   2.079   4.881  1.4629  0.9999 -1.1365
    2RG     O3'   62   1.969   2.300   4.822 -0.2026  0.1158  0.5224
    3RG3      P   63   1.942   2.449   4.863  0.3427  0.6944  0.0539
    3RG3    O1P   64   1.801   2.484   4.831  0.0907 -0.2696  0.0892
    3RG3    O2P   65   2.051   2.536   4.819  0.0175 -0.4290  0.0548
    3RG3    O5'   66   1.956   2.446   5.026  0.0639 -0.1540 -0.2570
    3RG3    C5'   67   1.863   2.395   5.112 -0.3039  0.0439 -0.0345
    3RG3   H5'1   68   1.915   2.330   5.182 -1.2806  0.2324  0.8716
    3RG3   H5'2   69   1.794   2.332   5.055  1.8836 -1.9699 -0.5406
    3RG3    C4'   70   1.789   2.496   5.200  0.0547 -0.0091  0.0726
    3RG3    H4'   71   1.739   2.440   5.280 -0.7778 -0.4154 -0.7230
    3RG3    O4'   72   1.875   2.584   5.263  0.4801  0.4411  0.5138
    3RG3    C1'   73   1.874   2.715   5.204 -0.1188 -0.1476  0.0458
    3RG3    H1'   74   1.847   2.793   5.275  0.6666 -0.2790  0.4873
    3RG3     N9   75   2.006   2.750   5.146  0.1759  0.7057  1.0469
    3RG3     C8   76   2.123   2.681   5.151 -0.1563  0.1726  0.2073
    3RG3     H8   77   2.127   2.585   5.200 -0.2242  0.4117  0.6776
    3RG3     N7   78   2.226   2.740   5.101  0.0481  0.5414  0.1771
    3RG3     C5   79   2.173   2.855   5.045  0.0513  0.3444  1.2460
    3RG3     C6   80   2.221   2.956   4.951  0.2048  0.7349 -0.0465
    3RG3     O6   81   2.332   2.952   4.896 -0.2666  0.5170 -0.3827
    3RG3     N1   82   2.137   3.062   4.933  0.1552 -0.4489  0.0669
    3RG3     H1   83   2.164   3.134   4.868 -1.8695 -0.2350 -0.5758
    3RG3     C2   84   2.010   3.062   4.971 -0.1295  0.3306 -0.6141
    3RG3     N2   85   1.943   3.164   4.936 -0.7552  0.8428  0.2959
    3RG3    H21   86   1.846   3.177   4.958 -0.8809  1.0659 -0.3876
    3RG3    H22   87   1.990   3.232   4.878  0.6039 -1.5887 -1.5578
    3RG3     N3   88   1.951   2.964   5.045 -0.2611 -0.5210  0.3319
    3RG3     C4   89   2.039   2.862   5.073  0.2929 -0.4384 -0.2856
    3RG3    C3'   90   1.686   2.586   5.135 -0.0981 -0.7135 -0.1122
    3RG3    H3'   91   1.637   2.544   5.047 -1.2246 -2.8133  1.4761
    3RG3    C2'   92   1.772   2.706   5.093 -0.3977  1.2089  0.3216
    3RG3   H2'1   93   1.820   2.678   4.998  1.5593 -1.1594  1.9486
    3RG3    O2'   94   1.703   2.831   5.099 -0.0751  0.2273 -0.4624
    3RG3   HO'2   95   1.773   2.891   5.074 -1.5545  1.9892 -0.4720
    3RG3    O3'   96   1.590   2.632   5.228  0.2518 -0.2025  0.7296
    3RG3    H3T   97   1.609   2.726   5.235 -1.1696  0.4385 -2.7193
    7SOL     OW   98   2.068   0.431   0.682  0.3768 -0.3215 -0.4092
    7SOL    HW2   99   2.062   0.526   0.674 -0.2266 -0.3078  0.2232
    7SOL    HW3  100   2.057   0.399   0.592 -0.7944  0.1335 -0.4362
    7SOL    MW4  101   2.066   0.439   0.669  0.1428 -0.2597 -0.3294
    8SOL     OW  102   0.191   4.613   0.379  0.1428 -0.1864 -0.1483
    8SOL    HW2  103   0.182   4.599   0.285 -0.2662  1.0236 -0.2962
    8SOL    HW3  104   0.197   4.525   0.416  2.1767 -0.6410 -1.4699
    8SOL    MW4  105   0.191   4.599   0.371  0.3572 -0.0863 -0.3422
    9SOL     OW  106   1.316   2.759   0.538 -0.2176  0.5861  0.4047
    9SOL    HW2  107   1.303   2.735   0.630 -0.7348 -1.2086 -0.1084
    9SOL    HW3  108   1.389   2.703   0.509 -0.8133  0.3148 -0.5807
    9SOL    MW4  109   1.324   2.748   0.547 -0.3644  0.3135  0.2070
   10SOL     OW  110   4.283   0.793   0.894 -0.4276  0.3282 -0.0990
   10SOL    HW2  111   4.285   0.709   0.847 -0.6242  0.0475  0.3876
   10SOL    HW3  112   4.366   0.834   0.873 -0.9459  0.6736 -1.5430
   10SOL    MW4  113   4.294   0.787   0.885 -0.5217  0.3367 -0.2253
   11SOL     OW  114   3.154   1.668   0.754  1.0575  0.3132 -0.0238
   11SOL    HW2  115   3.227   1.628   0.802 -0.5444 -1.9958  0.5820
   11SOL    HW3  116   3.077   1.619   0.783 -0.3299  0.7360 -2.8885
   11SOL    MW4  117   3.154   1.656   0.764  0.6633  0.0644 -0.3218
   12SOL     OW  118   0.723   0.964   0.396 -0.1757 -0.1888  0.0688
   12SOL    HW2  119   0.727   0.876   0.432 -1.2221 -1.2672 -2.2918
   12SOL    HW3  120   0.756   0.955   0.307  0.0432  1.8841 -0.0907
   12SOL    MW4  121   0.728   0.951   0.389 -0.2850 -0.0576 -0.2637
   13SOL     OW  122   4.342   1.330   0.276  0.0618 -0.3595 -0.1698
   13SOL    HW2  123   4.368   1.398   0.338  1.2650 -0.2896 -0.7488
   13SOL    HW3  124   4.257   1.359   0.242 -0.9574 -0.7538  1.9585
   13SOL    MW4  125   4.334   1.343   0.279  0.0858 -0.4022  0.0346
   14SOL     OW  126   0.459   0.957   0.792 -0.2059  0.3068 -0.2843
   14SOL    HW2  127   0.515   1.035   0.790  1.1498 -0.6139  0.4180
   14SOL    HW3  128   0.370   0.990   0.801  0.3328  1.7823 -0.3532
   14SOL    MW4  129   0.455   0.971   0.793  0.0441  0.3800 -0.2007
   15SOL     OW  130   1.000   1.277   0.508 -0.2056 -0.1689  0.3992
   15SOL    HW2  131   1.023   1.279   0.601 -0.3539  1.1179  0.4068
   15SOL    HW3  132   0.911   1.312   0.504 -0.4702 -0.8839 -0.1504
   15SOL    MW4  133   0.991   1.282   0.520 -0.2601 -0.0933  0.3276
   16SOL     OW  134   1.341   1.828   0.422  0.4887 -0.5164  0.0225
   16SOL    HW2  135   1.307   1.914   0.398  0.5826 -0.7540 -0.9930
   16SOL    HW3  136   1.272   1.788   0.475 -0.4827 -0.6976 -1.3814
   16SOL    MW4  137   1.327   1.834   0.426  0.3729 -0.5718 -0.2967
   17SOL     OW  138   2.576   3.841   0.551  0.0615  0.3868 -0.6037
   17SOL    HW2  139   2.604   3.883   0.633 -2.0300 -0.6911  0.6896
   17SOL    HW3  140   2.519   3.905   0.510  0.7322  0.7364 -0.9989
   17SOL    MW4  141   2.572   3.855   0.556 -0.1261  0.2909 -0.4852
   18SOL     OW  142   4.261   2.322   1.131 -0.3085 -0.1484 -0.4136
   18SOL    HW2  143   4.252   2.341   1.037  0.7734  2.1279 -0.0870
   18SOL    HW3  144   4.177   2.347   1.168 -0.8137 -1.2478 -0.7751
   18SOL    MW4  145   4.249   2.328   1.123 -0.2322  0.0072 -0.4182
   19SOL     OW  146   1.576   2.579   0.470  0.2923 -0.3940 -0.0752
   19SOL    HW2  147   1.650   2.565   0.410 -0.1082  0.9238 -0.8952
   19SOL    HW3  148   1.516   2.507   0.450 -0.0818  0.3398 -1.6451
   19SOL    MW4  149   1.578   2.567   0.460  0.1900 -0.1235 -0.3905
   20SOL     OW  150   4.389   2.073   0.416 -0.0852 -0.2023 -0.0528
   20SOL    HW2  151   4.313   2.123   0.446  1.2277  1.7250  0.1498
   20SOL    HW3  152   4.404   2.104   0.326 -0.1200 -1.2540 -0.4191
   20SOL    MW4  153   4.381   2.084   0.408  0.0839 -0.0868 -0.0744
   21SOL     OW  154   3.969   4.312   0.920  0.0470 -0.0329 -0.0094
   21SOL    HW2  155   4.055   4.349   0.900 -0.6074  0.8846 -1.1810
   21SOL    HW3  156   3.913   4.342   0.848 -1.2433 -0.6489  0.7292
   21SOL    MW4  157   3.973   4.321   0.908 -0.2096  0.0072 -0.0665
   22SOL     OW  158   1.967   2.559   0.688  0.2622 -0.0760 -0.3896
   22SOL    HW2  159   2.005   2.576   0.601  0.1573 -0.6557 -0.5464
   22SOL    HW3  160   1.878   2.528   0.670 -0.2688  1.1998 -0.0230
   22SOL    MW4  161   1.960   2.557   0.674  0.1783  0.0162 -0.3619
   23SOL     OW  162   1.678   4.037   0.467  0.4067  0.1004  0.0308
   23SOL    HW2  163   1.700   4.038   0.560 -0.3629  0.9670  0.2142
   23SOL    HW3  164   1.583   4.038   0.465  0.3975 -1.2661 -0.7669
   23SOL    MW4  165   1.669   4.037   0.479  0.3040  0.0339 -0.0502
   24SOL     OW  166   4.425   3.723   0.159 -0.6676 -0.0702  0.3596
   24SOL    HW2  167   4.465   3.706   0.073 -1.5312  1.8668 -0.4647
   24SOL    HW3  168   4.493   3.769   0.208 -1.1871  1.5099 -0.3671
   24SOL    MW4  169   4.440   3.726   0.154 -0.8502  0.3939  0.1550
   25SOL     OW  170   3.642   2.559   0.416  0.5444  0.6204 -0.2499
   25SOL    HW2  171   3.636   2.650   0.387  1.5383  0.6122 -0.4913
   25SOL    HW3  172   3.551   2.532   0.428  0.2323  1.5467 -0.4879
   25SOL    MW4  173   3.629   2.568   0.413  0.6344  0.7412 -0.3131
   26SOL     OW  174   0.799   3.121   0.411 -0.1705 -0.1850 -0.3566
   26SOL    HW2  175   0.794   3.146   0.504 -1.3332 -1.7980  0.0397
   26SOL    HW3  176   0.718   3.072   0.395 -0.0714  0.2434 -2.2938
   26SOL    MW4  177   0.788   3.118   0.421 -0.3108 -0.3414 -0.5599
   27SOL     OW  178   3.836   3.899   0.920 -0.0948 -0.3008  0.8643
   27SOL    HW2  179   3.915   3.937   0.881 -1.0413  0.7048 -0.1213
   27SOL    HW3  180   3.830   3.812   0.881  0.4373 -0.3131  0.8014
   27SOL    MW4  181   3.845   3.893   0.909 -0.1490 -0.1698  0.7260
   28SOL     OW  182   0.251   4.066   0.255  0.2527  0.7584 -0.1145
   28SOL    HW2  183   0.166   4.104   0.275  0.9851  1.7117  1.2657
   28SOL    HW3  184   0.309   4.100   0.323  1.7436  0.1387 -1.0532
   28SOL    MW4  185   0.248   4.075   0.266  0.5460  0.8020 -0.0563
   29SOL     OW  186   1.008   2.278   0.474 -0.1422 -0.0905  0.3587
   29SOL    HW2  187   0.980   2.293   0.564 -1.5388  0.5814 -0.1644
   29SOL    HW3  188   1.023   2.184   0.469 -0.9990 -0.2729  1.0433
   29SOL    MW4  189   1.006   2.267   0.485 -0.4395 -0.0260  0.3800
   30SOL     OW  190   0.975   3.453   0.429  0.3704  0.1634 -0.1363
   30SOL    HW2  191   0.943   3.419   0.345  0.5108  0.1367 -0.1780
   30SOL    HW3  192   0.896   3.487   0.472  0.4519  1.1392 -0.7250
   30SOL    MW4  193   0.960   3.453   0.424  0.3997  0.2887 -0.2195
   31SOL     OW  194   0.291   0.584   0.576 -0.0062  0.0222 -0.3711
   31SOL    HW2  195   0.382   0.590   0.605 -0.0395 -1.5344  0.1194
   31SOL    HW3  196   0.271   0.669   0.538  1.8360  0.1786 -0.9917
   31SOL    MW4  197   0.300   0.596   0.575  0.2325 -0.1625 -0.3883
   32SOL     OW  198   4.438   0.705   0.421 -0.0893 -0.0610 -0.2687
   32SOL    HW2  199   4.517   0.680   0.374 -0.2236  1.0665 -1.0953
   32SOL    HW3  200   4.405   0.623   0.458  0.8064 -0.7194 -0.9273
   32SOL    MW4  201   4.444   0.691   0.420  0.0110  0.0009 -0.4647
   33SOL     OW  202   2.374   0.759   0.371  0.0637 -0.1910  0.2505
   33SOL    HW2  203   2.304   0.693   0.367  0.5068 -0.5587 -2.3480
   33SOL    HW3  204   2.433   0.727   0.439  0.2524 -2.5132 -0.9581
   33SOL    MW4  205   2.373   0.746   0.380  0.1469 -0.5459 -0.2518
   34SOL     OW  206   3.768   4.458   0.483 -0.0883  0.0073  0.0472
   34SOL    HW2  207   3.849   4.427   0.443 -0.8667 -0.6091 -1.1135
   34SOL    HW3  208   3.764   4.551   0.462 -0.8177 -0.4436 -1.9603
   34SOL    MW4  209   3.778   4.466   0.475 -0.2873 -0.1335 -0.3708
   35SOL     OW  210   0.705   3.840   0.370 -0.4366 -0.3082 -0.3016
   35SOL    HW2  211   0.767   3.911   0.388 -0.1951 -0.6200  0.1240
   35SOL    HW3  212   0.623   3.869   0.409  0.0685 -0.9459  1.2783
   35SOL    MW4  213   0.702   3.853   0.378 -0.3381 -0.4334 -0.0370
   36SOL     OW  214   3.228   4.037   0.517 -0.0390 -0.1493  0.1556
   36SOL    HW2  215   3.311   4.009   0.478 -0.7026 -1.1359 -0.5823
   36SOL    HW3  216   3.223   4.130   0.497  0.5294 -0.2503 -0.4933
   36SOL    MW4  217   3.238   4.045   0.509 -0.0515 -0.2928 -0.0273
   37SOL     OW  218   4.485   0.336   0.883 -0.0381  0.3592 -0.2134
   37SOL    HW2  219   4.484   0.317   0.977 -0.5726 -0.0143 -0.2936
   37SOL    HW3  220   4.429   0.268   0.844  1.1632 -0.2446 -0.9355
   37SOL    MW4  221   4.478   0.324   0.890  0.0505  0.2302 -0.3192
   38SOL     OW  222   3.816   0.471   0.832 -0.4027 -0.3710  0.0785
   38SOL    HW2  223   3.793   0.563   0.843  1.2768 -0.1394  1.8890
   38SOL    HW3  224   3.752   0.424   0.886  0.0556 -0.0940  0.8783
   38SOL    MW4  225   3.805   0.477   0.841 -0.1204 -0.3039  0.4230
   39SOL     OW  226   1.064   0.481   0.708 -0.5076 -0.2361  0.1652
   39SOL    HW2  227   1.146   0.475   0.756 -0.1236 -0.9481 -0.5713
   39SOL    HW3  228   1.043   0.575   0.708  0.1525 -0.0844  0.5919
   39SOL    MW4  229   1.072   0.493   0.714 -0.3697 -0.3101  0.1244
   40SOL     OW  230   1.117   1.485   0.340 -0.2214  0.1137  0.1304
   40SOL    HW2  231   1.205   1.471   0.306 -1.0380 -1.6370 -1.3772
   40SOL    HW3  232   1.092   1.400   0.377 -1.0161  0.7998  1.2114
   40SOL    MW4  233   1.125   1.472   0.341 -0.4340 -0.0268  0.0741
   41SOL     OW  234   0.005   3.215   0.723  0.0072  0.1333 -0.1633
   41SOL    HW2  235   0.076   3.191   0.782 -0.5573 -0.6355  0.2073
   41SOL    HW3  236   0.036   3.187   0.636  0.2048 -0.0898 -0.0202
   41SOL    MW4  237   0.019   3.208   0.719 -0.0412  0.0021 -0.0955
   42SOL     OW  238   0.025   1.261   0.902  0.2819 -0.2996 -0.2744
   42SOL    HW2  239   0.036   1.215   0.985  2.7293 -0.9044 -0.8996
   42SOL    HW3  240  -0.070   1.265   0.889 -0.0498 -2.8329  1.0854
   42SOL    MW4  241   0.014   1.256   0.911  0.5611 -0.7138 -0.1775
   43SOL     OW  242   1.300   2.383   0.736  0.1155 -0.1269 -0.5530
   43SOL    HW2  243   1.380   2.339   0.765  0.1182 -0.2199 -0.6974
   43SOL    HW3  244   1.314   2.475   0.757 -0.0004 -0.2358 -0.0119
   43SOL    MW4  245   1.313   2.389   0.742  0.1006 -0.1535 -0.5006
   44SOL     OW  246   0.878   0.107   0.752 -0.0435 -0.5063 -0.0841
   44SOL    HW2  247   0.877   0.189   0.801  1.6859  0.2952 -1.3497
   44SOL    HW3  248   0.790   0.071   0.765 -1.2021  2.0619 -0.3639
   44SOL    MW4  249   0.866   0.113   0.760  0.0318 -0.0617 -0.2880
   45SOL     OW  250   0.115   2.424   0.501 -0.0472 -0.0564  0.0224
   45SOL    HW2  251   0.197   2.470   0.485 -0.1718  0.1729  0.0301
   45SOL    HW3  252   0.139   2.331   0.505 -0.0104 -0.1225 -1.4325
   45SOL    MW4  253   0.129   2.418   0.500 -0.0588 -0.0348 -0.1686
   46SOL     OW  254   4.489   4.004   0.784 -0.0127  0.5040 -0.1752
   46SOL    HW2  255   4.474   3.987   0.691 -1.0159  1.0878 -0.1243
   46SOL    HW3  256   4.420   3.954   0.829 -0.1571  1.0324  0.1995
   46SOL    MW4  257   4.478   3.995   0.778 -0.1640  0.6509 -0.1190
   47SOL     OW  258   0.653   4.648   0.398  0.3610 -0.1623  0.1841
   47SOL    HW2  259   0.627   4.624   0.309 -0.8285 -0.3758  0.5797
   47SOL    HW3  260   0.571   4.674   0.440  1.1201  1.2312  0.8130
   47SOL    MW4  261   0.638   4.648   0.391  0.3042 -0.0067  0.3193
   48SOL     OW  262   4.039   1.960   0.855 -0.5346  0.5289 -0.2394
   48SOL    HW2  263   3.960   1.987   0.808  0.2613 -0.0545 -1.9908
   48SOL    HW3  264   4.052   1.869   0.830  0.6408  0.5950  0.0907
   48SOL    MW4  265   4.030   1.952   0.845 -0.2747  0.4609 -0.4270
   49SOL     OW  266   0.705   2.137   0.182  0.1247  0.1079 -0.0311
   49SOL    HW2  267   0.719   2.181   0.266  0.0245  0.4665 -0.2038
   49SOL    HW3  268   0.632   2.184   0.142 -0.8160 -1.0050  0.3419
   49SOL    MW4  269   0.697   2.149   0.188 -0.0126  0.0086 -0.0047
   50SOL     OW  270   0.847   1.725   0.602 -0.5276  0.2507 -0.1187
   50SOL    HW2  271   0.831   1.758   0.514 -1.4979  1.3163  0.4555
   50SOL    HW3  272   0.765   1.682   0.627 -0.2603 -0.0279  0.2870
   50SOL    MW4  273   0.834   1.724   0.593 -0.6204  0.3545  0.0106
   51SOL     OW  274   4.225   4.416   0.870 -0.1134  0.0507  0.3407
   51SOL    HW2  275   4.290   4.347   0.857  0.7428  0.9821 -0.3979
   51SOL    HW3  276   4.274   4.487   0.911 -0.6572  0.7638 -0.2320
   51SOL    MW4  277   4.240   4.416   0.873 -0.0725  0.2670  0.1677
   52SOL     OW  278   4.034   3.313   0.482  0.6554  0.0700 -0.4575
   52SOL    HW2  279   4.017   3.281   0.571 -1.9417  0.5461 -0.7437
   52SOL    HW3  280   4.055   3.406   0.494  0.9862 -0.0228 -0.2943
   52SOL    MW4  281   4.035   3.321   0.495  0.3562  0.1206 -0.4737
   53SOL     OW  282   0.491   3.457   0.377  0.0670  0.2847 -0.4785
   53SOL    HW2  283   0.444   3.384   0.417  0.2712  0.5961  0.3493
   53SOL    HW3  284   0.511   3.428   0.288  0.6307 -0.8947  0.0225
   53SOL    MW4  285   0.488   3.444   0.371  0.1683  0.1702 -0.3031
   54SOL     OW  286   1.548   4.446   0.761 -0.4220 -0.1451  0.0094
   54SOL    HW2  287   1.502   4.477   0.684  1.7961  0.3555 -1.1696
   54SOL    HW3  288   1.581   4.526   0.803  0.1388 -0.5269  0.3090
   54SOL    MW4  289   1.546   4.461   0.757 -0.0553 -0.1302 -0.1066
   55SOL     OW  290   0.609   1.196   0.474  0.0777 -0.5948 -0.1201
   55SOL    HW2  291   0.649   1.113   0.448 -0.7973 -1.0720  0.0352
   55SOL    HW3  292   0.516   1.176   0.482 -0.2065  0.5258 -0.5676
   55SOL    MW4  293   0.602   1.182   0.472 -0.0752 -0.5100 -0.1587
   56SOL     OW  294   3.565   0.930   0.738 -0.1846  0.4823 -0.1877
   56SOL    HW2  295   3.640   0.896   0.786 -0.3241 -1.5061 -1.3295
   56SOL    HW3  296   3.551   1.018   0.775  1.0765 -0.1221  1.8188
   56SOL    MW4  297   3.573   0.937   0.749 -0.0370  0.1402 -0.0736
   57SOL     OW  298   4.405   3.485   0.367 -0.4242 -0.0029 -0.3602
   57SOL    HW2  299   4.496   3.505   0.390 -0.3902  0.4158 -0.8747
   57SOL    HW3  300   4.385   3.543   0.295 -1.5185  0.8061  0.5887
   57SOL    MW4  301   4.415   3.495   0.361 -0.5641  0.1593 -0.3029
   58SOL     OW  302   1.539   0.912   0.269 -0.0499 -0.2378  0.4233
   58SOL    HW2  303   1.524   0.983   0.332 -1.3849  0.2574 -0.4392
   58SOL    HW3  304   1.576   0.956   0.192 -0.2885 -0.5735  0.1193
   58SOL    MW4  305   1.542   0.927   0.267 -0.2575 -0.2168  0.2694
   59SOL     OW  306   1.837   0.097   0.752 -0.6147 -0.1210  0.0644
   59SOL    HW2  307   1.907   0.051   0.798 -0.5889  0.1310  0.2746
   59SOL    HW3  308   1.757   0.075   0.801 -0.2592  2.1605  1.7346
   59SOL    MW4  309   1.835   0.088   0.765 -0.5645  0.2133  0.3125
   60SOL     OW  310   0.627   0.408   0.779  0.1459 -0.3248  0.4555
   60SOL    HW2  311   0.642   0.409   0.685  1.0768 -0.7310  0.5919
   60SOL    HW3  312   0.714   0.400   0.817 -0.1741  0.4037  1.3660
   60SOL    MW4  313   0.640   0.407   0.772  0.2266 -0.2823  0.5936
   61SOL     OW  314   0.541   1.930   0.456 -0.4889 -0.0687  0.4085
   61SOL    HW2  315   0.568   1.991   0.524 -0.8672  1.2741 -0.6250
   61SOL    HW3  316   0.623   1.895   0.420 -0.2811 -0.3809  1.1787
   61SOL    MW4  317   0.556   1.933   0.460 -0.5113  0.0672  0.3737
   62SOL     OW  318   2.297   2.176   0.369 -0.1669 -0.0792  0.3994
   62SOL    HW2  319   2.308   2.269   0.388  1.8023 -0.3641  0.7441
   62SOL    HW3  320   2.360   2.132   0.426  0.4195 -1.4768 -1.2857
   62SOL    MW4  321   2.306   2.182   0.379  0.1702 -0.3014  0.2226
   63SOL     OW  322   2.281   0.354   0.838  0.6017 -0.2854 -0.4850
   63SOL    HW2  323   2.210   0.383   0.781 -1.1228 -0.8293  1.3144
   63SOL    HW3  324   2.278   0.258   0.832  0.8779 -0.3191 -0.0644
   63SOL    MW4  325   2.271   0.345   0.829  0.4108 -0.3616 -0.1921
   64SOL     OW  326   2.253   2.003   0.865 -0.0685 -0.1650  0.1286
   64SOL    HW2  327   2.237   1.911   0.848 -0.1218 -0.4448  1.6395
   64SOL    HW3  328   2.166   2.040   0.881 -0.0316  0.1092 -0.2968
   64SOL    MW4  329   2.239   1.996   0.865 -0.0708 -0.1658  0.2717
   65SOL     OW  330   0.483   2.326   0.279  0.0785 -0.4460  0.0006
   65SOL    HW2  331   0.554   2.325   0.343  0.4806 -0.0933 -0.4417
   65SOL    HW3  332   0.440   2.241   0.290  0.1514 -0.3858  0.7356
   65SOL    MW4  333   0.487   2.315   0.289  0.1411 -0.3917  0.0392
   66SOL     OW  334   3.589   1.512   0.337 -0.5602  0.0343  0.6621
   66SOL    HW2  335   3.502   1.471   0.331 -0.1318 -1.0021  1.3456
   66SOL    HW3  336   3.650   1.443   0.312  0.0452  0.9559 -0.4643
   66SOL    MW4  337   3.585   1.497   0.333 -0.4239  0.0192  0.6037
   67SOL     OW  338   0.528   1.382   0.946 -0.2343  0.3527  0.0597
   67SOL    HW2  339   0.584   1.430   1.007 -0.8982  2.2950 -0.8264
   67SOL    HW3  340   0.459   1.444   0.923 -1.0962 -1.0264 -1.1557
   67SOL    MW4  341   0.526   1.397   0.951 -0.4356  0.4270 -0.2176
   68SOL     OW  342   0.454   2.509   0.715  0.1671 -0.0478 -0.6894
   68SOL    HW2  343   0.515   2.441   0.746 -0.0188  0.1783  0.2031
   68SOL    HW3  344   0.484   2.589   0.759 -1.0220 -0.0189  0.1000
   68SOL    MW4  345   0.466   2.510   0.725 -0.0143 -0.0141 -0.4675
   69SOL     OW  346   1.331   3.312   0.642 -0.5964  0.0565  0.1538
   69SOL    HW2  347   1.335   3.227   0.686 -0.1178 -0.1797 -0.3336
   69SOL    HW3  348   1.292   3.292   0.557  1.3739 -0.0164 -0.7589
   69SOL    MW4  349   1.326   3.298   0.636 -0.2733  0.0157 -0.0309
   70SOL     OW  350   4.470   1.890   1.118  0.1815 -0.1686 -0.2106
   70SOL    HW2  351   4.419   1.960   1.158  2.0437  1.1670 -0.1067
   70SOL    HW3  352   4.463   1.906   1.024  0.2758 -0.0873 -0.2036
   70SOL    MW4  353   4.462   1.901   1.111  0.4392  0.0184 -0.1961
   71SOL     OW  354   0.376   2.780   0.341  0.2657  0.0490 -0.0384
   71SOL    HW2  355   0.393   2.705   0.398  1.3025  0.7743  0.6239
   71SOL    HW3  356   0.392   2.747   0.252 -0.7640 -0.9207  0.1307
   71SOL    MW4  357   0.381   2.766   0.337  0.2666  0.0165  0.0713
   72SOL     OW  358   4.186   3.948   0.381 -0.3945  0.2366  0.0938
   72SOL    HW2  359   4.171   3.963   0.287  0.0855 -0.0761 -0.0344
   72SOL    HW3  360   4.126   3.878   0.404 -0.5567  0.3543  0.0305
   72SOL    MW4  361   4.176   3.941   0.371 -0.3529  0.2110  0.0686
   73SOL     OW  362   1.343   3.541   0.805  0.4758  0.0556  0.1980
   73SOL    HW2  363   1.320   3.458   0.764 -1.5739  0.0932  1.2239
   73SOL    HW3  364   1.430   3.561   0.771  0.0942 -1.4222 -1.7513
   73SOL    MW4  365   1.351   3.533   0.795  0.1549 -0.1342  0.0762
   74SOL     OW  366   0.437   4.042   0.685 -0.1809  0.0609  0.3846
   74SOL    HW2  367   0.439   4.107   0.755  0.5239 -0.7951  1.1721
   74SOL    HW3  368   0.374   3.976   0.715  2.3246 -1.8689  1.6703
   74SOL    MW4  369   0.429   4.042   0.698  0.2427 -0.3071  0.6581
   75SOL     OW  370   1.289   0.105   0.508  0.2205 -0.8540 -0.3782
   75SOL    HW2  371   1.332   0.111   0.593 -0.1267  0.2351 -0.2705
   75SOL    HW3  372   1.225   0.177   0.509 -0.4709 -1.4536 -1.1614
   75SOL    MW4  373   1.286   0.115   0.519  0.0834 -0.7894 -0.4674
   76SOL     OW  374   2.518   2.918   0.762  0.5045 -0.6853  0.3522
   76SOL    HW2  375   2.488   3.005   0.787 -0.8508 -1.0239 -0.0707
   76SOL    HW3  376   2.531   2.923   0.668  0.6902 -0.8772  0.3655
   76SOL    MW4  377   2.516   2.930   0.753  0.3505 -0.7553  0.2982
   77SOL     OW  378   2.260   0.061   0.730  0.2959  0.2578 -0.5445
   77SOL    HW2  379   2.352   0.043   0.751  0.0093 -0.9817 -0.3444
   77SOL    HW3  380   2.242   0.009   0.652 -0.6665 -0.7112  0.3036
   77SOL    MW4  381   2.270   0.052   0.722  0.1311 -0.0335 -0.4062
   78SOL     OW  382   1.000   2.014   0.445 -0.0272 -0.3415  0.0689
   78SOL    HW2  383   0.924   1.979   0.401 -0.4503 -0.2657  0.7361
   78SOL    HW3  384   1.027   1.946   0.506  0.8123 -0.6180 -0.6044
   78SOL    MW4  385   0.994   2.001   0.448  0.0277 -0.3679  0.0681
   79SOL     OW  386   3.651   4.067   0.560 -0.6338 -0.4484 -0.4895
   79SOL    HW2  387   3.603   4.002   0.509 -0.3206 -0.8211 -0.3105
   79SOL    HW3  388   3.627   4.049   0.651  0.4496 -1.1382 -0.3345
   79SOL    MW4  389   3.641   4.056   0.566 -0.4494 -0.5884 -0.4454
   80SOL     OW  390   2.096   0.337   0.416 -0.0164 -0.1484 -0.4057
   80SOL    HW2  391   2.112   0.423   0.376  1.8087 -0.4922 -0.4504
   80SOL    HW3  392   2.012   0.310   0.379  0.3876  0.6941 -2.0244
   80SOL    MW4  393   2.087   0.345   0.406  0.2778 -0.0826 -0.6252
   81SOL     OW  394   1.802   1.000   0.877 -0.0678 -0.2492 -0.4280
   81SOL    HW2  395   1.880   0.946   0.881 -0.5881 -1.0443 -0.7658
   81SOL    HW3  396   1.817   1.058   0.802  1.3082  1.4015  1.0810
   81SOL    MW4  397   1.814   1.001   0.867  0.0451 -0.1363 -0.2734
   82SOL     OW  398   3.863   1.863   0.452 -0.3376  0.2962 -0.4785
   82SOL    HW2  399   3.866   1.891   0.544 -0.6223  1.1567 -0.7329
   82SOL    HW3  400   3.887   1.941   0.402 -1.0358  0.0597 -1.1862
   82SOL    MW4  401   3.867   1.877   0.458 -0.4673  0.3786 -0.6054
   83SOL     OW  402   1.834   0.235   0.324 -0.5404 -0.6048 -0.1372
   83SOL    HW2  403   1.766   0.300   0.346 -0.0675 -0.0102 -0.4251
   83SOL    HW3  404   1.807   0.156   0.371 -0.6770  0.0402  0.8856
   83SOL    MW4  405   1.821   0.234   0.333 -0.4960 -0.4412 -0.0402
   84SOL     OW  406   3.200   1.675   0.476  0.1033  0.0964 -0.2676
   84SOL    HW2  407   3.168   1.687   0.565  1.5933 -0.0827  0.3059
   84SOL    HW3  408   3.258   1.749   0.461 -0.1549  0.1334 -1.0921
   84SOL    MW4  409   3.204   1.686   0.486  0.2656  0.0776 -0.3007
   85SOL     OW  410   1.158   3.894   0.293  0.0630 -0.1946  0.1881
   85SOL    HW2  411   1.186   3.810   0.329  0.0118 -0.3273 -0.0797
   85SOL    HW3  412   1.151   3.878   0.199 -1.9656 -0.4820  0.3526
   85SOL    MW4  413   1.161   3.881   0.286 -0.2114 -0.2501  0.1745
   86SOL     OW  414   0.226   1.508   0.483 -0.0209 -0.3537 -0.0600
   86SOL    HW2  415   0.201   1.503   0.576  0.0795  1.2638  0.0672
   86SOL    HW3  416   0.282   1.586   0.478 -0.5605 -0.0645 -1.5997
   86SOL    MW4  417   0.230   1.518   0.495 -0.0789 -0.1022 -0.2463
   87SOL     OW  418   2.021   2.159   0.890 -0.1427  0.1013 -0.3549
   87SOL    HW2  419   2.000   2.213   0.966 -0.6079 -0.0799 -0.3551
   87SOL    HW3  420   2.055   2.221   0.826  1.8186  0.0369  0.5814
   87SOL    MW4  421   2.023   2.174   0.892  0.0548  0.0687 -0.2313
   88SOL     OW  422   1.278   1.676   0.758 -0.4080  0.2332  0.1303
   88SOL    HW2  423   1.218   1.678   0.683 -0.0181  0.3345 -0.1785
   88SOL    HW3  424   1.296   1.768   0.777 -2.5495  0.3123  1.9926
   88SOL    MW4  425   1.272   1.688   0.750 -0.6391  0.2571  0.3354
   89SOL     OW  426   3.649   1.190   0.399 -0.0795  0.1737  0.3211
   89SOL    HW2  427   3.658   1.095   0.408 -0.4064  0.2893  1.8877
   89SOL    HW3  428   3.556   1.207   0.413 -0.0508  0.7080 -0.1323
   89SOL    MW4  429   3.638   1.180   0.402 -0.1190  0.2594  0.4680
   90SOL     OW  430   2.678   1.644   0.516 -0.4576 -0.2270  0.0936
   90SOL    HW2  431   2.743   1.697   0.470  0.0788 -0.1403  0.9363
   90SOL    HW3  432   2.687   1.669   0.608 -1.5897 -0.3218  0.2390
   90SOL    MW4  433   2.688   1.654   0.522 -0.5360 -0.2280  0.2239
   91SOL     OW  434   1.068   1.557   0.898  0.2693 -0.1786 -0.0051
   91SOL    HW2  435   1.146   1.596   0.859 -1.3115  0.7476 -2.3738
   91SOL    HW3  436   1.060   1.471   0.856  0.2325 -0.4514  0.5500
   91SOL    MW4  437   1.077   1.551   0.887  0.0559 -0.0924 -0.2443
   92SOL     OW  438   0.022   2.459   0.753 -0.5460  0.2208 -0.4068
   92SOL    HW2  439   0.026   2.430   0.662 -0.3777 -0.5310 -0.1660
   92SOL    HW3  440  -0.065   2.433   0.782  0.1362 -1.3930  0.2483
   92SOL    MW4  441   0.011   2.452   0.745 -0.4338 -0.0913 -0.2886
   93SOL     OW  442   0.364   3.238   0.478 -0.1459  0.0022 -0.4622
   93SOL    HW2  443   0.269   3.227   0.481 -0.0488 -0.6995  0.2731
   93SOL    HW3  444   0.390   3.250   0.569  0.6303 -1.2253 -0.5014
   93SOL    MW4  445   0.355   3.238   0.490 -0.0307 -0.2520 -0.3704
   94SOL     OW  446   4.252   1.267   0.845 -0.1770 -0.3187  0.5485
   94SOL    HW2  447   4.239   1.262   0.750  0.2808 -0.0657  0.4710
   94SOL    HW3  448   4.252   1.361   0.863 -0.1776 -0.3656  0.7886
   94SOL    MW4  449   4.250   1.279   0.835 -0.1168 -0.2915  0.5699
   95SOL     OW  450   3.641   2.762   0.848 -0.0466 -0.1072  0.0745
   95SOL    HW2  451   3.657   2.749   0.941  0.1552  0.0636  0.0636
   95SOL    HW3  452   3.653   2.676   0.809  0.7378 -0.0016  0.0802
   95SOL    MW4  453   3.645   2.749   0.855  0.0834 -0.0708  0.0739
   96SOL     OW  454   4.273   4.341   0.279  0.1362  0.4626  0.0392
   96SOL    HW2  455   4.197   4.345   0.336 -0.7875 -0.0904 -1.1380
   96SOL    HW3  456   4.239   4.313   0.194  1.6561  0.0839 -0.4778
   96SOL    MW4  457   4.259   4.338   0.275  0.2141  0.3405 -0.1844
   97SOL     OW  458   3.550   0.385   0.560  0.5399 -0.5759 -0.2153
   97SOL    HW2  459   3.504   0.432   0.630  0.3786 -1.7281  0.4730
   97SOL    HW3  460   3.633   0.432   0.550  0.9394 -0.9172  1.3607
   97SOL    MW4  461   3.555   0.397   0.568  0.5713 -0.7730  0.0834
   98SOL     OW  462   1.198   3.284   0.398 -0.6473 -0.3302  0.3889
   98SOL    HW2  463   1.128   3.335   0.438 -0.4183 -0.9540  1.6434
   98SOL    HW3  464   1.155   3.204   0.367 -0.2282 -1.5481  2.8131
   98SOL    MW4  465   1.183   3.280   0.399 -0.5618 -0.5729  0.8743
   99SOL     OW  466   1.314   0.417   0.815  0.0203 -0.0376 -0.3010
   99SOL    HW2  467   1.397   0.450   0.779 -0.8053  0.1695 -2.0667
   99SOL    HW3  468   1.330   0.410   0.909  1.7644  0.8335 -0.5095
   99SOL    MW4  469   1.327   0.420   0.823  0.1414  0.1047 -0.5615
  100SOL     OW  470   2.247   3.841   0.838 -0.2777  0.3252 -0.4504
  100SOL    HW2  471   2.224   3.917   0.892  0.3070  0.7973 -0.8558
  100SOL    HW3  472   2.341   3.828   0.855 -0.9473 -2.0362  1.7896
  100SOL    MW4  473   2.256   3.849   0.848 -0.2890  0.0761 -0.2083
  101SOL     OW  474   2.218   3.265   0.557  0.0761 -0.0404 -0.0280
  101SOL    HW2  475   2.254   3.299   0.476  1.8050  0.4866  0.9425
  101SOL    HW3  476   2.230   3.170   0.552  1.6041  0.1250  0.2695
  101SOL    MW4  477   2.224   3.257   0.546  0.5057  0.0508  0.1393
  102SOL     OW  478   1.324   3.988   0.743 -0.2802 -0.5117 -0.2887
  102SOL    HW2  479   1.384   3.926   0.785  0.9712  1.6272  1.1531
  102SOL    HW3  480   1.237   3.958   0.770  0.2547 -1.9842 -0.1133
  102SOL    MW4  481   1.320   3.976   0.752 -0.0445 -0.4241 -0.0753
  103SOL     OW  482   2.741   0.134   0.709 -0.1939  0.1560  0.3933
  103SOL    HW2  483   2.765   0.140   0.617  1.6653 -0.2440  0.8156
  103SOL    HW3  484   2.725   0.224   0.736  0.4736  0.4020 -0.0201
  103SOL    MW4  485   2.742   0.147   0.701  0.1397  0.1357  0.3944
  104SOL     OW  486   1.752   4.645   0.517 -0.2276  0.3803  0.0150
  104SOL    HW2  487   1.762   4.691   0.600 -0.2173 -2.0184  1.3833
  104SOL    HW3  488   1.660   4.622   0.512 -0.2474  0.5909 -0.6881
  104SOL    MW4  489   1.741   4.648   0.527 -0.2288  0.0916  0.1027
  105SOL     OW  490   1.364   4.298   0.407  0.2808  0.3233  0.1876
  105SOL    HW2  491   1.271   4.314   0.420  0.3089  0.1340  0.6315
  105SOL    HW3  492   1.372   4.203   0.404  0.6000  0.3027  1.2671
  105SOL    MW4  493   1.353   4.288   0.409  0.3265  0.2966  0.3886
  106SOL     OW  494   1.795   2.251   0.464 -0.0897  0.0830 -0.9994
  106SOL    HW2  495   1.742   2.180   0.429 -0.8487 -0.6476  1.5706
  106SOL    HW3  496   1.882   2.213   0.475 -1.2062 -1.5342  3.3757
  106SOL    MW4  497   1.800   2.237   0.461 -0.3370 -0.2267 -0.0831
  107SOL     OW  498   2.950   2.555   0.489 -0.2256  0.0983 -0.2031
  107SOL    HW2  499   2.862   2.518   0.481 -0.6255  0.4850  2.1330
  107SOL    HW3  500   2.942   2.645   0.457 -0.3393 -0.2816 -1.2826
  107SOL    MW4  501   2.938   2.562   0.484 -0.2933  0.0994 -0.0373
  108SOL     OW  502   2.864   0.226   0.426 -0.0522  0.0447  0.2177
  108SOL    HW2  503   2.833   0.146   0.384 -0.3783 -0.2916  1.0986
  108SOL    HW3  504   2.786   0.282   0.429  0.7372  1.4067 -2.7049
  108SOL    MW4  505   2.849   0.223   0.420  0.0088  0.1801 -0.0517
  109SOL     OW  506   2.637   1.360   0.462 -0.4645 -0.2302  0.3656
  109SOL    HW2  507   2.720   1.315   0.477  0.1686  1.3702  1.9375
  109SOL    HW3  508   2.656   1.452   0.482 -1.8112  0.6916 -2.3788
  109SOL    MW4  509   2.651   1.367   0.467 -0.5586  0.1026  0.2109
  110SOL     OW  510   2.688   1.995   0.872 -0.2630 -0.6121 -0.6177
  110SOL    HW2  511   2.703   1.995   0.966 -0.1563 -0.8155 -0.6351
  110SOL    HW3  512   2.609   2.049   0.860  0.7825  0.9346 -0.5897
  110SOL    MW4  513   2.679   2.002   0.883 -0.1109 -0.4349 -0.6163
  111SOL     OW  514   2.472   1.339   0.740 -0.5192  0.0788  0.4581
  111SOL    HW2  515   2.412   1.289   0.795 -1.8347  1.6938  0.5529
  111SOL    HW3  516   2.437   1.329   0.651 -0.3084  0.1367  0.3689
  111SOL    MW4  517   2.459   1.331   0.735 -0.6649  0.2997  0.4588
  112SOL     OW  518   0.278   1.190   0.523  0.0099  0.1906 -0.2242
  112SOL    HW2  519   0.189   1.171   0.495  0.5401 -1.2801 -0.9449
  112SOL    HW3  520   0.287   1.285   0.511 -1.0036  0.1354 -1.4678
  112SOL    MW4  521   0.268   1.200   0.518 -0.0539 -0.0108 -0.4833
  113SOL     OW  522   2.108   3.143   0.835  0.5026  0.2734  0.2492
  113SOL    HW2  523   2.017   3.163   0.815  0.2667  0.8087  1.7927
  113SOL    HW3  524   2.123   3.058   0.795 -0.4301  0.5413 -0.7103
  113SOL    MW4  525   2.098   3.135   0.827  0.3483  0.3793  0.3262
  114SOL     OW  526   1.576   3.150   0.340  0.2614  0.0249 -0.2569
  114SOL    HW2  527   1.507   3.141   0.274  0.2308 -1.0266 -0.0989
  114SOL    HW3  528   1.542   3.101   0.415  0.8367  0.1822  0.1060
  114SOL    MW4  529   1.562   3.142   0.341  0.3333 -0.0932 -0.1882
  115SOL     OW  530   0.784   3.335   0.222 -0.3955 -0.1547 -0.3020
  115SOL    HW2  531   0.782   3.263   0.285  0.0995 -0.4244 -0.5903
  115SOL    HW3  532   0.801   3.293   0.137  1.1764  0.4102 -0.2923
  115SOL    MW4  533   0.786   3.320   0.219 -0.1228 -0.1156 -0.3388
  116SOL     OW  534   0.862   3.235   0.696  0.0995  0.1590  0.2365
  116SOL    HW2  535   0.910   3.296   0.752  0.1463 -1.7316  2.3713
  116SOL    HW3  536   0.787   3.208   0.750  0.3088 -1.9561 -0.4609
  116SOL    MW4  537   0.858   3.239   0.711  0.1333 -0.3695  0.4262
  117SOL     OW  538   2.430   3.449   0.448  0.2332  0.0821 -0.0482
  117SOL    HW2  539   2.463   3.396   0.520 -0.2155  0.2636  0.2978
  117SOL    HW3  540   2.509   3.479   0.402  0.5308  0.1307  0.4860
  117SOL    MW4  541   2.445   3.446   0.451  0.2129  0.1125  0.0679
  118SOL     OW  542   3.099   1.153   0.845 -0.6665  0.0362 -0.5238
  118SOL    HW2  543   3.171   1.192   0.795  0.7966 -1.2810  0.5163
  118SOL    HW3  544   3.075   1.075   0.796 -0.6507 -0.1100 -0.3001
  118SOL    MW4  545   3.106   1.148   0.832 -0.4716 -0.1568 -0.3570
  119SOL     OW  546   3.314   1.439   0.329  0.6139 -0.0443 -0.6945
  119SOL    HW2  547   3.244   1.406   0.272  1.3133  0.0623 -1.6165
  119SOL    HW3  548   3.275   1.515   0.372  0.3676  0.3826 -1.6690
  119SOL    MW4  549   3.300   1.444   0.327  0.6738  0.0261 -0.9448
  120SOL     OW  550   3.825   2.389   0.240  0.6765 -0.3693 -0.6334
  120SOL    HW2  551   3.793   2.375   0.151  0.3120 -0.8298 -0.4331
  120SOL    HW3  552   3.747   2.416   0.289  0.8578 -0.2088 -0.4322
  120SOL    MW4  553   3.810   2.391   0.235  0.6523 -0.4091 -0.5804
  121SOL     OW  554   1.809   2.495   0.334  0.1606  0.2925  0.2618
  121SOL    HW2  555   1.786   2.414   0.380 -1.7739  0.4061 -0.4352
  121SOL    HW3  556   1.806   2.470   0.241 -0.4073  1.1368  0.0499
  121SOL    MW4  557   1.805   2.481   0.328 -0.1695  0.4189  0.1419
  122SOL     OW  558   1.098   0.313   0.493  0.0496  0.0513 -0.0103
  122SOL    HW2  559   1.018   0.307   0.441  0.3102 -0.7649 -0.3165
  122SOL    HW3  560   1.075   0.374   0.564 -1.6476 -2.1235  1.3718
  122SOL    MW4  561   1.084   0.321   0.495 -0.1400 -0.3434  0.1317
  123SOL     OW  562   1.944   3.297   0.537 -0.0727  0.1825  0.6764
  123SOL    HW2  563   2.039   3.296   0.553  0.0144  0.1695  0.1494
  123SOL    HW3  564   1.906   3.275   0.622  0.4558 -1.3799  0.5303
  123SOL    MW4  565   1.952   3.294   0.551  0.0086 -0.0253  0.5875
  124SOL     OW  566   1.084   4.377   0.476  0.5586  0.0736 -0.3485
  124SOL    HW2  567   1.065   4.467   0.451 -0.1866  0.1949  0.5878
  124SOL    HW3  568   1.011   4.326   0.441 -0.1784  0.1629  1.0044
  124SOL    MW4  569   1.072   4.382   0.468  0.3630  0.1020 -0.0465
  125SOL     OW  570   1.339   4.249   0.819 -0.0711  0.0956  0.2637
  125SOL    HW2  571   1.415   4.287   0.775 -0.6788  0.9867 -0.0314
  125SOL    HW3  572   1.336   4.159   0.787  0.5087  0.2295 -0.1825
  125SOL    MW4  573   1.349   4.242   0.809 -0.0749  0.2313  0.1660
  126SOL     OW  574   1.951   1.871   0.464 -0.1911  0.2606  0.0547
  126SOL    HW2  575   2.025   1.811   0.457  0.3117  0.9255 -0.3048
  126SOL    HW3  576   1.990   1.956   0.483 -0.6587  1.1826 -2.9341
  126SOL    MW4  577   1.966   1.874   0.465 -0.1866  0.4700 -0.3871
  127SOL     OW  578   3.272   4.299   0.400  0.0982 -0.1316 -0.0645
  127SOL    HW2  579   3.297   4.289   0.308 -0.6700  1.9959 -0.5428
  127SOL    HW3  580   3.355   4.313   0.445  0.3081  0.9767 -0.7687
  127SOL    MW4  581   3.287   4.300   0.394  0.0246  0.2947 -0.2205
  128SOL     OW  582   3.330   3.690   0.291  0.6288  0.0468  0.8538
  128SOL    HW2  583   3.315   3.643   0.209 -1.5929 -0.0191  1.2630
  128SOL    HW3  584   3.326   3.622   0.358  0.1954  0.4306  1.2135
  128SOL    MW4  585   3.328   3.675   0.289  0.2785  0.0887  0.9552
  129SOL     OW  586   3.321   1.282   0.706  0.2663 -0.2457 -0.2557
  129SOL    HW2  587   3.324   1.373   0.737  1.1997 -0.4078  0.1382
  129SOL    HW3  588   3.386   1.236   0.760 -0.1825 -1.1457 -0.4645
  129SOL    MW4  589   3.330   1.288   0.717  0.3302 -0.3858 -0.2313
  130SOL     OW  590   2.930   3.632   0.484  0.2060 -0.3058 -0.3173
  130SOL    HW2  591   2.853   3.664   0.436  0.1200  0.0839  0.0819
  130SOL    HW3  592   3.004   3.676   0.442  0.0378  0.8991  0.6294
  130SOL    MW4  593   2.929   3.642   0.472  0.1724 -0.0951 -0.1397
  131SOL     OW  594   3.603   2.095   0.460  0.3062 -0.7344  0.1625
  131SOL    HW2  595   3.527   2.151   0.479 -0.0668 -0.2810 -2.4241
  131SOL    HW3  596   3.566   2.008   0.447  0.3679 -0.7280 -0.0528
  131SOL    MW4  597   3.588   2.091   0.461  0.2651 -0.6735 -0.2072
  132SOL     OW  598   2.699   1.734   0.801 -0.5755 -0.3568 -0.3613
  132SOL    HW2  599   2.784   1.701   0.827 -0.1910 -0.5703 -1.8339
  132SOL    HW3  600   2.702   1.828   0.818  0.6617 -0.0426 -2.2186
  132SOL    MW4  601   2.710   1.742   0.807 -0.3617 -0.3436 -0.8007
  133SOL     OW  602   4.247   1.545   0.890  0.1923  0.4117 -0.4423
  133SOL    HW2  603   4.250   1.552   0.985  1.7394  1.1344 -0.5281
  133SOL    HW3  604   4.172   1.600   0.864  0.6546  1.3687  0.2502
  133SOL    MW4  605   4.237   1.553   0.899  0.4578  0.6332 -0.3622
  134SOL     OW  606   0.408   0.056   0.510  0.4310 -0.1322  0.5422
  134SOL    HW2  607   0.326   0.029   0.467 -0.1328  1.0197  0.8735
  134SOL    HW3  608   0.388   0.052   0.603  0.4206  1.1065  0.6081
  134SOL    MW4  609   0.394   0.052   0.517  0.3553  0.1832  0.5946
  135SOL     OW  610   0.922   4.006   0.436 -0.0616  0.3396  0.3881
  135SOL    HW2  611   0.996   3.957   0.400 -0.3375 -0.3187  0.7097
  135SOL    HW3  612   0.917   4.086   0.383 -0.3485 -0.5278 -0.9053
  135SOL    MW4  613   0.931   4.010   0.424 -0.1359  0.1383  0.2599
  136SOL     OW  614   1.852   1.144   0.640 -0.1733  0.9362 -0.5728
  136SOL    HW2  615   1.889   1.102   0.562 -0.1258  0.7404 -0.4437
  136SOL    HW3  616   1.793   1.211   0.605 -0.8888  0.2029 -0.7822
  136SOL    MW4  617   1.849   1.148   0.625 -0.2613  0.8137 -0.5834
  137SOL     OW  618   1.876   3.803   0.884  0.1164  0.3902  0.1138
  137SOL    HW2  619   1.937   3.755   0.828  0.2976  0.1852  0.4909
  137SOL    HW3  620   1.836   3.867   0.825  0.6489  0.4868 -0.1497
  137SOL    MW4  621   1.879   3.805   0.869  0.2105  0.3760  0.1288
  138SOL     OW  622   3.027   0.948   0.674 -0.5409 -0.2410  0.1280
  138SOL    HW2  623   3.101   0.892   0.649  0.3159  0.5109  0.9404
  138SOL    HW3  624   2.969   0.891   0.724 -0.1588 -0.6575  0.0941
  138SOL    MW4  625   3.029   0.933   0.678 -0.3774 -0.1968  0.2307
  139SOL     OW  626   2.924   2.321   0.880  0.3414 -0.3447 -0.0987
  139SOL    HW2  627   2.924   2.230   0.853 -1.4749 -0.5768  0.5878
  139SOL    HW3  628   2.938   2.318   0.975 -0.4573  0.0328  0.0364
  139SOL    MW4  629   2.926   2.309   0.889 -0.0036 -0.3254  0.0096
  140SOL     OW  630   1.299   2.127   0.373  0.0618 -0.1584 -0.5691
  140SOL    HW2  631   1.212   2.105   0.407  1.3099 -2.0431  1.4870
  140SOL    HW3  632   1.305   2.222   0.384 -1.1321 -0.2101  0.6881
  140SOL    MW4  633   1.288   2.137   0.379  0.0689 -0.4139 -0.1320
  141SOL     OW  634   2.608   1.976   0.266 -0.4432 -0.2838  0.1951
  141SOL    HW2  635   2.544   1.992   0.197 -0.5513 -0.2315  0.3083
  141SOL    HW3  636   2.615   2.059   0.313 -0.5086 -0.3732  0.3648
  141SOL    MW4  637   2.600   1.989   0.263 -0.4659 -0.2887  0.2325
  142SOL     OW  638   2.696   2.189   0.434 -0.3692 -0.4079 -0.5934
  142SOL    HW2  639   2.621   2.171   0.491  0.2621  0.8358  0.6358
  142SOL    HW3  640   2.695   2.284   0.422  1.4279 -0.3124 -0.0217
  142SOL    MW4  641   2.686   2.199   0.440 -0.0491 -0.2310 -0.3558
  143SOL     OW  642   3.075   4.493   0.495  0.1860 -0.0080 -0.0891
  143SOL    HW2  643   3.128   4.572   0.505 -0.3451  0.2680  0.5410
  143SOL    HW3  644   3.133   4.431   0.449  0.6256  0.7114 -0.5124
  143SOL    MW4  645   3.090   4.495   0.490  0.1738  0.1230 -0.0618
  144SOL     OW  646   3.922   2.812   0.464  0.1789  0.4562  0.0849
  144SOL    HW2  647   3.936   2.719   0.448  0.1296  0.4110  0.3109
  144SOL    HW3  648   3.997   2.855   0.421 -0.5585  0.4195 -1.2777
  144SOL    MW4  649   3.934   2.806   0.456  0.0751  0.4454 -0.0651
  145SOL     OW  650   0.650   3.898   0.829 -0.5660 -0.0492 -0.0133
  145SOL    HW2  651   0.726   3.951   0.806 -0.7136  0.1873  0.0383
  145SOL    HW3  652   0.579   3.933   0.775 -0.6428 -0.2563 -0.0481
  145SOL    MW4  653   0.651   3.910   0.819 -0.5956 -0.0455 -0.0110
  146SOL     OW  654   2.280   3.000   0.497  0.5221 -0.0096  0.5031
  146SOL    HW2  655   2.373   2.983   0.487  0.5347 -0.6660  1.7005
  146SOL    HW3  656   2.251   2.939   0.565 -1.1226 -0.9593 -1.0044
  146SOL    MW4  657   2.288   2.990   0.505  0.3068 -0.2215  0.4621
  147SOL     OW  658   1.377   4.018   0.464 -0.0980 -0.4881  0.5781
  147SOL    HW2  659   1.366   4.006   0.558  1.2787 -0.8384  0.7129
  147SOL    HW3  660   1.308   3.965   0.424 -1.4040  0.5767  1.4030
  147SOL    MW4  661   1.367   4.009   0.471 -0.0886 -0.3939  0.7048
  148SOL     OW  662   1.844   3.184   0.789  0.0645 -0.1544 -0.3618
  148SOL    HW2  663   1.779   3.247   0.821 -0.2041  0.2694 -1.7162
  148SOL    HW3  664   1.794   3.103   0.775  0.0486 -0.1402 -0.3840
  148SOL    MW4  665   1.828   3.181   0.791  0.0269 -0.0963 -0.5434
  149SOL     OW  666   2.878   3.944   0.243  0.0638  0.2914 -0.1008
  149SOL    HW2  667   2.958   3.936   0.295 -1.0578  1.3970  1.8460
  149SOL    HW3  668   2.826   3.867   0.267 -0.6196  1.0026  0.7010
  149SOL    MW4  669   2.882   3.932   0.253 -0.1743  0.5312  0.2618
  150SOL     OW  670   2.028   4.044   0.622 -0.0135  0.5664  0.1877
  150SOL    HW2  671   1.935   4.031   0.641 -0.3744  1.0602 -1.1569
  150SOL    HW3  672   2.062   4.091   0.697 -0.9636  0.8157  0.4702
  150SOL    MW4  673   2.020   4.048   0.634 -0.1864  0.6642  0.0476
  151SOL     OW  674   2.508   3.817   0.914 -0.2015 -0.2497 -0.3295
  151SOL    HW2  675   2.559   3.871   0.853  1.7736 -1.0315  0.5776
  151SOL    HW3  676   2.532   3.727   0.892 -0.3948 -0.5861  0.8141
  151SOL    MW4  677   2.518   3.812   0.903  0.0336 -0.3972 -0.0589
  152SOL     OW  678   1.167   3.663   0.447 -0.3774 -0.1856  0.2780
  152SOL    HW2  679   1.243   3.615   0.413  0.2726  0.0308  1.3789
  152SOL    HW3  680   1.094   3.601   0.438  0.0318 -0.5982 -0.2798
  152SOL    MW4  681   1.168   3.648   0.441 -0.2377 -0.2115  0.3496
  153SOL     OW  682   3.613   1.741   0.498  0.0815  0.2984  0.1222
  153SOL    HW2  683   3.598   1.671   0.435  0.0852 -1.1009  1.6560
  153SOL    HW3  684   3.695   1.782   0.469 -1.4870  1.6757 -2.5530
  153SOL    MW4  685   3.622   1.737   0.486 -0.1249  0.2955 -0.0284
  154SOL     OW  686   4.231   0.243   0.379  0.2263  0.1759  0.3240
  154SOL    HW2  687   4.138   0.243   0.403  0.0077  0.9748 -0.4953
  154SOL    HW3  688   4.261   0.154   0.398 -1.1201 -0.5818 -0.9965
  154SOL    MW4  689   4.223   0.231   0.385  0.0191  0.1813  0.0417
  155SOL     OW  690   2.718   0.832   0.430  0.3750 -0.0387  0.1287
  155SOL    HW2  691   2.794   0.892   0.429 -0.5805  1.1654 -1.1962
  155SOL    HW3  692   2.656   0.871   0.369 -0.8455 -1.6654  0.3165
  155SOL    MW4  693   2.720   0.845   0.422  0.0880 -0.0945 -0.0213
  156SOL     OW  694   2.840   1.809   0.368 -0.8204  0.3675  0.4635
  156SOL    HW2  695   2.779   1.852   0.307 -0.1458  1.1615  0.3449
  156SOL    HW3  696   2.897   1.879   0.398  2.2706 -0.9606 -2.0848
  156SOL    MW4  697   2.839   1.824   0.364 -0.3235  0.2970  0.1116
  157SOL     OW  698   1.933   1.328   0.334 -0.1252  0.7204  0.1767
  157SOL    HW2  699   1.944   1.365   0.247 -0.9417  0.9145  0.1490
  157SOL    HW3  700   1.998   1.372   0.388  0.1215  0.8768 -0.2495
  157SOL    MW4  701   1.943   1.338   0.329 -0.2005  0.7668  0.1168
  158SOL     OW  702   2.981   1.549   0.378  0.3824 -0.0172  0.0247
  158SOL    HW2  703   3.055   1.590   0.423 -0.2026  0.3081  0.7054
  158SOL    HW3  704   2.914   1.617   0.377 -0.1075 -0.5030 -0.0740
  158SOL    MW4  705   2.982   1.563   0.384  0.2406 -0.0384  0.1015
  159SOL     OW  706   3.395   2.487   0.782  0.0475 -0.0754  0.3555
  159SOL    HW2  707   3.304   2.492   0.755 -0.1307  0.7322  1.0715
  159SOL    HW3  708   3.398   2.418   0.847 -0.0391 -0.1553  0.2736
  159SOL    MW4  709   3.384   2.479   0.787  0.0124  0.0207  0.4392
  160SOL     OW  710   2.803   0.552   0.369 -0.0750 -0.0824  0.1340
  160SOL    HW2  711   2.776   0.644   0.364 -0.0171 -0.1301 -1.0886
  160SOL    HW3  712   2.723   0.504   0.391  0.1933  0.4115  2.3936
  160SOL    MW4  713   2.789   0.558   0.371 -0.0319 -0.0236  0.2708
  161SOL     OW  714   3.447   2.278   0.955  0.3267  0.0147  0.0771
  161SOL    HW2  715   3.541   2.271   0.969  0.6972  1.4472 -1.4962
  161SOL    HW3  716   3.410   2.286   1.042  1.6316 -0.7431  0.7192
  161SOL    MW4  717   3.454   2.278   0.968  0.5479  0.1037 -0.0458
  162SOL     OW  718   0.154   2.153   0.530 -0.5372  0.4571 -0.1702
  162SOL    HW2  719   0.072   2.115   0.499 -0.4062  0.3558 -0.4025
  162SOL    HW3  720   0.222   2.105   0.482 -0.3454  0.5778 -0.0228
  162SOL    MW4  721   0.152   2.142   0.519 -0.4946  0.4597 -0.1813
  163SOL     OW  722   0.367   2.083   0.322  0.1441 -0.0794  0.0300
  163SOL    HW2  723   0.428   2.025   0.368 -1.8891 -1.0168  1.6250
  163SOL    HW3  724   0.345   2.035   0.242  1.7662  0.4528 -0.7739
  163SOL    MW4  725   0.372   2.069   0.317  0.0899 -0.1328  0.1343
  164SOL     OW  726   2.698   2.429   0.762  0.1169 -0.2092 -0.3957
  164SOL    HW2  727   2.696   2.522   0.782 -1.3216 -0.4678  0.7488
  164SOL    HW3  728   2.770   2.394   0.815  0.3731  0.1753 -0.4902
  164SOL    MW4  729   2.707   2.437   0.772 -0.0391 -0.1924 -0.2572
  165SOL     OW  730   1.540   3.834   0.832  0.0836 -0.1125  0.2774
  165SOL    HW2  731   1.576   3.751   0.802  0.9712  0.6266 -0.7173
  165SOL    HW3  732   1.569   3.841   0.923  1.5727 -0.0200 -0.1941
  165SOL    MW4  733   1.548   3.824   0.840  0.3971 -0.0029  0.0840
  166SOL     OW  734   4.458   4.269   0.834  0.1043  0.1083 -0.2139
  166SOL    HW2  735   4.463   4.179   0.803 -0.3859  0.6609 -1.9531
  166SOL    HW3  736   4.464   4.262   0.929  0.3282 -1.7339 -0.3495
  166SOL    MW4  737   4.459   4.256   0.843  0.0691 -0.0610 -0.4613
  167SOL     OW  738   3.135   0.279   0.387 -0.0132 -0.4232 -0.0635
  167SOL    HW2  739   3.041   0.276   0.403  0.1247 -1.3551  0.5711
  167SOL    HW3  740   3.143   0.291   0.293 -0.7570 -1.1140 -0.2160
  167SOL    MW4  741   3.124   0.280   0.377 -0.0932 -0.6373  0.0001
  168SOL     OW  742   3.519   4.326   0.498  0.0965  0.2005  0.0431
  168SOL    HW2  743   3.556   4.240   0.518  0.6675  0.7887  1.6263
  168SOL    HW3  744   3.595   4.383   0.491 -0.3546  0.8500  0.4215
  168SOL    MW4  745   3.533   4.322   0.500  0.1123  0.3638  0.3019
  169SOL     OW  746   2.118   1.432   0.505 -0.0547  0.2266  0.0483
  169SOL    HW2  747   2.127   1.528   0.510 -1.9723  0.4096  0.5398
  169SOL    HW3  748   2.202   1.402   0.471  0.1076  2.2049 -1.4297
  169SOL    MW4  749   2.131   1.441   0.501 -0.2863  0.5118 -0.0818
  170SOL     OW  750   3.877   2.886   0.744 -0.1329  0.1796  0.1485
  170SOL    HW2  751   3.884   2.875   0.650  0.7188 -0.0986  0.2430
  170SOL    HW3  752   3.797   2.839   0.768 -0.1587 -0.0471 -0.3824
  170SOL    MW4  753   3.867   2.879   0.735 -0.0241  0.1130  0.0910
  171SOL     OW  754   3.738   0.082   0.428 -0.2038  0.1978  0.1305
  171SOL    HW2  755   3.716   0.090   0.335  0.1634  0.9987  0.1026
  171SOL    HW3  756   3.658   0.109   0.474  0.1554  1.4920  0.0338
  171SOL    MW4  757   3.725   0.087   0.422 -0.1082  0.4742  0.1140
  172SOL     OW  758   2.624   3.563   0.824 -0.1372  0.4387  0.2489
  172SOL    HW2  759   2.635   3.531   0.914 -1.3266 -0.4214  0.0932
  172SOL    HW3  760   2.705   3.611   0.806  0.7865 -0.7177  1.2249
  172SOL    MW4  761   2.636   3.565   0.833 -0.1724  0.1726  0.3570
  173SOL     OW  762   0.371   2.529   0.449 -0.2946  0.2486  0.4225
  173SOL    HW2  763   0.398   2.461   0.386  0.7111  1.8368 -0.8914
  173SOL    HW3  764   0.412   2.502   0.531 -1.8440 -2.0030  0.4922
  173SOL    MW4  765   0.380   2.516   0.451 -0.3663  0.1609  0.2583
  174SOL     OW  766   2.265   4.137   0.284  0.1150  0.1611  0.2165
  174SOL    HW2  767   2.316   4.217   0.301 -0.2852  0.1379  1.6208
  174SOL    HW3  768   2.176   4.161   0.308  0.2078 -1.0853  1.8601
  174SOL    MW4  769   2.260   4.151   0.290  0.0744 -0.0067  0.6186
  175SOL     OW  770   0.009   0.064   0.562  0.6339 -0.1260  0.2494
  175SOL    HW2  771   0.091   0.034   0.523  1.0383 -0.1542  1.1263
  175SOL    HW3  772  -0.059   0.022   0.509  1.1521  0.9544 -1.3313
  175SOL    MW4  773   0.011   0.055   0.550  0.7553  0.0128  0.1565
  176SOL     OW  774   4.029   0.116   0.724 -0.3409  0.4577  0.1878
  176SOL    HW2  775   4.123   0.104   0.727 -0.6171 -2.3703 -0.7722
  176SOL    HW3  776   4.014   0.177   0.652  0.6987  0.4855 -0.0100
  176SOL    MW4  777   4.039   0.123   0.715 -0.2403  0.0883  0.0350
  177SOL     OW  778   1.583   3.396   0.477 -0.0400 -0.0416  0.0288
  177SOL    HW2  779   1.593   3.323   0.416 -1.9619 -0.3040 -0.0081
  177SOL    HW3  780   1.517   3.366   0.540 -0.1769  1.3120  0.5477
  177SOL    MW4  781   1.575   3.382   0.477 -0.3116  0.1025  0.0924
  178SOL     OW  782   3.893   2.124   0.385 -0.0935  0.3716  0.4795
  178SOL    HW2  783   3.802   2.117   0.414 -0.1128 -1.9614 -0.0246
  178SOL    HW3  784   3.893   2.193   0.319 -1.3213  1.0026  1.1331
  178SOL    MW4  785   3.881   2.132   0.380 -0.2580  0.1471  0.4993
  179SOL     OW  786   1.965   1.043   0.401  0.0438 -0.0507 -0.0261
  179SOL    HW2  787   2.055   1.062   0.426 -0.0866 -0.8375  1.0838
  179SOL    HW3  788   1.932   1.125   0.363  0.9497  0.4857  0.3453
  179SOL    MW4  789   1.972   1.056   0.399  0.1463 -0.0838  0.1693
  180SOL     OW  790   2.651   0.903   0.713  0.0165  0.6099  0.0876
  180SOL    HW2  791   2.719   0.848   0.752 -1.7925 -1.3129  0.5784
  180SOL    HW3  792   2.660   0.890   0.619  0.6004  0.6862  0.1326
  180SOL    MW4  793   2.661   0.894   0.706 -0.1452  0.3663  0.1583
  181SOL     OW  794   3.829   2.028   0.699  0.0766  0.4653  0.1159
  181SOL    HW2  795   3.795   2.117   0.705  0.5603  0.6690 -0.0792
  181SOL    HW3  796   3.766   1.974   0.746 -0.6036  0.8093 -0.3920
  181SOL    MW4  797   3.816   2.032   0.706  0.0505  0.5376  0.0231
  182SOL     OW  798   1.596   0.441   0.688  0.6504 -0.0985 -0.5587
  182SOL    HW2  799   1.615   0.412   0.599  1.0950  0.1473 -0.5493
  182SOL    HW3  800   1.666   0.403   0.741  0.6206  0.0910 -0.3817
  182SOL    MW4  801   1.608   0.432   0.683  0.7050 -0.0410 -0.5341
  183SOL     OW  802   0.206   1.088   0.767  0.3789  0.0006  0.0655
  183SOL    HW2  803   0.224   1.118   0.678 -1.1210 -0.4102 -0.4084
  183SOL    HW3  804   0.133   1.143   0.797 -0.4864 -1.2054  0.2521
  183SOL    MW4  805   0.199   1.099   0.759  0.0669 -0.2126  0.0275
  184SOL     OW  806   3.811   1.528   0.847 -0.0313  0.0741 -0.3514
  184SOL    HW2  807   3.808   1.521   0.942  2.7694 -0.1991 -0.2187
  184SOL    HW3  808   3.813   1.438   0.816  1.4394  0.1376 -0.5022
  184SOL    MW4  809   3.811   1.515   0.855  0.5322  0.0465 -0.3538
  185SOL     OW  810   2.899   1.296   0.466  0.0521 -0.2406  0.2765
  185SOL    HW2  811   2.907   1.303   0.561 -0.3842  0.3897  0.2750
  185SOL    HW3  812   2.911   1.386   0.435  0.1011 -0.4295 -0.2565
  185SOL    MW4  813   2.901   1.309   0.474  0.0007 -0.1823  0.2060
  186SOL     OW  814   4.342   1.788   0.539  0.0369 -0.1522 -0.3363
  186SOL    HW2  815   4.250   1.762   0.527 -0.0710  0.1069 -0.0481
  186SOL    HW3  816   4.343   1.882   0.525  0.3727 -0.2448 -0.9892
  186SOL    MW4  817   4.330   1.797   0.535  0.0672 -0.1303 -0.3845
  187SOL     OW  818   0.054   3.132   0.463 -0.2932 -0.0672  0.1985
  187SOL    HW2  819   0.074   3.038   0.468 -0.1000 -0.1483 -1.4955
  187SOL    HW3  820  -0.037   3.135   0.435 -0.6796  0.2664  1.4887
  187SOL    MW4  821   0.045   3.120   0.460 -0.3187 -0.0339  0.1452
  188SOL     OW  822   4.290   2.838   0.757  0.0046 -0.4445  0.1928
  188SOL    HW2  823   4.371   2.802   0.793  0.5105  1.4263  0.9514
  188SOL    HW3  824   4.222   2.811   0.819  0.4600  0.3806  1.0473
  188SOL    MW4  825   4.291   2.829   0.770  0.1311 -0.0887  0.4056
  189SOL     OW  826   2.939   2.834   0.470 -0.5660 -0.5037 -0.0216
  189SOL    HW2  827   3.026   2.869   0.449 -1.3371  1.3036 -0.2370
  189SOL    HW3  828   2.934   2.840   0.566 -0.0448 -1.6467  0.0947
  189SOL    MW4  829   2.950   2.839   0.480 -0.5991 -0.4158 -0.0346
  190SOL     OW  830   0.522   0.702   0.700  0.0115 -0.6316 -0.4855
  190SOL    HW2  831   0.602   0.718   0.650 -1.7127  1.1449 -2.8110
  190SOL    HW3  832   0.501   0.786   0.739 -1.5176 -0.6796 -1.1661
  190SOL    MW4  833   0.530   0.715   0.698 -0.4177 -0.4035 -0.8821
  191SOL     OW  834   3.341   3.520   0.522  0.2808  0.0493  0.1388
  191SOL    HW2  835   3.436   3.521   0.512  0.1139  0.5303 -1.4392
  191SOL    HW3  836   3.316   3.430   0.500  0.5851 -0.7629  2.8776
  191SOL    MW4  837   3.350   3.508   0.518  0.2987  0.0055  0.2920
  192SOL     OW  838   3.240   0.056   0.527 -0.3386 -0.1785  0.2900
  192SOL    HW2  839   3.220   0.127   0.466 -1.4791 -0.3598  0.4451
  192SOL    HW3  840   3.198   0.083   0.609  0.1523 -0.5173  0.6530
  192SOL    MW4  841   3.232   0.069   0.530 -0.4246 -0.2471  0.3582
  193SOL     OW  842   2.349   3.992   0.531 -0.3492 -0.4611  0.0346
  193SOL    HW2  843   2.324   4.014   0.441 -0.2938 -1.1426 -0.1469
  193SOL    HW3  844   2.369   4.076   0.571  0.4706 -0.2334 -0.8395
  193SOL    MW4  845   2.348   4.006   0.524 -0.2339 -0.5212 -0.1046
  194SOL     OW  846   3.778   3.283   0.351  0.1183  0.5002 -0.4519
  194SOL    HW2  847   3.810   3.271   0.261  0.9012 -0.1574 -0.0915
  194SOL    HW3  848   3.858   3.296   0.403 -0.0478 -2.7315  0.7117
  194SOL    MW4  849   3.793   3.283   0.346  0.1998 -0.0131 -0.2508
  195SOL     OW  850   2.699   2.462   0.452 -0.5855 -0.3237 -0.8167
  195SOL    HW2  851   2.635   2.520   0.411 -0.5482 -0.2727 -0.8013
  195SOL    HW3  852   2.664   2.445   0.539 -0.9897 -0.9421 -1.0936
  195SOL    MW4  853   2.686   2.467   0.458 -0.6340 -0.3986 -0.8512
  196SOL     OW  854   0.683   4.367   0.458 -0.1481  0.1792 -0.4526
  196SOL    HW2  855   0.673   4.458   0.429  0.6890  0.1924 -0.7248
  196SOL    HW3  856   0.597   4.328   0.445 -0.6533  1.0720  0.1501
  196SOL    MW4  857   0.671   4.374   0.453 -0.1044  0.2990 -0.4090
  197SOL     OW  858   2.833   4.601   0.433  0.0360  0.0903 -0.1992
  197SOL    HW2  859   2.775   4.526   0.424  0.7699 -0.4124 -0.7698
  197SOL    HW3  860   2.919   4.564   0.455  0.5074  0.7249 -0.9296
  197SOL    MW4  861   2.837   4.587   0.435  0.1948  0.1078 -0.3709
  198SOL     OW  862   0.520   3.009   0.438 -0.3259 -0.0692 -0.4698
  198SOL    HW2  863   0.454   3.070   0.472  0.2871  0.0099  0.5736
  198SOL    HW3  864   0.469   2.944   0.390 -1.1098  0.4128 -0.3047
  198SOL    MW4  865   0.504   3.009   0.436 -0.3485  0.0048 -0.3103
  199SOL     OW  866   4.346   0.462   0.507  0.2797  0.0583  0.1236
  199SOL    HW2  867   4.292   0.393   0.468 -1.1257  0.6712  0.9594
  199SOL    HW3  868   4.315   0.468   0.597  0.6464  1.5311  0.1579
  199SOL    MW4  869   4.335   0.454   0.514  0.1431  0.3335  0.2384
  200SOL     OW  870   3.950   4.088   0.555  0.2680 -0.1456 -0.1929
  200SOL    HW2  871   3.854   4.096   0.554  0.0906 -1.5804  2.0941
  200SOL    HW3  872   3.967   4.005   0.510  0.5213  0.5583 -1.4243
  200SOL    MW4  873   3.939   4.078   0.549  0.2780 -0.2422 -0.0536
  201SOL     OW  874   3.960   0.266   0.513 -0.5538 -0.0497 -0.4651
  201SOL    HW2  875   3.921   0.347   0.545 -0.9980 -0.1494 -0.7407
  201SOL    HW3  876   3.886   0.219   0.473 -0.4668 -0.9294  0.3751
  201SOL    MW4  877   3.945   0.270   0.512 -0.6008 -0.1789 -0.3906
  202SOL     OW  878   3.053   0.545   0.497 -0.1703  0.0018 -0.0989
  202SOL    HW2  879   3.101   0.470   0.461  0.5279  0.5955 -0.4052
  202SOL    HW3  880   2.974   0.549   0.443  0.5127  0.4179 -1.0879
  202SOL    MW4  881   3.049   0.535   0.485  0.0119  0.1350 -0.2698
  203SOL     OW  882   4.090   0.379   0.918  0.3306  0.0191  0.0660
  203SOL    HW2  883   4.108   0.314   0.850 -0.7163  1.6062 -1.7652
  203SOL    HW3  884   4.013   0.426   0.887 -0.0223  0.9397  2.2378
  203SOL    MW4  885   4.082   0.377   0.905  0.1459  0.3499  0.1109
  204SOL     OW  886   0.013   4.180   0.416  0.2529  0.2586  0.5563
  204SOL    HW2  887  -0.053   4.241   0.383  0.9393  0.8682  0.2958
  204SOL    HW3  888  -0.035   4.099   0.433 -0.7525  1.0044  1.2983
  204SOL    MW4  889  -0.002   4.177   0.414  0.2103  0.4373  0.6198
  205SOL     OW  890   1.330   0.728   0.367 -0.1373  0.5506  0.3220
  205SOL    HW2  891   1.400   0.779   0.325  0.2297  1.3366  1.8449
  205SOL    HW3  892   1.373   0.649   0.399 -0.3771  0.0474 -0.5746
  205SOL    MW4  893   1.345   0.724   0.366 -0.1205  0.5879  0.4047
  206SOL     OW  894   0.130   1.475   0.766 -0.1498 -0.3230 -0.0425
  206SOL    HW2  895   0.066   1.546   0.756 -0.0738 -0.0050  1.6874
  206SOL    HW3  896   0.080   1.405   0.807  0.4978 -0.2547  0.8491
  206SOL    MW4  897   0.115   1.475   0.770 -0.0543 -0.2720  0.3034
  207SOL     OW  898   2.593   0.397   0.475 -0.1507  0.0550 -0.2011
  207SOL    HW2  899   2.514   0.346   0.459 -0.3732  0.3802 -0.1389
  207SOL    HW3  900   2.582   0.430   0.564  0.4597 -0.6296  0.1376
  207SOL    MW4  901   2.581   0.394   0.485 -0.0997  0.0076 -0.1482
  208SOL     OW  902   4.272   3.210   0.352  0.2694 -0.3585  0.3214
  208SOL    HW2  903   4.197   3.237   0.405 -0.3044  1.3914 -1.3264
  208SOL    HW3  904   4.325   3.289   0.343  1.2953 -1.0859 -0.1886
  208SOL    MW4  905   4.269   3.224   0.358  0.3290 -0.2236  0.0367
  209SOL     OW  906   3.379   1.209   0.446  0.2779 -0.4753  0.4440
  209SOL    HW2  907   3.366   1.289   0.395  0.5401 -0.7632 -0.0837
  209SOL    HW3  908   3.342   1.228   0.532  2.6102  1.0588  1.1200
  209SOL    MW4  909   3.372   1.222   0.450  0.6204 -0.3109  0.4635
  210SOL     OW  910   2.689   2.706   0.825  0.4414  0.1262  0.5429
  210SOL    HW2  911   2.634   2.782   0.809  0.4031 -0.2128 -0.9752
  210SOL    HW3  912   2.698   2.702   0.921 -1.1993  0.8561  0.7299
  210SOL    MW4  913   2.683   2.715   0.836  0.2198  0.1779  0.3673
  211SOL     OW  914   1.068   2.507   0.330  0.5983 -0.3748  0.3157
  211SOL    HW2  915   1.013   2.519   0.253 -0.6502 -0.0137  1.2580
  211SOL    HW3  916   1.035   2.427   0.371  1.0115 -0.3628  0.6808
  211SOL    MW4  917   1.057   2.498   0.325  0.4882 -0.3252  0.4882
  212SOL     OW  918   2.020   3.690   0.675 -0.2036  0.0152 -0.1537
  212SOL    HW2  919   2.069   3.623   0.723  0.0687 -0.1363 -0.6315
  212SOL    HW3  920   1.946   3.642   0.636 -1.6356  0.5483  1.8730
  212SOL    MW4  921   2.017   3.674   0.676 -0.3567  0.0656  0.0506
  213SOL     OW  922   2.144   4.173   0.830 -0.3897  0.1047 -0.2712
  213SOL    HW2  923   2.227   4.201   0.791  0.3540 -0.9214  0.5462
  213SOL    HW3  924   2.086   4.249   0.819  1.0096  1.2816  0.2342
  213SOL    MW4  925   2.147   4.187   0.823 -0.1068  0.1249 -0.0967
  214SOL     OW  926   3.262   3.253   0.471  0.2139  0.4169  0.3406
  214SOL    HW2  927   3.173   3.276   0.443  0.7485  0.4385 -1.3479
  214SOL    HW3  928   3.281   3.171   0.427  1.1979  0.6227  0.3806
  214SOL    MW4  929   3.253   3.245   0.462  0.4144  0.4468  0.1231
  215SOL     OW  930   3.655   2.869   0.433 -0.2823 -0.5474  0.7422
  215SOL    HW2  931   3.641   2.957   0.470 -0.6702 -0.5146  0.5238
  215SOL    HW3  932   3.750   2.860   0.428 -0.2323  0.5700 -0.9095
  215SOL    MW4  933   3.666   2.880   0.437 -0.3269 -0.3960  0.4955
  216SOL     OW  934   3.137   2.702   0.868  0.6784  0.1687  0.7752
  216SOL    HW2  935   3.221   2.747   0.856  0.4445  0.7249  1.1642
  216SOL    HW3  936   3.141   2.627   0.809  1.8203 -0.3217  1.4635
  216SOL    MW4  937   3.149   2.698   0.859  0.7982  0.1774  0.9173
  217SOL     OW  938   4.229   3.605   0.784 -0.2372  0.1491  0.5896
  217SOL    HW2  939   4.237   3.693   0.821  0.3089  0.6572 -0.7109
  217SOL    HW3  940   4.318   3.581   0.759 -0.5635 -0.2594 -0.2067
  217SOL    MW4  941   4.242   3.613   0.786 -0.2084  0.1624  0.3130
  218SOL     OW  942   0.110   2.861   0.486 -0.2232 -0.0465  0.3392
  218SOL    HW2  943   0.027   2.820   0.461 -0.0211  1.1012 -2.4050
  218SOL    HW3  944   0.176   2.816   0.432  0.2857  2.2401 -1.0420
  218SOL    MW4  945   0.108   2.849   0.475 -0.1294  0.4067 -0.2051
  219SOL     OW  946   2.615   3.503   0.268 -0.1232 -0.4303  0.1517
  219SOL    HW2  947   2.552   3.455   0.215  0.0080 -0.3820 -0.0504
  219SOL    HW3  948   2.689   3.442   0.277  0.0552 -0.2576 -0.1289
  219SOL    MW4  949   2.617   3.488   0.262 -0.0825 -0.4010  0.0879
  220SOL     OW  950   1.741   1.872   0.293 -0.5311 -0.5265 -0.1899
  220SOL    HW2  951   1.674   1.804   0.300 -0.8217 -0.2211 -0.0244
  220SOL    HW3  952   1.808   1.846   0.357  0.6578 -2.1282 -2.0051
  220SOL    MW4  953   1.741   1.860   0.303 -0.4126 -0.6976 -0.4075
  221SOL     OW  954   3.095   3.829   0.379  0.2911 -0.4784 -0.6407
  221SOL    HW2  955   3.124   3.892   0.444 -0.9177 -1.1837  0.6013
  221SOL    HW3  956   3.175   3.786   0.349  1.0944  1.4423 -1.3242
  221SOL    MW4  957   3.109   3.831   0.383  0.2377 -0.3183 -0.5670
  222SOL     OW  958   3.343   3.006   0.390  0.0206  0.0442 -0.1832
  222SOL    HW2  959   3.421   3.037   0.435 -2.4625  2.1977  2.8680
  222SOL    HW3  960   3.339   2.912   0.408  1.5187  0.0550  0.1873
  222SOL    MW4  961   3.353   2.998   0.398 -0.1092  0.3297  0.2683
  223SOL     OW  962   0.366   0.089   0.790  0.1076  0.1141 -0.1454
  223SOL    HW2  963   0.368   0.179   0.822 -0.3176 -0.4228  1.4117
  223SOL    HW3  964   0.456   0.058   0.800  0.1080  0.1457 -0.0531
  223SOL    MW4  965   0.378   0.097   0.795  0.0515  0.0474  0.0722
  224SOL     OW  966   0.617   1.598   0.690 -0.4414 -0.2398 -0.4435
  224SOL    HW2  967   0.638   1.616   0.782  0.4613  1.0051 -0.8773
  224SOL    HW3  968   0.539   1.649   0.672 -1.4165 -1.5490 -0.0060
  224SOL    MW4  969   0.610   1.607   0.700 -0.4510 -0.2484 -0.4430
  225SOL     OW  970   0.449   0.351   0.497 -0.1348  0.1470 -0.2790
  225SOL    HW2  971   0.366   0.397   0.488 -0.7238 -0.9998 -0.8698
  225SOL    HW3  972   0.426   0.258   0.493  1.0001 -0.2163  1.0935
  225SOL    MW4  973   0.435   0.345   0.495 -0.0628 -0.0522 -0.1759
  226SOL     OW  974   1.057   4.656   0.401 -0.1290 -0.1549 -0.0550
  226SOL    HW2  975   0.991   4.720   0.427  0.3755  0.7846 -1.0154
  226SOL    HW3  976   1.137   4.684   0.446 -0.0540 -0.4625  0.0039
  226SOL    MW4  977   1.059   4.668   0.410 -0.0526 -0.0715 -0.1740
  227SOL     OW  978   0.019   1.132   0.430 -0.3747 -0.1230 -0.5386
  227SOL    HW2  979  -0.026   1.177   0.359 -0.7005  0.3662 -0.0251
  227SOL    HW3  980  -0.042   1.063   0.457 -0.5374  0.1309 -0.2685
  227SOL    MW4  981   0.005   1.129   0.424 -0.4392 -0.0249 -0.4352
  228SOL     OW  982   2.753   4.117   0.418 -0.0622  0.2876 -0.0645
  228SOL    HW2  983   2.772   4.070   0.336  1.0090 -0.2643  0.4948
  228SOL    HW3  984   2.810   4.076   0.483 -0.2213  1.3626  0.7651
  228SOL    MW4  985   2.763   4.105   0.416  0.0582  0.3567  0.1188
  229SOL     OW  986   0.792   1.656   0.921  0.1141 -0.3732  0.7264
  229SOL    HW2  987   0.801   1.643   1.015 -1.9873 -1.0164  0.8670
  229SOL    HW3  988   0.875   1.625   0.884  1.3619  0.8803  2.4383
  229SOL    MW4  989   0.804   1.650   0.928  0.0015 -0.2925  0.9708
  230SOL     OW  990   0.018   0.889   0.752  0.2024  0.0772  0.2921
  230SOL    HW2  991   0.089   0.952   0.764 -1.0934  1.5688  0.3383
  230SOL    HW3  992  -0.044   0.934   0.694 -0.5009 -1.3699 -0.1106
  230SOL    MW4  993   0.019   0.903   0.746 -0.0613  0.0831  0.2451
  231SOL     OW  994   1.215   0.881   0.588 -0.2000  0.1086 -0.1158
  231SOL    HW2  995   1.245   0.824   0.517 -2.2382 -0.5873 -0.4421
  231SOL    HW3  996   1.143   0.931   0.551 -0.1081  1.0575  0.9483
  231SOL    MW4  997   1.210   0.880   0.574 -0.4567  0.1420 -0.0185
  232SOL     OW  998   1.426   1.043   0.681 -0.1033  0.2683  0.1928
  232SOL    HW2  999   1.352   0.988   0.657 -0.1710 -0.1840  1.4130
  232SOL    HW3 1000   1.442   1.098   0.604  1.4963 -3.0883 -1.9645
  232SOL    MW4 1001   1.418   1.043   0.667  0.0989 -0.2342  0.0691
  233SOL     OW 1002   1.340   2.429   0.444 -0.4458  0.2521 -0.1394
  233SOL    HW2 1003   1.257   2.458   0.406 -0.9281  0.7500  1.2800
  233SOL    HW3 1004   1.325   2.429   0.538  0.6148 -1.3602  0.0592
  233SOL    MW4 1005   1.327   2.433   0.451 -0.3695  0.1049  0.0741
  234SOL     OW 1006   4.014   1.162   0.911  0.1864  0.0905  0.6313
  234SOL    HW2 1007   4.102   1.192   0.890 -0.1220  0.7118  0.2208
  234SOL    HW3 1008   4.018   1.137   1.004  0.8065  0.0596  0.5931
  234SOL    MW4 1009   4.026   1.163   0.921  0.2279  0.1684  0.5722
  235SOL     OW 1010   3.489   0.123   0.554 -0.1493  0.3067  0.0884
  235SOL    HW2 1011   3.486   0.219   0.554 -0.9094  0.2821  0.0145
  235SOL    HW3 1012   3.398   0.096   0.545 -0.0394 -0.4376  1.1357
  235SOL    MW4 1013   3.477   0.132   0.553 -0.2348  0.2052  0.2168
  236SOL     OW 1014   1.368   3.516   0.325  0.3538 -0.3393 -0.4258
  236SOL    HW2 1015   1.319   3.433   0.327 -0.0296 -0.0993  0.0198
  236SOL    HW3 1016   1.450   3.496   0.369  0.4973 -0.6306 -0.8115
  236SOL    MW4 1017   1.372   3.502   0.331  0.3222 -0.3459 -0.4179
  237SOL     OW 1018   1.350   1.248   0.841  0.5761 -0.3633  0.3161
  237SOL    HW2 1019   1.389   1.173   0.796 -0.1614 -0.1657 -0.6651
  237SOL    HW3 1020   1.413   1.319   0.830  0.6511 -0.4672  0.0741
  237SOL    MW4 1021   1.363   1.247   0.833  0.4888 -0.3508  0.1547
  238SOL     OW 1022   4.263   3.872   0.885  0.1394  0.3417 -0.4852
  238SOL    HW2 1023   4.245   3.858   0.978  0.2013  1.0450 -0.3614
  238SOL    HW3 1024   4.196   3.934   0.857 -0.5710 -0.7265 -1.1854
  238SOL    MW4 1025   4.252   3.878   0.894  0.0539  0.2937 -0.5613
  239SOL     OW 1026   3.972   3.793   0.445 -0.2609 -0.1494  0.3385
  239SOL    HW2 1027   4.017   3.710   0.465 -0.8340 -0.6862 -0.5792
  239SOL    HW3 1028   3.882   3.779   0.472 -0.3943  0.1323  0.0418
  239SOL    MW4 1029   3.966   3.780   0.451 -0.3541 -0.1831  0.1783
  240SOL     OW 1030   2.064   2.132   0.507  0.3146  0.3395  0.0815
  240SOL    HW2 1031   2.134   2.142   0.444 -0.1537  1.5299 -0.2610
  240SOL    HW3 1032   2.081   2.199   0.573  0.3536 -0.3677  0.8025
  240SOL    MW4 1033   2.075   2.142   0.508  0.2580  0.4032  0.1315
  241SOL     OW 1034   2.013   4.214   0.391  0.2393 -0.0783 -0.2485
  241SOL    HW2 1035   2.016   4.167   0.475 -1.0375  0.2744  0.0128
  241SOL    HW3 1036   1.968   4.154   0.331  0.6864 -0.1241 -0.5357
  241SOL    MW4 1037   2.007   4.200   0.394  0.1297 -0.0386 -0.2519
  242SOL     OW 1038   2.932   2.033   0.474 -0.3153  0.4990  0.2457
  242SOL    HW2 1039   2.861   2.085   0.437  0.8381  1.3210 -0.8618
  242SOL    HW3 1040   3.012   2.073   0.439  0.5958 -2.0933 -0.7881
  242SOL    MW4 1041   2.933   2.045   0.464 -0.0429  0.2658 -0.0368
  243SOL     OW 1042   4.162   3.569   0.520  0.4457 -0.3162 -0.5573
  243SOL    HW2 1043   4.240   3.539   0.474  0.5835 -0.9461  0.0751
  243SOL    HW3 1044   4.189   3.574   0.611  0.6597  2.5419 -0.7301
  243SOL    MW4 1045   4.176   3.566   0.526  0.4926 -0.0222 -0.4967
  244SOL     OW 1046   3.389   2.758   0.518 -0.2027 -0.6045  0.2228
  244SOL    HW2 1047   3.382   2.785   0.610 -2.2292 -2.0840  0.5342
  244SOL    HW3 1048   3.478   2.782   0.493 -0.0428  1.0105  2.1825
  244SOL    MW4 1049   3.400   2.765   0.527 -0.4489 -0.5867  0.5224
  245SOL     OW 1050   4.295   2.492   0.516  0.0543 -0.5555 -0.2308
  245SOL    HW2 1051   4.371   2.458   0.470 -0.1484 -1.1513 -0.1338
  245SOL    HW3 1052   4.236   2.417   0.523 -0.7707  0.0328 -0.7886
  245SOL    MW4 1053   4.297   2.478   0.511 -0.0811 -0.5567 -0.2916
  246SOL     OW 1054   1.704   1.331   0.511  0.1345  0.6350  0.1762
  246SOL    HW2 1055   1.684   1.405   0.568  0.0111  1.5582 -1.0413
  246SOL    HW3 1056   1.787   1.355   0.468  0.7762 -0.5159  0.7423
  246SOL    MW4 1057   1.713   1.344   0.513  0.2029  0.6049  0.0904
  247SOL     OW 1058   0.138   4.631   0.889  0.3258 -0.3068  0.3585
  247SOL    HW2 1059   0.162   4.549   0.845  0.0668 -0.3425  0.2795
  247SOL    HW3 1060   0.206   4.693   0.863  0.8544 -0.6541  0.9009
  247SOL    MW4 1061   0.150   4.628   0.880  0.3614 -0.3572  0.4197
  248SOL     OW 1062   4.427   3.929   0.525  0.1259  0.3892  0.3492
  248SOL    HW2 1063   4.496   3.884   0.476  0.7613  0.8846  0.7774
  248SOL    HW3 1064   4.350   3.922   0.469  0.4607 -0.3694 -0.0347
  248SOL    MW4 1065   4.426   3.922   0.511  0.2537  0.3545  0.3550
  249SOL     OW 1066   0.699   0.435   0.509  0.0820  0.2187 -0.6620
  249SOL    HW2 1067   0.607   0.413   0.497 -0.1336 -0.0409  1.3614
  249SOL    HW3 1068   0.747   0.358   0.476 -0.4890 -0.5426  0.2625
  249SOL    MW4 1069   0.693   0.422   0.503 -0.0218  0.0841 -0.2730
  250SOL     OW 1070   0.368   0.355   0.852 -0.2537  0.1696 -0.0100
  250SOL    HW2 1071   0.455   0.350   0.814 -0.5578 -1.3041 -0.5367
  250SOL    HW3 1072   0.382   0.384   0.942  0.6931  0.8798 -0.3870
  250SOL    MW4 1073   0.381   0.358   0.859 -0.1689  0.0688 -0.1292
  251SOL     OW 1074   0.671   0.702   0.969 -0.1174 -0.2649  0.2108
  251SOL    HW2 1075   0.627   0.674   0.889  0.3916  1.1747 -0.5851
  251SOL    HW3 1076   0.668   0.625   1.026 -3.8114 -0.1852  0.2630
  251SOL    MW4 1077   0.665   0.688   0.966 -0.5376 -0.0644  0.1126
  252SOL     OW 1078   0.121   3.833   0.335 -0.1720 -0.1566  0.2095
  252SOL    HW2 1079   0.179   3.907   0.315  0.9857 -0.7319  1.3995
  252SOL    HW3 1080   0.180   3.762   0.359 -1.3521 -0.9665  0.7398
  252SOL    MW4 1081   0.136   3.834   0.336 -0.1750 -0.3390  0.4365
  253SOL     OW 1082   3.372   2.216   0.539  0.3507  0.1207  0.1627
  253SOL    HW2 1083   3.387   2.308   0.518 -0.7679  0.4112  0.6026
  253SOL    HW3 1084   3.388   2.210   0.634  0.4407 -0.1358  0.1318
  253SOL    MW4 1085   3.376   2.228   0.549  0.2148  0.1256  0.2166
  254SOL     OW 1086   1.346   0.436   0.383  0.5599 -0.0290  0.2093
  254SOL    HW2 1087   1.311   0.398   0.303 -0.2394  0.5503  0.2704
  254SOL    HW3 1088   1.289   0.403   0.452  1.7792 -1.2292  0.6603
  254SOL    MW4 1089   1.334   0.427   0.381  0.6154 -0.1109  0.2769
  255SOL     OW 1090   1.071   1.931   0.714  0.0386 -0.3389  0.0240
  255SOL    HW2 1091   0.998   1.892   0.762 -0.6691  1.0244  0.0982
  255SOL    HW3 1092   1.069   2.024   0.740  1.1796 -0.0955 -0.7400
  255SOL    MW4 1093   1.061   1.938   0.724  0.0958 -0.1270 -0.0670
  256SOL     OW 1094   4.431   1.521   0.478  0.1775 -0.3431  0.8254
  256SOL    HW2 1095   4.522   1.501   0.456 -0.0546 -1.4106  0.8046
  256SOL    HW3 1096   4.429   1.617   0.484  1.0689 -0.2451 -0.1532
  256SOL    MW4 1097   4.443   1.531   0.476  0.2637 -0.4710  0.6935
  257SOL     OW 1098   3.383   1.881   0.495  0.1880 -0.2154 -0.1419
  257SOL    HW2 1099   3.362   1.925   0.577 -0.7304 -0.6734 -0.1164
  257SOL    HW3 1100   3.460   1.828   0.516 -0.1180 -0.4352  0.4796
  257SOL    MW4 1101   3.390   1.880   0.509  0.0265 -0.3048 -0.0566
  258SOL     OW 1102   2.504   2.642   0.341 -0.1697  0.0539  0.5718
  258SOL    HW2 1103   2.485   2.676   0.253 -0.0435 -0.8902  0.1785
  258SOL    HW3 1104   2.437   2.575   0.356 -0.0084  0.0046  1.0771
  258SOL    MW4 1105   2.492   2.638   0.331 -0.1318 -0.0768  0.5866
  259SOL     OW 1106   0.781   1.906   0.320 -0.0257 -0.0507  0.4335
  259SOL    HW2 1107   0.814   1.822   0.286  1.5727  0.8474 -0.2965
  259SOL    HW3 1108   0.775   1.962   0.242  1.2693  1.2481  1.2357
  259SOL    MW4 1109   0.785   1.902   0.305  0.3561  0.2393  0.4430
  260SOL     OW 1110   4.289   1.306   0.564  0.3625  0.4016 -0.2178
  260SOL    HW2 1111   4.360   1.369   0.554  0.7133  0.1299  0.5064
  260SOL    HW3 1112   4.316   1.232   0.510  0.4183  0.4845 -0.3037
  260SOL    MW4 1113   4.302   1.304   0.556  0.4163  0.3768 -0.1335
  261SOL     OW 1114   0.930   2.379   0.717  0.2332  0.4424 -0.3805
  261SOL    HW2 1115   0.962   2.454   0.767  1.0871 -0.5784  0.6288
  261SOL    HW3 1116   0.970   2.303   0.759 -3.0538 -0.8413  0.5590
  261SOL    MW4 1117   0.939   2.379   0.729 -0.0878  0.1383 -0.1234
  262SOL     OW 1118   0.236   2.876   0.742  0.1970 -0.2520  0.3297
  262SOL    HW2 1119   0.170   2.832   0.796 -1.4094  0.6576 -0.8476
  262SOL    HW3 1120   0.208   2.861   0.652  1.0350  0.9886 -0.1573
  262SOL    MW4 1121   0.223   2.869   0.738  0.0956  0.0315  0.1101
  263SOL     OW 1122   0.444   3.235   0.738  0.4323 -0.6963 -0.2201
  263SOL    HW2 1123   0.372   3.211   0.796 -0.0401 -0.5781 -0.7548
  263SOL    HW3 1124   0.466   3.324   0.763 -0.7826 -0.0990 -1.2387
  263SOL    MW4 1125   0.438   3.243   0.749  0.2097 -0.6022 -0.4250
  264SOL     OW 1126   4.260   3.079   0.855 -0.0815 -0.2186  0.0514
  264SOL    HW2 1127   4.339   3.128   0.836 -0.9914  0.8025 -1.1677
  264SOL    HW3 1128   4.261   3.005   0.795  0.3056 -0.6025  0.5312
  264SOL    MW4 1129   4.270   3.076   0.845 -0.1502 -0.1342 -0.0461
  265SOL     OW 1130   4.491   3.463   0.819 -0.0494 -0.2144  0.6776
  265SOL    HW2 1131   4.563   3.506   0.772 -0.2042  0.0608  0.6907
  265SOL    HW3 1132   4.480   3.379   0.774 -0.0212 -0.0629  0.3824
  265SOL    MW4 1133   4.499   3.458   0.807 -0.0661 -0.1581  0.6403
  266SOL     OW 1134   0.211   3.601   0.738 -0.4419 -0.2954  0.3916
  266SOL    HW2 1135   0.297   3.571   0.767 -0.2860  0.3838  0.6338
  266SOL    HW3 1136   0.207   3.693   0.765 -0.7704  0.0115 -0.6736
  266SOL    MW4 1137   0.222   3.609   0.745 -0.4647 -0.1652  0.2830
  267SOL     OW 1138   0.866   4.244   0.281 -0.3937  0.1205 -0.0596
  267SOL    HW2 1139   0.880   4.298   0.203  1.0521 -0.8157 -0.4666
  267SOL    HW3 1140   0.792   4.286   0.326  1.2190  2.9686  0.0979
  267SOL    MW4 1141   0.858   4.257   0.277  0.0098  0.3729 -0.0926
  268SOL     OW 1142   0.199   4.381   0.769 -0.3600  0.1195  0.2175
  268SOL    HW2 1143   0.126   4.322   0.786 -0.2742 -0.1346 -0.2807
  268SOL    HW3 1144   0.272   4.342   0.817 -0.9582  1.3116  2.1378
  268SOL    MW4 1145   0.199   4.368   0.778 -0.4276  0.2437  0.4051
  269SOL     OW 1146   4.049   0.904   0.798  0.2766 -0.2451 -0.1563
  269SOL    HW2 1147   4.043   0.984   0.850  1.0224 -1.4247  1.7897
  269SOL    HW3 1148   4.121   0.855   0.838 -0.1143 -1.8571 -1.3758
  269SOL    MW4 1149   4.058   0.908   0.810  0.3228 -0.6135 -0.0604
  270SOL     OW 1150   2.412   4.373   0.313 -0.3951  0.2556 -0.3257
  270SOL    HW2 1151   2.500   4.363   0.349 -0.7789  1.2078  0.8885
  270SOL    HW3 1152   2.424   4.421   0.231  0.2549 -0.0392 -0.4022
  270SOL    MW4 1153   2.425   4.378   0.307 -0.3603  0.3424 -0.1756
  271SOL     OW 1154   0.623   0.002   0.821  0.0083 -0.2950  0.7141
  271SOL    HW2 1155   0.645   0.019   0.913  0.3357  1.4579  0.3200
  271SOL    HW3 1156   0.629  -0.094   0.813  0.1450 -0.4626  2.4671
  271SOL    MW4 1157   0.626  -0.009   0.832  0.0696 -0.0858  0.8935
  272SOL     OW 1158   3.863   0.749   0.436  0.1295  0.2818 -0.3535
  272SOL    HW2 1159   3.785   0.804   0.428 -0.1188  0.1569  0.9930
  272SOL    HW3 1160   3.874   0.710   0.350  0.2494  2.3512 -1.3134
  272SOL    MW4 1161   3.854   0.751   0.424  0.1128  0.5383 -0.3025
  273SOL     OW 1162   4.023   4.330   0.427  0.5748  0.5875 -0.2123
  273SOL    HW2 1163   4.052   4.391   0.495  2.2904  0.3173 -0.6855
  273SOL    HW3 1164   4.014   4.247   0.472  0.3234  0.7240 -0.0122
  273SOL    MW4 1165   4.026   4.327   0.442  0.7687  0.5708 -0.2483
  274SOL     OW 1166   2.076   1.331   0.752 -0.2513  0.0545  0.1858
  274SOL    HW2 1167   1.994   1.281   0.749 -0.2162 -0.0544  0.8582
  274SOL    HW3 1168   2.089   1.362   0.663 -0.3230 -1.0582 -0.2163
  274SOL    MW4 1169   2.067   1.328   0.740 -0.2561 -0.1069  0.2214
  275SOL     OW 1170   0.759   0.718   0.537  0.1799  0.2249 -0.2362
  275SOL    HW2 1171   0.761   0.623   0.526 -0.9990  0.3118 -1.3429
  275SOL    HW3 1172   0.844   0.740   0.576  0.6682 -1.2240 -0.4709
  275SOL    MW4 1173   0.771   0.708   0.541  0.0888  0.0452 -0.4132
  276SOL     OW 1174   0.116   0.640   0.865 -0.1342  0.0445 -0.6614
  276SOL    HW2 1175   0.093   0.721   0.820  0.0889  0.6357  0.2749
  276SOL    HW3 1176   0.086   0.653   0.955 -0.5237 -1.1049 -0.6169
  276SOL    MW4 1177   0.109   0.653   0.871 -0.1561 -0.0292 -0.5322
  277SOL     OW 1178   0.864   1.641   0.295  0.3590  0.3928  0.5468
  277SOL    HW2 1179   0.818   1.572   0.344 -0.4023 -0.3502 -1.1676
  277SOL    HW3 1180   0.954   1.608   0.288  0.1072 -0.2264  0.1285
  277SOL    MW4 1181   0.870   1.627   0.300  0.2253  0.2131  0.2654
  278SOL     OW 1182   1.487   1.164   0.444 -0.1960 -0.1982  0.2346
  278SOL    HW2 1183   1.572   1.201   0.468  0.6782 -1.9771 -0.0403
  278SOL    HW3 1184   1.454   1.222   0.375  0.7309  0.5704  0.4253
  278SOL    MW4 1185   1.494   1.177   0.438  0.0417 -0.3315  0.2235
  279SOL     OW 1186   1.360   1.940   0.805 -0.5126 -0.2399 -0.2224
  279SOL    HW2 1187   1.267   1.958   0.792 -0.4380  1.1971  1.2347
  279SOL    HW3 1188   1.372   1.937   0.899  1.0274  0.1072 -0.3888
  279SOL    MW4 1189   1.349   1.942   0.815 -0.2996 -0.0044 -0.0521
  280SOL     OW 1190   3.652   2.531   0.686 -0.1371  0.0828 -0.0234
  280SOL    HW2 1191   3.560   2.529   0.714  0.1744  0.2802  1.0289
  280SOL    HW3 1192   3.648   2.541   0.591 -1.2153 -0.8185 -0.0793
  280SOL    MW4 1193   3.639   2.532   0.677 -0.2379 -0.0103  0.1081
  281SOL     OW 1194   0.811   1.927   0.856 -0.2660  0.0941 -0.0883
  281SOL    HW2 1195   0.791   1.835   0.839 -1.3916  0.2604  0.2791
  281SOL    HW3 1196   0.833   1.929   0.950  1.1858 -0.0307 -0.4139
  281SOL    MW4 1197   0.811   1.915   0.866 -0.2229  0.0995 -0.0828
  282SOL     OW 1198   0.730   2.281   0.425  0.2526 -0.5808  0.5462
  282SOL    HW2 1199   0.822   2.304   0.426  0.1739 -0.2856  1.3345
  282SOL    HW3 1200   0.720   2.218   0.497 -0.3192  0.0160  0.9952
  282SOL    MW4 1201   0.741   2.275   0.435  0.1668 -0.4630  0.7095
  283SOL     OW 1202   0.261   2.357   0.861  0.5189 -0.3934 -0.1523
  283SOL    HW2 1203   0.323   2.420   0.824 -0.0089  0.8747  1.0899
  283SOL    HW3 1204   0.175   2.388   0.832  0.2611 -0.5858  0.4076
  283SOL    MW4 1205   0.258   2.369   0.852  0.4153 -0.2515  0.0855
  284SOL     OW 1206   0.045   2.715   0.851 -0.2413  0.1570 -0.4701
  284SOL    HW2 1207   0.046   2.696   0.944 -0.7656 -0.0094 -0.4944
  284SOL    HW3 1208   0.051   2.630   0.808 -0.1195  0.2243 -0.5895
  284SOL    MW4 1209   0.046   2.701   0.857 -0.2944  0.1438 -0.4891
  285SOL     OW 1210   0.489   2.783   0.821  0.2954 -0.1291 -0.3279
  285SOL    HW2 1211   0.482   2.775   0.916  0.5686 -0.1554 -0.3095
  285SOL    HW3 1212   0.403   2.815   0.793 -0.0190 -0.7986 -0.1479
  285SOL    MW4 1213   0.477   2.786   0.830  0.2899 -0.2208 -0.3018
  286SOL     OW 1214   0.683   2.872   0.624  0.4179  0.4186 -0.4731
  286SOL    HW2 1215   0.635   2.917   0.555 -1.0438 -0.4516 -0.0546
  286SOL    HW3 1216   0.615   2.839   0.683  1.5507 -0.4771  0.3595
  286SOL    MW4 1217   0.667   2.873   0.623  0.3744  0.1857 -0.3080
  287SOL     OW 1218   0.654   3.103   0.828  0.0168 -0.6220  0.2557
  287SOL    HW2 1219   0.574   3.149   0.805 -0.1084 -0.1185  1.6356
  287SOL    HW3 1220   0.651   3.022   0.778 -0.7299 -0.0227 -0.6770
  287SOL    MW4 1221   0.643   3.098   0.818 -0.0982 -0.4768  0.3147
  288SOL     OW 1222   0.236   3.124   0.870 -0.0657 -0.2168 -0.0293
  288SOL    HW2 1223   0.226   3.098   0.961 -1.0802 -1.0788 -0.3848
  288SOL    HW3 1224   0.240   3.042   0.821  0.7303  0.2352 -0.7449
  288SOL    MW4 1225   0.236   3.110   0.875 -0.0946 -0.2706 -0.1706
  289SOL     OW 1226   0.453   3.494   0.839  0.8529  0.5013  0.4933
  289SOL    HW2 1227   0.467   3.483   0.933  0.9749 -0.9426  0.3120
  289SOL    HW3 1228   0.535   3.532   0.807  1.5274 -0.7722  0.6707
  289SOL    MW4 1229   0.466   3.498   0.848  0.9580  0.1428  0.4928
  290SOL     OW 1230   0.693   3.623   0.777  0.1028 -0.1171 -0.1994
  290SOL    HW2 1231   0.714   3.620   0.684 -1.6173 -0.1702 -0.6012
  290SOL    HW3 1232   0.670   3.714   0.794  0.4565 -0.0972  0.1975
  290SOL    MW4 1233   0.693   3.634   0.767 -0.0775 -0.1214 -0.2001
  291SOL     OW 1234   0.425   4.235   0.867 -0.2641  0.0462 -0.0621
  291SOL    HW2 1235   0.496   4.290   0.834  0.8117 -0.7380  0.9229
  291SOL    HW3 1236   0.445   4.223   0.960 -1.1939 -0.9258  0.0211
  291SOL    MW4 1237   0.437   4.241   0.875 -0.2448 -0.1855  0.0787
  292SOL     OW 1238   4.122   4.513   0.639 -0.0112  0.1388 -0.2181
  292SOL    HW2 1239   4.160   4.473   0.717 -0.4770  1.2309  0.5879
  292SOL    HW3 1240   4.055   4.573   0.673 -0.9701 -0.1754 -1.5064
  292SOL    MW4 1241   4.118   4.516   0.653 -0.1984  0.2413 -0.2817
  293SOL     OW 1242   0.430   4.206   0.463  0.1188 -0.5597 -0.2172
  293SOL    HW2 1243   0.363   4.267   0.495  0.8659 -0.1010  0.5285
  293SOL    HW3 1244   0.436   4.140   0.532 -1.1231 -1.8379 -1.3085
  293SOL    MW4 1245   0.422   4.205   0.477  0.0535 -0.6680 -0.2628
  294SOL     OW 1246   0.734   3.577   0.497 -0.4653 -0.4774 -0.4647
  294SOL    HW2 1247   0.659   3.522   0.472 -1.0142  0.1286 -0.1888
  294SOL    HW3 1248   0.723   3.656   0.444  0.1925 -0.5464 -0.6974
  294SOL    MW4 1249   0.722   3.580   0.487 -0.4509 -0.4065 -0.4590
  295SOL     OW 1250   1.136   0.022   0.827 -0.0777  0.0670 -0.6906
  295SOL    HW2 1251   1.051   0.058   0.802 -0.1838  0.5336  0.3217
  295SOL    HW3 1252   1.130  -0.070   0.803 -1.5801 -0.3393  1.0642
  295SOL    MW4 1253   1.124   0.015   0.821 -0.2899  0.0744 -0.3256
  296SOL     OW 1254   1.994   4.416   0.763  0.0848 -0.3287 -0.5156
  296SOL    HW2 1255   1.983   4.443   0.672 -0.1692 -0.8083 -0.6277
  296SOL    HW3 1256   1.912   4.372   0.785  0.4952 -1.0081 -0.3359
  296SOL    MW4 1257   1.982   4.414   0.754  0.1054 -0.4816 -0.5066
  297SOL     OW 1258   0.991   0.744   0.660  0.0035 -0.3480  0.0888
  297SOL    HW2 1259   0.960   0.795   0.734  0.0198 -0.0942 -0.0764
  297SOL    HW3 1260   1.072   0.788   0.633  0.5691 -1.0609  0.5847
  297SOL    MW4 1261   0.998   0.756   0.666  0.0803 -0.4086  0.1324
  298SOL     OW 1262   0.759   1.428   0.519 -0.3780 -0.2287  0.0447
  298SOL    HW2 1263   0.709   1.476   0.586  0.4577 -0.5862  0.9338
  298SOL    HW3 1264   0.695   1.368   0.481 -0.9876  0.3270  0.1809
  298SOL    MW4 1265   0.744   1.427   0.523 -0.3482 -0.2025  0.1799
  299SOL     OW 1266   2.668   4.376   0.444 -0.4954  0.2804 -0.2152
  299SOL    HW2 1267   2.696   4.286   0.427  0.8351  0.7541 -0.6063
  299SOL    HW3 1268   2.644   4.376   0.536 -0.9620 -0.5908 -0.3262
  299SOL    MW4 1269   2.669   4.364   0.454 -0.3815  0.2284 -0.2814
  300SOL     OW 1270   1.080   1.311   0.768 -0.3237  0.3410  0.1555
  300SOL    HW2 1271   1.023   1.245   0.808  1.3826 -0.5581  1.1772
  300SOL    HW3 1272   1.169   1.280   0.787  0.5063  1.9006 -1.0884
  300SOL    MW4 1273   1.085   1.298   0.776  0.0108  0.4282  0.1261
  301SOL     OW 1274   1.812   1.973   0.842 -0.1450 -0.2949 -0.1032
  301SOL    HW2 1275   1.877   2.044   0.839  0.5262 -0.8453  1.3193
  301SOL    HW3 1276   1.745   2.000   0.779 -0.6456  2.3257  1.4637
  301SOL    MW4 1277   1.812   1.986   0.833 -0.1224 -0.0218  0.2912
  302SOL     OW 1278   1.019   1.014   0.435  0.3033 -0.1994 -0.1852
  302SOL    HW2 1279   1.019   1.107   0.458 -0.0507 -0.4399  0.7852
  302SOL    HW3 1280   0.927   0.992   0.423  0.2954 -0.6931  0.7094
  302SOL    MW4 1281   1.007   1.023   0.436  0.2555 -0.2962  0.0609
  303SOL     OW 1282   0.624   1.175   0.781 -0.0753  0.0494 -0.5762
  303SOL    HW2 1283   0.582   1.248   0.825 -1.6024 -0.6364 -0.8581
  303SOL    HW3 1284   0.637   1.205   0.691 -1.3863 -0.2870 -0.8835
  303SOL    MW4 1285   0.620   1.189   0.775 -0.4498 -0.0854 -0.6540
  304SOL     OW 1286   1.599   2.070   0.417 -0.1775 -0.1348 -0.3413
  304SOL    HW2 1287   1.509   2.070   0.384 -0.0817  0.5387 -0.6173
  304SOL    HW3 1288   1.641   1.997   0.372 -0.8770 -1.1510  0.6254
  304SOL    MW4 1289   1.593   2.061   0.407 -0.2571 -0.1798 -0.2502
  305SOL     OW 1290   0.672   2.084   0.659  0.0474  0.4992 -0.1601
  305SOL    HW2 1291   0.663   2.165   0.709  1.2272  1.5620 -1.6383
  305SOL    HW3 1292   0.738   2.034   0.706 -0.1033  0.7372  0.3099
  305SOL    MW4 1293   0.679   2.088   0.672  0.1832  0.6709 -0.2931
  306SOL     OW 1294   1.061   3.063   0.319  0.5221 -0.3027 -0.1181
  306SOL    HW2 1295   1.072   2.969   0.335 -0.4501 -0.6700 -1.4719
  306SOL    HW3 1296   0.972   3.082   0.348  0.1187 -0.1776 -1.3846
  306SOL    MW4 1297   1.051   3.053   0.325  0.3406 -0.3345 -0.4638
  307SOL     OW 1298   1.102   2.197   0.810  0.2225  0.0008  0.1198
  307SOL    HW2 1299   1.170   2.259   0.784  0.0715  0.1689  0.1221
  307SOL    HW3 1300   1.098   2.204   0.905  1.6355 -1.5202  0.3064
  307SOL    MW4 1301   1.110   2.206   0.819  0.3891 -0.1776  0.1447
  308SOL     OW 1302   0.659   2.323   0.791 -0.1224 -0.4723 -0.2225
  308SOL    HW2 1303   0.656   2.321   0.887 -1.5304  1.1668 -0.1838
  308SOL    HW3 1304   0.748   2.350   0.770  0.3123 -1.2341  0.6139
  308SOL    MW4 1305   0.670   2.327   0.801 -0.2508 -0.3567 -0.1071
  309SOL     OW 1306   1.031   2.635   0.835  0.8114 -0.2048  0.0421
  309SOL    HW2 1307   0.994   2.670   0.916  2.5077  1.6340  0.0511
  309SOL    HW3 1308   1.005   2.698   0.768  0.4493 -1.0841 -0.6552
  309SOL    MW4 1309   1.023   2.648   0.837  0.9873 -0.0782 -0.0487
  310SOL     OW 1310   0.963   2.834   0.642  0.5545  0.3747 -0.0537
  310SOL    HW2 1311   0.872   2.857   0.623 -0.0400 -1.1990  0.8547
  310SOL    HW3 1312   1.000   2.811   0.557 -0.1304  0.2010 -0.3078
  310SOL    MW4 1313   0.956   2.834   0.629  0.3856  0.1442  0.0327
  311SOL     OW 1314   4.010   2.467   0.739  0.4529  0.0187 -0.2881
  311SOL    HW2 1315   3.948   2.404   0.777 -0.0945  0.6627 -0.1114
  311SOL    HW3 1316   3.983   2.475   0.648  0.1017  0.5000 -0.1462
  311SOL    MW4 1317   3.998   2.459   0.732  0.3343  0.1671 -0.2460
  312SOL     OW 1318   0.248   3.607   0.480 -0.6217  0.8804  0.5106
  312SOL    HW2 1319   0.331   3.565   0.459 -0.2892  1.9496 -0.4119
  312SOL    HW3 1320   0.238   3.596   0.575 -0.8413 -1.7315  0.2201
  312SOL    MW4 1321   0.258   3.600   0.490 -0.6068  0.6771  0.3505
  313SOL     OW 1322   0.919   3.490   0.839  0.5238  0.0236 -0.0444
  313SOL    HW2 1323   0.986   3.545   0.798 -0.7927  1.2590 -0.5846
  313SOL    HW3 1324   0.839   3.543   0.835 -0.5348 -1.5122  0.3902
  313SOL    MW4 1325   0.917   3.505   0.833  0.2104 -0.0160 -0.0583
  314SOL     OW 1326   1.118   3.701   0.720 -0.3567  0.7030  0.0508
  314SOL    HW2 1327   1.187   3.647   0.760 -1.2910 -0.3243  0.3060
  314SOL    HW3 1328   1.137   3.697   0.626  0.8260  1.6914  0.2367
  314SOL    MW4 1329   1.130   3.693   0.713 -0.3238  0.6976  0.1091
  315SOL     OW 1330   1.064   3.928   0.853 -0.3675 -0.2126  0.3319
  315SOL    HW2 1331   1.087   3.911   0.945  0.4964 -0.8750 -0.0011
  315SOL    HW3 1332   1.071   3.843   0.810  0.0311  0.2430 -0.5200
  315SOL    MW4 1333   1.068   3.915   0.860 -0.2010 -0.2398  0.1755
  316SOL     OW 1334   0.857   4.052   0.708 -0.3677 -0.3618 -0.0986
  316SOL    HW2 1335   0.866   4.025   0.617  0.4208  0.0771 -0.1551
  316SOL    HW3 1336   0.934   4.015   0.752  1.0089  2.1779 -0.2842
  316SOL    MW4 1337   0.869   4.044   0.702 -0.0821  0.0310 -0.1305
  317SOL     OW 1338   0.867   4.294   0.842 -0.0051 -0.3622  0.3917
  317SOL    HW2 1339   0.871   4.213   0.791 -0.0169 -0.1898  0.1145
  317SOL    HW3 1340   0.943   4.345   0.813 -2.0487  1.3614 -2.2305
  317SOL    MW4 1341   0.878   4.290   0.832 -0.2763 -0.1125  0.0092
  318SOL     OW 1342   1.481   4.541   0.500 -0.1070 -0.0783  0.1425
  318SOL    HW2 1343   1.416   4.600   0.460  0.3635  0.0740 -0.3989
  318SOL    HW3 1344   1.456   4.454   0.468 -0.8487 -0.1884  1.0043
  318SOL    MW4 1345   1.469   4.537   0.491 -0.1428 -0.0730  0.1848
  319SOL     OW 1346   1.611   0.027   0.887 -0.1283 -0.4514 -0.2498
  319SOL    HW2 1347   1.530   0.068   0.856  0.1181  0.5964  0.4542
  319SOL    HW3 1348   1.600   0.020   0.982  0.9819  0.5908 -0.0189
  319SOL    MW4 1349   1.599   0.032   0.896  0.0507 -0.1757 -0.1265
  320SOL     OW 1350   1.375   0.151   0.769  0.2548  0.6184  0.0829
  320SOL    HW2 1351   1.298   0.105   0.802  1.0123 -0.9405 -0.2893
  320SOL    HW3 1352   1.353   0.244   0.779 -1.3086  0.1934  0.8025
  320SOL    MW4 1353   1.362   0.157   0.775  0.1485  0.3566  0.1287
  321SOL     OW 1354   0.878   0.347   0.876  0.0532 -0.1129 -0.2109
  321SOL    HW2 1355   0.897   0.392   0.958 -1.5552  1.7482 -0.8018
  321SOL    HW3 1356   0.934   0.390   0.811 -0.2670 -0.0828 -0.4729
  321SOL    MW4 1357   0.888   0.359   0.878 -0.2012  0.1366 -0.3234
  322SOL     OW 1358   2.029   0.826   0.881  0.1928 -0.2060 -0.3073
  322SOL    HW2 1359   2.112   0.872   0.867  0.1377  0.3280  1.0808
  322SOL    HW3 1360   2.012   0.783   0.797  1.8424 -0.2719 -0.6420
  322SOL    MW4 1361   2.038   0.826   0.868  0.4032 -0.1442 -0.1684
  323SOL     OW 1362   4.274   4.609   0.442 -0.2545 -0.2594 -0.0445
  323SOL    HW2 1363   4.288   4.541   0.377 -0.5915 -0.5481  0.1855
  323SOL    HW3 1364   4.221   4.568   0.510  0.6904 -0.1673  0.7566
  323SOL    MW4 1365   4.269   4.595   0.442 -0.1740 -0.2847  0.0916
  324SOL     OW 1366   1.586   0.859   0.840  0.4217  0.4831  0.1081
  324SOL    HW2 1367   1.662   0.914   0.858 -0.0332  1.4847 -0.9955
  324SOL    HW3 1368   1.531   0.912   0.782 -0.1634 -1.0222 -0.7356
  324SOL    MW4 1369   1.589   0.873   0.835  0.2846  0.4167 -0.1489
  325SOL     OW 1370   0.900   0.860   0.886 -0.0685  0.1763  0.5820
  325SOL    HW2 1371   0.823   0.811   0.915  0.7428 -2.0572 -0.8953
  325SOL    HW3 1372   0.969   0.836   0.948  0.2441 -0.2619  0.0631
  325SOL    MW4 1373   0.899   0.851   0.898  0.0798 -0.1762  0.3185
  326SOL     OW 1374   1.117   1.691   0.534 -0.0942  0.1147  0.1173
  326SOL    HW2 1375   1.032   1.663   0.566  0.2499 -1.2362 -0.1374
  326SOL    HW3 1376   1.140   1.628   0.465  0.5263  1.2230 -0.7145
  326SOL    MW4 1377   1.109   1.679   0.529  0.0329  0.0829 -0.0260
  327SOL     OW 1378   2.159   0.593   0.315 -0.0894  0.2025  0.2889
  327SOL    HW2 1379   2.093   0.660   0.295  0.5115  0.4419 -0.9231
  327SOL    HW3 1380   2.200   0.574   0.231  0.7662 -0.6142  0.8846
  327SOL    MW4 1381   2.155   0.600   0.302  0.1028  0.1263  0.2075
  328SOL     OW 1382   1.875   1.733   0.695  0.4358  0.3026  0.4131
  328SOL    HW2 1383   1.912   1.765   0.613 -1.9226  0.6659 -0.5427
  328SOL    HW3 1384   1.853   1.813   0.743 -1.4804  0.1244 -0.1426
  328SOL    MW4 1385   1.877   1.748   0.690 -0.1283  0.3271  0.2136
  329SOL     OW 1386   1.596   2.039   0.699 -0.2172 -0.2137  0.1456
  329SOL    HW2 1387   1.589   2.058   0.605 -0.7376 -0.7866  0.0615
  329SOL    HW3 1388   1.514   1.994   0.720 -0.1927  0.1069  0.9233
  329SOL    MW4 1389   1.584   2.036   0.689 -0.2825 -0.2470  0.2371
  330SOL     OW 1390   2.234   1.723   0.809  0.5589 -0.0361 -0.0278
  330SOL    HW2 1391   2.312   1.670   0.821 -1.2293 -2.4610  1.1539
  330SOL    HW3 1392   2.168   1.683   0.865 -1.7613  1.5377 -1.5361
  330SOL    MW4 1393   2.236   1.711   0.818  0.0169 -0.1484 -0.0709
  331SOL     OW 1394   1.725   2.433   0.655  0.0123 -0.2506 -0.0174
  331SOL    HW2 1395   1.749   2.360   0.598  0.9824 -0.2407  0.3740
  331SOL    HW3 1396   1.656   2.479   0.606 -0.1656 -1.0639 -0.5397
  331SOL    MW4 1397   1.719   2.430   0.641  0.1167 -0.3567 -0.0347
  332SOL     OW 1398   2.109   2.315   0.694  0.5121  0.2557  0.1912
  332SOL    HW2 1399   2.072   2.403   0.694 -0.0934  0.0018  1.0510
  332SOL    HW3 1400   2.204   2.330   0.697  0.4995  0.8944 -1.6313
  332SOL    MW4 1401   2.117   2.329   0.694  0.4303  0.3064  0.0642
  333SOL     OW 1402   1.313   2.666   0.792 -0.0146  0.3468 -0.0746
  333SOL    HW2 1403   1.356   2.681   0.876 -0.9466 -0.0365  0.4816
  333SOL    HW3 1404   1.223   2.641   0.815 -0.5798  1.2568 -1.2046
  333SOL    MW4 1405   1.307   2.665   0.806 -0.2121  0.4163 -0.1503
  334SOL     OW 1406   1.479   2.978   0.582  0.0424  0.1732  0.0115
  334SOL    HW2 1407   1.431   3.020   0.653 -1.5915  1.1525 -1.6300
  334SOL    HW3 1408   1.421   2.908   0.552 -0.1164  0.9573 -1.5663
  334SOL    MW4 1409   1.465   2.974   0.587 -0.1941  0.4058 -0.4133
  335SOL     OW 1410   2.134   3.867   0.362  0.9522  0.3019  0.4065
  335SOL    HW2 1411   2.132   3.792   0.303 -1.4010 -0.0317  0.8478
  335SOL    HW3 1412   2.099   3.939   0.309 -0.4721  0.1692  1.1427
  335SOL    MW4 1413   2.129   3.867   0.347  0.4537  0.2401  0.5618
  336SOL     OW 1414   1.046   3.020   0.851  0.3341 -0.4205 -0.0405
  336SOL    HW2 1415   1.008   2.938   0.819 -0.3195 -0.0134 -0.3176
  336SOL    HW3 1416   0.989   3.088   0.816  0.0189  0.0823  1.4024
  336SOL    MW4 1417   1.034   3.018   0.842  0.2064 -0.3004  0.1134
  337SOL     OW 1418   2.052   2.862   0.352  0.2662  0.1946 -0.1970
  337SOL    HW2 1419   2.126   2.911   0.388  0.9181 -0.8585 -0.0710
  337SOL    HW3 1420   1.975   2.914   0.375  0.8980  0.8791  0.3994
  337SOL    MW4 1421   2.051   2.875   0.360  0.4354  0.1462 -0.1017
  338SOL     OW 1422   1.313   3.081   0.790  0.3380  0.3970 -0.5028
  338SOL    HW2 1423   1.229   3.039   0.806  0.9091 -0.8467 -0.7375
  338SOL    HW3 1424   1.341   3.112   0.876 -0.5425  1.1757 -0.4874
  338SOL    MW4 1425   1.306   3.080   0.803  0.2972  0.3357 -0.5317
  339SOL     OW 1426   1.080   2.777   0.398 -0.3475 -0.3181  0.2310
  339SOL    HW2 1427   1.056   2.685   0.387  0.0467 -0.5915  1.6180
  339SOL    HW3 1428   1.169   2.776   0.432  0.1565  0.6201 -1.0110
  339SOL    MW4 1429   1.088   2.765   0.401 -0.2289 -0.2306  0.2501
  340SOL     OW 1430   0.826   0.203   0.480  0.3198  0.0174 -0.1261
  340SOL    HW2 1431   0.767   0.140   0.438  0.6670 -0.2692 -0.1885
  340SOL    HW3 1432   0.836   0.171   0.569 -0.0026  0.3364  0.0252
  340SOL    MW4 1433   0.820   0.190   0.486  0.3231  0.0216 -0.1144
  341SOL     OW 1434   0.620   4.394   0.751  0.1341 -1.0694 -0.5312
  341SOL    HW2 1435   0.700   4.354   0.785  0.8322 -0.5042 -1.4689
  341SOL    HW3 1436   0.633   4.394   0.656 -0.6920 -0.3695 -0.6398
  341SOL    MW4 1437   0.633   4.389   0.743  0.1172 -0.9022 -0.6693
  342SOL     OW 1438   1.747   4.007   0.725 -0.1797  0.1313  0.2306
  342SOL    HW2 1439   1.664   3.969   0.751  0.2745 -0.3312  1.0305
  342SOL    HW3 1440   1.750   4.091   0.770  0.1864 -0.2553  0.9404
  342SOL    MW4 1441   1.737   4.013   0.734 -0.0714  0.0196  0.4297
  343SOL     OW 1442   1.107   4.413   0.754 -0.1029  0.1391 -0.0974
  343SOL    HW2 1443   1.183   4.376   0.798  0.2854  0.8584 -0.1679
  343SOL    HW3 1444   1.122   4.397   0.661  0.8880  2.0066 -0.2651
  343SOL    MW4 1445   1.119   4.406   0.747  0.0790  0.4807 -0.1289
  344SOL     OW 1446   2.055   4.654   0.905 -0.0628  0.1017  0.0530
  344SOL    HW2 1447   2.135   4.683   0.860  0.2333  0.2442  0.6584
  344SOL    HW3 1448   2.033   4.571   0.864  0.7589 -0.2498  0.3037
  344SOL    MW4 1449   2.063   4.647   0.894  0.0846  0.0744  0.1659
  345SOL     OW 1450   1.856   0.354   0.850  0.6292  0.0767  0.3105
  345SOL    HW2 1451   1.842   0.262   0.829 -1.6399  0.2722  0.8978
  345SOL    HW3 1452   1.925   0.382   0.790  0.9796 -1.8563 -0.2269
  345SOL    MW4 1453   1.864   0.345   0.839  0.3760 -0.1525  0.3171
  346SOL     OW 1454   1.672   0.713   0.610  0.7694  0.1441  0.2066
  346SOL    HW2 1455   1.655   0.624   0.639  0.1927 -0.3191 -1.4884
  346SOL    HW3 1456   1.653   0.768   0.686 -2.0431 -0.9012  0.3065
  346SOL    MW4 1457   1.667   0.709   0.624  0.3222 -0.0549 -0.0039
  347SOL     OW 1458   2.257   0.951   0.721  0.1982 -0.6024 -0.2698
  347SOL    HW2 1459   2.271   1.033   0.769 -1.8201 -1.3828  1.7357
  347SOL    HW3 1460   2.314   0.888   0.765 -1.8837 -1.3938  1.4005
  347SOL    MW4 1461   2.267   0.954   0.733 -0.3428 -0.8098  0.2151
  348SOL     OW 1462   1.688   0.681   0.334  0.4818  0.0032  0.3631
  348SOL    HW2 1463   1.622   0.747   0.311 -0.4026 -0.8462  0.4255
  348SOL    HW3 1464   1.702   0.694   0.428 -0.1458 -0.2815  0.5034
  348SOL    MW4 1465   1.681   0.691   0.344  0.2824 -0.1465  0.3898
  349SOL     OW 1466   0.880   1.147   0.854  0.5361  0.4173  0.3362
  349SOL    HW2 1467   0.789   1.159   0.827  0.7960  1.0359 -0.2742
  349SOL    HW3 1468   0.894   1.053   0.852 -0.2802  0.2791  1.0392
  349SOL    MW4 1469   0.870   1.136   0.850  0.4627  0.4807  0.3484
  350SOL     OW 1470   2.452   1.815   0.461  0.1623 -0.3099 -0.0605
  350SOL    HW2 1471   2.491   1.847   0.380  0.5152 -1.5264 -0.3703
  350SOL    HW3 1472   2.514   1.751   0.495 -0.0016  0.1526  1.1544
  350SOL    MW4 1473   2.465   1.811   0.455  0.1872 -0.4094  0.0589
  351SOL     OW 1474   1.627   0.416   0.412  0.1242 -0.3284  0.2928
  351SOL    HW2 1475   1.631   0.501   0.369  2.6810 -0.6785 -0.2446
  351SOL    HW3 1476   1.538   0.383   0.394  0.2657  0.6945 -2.4244
  351SOL    MW4 1477   1.616   0.423   0.404  0.4802 -0.2396 -0.1366
  352SOL     OW 1478   1.482   1.510   0.829 -0.3780 -0.8159  0.1374
  352SOL    HW2 1479   1.503   1.542   0.917  0.0737 -1.0379  0.1115
  352SOL    HW3 1480   1.411   1.566   0.800  0.4590  0.2097  0.0642
  352SOL    MW4 1481   1.475   1.521   0.837 -0.2080 -0.7099  0.1243
  353SOL     OW 1482   2.202   1.719   0.530 -0.1785  0.2116  0.3614
  353SOL    HW2 1483   2.279   1.760   0.491 -0.5283  1.4376  0.9579
  353SOL    HW3 1484   2.209   1.737   0.623 -0.5111 -0.8001  0.5898
  353SOL    MW4 1485   2.213   1.727   0.537 -0.2687  0.2398  0.4702
  354SOL     OW 1486   1.401   1.426   0.295  0.2950  0.0387 -0.6775
  354SOL    HW2 1487   1.403   1.473   0.211  0.9446 -1.2554 -1.3960
  354SOL    HW3 1488   1.463   1.475   0.350  0.7575  0.1941 -1.3268
  354SOL    MW4 1489   1.410   1.439   0.291  0.4417 -0.1116 -0.8580
  355SOL     OW 1490   1.559   2.292   0.814  0.1628  0.3977  0.5537
  355SOL    HW2 1491   1.569   2.205   0.776 -0.2571  0.6310 -0.1183
  355SOL    HW3 1492   1.615   2.348   0.760 -1.8877  1.0701 -0.9494
  355SOL    MW4 1493   1.567   2.288   0.802 -0.1631  0.5174  0.2667
  356SOL     OW 1494   2.350   2.676   0.831  0.9908 -0.5637  0.2926
  356SOL    HW2 1495   2.324   2.686   0.923  0.8534  1.6360  0.0329
  356SOL    HW3 1496   2.400   2.755   0.812 -0.7075 -0.0470 -2.1375
  356SOL    MW4 1497   2.353   2.687   0.841  0.7484 -0.2055 -0.0622
  357SOL     OW 1498   1.899   2.797   0.821 -0.3359 -0.2428  0.3035
  357SOL    HW2 1499   1.842   2.834   0.752 -0.6950 -0.2778  0.5781
  357SOL    HW3 1500   1.924   2.711   0.787  0.5200  0.2584 -0.3471
  357SOL    MW4 1501   1.895   2.790   0.807 -0.2705 -0.1812  0.2539
  358SOL     OW 1502   2.042   2.594   0.431 -0.3008 -0.4428 -0.4206
  358SOL    HW2 1503   2.048   2.683   0.397 -0.4899 -0.7021 -1.1487
  358SOL    HW3 1504   1.963   2.558   0.390 -0.7536 -0.6290  0.6071
  358SOL    MW4 1505   2.032   2.601   0.421 -0.3853 -0.5014 -0.3811
  359SOL     OW 1506   1.752   2.952   0.665 -0.1526 -0.0781  0.2113
  359SOL    HW2 1507   1.784   2.968   0.576  1.2455 -0.2388  0.6842
  359SOL    HW3 1508   1.656   2.949   0.655 -0.0787  1.1523 -1.0829
  359SOL    MW4 1509   1.743   2.954   0.652  0.0417  0.0632  0.1029
  360SOL     OW 1510   3.000   3.351   0.442 -0.4459  0.3625 -0.2393
  360SOL    HW2 1511   2.930   3.315   0.496  0.1255 -0.2589  0.0903
  360SOL    HW3 1512   2.985   3.446   0.444 -0.6939  0.3075  0.6475
  360SOL    MW4 1513   2.989   3.359   0.450 -0.4032  0.2732 -0.0788
  361SOL     OW 1514   1.658   3.352   0.910 -0.0074 -0.3059 -0.4684
  361SOL    HW2 1515   1.617   3.272   0.944 -1.9125  0.5318 -0.7595
  361SOL    HW3 1516   1.711   3.384   0.983 -0.0623 -1.2587  0.0026
  361SOL    MW4 1517   1.660   3.346   0.924 -0.2660 -0.3214 -0.4447
  362SOL     OW 1518   2.541   2.911   0.472  0.0169  0.1503 -0.0205
  362SOL    HW2 1519   2.616   2.953   0.429 -0.9054  0.5368 -1.2837
  362SOL    HW3 1520   2.541   2.822   0.438  1.0619 -0.4478  1.4914
  362SOL    MW4 1521   2.551   2.905   0.462  0.0329  0.1223  0.0123
  363SOL     OW 1522   1.857   4.037   0.240 -0.1948  0.0945  0.3260
  363SOL    HW2 1523   1.798   4.020   0.167 -0.6525  0.6552  0.5585
  363SOL    HW3 1524   1.802   4.025   0.318  0.1685 -0.0421  0.5622
  363SOL    MW4 1525   1.842   4.033   0.241 -0.2073  0.1502  0.3878
  364SOL     OW 1526   1.758   4.260   0.844  0.2272  0.5745 -0.1418
  364SOL    HW2 1527   1.683   4.319   0.835  0.3484  0.7522 -0.0018
  364SOL    HW3 1528   1.770   4.250   0.939 -0.1550 -0.1426 -0.1626
  364SOL    MW4 1529   1.750   4.266   0.855  0.1929  0.5031 -0.1261
  365SOL     OW 1530   0.412   0.379   1.130 -0.0176 -0.0265 -0.4900
  365SOL    HW2 1531   0.428   0.289   1.158  1.4683  0.3632 -0.0078
  365SOL    HW3 1532   0.334   0.406   1.178  1.2403 -0.0947  1.6417
  365SOL    MW4 1533   0.404   0.371   1.140  0.3444  0.0159 -0.1452
  366SOL     OW 1534   2.715   3.744   0.337  0.4743 -0.2359  0.1582
  366SOL    HW2 1535   2.652   3.774   0.402  1.2891 -1.3238  1.4759
  366SOL    HW3 1536   2.672   3.670   0.294  1.2265 -1.6306  1.7584
  366SOL    MW4 1537   2.701   3.738   0.340  0.6809 -0.5634  0.5431
  367SOL     OW 1538   1.657   1.564   0.630  0.5915  0.4227 -0.0423
  367SOL    HW2 1539   1.594   1.547   0.700  0.5584  0.0407 -0.1611
  367SOL    HW3 1540   1.715   1.631   0.665  1.4467 -0.7890  0.8983
  367SOL    MW4 1541   1.656   1.570   0.644  0.6999  0.2126  0.0662
  368SOL     OW 1542   2.509   0.004   0.828  0.7779 -0.6948  0.0264
  368SOL    HW2 1543   2.587   0.057   0.813 -0.3796  1.3332  0.9425
  368SOL    HW3 1544   2.502  -0.003   0.924 -0.6112 -0.1393 -0.0174
  368SOL    MW4 1545   2.518   0.010   0.839  0.4418 -0.3539  0.1414
  369SOL     OW 1546   2.481   0.497   0.703 -0.2371 -0.1954 -0.6596
  369SOL    HW2 1547   2.561   0.454   0.734 -0.1488  0.2461 -0.2807
  369SOL    HW3 1548   2.412   0.432   0.717 -0.1551 -0.0995  0.2042
  369SOL    MW4 1549   2.483   0.483   0.709 -0.2146 -0.1245 -0.4956
  370SOL     OW 1550   1.985   4.476   0.501 -0.1745  0.0932 -0.0459
  370SOL    HW2 1551   1.907   4.525   0.475  0.8162  1.6273 -0.1787
  370SOL    HW3 1552   1.981   4.396   0.449 -1.3114  0.4709 -0.5462
  370SOL    MW4 1553   1.974   4.472   0.490 -0.1937  0.3452 -0.1294
  371SOL     OW 1554   2.453   0.757   0.834 -0.1862 -0.0555  0.2572
  371SOL    HW2 1555   2.510   0.813   0.782 -0.9989 -0.0393 -0.6141
  371SOL    HW3 1556   2.455   0.672   0.790  0.9383 -0.7001  1.5005
  371SOL    MW4 1557   2.461   0.753   0.822 -0.1452 -0.1385  0.3062
  372SOL     OW 1558   2.697   1.167   0.819  0.3952 -0.6079  0.6551
  372SOL    HW2 1559   2.681   1.085   0.773  0.7228  0.0384 -0.6314
  372SOL    HW3 1560   2.614   1.215   0.813  0.2724 -0.7468  1.2116
  372SOL    MW4 1561   2.684   1.163   0.812  0.4222 -0.5410  0.5588
  373SOL     OW 1562   2.261   4.523   0.517  0.1007  0.1530 -0.1209
  373SOL    HW2 1563   2.172   4.521   0.481 -0.5734 -0.5652  1.4986
  373SOL    HW3 1564   2.317   4.499   0.444 -1.1390 -0.4520 -0.9009
  373SOL    MW4 1565   2.256   4.520   0.503 -0.1516 -0.0219 -0.0101
  374SOL     OW 1566   2.281   1.190   0.871 -0.3599 -0.4561  0.1255
  374SOL    HW2 1567   2.261   1.189   0.964 -0.7679 -0.2723  0.0415
  374SOL    HW3 1568   2.208   1.238   0.831  0.4171  0.5189 -0.1477
  374SOL    MW4 1569   2.269   1.196   0.878 -0.3114 -0.3031  0.0784
  375SOL     OW 1570   2.256   1.027   0.439  0.1439 -0.0165 -0.0280
  375SOL    HW2 1571   2.241   1.009   0.532 -0.6541 -1.5685 -0.4288
  375SOL    HW3 1572   2.307   0.952   0.408 -1.1101 -0.4246 -1.2130
  375SOL    MW4 1573   2.260   1.014   0.447 -0.1268 -0.2751 -0.2373
  376SOL     OW 1574   2.309   2.452   0.408 -0.1151  0.0619  0.1574
  376SOL    HW2 1575   2.225   2.497   0.400  0.7431  1.9131  1.3054
  376SOL    HW3 1576   2.327   2.450   0.502  1.2848 -0.0140 -0.0982
  376SOL    MW4 1577   2.300   2.458   0.419  0.1829  0.2959  0.2752
  377SOL     OW 1578   2.003   1.559   0.865 -0.6089 -0.1264 -0.4166
  377SOL    HW2 1579   1.955   1.609   0.798  1.7731  0.8497 -1.4299
  377SOL    HW3 1580   2.029   1.479   0.821  0.2899  0.1691 -0.4234
  377SOL    MW4 1581   2.000   1.555   0.850 -0.1758  0.0414 -0.5512
  378SOL     OW 1582   1.954   0.714   0.630 -0.2689  0.1848  0.0963
  378SOL    HW2 1583   1.980   0.731   0.540 -0.4234 -0.2462 -0.0324
  378SOL    HW3 1584   1.859   0.719   0.630 -0.3420 -1.0056 -0.0239
  378SOL    MW4 1585   1.945   0.717   0.618 -0.2989 -0.0291  0.0635
  379SOL     OW 1586   2.924   2.824   0.730 -0.5328  0.0725  0.4565
  379SOL    HW2 1587   2.844   2.773   0.748 -0.2720 -1.0799 -1.4084
  379SOL    HW3 1588   2.992   2.782   0.783 -0.4928 -1.0624 -0.4560
  379SOL    MW4 1589   2.922   2.812   0.739 -0.4930 -0.2294  0.0900
  380SOL     OW 1590   2.399   2.402   0.668  0.1235  0.4299  0.2659
  380SOL    HW2 1591   2.464   2.349   0.713  0.4542  1.1056  0.5924
  380SOL    HW3 1592   2.403   2.487   0.712 -0.0970  0.8552 -0.5246
  380SOL    MW4 1593   2.408   2.406   0.679  0.1380  0.5751  0.2046
  381SOL     OW 1594   2.143   2.880   0.730  0.1489  0.1669 -0.4907
  381SOL    HW2 1595   2.206   2.820   0.770 -0.0688  0.2889  0.0383
  381SOL    HW3 1596   2.059   2.856   0.768 -0.0062  0.5216 -0.6021
  381SOL    MW4 1597   2.140   2.869   0.741  0.0997  0.2298 -0.4356
  382SOL     OW 1598   3.110   2.472   0.722  0.3971  0.4364  0.0134
  382SOL    HW2 1599   3.053   2.423   0.780 -0.6334  0.4632 -0.9541
  382SOL    HW3 1600   3.053   2.499   0.650  1.8582 -0.4087 -1.4874
  382SOL    MW4 1601   3.095   2.469   0.720  0.4539  0.3283 -0.3123
  383SOL     OW 1602   3.152   2.149   0.346  0.1269 -0.1938  0.4518
  383SOL    HW2 1603   3.201   2.098   0.282  1.2120  0.4072  0.7967
  383SOL    HW3 1604   3.216   2.169   0.415 -0.9222 -0.5144  1.5495
  383SOL    MW4 1605   3.167   2.145   0.347  0.1316 -0.1564  0.6421
  384SOL     OW 1606   2.211   3.479   0.771  0.0709  0.7569 -0.2632
  384SOL    HW2 1607   2.217   3.398   0.720 -0.7836  0.6286 -0.1642
  384SOL    HW3 1608   2.280   3.535   0.735  0.3934  0.1462 -0.6139
  384SOL    MW4 1609   2.221   3.476   0.760  0.0007  0.6592 -0.2964
  385SOL     OW 1610   2.427   3.163   0.834 -0.2747 -0.5567 -0.5601
  385SOL    HW2 1611   2.474   3.138   0.914 -0.9053  0.4551  0.1429
  385SOL    HW3 1612   2.335   3.167   0.861 -0.2311  2.2361 -0.6913
  385SOL    MW4 1613   2.421   3.160   0.848 -0.3524 -0.0546 -0.4847
  386SOL     OW 1614   2.575   3.351   0.669 -0.8386 -0.3061  0.7599
  386SOL    HW2 1615   2.600   3.424   0.726 -1.9530 -0.2145  1.1310
  386SOL    HW3 1616   2.527   3.291   0.727 -1.0900 -0.6951  0.1496
  386SOL    MW4 1617   2.572   3.352   0.684 -1.0190 -0.3450  0.7283
  387SOL     OW 1618   2.745   4.247   0.853 -0.2759  0.5016 -0.2398
  387SOL    HW2 1619   2.826   4.292   0.830  0.9560 -1.6138 -0.1052
  387SOL    HW3 1620   2.730   4.271   0.945 -0.0917  1.2768 -0.4016
  387SOL    MW4 1621   2.753   4.256   0.862 -0.0889  0.3247 -0.2434
  388SOL     OW 1622   1.607   3.574   0.745 -0.4575 -0.1359  0.5390
  388SOL    HW2 1623   1.674   3.557   0.679 -0.6749  0.2529  0.2185
  388SOL    HW3 1624   1.621   3.506   0.811  0.9740  0.6406  1.0354
  388SOL    MW4 1625   1.618   3.563   0.745 -0.2972  0.0176  0.5622
  389SOL     OW 1626   2.351   0.261   0.522  0.1486  0.4521  0.3460
  389SOL    HW2 1627   2.262   0.276   0.489 -0.1831  0.1886  1.1339
  389SOL    HW3 1628   2.342   0.190   0.585  1.1233 -0.4449 -0.5050
  389SOL    MW4 1629   2.338   0.254   0.526  0.2334  0.2990  0.3377
  390SOL     OW 1630   3.498   3.883   0.413  0.1081  0.1796  0.1514
  390SOL    HW2 1631   3.562   3.824   0.453  0.1638  0.3442  0.3067
  390SOL    HW3 1632   3.467   3.836   0.336  1.6943  0.8104 -0.8995
  390SOL    MW4 1633   3.503   3.869   0.408  0.3250  0.2844  0.0333
  391SOL     OW 1634   2.915   4.647   0.871  0.2782  0.2475  0.2588
  391SOL    HW2 1635   2.922   4.565   0.822  0.4948  0.6246 -0.3486
  391SOL    HW3 1636   2.844   4.695   0.828  0.0740  0.3282  0.6859
  391SOL    MW4 1637   2.907   4.642   0.859  0.2797  0.3080  0.2350
  392SOL     OW 1638   2.319   4.256   0.642  0.1516  0.3464  0.0176
  392SOL    HW2 1639   2.274   4.329   0.600 -0.0140  0.2634  0.0500
  392SOL    HW3 1640   2.395   4.295   0.684 -0.2019  0.5757  0.4509
  392SOL    MW4 1641   2.323   4.270   0.642  0.0832  0.3657  0.0790
  393SOL     OW 1642   2.715   0.392   0.788 -0.3949 -0.4029 -0.2245
  393SOL    HW2 1643   2.687   0.399   0.879 -0.5750  0.1938 -0.3191
  393SOL    HW3 1644   2.799   0.437   0.785  0.0173 -1.1697 -0.1794
  393SOL    MW4 1645   2.722   0.399   0.800 -0.3643 -0.4253 -0.2311
  394SOL     OW 1646   2.961   0.517   0.765 -0.0924  0.1647 -0.5141
  394SOL    HW2 1647   3.005   0.534   0.682  0.0073 -0.4572 -0.5907
  394SOL    HW3 1648   3.026   0.469   0.817 -1.0830 -1.8652 -1.0856
  394SOL    MW4 1649   2.975   0.513   0.761 -0.2098 -0.1851 -0.5996
  395SOL     OW 1650   2.867   0.766   0.818  0.0745  0.0846 -0.3625
  395SOL    HW2 1651   2.888   0.760   0.911 -0.7615 -1.2620 -0.2442
  395SOL    HW3 1652   2.894   0.682   0.782 -0.6077  0.1826 -1.1197
  395SOL    MW4 1653   2.873   0.754   0.825 -0.1259 -0.0801 -0.4468
  396SOL     OW 1654   3.129   0.954   0.192  0.3341 -0.0466 -0.2965
  396SOL    HW2 1655   3.093   0.994   0.113 -0.1601 -2.1344 -1.1716
  396SOL    HW3 1656   3.061   0.965   0.258 -0.0976 -0.0853 -0.7340
  396SOL    MW4 1657   3.115   0.961   0.190  0.2120 -0.3272 -0.4697
  397SOL     OW 1658   2.942   1.001   0.417  0.3504  0.1858 -0.4014
  397SOL    HW2 1659   2.978   0.988   0.505 -1.3704 -0.7481  0.1702
  397SOL    HW3 1660   2.932   1.096   0.410 -0.2005  0.2141  0.6887
  397SOL    MW4 1661   2.945   1.012   0.428  0.0508  0.0663 -0.1822
  398SOL     OW 1662   2.474   1.605   0.884 -0.1050 -0.0331 -0.0751
  398SOL    HW2 1663   2.557   1.653   0.876 -0.5477  0.7118 -0.1805
  398SOL    HW3 1664   2.487   1.526   0.830  0.6801 -0.1189  0.2336
  398SOL    MW4 1665   2.487   1.601   0.876 -0.0601  0.0539 -0.0483
  399SOL     OW 1666   2.483   2.167   0.856 -0.1144  0.0261  0.0318
  399SOL    HW2 1667   2.400   2.121   0.865 -0.0933  0.0989  0.6038
  399SOL    HW3 1668   2.490   2.220   0.935  1.3937 -1.4325  0.8919
  399SOL    MW4 1669   2.473   2.168   0.867  0.0873 -0.1569  0.2207
  400SOL     OW 1670   2.915   1.582   0.874  0.1090  0.4896 -0.2492
  400SOL    HW2 1671   2.916   1.506   0.816 -0.6995  1.3069 -1.3524
  400SOL    HW3 1672   2.917   1.545   0.962 -1.5415 -0.8665 -0.7480
  400SOL    MW4 1673   2.915   1.567   0.878 -0.2155  0.4184 -0.4605
  401SOL     OW 1674   2.929   2.079   0.766 -0.2689  0.1786 -0.0182
  401SOL    HW2 1675   2.937   2.077   0.671  0.1170  1.5789 -0.0279
  401SOL    HW3 1676   2.841   2.045   0.783 -0.2028 -0.4212 -0.8511
  401SOL    MW4 1677   2.919   2.074   0.756 -0.2093  0.2840 -0.1294
  402SOL     OW 1678   2.355   3.684   0.597  0.0664 -0.1585  0.5939
  402SOL    HW2 1679   2.435   3.737   0.598 -0.0537  0.0211  1.5854
  402SOL    HW3 1680   2.376   3.608   0.543  0.7310  0.1476  0.4217
  402SOL    MW4 1681   2.368   3.681   0.590  0.1383 -0.0947  0.7020
  403SOL     OW 1682   3.164   1.950   0.849 -0.3347  0.3412 -0.1071
  403SOL    HW2 1683   3.162   1.861   0.814 -2.3164  0.2551  0.1752
  403SOL    HW3 1684   3.089   1.994   0.809  1.8279  2.5582 -1.8878
  403SOL    MW4 1685   3.154   1.944   0.839 -0.3109  0.6224 -0.3048
  404SOL     OW 1686   3.229   0.776   0.572 -0.4445 -0.6552 -0.2972
  404SOL    HW2 1687   3.267   0.824   0.499 -1.9430  0.0475 -0.6372
  404SOL    HW3 1688   3.187   0.700   0.532 -1.7524  0.0326 -0.2272
  404SOL    MW4 1689   3.229   0.772   0.557 -0.8147 -0.4717 -0.3328
  405SOL     OW 1690   2.796   3.220   0.596 -0.4942 -0.2221  0.0922
  405SOL    HW2 1691   2.817   3.187   0.683 -0.0426 -0.3957 -0.0791
  405SOL    HW3 1692   2.715   3.270   0.607 -0.2075  0.1112  0.6849
  405SOL    MW4 1693   2.788   3.222   0.609 -0.3970 -0.2012  0.1478
  406SOL     OW 1694   1.843   3.033   0.419  0.4490 -0.3411  0.1504
  406SOL    HW2 1695   1.766   3.058   0.367  0.0092 -1.2194  0.3649
  406SOL    HW3 1696   1.880   3.116   0.448 -0.1674  0.1078 -0.3210
  406SOL    MW4 1697   1.838   3.047   0.416  0.3096 -0.3977  0.1165
  407SOL     OW 1698   2.807   3.316   0.268  0.1843 -0.4065 -0.3239
  407SOL    HW2 1699   2.882   3.325   0.327 -0.1264 -1.4092  0.2333
  407SOL    HW3 1700   2.783   3.224   0.273  0.8248 -0.7619 -2.8672
  407SOL    MW4 1701   2.813   3.305   0.276  0.2277 -0.5858 -0.5859
  408SOL     OW 1702   2.888   3.602   0.749 -0.2737  0.0790 -0.4162
  408SOL    HW2 1703   2.898   3.693   0.777 -0.6315  0.4373 -1.4329
  408SOL    HW3 1704   2.898   3.605   0.654 -1.4577 -0.7861 -0.5747
  408SOL    MW4 1705   2.891   3.614   0.740 -0.4771  0.0122 -0.5713
  409SOL     OW 1706   2.924   3.093   0.857  0.0031 -0.2765  0.0769
  409SOL    HW2 1707   2.915   3.003   0.825 -1.9353  0.1030 -0.5309
  409SOL    HW3 1708   3.010   3.121   0.826 -0.3665 -1.1322 -1.7861
  409SOL    MW4 1709   2.934   3.085   0.848 -0.3016 -0.3393 -0.2491
  410SOL     OW 1710   3.136   4.000   0.775  0.0639  0.0991 -0.5146
  410SOL    HW2 1711   3.206   3.963   0.828 -0.6886 -1.9797 -0.9329
  410SOL    HW3 1712   3.177   4.021   0.691  0.2597 -0.7593 -0.6320
  410SOL    MW4 1713   3.150   3.998   0.771 -0.0095 -0.2882 -0.5853
  411SOL     OW 1714   2.544   4.396   0.712  0.0518  0.0915  0.1768
  411SOL    HW2 1715   2.609   4.356   0.770  0.8784  1.5260  0.2407
  411SOL    HW3 1716   2.553   4.490   0.726 -0.9033  0.3771 -1.0413
  411SOL    MW4 1717   2.554   4.403   0.722  0.0348  0.3181  0.0245
  412SOL     OW 1718   1.961   0.773   0.339 -0.3094  0.0536 -0.3068
  412SOL    HW2 1719   1.959   0.866   0.363 -0.1739  0.2852 -1.1974
  412SOL    HW3 1720   1.869   0.746   0.338 -0.3444  0.1570  0.0205
  412SOL    MW4 1721   1.949   0.782   0.342 -0.2961  0.0978 -0.3811
  413SOL     OW 1722   1.813   3.538   0.551 -0.1175 -0.6629 -0.1511
  413SOL    HW2 1723   1.732   3.508   0.511 -1.1093  0.1813  1.1897
  413SOL    HW3 1724   1.870   3.461   0.549 -0.9719 -1.2926 -1.0100
  413SOL    MW4 1725   1.810   3.524   0.546 -0.3611 -0.6342 -0.0876
  414SOL     OW 1726   2.941   4.414   0.730 -0.1881 -0.5163  0.2236
  414SOL    HW2 1727   3.018   4.375   0.771  0.7613 -0.0044 -1.0226
  414SOL    HW3 1728   2.971   4.441   0.643 -0.8655  2.6808  0.8937
  414SOL    MW4 1729   2.955   4.413   0.724 -0.1521 -0.0277  0.1476
  415SOL     OW 1730   3.348   4.592   0.910  0.4255  0.0853  0.1224
  415SOL    HW2 1731   3.358   4.614   1.002  0.2319 -0.3214  0.2418
  415SOL    HW3 1732   3.277   4.649   0.879  0.5367  0.2694  0.2062
  415SOL    MW4 1733   3.340   4.602   0.918  0.4144  0.0563  0.1493
  416SOL     OW 1734   3.152   0.097   0.813  0.0175  0.0699 -0.2407
  416SOL    HW2 1735   3.153   0.188   0.842  0.4039 -1.0318  3.4715
  416SOL    HW3 1736   3.062   0.069   0.825  0.2732 -0.5306  0.2686
  416SOL    MW4 1737   3.140   0.105   0.818  0.1020 -0.1547  0.3163
  417SOL     OW 1738   3.153   0.367   0.908  0.2026  0.0734  0.0310
  417SOL    HW2 1739   3.154   0.385   1.002 -0.0776  2.7983 -0.4550
  417SOL    HW3 1740   3.236   0.402   0.875  0.2196 -0.6895 -0.7566
  417SOL    MW4 1741   3.164   0.374   0.916  0.1678  0.3322 -0.1370
  418SOL     OW 1742   0.192   4.371   0.492  0.2750 -0.2875 -0.0426
  418SOL    HW2 1743   0.191   4.373   0.588  1.2309 -0.6431 -0.0201
  418SOL    HW3 1744   0.134   4.298   0.469  0.2501 -0.3679  0.2690
  418SOL    MW4 1745   0.184   4.362   0.501  0.3978 -0.3452  0.0014
  419SOL     OW 1746   3.383   0.737   0.794 -0.0151 -0.2170  0.1480
  419SOL    HW2 1747   3.441   0.811   0.781  0.7453 -1.0802 -1.6196
  419SOL    HW3 1748   3.325   0.738   0.717  0.8861 -2.2065 -0.6150
  419SOL    MW4 1749   3.383   0.747   0.782  0.2041 -0.5934 -0.1859
  420SOL     OW 1750   2.366   1.299   0.455 -0.1269  0.4003  0.2160
  420SOL    HW2 1751   2.459   1.318   0.447 -0.2269  1.0807  0.6495
  420SOL    HW3 1752   2.361   1.203   0.457  0.5096  0.3527 -0.3831
  420SOL    MW4 1753   2.377   1.289   0.454 -0.0563  0.4839  0.1941
  421SOL     OW 1754   2.915   1.325   0.736 -0.1771  0.2905  0.4232
  421SOL    HW2 1755   2.833   1.289   0.769 -0.5435 -0.4257 -1.2058
  421SOL    HW3 1756   2.982   1.263   0.764 -0.3055  0.3958  0.9660
  421SOL    MW4 1757   2.913   1.312   0.744 -0.2427  0.2098  0.2798
  422SOL     OW 1758   3.538   1.174   0.858  0.8383 -0.3217 -0.4542
  422SOL    HW2 1759   3.560   1.143   0.946  1.1791  2.0122  0.3208
  422SOL    HW3 1760   3.618   1.216   0.827  0.0873  0.6696 -1.0570
  422SOL    MW4 1761   3.552   1.175   0.866  0.7844  0.1171 -0.4315
  423SOL     OW 1762   3.146   2.431   0.332  0.0292  0.2402  0.4186
  423SOL    HW2 1763   3.122   2.339   0.325  1.7114 -0.1016 -1.3056
  423SOL    HW3 1764   3.071   2.472   0.375 -1.4666 -1.6172 -0.3230
  423SOL    MW4 1765   3.133   2.424   0.337  0.0534 -0.0501  0.0932
  424SOL     OW 1766   0.335   1.846   0.858  0.1148 -0.2426 -0.1808
  424SOL    HW2 1767   0.300   1.935   0.868 -0.4540 -0.6009  1.1223
  424SOL    HW3 1768   0.407   1.842   0.921 -0.3892 -0.9743  0.3530
  424SOL    MW4 1769   0.340   1.858   0.868 -0.0267 -0.3865  0.0616
  425SOL     OW 1770   3.638   1.899   0.848  0.0690  0.0228  0.0187
  425SOL    HW2 1771   3.556   1.949   0.839  0.0501  0.0136  0.1392
  425SOL    HW3 1772   3.618   1.813   0.810  0.4727  0.5096 -1.3201
  425SOL    MW4 1773   3.624   1.894   0.842  0.1197  0.0857 -0.1420
  426SOL     OW 1774   3.373   2.489   0.466  0.5482  0.5183 -0.2506
  426SOL    HW2 1775   3.299   2.473   0.408  0.9560 -0.7702 -0.4239
  426SOL    HW3 1776   3.368   2.583   0.486 -0.6605  0.5992 -0.8887
  426SOL    MW4 1777   3.362   2.499   0.461  0.4427  0.3588 -0.3576
  427SOL     OW 1778   4.474   1.956   0.853 -0.0724 -0.4892  0.0620
  427SOL    HW2 1779   4.559   2.000   0.845  0.1245 -0.5803  1.5671
  427SOL    HW3 1780   4.487   1.871   0.812  1.2075 -1.3438  2.1447
  427SOL    MW4 1781   4.487   1.951   0.847  0.1225 -0.6139  0.5353
  428SOL     OW 1782   3.407   2.063   0.784  0.2958  0.3737  0.1743
  428SOL    HW2 1783   3.416   2.142   0.837  1.9274 -0.8178  1.7452
  428SOL    HW3 1784   3.320   2.029   0.805  0.2428  0.8541  0.7386
  428SOL    MW4 1785   3.397   2.069   0.793  0.5040  0.2799  0.4560
  429SOL     OW 1786   2.472   2.075   0.571 -0.2138 -0.6541 -0.1027
  429SOL    HW2 1787   2.459   2.092   0.665 -1.7276  0.7462 -0.5436
  429SOL    HW3 1788   2.450   1.982   0.561  0.4641 -0.9532  1.0064
  429SOL    MW4 1789   2.467   2.065   0.582 -0.3240 -0.5088 -0.0145
  430SOL     OW 1790   3.375   2.829   0.794  0.4870  0.0069  0.2584
  430SOL    HW2 1791   3.460   2.792   0.818  0.3736 -0.4638 -0.0742
  430SOL    HW3 1792   3.380   2.920   0.823  1.3396  0.1517 -0.3309
  430SOL    MW4 1793   3.387   2.836   0.801  0.5846 -0.0362  0.1367
  431SOL     OW 1794   3.148   3.211   0.736 -0.0714  0.0571  0.0809
  431SOL    HW2 1795   3.170   3.224   0.644 -1.2524  0.8213 -0.1166
  431SOL    HW3 1796   3.123   3.298   0.767 -1.1030 -0.4556  0.7277
  431SOL    MW4 1797   3.147   3.224   0.728 -0.3636  0.0906  0.1402
  432SOL     OW 1798   3.108   3.472   0.877 -0.1318 -0.3128  0.1999
  432SOL    HW2 1799   3.034   3.516   0.835 -0.1139 -0.2562  0.2278
  432SOL    HW3 1800   3.179   3.535   0.872 -0.5535  0.3052  1.7117
  432SOL    MW4 1801   3.107   3.486   0.871 -0.1850 -0.2239  0.4030
  433SOL     OW 1802   2.671   3.981   0.775 -0.4067  0.1862 -0.0510
  433SOL    HW2 1803   2.681   4.075   0.792 -0.8059 -0.0077  1.2875
  433SOL    HW3 1804   2.757   3.944   0.796 -1.0308 -0.1201  2.1335
  433SOL    MW4 1805   2.684   3.988   0.780 -0.5417  0.1204  0.4138
  434SOL     OW 1806   3.356   3.625   0.788 -0.1421 -0.5421 -0.2082
  434SOL    HW2 1807   3.361   3.720   0.793  0.9885 -0.5742 -0.5378
  434SOL    HW3 1808   3.336   3.607   0.696  0.9520 -0.6596 -0.4282
  434SOL    MW4 1809   3.354   3.635   0.776  0.1514 -0.5620 -0.2807
  435SOL     OW 1810   3.370   3.893   0.901  0.3039  0.2855  0.4528
  435SOL    HW2 1811   3.383   3.876   0.994  0.8097  2.0570  0.7252
  435SOL    HW3 1812   3.451   3.936   0.873  0.6936 -1.4440 -1.1179
  435SOL    MW4 1813   3.382   3.897   0.910  0.4220  0.2909  0.2815
  436SOL     OW 1814   2.917   3.855   0.822 -0.3177 -0.2357  0.1469
  436SOL    HW2 1815   2.998   3.895   0.792  1.2473 -3.1903  0.2079
  436SOL    HW3 1816   2.923   3.856   0.918 -0.3305 -0.5124  0.1504
  436SOL    MW4 1817   2.928   3.860   0.831 -0.1128 -0.6621  0.1555
  437SOL     OW 1818   3.133   4.266   0.874  0.2466  0.6706 -0.3061
  437SOL    HW2 1819   3.224   4.292   0.856  0.7881  0.9910  2.6029
  437SOL    HW3 1820   3.125   4.179   0.835  2.0962  0.2711  0.1502
  437SOL    MW4 1821   3.144   4.258   0.866  0.5622  0.6609  0.1379
  438SOL     OW 1822   3.373   4.337   0.783 -0.0061 -0.1262  0.3978
  438SOL    HW2 1823   3.362   4.425   0.819 -0.7867 -0.3909  0.8098
  438SOL    HW3 1824   3.407   4.351   0.695 -0.1917  0.5854  0.4359
  438SOL    MW4 1825   3.376   4.351   0.776 -0.1338 -0.0677  0.4572
  439SOL     OW 1826   3.628   0.913   0.445  0.3272 -0.1185 -0.3447
  439SOL    HW2 1827   3.544   0.923   0.402  0.2657  2.1122  0.2410
  439SOL    HW3 1828   3.608   0.911   0.539  0.9420  0.7050 -0.1895
  439SOL    MW4 1829   3.615   0.914   0.452  0.4003  0.2844 -0.2470
  440SOL     OW 1830   3.585   0.066   0.845  0.3608  0.6616  0.4040
  440SOL    HW2 1831   3.523   0.007   0.887  1.0475 -0.6234 -0.3512
  440SOL    HW3 1832   3.547   0.084   0.759 -0.4448  2.3213  1.0739
  440SOL    MW4 1833   3.572   0.061   0.839  0.3452  0.7111  0.3927
  441SOL     OW 1834   3.391   0.456   0.819  0.4391  0.6954 -0.1610
  441SOL    HW2 1835   3.398   0.551   0.829  0.5033  0.6863 -0.1203
  441SOL    HW3 1836   3.465   0.421   0.868  0.0864  0.5983  0.3060
  441SOL    MW4 1837   3.401   0.464   0.826  0.4008  0.6814 -0.0940
  442SOL     OW 1838   3.617   0.321   0.956 -0.0587 -0.3136 -0.4926
  442SOL    HW2 1839   3.627   0.313   1.050  2.4828  1.0421 -0.6000
  442SOL    HW3 1840   3.576   0.239   0.929 -1.4535 -0.4408  1.8299
  442SOL    MW4 1841   3.613   0.309   0.965  0.0927 -0.1516 -0.2004
  443SOL     OW 1842   3.794   0.716   1.104  0.5307  0.0970 -0.2002
  443SOL    HW2 1843   3.865   0.767   1.144 -0.6124 -0.3651  2.5668
  443SOL    HW3 1844   3.714   0.750   1.145 -0.6970 -0.6623 -1.8841
  443SOL    MW4 1845   3.793   0.727   1.115  0.2179 -0.0641 -0.0575
  444SOL     OW 1846   4.323   0.953   0.538 -0.1743 -0.0548 -0.2482
  444SOL    HW2 1847   4.227   0.952   0.539 -0.1713 -0.8814  1.4121
  444SOL    HW3 1848   4.348   0.868   0.501 -0.0855 -0.0746 -0.1445
  444SOL    MW4 1849   4.314   0.941   0.533 -0.1621 -0.1664 -0.0154
  445SOL     OW 1850   4.030   0.986   0.521 -0.5541  0.3349 -0.5239
  445SOL    HW2 1851   3.989   0.915   0.472 -2.8617  1.6456 -0.5823
  445SOL    HW3 1852   4.032   0.955   0.611  0.5959 -0.7193 -0.8945
  445SOL    MW4 1853   4.025   0.973   0.526 -0.7067  0.3688 -0.5805
  446SOL     OW 1854   3.361   1.512   0.871  0.0941  0.4923  0.6541
  446SOL    HW2 1855   3.441   1.553   0.838  0.1431 -0.7730 -0.8793
  446SOL    HW3 1856   3.382   1.485   0.960  1.2856  0.4627  0.3676
  446SOL    MW4 1857   3.374   1.514   0.878  0.2575  0.3215  0.4140
  447SOL     OW 1858   4.043   1.691   0.801  0.4388  0.3505  0.1348
  447SOL    HW2 1859   3.969   1.635   0.823  1.8025 -1.1375  1.0405
  447SOL    HW3 1860   4.062   1.671   0.710  0.6556 -0.3666  0.3330
  447SOL    MW4 1861   4.036   1.681   0.792  0.6471  0.0596  0.2805
  448SOL     OW 1862   4.065   1.678   0.518 -0.2500  0.3029 -0.2683
  448SOL    HW2 1863   3.994   1.724   0.472 -0.4298  0.4112  0.1215
  448SOL    HW3 1864   4.060   1.588   0.484  0.0182  0.5356 -0.9310
  448SOL    MW4 1865   4.055   1.672   0.507 -0.2384  0.3479 -0.3043
  449SOL     OW 1866   3.993   2.548   0.464  0.3692  0.1746 -0.4583
  449SOL    HW2 1867   4.085   2.538   0.442  0.5406 -0.4197  0.5433
  449SOL    HW3 1868   3.946   2.517   0.386  0.9992  0.0658 -0.7919
  449SOL    MW4 1869   3.999   2.543   0.451  0.4745  0.0820 -0.3701
  450SOL     OW 1870   4.071   1.425   0.420  0.0978  0.1358  0.0369
  450SOL    HW2 1871   4.016   1.350   0.442  0.2300 -0.0899 -0.3813
  450SOL    HW3 1872   4.160   1.396   0.441  0.4348 -0.7448 -2.4106
  450SOL    MW4 1873   4.076   1.411   0.425  0.1593 -0.0101 -0.3412
  451SOL     OW 1874   4.255   2.105   0.751  0.4925 -0.4756  0.1987
  451SOL    HW2 1875   4.178   2.058   0.783  0.0873  0.5393  0.7376
  451SOL    HW3 1876   4.328   2.069   0.802  0.2069 -0.6108  0.5172
  451SOL    MW4 1877   4.255   2.094   0.762  0.4015 -0.3593  0.3118
  452SOL     OW 1878   4.073   2.707   0.867 -0.2042 -0.1404 -0.3078
  452SOL    HW2 1879   4.041   2.627   0.825  0.3167 -0.2491 -0.4970
  452SOL    HW3 1880   4.015   2.776   0.836 -1.8030 -0.7273  1.2624
  452SOL    MW4 1881   4.061   2.705   0.858 -0.3462 -0.2322 -0.1255
  453SOL     OW 1882   3.384   3.098   0.843  0.2717 -0.0181  0.4510
  453SOL    HW2 1883   3.372   3.110   0.938  0.4241  0.0557  0.4603
  453SOL    HW3 1884   3.307   3.139   0.804  0.7345  0.8788  0.4896
  453SOL    MW4 1885   3.372   3.105   0.851  0.3529  0.1099  0.4572
  454SOL     OW 1886   4.143   2.948   0.360 -0.3556 -0.2122 -0.0454
  454SOL    HW2 1887   4.206   2.885   0.395 -0.2730 -0.2371 -0.2352
  454SOL    HW3 1888   4.192   3.031   0.357 -1.0054  0.2547  1.8638
  454SOL    MW4 1889   4.158   2.951   0.364 -0.4306 -0.1538  0.1815
  455SOL     OW 1890   3.595   3.266   0.740 -0.1738  0.4355  0.0001
  455SOL    HW2 1891   3.672   3.219   0.772 -0.3289  0.7899  0.9067
  455SOL    HW3 1892   3.521   3.214   0.771 -0.3063  0.0624 -0.9192
  455SOL    MW4 1893   3.595   3.253   0.748 -0.2117  0.4330 -0.0015
  456SOL     OW 1894   3.808   3.137   0.845 -0.2127 -0.0970 -0.0423
  456SOL    HW2 1895   3.827   3.052   0.805 -0.9060 -0.1904 -0.1781
  456SOL    HW3 1896   3.890   3.186   0.837  0.2416 -0.8121  0.1920
  456SOL    MW4 1897   3.821   3.132   0.839 -0.2441 -0.2036 -0.0292
  457SOL     OW 1898   3.573   3.507   0.896  0.4111  0.5111 -0.4640
  457SOL    HW2 1899   3.573   3.420   0.856 -0.1610 -0.7476  2.1685
  457SOL    HW3 1900   3.490   3.546   0.869 -0.7422 -0.9855  0.8423
  457SOL    MW4 1901   3.562   3.501   0.887  0.1833  0.1476  0.0557
  458SOL     OW 1902   3.783   3.655   0.816  0.2068  0.3429  0.2910
  458SOL    HW2 1903   3.861   3.605   0.841  0.3385  0.3388 -0.1109
  458SOL    HW3 1904   3.709   3.604   0.847  0.3335 -0.2220 -0.3234
  458SOL    MW4 1905   3.784   3.642   0.823  0.2408  0.2680  0.1569
  459SOL     OW 1906   3.595   4.022   0.831 -0.3816 -0.0235  0.3858
  459SOL    HW2 1907   3.589   4.108   0.874 -1.5121 -0.0173  0.2336
  459SOL    HW3 1908   3.674   3.983   0.867  0.4126  1.2842  0.0970
  459SOL    MW4 1909   3.604   4.028   0.841 -0.4258  0.1497  0.3276
  460SOL     OW 1910   3.779   4.414   0.763  0.7996 -0.5422  0.1081
  460SOL    HW2 1911   3.783   4.506   0.789 -0.0528 -0.2722 -0.6729
  460SOL    HW3 1912   3.780   4.416   0.667 -0.8607 -1.2582  0.0599
  460SOL    MW4 1913   3.780   4.426   0.754  0.4685 -0.6008 -0.0013
  461SOL     OW 1914   3.606   4.264   0.934  0.3156 -0.5932 -0.0026
  461SOL    HW2 1915   3.671   4.310   0.881  1.0010 -2.1363 -0.5168
  461SOL    HW3 1916   3.522   4.297   0.903  0.7479 -0.6739 -1.2868
  461SOL    MW4 1917   3.604   4.274   0.923  0.4632 -0.8073 -0.2398
  462SOL     OW 1918   3.840   4.652   0.886 -0.0113  0.3990  0.1343
  462SOL    HW2 1919   3.762   4.705   0.872 -0.1285  0.2101  0.0741
  462SOL    HW3 1920   3.909   4.697   0.837 -0.1712  0.3482 -0.1366
  462SOL    MW4 1921   3.839   4.665   0.878 -0.0479  0.3672  0.0906
  463SOL     OW 1922   4.295   0.170   0.761  0.1036  0.1945  0.1430
  463SOL    HW2 1923   4.355   0.124   0.703 -2.6313 -2.0928 -1.0239
  463SOL    HW3 1924   4.305   0.127   0.846 -0.5982 -0.8840 -0.3106
  463SOL    MW4 1925   4.304   0.159   0.765 -0.3500 -0.2496 -0.0708
  464SOL     OW 1926   3.822   0.500   0.560  0.1362  0.5609 -0.1997
  464SOL    HW2 1927   3.820   0.497   0.656  0.7871  0.7011 -0.1793
  464SOL    HW3 1928   3.848   0.589   0.539  0.0479  0.5137 -0.5057
  464SOL    MW4 1929   3.825   0.511   0.570  0.2103  0.5732 -0.2375
  465SOL     OW 1930   4.296   0.522   0.803  0.3865  0.1297  0.0461
  465SOL    HW2 1931   4.373   0.477   0.838  1.3231  1.1411 -0.6742
  465SOL    HW3 1932   4.221   0.477   0.842  1.3741 -0.1186  1.6597
  465SOL    MW4 1933   4.296   0.510   0.812  0.6399  0.2304  0.1639
  466SOL     OW 1934   4.354   4.662   0.964 -0.3610  0.1303  0.0947
  466SOL    HW2 1935   4.447   4.667   0.942 -0.3134 -0.9070  0.0124
  466SOL    HW3 1936   4.352   4.671   1.059 -0.1041 -0.5348  0.1693
  466SOL    MW4 1937   4.366   4.664   0.974 -0.3204 -0.0944  0.0937
  467SOL     OW 1938   3.799   0.746   0.829  0.1925 -0.0349  0.0427
  467SOL    HW2 1939   3.792   0.745   0.925 -1.1615 -2.7691 -0.0258
  467SOL    HW3 1940   3.876   0.800   0.811 -0.6901  2.1148  2.5724
  467SOL    MW4 1941   3.808   0.753   0.839 -0.1025 -0.1120  0.3674
  468SOL     OW 1942   0.232   0.831   0.493 -0.1676  0.4651 -0.5116
  468SOL    HW2 1943   0.142   0.835   0.526 -0.4938  0.4684 -1.3800
  468SOL    HW3 1944   0.260   0.922   0.490  0.1146  0.4138  0.4197
  468SOL    MW4 1945   0.223   0.844   0.497 -0.1734  0.4588 -0.5033
  469SOL     OW 1946   3.797   1.268   0.770 -0.1277 -0.8579 -0.3149
  469SOL    HW2 1947   3.840   1.253   0.686 -0.2723  1.2807 -0.7986
  469SOL    HW3 1948   3.861   1.240   0.835  1.3271  0.6625 -1.0732
  469SOL    MW4 1949   3.811   1.262   0.767  0.0453 -0.3753 -0.4788
  470SOL     OW 1950   3.891   1.228   0.512  0.6579  0.0030 -0.0323
  470SOL    HW2 1951   3.929   1.140   0.504  1.3068  0.1743  1.0712
  470SOL    HW3 1952   3.804   1.220   0.472  1.3168 -0.7327 -1.3616
  470SOL    MW4 1953   3.885   1.215   0.506  0.8304 -0.0714 -0.0620
  471SOL     OW 1954   1.541   1.654   0.381  0.4672  0.2181 -0.2625
  471SOL    HW2 1955   1.475   1.722   0.395 -1.4023 -1.4992 -0.5539
  471SOL    HW3 1956   1.580   1.639   0.467 -0.6219  0.1503  0.2221
  471SOL    MW4 1957   1.537   1.661   0.394  0.0770 -0.0173 -0.2370
  472SOL     OW 1958   4.439   1.690   0.759 -0.3970  0.3639 -0.5172
  472SOL    HW2 1959   4.366   1.642   0.798 -0.4746  0.0672 -1.0329
  472SOL    HW3 1960   4.405   1.724   0.677 -0.1969  0.9053 -0.3790
  472SOL    MW4 1961   4.425   1.688   0.754 -0.3810  0.3963 -0.5671
  473SOL     OW 1962   0.338   1.573   0.915  0.0820 -0.4446  0.5359
  473SOL    HW2 1963   0.318   1.666   0.923  0.2886 -0.4832  1.4524
  473SOL    HW3 1964   0.272   1.540   0.852 -1.3655 -0.1264  1.8504
  473SOL    MW4 1965   0.326   1.581   0.908 -0.0817 -0.4078  0.8302
  474SOL     OW 1966   4.136   2.240   0.501 -0.2628  0.0515  0.0018
  474SOL    HW2 1967   4.157   2.203   0.586  1.0136  0.9419  0.0915
  474SOL    HW3 1968   4.054   2.198   0.476 -2.2516  1.9596  2.9969
  474SOL    MW4 1969   4.128   2.230   0.509 -0.3567  0.4208  0.4088
  475SOL     OW 1970   0.388   1.735   0.607 -0.0978  0.3383 -0.6755
  475SOL    HW2 1971   0.362   1.769   0.693 -0.4311 -0.2808 -0.5267
  475SOL    HW3 1972   0.424   1.810   0.561 -0.4245  0.7939 -0.1880
  475SOL    MW4 1973   0.389   1.749   0.613 -0.1849  0.3166 -0.5915
  476SOL     OW 1974   3.794   2.292   0.768  0.2884  0.0400 -0.2163
  476SOL    HW2 1975   3.738   2.361   0.731 -0.4108 -0.5980 -0.3508
  476SOL    HW3 1976   3.765   2.284   0.859 -0.2491 -0.7140 -0.4552
  476SOL    MW4 1977   3.783   2.300   0.775  0.1252 -0.1438 -0.2655
  477SOL     OW 1978   4.260   2.364   0.832 -0.4920  0.5179 -0.1219
  477SOL    HW2 1979   4.185   2.411   0.796  0.1417  1.0620 -0.7359
  477SOL    HW3 1980   4.249   2.274   0.801 -1.2031  0.4669  0.2748
  477SOL    MW4 1981   4.249   2.358   0.823 -0.5026  0.5827 -0.1506
  478SOL     OW 1982   4.343   2.771   0.494 -0.1382 -0.3210 -0.0804
  478SOL    HW2 1983   4.336   2.676   0.497 -0.8235 -0.3038 -0.9591
  478SOL    HW3 1984   4.317   2.800   0.582  0.8911 -0.9829  0.4548
  478SOL    MW4 1985   4.338   2.763   0.506 -0.0935 -0.4060 -0.1257
  479SOL     OW 1986   2.779   3.041   0.384  0.3654  0.2418  0.0465
  479SOL    HW2 1987   2.828   2.966   0.418 -1.4594 -1.2283 -0.4843
  479SOL    HW3 1988   2.772   3.101   0.459  1.4946 -0.3036  0.5944
  479SOL    MW4 1989   2.784   3.039   0.399  0.2737 -0.0243  0.0488
  480SOL     OW 1990   4.044   3.259   0.756 -0.0673  0.3020 -0.0611
  480SOL    HW2 1991   4.040   3.347   0.793  0.9307 -0.0417  0.8890
  480SOL    HW3 1992   4.128   3.225   0.785 -0.2916 -0.8332 -0.7324
  480SOL    MW4 1993   4.055   3.266   0.765  0.0348  0.1070 -0.0244
  481SOL     OW 1994   4.000   3.506   0.884 -0.2720  0.5459  0.1183
  481SOL    HW2 1995   4.019   3.503   0.978  0.4303  0.5747 -0.0232
  481SOL    HW3 1996   4.073   3.556   0.846 -0.2201 -0.0218 -0.5285
  481SOL    MW4 1997   4.012   3.513   0.892 -0.1731  0.4749  0.0142
  482SOL     OW 1998   3.584   3.136   0.482 -0.6017  0.3713 -0.0677
  482SOL    HW2 1999   3.580   3.178   0.568 -0.9886 -1.8107  1.0416
  482SOL    HW3 2000   3.648   3.187   0.432  1.8545 -0.0465  2.5280
  482SOL    MW4 2001   3.592   3.148   0.487 -0.3288  0.0284  0.4211
  483SOL     OW 2002   3.707   3.720   0.547 -0.5546  0.1550 -0.0293
  483SOL    HW2 2003   3.741   3.716   0.636  0.9966  0.0717 -0.6042
  483SOL    HW3 2004   3.686   3.630   0.525  2.1046 -0.3328 -0.8502
  483SOL    MW4 2005   3.709   3.708   0.556  0.0010  0.0796 -0.2135
  484SOL     OW 2006   4.049   4.036   0.820 -0.1173 -0.2576 -0.3342
  484SOL    HW2 2007   4.004   4.106   0.866  1.9766  0.8508  0.1076
  484SOL    HW3 2008   4.035   4.055   0.727  1.3380  1.3966 -0.2389
  484SOL    MW4 2009   4.042   4.048   0.814  0.3510  0.1063 -0.2633
  485SOL     OW 2010   0.070   0.331   0.596  0.0108  0.4006 -0.1861
  485SOL    HW2 2011  -0.008   0.364   0.551  0.0371  0.3218 -0.2891
  485SOL    HW3 2012   0.064   0.236   0.586  1.4899  0.5135 -2.4605
  485SOL    MW4 2013   0.059   0.323   0.589  0.2094  0.4051 -0.4997
  486SOL     OW 2014   3.622   3.456   0.518 -0.3789  0.7434  0.3787
  486SOL    HW2 2015   3.670   3.396   0.461 -0.6239  1.4039 -0.5341
  486SOL    HW3 2016   3.612   3.408   0.600 -0.3544 -0.3672 -0.2566
  486SOL    MW4 2017   3.627   3.442   0.522 -0.4079  0.6838  0.1745
  487SOL     OW 2018   0.186   4.620   1.174  0.6386 -0.1566  0.1792
  487SOL    HW2 2019   0.272   4.663   1.179  0.3163  0.5191 -0.0869
  487SOL    HW3 2020   0.158   4.633   1.083 -0.2415  0.5724  0.5551
  487SOL    MW4 2021   0.194   4.627   1.162  0.4800  0.0286  0.1937
  488SOL     OW 2022   0.042   0.119   1.353 -0.2362  0.2358 -0.1317
  488SOL    HW2 2023  -0.046   0.084   1.341 -0.0863 -0.1718 -0.0303
  488SOL    HW3 2024   0.097   0.068   1.293 -0.5155  2.3308 -2.2618
  488SOL    MW4 2025   0.037   0.108   1.343 -0.2533  0.4584 -0.3994
  489SOL     OW 2026   4.479   0.330   1.166 -0.0036  0.0173 -0.3564
  489SOL    HW2 2027   4.397   0.373   1.190  0.2739  0.4147 -0.1029
  489SOL    HW3 2028   4.493   0.264   1.233  0.7206  1.0610  0.5535
  489SOL    MW4 2029   4.470   0.327   1.178  0.1287  0.2074 -0.2030
  490SOL     OW 2030   0.184   0.493   1.285 -0.1325  0.3688 -0.1074
  490SOL    HW2 2031   0.188   0.584   1.258 -0.8434  0.7145  0.9370
  490SOL    HW3 2032   0.106   0.458   1.242  0.9771 -0.1920 -1.7648
  490SOL    MW4 2033   0.174   0.500   1.276 -0.0799  0.3404 -0.1882
  491SOL     OW 2034   0.182   0.740   1.157  0.1758 -0.4233  0.3483
  491SOL    HW2 2035   0.250   0.799   1.127 -0.9453 -0.0038 -1.4698
  491SOL    HW3 2036   0.111   0.798   1.186 -0.7312 -0.8646 -0.9742
  491SOL    MW4 2037   0.181   0.755   1.157 -0.0918 -0.4262 -0.0660
  492SOL     OW 2038   4.472   0.904   1.248 -0.4648  0.0546 -0.5540
  492SOL    HW2 2039   4.471   0.895   1.343 -0.5230 -1.3108 -0.6730
  492SOL    HW3 2040   4.382   0.883   1.221 -0.1256 -0.8174 -1.0133
  492SOL    MW4 2041   4.460   0.900   1.257 -0.4277 -0.2406 -0.6303
  493SOL     OW 2042   4.483   1.155   1.151  0.1975 -0.3683  0.1737
  493SOL    HW2 2043   4.400   1.190   1.180  0.1518  0.2215 -0.6585
  493SOL    HW3 2044   4.481   1.063   1.176 -0.7100 -0.3543  0.1384
  493SOL    MW4 2045   4.472   1.147   1.158  0.0715 -0.2886  0.0591
  494SOL     OW 2046   0.236   1.234   1.270  0.2430 -0.7069  0.3633
  494SOL    HW2 2047   0.303   1.193   1.216  0.2518 -1.0570  0.6450
  494SOL    HW3 2048   0.153   1.203   1.233  0.1858  1.0748 -1.0796
  494SOL    MW4 2049   0.234   1.225   1.258  0.2366 -0.5178  0.2102
  495SOL     OW 2050   0.225   1.513   1.200 -0.3870  0.3699  0.2144
  495SOL    HW2 2051   0.237   1.425   1.234 -1.6417  0.1076  0.0304
  495SOL    HW3 2052   0.237   1.505   1.106  0.5408  0.6032  0.3084
  495SOL    MW4 2053   0.228   1.500   1.192 -0.4301  0.3661  0.2025
  496SOL     OW 2054   4.265   1.538   1.169 -0.4823  0.5311 -0.1603
  496SOL    HW2 2055   4.341   1.577   1.212 -0.7452  0.9474 -0.0679
  496SOL    HW3 2056   4.263   1.448   1.201  0.5698  0.2149 -0.9601
  496SOL    MW4 2057   4.275   1.531   1.179 -0.3781  0.5442 -0.2537
  497SOL     OW 2058   0.206   2.089   0.801 -0.2369  0.9554  0.0254
  497SOL    HW2 2059   0.193   2.106   0.708  0.4047  1.8754  0.1029
  497SOL    HW3 2060   0.260   2.162   0.832  1.3264 -0.4421  0.6632
  497SOL    MW4 2061   0.211   2.101   0.793  0.0540  0.8924  0.1197
  498SOL     OW 2062   0.243   2.010   1.212 -0.1461  0.1082  0.6415
  498SOL    HW2 2063   0.232   2.100   1.182  0.5310 -0.3260 -1.0006
  498SOL    HW3 2064   0.167   1.964   1.177  1.5758 -0.7896 -2.0786
  498SOL    MW4 2065   0.231   2.016   1.203  0.1704 -0.0677  0.0660
  499SOL     OW 2066   0.207   2.292   1.147 -0.2871  0.2176  0.6706
  499SOL    HW2 2067   0.218   2.321   1.057 -0.9664 -1.7440 -0.0815
  499SOL    HW3 2068   0.127   2.335   1.177 -0.4173  0.3731  0.1055
  499SOL    MW4 2069   0.198   2.301   1.139 -0.3939 -0.0205  0.4967
  500SOL     OW 2070   0.002   2.440   1.230  0.2843 -0.0331 -0.2473
  500SOL    HW2 2071  -0.024   2.454   1.321 -0.4888  0.4327 -0.5343
  500SOL    HW3 2072  -0.075   2.401   1.189  0.7614 -0.5862 -0.6164
  500SOL    MW4 2073  -0.011   2.437   1.237  0.2452 -0.0446 -0.3339
  501SOL     OW 2074   0.063   2.703   1.133  0.0261  0.1282 -0.1117
  501SOL    HW2 2075  -0.008   2.752   1.173  0.5413  0.5273  0.3289
  501SOL    HW3 2076   0.059   2.616   1.173  0.8893  0.6994  1.2275
  501SOL    MW4 2077   0.053   2.698   1.143  0.2079  0.2561  0.1231
  502SOL     OW 2078   0.277   2.839   1.210  0.2490 -0.1239  0.6082
  502SOL    HW2 2079   0.260   2.855   1.303 -1.0282  0.1988  0.3347
  502SOL    HW3 2080   0.205   2.783   1.183  0.7465 -0.4014 -0.1405
  502SOL    MW4 2081   0.265   2.834   1.219  0.1461 -0.1183  0.4734
  503SOL     OW 2082   0.209   3.108   1.145 -0.2615 -0.2041 -0.2821
  503SOL    HW2 2083   0.286   3.149   1.183 -1.5369  0.9351  1.1418
  503SOL    HW3 2084   0.229   3.014   1.145  1.6581  0.1840 -1.2208
  503SOL    MW4 2085   0.222   3.101   1.150 -0.1765 -0.0021 -0.2180
  504SOL     OW 2086   4.464   3.234   1.228 -0.2330  0.0089 -0.2004
  504SOL    HW2 2087   4.391   3.183   1.195 -0.0194 -1.4164  1.4273
  504SOL    HW3 2088   4.542   3.188   1.197 -0.0340  0.2578 -0.0754
  504SOL    MW4 2089   4.465   3.221   1.220 -0.1786 -0.1462  0.0310
  505SOL     OW 2090   4.471   3.489   1.123  0.2913 -0.1412  0.5578
  505SOL    HW2 2091   4.458   3.401   1.160 -2.2428 -0.0273  0.0207
  505SOL    HW3 2092   4.468   3.476   1.029 -1.6339  0.7134  0.4807
  505SOL    MW4 2093   4.469   3.476   1.116 -0.2971 -0.0134  0.4767
  506SOL     OW 2094   0.247   3.569   1.221 -0.0133  0.5330 -0.0357
  506SOL    HW2 2095   0.236   3.553   1.315  0.6457 -2.4717 -0.4058
  506SOL    HW3 2096   0.169   3.532   1.181  0.3268  0.6022 -0.7798
  506SOL    MW4 2097   0.235   3.562   1.228  0.1185  0.1462 -0.1827
  507SOL     OW 2098   0.235   3.869   0.806  0.1854 -0.3330 -0.1291
  507SOL    HW2 2099   0.242   3.842   0.897  0.3910  0.6474  0.1526
  507SOL    HW3 2100   0.146   3.904   0.798  0.0770 -0.6626 -0.3716
  507SOL    MW4 2101   0.224   3.870   0.817  0.1982 -0.2475 -0.1240
  508SOL     OW 2102   0.031   3.961   1.205 -0.5282  0.0700 -0.3925
  508SOL    HW2 2103   0.070   3.947   1.291  0.9265 -0.1352 -1.0758
  508SOL    HW3 2104  -0.055   3.918   1.210  0.8566 -2.7493 -0.0870
  508SOL    MW4 2105   0.025   3.953   1.217 -0.1536 -0.3293 -0.4425
  509SOL     OW 2106   4.490   4.231   1.116  0.2968 -0.3763  0.3356
  509SOL    HW2 2107   4.570   4.258   1.161  0.5644 -0.0219 -0.3463
  509SOL    HW3 2108   4.478   4.139   1.141  1.3662 -0.6734 -0.1983
  509SOL    MW4 2109   4.499   4.222   1.125  0.4730 -0.3686  0.1751
  510SOL     OW 2110   0.229   4.350   1.219 -0.1137 -0.1248 -0.1555
  510SOL    HW2 2111   0.216   4.332   1.312  1.1587  1.0427  0.2533
  510SOL    HW3 2112   0.206   4.442   1.209 -0.9862 -0.4401 -1.1507
  510SOL    MW4 2113   0.224   4.360   1.230 -0.0609 -0.0124 -0.2328
  511SOL     OW 2114   0.680   4.651   1.092 -0.4099 -0.3245 -0.3439
  511SOL    HW2 2115   0.749   4.678   1.153 -1.8458  0.4640  0.9907
  511SOL    HW3 2116   0.663   4.559   1.115 -0.0725 -0.4042 -0.4098
  511SOL    MW4 2117   0.687   4.642   1.103 -0.5548 -0.2310 -0.1765
  512SOL     OW 2118   0.442   0.101   1.202 -0.1538  0.6653  0.4037
  512SOL    HW2 2119   0.446   0.098   1.298  0.4120 -0.5395  0.3565
  512SOL    HW3 2120   0.521   0.054   1.174 -0.0321  1.4924 -0.6559
  512SOL    MW4 2121   0.453   0.094   1.211 -0.0631  0.6155  0.2577
  513SOL     OW 2122   0.667   4.614   1.600  0.3613  0.3413 -0.5438
  513SOL    HW2 2123   0.600   4.676   1.571  0.6331  1.6592  1.5453
  513SOL    HW3 2124   0.750   4.659   1.585  0.6746 -0.3562 -0.9419
  513SOL    MW4 2125   0.669   4.628   1.595  0.4385  0.4234 -0.3208
  514SOL     OW 2126   0.668   0.517   1.206 -0.4206 -0.5962 -0.0507
  514SOL    HW2 2127   0.633   0.606   1.215  1.2305  0.4813 -3.4507
  514SOL    HW3 2128   0.592   0.464   1.183 -0.8804  0.5829 -1.3187
  514SOL    MW4 2129   0.653   0.522   1.204 -0.2634 -0.2985 -0.6665
  515SOL     OW 2130   0.558   0.786   1.282 -0.0604  0.0228 -0.3023
  515SOL    HW2 2131   0.517   0.810   1.365  0.1305 -0.3214 -0.1105
  515SOL    HW3 2132   0.492   0.809   1.216  0.0475  0.8850 -0.1018
  515SOL    MW4 2133   0.544   0.792   1.284 -0.0210  0.0911 -0.2505
  516SOL     OW 2134   0.397   0.898   1.058 -0.1913 -0.2038 -0.1085
  516SOL    HW2 2135   0.403   0.993   1.066  0.6128 -0.3940  1.8592
  516SOL    HW3 2136   0.438   0.878   0.974  0.7327  1.0670  0.0307
  516SOL    MW4 2137   0.403   0.908   1.048  0.0367 -0.0612  0.1695
  517SOL     OW 2138   0.433   1.178   1.099 -0.0458  0.5671  0.1200
  517SOL    HW2 2139   0.500   1.169   1.167  0.7600 -0.1982 -0.7670
  517SOL    HW3 2140   0.462   1.253   1.047  0.2950  0.0257 -0.4658
  517SOL    MW4 2141   0.446   1.187   1.101  0.1055  0.3947 -0.0743
  518SOL     OW 2142   0.637   1.232   1.287  0.2784 -0.1834  0.3343
  518SOL    HW2 2143   0.716   1.194   1.248  0.2476 -0.5333  0.6130
  518SOL    HW3 2144   0.643   1.326   1.265  0.1215 -0.4153 -0.7440
  518SOL    MW4 2145   0.648   1.240   1.279  0.2537 -0.2601  0.2288
  519SOL     OW 2146   0.643   1.484   1.180  0.3894  0.3206  0.2023
  519SOL    HW2 2147   0.717   1.541   1.200 -0.4130  0.8199  1.8530
  519SOL    HW3 2148   0.565   1.538   1.196 -0.3345 -0.2214 -1.4208
  519SOL    MW4 2149   0.642   1.499   1.185  0.1881  0.3148  0.2059
  520SOL     OW 2150   0.448   1.693   1.252 -0.4173  0.1693 -0.0659
  520SOL    HW2 2151   0.453   1.665   1.343 -0.2430 -1.8481 -0.6699
  520SOL    HW3 2152   0.355   1.688   1.230 -0.2742 -0.8878 -0.4534
  520SOL    MW4 2153   0.437   1.689   1.261 -0.3755 -0.2364 -0.1968
  521SOL     OW 2154   0.490   1.911   1.080  0.4385 -0.1993 -0.0593
  521SOL    HW2 2155   0.416   1.966   1.105  0.3141  0.1154 -1.0685
  521SOL    HW3 2156   0.485   1.835   1.138  0.0751  0.4243  0.7275
  521SOL    MW4 2157   0.480   1.908   1.091  0.3741 -0.0757 -0.0886
  522SOL     OW 2158   0.645   2.083   1.224  0.4393  0.0993  0.1394
  522SOL    HW2 2159   0.643   2.087   1.319 -0.3100  0.9839  0.0929
  522SOL    HW3 2160   0.581   2.015   1.202 -0.3216  0.7848  0.2219
  522SOL    MW4 2161   0.636   2.074   1.233  0.2401  0.3066  0.1441
  523SOL     OW 2162   0.628   2.314   1.080  0.2519  0.2273 -0.2382
  523SOL    HW2 2163   0.558   2.364   1.123  0.7868  0.7160  0.0625
  523SOL    HW3 2164   0.638   2.236   1.135  0.4682  0.5238  0.1466
  523SOL    MW4 2165   0.620   2.310   1.093  0.3510  0.3312 -0.1477
  524SOL     OW 2166   0.433   2.459   1.222 -0.1681  0.6611  0.1141
  524SOL    HW2 2167   0.451   2.458   1.316  0.6074 -0.8629 -0.0256
  524SOL    HW3 2168   0.366   2.391   1.210  0.8481 -0.2097 -0.6375
  524SOL    MW4 2169   0.426   2.450   1.233  0.0683  0.3452 -0.0036
  525SOL     OW 2170   0.492   2.705   1.111 -0.5215  0.7235  0.4106
  525SOL    HW2 2171   0.429   2.757   1.162 -0.9399  1.1910 -0.5613
  525SOL    HW3 2172   0.464   2.614   1.124 -1.1632  0.9023  0.3093
  525SOL    MW4 2173   0.480   2.700   1.119 -0.6614  0.8085  0.2691
  526SOL     OW 2174   0.721   2.803   1.212 -0.4110 -0.0854  0.0116
  526SOL    HW2 2175   0.713   2.896   1.188 -1.2169  0.0151  0.6543
  526SOL    HW3 2176   0.636   2.765   1.191 -0.7704 -0.2281  1.6664
  526SOL    MW4 2177   0.709   2.810   1.206 -0.5648 -0.0908  0.3146
  527SOL     OW 2178   0.678   3.047   1.093 -0.2050  0.6397  0.4471
  527SOL    HW2 2179   0.747   3.108   1.118  0.1238  0.0657  0.9417
  527SOL    HW3 2180   0.666   3.062   0.999 -0.0779  1.4147  0.5531
  527SOL    MW4 2181   0.685   3.057   1.084 -0.1448  0.6664  0.5263
  528SOL     OW 2182   0.451   3.186   1.228 -0.5608 -0.1118 -0.1018
  528SOL    HW2 2183   0.489   3.265   1.191 -1.3803  0.1468 -0.4003
  528SOL    HW3 2184   0.516   3.118   1.209  0.9399  0.7954  1.6884
  528SOL    MW4 2185   0.464   3.187   1.220 -0.4709  0.0420  0.0950
  529SOL     OW 2186   0.497   3.446   1.117  0.0186 -0.0954  0.2832
  529SOL    HW2 2187   0.568   3.495   1.158  1.4954 -1.6405 -0.3518
  529SOL    HW3 2188   0.417   3.488   1.148  1.2198  2.7124 -0.2647
  529SOL    MW4 2189   0.496   3.458   1.126  0.3719  0.0713  0.1270
  530SOL     OW 2190   0.706   3.596   1.242  0.1391  0.4841  0.4529
  530SOL    HW2 2191   0.694   3.606   1.336  1.5319  0.1685  0.6746
  530SOL    HW3 2192   0.710   3.686   1.209 -1.4490  0.6028  0.5239
  530SOL    MW4 2193   0.705   3.610   1.250  0.1132  0.4580  0.4915
  531SOL     OW 2194   0.696   3.847   1.117  0.3097  0.2216 -0.3666
  531SOL    HW2 2195   0.625   3.883   1.170  0.2195 -0.2319 -0.1808
  531SOL    HW3 2196   0.662   3.847   1.027  0.1241  0.1154 -0.2944
  531SOL    MW4 2197   0.682   3.852   1.112  0.2733  0.1476 -0.3325
  532SOL     OW 2198   0.467   3.922   1.241  0.3761 -0.0752  0.2550
  532SOL    HW2 2199   0.467   4.016   1.224 -0.2653 -0.0022  0.6368
  532SOL    HW3 2200   0.395   3.888   1.187  0.5810 -0.3378  0.1489
  532SOL    MW4 2201   0.457   3.930   1.231  0.3185 -0.1004  0.2913
  533SOL     OW 2202   0.453   4.200   1.146 -0.2051 -0.3324  0.2042
  533SOL    HW2 2203   0.533   4.252   1.154  0.1568 -0.5993 -1.4566
  533SOL    HW3 2204   0.383   4.258   1.176  0.1742  1.1777 -1.7347
  533SOL    MW4 2205   0.454   4.214   1.151 -0.1073 -0.1683 -0.2707
  534SOL     OW 2206   0.648   4.399   1.151  0.4854 -0.3062  0.0223
  534SOL    HW2 2207   0.653   4.395   1.247 -0.1069  0.3527  0.0817
  534SOL    HW3 2208   0.729   4.358   1.121  0.7227 -0.4177  0.8068
  534SOL    MW4 2209   0.659   4.393   1.160  0.4386 -0.2341  0.1336
  535SOL     OW 2210   1.087   0.014   1.114 -0.2099  0.6446  0.2705
  535SOL    HW2 2211   1.102  -0.076   1.140 -0.3768  0.6615  0.4203
  535SOL    HW3 2212   1.092   0.013   1.018  0.2979  0.5669  0.2952
  535SOL    MW4 2213   1.090   0.002   1.105 -0.1649  0.6366  0.2936
  536SOL     OW 2214   0.870   0.136   1.240  0.0465  0.1379  0.5676
  536SOL    HW2 2215   0.870   0.116   1.334  0.6411  1.0169  0.7606
  536SOL    HW3 2216   0.943   0.087   1.204 -0.4516 -0.5485  0.4842
  536SOL    MW4 2217   0.879   0.127   1.248  0.0592  0.1633  0.5822
  537SOL     OW 2218   0.911   0.407   1.139  0.2135  0.1247  0.3793
  537SOL    HW2 2219   0.907   0.319   1.176 -1.3288  0.0806  0.1271
  537SOL    HW3 2220   0.834   0.451   1.173  0.9899  1.3937  0.5082
  537SOL    MW4 2221   0.900   0.401   1.148  0.1125  0.2863  0.3631
  538SOL     OW 2222   1.129   0.574   1.225 -0.0127 -0.2060  0.1180
  538SOL    HW2 2223   1.133   0.577   1.321 -0.2173  0.0701  0.1169
  538SOL    HW3 2224   1.050   0.524   1.205  0.5329 -1.0661  0.0987
  538SOL    MW4 2225   1.119   0.568   1.235  0.0324 -0.2831  0.1153
  539SOL     OW 2226   1.067   0.831   1.119  0.4710 -0.0337 -0.0974
  539SOL    HW2 2227   0.993   0.861   1.172  0.9783  0.6032  0.2550
  539SOL    HW3 2228   1.085   0.743   1.151 -0.2481 -0.2513 -0.2984
  539SOL    MW4 2229   1.060   0.824   1.131  0.4432  0.0216 -0.0775
  540SOL     OW 2230   0.808   0.903   1.279 -0.2292  0.1663  0.3012
  540SOL    HW2 2231   0.807   0.993   1.247 -0.0447 -0.1769 -0.6768
  540SOL    HW3 2232   0.724   0.866   1.252  0.2648 -0.3735 -0.5247
  540SOL    MW4 2233   0.797   0.910   1.271 -0.1397  0.0498  0.0632
  541SOL     OW 2234   0.850   1.136   1.141 -0.2568  0.4103 -0.3383
  541SOL    HW2 2235   0.914   1.203   1.166 -1.3050  1.6374 -0.9038
  541SOL    HW3 2236   0.845   1.142   1.046 -1.4896  0.5823 -0.2631
  541SOL    MW4 2237   0.858   1.146   1.132 -0.5577  0.5947 -0.4029
  542SOL     OW 2238   1.054   1.316   1.224  0.4096 -0.0561 -0.0121
  542SOL    HW2 2239   1.071   1.285   1.313 -1.0629  0.8498  0.6071
  542SOL    HW3 2240   1.133   1.293   1.175  0.2232 -2.8513  0.9045
  542SOL    MW4 2241   1.067   1.309   1.229  0.1907 -0.3054  0.1905
  543SOL     OW 2242   1.130   1.580   1.187 -0.3604 -0.3172 -0.0353
  543SOL    HW2 2243   1.102   1.496   1.224 -1.3428 -0.3111 -0.7300
  543SOL    HW3 2244   1.110   1.573   1.094  1.3541 -0.0288 -0.4284
  543SOL    MW4 2245   1.123   1.568   1.180 -0.2637 -0.2785 -0.1788
  544SOL     OW 2246   0.848   1.680   1.216 -0.3023  0.0715  0.2724
  544SOL    HW2 2247   0.844   1.774   1.199 -0.5245 -0.2981 -1.8856
  544SOL    HW3 2248   0.939   1.656   1.196 -0.4001 -0.2617  0.2295
  544SOL    MW4 2249   0.860   1.689   1.211 -0.3445 -0.0212 -0.0181
  545SOL     OW 2250   0.874   1.947   1.120  0.3947 -0.5820  0.5634
  545SOL    HW2 2251   0.950   1.996   1.151  1.7085 -2.3522  0.2679
  545SOL    HW3 2252   0.799   2.001   1.142  1.7075  0.9114  1.4460
  545SOL    MW4 2253   0.874   1.960   1.127  0.7412 -0.6185  0.6409
  546SOL     OW 2254   1.145   2.043   1.192  0.3477  0.1229  0.0639
  546SOL    HW2 2255   1.115   2.032   1.283  1.6813 -0.3487  0.4486
  546SOL    HW3 2256   1.121   2.133   1.170 -0.6708 -0.0022  0.6159
  546SOL    MW4 2257   1.138   2.053   1.201  0.3892  0.0443  0.1875
  547SOL     OW 2258   1.102   2.299   1.077  0.1739  0.0573 -0.1035
  547SOL    HW2 2259   1.178   2.356   1.089 -1.2969  1.6285  2.1806
  547SOL    HW3 2260   1.029   2.350   1.112 -1.6242 -2.1717 -0.5319
  547SOL    MW4 2261   1.102   2.314   1.083 -0.2574 -0.0298  0.1414
  548SOL     OW 2262   0.874   2.409   1.151 -0.6569 -0.1756 -0.1822
  548SOL    HW2 2263   0.875   2.408   1.247 -0.2667 -0.4444 -0.1863
  548SOL    HW3 2264   0.790   2.370   1.128 -1.1066  0.6364  0.0542
  548SOL    MW4 2265   0.863   2.404   1.161 -0.6648 -0.1040 -0.1515
  549SOL     OW 2266   0.931   2.676   1.106  0.0287 -0.2167  0.0120
  549SOL    HW2 2267   0.915   2.583   1.121 -0.9273  0.0506  0.7073
  549SOL    HW3 2268   0.852   2.719   1.137  0.4483  0.8312 -0.3485
  549SOL    MW4 2269   0.919   2.670   1.112 -0.0421 -0.0432  0.0561
  550SOL     OW 2270   1.163   2.823   1.200  0.2482 -0.4246  0.1075
  550SOL    HW2 2271   1.152   2.821   1.296  0.5710  0.2930  0.1564
  550SOL    HW3 2272   1.092   2.768   1.168 -0.2952 -0.0970  0.7245
  550SOL    MW4 2273   1.152   2.815   1.209  0.2191 -0.2868  0.1954
  551SOL     OW 2274   1.115   3.088   1.125  0.5075 -0.0031 -0.0718
  551SOL    HW2 2275   1.140   3.002   1.159 -3.0624 -1.0378  0.1586
  551SOL    HW3 2276   1.103   3.075   1.031 -0.2399  0.1584 -0.0063
  551SOL    MW4 2277   1.117   3.075   1.117 -0.0621 -0.1183 -0.0327
  552SOL     OW 2278   0.876   3.217   1.203  0.3190  0.2782 -0.0053
  552SOL    HW2 2279   0.888   3.304   1.165  0.0942  0.1802 -0.2966
  552SOL    HW3 2280   0.948   3.165   1.167  0.0061  0.1392 -0.4340
  552SOL    MW4 2281   0.887   3.221   1.193  0.2481  0.2470 -0.1003
  553SOL     OW 2282   0.921   3.480   1.125  0.1320  0.0736  0.3251
  553SOL    HW2 2283   0.844   3.522   1.163  0.9152  1.1404  0.7384
  553SOL    HW3 2284   0.905   3.481   1.031 -0.9635 -0.9137  0.4796
  553SOL    MW4 2285   0.908   3.485   1.118  0.0908  0.0842  0.3999
  554SOL     OW 2286   1.142   3.626   1.223  0.1340  0.0032 -0.5415
  554SOL    HW2 2287   1.215   3.585   1.176  0.0842  0.8085 -1.3274
  554SOL    HW3 2288   1.066   3.572   1.199  0.5498 -1.2034  0.7579
  554SOL    MW4 2289   1.142   3.613   1.213  0.1823 -0.0496 -0.4737
  555SOL     OW 2290   1.135   3.895   1.118 -0.2299  0.0706  0.3098
  555SOL    HW2 2291   1.058   3.948   1.142 -1.4764 -0.4726 -2.2169
  555SOL    HW3 2292   1.119   3.810   1.158 -0.7885  0.0753  0.1133
  555SOL    MW4 2293   1.122   3.891   1.126 -0.4680 -0.0007 -0.0494
  556SOL     OW 2294   0.902   4.023   1.179 -0.0505 -0.2326 -0.6135
  556SOL    HW2 2295   0.907   4.002   1.272 -1.0299 -0.0827 -0.5219
  556SOL    HW3 2296   0.841   3.959   1.143  0.1569 -0.1528 -1.1116
  556SOL    MW4 2297   0.895   4.012   1.187 -0.1524 -0.2022 -0.6672
  557SOL     OW 2298   0.902   4.276   1.111 -0.2473  0.2531  0.4257
  557SOL    HW2 2299   0.909   4.269   1.016  0.5482  0.5717  0.4598
  557SOL    HW3 2300   0.884   4.187   1.141  0.5103 -0.0238  0.0644
  557SOL    MW4 2301   0.900   4.264   1.103 -0.0424  0.2589  0.3825
  558SOL     OW 2302   1.125   4.419   1.192 -0.0010 -0.0727 -0.0009
  558SOL    HW2 2303   1.137   4.392   1.283  1.2244 -1.0266 -0.4387
  558SOL    HW3 2304   1.049   4.369   1.162 -0.2685  0.0745  0.4225
  558SOL    MW4 2305   1.117   4.409   1.200  0.1254 -0.1788 -0.0027
  559SOL     OW 2306   1.517   0.010   1.153  0.0504  0.3626  0.2121
  559SOL    HW2 2307   1.608   0.035   1.170  0.5488 -1.0578 -0.2381
  559SOL    HW3 2308   1.518  -0.086   1.157 -1.2202  0.2936 -0.8273
  559SOL    MW4 2309   1.529   0.001   1.156 -0.0515  0.1662  0.0156
  560SOL     OW 2310   1.295   0.154   1.240  0.3549 -0.0635  0.1175
  560SOL    HW2 2311   1.368   0.112   1.195  0.1159  0.4581 -0.7705
  560SOL    HW3 2312   1.218   0.107   1.208  0.1714  0.3983 -0.1219
  560SOL    MW4 2313   1.294   0.142   1.230  0.2991  0.0662 -0.0312
  561SOL     OW 2314   1.314   0.392   1.102  0.0927  0.5241 -0.0538
  561SOL    HW2 2315   1.306   0.309   1.149  1.2378 -0.2647 -1.2059
  561SOL    HW3 2316   1.251   0.450   1.144 -1.6101 -1.2927 -0.0343
  561SOL    MW4 2317   1.305   0.389   1.114  0.0191  0.1803 -0.2033
  562SOL     OW 2318   1.542   0.488   1.211 -0.3786 -0.1786 -0.0862
  562SOL    HW2 2319   1.543   0.581   1.190  0.9743 -0.2033 -0.2019
  562SOL    HW3 2320   1.455   0.458   1.186 -0.4579  0.8268 -1.0340
  562SOL    MW4 2321   1.531   0.496   1.205 -0.2104 -0.0492 -0.2266
  563SOL     OW 2322   1.531   0.741   1.124  0.3809 -0.0532 -0.1041
  563SOL    HW2 2323   1.598   0.800   1.159  0.4660 -0.5788  0.6263
  563SOL    HW3 2324   1.541   0.747   1.029  1.1402  0.2447 -0.0086
  563SOL    MW4 2325   1.541   0.750   1.116  0.4923 -0.0833  0.0046
  564SOL     OW 2326   1.340   0.922   1.185  0.2416  0.0782  0.3257
  564SOL    HW2 2327   1.404   0.862   1.148  0.3130 -0.2414  0.9716
  564SOL    HW3 2328   1.256   0.890   1.152  0.2504 -0.5610  0.9145
  564SOL    MW4 2329   1.337   0.910   1.176  0.2521 -0.0483  0.4886
  565SOL     OW 2330   1.307   1.209   1.120  0.3299 -0.1559 -0.3786
  565SOL    HW2 2331   1.332   1.220   1.029 -0.6800  0.1461 -0.6201
  565SOL    HW3 2332   1.305   1.114   1.133  0.1223 -0.2066 -0.7717
  565SOL    MW4 2333   1.310   1.198   1.110  0.1693 -0.1228 -0.4624
  566SOL     OW 2334   1.546   1.282   1.222 -0.1516 -0.6535  0.8376
  566SOL    HW2 2335   1.611   1.231   1.174  0.1332  1.4316 -1.0779
  566SOL    HW3 2336   1.462   1.245   1.196 -0.0444  0.8862 -1.8747
  566SOL    MW4 2337   1.544   1.270   1.212 -0.0999 -0.1752  0.2270
  567SOL     OW 2338   1.543   1.543   1.097  0.0780 -0.1233  0.1878
  567SOL    HW2 2339   1.614   1.583   1.147  0.2470  0.9581 -0.8813
  567SOL    HW3 2340   1.552   1.449   1.114  1.6468  0.0142  0.2264
  567SOL    MW4 2341   1.554   1.536   1.106  0.3073  0.0374  0.0520
  568SOL     OW 2342   1.363   1.709   1.244 -0.3619 -0.2205 -0.1545
  568SOL    HW2 2343   1.417   1.654   1.188 -0.6982  0.7831 -1.5178
  568SOL    HW3 2344   1.275   1.673   1.235 -0.5963  0.5386 -1.1093
  568SOL    MW4 2345   1.358   1.697   1.235 -0.4371  0.0122 -0.4604
  569SOL     OW 2346   1.365   1.938   1.077 -0.5827 -0.2433 -0.1217
  569SOL    HW2 2347   1.358   1.864   1.137  0.2547  1.3860  2.0457
  569SOL    HW3 2348   1.288   1.991   1.096 -0.3711  0.2312 -0.5827
  569SOL    MW4 2349   1.354   1.935   1.087 -0.4443  0.0345  0.1036
  570SOL     OW 2350   1.541   2.076   1.222  0.5521  0.2199  0.2797
  570SOL    HW2 2351   1.537   2.164   1.186  2.6569  0.1654 -0.1775
  570SOL    HW3 2352   1.484   2.024   1.165 -0.1575  1.1371  0.1391
  570SOL    MW4 2353   1.533   2.081   1.210  0.7362  0.3338  0.2009
  571SOL     OW 2354   1.538   2.314   1.089  0.0296  0.1274  0.6633
  571SOL    HW2 2355   1.456   2.358   1.112  0.5365  0.6264  1.5401
  571SOL    HW3 2356   1.541   2.317   0.993 -1.1580 -0.2339  0.6098
  571SOL    MW4 2357   1.528   2.320   1.079 -0.0602  0.1454  0.7720
  572SOL     OW 2358   1.332   2.457   1.164  0.0318  0.0741 -0.0293
  572SOL    HW2 2359   1.344   2.446   1.259 -1.3858 -0.3323  0.1195
  572SOL    HW3 2360   1.366   2.544   1.146  1.2890 -0.2562  0.6764
  572SOL    MW4 2361   1.338   2.467   1.174  0.0105 -0.0231  0.0836
  573SOL     OW 2362   1.379   2.727   1.066  0.1962  0.0212 -0.3044
  573SOL    HW2 2363   1.439   2.799   1.088  0.3156  0.3389 -1.6343
  573SOL    HW3 2364   1.296   2.754   1.106  0.9756 -0.5607  1.7980
  573SOL    MW4 2365   1.376   2.740   1.074  0.3147 -0.0136 -0.2024
  574SOL     OW 2366   1.628   2.925   1.162  0.2831  0.0168 -0.2690
  574SOL    HW2 2367   1.674   2.851   1.123 -1.4039 -1.0271 -0.3169
  574SOL    HW3 2368   1.697   2.989   1.182  1.8360 -1.8591  0.4560
  574SOL    MW4 2369   1.643   2.924   1.160  0.2654 -0.3686 -0.1796
  575SOL     OW 2370   1.511   3.130   1.021 -0.0293 -0.0552  0.2389
  575SOL    HW2 2371   1.552   3.051   1.056  0.6957  0.7411  1.2550
  575SOL    HW3 2372   1.450   3.157   1.090  0.4092  0.7668  0.3178
  575SOL    MW4 2373   1.509   3.123   1.035  0.1243  0.1581  0.3834
  576SOL     OW 2374   1.332   3.240   1.200  0.0271  0.1841 -0.0624
  576SOL    HW2 2375   1.356   3.222   1.291  0.2567  2.5469  0.3854
  576SOL    HW3 2376   1.247   3.199   1.189 -0.7390  1.2206  1.7253
  576SOL    MW4 2377   1.324   3.232   1.210 -0.0435  0.6325  0.2325
  577SOL     OW 2378   1.358   3.497   1.100  0.3105  0.4188  0.2633
  577SOL    HW2 2379   1.352   3.407   1.130 -0.4400  0.8872  1.5324
  577SOL    HW3 2380   1.358   3.490   1.004  0.8303 -0.9518  0.3555
  577SOL    MW4 2381   1.357   3.485   1.091  0.2799  0.2997  0.4430
  578SOL     OW 2382   1.599   3.598   1.180  0.1611 -0.0894 -0.6836
  578SOL    HW2 2383   1.602   3.683   1.135 -0.2431  0.1030 -0.3562
  578SOL    HW3 2384   1.517   3.559   1.152  0.4561 -0.4747 -1.0086
  578SOL    MW4 2385   1.589   3.604   1.170  0.1467 -0.1152 -0.6832
  579SOL     OW 2386   1.604   3.876   1.091  0.4551  0.2916  0.4594
  579SOL    HW2 2387   1.526   3.925   1.117  0.5018  0.2764  0.6302
  579SOL    HW3 2388   1.674   3.912   1.145  0.7952  1.0941 -0.5021
  579SOL    MW4 2389   1.603   3.887   1.101  0.5062  0.3953  0.3551
  580SOL     OW 2390   1.397   4.002   1.212  0.1871  0.1115  0.0201
  580SOL    HW2 2391   1.382   4.095   1.191 -0.7446  0.2896  1.3830
  580SOL    HW3 2392   1.316   3.958   1.184 -0.7303  0.2307  2.3718
  580SOL    MW4 2393   1.384   4.009   1.206 -0.0570  0.1507  0.5100
  581SOL     OW 2394   1.344   4.261   1.116  0.0687 -0.2317  0.1876
  581SOL    HW2 2395   1.258   4.301   1.133  0.9172  1.4716  0.6008
  581SOL    HW3 2396   1.355   4.269   1.021  0.1809  0.4190  0.2530
  581SOL    MW4 2397   1.334   4.268   1.106  0.1954  0.0787  0.2507
  582SOL     OW 2398   1.555   4.404   1.207 -0.2068 -0.2765 -0.0501
  582SOL    HW2 2399   1.555   4.403   1.303 -0.7357 -0.0398 -0.0506
  582SOL    HW3 2400   1.479   4.353   1.182  0.6357 -1.4074 -0.3608
  582SOL    MW4 2401   1.545   4.398   1.216 -0.1656 -0.3939 -0.0912
  583SOL     OW 2402   2.020   0.003   1.166  0.2930 -0.0983 -0.1827
  583SOL    HW2 2403   2.031  -0.087   1.196  1.1969  0.0176 -0.1761
  583SOL    HW3 2404   2.041   0.001   1.073 -1.3076 -0.2124 -0.5611
  583SOL    MW4 2405   2.024  -0.009   1.158  0.2010 -0.0982 -0.2316
  584SOL     OW 2406   1.766   0.119   1.203 -0.0640 -0.0188 -0.8555
  584SOL    HW2 2407   1.778   0.211   1.182 -0.4507 -0.0071 -1.0144
  584SOL    HW3 2408   1.848   0.077   1.176  0.7952  0.5456  0.7735
  584SOL    MW4 2409   1.779   0.125   1.197 -0.0017  0.0572 -0.6615
  585SOL     OW 2410   1.786   0.381   1.138 -0.2856 -0.1307 -0.0114
  585SOL    HW2 2411   1.708   0.436   1.141 -0.6328 -0.5978 -0.3531
  585SOL    HW3 2412   1.803   0.369   1.044  0.7172  0.6960  0.0517
  585SOL    MW4 2413   1.778   0.387   1.126 -0.1991 -0.0833 -0.0482
  586SOL     OW 2414   2.035   0.501   1.239  0.4648 -0.1329 -0.3356
  586SOL    HW2 2415   2.003   0.497   1.330  0.4239 -0.7693 -0.3811
  586SOL    HW3 2416   1.960   0.474   1.186  0.5818 -0.0467 -0.5456
  586SOL    MW4 2417   2.020   0.497   1.244  0.4749 -0.2055 -0.3694
  587SOL     OW 2418   2.004   0.748   1.140  0.1450  0.1361  0.3376
  587SOL    HW2 2419   2.008   0.654   1.155 -2.4652 -0.0362  0.1864
  587SOL    HW3 2420   2.008   0.758   1.045 -0.2522  0.1264  0.3187
  587SOL    MW4 2421   2.005   0.737   1.130 -0.2518  0.1121  0.3152
  588SOL     OW 2422   1.765   0.878   1.248  0.1791 -0.2714  0.6130
  588SOL    HW2 2423   1.789   0.873   1.340  1.0999  1.3672  0.4841
  588SOL    HW3 2424   1.842   0.844   1.202 -1.4520 -4.1008  0.5112
  588SOL    MW4 2425   1.779   0.873   1.254  0.0852 -0.5604  0.5825
  589SOL     OW 2426   1.758   1.127   1.118  0.0815 -0.3576  0.4301
  589SOL    HW2 2427   1.756   1.049   1.173 -0.6029 -0.2337  0.5787
  589SOL    HW3 2428   1.778   1.093   1.030 -0.7970 -0.7673  0.3808
  589SOL    MW4 2429   1.761   1.112   1.113 -0.1248 -0.3953  0.4432
  590SOL     OW 2430   1.957   1.291   1.218  0.2721  0.0371 -0.2511
  590SOL    HW2 2431   2.035   1.241   1.192 -0.3770 -1.1175 -0.0188
  590SOL    HW3 2432   1.884   1.231   1.200 -0.4600  0.6264  0.7389
  590SOL    MW4 2433   1.958   1.276   1.212  0.0898 -0.0376 -0.0899
  591SOL     OW 2434   2.005   1.563   1.146  0.2433 -0.4791  0.2327
  591SOL    HW2 2435   1.973   1.475   1.167 -3.0150  0.6736  0.3627
  591SOL    HW3 2436   2.001   1.567   1.050 -1.1389  0.0797  0.3159
  591SOL    MW4 2437   2.001   1.552   1.136 -0.3691 -0.2533  0.2608
  592SOL     OW 2438   1.764   1.682   1.225  0.5781  0.0589  0.0054
  592SOL    HW2 2439   1.760   1.775   1.204 -0.0343 -0.0519 -0.3790
  592SOL    HW3 2440   1.855   1.657   1.207  0.5309  0.3850 -0.7025
  592SOL    MW4 2441   1.776   1.691   1.220  0.4910  0.0874 -0.1386
  593SOL     OW 2442   1.763   1.935   1.115 -0.1778  0.3249  0.2116
  593SOL    HW2 2443   1.675   1.969   1.133 -0.2750  0.2754 -0.1618
  593SOL    HW3 2444   1.768   1.931   1.019 -0.8139 -2.4289  0.2516
  593SOL    MW4 2445   1.752   1.939   1.104 -0.2747 -0.0451  0.1675
  594SOL     OW 2446   2.016   2.031   1.205  0.0444  0.1967  0.1005
  594SOL    HW2 2447   2.021   2.020   1.300  1.0350 -0.3211 -0.0024
  594SOL    HW3 2448   1.930   1.996   1.182 -0.1850  0.2813  0.7993
  594SOL    MW4 2449   2.005   2.025   1.215  0.1447  0.1395  0.1791
  595SOL     OW 2450   2.014   2.306   1.148 -0.2342  0.0706 -0.0558
  595SOL    HW2 2451   2.103   2.340   1.147 -0.3141  0.3043  0.5092
  595SOL    HW3 2452   2.022   2.219   1.187 -0.2613  0.1129  0.0439
  595SOL    MW4 2453   2.027   2.299   1.153 -0.2482  0.1068  0.0319
  596SOL     OW 2454   1.777   2.455   1.163  0.0128 -0.0215  0.3143
  596SOL    HW2 2455   1.861   2.415   1.141 -0.0034 -0.3215  0.7827
  596SOL    HW3 2456   1.712   2.390   1.135 -0.0935  0.5194 -0.7051
  596SOL    MW4 2457   1.779   2.441   1.157 -0.0033  0.0105  0.2416
  597SOL     OW 2458   1.770   2.718   1.078 -0.1676 -0.2889  0.0688
  597SOL    HW2 2459   1.763   2.628   1.110 -1.0349 -0.9915 -1.9932
  597SOL    HW3 2460   1.813   2.710   0.993  0.8346  1.3877  0.3907
  597SOL    MW4 2461   1.775   2.705   1.071 -0.1498 -0.1605 -0.1607
  598SOL     OW 2462   2.028   2.826   1.189  0.1106 -0.0319  0.2759
  598SOL    HW2 2463   2.027   2.921   1.173 -0.2833  0.3689  2.4729
  598SOL    HW3 2464   1.943   2.795   1.158 -0.4362  0.6222  1.1000
  598SOL    MW4 2465   2.017   2.835   1.183 -0.0134  0.1073  0.6744
  599SOL     OW 2466   2.065   3.095   1.101 -0.3544  0.4549  0.3832
  599SOL    HW2 2467   1.977   3.125   1.125 -0.5997 -0.6230  0.8631
  599SOL    HW3 2468   2.072   3.115   1.007 -1.1766  0.4002  0.3058
  599SOL    MW4 2469   2.054   3.102   1.092 -0.4952  0.3054  0.4363
  600SOL     OW 2470   1.813   3.163   1.214  0.4928  0.1116  0.3677
  600SOL    HW2 2471   1.793   3.157   1.307 -0.5102 -0.0992  0.1471
  600SOL    HW3 2472   1.809   3.256   1.193  2.2149  0.3066  0.8472
  600SOL    MW4 2473   1.809   3.174   1.223  0.5877  0.1094  0.4020
  601SOL     OW 2474   1.813   3.428   1.127 -0.1000 -0.1470 -0.4396
  601SOL    HW2 2475   1.895   3.473   1.148 -0.1060  0.3465 -1.4463
  601SOL    HW3 2476   1.747   3.498   1.131 -0.4124 -0.4642 -0.0362
  601SOL    MW4 2477   1.815   3.443   1.131 -0.1419 -0.1235 -0.5190
  602SOL     OW 2478   2.004   3.607   1.217  0.4415 -0.0331  0.0324
  602SOL    HW2 2479   2.018   3.599   1.311 -0.4845 -1.5371  0.0736
  602SOL    HW3 2480   2.083   3.570   1.177  0.0117 -1.1843  0.2335
  602SOL    MW4 2481   2.016   3.601   1.224  0.2625 -0.3834  0.0644
  603SOL     OW 2482   1.805   4.034   1.232  0.3396  0.0826  0.0130
  603SOL    HW2 2483   1.884   3.982   1.219  1.5183  1.5891  0.8718
  603SOL    HW3 2484   1.798   4.044   1.327 -0.3387  0.7408 -0.0963
  603SOL    MW4 2485   1.814   4.029   1.243  0.4054  0.3686  0.1118
  604SOL     OW 2486   2.279   4.013   1.237  0.0090  0.1151 -0.0449
  604SOL    HW2 2487   2.278   4.101   1.200 -0.9544  0.4078  0.6488
  604SOL    HW3 2488   2.207   3.968   1.193  0.3434 -0.2573 -0.2164
  604SOL    MW4 2489   2.270   4.019   1.226 -0.0741  0.1044  0.0240
  605SOL     OW 2490   1.797   4.287   1.117  0.2212 -0.1142  0.0196
  605SOL    HW2 2491   1.780   4.201   1.156 -0.0439 -0.1385 -0.1426
  605SOL    HW3 2492   1.715   4.335   1.131  0.3977  0.1399  0.1809
  605SOL    MW4 2493   1.784   4.282   1.124  0.2095 -0.0839  0.0194
  606SOL     OW 2494   2.041   4.387   1.222  0.1543  0.1344  0.2537
  606SOL    HW2 2495   2.025   4.378   1.316  1.7309 -0.7075  0.4565
  606SOL    HW3 2496   1.959   4.360   1.182 -0.1182 -0.7570  1.3613
  606SOL    MW4 2497   2.028   4.382   1.229  0.3266 -0.0944  0.4267
  607SOL     OW 2498   2.513   4.662   1.093  0.3058  0.0953 -0.4307
  607SOL    HW2 2499   2.582   4.707   1.141  0.9793 -1.9672  0.5911
  607SOL    HW3 2500   2.431   4.694   1.133  0.7493  0.6427  0.0501
  607SOL    MW4 2501   2.511   4.672   1.105  0.4530 -0.1044 -0.2323
  608SOL     OW 2502   2.281   0.076   1.233  0.0511  0.0961  0.2899
  608SOL    HW2 2503   2.286   0.166   1.201 -1.5591  0.6179  1.4592
  608SOL    HW3 2504   2.191   0.048   1.215  0.2567 -0.9375  0.8201
  608SOL    MW4 2505   2.270   0.084   1.226 -0.1340  0.0286  0.5141
  609SOL     OW 2506   2.248   0.355   1.136 -0.3236 -0.3129 -0.7535
  609SOL    HW2 2507   2.179   0.410   1.174 -0.3883 -0.5220 -0.5689
  609SOL    HW3 2508   2.233   0.360   1.041 -0.3053  0.0209 -0.7392
  609SOL    MW4 2509   2.237   0.363   1.128 -0.3297 -0.2965 -0.7274
  610SOL     OW 2510   2.483   0.508   1.202  0.0657  0.6035  0.3737
  610SOL    HW2 2511   2.484   0.508   1.298  0.7856  0.1690  0.3707
  610SOL    HW3 2512   2.401   0.464   1.179  0.9076 -1.2220  0.7929
  610SOL    MW4 2513   2.472   0.502   1.212  0.2718  0.3054  0.4287
  611SOL     OW 2514   2.479   0.763   1.104 -0.3140  0.1618  0.1604
  611SOL    HW2 2515   2.465   0.672   1.129  1.5532  0.0854  1.0208
  611SOL    HW3 2516   2.479   0.762   1.009 -1.1255 -0.5954  0.1594
  611SOL    MW4 2517   2.477   0.751   1.095 -0.1748  0.0518  0.2737
  612SOL     OW 2518   2.235   0.890   1.191 -0.3147 -0.4335  0.5554
  612SOL    HW2 2519   2.314   0.854   1.151 -0.2009  0.4711 -0.0568
  612SOL    HW3 2520   2.165   0.833   1.160  0.1709 -1.6557  1.6531
  612SOL    MW4 2521   2.236   0.878   1.182 -0.2358 -0.4755  0.6195
  613SOL     OW 2522   2.193   1.164   1.128  0.5508  0.4199  0.0097
  613SOL    HW2 2523   2.266   1.208   1.172  0.7658  0.0620  0.0161
  613SOL    HW3 2524   2.200   1.073   1.156 -0.8038  0.6604  1.2305
  613SOL    MW4 2525   2.203   1.158   1.138  0.4003  0.4045  0.1715
  614SOL     OW 2526   2.448   1.273   1.223 -0.2946 -0.0440  0.0522
  614SOL    HW2 2527   2.528   1.232   1.191 -1.3755 -1.3437 -1.0394
  614SOL    HW3 2528   2.448   1.360   1.183  0.9862  0.2815  0.7409
  614SOL    MW4 2529   2.459   1.279   1.214 -0.2682 -0.1725 -0.0010
  615SOL     OW 2530   2.488   1.522   1.128 -0.1239 -0.2344  0.6450
  615SOL    HW2 2531   2.413   1.570   1.163 -0.2106 -0.4145  0.7100
  615SOL    HW3 2532   2.488   1.542   1.034 -0.8723 -1.0465  0.4571
  615SOL    MW4 2533   2.478   1.531   1.120 -0.2341 -0.3654  0.6288
  616SOL     OW 2534   2.273   1.661   1.225  0.0872  0.2301 -0.0432
  616SOL    HW2 2535   2.267   1.756   1.216 -1.8665  0.2290  0.9757
  616SOL    HW3 2536   2.199   1.627   1.174  0.6303 -0.7300 -0.2076
  616SOL    MW4 2537   2.262   1.669   1.217 -0.0989  0.1034  0.0697
  617SOL     OW 2538   2.252   1.915   1.133 -0.2676  0.2256  0.0094
  617SOL    HW2 2539   2.173   1.959   1.161 -0.6664  0.3393 -1.2534
  617SOL    HW3 2540   2.262   1.939   1.041 -0.2783 -1.9813 -0.6084
  617SOL    MW4 2541   2.243   1.924   1.124 -0.3216 -0.0505 -0.2389
  618SOL     OW 2542   2.473   2.087   1.217 -0.3992  0.0608  0.1213
  618SOL    HW2 2543   2.550   2.036   1.192 -0.1914  1.0887 -1.4475
  618SOL    HW3 2544   2.399   2.028   1.205  0.2091 -1.2248  2.5246
  618SOL    MW4 2545   2.473   2.073   1.212 -0.2913  0.0269  0.2314
  619SOL     OW 2546   2.548   2.303   1.087  0.5005  0.0142 -0.2974
  619SOL    HW2 2547   2.532   2.226   1.141 -0.2521 -0.6220 -1.4142
  619SOL    HW3 2548   2.588   2.366   1.147  0.5004 -0.9950  0.7836
  619SOL    MW4 2549   2.551   2.301   1.102  0.4013 -0.2027 -0.3022
  620SOL     OW 2550   2.267   2.409   1.146  0.0168  0.7869 -0.0784
  620SOL    HW2 2551   2.266   2.416   1.241  0.9401  1.2851 -0.1010
  620SOL    HW3 2552   2.348   2.363   1.125 -0.9048 -0.6591 -0.5502
  620SOL    MW4 2553   2.277   2.404   1.156  0.0172  0.6616 -0.1436
  621SOL     OW 2554   2.259   2.684   1.092 -0.3084 -0.3722 -0.3081
  621SOL    HW2 2555   2.257   2.592   1.120 -0.3316 -0.0109  0.8919
  621SOL    HW3 2556   2.186   2.725   1.137 -0.9576  0.0117 -1.6897
  621SOL    MW4 2557   2.249   2.677   1.102 -0.3972 -0.2737 -0.3321
  622SOL     OW 2558   2.490   2.825   1.199 -0.1976  0.3770 -0.2762
  622SOL    HW2 2559   2.488   2.817   1.295 -0.8142  1.2846 -0.2049
  622SOL    HW3 2560   2.405   2.790   1.171  0.2855 -0.5761 -0.5492
  622SOL    MW4 2561   2.478   2.819   1.208 -0.2151  0.3710 -0.3027
  623SOL     OW 2562   2.512   3.091   1.089  0.0989  0.2828  0.1914
  623SOL    HW2 2563   2.438   3.133   1.133 -1.2618 -0.2998 -1.4602
  623SOL    HW3 2564   2.522   3.007   1.134 -1.3948 -0.3886 -0.6575
  623SOL    MW4 2565   2.503   3.085   1.101 -0.2775  0.1173 -0.1386
  624SOL     OW 2566   2.287   3.223   1.234 -0.0895 -0.2138  0.2394
  624SOL    HW2 2567   2.275   3.304   1.184  1.2889 -0.1034  0.0610
  624SOL    HW3 2568   2.222   3.163   1.199 -0.9748  0.7490  0.2219
  624SOL    MW4 2569   2.277   3.226   1.223 -0.0246 -0.0720  0.2135
  625SOL     OW 2570   2.211   3.468   1.091  0.3116  0.6102  0.1459
  625SOL    HW2 2571   2.284   3.517   1.130 -0.7434  1.8119  0.6345
  625SOL    HW3 2572   2.235   3.458   0.999  1.3073  0.5977  0.4050
  625SOL    MW4 2573   2.224   3.473   1.084  0.3040  0.7672  0.2447
  626SOL     OW 2574   2.425   3.578   1.221  0.1461 -0.2506 -0.0341
  626SOL    HW2 2575   2.440   3.577   1.316 -0.7289 -0.5290  0.1003
  626SOL    HW3 2576   2.448   3.667   1.194 -0.1993  0.0095  0.5308
  626SOL    MW4 2577   2.430   3.590   1.230 -0.0148 -0.2530  0.0582
  627SOL     OW 2578   2.498   3.846   1.191  0.6947 -0.1551 -0.6239
  627SOL    HW2 2579   2.436   3.913   1.219  2.1576  0.8646  0.2736
  627SOL    HW3 2580   2.500   3.853   1.096  0.0186  0.3339 -0.6024
  627SOL    MW4 2581   2.490   3.855   1.183  0.7987  0.0439 -0.5026
  628SOL     OW 2582   1.990   3.864   1.123  0.3863  0.0941 -0.0201
  628SOL    HW2 2583   1.961   3.851   1.033 -0.2056 -1.3348  0.3549
  628SOL    HW3 2584   1.996   3.775   1.159  0.0552  0.6803  1.5192
  628SOL    MW4 2585   1.987   3.850   1.116  0.2645 -0.0172  0.2325
  629SOL     OW 2586   2.259   4.242   1.089  0.0766  0.1321  0.0119
  629SOL    HW2 2587   2.195   4.295   1.137  0.7761  0.5517  0.4930
  629SOL    HW3 2588   2.216   4.223   1.006 -0.7440  0.2588  0.3996
  629SOL    MW4 2589   2.245   4.247   1.084  0.0608  0.2046  0.1267
  630SOL     OW 2590   2.451   4.403   1.192 -0.6423 -0.2155  0.0815
  630SOL    HW2 2591   2.389   4.357   1.136 -1.6754  1.6819 -0.3769
  630SOL    HW3 2592   2.470   4.485   1.146 -0.7723  0.9478  2.0269
  630SOL    MW4 2593   2.445   4.408   1.179 -0.7958  0.1884  0.2776
  631SOL     OW 2594   2.940   4.648   1.163 -0.3104  0.2149 -0.2681
  631SOL    HW2 2595   2.927   4.558   1.194 -1.9704  0.3939 -0.4215
  631SOL    HW3 2596   2.937   4.641   1.067  0.2454  0.3473 -0.3001
  631SOL    MW4 2597   2.938   4.635   1.154 -0.4561  0.2565 -0.2927
  632SOL     OW 2598   2.713   0.136   1.236 -0.3700  0.1673  0.3659
  632SOL    HW2 2599   2.701   0.130   1.330  0.3787 -0.2902  0.4349
  632SOL    HW3 2600   2.793   0.087   1.218 -1.4754 -1.3136 -0.7190
  632SOL    MW4 2601   2.722   0.129   1.246 -0.4170 -0.0884  0.2319
  633SOL     OW 2602   2.673   0.378   1.067  0.4720  0.2213  0.7008
  633SOL    HW2 2603   2.696   0.304   1.123 -1.9434  1.1167  3.0081
  633SOL    HW3 2604   2.605   0.424   1.116  0.0605  2.4795 -1.8916
  633SOL    MW4 2605   2.667   0.375   1.081  0.0992  0.6374  0.6632
  634SOL     OW 2606   2.868   0.517   1.206 -0.0447  0.4934  0.5173
  634SOL    HW2 2607   2.871   0.604   1.166 -0.8343 -0.3889 -1.5287
  634SOL    HW3 2608   2.801   0.470   1.156  1.5099 -1.8097  0.5319
  634SOL    MW4 2609   2.860   0.523   1.194  0.0563  0.0731  0.2493
  635SOL     OW 2610   2.900   0.767   1.082  0.1668 -0.1718  0.1728
  635SOL    HW2 2611   2.987   0.791   1.114  0.3989  0.9036 -1.2161
  635SOL    HW3 2612   2.839   0.819   1.135  0.3174 -1.2075  1.4052
  635SOL    MW4 2613   2.903   0.777   1.093  0.2174 -0.1666  0.1522
  636SOL     OW 2614   2.688   0.901   1.217 -0.1385 -0.1534 -0.8099
  636SOL    HW2 2615   2.672   0.987   1.177 -0.2287  0.1751 -0.0745
  636SOL    HW3 2616   2.615   0.847   1.188  0.4222 -0.2648 -2.0621
  636SOL    MW4 2617   2.677   0.905   1.208 -0.0763 -0.1248 -0.8781
  637SOL     OW 2618   2.669   1.150   1.106  0.1792  0.1707  0.4585
  637SOL    HW2 2619   2.751   1.176   1.148  0.1242 -0.4939  0.9952
  637SOL    HW3 2620   2.690   1.147   1.013  1.3143 -1.8565  0.7383
  637SOL    MW4 2621   2.683   1.153   1.100  0.3214 -0.1844  0.5662
  638SOL     OW 2622   2.902   1.223   1.228 -0.5113 -0.0670  0.2174
  638SOL    HW2 2623   2.920   1.236   1.321  1.9925  3.3094 -0.6395
  638SOL    HW3 2624   2.977   1.173   1.196  0.6054  2.1266 -0.6902
  638SOL    MW4 2625   2.914   1.218   1.236 -0.0339  0.6679 -0.0154
  639SOL     OW 2626   2.935   1.498   1.136  0.4115 -0.5242 -0.0038
  639SOL    HW2 2627   3.020   1.530   1.165 -0.6767  0.6079  2.1315
  639SOL    HW3 2628   2.936   1.405   1.156  1.4281 -0.6638 -0.6956
  639SOL    MW4 2629   2.946   1.490   1.143  0.4022 -0.3933  0.1867
  640SOL     OW 2630   2.724   1.680   1.177 -0.0368 -0.1643 -0.4394
  640SOL    HW2 2631   2.797   1.619   1.169 -0.0946 -0.2527 -0.2923
  640SOL    HW3 2632   2.646   1.626   1.159 -0.1857 -0.4077  0.9079
  640SOL    MW4 2633   2.723   1.664   1.174 -0.0641 -0.2081 -0.2422
  641SOL     OW 2634   2.695   1.942   1.160 -0.7817 -0.3345 -0.2583
  641SOL    HW2 2635   2.767   1.978   1.212  0.5105 -1.2474 -1.3803
  641SOL    HW3 2636   2.713   1.848   1.156 -0.9607 -0.3142 -2.1623
  641SOL    MW4 2637   2.707   1.935   1.166 -0.6347 -0.4524 -0.6577
  642SOL     OW 2638   2.932   2.074   1.261  0.1469 -0.2210  0.2131
  642SOL    HW2 2639   2.953   2.077   1.354  0.5804  1.1780  0.0872
  642SOL    HW3 2640   3.001   2.019   1.223  0.8936  0.5026  0.4982
  642SOL    MW4 2641   2.944   2.067   1.268  0.3028  0.0591  0.2341
  643SOL     OW 2642   2.943   2.337   1.170 -0.0169 -0.9720  0.6183
  643SOL    HW2 2643   2.931   2.244   1.191 -0.4228 -0.5507  2.3822
  643SOL    HW3 2644   3.036   2.352   1.184  0.2059 -1.3084 -0.5013
  643SOL    MW4 2645   2.953   2.326   1.175 -0.0410 -0.9608  0.7032
  644SOL     OW 2646   2.710   2.473   1.263 -0.4708 -0.1470  0.1101
  644SOL    HW2 2647   2.677   2.442   1.347 -1.0121  0.7736  0.2490
  644SOL    HW3 2648   2.792   2.426   1.250 -0.3926 -0.3085  1.1465
  644SOL    MW4 2649   2.716   2.463   1.272 -0.5319 -0.0467  0.2651
  645SOL     OW 2650   2.724   2.694   1.109 -0.6481 -0.1414 -0.0708
  645SOL    HW2 2651   2.711   2.615   1.162 -0.0007  0.5197  1.0880
  645SOL    HW3 2652   2.654   2.753   1.137 -0.6728 -0.0250 -0.3841
  645SOL    MW4 2653   2.713   2.691   1.120 -0.5658 -0.0389  0.0408
  646SOL     OW 2654   2.954   2.822   1.208 -0.2027  0.4329  0.1116
  646SOL    HW2 2655   2.942   2.818   1.303  0.7517  0.4583  0.2356
  646SOL    HW3 2656   2.879   2.774   1.172 -0.8392  0.8633  0.8585
  646SOL    MW4 2657   2.942   2.815   1.216 -0.1607  0.4930  0.2265
  647SOL     OW 2658   2.941   3.082   1.127 -0.3106 -0.0058  0.4336
  647SOL    HW2 2659   2.937   2.989   1.150 -0.8753 -0.1610 -0.2824
  647SOL    HW3 2660   2.916   3.085   1.035  0.5567  0.7602  0.2156
  647SOL    MW4 2661   2.938   3.070   1.118 -0.2704  0.0746  0.3102
  648SOL     OW 2662   2.717   3.226   1.218  0.3155  0.3107  0.0732
  648SOL    HW2 2663   2.800   3.182   1.197 -0.5159 -2.8905  2.9574
  648SOL    HW3 2664   2.651   3.177   1.170 -0.3332  0.1912  1.0701
  648SOL    MW4 2665   2.719   3.214   1.209  0.1202 -0.1273  0.5853
  649SOL     OW 2666   2.629   3.474   1.079  0.0954  0.1330  0.1599
  649SOL    HW2 2667   2.669   3.405   1.133 -1.0605 -0.3019  0.4678
  649SOL    HW3 2668   2.560   3.510   1.134  0.2503  1.0965 -0.2618
  649SOL    MW4 2669   2.625   3.470   1.093 -0.0367  0.2027  0.1448
  650SOL     OW 2670   2.871   3.615   1.154 -0.2474  0.3644  0.2017
  650SOL    HW2 2671   2.949   3.564   1.136 -0.9631 -1.1722  1.3165
  650SOL    HW3 2672   2.799   3.562   1.118 -0.7870  1.7690 -0.8484
  650SOL    MW4 2673   2.872   3.602   1.147 -0.4132  0.3471  0.2102
  651SOL     OW 2674   2.909   3.876   1.096 -0.3169  0.0168 -0.0927
  651SOL    HW2 2675   2.984   3.898   1.151 -2.0526  0.6201  2.1028
  651SOL    HW3 2676   2.889   3.785   1.117  0.7879 -0.6926 -1.9292
  651SOL    MW4 2677   2.916   3.867   1.106 -0.3998  0.0031 -0.0453
  652SOL     OW 2678   2.708   4.001   1.231 -0.4082  0.5931 -0.3934
  652SOL    HW2 2679   2.785   3.960   1.191 -1.1805 -1.3534  0.0330
  652SOL    HW3 2680   2.635   3.944   1.206 -1.3233  0.9404  1.3898
  652SOL    MW4 2681   2.708   3.988   1.222 -0.6306  0.3819 -0.1019
  653SOL     OW 2682   2.686   4.249   1.136 -0.1524  0.1244  0.7114
  653SOL    HW2 2683   2.693   4.162   1.174 -1.2998 -1.2637 -2.1276
  653SOL    HW3 2684   2.597   4.277   1.155 -0.4323 -0.1825 -0.1399
  653SOL    MW4 2685   2.675   4.241   1.144 -0.3407 -0.0992  0.2245
  654SOL     OW 2686   2.881   4.387   1.251  0.1326 -0.0215  0.0740
  654SOL    HW2 2687   2.957   4.337   1.222  0.8575  0.5432  0.9457
  654SOL    HW3 2688   2.806   4.336   1.223  0.8497 -1.1699  0.1996
  654SOL    MW4 2689   2.881   4.374   1.244  0.3228 -0.0982  0.2055
  655SOL     OW 2690   3.380   4.637   1.183 -0.5445  0.0792  0.3220
  655SOL    HW2 2691   3.459   4.682   1.215 -0.1928  0.1166 -0.5753
  655SOL    HW3 2692   3.307   4.687   1.219 -0.1486  0.7139  0.2479
  655SOL    MW4 2693   3.381   4.650   1.192 -0.4461  0.1683  0.1938
  656SOL     OW 2694   3.150   0.138   1.269  0.6564 -0.0162  0.1590
  656SOL    HW2 2695   3.131   0.119   1.361 -0.5692  1.2015  0.1687
  656SOL    HW3 2696   3.077   0.098   1.222  0.5781  0.5330 -0.1827
  656SOL    MW4 2697   3.138   0.130   1.275  0.4845  0.2169  0.1152
  657SOL     OW 2698   3.112   0.388   1.177  0.1624  0.7091  0.0797
  657SOL    HW2 2699   3.118   0.294   1.196  1.1809  0.5561 -0.9672
  657SOL    HW3 2700   3.019   0.407   1.183 -0.1268 -0.5038 -0.3179
  657SOL    MW4 2701   3.101   0.378   1.180  0.2589  0.5289 -0.1109
  658SOL     OW 2702   3.342   0.483   1.288  0.4152  0.0374  0.1151
  658SOL    HW2 2703   3.350   0.555   1.226 -0.2632  1.1203  1.2634
  658SOL    HW3 2704   3.253   0.450   1.275 -0.3798  1.4720  1.7846
  658SOL    MW4 2705   3.332   0.488   1.278  0.2208  0.3695  0.4870
  659SOL     OW 2706   3.353   0.691   1.085 -0.0229  0.1701 -0.4198
  659SOL    HW2 2707   3.281   0.749   1.110  0.4377  0.9813 -0.9500
  659SOL    HW3 2708   3.367   0.710   0.993  1.4704  0.6800 -0.1011
  659SOL    MW4 2709   3.345   0.701   1.076  0.2348  0.3444 -0.4478
  660SOL     OW 2710   3.138   0.847   1.213 -0.4827  0.1789 -0.3722
  660SOL    HW2 2711   3.130   0.845   1.308 -0.2335 -0.0838 -0.3551
  660SOL    HW3 2712   3.156   0.939   1.193  0.2112  0.1071 -0.0995
  660SOL    MW4 2713   3.139   0.859   1.223 -0.3581  0.1348 -0.3340
  661SOL     OW 2714   3.144   1.113   1.125 -0.2402 -0.1625  0.4693
  661SOL    HW2 2715   3.232   1.148   1.142 -1.0577  0.8445  2.8121
  661SOL    HW3 2716   3.130   1.128   1.031  1.8396  0.2332  0.1985
  661SOL    MW4 2717   3.154   1.120   1.115 -0.0739  0.0224  0.7428
  662SOL     OW 2718   3.411   1.221   1.196  0.2244  0.1529 -0.4051
  662SOL    HW2 2719   3.412   1.231   1.291 -0.0120 -0.3223 -0.3476
  662SOL    HW3 2720   3.399   1.309   1.162 -1.0893  0.1536  0.0494
  662SOL    MW4 2721   3.410   1.234   1.204  0.0200  0.0901 -0.3375
  663SOL     OW 2722   3.401   1.488   1.135 -0.1021  0.2734 -0.0786
  663SOL    HW2 2723   3.484   1.515   1.175  0.4459 -0.9986 -0.3107
  663SOL    HW3 2724   3.335   1.543   1.175  0.8028  0.9483  0.4980
  663SOL    MW4 2725   3.404   1.499   1.145  0.0899  0.1947 -0.0331
  664SOL     OW 2726   3.170   1.617   1.227 -0.0094  0.0214 -0.1710
  664SOL    HW2 2727   3.150   1.622   1.320 -1.0746 -1.8570 -0.2738
  664SOL    HW3 2728   3.160   1.707   1.196 -0.5006  0.5090  1.3512
  664SOL    MW4 2729   3.166   1.630   1.235 -0.2148 -0.1620  0.0163
  665SOL     OW 2730   3.162   1.897   1.142  0.6433  0.1588 -0.3483
  665SOL    HW2 2731   3.170   1.915   1.048 -0.2817 -0.0457 -0.4702
  665SOL    HW3 2732   3.240   1.936   1.181  1.3320 -0.2665 -1.2777
  665SOL    MW4 2733   3.173   1.904   1.135  0.6120  0.0757 -0.4870
  666SOL     OW 2734   3.402   1.984   1.258  0.2201  0.3494 -0.0020
  666SOL    HW2 2735   3.467   1.940   1.203  1.1777  0.5693  0.9351
  666SOL    HW3 2736   3.424   2.077   1.251 -1.2264  0.6021 -1.2479
  666SOL    MW4 2737   3.414   1.990   1.250  0.1554  0.4116 -0.0428
  667SOL     OW 2738   3.458   2.252   1.274  0.4021 -0.1060  0.0214
  667SOL    HW2 2739   3.513   2.294   1.340  0.9393  0.3272 -0.6884
  667SOL    HW3 2740   3.379   2.306   1.271  0.1806 -0.3941  0.6357
  667SOL    MW4 2741   3.455   2.265   1.282  0.4439 -0.0868  0.0089
  668SOL     OW 2742   3.217   2.405   1.201  0.4138  0.2394 -0.2266
  668SOL    HW2 2743   3.199   2.497   1.179  3.0046  1.1179  1.0764
  668SOL    HW3 2744   3.191   2.396   1.293 -0.6542 -0.5821 -0.6017
  668SOL    MW4 2745   3.211   2.416   1.210  0.6146  0.2470 -0.1041
  669SOL     OW 2746   3.155   2.666   1.132 -0.1285  0.0220  0.1083
  669SOL    HW2 2747   3.076   2.713   1.157 -0.3663 -0.0179 -0.5661
  669SOL    HW3 2748   3.152   2.663   1.037 -0.2761 -1.6365  0.1610
  669SOL    MW4 2749   3.144   2.672   1.123 -0.1793 -0.2022  0.0263
  670SOL     OW 2750   3.397   2.824   1.212 -0.5806  0.3844 -0.1789
  670SOL    HW2 2751   3.387   2.895   1.149 -1.1644  0.3273 -0.1552
  670SOL    HW3 2752   3.313   2.777   1.209 -0.3824  0.0017  0.1748
  670SOL    MW4 2753   3.384   2.827   1.203 -0.6313  0.3262 -0.1292
  671SOL     OW 2754   3.370   3.109   1.114  0.2016  0.1387  0.6967
  671SOL    HW2 2755   3.436   3.139   1.177 -0.3334 -0.0143  1.3340
  671SOL    HW3 2756   3.288   3.145   1.148  0.1215  1.4234 -0.7874
  671SOL    MW4 2757   3.368   3.118   1.127  0.1206  0.2880  0.5850
  672SOL     OW 2758   3.155   3.192   1.255  0.2638  0.4281 -0.3660
  672SOL    HW2 2759   3.144   3.284   1.229  1.7523  1.0502  1.0257
  672SOL    HW3 2760   3.084   3.146   1.212  0.0854  2.0794 -1.9153
  672SOL    MW4 2761   3.144   3.198   1.246  0.4368  0.7281 -0.3867
  673SOL     OW 2762   3.105   3.462   1.157  0.4963  0.1062  0.1577
  673SOL    HW2 2763   3.174   3.521   1.188 -0.2981  1.1635 -0.0442
  673SOL    HW3 2764   3.123   3.452   1.063  1.1322 -0.6606  0.3614
  673SOL    MW4 2765   3.116   3.469   1.149  0.4756  0.1445  0.1578
  674SOL     OW 2766   3.333   3.608   1.238  0.4157 -0.5653 -0.2314
  674SOL    HW2 2767   3.367   3.635   1.323  0.3095 -0.1249 -0.3252
  674SOL    HW3 2768   3.405   3.560   1.197  0.2074 -1.4460  0.4154
  674SOL    MW4 2769   3.347   3.605   1.244  0.3743 -0.6232 -0.1584
  675SOL     OW 2770   3.379   3.882   1.185  0.0782 -0.4614  0.1767
  675SOL    HW2 2771   3.291   3.921   1.185  0.1703 -0.1839  2.4106
  675SOL    HW3 2772   3.365   3.791   1.209  0.2544 -0.8182 -1.0662
  675SOL    MW4 2773   3.365   3.875   1.188  0.1137 -0.4718  0.3074
  676SOL     OW 2774   3.117   3.976   1.239 -0.0846 -0.1014  0.3157
  676SOL    HW2 2775   3.136   3.983   1.333 -1.7983  1.0161  0.6029
  676SOL    HW3 2776   3.110   4.067   1.209 -1.4811 -0.4494 -0.4658
  676SOL    MW4 2777   3.119   3.989   1.248 -0.4950  0.0005  0.2506
  677SOL     OW 2778   3.087   4.242   1.144 -0.1954  0.1963  0.3553
  677SOL    HW2 2779   3.163   4.285   1.183  1.0544 -0.8760 -0.8411
  677SOL    HW3 2780   3.109   4.235   1.051 -0.3137 -3.1018  0.5153
  677SOL    MW4 2781   3.099   4.247   1.137 -0.0463 -0.3805  0.2186
  678SOL     OW 2782   3.315   4.365   1.250 -0.1491  0.0091 -0.5820
  678SOL    HW2 2783   3.397   4.318   1.238  0.4439  0.0998  2.5711
  678SOL    HW3 2784   3.333   4.453   1.216  1.4361  0.3504  1.0688
  678SOL    MW4 2785   3.328   4.370   1.244  0.1385  0.0663  0.0519
  679SOL     OW 2786   3.883   4.616   1.167  0.0672  0.1713  0.5976
  679SOL    HW2 2787   3.863   4.531   1.206 -0.5499  0.0116 -0.0502
  679SOL    HW3 2788   3.861   4.605   1.074 -0.2723  1.1123  0.5632
  679SOL    MW4 2789   3.877   4.603   1.160 -0.0591  0.2742  0.5075
  680SOL     OW 2790   3.651   0.076   1.302  0.1182 -0.0680  0.2501
  680SOL    HW2 2791   3.646   0.164   1.265 -0.3960 -0.3530 -0.3620
  680SOL    HW3 2792   3.731   0.039   1.264 -0.4706 -0.4004 -0.6639
  680SOL    MW4 2793   3.661   0.082   1.292 -0.0272 -0.1494  0.0486
  681SOL     OW 2794   3.351   0.943   0.377 -0.4784  0.2167  0.2657
  681SOL    HW2 2795   3.295   0.933   0.299 -0.4283  1.7422  0.0200
  681SOL    HW3 2796   3.354   1.038   0.392  1.3354  0.0767  0.8029
  681SOL    MW4 2797   3.344   0.954   0.369 -0.2325  0.3995  0.3042
  682SOL     OW 2798   3.580   0.333   1.221 -0.1774 -0.0348 -0.0153
  682SOL    HW2 2799   3.503   0.384   1.245 -0.4003 -0.8114  0.9760
  682SOL    HW3 2800   3.654   0.389   1.246 -0.4172 -0.0383  0.7103
  682SOL    MW4 2801   3.580   0.347   1.227 -0.2382 -0.1377  0.2112
  683SOL     OW 2802   3.799   0.487   1.270 -0.3539  0.3843 -0.4024
  683SOL    HW2 2803   3.882   0.447   1.243 -0.1018  0.9154 -0.4219
  683SOL    HW3 2804   3.797   0.571   1.223 -0.8039  0.4624 -0.2394
  683SOL    MW4 2805   3.810   0.493   1.260 -0.3800  0.4647 -0.3836
  684SOL     OW 2806   3.554   0.821   1.215 -0.3129 -0.3177 -0.4726
  684SOL    HW2 2807   3.552   0.903   1.165 -1.9806  0.2338  0.4550
  684SOL    HW3 2808   3.481   0.771   1.179 -0.5241 -0.5768  0.3163
  684SOL    MW4 2809   3.544   0.825   1.203 -0.5605 -0.2792 -0.2460
  685SOL     OW 2810   3.606   1.066   1.092 -0.1653  0.2890 -0.3029
  685SOL    HW2 2811   3.691   1.098   1.122  0.4653 -0.9318 -0.7090
  685SOL    HW3 2812   3.542   1.119   1.138  0.8043  0.2310  1.1380
  685SOL    MW4 2813   3.609   1.077   1.102  0.0458  0.1204 -0.1663
  686SOL     OW 2814   3.808   1.209   1.212  0.0129 -0.4139  0.3117
  686SOL    HW2 2815   3.814   1.226   1.306  0.1144  0.7634  0.0955
  686SOL    HW3 2816   3.805   1.296   1.172 -1.3537 -0.9089 -0.6871
  686SOL    MW4 2817   3.808   1.223   1.219 -0.1540 -0.3239  0.1515
  687SOL     OW 2818   3.820   1.502   1.134  0.1683 -0.1037 -0.3848
  687SOL    HW2 2819   3.749   1.532   1.190  0.4154  0.2654 -0.2743
  687SOL    HW3 2820   3.897   1.551   1.163  0.4620 -0.4766 -0.5287
  687SOL    MW4 2821   3.821   1.512   1.145  0.2398 -0.1042 -0.3891
  688SOL     OW 2822   3.628   1.622   1.275 -0.1618  0.0207  0.4762
  688SOL    HW2 2823   3.635   1.714   1.249  1.2441 -0.0918  0.4266
  688SOL    HW3 2824   3.618   1.625   1.371  2.2618  0.1618  0.7646
  688SOL    MW4 2825   3.628   1.635   1.285  0.3433  0.0243  0.5077
  689SOL     OW 2826   3.643   1.883   1.148  0.0791  0.1000  0.3299
  689SOL    HW2 2827   3.710   1.948   1.170 -0.3634  0.1286  1.6143
  689SOL    HW3 2828   3.649   1.875   1.052  1.6875  0.3386  0.3841
  689SOL    MW4 2829   3.653   1.891   1.138  0.2332  0.1353  0.5066
  690SOL     OW 2830   3.839   2.056   1.219 -0.2146 -0.0277  0.0884
  690SOL    HW2 2831   3.844   2.040   1.313 -2.2536 -0.9390  0.0670
  690SOL    HW3 2832   3.925   2.031   1.186 -0.1172 -1.5735  1.4488
  690SOL    MW4 2833   3.851   2.051   1.227 -0.4706 -0.3519  0.2652
  691SOL     OW 2834   3.708   2.263   1.036  0.2035  0.2689  0.7197
  691SOL    HW2 2835   3.728   2.336   1.094 -0.6308 -0.5049  2.0268
  691SOL    HW3 2836   3.738   2.185   1.083 -0.8674 -0.4146  0.3092
  691SOL    MW4 2837   3.714   2.262   1.050 -0.0479  0.0768  0.8380
  692SOL     OW 2838   3.746   2.469   1.241 -0.1060  0.9493  0.1721
  692SOL    HW2 2839   3.695   2.448   1.319  1.9831  0.4841  1.4444
  692SOL    HW3 2840   3.836   2.443   1.263  0.2662 -0.6352 -2.9471
  692SOL    MW4 2841   3.751   2.463   1.254  0.2186  0.6788 -0.0715
  693SOL     OW 2842   3.650   2.725   1.129  0.8567 -0.1144  0.1216
  693SOL    HW2 2843   3.661   2.637   1.166  0.4157 -0.0504  0.4144
  693SOL    HW3 2844   3.560   2.749   1.152  0.9712  0.4054  0.0249
  693SOL    MW4 2845   3.639   2.716   1.137  0.8135 -0.0377  0.1476
  694SOL     OW 2846   3.859   2.862   1.240 -0.6847  0.0859 -0.2058
  694SOL    HW2 2847   3.852   2.855   1.335 -1.4609  0.7626 -0.2045
  694SOL    HW3 2848   3.780   2.818   1.207  0.5387 -1.8495 -0.6149
  694SOL    MW4 2849   3.847   2.855   1.248 -0.6258 -0.0801 -0.2595
  695SOL     OW 2850   3.799   3.108   1.115 -0.2278  0.1546 -0.4047
  695SOL    HW2 2851   3.828   3.021   1.145 -1.4040 -0.3790 -0.8059
  695SOL    HW3 2852   3.798   3.101   1.019 -0.7340  0.4785 -0.4249
  695SOL    MW4 2853   3.803   3.096   1.106 -0.4499  0.1268 -0.4603
  696SOL     OW 2854   3.583   3.236   1.275  0.5479 -0.5742  0.1127
  696SOL    HW2 2855   3.590   3.330   1.258  0.8850 -0.6967 -0.4429
  696SOL    HW3 2856   3.664   3.199   1.239 -0.6593 -1.3906 -1.8854
  696SOL    MW4 2857   3.595   3.244   1.268  0.4330 -0.6983 -0.2242
  697SOL     OW 2858   3.581   3.496   1.168 -0.1324 -0.0037  0.3354
  697SOL    HW2 2859   3.661   3.547   1.183  0.3940 -0.6311 -0.2812
  697SOL    HW3 2860   3.578   3.483   1.073 -0.7357 -0.3539  0.4003
  697SOL    MW4 2861   3.592   3.501   1.157 -0.1423 -0.1326  0.2627
  698SOL     OW 2862   3.813   3.625   1.267 -0.4279 -0.3293 -0.1524
  698SOL    HW2 2863   3.790   3.618   1.360  1.5564 -0.9759  0.3169
  698SOL    HW3 2864   3.824   3.719   1.252 -1.6608 -0.1416  0.0102
  698SOL    MW4 2865   3.811   3.636   1.278 -0.3288 -0.3898 -0.0690
  699SOL     OW 2866   3.859   3.902   1.215  0.0303 -0.4780  0.2089
  699SOL    HW2 2867   3.770   3.928   1.236  0.0015  0.1000 -0.5523
  699SOL    HW3 2868   3.857   3.884   1.121  0.6664 -0.6528  0.2240
  699SOL    MW4 2869   3.847   3.903   1.205  0.1104 -0.4249  0.1103
  700SOL     OW 2870   3.607   3.984   1.285  0.1302 -0.3786  0.0664
  700SOL    HW2 2871   3.598   3.994   1.380  1.1593  1.0957  0.0265
  700SOL    HW3 2872   3.521   3.951   1.257 -0.4976  0.0708  1.3898
  700SOL    MW4 2873   3.594   3.981   1.294  0.1829 -0.1247  0.2357
  701SOL     OW 2874   3.580   4.255   1.225 -0.1040 -0.0547  0.2563
  701SOL    HW2 2875   3.580   4.163   1.252  2.5259  0.3768  1.8700
  701SOL    HW3 2876   3.598   4.251   1.131  0.5543 -1.1691  0.4142
  701SOL    MW4 2877   3.582   4.242   1.216  0.3300 -0.1450  0.4901
  702SOL     OW 2878   3.835   4.377   1.317 -0.1703 -0.0814  0.5631
  702SOL    HW2 2879   3.822   4.378   1.412 -0.2385 -0.1069  0.5539
  702SOL    HW3 2880   3.753   4.341   1.282 -0.7865  1.4635  0.3796
  702SOL    MW4 2881   3.822   4.372   1.325 -0.2604  0.1187  0.5376
  703SOL     OW 2882   4.317   0.009   1.254 -0.0001 -0.5190 -0.1024
  703SOL    HW2 2883   4.305  -0.084   1.270 -1.1582 -0.3855 -0.1731
  703SOL    HW3 2884   4.232   0.049   1.275  0.7488  0.6319  0.8185
  703SOL    MW4 2885   4.304   0.002   1.259 -0.0544 -0.3495  0.0098
  704SOL     OW 2886   4.073   0.120   1.286 -0.1137 -0.0869 -0.1244
  704SOL    HW2 2887   4.057   0.119   1.381  1.5457 -0.5418  0.1615
  704SOL    HW3 2888   4.009   0.057   1.251  0.7718 -1.6320  0.9517
  704SOL    MW4 2889   4.062   0.111   1.294  0.2222 -0.3508  0.0553
  705SOL     OW 2890   4.028   0.370   1.190 -0.3019  0.2290 -0.1799
  705SOL    HW2 2891   4.039   0.368   1.095 -0.6338  1.0298 -0.2379
  705SOL    HW3 2892   4.053   0.282   1.219 -0.1688 -0.0064 -1.0018
  705SOL    MW4 2893   4.033   0.358   1.182 -0.3285  0.3037 -0.2959
  706SOL     OW 2894   4.280   0.473   1.274  0.2571  0.3123 -0.4232
  706SOL    HW2 2895   4.292   0.473   1.369  0.5234 -1.8432 -0.4257
  706SOL    HW3 2896   4.202   0.419   1.259  0.9894 -0.4873 -1.4984
  706SOL    MW4 2897   4.271   0.466   1.284  0.3886 -0.0776 -0.5654
  707SOL     OW 2898   4.241   0.733   1.169 -0.2707 -0.0381 -0.0540
  707SOL    HW2 2899   4.256   0.644   1.202  0.5419 -0.1132 -0.5889
  707SOL    HW3 2900   4.269   0.729   1.077 -0.9805  0.5689 -0.2971
  707SOL    MW4 2901   4.247   0.720   1.161 -0.2565  0.0320 -0.1566
  708SOL     OW 2902   4.004   0.856   1.245 -0.0708  0.2657 -0.8768
  708SOL    HW2 2903   4.002   0.857   1.341 -0.4165  1.8981 -0.8820
  708SOL    HW3 2904   4.082   0.805   1.223  0.3353  0.3836  0.2751
  708SOL    MW4 2905   4.014   0.849   1.255 -0.0625  0.4967 -0.7255
  709SOL     OW 2906   4.054   1.112   1.181 -0.2457 -0.1162  0.3051
  709SOL    HW2 2907   4.056   1.020   1.207  0.8302 -0.3056 -0.4425
  709SOL    HW3 2908   3.967   1.142   1.208  0.3848 -0.6090  3.0504
  709SOL    MW4 2909   4.042   1.104   1.188 -0.0210 -0.2061  0.5685
  710SOL     OW 2910   4.252   1.282   1.258  0.0442  0.5164  0.0466
  710SOL    HW2 2911   4.240   1.284   1.353  1.6576  0.8845  0.2544
  710SOL    HW3 2912   4.179   1.229   1.226 -0.4815  0.3423  1.4956
  710SOL    MW4 2913   4.241   1.275   1.266  0.1874  0.5422  0.2654
  711SOL     OW 2914   3.572   1.640   0.753  0.3036  0.0076  0.3408
  711SOL    HW2 2915   3.579   1.649   0.658 -0.9170 -2.4865 -0.0475
  711SOL    HW3 2916   3.658   1.610   0.781  0.7923  1.1591  0.0831
  711SOL    MW4 2917   3.584   1.637   0.744  0.2067 -0.1695  0.2555
  712SOL     OW 2918   4.035   1.676   1.225 -0.3294  0.1267 -0.3720
  712SOL    HW2 2919   4.025   1.658   1.318 -0.6184  0.9510 -0.2377
  712SOL    HW3 2920   4.117   1.632   1.201  1.2644  2.2946  0.9170
  712SOL    MW4 2921   4.045   1.668   1.234 -0.1574  0.5215 -0.1843
  713SOL     OW 2922   4.482   1.641   1.284 -0.0295 -0.0180 -0.3187
  713SOL    HW2 2923   4.489   1.713   1.221  0.9680  0.4058  0.2562
  713SOL    HW3 2924   4.554   1.582   1.262 -0.5069 -0.5685 -0.4323
  713SOL    MW4 2925   4.492   1.643   1.273  0.0391 -0.0348 -0.2578
  714SOL     OW 2926   4.311   2.077   1.227 -0.0092  0.0257 -0.0323
  714SOL    HW2 2927   4.317   2.172   1.210 -2.1119  0.4663  1.6203
  714SOL    HW3 2928   4.227   2.051   1.189  0.4381 -1.1499 -0.2348
  714SOL    MW4 2929   4.301   2.086   1.220 -0.2279 -0.0715  0.1591
  715SOL     OW 2930   4.075   1.969   1.129 -0.1278  1.0250  0.0539
  715SOL    HW2 2931   4.074   1.877   1.158  0.5580  0.8562 -0.4435
  715SOL    HW3 2932   4.057   1.965   1.035 -1.4338  1.5075  0.2819
  715SOL    MW4 2933   4.072   1.956   1.121 -0.2093  1.0662  0.0185
  716SOL     OW 2934   4.026   2.426   1.252  0.0815  0.0537  0.1302
  716SOL    HW2 2935   4.036   2.429   1.347 -0.9761  0.0727  0.2517
  716SOL    HW3 2936   4.055   2.512   1.222  1.9101 -0.5085  0.2806
  716SOL    MW4 2937   4.031   2.438   1.261  0.1831 -0.0179  0.1661
  717SOL     OW 2938   4.076   2.686   1.136  0.2490  0.2489  0.0799
  717SOL    HW2 2939   3.997   2.725   1.174  0.4682  1.8589 -1.0506
  717SOL    HW3 2940   4.057   2.681   1.042  0.7031 -1.2910  0.0598
  717SOL    MW4 2941   4.063   2.690   1.129  0.3381  0.2580 -0.0719
  718SOL     OW 2942   4.322   2.831   1.210  0.0713 -0.2441  0.7372
  718SOL    HW2 2943   4.288   2.917   1.187  0.3606 -0.3996 -0.3452
  718SOL    HW3 2944   4.258   2.769   1.173 -0.5935 -0.4838  2.2779
  718SOL    MW4 2945   4.309   2.834   1.202  0.0215 -0.2964  0.7976
  719SOL     OW 2946   4.242   3.088   1.144  0.0731  0.1411  0.3659
  719SOL    HW2 2947   4.162   3.137   1.163 -1.1711 -1.6840 -0.1352
  719SOL    HW3 2948   4.242   3.078   1.049 -0.6794 -2.4618  0.6041
  719SOL    MW4 2949   4.232   3.094   1.134 -0.1903 -0.4432  0.3310
  720SOL     OW 2950   4.027   3.233   1.228 -0.2961  0.0486 -0.6348
  720SOL    HW2 2951   4.002   3.238   1.320 -1.5037  0.7640 -0.9862
  720SOL    HW3 2952   3.957   3.181   1.187  0.3045 -0.3796 -1.1170
  720SOL    MW4 2953   4.014   3.227   1.235 -0.3757  0.0865 -0.7447
  721SOL     OW 2954   4.010   3.495   1.150 -0.3318 -0.1193 -0.0795
  721SOL    HW2 2955   4.007   3.401   1.169  0.7144 -0.3362 -0.9293
  721SOL    HW3 2956   3.941   3.533   1.205 -0.4355 -1.3173  0.6365
  721SOL    MW4 2957   4.001   3.487   1.160 -0.2079 -0.3061 -0.0973
  722SOL     OW 2958   4.283   3.625   1.261  0.3571  0.0998  0.3744
  722SOL    HW2 2959   4.208   3.568   1.242  0.6171 -0.7196  1.7509
  722SOL    HW3 2960   4.354   3.589   1.207 -0.0498  0.4805 -0.4346
  722SOL    MW4 2961   4.282   3.613   1.251  0.3376  0.0417  0.4492
  723SOL     OW 2962   4.252   3.873   1.156 -0.1473 -0.2639 -0.4603
  723SOL    HW2 2963   4.198   3.927   1.213  0.6221 -0.2211  0.2418
  723SOL    HW3 2964   4.263   3.791   1.204 -0.2129 -0.5494 -0.9297
  723SOL    MW4 2965   4.247   3.869   1.170 -0.0544 -0.2959 -0.4296
  724SOL     OW 2966   4.093   4.042   1.302 -0.2217 -0.1101 -0.4747
  724SOL    HW2 2967   4.088   4.129   1.263 -0.0520 -0.5184 -1.4114
  724SOL    HW3 2968   4.013   3.997   1.275 -1.0074  0.2343  1.2071
  724SOL    MW4 2969   4.082   4.047   1.293 -0.3028 -0.1183 -0.3765
  725SOL     OW 2970   4.054   4.295   1.192  0.0441  0.5332  0.2560
  725SOL    HW2 2971   3.986   4.321   1.254 -0.3703 -1.7940  0.8175
  725SOL    HW3 2972   4.011   4.298   1.107 -0.2461  0.8477  0.4124
  725SOL    MW4 2973   4.040   4.299   1.189 -0.0486  0.2680  0.3508
  726SOL     OW 2974   4.283   4.398   1.295 -0.0817  0.0009 -0.1146
  726SOL    HW2 2975   4.210   4.346   1.260  0.2369 -0.4131 -0.1621
  726SOL    HW3 2976   4.360   4.366   1.249  0.2341 -0.0463  0.4331
  726SOL    MW4 2977   4.283   4.387   1.285  0.0019 -0.0606 -0.0486
  727SOL     OW 2978   0.171   4.226   1.491 -0.0120 -0.3216 -0.4274
  727SOL    HW2 2979   0.127   4.271   1.563 -1.5501  0.1073 -1.5835
  727SOL    HW3 2980   0.126   4.141   1.485 -0.3421 -0.0914 -1.2893
  727SOL    MW4 2981   0.159   4.220   1.499 -0.2585 -0.2341 -0.6937
  728SOL     OW 2982   0.036   0.098   1.621 -0.0600  0.2247 -0.3740
  728SOL    HW2 2983  -0.034   0.032   1.625 -1.7612  1.9710 -0.4321
  728SOL    HW3 2984   0.049   0.114   1.528 -2.0604  2.3982 -0.3280
  728SOL    MW4 2985   0.028   0.091   1.609 -0.5484  0.7419 -0.3755
  729SOL     OW 2986   0.020   0.366   1.710  0.0824 -0.3107  0.0495
  729SOL    HW2 2987   0.008   0.377   1.804  1.6315  1.1596  0.0876
  729SOL    HW3 2988   0.009   0.272   1.695 -1.5527 -0.3558  1.4835
  729SOL    MW4 2989   0.017   0.355   1.720  0.0711 -0.1227  0.2438
  730SOL     OW 2990   0.227   0.474   1.586  0.0665 -0.0905 -0.6800
  730SOL    HW2 2991   0.151   0.436   1.629 -0.9105  0.4831 -1.8585
  730SOL    HW3 2992   0.200   0.485   1.495  1.3535  0.6773 -0.9873
  730SOL    MW4 2993   0.213   0.471   1.579  0.1073  0.0865 -0.8759
  731SOL     OW 2994   0.231   0.763   1.637 -0.3480  0.7018 -0.0076
  731SOL    HW2 2995   0.308   0.788   1.586 -0.5025 -0.7112 -0.9287
  731SOL    HW3 2996   0.232   0.668   1.638 -0.9747  0.6948  1.6788
  731SOL    MW4 2997   0.241   0.754   1.631 -0.4511  0.5145  0.0935
  732SOL     OW 2998   0.003   0.876   1.536  0.2286 -0.5003 -0.2574
  732SOL    HW2 2999   0.010   0.966   1.568  1.4387 -0.4547 -0.6355
  732SOL    HW3 3000   0.082   0.833   1.567 -0.0066 -1.2463 -0.6728
  732SOL    MW4 3001   0.014   0.882   1.544  0.3572 -0.5926 -0.3619
  733SOL     OW 3002   0.006   1.135   1.618  0.4462  0.5327  0.0065
  733SOL    HW2 3003   0.002   1.126   1.714  1.7135  0.4309  0.0604
  733SOL    HW3 3004   0.085   1.187   1.603  1.6888 -1.6263 -1.1203
  733SOL    MW4 3005   0.016   1.141   1.629  0.7772  0.2342 -0.1351
  734SOL     OW 3006   0.246   1.269   1.550  0.7321 -0.3552 -0.2172
  734SOL    HW2 3007   0.241   1.362   1.572  1.4505 -0.1123 -1.0857
  734SOL    HW3 3008   0.244   1.266   1.455  1.3621 -1.1930 -0.2133
  734SOL    MW4 3009   0.245   1.281   1.541  0.9100 -0.4337 -0.3313
  735SOL     OW 3010   0.192   1.530   1.602 -0.1456  0.1191  0.6263
  735SOL    HW2 3011   0.207   1.544   1.696 -0.9841  2.0414  0.5033
  735SOL    HW3 3012   0.118   1.587   1.581  0.8649  0.7027 -1.4663
  735SOL    MW4 3013   0.184   1.540   1.611 -0.1229  0.4498  0.3340
  736SOL     OW 3014   4.479   1.694   1.546  0.4010  0.3316 -0.3322
  736SOL    HW2 3015   4.496   1.787   1.557 -1.7884  0.7020  0.2265
  736SOL    HW3 3016   4.475   1.681   1.451 -0.5116  1.0687 -0.4034
  736SOL    MW4 3017   4.481   1.704   1.535 -0.0086  0.4777 -0.2679
  737SOL     OW 3018   0.061   1.944   1.570  0.2227 -0.0788  0.1956
  737SOL    HW2 3019   0.062   1.940   1.666  0.1061 -0.1326  0.1940
  737SOL    HW3 3020  -0.019   1.990   1.548  1.0797  1.4317  0.1750
  737SOL    MW4 3021   0.051   1.949   1.580  0.3204  0.1134  0.1928
  738SOL     OW 3022   0.241   2.107   1.462 -0.0165 -0.3855  0.1670
  738SOL    HW2 3023   0.179   2.046   1.503 -1.1759  0.0509 -0.8919
  738SOL    HW3 3024   0.248   2.077   1.372 -0.2372  0.7659 -0.2387
  738SOL    MW4 3025   0.234   2.095   1.456 -0.1986 -0.1760 -0.0261
  739SOL     OW 3026   0.193   2.360   1.563  0.4756 -0.2149  0.2922
  739SOL    HW2 3027   0.212   2.350   1.656 -1.5016  0.3558  0.7804
  739SOL    HW3 3028   0.182   2.271   1.531  1.2148 -0.4140  0.5908
  739SOL    MW4 3029   0.194   2.347   1.571  0.3122 -0.1659  0.3960
  740SOL     OW 3030   4.462   2.499   1.507  0.1645  0.1774 -0.0107
  740SOL    HW2 3031   4.389   2.444   1.534 -0.3265  0.3535 -0.9474
  740SOL    HW3 3032   4.540   2.451   1.534 -0.2900 -0.4223  0.2262
  740SOL    MW4 3033   4.463   2.485   1.514  0.0396  0.1216 -0.1030
  741SOL     OW 3034   4.490   2.768   1.633  0.0137  0.3976  0.0673
  741SOL    HW2 3035   4.420   2.819   1.592  1.0164  0.5707 -1.4958
  741SOL    HW3 3036   4.482   2.681   1.594  0.0951  0.1640  0.5710
  741SOL    MW4 3037   4.480   2.763   1.622  0.1569  0.3893 -0.0724
  742SOL     OW 3038   0.210   2.851   1.466 -0.5776  0.9962  0.5372
  742SOL    HW2 3039   0.273   2.791   1.508 -0.0924  1.3671  0.3395
  742SOL    HW3 3040   0.129   2.839   1.517 -0.5077  0.1306  0.4657
  742SOL    MW4 3041   0.208   2.841   1.479 -0.5044  0.9310  0.5016
  743SOL     OW 3042   0.241   3.065   1.616 -0.2631  0.0484 -0.1316
  743SOL    HW2 3043   0.178   3.125   1.577 -0.9733  0.1879  1.2090
  743SOL    HW3 3044   0.221   2.980   1.576 -1.4034  0.0616  0.4031
  743SOL    MW4 3045   0.230   3.062   1.606 -0.5073  0.0684  0.1158
  744SOL     OW 3046   0.049   3.230   1.495  0.0623  0.7019 -0.2271
  744SOL    HW2 3047   0.009   3.307   1.535  1.1169  1.5298 -0.7346
  744SOL    HW3 3048   0.025   3.235   1.402 -2.3357 -1.1835  0.2586
  744SOL    MW4 3049   0.041   3.241   1.488 -0.1150  0.5624 -0.2300
  745SOL     OW 3050   4.436   3.426   1.636 -0.3063  0.3840 -0.3359
  745SOL    HW2 3051   4.444   3.421   1.731 -2.1559 -0.6919 -0.2081
  745SOL    HW3 3052   4.383   3.505   1.620  0.5021  0.8956 -0.5114
  745SOL    MW4 3053   4.430   3.436   1.646 -0.4435  0.3097 -0.3422
  746SOL     OW 3054   0.194   3.558   1.531 -0.2313  0.1123 -0.6532
  746SOL    HW2 3055   0.201   3.653   1.545 -1.3038  0.1506 -0.3144
  746SOL    HW3 3056   0.114   3.533   1.577  0.6568 -1.1589  0.2439
  746SOL    MW4 3057   0.184   3.567   1.539 -0.2556 -0.0505 -0.4902
  747SOL     OW 3058   0.251   3.815   1.620 -0.0561  0.2952 -0.4658
  747SOL    HW2 3059   0.239   3.831   1.713 -0.5738 -0.4729 -0.3976
  747SOL    HW3 3060   0.327   3.869   1.596  1.7267 -1.4857  0.9711
  747SOL    MW4 3061   0.260   3.824   1.629  0.1109 -0.0412 -0.2671
  748SOL     OW 3062   0.253   3.818   1.084  0.2682 -0.6879 -0.5943
  748SOL    HW2 3063   0.262   3.730   1.120  0.0975 -0.8833 -1.0248
  748SOL    HW3 3064   0.175   3.854   1.129  0.8134 -0.4532  0.1775
  748SOL    MW4 3065   0.244   3.811   1.095  0.3176 -0.6826 -0.5493
  749SOL     OW 3066   0.047   3.966   1.510  0.3167 -0.3967 -0.5265
  749SOL    HW2 3067   0.106   3.907   1.557  0.3699  0.4490  0.5092
  749SOL    HW3 3068  -0.037   3.958   1.555  0.7195  1.4398  0.6466
  749SOL    MW4 3069   0.044   3.957   1.522  0.3769 -0.0429 -0.2351
  750SOL     OW 3070   0.074   4.396   1.701 -0.0283  0.0347  0.8771
  750SOL    HW2 3071   0.063   4.331   1.770  0.5586  1.4900  2.3781
  750SOL    HW3 3072  -0.013   4.403   1.661  0.1468 -2.3730  0.0308
  750SOL    MW4 3073   0.061   4.389   1.705  0.0722 -0.0906  0.9634
  751SOL     OW 3074   0.471   0.085   1.475 -0.2624  0.2761 -0.0245
  751SOL    HW2 3075   0.485   0.171   1.514  0.9418 -0.5743  1.4719
  751SOL    HW3 3076   0.394   0.051   1.521 -0.0643  0.0996  0.1768
  751SOL    MW4 3077   0.463   0.092   1.486 -0.0774  0.1406  0.1996
  752SOL     OW 3078   0.241   4.610   1.607 -0.3239 -0.3843 -0.2428
  752SOL    HW2 3079   0.164   4.666   1.617 -0.0470  0.1856 -1.1820
  752SOL    HW3 3080   0.209   4.522   1.622 -1.1890 -0.1573 -0.7126
  752SOL    MW4 3081   0.227   4.606   1.610 -0.4015 -0.2794 -0.4287
  753SOL     OW 3082   0.472   0.330   1.603 -0.3448 -0.3229 -0.5277
  753SOL    HW2 3083   0.531   0.391   1.559 -0.4775  0.1932  0.0069
  753SOL    HW3 3084   0.385   0.366   1.587 -0.5890 -1.5300 -2.0239
  753SOL    MW4 3085   0.468   0.343   1.595 -0.3946 -0.4140 -0.6546
  754SOL     OW 3086   0.679   0.505   1.525  0.4345  0.3373 -0.6534
  754SOL    HW2 3087   0.685   0.591   1.566  0.1847  0.3717 -0.6896
  754SOL    HW3 3088   0.686   0.523   1.431  1.2668  0.2342 -0.6102
  754SOL    MW4 3089   0.681   0.519   1.518  0.5113  0.3282 -0.6526
  755SOL     OW 3090   0.683   0.753   1.626 -0.2142 -0.1154  0.2263
  755SOL    HW2 3091   0.687   0.775   1.719 -0.8384 -2.6045  0.8585
  755SOL    HW3 3092   0.746   0.813   1.585 -1.8006  2.7676  1.8612
  755SOL    MW4 3093   0.692   0.764   1.633 -0.5059 -0.0635  0.5255
  756SOL     OW 3094   0.453   0.855   1.529 -0.3173  0.0594  0.0171
  756SOL    HW2 3095   0.433   0.936   1.577 -0.0156 -0.9533  1.9311
  756SOL    HW3 3096   0.526   0.816   1.578 -1.5177 -2.1701  0.0936
  756SOL    MW4 3097   0.460   0.860   1.542 -0.4359 -0.3684  0.2797
  757SOL     OW 3098   0.424   1.090   1.658  0.2942 -0.1754  0.0595
  757SOL    HW2 3099   0.502   1.121   1.613 -0.2789  0.0967 -0.7670
  757SOL    HW3 3100   0.353   1.143   1.622 -0.5158 -1.5716 -0.4495
  757SOL    MW4 3101   0.425   1.101   1.647  0.1117 -0.3239 -0.1168
  758SOL     OW 3102   0.630   1.234   1.560 -0.3431  0.2686  0.1524
  758SOL    HW2 3103   0.618   1.326   1.586 -0.2864 -0.0609  1.3764
  758SOL    HW3 3104   0.637   1.237   1.465  1.5224  1.7521  0.2994
  758SOL    MW4 3105   0.630   1.247   1.551 -0.0896  0.4209  0.3333
  759SOL     OW 3106   0.642   1.509   1.616  0.0741  0.0895  0.4813
  759SOL    HW2 3107   0.720   1.550   1.576 -0.2305 -0.4752 -0.7253
  759SOL    HW3 3108   0.569   1.564   1.587  0.0113  0.6231  1.6201
  759SOL    MW4 3109   0.643   1.522   1.607  0.0256  0.0854  0.4723
  760SOL     OW 3110   0.418   1.651   1.526 -0.2397  0.0750  0.1000
  760SOL    HW2 3111   0.416   1.744   1.546  0.5601 -0.5196  3.2827
  760SOL    HW3 3112   0.332   1.619   1.555  0.3387 -0.5362  1.1810
  760SOL    MW4 3113   0.406   1.659   1.533 -0.0578 -0.0840  0.6626
  761SOL     OW 3114   0.430   1.941   1.580 -0.0424 -0.3025  0.2021
  761SOL    HW2 3115   0.375   2.014   1.551 -0.2176 -1.2296 -1.8670
  761SOL    HW3 3116   0.409   1.930   1.673 -2.1349  0.4112 -0.1789
  761SOL    MW4 3117   0.420   1.950   1.589 -0.3416 -0.3306 -0.1212
  762SOL     OW 3118   0.656   2.061   1.503 -0.4979  0.3422 -0.6592
  762SOL    HW2 3119   0.731   2.021   1.547 -0.4822  1.5905  0.4761
  762SOL    HW3 3120   0.583   2.001   1.520 -0.4273  0.6667  0.8649
  762SOL    MW4 3121   0.656   2.048   1.511 -0.4866  0.5498 -0.3083
  763SOL     OW 3122   0.690   2.315   1.578 -0.3179 -0.0148  0.6432
  763SOL    HW2 3123   0.609   2.364   1.565 -0.9998 -1.3008 -0.0333
  763SOL    HW3 3124   0.669   2.225   1.551  1.2852 -0.3994  0.6021
  763SOL    MW4 3125   0.676   2.309   1.573 -0.1963 -0.2356  0.5487
  764SOL     OW 3126   0.458   2.450   1.497 -0.1519 -0.1308 -0.1598
  764SOL    HW2 3127   0.459   2.539   1.530  0.1976 -0.4578  0.7386
  764SOL    HW3 3128   0.367   2.422   1.504 -0.3828  0.3713 -1.0607
  764SOL    MW4 3129   0.446   2.458   1.502 -0.1362 -0.1075 -0.1601
  765SOL     OW 3130   0.420   2.704   1.593 -0.1225 -0.1981 -0.0931
  765SOL    HW2 3131   0.433   2.706   1.688 -1.6564  1.6666  0.1175
  765SOL    HW3 3132   0.502   2.739   1.557 -0.0108  0.2751  0.6165
  765SOL    MW4 3133   0.433   2.709   1.601 -0.3101  0.1106  0.0283
  766SOL     OW 3134   0.655   2.791   1.472  0.5671 -0.0257 -0.0751
  766SOL    HW2 3135   0.665   2.883   1.496  2.5313  0.0668 -1.1000
  766SOL    HW3 3136   0.688   2.786   1.383  0.9052 -1.8079  0.1268
  766SOL    MW4 3137   0.661   2.802   1.464  0.8709 -0.2484 -0.1837
  767SOL     OW 3138   0.707   3.057   1.567  0.7720 -0.0043  0.3442
  767SOL    HW2 3139   0.781   3.096   1.520  1.1252  0.2760  1.1163
  767SOL    HW3 3140   0.635   3.119   1.555  0.0561 -1.2507 -2.1166
  767SOL    MW4 3141   0.708   3.070   1.559  0.7242 -0.1318  0.1216
  768SOL     OW 3142   0.466   3.182   1.517  0.4067  0.6342 -0.3480
  768SOL    HW2 3143   0.394   3.133   1.556  0.4755  0.5454 -0.3330
  768SOL    HW3 3144   0.443   3.188   1.424 -0.1717  1.5770 -0.1495
  768SOL    MW4 3145   0.453   3.176   1.510  0.3395  0.7472 -0.3198
  769SOL     OW 3146   0.443   3.459   1.607 -0.0227 -0.3106 -0.0849
  769SOL    HW2 3147   0.447   3.366   1.586  0.5185 -0.3492  0.1667
  769SOL    HW3 3148   0.352   3.484   1.590 -0.3288 -1.0339  0.4520
  769SOL    MW4 3149   0.432   3.450   1.602  0.0083 -0.4113  0.0192
  770SOL     OW 3150   0.672   3.596   1.516 -0.0349 -0.2599  0.4755
  770SOL    HW2 3151   0.753   3.550   1.536  0.8464  1.1540  0.2164
  770SOL    HW3 3152   0.604   3.546   1.561  1.1176 -0.7852  1.6589
  770SOL    MW4 3153   0.673   3.583   1.524  0.2335 -0.1428  0.5974
  771SOL     OW 3154   0.706   3.862   1.572 -0.1812  0.5073  0.0149
  771SOL    HW2 3155   0.778   3.906   1.527  0.2427 -0.4652 -0.2789
  771SOL    HW3 3156   0.712   3.771   1.542  0.3698 -0.2628  2.3483
  771SOL    MW4 3157   0.716   3.856   1.562 -0.0525  0.2773  0.2840
  772SOL     OW 3158   0.457   3.983   1.527 -0.2314  0.0604  0.0068
  772SOL    HW2 3159   0.533   3.936   1.560 -0.8735 -1.2322 -0.3156
  772SOL    HW3 3160   0.460   3.971   1.432 -1.4914 -1.0364  0.0850
  772SOL    MW4 3161   0.467   3.975   1.518 -0.4823 -0.2546 -0.0254
  773SOL     OW 3162   0.431   4.246   1.567 -0.3322 -0.3440  0.0944
  773SOL    HW2 3163   0.456   4.155   1.556 -0.1762 -0.2214 -0.5544
  773SOL    HW3 3164   0.338   4.249   1.543 -0.2595 -0.2752 -0.1797
  773SOL    MW4 3165   0.422   4.235   1.563 -0.3020 -0.3185 -0.0274
  774SOL     OW 3166   0.648   4.368   1.430  0.0683 -0.0501  0.0895
  774SOL    HW2 3167   0.652   4.451   1.476 -0.0880 -0.2949  0.5507
  774SOL    HW3 3168   0.574   4.321   1.471 -0.2940 -0.1280 -0.6421
  774SOL    MW4 3169   0.638   4.373   1.442 -0.0001 -0.0925  0.0539
  775SOL     OW 3170   1.143   4.616   1.580 -0.1791  0.0446 -0.3836
  775SOL    HW2 3171   1.132   4.619   1.675 -0.5642 -0.2219 -0.4199
  775SOL    HW3 3172   1.218   4.673   1.563  0.7558 -0.9756  0.2105
  775SOL    MW4 3173   1.152   4.624   1.590 -0.1065 -0.1249 -0.3099
  776SOL     OW 3174   0.898   0.066   1.512 -0.3462 -0.0098 -0.1594
  776SOL    HW2 3175   0.898   0.153   1.552  0.4666  0.5569 -1.3702
  776SOL    HW3 3176   0.990   0.041   1.510 -0.4684 -0.3904 -0.9066
  776SOL    MW4 3177   0.910   0.074   1.517 -0.2550  0.0148 -0.4178
  777SOL     OW 3178   0.879   0.333   1.613 -0.4740 -0.4460  0.1262
  777SOL    HW2 3179   0.892   0.338   1.707 -0.3664  0.7861  0.0567
  777SOL    HW3 3180   0.814   0.401   1.594  1.0894  0.7962 -0.9580
  777SOL    MW4 3181   0.872   0.343   1.623 -0.2536 -0.1195 -0.0261
  778SOL     OW 3182   1.066   0.540   1.500 -0.2805  0.0553  0.3418
  778SOL    HW2 3183   1.053   0.615   1.559 -0.7129  0.5006 -0.2987
  778SOL    HW3 3184   1.021   0.468   1.543  1.1382 -0.1394  1.5366
  778SOL    MW4 3185   1.058   0.541   1.514 -0.1504  0.0884  0.4150
  779SOL     OW 3186   1.105   0.780   1.620  0.0112 -0.3600 -0.2897
  779SOL    HW2 3187   1.137   0.777   1.710 -0.7618  1.6584  0.0835
  779SOL    HW3 3188   1.180   0.811   1.568 -0.2301  0.7857  0.0307
  779SOL    MW4 3189   1.119   0.784   1.625 -0.1225  0.0575 -0.1981
  780SOL     OW 3190   0.871   0.917   1.558 -0.2397 -0.0670 -0.0284
  780SOL    HW2 3191   0.948   0.868   1.589  0.7685  1.3148 -0.2845
  780SOL    HW3 3192   0.878   0.916   1.463 -0.1983  0.5721 -0.0381
  780SOL    MW4 3193   0.882   0.911   1.550 -0.1012  0.1996 -0.0634
  781SOL     OW 3194   0.893   1.170   1.642  0.1382 -0.2408  0.2050
  781SOL    HW2 3195   0.888   1.078   1.615 -0.5111 -0.1446 -0.0291
  781SOL    HW3 3196   0.807   1.205   1.619  0.8393  0.7555 -0.9400
  781SOL    MW4 3197   0.881   1.162   1.635  0.1451 -0.0966  0.0230
  782SOL     OW 3198   1.088   1.279   1.499  0.1977  0.0062  0.0483
  782SOL    HW2 3199   1.167   1.246   1.541 -0.2244  0.2152  1.0181
  782SOL    HW3 3200   1.016   1.239   1.547 -0.2977  0.6782 -0.1187
  782SOL    MW4 3201   1.089   1.270   1.511  0.0767  0.1224  0.1544
  783SOL     OW 3202   1.118   1.550   1.582  0.4591  0.7292  0.0594
  783SOL    HW2 3203   1.195   1.595   1.548  0.4056  0.0156 -1.0329
  783SOL    HW3 3204   1.117   1.466   1.537 -0.5367  0.4259  0.6199
  783SOL    MW4 3205   1.128   1.545   1.571  0.3207  0.5951 -0.0108
  784SOL     OW 3206   0.858   1.652   1.505 -0.0880  0.1058  0.1655
  784SOL    HW2 3207   0.941   1.613   1.532 -0.1618  0.0459  0.3066
  784SOL    HW3 3208   0.867   1.665   1.410  0.9137  2.1112  0.5211
  784SOL    MW4 3209   0.870   1.649   1.496  0.0343  0.3625  0.2311
  785SOL     OW 3210   0.872   1.914   1.614 -0.1343  0.0301 -0.4348
  785SOL    HW2 3211   0.943   1.952   1.562 -0.2547  0.0052 -0.6212
  785SOL    HW3 3212   0.867   1.823   1.584  0.2505 -0.1703  0.1168
  785SOL    MW4 3213   0.881   1.907   1.603 -0.0994  0.0005 -0.3865
  786SOL     OW 3214   1.080   2.030   1.484  0.4285  0.0464  0.3754
  786SOL    HW2 3215   1.167   2.012   1.520 -0.7266 -1.4210  2.5407
  786SOL    HW3 3216   1.071   2.125   1.488  1.8849  0.1981  0.2243
  786SOL    MW4 3217   1.090   2.040   1.489  0.4684 -0.1271  0.6412
  787SOL     OW 3218   1.092   2.300   1.538 -0.2812  0.6713 -0.6689
  787SOL    HW2 3219   1.177   2.330   1.504 -0.2513  2.5620  0.9672
  787SOL    HW3 3220   1.030   2.368   1.511 -0.6634  1.0010  0.9552
  787SOL    MW4 3221   1.095   2.313   1.530 -0.3277  0.9642 -0.2388
  788SOL     OW 3222   0.879   2.451   1.428 -0.0560  0.0787 -0.0945
  788SOL    HW2 3223   0.892   2.539   1.465  0.2774 -0.2760  0.6418
  788SOL    HW3 3224   0.815   2.410   1.486 -0.3151 -0.1117 -0.5210
  788SOL    MW4 3225   0.873   2.458   1.441 -0.0462  0.0069 -0.0535
  789SOL     OW 3226   0.901   2.690   1.570 -0.1008 -0.4284 -0.0802
  789SOL    HW2 3227   0.906   2.680   1.665  0.4758  0.1177 -0.0548
  789SOL    HW3 3228   0.816   2.732   1.555 -0.8156 -1.7897  0.0890
  789SOL    MW4 3229   0.890   2.694   1.581 -0.1190 -0.5360 -0.0546
  790SOL     OW 3230   1.136   2.785   1.476 -0.0791  0.3004  0.3032
  790SOL    HW2 3231   1.148   2.873   1.513  0.2333  0.4203 -0.0758
  790SOL    HW3 3232   1.051   2.757   1.509  0.3231  0.2841  1.3476
  790SOL    MW4 3233   1.127   2.793   1.485  0.0153  0.3140  0.3909
  791SOL     OW 3234   1.125   3.045   1.571  0.0548 -0.3569  0.5164
  791SOL    HW2 3235   1.124   3.052   1.666 -0.7621  0.5366  0.4558
  791SOL    HW3 3236   1.197   3.101   1.543 -0.8287  0.8102  0.5250
  791SOL    MW4 3237   1.134   3.053   1.580 -0.1696 -0.0851  0.5095
  792SOL     OW 3238   0.930   3.228   1.487  0.1257 -0.0104  0.0702
  792SOL    HW2 3239   1.006   3.171   1.498  0.0220 -0.5131 -1.6517
  792SOL    HW3 3240   0.918   3.234   1.392 -0.5894  1.9225  0.2657
  792SOL    MW4 3241   0.938   3.221   1.476  0.0177  0.1783 -0.1312
  793SOL     OW 3242   0.896   3.481   1.607 -0.0148  0.3950  0.2619
  793SOL    HW2 3243   0.965   3.521   1.555 -0.3523  0.7662  0.0952
  793SOL    HW3 3244   0.898   3.388   1.583  1.4372  0.1170  1.4004
  793SOL    MW4 3245   0.905   3.474   1.597  0.1323  0.4072  0.3902
  794SOL     OW 3246   1.119   3.583   1.484  0.1350  0.0381  0.3107
  794SOL    HW2 3247   1.192   3.529   1.513 -1.3389 -1.6487  0.9759
  794SOL    HW3 3248   1.127   3.586   1.388  0.7482 -0.6067  0.3444
  794SOL    MW4 3249   1.129   3.577   1.475  0.0216 -0.2694  0.4029
  795SOL     OW 3250   1.134   3.853   1.542  0.6306 -0.3968 -0.0472
  795SOL    HW2 3251   1.215   3.900   1.522  1.9032 -1.3924  2.4589
  795SOL    HW3 3252   1.152   3.762   1.516 -1.1185  0.0820 -3.0857
  795SOL    MW4 3253   1.147   3.847   1.536  0.5677 -0.4649 -0.1174
  796SOL     OW 3254   0.923   3.970   1.449  0.5404 -0.0649 -0.1759
  796SOL    HW2 3255   0.919   4.059   1.484 -0.5706  0.2233 -0.9843
  796SOL    HW3 3256   1.000   3.931   1.490 -0.6721  0.2685  2.5073
  796SOL    MW4 3257   0.933   3.977   1.459  0.2339  0.0172  0.0713
  797SOL     OW 3258   0.900   4.239   1.543 -0.3992 -0.7427  0.4333
  797SOL    HW2 3259   0.888   4.244   1.637 -2.3048  0.9975  0.1429
  797SOL    HW3 3260   0.825   4.287   1.507  0.5805 -0.9270 -1.9434
  797SOL    MW4 3261   0.888   4.246   1.550 -0.5214 -0.5379  0.0814
  798SOL     OW 3262   1.147   4.355   1.465 -0.1068 -0.4942  0.5468
  798SOL    HW2 3263   1.066   4.316   1.497 -1.4566  0.3814 -1.6349
  798SOL    HW3 3264   1.145   4.445   1.498 -0.6692 -0.0981 -0.5296
  798SOL    MW4 3265   1.136   4.362   1.473 -0.3592 -0.3266  0.1168
  799SOL     OW 3266   1.583   0.017   1.583 -0.1533 -0.1439 -0.1912
  799SOL    HW2 3267   1.578  -0.001   1.677 -2.2084  0.5511 -0.1590
  799SOL    HW3 3268   1.501   0.061   1.562  0.3140 -0.2264 -2.3091
  799SOL    MW4 3269   1.572   0.020   1.593 -0.3629 -0.0631 -0.4663
  800SOL     OW 3270   1.348   0.124   1.503  0.3695  0.0967 -0.0679
  800SOL    HW2 3271   1.335   0.214   1.534  1.2778  0.1315  0.2216
  800SOL    HW3 3272   1.343   0.131   1.408 -0.7493  0.2580 -0.0064
  800SOL    MW4 3273   1.346   0.137   1.495  0.3418  0.1226 -0.0217
  801SOL     OW 3274   1.317   0.386   1.572  0.1890 -0.2463 -0.2304
  801SOL    HW2 3275   1.391   0.441   1.547  0.4570 -0.4672  0.0792
  801SOL    HW3 3276   1.245   0.417   1.517  0.0648  1.1012  0.6777
  801SOL    MW4 3277   1.317   0.397   1.561  0.2079 -0.0976 -0.0697
  802SOL     OW 3278   1.558   0.522   1.489 -0.0099  0.4399  0.5232
  802SOL    HW2 3279   1.626   0.471   1.533 -0.7089  0.1831  1.3255
  802SOL    HW3 3280   1.564   0.496   1.397  1.5313  1.0563  0.4472
  802SOL    MW4 3281   1.567   0.512   1.482  0.1011  0.4873  0.6189
  803SOL     OW 3282   1.572   0.772   1.596  0.2358 -0.0122  0.1081
  803SOL    HW2 3283   1.570   0.752   1.689  0.5536 -1.4103 -0.1744
  803SOL    HW3 3284   1.574   0.687   1.553 -2.0036  0.5790 -1.2576
  803SOL    MW4 3285   1.572   0.758   1.602 -0.0178 -0.1186 -0.1093
  804SOL     OW 3286   1.331   0.882   1.492 -0.2610  0.1144 -0.1271
  804SOL    HW2 3287   1.417   0.863   1.529 -0.1289  1.3316  0.2039
  804SOL    HW3 3288   1.343   0.873   1.398 -0.1914 -1.3572  0.0053
  804SOL    MW4 3289   1.343   0.878   1.484 -0.2344  0.0808 -0.0662
  805SOL     OW 3290   1.320   1.148   1.590  0.0033  0.2259  0.5547
  805SOL    HW2 3291   1.299   1.148   1.683  0.9694 -0.0746  0.7756
  805SOL    HW3 3292   1.304   1.057   1.562 -1.4260  0.5897  0.1624
  805SOL    MW4 3293   1.315   1.136   1.598 -0.0578  0.2342  0.5320
  806SOL     OW 3294   1.570   1.255   1.516 -0.5221  0.0774  0.1098
  806SOL    HW2 3295   1.486   1.216   1.540 -0.6716  0.2161 -0.1904
  806SOL    HW3 3296   1.567   1.262   1.421  0.3389 -1.0526 -0.0031
  806SOL    MW4 3297   1.558   1.251   1.507 -0.4283 -0.0534  0.0554
  807SOL     OW 3298   1.553   1.517   1.600  0.0176  0.3966 -0.7732
  807SOL    HW2 3299   1.557   1.499   1.694 -0.9379  0.5658 -0.6956
  807SOL    HW3 3300   1.544   1.430   1.560  0.3115  0.3322 -0.6971
  807SOL    MW4 3301   1.552   1.503   1.607 -0.0697  0.4104 -0.7528
  808SOL     OW 3302   1.343   1.685   1.537 -0.0207 -0.2613 -0.0679
  808SOL    HW2 3303   1.406   1.621   1.571 -1.1969 -0.9815  0.7912
  808SOL    HW3 3304   1.371   1.701   1.447  0.4326 -1.7964 -0.2042
  808SOL    MW4 3305   1.355   1.679   1.529 -0.1162 -0.5591  0.0275
  809SOL     OW 3306   1.317   1.945   1.606 -0.4954 -0.4227  0.3882
  809SOL    HW2 3307   1.311   1.951   1.701  1.0694 -0.5643  0.5055
  809SOL    HW3 3308   1.321   1.852   1.588 -0.1869 -0.3746  0.2145
  809SOL    MW4 3309   1.317   1.934   1.616 -0.2482 -0.4350  0.3809
  810SOL     OW 3310   1.571   2.018   1.494 -0.3764  0.1891 -0.2482
  810SOL    HW2 3311   1.488   1.986   1.529  0.0642 -1.6970 -0.8439
  810SOL    HW3 3312   1.555   2.030   1.401  0.2754 -1.1948 -0.5632
  810SOL    MW4 3313   1.558   2.015   1.486 -0.2322 -0.2422 -0.3682
  811SOL     OW 3314   1.553   2.287   1.573 -0.1675  0.1341 -0.1267
  811SOL    HW2 3315   1.634   2.319   1.535 -0.1390  0.8637  0.5386
  811SOL    HW3 3316   1.552   2.193   1.552  0.1906  0.3857 -1.2827
  811SOL    MW4 3317   1.563   2.279   1.565 -0.1165  0.2635 -0.1913
  812SOL     OW 3318   1.363   2.412   1.435 -0.0748 -0.4492 -0.1540
  812SOL    HW2 3319   1.359   2.501   1.470 -1.7497 -0.2571 -0.7864
  812SOL    HW3 3320   1.432   2.370   1.485 -1.4351  0.2497  2.4257
  812SOL    MW4 3321   1.371   2.418   1.447 -0.4753 -0.3316  0.1030
  813SOL     OW 3322   1.383   2.685   1.558 -0.1687 -0.1614  0.4432
  813SOL    HW2 3323   1.452   2.736   1.514 -0.5622 -1.3895 -1.6618
  813SOL    HW3 3324   1.301   2.720   1.524 -0.5962  0.5338  2.1061
  813SOL    MW4 3325   1.382   2.696   1.548 -0.2770 -0.2317  0.3848
  814SOL     OW 3326   1.564   2.816   1.402  0.3563  0.4461  0.2924
  814SOL    HW2 3327   1.639   2.769   1.439  0.4292 -0.2326 -0.7022
  814SOL    HW3 3328   1.596   2.854   1.321 -0.4504 -0.1339 -0.3145
  814SOL    MW4 3329   1.578   2.815   1.396  0.2596  0.2799  0.0811
  815SOL     OW 3330   1.534   3.035   1.583  0.1250  0.0080 -0.0879
  815SOL    HW2 3331   1.610   3.094   1.579 -0.6604  0.9996 -0.4569
  815SOL    HW3 3332   1.558   2.963   1.525  1.8114 -0.9103  1.6766
  815SOL    MW4 3333   1.547   3.033   1.575  0.2439  0.0179  0.0963
  816SOL     OW 3334   1.333   3.199   1.480  0.2377 -0.0769 -0.1117
  816SOL    HW2 3335   1.335   3.287   1.518 -0.4157  0.9034 -2.2537
  816SOL    HW3 3336   1.409   3.155   1.517 -0.0756  0.9874  1.8884
  816SOL    MW4 3337   1.343   3.205   1.490  0.1101  0.1931 -0.1304
  817SOL     OW 3338   1.360   3.453   1.594 -0.3711  0.1032 -0.1448
  817SOL    HW2 3339   1.367   3.468   1.689  0.1755 -1.5662  0.0996
  817SOL    HW3 3340   1.440   3.491   1.557 -0.0869 -0.1559  0.1953
  817SOL    MW4 3341   1.371   3.460   1.602 -0.2615 -0.1514 -0.0676
  818SOL     OW 3342   1.571   3.602   1.464 -0.2426  0.5344 -0.4217
  818SOL    HW2 3343   1.598   3.686   1.499 -1.7946  1.4623 -1.3763
  818SOL    HW3 3344   1.599   3.603   1.372 -0.3815  0.0691 -0.4729
  818SOL    MW4 3345   1.578   3.613   1.456 -0.4656  0.5956 -0.5546
  819SOL     OW 3346   1.587   3.848   1.596  0.0206  0.6077  0.0563
  819SOL    HW2 3347   1.566   3.849   1.689 -0.8356  0.1497 -0.1279
  819SOL    HW3 3348   1.507   3.876   1.553  0.1692  0.0602 -0.5845
  819SOL    MW4 3349   1.574   3.852   1.603 -0.0728  0.4754 -0.0526
  820SOL     OW 3350   1.363   3.971   1.476 -0.4757 -0.4495 -0.7401
  820SOL    HW2 3351   1.369   4.059   1.513  1.4988 -0.9320  0.1614
  820SOL    HW3 3352   1.382   3.982   1.383 -1.3034  0.2114 -0.8351
  820SOL    MW4 3353   1.366   3.984   1.469 -0.3245 -0.4263 -0.6337
  821SOL     OW 3354   1.361   4.225   1.578  0.0167 -0.5321 -0.0738
  821SOL    HW2 3355   1.431   4.283   1.548  0.3591 -0.4427  0.8761
  821SOL    HW3 3356   1.281   4.265   1.545  0.2343  0.6098  0.7796
  821SOL    MW4 3357   1.360   4.238   1.570  0.0906 -0.3700  0.1642
  822SOL     OW 3358   1.555   4.407   1.472  0.1882  0.1199  0.0033
  822SOL    HW2 3359   1.630   4.362   1.511  1.6945  1.6193 -1.0877
  822SOL    HW3 3360   1.559   4.495   1.508 -1.4368  0.0449  0.4000
  822SOL    MW4 3361   1.566   4.412   1.482  0.1726  0.3076 -0.0883
  823SOL     OW 3362   2.028   4.627   1.596 -0.4600  0.1133  0.3443
  823SOL    HW2 3363   2.035   4.620   1.692 -0.3815 -1.7544  0.2119
  823SOL    HW3 3364   1.945   4.671   1.581 -1.0102 -0.6141  1.2370
  823SOL    MW4 3365   2.018   4.632   1.607 -0.5219 -0.2298  0.4447
  824SOL     OW 3366   1.821   0.105   1.492  0.0596  0.1111  0.4316
  824SOL    HW2 3367   1.736   0.076   1.524 -0.0090  0.7609  0.8474
  824SOL    HW3 3368   1.807   0.125   1.399  0.1644 -1.4003  0.0893
  824SOL    MW4 3369   1.808   0.104   1.484  0.0643 -0.0026  0.4413
  825SOL     OW 3370   1.756   0.358   1.618  0.2417 -0.1165  0.3335
  825SOL    HW2 3371   1.835   0.400   1.583 -0.0617 -0.8866 -1.3213
  825SOL    HW3 3372   1.761   0.268   1.585 -1.4951 -0.0760 -0.0633
  825SOL    MW4 3373   1.767   0.352   1.609 -0.0275 -0.2128  0.0629
  826SOL     OW 3374   2.000   0.491   1.531 -0.1376 -0.0890  0.1741
  826SOL    HW2 3375   2.088   0.463   1.556 -0.5680 -0.3705  1.4212
  826SOL    HW3 3376   1.997   0.584   1.553 -0.4530 -0.2908  0.9753
  826SOL    MW4 3377   2.011   0.500   1.537 -0.2363 -0.1528  0.4444
  827SOL     OW 3378   2.024   0.753   1.583  0.0086  0.4023  0.2048
  827SOL    HW2 3379   2.095   0.787   1.529 -0.4580  0.9917 -0.0553
  827SOL    HW3 3380   1.945   0.795   1.547 -0.4275  0.0016  0.6859
  827SOL    MW4 3381   2.023   0.763   1.571 -0.1104  0.4272  0.2340
  828SOL     OW 3382   1.801   0.895   1.508 -0.1928 -0.0014 -0.0027
  828SOL    HW2 3383   1.798   0.978   1.557 -1.0050  0.8530 -1.4505
  828SOL    HW3 3384   1.727   0.845   1.541  0.4353 -0.2552  1.0442
  828SOL    MW4 3385   1.791   0.900   1.519 -0.2171  0.0779 -0.0556
  829SOL     OW 3386   1.788   1.144   1.636  0.4085 -0.4183  0.2053
  829SOL    HW2 3387   1.856   1.173   1.576  0.3608 -0.0284  0.3350
  829SOL    HW3 3388   1.708   1.187   1.604  0.4459  0.0655  0.7446
  829SOL    MW4 3389   1.786   1.153   1.624  0.4072 -0.3029  0.2936
  830SOL     OW 3390   1.993   1.258   1.502 -0.3994  0.2016 -0.3102
  830SOL    HW2 3391   1.991   1.344   1.544 -0.0438  0.3159 -0.5236
  830SOL    HW3 3392   1.991   1.277   1.408  1.7038  0.0633 -0.4051
  830SOL    MW4 3393   1.993   1.272   1.495 -0.0749  0.1984 -0.3508
  831SOL     OW 3394   2.006   1.556   1.585  0.0079  0.1242  0.2727
  831SOL    HW2 3395   2.082   1.593   1.539  0.3549 -1.0286 -0.0873
  831SOL    HW3 3396   1.931   1.602   1.548  0.1284 -1.8454 -2.5944
  831SOL    MW4 3397   2.006   1.567   1.574  0.0696 -0.2878 -0.1531
  832SOL     OW 3398   1.754   1.675   1.507  0.2687  0.2879  0.1297
  832SOL    HW2 3399   1.676   1.627   1.535 -0.9224  1.3923 -1.2459
  832SOL    HW3 3400   1.744   1.685   1.413  1.9505  0.6910 -0.0234
  832SOL    MW4 3401   1.742   1.670   1.499  0.3333  0.4867 -0.0719
  833SOL     OW 3402   1.805   1.925   1.612 -0.2735  0.1618 -0.4154
  833SOL    HW2 3403   1.814   1.839   1.573 -0.7726 -0.5850  1.0545
  833SOL    HW3 3404   1.729   1.964   1.568 -0.0646 -0.1603 -1.0627
  833SOL    MW4 3405   1.796   1.919   1.601 -0.3117  0.0206 -0.3068
  834SOL     OW 3406   2.024   2.032   1.487 -0.4271  0.2503 -0.0795
  834SOL    HW2 3407   2.103   1.984   1.510  1.0615  1.6679 -2.0408
  834SOL    HW3 3408   1.957   1.999   1.547  1.2326 -2.1727  0.5159
  834SOL    MW4 3409   2.025   2.021   1.498 -0.0114  0.1173 -0.2598
  835SOL     OW 3410   2.010   2.326   1.564  0.0890 -0.0391 -0.3373
  835SOL    HW2 3411   2.026   2.331   1.658 -0.8756  0.3145 -0.1932
  835SOL    HW3 3412   2.017   2.233   1.543 -2.6288 -0.4816  0.6041
  835SOL    MW4 3413   2.013   2.315   1.574 -0.3967 -0.0508 -0.1942
  836SOL     OW 3414   1.766   2.421   1.440 -0.2704  0.2324 -0.1499
  836SOL    HW2 3415   1.853   2.383   1.455  0.0364  0.7992 -0.4624
  836SOL    HW3 3416   1.767   2.447   1.348 -1.6405 -1.9581 -0.8193
  836SOL    MW4 3417   1.778   2.419   1.430 -0.4106  0.0181 -0.2794
  837SOL     OW 3418   1.764   2.670   1.527 -0.3093  0.1284 -0.5429
  837SOL    HW2 3419   1.858   2.688   1.518  0.0159 -0.8912  0.5988
  837SOL    HW3 3420   1.754   2.579   1.499 -1.2817  0.8160 -2.4657
  837SOL    MW4 3421   1.775   2.660   1.522 -0.3947  0.0849 -0.6459
  838SOL     OW 3422   2.009   2.781   1.479 -0.4908 -0.2083  0.3773
  838SOL    HW2 3423   2.020   2.872   1.507 -0.0350 -0.1885  0.1335
  838SOL    HW3 3424   2.010   2.785   1.384 -0.7963 -0.4293  0.3646
  838SOL    MW4 3425   2.010   2.794   1.470 -0.4709 -0.2351  0.3433
  839SOL     OW 3426   2.015   3.045   1.580  0.3176 -0.2760  0.3423
  839SOL    HW2 3427   2.029   3.039   1.674  0.7651  0.1471  0.3072
  839SOL    HW3 3428   2.085   3.103   1.549 -0.4505  0.4381 -0.0939
  839SOL    MW4 3429   2.026   3.052   1.588  0.2756 -0.1259  0.2800
  840SOL     OW 3430   1.764   3.162   1.493 -0.1520 -0.5049  0.0651
  840SOL    HW2 3431   1.775   3.256   1.505 -0.6036 -0.3054 -0.9854
  840SOL    HW3 3432   1.846   3.124   1.525 -0.2164  0.1853  1.0608
  840SOL    MW4 3433   1.777   3.169   1.498 -0.2201 -0.3877  0.0578
  841SOL     OW 3434   1.795   3.459   1.540  0.1287 -0.1112 -0.2092
  841SOL    HW2 3435   1.792   3.464   1.636  0.9060  1.2915 -0.2451
  841SOL    HW3 3436   1.728   3.520   1.511  0.3608 -0.0266 -0.5647
  841SOL    MW4 3437   1.786   3.468   1.549  0.2618  0.0849 -0.2609
  842SOL     OW 3438   2.017   3.599   1.494  0.4875 -0.1675 -0.1842
  842SOL    HW2 3439   2.084   3.543   1.534 -0.0041 -0.2505  0.5402
  842SOL    HW3 3440   1.936   3.549   1.502 -0.3780  1.4706  2.4097
  842SOL    MW4 3441   2.015   3.585   1.501  0.3085  0.0374  0.2534
  843SOL     OW 3442   2.004   3.878   1.611 -0.4854 -0.0225 -0.5446
  843SOL    HW2 3443   2.093   3.912   1.597 -0.3154 -0.2489 -0.0442
  843SOL    HW3 3444   2.007   3.788   1.579 -0.8717  0.3550 -1.6535
  843SOL    MW4 3445   2.017   3.871   1.605 -0.5138 -0.0024 -0.6248
  844SOL     OW 3446   1.792   4.030   1.489 -0.1293  0.0892  0.1221
  844SOL    HW2 3447   1.856   3.978   1.537  0.2513  0.1524 -0.3155
  844SOL    HW3 3448   1.708   3.987   1.506  0.0903 -0.2472  0.3416
  844SOL    MW4 3449   1.789   4.018   1.497 -0.0502  0.0534  0.0933
  845SOL     OW 3450   1.751   4.276   1.586 -0.1978  0.1326  0.2136
  845SOL    HW2 3451   1.822   4.321   1.541 -0.7362  0.1278 -0.6484
  845SOL    HW3 3452   1.757   4.186   1.556  0.1285 -0.1161  1.0096
  845SOL    MW4 3453   1.761   4.270   1.576 -0.2258  0.0997  0.2048
  846SOL     OW 3454   2.016   4.354   1.498  0.3633 -0.1038 -0.4430
  846SOL    HW2 3455   2.086   4.308   1.544 -0.9078 -1.2270  0.4336
  846SOL    HW3 3456   2.026   4.446   1.525  2.0006 -0.1112 -1.0055
  846SOL    MW4 3457   2.027   4.360   1.508  0.4117 -0.2527 -0.4016
  847SOL     OW 3458   2.423   4.651   1.610 -0.3610 -0.1304 -0.2479
  847SOL    HW2 3459   2.422   4.665   1.705 -2.0778 -0.4665 -0.2033
  847SOL    HW3 3460   2.353   4.706   1.577 -0.1744 -0.5011 -1.2634
  847SOL    MW4 3461   2.414   4.660   1.618 -0.5629 -0.2232 -0.3761
  848SOL     OW 3462   2.219   0.137   1.492  0.0645 -0.2595 -0.2802
  848SOL    HW2 3463   2.146   0.081   1.516  0.2523 -0.0208  0.9069
  848SOL    HW3 3464   2.240   0.113   1.402 -0.6733 -1.1905 -0.2081
  848SOL    MW4 3465   2.212   0.127   1.483 -0.0081 -0.3508 -0.1141
  849SOL     OW 3466   2.244   0.385   1.624 -0.1828 -0.0274  0.3294
  849SOL    HW2 3467   2.238   0.374   1.719  4.2449 -1.0528  0.6078
  849SOL    HW3 3468   2.238   0.296   1.589  2.3001 -0.1422  0.0529
  849SOL    MW4 3469   2.243   0.372   1.632  0.7291 -0.1778  0.3296
  850SOL     OW 3470   2.451   0.482   1.481 -0.2437  0.2648 -0.1265
  850SOL    HW2 3471   2.527   0.436   1.517  0.0792  1.4292  0.7108
  850SOL    HW3 3472   2.376   0.445   1.528  0.1789  1.7923  1.7975
  850SOL    MW4 3473   2.451   0.471   1.492 -0.1452  0.6199  0.2378
  851SOL     OW 3474   2.480   0.755   1.585 -0.3432  0.0425  0.1281
  851SOL    HW2 3475   2.410   0.802   1.540 -0.3050 -0.4183 -0.4181
  851SOL    HW3 3476   2.470   0.664   1.557  0.2006 -0.1034  0.3945
  851SOL    MW4 3477   2.470   0.749   1.576 -0.2663 -0.0375  0.0911
  852SOL     OW 3478   2.242   0.871   1.482 -0.2891 -0.3102 -0.0625
  852SOL    HW2 3479   2.240   0.962   1.512 -0.3306  0.0460 -1.1293
  852SOL    HW3 3480   2.248   0.877   1.387  1.4714 -1.4121 -0.0484
  852SOL    MW4 3481   2.243   0.884   1.473 -0.0622 -0.4086 -0.2016
  853SOL     OW 3482   2.239   1.145   1.589  0.0264 -0.8409  0.3384
  853SOL    HW2 3483   2.230   1.147   1.684  0.4530  1.6622  0.3549
  853SOL    HW3 3484   2.153   1.172   1.556  0.0696 -1.0897  0.0166
  853SOL    MW4 3485   2.226   1.149   1.597  0.0885 -0.5434  0.2980
  854SOL     OW 3486   2.495   1.278   1.503  0.0640 -0.1897 -0.3090
  854SOL    HW2 3487   2.411   1.241   1.529  0.0474 -0.4348 -0.7269
  854SOL    HW3 3488   2.487   1.294   1.409  0.3002  0.2684 -0.2549
  854SOL    MW4 3489   2.483   1.275   1.494  0.0930 -0.1616 -0.3568
  855SOL     OW 3490   2.522   1.544   1.573  0.5219  0.0532  0.1762
  855SOL    HW2 3491   2.602   1.578   1.533  1.2003  0.0161  1.4518
  855SOL    HW3 3492   2.529   1.449   1.564  0.9817  0.0066  0.8996
  855SOL    MW4 3493   2.534   1.536   1.567  0.6719  0.0421  0.4398
  856SOL     OW 3494   2.258   1.647   1.491 -0.7785 -0.1438 -0.2252
  856SOL    HW2 3495   2.328   1.587   1.517 -0.1607  0.3565 -0.7606
  856SOL    HW3 3496   2.272   1.663   1.398 -2.1353 -0.7601 -0.5540
  856SOL    MW4 3497   2.269   1.641   1.482 -0.8762 -0.1590 -0.3392
  857SOL     OW 3498   2.266   1.923   1.542 -0.2546  0.5925 -0.2828
  857SOL    HW2 3499   2.256   1.924   1.637 -1.3722 -0.1487 -0.3854
  857SOL    HW3 3500   2.275   1.830   1.520 -1.0750  0.6856 -1.0075
  857SOL    MW4 3501   2.266   1.911   1.552 -0.5102  0.5070 -0.3918
  858SOL     OW 3502   2.505   2.071   1.484 -0.0507  0.1433  0.8157
  858SOL    HW2 3503   2.426   2.018   1.491  0.6087 -0.9195  0.3862
  858SOL    HW3 3504   2.517   2.083   1.390  0.4251  0.0954  0.8708
  858SOL    MW4 3505   2.496   2.066   1.473  0.0992 -0.0031  0.7663
  859SOL     OW 3506   2.426   2.302   1.587  0.3258 -0.0348 -0.1319
  859SOL    HW2 3507   2.450   2.309   1.679  1.5972 -0.1972 -0.4428
  859SOL    HW3 3508   2.452   2.214   1.561 -0.8310 -0.2973 -0.4202
  859SOL    MW4 3509   2.433   2.292   1.595  0.3409 -0.0906 -0.2109
  860SOL     OW 3510   2.225   2.403   1.412 -0.1801  0.1685  0.3958
  860SOL    HW2 3511   2.287   2.352   1.464 -0.8821 -0.3676  0.7151
  860SOL    HW3 3512   2.140   2.386   1.453 -0.4240  1.5867  0.5063
  860SOL    MW4 3513   2.222   2.394   1.424 -0.3049  0.2849  0.4524
  861SOL     OW 3514   2.273   2.637   1.575  0.1880 -0.4603  0.2939
  861SOL    HW2 3515   2.263   2.550   1.536  0.3746 -0.9061  1.2249
  861SOL    HW3 3516   2.195   2.685   1.549  0.8021 -0.4015 -1.5076
  861SOL    MW4 3517   2.262   2.632   1.567  0.2937 -0.5114  0.1791
  862SOL     OW 3518   2.490   2.797   1.483  0.6985  0.0406 -0.2671
  862SOL    HW2 3519   2.476   2.880   1.529 -0.3556  0.0334 -0.5736
  862SOL    HW3 3520   2.409   2.748   1.496  1.0496 -0.6672 -0.6806
  862SOL    MW4 3521   2.478   2.801   1.491  0.6061 -0.0539 -0.3622
  863SOL     OW 3522   2.429   3.042   1.574  0.3905  0.0978  0.5687
  863SOL    HW2 3523   2.513   3.080   1.546  0.3902 -0.5864 -0.3961
  863SOL    HW3 3524   2.363   3.102   1.539  0.4494  0.2273  0.6779
  863SOL    MW4 3525   2.432   3.055   1.566  0.3982  0.0246  0.4559
  864SOL     OW 3526   2.219   3.224   1.506 -0.1150 -0.0477 -0.3961
  864SOL    HW2 3527   2.230   3.303   1.559 -0.7286 -0.7374  0.8001
  864SOL    HW3 3528   2.240   3.251   1.417  1.4872  1.0076  0.2781
  864SOL    MW4 3529   2.223   3.238   1.502  0.0153  0.0002 -0.1494
  865SOL     OW 3530   2.213   3.478   1.628 -0.3804  0.2587  0.1681
  865SOL    HW2 3531   2.211   3.470   1.724  0.7928 -1.8676  0.0433
  865SOL    HW3 3532   2.297   3.521   1.610 -0.4098  0.2728  0.0679
  865SOL    MW4 3533   2.224   3.483   1.638 -0.2296 -0.0198  0.1384
  866SOL     OW 3534   2.441   3.590   1.495  0.1948 -0.0386 -0.0455
  866SOL    HW2 3535   2.519   3.542   1.522 -0.2498 -0.3521  0.7277
  866SOL    HW3 3536   2.452   3.678   1.532 -0.3551 -0.4307  1.1015
  866SOL    MW4 3537   2.453   3.595   1.504  0.0637 -0.1316  0.2077
  867SOL     OW 3538   2.476   3.850   1.600  0.1743 -0.0028 -0.0160
  867SOL    HW2 3539   2.478   3.871   1.693 -0.7829  1.9107 -0.4044
  867SOL    HW3 3540   2.551   3.897   1.563  0.1100 -0.1448 -0.3321
  867SOL    MW4 3541   2.486   3.858   1.607  0.0398  0.2308 -0.1090
  868SOL     OW 3542   2.260   3.991   1.515 -0.7525  0.3103 -0.0709
  868SOL    HW2 3543   2.338   3.940   1.539 -1.5938 -0.9957 -0.0853
  868SOL    HW3 3544   2.255   3.984   1.420 -1.1255  0.0187 -0.0338
  868SOL    MW4 3545   2.270   3.983   1.506 -0.9124  0.0994 -0.0679
  869SOL     OW 3546   2.214   4.237   1.635 -0.4126 -0.0630  0.1301
  869SOL    HW2 3547   2.285   4.294   1.605 -0.2412 -0.8032 -0.9042
  869SOL    HW3 3548   2.230   4.154   1.591 -1.3018 -0.5726  0.7527
  869SOL    MW4 3549   2.225   4.234   1.625 -0.5074 -0.2275  0.0758
  870SOL     OW 3550   2.396   4.393   1.511 -0.1296 -0.1445 -0.0247
  870SOL    HW2 3551   2.391   4.481   1.546 -0.3855 -0.5595  1.0042
  870SOL    HW3 3552   2.396   4.404   1.416  0.0109  0.9613  0.1078
  870SOL    MW4 3553   2.395   4.406   1.503 -0.1450 -0.0534  0.1285
  871SOL     OW 3554   2.897   4.634   1.630  0.2730 -0.5199 -0.2631
  871SOL    HW2 3555   2.894   4.636   1.726 -0.5209 -0.1161 -0.2950
  871SOL    HW3 3556   2.820   4.683   1.602 -0.7610 -2.5404 -1.1014
  871SOL    MW4 3557   2.886   4.641   1.639  0.0319 -0.7329 -0.3779
  872SOL     OW 3558   2.667   0.091   1.519  0.1757  0.0718 -0.3374
  872SOL    HW2 3559   2.667   0.177   1.561  1.2211  0.0711 -0.3178
  872SOL    HW3 3560   2.588   0.048   1.551  0.6034  0.3329  1.0695
  872SOL    MW4 3561   2.657   0.097   1.529  0.3700  0.1061 -0.1493
  873SOL     OW 3562   2.663   0.345   1.605 -0.4378 -0.4523 -0.0781
  873SOL    HW2 3563   2.666   0.354   1.700 -1.7765 -0.5766 -0.0026
  873SOL    HW3 3564   2.749   0.372   1.575 -0.1118 -0.0929  1.1499
  873SOL    MW4 3565   2.674   0.350   1.614 -0.5715 -0.4213  0.0941
  874SOL     OW 3566   2.883   0.475   1.482 -0.3420  0.0741  0.3157
  874SOL    HW2 3567   2.901   0.563   1.517 -1.6309 -0.3794  2.2312
  874SOL    HW3 3568   2.869   0.489   1.389 -1.8711  2.1209  0.8117
  874SOL    MW4 3569   2.884   0.488   1.474 -0.7136  0.2843  0.6338
  875SOL     OW 3570   2.923   0.729   1.589 -0.0358  0.0617  0.2482
  875SOL    HW2 3571   2.930   0.737   1.684  0.0418  0.3666  0.2151
  875SOL    HW3 3572   2.863   0.799   1.563 -0.6105 -0.4571  0.1504
  875SOL    MW4 3573   2.916   0.739   1.598 -0.1018  0.0335  0.2309
  876SOL     OW 3574   2.717   0.879   1.504  0.3892  0.2421 -0.3676
  876SOL    HW2 3575   2.636   0.838   1.534 -0.1212  0.8111 -0.9590
  876SOL    HW3 3576   2.707   0.887   1.409  0.7691  1.1016 -0.3468
  876SOL    MW4 3577   2.705   0.875   1.495  0.3722  0.4306 -0.4429
  877SOL     OW 3578   2.718   1.143   1.604  0.0887 -0.1264  0.3506
  877SOL    HW2 3579   2.701   1.058   1.562  0.4052 -0.2927  0.5569
  877SOL    HW3 3580   2.645   1.198   1.575 -0.0344 -0.4210  0.0851
  877SOL    MW4 3581   2.706   1.139   1.595  0.1142 -0.1872  0.3427
  878SOL     OW 3582   2.936   1.259   1.500 -0.1926  0.0749  0.5721
  878SOL    HW2 3583   3.014   1.224   1.544  0.9305  1.6953 -0.0794
  878SOL    HW3 3584   2.863   1.217   1.545  1.0337 -0.9830  1.6371
  878SOL    MW4 3585   2.937   1.249   1.512  0.1171  0.1493  0.6268
  879SOL     OW 3586   2.893   1.490   1.641  0.0891  0.0754 -0.8636
  879SOL    HW2 3587   2.848   1.541   1.574 -0.1990  0.1158 -0.6414
  879SOL    HW3 3588   2.918   1.408   1.597 -1.9756 -0.7989 -0.4439
  879SOL    MW4 3589   2.891   1.486   1.626 -0.2217 -0.0347 -0.7788
  880SOL     OW 3590   2.755   1.666   1.459  0.2905  0.2319 -0.0183
  880SOL    HW2 3591   2.727   1.751   1.492 -1.6663 -0.9599  1.5051
  880SOL    HW3 3592   2.727   1.666   1.367 -1.8423  0.3458  0.5978
  880SOL    MW4 3593   2.747   1.677   1.451 -0.2491  0.0896  0.2639
  881SOL     OW 3594   2.706   1.919   1.602 -0.0218  0.1712  0.2240
  881SOL    HW2 3595   2.700   1.912   1.698 -0.7021  0.1074  0.1780
  881SOL    HW3 3596   2.630   1.971   1.577  1.1248  1.7040 -0.1211
  881SOL    MW4 3597   2.695   1.925   1.612  0.0396  0.3650  0.1725
  882SOL     OW 3598   2.959   2.062   1.531  0.6470 -0.4240 -0.1742
  882SOL    HW2 3599   2.947   2.156   1.549  1.1818 -0.8061  2.3720
  882SOL    HW3 3600   2.876   2.022   1.558  0.2758 -0.6509 -1.6258
  882SOL    MW4 3601   2.946   2.069   1.537  0.6685 -0.5043 -0.0297
  883SOL     OW 3602   2.949   2.322   1.616  0.5996  0.0995 -0.0332
  883SOL    HW2 3603   2.942   2.320   1.711  0.6262 -1.7475 -0.0507
  883SOL    HW3 3604   2.862   2.345   1.586  1.0443  2.5544  0.4743
  883SOL    MW4 3605   2.937   2.325   1.624  0.6616  0.1798  0.0315
  884SOL     OW 3606   2.685   2.393   1.528  0.3598 -0.2164 -0.1225
  884SOL    HW2 3607   2.690   2.486   1.551  1.2350  0.3092 -2.2965
  884SOL    HW3 3608   2.601   2.364   1.562 -0.5111  1.7069 -0.5892
  884SOL    MW4 3609   2.675   2.401   1.536  0.3603  0.1066 -0.4708
  885SOL     OW 3610   2.705   2.666   1.588 -0.7223  0.2420  0.5639
  885SOL    HW2 3611   2.770   2.706   1.530 -0.9621  0.3815  0.3930
  885SOL    HW3 3612   2.622   2.702   1.560 -0.7614  0.8994  1.4993
  885SOL    MW4 3613   2.703   2.676   1.577 -0.7594  0.3471  0.6648
  886SOL     OW 3614   2.928   2.807   1.484  0.1241 -0.1914 -0.2527
  886SOL    HW2 3615   2.997   2.752   1.519  0.5218  0.1782 -0.4534
  886SOL    HW3 3616   2.940   2.892   1.528 -0.3762 -0.2120 -0.0719
  886SOL    MW4 3617   2.938   2.811   1.494  0.1104 -0.1457 -0.2552
  887SOL     OW 3618   2.900   3.050   1.590 -0.3668  0.4013  0.3477
  887SOL    HW2 3619   2.887   3.072   1.682 -0.4454 -0.5307  0.5642
  887SOL    HW3 3620   2.977   3.100   1.564  0.4994 -0.4289  1.3084
  887SOL    MW4 3621   2.908   3.059   1.599 -0.2625  0.1690  0.5032
  888SOL     OW 3622   2.683   3.177   1.502  0.1743  0.5074 -0.1601
  888SOL    HW2 3623   2.763   3.142   1.541 -0.2380  0.8404  1.0161
  888SOL    HW3 3624   2.706   3.195   1.411  1.2100 -0.1204 -0.0303
  888SOL    MW4 3625   2.697   3.175   1.495  0.2565  0.4685  0.0123
  889SOL     OW 3626   2.675   3.445   1.578 -0.2725  0.2887 -0.7615
  889SOL    HW2 3627   2.673   3.454   1.673 -0.6353  1.3145 -0.8634
  889SOL    HW3 3628   2.681   3.351   1.563 -0.9518  0.0735  0.2663
  889SOL    MW4 3629   2.675   3.434   1.588 -0.4098  0.3953 -0.6393
  890SOL     OW 3630   2.868   3.613   1.460  0.0893  0.1940 -0.1937
  890SOL    HW2 3631   2.805   3.550   1.496  0.7563 -0.9484 -0.9944
  890SOL    HW3 3632   2.858   3.606   1.365  1.6607 -0.2900 -0.3530
  890SOL    MW4 3633   2.859   3.604   1.452  0.3846 -0.0205 -0.3203
  891SOL     OW 3634   2.909   3.847   1.597 -0.0856 -0.2590  0.0039
  891SOL    HW2 3635   2.839   3.902   1.562 -0.4171 -0.7518 -0.1044
  891SOL    HW3 3636   2.891   3.760   1.562 -0.5844 -0.8193  1.6313
  891SOL    MW4 3637   2.898   3.843   1.587 -0.1953 -0.3979  0.2043
  892SOL     OW 3638   2.711   4.010   1.503 -0.2394  0.0751  0.0911
  892SOL    HW2 3639   2.681   4.085   1.555 -0.9991 -0.5572  0.5765
  892SOL    HW3 3640   2.711   4.042   1.413 -0.4703  0.6810  0.3025
  892SOL    MW4 3641   2.707   4.025   1.498 -0.3698  0.0715  0.1829
  893SOL     OW 3642   2.627   4.264   1.608 -0.1583 -0.1797  0.1479
  893SOL    HW2 3643   2.707   4.306   1.575  0.1010 -0.8882 -0.1519
  893SOL    HW3 3644   2.555   4.314   1.570  0.1289  1.7094  2.0077
  893SOL    MW4 3645   2.628   4.276   1.599 -0.0861 -0.0234  0.3537
  894SOL     OW 3646   2.864   4.379   1.536 -0.0215  0.4534  0.2482
  894SOL    HW2 3647   2.872   4.472   1.556 -0.4018  0.5754 -0.1380
  894SOL    HW3 3648   2.871   4.375   1.440 -0.8327  0.1761  0.1977
  894SOL    MW4 3649   2.866   4.390   1.526 -0.1788  0.4325  0.1907
  895SOL     OW 3650   3.373   4.578   1.670  0.3477 -0.4609 -0.3292
  895SOL    HW2 3651   3.448   4.633   1.645 -0.0037 -0.1352 -0.6596
  895SOL    HW3 3652   3.379   4.502   1.612 -1.2396  0.9145 -2.3820
  895SOL    MW4 3653   3.384   4.576   1.659  0.0918 -0.2370 -0.6436
  896SOL     OW 3654   3.133   0.064   1.542  0.1485 -0.3509 -0.3348
  896SOL    HW2 3655   3.203   0.019   1.589  0.8188 -0.8897 -1.8131
  896SOL    HW3 3656   3.053   0.016   1.566  0.2639  0.2483  1.3319
  896SOL    MW4 3657   3.132   0.052   1.551  0.2522 -0.3429 -0.3098
  897SOL     OW 3658   3.082   0.343   1.619  0.3537  0.2791 -0.3907
  897SOL    HW2 3659   3.080   0.251   1.594 -0.0419  0.0865  0.3435
  897SOL    HW3 3660   3.025   0.387   1.556  0.8314  0.0788 -0.9647
  897SOL    MW4 3661   3.075   0.337   1.607  0.3645  0.2272 -0.3698
  898SOL     OW 3662   3.310   0.511   1.567 -0.7628  0.2830 -0.1466
  898SOL    HW2 3663   3.234   0.457   1.588 -1.1419  0.9033  0.0793
  898SOL    HW3 3664   3.322   0.502   1.473 -0.9968  0.0345 -0.1516
  898SOL    MW4 3665   3.302   0.502   1.558 -0.8435  0.3321 -0.1175
  899SOL     OW 3666   3.374   0.778   1.664 -0.0990  0.1932 -0.4109
  899SOL    HW2 3667   3.400   0.779   1.756  0.6851 -0.2825 -0.6205
  899SOL    HW3 3668   3.357   0.685   1.645 -0.5930  0.3311 -0.6545
  899SOL    MW4 3669   3.375   0.766   1.673 -0.0610  0.1487 -0.4706
  900SOL     OW 3670   3.157   0.861   1.494  0.0941 -0.2737 -0.1302
  900SOL    HW2 3671   3.229   0.833   1.551  0.2367 -0.8630 -0.5940
  900SOL    HW3 3672   3.082   0.808   1.523 -0.5923  1.5251  1.4649
  900SOL    MW4 3673   3.157   0.850   1.506  0.0224 -0.1141  0.0190
  901SOL     OW 3674   3.152   1.115   1.601  0.0230  0.3136 -0.0509
  901SOL    HW2 3675   3.164   1.093   1.694 -1.3707 -0.3922 -0.0239
  901SOL    HW3 3676   3.140   1.030   1.558 -2.3196  0.7902 -0.4147
  901SOL    MW4 3677   3.152   1.101   1.608 -0.4699  0.2834 -0.0952
  902SOL     OW 3678   3.374   1.230   1.496 -0.1128  0.2646 -0.0545
  902SOL    HW2 3679   3.459   1.195   1.523  0.1741  0.9164 -0.1171
  902SOL    HW3 3680   3.311   1.177   1.544  0.3922  1.5341  2.0876
  902SOL    MW4 3681   3.377   1.218   1.506 -0.0083  0.5182  0.2199
  903SOL     OW 3682   3.342   1.505   1.627  0.1523 -0.2474 -0.1978
  903SOL    HW2 3683   3.357   1.479   1.718  1.1522 -1.7887 -0.7755
  903SOL    HW3 3684   3.322   1.423   1.581 -0.6055  0.5463 -1.3144
  903SOL    MW4 3685   3.342   1.491   1.633  0.1845 -0.3462 -0.4214
  904SOL     OW 3686   3.116   1.622   1.509  0.8235 -0.1271  0.0690
  904SOL    HW2 3687   3.187   1.582   1.559  0.8019  0.7718  0.8257
  904SOL    HW3 3688   3.037   1.577   1.538  1.1227 -1.4793 -1.1401
  904SOL    MW4 3689   3.115   1.611   1.519  0.8605 -0.1869  0.0093
  905SOL     OW 3690   3.154   1.888   1.610  0.1457 -0.6135  0.0070
  905SOL    HW2 3691   3.124   1.801   1.581 -1.1723 -0.2881  0.3704
  905SOL    HW3 3692   3.093   1.949   1.570  0.5709  0.0961  0.4369
  905SOL    MW4 3693   3.142   1.884   1.601  0.0281 -0.4770  0.1116
  906SOL     OW 3694   3.380   2.031   1.546 -0.1288 -0.5393 -0.0698
  906SOL    HW2 3695   3.298   1.988   1.570 -1.8983  2.6257 -0.0639
  906SOL    HW3 3696   3.389   2.017   1.452 -2.0066  1.0750 -0.5436
  906SOL    MW4 3697   3.370   2.024   1.537 -0.6099  0.0913 -0.1316
  907SOL     OW 3698   3.382   2.304   1.611 -0.2288  0.2388  0.1077
  907SOL    HW2 3699   3.462   2.326   1.563 -0.9003  0.3976 -0.9576
  907SOL    HW3 3700   3.372   2.210   1.598 -0.6885  0.3677 -0.5110
  907SOL    MW4 3701   3.391   2.295   1.603 -0.3779  0.2768 -0.1146
  908SOL     OW 3702   3.170   2.429   1.465 -0.3361 -0.4037 -0.0638
  908SOL    HW2 3703   3.237   2.399   1.527 -1.8965  2.1103  3.0070
  908SOL    HW3 3704   3.088   2.399   1.502 -1.2683  0.6725 -1.2090
  908SOL    MW4 3705   3.168   2.421   1.478 -0.6652  0.0701  0.1903
  909SOL     OW 3706   3.158   2.680   1.583 -0.3164  0.5056 -0.5311
  909SOL    HW2 3707   3.234   2.728   1.550 -0.8287  0.5448 -1.7062
  909SOL    HW3 3708   3.163   2.594   1.541 -0.5583  0.2726 -0.0932
  909SOL    MW4 3709   3.168   2.675   1.573 -0.4158  0.4799 -0.6282
  910SOL     OW 3710   3.377   2.815   1.488  0.2961 -0.0710 -0.4236
  910SOL    HW2 3711   3.390   2.906   1.516  1.1228  0.1344 -1.4307
  910SOL    HW3 3712   3.386   2.818   1.393  0.4969 -1.2427 -0.4451
  910SOL    MW4 3713   3.380   2.828   1.479  0.4315 -0.1984 -0.5593
  911SOL     OW 3714   3.363   3.075   1.608 -0.2305 -0.0666  0.0507
  911SOL    HW2 3715   3.353   3.070   1.703  1.3522 -2.4940  0.1531
  911SOL    HW3 3716   3.437   3.134   1.595 -0.9888  0.9383  0.2861
  911SOL    MW4 3717   3.372   3.082   1.619 -0.1216 -0.2542  0.0952
  912SOL     OW 3718   3.122   3.191   1.536 -0.4000  0.1312 -0.1684
  912SOL    HW2 3719   3.203   3.152   1.570 -0.6837  1.7947  2.5108
  912SOL    HW3 3720   3.135   3.191   1.441  1.6303 -2.0095  0.0349
  912SOL    MW4 3721   3.135   3.186   1.528 -0.1695  0.0682  0.2118
  913SOL     OW 3722   3.113   3.508   1.567 -0.0812  0.0855 -0.0282
  913SOL    HW2 3723   3.101   3.414   1.556 -1.6088  0.2968 -0.2871
  913SOL    HW3 3724   3.043   3.547   1.515  0.3086  1.3545  0.3875
  913SOL    MW4 3725   3.102   3.501   1.559 -0.2313  0.2806 -0.0075
  914SOL     OW 3726   3.353   3.640   1.522  0.4035  0.0230 -0.3060
  914SOL    HW2 3727   3.411   3.586   1.577 -0.4971  0.3282  0.9540
  914SOL    HW3 3728   3.271   3.592   1.520  0.0501  0.6321 -0.3820
  914SOL    MW4 3729   3.350   3.627   1.529  0.2379  0.1435 -0.1498
  915SOL     OW 3730   3.336   3.890   1.637  0.0606 -0.2313  0.2090
  915SOL    HW2 3731   3.261   3.934   1.596 -0.3107 -0.3711  0.7352
  915SOL    HW3 3732   3.330   3.800   1.606  0.4089 -0.0814 -0.2983
  915SOL    MW4 3733   3.325   3.884   1.627  0.0577 -0.2301  0.2116
  916SOL     OW 3734   3.124   4.006   1.513 -0.0857 -0.2864 -0.2380
  916SOL    HW2 3735   3.113   4.097   1.541  0.7392  0.0698 -1.0023
  916SOL    HW3 3736   3.055   3.958   1.557  0.7944  0.3502  1.8743
  916SOL    MW4 3737   3.114   4.012   1.522  0.1395 -0.1554 -0.0602
  917SOL     OW 3738   3.091   4.273   1.618 -0.1445  0.2989  0.4559
  917SOL    HW2 3739   3.097   4.280   1.713  0.2012  0.8874  0.3932
  917SOL    HW3 3740   3.003   4.304   1.597  0.3099  1.6282  0.4549
  917SOL    MW4 3741   3.080   4.278   1.628 -0.0386  0.5517  0.4474
  918SOL     OW 3742   3.348   4.345   1.535  0.0357 -0.2889  0.0464
  918SOL    HW2 3743   3.265   4.312   1.570 -0.3405  0.9310  0.3414
  918SOL    HW3 3744   3.329   4.363   1.443 -0.1537  0.4028  0.2197
  918SOL    MW4 3745   3.334   4.343   1.527 -0.0389 -0.0362  0.1081
  919SOL     OW 3746   3.812   4.647   1.670  0.3481 -0.0295 -0.4333
  919SOL    HW2 3747   3.814   4.645   1.766 -0.4721  1.7111 -0.3759
  919SOL    HW3 3748   3.894   4.690   1.646  0.8708 -1.0726 -0.5458
  919SOL    MW4 3749   3.823   4.652   1.680  0.3090  0.0625 -0.4406
  920SOL     OW 3750   3.565   0.064   1.558 -0.2086  0.0882 -0.2649
  920SOL    HW2 3751   3.649   0.043   1.599 -0.6474 -0.7826  0.2085
  920SOL    HW3 3752   3.585   0.067   1.465  0.6828  1.5344 -0.0467
  920SOL    MW4 3753   3.579   0.061   1.551 -0.1490  0.1641 -0.1737
  921SOL     OW 3754   3.527   0.339   1.654  0.2714 -0.1187 -0.0374
  921SOL    HW2 3755   3.516   0.249   1.623  0.5405  0.0446 -0.6087
  921SOL    HW3 3756   3.449   0.385   1.623 -0.0117 -0.2234  0.5125
  921SOL    MW4 3757   3.515   0.333   1.646  0.2694 -0.1110 -0.0402
  922SOL     OW 3758   3.775   0.488   1.569 -0.2059  0.2430 -0.0458
  922SOL    HW2 3759   3.689   0.457   1.597 -0.3265 -1.2679 -1.9989
  922SOL    HW3 3760   3.771   0.490   1.474  1.4006  1.7084 -0.1153
  922SOL    MW4 3761   3.763   0.484   1.560 -0.0098  0.2370 -0.3127
  923SOL     OW 3762   3.828   0.756   1.651  0.2362 -0.2492  0.2046
  923SOL    HW2 3763   3.768   0.806   1.596  0.3243 -0.4954 -0.1157
  923SOL    HW3 3764   3.811   0.665   1.629  0.2735 -0.3483  0.5844
  923SOL    MW4 3765   3.818   0.751   1.641  0.2525 -0.2947  0.2127
  924SOL     OW 3766   3.608   0.837   1.498 -0.3473 -0.3388  0.4370
  924SOL    HW2 3767   3.521   0.813   1.531 -0.3313 -0.9555  0.0306
  924SOL    HW3 3768   3.596   0.848   1.404 -0.7483  2.9961  0.8008
  924SOL    MW4 3769   3.595   0.835   1.490 -0.3979  0.0198  0.4313
  925SOL     OW 3770   3.611   1.106   1.587  0.2569 -0.3033  0.2819
  925SOL    HW2 3771   3.697   1.133   1.556  0.7696 -0.4387  1.5539
  925SOL    HW3 3772   3.608   1.011   1.571  1.0036 -0.5881  1.7379
  925SOL    MW4 3773   3.622   1.097   1.581  0.4232 -0.3586  0.6416
  926SOL     OW 3774   3.836   1.254   1.483 -0.3264 -0.2630  0.3567
  926SOL    HW2 3775   3.913   1.215   1.526 -0.6441  0.4951  1.6315
  926SOL    HW3 3776   3.821   1.336   1.530 -0.4777  0.7730 -1.4489
  926SOL    MW4 3777   3.844   1.259   1.495 -0.3884 -0.0262  0.2867
  927SOL     OW 3778   3.810   1.485   1.629 -0.3444 -0.2928 -0.7241
  927SOL    HW2 3779   3.806   1.478   1.724 -0.3079 -0.3413 -0.7264
  927SOL    HW3 3780   3.732   1.536   1.606 -0.9435 -1.2177 -0.7628
  927SOL    MW4 3781   3.799   1.491   1.638 -0.4187 -0.4210 -0.7296
  928SOL     OW 3782   3.584   1.630   1.555  0.2459 -0.1258  0.3824
  928SOL    HW2 3783   3.507   1.585   1.590  0.8108 -0.1472  1.6287
  928SOL    HW3 3784   3.579   1.718   1.592  1.3355 -0.4246  1.2458
  928SOL    MW4 3785   3.573   1.636   1.564  0.4642 -0.1681  0.6609
  929SOL     OW 3786   3.593   1.895   1.653 -0.0954  0.3130  0.1825
  929SOL    HW2 3787   3.504   1.925   1.634 -0.3948 -0.4548  0.3374
  929SOL    HW3 3788   3.602   1.906   1.748 -0.7538 -1.4855  0.4792
  929SOL    MW4 3789   3.582   1.901   1.663 -0.2220 -0.0255  0.2420
  930SOL     OW 3790   3.797   2.006   1.500 -0.1787 -0.3416  0.2150
  930SOL    HW2 3791   3.821   2.085   1.548 -0.0029 -0.5759  0.5097
  930SOL    HW3 3792   3.726   1.967   1.550 -1.4893  0.5821 -0.8902
  930SOL    MW4 3793   3.791   2.011   1.513 -0.3285 -0.2506  0.1080
  931SOL     OW 3794   3.836   2.269   1.604  0.3459 -0.2971  0.2319
  931SOL    HW2 3795   3.811   2.261   1.696 -0.3354  0.7661  0.1480
  931SOL    HW3 3796   3.896   2.343   1.602  1.4906 -1.2207  0.0323
  931SOL    MW4 3797   3.841   2.277   1.616  0.4072 -0.2787  0.1944
  932SOL     OW 3798   3.623   2.389   1.479  0.1132 -0.6076  0.0544
  932SOL    HW2 3799   3.612   2.480   1.505 -0.2128 -0.6612  0.1061
  932SOL    HW3 3800   3.694   2.357   1.533  0.0799 -0.4447  0.1944
  932SOL    MW4 3801   3.631   2.397   1.489  0.0658 -0.5929  0.0796
  933SOL     OW 3802   3.575   2.626   1.594  0.1761 -0.3923 -0.8239
  933SOL    HW2 3803   3.587   2.623   1.689 -0.3052 -0.9937 -0.7807
  933SOL    HW3 3804   3.525   2.706   1.578  0.5205 -0.1297 -0.6049
  933SOL    MW4 3805   3.570   2.636   1.604  0.1581 -0.4368 -0.7892
  934SOL     OW 3806   3.802   2.829   1.514 -0.0687  0.0839 -0.1805
  934SOL    HW2 3807   3.879   2.784   1.550 -0.6194 -0.5345  0.2484
  934SOL    HW3 3808   3.730   2.768   1.530 -0.5447  0.3981 -1.1339
  934SOL    MW4 3809   3.803   2.815   1.521 -0.2041  0.0436 -0.2496
  935SOL     OW 3810   3.797   3.124   1.607  0.4067  0.8640  0.2908
  935SOL    HW2 3811   3.881   3.162   1.581  0.3778  0.4760 -0.3887
  935SOL    HW3 3812   3.800   3.035   1.573 -0.5315  1.0414 -0.2817
  935SOL    MW4 3813   3.808   3.117   1.599  0.2789  0.8364  0.1256
  936SOL     OW 3814   3.566   3.259   1.554  0.4886  0.2005  0.3268
  936SOL    HW2 3815   3.653   3.219   1.562  1.3402  1.8913 -0.0200
  936SOL    HW3 3816   3.548   3.256   1.460  0.3749  0.2530  0.3474
  936SOL    MW4 3817   3.575   3.253   1.542  0.5860  0.4306  0.2838
  937SOL     OW 3818   3.584   3.508   1.665 -0.0532 -0.3121 -0.0058
  937SOL    HW2 3819   3.656   3.548   1.616 -0.6142  0.4303 -0.2270
  937SOL    HW3 3820   3.570   3.424   1.623 -0.6363  0.3885 -1.2135
  937SOL    MW4 3821   3.592   3.503   1.653 -0.2043 -0.1218 -0.1943
  938SOL     OW 3822   3.780   3.651   1.533 -0.0164  0.4382  0.0911
  938SOL    HW2 3823   3.852   3.595   1.561 -0.4052  0.4972  1.2157
  938SOL    HW3 3824   3.785   3.728   1.589  0.8038  1.7729 -1.7628
  938SOL    MW4 3825   3.790   3.654   1.544  0.0408  0.6223 -0.0051
  939SOL     OW 3826   3.820   3.873   1.676  0.2096 -0.3267 -0.2509
  939SOL    HW2 3827   3.882   3.928   1.629  1.1941 -0.8180  0.4453
  939SOL    HW3 3828   3.734   3.911   1.657  0.6686  0.0042 -1.7066
  939SOL    MW4 3829   3.817   3.885   1.668  0.4003 -0.3476 -0.3511
  940SOL     OW 3830   3.570   3.987   1.566  0.2290 -0.1408 -0.1349
  940SOL    HW2 3831   3.571   4.079   1.595  0.3011  0.3307 -1.5823
  940SOL    HW3 3832   3.486   3.954   1.596  0.4573  0.2166  0.9361
  940SOL    MW4 3833   3.559   3.995   1.574  0.2685 -0.0312 -0.1844
  941SOL     OW 3834   3.574   4.243   1.663 -0.0657 -0.1486 -0.0752
  941SOL    HW2 3835   3.563   4.225   1.757 -0.2198  1.6383  0.2784
  941SOL    HW3 3836   3.489   4.280   1.637  0.1105 -0.2840 -0.8423
  941SOL    MW4 3837   3.561   4.245   1.672 -0.0629  0.0696 -0.1297
  942SOL     OW 3838   3.816   4.376   1.615 -0.2134  0.2439  0.0525
  942SOL    HW2 3839   3.730   4.338   1.630  0.1549  0.4395  3.0166
  942SOL    HW3 3840   3.802   4.471   1.619  0.0618  0.2857  0.0692
  942SOL    MW4 3841   3.803   4.383   1.617 -0.1285  0.2756  0.4456
  943SOL     OW 3842   4.281   4.639   1.629 -0.6893 -0.2547  0.0059
  943SOL    HW2 3843   4.283   4.653   1.724 -0.2230 -0.0674 -0.0265
  943SOL    HW3 3844   4.283   4.544   1.618  1.3987 -0.2451  0.1579
  943SOL    MW4 3845   4.282   4.629   1.640 -0.3524 -0.2289  0.0217
  944SOL     OW 3846   4.044   0.101   1.564  0.6353  0.1041 -0.2475
  944SOL    HW2 3847   4.040   0.189   1.602 -0.3108  0.4965 -1.2425
  944SOL    HW3 3848   4.117   0.059   1.610 -1.6542 -0.1154  3.4094
  944SOL    MW4 3849   4.053   0.107   1.575  0.2084  0.1269  0.1038
  945SOL     OW 3850   4.031   0.355   1.663 -0.3033  0.3831 -0.0835
  945SOL    HW2 3851   4.030   0.336   1.757  0.6076  0.8794  0.0375
  945SOL    HW3 3852   3.944   0.390   1.645 -0.9430 -0.9777  0.2964
  945SOL    MW4 3853   4.020   0.357   1.673 -0.2675  0.2691 -0.0174
  946SOL     OW 3854   4.297   0.471   1.549  0.3880 -0.3365  0.1096
  946SOL    HW2 3855   4.213   0.453   1.590 -0.1679  0.6350 -0.5694
  946SOL    HW3 3856   4.362   0.439   1.611 -0.4563  0.4327  1.4035
  946SOL    MW4 3857   4.295   0.464   1.563  0.2036 -0.1069  0.1907
  947SOL     OW 3858   4.276   0.734   1.609 -0.0385 -0.3746  0.2589
  947SOL    HW2 3859   4.314   0.649   1.588 -0.5465 -0.4592 -0.3263
  947SOL    HW3 3860   4.343   0.798   1.584  0.2138 -0.5860  0.3954
  947SOL    MW4 3861   4.290   0.731   1.603 -0.0725 -0.4137  0.1996
  948SOL     OW 3862   4.049   0.876   1.534 -0.0047  0.3077 -0.6305
  948SOL    HW2 3863   4.131   0.829   1.552  0.0580  0.8637  0.6209
  948SOL    HW3 3864   3.982   0.827   1.582 -0.2315  0.4590 -0.7937
  948SOL    MW4 3865   4.051   0.863   1.543 -0.0257  0.4011 -0.4869
  949SOL     OW 3866   4.042   1.136   1.623  0.0465 -0.0411 -0.0029
  949SOL    HW2 3867   4.051   1.132   1.718  1.0798 -0.9508 -0.1256
  949SOL    HW3 3868   4.038   1.044   1.595 -2.5370  0.2375 -0.6371
  949SOL    MW4 3869   4.043   1.123   1.632 -0.1583 -0.1243 -0.1028
  950SOL     OW 3870   4.262   1.284   1.545 -0.5131  0.0507  0.3017
  950SOL    HW2 3871   4.188   1.235   1.581 -1.5049  0.3050 -1.3468
  950SOL    HW3 3872   4.335   1.222   1.548 -0.9523 -0.4286  1.3107
  950SOL    MW4 3873   4.262   1.269   1.550 -0.7024  0.0211  0.2174
  951SOL     OW 3874   4.259   1.542   1.622 -0.2138  0.0778 -0.2745
  951SOL    HW2 3875   4.270   1.457   1.579  1.4724 -0.4807  1.1521
  951SOL    HW3 3876   4.335   1.593   1.595  0.2999  0.0936  1.1198
  951SOL    MW4 3877   4.271   1.538   1.613  0.0758  0.0062  0.0978
  952SOL     OW 3878   4.020   1.646   1.506 -0.1100 -0.0340 -0.1768
  952SOL    HW2 3879   4.103   1.609   1.536  0.3155  0.7202 -0.3973
  952SOL    HW3 3880   3.953   1.593   1.548  0.4881 -1.1920 -0.6694
  952SOL    MW4 3881   4.022   1.634   1.515  0.0253 -0.0871 -0.2708
  953SOL     OW 3882   4.066   1.913   1.553  0.1922 -0.5136  0.3010
  953SOL    HW2 3883   4.041   1.821   1.550  0.8525 -0.7864  2.2699
  953SOL    HW3 3884   3.994   1.959   1.510 -0.7066 -1.8442  0.3478
  953SOL    MW4 3885   4.053   1.907   1.547  0.1607 -0.7252  0.5670
  954SOL     OW 3886   4.304   2.046   1.507  0.1299  0.0454  0.5799
  954SOL    HW2 3887   4.228   1.995   1.535  0.0115 -0.0962  0.0139
  954SOL    HW3 3888   4.292   2.057   1.412  1.5695 -1.2481  0.2263
  954SOL    MW4 3889   4.293   2.041   1.498  0.3042 -0.1438  0.4586
  955SOL     OW 3890   4.277   2.320   1.589  0.0658 -0.0164  0.6129
  955SOL    HW2 3891   4.275   2.319   1.685 -0.3504 -0.2473  0.6058
  955SOL    HW3 3892   4.288   2.228   1.564 -0.1507  0.0038  0.4368
  955SOL    MW4 3893   4.278   2.308   1.598 -0.0176 -0.0441  0.5887
  956SOL     OW 3894   4.023   2.450   1.552  0.2012 -0.1392  0.3453
  956SOL    HW2 3895   4.036   2.542   1.576  0.8674  0.1783 -1.1571
  956SOL    HW3 3896   4.108   2.409   1.568  0.1730 -0.2852  0.1182
  956SOL    MW4 3897   4.036   2.457   1.557  0.2856 -0.1166  0.1171
  957SOL     OW 3898   4.037   2.728   1.612 -0.2190  0.1102 -0.1519
  957SOL    HW2 3899   4.044   2.736   1.707 -0.0200 -1.7126 -0.0039
  957SOL    HW3 3900   4.120   2.762   1.579 -0.0080  0.0921  0.3613
  957SOL    MW4 3901   4.049   2.734   1.620 -0.1650 -0.1328 -0.0646
  958SOL     OW 3902   4.269   2.871   1.483  0.1580 -0.5089 -0.4164
  958SOL    HW2 3903   4.279   2.967   1.485 -0.3339 -0.4366 -1.3173
  958SOL    HW3 3904   4.264   2.850   1.390 -0.8864 -1.3019 -0.1786
  958SOL    MW4 3905   4.270   2.881   1.471 -0.0443 -0.6042 -0.5039
  959SOL     OW 3906   4.273   3.147   1.566 -0.4130  0.1713  0.0583
  959SOL    HW2 3907   4.271   3.148   1.661  0.1235  0.3862  0.0680
  959SOL    HW3 3908   4.366   3.159   1.543 -0.5623  0.3172 -0.4887
  959SOL    MW4 3909   4.285   3.149   1.575 -0.3614  0.2191 -0.0125
  960SOL     OW 3910   4.029   3.266   1.498  0.2515  0.0997  0.9367
  960SOL    HW2 3911   4.031   3.357   1.528 -0.5762  0.6774 -0.7127
  960SOL    HW3 3912   4.118   3.235   1.512  0.2564  0.7926  2.6103
  960SOL    MW4 3913   4.041   3.274   1.504  0.1435  0.2673  0.9400
  961SOL     OW 3914   4.026   3.523   1.585 -0.0198  0.1853 -0.1435
  961SOL    HW2 3915   4.020   3.491   1.675 -0.2885 -1.2107 -0.6452
  961SOL    HW3 3916   4.118   3.547   1.574  0.1346 -0.1904  0.3246
  961SOL    MW4 3917   4.037   3.522   1.595 -0.0353 -0.0484 -0.1479
  962SOL     OW 3918   4.294   3.643   1.530 -0.5671 -0.0516 -0.0354
  962SOL    HW2 3919   4.288   3.732   1.566 -0.3011 -0.0212 -0.0635
  962SOL    HW3 3920   4.279   3.654   1.437 -1.9277 -0.2168  0.1510
  962SOL    MW4 3921   4.291   3.656   1.523 -0.7114 -0.0694 -0.0143
  963SOL     OW 3922   4.269   3.898   1.617 -0.5078 -0.4258  0.2640
  963SOL    HW2 3923   4.282   3.906   1.711  0.5942  0.5416  0.0388
  963SOL    HW3 3924   4.178   3.925   1.603 -0.3834  0.3448  0.9328
  963SOL    MW4 3925   4.258   3.902   1.628 -0.3462 -0.1965  0.3227
  964SOL     OW 3926   4.033   4.021   1.582  0.6469  0.6116  0.5737
  964SOL    HW2 3927   4.049   4.101   1.633 -0.4145  1.6625 -0.6846
  964SOL    HW3 3928   4.058   4.045   1.493  1.6735 -0.9304  0.4411
  964SOL    MW4 3929   4.038   4.035   1.577  0.6423  0.5465  0.3902
  965SOL     OW 3930   4.064   4.274   1.690  0.0134 -0.1520 -0.0085
  965SOL    HW2 3931   4.059   4.295   1.784 -0.1663 -0.6194  0.0868
  965SOL    HW3 3932   3.975   4.290   1.658 -0.2516 -1.2677  0.1690
  965SOL    MW4 3933   4.052   4.279   1.698 -0.0453 -0.3605  0.0273
  966SOL     OW 3934   4.295   4.375   1.582 -0.4629 -0.4997 -0.2278
  966SOL    HW2 3935   4.226   4.316   1.614 -0.8967 -0.2130 -0.6370
  966SOL    HW3 3936   4.288   4.371   1.487  0.5074 -0.9659 -0.2845
  966SOL    MW4 3937   4.285   4.367   1.574 -0.3920 -0.5236 -0.2894
  967SOL     OW 3938   0.237   0.006   1.886  0.1109  0.1307  0.3025
  967SOL    HW2 3939   0.317   0.039   1.927  0.0693  1.2700 -0.4943
  967SOL    HW3 3940   0.257   0.007   1.792 -1.0477  1.0021  0.0542
  967SOL    MW4 3941   0.250   0.011   1.879 -0.0475  0.3963  0.1645
  968SOL     OW 3942   4.490   0.116   1.995 -0.0214  0.3806 -0.3417
  968SOL    HW2 3943   4.482   0.208   1.971  2.0337  1.2542  1.9994
  968SOL    HW3 3944   4.569   0.086   1.949 -1.7764 -0.8103 -2.6667
  968SOL    MW4 3945   4.500   0.124   1.986  0.0182  0.3388 -0.3396
  969SOL     OW 3946   4.471   0.401   1.970 -0.0973  0.2358  0.5817
  969SOL    HW2 3947   4.392   0.439   2.007  0.7082  1.5660  0.9546
  969SOL    HW3 3948   4.543   0.454   2.006  0.8962 -0.3835 -0.4576
  969SOL    MW4 3949   4.470   0.413   1.980  0.1402  0.3296  0.4938
  970SOL     OW 3950   0.231   0.539   2.002 -0.5693 -0.0463  0.0277
  970SOL    HW2 3951   0.289   0.481   1.951 -0.5937 -1.0738  1.1587
  970SOL    HW3 3952   0.236   0.623   1.956  0.5099 -0.5782 -0.8656
  970SOL    MW4 3953   0.240   0.542   1.989 -0.4301 -0.2521  0.0590
  971SOL     OW 3954   0.229   0.814   1.913 -0.0121  0.5482  0.3588
  971SOL    HW2 3955   0.314   0.846   1.943 -0.1024  0.2636  0.9239
  971SOL    HW3 3956   0.222   0.845   1.822  0.2747  1.3927  0.6167
  971SOL    MW4 3957   0.239   0.823   1.905  0.0138  0.6221  0.4674
  972SOL     OW 3958   4.475   0.873   2.049  0.0056  0.0610 -0.5218
  972SOL    HW2 3959   4.416   0.824   1.992 -0.1480  0.8436 -1.0514
  972SOL    HW3 3960   4.562   0.854   2.016  0.2189 -2.5998  1.4308
  972SOL    MW4 3961   4.478   0.864   2.037  0.0138 -0.1869 -0.3343
  973SOL     OW 3962   0.034   1.103   1.900  0.1035 -0.0480  0.0601
  973SOL    HW2 3963  -0.039   1.162   1.920  1.0959  0.9876  0.6154
  973SOL    HW3 3964   0.017   1.026   1.955 -0.7235  0.0654 -0.0232
  973SOL    MW4 3965   0.022   1.100   1.910  0.1259  0.1035  0.1222
  974SOL     OW 3966   0.213   1.282   2.014  0.0957  0.5641 -0.0929
  974SOL    HW2 3967   0.201   1.370   1.979 -0.2287  0.4262 -0.3304
  974SOL    HW3 3968   0.152   1.228   1.964  0.4105  0.1759 -0.0575
  974SOL    MW4 3969   0.204   1.287   2.003  0.0944  0.4947 -0.1192
  975SOL     OW 3970   0.192   1.534   1.873  0.2365 -0.1077  0.0113
  975SOL    HW2 3971   0.267   1.565   1.924  1.1248  0.9182 -1.8724
  975SOL    HW3 3972   0.119   1.586   1.905  0.9827  1.2469 -0.4420
  975SOL    MW4 3973   0.193   1.545   1.884  0.4522  0.2065 -0.2972
  976SOL     OW 3974   4.486   1.707   1.981 -0.1518  0.5989  0.4530
  976SOL    HW2 3975   4.489   1.706   2.077  1.8760 -1.4263  0.4128
  976SOL    HW3 3976   4.406   1.660   1.960 -0.8721  1.4859  1.1426
  976SOL    MW4 3977   4.476   1.701   1.991  0.0200  0.4486  0.5387
  977SOL     OW 3978   0.032   1.952   1.851 -0.5664  0.3656  0.5406
  977SOL    HW2 3979  -0.038   1.995   1.899  1.6040  1.5666  2.7350
  977SOL    HW3 3980   0.041   1.866   1.891 -2.2175 -0.6506 -1.1996
  977SOL    MW4 3981   0.024   1.947   1.862 -0.4978  0.3899  0.6006
  978SOL     OW 3982   0.223   2.100   1.994 -0.1119  0.0093  0.0566
  978SOL    HW2 3983   0.222   2.185   1.951 -1.8878  0.3707  0.7584
  978SOL    HW3 3984   0.157   2.048   1.947  0.0298 -0.5362  0.4545
  978SOL    MW4 3985   0.214   2.105   1.982 -0.3275 -0.0150  0.2017
  979SOL     OW 3986   0.245   2.333   1.835 -0.3171  0.1174 -0.4306
  979SOL    HW2 3987   0.167   2.372   1.874  0.2826 -0.3598  1.2856
  979SOL    HW3 3988   0.318   2.385   1.869  0.1976 -0.0263 -1.2831
  979SOL    MW4 3989   0.245   2.345   1.845 -0.1701  0.0353 -0.3166
  980SOL     OW 3990   4.255   2.884   1.947 -0.0917  0.5644  0.0503
  980SOL    HW2 3991   4.329   2.828   1.922 -1.2100 -0.5346 -0.8358
  980SOL    HW3 3992   4.261   2.888   2.043  0.4543 -0.4466  0.0751
  980SOL    MW4 3993   4.266   2.877   1.956 -0.1669  0.2859 -0.0632
  981SOL     OW 3994   4.456   2.705   1.890 -0.1470 -0.2635 -0.0111
  981SOL    HW2 3995   4.470   2.616   1.923  0.9847  0.1469  0.6516
  981SOL    HW3 3996   4.480   2.701   1.798  2.7921 -0.0013  0.6814
  981SOL    MW4 3997   4.461   2.693   1.882  0.3901 -0.1748  0.1676
  982SOL     OW 3998   0.210   2.818   1.990 -0.3687  0.1672  0.6289
  982SOL    HW2 3999   0.200   2.909   1.964  0.1416 -0.0370 -0.2910
  982SOL    HW3 4000   0.130   2.775   1.959 -0.8831  0.4084  1.5859
  982SOL    MW4 4001   0.198   2.824   1.982 -0.3693  0.1721  0.6338
  983SOL     OW 4002   0.211   3.076   1.894  0.2072  0.4243 -0.5353
  983SOL    HW2 4003   0.295   3.119   1.913  0.4108 -0.2774  0.2062
  983SOL    HW3 4004   0.210   3.066   1.799  2.0654 -1.7422 -0.3826
  983SOL    MW4 4005   0.222   3.080   1.884  0.4792  0.0460 -0.4175
  984SOL     OW 4006   0.006   3.226   2.020 -0.2679 -0.2196 -0.0674
  984SOL    HW2 4007  -0.072   3.198   1.971 -0.1050 -0.4278 -0.2031
  984SOL    HW3 4008   0.079   3.186   1.974 -0.1187 -0.4622  0.3837
  984SOL    MW4 4009   0.005   3.217   2.008 -0.2270 -0.2792 -0.0255
  985SOL     OW 4010   4.480   3.478   1.911  0.4078  0.2448 -0.2910
  985SOL    HW2 4011   4.549   3.537   1.941  0.5949 -0.5654  0.9375
  985SOL    HW3 4012   4.493   3.398   1.963 -1.6953  0.2292  0.2602
  985SOL    MW4 4013   4.491   3.475   1.922  0.1554  0.1357 -0.0561
  986SOL     OW 4014   0.236   3.607   1.992 -0.5765 -0.0850  0.0857
  986SOL    HW2 4015   0.244   3.595   2.087 -0.7748 -0.0117  0.1137
  986SOL    HW3 4016   0.306   3.554   1.954 -0.7141 -0.3936  0.2579
  986SOL    MW4 4017   0.246   3.598   2.000 -0.6208 -0.1161  0.1122
  987SOL     OW 4018   0.255   3.868   1.886  0.3949  0.4503  0.6139
  987SOL    HW2 4019   0.330   3.919   1.915  0.6488  0.6128 -0.3395
  987SOL    HW3 4020   0.256   3.790   1.942  1.9667 -0.1258 -0.1898
  987SOL    MW4 4021   0.265   3.864   1.897  0.6358  0.3955  0.3821
  988SOL     OW 4022   0.015   3.983   2.038 -0.0210  0.1959  0.4471
  988SOL    HW2 4023  -0.004   4.070   2.002  0.4301  0.4392  0.7813
  988SOL    HW3 4024   0.085   3.949   1.983 -0.7241 -0.2764 -0.1571
  988SOL    MW4 4025   0.022   3.990   2.026 -0.0543  0.1652  0.4113
  989SOL     OW 4026   0.037   4.236   1.924  0.0532 -0.1437 -0.1576
  989SOL    HW2 4027  -0.035   4.296   1.946  0.1717 -0.9729  2.7516
  989SOL    HW3 4028   0.116   4.285   1.945  0.2411 -0.2513 -0.6223
  989SOL    MW4 4029   0.038   4.251   1.930  0.0936 -0.2675  0.1650
  990SOL     OW 4030   0.250   4.398   1.976 -0.1111  0.0615  0.0833
  990SOL    HW2 4031   0.262   4.400   2.071  1.1544 -0.2959 -0.0652
  990SOL    HW3 4032   0.252   4.490   1.950  1.7553  0.0639  0.1490
  990SOL    MW4 4033   0.252   4.410   1.985  0.3021  0.0143  0.0724
  991SOL     OW 4034   0.698   0.006   1.872  0.2088  0.1884  0.2859
  991SOL    HW2 4035   0.685  -0.083   1.904  2.4920 -0.6137 -0.9060
  991SOL    HW3 4036   0.688  -0.000   1.777 -0.6140  1.4131  0.2743
  991SOL    MW4 4037   0.695  -0.006   1.864  0.4015  0.2446  0.1272
  992SOL     OW 4038   0.471   0.144   1.982  0.1475 -0.0678 -0.2641
  992SOL    HW2 4039   0.477   0.234   1.953  1.7310  0.7032  2.3267
  992SOL    HW3 4040   0.554   0.104   1.958  0.2959 -0.2349  0.4879
  992SOL    MW4 4041   0.482   0.150   1.975  0.3760  0.0118  0.1770
  993SOL     OW 4042   0.470   0.389   1.884  0.1494  0.8654 -0.4006
  993SOL    HW2 4043   0.535   0.454   1.910  2.3813 -0.5769 -2.2004
  993SOL    HW3 4044   0.485   0.376   1.790 -1.7236 -0.6382 -0.5223
  993SOL    MW4 4045   0.480   0.396   1.875  0.1967  0.4767 -0.6541
  994SOL     OW 4046   0.688   0.554   1.992 -0.3837  0.4466 -0.1729
  994SOL    HW2 4047   0.667   0.544   2.085  0.2984  0.0179 -0.0592
  994SOL    HW3 4048   0.753   0.485   1.975  0.9091  1.7333 -0.5086
  994SOL    MW4 4049   0.694   0.543   2.002 -0.1233  0.5598 -0.2019
  995SOL     OW 4050   0.674   0.816   1.910  0.4778  0.4867  0.6839
  995SOL    HW2 4051   0.763   0.837   1.937  2.3020 -2.1672 -2.8188
  995SOL    HW3 4052   0.663   0.724   1.935  0.3676 -0.4810 -2.7079
  995SOL    MW4 4053   0.685   0.807   1.917  0.7040  0.0089 -0.2258
  996SOL     OW 4054   0.466   0.947   2.017  0.4289  0.1541 -0.4235
  996SOL    HW2 4055   0.464   1.037   1.986  0.0761  0.9152  1.7660
  996SOL    HW3 4056   0.548   0.912   1.982  0.6912  1.3828 -1.0789
  996SOL    MW4 4057   0.477   0.954   2.008  0.4170  0.4166 -0.2210
  997SOL     OW 4058   0.461   1.203   1.912  0.1478  0.4307 -0.3813
  997SOL    HW2 4059   0.378   1.228   1.954 -0.3761  0.6064 -1.5018
  997SOL    HW3 4060   0.435   1.164   1.829  1.0468 -2.2746  0.5753
  997SOL    MW4 4061   0.446   1.201   1.907  0.1973  0.0970 -0.4029
  998SOL     OW 4062   0.694   1.319   1.994 -0.1386  0.1210  0.1781
  998SOL    HW2 4063   0.685   1.327   2.089  0.5119 -0.5510  0.3004
  998SOL    HW3 4064   0.616   1.270   1.967 -1.4510  2.2297  0.0774
  998SOL    MW4 4065   0.682   1.314   2.003 -0.2259  0.3105  0.1810
  999SOL     OW 4066   0.672   1.570   1.881  0.0010  0.1486 -0.2818
  999SOL    HW2 4067   0.681   1.482   1.917  1.7107 -0.1830 -1.4284
  999SOL    HW3 4068   0.663   1.556   1.786  0.3807  1.1968 -0.4850
  999SOL    MW4 4069   0.672   1.556   1.873  0.2767  0.2432 -0.4599
 1000SOL     OW 4070   0.410   1.665   1.988  0.3232  0.2534  0.1270
 1000SOL    HW2 4071   0.411   1.663   2.084  0.5562  1.1672  0.1535
 1000SOL    HW3 4072   0.487   1.615   1.962 -0.1123 -0.5588  0.4046
 1000SOL    MW4 4073   0.421   1.658   1.997  0.2965  0.2669  0.1670
 1001SOL     OW 4074   0.416   1.930   1.866  0.0865 -0.3507  0.5602
 1001SOL    HW2 4075   0.349   1.985   1.907 -2.2419 -0.6272 -2.6593
 1001SOL    HW3 4076   0.406   1.845   1.908 -0.9004 -0.1122  0.8154
 1001SOL    MW4 4077   0.406   1.926   1.877 -0.3509 -0.3558  0.1690
 1002SOL     OW 4078   0.654   2.071   1.939 -0.3140  0.2134 -0.3240
 1002SOL    HW2 4079   0.660   2.044   2.031 -0.0387 -0.2614 -0.4804
 1002SOL    HW3 4080   0.583   2.018   1.903  0.5271 -0.6241 -0.7471
 1002SOL    MW4 4081   0.645   2.061   1.947 -0.1666  0.0403 -0.4005
 1003SOL     OW 4082   0.690   2.338   1.875  0.2899 -0.3763 -0.1768
 1003SOL    HW2 4083   0.681   2.247   1.904  1.0494  0.1049  1.6480
 1003SOL    HW3 4084   0.695   2.333   1.780  1.1452 -2.3150 -0.0417
 1003SOL    MW4 4085   0.689   2.326   1.866  0.5029 -0.5689  0.0817
 1004SOL     OW 4086   0.451   2.450   1.984 -0.4006 -0.6833  0.0317
 1004SOL    HW2 4087   0.462   2.483   2.074  2.0698  0.7396 -0.7262
 1004SOL    HW3 4088   0.536   2.412   1.963 -0.5350  0.1732 -2.1498
 1004SOL    MW4 4089   0.464   2.450   1.993 -0.0924 -0.3824 -0.3563
 1005SOL     OW 4090   0.466   2.730   1.881 -0.1723  0.9964 -0.1182
 1005SOL    HW2 4091   0.469   2.640   1.915 -1.7875  0.3885 -1.5044
 1005SOL    HW3 4092   0.389   2.769   1.923  0.8726  1.9484  0.9453
 1005SOL    MW4 4093   0.456   2.723   1.891 -0.2476  1.0419 -0.1607
 1006SOL     OW 4094   0.726   2.821   1.958  0.0200  0.2030 -0.0484
 1006SOL    HW2 4095   0.706   2.834   2.051  1.5509 -0.5263  0.4013
 1006SOL    HW3 4096   0.644   2.788   1.921 -0.6603  0.6807  1.0036
 1006SOL    MW4 4097   0.712   2.818   1.966  0.1322  0.1695  0.1497
 1007SOL     OW 4098   0.692   3.067   1.842  0.0278  0.1467 -0.1315
 1007SOL    HW2 4099   0.702   2.985   1.890  0.6546 -0.1014 -0.6756
 1007SOL    HW3 4100   0.702   3.042   1.750  0.0046  0.7969 -0.3125
 1007SOL    MW4 4101   0.695   3.053   1.836  0.1075  0.1998 -0.2271
 1008SOL     OW 4102   0.457   3.194   1.953  0.4394  0.0568 -0.0975
 1008SOL    HW2 4103   0.455   3.285   1.921 -0.9675 -0.5643 -1.8798
 1008SOL    HW3 4104   0.527   3.153   1.902  2.2647  0.5402  1.9458
 1008SOL    MW4 4105   0.466   3.201   1.942  0.4946  0.0386 -0.0631
 1009SOL     OW 4106   0.446   3.454   1.881  0.2005 -0.0886  0.0563
 1009SOL    HW2 4107   0.522   3.508   1.900 -0.1105  0.6798 -0.8475
 1009SOL    HW3 4108   0.443   3.450   1.785  0.2115 -1.6849  0.1084
 1009SOL    MW4 4109   0.455   3.460   1.871  0.1609 -0.1981 -0.0560
 1010SOL     OW 4110   0.649   3.606   1.987 -0.0323  0.1317 -0.1712
 1010SOL    HW2 4111   0.734   3.570   1.964 -0.5734 -0.2257 -1.6416
 1010SOL    HW3 4112   0.641   3.687   1.936 -0.0307  0.8651  0.9538
 1010SOL    MW4 4113   0.659   3.612   1.977 -0.1035  0.1814 -0.2167
 1011SOL     OW 4114   0.679   3.873   1.851  0.5194  0.3407  0.4927
 1011SOL    HW2 4115   0.750   3.924   1.890  1.3980 -0.0410 -0.5591
 1011SOL    HW3 4116   0.707   3.860   1.760 -0.6929 -0.2047  0.1863
 1011SOL    MW4 4117   0.692   3.878   1.844  0.4753  0.2184  0.3135
 1012SOL     OW 4118   0.460   4.018   1.960 -0.0979  0.1992 -0.0625
 1012SOL    HW2 4119   0.473   4.109   1.935  0.1751  0.4732  1.0570
 1012SOL    HW3 4120   0.536   3.972   1.925 -0.0163  0.4739 -0.2496
 1012SOL    MW4 4121   0.471   4.024   1.952 -0.0511  0.2718  0.0604
 1013SOL     OW 4122   0.464   4.276   1.843  0.3723 -0.2751  0.2405
 1013SOL    HW2 4123   0.396   4.336   1.875  1.1390  0.3919  0.6433
 1013SOL    HW3 4124   0.452   4.275   1.748  0.0726  0.1798  0.2717
 1013SOL    MW4 4125   0.453   4.284   1.835  0.4339 -0.1268  0.2979
 1014SOL     OW 4126   0.683   4.417   1.960 -0.6001  0.1102 -0.0304
 1014SOL    HW2 4127   0.763   4.373   1.931 -0.5647 -0.0773  0.3482
 1014SOL    HW3 4128   0.614   4.377   1.907 -0.6040 -0.6066  0.5061
 1014SOL    MW4 4129   0.684   4.406   1.949 -0.5960 -0.0095  0.0902
 1015SOL     OW 4130   1.098   4.637   1.863 -0.2381 -0.1330  0.3939
 1015SOL    HW2 4131   1.181   4.675   1.891 -0.1211 -0.1451  0.0685
 1015SOL    HW3 4132   1.097   4.550   1.903  0.4339 -0.5762 -0.5370
 1015SOL    MW4 4133   1.109   4.630   1.872 -0.1341 -0.1926  0.2283
 1016SOL     OW 4134   0.912   0.130   2.001  0.3285 -0.2715  0.3598
 1016SOL    HW2 4135   0.988   0.082   1.968 -0.5522 -0.9513 -0.6922
 1016SOL    HW3 4136   0.837   0.086   1.962 -0.5620  1.0473  0.5646
 1016SOL    MW4 4137   0.912   0.118   1.992  0.0948 -0.1872  0.2480
 1017SOL     OW 4138   0.893   0.383   1.891  0.0810  0.0893  0.1580
 1017SOL    HW2 4139   0.970   0.420   1.935 -0.2664 -0.0021  0.8501
 1017SOL    HW3 4140   0.893   0.291   1.917  0.8233 -0.3613 -1.3865
 1017SOL    MW4 4141   0.903   0.375   1.900  0.1332  0.0178  0.0454
 1018SOL     OW 4142   1.145   0.509   1.994  0.1509 -0.1337 -0.1542
 1018SOL    HW2 4143   1.230   0.471   1.972  0.8243  1.0228  0.3901
 1018SOL    HW3 4144   1.148   0.597   1.958 -1.3566 -0.5395 -1.3123
 1018SOL    MW4 4145   1.157   0.515   1.987  0.0408 -0.0346 -0.2352
 1019SOL     OW 4146   1.158   0.763   1.891 -0.1061 -0.1068 -0.1787
 1019SOL    HW2 4147   1.238   0.795   1.933 -0.0933  0.6496 -0.7504
 1019SOL    HW3 4148   1.088   0.786   1.952 -0.1134  1.1916 -0.6603
 1019SOL    MW4 4149   1.160   0.770   1.904 -0.1054  0.1643 -0.3176
 1020SOL     OW 4150   0.926   0.870   1.996 -0.4395  0.1113  0.4314
 1020SOL    HW2 4151   0.902   0.866   2.089 -0.0730 -1.2666  0.4642
 1020SOL    HW3 4152   0.933   0.964   1.978 -2.3787  0.4581  1.3166
 1020SOL    MW4 4153   0.924   0.882   2.006 -0.6469 -0.0248  0.5527
 1021SOL     OW 4154   0.904   1.159   1.922 -0.2115  0.5495 -0.5361
 1021SOL    HW2 4155   0.825   1.196   1.960 -0.1491  0.5517 -0.4092
 1021SOL    HW3 4156   0.888   1.161   1.827 -1.0593 -1.0285 -0.4289
 1021SOL    MW4 4157   0.892   1.164   1.914 -0.3151  0.3417 -0.5051
 1022SOL     OW 4158   1.145   1.280   1.977 -0.5762  0.0175 -0.3229
 1022SOL    HW2 4159   1.136   1.370   1.945 -1.7275  0.5822  1.5026
 1022SOL    HW3 4160   1.062   1.238   1.953 -0.5431 -0.1987 -0.0599
 1022SOL    MW4 4161   1.133   1.286   1.970 -0.7237  0.0637 -0.0473
 1023SOL     OW 4162   1.129   1.523   1.871 -0.1189 -0.6525 -0.5730
 1023SOL    HW2 4163   1.059   1.578   1.908 -0.5286 -1.2073 -0.5053
 1023SOL    HW3 4164   1.125   1.539   1.777 -0.1272 -0.4357 -0.5355
 1023SOL    MW4 4165   1.119   1.532   1.864 -0.1740 -0.6970 -0.5591
 1024SOL     OW 4166   0.913   1.676   1.989  0.2426  0.0100 -0.4091
 1024SOL    HW2 4167   0.913   1.766   1.956  0.5240  0.4929  0.8680
 1024SOL    HW3 4168   0.822   1.648   1.983 -0.1117  0.9190  0.5788
 1024SOL    MW4 4169   0.901   1.684   1.984  0.2329  0.1936 -0.1103
 1025SOL     OW 4170   0.884   1.919   1.889  1.0188 -0.2376 -0.1729
 1025SOL    HW2 4171   0.812   1.982   1.899  1.2616  0.0790 -0.4101
 1025SOL    HW3 4172   0.892   1.909   1.794  1.9098  0.4418 -0.1764
 1025SOL    MW4 4173   0.875   1.926   1.877  1.1684 -0.1061 -0.2047
 1026SOL     OW 4174   1.082   2.076   1.997  0.2574 -0.2184  0.0849
 1026SOL    HW2 4175   1.092   2.150   1.937  0.0755  1.0139  1.5337
 1026SOL    HW3 4176   1.009   2.026   1.961  0.2195  0.4461 -0.7792
 1026SOL    MW4 4177   1.074   2.079   1.984  0.2283  0.0319  0.1621
 1027SOL     OW 4178   1.120   2.290   1.815  0.0120 -0.3558  0.0753
 1027SOL    HW2 4179   1.207   2.328   1.820  0.4480 -0.9343 -2.2391
 1027SOL    HW3 4180   1.100   2.289   1.721 -1.9819 -1.3252  0.4756
 1027SOL    MW4 4181   1.129   2.295   1.803 -0.1937 -0.5600 -0.1771
 1028SOL     OW 4182   0.931   2.446   1.978 -0.2958 -0.1502 -0.1648
 1028SOL    HW2 4183   0.993   2.392   1.928 -0.1931  0.6456 -0.9130
 1028SOL    HW3 4184   0.845   2.409   1.957 -0.1367 -0.7647  0.2579
 1028SOL    MW4 4185   0.928   2.434   1.968 -0.2612 -0.1261 -0.2078
 1029SOL     OW 4186   0.934   2.675   1.831  0.0636 -0.0320 -0.0161
 1029SOL    HW2 4187   0.948   2.599   1.888 -2.6557 -0.5996 -0.0072
 1029SOL    HW3 4188   0.865   2.725   1.876  0.3814  1.3546 -1.0635
 1029SOL    MW4 4189   0.927   2.672   1.845 -0.2533  0.0763 -0.1531
 1030SOL     OW 4190   1.145   2.810   1.939 -0.0591 -0.2159 -0.3595
 1030SOL    HW2 4191   1.138   2.822   2.034  1.4028 -1.1078 -0.1176
 1030SOL    HW3 4192   1.068   2.759   1.915  0.7172 -1.9609  0.7314
 1030SOL    MW4 4193   1.134   2.805   1.948  0.2360 -0.5636 -0.1837
 1031SOL     OW 4194   1.123   3.075   1.840 -0.1867  0.0324  0.3736
 1031SOL    HW2 4195   1.047   3.111   1.886 -1.3592 -0.0351 -1.4515
 1031SOL    HW3 4196   1.127   2.984   1.868 -1.5918 -0.3197 -0.4948
 1031SOL    MW4 4197   1.113   3.068   1.850 -0.5268 -0.0229  0.0182
 1032SOL     OW 4198   0.913   3.230   1.965  0.4680  0.3628  0.5363
 1032SOL    HW2 4199   0.901   3.223   2.060  1.0603 -1.5622  0.4946
 1032SOL    HW3 4200   0.833   3.192   1.928  0.2714  1.0406  0.2742
 1032SOL    MW4 4201   0.901   3.224   1.973  0.5202  0.1984  0.4961
 1033SOL     OW 4202   0.882   3.502   1.879 -0.0758  0.2234  0.1705
 1033SOL    HW2 4203   0.887   3.409   1.901  0.1976 -0.0520 -1.0400
 1033SOL    HW3 4204   0.880   3.504   1.783 -1.3879  1.3929  0.2040
 1033SOL    MW4 4205   0.882   3.490   1.869 -0.2128  0.3412  0.0153
 1034SOL     OW 4206   1.126   3.621   1.972 -0.4830  0.4974 -0.6084
 1034SOL    HW2 4207   1.122   3.625   2.067 -0.7734  2.8054 -0.6794
 1034SOL    HW3 4208   1.042   3.583   1.946 -0.2446 -0.5031  0.0618
 1034SOL    MW4 4209   1.115   3.617   1.981 -0.4898  0.6700 -0.5293
 1035SOL     OW 4210   1.128   3.853   1.829  0.3459 -0.1138 -0.1059
 1035SOL    HW2 4211   1.124   3.763   1.863  2.0949 -0.4690 -0.8160
 1035SOL    HW3 4212   1.141   3.842   1.735 -1.1955  0.8906 -0.4500
 1035SOL    MW4 4213   1.129   3.839   1.821  0.3734 -0.0281 -0.2450
 1036SOL     OW 4214   0.911   3.995   1.924 -0.0557 -0.7671 -0.2943
 1036SOL    HW2 4215   0.921   3.992   2.019  0.5750 -0.8573 -0.3615
 1036SOL    HW3 4216   0.983   3.941   1.890 -0.2821 -0.7434 -0.8218
 1036SOL    MW4 4217   0.922   3.988   1.932 -0.0024 -0.7758 -0.3729
 1037SOL     OW 4218   0.897   4.248   1.835 -0.5976 -0.0964  0.0451
 1037SOL    HW2 4219   0.973   4.278   1.885  0.5011 -0.9053 -1.1276
 1037SOL    HW3 4220   0.880   4.159   1.868 -0.8725 -0.0281  0.0946
 1037SOL    MW4 4221   0.904   4.240   1.846 -0.4889 -0.1945 -0.1031
 1038SOL     OW 4222   1.114   4.369   1.974 -0.0356  0.4270  0.2382
 1038SOL    HW2 4223   1.124   4.359   2.068 -0.6596 -0.1693  0.2428
 1038SOL    HW3 4224   1.197   4.336   1.938  0.5192  1.3922  0.6098
 1038SOL    MW4 4225   1.126   4.363   1.981 -0.0448  0.4759  0.2879
 1039SOL     OW 4226   1.549   4.628   1.855 -1.0737 -0.5371  0.2270
 1039SOL    HW2 4227   1.630   4.667   1.888 -1.4750  0.5799 -0.0842
 1039SOL    HW3 4228   1.554   4.536   1.882 -0.4438 -0.1154  1.6186
 1039SOL    MW4 4229   1.560   4.621   1.863 -1.0434 -0.3343  0.3694
 1040SOL     OW 4230   1.325   0.097   1.944  0.2259  0.1657 -0.0294
 1040SOL    HW2 4231   1.328   0.084   2.039  0.3951 -0.1869 -0.0819
 1040SOL    HW3 4232   1.402   0.051   1.911 -1.8160 -2.8861 -0.6998
 1040SOL    MW4 4233   1.336   0.089   1.952 -0.0211 -0.2835 -0.1248
 1041SOL     OW 4234   1.369   0.365   1.858  0.0611 -0.1881 -0.0829
 1041SOL    HW2 4235   1.352   0.276   1.890 -0.2479 -0.0275  0.2135
 1041SOL    HW3 4236   1.350   0.361   1.764 -0.3589 -0.3393  0.0047
 1041SOL    MW4 4237   1.364   0.353   1.850 -0.0352 -0.1869 -0.0322
 1042SOL     OW 4238   1.596   0.463   2.004  0.1447 -0.2540  0.0337
 1042SOL    HW2 4239   1.673   0.417   1.970  0.5034  0.8226 -0.6419
 1042SOL    HW3 4240   1.522   0.419   1.963  0.4881 -0.1550 -0.6944
 1042SOL    MW4 4241   1.597   0.451   1.994  0.2373 -0.0989 -0.1514
 1043SOL     OW 4242   1.563   0.713   1.887 -0.0688 -0.0891  0.4820
 1043SOL    HW2 4243   1.640   0.753   1.927  0.0524  0.8406 -0.6581
 1043SOL    HW3 4244   1.575   0.619   1.902 -0.1473  0.2562  2.8092
 1043SOL    MW4 4245   1.575   0.706   1.894 -0.0632  0.0791  0.6386
 1044SOL     OW 4246   1.372   0.881   2.001  0.3526  0.1897  0.1710
 1044SOL    HW2 4247   1.393   0.892   2.094 -0.7203  0.9858  0.3342
 1044SOL    HW3 4248   1.442   0.825   1.967  0.5739 -0.3989  1.5337
 1044SOL    MW4 4249   1.384   0.875   2.009  0.2402  0.2170  0.3722
 1045SOL     OW 4250   1.349   1.134   1.867  0.1827 -0.2227 -0.0902
 1045SOL    HW2 4251   1.348   1.051   1.915 -1.0021 -1.0389 -1.5186
 1045SOL    HW3 4252   1.281   1.187   1.910  0.5304 -0.1950  0.4364
 1045SOL    MW4 4253   1.340   1.130   1.879  0.0721 -0.3268 -0.2092
 1046SOL     OW 4254   1.561   1.255   1.990 -0.0547 -0.0250 -0.0985
 1046SOL    HW2 4255   1.557   1.341   1.947 -0.4067 -0.6953 -1.4448
 1046SOL    HW3 4256   1.495   1.203   1.944 -0.0370 -0.9349  0.9019
 1046SOL    MW4 4257   1.552   1.259   1.978 -0.0988 -0.2334 -0.1441
 1047SOL     OW 4258   1.544   1.505   1.883 -0.1259 -0.0570 -0.2433
 1047SOL    HW2 4259   1.620   1.549   1.920 -0.3697 -0.6053  0.9359
 1047SOL    HW3 4260   1.469   1.548   1.923 -0.3949 -0.6669 -0.0841
 1047SOL    MW4 4261   1.544   1.516   1.893 -0.1935 -0.2099 -0.0668
 1048SOL     OW 4262   1.347   1.654   2.002 -0.0106 -0.5225 -0.3725
 1048SOL    HW2 4263   1.354   1.630   2.094 -1.7079 -0.3993 -0.1972
 1048SOL    HW3 4264   1.275   1.600   1.969 -0.4804  0.6177 -1.2241
 1048SOL    MW4 4265   1.338   1.644   2.010 -0.2966 -0.3558 -0.4616
 1049SOL     OW 4266   1.299   1.918   1.906 -0.0378  0.0019  0.4649
 1049SOL    HW2 4267   1.301   1.832   1.946  0.5973 -0.0279  0.3700
 1049SOL    HW3 4268   1.221   1.960   1.943 -0.9849 -1.0166 -0.3489
 1049SOL    MW4 4269   1.289   1.912   1.916 -0.0790 -0.1364  0.3451
 1050SOL     OW 4270   1.549   2.011   1.965 -0.0120  0.0621  0.0802
 1050SOL    HW2 4271   1.552   2.098   1.926 -0.1487  1.0173  2.1075
 1050SOL    HW3 4272   1.464   1.976   1.939 -0.0444  0.6127 -0.5702
 1050SOL    MW4 4273   1.538   2.018   1.956 -0.0342  0.2608  0.2618
 1051SOL     OW 4274   1.577   2.280   1.846  0.3475  0.4638  0.4193
 1051SOL    HW2 4275   1.643   2.344   1.870  0.8236  0.4574 -0.8370
 1051SOL    HW3 4276   1.564   2.292   1.752  1.0299 -1.7940 -0.0023
 1051SOL    MW4 4277   1.584   2.290   1.836  0.5003  0.1655  0.1980
 1052SOL     OW 4278   1.339   2.426   1.929 -0.3398  0.0459  0.5916
 1052SOL    HW2 4279   1.357   2.514   1.897 -0.1815 -0.2994 -0.2890
 1052SOL    HW3 4280   1.418   2.376   1.907 -0.2148 -0.1915  1.5552
 1052SOL    MW4 4281   1.352   2.431   1.921 -0.3024 -0.0310  0.6026
 1053SOL     OW 4282   1.376   2.708   1.843 -0.3319 -0.2893 -0.2989
 1053SOL    HW2 4283   1.293   2.747   1.871  0.4041  0.7759  0.4561
 1053SOL    HW3 4284   1.369   2.703   1.748 -1.2373 -0.1441 -0.2470
 1053SOL    MW4 4285   1.364   2.712   1.834 -0.3543 -0.1297 -0.1925
 1054SOL     OW 4286   1.597   2.831   1.964 -0.0690  0.2795 -0.2410
 1054SOL    HW2 4287   1.674   2.786   1.930  0.8840  0.4824  1.5492
 1054SOL    HW3 4288   1.523   2.793   1.917  1.0294 -0.7725 -1.1245
 1054SOL    MW4 4289   1.597   2.820   1.954  0.2018  0.1676 -0.1212
 1055SOL     OW 4290   1.570   3.068   1.843 -0.7591  0.0659  0.0377
 1055SOL    HW2 4291   1.577   2.991   1.899  1.6077  0.4826  0.3864
 1055SOL    HW3 4292   1.544   3.034   1.758  0.3354 -1.1377  0.1721
 1055SOL    MW4 4293   1.567   3.054   1.839 -0.3024 -0.0379  0.1013
 1056SOL     OW 4294   1.330   3.230   1.946  0.5152 -0.0205 -0.0262
 1056SOL    HW2 4295   1.415   3.192   1.921  0.8529  0.7463 -0.0544
 1056SOL    HW3 4296   1.265   3.175   1.902  0.9915 -0.7407  0.1647
 1056SOL    MW4 4297   1.333   3.218   1.937  0.6225 -0.0148 -0.0046
 1057SOL     OW 4298   1.346   3.507   1.865  0.1196  0.1807  0.2026
 1057SOL    HW2 4299   1.334   3.414   1.885 -0.1617  0.1521 -0.0997
 1057SOL    HW3 4300   1.273   3.550   1.909  0.4466  0.2931  0.6296
 1057SOL    MW4 4301   1.335   3.500   1.873  0.1256  0.1917  0.2191
 1058SOL     OW 4302   1.603   3.580   1.941 -0.0766  0.1095 -0.0434
 1058SOL    HW2 4303   1.589   3.584   2.035 -0.9142 -0.9790 -0.1200
 1058SOL    HW3 4304   1.516   3.572   1.903  0.1835  1.4651 -0.9694
 1058SOL    MW4 4305   1.590   3.579   1.948 -0.1527  0.1445 -0.1757
 1059SOL     OW 4306   1.565   3.857   1.872  0.1210 -0.3185  0.0435
 1059SOL    HW2 4307   1.636   3.911   1.905  0.1132 -1.0015  1.2202
 1059SOL    HW3 4308   1.588   3.768   1.899 -0.4640 -0.7362 -0.8117
 1059SOL    MW4 4309   1.577   3.852   1.880  0.0427 -0.4637  0.0859
 1060SOL     OW 4310   1.338   3.997   1.930  0.3589  0.0680  0.1182
 1060SOL    HW2 4311   1.413   3.941   1.910  0.0048 -0.3009 -0.1743
 1060SOL    HW3 4312   1.263   3.952   1.892  0.0773  0.7690 -0.1610
 1060SOL    MW4 4313   1.338   3.984   1.922  0.2749  0.1116  0.0427
 1061SOL     OW 4314   1.332   4.271   1.861  0.0483 -0.0729 -0.0035
 1061SOL    HW2 4315   1.337   4.178   1.882 -0.7974  0.1795  1.3751
 1061SOL    HW3 4316   1.335   4.274   1.766 -2.0896 -1.6533 -0.1485
 1061SOL    MW4 4317   1.333   4.259   1.852 -0.3453 -0.2480  0.1593
 1062SOL     OW 4318   1.560   4.370   1.971  0.1396 -0.2350  0.1279
 1062SOL    HW2 4319   1.564   4.375   2.067  0.4406  0.1376  0.0941
 1062SOL    HW3 4320   1.476   4.327   1.954 -1.0083  1.7940  0.4942
 1062SOL    MW4 4321   1.549   4.365   1.982  0.0279  0.0815  0.1718
 1063SOL     OW 4322   2.035   4.627   1.879  0.0038 -0.3339 -0.1013
 1063SOL    HW2 4323   2.097   4.678   1.931  0.2856 -0.0570 -0.7076
 1063SOL    HW3 4324   2.033   4.541   1.922  0.0256 -0.0179  0.5315
 1063SOL    MW4 4325   2.043   4.622   1.891  0.0439 -0.2551 -0.0978
 1064SOL     OW 4326   1.785   0.076   1.961  0.2892 -0.2705 -0.2434
 1064SOL    HW2 4327   1.787   0.086   2.056  1.8791  1.7888 -0.4530
 1064SOL    HW3 4328   1.869   0.036   1.940 -0.0377 -0.6673 -0.8102
 1064SOL    MW4 4329   1.796   0.072   1.971  0.4557 -0.0511 -0.3457
 1065SOL     OW 4330   1.814   0.346   1.889 -0.2924 -0.3630 -0.0913
 1065SOL    HW2 4331   1.806   0.252   1.906  1.7983 -0.6922 -0.7891
 1065SOL    HW3 4332   1.798   0.354   1.795 -0.6805  0.0284  0.0052
 1065SOL    MW4 4333   1.811   0.334   1.879 -0.0678 -0.3548 -0.1707
 1066SOL     OW 4334   2.006   0.522   2.001  0.4564  0.3319 -0.1671
 1066SOL    HW2 4335   2.001   0.600   1.946  2.4644 -0.8728 -2.1642
 1066SOL    HW3 4336   1.945   0.461   1.961  1.7543 -0.4661 -0.9908
 1066SOL    MW4 4337   1.998   0.524   1.989  0.8928  0.0677 -0.5393
 1067SOL     OW 4338   1.995   0.749   1.860 -0.2241  0.2004 -0.8342
 1067SOL    HW2 4339   2.057   0.809   1.901 -0.1586 -0.2784 -0.2371
 1067SOL    HW3 4340   2.008   0.763   1.766  0.2283  0.6749 -0.7036
 1067SOL    MW4 4341   2.005   0.759   1.853 -0.1554  0.1998 -0.7381
 1068SOL     OW 4342   1.794   0.841   1.996  0.1143  0.3266  0.1834
 1068SOL    HW2 4343   1.797   0.929   1.960 -0.2070 -0.5607 -2.1107
 1068SOL    HW3 4344   1.870   0.797   1.957  0.0885 -0.4945  1.0589
 1068SOL    MW4 4345   1.804   0.847   1.986  0.0687  0.1011 -0.0037
 1069SOL     OW 4346   1.782   1.121   1.921 -0.4661 -0.2482  0.1641
 1069SOL    HW2 4347   1.722   1.179   1.967 -0.5787 -0.0170 -0.2706
 1069SOL    HW3 4348   1.780   1.151   1.830  1.3137  0.6067  0.3904
 1069SOL    MW4 4349   1.774   1.133   1.915 -0.2462 -0.1049  0.1366
 1070SOL     OW 4350   2.008   1.288   1.988 -0.1165 -0.6109  0.2319
 1070SOL    HW2 4351   2.079   1.241   1.945 -1.0275 -1.5435 -0.2799
 1070SOL    HW3 4352   1.929   1.236   1.969 -0.9767  0.5297  0.5804
 1070SOL    MW4 4353   2.007   1.275   1.980 -0.3502 -0.5834  0.2105
 1071SOL     OW 4354   1.982   1.549   1.865 -0.0181  0.3791  0.2047
 1071SOL    HW2 4355   1.993   1.458   1.891 -0.9374  0.0510 -0.5148
 1071SOL    HW3 4356   1.985   1.548   1.770  0.2198  1.1334  0.1981
 1071SOL    MW4 4357   1.984   1.537   1.856 -0.1081  0.4354  0.1088
 1072SOL     OW 4358   1.754   1.673   1.992 -0.1603  0.5345 -0.3158
 1072SOL    HW2 4359   1.768   1.765   1.970  0.6752  0.5332  0.1710
 1072SOL    HW3 4360   1.830   1.628   1.956 -0.6552  0.0135 -0.6971
 1072SOL    MW4 4361   1.766   1.680   1.985 -0.1154  0.4655 -0.3018
 1073SOL     OW 4362   1.810   1.926   1.885 -0.0672 -0.0523 -0.1537
 1073SOL    HW2 4363   1.723   1.960   1.908  1.0044  2.9854 -0.3129
 1073SOL    HW3 4364   1.806   1.914   1.790 -0.3734 -0.0117 -0.1467
 1073SOL    MW4 4365   1.798   1.929   1.876  0.0337  0.3539 -0.1737
 1074SOL     OW 4366   2.034   2.080   1.977 -0.5340  0.4717 -0.3221
 1074SOL    HW2 4367   2.110   2.060   1.921  0.3647  1.1143  0.6416
 1074SOL    HW3 4368   1.964   2.025   1.943  0.5387 -0.5951 -0.8496
 1074SOL    MW4 4369   2.035   2.070   1.965 -0.2739  0.4160 -0.2645
 1075SOL     OW 4370   2.044   2.329   1.855  0.3608  0.1359  0.3789
 1075SOL    HW2 4371   2.132   2.362   1.876  0.2562 -0.6409  2.0540
 1075SOL    HW3 4372   2.028   2.260   1.919 -1.1916 -0.2213 -0.3766
 1075SOL    MW4 4373   2.054   2.324   1.866  0.1423 -0.0138  0.5001
 1076SOL     OW 4374   1.792   2.443   1.916  0.4947  0.0372 -0.4174
 1076SOL    HW2 4375   1.798   2.456   2.010 -2.3723 -2.3001  0.1857
 1076SOL    HW3 4376   1.877   2.406   1.891  1.3319  0.8246  1.2198
 1076SOL    MW4 4377   1.804   2.440   1.925  0.2270 -0.1671 -0.1217
 1077SOL     OW 4378   1.790   2.689   1.809 -0.6242 -0.6788 -0.2248
 1077SOL    HW2 4379   1.787   2.595   1.830  0.2524 -1.0890 -1.7723
 1077SOL    HW3 4380   1.777   2.691   1.714 -0.7613  0.7806 -0.1719
 1077SOL    MW4 4381   1.788   2.677   1.799 -0.5267 -0.5403 -0.4220
 1078SOL     OW 4382   2.022   2.772   1.951 -0.3950 -0.0303 -0.0810
 1078SOL    HW2 4383   2.018   2.765   2.047 -1.3229 -0.9653 -0.1828
 1078SOL    HW3 4384   1.934   2.751   1.921 -0.5410  1.8584 -1.0731
 1078SOL    MW4 4385   2.010   2.768   1.960 -0.5367  0.0954 -0.2253
 1079SOL     OW 4386   2.049   3.042   1.884 -0.1756  0.0551 -0.2809
 1079SOL    HW2 4387   1.976   3.099   1.907  0.6809  1.6175 -1.2640
 1079SOL    HW3 4388   2.025   2.956   1.916 -1.9272  0.7963  0.4225
 1079SOL    MW4 4389   2.036   3.038   1.891 -0.2940  0.3591 -0.3179
 1080SOL     OW 4390   1.804   3.183   1.954 -0.2288  0.2671 -0.1158
 1080SOL    HW2 4391   1.779   3.205   2.044 -1.3118  0.0166 -0.3436
 1080SOL    HW3 4392   1.728   3.137   1.920  1.7129 -3.2827  0.1425
 1080SOL    MW4 4393   1.791   3.180   1.962 -0.1155 -0.2341 -0.1119
 1081SOL     OW 4394   1.813   3.465   1.808 -0.0757 -0.3767  0.1774
 1081SOL    HW2 4395   1.801   3.378   1.846 -0.0329 -0.2894  0.3927
 1081SOL    HW3 4396   1.752   3.521   1.857  0.0353 -0.2489  0.1716
 1081SOL    MW4 4397   1.803   3.461   1.820 -0.0553 -0.3486  0.2049
 1082SOL     OW 4398   2.017   3.610   2.023 -0.2258 -0.5953 -0.0597
 1082SOL    HW2 4399   2.006   3.696   1.982 -2.1858  0.8169  3.1748
 1082SOL    HW3 4400   1.939   3.561   1.998 -0.2882 -0.5723  0.0914
 1082SOL    MW4 4401   2.006   3.615   2.014 -0.4926 -0.4058  0.3870
 1083SOL     OW 4402   1.981   3.850   1.896 -0.2428 -0.2575 -0.1063
 1083SOL    HW2 4403   2.064   3.885   1.928 -1.1966  1.9395 -0.0053
 1083SOL    HW3 4404   1.993   3.842   1.801  0.2592 -0.4390 -0.0289
 1083SOL    MW4 4405   1.994   3.853   1.888 -0.3026  0.0086 -0.0829
 1084SOL     OW 4406   1.779   4.024   1.955 -0.1969  0.2907  0.0400
 1084SOL    HW2 4407   1.815   4.112   1.942  1.0038 -0.0659  0.8151
 1084SOL    HW3 4408   1.850   3.965   1.928 -1.1322 -0.4370 -0.8281
 1084SOL    MW4 4409   1.793   4.028   1.950 -0.1619  0.1483  0.0278
 1085SOL     OW 4410   1.802   4.289   1.868  0.0297  0.4549 -0.8833
 1085SOL    HW2 4411   1.715   4.307   1.902 -0.6017 -0.0097 -2.2110
 1085SOL    HW3 4412   1.789   4.274   1.774  1.3859 -0.7124 -0.9055
 1085SOL    MW4 4413   1.789   4.290   1.860  0.1252  0.2398 -1.0613
 1086SOL     OW 4414   2.026   4.372   2.018 -0.0770 -0.2915  0.0529
 1086SOL    HW2 4415   2.097   4.323   1.977  0.3046  0.8646 -0.6847
 1086SOL    HW3 4416   1.947   4.341   1.973  0.3189  0.8401 -1.4830
 1086SOL    MW4 4417   2.025   4.361   2.006  0.0255  0.0100 -0.2470
 1087SOL     OW 4418   2.450   0.009   1.905  0.1765  0.2977 -0.2944
 1087SOL    HW2 4419   2.541   0.023   1.933 -0.2743  1.1493  0.7563
 1087SOL    HW3 4420   2.429  -0.079   1.935  0.8276 -0.1222 -1.0313
 1087SOL    MW4 4421   2.459  -0.001   1.913  0.2031  0.3543 -0.2530
 1088SOL     OW 4422   2.228   0.131   2.034  0.4795 -0.0887 -0.2836
 1088SOL    HW2 4423   2.235   0.134   2.130 -0.2934 -0.0430 -0.2301
 1088SOL    HW3 4424   2.317   0.112   2.005  0.7383 -0.0141  0.4409
 1088SOL    MW4 4425   2.241   0.129   2.043  0.4117 -0.0728 -0.1810
 1089SOL     OW 4426   2.238   0.379   1.912 -0.0137 -0.1871  0.0147
 1089SOL    HW2 4427   2.229   0.293   1.952 -0.8421 -0.9233 -1.7243
 1089SOL    HW3 4428   2.160   0.427   1.940 -0.6236 -0.7224 -0.7471
 1089SOL    MW4 4429   2.227   0.374   1.921 -0.2031 -0.3548 -0.3152
 1090SOL     OW 4430   2.461   0.522   1.977 -0.5129  0.1251 -0.2659
 1090SOL    HW2 4431   2.533   0.469   1.944 -1.2135  0.1036 -1.8059
 1090SOL    HW3 4432   2.382   0.474   1.951 -1.1115  0.7201  0.4105
 1090SOL    MW4 4433   2.460   0.508   1.969 -0.6840  0.2007 -0.3799
 1091SOL     OW 4434   2.459   0.799   1.887  0.2117  0.2409 -0.9107
 1091SOL    HW2 4435   2.461   0.706   1.910  0.9404  0.4816  0.0144
 1091SOL    HW3 4436   2.480   0.801   1.794 -0.1868 -0.5495 -1.0221
 1091SOL    MW4 4437   2.462   0.787   1.878  0.2556  0.1683 -0.8034
 1092SOL     OW 4438   2.208   0.896   1.961 -0.0596  0.0177 -0.0960
 1092SOL    HW2 4439   2.228   0.899   2.054 -1.8917 -0.7550  0.3422
 1092SOL    HW3 4440   2.285   0.855   1.921 -0.8257 -3.2137  1.5607
 1092SOL    MW4 4441   2.221   0.891   1.968 -0.4025 -0.5106  0.1805
 1093SOL     OW 4442   2.226   1.158   1.868 -0.2154 -0.1346 -0.2256
 1093SOL    HW2 4443   2.306   1.188   1.910  0.1189 -0.8108 -0.3725
 1093SOL    HW3 4444   2.215   1.068   1.897 -1.3648  0.2057  0.4341
 1093SOL    MW4 4445   2.235   1.150   1.877 -0.3228 -0.1788 -0.1580
 1094SOL     OW 4446   2.484   1.256   1.968 -0.6068 -0.2816 -0.2462
 1094SOL    HW2 4447   2.479   1.271   2.063  0.9536 -1.3751  0.0263
 1094SOL    HW3 4448   2.484   1.344   1.930  1.2768  0.2713  0.9228
 1094SOL    MW4 4449   2.484   1.269   1.976 -0.1523 -0.3529 -0.0559
 1095SOL     OW 4450   2.439   1.490   1.837 -0.2223 -0.4774 -0.2347
 1095SOL    HW2 4451   2.361   1.540   1.859  0.0699 -0.3080  0.4241
 1095SOL    HW3 4452   2.465   1.523   1.751 -0.4288  0.0169 -0.1082
 1095SOL    MW4 4453   2.432   1.501   1.829 -0.2110 -0.3897 -0.1310
 1096SOL     OW 4454   2.246   1.663   1.928  0.0551  0.1705  0.2411
 1096SOL    HW2 4455   2.233   1.677   2.022  1.5711 -0.6127  0.5928
 1096SOL    HW3 4456   2.166   1.619   1.898 -0.7089  1.0114  1.0240
 1096SOL    MW4 4457   2.234   1.659   1.936  0.1543  0.1782  0.3908
 1097SOL     OW 4458   2.272   1.941   1.809  0.3751  0.5608 -0.1768
 1097SOL    HW2 4459   2.332   1.971   1.877  0.3354  1.2426 -0.4402
 1097SOL    HW3 4460   2.262   1.847   1.825  0.8082  0.6162  0.4112
 1097SOL    MW4 4461   2.279   1.932   1.820  0.4272  0.6582 -0.1340
 1098SOL     OW 4462   2.474   2.073   1.972 -0.5588  0.2309  0.2431
 1098SOL    HW2 4463   2.544   2.023   1.929  0.1328  1.8181 -0.5123
 1098SOL    HW3 4464   2.476   2.158   1.929 -2.8337  0.3649  0.3769
 1098SOL    MW4 4465   2.484   2.078   1.960 -0.7679  0.4578  0.1611
 1099SOL     OW 4466   2.514   2.333   1.851  0.1320  0.0347  0.1034
 1099SOL    HW2 4467   2.591   2.374   1.890  0.0168 -0.1716  0.5538
 1099SOL    HW3 4468   2.440   2.373   1.899 -0.1665  1.9115 -1.8433
 1099SOL    MW4 4469   2.514   2.344   1.863  0.0775  0.2551 -0.0941
 1100SOL     OW 4470   2.290   2.458   1.957  0.5547  0.1690  0.2316
 1100SOL    HW2 4471   2.278   2.453   2.052  0.2623 -2.1479  0.1019
 1100SOL    HW3 4472   2.285   2.552   1.938 -0.3918  0.6093  2.3760
 1100SOL    MW4 4473   2.287   2.470   1.967  0.3912 -0.0787  0.4973
 1101SOL     OW 4474   2.275   2.705   1.848 -0.2475  0.3794  0.0621
 1101SOL    HW2 4475   2.188   2.729   1.879  0.5331  1.4333  1.4820
 1101SOL    HW3 4476   2.263   2.687   1.754 -1.9042  0.8942  0.1661
 1101SOL    MW4 4477   2.262   2.706   1.840 -0.3629  0.5863  0.2632
 1102SOL     OW 4478   2.512   2.821   1.951  0.2291 -0.2484 -0.5770
 1102SOL    HW2 4479   2.506   2.911   1.921  1.3135 -0.4878 -1.5710
 1102SOL    HW3 4480   2.426   2.783   1.934 -0.7531  1.0329  1.3659
 1102SOL    MW4 4481   2.500   2.828   1.945  0.2425 -0.1111 -0.4519
 1103SOL     OW 4482   2.485   3.061   1.863  0.6395 -0.1508  0.1880
 1103SOL    HW2 4483   2.424   3.128   1.892 -0.6119 -1.3549  0.3956
 1103SOL    HW3 4484   2.469   3.053   1.769  0.8656 -0.0995  0.1429
 1103SOL    MW4 4485   2.475   3.069   1.854  0.5043 -0.3030  0.2096
 1104SOL     OW 4486   2.248   3.200   1.963 -0.2391  0.1749  0.0398
 1104SOL    HW2 4487   2.234   3.203   2.058 -0.4927  0.3771 -0.0024
 1104SOL    HW3 4488   2.191   3.130   1.932 -0.2991  0.2365  0.0117
 1104SOL    MW4 4489   2.239   3.191   1.972 -0.2804  0.2098  0.0305
 1105SOL     OW 4490   2.251   3.478   1.910  0.5204 -0.3094  0.6168
 1105SOL    HW2 4491   2.254   3.385   1.933  0.5529 -0.4709 -0.0332
 1105SOL    HW3 4492   2.171   3.510   1.952 -0.3359 -0.9924 -0.4453
 1105SOL    MW4 4493   2.241   3.470   1.919  0.4117 -0.4208  0.3908
 1106SOL     OW 4494   2.481   3.623   1.966 -0.2241 -0.1545  0.1969
 1106SOL    HW2 4495   2.468   3.624   2.060  0.6087 -0.3553  0.3178
 1106SOL    HW3 4496   2.401   3.584   1.930  0.3352 -2.0301  0.9494
 1106SOL    MW4 4497   2.469   3.618   1.973 -0.0405 -0.4287  0.3121
 1107SOL     OW 4498   2.490   3.881   1.867  0.1806  0.0661 -0.1688
 1107SOL    HW2 4499   2.419   3.919   1.919  0.3463  0.8564 -0.5032
 1107SOL    HW3 4500   2.487   3.788   1.887 -0.7308  0.1404  0.0861
 1107SOL    MW4 4501   2.480   3.874   1.877  0.0823  0.1802 -0.1793
 1108SOL     OW 4502   2.234   3.945   1.980 -0.0575 -0.0986 -0.4094
 1108SOL    HW2 4503   2.249   3.952   2.074 -1.3350 -0.0343 -0.2038
 1108SOL    HW3 4504   2.219   4.035   1.951 -0.3386 -0.1894 -0.5521
 1108SOL    MW4 4505   2.234   3.958   1.988 -0.2635 -0.1023 -0.4011
 1109SOL     OW 4506   2.217   4.221   1.909  0.2329  0.4520 -0.2284
 1109SOL    HW2 4507   2.290   4.277   1.937  0.3413  0.5493 -0.7103
 1109SOL    HW3 4508   2.221   4.222   1.814  0.8846 -1.2102 -0.2392
 1109SOL    MW4 4509   2.227   4.229   1.900  0.3331  0.2456 -0.2934
 1110SOL     OW 4510   2.420   4.403   1.987  0.5638  0.2346 -0.2085
 1110SOL    HW2 4511   2.437   4.403   2.082  0.9891  0.7851 -0.2824
 1110SOL    HW3 4512   2.501   4.368   1.949  0.8064  1.0194 -0.4324
 1110SOL    MW4 4513   2.433   4.398   1.995  0.6516  0.4110 -0.2478
 1111SOL     OW 4514   2.919   0.001   1.914 -0.0370  0.2005 -0.2732
 1111SOL    HW2 4515   2.997   0.042   1.951  1.9583 -0.3937 -3.5758
 1111SOL    HW3 4516   2.917  -0.086   1.954  1.4032 -0.0151 -0.6233
 1111SOL    MW4 4517   2.929  -0.005   1.924  0.4160  0.0939 -0.7551
 1112SOL     OW 4518   2.699   0.109   2.009 -0.0036 -0.0367  0.5248
 1112SOL    HW2 4519   2.701   0.098   2.104  0.2265 -0.5202  0.4617
 1112SOL    HW3 4520   2.782   0.071   1.978 -0.2317 -0.1872  0.0948
 1112SOL    MW4 4521   2.710   0.103   2.017 -0.0036 -0.1203  0.4597
 1113SOL     OW 4522   2.669   0.349   1.894 -0.0140 -0.1946  0.2066
 1113SOL    HW2 4523   2.751   0.381   1.930  1.2389 -1.3123 -1.6153
 1113SOL    HW3 4524   2.665   0.257   1.918 -0.9053 -0.0697  0.5730
 1113SOL    MW4 4525   2.679   0.341   1.902  0.0336 -0.3256  0.0144
 1114SOL     OW 4526   2.877   0.490   1.996  0.0785 -0.4742 -0.3251
 1114SOL    HW2 4527   2.952   0.440   1.965 -0.5202 -0.8328 -1.2385
 1114SOL    HW3 4528   2.889   0.578   1.960  1.1815  0.0857  1.3623
 1114SOL    MW4 4529   2.888   0.495   1.987  0.1450 -0.4476 -0.2230
 1115SOL     OW 4530   2.905   0.726   1.875  0.4443  0.1338 -0.0359
 1115SOL    HW2 4531   2.967   0.774   1.930  0.4413  0.4023 -0.2616
 1115SOL    HW3 4532   2.820   0.763   1.899  0.5524  1.0377 -1.0114
 1115SOL    MW4 4533   2.902   0.737   1.886  0.4580  0.2885 -0.1945
 1116SOL     OW 4534   2.698   0.879   2.026  0.0943  0.1215  0.0083
 1116SOL    HW2 4535   2.714   0.969   1.995  1.3052  0.7128  2.2278
 1116SOL    HW3 4536   2.619   0.852   1.979 -0.5071  2.4703 -0.4448
 1116SOL    MW4 4537   2.690   0.887   2.016  0.1748  0.5094  0.2410
 1117SOL     OW 4538   2.717   1.121   1.899 -0.1493  0.1643  0.7218
 1117SOL    HW2 4539   2.639   1.167   1.930 -0.9315 -0.7853  0.1925
 1117SOL    HW3 4540   2.713   1.127   1.803 -0.2191 -0.9340  0.6513
 1117SOL    MW4 4541   2.706   1.128   1.890 -0.2618 -0.1059  0.6427
 1118SOL     OW 4542   2.969   1.246   1.944  0.1221 -0.2777  0.3386
 1118SOL    HW2 4543   2.957   1.341   1.938  0.7183 -0.2164  0.0437
 1118SOL    HW3 4544   2.884   1.209   1.920  0.5343  0.1285 -1.7716
 1118SOL    MW4 4545   2.956   1.254   1.940  0.2551 -0.2162  0.0212
 1119SOL     OW 4546   2.917   1.516   1.929  0.0457  0.1053 -0.0376
 1119SOL    HW2 4547   2.989   1.577   1.947  1.0923 -1.1498  0.1621
 1119SOL    HW3 4548   2.903   1.522   1.835 -0.1995  1.0191  0.0519
 1119SOL    MW4 4549   2.925   1.525   1.919  0.1514  0.0602  0.0006
 1120SOL     OW 4550   2.669   1.648   1.951  0.1755 -0.4632 -0.0837
 1120SOL    HW2 4551   2.753   1.601   1.944  0.0587 -0.7930  0.6465
 1120SOL    HW3 4552   2.604   1.586   1.917  0.3528  0.1991 -1.6735
 1120SOL    MW4 4553   2.672   1.633   1.946  0.1836 -0.4194 -0.1972
 1121SOL     OW 4554   2.687   1.909   1.881  0.2416 -0.0940  0.1522
 1121SOL    HW2 4555   2.766   1.946   1.921  1.3083 -1.5827 -0.5038
 1121SOL    HW3 4556   2.686   1.817   1.911 -0.2507 -0.5616 -1.2710
 1121SOL    MW4 4557   2.697   1.901   1.890  0.3176 -0.3523 -0.1222
 1122SOL     OW 4558   2.928   2.022   1.986 -0.2506 -0.2240 -0.0753
 1122SOL    HW2 4559   2.937   2.013   2.081 -2.2200 -0.3909  0.1145
 1122SOL    HW3 4560   2.997   1.966   1.951  0.0021 -0.7812  1.2591
 1122SOL    MW4 4561   2.939   2.013   1.994 -0.4771 -0.3200  0.1259
 1123SOL     OW 4562   2.948   2.327   1.894 -0.5627 -0.0705  0.0418
 1123SOL    HW2 4563   3.024   2.369   1.935 -0.8167  0.7642 -0.3338
 1123SOL    HW3 4564   2.959   2.234   1.914  0.0281  0.1644  0.8523
 1123SOL    MW4 4565   2.960   2.320   1.902 -0.5178  0.0706  0.0991
 1124SOL     OW 4566   2.731   2.487   1.959 -0.2399 -0.0968 -0.0155
 1124SOL    HW2 4567   2.734   2.578   1.928 -1.0995 -0.6868 -1.9371
 1124SOL    HW3 4568   2.806   2.445   1.917  0.0376 -0.3202  0.7053
 1124SOL    MW4 4569   2.741   2.493   1.949 -0.3164 -0.2041 -0.1738
 1125SOL     OW 4570   2.745   2.750   1.848  0.1522 -0.0689  0.2061
 1125SOL    HW2 4571   2.656   2.755   1.882  0.6877  0.7604  1.5618
 1125SOL    HW3 4572   2.735   2.727   1.756 -1.4703  0.3942  0.2536
 1125SOL    MW4 4573   2.732   2.748   1.841  0.0091  0.1016  0.3914
 1126SOL     OW 4574   2.976   2.866   1.962 -0.1952 -0.1348 -0.0714
 1126SOL    HW2 4575   2.966   2.955   1.927  0.5160 -0.0344 -0.0303
 1126SOL    HW3 4576   2.899   2.820   1.931 -0.1400  0.2648 -0.8276
 1126SOL    MW4 4577   2.965   2.872   1.953 -0.0939 -0.0691 -0.1658
 1127SOL     OW 4578   2.937   3.118   1.848 -0.2784  0.2495  0.0013
 1127SOL    HW2 4579   3.015   3.145   1.897  1.0735 -2.6340 -0.4542
 1127SOL    HW3 4580   2.863   3.144   1.904  1.0630  1.1201  1.4165
 1127SOL    MW4 4581   2.938   3.125   1.862  0.0770 -0.0160  0.1279
 1128SOL     OW 4582   2.700   3.189   1.987 -0.0605 -0.3767  0.1442
 1128SOL    HW2 4583   2.688   3.270   1.936  0.9338 -0.9015 -0.9539
 1128SOL    HW3 4584   2.647   3.124   1.941  0.2753 -0.6816  0.1862
 1128SOL    MW4 4585   2.692   3.191   1.974  0.1149 -0.4861  0.0048
 1129SOL     OW 4586   2.677   3.437   1.860  0.0548  0.0013  0.0041
 1129SOL    HW2 4587   2.751   3.491   1.890 -0.9065  1.8027 -0.7850
 1129SOL    HW3 4588   2.600   3.484   1.892 -0.7927 -1.2405 -0.2063
 1129SOL    MW4 4589   2.677   3.450   1.868 -0.1841  0.0753 -0.1278
 1130SOL     OW 4590   2.888   3.627   1.961 -0.0917  0.1383 -0.1525
 1130SOL    HW2 4591   2.899   3.622   2.056 -1.3191 -0.7479 -0.0491
 1130SOL    HW3 4592   2.961   3.576   1.926 -1.1026 -1.7454  0.4049
 1130SOL    MW4 4593   2.899   3.620   1.969 -0.3870 -0.2267 -0.0652
 1131SOL     OW 4594   2.916   3.899   1.876  0.4784  0.3477 -0.2802
 1131SOL    HW2 4595   2.905   3.809   1.908 -1.0417  0.8314  0.6100
 1131SOL    HW3 4596   2.905   3.891   1.781  2.7220 -0.7449 -0.4925
 1131SOL    MW4 4597   2.913   3.886   1.867  0.5736  0.2673 -0.1907
 1132SOL     OW 4598   2.696   4.044   1.983  0.6183 -0.4079 -0.3259
 1132SOL    HW2 4599   2.774   4.003   1.947  0.0451 -2.1409  0.3567
 1132SOL    HW3 4600   2.623   3.996   1.943 -0.1770  2.4792 -2.4993
 1132SOL    MW4 4601   2.696   4.032   1.973  0.4377 -0.2561 -0.5227
 1133SOL     OW 4602   2.656   4.292   1.899  0.3797 -0.4196  0.1190
 1133SOL    HW2 4603   2.662   4.202   1.932  1.6623 -0.2143  0.4668
 1133SOL    HW3 4604   2.663   4.284   1.804  0.9556 -0.6465  0.1822
 1133SOL    MW4 4605   2.658   4.279   1.891  0.6249 -0.4225  0.1732
 1134SOL     OW 4606   2.899   4.409   2.005  0.1994 -0.1677  0.0919
 1134SOL    HW2 4607   2.917   4.414   2.099  0.2295 -0.1876  0.0871
 1134SOL    HW3 4608   2.825   4.349   1.998  0.9076 -1.0275  0.0105
 1134SOL    MW4 4609   2.891   4.402   2.016  0.2968 -0.2837  0.0806
 1135SOL     OW 4610   3.367   4.619   1.954  0.3611 -0.2256  0.3881
 1135SOL    HW2 4611   3.346   4.535   1.994  2.7408 -1.6529 -1.1730
 1135SOL    HW3 4612   3.366   4.601   1.860 -1.1684  2.0290 -0.0527
 1135SOL    MW4 4613   3.364   4.605   1.947  0.4735 -0.1163  0.1240
 1136SOL     OW 4614   3.149   0.133   2.007  0.0375  0.3768 -0.1348
 1136SOL    HW2 4615   3.148   0.123   2.102  1.1716 -0.4089 -0.1868
 1136SOL    HW3 4616   3.234   0.097   1.980  0.8708  2.9868 -1.1895
 1136SOL    MW4 4617   3.160   0.127   2.016  0.2973  0.6175 -0.2806
 1137SOL     OW 4618   3.138   0.380   1.924  0.0269 -0.7859  0.3253
 1137SOL    HW2 4619   3.141   0.291   1.959  1.4061 -1.4240 -1.3584
 1137SOL    HW3 4620   3.126   0.368   1.830 -1.1163  0.8467  0.2461
 1137SOL    MW4 4621   3.137   0.366   1.916  0.0582 -0.6547  0.0929
 1138SOL     OW 4622   3.375   0.498   2.005 -0.0891  0.0110 -0.3865
 1138SOL    HW2 4623   3.447   0.443   1.973 -0.4025 -1.3360  1.1412
 1138SOL    HW3 4624   3.296   0.453   1.974 -0.3156  1.6605 -2.3446
 1138SOL    MW4 4625   3.374   0.484   1.996 -0.1602  0.0509 -0.4433
 1139SOL     OW 4626   3.398   0.766   1.948 -0.0136  0.3218  0.5891
 1139SOL    HW2 4627   3.308   0.792   1.966 -0.4239 -0.9097  0.3861
 1139SOL    HW3 4628   3.401   0.672   1.969  1.2589  0.3817  0.7521
 1139SOL    MW4 4629   3.387   0.757   1.953  0.1001  0.1673  0.5836
 1140SOL     OW 4630   3.133   0.855   2.005  0.2967  0.5336  0.1121
 1140SOL    HW2 4631   3.118   0.862   2.099 -0.3798  1.3527 -0.0576
 1140SOL    HW3 4632   3.139   0.945   1.974 -0.1260  0.2750 -0.7423
 1140SOL    MW4 4633   3.132   0.868   2.013  0.1516  0.6076 -0.0234
 1141SOL     OW 4634   3.175   1.088   1.882  0.0550  0.3243  0.6042
 1141SOL    HW2 4635   3.249   1.126   1.930  0.0702 -1.2094  1.8475
 1141SOL    HW3 4636   3.101   1.145   1.902  0.7954  1.6335 -0.3073
 1141SOL    MW4 4637   3.175   1.101   1.891  0.1550  0.2946  0.6483
 1142SOL     OW 4638   3.394   1.231   1.996 -0.3023  0.2897  0.2344
 1142SOL    HW2 4639   3.386   1.237   2.092 -1.3806  1.0852  0.0996
 1142SOL    HW3 4640   3.371   1.318   1.964 -0.5299 -0.1422 -0.7937
 1142SOL    MW4 4641   3.390   1.243   2.005 -0.4747  0.3376  0.0811
 1143SOL     OW 4642   3.369   1.496   1.918 -0.1911 -0.3366  0.0303
 1143SOL    HW2 4643   3.444   1.550   1.943 -0.8667  0.8257 -0.4315
 1143SOL    HW3 4644   3.293   1.543   1.952 -0.7098 -1.5382  0.5407
 1143SOL    MW4 4645   3.369   1.509   1.926 -0.3488 -0.3418  0.0368
 1144SOL     OW 4646   3.151   1.628   2.024  0.5318 -0.1564  0.3992
 1144SOL    HW2 4647   3.150   1.656   2.115 -1.8875 -0.3691  0.4754
 1144SOL    HW3 4648   3.149   1.710   1.974  0.2412 -0.0637  0.5600
 1144SOL    MW4 4649   3.151   1.643   2.029  0.1743 -0.1721  0.4306
 1145SOL     OW 4650   3.145   1.865   1.896  0.1230 -0.0871 -0.0797
 1145SOL    HW2 4651   3.220   1.921   1.916 -0.0779  0.6002 -1.2241
 1145SOL    HW3 4652   3.141   1.864   1.800 -1.8600  0.5732 -0.0268
 1145SOL    MW4 4653   3.155   1.872   1.886 -0.1652  0.0908 -0.2238
 1146SOL     OW 4654   3.336   2.044   1.984 -0.0761  0.2401 -0.1862
 1146SOL    HW2 4655   3.426   2.019   1.960 -0.2239  0.0084 -0.5055
 1146SOL    HW3 4656   3.330   2.137   1.962  0.0439  0.2239 -0.2852
 1146SOL    MW4 4657   3.347   2.053   1.978 -0.0799  0.2077 -0.2414
 1147SOL     OW 4658   3.374   2.318   1.898 -0.2903 -0.2344  0.1484
 1147SOL    HW2 4659   3.303   2.362   1.944 -0.6820 -1.4509  0.7300
 1147SOL    HW3 4660   3.363   2.344   1.806 -0.4084  0.9846  0.4986
 1147SOL    MW4 4661   3.363   2.327   1.892 -0.3576 -0.2341  0.2714
 1148SOL     OW 4662   3.171   2.448   2.014  0.3634 -0.2780  0.4147
 1148SOL    HW2 4663   3.154   2.472   2.105 -2.2925 -0.4477  0.0260
 1148SOL    HW3 4664   3.185   2.532   1.970 -1.2560  0.0398  0.4678
 1148SOL    MW4 4665   3.170   2.462   2.020 -0.2005 -0.2584  0.3705
 1149SOL     OW 4666   3.190   2.697   1.890  0.3751 -0.4429  0.3489
 1149SOL    HW2 4667   3.119   2.758   1.911  0.7573  0.3766 -0.6678
 1149SOL    HW3 4668   3.200   2.704   1.795  2.3327  0.0340  0.5785
 1149SOL    MW4 4669   3.182   2.706   1.880  0.6838 -0.2718  0.2451
 1150SOL     OW 4670   3.392   2.833   2.011  0.3955 -0.4187  0.0921
 1150SOL    HW2 4671   3.379   2.826   2.106  0.5390 -0.0080  0.1428
 1150SOL    HW3 4672   3.316   2.787   1.973  0.1121 -0.2119  0.4046
 1150SOL    MW4 4673   3.380   2.826   2.019  0.3772 -0.3371  0.1400
 1151SOL     OW 4674   3.343   3.080   1.886 -0.2077  0.2403 -0.3711
 1151SOL    HW2 4675   3.420   3.123   1.924  0.6035  0.3233 -2.0364
 1151SOL    HW3 4676   3.349   2.989   1.916  1.1500 -0.0123 -1.3423
 1151SOL    MW4 4677   3.354   3.074   1.895  0.0784  0.2179 -0.7190
 1152SOL     OW 4678   3.133   3.224   2.006 -0.2742 -0.0069 -0.1453
 1152SOL    HW2 4679   3.139   3.309   1.962 -2.3956  1.0120  1.4524
 1152SOL    HW3 4680   3.211   3.177   1.977  1.0005  2.5165 -0.9832
 1152SOL    MW4 4681   3.144   3.229   1.996 -0.3860  0.4601 -0.0451
 1153SOL     OW 4682   3.098   3.481   1.854 -0.1580  0.2805  0.2231
 1153SOL    HW2 4683   3.172   3.521   1.899 -0.4506  0.6359  0.3854
 1153SOL    HW3 4684   3.118   3.492   1.761  0.4900 -0.5340  0.2580
 1153SOL    MW4 4685   3.110   3.488   1.848 -0.1109  0.2201  0.2491
 1154SOL     OW 4686   3.294   3.615   1.991  0.2569  0.2261  0.5131
 1154SOL    HW2 4687   3.380   3.577   1.977  1.0376  1.7452  1.1163
 1154SOL    HW3 4688   3.304   3.707   1.970 -1.5019  0.2135 -0.4996
 1154SOL    MW4 4689   3.307   3.622   1.987  0.1278  0.4249  0.4592
 1155SOL     OW 4690   3.326   3.888   1.907 -0.7054 -0.5563 -0.0159
 1155SOL    HW2 4691   3.259   3.943   1.946  0.3528  0.3318  0.5600
 1155SOL    HW3 4692   3.321   3.906   1.813 -0.7705  0.0496  0.1070
 1155SOL    MW4 4693   3.316   3.897   1.900 -0.5744 -0.3593  0.0763
 1156SOL     OW 4694   3.117   4.029   1.995 -0.3806  0.1690 -0.0475
 1156SOL    HW2 4695   3.113   4.036   2.091  1.1649 -1.4103  0.1583
 1156SOL    HW3 4696   3.047   3.969   1.973 -0.9445  0.7825  0.0574
 1156SOL    MW4 4697   3.108   4.022   2.005 -0.2511  0.0415 -0.0064
 1157SOL     OW 4698   3.127   4.295   1.892  0.7552 -0.2202 -0.1380
 1157SOL    HW2 4699   3.130   4.203   1.920  2.0563  0.1703  1.0788
 1157SOL    HW3 4700   3.051   4.331   1.938  0.9792 -0.3837  0.3634
 1157SOL    MW4 4701   3.117   4.287   1.902  0.9563 -0.1903  0.0887
 1158SOL     OW 4702   3.339   4.362   2.066 -0.0540  0.1237  0.2386
 1158SOL    HW2 4703   3.423   4.327   2.037  0.5094  1.4326  0.2197
 1158SOL    HW3 4704   3.274   4.316   2.014  0.7348 -0.0047 -0.6446
 1158SOL    MW4 4705   3.342   4.351   2.056  0.1247  0.2789  0.1197
 1159SOL     OW 4706   3.804   4.618   1.939  0.0751 -0.2138 -0.1046
 1159SOL    HW2 4707   3.780   4.528   1.963  1.6202 -0.3137  1.1543
 1159SOL    HW3 4708   3.725   4.669   1.957 -1.0826 -1.4087 -1.5685
 1159SOL    MW4 4709   3.790   4.613   1.945  0.1264 -0.3848 -0.1315
 1160SOL     OW 4710   3.589   0.079   2.049 -0.3091  0.0926 -0.1542
 1160SOL    HW2 4711   3.578   0.097   2.143 -0.1109 -1.0964  0.1097
 1160SOL    HW3 4712   3.507   0.035   2.024  0.2536 -0.9372 -0.1936
 1160SOL    MW4 4713   3.577   0.076   2.058 -0.2086 -0.2001 -0.1247
 1161SOL     OW 4714   3.597   0.349   1.935 -0.0019  0.4627 -0.0357
 1161SOL    HW2 4715   3.589   0.262   1.973 -0.7068  0.5000 -0.1028
 1161SOL    HW3 4716   3.570   0.338   1.844  0.6558  0.5938 -0.2520
 1161SOL    MW4 4717   3.593   0.336   1.928 -0.0079  0.4849 -0.0732
 1162SOL     OW 4718   3.802   0.498   2.025  0.2310  0.7960 -0.1097
 1162SOL    HW2 4719   3.805   0.587   1.990 -0.1223  1.2440  0.9759
 1162SOL    HW3 4720   3.720   0.462   1.991  1.5206  0.0101 -2.5547
 1162SOL    MW4 4721   3.792   0.505   2.016  0.3541  0.7514 -0.2887
 1163SOL     OW 4722   3.832   0.757   1.947 -0.2860  0.1189  0.3056
 1163SOL    HW2 4723   3.759   0.808   1.983 -1.3531 -1.4448  0.4405
 1163SOL    HW3 4724   3.817   0.758   1.853 -0.5214 -0.2310  0.3359
 1163SOL    MW4 4725   3.820   0.764   1.940 -0.4578 -0.1336  0.3272
 1164SOL     OW 4726   3.616   0.926   2.025 -0.2713 -0.0276 -0.1958
 1164SOL    HW2 4727   3.610   1.011   1.981 -0.8460  0.1995  0.3281
 1164SOL    HW3 4728   3.530   0.886   2.014 -0.4065  0.0065  0.6723
 1164SOL    MW4 4729   3.604   0.932   2.018 -0.3650  0.0068 -0.0122
 1165SOL     OW 4730   3.626   1.158   1.863  0.6132  0.1214 -0.0628
 1165SOL    HW2 4731   3.539   1.190   1.888 -0.6583 -3.1718 -0.0478
 1165SOL    HW3 4732   3.621   1.144   1.769  0.8450 -0.8748  0.0671
 1165SOL    MW4 4733   3.614   1.161   1.854  0.4761 -0.4445 -0.0436
 1166SOL     OW 4734   3.848   1.251   2.005 -0.0453  0.5845 -0.2521
 1166SOL    HW2 4735   3.840   1.225   2.096 -1.1543  1.3381 -0.1221
 1166SOL    HW3 4736   3.770   1.215   1.963  0.9254 -0.5538 -1.1040
 1166SOL    MW4 4737   3.837   1.243   2.011 -0.0634  0.5337 -0.3474
 1167SOL     OW 4738   3.776   1.504   1.904  0.4457 -0.0054  0.2753
 1167SOL    HW2 4739   3.841   1.568   1.934  1.0525  0.6872 -2.3873
 1167SOL    HW3 4740   3.800   1.423   1.948  1.1582  1.0091  1.8046
 1167SOL    MW4 4741   3.788   1.502   1.913  0.6196  0.2199  0.1256
 1168SOL     OW 4742   3.581   1.672   1.999 -0.0173 -0.7634 -0.4821
 1168SOL    HW2 4743   3.567   1.669   2.094  1.1867 -0.2023 -0.2724
 1168SOL    HW3 4744   3.654   1.612   1.984  0.4230 -0.1220 -0.9235
 1168SOL    MW4 4745   3.589   1.664   2.010  0.1996 -0.6049 -0.5126
 1169SOL     OW 4746   3.592   1.942   1.923 -0.0743  0.1788 -0.1901
 1169SOL    HW2 4747   3.677   1.982   1.943 -0.1346  0.1612  0.0978
 1169SOL    HW3 4748   3.605   1.849   1.940  0.0788  0.0703 -0.9023
 1169SOL    MW4 4749   3.605   1.935   1.928 -0.0618  0.1621 -0.2460
 1170SOL     OW 4750   3.845   2.044   1.982  0.3829  0.1217  0.4783
 1170SOL    HW2 4751   3.925   2.000   1.955 -1.4631 -1.1241 -3.2533
 1170SOL    HW3 4752   3.853   2.132   1.947 -1.0054 -0.8169 -2.3423
 1170SOL    MW4 4753   3.856   2.050   1.974 -0.0436 -0.1662 -0.3862
 1171SOL     OW 4754   3.802   2.298   1.887  0.1422 -0.9311  0.2523
 1171SOL    HW2 4755   3.879   2.352   1.904  0.6505 -1.3037 -0.8379
 1171SOL    HW3 4756   3.733   2.336   1.942  0.9954 -0.3558  0.9326
 1171SOL    MW4 4757   3.803   2.310   1.897  0.3219 -0.9043  0.1982
 1172SOL     OW 4758   3.599   2.433   2.033 -0.0037  0.2947  0.1446
 1172SOL    HW2 4759   3.609   2.518   1.990  1.0357  0.0479 -0.1126
 1172SOL    HW3 4760   3.524   2.393   1.988 -0.2614  0.9089  0.0106
 1172SOL    MW4 4761   3.590   2.439   2.021  0.0994  0.3436  0.0930
 1173SOL     OW 4762   3.612   2.675   1.872  0.3112 -0.0465  0.3319
 1173SOL    HW2 4763   3.694   2.718   1.897  0.0867  0.1234  0.7815
 1173SOL    HW3 4764   3.544   2.729   1.913  0.0086 -0.6183  0.5839
 1173SOL    MW4 4765   3.614   2.688   1.881  0.2418 -0.0997  0.4245
 1174SOL     OW 4766   3.828   2.821   1.970  0.4398 -0.2012  0.2751
 1174SOL    HW2 4767   3.813   2.822   2.064  0.3521 -0.5335  0.2658
 1174SOL    HW3 4768   3.793   2.904   1.939  1.9218  0.6166  0.7554
 1174SOL    MW4 4769   3.821   2.832   1.978  0.6239 -0.1373  0.3372
 1175SOL     OW 4770   3.754   3.093   1.892  0.2366 -0.5053  0.4268
 1175SOL    HW2 4771   3.678   3.136   1.931  1.2371 -0.2855  2.1655
 1175SOL    HW3 4772   3.751   3.118   1.800 -1.7359 -0.4171  0.4862
 1175SOL    MW4 4773   3.744   3.102   1.885  0.1087 -0.4647  0.6639
 1176SOL     OW 4774   3.544   3.234   1.997  0.2197 -0.3911 -0.0060
 1176SOL    HW2 4775   3.560   3.215   2.090  2.3284  0.0935 -0.2460
 1176SOL    HW3 4776   3.532   3.329   1.994 -1.6780 -0.6141  0.0023
 1176SOL    MW4 4777   3.545   3.244   2.009  0.2475 -0.3567 -0.0367
 1177SOL     OW 4778   3.559   3.504   1.941  0.0462 -0.5106 -0.1925
 1177SOL    HW2 4779   3.646   3.532   1.968  0.5693 -1.8875 -0.4313
 1177SOL    HW3 4780   3.558   3.516   1.846 -0.8877  1.8201  0.0668
 1177SOL    MW4 4781   3.570   3.509   1.932 -0.0083 -0.3848 -0.1898
 1178SOL     OW 4782   3.806   3.603   2.033  0.0193 -0.2288 -0.3225
 1178SOL    HW2 4783   3.869   3.551   1.984  2.0449 -0.2222  2.1708
 1178SOL    HW3 4784   3.822   3.693   2.006 -0.5579 -0.4691 -1.4646
 1178SOL    MW4 4785   3.817   3.608   2.023  0.2103 -0.2594 -0.1442
 1179SOL     OW 4786   3.830   3.880   1.962 -0.4106 -0.0613  0.0728
 1179SOL    HW2 4787   3.744   3.914   1.987 -0.2502 -0.2878  0.9506
 1179SOL    HW3 4788   3.828   3.878   1.866 -0.9636  1.0038  0.0580
 1179SOL    MW4 4789   3.819   3.884   1.953 -0.4625  0.0494  0.1868
 1180SOL     OW 4790   3.565   3.951   2.021  0.0036 -0.3966 -0.1481
 1180SOL    HW2 4791   3.553   3.974   2.113  1.3115 -0.4121  0.0351
 1180SOL    HW3 4792   3.479   3.920   1.993 -1.0593  1.8992  0.4029
 1180SOL    MW4 4793   3.552   3.950   2.030  0.0360 -0.0958 -0.0515
 1181SOL     OW 4794   3.560   4.232   1.944 -0.0080  0.1527 -0.3732
 1181SOL    HW2 4795   3.641   4.279   1.964 -0.5109  0.5134  0.9093
 1181SOL    HW3 4796   3.578   4.141   1.968  0.3778  0.0263 -1.1436
 1181SOL    MW4 4797   3.573   4.226   1.950 -0.0234  0.1831 -0.3055
 1182SOL     OW 4798   3.779   4.358   2.036  0.2985 -0.1280  0.2043
 1182SOL    HW2 4799   3.776   4.375   2.130 -0.7300 -2.3104  0.6093
 1182SOL    HW3 4800   3.872   4.344   2.017  0.7627  2.3283  0.4652
 1182SOL    MW4 4801   3.791   4.358   2.045  0.2241 -0.0920  0.2923
 1183SOL     OW 4802   4.274   4.649   1.900 -0.0983  0.1747 -0.7911
 1183SOL    HW2 4803   4.190   4.669   1.941  0.6646 -2.2704  2.0966
 1183SOL    HW3 4804   4.337   4.705   1.946  0.6919 -2.2481  1.1555
 1183SOL    MW4 4805   4.271   4.659   1.912  0.1063 -0.4673 -0.1533
 1184SOL     OW 4806   4.029   0.064   2.016  0.3125 -0.2743  0.4003
 1184SOL    HW2 4807   4.040   0.071   2.111 -1.0076  3.3047  0.3845
 1184SOL    HW3 4808   3.943   0.024   2.004 -0.1810  0.6743  0.7454
 1184SOL    MW4 4809   4.019   0.060   2.027  0.0725  0.3231  0.4435
 1185SOL     OW 4810   4.012   0.327   1.934 -0.0328 -0.4121 -0.3336
 1185SOL    HW2 4811   4.008   0.247   1.986  0.5588  0.7418  1.5397
 1185SOL    HW3 4812   3.941   0.381   1.968  0.8753  0.6843 -0.1549
 1185SOL    MW4 4813   4.003   0.324   1.946  0.1650 -0.1152 -0.0629
 1186SOL     OW 4814   4.222   0.493   2.033  0.4009 -0.2840  0.0555
 1186SOL    HW2 4815   4.215   0.501   2.128  1.2377  0.7485  0.0435
 1186SOL    HW3 4816   4.150   0.436   2.008 -0.5523  0.4095  1.1848
 1186SOL    MW4 4817   4.212   0.487   2.042  0.3853 -0.0563  0.2029
 1187SOL     OW 4818   4.288   0.735   1.893  0.1605 -0.0511 -0.1094
 1187SOL    HW2 4819   4.266   0.648   1.928  0.8654 -0.3077 -0.2980
 1187SOL    HW3 4820   4.301   0.720   1.800 -0.0608  0.3288 -0.2013
 1187SOL    MW4 4821   4.287   0.721   1.886  0.2246 -0.0349 -0.1464
 1188SOL     OW 4822   4.079   0.888   1.971  0.0817 -0.1266 -0.7716
 1188SOL    HW2 4823   4.146   0.830   1.934  0.8442 -0.4087  1.0163
 1188SOL    HW3 4824   3.999   0.837   1.969  0.3076 -0.4700 -1.1775
 1188SOL    MW4 4825   4.078   0.874   1.966  0.2117 -0.2091 -0.5891
 1189SOL     OW 4826   4.087   1.143   1.901  0.3301  0.0327 -0.3010
 1189SOL    HW2 4827   4.089   1.052   1.933  0.6855  0.7169  1.6673
 1189SOL    HW3 4828   4.010   1.181   1.942  1.2806  1.1768  0.4602
 1189SOL    MW4 4829   4.077   1.136   1.911  0.5021  0.2738  0.0590
 1190SOL     OW 4830   4.320   1.277   1.974  0.2287  0.5293  0.1067
 1190SOL    HW2 4831   4.321   1.289   2.069 -1.6659  2.4087 -0.0587
 1190SOL    HW3 4832   4.232   1.245   1.955  0.9210 -0.8137 -0.9307
 1190SOL    MW4 4833   4.308   1.274   1.984  0.0696  0.6001 -0.0520
 1191SOL     OW 4834   4.274   1.553   1.910 -0.0845 -0.3795  0.7381
 1191SOL    HW2 4835   4.301   1.464   1.935  0.6657 -0.3329  0.1148
 1191SOL    HW3 4836   4.263   1.548   1.815  2.2115  0.7667  0.3719
 1191SOL    MW4 4837   4.276   1.540   1.901  0.3181 -0.2221  0.6075
 1192SOL     OW 4838   3.988   1.672   1.983 -0.0199  0.4294  0.3063
 1192SOL    HW2 4839   3.997   1.689   2.077 -0.4066  1.1727  0.2137
 1192SOL    HW3 4840   4.070   1.629   1.958 -0.2315 -0.4478  1.1314
 1192SOL    MW4 4841   4.000   1.669   1.992 -0.0987  0.4117  0.4030
 1193SOL     OW 4842   4.056   1.911   1.856  0.2831 -0.2644 -0.1796
 1193SOL    HW2 4843   4.029   1.824   1.886 -0.7502  0.2465  0.4077
 1193SOL    HW3 4844   4.046   1.908   1.761 -0.1430 -0.6616 -0.1233
 1193SOL    MW4 4845   4.051   1.899   1.848  0.0906 -0.2495 -0.0948
 1194SOL     OW 4846   4.319   2.054   2.003 -0.2805  0.1767  0.2705
 1194SOL    HW2 4847   4.283   2.080   2.088 -1.3769  0.0449 -0.1372
 1194SOL    HW3 4848   4.244   2.016   1.957  0.5802 -0.8584 -0.2991
 1194SOL    MW4 4849   4.304   2.052   2.009 -0.3114  0.0226  0.1414
 1195SOL     OW 4850   0.007   2.431   1.952  0.2473 -0.7647  0.2276
 1195SOL    HW2 4851  -0.070   2.381   1.925  0.1207 -1.9951  2.7412
 1195SOL    HW3 4852   0.002   2.435   2.047  2.3931  0.6321  0.3344
 1195SOL    MW4 4853  -0.004   2.425   1.961  0.5136 -0.7429  0.5734
 1196SOL     OW 4854   4.283   2.298   1.869  0.0812 -0.1542  0.0107
 1196SOL    HW2 4855   4.199   2.333   1.898 -0.9134 -1.4296 -1.2320
 1196SOL    HW3 4856   4.294   2.218   1.919  1.5235  0.9915  1.5903
 1196SOL    MW4 4857   4.273   2.292   1.879  0.1402 -0.1714  0.0551
 1197SOL     OW 4858   4.037   2.430   1.963 -0.2308 -0.4650 -0.3213
 1197SOL    HW2 4859   4.022   2.435   2.057  0.2925 -0.6956 -0.2241
 1197SOL    HW3 4860   4.054   2.521   1.936 -1.7223 -0.2080 -0.4247
 1197SOL    MW4 4861   4.037   2.443   1.972 -0.3586 -0.4611 -0.3220
 1198SOL     OW 4862   4.066   2.701   1.887 -0.3908  0.8664  0.0734
 1198SOL    HW2 4863   4.133   2.761   1.919 -0.3552  0.8391  0.0528
 1198SOL    HW3 4864   3.983   2.743   1.908 -0.3763  2.6983 -3.2202
 1198SOL    MW4 4865   4.064   2.714   1.894 -0.3839  1.1044 -0.3639
 1199SOL     OW 4866   4.281   3.142   1.869 -0.0296 -0.4928 -0.4785
 1199SOL    HW2 4867   4.196   3.180   1.893 -0.7099 -1.3407 -1.4944
 1199SOL    HW3 4868   4.275   3.051   1.897  0.2043 -0.7901 -1.3779
 1199SOL    MW4 4869   4.269   3.135   1.876 -0.0882 -0.6442 -0.7311
 1200SOL     OW 4870   4.010   3.239   1.950  0.1052  0.1901  0.2671
 1200SOL    HW2 4871   4.005   3.228   2.045  1.3331 -3.4376  0.0169
 1200SOL    HW3 4872   3.930   3.199   1.917  0.3569  0.1362 -0.2824
 1200SOL    MW4 4873   3.999   3.232   1.959  0.3002 -0.2954  0.1615
 1201SOL     OW 4874   4.009   3.499   1.866  0.2479  0.1789  0.3779
 1201SOL    HW2 4875   4.082   3.537   1.914  0.7661 -0.5401  0.1713
 1201SOL    HW3 4876   4.004   3.409   1.898 -0.8288  0.3543  0.7086
 1201SOL    MW4 4877   4.018   3.492   1.876  0.1740  0.1070  0.3942
 1202SOL     OW 4878   4.242   3.621   1.982 -0.2091  0.1520 -0.0897
 1202SOL    HW2 4879   4.318   3.568   1.955  0.4754  0.5196  1.0646
 1202SOL    HW3 4880   4.244   3.618   2.077 -0.9846  1.1290 -0.0394
 1202SOL    MW4 4881   4.253   3.613   1.991 -0.2213  0.3293  0.0690
 1203SOL     OW 4882   4.281   3.900   1.892 -0.6522  0.1055  0.4130
 1203SOL    HW2 4883   4.353   3.931   1.947 -1.7951  1.7905  1.0005
 1203SOL    HW3 4884   4.273   3.807   1.912  2.7236 -0.6330 -1.2205
 1203SOL    MW4 4885   4.289   3.892   1.902 -0.3576  0.2306  0.2749
 1204SOL     OW 4886   4.071   4.020   2.038  0.3072 -0.5485 -0.4182
 1204SOL    HW2 4887   4.142   3.983   1.986  0.9980  1.5567 -1.0390
 1204SOL    HW3 4888   3.995   3.967   2.016  1.3961 -1.9848 -0.7711
 1204SOL    MW4 4889   4.070   4.008   2.028  0.5426 -0.4606 -0.5467
 1205SOL     OW 4890   4.040   4.298   1.972  0.1594  0.1786  0.5446
 1205SOL    HW2 4891   4.123   4.341   1.990  0.1514 -0.0630  1.1699
 1205SOL    HW3 4892   4.049   4.211   2.010  0.0416 -0.2506 -0.4029
 1205SOL    MW4 4893   4.052   4.293   1.980  0.1426  0.0901  0.5020
 1206SOL     OW 4894   4.297   4.385   1.997  0.3028  0.1047  0.0573
 1206SOL    HW2 4895   4.284   4.393   2.091  2.0492  1.8327  0.1962
 1206SOL    HW3 4896   4.287   4.474   1.964  2.2841 -0.0402 -1.0210
 1206SOL    MW4 4897   4.294   4.398   2.005  0.7949  0.3133 -0.0663
 1207SOL     OW 4898   0.230   4.647   2.372 -0.0149 -0.1670  0.2086
 1207SOL    HW2 4899   0.228   4.644   2.467  0.3582 -1.7412  0.1869
 1207SOL    HW3 4900   0.298   4.711   2.351 -1.1382  1.2993  0.9785
 1207SOL    MW4 4901   0.239   4.655   2.382 -0.1138 -0.1812  0.3073
 1208SOL     OW 4902   4.472   0.099   2.276 -0.1782  0.0074  0.4211
 1208SOL    HW2 4903   4.559   0.067   2.301  0.4056  0.3625 -1.1571
 1208SOL    HW3 4904   4.472   0.099   2.181 -1.4901  1.1681  0.4072
 1208SOL    MW4 4905   4.483   0.095   2.267 -0.2742  0.2074  0.2108
 1209SOL     OW 4906   4.476   0.370   2.417  0.8157  0.5685  0.0285
 1209SOL    HW2 4907   4.538   0.431   2.376  0.4659  0.1399 -1.1390
 1209SOL    HW3 4908   4.478   0.292   2.362  0.6721 -0.1906  1.0778
 1209SOL    MW4 4909   4.484   0.368   2.404  0.7510  0.4118  0.0129
 1210SOL     OW 4910   0.195   0.492   2.280  0.0349 -0.0148  0.0715
 1210SOL    HW2 4911   0.280   0.455   2.305 -0.0448  0.0839  0.5017
 1210SOL    HW3 4912   0.205   0.518   2.189  0.6141  0.4338  0.2654
 1210SOL    MW4 4913   0.207   0.490   2.272  0.1008  0.0574  0.1538
 1211SOL     OW 4914   0.248   0.761   2.381 -0.0673  0.0883  0.1973
 1211SOL    HW2 4915   0.240   0.756   2.476 -0.2397 -0.3047  0.1627
 1211SOL    HW3 4916   0.227   0.672   2.350 -0.0294  0.2182 -0.2068
 1211SOL    MW4 4917   0.244   0.748   2.389 -0.0850  0.0536  0.1395
 1212SOL     OW 4918   0.025   0.910   2.323 -0.3349 -0.1392  0.4411
 1212SOL    HW2 4919   0.104   0.860   2.344 -0.6861 -0.5766  0.7299
 1212SOL    HW3 4920   0.009   0.892   2.230 -0.9173 -1.2111  0.7434
 1212SOL    MW4 4921   0.034   0.901   2.313 -0.4581 -0.3383  0.5190
 1213SOL     OW 4922   0.022   1.192   2.415 -0.3160  0.3848 -0.2171
 1213SOL    HW2 4923   0.030   1.201   2.510 -0.1060  0.0471 -0.2022
 1213SOL    HW3 4924   0.056   1.104   2.397 -1.5227 -0.0414 -0.4548
 1213SOL    MW4 4925   0.027   1.182   2.426 -0.4475  0.2841 -0.2465
 1214SOL     OW 4926   0.262   1.306   2.283  0.0281  0.1766 -0.2249
 1214SOL    HW2 4927   0.184   1.281   2.333 -0.0935  1.2828  0.1691
 1214SOL    HW3 4928   0.242   1.283   2.193  0.4982 -2.4504  0.2875
 1214SOL    MW4 4929   0.249   1.300   2.278  0.0741 -0.0243 -0.1054
 1215SOL     OW 4930   0.184   1.564   2.349  0.5471 -0.0213 -0.1587
 1215SOL    HW2 4931   0.198   1.552   2.443 -0.8423  0.3159  0.1075
 1215SOL    HW3 4932   0.212   1.481   2.309 -0.8981 -0.9791  0.7774
 1215SOL    MW4 4933   0.190   1.551   2.356  0.1732 -0.1031  0.0000
 1216SOL     OW 4934   4.480   1.720   2.253  0.3497 -0.6755  0.1363
 1216SOL    HW2 4935   4.492   1.803   2.299 -0.1667 -1.4369  1.7111
 1216SOL    HW3 4936   4.543   1.661   2.295  0.5888 -1.1193 -0.8444
 1216SOL    MW4 4937   4.490   1.723   2.265  0.3133 -0.8346  0.2148
 1217SOL     OW 4938   4.483   1.967   2.360 -0.2493 -0.0336  0.5422
 1217SOL    HW2 4939   4.407   2.015   2.328 -1.3542 -1.8665  0.3945
 1217SOL    HW3 4940   4.558   2.022   2.336 -1.4664  1.5230  0.2213
 1217SOL    MW4 4941   4.483   1.981   2.353 -0.5555 -0.0700  0.4804
 1218SOL     OW 4942   0.204   2.128   2.271  0.2153 -0.4482 -0.5871
 1218SOL    HW2 4943   0.279   2.075   2.297  1.1196  0.7279 -0.7785
 1218SOL    HW3 4944   0.209   2.131   2.176  0.6263  0.6344 -0.5360
 1218SOL    MW4 4945   0.214   2.121   2.262  0.3888 -0.1502 -0.6056
 1219SOL     OW 4946   0.207   2.388   2.360  0.6559  0.2584 -0.3922
 1219SOL    HW2 4947   0.222   2.367   2.453 -0.2115  0.2899 -0.2339
 1219SOL    HW3 4948   0.208   2.303   2.316  2.6408  0.3712 -0.6060
 1219SOL    MW4 4949   0.209   2.374   2.367  0.8034  0.2775 -0.3994
 1220SOL     OW 4950   4.487   2.506   2.230 -0.3483  0.2728  0.3485
 1220SOL    HW2 4951   4.560   2.472   2.283  1.0600  0.7965 -1.2087
 1220SOL    HW3 4952   4.467   2.591   2.268  2.8599  2.1300 -1.9010
 1220SOL    MW4 4953   4.494   2.512   2.242  0.2613  0.5870 -0.1535
 1221SOL     OW 4954   4.468   2.755   2.368  0.3867 -0.1190  0.4847
 1221SOL    HW2 4955   4.477   2.733   2.461 -0.3991  1.3157  0.9123
 1221SOL    HW3 4956   4.553   2.793   2.344  0.3959  0.0380  0.7615
 1221SOL    MW4 4957   4.481   2.757   2.377  0.2847  0.0908  0.5777
 1222SOL     OW 4958   0.231   2.859   2.272 -0.3079 -0.0301 -0.1830
 1222SOL    HW2 4959   0.315   2.816   2.292 -0.8991 -0.4082  1.6392
 1222SOL    HW3 4960   0.203   2.821   2.189  1.4660  0.3207 -0.9589
 1222SOL    MW4 4961   0.238   2.848   2.264 -0.1519 -0.0336 -0.0451
 1223SOL     OW 4962   0.240   3.119   2.371  0.5372 -0.2763 -0.1978
 1223SOL    HW2 4963   0.158   3.160   2.342  1.4334  0.1136 -2.3094
 1223SOL    HW3 4964   0.234   3.029   2.340  0.2327 -0.6967  1.0571
 1223SOL    MW4 4965   0.228   3.113   2.363  0.6153 -0.2804 -0.3109
 1224SOL     OW 4966   4.475   3.207   2.315  0.4252  0.0968  0.1115
 1224SOL    HW2 4967   4.470   3.302   2.326 -2.7876  0.0185 -0.1407
 1224SOL    HW3 4968   4.485   3.194   2.220  1.3427  0.1932  0.1954
 1224SOL    MW4 4969   4.475   3.218   2.304  0.1225  0.0994  0.0892
 1225SOL     OW 4970   4.471   3.491   2.366  0.1405  0.5901 -0.6632
 1225SOL    HW2 4971   4.475   3.473   2.460 -0.2477  0.0440 -0.7484
 1225SOL    HW3 4972   4.392   3.545   2.355 -0.2205  0.0487 -0.7666
 1225SOL    MW4 4973   4.461   3.496   2.377  0.0415  0.4468 -0.6881
 1226SOL     OW 4974   0.230   3.586   2.271  0.1603  0.0828 -0.5218
 1226SOL    HW2 4975   0.302   3.546   2.321  0.5029 -0.3452 -1.3449
 1226SOL    HW3 4976   0.151   3.557   2.316  0.4850  0.3348  0.2341
 1226SOL    MW4 4977   0.229   3.577   2.284  0.2483  0.0598 -0.5307
 1227SOL     OW 4978   0.240   3.834   2.341 -0.4332 -0.1018 -0.1590
 1227SOL    HW2 4979   0.154   3.872   2.322 -0.9020 -0.6998  0.7255
 1227SOL    HW3 4980   0.232   3.743   2.312 -0.0611 -0.1312 -0.1668
 1227SOL    MW4 4981   0.227   3.827   2.334 -0.4460 -0.1848 -0.0432
 1228SOL     OW 4982   0.026   4.008   2.316  0.1429 -0.0184 -0.2508
 1228SOL    HW2 4983   0.006   4.098   2.344  2.7346  0.6067 -0.3290
 1228SOL    HW3 4984   0.016   4.010   2.221 -1.1102 -0.1848 -0.1379
 1228SOL    MW4 4985   0.022   4.020   2.308  0.3195  0.0420 -0.2460
 1229SOL     OW 4986   4.487   4.285   2.355  0.1229 -0.1105  0.0974
 1229SOL    HW2 4987   4.500   4.261   2.447 -0.4394  0.4950  0.3396
 1229SOL    HW3 4988   4.574   4.313   2.325  0.0928  0.7363  0.7671
 1229SOL    MW4 4989   4.500   4.286   2.363  0.0443  0.0811  0.2179
 1230SOL     OW 4990   0.225   4.407   2.255 -0.3305  0.3737  0.4400
 1230SOL    HW2 4991   0.293   4.347   2.285 -0.7800  0.2241  1.1502
 1230SOL    HW3 4992   0.247   4.491   2.295 -1.2517  0.0432  1.6689
 1230SOL    MW4 4993   0.237   4.410   2.264 -0.5114  0.3109  0.6959
 1231SOL     OW 4994   0.657   4.647   2.328 -0.2753  0.2269  0.1313
 1231SOL    HW2 4995   0.646   4.647   2.423  0.8797  0.2262  0.2724
 1231SOL    HW3 4996   0.732   4.705   2.312  1.4751 -2.1351 -0.5234
 1231SOL    MW4 4997   0.666   4.655   2.338  0.1081 -0.0854  0.0637
 1232SOL     OW 4998   0.432   0.144   2.254 -0.0755 -0.5434 -0.3909
 1232SOL    HW2 4999   0.511   0.095   2.278  0.7578  1.2244  0.5438
 1232SOL    HW3 5000   0.436   0.149   2.158  0.7740 -0.7608 -0.3715
 1232SOL    MW4 5001   0.443   0.138   2.244  0.1466 -0.3388 -0.2651
 1233SOL     OW 5002   0.422   0.389   2.388 -0.2620  0.3487  0.5342
 1233SOL    HW2 5003   0.420   0.364   2.480  0.7914 -0.8880  0.2375
 1233SOL    HW3 5004   0.438   0.308   2.341  1.0908  1.2406 -0.6012
 1233SOL    MW4 5005   0.424   0.375   2.394  0.0555  0.3032  0.3452
 1234SOL     OW 5006   0.621   0.511   2.246 -0.3974  0.7428 -0.3771
 1234SOL    HW2 5007   0.624   0.595   2.293 -2.8790  0.2172  0.7547
 1234SOL    HW3 5008   0.556   0.459   2.293 -0.7474 -0.8911 -2.6104
 1234SOL    MW4 5009   0.613   0.516   2.258 -0.7709  0.4579 -0.5226
 1235SOL     OW 5010   0.671   0.756   2.371  0.2942 -0.1160 -0.2579
 1235SOL    HW2 5011   0.670   0.745   2.466  0.8565 -0.2110 -0.2609
 1235SOL    HW3 5012   0.603   0.821   2.354  1.0817  0.8947  0.3469
 1235SOL    MW4 5013   0.662   0.763   2.381  0.4723  0.0048 -0.1788
 1236SOL     OW 5014   0.447   0.915   2.285 -0.0410  0.2871  0.0407
 1236SOL    HW2 5015   0.382   0.846   2.302  0.4648 -0.1894  0.0279
 1236SOL    HW3 5016   0.449   0.924   2.190  0.3160 -0.0853  0.0121
 1236SOL    MW4 5017   0.438   0.907   2.275  0.0728  0.1751  0.0350
 1237SOL     OW 5018   0.456   1.162   2.411  0.5127 -0.2281  0.5465
 1237SOL    HW2 5019   0.453   1.081   2.360 -0.3310 -0.8672  1.5989
 1237SOL    HW3 5020   0.386   1.216   2.374  1.0778  0.0418 -0.1572
 1237SOL    MW4 5021   0.446   1.158   2.399  0.4760 -0.2767  0.5927
 1238SOL     OW 5022   0.670   1.297   2.268 -0.0981  0.0121 -0.5648
 1238SOL    HW2 5023   0.685   1.383   2.306  1.0389  0.0884 -1.1618
 1238SOL    HW3 5024   0.595   1.262   2.316  0.7875  0.4495  1.1613
 1238SOL    MW4 5025   0.662   1.303   2.279  0.1688  0.0798 -0.4156
 1239SOL     OW 5026   0.674   1.560   2.348 -1.0230  0.6415  0.2278
 1239SOL    HW2 5027   0.681   1.550   2.443  0.9889  0.8002  0.1107
 1239SOL    HW3 5028   0.750   1.612   2.323  0.9290 -3.0337 -1.9800
 1239SOL    MW4 5029   0.685   1.565   2.357 -0.5000  0.1776 -0.0792
 1240SOL     OW 5030   0.417   1.698   2.263  0.4671 -0.1470 -0.7078
 1240SOL    HW2 5031   0.493   1.651   2.299  0.8772  2.0661  1.4215
 1240SOL    HW3 5032   0.342   1.644   2.287  1.1153 -0.9286 -0.4040
 1240SOL    MW4 5033   0.417   1.685   2.271  0.6067  0.0420 -0.3867
 1241SOL     OW 5034   0.426   1.971   2.348 -0.2762  0.3029  0.3257
 1241SOL    HW2 5035   0.503   2.005   2.301 -0.1182  1.4122  1.3704
 1241SOL    HW3 5036   0.423   1.878   2.323  1.8612  0.0451  0.8405
 1241SOL    MW4 5037   0.436   1.963   2.339  0.0266  0.4151  0.5314
 1242SOL     OW 5038   0.660   2.035   2.226  0.2050  0.0617 -0.2857
 1242SOL    HW2 5039   0.731   1.991   2.271 -0.3457  0.2950  0.8159
 1242SOL    HW3 5040   0.671   2.128   2.248 -0.2782  0.1317 -0.3369
 1242SOL    MW4 5041   0.671   2.041   2.235  0.0685  0.1016 -0.1471
 1243SOL     OW 5042   0.675   2.317   2.321  0.0373 -0.2078  0.0059
 1243SOL    HW2 5043   0.666   2.303   2.415  0.0561  0.2207  0.0714
 1243SOL    HW3 5044   0.763   2.355   2.311 -0.3255  0.6142 -0.0908
 1243SOL    MW4 5045   0.686   2.320   2.332 -0.0081 -0.0427  0.0019
 1244SOL     OW 5046   0.451   2.492   2.257 -0.2423  0.2571  0.7929
 1244SOL    HW2 5047   0.520   2.432   2.284 -0.4661  0.0132  0.8127
 1244SOL    HW3 5048   0.370   2.453   2.288 -0.7352 -1.1755 -2.1333
 1244SOL    MW4 5049   0.450   2.479   2.264 -0.3369  0.0360  0.4094
 1245SOL     OW 5050   0.474   2.758   2.335  0.2669 -0.0620  0.3654
 1245SOL    HW2 5051   0.448   2.745   2.426  0.0273  0.7083  0.4097
 1245SOL    HW3 5052   0.467   2.671   2.295 -1.3018 -0.0792  0.6474
 1245SOL    MW4 5053   0.470   2.744   2.342  0.0283  0.0372  0.4084
 1246SOL     OW 5054   0.715   2.841   2.234  0.2651  0.0042  0.2391
 1246SOL    HW2 5055   0.772   2.778   2.278  0.4539 -1.3551 -1.9078
 1246SOL    HW3 5056   0.628   2.826   2.271  0.5602 -0.6212  0.6784
 1246SOL    MW4 5057   0.711   2.831   2.244  0.3290 -0.2577  0.0136
 1247SOL     OW 5058   0.687   3.100   2.349 -0.3347  0.3447 -0.2782
 1247SOL    HW2 5059   0.608   3.131   2.305  1.2399  1.3430 -2.5328
 1247SOL    HW3 5060   0.704   3.014   2.312 -0.9641 -0.3411  1.0124
 1247SOL    MW4 5061   0.679   3.093   2.338 -0.2099  0.3862 -0.4053
 1248SOL     OW 5062   0.477   3.205   2.229 -0.1971 -0.0800 -0.2269
 1248SOL    HW2 5063   0.398   3.169   2.268 -0.1664 -0.0889 -0.1732
 1248SOL    HW3 5064   0.458   3.209   2.135 -0.5055  0.5237 -0.1435
 1248SOL    MW4 5065   0.464   3.201   2.222 -0.2338 -0.0017 -0.2089
 1249SOL     OW 5066   0.451   3.452   2.362 -0.5653  0.1706 -0.1435
 1249SOL    HW2 5067   0.527   3.497   2.327 -0.6386  0.2621 -0.1852
 1249SOL    HW3 5068   0.459   3.362   2.329  0.0158 -0.0618  0.6192
 1249SOL    MW4 5069   0.462   3.446   2.353 -0.4983  0.1521 -0.0482
 1250SOL     OW 5070   0.655   3.610   2.262 -0.0832 -0.2216  0.2165
 1250SOL    HW2 5071   0.650   3.700   2.296  0.0595  0.6638 -1.9913
 1250SOL    HW3 5072   0.658   3.621   2.167  0.4861 -2.5582 -0.0647
 1250SOL    MW4 5073   0.655   3.624   2.254  0.0108 -0.4129 -0.1121
 1251SOL     OW 5074   0.662   3.870   2.355 -0.0441 -0.1150  0.0615
 1251SOL    HW2 5075   0.661   3.872   2.451  0.4698  0.7010  0.0479
 1251SOL    HW3 5076   0.585   3.921   2.329  0.5596  0.7841  0.0249
 1251SOL    MW4 5077   0.651   3.877   2.364  0.1034  0.1116  0.0548
 1252SOL     OW 5078   0.442   4.011   2.250  0.7068  0.0014 -0.1156
 1252SOL    HW2 5079   0.366   3.960   2.277  1.0698 -0.5719 -0.1676
 1252SOL    HW3 5080   0.441   4.007   2.155 -0.3996  1.7708 -0.2125
 1252SOL    MW4 5081   0.432   4.004   2.241  0.6087  0.1588 -0.1352
 1253SOL     OW 5082   0.450   4.267   2.340 -0.0190 -0.4296 -0.5174
 1253SOL    HW2 5083   0.537   4.293   2.311  0.3580 -0.5592  0.4676
 1253SOL    HW3 5084   0.437   4.180   2.304  0.2701 -0.4206 -0.6410
 1253SOL    MW4 5085   0.460   4.259   2.332  0.0689 -0.4454 -0.4034
 1254SOL     OW 5086   0.691   4.382   2.240  0.1460  0.0138  0.2080
 1254SOL    HW2 5087   0.687   4.473   2.271 -0.9107  0.1082 -0.1908
 1254SOL    HW3 5088   0.691   4.390   2.144 -1.9185 -0.4748  0.1493
 1254SOL    MW4 5089   0.690   4.395   2.231 -0.2658 -0.0381  0.1478
 1255SOL     OW 5090   1.092   4.605   2.348  0.1140  0.5286  0.0997
 1255SOL    HW2 5091   1.091   4.604   2.443  0.1924  1.3946  0.1099
 1255SOL    HW3 5092   1.023   4.666   2.323  0.8801  1.2277 -0.3699
 1255SOL    MW4 5093   1.083   4.613   2.357  0.2254  0.7348  0.0391
 1256SOL     OW 5094   0.907   0.130   2.275 -0.3675 -0.0156 -0.4504
 1256SOL    HW2 5095   0.910   0.221   2.304 -0.0304 -0.4306  0.8698
 1256SOL    HW3 5096   0.891   0.135   2.181 -1.3361  1.3851 -0.2316
 1256SOL    MW4 5097   0.905   0.142   2.267 -0.4509  0.1144 -0.2470
 1257SOL     OW 5098   0.858   0.397   2.375  0.2613  0.1853 -0.2555
 1257SOL    HW2 5099   0.936   0.444   2.345  0.9682 -0.4367  0.6060
 1257SOL    HW3 5100   0.787   0.434   2.321  0.7238  2.5083  0.6428
 1257SOL    MW4 5101   0.859   0.408   2.364  0.4156  0.4097 -0.0229
 1258SOL     OW 5102   1.121   0.474   2.275 -0.4739 -0.4316  0.3482
 1258SOL    HW2 5103   1.204   0.432   2.296 -0.0817  0.3366  0.3572
 1258SOL    HW3 5104   1.122   0.486   2.180  0.2121  1.1990  0.5527
 1258SOL    MW4 5105   1.132   0.470   2.266 -0.3316 -0.1151  0.3765
 1259SOL     OW 5106   1.110   0.741   2.360  0.0132 -0.1047 -0.0687
 1259SOL    HW2 5107   1.034   0.784   2.321 -1.3427 -0.3475  2.2804
 1259SOL    HW3 5108   1.107   0.651   2.327 -0.3646  0.0511 -0.4620
 1259SOL    MW4 5109   1.100   0.735   2.350 -0.2155 -0.1162  0.1893
 1260SOL     OW 5110   0.904   0.887   2.275  0.0700 -0.0751  0.4958
 1260SOL    HW2 5111   0.908   0.979   2.305  0.0673 -1.0029  3.5785
 1260SOL    HW3 5112   0.827   0.851   2.319 -0.7736 -1.2097 -1.8449
 1260SOL    MW4 5113   0.894   0.895   2.285 -0.0415 -0.3471  0.5937
 1261SOL     OW 5114   0.887   1.146   2.388 -0.1215 -0.2185 -0.3456
 1261SOL    HW2 5115   0.965   1.181   2.345 -0.0793 -0.0453 -0.1266
 1261SOL    HW3 5116   0.814   1.193   2.348 -0.2154 -1.2765 -1.4638
 1261SOL    MW4 5117   0.887   1.157   2.377 -0.1283 -0.3352 -0.4642
 1262SOL     OW 5118   1.093   1.248   2.255 -0.1093  0.0348  0.2915
 1262SOL    HW2 5119   1.181   1.226   2.285 -0.0413  0.2968  0.2837
 1262SOL    HW3 5120   1.105   1.279   2.165  0.0735  2.1842  1.0198
 1262SOL    MW4 5121   1.106   1.249   2.247 -0.0763  0.3530  0.3865
 1263SOL     OW 5122   1.102   1.521   2.403  1.2202  0.2789  0.1865
 1263SOL    HW2 5123   1.046   1.586   2.359  1.8742  0.1754 -0.8140
 1263SOL    HW3 5124   1.099   1.444   2.346 -0.0943 -0.8339  1.7166
 1263SOL    MW4 5125   1.094   1.520   2.390  1.1331  0.1183  0.2568
 1264SOL     OW 5126   0.917   1.671   2.262 -0.1139  0.1551  0.1515
 1264SOL    HW2 5127   0.901   1.761   2.292  0.5666 -0.1945  1.5701
 1264SOL    HW3 5128   0.908   1.676   2.167  1.1607  1.9765  0.1107
 1264SOL    MW4 5129   0.913   1.683   2.254  0.1441  0.3494  0.3333
 1265SOL     OW 5130   0.874   1.933   2.360 -0.3796 -0.2925  0.2660
 1265SOL    HW2 5131   0.867   1.949   2.454 -0.4839 -0.6467  0.3191
 1265SOL    HW3 5132   0.945   1.991   2.331 -0.0816 -0.4726  0.6316
 1265SOL    MW4 5133   0.883   1.943   2.369 -0.3540 -0.3630  0.3209
 1266SOL     OW 5134   1.112   2.037   2.269 -0.2097 -0.0495 -0.2629
 1266SOL    HW2 5135   1.182   1.973   2.277 -0.5741 -0.5142 -0.7263
 1266SOL    HW3 5136   1.109   2.057   2.175 -0.3838  0.3170 -0.1801
 1266SOL    MW4 5137   1.121   2.031   2.257 -0.2809 -0.0625 -0.3133
 1267SOL     OW 5138   1.190   2.295   2.374 -0.0131  0.5230  0.3434
 1267SOL    HW2 5139   1.240   2.337   2.305 -0.7417  0.3110 -0.3186
 1267SOL    HW3 5140   1.174   2.206   2.341  0.2983  0.1649  1.1196
 1267SOL    MW4 5141   1.195   2.289   2.361 -0.0679  0.4480  0.3586
 1268SOL     OW 5142   0.934   2.424   2.274 -0.0325  0.2875  0.2885
 1268SOL    HW2 5143   1.021   2.389   2.292  0.4669  1.1150 -0.4424
 1268SOL    HW3 5144   0.929   2.428   2.178 -0.2575  1.7107  0.3447
 1268SOL    MW4 5145   0.945   2.420   2.263  0.0036  0.5844  0.1993
 1269SOL     OW 5146   0.901   2.696   2.360 -0.5399 -0.1881 -0.0818
 1269SOL    HW2 5147   0.894   2.697   2.455  1.6930  0.2649  0.1010
 1269SOL    HW3 5148   0.916   2.604   2.338  0.2980 -0.1042  0.1238
 1269SOL    MW4 5149   0.902   2.684   2.369 -0.1347 -0.1173 -0.0308
 1270SOL     OW 5150   1.095   2.848   2.212 -0.1775  0.1162  0.5078
 1270SOL    HW2 5151   1.170   2.812   2.259 -0.5301 -1.1155  0.1463
 1270SOL    HW3 5152   1.019   2.814   2.259 -0.5164  0.5009  0.2373
 1270SOL    MW4 5153   1.095   2.838   2.225 -0.2687  0.0045  0.4244
 1271SOL     OW 5154   1.094   3.101   2.347 -0.0431 -0.8076  0.3424
 1271SOL    HW2 5155   1.028   3.151   2.300 -0.3476  0.1148  1.7304
 1271SOL    HW3 5156   1.098   3.017   2.301 -0.2213  0.1228 -1.4089
 1271SOL    MW4 5157   1.086   3.097   2.335 -0.1068 -0.5631  0.2944
 1272SOL     OW 5158   0.888   3.247   2.238 -0.3103 -0.0655  0.0109
 1272SOL    HW2 5159   0.900   3.334   2.275  0.1416  0.9133 -2.3516
 1272SOL    HW3 5160   0.812   3.211   2.284  0.2110  1.1077  1.8118
 1272SOL    MW4 5161   0.879   3.254   2.249 -0.1820  0.2182 -0.0634
 1273SOL     OW 5162   0.926   3.500   2.336  0.1163 -0.0152 -0.5872
 1273SOL    HW2 5163   0.929   3.495   2.432 -0.1114 -0.9931 -0.6235
 1273SOL    HW3 5164   0.840   3.536   2.316 -0.3028 -0.9118 -0.4490
 1273SOL    MW4 5165   0.915   3.504   2.346  0.0310 -0.2625 -0.5736
 1274SOL     OW 5166   1.135   3.631   2.264  0.8100 -0.7494 -0.0023
 1274SOL    HW2 5167   1.210   3.578   2.292 -0.1533 -2.0644  0.1145
 1274SOL    HW3 5168   1.059   3.584   2.296 -0.0467  1.1018  0.7335
 1274SOL    MW4 5169   1.135   3.618   2.272  0.5698 -0.6785  0.1101
 1275SOL     OW 5170   1.115   3.900   2.338 -0.3748 -0.6541  0.2205
 1275SOL    HW2 5171   1.193   3.939   2.299  0.8627 -1.2816  1.9631
 1275SOL    HW3 5172   1.122   3.807   2.317 -2.0949 -0.3355 -1.9275
 1275SOL    MW4 5173   1.126   3.893   2.330 -0.4383 -0.6952  0.1671
 1276SOL     OW 5174   0.874   3.974   2.202 -0.7036  0.3751  0.0319
 1276SOL    HW2 5175   0.945   3.943   2.258 -1.2351 -1.3079 -0.2090
 1276SOL    HW3 5176   0.794   3.940   2.242 -1.2097  0.4295 -0.9045
 1276SOL    MW4 5177   0.873   3.966   2.215 -0.8404  0.1600 -0.1233
 1277SOL     OW 5178   0.878   4.223   2.357  0.1376 -0.5549  0.1443
 1277SOL    HW2 5179   0.852   4.137   2.323  1.5250 -0.5740 -0.9124
 1277SOL    HW3 5180   0.811   4.283   2.324 -0.6428 -1.1607  0.5912
 1277SOL    MW4 5181   0.865   4.219   2.348  0.2177 -0.6371  0.0634
 1278SOL     OW 5182   1.119   4.352   2.252  0.0011 -0.0976 -0.3046
 1278SOL    HW2 5183   1.041   4.305   2.282  0.5044 -0.5840  0.2680
 1278SOL    HW3 5184   1.107   4.442   2.282 -0.1414 -0.2717  0.1623
 1278SOL    MW4 5185   1.107   4.357   2.260  0.0488 -0.1850 -0.1674
 1279SOL     OW 5186   1.572   0.003   2.367 -0.2547 -0.1572 -0.0384
 1279SOL    HW2 5187   1.646   0.041   2.318 -0.0647 -0.2769  0.1538
 1279SOL    HW3 5188   1.495   0.026   2.315 -0.2506  1.3580  0.5907
 1279SOL    MW4 5189   1.572   0.011   2.354 -0.2290  0.0269  0.0701
 1280SOL     OW 5190   1.325   0.068   2.234 -0.0346 -0.0769  0.1114
 1280SOL    HW2 5191   1.324   0.155   2.274 -0.2494 -1.0554  2.2963
 1280SOL    HW3 5192   1.239   0.031   2.255 -0.4560 -0.3418 -1.9406
 1280SOL    MW4 5193   1.314   0.075   2.242 -0.1186 -0.2410  0.1287
 1281SOL     OW 5194   1.341   0.330   2.353  0.3590 -0.3084  0.2487
 1281SOL    HW2 5195   1.343   0.341   2.448 -0.5389  0.8982  0.1382
 1281SOL    HW3 5196   1.399   0.398   2.320  0.0051 -0.1826 -0.1134
 1281SOL    MW4 5197   1.349   0.340   2.362  0.1938 -0.1326  0.1867
 1282SOL     OW 5198   1.560   0.488   2.271 -0.4108  0.0147 -0.1456
 1282SOL    HW2 5199   1.635   0.433   2.294  0.8587  1.8186  0.1706
 1282SOL    HW3 5200   1.557   0.485   2.175  0.7320  0.7538 -0.2153
 1282SOL    MW4 5201   1.570   0.480   2.261 -0.0925  0.3502 -0.1130
 1283SOL     OW 5202   1.559   0.732   2.389 -0.0114 -0.2238 -0.3179
 1283SOL    HW2 5203   1.640   0.768   2.352  0.6485 -0.6473  0.6880
 1283SOL    HW3 5204   1.561   0.640   2.364 -0.2784 -0.1917 -0.4552
 1283SOL    MW4 5205   1.570   0.725   2.381  0.0405 -0.2754 -0.2031
 1284SOL     OW 5206   1.352   0.866   2.288 -0.0155  0.4534  0.1958
 1284SOL    HW2 5207   1.425   0.816   2.325  0.2325  0.8799  0.2787
 1284SOL    HW3 5208   1.275   0.815   2.310  0.3826 -0.8415 -1.2678
 1284SOL    MW4 5209   1.352   0.853   2.296  0.0697  0.3389  0.0134
 1285SOL     OW 5210   1.334   1.131   2.383  0.3292  1.1214  0.1289
 1285SOL    HW2 5211   1.322   1.135   2.478 -0.0458  0.2069  0.1292
 1285SOL    HW3 5212   1.337   1.037   2.364  0.4886  1.3039 -0.7551
 1285SOL    MW4 5213   1.333   1.119   2.393  0.3008  1.0248  0.0122
 1286SOL     OW 5214   1.569   1.262   2.279 -0.5003 -0.4060 -0.1605
 1286SOL    HW2 5215   1.493   1.216   2.317  0.2045 -1.1766  0.3372
 1286SOL    HW3 5216   1.560   1.248   2.185 -0.8469 -0.7114 -0.0849
 1286SOL    MW4 5217   1.558   1.254   2.272 -0.4531 -0.5480 -0.0849
 1287SOL     OW 5218   1.560   1.536   2.388  0.3564 -0.5195 -0.0145
 1287SOL    HW2 5219   1.637   1.558   2.335  0.5940 -2.4976 -0.5101
 1287SOL    HW3 5220   1.556   1.441   2.386 -1.9317 -0.4476  0.2795
 1287SOL    MW4 5221   1.570   1.526   2.380  0.0858 -0.7710 -0.0410
 1288SOL     OW 5222   1.316   1.618   2.289  0.8977 -0.0232  0.1374
 1288SOL    HW2 5223   1.392   1.572   2.325 -0.3645 -1.7001  0.7218
 1288SOL    HW3 5224   1.241   1.584   2.339 -0.2862  1.3606 -0.6417
 1288SOL    MW4 5225   1.316   1.608   2.300  0.5748 -0.0620  0.1118
 1289SOL     OW 5226   1.327   1.897   2.336 -0.2222  0.1786  0.2453
 1289SOL    HW2 5227   1.404   1.948   2.311 -0.6159  0.8101  0.3052
 1289SOL    HW3 5228   1.342   1.811   2.297  0.6690  0.1892  0.5295
 1289SOL    MW4 5229   1.339   1.893   2.328 -0.1566  0.2633  0.2909
 1290SOL     OW 5230   1.546   2.079   2.244  0.4728  0.3177 -0.4316
 1290SOL    HW2 5231   1.610   2.031   2.296 -0.5017 -1.7357 -1.0788
 1290SOL    HW3 5232   1.567   2.056   2.153 -0.8765  0.0021 -0.6683
 1290SOL    MW4 5233   1.557   2.070   2.239  0.1663  0.0052 -0.5481
 1291SOL     OW 5234   1.590   2.342   2.317  0.4419  0.1480 -0.1124
 1291SOL    HW2 5235   1.578   2.341   2.412 -2.1536  2.1224 -0.3710
 1291SOL    HW3 5236   1.579   2.251   2.290  1.1054 -0.4079  1.4370
 1291SOL    MW4 5237   1.587   2.330   2.326  0.1872  0.3352  0.0577
 1292SOL     OW 5238   1.344   2.465   2.212  0.0847 -0.2453 -0.1919
 1292SOL    HW2 5239   1.433   2.445   2.242  0.2278  1.3992  0.5244
 1292SOL    HW3 5240   1.346   2.446   2.118  1.5620  0.9699 -0.4242
 1292SOL    MW4 5241   1.356   2.460   2.204  0.2985  0.1318 -0.1283
 1293SOL     OW 5242   1.297   2.710   2.345  0.1381 -0.6932  0.0835
 1293SOL    HW2 5243   1.375   2.757   2.316 -1.1992  1.3629 -0.2393
 1293SOL    HW3 5244   1.302   2.626   2.300  1.4150 -0.0316 -1.0563
 1293SOL    MW4 5245   1.308   2.705   2.335  0.1303 -0.3345 -0.1097
 1294SOL     OW 5246   1.538   2.842   2.233 -0.1380 -0.3755  0.0632
 1294SOL    HW2 5247   1.545   2.929   2.271  0.1222 -1.2453  2.1006
 1294SOL    HW3 5248   1.562   2.853   2.141  1.6739  1.3886  0.7167
 1294SOL    MW4 5249   1.542   2.855   2.226  0.1353 -0.2575  0.4177
 1295SOL     OW 5250   1.569   3.106   2.327  0.3657 -0.1508  0.2679
 1295SOL    HW2 5251   1.576   3.120   2.421  1.0978  2.4830 -0.1381
 1295SOL    HW3 5252   1.481   3.138   2.304  0.5501  0.1198 -0.0720
 1295SOL    MW4 5253   1.558   3.112   2.336  0.4866  0.2322  0.1695
 1296SOL     OW 5254   1.326   3.207   2.230  0.6696  0.0717 -0.3724
 1296SOL    HW2 5255   1.239   3.185   2.265  0.5662  0.8386 -0.1581
 1296SOL    HW3 5256   1.315   3.202   2.135 -0.4129  3.1864 -0.4545
 1296SOL    MW4 5257   1.313   3.203   2.222  0.5130  0.5839 -0.3550
 1297SOL     OW 5258   1.358   3.478   2.313 -0.3839  0.1657 -0.3686
 1297SOL    HW2 5259   1.357   3.473   2.409 -0.2663 -0.1792 -0.3823
 1297SOL    HW3 5260   1.357   3.386   2.285  0.2905  0.2579 -0.6919
 1297SOL    MW4 5261   1.358   3.465   2.322 -0.2793  0.1323 -0.4129
 1298SOL     OW 5262   1.597   3.614   2.218 -0.1327 -0.1285  0.3669
 1298SOL    HW2 5263   1.585   3.704   2.249  2.5449  0.1564  0.6382
 1298SOL    HW3 5264   1.532   3.563   2.268 -0.8568  1.4461  1.0824
 1298SOL    MW4 5265   1.587   3.619   2.229  0.1251  0.1166  0.4971
 1299SOL     OW 5266   1.575   3.876   2.325 -0.2807  0.1662 -0.0342
 1299SOL    HW2 5267   1.582   3.879   2.421  0.4644  0.0474 -0.0780
 1299SOL    HW3 5268   1.641   3.938   2.295 -0.6390  0.3347 -0.4695
 1299SOL    MW4 5269   1.585   3.885   2.334 -0.2295  0.1726 -0.0975
 1300SOL     OW 5270   1.348   4.011   2.206 -0.5338  0.3534 -0.3997
 1300SOL    HW2 5271   1.418   3.951   2.231  0.1584  1.2379 -0.2018
 1300SOL    HW3 5272   1.338   3.999   2.111 -0.0500  0.3071 -0.4419
 1300SOL    MW4 5273   1.356   4.002   2.197 -0.3784  0.4635 -0.3791
 1301SOL     OW 5274   1.358   4.242   2.343 -0.2787  0.0813 -0.3757
 1301SOL    HW2 5275   1.376   4.159   2.300 -0.2124  0.6333 -1.4289
 1301SOL    HW3 5276   1.277   4.273   2.302 -0.2450  0.5840 -0.0661
 1301SOL    MW4 5277   1.350   4.235   2.332 -0.2656  0.2208 -0.4737
 1302SOL     OW 5278   1.554   4.430   2.256  0.5662 -0.4866  0.2714
 1302SOL    HW2 5279   1.487   4.377   2.299  2.0424 -1.6895  1.1892
 1302SOL    HW3 5280   1.551   4.514   2.301 -0.8694 -0.2630 -0.2455
 1302SOL    MW4 5281   1.545   4.434   2.268  0.5716 -0.6161  0.3245
 1303SOL     OW 5282   2.029   0.011   2.369  0.0242  0.0776 -0.1035
 1303SOL    HW2 5283   2.114   0.053   2.355 -0.5242  0.7956 -1.3460
 1303SOL    HW3 5284   2.039  -0.077   2.334  0.3854  0.0215  0.1400
 1303SOL    MW4 5285   2.041   0.005   2.363 -0.0005  0.1650 -0.2351
 1304SOL     OW 5286   1.806   0.105   2.242 -0.0744  0.4412 -0.2956
 1304SOL    HW2 5287   1.812   0.185   2.294 -1.2150 -0.4804  1.2735
 1304SOL    HW3 5288   1.876   0.049   2.275 -0.1794  0.2383 -0.4170
 1304SOL    MW4 5289   1.816   0.108   2.253 -0.2388  0.2928 -0.1047
 1305SOL     OW 5290   1.810   0.327   2.398 -0.0794 -0.0899  0.5004
 1305SOL    HW2 5291   1.804   0.340   2.492  1.1436  1.3996  0.3769
 1305SOL    HW3 5292   1.872   0.393   2.368  0.2522 -1.1473 -1.2248
 1305SOL    MW4 5293   1.817   0.337   2.406  0.1256 -0.0329  0.2563
 1306SOL     OW 5294   1.978   0.506   2.284  0.1970 -0.3708 -0.4308
 1306SOL    HW2 5295   1.990   0.597   2.309  1.1338 -0.8240  0.8062
 1306SOL    HW3 5296   1.994   0.504   2.190  0.7617  0.6335 -0.3550
 1306SOL    MW4 5297   1.981   0.518   2.275  0.3949 -0.2980 -0.2575
 1307SOL     OW 5298   2.000   0.774   2.358  0.2370  0.2571  0.5296
 1307SOL    HW2 5299   2.072   0.819   2.313  0.5196  0.6210  1.3260
 1307SOL    HW3 5300   1.921   0.814   2.323  0.4334  0.0660 -0.1370
 1307SOL    MW4 5301   1.999   0.785   2.347  0.3003  0.2799  0.5469
 1308SOL     OW 5302   1.768   0.888   2.265  0.1879  0.4197 -0.1680
 1308SOL    HW2 5303   1.806   0.970   2.298  1.9725 -0.2424 -0.5344
 1308SOL    HW3 5304   1.791   0.886   2.172  1.2437 -1.0911  0.1125
 1308SOL    MW4 5305   1.776   0.899   2.257  0.5627  0.1330 -0.1795
 1309SOL     OW 5306   1.791   1.161   2.372 -0.2475  0.2051  0.0461
 1309SOL    HW2 5307   1.861   1.217   2.337 -1.5126  1.6289 -0.2672
 1309SOL    HW3 5308   1.711   1.195   2.331 -1.2300 -0.8597  1.0546
 1309SOL    MW4 5309   1.790   1.173   2.362 -0.5441  0.2524  0.1378
 1310SOL     OW 5310   2.016   1.301   2.271  0.0853  0.0969 -0.0740
 1310SOL    HW2 5311   2.013   1.392   2.300  0.1405 -0.0236  0.3194
 1310SOL    HW3 5312   2.017   1.305   2.176  1.0633  0.5301 -0.0474
 1310SOL    MW4 5313   2.016   1.313   2.262  0.2217  0.1382 -0.0184
 1311SOL     OW 5314   2.033   1.555   2.342  0.0305  0.2086  0.1218
 1311SOL    HW2 5315   2.037   1.537   2.436  1.6227  1.1299  0.2521
 1311SOL    HW3 5316   1.950   1.602   2.330  0.9908  2.3651  1.5241
 1311SOL    MW4 5317   2.023   1.559   2.353  0.3674  0.6146  0.3240
 1312SOL     OW 5318   1.780   1.658   2.271  0.1902 -0.2283 -0.2985
 1312SOL    HW2 5319   1.739   1.740   2.297  0.5727 -0.3774  0.8042
 1312SOL    HW3 5320   1.793   1.666   2.177  1.2224  1.4259 -0.0204
 1312SOL    MW4 5321   1.776   1.670   2.262  0.3767 -0.0298 -0.1163
 1313SOL     OW 5322   1.745   1.922   2.343  0.2707  0.1869 -0.3015
 1313SOL    HW2 5323   1.755   1.919   2.438 -0.4120 -2.2791 -0.2735
 1313SOL    HW3 5324   1.819   1.975   2.313 -0.6036  2.6508  1.7287
 1313SOL    MW4 5325   1.756   1.928   2.352  0.0653  0.1867 -0.0303
 1314SOL     OW 5326   1.968   2.066   2.242 -0.4406  0.1897  0.1495
 1314SOL    HW2 5327   2.050   2.033   2.278  0.2942  3.2240  1.4404
 1314SOL    HW3 5328   1.987   2.082   2.149  1.3036  3.3200  0.9794
 1314SOL    MW4 5329   1.981   2.064   2.234 -0.1136  1.0030  0.4294
 1315SOL     OW 5330   2.011   2.318   2.360 -0.0156  0.2275 -0.3413
 1315SOL    HW2 5331   2.082   2.349   2.304 -1.1719 -0.9326 -2.5202
 1315SOL    HW3 5332   1.988   2.233   2.324 -2.5729  0.6281  0.2889
 1315SOL    MW4 5333   2.018   2.311   2.348 -0.5057  0.1271 -0.5457
 1316SOL     OW 5334   1.808   2.452   2.215  0.2082  0.0510  0.5218
 1316SOL    HW2 5335   1.885   2.423   2.265  1.7938 -1.1624 -2.5201
 1316SOL    HW3 5336   1.735   2.404   2.255  1.2345 -0.0012  2.4166
 1316SOL    MW4 5337   1.809   2.442   2.227  0.5529 -0.1161  0.3705
 1317SOL     OW 5338   1.756   2.696   2.335 -0.7099  0.4502  0.3833
 1317SOL    HW2 5339   1.760   2.610   2.295 -1.3814  0.0615  1.1360
 1317SOL    HW3 5340   1.677   2.736   2.299  0.2643  1.2577 -0.9323
 1317SOL    MW4 5341   1.746   2.690   2.325 -0.6698  0.5052  0.3092
 1318SOL     OW 5342   1.964   2.814   2.225  0.0540 -0.2009  0.4694
 1318SOL    HW2 5343   2.042   2.768   2.257 -0.7168 -0.8511  1.4143
 1318SOL    HW3 5344   1.890   2.766   2.262 -0.7816  1.1788  0.6254
 1318SOL    MW4 5345   1.965   2.802   2.234 -0.1580 -0.1047  0.6149
 1319SOL     OW 5346   1.976   3.074   2.341 -0.0148 -0.4640  0.1860
 1319SOL    HW2 5347   2.054   3.122   2.313 -0.3407 -1.0041 -1.7102
 1319SOL    HW3 5348   1.973   2.998   2.284 -2.4414  0.0235 -0.3923
 1319SOL    MW4 5349   1.986   3.071   2.330 -0.3780 -0.4709 -0.1409
 1320SOL     OW 5350   1.795   3.243   2.232  0.5965 -0.2018 -0.0446
 1320SOL    HW2 5351   1.860   3.187   2.275  1.7269  1.8831  1.0518
 1320SOL    HW3 5352   1.711   3.210   2.264  1.2155 -1.3922  0.4140
 1320SOL    MW4 5353   1.793   3.231   2.242  0.8273 -0.0839  0.1607
 1321SOL     OW 5354   1.787   3.522   2.373  0.1597 -0.3227 -0.7986
 1321SOL    HW2 5355   1.788   3.429   2.350 -2.0721 -0.4934 -0.3015
 1321SOL    HW3 5356   1.722   3.561   2.315  0.6185  0.8065 -0.5705
 1321SOL    MW4 5357   1.779   3.515   2.363 -0.0741 -0.1962 -0.7029
 1322SOL     OW 5358   2.030   3.668   2.301  0.2954  0.0132  0.3033
 1322SOL    HW2 5359   1.946   3.635   2.333 -0.2833  0.7534 -0.4355
 1322SOL    HW3 5360   2.032   3.645   2.209  0.1293  1.5308 -0.0937
 1322SOL    MW4 5361   2.019   3.660   2.293  0.1969  0.3109  0.1535
 1323SOL     OW 5362   1.973   3.926   2.377 -0.6627 -0.1107  0.2190
 1323SOL    HW2 5363   1.992   3.918   2.470 -1.0079  0.8834  0.3763
 1323SOL    HW3 5364   1.983   3.837   2.343  0.4924 -0.2871  1.0033
 1323SOL    MW4 5365   1.977   3.913   2.385 -0.5558 -0.0029  0.3433
 1324SOL     OW 5366   1.769   4.038   2.225  0.5702  0.4523  0.2671
 1324SOL    HW2 5367   1.847   3.990   2.254  0.1639 -0.0963  0.4571
 1324SOL    HW3 5368   1.774   4.036   2.129  0.7916  0.4206  0.2787
 1324SOL    MW4 5369   1.780   4.031   2.216  0.5459  0.3757  0.2937
 1325SOL     OW 5370   1.778   4.287   2.356  0.5897  0.3922 -0.1981
 1325SOL    HW2 5371   1.775   4.195   2.330 -0.1284 -0.0066  1.2290
 1325SOL    HW3 5372   1.699   4.325   2.317  0.1830  0.0892  0.3206
 1325SOL    MW4 5373   1.767   4.280   2.347  0.4413  0.2990  0.0584
 1326SOL     OW 5374   2.023   4.395   2.285 -0.3185 -0.0754 -0.1677
 1326SOL    HW2 5375   1.936   4.363   2.309 -0.0052 -0.8248 -0.0049
 1326SOL    HW3 5376   2.027   4.385   2.190 -0.5197  0.2306 -0.2072
 1326SOL    MW4 5377   2.012   4.389   2.276 -0.3037 -0.1335 -0.1514
 1327SOL     OW 5378   2.464   4.620   2.417  0.1946 -0.1503  0.0367
 1327SOL    HW2 5379   2.546   4.662   2.390  0.4104 -0.6040 -0.0119
 1327SOL    HW3 5380   2.458   4.542   2.362 -2.0460  1.7133 -2.5258
 1327SOL    MW4 5381   2.474   4.615   2.406 -0.0725  0.0358 -0.3080
 1328SOL     OW 5382   2.269   0.147   2.328 -0.3947  0.0490  0.4965
 1328SOL    HW2 5383   2.275   0.243   2.330 -1.0021  0.1780 -1.9417
 1328SOL    HW3 5384   2.329   0.118   2.396  0.5352  2.1504  0.6302
 1328SOL    MW4 5385   2.278   0.156   2.337 -0.3524  0.3433  0.1924
 1329SOL     OW 5386   2.210   0.414   2.405 -0.0883  0.1305  0.1866
 1329SOL    HW2 5387   2.282   0.439   2.347  0.2396 -0.3740  0.3672
 1329SOL    HW3 5388   2.131   0.441   2.359  0.1310 -0.9046 -0.8247
 1329SOL    MW4 5389   2.209   0.421   2.392 -0.0160 -0.0726  0.0768
 1330SOL     OW 5390   2.447   0.491   2.265 -0.1424 -0.1327 -0.5830
 1330SOL    HW2 5391   2.522   0.449   2.306 -0.2660  0.5384  0.3539
 1330SOL    HW3 5392   2.469   0.495   2.172  0.4969 -0.9349 -0.4647
 1330SOL    MW4 5393   2.459   0.486   2.258 -0.0746 -0.1501 -0.4435
 1331SOL     OW 5394   2.428   0.759   2.359 -0.1077  0.2662  0.1606
 1331SOL    HW2 5395   2.503   0.809   2.328 -1.7200  1.7409 -1.4929
 1331SOL    HW3 5396   2.433   0.676   2.312 -0.4513  1.0300 -1.2468
 1331SOL    MW4 5397   2.438   0.755   2.349 -0.3657  0.5616 -0.2432
 1332SOL     OW 5398   2.214   0.904   2.239  0.2773 -0.3388  0.2107
 1332SOL    HW2 5399   2.232   0.995   2.265  0.8947  0.4386 -2.7780
 1332SOL    HW3 5400   2.281   0.853   2.285 -0.1457  0.6741  2.0136
 1332SOL    MW4 5401   2.225   0.909   2.249  0.3030 -0.1026  0.0544
 1333SOL     OW 5402   2.269   1.143   2.375 -0.4391  0.1494  0.3996
 1333SOL    HW2 5403   2.347   1.195   2.356 -0.3262 -0.5546 -1.0900
 1333SOL    HW3 5404   2.196   1.204   2.359 -0.2860  0.0233 -0.8294
 1333SOL    MW4 5405   2.270   1.158   2.370 -0.4044  0.0398  0.0410
 1334SOL     OW 5406   2.441   1.312   2.224 -0.1028  0.2738  0.0919
 1334SOL    HW2 5407   2.526   1.285   2.259 -1.2413 -1.1511  1.8796
 1334SOL    HW3 5408   2.435   1.405   2.246  0.4661  0.0789  1.1061
 1334SOL    MW4 5409   2.451   1.321   2.232 -0.1781  0.0602  0.4616
 1335SOL     OW 5410   2.423   1.568   2.332  0.5663 -0.0656  0.0755
 1335SOL    HW2 5411   2.430   1.550   2.426 -0.2190 -0.5195  0.0559
 1335SOL    HW3 5412   2.505   1.611   2.309 -0.1373  2.0936  1.4346
 1335SOL    MW4 5413   2.435   1.571   2.342  0.3700  0.1594  0.2522
 1336SOL     OW 5414   2.216   1.703   2.176  0.5744 -0.7864 -0.3596
 1336SOL    HW2 5415   2.299   1.680   2.217  0.7538 -0.5917 -0.6102
 1336SOL    HW3 5416   2.151   1.648   2.220  0.5204  0.5920  1.3381
 1336SOL    MW4 5417   2.219   1.693   2.187  0.5908 -0.5789 -0.1683
 1337SOL     OW 5418   2.209   1.942   2.332 -0.4175  0.0384 -0.2743
 1337SOL    HW2 5419   2.291   1.976   2.295 -0.5842 -0.1978 -0.8748
 1337SOL    HW3 5420   2.187   1.868   2.276 -1.2392  0.3300 -0.3408
 1337SOL    MW4 5421   2.217   1.936   2.319 -0.5476  0.0458 -0.3624
 1338SOL     OW 5422   2.451   2.085   2.237 -0.0194 -0.1783  0.4384
 1338SOL    HW2 5423   2.524   2.030   2.267  1.4050  1.1271 -0.5489
 1338SOL    HW3 5424   2.463   2.093   2.143 -2.5361 -1.4638 -0.0235
 1338SOL    MW4 5425   2.463   2.079   2.229 -0.1636 -0.1757  0.2470
 1339SOL     OW 5426   2.446   2.330   2.367  0.4632  0.0816 -0.4321
 1339SOL    HW2 5427   2.518   2.390   2.347  1.2250 -0.5666  0.3387
 1339SOL    HW3 5428   2.458   2.258   2.305  0.7359 -0.2276 -0.0243
 1339SOL    MW4 5429   2.457   2.328   2.356  0.5996 -0.0446 -0.2766
 1340SOL     OW 5430   2.229   2.440   2.218  0.7349  0.2120 -0.3659
 1340SOL    HW2 5431   2.205   2.527   2.251 -1.4217 -0.0438 -1.1623
 1340SOL    HW3 5432   2.302   2.412   2.273 -0.3783  1.3539  1.7210
 1340SOL    MW4 5433   2.235   2.448   2.229  0.3035  0.3290 -0.1955
 1341SOL     OW 5434   2.219   2.711   2.308  0.9316  0.3614  0.2108
 1341SOL    HW2 5435   2.213   2.723   2.403  1.3144  1.1228  0.1466
 1341SOL    HW3 5436   2.296   2.762   2.283  0.8052  0.1998 -0.5152
 1341SOL    MW4 5437   2.229   2.719   2.317  0.9656  0.4404  0.1063
 1342SOL     OW 5438   2.458   2.822   2.230  0.1537  0.4536 -0.1846
 1342SOL    HW2 5439   2.530   2.784   2.280 -0.5335  1.0885  1.3236
 1342SOL    HW3 5440   2.483   2.808   2.139  1.1230 -1.3254  0.3117
 1342SOL    MW4 5441   2.471   2.815   2.225  0.1910  0.3028  0.0799
 1343SOL     OW 5442   2.443   3.118   2.340  0.0471  0.1443 -0.2659
 1343SOL    HW2 5443   2.528   3.158   2.321 -0.5316  0.1590 -3.0628
 1343SOL    HW3 5444   2.453   3.026   2.314 -0.6357  0.0256 -0.1202
 1343SOL    MW4 5445   2.455   3.111   2.334 -0.1190  0.1307 -0.6156
 1344SOL     OW 5446   2.218   3.214   2.232  0.0869  0.3197 -0.5013
 1344SOL    HW2 5447   2.212   3.307   2.252 -0.8937  0.0684  0.4242
 1344SOL    HW3 5448   2.302   3.187   2.269 -0.1021  0.6092  0.1351
 1344SOL    MW4 5449   2.228   3.223   2.239 -0.0675  0.3247 -0.2949
 1345SOL     OW 5450   2.201   3.466   2.351 -0.5743  0.0882  0.4931
 1345SOL    HW2 5451   2.190   3.453   2.445 -0.0469 -0.4587  0.4861
 1345SOL    HW3 5452   2.144   3.540   2.329 -1.5811 -0.5158  1.0404
 1345SOL    MW4 5453   2.192   3.474   2.360 -0.6375 -0.0637  0.5646
 1346SOL     OW 5454   2.436   3.599   2.251 -0.1586  0.0515 -0.3816
 1346SOL    HW2 5455   2.435   3.686   2.291  0.9540 -0.7765  1.5407
 1346SOL    HW3 5456   2.374   3.548   2.303 -1.3061 -0.1468 -1.9171
 1346SOL    MW4 5457   2.428   3.603   2.263 -0.1631 -0.0842 -0.3304
 1347SOL     OW 5458   2.473   3.856   2.348  0.5930 -0.1879 -0.0848
 1347SOL    HW2 5459   2.478   3.828   2.440  1.0280  0.1869  0.0116
 1347SOL    HW3 5460   2.385   3.893   2.339  0.5881 -0.1272  0.2117
 1347SOL    MW4 5461   2.462   3.857   2.359  0.6497 -0.1307 -0.0331
 1348SOL     OW 5462   2.222   3.991   2.254 -0.1403  0.2039  0.3080
 1348SOL    HW2 5463   2.232   4.080   2.288  1.2880 -0.7297  2.4900
 1348SOL    HW3 5464   2.144   3.957   2.297 -0.9029  0.5265 -0.8168
 1348SOL    MW4 5465   2.213   3.998   2.264 -0.0525  0.1235  0.4475
 1349SOL     OW 5466   2.243   4.254   2.364  0.0472 -0.1116 -0.0382
 1349SOL    HW2 5467   2.263   4.263   2.457  1.7174  1.0426 -0.4961
 1349SOL    HW3 5468   2.175   4.319   2.348  0.5722  0.4716  0.1213
 1349SOL    MW4 5469   2.236   4.263   2.374  0.3369  0.1173 -0.0777
 1350SOL     OW 5470   2.477   4.376   2.266 -0.1253 -0.3337 -0.3045
 1350SOL    HW2 5471   2.551   4.344   2.316  0.6971 -1.3569 -2.1120
 1350SOL    HW3 5472   2.400   4.339   2.309  0.3712  0.8425  1.6674
 1350SOL    MW4 5473   2.477   4.367   2.278  0.0486 -0.3138 -0.2828
 1351SOL     OW 5474   2.947   0.002   2.397 -0.0483  0.1851  0.5464
 1351SOL    HW2 5475   3.018   0.040   2.346 -0.3355  0.1107  0.0831
 1351SOL    HW3 5476   2.941  -0.089   2.367 -0.2795  0.1663  0.6411
 1351SOL    MW4 5477   2.955  -0.005   2.386 -0.1166  0.1726  0.4976
 1352SOL     OW 5478   2.701   0.080   2.327  0.3432 -0.4102  0.2583
 1352SOL    HW2 5479   2.696   0.175   2.335  0.6181 -0.4569  1.0201
 1352SOL    HW3 5480   2.788   0.057   2.360  0.3627 -0.9093 -0.1235
 1352SOL    MW4 5481   2.712   0.089   2.332  0.3817 -0.4822  0.3085
 1353SOL     OW 5482   2.683   0.349   2.326 -0.0687 -0.4140 -1.1037
 1353SOL    HW2 5483   2.675   0.329   2.419 -1.2270  1.1033 -0.8623
 1353SOL    HW3 5484   2.774   0.373   2.315  0.0593 -0.5270 -0.3511
 1353SOL    MW4 5485   2.694   0.349   2.337 -0.2048 -0.2287 -0.9723
 1354SOL     OW 5486   2.918   0.466   2.284 -0.0426  0.0640 -0.4870
 1354SOL    HW2 5487   2.898   0.557   2.308  1.0139  0.4824 -1.1799
 1354SOL    HW3 5488   2.922   0.467   2.188  0.5302 -0.6061 -0.4691
 1354SOL    MW4 5489   2.916   0.478   2.274  0.1721  0.0308 -0.5760
 1355SOL     OW 5490   2.875   0.751   2.350 -0.0561  0.2606 -0.5197
 1355SOL    HW2 5491   2.906   0.760   2.440 -0.0179 -0.8001 -0.4278
 1355SOL    HW3 5492   2.793   0.800   2.347 -0.1085  0.2051  0.1168
 1355SOL    MW4 5493   2.868   0.759   2.361 -0.0582  0.1133 -0.4232
 1356SOL     OW 5494   2.647   0.914   2.294 -0.1693 -0.0750  0.4373
 1356SOL    HW2 5495   2.651   1.009   2.306 -0.5072  0.2490 -1.7218
 1356SOL    HW3 5496   2.661   0.901   2.200 -0.3195 -2.1520  0.6720
 1356SOL    MW4 5497   2.649   0.925   2.283 -0.2337 -0.3063  0.1831
 1357SOL     OW 5498   2.663   1.189   2.331  0.3006 -0.2708  0.1672
 1357SOL    HW2 5499   2.664   1.182   2.426  0.7584  1.5092  0.3093
 1357SOL    HW3 5500   2.752   1.218   2.308 -0.0172  0.0008 -0.7420
 1357SOL    MW4 5501   2.675   1.192   2.340  0.3190 -0.0002  0.0658
 1358SOL     OW 5502   2.912   1.290   2.250  0.0294 -0.0101 -0.2132
 1358SOL    HW2 5503   2.971   1.248   2.313  0.4576  1.7248  0.5509
 1358SOL    HW3 5504   2.943   1.260   2.164  0.6088 -0.8927  0.2961
 1358SOL    MW4 5505   2.924   1.280   2.247  0.1624  0.1024 -0.0453
 1359SOL     OW 5506   2.904   1.551   2.334 -0.4191  0.1648  0.2362
 1359SOL    HW2 5507   2.911   1.538   2.428 -0.2015 -0.3840  0.1492
 1359SOL    HW3 5508   2.900   1.462   2.298  2.4140  0.3064 -0.5008
 1359SOL    MW4 5509   2.904   1.537   2.342 -0.0169  0.1110  0.1276
 1360SOL     OW 5510   2.663   1.651   2.237  0.4792  0.4253  0.2410
 1360SOL    HW2 5511   2.740   1.610   2.275  1.4492  1.6272 -0.3947
 1360SOL    HW3 5512   2.673   1.639   2.143 -0.0790  0.6512  0.1473
 1360SOL    MW4 5513   2.674   1.644   2.230  0.5336  0.6136  0.1450
 1361SOL     OW 5514   2.642   1.917   2.318  0.1536  0.0379  0.3846
 1361SOL    HW2 5515   2.670   1.898   2.407 -1.3606  0.1224  0.8833
 1361SOL    HW3 5516   2.647   1.833   2.272 -0.4530 -0.2939  0.9271
 1361SOL    MW4 5517   2.646   1.904   2.323 -0.1264  0.0054  0.5219
 1362SOL     OW 5518   2.883   2.029   2.279  0.2100 -0.1822  0.1099
 1362SOL    HW2 5519   2.959   1.989   2.321 -0.3186 -1.5069 -0.1782
 1362SOL    HW3 5520   2.815   1.961   2.282 -0.0509 -0.0577 -2.2641
 1362SOL    MW4 5521   2.884   2.015   2.285  0.1061 -0.3407 -0.2415
 1363SOL     OW 5522   2.880   2.302   2.341  0.1925  0.1554  0.1909
 1363SOL    HW2 5523   2.875   2.297   2.436 -1.5909 -0.6311  0.0648
 1363SOL    HW3 5524   2.878   2.210   2.312  0.3582  0.4027 -0.6138
 1363SOL    MW4 5525   2.879   2.289   2.349 -0.0210  0.0842  0.0679
 1364SOL     OW 5526   2.680   2.431   2.236 -0.3488  0.3915 -0.1144
 1364SOL    HW2 5527   2.754   2.379   2.268 -0.1921  1.6596  1.5958
 1364SOL    HW3 5528   2.699   2.442   2.143  0.8855 -0.5015  0.0024
 1364SOL    MW4 5529   2.692   2.425   2.228 -0.1655  0.4408  0.1268
 1365SOL     OW 5530   2.670   2.692   2.341  0.4074  0.2726 -0.0848
 1365SOL    HW2 5531   2.755   2.727   2.317  0.6493 -1.0672 -1.2977
 1365SOL    HW3 5532   2.673   2.600   2.314 -1.0775 -0.0433  0.7220
 1365SOL    MW4 5533   2.681   2.684   2.334  0.2437  0.0541 -0.1380
 1366SOL     OW 5534   2.902   2.816   2.239 -0.0385 -0.2194  0.2887
 1366SOL    HW2 5535   2.897   2.901   2.284 -0.6023 -0.3559  0.4860
 1366SOL    HW3 5536   2.928   2.838   2.149 -1.1091  0.2425  0.0877
 1366SOL    MW4 5537   2.905   2.830   2.233 -0.2542 -0.1767  0.2882
 1367SOL     OW 5538   2.910   3.049   2.359 -0.2151  0.2012  0.2613
 1367SOL    HW2 5539   2.992   3.097   2.343  1.2123 -2.3988 -0.5563
 1367SOL    HW3 5540   2.842   3.105   2.320  1.2957  1.8397 -0.1201
 1367SOL    MW4 5541   2.912   3.063   2.352  0.1726  0.0744  0.1030
 1368SOL     OW 5542   2.710   3.208   2.273 -0.1441 -0.4801  0.3103
 1368SOL    HW2 5543   2.702   3.299   2.300 -0.3766 -0.1700 -0.7705
 1368SOL    HW3 5544   2.727   3.212   2.179  0.3973 -1.5347  0.3561
 1368SOL    MW4 5545   2.711   3.220   2.264 -0.1037 -0.5782  0.1738
 1369SOL     OW 5546   2.654   3.461   2.341 -0.7665 -0.3221  0.6258
 1369SOL    HW2 5547   2.737   3.508   2.329 -1.2068  0.9994  2.4829
 1369SOL    HW3 5548   2.588   3.517   2.299 -0.7777 -1.2240 -0.5828
 1369SOL    MW4 5549   2.656   3.475   2.334 -0.8261 -0.2666  0.7114
 1370SOL     OW 5550   2.878   3.593   2.250  0.6169  0.0086  0.0049
 1370SOL    HW2 5551   2.952   3.544   2.286  1.0533  0.3337 -0.4597
 1370SOL    HW3 5552   2.889   3.681   2.284 -0.0569 -0.1587  0.6704
 1370SOL    MW4 5553   2.889   3.598   2.259  0.5853  0.0296  0.0315
 1371SOL     OW 5554   2.904   3.852   2.333  0.7548 -0.4460  0.0243
 1371SOL    HW2 5555   2.908   3.819   2.423 -0.1364 -0.5239  0.0399
 1371SOL    HW3 5556   2.833   3.917   2.335  0.7383 -0.4419 -0.6250
 1371SOL    MW4 5557   2.896   3.856   2.345  0.6351 -0.4559 -0.0594
 1372SOL     OW 5558   2.682   4.016   2.296 -0.0819 -0.1257 -0.4368
 1372SOL    HW2 5559   2.601   3.966   2.303  0.8601 -1.7643 -0.7990
 1372SOL    HW3 5560   2.697   4.023   2.201  1.5427 -2.1476 -0.3692
 1372SOL    MW4 5561   2.674   4.010   2.284  0.2570 -0.6084 -0.4759
 1373SOL     OW 5562   2.689   4.277   2.417  0.0025 -0.0703 -0.0222
 1373SOL    HW2 5563   2.682   4.266   2.511  1.5395 -0.5587  0.0448
 1373SOL    HW3 5564   2.669   4.190   2.381 -2.2454  0.4993 -0.2633
 1373SOL    MW4 5565   2.685   4.264   2.424 -0.0911 -0.0596 -0.0451
 1374SOL     OW 5566   2.917   4.413   2.306  0.5756  0.0706 -0.2543
 1374SOL    HW2 5567   2.997   4.379   2.347  0.1541 -0.3195  0.2566
 1374SOL    HW3 5568   2.846   4.367   2.351  0.1269 -0.9729 -2.0224
 1374SOL    MW4 5569   2.918   4.403   2.318  0.4609 -0.1187 -0.4201
 1375SOL     OW 5570   3.379   4.645   2.395 -0.5069  0.4788 -0.1140
 1375SOL    HW2 5571   3.379   4.645   2.490 -0.4740  0.1073 -0.1140
 1375SOL    HW3 5572   3.461   4.688   2.371 -0.5295  0.5978  0.0236
 1375SOL    MW4 5573   3.390   4.651   2.404 -0.5054  0.4454 -0.0961
 1376SOL     OW 5574   3.168   0.100   2.275  0.2851 -0.0577  0.2910
 1376SOL    HW2 5575   3.154   0.183   2.319 -0.9049 -1.0358  1.8214
 1376SOL    HW3 5576   3.240   0.058   2.323  0.3096 -0.2821  0.0632
 1376SOL    MW4 5577   3.176   0.105   2.287  0.1316 -0.2163  0.4628
 1377SOL     OW 5578   3.141   0.355   2.381 -0.3006 -0.0809 -0.0941
 1377SOL    HW2 5579   3.217   0.410   2.362  0.4229 -1.2707 -0.6869
 1377SOL    HW3 5580   3.066   0.405   2.349  0.2377  1.0546  0.4051
 1377SOL    MW4 5581   3.141   0.369   2.374 -0.1340 -0.0880 -0.1066
 1378SOL     OW 5582   3.336   0.514   2.309  0.0284  0.4003 -0.2003
 1378SOL    HW2 5583   3.424   0.481   2.326 -0.3281  0.1597  1.2911
 1378SOL    HW3 5584   3.330   0.519   2.214  2.1806  1.8583 -0.3054
 1378SOL    MW4 5585   3.347   0.511   2.299  0.2656  0.5608 -0.0174
 1379SOL     OW 5586   3.355   0.775   2.400 -0.4752 -0.0508  0.0944
 1379SOL    HW2 5587   3.429   0.814   2.352 -0.4750 -0.3674 -0.1676
 1379SOL    HW3 5588   3.346   0.688   2.362 -0.4870 -0.2999  0.6641
 1379SOL    MW4 5589   3.364   0.769   2.388 -0.4766 -0.1255  0.1349
 1380SOL     OW 5590   3.127   0.869   2.291  0.1195 -0.6240  0.0021
 1380SOL    HW2 5591   3.193   0.825   2.344  0.5830  0.2857  0.1794
 1380SOL    HW3 5592   3.049   0.814   2.301  1.0859 -2.2310 -0.9609
 1380SOL    MW4 5593   3.125   0.856   2.299  0.3080 -0.7161 -0.1016
 1381SOL     OW 5594   3.112   1.151   2.374 -0.4887  0.0351 -0.1462
 1381SOL    HW2 5595   3.198   1.189   2.355  0.0563 -0.8451  0.5309
 1381SOL    HW3 5596   3.120   1.060   2.346 -1.5687  0.2324 -1.1241
 1381SOL    MW4 5597   3.125   1.144   2.368 -0.5596 -0.0550 -0.1857
 1382SOL     OW 5598   3.370   1.247   2.268  0.3026 -0.0752  0.4436
 1382SOL    HW2 5599   3.447   1.213   2.314 -0.4946 -0.5709  1.4466
 1382SOL    HW3 5600   3.355   1.333   2.306  0.7316  0.2797 -0.1927
 1382SOL    MW4 5601   3.378   1.254   2.279  0.2542 -0.0938  0.4921
 1383SOL     OW 5602   3.327   1.519   2.368 -0.1256  0.0618  0.6685
 1383SOL    HW2 5603   3.323   1.536   2.462  1.9183  2.1053  0.4123
 1383SOL    HW3 5604   3.266   1.582   2.329 -0.6634 -0.5066  0.5824
 1383SOL    MW4 5605   3.319   1.530   2.375  0.0730  0.2565  0.6232
 1384SOL     OW 5606   3.141   1.691   2.282  0.2820 -0.2998 -0.6706
 1384SOL    HW2 5607   3.128   1.768   2.337  1.0455  0.3492 -1.3845
 1384SOL    HW3 5608   3.062   1.638   2.295  0.7006 -0.4608  1.5051
 1384SOL    MW4 5609   3.129   1.694   2.291  0.4380 -0.2354 -0.4778
 1385SOL     OW 5610   3.112   1.925   2.410 -0.3841 -0.1129 -0.2383
 1385SOL    HW2 5611   3.140   1.934   2.501 -1.1048  0.1279 -0.0389
 1385SOL    HW3 5612   3.183   1.965   2.359  0.1205 -0.4408  0.2016
 1385SOL    MW4 5613   3.125   1.931   2.415 -0.4129 -0.1246 -0.1540
 1386SOL     OW 5614   3.354   2.012   2.260 -0.4411 -0.6439 -0.1996
 1386SOL    HW2 5615   3.434   1.973   2.294 -0.4320 -0.4514  0.0008
 1386SOL    HW3 5616   3.370   2.020   2.166  0.7459  1.6569  0.1710
 1386SOL    MW4 5617   3.367   2.008   2.252 -0.2832 -0.3150 -0.1245
 1387SOL     OW 5618   3.339   2.274   2.375  0.4247 -0.3110 -0.3269
 1387SOL    HW2 5619   3.251   2.304   2.349  0.4974  0.6859  0.5480
 1387SOL    HW3 5620   3.344   2.184   2.342 -0.9063 -0.3610 -0.4327
 1387SOL    MW4 5621   3.328   2.266   2.367  0.2584 -0.1862 -0.2253
 1388SOL     OW 5622   3.112   2.420   2.288  0.3247 -0.2985  0.2113
 1388SOL    HW2 5623   3.100   2.513   2.309  1.6252 -0.1708  0.4396
 1388SOL    HW3 5624   3.025   2.381   2.299 -0.2989  0.9510 -0.2054
 1388SOL    MW4 5625   3.099   2.427   2.292  0.4139 -0.1166  0.1864
 1389SOL     OW 5626   3.130   2.690   2.322  0.6524  0.3086  0.2259
 1389SOL    HW2 5627   3.132   2.728   2.410  2.7418 -0.3058  0.4828
 1389SOL    HW3 5628   3.048   2.721   2.284  0.8074  2.5151  1.5635
 1389SOL    MW4 5629   3.119   2.699   2.329  0.9484  0.5186  0.4363
 1390SOL     OW 5630   3.357   2.829   2.282 -0.0456 -0.4405  0.5492
 1390SOL    HW2 5631   3.337   2.914   2.322 -1.0779  0.3151 -1.5148
 1390SOL    HW3 5632   3.277   2.778   2.294 -0.4990 -0.0755 -0.8714
 1390SOL    MW4 5633   3.344   2.833   2.289 -0.2415 -0.2928  0.0896
 1391SOL     OW 5634   3.343   3.073   2.394  0.1681  0.7346 -0.2307
 1391SOL    HW2 5635   3.413   3.111   2.341  0.9844  1.5558  1.4188
 1391SOL    HW3 5636   3.264   3.119   2.365  0.9256  2.7157  0.7154
 1391SOL    MW4 5637   3.342   3.084   2.383  0.3760  1.1044  0.1118
 1392SOL     OW 5638   3.133   3.214   2.279 -0.6915  0.0316 -0.0533
 1392SOL    HW2 5639   3.116   3.307   2.294 -2.8927 -0.5202  1.0095
 1392SOL    HW3 5640   3.129   3.204   2.183 -0.7858  0.9604 -0.1519
 1392SOL    MW4 5641   3.130   3.225   2.268 -0.9944  0.0813  0.0741
 1393SOL     OW 5642   3.103   3.476   2.364 -0.6027 -0.1900  0.2499
 1393SOL    HW2 5643   3.120   3.492   2.457 -0.8674  1.2729  0.0522
 1393SOL    HW3 5644   3.169   3.528   2.318  0.0393 -1.5215 -0.3900
 1393SOL    MW4 5645   3.114   3.485   2.370 -0.5529 -0.1726  0.1392
 1394SOL     OW 5646   3.319   3.621   2.277  0.3368  0.3393 -0.3208
 1394SOL    HW2 5647   3.395   3.570   2.305  0.3507  0.3555 -0.3281
 1394SOL    HW3 5648   3.313   3.607   2.183 -0.0079 -0.1264 -0.2317
 1394SOL    MW4 5649   3.328   3.612   2.269  0.2935  0.2799 -0.3099
 1395SOL     OW 5650   3.341   3.888   2.376  0.0657 -0.0205  0.1500
 1395SOL    HW2 5651   3.424   3.933   2.363 -0.4843  1.0119  0.2053
 1395SOL    HW3 5652   3.352   3.804   2.330  1.2992 -0.0896  0.5591
 1395SOL    MW4 5653   3.353   3.883   2.368  0.1554  0.1068  0.2112
 1396SOL     OW 5654   3.124   4.034   2.284 -0.5702 -0.0526  0.2278
 1396SOL    HW2 5655   3.199   3.988   2.321 -0.3098 -1.2028 -1.6542
 1396SOL    HW3 5656   3.049   3.979   2.304 -0.5014 -0.4068 -0.4817
 1396SOL    MW4 5657   3.124   4.021   2.291 -0.5267 -0.2508 -0.1140
 1397SOL     OW 5658   3.134   4.297   2.408  0.1956  0.1323 -0.0326
 1397SOL    HW2 5659   3.225   4.322   2.394 -0.4503  1.4205 -2.0317
 1397SOL    HW3 5660   3.127   4.210   2.368  0.6360 -0.1563  0.5033
 1397SOL    MW4 5661   3.145   4.289   2.401  0.1686  0.2637 -0.2255
 1398SOL     OW 5662   3.374   4.377   2.344 -0.3561 -0.3090  0.4816
 1398SOL    HW2 5663   3.368   4.469   2.369 -0.2908 -0.4342  0.9726
 1398SOL    HW3 5664   3.368   4.377   2.249 -1.4450  0.1156  0.5427
 1398SOL    MW4 5665   3.372   4.389   2.335 -0.4914 -0.2694  0.5546
 1399SOL     OW 5666   3.816   0.005   2.390 -0.6352  0.3440  0.2706
 1399SOL    HW2 5667   3.830   0.006   2.485 -1.5132  0.1293  0.4026
 1399SOL    HW3 5668   3.901   0.032   2.353  0.0351 -0.6695  1.0671
 1399SOL    MW4 5669   3.829   0.009   2.398 -0.6626  0.1822  0.3932
 1400SOL     OW 5670   3.580   0.140   2.322  0.0590 -0.5648 -0.1973
 1400SOL    HW2 5671   3.586   0.228   2.360 -0.3532 -1.0407  0.9709
 1400SOL    HW3 5672   3.653   0.092   2.361 -0.8453 -1.2893  0.6278
 1400SOL    MW4 5673   3.591   0.145   2.332 -0.1149 -0.7232  0.0658
 1401SOL     OW 5674   3.604   0.411   2.404  0.4934  0.3861  0.3424
 1401SOL    HW2 5675   3.624   0.417   2.498  0.6983  2.0115  0.1959
 1401SOL    HW3 5676   3.684   0.437   2.360  0.7232 -1.3453 -0.3259
 1401SOL    MW4 5677   3.617   0.415   2.411  0.5507  0.3721  0.2348
 1402SOL     OW 5678   3.825   0.501   2.301  0.2862  0.3714 -0.3137
 1402SOL    HW2 5679   3.820   0.595   2.319  2.5426  0.7137 -1.3883
 1402SOL    HW3 5680   3.810   0.494   2.207  1.9082 -0.1761 -0.5382
 1402SOL    MW4 5681   3.822   0.512   2.291  0.7980  0.3444 -0.4852
 1403SOL     OW 5682   3.845   0.755   2.363  0.1684 -0.6277 -0.2293
 1403SOL    HW2 5683   3.841   0.768   2.458 -0.7736  1.1926 -0.4871
 1403SOL    HW3 5684   3.924   0.801   2.336  0.0851 -0.5872 -0.4027
 1403SOL    MW4 5685   3.855   0.763   2.372  0.0331 -0.3822 -0.2863
 1404SOL     OW 5686   3.588   0.852   2.300  0.3663 -0.3885  0.4345
 1404SOL    HW2 5687   3.672   0.807   2.311  1.0535  1.0301  1.1552
 1404SOL    HW3 5688   3.593   0.894   2.215  0.3469 -0.3702  0.4422
 1404SOL    MW4 5689   3.599   0.852   2.290  0.4544 -0.1988  0.5305
 1405SOL     OW 5690   3.607   1.115   2.396 -0.5068 -0.1509 -0.1031
 1405SOL    HW2 5691   3.594   1.134   2.489  2.0442 -0.0711  0.2562
 1405SOL    HW3 5692   3.607   1.019   2.392 -0.0569 -0.1567  0.0541
 1405SOL    MW4 5693   3.605   1.105   2.408 -0.1111 -0.1410 -0.0350
 1406SOL     OW 5694   3.820   1.235   2.260 -0.0289  0.2413  0.1981
 1406SOL    HW2 5695   3.807   1.324   2.293 -0.1610  0.5176 -0.5923
 1406SOL    HW3 5696   3.756   1.182   2.307 -1.7227  1.0100 -1.2019
 1406SOL    MW4 5697   3.810   1.239   2.271 -0.2699  0.3792 -0.0913
 1407SOL     OW 5698   3.819   1.499   2.348 -0.0181  0.3124  0.4089
 1407SOL    HW2 5699   3.823   1.498   2.443  1.5806  0.9721  0.3791
 1407SOL    HW3 5700   3.730   1.528   2.327 -0.8108 -1.1747  1.6794
 1407SOL    MW4 5701   3.808   1.503   2.358  0.0880  0.2033  0.5722
 1408SOL     OW 5702   3.565   1.599   2.295 -0.0604 -0.1047  0.0053
 1408SOL    HW2 5703   3.572   1.689   2.325  0.5446 -0.5403  1.2058
 1408SOL    HW3 5704   3.479   1.570   2.325  0.0276 -0.1446  0.2189
 1408SOL    MW4 5705   3.555   1.607   2.303  0.0312 -0.1674  0.1919
 1409SOL     OW 5706   3.579   1.884   2.352  0.2046 -0.3081  0.6186
 1409SOL    HW2 5707   3.660   1.917   2.312 -0.2253  0.0639  0.0615
 1409SOL    HW3 5708   3.580   1.920   2.441 -0.4565  1.5262 -0.1101
 1409SOL    MW4 5709   3.590   1.893   2.359  0.0606 -0.0169  0.4489
 1410SOL     OW 5710   3.806   2.033   2.254 -0.2497 -0.4911 -0.1657
 1410SOL    HW2 5711   3.886   1.993   2.286 -0.6415 -2.4612 -1.4893
 1410SOL    HW3 5712   3.821   2.044   2.160 -0.4950  1.7010  0.0416
 1410SOL    MW4 5713   3.818   2.029   2.246 -0.3338 -0.4618 -0.3128
 1411SOL     OW 5714   3.802   2.297   2.353  0.0004 -0.4329 -0.1000
 1411SOL    HW2 5715   3.710   2.324   2.349 -0.1378 -0.9959 -1.0223
 1411SOL    HW3 5716   3.801   2.205   2.325  0.9408 -0.1865 -0.9679
 1411SOL    MW4 5717   3.790   2.288   2.349  0.1063 -0.4749 -0.3359
 1412SOL     OW 5718   3.556   2.442   2.306  0.3525  0.4030  0.4447
 1412SOL    HW2 5719   3.472   2.401   2.329  0.6092 -0.8480 -0.7548
 1412SOL    HW3 5720   3.579   2.403   2.222  2.3879  0.3934  0.9906
 1412SOL    MW4 5721   3.548   2.432   2.298  0.6547  0.2367  0.3583
 1413SOL     OW 5722   3.592   2.700   2.367 -0.1294 -0.1181 -0.4678
 1413SOL    HW2 5723   3.581   2.610   2.336  0.1510 -0.6882  1.0160
 1413SOL    HW3 5724   3.518   2.748   2.328 -0.7439 -1.1712 -0.6218
 1413SOL    MW4 5725   3.581   2.695   2.358 -0.1733 -0.3321 -0.2923
 1414SOL     OW 5726   3.795   2.841   2.242 -0.2730  0.3433 -0.0391
 1414SOL    HW2 5727   3.799   2.932   2.272 -2.2543  0.4435 -0.0304
 1414SOL    HW3 5728   3.720   2.804   2.288 -0.0866 -1.0158 -0.8113
 1414SOL    MW4 5729   3.786   2.849   2.252 -0.5095  0.1771 -0.1397
 1415SOL     OW 5730   3.819   3.106   2.358 -0.2203  0.1874  0.0662
 1415SOL    HW2 5731   3.834   3.123   2.451 -0.4519  0.2484  0.0932
 1415SOL    HW3 5732   3.880   3.164   2.313 -0.7383  0.8071  0.1655
 1415SOL    MW4 5733   3.829   3.116   2.365 -0.3190  0.2773  0.0830
 1416SOL     OW 5734   3.570   3.196   2.266 -0.3140 -0.2172 -0.0580
 1416SOL    HW2 5735   3.560   3.273   2.322 -1.0201 -0.7052  0.4994
 1416SOL    HW3 5736   3.650   3.154   2.297  0.8125  1.0058 -1.2471
 1416SOL    MW4 5737   3.579   3.201   2.277 -0.2584 -0.1202 -0.1414
 1417SOL     OW 5738   3.517   3.458   2.397 -0.1011 -0.1760  0.4278
 1417SOL    HW2 5739   3.532   3.463   2.491 -2.1617  0.4313  0.7399
 1417SOL    HW3 5740   3.592   3.504   2.358 -0.5656  1.8922  1.8939
 1417SOL    MW4 5741   3.529   3.465   2.404 -0.4342  0.1769  0.6623
 1418SOL     OW 5742   3.754   3.576   2.304  0.1583 -0.1000  0.0261
 1418SOL    HW2 5743   3.764   3.663   2.343 -2.3408  0.4213 -0.4128
 1418SOL    HW3 5744   3.763   3.592   2.210  1.3168 -0.5942  0.0432
 1418SOL    MW4 5745   3.757   3.590   2.297 -0.0188 -0.0966 -0.0296
 1419SOL     OW 5746   3.797   3.834   2.393 -0.4864 -0.6342 -0.0299
 1419SOL    HW2 5747   3.795   3.837   2.489 -1.2985  1.0388 -0.0848
 1419SOL    HW3 5748   3.876   3.883   2.370 -0.2920 -1.0357 -0.2134
 1419SOL    MW4 5749   3.807   3.841   2.403 -0.5677 -0.4663 -0.0613
 1420SOL     OW 5750   3.581   3.992   2.304  0.2560 -0.1038  0.2383
 1420SOL    HW2 5751   3.605   4.079   2.337 -1.2491  0.7437 -0.7970
 1420SOL    HW3 5752   3.643   3.932   2.346  1.4489  1.4892  0.8242
 1420SOL    MW4 5753   3.592   3.996   2.314  0.2148  0.2179  0.1791
 1421SOL     OW 5754   3.603   4.255   2.419  0.4124 -0.2129  0.0735
 1421SOL    HW2 5755   3.673   4.312   2.387  0.1510  1.4414  2.3100
 1421SOL    HW3 5756   3.522   4.294   2.385  0.5594 -2.7491 -3.4399
 1421SOL    MW4 5757   3.601   4.268   2.411  0.3977 -0.3285 -0.0951
 1422SOL     OW 5758   3.816   4.404   2.309 -0.5573  0.3277 -0.1210
 1422SOL    HW2 5759   3.891   4.357   2.347 -2.0376 -0.7623  1.5759
 1422SOL    HW3 5760   3.825   4.494   2.341 -0.0577  0.1647  0.2053
 1422SOL    MW4 5761   3.827   4.409   2.318 -0.6866  0.1626  0.1459
 1423SOL     OW 5762   4.264   4.641   2.392 -0.1996 -0.0782  0.3823
 1423SOL    HW2 5763   4.275   4.649   2.487 -0.4727  0.3773  0.3788
 1423SOL    HW3 5764   4.343   4.680   2.355 -0.2859  0.1316  0.4176
 1423SOL    MW4 5765   4.276   4.647   2.400 -0.2470  0.0095  0.3865
 1424SOL     OW 5766   4.064   0.110   2.282  0.1639  0.3999  0.2207
 1424SOL    HW2 5767   4.081   0.196   2.320 -1.2579 -0.0059  1.8450
 1424SOL    HW3 5768   4.126   0.052   2.325  0.1366  0.3584  0.2034
 1424SOL    MW4 5769   4.074   0.114   2.293 -0.0272  0.3408  0.4325
 1425SOL     OW 5770   4.053   0.374   2.390  0.2511  0.1723  0.1761
 1425SOL    HW2 5771   4.122   0.439   2.376 -0.4760  1.3643  1.9130
 1425SOL    HW3 5772   3.972   0.421   2.370 -0.2453 -0.3191  0.9882
 1425SOL    MW4 5773   4.051   0.389   2.386  0.0901  0.2647  0.5126
 1426SOL     OW 5774   4.277   0.540   2.328  0.2155  0.1210 -0.3170
 1426SOL    HW2 5775   4.289   0.627   2.367 -0.1649  0.8277 -1.7517
 1426SOL    HW3 5776   4.334   0.483   2.379 -0.3853  1.0010  1.3685
 1426SOL    MW4 5777   4.286   0.544   2.340  0.0858  0.3304 -0.2840
 1427SOL     OW 5778   4.279   0.813   2.434 -0.2575  0.2214 -0.1772
 1427SOL    HW2 5779   4.206   0.852   2.385 -0.6630  0.7677  0.8440
 1427SOL    HW3 5780   4.353   0.870   2.415 -0.9530  1.7865  1.6634
 1427SOL    MW4 5781   4.279   0.826   2.425 -0.4025  0.5000  0.2003
 1428SOL     OW 5782   4.057   0.903   2.271  0.0566 -0.1188 -0.4624
 1428SOL    HW2 5783   4.056   0.997   2.287  0.9343 -0.0747 -0.6444
 1428SOL    HW3 5784   4.085   0.895   2.180 -1.3939 -0.5028 -0.8832
 1428SOL    MW4 5785   4.061   0.914   2.261 -0.0196 -0.1637 -0.5414
 1429SOL     OW 5786   4.067   1.155   2.378  0.1316  0.1988 -0.5245
 1429SOL    HW2 5787   4.065   1.166   2.473  1.9319 -1.2219 -0.2924
 1429SOL    HW3 5788   3.982   1.188   2.348 -1.0982 -0.8278  1.7166
 1429SOL    MW4 5789   4.056   1.161   2.386  0.2065 -0.1241 -0.1981
 1430SOL     OW 5790   4.296   1.303   2.274  0.0808  0.1553  0.0334
 1430SOL    HW2 5791   4.221   1.255   2.309 -0.0357 -0.0047 -0.4310
 1430SOL    HW3 5792   4.370   1.274   2.326 -0.2017  0.3902  0.5647
 1430SOL    MW4 5793   4.296   1.293   2.285  0.0286  0.1651  0.0422
 1431SOL     OW 5794   4.253   1.575   2.379  0.3915  0.0796  0.0410
 1431SOL    HW2 5795   4.266   1.487   2.341 -0.1653 -0.1962  0.4794
 1431SOL    HW3 5796   4.319   1.629   2.336  1.0321 -0.6528  0.0877
 1431SOL    MW4 5797   4.263   1.570   2.368  0.4025 -0.0534  0.1054
 1432SOL     OW 5798   4.012   1.662   2.264  0.0258  0.2595 -0.5464
 1432SOL    HW2 5799   4.089   1.627   2.308 -0.4170 -0.4107 -0.2971
 1432SOL    HW3 5800   3.939   1.612   2.300 -0.4514  0.3960 -1.3170
 1432SOL    MW4 5801   4.012   1.651   2.275 -0.0954  0.1889 -0.6151
 1433SOL     OW 5802   4.051   1.924   2.344  0.1211  0.0582 -0.0912
 1433SOL    HW2 5803   4.049   1.919   2.440 -2.2814  0.0685 -0.1084
 1433SOL    HW3 5804   4.030   1.836   2.315  2.1539 -0.2791 -0.6640
 1433SOL    MW4 5805   4.048   1.912   2.353  0.0720  0.0150 -0.1690
 1434SOL     OW 5806   4.251   2.102   2.268  0.1473  0.2116 -0.0653
 1434SOL    HW2 5807   4.250   2.187   2.313  0.3333  0.3219 -0.2703
 1434SOL    HW3 5808   4.179   2.053   2.308  0.2993  0.3201  0.3357
 1434SOL    MW4 5809   4.241   2.107   2.279  0.1917  0.2403 -0.0393
 1435SOL     OW 5810   4.268   2.375   2.368 -0.0172  0.0318 -0.1413
 1435SOL    HW2 5811   4.192   2.403   2.318 -0.5107  1.7469  1.5482
 1435SOL    HW3 5812   4.342   2.422   2.329 -0.0932 -0.1834 -0.5478
 1435SOL    MW4 5813   4.268   2.385   2.356 -0.0920  0.2298  0.0279
 1436SOL     OW 5814   4.020   2.443   2.248  0.3206  0.0789  0.2154
 1436SOL    HW2 5815   4.031   2.528   2.290 -0.0259 -0.1764  0.8338
 1436SOL    HW3 5816   3.945   2.404   2.292  0.2993 -0.4325 -0.2608
 1436SOL    MW4 5817   4.011   2.449   2.259  0.2718 -0.0222  0.2341
 1437SOL     OW 5818   4.043   2.718   2.309 -0.1458 -0.2093 -0.3908
 1437SOL    HW2 5819   4.035   2.736   2.402  1.2734 -0.3354 -0.2332
 1437SOL    HW3 5820   3.957   2.737   2.273 -0.3413  1.0569  0.7341
 1437SOL    MW4 5821   4.031   2.723   2.316  0.0157 -0.0587 -0.2217
 1438SOL     OW 5822   4.250   2.878   2.232  0.2717 -0.3189 -0.7421
 1438SOL    HW2 5823   4.180   2.813   2.237 -0.5497  0.6128  0.1343
 1438SOL    HW3 5824   4.325   2.836   2.274 -0.4688 -0.4246  0.4949
 1438SOL    MW4 5825   4.250   2.864   2.238  0.0658 -0.2103 -0.4630
 1439SOL     OW 5826   4.225   3.113   2.379 -0.2353 -0.2757  0.0134
 1439SOL    HW2 5827   4.226   3.034   2.324  0.1568  0.6405 -1.3420
 1439SOL    HW3 5828   4.314   3.147   2.371 -0.7377  0.9669 -0.4198
 1439SOL    MW4 5829   4.237   3.107   2.370 -0.2499  0.0091 -0.2224
 1440SOL     OW 5830   4.036   3.234   2.231  0.0694  0.2201 -0.4202
 1440SOL    HW2 5831   4.033   3.324   2.263 -1.4197 -0.0500  0.2598
 1440SOL    HW3 5832   4.111   3.195   2.276  1.3080  1.3807 -1.4616
 1440SOL    MW4 5833   4.046   3.241   2.241  0.0362  0.3376 -0.4680
 1441SOL     OW 5834   4.001   3.508   2.378 -0.1257 -0.3060 -0.4843
 1441SOL    HW2 5835   4.011   3.508   2.473  1.9685 -0.7792 -0.6720
 1441SOL    HW3 5836   3.911   3.535   2.363 -0.4242 -0.0494  1.6285
 1441SOL    MW4 5837   3.990   3.511   2.389  0.1113 -0.3345 -0.2298
 1442SOL     OW 5838   4.231   3.646   2.270 -0.0115 -0.0497  0.2470
 1442SOL    HW2 5839   4.245   3.728   2.318  0.7014 -0.4926  0.8105
 1442SOL    HW3 5840   4.150   3.611   2.307 -0.5741  0.6316 -0.3291
 1442SOL    MW4 5841   4.223   3.652   2.281  0.0086 -0.0184  0.2453
 1443SOL     OW 5842   4.283   3.882   2.406 -0.0757 -0.1114 -0.0701
 1443SOL    HW2 5843   4.277   3.881   2.501  1.1366 -0.3413  0.0141
 1443SOL    HW3 5844   4.365   3.928   2.387 -0.1981 -0.2483 -0.9925
 1443SOL    MW4 5845   4.293   3.888   2.416  0.0687 -0.1595 -0.1810
 1444SOL     OW 5846   4.017   3.996   2.331  0.3429 -0.6911 -0.1314
 1444SOL    HW2 5847   4.104   3.969   2.358  0.9402  2.1794  1.0054
 1444SOL    HW3 5848   4.022   3.999   2.235  1.3825 -0.8882 -0.0894
 1444SOL    MW4 5849   4.029   3.993   2.322  0.5589 -0.3386  0.0246
 1445SOL     OW 5850   4.033   4.260   2.417  0.6872 -0.0111  0.1051
 1445SOL    HW2 5851   4.113   4.301   2.385 -0.0556  1.8071  0.5304
 1445SOL    HW3 5852   4.028   4.177   2.370  2.4900  0.1381 -0.3818
 1445SOL    MW4 5853   4.043   4.254   2.407  0.8268  0.2489  0.0970
 1446SOL     OW 5854   4.245   4.389   2.278  0.6821 -0.2010 -0.1647
 1446SOL    HW2 5855   4.268   4.477   2.310  1.1491 -0.1368 -0.6603
 1446SOL    HW3 5856   4.320   4.334   2.302  0.3331 -0.4934  0.2563
 1446SOL    MW4 5857   4.258   4.394   2.285  0.6971 -0.2308 -0.1745
 1447SOL     OW 5858   0.182   4.623   2.649  0.1408 -0.1625  0.0133
 1447SOL    HW2 5859   0.186   4.531   2.678 -0.9202 -0.9668 -2.2439
 1447SOL    HW3 5860   0.117   4.663   2.706  1.1195 -0.6386  1.4755
 1447SOL    MW4 5861   0.174   4.616   2.660  0.1300 -0.3309 -0.0916
 1448SOL     OW 5862   4.482   0.095   2.777  0.1955 -0.3360 -0.0687
 1448SOL    HW2 5863   4.492   0.096   2.872  1.8528  0.4088 -0.2303
 1448SOL    HW3 5864   4.470   0.187   2.753  0.0785 -0.4876 -0.6013
 1448SOL    MW4 5865   4.482   0.107   2.786  0.3986 -0.2578 -0.1605
 1449SOL     OW 5866   0.011   0.374   2.691 -0.1387  0.1665 -0.3986
 1449SOL    HW2 5867   0.086   0.430   2.713  0.2328 -1.0110  1.4139
 1449SOL    HW3 5868   0.014   0.366   2.596  0.2863  2.5604 -0.6242
 1449SOL    MW4 5869   0.021   0.381   2.681 -0.0339  0.3270 -0.1891
 1450SOL     OW 5870   0.218   0.526   2.742 -0.3406 -0.2116 -0.0949
 1450SOL    HW2 5871   0.218   0.525   2.837  0.5573 -0.4011 -0.0970
 1450SOL    HW3 5872   0.284   0.462   2.717  0.5093  0.9342 -0.8299
 1450SOL    MW4 5873   0.226   0.518   2.751 -0.1100 -0.0854 -0.1922
 1451SOL     OW 5874   0.251   0.778   2.660 -0.2369 -0.4078  0.1584
 1451SOL    HW2 5875   0.328   0.807   2.710  0.4488  1.7252 -2.0860
 1451SOL    HW3 5876   0.240   0.686   2.686  0.5470  0.4011  3.6346
 1451SOL    MW4 5877   0.260   0.770   2.670 -0.0430 -0.0197  0.3209
 1452SOL     OW 5878   0.037   0.896   2.771 -0.9211  0.0404 -0.1081
 1452SOL    HW2 5879  -0.050   0.866   2.743 -0.5640 -0.6185 -0.5214
 1452SOL    HW3 5880   0.098   0.836   2.728 -0.3216 -0.4847  1.4319
 1452SOL    MW4 5881   0.034   0.884   2.762 -0.7949 -0.1158  0.0405
 1453SOL     OW 5882   0.017   1.157   2.693  0.7126 -0.2181 -0.2356
 1453SOL    HW2 5883   0.081   1.194   2.753  0.2236  0.2026  0.0339
 1453SOL    HW3 5884   0.026   1.062   2.703  1.1505 -0.1562 -0.0482
 1453SOL    MW4 5885   0.026   1.149   2.702  0.7059 -0.1544 -0.1752
 1454SOL     OW 5886   0.262   1.286   2.778  0.0175  0.1591 -0.0769
 1454SOL    HW2 5887   0.327   1.225   2.742  0.7862  1.0410 -0.1942
 1454SOL    HW3 5888   0.263   1.360   2.717 -2.9499 -0.9270 -1.5327
 1454SOL    MW4 5889   0.271   1.287   2.765 -0.2725  0.1322 -0.2847
 1455SOL     OW 5890   0.225   1.529   2.625  0.1091  0.0840  0.2789
 1455SOL    HW2 5891   0.304   1.572   2.657 -1.4555  1.5777  2.2018
 1455SOL    HW3 5892   0.153   1.583   2.656 -1.7407 -1.7590 -0.6565
 1455SOL    MW4 5893   0.226   1.542   2.633 -0.3414  0.0379  0.4091
 1456SOL     OW 5894   4.490   1.692   2.725  0.3349 -0.4875 -0.0748
 1456SOL    HW2 5895   4.472   1.680   2.819 -0.9573 -1.4269 -0.4252
 1456SOL    HW3 5896   4.466   1.783   2.708  2.0486  0.1659  0.8100
 1456SOL    MW4 5897   4.485   1.702   2.735  0.3905 -0.5252 -0.0043
 1457SOL     OW 5898   4.454   1.957   2.631 -0.3903  0.1372  0.0880
 1457SOL    HW2 5899   4.538   1.993   2.660 -0.5706  0.7792 -0.1864
 1457SOL    HW3 5900   4.461   1.955   2.535 -0.5318 -0.1902  0.0845
 1457SOL    MW4 5901   4.466   1.961   2.622 -0.4325  0.1788  0.0513
 1458SOL     OW 5902   0.186   2.052   2.724 -0.1244 -0.3412  0.0519
 1458SOL    HW2 5903   0.272   2.022   2.694 -0.0710 -0.0731 -0.0663
 1458SOL    HW3 5904   0.182   2.144   2.696 -0.8280 -0.6185 -0.7542
 1458SOL    MW4 5905   0.197   2.061   2.717 -0.2102 -0.3424 -0.0699
 1459SOL     OW 5906   0.217   2.307   2.633  0.1111  0.2331 -0.4767
 1459SOL    HW2 5907   0.291   2.362   2.658 -0.0531  0.1635  0.1554
 1459SOL    HW3 5908   0.140   2.352   2.667 -0.1383  0.2676 -1.0695
 1459SOL    MW4 5909   0.217   2.320   2.641  0.0565  0.2286 -0.4714
 1460SOL     OW 5910   0.008   2.447   2.761  0.4389  0.0752  0.4094
 1460SOL    HW2 5911   0.006   2.453   2.856 -0.2882 -0.3668  0.4254
 1460SOL    HW3 5912  -0.075   2.405   2.738  0.3795  0.6473 -0.4481
 1460SOL    MW4 5913  -0.004   2.443   2.771  0.3352  0.0925  0.2980
 1461SOL     OW 5914   0.010   2.709   2.641 -0.0887 -0.3118 -0.0378
 1461SOL    HW2 5915  -0.070   2.756   2.664  0.3001  0.2073  0.2722
 1461SOL    HW3 5916   0.007   2.630   2.694  0.1125  0.2092  0.7762
 1461SOL    MW4 5917  -0.001   2.705   2.651 -0.0105 -0.1743  0.1104
 1462SOL     OW 5918   0.213   2.827   2.773  0.1650 -0.0627 -0.7596
 1462SOL    HW2 5919   0.208   2.921   2.755  1.1246 -0.2503 -2.0171
 1462SOL    HW3 5920   0.138   2.790   2.726  0.7321 -0.1263 -1.6251
 1462SOL    MW4 5921   0.202   2.835   2.765  0.3664 -0.0958 -1.0395
 1463SOL     OW 5922   0.225   3.095   2.657  0.0820  0.1563  0.2212
 1463SOL    HW2 5923   0.313   3.124   2.680  0.0086 -0.1852  0.9569
 1463SOL    HW3 5924   0.228   3.080   2.563  0.5810  0.9393  0.1098
 1463SOL    MW4 5925   0.237   3.097   2.648  0.1382  0.2146  0.3035
 1464SOL     OW 5926   0.009   3.239   2.784  0.2891  0.0170  0.2989
 1464SOL    HW2 5927  -0.065   3.189   2.750  1.0185 -0.5893 -0.4174
 1464SOL    HW3 5928   0.086   3.197   2.746  1.0333  0.3201  1.4346
 1464SOL    MW4 5929   0.010   3.227   2.775  0.4836 -0.0231  0.3543
 1465SOL     OW 5930   0.002   3.464   2.639  0.0028  0.3651 -0.3946
 1465SOL    HW2 5931   0.082   3.510   2.665 -0.3029  1.0175 -0.6092
 1465SOL    HW3 5932   0.009   3.379   2.683  0.7043  0.5014 -0.2263
 1465SOL    MW4 5933   0.014   3.458   2.648  0.0550  0.4690 -0.4008
 1466SOL     OW 5934   0.218   3.608   2.721 -0.7928 -0.5516  0.7760
 1466SOL    HW2 5935   0.231   3.596   2.816 -1.3845 -1.0649  0.7925
 1466SOL    HW3 5936   0.292   3.562   2.681 -0.4120 -0.1336  0.9976
 1466SOL    MW4 5937   0.229   3.600   2.729 -0.8206 -0.5643  0.8075
 1467SOL     OW 5938   0.245   3.861   2.641  0.0949 -0.0495  0.0781
 1467SOL    HW2 5939   0.245   3.773   2.677 -2.5463 -0.3445 -0.5625
 1467SOL    HW3 5940   0.241   3.849   2.546 -1.8184  0.7529  0.0427
 1467SOL    MW4 5941   0.245   3.848   2.633 -0.5060  0.0172 -0.0112
 1468SOL     OW 5942   0.026   3.974   2.777 -0.0790 -0.4443 -0.0108
 1468SOL    HW2 5943   0.022   4.054   2.725 -0.7696 -1.1234 -1.0038
 1468SOL    HW3 5944   0.092   3.920   2.734 -0.8527 -1.1234 -0.3436
 1468SOL    MW4 5945   0.034   3.978   2.765 -0.2722 -0.6235 -0.1855
 1469SOL     OW 5946   0.015   4.218   2.612  0.1413 -0.0267  0.4044
 1469SOL    HW2 5947  -0.060   4.246   2.664 -0.9311 -1.5868 -0.2739
 1469SOL    HW3 5948   0.088   4.272   2.643 -1.3717  1.8737  0.7018
 1469SOL    MW4 5949   0.015   4.229   2.623 -0.1998  0.0176  0.3543
 1470SOL     OW 5950   0.206   4.375   2.745 -0.4944 -0.2669  0.2052
 1470SOL    HW2 5951   0.212   4.368   2.841  0.6748  0.7504  0.2293
 1470SOL    HW3 5952   0.288   4.335   2.714 -1.0747 -0.9950 -0.3979
 1470SOL    MW4 5953   0.218   4.369   2.754 -0.4167 -0.2294  0.1287
 1471SOL     OW 5954   0.615   4.631   2.599 -0.1714  0.2484  0.0118
 1471SOL    HW2 5955   0.690   4.678   2.638 -1.1510  1.8447  0.0093
 1471SOL    HW3 5956   0.540   4.660   2.650 -0.8767 -0.9770 -0.3195
 1471SOL    MW4 5957   0.615   4.641   2.611 -0.3937  0.2975 -0.0319
 1472SOL     OW 5958   0.407   0.096   2.717  0.0113 -0.0764 -0.0758
 1472SOL    HW2 5959   0.406   0.103   2.812  0.1774 -0.5554 -0.0369
 1472SOL    HW3 5960   0.325   0.050   2.696 -0.1749  0.3008 -0.1891
 1472SOL    MW4 5961   0.396   0.091   2.727  0.0087 -0.0899 -0.0856
 1473SOL     OW 5962   0.399   0.350   2.671  0.3927 -0.3470  0.3946
 1473SOL    HW2 5963   0.482   0.379   2.709  0.7027 -0.7221  0.0074
 1473SOL    HW3 5964   0.395   0.256   2.690  0.7787 -0.6427 -0.8981
 1473SOL    MW4 5965   0.409   0.341   2.678  0.4845 -0.4355  0.1729
 1474SOL     OW 5966   0.638   0.486   2.756 -0.2573  0.8121 -0.1662
 1474SOL    HW2 5967   0.643   0.517   2.846 -1.3250  0.6151 -0.0295
 1474SOL    HW3 5968   0.716   0.432   2.744  0.7322  2.1602  0.1213
 1474SOL    MW4 5969   0.649   0.483   2.766 -0.2677  0.9640 -0.1104
 1475SOL     OW 5970   0.679   0.737   2.640  0.1378 -0.1781  0.2252
 1475SOL    HW2 5971   0.747   0.795   2.672  0.7469 -0.3396 -0.7412
 1475SOL    HW3 5972   0.691   0.655   2.689 -1.0168  0.6480  1.9196
 1475SOL    MW4 5973   0.690   0.734   2.651  0.0659 -0.0903  0.3211
 1476SOL     OW 5974   0.474   0.865   2.780  0.1064 -0.5857 -0.2169
 1476SOL    HW2 5975   0.480   0.950   2.737  0.4978 -0.8601 -0.7147
 1476SOL    HW3 5976   0.538   0.810   2.735  0.0098 -1.0874  0.2381
 1476SOL    MW4 5977   0.483   0.869   2.769  0.1453 -0.6881 -0.2227
 1477SOL     OW 5978   0.460   1.129   2.678 -0.1349  0.2611 -0.0312
 1477SOL    HW2 5979   0.532   1.183   2.712  1.1476 -1.8607  0.7428
 1477SOL    HW3 5980   0.467   1.136   2.583  1.4955 -0.3814  0.0233
 1477SOL    MW4 5981   0.471   1.137   2.670  0.2494 -0.1036  0.0782
 1478SOL     OW 5982   0.667   1.295   2.799 -0.1536 -0.1643  0.2633
 1478SOL    HW2 5983   0.662   1.294   2.895 -0.6095 -0.6567  0.2368
 1478SOL    HW3 5984   0.748   1.250   2.778  0.3107  0.5801  0.4395
 1478SOL    MW4 5985   0.677   1.289   2.809 -0.1525 -0.1310  0.2828
 1479SOL     OW 5986   0.659   1.525   2.640 -0.0512  0.3357 -0.2192
 1479SOL    HW2 5987   0.571   1.557   2.659  0.9122  1.7390  2.0970
 1479SOL    HW3 5988   0.668   1.446   2.693  0.3912  0.6766  0.2147
 1479SOL    MW4 5989   0.648   1.519   2.649  0.1342  0.5658  0.1438
 1480SOL     OW 5990   0.443   1.681   2.702  0.0777  0.4218  0.0064
 1480SOL    HW2 5991   0.462   1.674   2.796 -1.9028  0.7883  0.4593
 1480SOL    HW3 5992   0.461   1.773   2.681  0.6125  0.3178 -0.0014
 1480SOL    MW4 5993   0.448   1.692   2.712 -0.1130  0.4565  0.0651
 1481SOL     OW 5994   0.426   1.958   2.627  0.5159 -0.6659  0.2904
 1481SOL    HW2 5995   0.504   2.007   2.655  0.2473 -0.2635  0.3469
 1481SOL    HW3 5996   0.430   1.960   2.531 -0.8292  1.6667  0.2453
 1481SOL    MW4 5997   0.437   1.965   2.618  0.3030 -0.3049  0.2918
 1482SOL     OW 5998   0.637   2.110   2.729  0.5216 -0.3560  0.4920
 1482SOL    HW2 5999   0.636   2.098   2.824  1.5283  1.1567  0.7059
 1482SOL    HW3 6000   0.716   2.064   2.699  0.9079  0.2723  0.5441
 1482SOL    MW4 6001   0.648   2.102   2.737  0.7054 -0.0734  0.5271
 1483SOL     OW 6002   0.629   2.359   2.610  0.1993  0.0676 -0.2647
 1483SOL    HW2 6003   0.714   2.388   2.643  0.2589  0.5490 -0.8336
 1483SOL    HW3 6004   0.616   2.273   2.650  1.3159 -0.3650 -0.8002
 1483SOL    MW4 6005   0.639   2.351   2.620  0.3545  0.0744 -0.4106
 1484SOL     OW 6006   0.406   2.490   2.715  0.1175  0.2709 -0.1137
 1484SOL    HW2 6007   0.404   2.574   2.669  0.9881  0.0836 -0.4915
 1484SOL    HW3 6008   0.478   2.442   2.675 -0.8365 -0.9445 -0.4011
 1484SOL    MW4 6009   0.415   2.495   2.704  0.1065  0.0861 -0.2015
 1485SOL     OW 6010   0.423   2.747   2.597  0.1924 -0.6650  0.1766
 1485SOL    HW2 6011   0.504   2.767   2.643  0.9846 -2.2521 -0.4666
 1485SOL    HW3 6012   0.353   2.775   2.656  1.2124 -0.1398  1.1395
 1485SOL    MW4 6013   0.424   2.753   2.611  0.4315 -0.8049  0.2189
 1486SOL     OW 6014   0.657   2.802   2.735  0.0392 -0.0109  0.1750
 1486SOL    HW2 6015   0.676   2.798   2.828  0.2545  0.5477  0.1543
 1486SOL    HW3 6016   0.675   2.892   2.710 -0.4676 -0.0370 -0.3116
 1486SOL    MW4 6017   0.662   2.813   2.744  0.0008  0.0591  0.1080
 1487SOL     OW 6018   0.710   3.057   2.631  0.2495  0.4284  0.2971
 1487SOL    HW2 6019   0.792   3.102   2.652  1.0750 -0.6026 -0.6528
 1487SOL    HW3 6020   0.697   3.074   2.538 -0.0862 -0.2389  0.2172
 1487SOL    MW4 6021   0.719   3.065   2.622  0.3141  0.2041  0.1612
 1488SOL     OW 6022   0.480   3.190   2.723  0.4471 -0.5795  0.2771
 1488SOL    HW2 6023   0.477   3.188   2.819 -0.5191 -1.1050  0.2415
 1488SOL    HW3 6024   0.557   3.137   2.700  1.1351  0.1868  0.7744
 1488SOL    MW4 6025   0.490   3.183   2.733  0.4104 -0.5479  0.3381
 1489SOL     OW 6026   0.465   3.468   2.639 -0.0469 -0.4448 -0.3924
 1489SOL    HW2 6027   0.465   3.377   2.669 -1.0446 -0.2031  0.3751
 1489SOL    HW3 6028   0.456   3.463   2.544 -1.5300 -1.1255 -0.2282
 1489SOL    MW4 6029   0.464   3.456   2.631 -0.3742 -0.5028 -0.2694
 1490SOL     OW 6030   0.690   3.636   2.716  0.1882 -0.4617 -0.6167
 1490SOL    HW2 6031   0.686   3.633   2.812  1.8887 -0.7627 -0.5395
 1490SOL    HW3 6032   0.617   3.581   2.688  1.3186 -2.6475  0.5438
 1490SOL    MW4 6033   0.680   3.628   2.725  0.5617 -0.7896 -0.4535
 1491SOL     OW 6034   0.661   3.892   2.647  0.1534  0.0060 -0.4929
 1491SOL    HW2 6035   0.580   3.925   2.685  0.9457  0.3027  0.9850
 1491SOL    HW3 6036   0.661   3.799   2.666  0.2324  0.0408 -0.3113
 1491SOL    MW4 6037   0.651   3.884   2.655  0.2683  0.0498 -0.2739
 1492SOL     OW 6038   0.432   4.019   2.775 -0.2029  0.3306 -0.0416
 1492SOL    HW2 6039   0.435   4.108   2.738 -0.3253  1.0206  1.5905
 1492SOL    HW3 6040   0.356   3.979   2.732 -0.8140  1.3814  0.0324
 1492SOL    MW4 6041   0.422   4.025   2.764 -0.2997  0.5603  0.1836
 1493SOL     OW 6042   0.442   4.244   2.633  0.0795  0.2968 -0.4722
 1493SOL    HW2 6043   0.521   4.290   2.662  0.4801 -0.0587 -0.9855
 1493SOL    HW3 6044   0.442   4.256   2.538 -0.4870  0.2991 -0.4686
 1493SOL    MW4 6045   0.453   4.252   2.624  0.0576  0.2503 -0.5393
 1494SOL     OW 6046   0.646   4.381   2.732  0.0672 -0.2321 -0.2872
 1494SOL    HW2 6047   0.733   4.347   2.716 -0.1336 -0.7689 -0.2296
 1494SOL    HW3 6048   0.639   4.457   2.673  0.3808 -0.4910 -0.6562
 1494SOL    MW4 6049   0.656   4.387   2.722  0.0820 -0.3376 -0.3283
 1495SOL     OW 6050   1.103   4.607   2.633  0.2909 -0.0872  0.2413
 1495SOL    HW2 6051   1.177   4.662   2.657  0.5149 -0.2891  0.0161
 1495SOL    HW3 6052   1.134   4.518   2.646 -0.8682 -0.1340  2.9852
 1495SOL    MW4 6053   1.117   4.602   2.638  0.1675 -0.1202  0.5736
 1496SOL     OW 6054   0.847   0.060   2.718  0.0691 -0.1955 -0.3057
 1496SOL    HW2 6055   0.854   0.077   2.812  1.9496  0.7219 -0.5867
 1496SOL    HW3 6056   0.928   0.013   2.697 -1.0008 -1.6334 -1.2073
 1496SOL    MW4 6057   0.859   0.056   2.728  0.1760 -0.2642 -0.4616
 1497SOL     OW 6058   0.883   0.336   2.652  0.1507  0.4077 -0.2852
 1497SOL    HW2 6059   0.876   0.241   2.663  0.5830  0.4283  0.1748
 1497SOL    HW3 6060   0.846   0.353   2.565  2.1476 -0.4267 -1.3214
 1497SOL    MW4 6061   0.877   0.326   2.642  0.4712  0.3003 -0.3612
 1498SOL     OW 6062   1.102   0.478   2.727  0.1937 -0.0308  0.0468
 1498SOL    HW2 6063   1.077   0.567   2.703 -0.4561  0.2030  1.5248
 1498SOL    HW3 6064   1.033   0.422   2.690 -1.0359  0.3656  1.6400
 1498SOL    MW4 6065   1.089   0.482   2.719 -0.0542  0.0523  0.4520
 1499SOL     OW 6066   1.063   0.746   2.632  0.2041 -0.2479  0.0779
 1499SOL    HW2 6067   1.142   0.795   2.657  3.2949 -4.8356 -0.0664
 1499SOL    HW3 6068   1.067   0.742   2.536 -0.1300 -0.6089  0.0783
 1499SOL    MW4 6069   1.074   0.752   2.622  0.5678 -0.9008  0.0587
 1500SOL     OW 6070   0.870   0.905   2.736 -0.0961 -0.2730 -0.0876
 1500SOL    HW2 6071   0.890   0.917   2.828 -0.9569  0.7580 -0.0248
 1500SOL    HW3 6072   0.941   0.851   2.702  0.2352 -0.6245  1.1659
 1500SOL    MW4 6073   0.882   0.899   2.743 -0.1659 -0.1833  0.0861
 1501SOL     OW 6074   0.896   1.168   2.675  0.0519  0.5460 -0.2500
 1501SOL    HW2 6075   0.885   1.076   2.697 -1.0737  0.3117 -1.7380
 1501SOL    HW3 6076   0.894   1.171   2.580  1.0092  1.9972 -0.2391
 1501SOL    MW4 6077   0.894   1.156   2.666  0.0297  0.7066 -0.4451
 1502SOL     OW 6078   1.116   1.273   2.804 -0.2360  0.1153 -0.3263
 1502SOL    HW2 6079   1.136   1.361   2.771 -0.1053 -0.1997 -1.1042
 1502SOL    HW3 6080   1.038   1.246   2.755 -0.8264  0.1765  0.5925
 1502SOL    MW4 6081   1.109   1.281   2.793 -0.2967  0.0818 -0.3078
 1503SOL     OW 6082   1.096   1.521   2.683 -0.1428  0.2693  0.6447
 1503SOL    HW2 6083   1.022   1.573   2.714 -1.2910 -1.6858  1.2872
 1503SOL    HW3 6084   1.089   1.525   2.587 -0.6454  0.7332  0.6971
 1503SOL    MW4 6085   1.085   1.528   2.674 -0.3606  0.0725  0.7362
 1504SOL     OW 6086   0.863   1.688   2.748 -0.3453 -0.0224  0.3989
 1504SOL    HW2 6087   0.849   1.678   2.842  1.1521  0.1111  0.6577
 1504SOL    HW3 6088   0.795   1.634   2.707 -0.4137 -0.8459  1.5770
 1504SOL    MW4 6089   0.852   1.680   2.755 -0.1567 -0.1136  0.5884
 1505SOL     OW 6090   0.841   1.954   2.646  0.2208  0.3032 -0.1329
 1505SOL    HW2 6091   0.929   1.984   2.669  0.0219  0.3829  0.5248
 1505SOL    HW3 6092   0.830   1.871   2.692  0.1177  0.0741 -0.5685
 1505SOL    MW4 6093   0.851   1.947   2.655  0.1810  0.2834 -0.1035
 1506SOL     OW 6094   1.088   2.032   2.698 -0.0904  0.0449  0.3117
 1506SOL    HW2 6095   1.167   1.995   2.659  1.0492  0.1694  2.3984
 1506SOL    HW3 6096   1.100   2.127   2.692 -1.4606  0.0799 -2.0262
 1506SOL    MW4 6097   1.100   2.040   2.692 -0.1206  0.0660  0.2787
 1507SOL     OW 6098   1.134   2.293   2.663 -0.3949 -0.2810  0.0570
 1507SOL    HW2 6099   1.190   2.364   2.693  0.8409 -1.5910  0.9195
 1507SOL    HW3 6100   1.150   2.287   2.569  0.0076  0.1459  0.0983
 1507SOL    MW4 6101   1.143   2.301   2.655 -0.1788 -0.3977  0.1762
 1508SOL     OW 6102   0.888   2.420   2.726  0.4458  0.0384 -0.2692
 1508SOL    HW2 6103   0.902   2.514   2.711  0.9606 -0.0937 -0.6129
 1508SOL    HW3 6104   0.965   2.378   2.689 -0.4712 -0.6352 -1.4600
 1508SOL    MW4 6105   0.900   2.427   2.719  0.3927 -0.0679 -0.4716
 1509SOL     OW 6106   0.879   2.675   2.637  0.0848  0.2111 -0.1312
 1509SOL    HW2 6107   0.945   2.730   2.681  0.0434 -1.7098  2.4663
 1509SOL    HW3 6108   0.795   2.705   2.671 -0.1305  0.2542 -0.6897
 1509SOL    MW4 6109   0.877   2.686   2.647  0.0510 -0.0367  0.1380
 1510SOL     OW 6110   1.083   2.832   2.735  0.0000  0.0000 -0.3508
 1510SOL    HW2 6111   1.106   2.825   2.827  0.0000  0.0000 -0.3551
 1510SOL    HW3 6112   1.159   2.795   2.689  0.0000  0.0000 -0.3658
 1510SOL    MW4 6113   1.096   2.826   2.741  0.0000  0.0000 -0.3533
 1511SOL     OW 6114   1.148   3.096   2.625  0.0000  0.0000 -0.2157
 1511SOL    HW2 6115   1.122   3.007   2.648  0.0000  0.0000 -0.2266
 1511SOL    HW3 6116   1.136   3.101   2.530  0.0000  0.0000 -0.2158
 1511SOL    MW4 6117   1.143   3.085   2.616  0.0000  0.0000 -0.2170
 1512SOL     OW 6118   0.919   3.208   2.751  0.0000  0.0000 -0.2084
 1512SOL    HW2 6119   0.903   3.287   2.699  0.0000  0.0000 -0.1989
 1512SOL    HW3 6120   1.006   3.179   2.723  0.0000  0.0000 -0.2338
 1512SOL    MW4 6121   0.928   3.215   2.741  0.0000  0.0000 -0.2105
 1513SOL     OW 6122   0.887   3.462   2.629  0.0000  0.0000  0.6035
 1513SOL    HW2 6123   0.961   3.508   2.671  0.0000  0.0000  0.5960
 1513SOL    HW3 6124   0.810   3.512   2.657  0.0000  0.0000  0.5746
 1513SOL    MW4 6125   0.887   3.475   2.638  0.0000  0.0000  0.5989
 1514SOL     OW 6126   1.102   3.599   2.736  0.0000  0.0000 -0.2986
 1514SOL    HW2 6127   1.101   3.626   2.828  0.0000  0.0000 -0.2998
 1514SOL    HW3 6128   1.100   3.681   2.687  0.0000  0.0000 -0.3028
 1514SOL    MW4 6129   1.102   3.613   2.742  0.0000  0.0000 -0.2992
 1515SOL     OW 6130   1.098   3.851   2.617  0.0000  0.0000  0.4371
 1515SOL    HW2 6131   1.178   3.889   2.655  0.0000  0.0000  0.4332
 1515SOL    HW3 6132   1.110   3.859   2.522  0.0000  0.0000  0.4366
 1515SOL    MW4 6133   1.110   3.857   2.610  0.0000  0.0000  0.4368
 1516SOL     OW 6134   0.893   4.008   2.721  0.0000  0.0000 -0.5234
 1516SOL    HW2 6135   0.957   3.963   2.666  0.0000  0.0000 -0.5226
 1516SOL    HW3 6136   0.809   3.969   2.696  0.0000  0.0000 -0.5344
 1516SOL    MW4 6137   0.890   3.997   2.711  0.0000  0.0000 -0.5248
 1517SOL     OW 6138   0.888   4.266   2.633  0.0000  0.0000  0.0586
 1517SOL    HW2 6139   0.892   4.174   2.658  0.0000  0.0000  0.0545
 1517SOL    HW3 6140   0.884   4.265   2.538  0.0000  0.0000  0.0584
 1517SOL    MW4 6141   0.888   4.254   2.624  0.0000  0.0000  0.0579
 1518SOL     OW 6142   1.144   4.351   2.713  0.0000  0.0000  0.3897
 1518SOL    HW2 6143   1.137   4.378   2.805  0.0000  0.0000  0.3905
 1518SOL    HW3 6144   1.055   4.327   2.688  0.0000  0.0000  0.3803
 1518SOL    MW4 6145   1.131   4.351   2.722  0.0000  0.0000  0.3884
 1519SOL     OW 6146   1.544   0.013   2.664  0.1371 -0.5135  0.2544
 1519SOL    HW2 6147   1.559  -0.077   2.696 -0.3152 -0.7720 -0.2568
 1519SOL    HW3 6148   1.549   0.006   2.569 -1.1598 -0.2299  0.1528
 1519SOL    MW4 6149   1.547  -0.000   2.656 -0.0938 -0.5101  0.1733
 1520SOL     OW 6150   1.301   0.111   2.739 -0.0297  0.1110 -0.1736
 1520SOL    HW2 6151   1.308   0.194   2.692  1.5859  0.2172  0.2235
 1520SOL    HW3 6152   1.389   0.073   2.732 -0.6969 -1.4631 -0.1735
 1520SOL    MW4 6153   1.314   0.117   2.732  0.0954 -0.0826 -0.1214
 1521SOL     OW 6154   1.340   0.383   2.631 -0.2884 -0.0076  0.4783
 1521SOL    HW2 6155   1.415   0.425   2.674 -0.9301  1.3250  0.3252
 1521SOL    HW3 6156   1.264   0.422   2.673 -0.9269  1.3094 -1.8312
 1521SOL    MW4 6157   1.340   0.394   2.642 -0.4574  0.3420  0.1533
 1522SOL     OW 6158   1.557   0.488   2.775  0.0542 -0.2305  0.0653
 1522SOL    HW2 6159   1.628   0.436   2.737  1.3901  0.0153  2.1473
 1522SOL    HW3 6160   1.567   0.575   2.736  0.3462 -0.4363 -0.3158
 1522SOL    MW4 6161   1.568   0.493   2.765  0.2689 -0.2252  0.2899
 1523SOL     OW 6162   1.552   0.742   2.662  0.2571 -0.3518 -0.4198
 1523SOL    HW2 6163   1.472   0.780   2.698  0.9775  1.2389 -0.4812
 1523SOL    HW3 6164   1.534   0.733   2.569  0.5256  0.9288 -0.5890
 1523SOL    MW4 6165   1.539   0.746   2.655  0.3875  0.0270 -0.4504
 1524SOL     OW 6166   1.293   0.885   2.732 -0.0187  0.1752  0.0294
 1524SOL    HW2 6167   1.314   0.888   2.825 -0.6816  0.7404  0.1613
 1524SOL    HW3 6168   1.309   0.974   2.700  1.1463 -0.2564 -0.6034
 1524SOL    MW4 6169   1.298   0.897   2.740  0.0476  0.1929 -0.0367
 1525SOL     OW 6170   1.320   1.147   2.648  0.1917 -0.2141 -0.7873
 1525SOL    HW2 6171   1.397   1.191   2.683 -0.2948  0.0620 -0.0516
 1525SOL    HW3 6172   1.249   1.173   2.706 -0.3281 -1.0107 -1.0545
 1525SOL    MW4 6173   1.321   1.156   2.660  0.0589 -0.2829 -0.7255
 1526SOL     OW 6174   1.577   1.268   2.722  0.2757  0.2436 -0.0826
 1526SOL    HW2 6175   1.575   1.267   2.818 -0.7052 -0.8122 -0.0939
 1526SOL    HW3 6176   1.648   1.209   2.699 -1.2020 -1.6391  0.0014
 1526SOL    MW4 6177   1.586   1.260   2.731 -0.0488 -0.1441 -0.0730
 1527SOL     OW 6178   1.577   1.542   2.669  0.2064 -0.5350 -0.3045
 1527SOL    HW2 6179   1.581   1.448   2.684 -0.5146 -0.6045 -0.5144
 1527SOL    HW3 6180   1.584   1.551   2.574 -1.2097 -0.4723 -0.4094
 1527SOL    MW4 6181   1.579   1.531   2.658 -0.0756 -0.5358 -0.3462
 1528SOL     OW 6182   1.325   1.663   2.734  0.4179  0.3064 -0.0984
 1528SOL    HW2 6183   1.405   1.615   2.711  0.6769  1.5187 -1.8713
 1528SOL    HW3 6184   1.254   1.603   2.712  0.8071 -0.1989  0.0157
 1528SOL    MW4 6185   1.326   1.649   2.728  0.5035  0.3998 -0.3173
 1529SOL     OW 6186   1.311   1.909   2.622  0.1070 -0.4369 -0.0470
 1529SOL    HW2 6187   1.316   1.829   2.673 -2.2693 -0.3607  0.3634
 1529SOL    HW3 6188   1.304   1.879   2.531  0.8813 -0.6411 -0.0446
 1529SOL    MW4 6189   1.311   1.895   2.617 -0.1044 -0.4539  0.0072
 1530SOL     OW 6190   1.545   2.073   2.653  0.0753 -0.3023 -0.0053
 1530SOL    HW2 6191   1.629   2.028   2.650  0.3808  0.1905  0.9743
 1530SOL    HW3 6192   1.482   2.008   2.622  0.7396 -0.8477 -0.2282
 1530SOL    MW4 6193   1.548   2.059   2.648  0.2033 -0.3092  0.0944
 1531SOL     OW 6194   1.545   2.354   2.588  0.1149  0.5471 -0.4578
 1531SOL    HW2 6195   1.624   2.389   2.627 -0.4400 -0.0348  1.2140
 1531SOL    HW3 6196   1.548   2.260   2.607 -1.0172  0.5363 -0.2876
 1531SOL    MW4 6197   1.556   2.346   2.595 -0.1078  0.4690 -0.2146
 1532SOL     OW 6198   1.326   2.474   2.729 -0.3459 -0.0444  0.4461
 1532SOL    HW2 6199   1.312   2.553   2.676 -1.0214 -0.7485 -0.4279
 1532SOL    HW3 6200   1.405   2.435   2.693 -0.5329 -0.2632  0.2737
 1532SOL    MW4 6201   1.335   2.479   2.717 -0.4598 -0.1662  0.3080
 1533SOL     OW 6202   1.304   2.729   2.618 -0.3223  0.1526 -0.1120
 1533SOL    HW2 6203   1.389   2.773   2.616 -0.6040  0.7221  0.5437
 1533SOL    HW3 6204   1.290   2.701   2.528  1.9410 -2.5800  0.3204
 1533SOL    MW4 6205   1.313   2.731   2.606 -0.0609 -0.1328  0.0317
 1534SOL     OW 6206   1.601   2.858   2.692 -0.0608  0.3953  0.3695
 1534SOL    HW2 6207   1.599   2.863   2.788  1.9922  1.9756  0.3612
 1534SOL    HW3 6208   1.674   2.800   2.672  0.3191  1.0606 -0.2344
 1534SOL    MW4 6209   1.610   2.851   2.702  0.2601  0.6914  0.2887
 1535SOL     OW 6210   1.573   3.129   2.609 -0.2681 -0.2002 -0.2456
 1535SOL    HW2 6211   1.648   3.174   2.648 -0.1876 -0.4092 -0.1564
 1535SOL    HW3 6212   1.582   3.038   2.638 -0.8882 -0.1038  0.2622
 1535SOL    MW4 6213   1.584   3.123   2.618 -0.3393 -0.2148 -0.1667
 1536SOL     OW 6214   1.349   3.240   2.743 -0.0079  0.3230 -0.4041
 1536SOL    HW2 6215   1.427   3.197   2.709  0.2539  1.0711 -0.7606
 1536SOL    HW3 6216   1.276   3.189   2.707  0.3088 -0.4613  0.0444
 1536SOL    MW4 6217   1.350   3.227   2.734  0.0685  0.3183 -0.3922
 1537SOL     OW 6218   1.324   3.473   2.602 -0.2038  0.4162  0.2549
 1537SOL    HW2 6219   1.324   3.394   2.657 -0.0476  0.0209 -0.3111
 1537SOL    HW3 6220   1.253   3.527   2.637  0.3424  0.4767  1.2926
 1537SOL    MW4 6221   1.314   3.470   2.614 -0.1112  0.3719  0.3171
 1538SOL     OW 6222   1.548   3.630   2.710 -0.3341  0.2384  0.0883
 1538SOL    HW2 6223   1.630   3.588   2.685  0.2448  1.5363 -0.1994
 1538SOL    HW3 6224   1.481   3.580   2.663  0.3911 -0.0154 -0.6939
 1538SOL    MW4 6225   1.550   3.618   2.700 -0.1620  0.3762 -0.0529
 1539SOL     OW 6226   1.550   3.886   2.606  0.2130  0.3036  0.3924
 1539SOL    HW2 6227   1.466   3.930   2.619 -1.2793 -2.0390 -0.9443
 1539SOL    HW3 6228   1.542   3.804   2.655 -0.2229 -2.1857 -3.5735
 1539SOL    MW4 6229   1.538   3.881   2.614 -0.0415 -0.3340 -0.3071
 1540SOL     OW 6230   1.329   3.992   2.706  0.1841  0.1689  0.3275
 1540SOL    HW2 6231   1.351   4.003   2.798 -2.9190  0.0535  1.1406
 1540SOL    HW3 6232   1.312   4.081   2.675  0.2116  0.1145  0.1594
 1540SOL    MW4 6233   1.330   4.005   2.714 -0.2217  0.1464  0.4127
 1541SOL     OW 6234   1.399   4.271   2.615 -0.1206 -0.0671 -0.0031
 1541SOL    HW2 6235   1.311   4.297   2.645 -0.1711  0.0469 -0.2461
 1541SOL    HW3 6236   1.391   4.267   2.520  0.1607  0.0211 -0.0300
 1541SOL    MW4 6237   1.386   4.274   2.607 -0.0902 -0.0401 -0.0389
 1542SOL     OW 6238   1.612   4.409   2.754 -0.4237 -0.1173  0.2880
 1542SOL    HW2 6239   1.585   4.418   2.845 -0.4461 -0.0570  0.2757
 1542SOL    HW3 6240   1.538   4.368   2.711 -0.2069 -0.6228  0.4024
 1542SOL    MW4 6241   1.599   4.405   2.760 -0.3980 -0.1755  0.3014
 1543SOL     OW 6242   1.966   4.648   2.644  0.3942 -0.1533 -0.3260
 1543SOL    HW2 6243   2.039   4.693   2.687 -0.4289  0.8143  0.0754
 1543SOL    HW3 6244   1.989   4.647   2.552  0.7359  0.4874 -0.2515
 1543SOL    MW4 6245   1.978   4.653   2.638  0.3308  0.0587 -0.2632
 1544SOL     OW 6246   1.780   0.104   2.787 -0.5377  0.1117 -0.2446
 1544SOL    HW2 6247   1.842   0.049   2.739  0.1637 -0.1324  0.9436
 1544SOL    HW3 6248   1.694   0.076   2.754 -0.0923 -0.4304 -0.9674
 1544SOL    MW4 6249   1.777   0.093   2.776 -0.3865  0.0080 -0.1831
 1545SOL     OW 6250   1.778   0.352   2.670 -0.0235 -0.4056 -0.2769
 1545SOL    HW2 6251   1.848   0.398   2.716 -0.4334  0.1435 -0.1909
 1545SOL    HW3 6252   1.780   0.263   2.706 -0.2392 -0.0219  0.7117
 1545SOL    MW4 6253   1.787   0.347   2.681 -0.1061 -0.2825 -0.1352
 1546SOL     OW 6254   1.995   0.500   2.773  0.2021 -0.3081  0.0680
 1546SOL    HW2 6255   2.068   0.464   2.722  0.2666 -0.4284  0.2487
 1546SOL    HW3 6256   1.961   0.570   2.717  0.9989  0.3249  0.3604
 1546SOL    MW4 6257   2.000   0.504   2.759  0.3157 -0.2404  0.1304
 1547SOL     OW 6258   1.947   0.735   2.633 -0.3509  0.0251  0.4275
 1547SOL    HW2 6259   1.882   0.795   2.667  0.6292  0.6947  1.1484
 1547SOL    HW3 6260   1.976   0.774   2.551 -1.2254 -0.5398 -0.1562
 1547SOL    MW4 6261   1.942   0.748   2.627 -0.3369  0.0390  0.4454
 1548SOL     OW 6262   1.770   0.882   2.751  0.6867  0.0652  0.6553
 1548SOL    HW2 6263   1.775   0.969   2.711  1.1057 -0.3014 -0.0971
 1548SOL    HW3 6264   1.683   0.851   2.729  0.9958 -0.2285 -0.1810
 1548SOL    MW4 6265   1.759   0.890   2.743  0.7827 -0.0219  0.4458
 1549SOL     OW 6266   1.796   1.130   2.644  0.4646 -0.5142  0.2951
 1549SOL    HW2 6267   1.879   1.167   2.674  0.5002 -0.7147  0.4385
 1549SOL    HW3 6268   1.791   1.155   2.552  1.1076 -1.2709  0.0512
 1549SOL    MW4 6269   1.806   1.138   2.636  0.5540 -0.6406  0.2818
 1550SOL     OW 6270   2.034   1.254   2.732 -0.2150  0.1220  0.1250
 1550SOL    HW2 6271   2.033   1.249   2.827 -1.7436 -0.6019  0.0886
 1550SOL    HW3 6272   2.108   1.200   2.705 -0.4724 -0.6156  0.8715
 1550SOL    MW4 6273   2.043   1.246   2.741 -0.4506 -0.0707  0.2189
 1551SOL     OW 6274   2.043   1.497   2.618 -0.0164 -0.4851  0.0547
 1551SOL    HW2 6275   1.972   1.550   2.653 -0.3391 -0.7564 -0.1802
 1551SOL    HW3 6276   2.031   1.412   2.659  0.0403 -0.5924 -0.1525
 1551SOL    MW4 6277   2.032   1.493   2.628 -0.0513 -0.5351 -0.0036
 1552SOL     OW 6278   1.842   1.647   2.728 -0.1897  0.0567  0.1525
 1552SOL    HW2 6279   1.852   1.638   2.823  0.3432 -0.0199  0.0862
 1552SOL    HW3 6280   1.748   1.633   2.714 -0.3043  0.2572  0.6871
 1552SOL    MW4 6281   1.831   1.644   2.739 -0.1346  0.0730  0.2143
 1553SOL     OW 6282   1.789   1.925   2.626 -0.0642 -0.1251 -0.4183
 1553SOL    HW2 6283   1.871   1.971   2.643 -1.5749  2.5110 -0.1150
 1553SOL    HW3 6284   1.797   1.844   2.677  1.1674  1.4260  1.9720
 1553SOL    MW4 6285   1.801   1.920   2.635 -0.1010  0.4275 -0.0629
 1554SOL     OW 6286   2.036   2.042   2.714 -0.1321 -0.5985  0.2695
 1554SOL    HW2 6287   2.023   2.050   2.808  1.9061 -1.7413  0.6984
 1554SOL    HW3 6288   2.027   2.131   2.680 -0.3135 -0.0936  1.6260
 1554SOL    MW4 6289   2.033   2.055   2.722  0.1128 -0.6824  0.5050
 1555SOL     OW 6290   2.037   2.303   2.636  0.3089 -0.2940  0.0274
 1555SOL    HW2 6291   2.114   2.349   2.673  0.2514 -0.0994 -0.0954
 1555SOL    HW3 6292   2.038   2.326   2.543  0.5312 -0.8974 -0.1234
 1555SOL    MW4 6293   2.048   2.312   2.629  0.3307 -0.3479 -0.0086
 1556SOL     OW 6294   1.809   2.457   2.709 -0.2426  0.1610  0.3809
 1556SOL    HW2 6295   1.810   2.448   2.804  1.7522 -1.5526  0.2224
 1556SOL    HW3 6296   1.894   2.424   2.680  0.6528  3.9770 -1.7518
 1556SOL    MW4 6297   1.820   2.451   2.718  0.1388  0.4385  0.0787
 1557SOL     OW 6298   1.826   2.707   2.618  0.0655  0.1467  0.0641
 1557SOL    HW2 6299   1.815   2.619   2.655  1.5155  0.1932  0.6130
 1557SOL    HW3 6300   1.814   2.695   2.524  0.4684 -0.6688  0.1163
 1557SOL    MW4 6301   1.823   2.694   2.610  0.3099  0.0453  0.1435
 1558SOL     OW 6302   2.023   2.854   2.742 -0.1405 -0.1947 -0.2712
 1558SOL    HW2 6303   2.101   2.803   2.720  0.8936  0.8841  0.8155
 1558SOL    HW3 6304   1.952   2.813   2.691  0.6475 -2.6945  0.5760
 1558SOL    MW4 6305   2.024   2.841   2.732  0.0997 -0.3824 -0.0160
 1559SOL     OW 6306   2.010   3.097   2.622  0.3305 -0.4400 -0.0801
 1559SOL    HW2 6307   2.030   3.013   2.663 -2.6917 -0.3325  1.7406
 1559SOL    HW3 6308   1.993   3.075   2.531  1.7797 -1.4665 -0.1284
 1559SOL    MW4 6309   2.011   3.083   2.616  0.1230 -0.5612  0.1538
 1560SOL     OW 6310   1.794   3.244   2.717  0.1007  0.2750 -0.3286
 1560SOL    HW2 6311   1.815   3.337   2.704 -0.7719  0.6132  0.6548
 1560SOL    HW3 6312   1.876   3.198   2.696  1.4135  1.4646  2.0505
 1560SOL    MW4 6313   1.808   3.250   2.712  0.1588  0.4768  0.1149
 1561SOL     OW 6314   1.799   3.516   2.643 -0.3470 -0.5400 -0.3155
 1561SOL    HW2 6315   1.881   3.556   2.672 -0.4380 -1.1494  0.7807
 1561SOL    HW3 6316   1.806   3.515   2.547 -0.4171  2.2430 -0.3938
 1561SOL    MW4 6317   1.810   3.521   2.634 -0.3682 -0.2534 -0.1810
 1562SOL     OW 6318   2.019   3.623   2.762 -0.1145 -0.2045  0.2048
 1562SOL    HW2 6319   2.020   3.620   2.857 -0.2574  0.7115  0.2412
 1562SOL    HW3 6320   2.105   3.591   2.736  0.8914  1.9696  0.7317
 1562SOL    MW4 6321   2.030   3.618   2.771 -0.0007  0.2031  0.2792
 1563SOL     OW 6322   2.002   3.908   2.666  0.0496 -0.0156 -0.1474
 1563SOL    HW2 6323   1.922   3.959   2.681  0.1916  0.6041 -1.4635
 1563SOL    HW3 6324   1.987   3.826   2.712 -1.2654  0.1790 -0.2121
 1563SOL    MW4 6325   1.990   3.904   2.674 -0.1051  0.0916 -0.3295
 1564SOL     OW 6326   1.762   4.027   2.749 -0.1053 -0.1079  0.2390
 1564SOL    HW2 6327   1.781   4.113   2.711  0.7312 -0.6340 -0.5539
 1564SOL    HW3 6328   1.706   3.984   2.686 -0.3068 -0.2484  0.5137
 1564SOL    MW4 6329   1.757   4.033   2.736 -0.0215 -0.1960  0.1705
 1565SOL     OW 6330   1.801   4.263   2.624  0.4309  0.2259  0.1406
 1565SOL    HW2 6331   1.738   4.321   2.666 -1.3317 -1.3378 -0.2951
 1565SOL    HW3 6332   1.797   4.286   2.531  0.4804  0.1068  0.1087
 1565SOL    MW4 6333   1.792   4.273   2.618  0.2048  0.0038  0.0789
 1566SOL     OW 6334   2.038   4.396   2.742 -0.1655 -0.2198  0.2316
 1566SOL    HW2 6335   1.980   4.333   2.699 -0.9725  0.2748  0.5724
 1566SOL    HW3 6336   2.016   4.480   2.701  1.9101 -0.3535 -1.2530
 1566SOL    MW4 6337   2.027   4.399   2.731  0.0019 -0.1726  0.0806
 1567SOL     OW 6338   2.447   4.648   2.712  0.4966 -0.6862 -0.3049
 1567SOL    HW2 6339   2.521   4.704   2.734 -0.8728  1.3178 -0.6167
 1567SOL    HW3 6340   2.452   4.639   2.617  0.0479 -0.1369 -0.3791
 1567SOL    MW4 6341   2.457   4.654   2.702  0.2568 -0.3490 -0.3557
 1568SOL     OW 6342   2.188   0.099   2.747 -0.3233  0.6452  0.2268
 1568SOL    HW2 6343   2.159   0.114   2.837  0.5990  3.1011  0.1450
 1568SOL    HW3 6344   2.277   0.065   2.756  0.4772  2.7219  0.1931
 1568SOL    MW4 6345   2.196   0.096   2.760 -0.0961  1.2432  0.2117
 1569SOL     OW 6346   2.219   0.376   2.672 -0.0629  0.0600  0.0348
 1569SOL    HW2 6347   2.201   0.282   2.675  0.5689 -0.0639 -0.0665
 1569SOL    HW3 6348   2.223   0.397   2.579 -0.7562  0.2995  0.0520
 1569SOL    MW4 6349   2.217   0.366   2.660 -0.0710  0.0753  0.0236
 1570SOL     OW 6350   2.461   0.486   2.757 -0.4712 -0.3600 -0.0591
 1570SOL    HW2 6351   2.452   0.575   2.723  1.3749 -0.0623  0.1540
 1570SOL    HW3 6352   2.382   0.441   2.729 -1.9516  1.6546  0.7944
 1570SOL    MW4 6353   2.450   0.492   2.749 -0.4230 -0.0549  0.0818
 1571SOL     OW 6354   2.439   0.736   2.639 -0.1629  0.5242 -0.2931
 1571SOL    HW2 6355   2.357   0.779   2.665 -0.6222 -0.5940  0.1233
 1571SOL    HW3 6356   2.440   0.743   2.544 -0.7475  0.5296 -0.3009
 1571SOL    MW4 6357   2.429   0.743   2.630 -0.3006  0.3774 -0.2391
 1572SOL     OW 6358   2.199   0.857   2.728 -0.0377  0.4285  0.0635
 1572SOL    HW2 6359   2.191   0.888   2.818 -0.6653  0.3965  0.0180
 1572SOL    HW3 6360   2.127   0.796   2.717  0.4477 -0.0932 -0.2499
 1572SOL    MW4 6361   2.189   0.853   2.738 -0.0565  0.3554  0.0162
 1573SOL     OW 6362   2.245   1.118   2.652  0.0073  0.2944 -0.4237
 1573SOL    HW2 6363   2.231   1.026   2.672  0.1862 -0.0741 -1.9193
 1573SOL    HW3 6364   2.246   1.122   2.556  2.4980  1.4342 -0.3979
 1573SOL    MW4 6365   2.244   1.106   2.642  0.3598  0.3960 -0.6177
 1574SOL     OW 6366   2.475   1.261   2.761 -0.2496  0.3104  0.3494
 1574SOL    HW2 6367   2.560   1.224   2.734  0.2258  2.1703 -0.8639
 1574SOL    HW3 6368   2.410   1.202   2.723  0.5008 -0.3944  0.1464
 1574SOL    MW4 6369   2.478   1.249   2.752 -0.0877  0.4629  0.1626
 1575SOL     OW 6370   2.475   1.505   2.602  0.2437  0.2442  0.3193
 1575SOL    HW2 6371   2.401   1.542   2.650 -0.3292  0.4325 -0.7021
 1575SOL    HW3 6372   2.479   1.414   2.630 -0.4665  0.1966  0.2658
 1575SOL    MW4 6373   2.466   1.498   2.612  0.0744  0.2627  0.1776
 1576SOL     OW 6374   2.265   1.630   2.733  0.2218 -0.2356  0.2384
 1576SOL    HW2 6375   2.268   1.718   2.694 -0.9690 -0.1511  0.3373
 1576SOL    HW3 6376   2.183   1.593   2.702  0.4846 -1.1367  0.6114
 1576SOL    MW4 6377   2.255   1.637   2.724  0.0997 -0.3433  0.3004
 1577SOL     OW 6378   2.243   1.887   2.616 -0.3010  0.0991  0.0199
 1577SOL    HW2 6379   2.176   1.940   2.660 -0.1868 -0.4301  0.8404
 1577SOL    HW3 6380   2.238   1.914   2.524 -0.4177  1.3532  0.3781
 1577SOL    MW4 6381   2.233   1.898   2.610 -0.3014  0.1947  0.1752
 1578SOL     OW 6382   2.496   2.021   2.669  0.3180  0.4489 -0.3349
 1578SOL    HW2 6383   2.460   2.109   2.653 -0.8028 -0.0743 -0.7222
 1578SOL    HW3 6384   2.426   1.961   2.645  0.4956 -0.5246  1.4663
 1578SOL    MW4 6385   2.482   2.025   2.664  0.1936  0.2515 -0.1488
 1579SOL     OW 6386   2.418   2.288   2.646  0.5035  0.1224  0.0597
 1579SOL    HW2 6387   2.503   2.323   2.672 -0.3780  1.5028  1.1503
 1579SOL    HW3 6388   2.415   2.299   2.551  0.9969  1.3477  0.1776
 1579SOL    MW4 6389   2.428   2.294   2.637  0.4525  0.4663  0.2193
 1580SOL     OW 6390   2.239   2.473   2.744  0.0221  0.2234 -0.1617
 1580SOL    HW2 6391   2.227   2.457   2.837  1.5207  0.1469  0.0295
 1580SOL    HW3 6392   2.302   2.407   2.716  0.6303  1.1164 -0.9316
 1580SOL    MW4 6393   2.246   2.462   2.753  0.3002  0.3312 -0.2379
 1581SOL     OW 6394   2.256   2.721   2.612 -0.1606  0.5109 -0.4051
 1581SOL    HW2 6395   2.314   2.766   2.673 -2.0012  1.1985  0.8954
 1581SOL    HW3 6396   2.245   2.634   2.649 -0.0584  0.4281 -0.5719
 1581SOL    MW4 6397   2.262   2.716   2.625 -0.3903  0.5908 -0.2558
 1582SOL     OW 6398   2.450   2.850   2.753 -0.1104 -0.0954  0.1637
 1582SOL    HW2 6399   2.524   2.801   2.719 -0.0397 -1.5279  2.2605
 1582SOL    HW3 6400   2.447   2.931   2.701  1.1749 -1.2876 -1.7990
 1582SOL    MW4 6401   2.459   2.855   2.742  0.0684 -0.4418  0.1814
 1583SOL     OW 6402   2.455   3.087   2.610 -0.1037 -0.2473 -0.0530
 1583SOL    HW2 6403   2.387   3.147   2.640 -1.3968 -0.9239 -1.5417
 1583SOL    HW3 6404   2.457   3.098   2.515  0.3293 -1.8268 -0.2559
 1583SOL    MW4 6405   2.446   3.096   2.601 -0.2170 -0.5448 -0.2761
 1584SOL     OW 6406   2.230   3.208   2.730  0.1577  0.3216 -0.0609
 1584SOL    HW2 6407   2.222   3.203   2.825  0.0189 -1.4470 -0.1541
 1584SOL    HW3 6408   2.145   3.178   2.697  0.4056  0.3689 -0.7553
 1584SOL    MW4 6409   2.218   3.204   2.738  0.1721  0.0949 -0.1647
 1585SOL     OW 6410   2.214   3.460   2.619 -0.4177 -0.2770  0.2803
 1585SOL    HW2 6411   2.294   3.502   2.651 -0.1506 -0.1056 -0.6049
 1585SOL    HW3 6412   2.207   3.380   2.671  0.5009 -0.4516  0.1545
 1585SOL    MW4 6413   2.224   3.455   2.630 -0.2613 -0.2770  0.1471
 1586SOL     OW 6414   2.425   3.582   2.744  0.0301 -0.1197  0.0763
 1586SOL    HW2 6415   2.433   3.595   2.838  3.5092 -0.2829 -0.1371
 1586SOL    HW3 6416   2.450   3.667   2.706 -1.0919 -0.1288 -0.7027
 1586SOL    MW4 6417   2.429   3.595   2.751  0.3409 -0.1426 -0.0546
 1587SOL     OW 6418   2.466   3.812   2.619 -0.3484  0.5359 -0.2720
 1587SOL    HW2 6419   2.550   3.845   2.651 -0.3464  1.0189 -0.7699
 1587SOL    HW3 6420   2.400   3.860   2.669 -0.3220 -0.1810  0.4502
 1587SOL    MW4 6421   2.468   3.823   2.630 -0.3445  0.5050 -0.2422
 1588SOL     OW 6422   2.267   3.987   2.720  0.2783 -0.1457 -0.1853
 1588SOL    HW2 6423   2.285   3.996   2.814 -0.2991 -0.5940 -0.0292
 1588SOL    HW3 6424   2.175   3.963   2.716  0.4288 -0.6070 -0.8487
 1588SOL    MW4 6425   2.257   3.985   2.732  0.2220 -0.2656 -0.2522
 1589SOL     OW 6426   2.250   4.263   2.633 -0.0915  0.0670 -0.2103
 1589SOL    HW2 6427   2.233   4.174   2.664  2.1855  0.3799  2.1268
 1589SOL    HW3 6428   2.179   4.315   2.670 -0.6262 -0.5057 -0.4032
 1589SOL    MW4 6429   2.238   4.258   2.642  0.1383  0.0329  0.0727
 1590SOL     OW 6430   2.465   4.374   2.739  0.3468 -0.3439 -0.2970
 1590SOL    HW2 6431   2.383   4.343   2.702  0.1263  1.2948 -1.2425
 1590SOL    HW3 6432   2.465   4.469   2.723  2.5374 -0.3436 -0.5360
 1590SOL    MW4 6433   2.455   4.383   2.732  0.6068 -0.1273 -0.4535
 1591SOL     OW 6434   2.941   4.649   2.661 -0.3244 -0.1310 -0.2699
 1591SOL    HW2 6435   3.011   4.698   2.705  0.9575 -0.2039 -2.1941
 1591SOL    HW3 6436   2.948   4.675   2.569  0.0605 -3.5359 -1.2563
 1591SOL    MW4 6437   2.951   4.659   2.655 -0.1047 -0.5898 -0.6540
 1592SOL     OW 6438   2.700   0.089   2.759 -0.4774  0.1011  0.2477
 1592SOL    HW2 6439   2.707   0.099   2.854  0.0247 -0.2056  0.2456
 1592SOL    HW3 6440   2.787   0.062   2.732 -0.6294  0.1633 -0.2998
 1592SOL    MW4 6441   2.712   0.087   2.768 -0.4311  0.0689  0.1750
 1593SOL     OW 6442   2.655   0.314   2.612 -0.2617  0.2472 -0.3473
 1593SOL    HW2 6443   2.682   0.233   2.655 -0.8641 -0.5372 -1.4144
 1593SOL    HW3 6444   2.595   0.356   2.674  0.3617  0.0816  0.3763
 1593SOL    MW4 6445   2.650   0.309   2.626 -0.2589  0.1218 -0.3927
 1594SOL     OW 6446   2.867   0.479   2.695  0.0690 -0.4470 -0.1315
 1594SOL    HW2 6447   2.869   0.573   2.677  1.7646 -0.5279 -0.4428
 1594SOL    HW3 6448   2.783   0.450   2.661 -1.4001  1.3051  1.8400
 1594SOL    MW4 6449   2.856   0.488   2.688  0.0989 -0.2265  0.0877
 1595SOL     OW 6450   2.902   0.746   2.647 -0.0386 -0.5021  0.0512
 1595SOL    HW2 6451   2.968   0.786   2.704 -0.9893 -0.8011  1.3820
 1595SOL    HW3 6452   2.826   0.805   2.653 -0.1908 -0.5961 -0.8272
 1595SOL    MW4 6453   2.900   0.759   2.655 -0.1843 -0.5540  0.1109
 1596SOL     OW 6454   2.681   0.900   2.706  0.0690  0.3243 -0.2121
 1596SOL    HW2 6455   2.676   0.880   2.800  0.4495  0.7820 -0.0946
 1596SOL    HW3 6456   2.603   0.858   2.669 -0.6653  1.0686  0.4712
 1596SOL    MW4 6457   2.670   0.892   2.714  0.0219  0.4829 -0.1063
 1597SOL     OW 6458   2.694   1.142   2.599  0.4590 -0.6558  0.1727
 1597SOL    HW2 6459   2.762   1.187   2.650  0.9989 -1.1412 -0.1153
 1597SOL    HW3 6460   2.687   1.055   2.638  0.9154 -1.0517 -0.6041
 1597SOL    MW4 6461   2.702   1.137   2.611  0.5908 -0.7721  0.0319
 1598SOL     OW 6462   2.930   1.268   2.735  0.3844 -0.2399 -0.2538
 1598SOL    HW2 6463   2.919   1.283   2.829 -0.1288  0.6908 -0.4660
 1598SOL    HW3 6464   3.018   1.229   2.728 -0.4202 -2.3200  0.8223
 1598SOL    MW4 6465   2.940   1.265   2.747  0.2105 -0.3917 -0.1400
 1599SOL     OW 6466   2.929   1.524   2.607  0.0128 -0.4676  0.3571
 1599SOL    HW2 6467   2.853   1.568   2.646  0.5488  1.0253 -0.2237
 1599SOL    HW3 6468   2.930   1.437   2.646 -3.2510 -1.2945 -1.2188
 1599SOL    MW4 6469   2.919   1.519   2.617 -0.3474 -0.3797  0.0727
 1600SOL     OW 6470   2.699   1.641   2.699  0.2138  0.1510 -0.3994
 1600SOL    HW2 6471   2.682   1.654   2.792  1.4760 -1.4589  0.0748
 1600SOL    HW3 6472   2.618   1.604   2.664 -0.1040  0.3349  0.1541
 1600SOL    MW4 6473   2.686   1.638   2.706  0.3383 -0.0372 -0.2637
 1601SOL     OW 6474   2.714   1.891   2.581 -0.0914  0.2089  0.2648
 1601SOL    HW2 6475   2.711   1.806   2.625  0.4986 -0.3113 -0.6799
 1601SOL    HW3 6476   2.645   1.942   2.623 -3.1370 -2.0219 -1.8188
 1601SOL    MW4 6477   2.704   1.886   2.592 -0.4153 -0.1540 -0.1349
 1602SOL     OW 6478   2.903   2.063   2.696  0.0413 -0.1361  0.1238
 1602SOL    HW2 6479   2.896   2.151   2.661 -1.2287  0.7489  2.4927
 1602SOL    HW3 6480   2.835   2.013   2.650 -1.0440  0.8047  0.6695
 1602SOL    MW4 6481   2.893   2.068   2.686 -0.2694  0.1049  0.5085
 1603SOL     OW 6482   2.897   2.356   2.622 -0.0423 -0.2449 -0.0585
 1603SOL    HW2 6483   2.965   2.403   2.670  0.1563  0.6380 -1.1695
 1603SOL    HW3 6484   2.816   2.377   2.667  0.3064 -0.5554  0.7190
 1603SOL    MW4 6485   2.895   2.365   2.634  0.0300 -0.1693 -0.1025
 1604SOL     OW 6486   2.644   2.447   2.720 -0.2722  0.2573 -0.0832
 1604SOL    HW2 6487   2.653   2.450   2.815  1.5986 -1.9326 -0.1473
 1604SOL    HW3 6488   2.635   2.539   2.694 -1.3578  0.8460  2.2329
 1604SOL    MW4 6489   2.644   2.460   2.729 -0.1686  0.0455  0.2139
 1605SOL     OW 6490   2.659   2.702   2.624  0.1873  0.0175 -0.1429
 1605SOL    HW2 6491   2.737   2.747   2.657  0.8655 -0.4675 -1.0466
 1605SOL    HW3 6492   2.674   2.696   2.529 -0.6552 -0.6507 -0.2351
 1605SOL    MW4 6493   2.671   2.707   2.616  0.1657 -0.1349 -0.2742
 1606SOL     OW 6494   2.893   2.835   2.712  0.5465 -0.3927 -0.0781
 1606SOL    HW2 6495   2.926   2.830   2.802 -0.3125 -1.0329  0.2059
 1606SOL    HW3 6496   2.890   2.929   2.694  0.6203 -0.2508  0.6034
 1606SOL    MW4 6497   2.897   2.847   2.722  0.4427 -0.4585  0.0491
 1607SOL     OW 6498   2.890   3.094   2.653 -0.3388  0.5617  0.0290
 1607SOL    HW2 6499   2.812   3.143   2.679 -0.4519  1.3071 -1.6416
 1607SOL    HW3 6500   2.887   3.094   2.557  0.8752 -0.7616 -0.0235
 1607SOL    MW4 6501   2.879   3.100   2.644 -0.1936  0.4857 -0.1986
 1608SOL     OW 6502   2.673   3.239   2.711  0.3425 -0.0796 -0.4431
 1608SOL    HW2 6503   2.665   3.330   2.682  1.1786  0.3044  0.5163
 1608SOL    HW3 6504   2.592   3.197   2.680  0.2256  0.8444 -1.3973
 1608SOL    MW4 6505   2.661   3.245   2.703  0.4375  0.0932 -0.4423
 1609SOL     OW 6506   2.660   3.498   2.626 -0.1628 -0.0715 -0.1829
 1609SOL    HW2 6507   2.578   3.536   2.658 -0.4458  0.6939 -1.7455
 1609SOL    HW3 6508   2.648   3.493   2.531  1.1863 -0.9652 -0.3166
 1609SOL    MW4 6509   2.647   3.502   2.618 -0.0217 -0.0882 -0.4070
 1610SOL     OW 6510   2.898   3.583   2.735  0.1365 -0.1730  0.9720
 1610SOL    HW2 6511   2.898   3.586   2.831 -1.4758 -0.6313  1.0071
 1610SOL    HW3 6512   2.809   3.555   2.712  0.4396  0.1481 -0.6651
 1610SOL    MW4 6513   2.886   3.580   2.744 -0.0360 -0.1912  0.7606
 1611SOL     OW 6514   2.919   3.846   2.615  0.2193  0.0943  0.2928
 1611SOL    HW2 6515   2.989   3.890   2.662  0.9336  0.2420 -0.8776
 1611SOL    HW3 6516   2.909   3.762   2.659  1.0732  0.1143  0.5343
 1611SOL    MW4 6517   2.927   3.841   2.627  0.4263  0.1163  0.1705
 1612SOL     OW 6518   2.682   3.953   2.737  0.0028 -0.3931  0.0387
 1612SOL    HW2 6519   2.684   4.047   2.724  0.4504 -0.0899  2.1484
 1612SOL    HW3 6520   2.760   3.920   2.694  0.2337  0.2881 -0.0595
 1612SOL    MW4 6521   2.692   3.961   2.730  0.0925 -0.2632  0.3040
 1613SOL     OW 6522   2.699   4.222   2.698  0.1252  0.2700 -0.0258
 1613SOL    HW2 6523   2.775   4.276   2.720  0.4550  0.1612 -0.8513
 1613SOL    HW3 6524   2.623   4.276   2.722  0.4632  0.3247  0.9277
 1613SOL    MW4 6525   2.699   4.236   2.704  0.2136  0.2632 -0.0091
 1614SOL     OW 6526   2.905   4.399   2.774  0.0547  0.0820 -0.4346
 1614SOL    HW2 6527   2.912   4.413   2.868 -0.3680 -0.5329 -0.3067
 1614SOL    HW3 6528   2.917   4.486   2.735 -0.8053  0.5114  0.2403
 1614SOL    MW4 6529   2.907   4.412   2.781 -0.1147  0.0572 -0.3285
 1615SOL     OW 6530   3.362   4.651   2.663  1.0998 -0.0342 -0.1442
 1615SOL    HW2 6531   3.364   4.565   2.707  0.3430 -0.2099 -0.4499
 1615SOL    HW3 6532   3.292   4.699   2.706  1.8921  0.6440  0.4049
 1615SOL    MW4 6533   3.353   4.646   2.674  1.1046  0.0319 -0.1118
 1616SOL     OW 6534   3.140   0.117   2.764  0.1177  0.2590  0.0260
 1616SOL    HW2 6535   3.138   0.098   2.858  2.0180 -0.7823 -0.1224
 1616SOL    HW3 6536   3.118   0.210   2.758 -1.7915 -0.0791  1.3482
 1616SOL    MW4 6537   3.136   0.127   2.775  0.1163  0.0770  0.1807
 1617SOL     OW 6538   3.114   0.381   2.671  0.1066  0.3587 -0.1317
 1617SOL    HW2 6539   3.032   0.425   2.694 -0.0020  0.3017 -0.4086
 1617SOL    HW3 6540   3.120   0.391   2.576  0.0540 -0.2699 -0.2056
 1617SOL    MW4 6541   3.104   0.388   2.661  0.0851  0.2683 -0.1781
 1618SOL     OW 6542   3.351   0.501   2.758 -0.2609 -0.4158  0.4033
 1618SOL    HW2 6543   3.345   0.587   2.716  1.9326 -0.2936  0.2919
 1618SOL    HW3 6544   3.272   0.455   2.730 -0.6718  1.0037 -0.8214
 1618SOL    MW4 6545   3.340   0.506   2.748 -0.0255 -0.2124  0.2270
 1619SOL     OW 6546   3.352   0.766   2.685  0.4192 -0.0865 -0.0172
 1619SOL    HW2 6547   3.438   0.785   2.722  1.7482 -1.8013 -2.0802
 1619SOL    HW3 6548   3.358   0.796   2.594 -0.6666 -1.5490 -0.5831
 1619SOL    MW4 6549   3.364   0.773   2.678  0.4513 -0.5057 -0.3641
 1620SOL     OW 6550   3.099   0.878   2.771 -0.1981  0.1004  0.0680
 1620SOL    HW2 6551   3.095   0.881   2.867  0.6708  0.8171  0.0929
 1620SOL    HW3 6552   3.182   0.834   2.752 -0.3281  0.0384 -0.3608
 1620SOL    MW4 6553   3.110   0.872   2.781 -0.1006  0.1867  0.0148
 1621SOL     OW 6554   3.174   1.117   2.651 -0.1450  0.0026 -0.2327
 1621SOL    HW2 6555   3.145   1.039   2.698 -0.5494  0.2860 -0.0126
 1621SOL    HW3 6556   3.155   1.098   2.559  1.2896 -0.8396 -0.3702
 1621SOL    MW4 6557   3.168   1.104   2.645 -0.0088 -0.0710 -0.2217
 1622SOL     OW 6558   3.372   1.298   2.744 -0.0480 -0.0965  0.0460
 1622SOL    HW2 6559   3.371   1.292   2.839  1.3243 -1.9030 -0.0150
 1622SOL    HW3 6560   3.306   1.235   2.715  0.1216 -0.1548 -0.2190
 1622SOL    MW4 6561   3.363   1.289   2.753  0.1552 -0.3427  0.0029
 1623SOL     OW 6562   3.367   1.541   2.636 -0.2703 -0.1326 -0.4068
 1623SOL    HW2 6563   3.292   1.580   2.682  1.5057  1.0683  1.5281
 1623SOL    HW3 6564   3.371   1.452   2.670  0.2118  0.3316  0.7736
 1623SOL    MW4 6565   3.357   1.534   2.646  0.0274  0.0870  0.0041
 1624SOL     OW 6566   3.133   1.637   2.753  0.1971  0.1313  0.3197
 1624SOL    HW2 6567   3.130   1.731   2.737  1.2983  0.5333  2.2619
 1624SOL    HW3 6568   3.070   1.600   2.692  0.0815  2.0789 -0.7859
 1624SOL    MW4 6569   3.125   1.644   2.743  0.3271  0.4413  0.4301
 1625SOL     OW 6570   3.146   1.912   2.676  0.1092 -0.0152 -0.7638
 1625SOL    HW2 6571   3.220   1.964   2.707  0.7127 -1.0198 -0.4893
 1625SOL    HW3 6572   3.069   1.967   2.692  0.6407  0.3986  0.4057
 1625SOL    MW4 6573   3.145   1.926   2.682  0.2589 -0.0933 -0.5734
 1626SOL     OW 6574   3.364   2.080   2.727 -0.3583 -0.3413  0.0498
 1626SOL    HW2 6575   3.376   2.075   2.822  0.5379  0.1078 -0.0338
 1626SOL    HW3 6576   3.348   2.173   2.709  0.7892 -0.2091 -0.3708
 1626SOL    MW4 6577   3.364   2.092   2.737 -0.0887 -0.2649 -0.0167
 1627SOL     OW 6578   3.332   2.374   2.659  0.6589  0.4989 -0.1785
 1627SOL    HW2 6579   3.416   2.402   2.695  0.3155  1.4919 -0.1300
 1627SOL    HW3 6580   3.349   2.361   2.565  0.3129  3.0143 -0.6152
 1627SOL    MW4 6581   3.346   2.376   2.651  0.5679  0.9620 -0.2296
 1628SOL     OW 6582   3.091   2.485   2.768 -0.1681  0.4641  0.6641
 1628SOL    HW2 6583   3.104   2.566   2.719 -0.7825  0.3569  0.3193
 1628SOL    HW3 6584   3.162   2.427   2.738 -1.4261 -0.1379 -1.2512
 1628SOL    MW4 6585   3.102   2.488   2.757 -0.4151  0.3705  0.3657
 1629SOL     OW 6586   3.112   2.719   2.597  0.2043 -0.2505 -0.3259
 1629SOL    HW2 6587   3.182   2.761   2.647 -0.0352 -0.0517 -0.1557
 1629SOL    HW3 6588   3.032   2.758   2.631  0.1346  1.1460 -2.0260
 1629SOL    MW4 6589   3.111   2.730   2.608  0.1633 -0.0401 -0.5279
 1630SOL     OW 6590   3.345   2.808   2.756 -0.2157 -0.5924 -0.3134
 1630SOL    HW2 6591   3.357   2.817   2.851 -1.0641  1.7278 -0.3918
 1630SOL    HW3 6592   3.429   2.775   2.724  0.0115 -1.6230  1.2571
 1630SOL    MW4 6593   3.357   2.805   2.764 -0.2975 -0.4225 -0.1163
 1631SOL     OW 6594   3.366   3.091   2.674  0.2699 -0.4531  0.2057
 1631SOL    HW2 6595   3.345   3.000   2.694 -3.9931  0.4293  0.1977
 1631SOL    HW3 6596   3.369   3.094   2.578  1.2152 -0.7364  0.2235
 1631SOL    MW4 6597   3.364   3.079   2.664 -0.1678 -0.3741  0.2072
 1632SOL     OW 6598   3.128   3.227   2.730  0.7038  0.1421  0.0201
 1632SOL    HW2 6599   3.209   3.181   2.709  0.1931 -0.7110 -0.1314
 1632SOL    HW3 6600   3.060   3.175   2.688  0.0866  0.8982  0.0820
 1632SOL    MW4 6601   3.130   3.214   2.722  0.5548  0.1292  0.0083
 1633SOL     OW 6602   3.148   3.496   2.638 -0.1588 -0.3205  0.2027
 1633SOL    HW2 6603   3.141   3.407   2.673 -1.1166  0.4483  2.0377
 1633SOL    HW3 6604   3.069   3.540   2.668  0.1282  1.0616 -1.0005
 1633SOL    MW4 6605   3.137   3.490   2.646 -0.2475 -0.0367  0.2861
 1634SOL     OW 6606   3.363   3.619   2.777 -0.5087 -0.2589 -0.2819
 1634SOL    HW2 6607   3.355   3.621   2.873 -0.9130 -0.2378 -0.3120
 1634SOL    HW3 6608   3.285   3.571   2.748 -1.3707  1.3706 -0.7026
 1634SOL    MW4 6609   3.351   3.613   2.786 -0.6757 -0.0412 -0.3417
 1635SOL     OW 6610   3.388   3.860   2.655  0.4405  0.1684 -0.1703
 1635SOL    HW2 6611   3.385   3.773   2.695 -0.0950 -0.4254 -1.4728
 1635SOL    HW3 6612   3.363   3.845   2.564 -1.2827  1.9360 -0.0088
 1635SOL    MW4 6613   3.384   3.847   2.648  0.1428  0.3233 -0.3207
 1636SOL     OW 6614   3.125   3.972   2.738 -0.1910 -0.2022 -0.0941
 1636SOL    HW2 6615   3.125   4.066   2.719 -0.6248  0.0673  1.1464
 1636SOL    HW3 6616   3.215   3.943   2.721  0.3544  0.7737  1.0600
 1636SOL    MW4 6617   3.137   3.981   2.733 -0.1767 -0.0379  0.2215
 1637SOL     OW 6618   3.130   4.257   2.671  0.1764  0.3667 -0.1120
 1637SOL    HW2 6619   3.055   4.299   2.712 -0.5627 -1.2655  0.2432
 1637SOL    HW3 6620   3.122   4.279   2.578 -0.5742  0.4535 -0.0296
 1637SOL    MW4 6621   3.119   4.265   2.664 -0.0200  0.1626 -0.0544
 1638SOL     OW 6622   3.372   4.386   2.754  0.1209 -0.5905 -0.0248
 1638SOL    HW2 6623   3.379   4.365   2.847 -0.3575 -1.5611 -0.2072
 1638SOL    HW3 6624   3.293   4.341   2.725  0.3869 -0.4684 -0.9544
 1638SOL    MW4 6625   3.362   4.378   2.762  0.0927 -0.7024 -0.1714
 1639SOL     OW 6626   3.845   4.660   2.672 -0.0735 -0.3294 -0.3251
 1639SOL    HW2 6627   3.846   4.574   2.715  2.4543  0.3221  1.0352
 1639SOL    HW3 6628   3.767   4.704   2.706 -1.2467 -1.9631 -0.8358
 1639SOL    MW4 6629   3.835   4.654   2.682  0.1049 -0.4592 -0.2131
 1640SOL     OW 6630   3.600   0.106   2.759 -0.1434  0.4981  0.2250
 1640SOL    HW2 6631   3.596   0.201   2.743 -1.3162  0.4739  0.3565
 1640SOL    HW3 6632   3.522   0.071   2.716 -0.2162 -0.2911  0.9951
 1640SOL    MW4 6633   3.589   0.114   2.751 -0.3078  0.3908  0.3440
 1641SOL     OW 6634   3.601   0.358   2.692 -0.7479 -0.3225 -0.5088
 1641SOL    HW2 6635   3.672   0.411   2.729 -0.2466 -1.6540  0.4582
 1641SOL    HW3 6636   3.521   0.396   2.728 -0.3647 -0.4716  0.5140
 1641SOL    MW4 6637   3.600   0.370   2.701 -0.6313 -0.5179 -0.2463
 1642SOL     OW 6638   3.830   0.514   2.778  0.4974  0.0122 -0.2409
 1642SOL    HW2 6639   3.817   0.503   2.872 -0.3767 -0.8707 -0.4533
 1642SOL    HW3 6640   3.902   0.456   2.756  1.1402  0.7149 -0.0109
 1642SOL    MW4 6641   3.838   0.505   2.787  0.4668 -0.0116 -0.2387
 1643SOL     OW 6642   3.835   0.759   2.634  0.1859  0.4653 -0.3184
 1643SOL    HW2 6643   3.751   0.798   2.656 -0.9982 -1.2790 -1.6337
 1643SOL    HW3 6644   3.830   0.670   2.668  1.7369  0.5032  0.0809
 1643SOL    MW4 6645   3.823   0.753   2.641  0.2341  0.2401 -0.4392
 1644SOL     OW 6646   3.598   0.845   2.755  0.2288  0.5990 -0.1420
 1644SOL    HW2 6647   3.593   0.861   2.849  1.2139 -0.3749  0.0812
 1644SOL    HW3 6648   3.579   0.930   2.715 -1.5780  0.6974  0.9016
 1644SOL    MW4 6649   3.595   0.859   2.762  0.1202  0.4835  0.0253
 1645SOL     OW 6650   3.582   1.139   2.675 -0.2813 -0.1378  0.2568
 1645SOL    HW2 6651   3.661   1.185   2.706  0.0420 -0.3232 -0.2762
 1645SOL    HW3 6652   3.510   1.196   2.700  0.0803  0.3891  0.1112
 1645SOL    MW4 6653   3.583   1.153   2.683 -0.1910 -0.0927  0.1674
 1646SOL     OW 6654   3.811   1.271   2.752 -0.2704 -0.4317 -0.0906
 1646SOL    HW2 6655   3.876   1.213   2.713 -1.5637 -0.8305 -1.7101
 1646SOL    HW3 6656   3.833   1.358   2.719  0.6566 -0.2320  1.0061
 1646SOL    MW4 6657   3.822   1.275   2.743 -0.3188 -0.4579 -0.1595
 1647SOL     OW 6658   3.851   1.528   2.608 -0.3743 -0.6865  0.0733
 1647SOL    HW2 6659   3.923   1.589   2.621  0.0492 -0.8838 -1.2886
 1647SOL    HW3 6660   3.780   1.562   2.662 -0.8049  2.1489 -2.1883
 1647SOL    MW4 6661   3.851   1.540   2.617 -0.3753 -0.3384 -0.4046
 1648SOL     OW 6662   3.609   1.637   2.707 -0.5446 -0.6432 -0.1406
 1648SOL    HW2 6663   3.599   1.725   2.673 -0.6193 -0.1455  1.1451
 1648SOL    HW3 6664   3.527   1.593   2.686 -1.2282  0.1577  0.8499
 1648SOL    MW4 6665   3.597   1.643   2.700 -0.6444 -0.4719  0.1600
 1649SOL     OW 6666   3.574   1.937   2.616  0.1814 -0.0345  0.0422
 1649SOL    HW2 6667   3.500   1.985   2.652 -0.0641  0.2414 -0.8300
 1649SOL    HW3 6668   3.651   1.987   2.643 -0.1126  1.2594 -1.4815
 1649SOL    MW4 6669   3.575   1.950   2.624  0.1101  0.1725 -0.2742
 1650SOL     OW 6670   3.807   2.054   2.722  0.1149 -0.2416  0.1248
 1650SOL    HW2 6671   3.890   2.016   2.694 -0.2071 -1.4094  0.7157
 1650SOL    HW3 6672   3.803   2.035   2.816 -0.5458  0.3179  0.2119
 1650SOL    MW4 6673   3.817   2.046   2.731 -0.0145 -0.3216  0.2141
 1651SOL     OW 6674   3.770   2.311   2.615 -0.3589 -0.5110 -0.8839
 1651SOL    HW2 6675   3.799   2.229   2.656 -0.4266 -0.4242 -0.6642
 1651SOL    HW3 6676   3.781   2.296   2.521 -0.9914 -1.0057 -0.8809
 1651SOL    MW4 6677   3.776   2.298   2.608 -0.4513 -0.5648 -0.8545
 1652SOL     OW 6678   3.584   2.462   2.751 -0.3188  0.0103 -0.3714
 1652SOL    HW2 6679   3.588   2.436   2.843  0.4789  0.4071 -0.2916
 1652SOL    HW3 6680   3.639   2.397   2.706 -1.6441 -0.8813 -0.7336
 1652SOL    MW4 6681   3.592   2.450   2.757 -0.3884 -0.0551 -0.4086
 1653SOL     OW 6682   3.573   2.715   2.653  0.5061 -0.6443  0.0545
 1653SOL    HW2 6683   3.576   2.633   2.702  1.2806 -0.3118  0.5864
 1653SOL    HW3 6684   3.574   2.689   2.561 -0.1405 -1.2529  0.2139
 1653SOL    MW4 6685   3.574   2.701   2.648  0.5229 -0.6809  0.1459
 1654SOL     OW 6686   3.797   2.833   2.756  0.6296 -0.3851 -0.3617
 1654SOL    HW2 6687   3.875   2.796   2.714  0.9883  1.2103 -1.1145
 1654SOL    HW3 6688   3.724   2.785   2.718  1.1142 -0.5567 -1.0802
 1654SOL    MW4 6689   3.798   2.821   2.745  0.7410 -0.1972 -0.5555
 1655SOL     OW 6690   3.810   3.079   2.640 -0.1764 -0.4328  0.5476
 1655SOL    HW2 6691   3.742   3.139   2.671  0.4385  0.3482  0.4065
 1655SOL    HW3 6692   3.784   2.994   2.675 -1.2532 -0.1584  0.4527
 1655SOL    MW4 6693   3.797   3.076   2.648 -0.2372 -0.2935  0.5164
 1656SOL     OW 6694   3.613   3.221   2.768 -0.1753 -0.0540 -0.4629
 1656SOL    HW2 6695   3.604   3.315   2.751  0.4442 -0.0204 -0.6279
 1656SOL    HW3 6696   3.527   3.184   2.748 -0.4206  0.4810 -0.3921
 1656SOL    MW4 6697   3.600   3.229   2.763 -0.1259  0.0210 -0.4752
 1657SOL     OW 6698   3.596   3.478   2.669 -0.3011  0.3352 -0.4511
 1657SOL    HW2 6699   3.673   3.524   2.701  1.1145 -2.9199  1.0482
 1657SOL    HW3 6700   3.522   3.523   2.710  1.0716  0.7535  1.6194
 1657SOL    MW4 6701   3.596   3.490   2.678  0.0665 -0.0391  0.0200
 1658SOL     OW 6702   3.813   3.598   2.778 -0.4360 -0.0448 -0.1946
 1658SOL    HW2 6703   3.898   3.575   2.740  0.2739 -0.2151  1.4493
 1658SOL    HW3 6704   3.793   3.683   2.740  0.6859  0.1958 -0.2790
 1658SOL    MW4 6705   3.822   3.606   2.768 -0.1943 -0.0355  0.0107
 1659SOL     OW 6706   3.756   3.853   2.674  0.3072  0.5072 -0.2652
 1659SOL    HW2 6707   3.833   3.901   2.706  1.4859 -0.6012 -1.3734
 1659SOL    HW3 6708   3.683   3.888   2.725  1.7855  0.4245  2.0025
 1659SOL    MW4 6709   3.757   3.864   2.685  0.6576  0.3505 -0.1123
 1660SOL     OW 6710   3.569   4.003   2.787  0.0075  0.2160  0.4795
 1660SOL    HW2 6711   3.573   4.091   2.748  0.3364 -0.4970 -1.1430
 1660SOL    HW3 6712   3.496   3.960   2.742 -0.2583 -0.2873  1.3858
 1660SOL    MW4 6713   3.560   4.009   2.776  0.0157  0.0553  0.3850
 1661SOL     OW 6714   3.621   4.268   2.690 -0.0322 -0.2450 -0.3107
 1661SOL    HW2 6715   3.542   4.318   2.711 -0.5480 -1.3834  0.5818
 1661SOL    HW3 6716   3.630   4.274   2.595  0.5060  2.3690 -0.1191
 1661SOL    MW4 6717   3.612   4.275   2.680 -0.0291 -0.0501 -0.1676
 1662SOL     OW 6718   3.826   4.400   2.791 -0.6273 -0.0628  0.1260
 1662SOL    HW2 6719   3.901   4.348   2.763 -0.1655  0.2424  0.7980
 1662SOL    HW3 6720   3.750   4.351   2.760 -0.1850 -0.9563  0.4654
 1662SOL    MW4 6721   3.826   4.387   2.783 -0.5081 -0.1402  0.2596
 1663SOL     OW 6722   4.278   4.620   2.676 -0.5980  0.2786  0.1517
 1663SOL    HW2 6723   4.206   4.676   2.704 -1.0925 -0.2971  0.0306
 1663SOL    HW3 6724   4.355   4.658   2.718 -1.0653  0.5106  0.8223
 1663SOL    MW4 6725   4.279   4.632   2.686 -0.7248  0.2327  0.2244
 1664SOL     OW 6726   4.081   0.142   2.743 -0.6055  0.4721  0.3205
 1664SOL    HW2 6727   4.079   0.127   2.838 -1.0287 -0.4709  0.1680
 1664SOL    HW3 6728   4.007   0.092   2.709 -0.1624  0.4005 -0.5662
 1664SOL    MW4 6729   4.071   0.133   2.751 -0.6037  0.3382  0.1833
 1665SOL     OW 6730   4.076   0.394   2.659 -0.3415 -0.2728  0.1629
 1665SOL    HW2 6731   4.071   0.304   2.691  1.5067  0.0074  1.2692
 1665SOL    HW3 6732   4.085   0.386   2.564 -0.8667 -1.2269  0.1901
 1665SOL    MW4 6733   4.076   0.381   2.650 -0.1664 -0.3617  0.3121
 1666SOL     OW 6734   4.278   0.528   2.791  0.0795  0.0608  0.1863
 1666SOL    HW2 6735   4.196   0.491   2.757  0.3256 -0.6674  0.3813
 1666SOL    HW3 6736   4.345   0.465   2.766  0.9208  1.7714 -1.9440
 1666SOL    MW4 6737   4.276   0.515   2.784  0.2232  0.1904 -0.0691
 1667SOL     OW 6738   4.290   0.784   2.715  0.4048 -0.3172 -0.1268
 1667SOL    HW2 6739   4.277   0.693   2.742 -2.1593 -0.0705 -0.3223
 1667SOL    HW3 6740   4.275   0.783   2.620  3.2376 -0.1586 -0.6011
 1667SOL    MW4 6741   4.286   0.772   2.706  0.4396 -0.2638 -0.2153
 1668SOL     OW 6742   4.039   0.871   2.806 -0.0103  0.5643  0.0057
 1668SOL    HW2 6743   4.117   0.825   2.778 -0.0246  0.5041  0.0623
 1668SOL    HW3 6744   3.970   0.841   2.747 -0.1534  0.0358  0.4369
 1668SOL    MW4 6745   4.040   0.861   2.795 -0.0310  0.4866  0.0703
 1669SOL     OW 6746   4.042   1.136   2.659  0.0719 -0.0305 -0.0987
 1669SOL    HW2 6747   4.119   1.184   2.691  0.4232 -1.0922  0.7082
 1669SOL    HW3 6748   4.046   1.052   2.706 -0.8243 -0.6253 -1.0753
 1669SOL    MW4 6749   4.053   1.131   2.670  0.0000 -0.2491 -0.1211
 1670SOL     OW 6750   4.264   1.298   2.729 -0.4806 -0.5227  0.1247
 1670SOL    HW2 6751   4.271   1.388   2.696  0.0363 -0.5277  0.2261
 1670SOL    HW3 6752   4.350   1.260   2.715 -0.6872 -0.9934  0.1236
 1670SOL    MW4 6753   4.276   1.305   2.723 -0.4401 -0.5854  0.1380
 1671SOL     OW 6754   4.258   1.560   2.644  0.0721 -0.1722 -0.0458
 1671SOL    HW2 6755   4.335   1.606   2.677  0.4532 -0.3753 -0.6402
 1671SOL    HW3 6756   4.261   1.573   2.549 -0.1305 -0.9334 -0.1598
 1671SOL    MW4 6757   4.268   1.568   2.636  0.0958 -0.2995 -0.1392
 1672SOL     OW 6758   4.032   1.692   2.734  0.1583  0.0218  0.0223
 1672SOL    HW2 6759   4.032   1.672   2.828  1.8220 -0.7685 -0.1356
 1672SOL    HW3 6760   4.110   1.649   2.700 -0.8016 -0.2646 -1.8646
 1672SOL    MW4 6761   4.042   1.684   2.742  0.2513 -0.1202 -0.2477
 1673SOL     OW 6762   4.038   1.942   2.618 -0.2892 -0.1449  0.1144
 1673SOL    HW2 6763   4.114   1.985   2.658  1.7635 -2.4509 -1.2129
 1673SOL    HW3 6764   4.034   1.856   2.660  0.4157 -1.6484 -2.7781
 1673SOL    MW4 6765   4.048   1.937   2.629  0.0749 -0.6477 -0.4425
 1674SOL     OW 6766   4.228   2.069   2.754 -0.2429 -0.7166 -0.4617
 1674SOL    HW2 6767   4.227   2.161   2.726 -0.5939 -0.8649 -0.9315
 1674SOL    HW3 6768   4.308   2.033   2.716  0.8214 -0.1536  1.1825
 1674SOL    MW4 6769   4.239   2.077   2.745 -0.1493 -0.6618 -0.3066
 1675SOL     OW 6770   4.250   2.348   2.672  0.3227 -0.2249 -0.2385
 1675SOL    HW2 6771   4.158   2.376   2.677  0.3930 -0.1200  0.4472
 1675SOL    HW3 6772   4.273   2.360   2.580 -0.3850 -0.3526 -0.4369
 1675SOL    MW4 6773   4.241   2.353   2.660  0.2389 -0.2277 -0.1745
 1676SOL     OW 6774   3.996   2.451   2.681  0.2968  0.4222 -0.7983
 1676SOL    HW2 6775   3.980   2.441   2.774  1.7642 -0.6367 -0.6308
 1676SOL    HW3 6776   3.922   2.408   2.639 -0.3731  0.9108 -0.1199
 1676SOL    MW4 6777   3.984   2.444   2.687  0.4022  0.3467 -0.6864
 1677SOL     OW 6778   4.014   2.717   2.600 -0.1024 -0.1541  0.6565
 1677SOL    HW2 6779   4.096   2.745   2.642  0.4760 -0.0916 -0.5007
 1677SOL    HW3 6780   4.003   2.627   2.630  0.0354  0.0486  1.3464
 1677SOL    MW4 6781   4.024   2.709   2.610 -0.0081 -0.1190  0.5949
 1678SOL     OW 6782   4.262   2.827   2.697  0.1453  0.0175 -0.0772
 1678SOL    HW2 6783   4.252   2.805   2.790  2.5160  1.7740  0.6623
 1678SOL    HW3 6784   4.254   2.922   2.695  0.8307  0.0444 -1.5827
 1678SOL    MW4 6785   4.260   2.837   2.709  0.5484  0.2530 -0.1783
 1679SOL     OW 6786   4.262   3.107   2.653 -0.5218  0.1294 -0.5379
 1679SOL    HW2 6787   4.179   3.143   2.684 -0.4161 -0.2897  0.2437
 1679SOL    HW3 6788   4.254   3.107   2.557 -0.9799  1.1209 -0.5018
 1679SOL    MW4 6789   4.250   3.112   2.644 -0.5679  0.2048 -0.4299
 1680SOL     OW 6790   4.022   3.226   2.715 -0.3813 -0.0861 -0.1450
 1680SOL    HW2 6791   4.021   3.212   2.810  0.4423  1.5592  0.1155
 1680SOL    HW3 6792   3.951   3.169   2.683 -0.5062 -0.8593  1.4097
 1680SOL    MW4 6793   4.012   3.216   2.724 -0.2894  0.0288  0.0944
 1681SOL     OW 6794   4.047   3.505   2.661 -0.0662  0.0360  0.3610
 1681SOL    HW2 6795   4.127   3.536   2.703  0.1895 -0.8249  0.5218
 1681SOL    HW3 6796   4.035   3.416   2.694  0.5384 -0.9343 -1.9282
 1681SOL    MW4 6797   4.056   3.498   2.671  0.0472 -0.2055  0.0801
 1682SOL     OW 6798   4.299   3.610   2.757 -0.2010 -0.1252 -0.1351
 1682SOL    HW2 6799   4.319   3.607   2.850  0.1320  0.1003 -0.1962
 1682SOL    HW3 6800   4.377   3.571   2.715 -0.0142  0.4914 -0.3629
 1682SOL    MW4 6801   4.312   3.604   2.764 -0.1321 -0.0141 -0.1733
 1683SOL     OW 6802   4.267   3.875   2.688  0.2854 -0.3952  0.2197
 1683SOL    HW2 6803   4.273   3.780   2.699  2.5643 -0.2611  0.3788
 1683SOL    HW3 6804   4.342   3.909   2.736 -0.9315  1.5615  0.7922
 1683SOL    MW4 6805   4.278   3.867   2.696  0.4253 -0.1194  0.3161
 1684SOL     OW 6806   3.995   3.981   2.786  0.1675 -0.1973 -0.1607
 1684SOL    HW2 6807   3.999   3.970   2.881 -0.7265 -1.8679 -0.2871
 1684SOL    HW3 6808   4.081   3.954   2.755  0.2568 -0.2498  0.1356
 1684SOL    MW4 6809   4.007   3.976   2.794  0.0615 -0.4246 -0.1383
 1685SOL     OW 6810   4.024   4.241   2.710 -0.2257 -0.0357 -0.3136
 1685SOL    HW2 6811   3.997   4.151   2.725 -1.1046  0.2082 -0.3919
 1685SOL    HW3 6812   4.009   4.255   2.616  1.0690 -0.1921 -0.5433
 1685SOL    MW4 6813   4.018   4.231   2.700 -0.1707 -0.0238 -0.3543
 1686SOL     OW 6814   4.289   4.326   2.796  0.0949 -0.0035 -0.8059
 1686SOL    HW2 6815   4.195   4.306   2.795 -0.1084  0.7805  1.0593
 1686SOL    HW3 6816   4.295   4.413   2.757  0.2963 -0.9111 -2.8771
 1686SOL    MW4 6817   4.277   4.335   2.790  0.0944 -0.0200 -0.8335
 1687SOL     OW 6818   0.235   4.650   3.143  0.0737 -0.0184 -0.0630
 1687SOL    HW2 6819   0.236   4.662   3.238 -1.1172  1.4715 -0.2299
 1687SOL    HW3 6820   0.152   4.688   3.114  0.9193  0.5499 -1.8328
 1687SOL    MW4 6821   0.224   4.656   3.152  0.0281  0.2532 -0.3183
 1688SOL     OW 6822   0.004   0.120   3.070 -0.1424 -0.0539  0.0137
 1688SOL    HW2 6823  -0.078   0.080   3.100 -1.0831  1.4058 -0.5609
 1688SOL    HW3 6824  -0.003   0.211   3.097  0.8405  0.3178 -0.9700
 1688SOL    MW4 6825  -0.008   0.127   3.077 -0.1368  0.1877 -0.1922
 1689SOL     OW 6826   4.487   0.378   3.143 -0.1495 -0.4057  0.2872
 1689SOL    HW2 6827   4.484   0.387   3.238 -1.4759 -1.0630  0.3120
 1689SOL    HW3 6828   4.408   0.424   3.112  1.0573  1.1346 -0.6107
 1689SOL    MW4 6829   4.476   0.385   3.152 -0.1655 -0.2892  0.1719
 1690SOL     OW 6830   0.210   0.477   3.028 -0.3606 -0.1174  0.7019
 1690SOL    HW2 6831   0.283   0.419   3.049 -0.9171 -1.0443  0.1121
 1690SOL    HW3 6832   0.136   0.442   3.077 -0.9415 -0.5189 -0.4483
 1690SOL    MW4 6833   0.210   0.465   3.037 -0.5107 -0.2927  0.4721
 1691SOL     OW 6834   0.239   0.751   3.145 -0.0727 -0.1924 -0.2282
 1691SOL    HW2 6835   0.269   0.759   3.236  0.8610  0.1237 -0.5581
 1691SOL    HW3 6836   0.247   0.658   3.125 -0.7489 -0.3395  0.1683
 1691SOL    MW4 6837   0.244   0.740   3.155 -0.0388 -0.1701 -0.2193
 1692SOL     OW 6838   0.026   0.888   3.047  0.4216  0.0138 -0.7620
 1692SOL    HW2 6839   0.104   0.846   3.082  0.3280  0.1774 -0.3551
 1692SOL    HW3 6840   0.040   0.889   2.952  0.5467 -0.6762 -0.7492
 1692SOL    MW4 6841   0.038   0.883   3.039  0.4258 -0.0557 -0.7069
 1693SOL     OW 6842   0.033   1.182   3.133 -0.0056 -0.3385  0.1575
 1693SOL    HW2 6843  -0.055   1.210   3.107 -0.0608 -0.7297 -0.0727
 1693SOL    HW3 6844   0.042   1.093   3.098  0.7698 -0.0146 -0.4715
 1693SOL    MW4 6845   0.023   1.174   3.125  0.0894 -0.3473  0.0441
 1694SOL     OW 6846   0.248   1.334   3.055 -0.4427  0.0189 -0.0717
 1694SOL    HW2 6847   0.174   1.281   3.085 -0.4170  0.1826  0.2809
 1694SOL    HW3 6848   0.249   1.322   2.960 -0.9605  0.0701 -0.0816
 1694SOL    MW4 6849   0.239   1.325   3.046 -0.5076  0.0474 -0.0269
 1695SOL     OW 6850   0.178   1.594   3.133 -0.1952  0.0478 -0.2394
 1695SOL    HW2 6851   0.096   1.625   3.095 -0.5117 -0.1783  0.2497
 1695SOL    HW3 6852   0.185   1.503   3.102  0.4918  0.4606 -1.2878
 1695SOL    MW4 6853   0.168   1.586   3.124 -0.1464  0.0724 -0.3133
 1696SOL     OW 6854   4.447   1.675   3.005  0.1485 -0.1683  0.2985
 1696SOL    HW2 6855   4.380   1.632   3.059  0.8317 -0.1317  1.1890
 1696SOL    HW3 6856   4.458   1.762   3.045 -1.9719  1.2674 -2.1208
 1696SOL    MW4 6857   4.439   1.681   3.018 -0.0415  0.0260  0.0966
 1697SOL     OW 6858   4.465   1.926   3.146 -0.2128 -0.1755  0.0811
 1697SOL    HW2 6859   4.392   1.970   3.103 -0.7370  1.0978  2.2351
 1697SOL    HW3 6860   4.543   1.966   3.106 -0.6573 -0.6967 -1.3606
 1697SOL    MW4 6861   4.466   1.937   3.135 -0.3407 -0.0763  0.1750
 1698SOL     OW 6862   0.198   2.038   3.017  0.1046  0.0947 -0.2891
 1698SOL    HW2 6863   0.189   2.129   3.046 -0.2960  0.4413 -1.4996
 1698SOL    HW3 6864   0.190   2.042   2.922 -1.4288 -1.4079 -0.2323
 1698SOL    MW4 6865   0.196   2.050   3.009 -0.1506 -0.0579 -0.4413
 1699SOL     OW 6866   0.169   2.306   3.143  0.0009 -0.2231  0.1405
 1699SOL    HW2 6867   0.182   2.319   3.237  0.8750  0.4695 -0.0759
 1699SOL    HW3 6868   0.239   2.356   3.102 -2.2917  2.1340 -0.9857
 1699SOL    MW4 6869   0.180   2.314   3.150 -0.1862  0.1793 -0.0365
 1700SOL     OW 6870   4.446   2.448   3.050 -0.1494  0.3274  0.1593
 1700SOL    HW2 6871   4.468   2.541   3.048 -0.6856  0.5262  2.4313
 1700SOL    HW3 6872   4.527   2.404   3.078  0.1619  0.0874 -1.1055
 1700SOL    MW4 6873   4.460   2.454   3.054 -0.1788  0.3219  0.2921
 1701SOL     OW 6874   4.485   2.723   3.096  0.4574  0.5390  0.0492
 1701SOL    HW2 6875   4.483   2.725   3.191  3.8016  0.2464  0.1902
 1701SOL    HW3 6876   4.569   2.763   3.073  0.0517 -0.0918 -2.7319
 1701SOL    MW4 6877   4.496   2.728   3.105  0.8450  0.4172 -0.2992
 1702SOL     OW 6878   0.243   2.833   3.044  0.0449  0.3991 -0.3491
 1702SOL    HW2 6879   0.315   2.775   3.068 -0.4810  0.0060  0.3224
 1702SOL    HW3 6880   0.234   2.822   2.950  0.7861  0.3613 -0.4171
 1702SOL    MW4 6881   0.251   2.824   3.035  0.0733  0.3421 -0.2692
 1703SOL     OW 6882   0.259   3.085   3.148 -0.2849 -0.3813 -0.3082
 1703SOL    HW2 6883   0.179   3.124   3.113  0.2065  0.4158 -0.5421
 1703SOL    HW3 6884   0.255   2.993   3.119 -0.7337 -0.1570 -0.9819
 1703SOL    MW4 6885   0.248   3.078   3.139 -0.2792 -0.2465 -0.4280
 1704SOL     OW 6886   0.008   3.175   3.062 -0.1910 -0.2594  0.0615
 1704SOL    HW2 6887  -0.080   3.140   3.074 -0.2475 -0.5157 -1.0392
 1704SOL    HW3 6888   0.018   3.182   2.967  1.4247 -1.4111  0.1133
 1704SOL    MW4 6889  -0.002   3.171   3.051  0.0147 -0.4449 -0.0768
 1705SOL     OW 6890   0.000   3.453   3.145 -0.2521  0.5810 -0.0658
 1705SOL    HW2 6891  -0.074   3.493   3.098 -0.7433  0.5266  0.6497
 1705SOL    HW3 6892   0.017   3.371   3.099 -1.4226  0.0177  0.4886
 1705SOL    MW4 6893  -0.007   3.448   3.133 -0.4714  0.4992  0.1018
 1706SOL     OW 6894   0.214   3.572   3.015 -0.3533  0.1491 -0.2238
 1706SOL    HW2 6895   0.227   3.655   3.061 -1.4765  0.4291 -0.3846
 1706SOL    HW3 6896   0.131   3.539   3.051  0.6968 -1.4963  0.7336
 1706SOL    MW4 6897   0.205   3.578   3.026 -0.3629 -0.0310 -0.1187
 1707SOL     OW 6898   0.252   3.821   3.109 -0.0354 -0.2201 -0.4241
 1707SOL    HW2 6899   0.246   3.840   3.203 -0.5940 -1.7200 -0.1480
 1707SOL    HW3 6900   0.320   3.880   3.077  0.1410  0.3163  0.9203
 1707SOL    MW4 6901   0.260   3.832   3.117 -0.0858 -0.3474 -0.2103
 1708SOL     OW 6902   0.019   3.983   3.053  0.6809 -0.0703 -0.7307
 1708SOL    HW2 6903   0.087   3.925   3.087 -0.4180 -1.2659 -0.5174
 1708SOL    HW3 6904   0.020   3.969   2.958  0.0008 -0.9118 -0.6174
 1708SOL    MW4 6905   0.028   3.974   3.045  0.4462 -0.3390 -0.6876
 1709SOL     OW 6906   0.081   4.232   3.168  0.1394  0.2178 -0.3970
 1709SOL    HW2 6907   0.051   4.236   3.258  0.0824 -0.6714 -0.3669
 1709SOL    HW3 6908   0.067   4.141   3.142  0.5865  0.3548 -1.1503
 1709SOL    MW4 6909   0.075   4.220   3.176  0.1909  0.1187 -0.4923
 1710SOL     OW 6910   0.269   4.398   3.029  0.0077  0.1568 -0.2288
 1710SOL    HW2 6911   0.201   4.345   3.070 -1.1922  2.3980  0.6973
 1710SOL    HW3 6912   0.271   4.479   3.079  1.6411  1.1233 -1.7965
 1710SOL    MW4 6913   0.261   4.401   3.041  0.0649  0.5798 -0.3140
 1711SOL     OW 6914   0.655   0.004   3.125  0.5531 -0.1698 -0.4133
 1711SOL    HW2 6915   0.660  -0.090   3.105 -0.9810 -0.4885  0.6118
 1711SOL    HW3 6916   0.577   0.034   3.079 -0.5864 -0.0120  1.5813
 1711SOL    MW4 6917   0.646  -0.004   3.116  0.2003 -0.1907 -0.0148
 1712SOL     OW 6918   0.424   0.118   2.995 -0.3870  0.2942  0.2371
 1712SOL    HW2 6919   0.424   0.203   3.040 -1.1772  0.0766  0.6467
 1712SOL    HW3 6920   0.366   0.063   3.047  0.8795 -0.7886  0.5172
 1712SOL    MW4 6921   0.416   0.122   3.008 -0.3241  0.1227  0.3281
 1713SOL     OW 6922   0.457   0.357   3.116  0.3613 -0.4621 -0.0896
 1713SOL    HW2 6923   0.469   0.348   3.211  0.7287 -1.3898 -0.2189
 1713SOL    HW3 6924   0.515   0.429   3.091  0.3141 -0.2599  0.3811
 1713SOL    MW4 6925   0.467   0.365   3.125  0.4036 -0.5578 -0.0448
 1714SOL     OW 6926   0.631   0.556   3.045 -0.6260  0.2046 -0.2039
 1714SOL    HW2 6927   0.699   0.501   3.084 -1.2407 -1.2369 -1.1087
 1714SOL    HW3 6928   0.659   0.646   3.063  0.4518 -0.3981  1.2241
 1714SOL    MW4 6929   0.643   0.560   3.052 -0.5649 -0.0651 -0.1349
 1715SOL     OW 6930   0.688   0.816   3.101 -0.0958  0.0120 -0.5672
 1715SOL    HW2 6931   0.709   0.826   3.194 -0.8859 -0.7831 -0.2976
 1715SOL    HW3 6932   0.603   0.859   3.091  0.5682  1.1874 -1.1804
 1715SOL    MW4 6933   0.680   0.823   3.112 -0.1124  0.0622 -0.6125
 1716SOL     OW 6934   0.434   0.913   3.043  0.3976  0.2678 -0.2886
 1716SOL    HW2 6935   0.356   0.867   3.074  0.8216 -0.1611  0.1634
 1716SOL    HW3 6936   0.436   0.897   2.949  0.6020 -0.7402 -0.1185
 1716SOL    MW4 6937   0.424   0.905   3.035  0.4805  0.0783 -0.2065
 1717SOL     OW 6938   0.458   1.176   3.162  0.3116 -0.6572  0.3524
 1717SOL    HW2 6939   0.457   1.092   3.116 -0.2950 -0.6815  0.4015
 1717SOL    HW3 6940   0.388   1.226   3.120  1.4880  0.2787 -0.5142
 1717SOL    MW4 6941   0.449   1.171   3.150  0.3868 -0.5369  0.2444
 1718SOL     OW 6942   0.673   1.318   3.061  0.3922 -0.0264 -0.1208
 1718SOL    HW2 6943   0.754   1.283   3.099 -0.0120 -1.2584 -0.3618
 1718SOL    HW3 6944   0.604   1.282   3.116  0.0149  1.3094  0.3028
 1718SOL    MW4 6945   0.675   1.308   3.073  0.2891 -0.0126 -0.0966
 1719SOL     OW 6946   0.642   1.590   3.156  0.3981  0.0275 -0.4957
 1719SOL    HW2 6947   0.671   1.584   3.247  1.4024 -1.1178 -0.8760
 1719SOL    HW3 6948   0.639   1.499   3.127 -2.5734  0.1577 -0.7951
 1719SOL    MW4 6949   0.645   1.577   3.164  0.1386 -0.1065 -0.5856
 1720SOL     OW 6950   0.428   1.654   3.000  0.3181  0.2372  0.0653
 1720SOL    HW2 6951   0.502   1.641   3.060  0.4291 -0.5612 -0.2295
 1720SOL    HW3 6952   0.350   1.639   3.054  0.4540 -2.1932 -0.3561
 1720SOL    MW4 6953   0.427   1.650   3.015  0.3507 -0.1887 -0.0291
 1721SOL     OW 6954   0.443   1.922   3.114 -0.1692 -0.0324 -0.0086
 1721SOL    HW2 6955   0.443   1.828   3.096 -1.0823 -0.1120  0.3474
 1721SOL    HW3 6956   0.356   1.951   3.086 -0.3937  0.4465  1.1554
 1721SOL    MW4 6957   0.432   1.913   3.108 -0.3193  0.0203  0.1919
 1722SOL     OW 6958   0.673   2.049   2.991  0.0505 -0.1120  0.2658
 1722SOL    HW2 6959   0.756   2.005   3.014 -0.5763 -1.3573  0.2049
 1722SOL    HW3 6960   0.608   2.009   3.049 -0.7596 -0.1475 -0.6553
 1722SOL    MW4 6961   0.676   2.038   3.002 -0.1391 -0.2811  0.1364
 1723SOL     OW 6962   0.610   2.307   3.056  0.2214 -0.8125 -0.0308
 1723SOL    HW2 6963   0.607   2.311   3.152 -1.5924 -0.3492 -0.0960
 1723SOL    HW3 6964   0.637   2.217   3.037  0.1796 -1.0314  0.9076
 1723SOL    MW4 6965   0.613   2.296   3.066 -0.0234 -0.7801  0.0844
 1724SOL     OW 6966   0.369   2.460   3.002 -0.4358 -0.0563 -0.1361
 1724SOL    HW2 6967   0.441   2.404   3.029 -0.6269  0.3000  1.1508
 1724SOL    HW3 6968   0.380   2.471   2.908 -0.3433 -2.1515 -0.3723
 1724SOL    MW4 6969   0.380   2.454   2.993 -0.4488 -0.2856  0.0024
 1725SOL     OW 6970   0.451   2.696   3.145 -0.0314 -0.7884 -0.2903
 1725SOL    HW2 6971   0.534   2.713   3.101  0.9225 -0.8800  1.4348
 1725SOL    HW3 6972   0.425   2.609   3.114  0.4019 -0.6728 -0.9908
 1725SOL    MW4 6973   0.458   2.687   3.135  0.1517 -0.7854 -0.1547
 1726SOL     OW 6974   0.690   2.788   3.002 -0.4918  0.1442 -0.2925
 1726SOL    HW2 6975   0.766   2.745   3.041  0.0400  0.7178 -0.6948
 1726SOL    HW3 6976   0.684   2.872   3.047 -0.9739  0.0502 -0.1707
 1726SOL    MW4 6977   0.699   2.793   3.013 -0.4852  0.2074 -0.3295
 1727SOL     OW 6978   0.675   3.053   3.106  0.6420 -0.6350 -0.0323
 1727SOL    HW2 6979   0.653   3.077   3.196 -0.5421 -2.3527  0.1593
 1727SOL    HW3 6980   0.616   3.106   3.052  1.5469  0.6061  0.1694
 1727SOL    MW4 6981   0.664   3.064   3.111  0.6053 -0.6976  0.0196
 1728SOL     OW 6982   0.455   3.208   3.000 -0.1255  0.3470 -0.3846
 1728SOL    HW2 6983   0.469   3.293   3.043  0.5199  0.4334 -0.7465
 1728SOL    HW3 6984   0.382   3.169   3.047  1.0108  0.1409  1.2397
 1728SOL    MW4 6985   0.448   3.214   3.012  0.1096  0.3314 -0.2182
 1729SOL     OW 6986   0.483   3.466   3.104  0.3264  0.4015  0.3056
 1729SOL    HW2 6987   0.497   3.481   3.198 -0.7008 -1.5882  0.7962
 1729SOL    HW3 6988   0.397   3.504   3.086 -0.6123 -1.4796  0.7394
 1729SOL    MW4 6989   0.473   3.473   3.114  0.0670 -0.1092  0.4275
 1730SOL     OW 6990   0.683   3.625   2.988 -0.1817  0.2653  0.0177
 1730SOL    HW2 6991   0.764   3.582   3.018 -0.4534 -1.1404 -1.1775
 1730SOL    HW3 6992   0.613   3.571   3.023 -0.5972  1.1734  0.5972
 1730SOL    MW4 6993   0.685   3.612   2.996 -0.2723  0.1996 -0.0634
 1731SOL     OW 6994   0.710   3.864   3.120 -0.0234  0.2417 -0.3016
 1731SOL    HW2 6995   0.705   3.853   3.215 -1.1223  0.6375 -0.3036
 1731SOL    HW3 6996   0.706   3.776   3.085  1.2789  0.0413  0.0585
 1731SOL    MW4 6997   0.709   3.851   3.128  0.0035  0.2675 -0.2546
 1732SOL     OW 6998   0.461   3.986   3.044 -0.5340 -0.4383 -0.1157
 1732SOL    HW2 6999   0.529   3.923   3.067  0.1255  0.3029  0.0106
 1732SOL    HW3 7000   0.468   3.995   2.949 -0.2681 -0.1541 -0.0697
 1732SOL    MW4 7001   0.471   3.979   3.035 -0.4119 -0.3030 -0.0930
 1733SOL     OW 7002   0.484   4.247   3.117 -0.6060  0.4780  0.0131
 1733SOL    HW2 7003   0.483   4.152   3.105 -0.3699  0.4678  0.0636
 1733SOL    HW3 7004   0.405   4.278   3.073  0.0999  0.4216 -1.3316
 1733SOL    MW4 7005   0.474   4.238   3.110 -0.4817  0.4692 -0.1576
 1734SOL     OW 7006   0.674   4.412   3.013  0.3710  0.0605  0.0051
 1734SOL    HW2 7007   0.604   4.361   3.052  0.4199  1.2097  1.6427
 1734SOL    HW3 7008   0.655   4.411   2.919 -0.9174 -0.9915  0.2686
 1734SOL    MW4 7009   0.663   4.405   3.005  0.2075  0.0734  0.2558
 1735SOL     OW 7010   1.089   4.623   3.074  0.3042 -0.3636  0.0763
 1735SOL    HW2 7011   1.165   4.674   3.045 -0.4613  0.8280  0.1218
 1735SOL    HW3 7012   1.015   4.683   3.066 -0.5692 -1.3571  0.4918
 1735SOL    MW4 7013   1.089   4.638   3.069  0.0880 -0.3376  0.1371
 1736SOL     OW 7014   0.879   0.118   2.998 -0.4353  0.1039 -0.0447
 1736SOL    HW2 7015   0.880   0.208   3.031  1.9956 -0.7285  2.2556
 1736SOL    HW3 7016   0.803   0.078   3.042 -0.6143  0.5900  0.0963
 1736SOL    MW4 7017   0.869   0.124   3.008 -0.1382  0.0582  0.2775
 1737SOL     OW 7018   0.846   0.412   3.120 -0.3392  0.7429  0.3168
 1737SOL    HW2 7019   0.870   0.396   3.212  2.0037  0.7688 -0.2607
 1737SOL    HW3 7020   0.927   0.441   3.079 -1.2246  0.1587 -1.9096
 1737SOL    MW4 7021   0.860   0.413   3.127 -0.1468  0.6692 -0.0532
 1738SOL     OW 7022   1.105   0.488   3.020  0.5739 -0.3230  0.1654
 1738SOL    HW2 7023   1.194   0.453   3.031  0.7740  0.3417  0.7267
 1738SOL    HW3 7024   1.090   0.486   2.925  1.4523  0.1801  0.0068
 1738SOL    MW4 7025   1.115   0.484   3.009  0.7161 -0.1689  0.2184
 1739SOL     OW 7026   1.100   0.749   3.114  0.2109 -0.0927 -0.0855
 1739SOL    HW2 7027   1.099   0.736   3.209  3.5820 -0.3222 -0.0380
 1739SOL    HW3 7028   1.108   0.661   3.078 -2.4246 -0.1334 -0.6893
 1739SOL    MW4 7029   1.101   0.736   3.122  0.3078 -0.1283 -0.1588
 1740SOL     OW 7030   0.927   0.949   3.000 -0.4584 -0.1743 -0.2454
 1740SOL    HW2 7031   0.992   0.879   2.999 -1.0344 -0.7074 -0.9063
 1740SOL    HW3 7032   0.850   0.910   3.040 -0.6547  0.2008 -0.2552
 1740SOL    MW4 7033   0.926   0.934   3.005 -0.5603 -0.1951 -0.3338
 1741SOL     OW 7034   0.903   1.200   3.139 -0.4406 -0.6318  0.7024
 1741SOL    HW2 7035   0.997   1.207   3.120 -0.8737 -0.6581 -1.6291
 1741SOL    HW3 7036   0.881   1.110   3.119 -1.3717 -0.0815 -0.8106
 1741SOL    MW4 7037   0.912   1.189   3.134 -0.6205 -0.5627  0.1953
 1742SOL     OW 7038   1.160   1.261   3.068 -0.4899 -0.4027  0.4517
 1742SOL    HW2 7039   1.232   1.205   3.096  0.6098  1.4342  1.4051
 1742SOL    HW3 7040   1.168   1.265   2.973  0.2329 -0.7907  0.4927
 1742SOL    MW4 7041   1.171   1.254   3.059 -0.2495 -0.2115  0.5829
 1743SOL     OW 7042   1.078   1.531   3.099 -0.3498  0.0725 -0.0997
 1743SOL    HW2 7043   1.160   1.572   3.071  0.3794  0.4106  2.3869
 1743SOL    HW3 7044   1.099   1.438   3.107 -0.7403 -0.1231 -1.2918
 1743SOL    MW4 7045   1.091   1.524   3.097 -0.3051  0.0914  0.0710
 1744SOL     OW 7046   0.867   1.684   3.032  0.3004  0.1307 -0.4315
 1744SOL    HW2 7047   0.941   1.630   3.060  0.1420 -0.0710 -0.3973
 1744SOL    HW3 7048   0.796   1.660   3.092  0.2232  0.3633 -0.4293
 1744SOL    MW4 7049   0.867   1.674   3.043  0.2693  0.1346 -0.4265
 1745SOL     OW 7050   0.899   1.943   3.102 -0.3781  0.5181 -0.2044
 1745SOL    HW2 7051   0.905   1.952   3.197  0.6440  1.1461 -0.3067
 1745SOL    HW3 7052   0.895   1.849   3.086  0.1101  0.3859  0.4356
 1745SOL    MW4 7053   0.900   1.932   3.112 -0.1789  0.5834 -0.1335
 1746SOL     OW 7054   1.125   2.053   2.964 -0.3363  0.5119  0.2769
 1746SOL    HW2 7055   1.054   2.000   2.999 -1.2129  0.8439 -0.9885
 1746SOL    HW3 7056   1.121   2.041   2.869  0.7147  1.2556  0.1185
 1746SOL    MW4 7057   1.115   2.045   2.956 -0.3133  0.6537  0.0894
 1747SOL     OW 7058   1.079   2.282   3.104  0.0377 -0.0124 -0.0855
 1747SOL    HW2 7059   0.995   2.311   3.067 -1.2871 -1.0588  2.0024
 1747SOL    HW3 7060   1.095   2.197   3.062 -1.6873 -1.4069  1.9499
 1747SOL    MW4 7061   1.070   2.275   3.093 -0.3647 -0.3345  0.4587
 1748SOL     OW 7062   0.855   2.422   3.010 -0.3595  0.0133  0.2728
 1748SOL    HW2 7063   0.768   2.387   3.025 -0.2881 -0.0467  0.5481
 1748SOL    HW3 7064   0.865   2.422   2.914 -1.3756  1.7635  0.1462
 1748SOL    MW4 7065   0.845   2.418   2.999 -0.4842  0.2363  0.2921
 1749SOL     OW 7066   0.910   2.677   3.110  0.1689  0.3456 -0.5268
 1749SOL    HW2 7067   0.914   2.672   3.206 -1.0881  1.4042 -0.3970
 1749SOL    HW3 7068   0.912   2.586   3.081 -1.3135 -0.0802  0.6096
 1749SOL    MW4 7069   0.911   2.664   3.119 -0.1925  0.4292 -0.3598
 1750SOL     OW 7070   1.137   2.822   3.008  0.0587 -0.1513  0.1390
 1750SOL    HW2 7071   1.126   2.908   3.049 -1.0213  0.1249 -0.7311
 1750SOL    HW3 7072   1.069   2.767   3.047 -0.6444 -0.0271 -0.8985
 1750SOL    MW4 7073   1.127   2.826   3.019 -0.1767 -0.0985 -0.1125
 1751SOL     OW 7074   1.112   3.083   3.116 -0.6528  0.1243 -0.0076
 1751SOL    HW2 7075   1.194   3.128   3.097 -0.4678 -0.2237 -0.0297
 1751SOL    HW3 7076   1.044   3.146   3.092 -0.4279 -0.2819 -1.7636
 1751SOL    MW4 7077   1.114   3.097   3.111 -0.5987  0.0250 -0.2422
 1752SOL     OW 7078   0.889   3.232   3.037  0.2764 -0.2097 -0.4312
 1752SOL    HW2 7079   0.824   3.174   3.077  1.1983 -1.9287 -1.3926
 1752SOL    HW3 7080   0.869   3.230   2.943  2.2955 -1.5057 -0.8437
 1752SOL    MW4 7081   0.878   3.224   3.030  0.6644 -0.6075 -0.6127
 1753SOL     OW 7082   0.896   3.500   3.115  0.4672  0.2333  0.0969
 1753SOL    HW2 7083   0.982   3.531   3.088  0.4009 -0.2623 -0.7015
 1753SOL    HW3 7084   0.896   3.406   3.095 -0.7378  0.4899 -1.2115
 1753SOL    MW4 7085   0.907   3.492   3.109  0.2995  0.2017 -0.1812
 1754SOL     OW 7086   1.120   3.589   3.016 -0.3009 -0.3254 -0.1412
 1754SOL    HW2 7087   1.182   3.533   3.062  0.2042 -0.1971 -0.6576
 1754SOL    HW3 7088   1.141   3.678   3.045  0.5426 -0.1603 -1.1927
 1754SOL    MW4 7089   1.131   3.593   3.026 -0.1230 -0.2868 -0.3479
 1755SOL     OW 7090   1.131   3.874   3.085 -0.1669 -0.0241  0.6547
 1755SOL    HW2 7091   1.131   3.884   3.180 -1.8085 -0.3407  0.7112
 1755SOL    HW3 7092   1.058   3.928   3.055  0.9692  0.8868 -0.5393
 1755SOL    MW4 7093   1.121   3.882   3.094 -0.2335  0.0544  0.5045
 1756SOL     OW 7094   0.902   4.013   2.999  0.0188  0.2517 -0.3275
 1756SOL    HW2 7095   0.827   3.963   3.030 -1.2425  2.3897  0.1605
 1756SOL    HW3 7096   0.892   4.014   2.904  0.8466 -1.5902 -0.4628
 1756SOL    MW4 7097   0.891   4.007   2.990 -0.0384  0.2913 -0.2809
 1757SOL     OW 7098   0.864   4.244   3.143 -0.5171 -0.3820 -0.0040
 1757SOL    HW2 7099   0.874   4.162   3.096 -0.3186 -0.4491  0.1559
 1757SOL    HW3 7100   0.805   4.296   3.088 -0.3324 -0.4817 -0.2980
 1757SOL    MW4 7101   0.857   4.240   3.130 -0.4666 -0.4034 -0.0215
 1758SOL     OW 7102   1.086   4.352   3.001 -0.1724  0.2571  0.2101
 1758SOL    HW2 7103   1.009   4.316   3.044  0.0961 -1.4048 -0.6522
 1758SOL    HW3 7104   1.083   4.446   3.020 -2.4293  0.2301  0.1484
 1758SOL    MW4 7105   1.075   4.360   3.009 -0.4348  0.0339  0.0882
 1759SOL     OW 7106   1.533   0.018   3.119  0.0295  0.3220 -0.2776
 1759SOL    HW2 7107   1.514   0.013   3.212 -1.4455  2.8883 -0.3772
 1759SOL    HW3 7108   1.450   0.042   3.079  1.2224  1.8413 -1.9380
 1759SOL    MW4 7109   1.520   0.021   3.126 -0.0076  0.8612 -0.5097
 1760SOL     OW 7110   1.302   0.104   3.002  0.0781 -0.0061 -0.1425
 1760SOL    HW2 7111   1.292   0.193   3.035  1.0607  0.2418 -0.4971
 1760SOL    HW3 7112   1.302   0.113   2.907  0.5367 -0.3388 -0.1784
 1760SOL    MW4 7113   1.301   0.117   2.994  0.2682 -0.0173 -0.1943
 1761SOL     OW 7114   1.338   0.362   3.090 -0.3462  0.1713  0.3812
 1761SOL    HW2 7115   1.331   0.367   3.186  0.0430  2.3418  0.3049
 1761SOL    HW3 7116   1.428   0.385   3.071 -0.9174  1.6043 -0.6368
 1761SOL    MW4 7117   1.349   0.366   3.100 -0.3701  0.6468  0.2370
 1762SOL     OW 7118   1.591   0.469   3.036  0.5875 -0.3057 -0.0791
 1762SOL    HW2 7119   1.598   0.560   3.067  1.7395 -0.8597  1.3371
 1762SOL    HW3 7120   1.574   0.478   2.942  1.0193  1.3846 -0.0238
 1762SOL    MW4 7121   1.590   0.482   3.028  0.7964 -0.1557  0.1152
 1763SOL     OW 7122   1.579   0.726   3.100  0.6271 -0.3639 -0.2152
 1763SOL    HW2 7123   1.582   0.741   3.194  1.5125 -2.0284  0.0307
 1763SOL    HW3 7124   1.493   0.757   3.073  1.0578  1.8220  0.8344
 1763SOL    MW4 7125   1.568   0.732   3.109  0.8007 -0.2951 -0.0443
 1764SOL     OW 7126   1.345   0.850   3.013 -0.3394 -0.3027 -0.0018
 1764SOL    HW2 7127   1.362   0.932   3.060  0.9621  0.4050 -1.6504
 1764SOL    HW3 7128   1.271   0.811   3.059  0.5212  0.6581  2.2502
 1764SOL    MW4 7129   1.337   0.856   3.025 -0.0541 -0.0826  0.0777
 1765SOL     OW 7130   1.383   1.107   3.138 -0.0754 -0.1216 -0.3269
 1765SOL    HW2 7131   1.392   1.138   3.228  2.0049  0.3080 -0.6547
 1765SOL    HW3 7132   1.437   1.167   3.086  1.2972 -2.2238 -1.4266
 1765SOL    MW4 7133   1.391   1.119   3.143  0.3803 -0.3425 -0.5152
 1766SOL     OW 7134   1.565   1.272   2.999  0.2306  0.0369  0.9910
 1766SOL    HW2 7135   1.649   1.241   3.033  0.4306  1.5711  1.9842
 1766SOL    HW3 7136   1.554   1.358   3.040 -1.1833  0.4306 -0.1921
 1766SOL    MW4 7137   1.575   1.279   3.009  0.0705  0.2913  0.9661
 1767SOL     OW 7138   1.550   1.510   3.118  0.2352 -0.2293  0.1752
 1767SOL    HW2 7139   1.472   1.556   3.087  0.1774 -1.1734 -1.1655
 1767SOL    HW3 7140   1.550   1.522   3.213 -0.3134  1.6494 -0.0495
 1767SOL    MW4 7141   1.540   1.517   3.126  0.1551 -0.1060 -0.0315
 1768SOL     OW 7142   1.312   1.643   3.017 -0.1560  0.0814  0.2008
 1768SOL    HW2 7143   1.315   1.737   3.037  1.8730  0.0064  0.2985
 1768SOL    HW3 7144   1.318   1.639   2.922 -2.6849  0.1238 -0.0017
 1768SOL    MW4 7145   1.313   1.655   3.007 -0.2220  0.0770  0.1869
 1769SOL     OW 7146   1.358   1.953   3.079 -0.0541 -0.8175 -0.6057
 1769SOL    HW2 7147   1.360   1.935   3.173  1.4393  1.6676 -0.1076
 1769SOL    HW3 7148   1.276   2.000   3.066  0.5821  0.4090 -0.2200
 1769SOL    MW4 7149   1.347   1.957   3.090  0.2269 -0.3278 -0.4890
 1770SOL     OW 7150   1.572   2.084   2.931 -0.1029 -0.1667 -0.0399
 1770SOL    HW2 7151   1.498   2.047   2.980 -0.7126 -0.1241 -0.9245
 1770SOL    HW3 7152   1.546   2.076   2.839  0.7651  0.3353 -0.3278
 1770SOL    MW4 7153   1.559   2.078   2.925 -0.0689 -0.0951 -0.1943
 1771SOL     OW 7154   1.565   2.344   3.054  0.6031 -0.2285  0.1580
 1771SOL    HW2 7155   1.480   2.385   3.038  0.7505  0.3249  0.7700
 1771SOL    HW3 7156   1.562   2.262   3.005 -0.0880  0.0325 -0.2403
 1771SOL    MW4 7157   1.554   2.339   3.045  0.5314 -0.1214  0.1864
 1772SOL     OW 7158   1.302   2.438   3.002  0.2235 -0.2378  0.2657
 1772SOL    HW2 7159   1.222   2.390   3.022  1.3014 -2.0883  0.2643
 1772SOL    HW3 7160   1.300   2.451   2.907  1.2204 -2.6982 -0.1154
 1772SOL    MW4 7161   1.291   2.434   2.992  0.4972 -0.8066  0.2153
 1773SOL     OW 7162   1.366   2.689   3.100  0.2075  0.3986  0.3093
 1773SOL    HW2 7163   1.341   2.604   3.062  0.7631 -0.1695  1.1831
 1773SOL    HW3 7164   1.298   2.749   3.070  1.1798  0.2026 -2.4237
 1773SOL    MW4 7165   1.354   2.685   3.091  0.4091  0.2975  0.0639
 1774SOL     OW 7166   1.579   2.837   2.985  0.2595 -0.4884  0.2181
 1774SOL    HW2 7167   1.661   2.796   3.011  0.5225 -0.1700 -0.1104
 1774SOL    HW3 7168   1.511   2.781   3.024  0.6509  0.1108  1.7859
 1774SOL    MW4 7169   1.581   2.824   2.993  0.3458 -0.3674  0.3817
 1775SOL     OW 7170   1.549   3.111   3.104  0.0247  0.2304 -0.4674
 1775SOL    HW2 7171   1.581   3.097   3.193 -0.1625  1.1772 -0.2436
 1775SOL    HW3 7172   1.555   3.025   3.062 -0.6314 -0.3808  0.6912
 1775SOL    MW4 7173   1.554   3.098   3.110 -0.0865  0.2744 -0.2849
 1776SOL     OW 7174   1.317   3.235   3.015 -0.5100 -0.1158 -0.5544
 1776SOL    HW2 7175   1.403   3.198   3.039 -0.4298  0.2206 -0.3130
 1776SOL    HW3 7176   1.315   3.231   2.919 -0.1576  0.0140 -0.5703
 1776SOL    MW4 7177   1.328   3.230   3.006 -0.4528 -0.0544 -0.5243
 1777SOL     OW 7178   1.359   3.486   3.111 -0.1300 -0.3941  0.6636
 1777SOL    HW2 7179   1.367   3.465   3.204  2.1857 -2.8361 -0.0252
 1777SOL    HW3 7180   1.348   3.401   3.068  0.4625  0.5670 -1.4335
 1777SOL    MW4 7181   1.359   3.472   3.118  0.2537 -0.5891  0.2959
 1778SOL     OW 7182   1.573   3.617   2.987  0.2517  0.0049 -0.3817
 1778SOL    HW2 7183   1.491   3.587   3.026 -0.9619  1.5741 -1.6521
 1778SOL    HW3 7184   1.558   3.614   2.893  1.7779 -0.0073 -0.6471
 1778SOL    MW4 7185   1.561   3.613   2.980  0.2929  0.2103 -0.5844
 1779SOL     OW 7186   1.556   3.883   3.088  0.1205  0.2495 -0.6994
 1779SOL    HW2 7187   1.630   3.937   3.057  0.8257 -0.2002  0.1977
 1779SOL    HW3 7188   1.570   3.798   3.048  0.1009  0.1555 -0.5065
 1779SOL    MW4 7189   1.568   3.879   3.078  0.2108  0.1776 -0.5555
 1780SOL     OW 7190   1.345   4.017   2.995 -0.5550  0.4079 -0.0374
 1780SOL    HW2 7191   1.415   3.968   3.038 -0.4650  1.2683  0.8244
 1780SOL    HW3 7192   1.266   3.967   3.014 -0.2627 -0.2315 -0.4815
 1780SOL    MW4 7193   1.344   4.004   3.003 -0.5045  0.4373  0.0179
 1781SOL     OW 7194   1.313   4.268   3.124 -0.1998 -0.0564 -0.0788
 1781SOL    HW2 7195   1.317   4.181   3.085  0.0102 -0.3845  0.6735
 1781SOL    HW3 7196   1.248   4.315   3.072  1.3805  0.0929 -1.9976
 1781SOL    MW4 7197   1.305   4.263   3.112  0.0365 -0.0801 -0.2327
 1782SOL     OW 7198   1.532   4.411   3.021  0.3815 -0.0396  0.1310
 1782SOL    HW2 7199   1.455   4.372   3.062  1.5808 -1.3872  1.1571
 1782SOL    HW3 7200   1.532   4.502   3.052 -0.7679 -0.0222  0.1253
 1782SOL    MW4 7201   1.522   4.418   3.030  0.3881 -0.2151  0.2656
 1783SOL     OW 7202   2.040   4.615   3.177  0.1663  0.1207 -0.2367
 1783SOL    HW2 7203   2.040   4.612   3.272  0.7505  0.6698 -0.2202
 1783SOL    HW3 7204   1.957   4.658   3.154 -0.9203 -1.8046 -0.0426
 1783SOL    MW4 7205   2.029   4.620   3.186  0.1001 -0.0606 -0.2091
 1784SOL     OW 7206   1.801   0.074   3.067  0.0818  0.5625 -0.3652
 1784SOL    HW2 7207   1.714   0.049   3.098 -0.0015 -0.1401 -1.1552
 1784SOL    HW3 7208   1.791   0.087   2.973  0.6201  1.4289 -0.3068
 1784SOL    MW4 7209   1.788   0.073   3.059  0.1419  0.5841 -0.4616
 1785SOL     OW 7210   1.814   0.357   3.129 -0.0355  0.4960 -0.1136
 1785SOL    HW2 7211   1.814   0.265   3.103 -0.8320  0.0389  1.4580
 1785SOL    HW3 7212   1.729   0.390   3.098  0.1273  0.6297 -0.4189
 1785SOL    MW4 7213   1.803   0.349   3.121 -0.1190  0.4534  0.0534
 1786SOL     OW 7214   2.026   0.523   3.064  0.3154  0.0273  0.1841
 1786SOL    HW2 7215   1.953   0.468   3.091  1.4456 -1.0648  1.0462
 1786SOL    HW3 7216   2.039   0.502   2.972 -0.9999  0.8640 -0.2078
 1786SOL    MW4 7217   2.018   0.513   3.055  0.2911 -0.0064  0.2460
 1787SOL     OW 7218   2.041   0.774   3.139 -0.3596  0.2324  0.0621
 1787SOL    HW2 7219   1.957   0.805   3.106 -0.6574 -1.7030 -1.1454
 1787SOL    HW3 7220   2.039   0.679   3.123  0.7645 -0.3308  2.9195
 1787SOL    MW4 7221   2.029   0.765   3.132 -0.2506 -0.0973  0.2799
 1788SOL     OW 7222   1.802   0.880   3.028  0.3315  0.2970 -0.1145
 1788SOL    HW2 7223   1.731   0.832   3.071  1.6633 -0.3460  1.4229
 1788SOL    HW3 7224   1.788   0.866   2.934 -1.1379 -0.4189  0.1987
 1788SOL    MW4 7225   1.791   0.872   3.021  0.3133  0.1177  0.1297
 1789SOL     OW 7226   1.791   1.147   3.134  0.7978  0.1457  0.7742
 1789SOL    HW2 7227   1.781   1.148   3.229  0.1580 -0.4445  0.7161
 1789SOL    HW3 7228   1.802   1.054   3.112 -0.6723  0.1048  0.1191
 1789SOL    MW4 7229   1.791   1.135   3.144  0.5194  0.0625  0.6800
 1790SOL     OW 7230   2.016   1.254   3.032 -0.2437 -0.1501 -0.1058
 1790SOL    HW2 7231   2.016   1.344   3.065 -0.6279  0.0246 -0.5705
 1790SOL    HW3 7232   1.939   1.213   3.072  0.1944 -0.4053  0.4681
 1790SOL    MW4 7233   2.005   1.261   3.041 -0.2363 -0.1607 -0.0913
 1791SOL     OW 7234   2.020   1.518   3.140 -0.1383  0.0922 -0.0803
 1791SOL    HW2 7235   2.034   1.539   3.232  1.1320 -0.2126 -0.1952
 1791SOL    HW3 7236   1.945   1.571   3.114  0.0459  0.8406  0.9076
 1791SOL    MW4 7237   2.012   1.528   3.149  0.0536  0.1508  0.0346
 1792SOL     OW 7238   1.809   1.639   3.001  0.2402 -0.0537  0.2874
 1792SOL    HW2 7239   1.787   1.731   3.016 -0.6386 -0.3128  0.5416
 1792SOL    HW3 7240   1.733   1.590   3.030  1.0225 -0.9239  0.8989
 1792SOL    MW4 7241   1.796   1.645   3.007  0.2275 -0.2027  0.4015
 1793SOL     OW 7242   1.766   1.922   3.036 -1.0670 -0.3437  1.0221
 1793SOL    HW2 7243   1.849   1.963   3.012 -0.3184 -1.4850  1.6637
 1793SOL    HW3 7244   1.699   1.984   3.005 -0.0385 -0.2867 -1.1434
 1793SOL    MW4 7245   1.768   1.936   3.029 -0.8326 -0.4867  0.8209
 1794SOL     OW 7246   2.010   2.030   2.989 -0.1565 -0.1873 -0.4127
 1794SOL    HW2 7247   2.090   1.991   3.025 -1.2466 -0.4543  1.8168
 1794SOL    HW3 7248   2.012   2.121   3.021 -1.2367 -0.4854  0.5498
 1794SOL    MW4 7249   2.021   2.037   2.998 -0.4432 -0.2618  0.0086
 1795SOL     OW 7250   2.008   2.295   3.092  0.0562 -1.0358  0.2497
 1795SOL    HW2 7251   2.093   2.321   3.058  0.3901 -0.6531  1.3564
 1795SOL    HW3 7252   1.947   2.358   3.054  0.3135 -1.1284 -0.3083
 1795SOL    MW4 7253   2.011   2.307   3.083  0.1345 -0.9973  0.3223
 1796SOL     OW 7254   1.808   2.462   2.988  0.2821 -0.1207  0.0893
 1796SOL    HW2 7255   1.806   2.557   3.005 -1.0026 -0.1831  0.3253
 1796SOL    HW3 7256   1.724   2.430   3.021  1.0228 -1.4687  0.7147
 1796SOL    MW4 7257   1.797   2.471   2.995  0.2102 -0.3068  0.2029
 1797SOL     OW 7258   1.814   2.737   3.100  0.2259 -0.1735  0.1390
 1797SOL    HW2 7259   1.810   2.721   3.194  1.2210 -1.2579 -0.0020
 1797SOL    HW3 7260   1.901   2.775   3.086 -0.8861  2.4311  0.0145
 1797SOL    MW4 7261   1.825   2.740   3.110  0.2105  0.0272  0.1040
 1798SOL     OW 7262   2.061   2.830   3.014 -0.1956 -0.0304 -0.1978
 1798SOL    HW2 7263   2.043   2.916   3.052 -1.0934 -0.3866  0.1857
 1798SOL    HW3 7264   2.040   2.839   2.922  1.4387  0.6728 -0.5172
 1798SOL    MW4 7265   2.056   2.842   3.007 -0.0987  0.0153 -0.1891
 1799SOL     OW 7266   1.995   3.095   3.119  0.4050 -0.3513 -0.1987
 1799SOL    HW2 7267   1.996   3.117   3.213  0.0694 -1.7498  0.1411
 1799SOL    HW3 7268   1.918   3.141   3.085 -0.6455 -1.4653  0.6298
 1799SOL    MW4 7269   1.985   3.104   3.127  0.2221 -0.6828 -0.0441
 1800SOL     OW 7270   1.780   3.232   2.992 -0.4730 -0.5675  0.3612
 1800SOL    HW2 7271   1.699   3.191   3.023 -0.7243 -0.7688 -0.5357
 1800SOL    HW3 7272   1.771   3.233   2.896  0.2350  0.1327  0.2973
 1800SOL    MW4 7273   1.768   3.227   2.983 -0.4127 -0.5016  0.2346
 1801SOL     OW 7274   1.770   3.483   3.115 -0.5241 -0.5572  0.4235
 1801SOL    HW2 7275   1.786   3.399   3.073 -1.7505 -1.0292  0.8802
 1801SOL    HW3 7276   1.697   3.521   3.066  1.2102  1.1066 -0.9829
 1801SOL    MW4 7277   1.763   3.477   3.103 -0.4569 -0.4001  0.2978
 1802SOL     OW 7278   2.020   3.640   3.067  0.1944  0.4568  0.5142
 1802SOL    HW2 7279   2.010   3.735   3.079 -1.4641  0.3912 -0.2455
 1802SOL    HW3 7280   1.937   3.603   3.097  0.4829 -0.6805 -0.0594
 1802SOL    MW4 7281   2.008   3.648   3.073  0.0138  0.2980  0.3386
 1803SOL     OW 7282   2.008   3.914   3.143 -0.8805 -0.2543 -0.2907
 1803SOL    HW2 7283   1.981   3.913   3.235 -0.7061 -0.3370 -0.2402
 1803SOL    HW3 7284   1.929   3.936   3.095 -1.0180 -0.4046 -0.1348
 1803SOL    MW4 7285   1.994   3.916   3.149 -0.8756 -0.2851 -0.2637
 1804SOL     OW 7286   1.777   4.029   3.021 -0.0148  0.5744 -0.4892
 1804SOL    HW2 7287   1.759   4.116   3.055 -1.0063 -0.1022  0.7761
 1804SOL    HW3 7288   1.778   4.039   2.926 -1.4838  1.7005 -0.3967
 1804SOL    MW4 7289   1.775   4.041   3.013 -0.3394  0.6337 -0.3099
 1805SOL     OW 7290   1.743   4.276   3.119 -0.2561 -0.2223  0.0819
 1805SOL    HW2 7291   1.816   4.325   3.082 -1.6863  1.6793 -0.2697
 1805SOL    HW3 7292   1.665   4.313   3.077 -1.5076 -1.5403  1.1782
 1805SOL    MW4 7293   1.742   4.287   3.108 -0.6099 -0.1450  0.1800
 1806SOL     OW 7294   1.990   4.362   3.041 -0.3242 -0.1407  0.4267
 1806SOL    HW2 7295   2.008   4.445   3.087 -0.6211  0.4741 -0.5542
 1806SOL    HW3 7296   1.997   4.384   2.948 -0.0205 -1.3158  0.1634
 1806SOL    MW4 7297   1.993   4.376   3.035 -0.3232 -0.2146  0.2625
 1807SOL     OW 7298   2.442   4.665   3.123 -0.5482 -0.2851  0.1962
 1807SOL    HW2 7299   2.457   4.584   3.074  0.2195 -0.1842  0.2538
 1807SOL    HW3 7300   2.373   4.710   3.075 -1.5651 -1.3533  0.6288
 1807SOL    MW4 7301   2.435   4.660   3.110 -0.5810 -0.4129  0.2611
 1808SOL     OW 7302   2.199   0.119   3.027  0.6345 -0.1465  0.2609
 1808SOL    HW2 7303   2.205   0.189   3.092  0.1900 -0.6159  0.8059
 1808SOL    HW3 7304   2.157   0.047   3.073 -0.9300 -0.0177 -0.9459
 1808SOL    MW4 7305   2.194   0.119   3.041  0.3693 -0.1914  0.1736
 1809SOL     OW 7306   2.237   0.380   3.162  0.2459 -0.2507 -0.1538
 1809SOL    HW2 7307   2.220   0.378   3.257  0.3435 -0.2398 -0.1367
 1809SOL    HW3 7308   2.165   0.433   3.126 -1.3264 -2.4723 -0.3911
 1809SOL    MW4 7309   2.225   0.387   3.170  0.0513 -0.5423 -0.1826
 1810SOL     OW 7310   2.434   0.520   3.029  0.2544 -0.5144  0.1080
 1810SOL    HW2 7311   2.369   0.467   3.075  2.0160 -2.1288  0.8094
 1810SOL    HW3 7312   2.425   0.495   2.938 -2.8871  2.3056 -0.4589
 1810SOL    MW4 7313   2.424   0.510   3.023  0.0725 -0.3554  0.1256
 1811SOL     OW 7314   2.467   0.794   3.096 -0.2813 -0.1173  0.4763
 1811SOL    HW2 7315   2.398   0.851   3.063 -0.5818 -0.0748  1.1778
 1811SOL    HW3 7316   2.443   0.707   3.064 -0.9507 -0.1905  1.1566
 1811SOL    MW4 7317   2.454   0.790   3.088 -0.4091 -0.1213  0.6585
 1812SOL     OW 7318   2.237   0.935   3.012  0.1814 -0.1489 -0.5577
 1812SOL    HW2 7319   2.250   1.013   3.067  2.1216  0.0988 -1.3540
 1812SOL    HW3 7320   2.158   0.894   3.048 -0.3179  1.6602  0.4800
 1812SOL    MW4 7321   2.228   0.940   3.024  0.3715  0.1225 -0.5257
 1813SOL     OW 7322   2.269   1.193   3.124  0.0408  0.1048  0.4756
 1813SOL    HW2 7323   2.253   1.179   3.217 -0.6959 -2.6328  0.0019
 1813SOL    HW3 7324   2.182   1.201   3.085  0.1522 -2.6056 -0.4533
 1813SOL    MW4 7325   2.256   1.192   3.131 -0.0417 -0.6140  0.2904
 1814SOL     OW 7326   2.509   1.304   3.035 -0.2365  0.0250 -0.2413
 1814SOL    HW2 7327   2.431   1.256   3.063  0.1993  0.2051  1.2992
 1814SOL    HW3 7328   2.498   1.312   2.940 -1.1732 -1.5653 -0.2965
 1814SOL    MW4 7329   2.497   1.299   3.026 -0.3026 -0.1611 -0.0453
 1815SOL     OW 7330   2.463   1.549   3.124  0.2467  0.0333 -0.1207
 1815SOL    HW2 7331   2.388   1.573   3.069 -1.0417 -2.1377  0.6415
 1815SOL    HW3 7332   2.479   1.457   3.105  1.4769 -0.0406  1.1881
 1815SOL    MW4 7333   2.455   1.540   3.114  0.2391 -0.2629  0.1526
 1816SOL     OW 7334   2.238   1.684   3.004  0.2760  0.0391  0.1883
 1816SOL    HW2 7335   2.173   1.620   3.034  1.1614 -0.3056  1.4061
 1816SOL    HW3 7336   2.235   1.678   2.908  0.0660 -1.5464  0.2842
 1816SOL    MW4 7337   2.229   1.675   2.995  0.3650 -0.2154  0.3614
 1817SOL     OW 7338   2.241   1.949   3.076 -0.0700  0.1822 -0.1599
 1817SOL    HW2 7339   2.325   1.983   3.046  0.0300  1.0473  1.0371
 1817SOL    HW3 7340   2.250   1.854   3.070  1.1624  0.2516  0.3873
 1817SOL    MW4 7341   2.253   1.941   3.071  0.1056  0.3055  0.0703
 1818SOL     OW 7342   2.478   2.026   2.977  0.2233  0.0891  0.4860
 1818SOL    HW2 7343   2.544   1.978   3.028 -0.3031 -1.2510 -0.0505
 1818SOL    HW3 7344   2.506   2.015   2.886  0.9619  2.1637  0.4503
 1818SOL    MW4 7345   2.491   2.018   2.972  0.2513  0.1862  0.4108
 1819SOL     OW 7346   2.485   2.279   3.057  0.1540 -0.3261 -0.2504
 1819SOL    HW2 7347   2.493   2.263   3.151 -0.2636  0.0534 -0.1414
 1819SOL    HW3 7348   2.491   2.193   3.016 -0.5648 -0.5896  0.1955
 1819SOL    MW4 7349   2.487   2.266   3.064  0.0041 -0.3107 -0.1769
 1820SOL     OW 7350   2.245   2.409   3.007  0.1392  0.0354 -0.2788
 1820SOL    HW2 7351   2.251   2.488   3.060 -0.1548  0.2281 -0.5318
 1820SOL    HW3 7352   2.325   2.361   3.027 -0.7908 -0.7603  1.7064
 1820SOL    MW4 7353   2.256   2.413   3.016 -0.0224 -0.0439 -0.0503
 1821SOL     OW 7354   2.268   2.659   3.109 -0.3719 -0.0353 -0.2216
 1821SOL    HW2 7355   2.337   2.716   3.075  1.3989 -3.4867 -2.6651
 1821SOL    HW3 7356   2.187   2.706   3.089  1.1293  3.2098  0.9911
 1821SOL    MW4 7357   2.266   2.673   3.102  0.0596 -0.0625 -0.3843
 1822SOL     OW 7358   2.461   2.827   3.023  0.3375 -0.1728  0.5462
 1822SOL    HW2 7359   2.457   2.920   3.045 -0.7680 -0.2260  0.5973
 1822SOL    HW3 7360   2.461   2.825   2.927  1.2381 -0.0918  0.5403
 1822SOL    MW4 7361   2.461   2.839   3.013  0.3102 -0.1688  0.5524
 1823SOL     OW 7362   2.445   3.089   3.095 -0.3405  0.0202 -0.0140
 1823SOL    HW2 7363   2.522   3.143   3.076  0.6287 -0.9160  1.1308
 1823SOL    HW3 7364   2.372   3.134   3.053  0.7145  1.3632 -0.4188
 1823SOL    MW4 7365   2.446   3.102   3.087 -0.0734  0.0739  0.0834
 1824SOL     OW 7366   2.219   3.233   3.001 -0.3179 -0.3216 -0.3198
 1824SOL    HW2 7367   2.235   3.313   3.050  0.0100 -1.2002  1.0295
 1824SOL    HW3 7368   2.153   3.186   3.051 -0.0700 -1.1797 -0.7758
 1824SOL    MW4 7369   2.212   3.237   3.014 -0.2420 -0.5507 -0.2019
 1825SOL     OW 7370   2.249   3.495   3.129 -0.3774 -0.0666 -0.1194
 1825SOL    HW2 7371   2.318   3.545   3.085 -0.2081 -0.0024  0.2173
 1825SOL    HW3 7372   2.167   3.538   3.104 -0.2702  0.0566 -0.2560
 1825SOL    MW4 7373   2.247   3.507   3.120 -0.3407 -0.0417 -0.0930
 1826SOL     OW 7374   2.460   3.622   3.041  0.0993  0.1827 -0.2623
 1826SOL    HW2 7375   2.549   3.588   3.051 -0.1122 -0.1434  0.4903
 1826SOL    HW3 7376   2.463   3.711   3.076  0.7104  1.0661 -2.4468
 1826SOL    MW4 7377   2.472   3.629   3.047  0.1519  0.2561 -0.4513
 1827SOL     OW 7378   2.443   3.877   3.154 -0.4088  0.0459 -0.0227
 1827SOL    HW2 7379   2.432   3.888   3.249  0.9097 -0.5840  0.2096
 1827SOL    HW3 7380   2.519   3.931   3.133 -0.3286 -0.3009 -0.6245
 1827SOL    MW4 7381   2.452   3.886   3.164 -0.2244 -0.0832 -0.0713
 1828SOL     OW 7382   2.235   3.999   3.017  0.3396  0.5397  0.3614
 1828SOL    HW2 7383   2.303   3.946   3.058  0.1681 -0.4995 -0.6635
 1828SOL    HW3 7384   2.154   3.973   3.061  0.2391 -0.1369 -0.2244
 1828SOL    MW4 7385   2.233   3.989   3.028  0.3037  0.3135  0.1488
 1829SOL     OW 7386   2.241   4.267   3.097  0.0275 -0.1992  0.0590
 1829SOL    HW2 7387   2.236   4.175   3.071  0.2368 -0.4248  0.8041
 1829SOL    HW3 7388   2.155   4.302   3.075 -0.2749 -0.7352  0.3576
 1829SOL    MW4 7389   2.229   4.259   3.091  0.0150 -0.2999  0.1969
 1830SOL     OW 7390   2.476   4.401   3.025  0.1907  0.3094 -0.0946
 1830SOL    HW2 7391   2.399   4.356   3.059 -0.1213  0.8901 -0.0203
 1830SOL    HW3 7392   2.471   4.387   2.930  0.7278 -0.7874  0.0331
 1830SOL    MW4 7393   2.465   4.394   3.017  0.2203  0.2413 -0.0677
 1831SOL     OW 7394   2.894   4.657   3.162 -0.0859  0.2389  0.1336
 1831SOL    HW2 7395   2.973   4.704   3.134  0.6900 -1.0407  0.1284
 1831SOL    HW3 7396   2.893   4.579   3.107 -1.0820 -0.0110  0.5110
 1831SOL    MW4 7397   2.904   4.653   3.151 -0.1149  0.0372  0.1826
 1832SOL     OW 7398   2.677   0.127   3.046 -0.0447  0.1304  0.0928
 1832SOL    HW2 7399   2.738   0.079   3.102 -0.5000 -0.3507  0.1819
 1832SOL    HW3 7400   2.590   0.097   3.074 -0.2879  0.1548 -0.6276
 1832SOL    MW4 7401   2.674   0.117   3.057 -0.1366  0.0701  0.0093
 1833SOL     OW 7402   2.677   0.393   3.051 -0.2512 -0.4809  0.5444
 1833SOL    HW2 7403   2.665   0.298   3.052 -2.2452 -0.2518  0.8428
 1833SOL    HW3 7404   2.590   0.428   3.034  0.3490  1.3249  1.0349
 1833SOL    MW4 7405   2.664   0.385   3.049 -0.4354 -0.2124  0.6487
 1834SOL     OW 7406   2.909   0.483   2.963  0.3573  0.0969 -0.0332
 1834SOL    HW2 7407   2.821   0.458   2.990 -0.0924  1.9313  0.2134
 1834SOL    HW3 7408   2.910   0.468   2.868 -0.0422 -0.4241  0.0418
 1834SOL    MW4 7409   2.898   0.477   2.954  0.2453  0.2701  0.0093
 1835SOL     OW 7410   2.906   0.733   3.082  0.0571  0.3265  0.1360
 1835SOL    HW2 7411   2.903   0.722   3.177  0.8712 -0.1780  0.1111
 1835SOL    HW3 7412   2.909   0.643   3.049  1.9203  0.5351 -0.2814
 1835SOL    MW4 7413   2.906   0.719   3.090  0.4103  0.2875  0.0775
 1836SOL     OW 7414   2.704   0.903   2.991 -0.5783 -0.1389  0.0234
 1836SOL    HW2 7415   2.784   0.852   3.006  0.1451  1.7694  3.1996
 1836SOL    HW3 7416   2.636   0.855   3.040 -0.7738 -0.2523 -0.3606
 1836SOL    MW4 7417   2.706   0.890   3.000 -0.5088  0.0980  0.3920
 1837SOL     OW 7418   2.722   1.165   3.133  0.1749 -0.1523 -0.0990
 1837SOL    HW2 7419   2.709   1.077   3.098  1.9863 -0.4779 -0.0086
 1837SOL    HW3 7420   2.643   1.212   3.109 -0.3031 -1.4730 -1.1892
 1837SOL    MW4 7421   2.710   1.159   3.125  0.3505 -0.3697 -0.2308
 1838SOL     OW 7422   2.940   1.305   3.008 -0.1573  0.0247 -0.0434
 1838SOL    HW2 7423   2.934   1.398   3.030  1.2404  0.0067  0.4655
 1838SOL    HW3 7424   2.870   1.264   3.060 -0.3609  0.6998  0.2215
 1838SOL    MW4 7425   2.930   1.312   3.018  0.0002  0.1115  0.0587
 1839SOL     OW 7426   2.890   1.564   3.109 -0.1827 -0.0126  0.3298
 1839SOL    HW2 7427   2.894   1.535   3.200  1.2697 -0.6672  0.0733
 1839SOL    HW3 7428   2.971   1.614   3.097 -1.7866  2.6275  0.2502
 1839SOL    MW4 7429   2.902   1.567   3.120 -0.2027  0.2494  0.2856
 1840SOL     OW 7430   2.662   1.670   2.973 -0.6736 -0.4798  0.0439
 1840SOL    HW2 7431   2.743   1.631   3.004 -0.0182  1.3370  0.6729
 1840SOL    HW3 7432   2.593   1.626   3.024  0.0276 -0.9110  0.6233
 1840SOL    MW4 7433   2.664   1.659   2.984 -0.4945 -0.2972  0.2034
 1841SOL     OW 7434   2.697   1.915   3.097  0.2421  0.0008  0.3328
 1841SOL    HW2 7435   2.775   1.961   3.068 -0.0432 -0.3429 -1.0338
 1841SOL    HW3 7436   2.706   1.827   3.062 -0.8804  0.0338 -0.0699
 1841SOL    MW4 7437   2.708   1.909   3.089  0.0563 -0.0402  0.0994
 1842SOL     OW 7438   2.926   2.056   2.982 -0.1467  0.0419 -0.1534
 1842SOL    HW2 7439   2.903   2.143   3.014  2.8324  1.3240 -1.3772
 1842SOL    HW3 7440   2.915   2.061   2.887  2.3993 -0.1252 -0.4861
 1842SOL    MW4 7441   2.921   2.068   2.974  0.5822  0.1891 -0.3588
 1843SOL     OW 7442   2.883   2.302   3.100 -0.1681 -0.8542  0.1250
 1843SOL    HW2 7443   2.965   2.342   3.074 -0.0554 -0.8485  0.4835
 1843SOL    HW3 7444   2.815   2.362   3.069 -0.0992 -1.4830 -1.2946
 1843SOL    MW4 7445   2.885   2.315   3.092 -0.1440 -0.9365 -0.0150
 1844SOL     OW 7446   2.687   2.465   3.004  0.2390 -0.2718  0.1843
 1844SOL    HW2 7447   2.656   2.542   3.051  0.9668  0.5986 -0.7315
 1844SOL    HW3 7448   2.616   2.402   3.011 -0.0850  0.2256  1.5404
 1844SOL    MW4 7449   2.674   2.467   3.011  0.2921 -0.0916  0.2425
 1845SOL     OW 7450   2.717   2.768   3.137  0.3436  0.1846 -0.1696
 1845SOL    HW2 7451   2.723   2.750   3.230 -0.6511  0.0680 -0.1225
 1845SOL    HW3 7452   2.623   2.773   3.119  0.5096 -0.6663 -1.3289
 1845SOL    MW4 7453   2.705   2.766   3.147  0.2341  0.0567 -0.3161
 1846SOL     OW 7454   2.950   2.811   2.961  0.2952  0.6229  0.3253
 1846SOL    HW2 7455   3.025   2.780   3.012 -0.2034  0.0103  0.7001
 1846SOL    HW3 7456   2.874   2.786   3.013 -0.1776  1.0797 -0.1400
 1846SOL    MW4 7457   2.950   2.803   2.974  0.1671  0.6022  0.3130
 1847SOL     OW 7458   2.904   3.089   3.076 -0.4721  0.1439  0.4764
 1847SOL    HW2 7459   2.822   3.128   3.045 -0.1171 -0.0311 -0.7081
 1847SOL    HW3 7460   2.921   3.018   3.014  1.8035  1.6568 -0.6943
 1847SOL    MW4 7461   2.895   3.085   3.064 -0.1249  0.3204  0.1657
 1848SOL     OW 7462   2.687   3.228   2.991  0.2367 -0.3157  0.2486
 1848SOL    HW2 7463   2.689   3.313   3.035  0.0072 -0.2334  0.1005
 1848SOL    HW3 7464   2.669   3.249   2.899  0.0326 -0.5332  0.2384
 1848SOL    MW4 7465   2.685   3.242   2.985  0.1793 -0.3335  0.2277
 1849SOL     OW 7466   2.709   3.514   3.057 -0.1374  0.4840 -0.2675
 1849SOL    HW2 7467   2.689   3.497   3.149  0.0163 -1.3699 -0.5537
 1849SOL    HW3 7468   2.800   3.546   3.059  0.2228 -0.5292  0.1436
 1849SOL    MW4 7469   2.719   3.516   3.070 -0.0696  0.1056 -0.2511
 1850SOL     OW 7470   2.955   3.614   3.013 -0.2311 -0.0251 -0.1429
 1850SOL    HW2 7471   3.027   3.585   3.070 -1.1635  0.4936  1.3158
 1850SOL    HW3 7472   2.922   3.693   3.054 -0.4412  0.7956 -1.8338
 1850SOL    MW4 7473   2.960   3.621   3.026 -0.3819  0.1519 -0.1733
 1851SOL     OW 7474   2.895   3.844   3.138  0.3792 -0.0217  0.5251
 1851SOL    HW2 7475   2.906   3.849   3.233  0.6178  1.8584  0.4143
 1851SOL    HW3 7476   2.821   3.902   3.119  0.4551 -0.2346 -0.4667
 1851SOL    MW4 7477   2.887   3.852   3.148  0.4206  0.1981  0.3798
 1852SOL     OW 7478   2.674   3.980   3.047 -0.2936 -0.2392 -0.2108
 1852SOL    HW2 7479   2.670   4.074   3.064 -2.7185 -0.6280  1.6136
 1852SOL    HW3 7480   2.684   3.973   2.952 -0.6777  1.8255 -0.4267
 1852SOL    MW4 7481   2.675   3.992   3.037 -0.6645 -0.0184  0.0014
 1853SOL     OW 7482   2.693   4.243   3.108 -0.4577  0.2014 -0.5892
 1853SOL    HW2 7483   2.695   4.239   3.203  0.5877 -1.9725 -0.6667
 1853SOL    HW3 7484   2.629   4.312   3.088 -0.9779  0.4055  1.6619
 1853SOL    MW4 7485   2.685   4.251   3.118 -0.3881 -0.0587 -0.3026
 1854SOL     OW 7486   2.897   4.412   3.046  0.0786 -0.1685 -0.0018
 1854SOL    HW2 7487   2.972   4.363   3.080  0.3986  0.2669 -0.0617
 1854SOL    HW3 7488   2.821   4.360   3.069  0.4306 -0.8226 -0.2959
 1854SOL    MW4 7489   2.897   4.399   3.053  0.1671 -0.1969 -0.0486
 1855SOL     OW 7490   3.345   4.666   3.160  0.1387 -0.0360 -0.4239
 1855SOL    HW2 7491   3.425   4.708   3.130 -0.2707 -0.0568 -1.5817
 1855SOL    HW3 7492   3.349   4.578   3.122  0.5646 -0.7410  1.2417
 1855SOL    MW4 7493   3.356   4.660   3.151  0.1407 -0.1316 -0.3569
 1856SOL     OW 7494   3.110   0.117   3.048  0.0328  0.3284 -0.1470
 1856SOL    HW2 7495   3.108   0.208   3.076  0.2351  0.0135  0.8916
 1856SOL    HW3 7496   3.190   0.081   3.086  0.5220  0.0076 -1.4579
 1856SOL    MW4 7497   3.120   0.124   3.056  0.1240  0.2445 -0.1831
 1857SOL     OW 7498   3.091   0.369   3.148  0.9170  0.4100  0.3351
 1857SOL    HW2 7499   3.176   0.393   3.109  0.8276  0.1698 -0.0127
 1857SOL    HW3 7500   3.027   0.404   3.086  0.7805 -0.4757 -0.0380
 1857SOL    MW4 7501   3.094   0.377   3.134  0.8872  0.2614  0.2401
 1858SOL     OW 7502   3.309   0.459   3.024  0.0190 -0.5183  0.1116
 1858SOL    HW2 7503   3.392   0.418   3.047  0.1987 -0.3415 -0.2258
 1858SOL    HW3 7504   3.315   0.475   2.930 -0.1425  0.0696  0.1978
 1858SOL    MW4 7505   3.320   0.456   3.015  0.0215 -0.4174  0.0784
 1859SOL     OW 7506   3.336   0.724   3.103 -0.1878  0.2231  0.3718
 1859SOL    HW2 7507   3.361   0.723   3.195 -2.0635 -0.3330  0.9076
 1859SOL    HW3 7508   3.322   0.632   3.081 -0.4914  0.4141 -0.2532
 1859SOL    MW4 7509   3.337   0.712   3.112 -0.4754  0.1749  0.3603
 1860SOL     OW 7510   3.118   0.901   3.049 -0.5526  0.0439 -0.0766
 1860SOL    HW2 7511   3.191   0.857   3.091 -0.0913  0.7444 -0.1360
 1860SOL    HW3 7512   3.041   0.851   3.075 -0.1342 -0.2461  0.6042
 1860SOL    MW4 7513   3.117   0.889   3.058 -0.4365  0.0980  0.0052
 1861SOL     OW 7514   3.144   1.157   3.128 -0.0331  0.0338  0.4352
 1861SOL    HW2 7515   3.134   1.068   3.094  0.2449 -0.1375  0.8049
 1861SOL    HW3 7516   3.076   1.207   3.082 -0.5085 -0.4681  0.5761
 1861SOL    MW4 7517   3.133   1.152   3.117 -0.0591 -0.0551  0.5023
 1862SOL     OW 7518   3.371   1.257   3.015 -0.1675  0.4266 -0.1852
 1862SOL    HW2 7519   3.450   1.224   3.058  1.1755  1.5007 -1.7656
 1862SOL    HW3 7520   3.300   1.203   3.050  1.2000 -0.2554  1.5980
 1862SOL    MW4 7521   3.372   1.246   3.026  0.1898  0.4783 -0.1583
 1863SOL     OW 7522   3.357   1.526   3.102  0.1963 -0.1085 -0.1337
 1863SOL    HW2 7523   3.352   1.542   3.196  0.0738  0.4292 -0.2283
 1863SOL    HW3 7524   3.338   1.433   3.092 -0.5638 -0.0058  0.3029
 1863SOL    MW4 7525   3.354   1.516   3.113  0.0796 -0.0240 -0.0887
 1864SOL     OW 7526   3.148   1.691   3.014 -0.4654  0.6199  0.3846
 1864SOL    HW2 7527   3.221   1.640   3.050 -0.4146  1.7507  1.8959
 1864SOL    HW3 7528   3.146   1.666   2.921  1.8989  0.6400  0.2902
 1864SOL    MW4 7529   3.157   1.681   3.006 -0.1469  0.7718  0.5717
 1865SOL     OW 7530   3.152   1.942   3.107  0.4193  0.2447 -0.0206
 1865SOL    HW2 7531   3.133   1.858   3.066 -0.7914  0.6590 -0.3264
 1865SOL    HW3 7532   3.089   2.003   3.068 -1.0459  0.5710  2.7596
 1865SOL    MW4 7533   3.142   1.939   3.096  0.0660  0.3425  0.3059
 1866SOL     OW 7534   3.391   2.009   2.985  0.5132  0.2941 -0.7381
 1866SOL    HW2 7535   3.465   1.972   3.032  0.7182  0.4788 -0.9152
 1866SOL    HW3 7536   3.314   1.980   3.034  0.7232  0.4395 -0.3237
 1866SOL    MW4 7537   3.391   2.000   2.997  0.5677  0.3378 -0.7067
 1867SOL     OW 7538   3.368   2.282   3.074  0.3770  0.0304  0.0622
 1867SOL    HW2 7539   3.354   2.282   3.169  1.7599 -1.6835  0.2771
 1867SOL    HW3 7540   3.389   2.191   3.053 -0.3549  0.3121 -1.9679
 1867SOL    MW4 7541   3.369   2.270   3.084  0.4625 -0.1585 -0.1774
 1868SOL     OW 7542   3.135   2.420   3.043 -0.5558 -0.0741 -0.5296
 1868SOL    HW2 7543   3.217   2.372   3.055 -0.3482  0.5924  0.9495
 1868SOL    HW3 7544   3.130   2.437   2.949  1.1857  0.1637 -0.6035
 1868SOL    MW4 7545   3.145   2.416   3.032 -0.2987  0.0451 -0.3445
 1869SOL     OW 7546   3.131   2.697   3.123  0.2254  0.0704 -0.0846
 1869SOL    HW2 7547   3.111   2.694   3.216  1.2573  0.7615  0.1747
 1869SOL    HW3 7548   3.125   2.606   3.093 -0.2849 -0.1242  0.6175
 1869SOL    MW4 7549   3.128   2.685   3.131  0.2940  0.1359  0.0422
 1870SOL     OW 7550   3.362   2.820   3.044 -0.4945 -0.4214  0.0719
 1870SOL    HW2 7551   3.353   2.912   3.066 -0.5526 -0.9105  2.2151
 1870SOL    HW3 7552   3.288   2.777   3.086 -0.3729 -1.4712 -0.7527
 1870SOL    MW4 7553   3.351   2.826   3.052 -0.4861 -0.6244  0.2460
 1871SOL     OW 7554   3.372   3.089   3.095  0.2011  0.8304 -0.2324
 1871SOL    HW2 7555   3.374   3.085   3.190 -0.4620 -0.6538 -0.2691
 1871SOL    HW3 7556   3.291   3.135   3.074 -0.0701  0.4108 -0.1003
 1871SOL    MW4 7557   3.362   3.095   3.105  0.0780  0.5794 -0.2198
 1872SOL     OW 7558   3.160   3.221   3.007  0.4149 -0.0514  0.3387
 1872SOL    HW2 7559   3.071   3.210   3.040  0.1306 -0.8452 -0.6781
 1872SOL    HW3 7560   3.151   3.218   2.912  1.4040  0.8491  0.2059
 1872SOL    MW4 7561   3.147   3.220   2.999  0.5078 -0.0372  0.1867
 1873SOL     OW 7562   3.178   3.483   3.166  0.0518  0.1257  0.4673
 1873SOL    HW2 7563   3.241   3.548   3.134  0.0298  0.2100  0.5943
 1873SOL    HW3 7564   3.204   3.401   3.124 -0.4478  0.3957 -0.3817
 1873SOL    MW4 7565   3.190   3.481   3.156 -0.0169  0.1726  0.3722
 1874SOL     OW 7566   3.352   3.649   3.052 -0.5872 -0.3459  0.0645
 1874SOL    HW2 7567   3.426   3.607   3.097 -0.0817 -2.2234 -2.4471
 1874SOL    HW3 7568   3.363   3.742   3.072  1.4056 -0.7907  1.2408
 1874SOL    MW4 7569   3.363   3.656   3.061 -0.2575 -0.6523 -0.1118
 1875SOL     OW 7570   3.342   3.922   3.132  0.1620 -0.0638  0.2137
 1875SOL    HW2 7571   3.325   3.906   3.225 -0.0540  0.7376  0.3151
 1875SOL    HW3 7572   3.259   3.955   3.097  0.6844  1.1508  0.0909
 1875SOL    MW4 7573   3.329   3.924   3.140  0.2024  0.2024  0.2108
 1876SOL     OW 7574   3.100   4.002   3.022  0.3132 -0.4207 -0.3146
 1876SOL    HW2 7575   3.027   3.950   3.057  1.1745 -1.3726  0.0695
 1876SOL    HW3 7576   3.091   3.994   2.927 -0.7625  0.4153 -0.2995
 1876SOL    MW4 7577   3.089   3.994   3.014  0.2849 -0.4361 -0.2618
 1877SOL     OW 7578   3.134   4.286   3.137 -0.3755  0.3796 -0.1575
 1877SOL    HW2 7579   3.147   4.278   3.231  1.6977  0.8395 -0.3731
 1877SOL    HW3 7580   3.148   4.197   3.103  0.2556  0.4745 -0.1607
 1877SOL    MW4 7581   3.138   4.273   3.145 -0.0191  0.4525 -0.1867
 1878SOL     OW 7582   3.373   4.395   3.043  0.2253  0.3000 -0.7856
 1878SOL    HW2 7583   3.446   4.351   3.087 -0.7984  0.1175  0.7853
 1878SOL    HW3 7584   3.296   4.347   3.073 -0.6255  1.0678 -1.7233
 1878SOL    MW4 7585   3.373   4.383   3.053 -0.0219  0.3772 -0.7021
 1879SOL     OW 7586   3.830   0.002   3.148  0.6091  0.0522  0.2289
 1879SOL    HW2 7587   3.832  -0.089   3.118 -0.6414  0.6215 -1.6816
 1879SOL    HW3 7588   3.742   0.033   3.124  1.6169  2.2577 -0.7159
 1879SOL    MW4 7589   3.818  -0.006   3.141  0.5770  0.4182 -0.1478
 1880SOL     OW 7590   3.581   0.087   3.053 -0.2242 -0.3608 -0.6223
 1880SOL    HW2 7591   3.581   0.178   3.084  0.4842 -0.4470 -0.3653
 1880SOL    HW3 7592   3.575   0.095   2.958  1.1948 -0.0001 -0.6984
 1880SOL    MW4 7593   3.580   0.100   3.045  0.0565 -0.3246 -0.5984
 1881SOL     OW 7594   3.562   0.341   3.145  0.1078  0.2462  0.0316
 1881SOL    HW2 7595   3.562   0.349   3.241  0.6939  0.0644  0.0525
 1881SOL    HW3 7596   3.640   0.389   3.117  1.0042 -1.3189 -0.2013
 1881SOL    MW4 7597   3.572   0.348   3.154  0.3035  0.0157  0.0038
 1882SOL     OW 7598   3.763   0.504   3.041  0.2199  0.0290  0.9160
 1882SOL    HW2 7599   3.846   0.473   3.076  1.0107  1.0324 -0.0223
 1882SOL    HW3 7600   3.759   0.596   3.069 -0.4088  0.0758  0.6681
 1882SOL    MW4 7601   3.774   0.512   3.050  0.2413  0.1676  0.7594
 1883SOL     OW 7602   3.783   0.761   3.158  0.3911  0.9149  0.2442
 1883SOL    HW2 7603   3.792   0.759   3.253  0.8878 -1.3200  0.1896
 1883SOL    HW3 7604   3.871   0.780   3.126  0.1325  2.1042  0.2455
 1883SOL    MW4 7605   3.796   0.763   3.167  0.4225  0.7769  0.2372
 1884SOL     OW 7606   3.560   0.882   3.027 -0.8136  0.0247  0.0600
 1884SOL    HW2 7607   3.636   0.839   3.067 -0.3611  1.9600  1.3467
 1884SOL    HW3 7608   3.489   0.818   3.036  0.3940 -1.4013 -0.2343
 1884SOL    MW4 7609   3.561   0.868   3.033 -0.5944  0.0919  0.1910
 1885SOL     OW 7610   3.589   1.130   3.132 -0.1546  0.1532 -0.1169
 1885SOL    HW2 7611   3.671   1.165   3.097  0.8845  0.1074  2.1528
 1885SOL    HW3 7612   3.585   1.040   3.098  1.9440 -0.6356  1.5779
 1885SOL    MW4 7613   3.599   1.123   3.123  0.2594  0.0433  0.4063
 1886SOL     OW 7614   3.828   1.245   3.027  0.4282  0.2591 -0.0631
 1886SOL    HW2 7615   3.828   1.338   3.049 -0.4049  0.6047 -1.4792
 1886SOL    HW3 7616   3.822   1.243   2.931 -1.4919 -1.2754  0.0794
 1886SOL    MW4 7617   3.827   1.257   3.017  0.0648  0.1023 -0.2310
 1887SOL     OW 7618   3.806   1.512   3.085  0.5173  0.3311 -0.5610
 1887SOL    HW2 7619   3.808   1.509   3.181  1.1719 -1.3818 -0.6045
 1887SOL    HW3 7620   3.721   1.550   3.064  1.0380  2.2751  0.7058
 1887SOL    MW4 7621   3.795   1.516   3.095  0.6723  0.3617 -0.3996
 1888SOL     OW 7622   3.595   1.645   2.987 -0.5286  0.2421  0.0413
 1888SOL    HW2 7623   3.505   1.611   2.984 -0.4818  0.1215 -0.0233
 1888SOL    HW3 7624   3.622   1.649   2.895  0.4581 -2.2190  0.1726
 1888SOL    MW4 7625   3.587   1.641   2.975 -0.3922 -0.0986  0.0503
 1889SOL     OW 7626   3.611   1.882   3.105 -0.0112 -0.4271  0.1362
 1889SOL    HW2 7627   3.596   1.877   3.199 -1.9187 -0.1694 -0.1490
 1889SOL    HW3 7628   3.603   1.791   3.074  1.7038 -0.6737  0.3667
 1889SOL    MW4 7629   3.608   1.869   3.113 -0.0365 -0.4256  0.1292
 1890SOL     OW 7630   3.831   1.979   2.987 -0.1749  0.1791  0.2719
 1890SOL    HW2 7631   3.830   2.067   3.025 -2.0141  0.1830  0.2495
 1890SOL    HW3 7632   3.747   1.941   3.012 -0.2691 -0.8167 -1.4580
 1890SOL    MW4 7633   3.820   1.986   2.995 -0.4301  0.0482  0.0408
 1891SOL     OW 7634   3.808   2.262   3.078 -0.3091 -0.2870 -0.1632
 1891SOL    HW2 7635   3.794   2.257   3.173 -0.6202  1.1196 -0.1230
 1891SOL    HW3 7636   3.730   2.305   3.044 -0.3974 -1.1735 -1.1254
 1891SOL    MW4 7637   3.796   2.267   3.086 -0.3617 -0.2184 -0.2847
 1892SOL     OW 7638   3.596   2.405   3.011 -0.1173 -0.0797  0.0287
 1892SOL    HW2 7639   3.606   2.487   3.061  2.8843 -1.2381  1.4661
 1892SOL    HW3 7640   3.511   2.371   3.037 -1.0998  2.2433 -0.0541
 1892SOL    MW4 7641   3.586   2.412   3.021  0.1490  0.0739  0.2074
 1893SOL     OW 7642   3.586   2.658   3.133 -0.2971 -0.0526  0.8672
 1893SOL    HW2 7643   3.671   2.690   3.101 -0.3939 -0.6124  0.0404
 1893SOL    HW3 7644   3.522   2.717   3.094 -0.4199 -0.7787 -0.0419
 1893SOL    MW4 7645   3.589   2.670   3.124 -0.3264 -0.2224  0.6380
 1894SOL     OW 7646   3.804   2.813   3.043  0.3924  0.0141 -0.0126
 1894SOL    HW2 7647   3.790   2.888   3.101 -0.3889 -0.0976 -0.0545
 1894SOL    HW3 7648   3.798   2.851   2.955 -0.8418 -0.2353 -0.0462
 1894SOL    MW4 7649   3.801   2.828   3.039  0.1264 -0.0336 -0.0226
 1895SOL     OW 7650   3.803   3.070   3.143  0.2477 -0.1324  0.0492
 1895SOL    HW2 7651   3.867   3.114   3.086  0.6926  1.0993  1.4339
 1895SOL    HW3 7652   3.723   3.121   3.132 -0.0775 -0.7710 -0.5584
 1895SOL    MW4 7653   3.801   3.083   3.134  0.2635 -0.0541  0.1514
 1896SOL     OW 7654   3.597   3.248   3.053 -0.0639 -0.0073 -0.2575
 1896SOL    HW2 7655   3.524   3.188   3.070 -0.7642  0.9232  0.0148
 1896SOL    HW3 7656   3.615   3.237   2.960 -1.7561  1.1017 -0.7369
 1896SOL    MW4 7657   3.590   3.238   3.043 -0.3798  0.2618 -0.2851
 1897SOL     OW 7658   3.572   3.508   3.144  0.1063 -0.0351 -0.5312
 1897SOL    HW2 7659   3.665   3.529   3.134  0.1134 -0.1892 -0.8013
 1897SOL    HW3 7660   3.565   3.417   3.116 -0.0120 -0.2334  0.1266
 1897SOL    MW4 7661   3.583   3.499   3.139  0.0918 -0.0815 -0.4799
 1898SOL     OW 7662   3.809   3.623   3.052 -0.3794 -0.0316 -0.4656
 1898SOL    HW2 7663   3.824   3.714   3.078  0.8143 -0.1596 -0.6886
 1898SOL    HW3 7664   3.796   3.628   2.957 -2.0932  0.1070 -0.2531
 1898SOL    MW4 7665   3.809   3.636   3.043 -0.4480 -0.0303 -0.4671
 1899SOL     OW 7666   3.804   3.895   3.119 -0.5188 -0.5256 -0.0459
 1899SOL    HW2 7667   3.789   3.875   3.212 -0.5875 -3.7899 -0.6944
 1899SOL    HW3 7668   3.723   3.937   3.090  0.0833  1.9585  1.7051
 1899SOL    MW4 7669   3.791   3.898   3.128 -0.4485 -0.6287  0.0999
 1900SOL     OW 7670   3.577   4.032   3.055  0.7850 -0.0388 -0.2370
 1900SOL    HW2 7671   3.496   4.004   3.097  0.2789 -0.7708 -1.6697
 1900SOL    HW3 7672   3.561   4.020   2.962  1.5767  2.3773 -0.7188
 1900SOL    MW4 7673   3.564   4.027   3.049  0.8225  0.1836 -0.4897
 1901SOL     OW 7674   3.584   4.289   3.171 -0.1325 -0.0402 -0.1156
 1901SOL    HW2 7675   3.667   4.326   3.140 -0.2020 -0.3301 -0.6428
 1901SOL    HW3 7676   3.590   4.196   3.150 -1.3655  0.2613 -1.8174
 1901SOL    MW4 7677   3.596   4.281   3.164 -0.3045 -0.0386 -0.4094
 1902SOL     OW 7678   3.855   4.401   3.073  0.0639  0.0288 -0.1883
 1902SOL    HW2 7679   3.942   4.365   3.092 -0.3880 -0.4276  0.9922
 1902SOL    HW3 7680   3.850   4.401   2.977  1.6224  0.6688 -0.2872
 1902SOL    MW4 7681   3.866   4.396   3.063  0.2098  0.0529 -0.0455
 1903SOL     OW 7682   4.246   4.642   3.132 -0.3697  0.3224 -0.3810
 1903SOL    HW2 7683   4.258   4.654   3.227 -0.7262  0.0444 -0.2995
 1903SOL    HW3 7684   4.304   4.570   3.110 -0.1051  0.5469 -0.4188
 1903SOL    MW4 7685   4.255   4.634   3.142 -0.3819  0.3152 -0.3753
 1904SOL     OW 7686   4.043   0.143   3.030  0.0694 -0.3058  0.5344
 1904SOL    HW2 7687   4.110   0.087   3.068  0.7272  0.9394  1.2293
 1904SOL    HW3 7688   3.961   0.096   3.047  0.6523 -1.3513  0.5507
 1904SOL    MW4 7689   4.041   0.129   3.037  0.2332 -0.2795  0.6282
 1905SOL     OW 7690   4.007   0.399   3.151  0.0346  0.2853 -0.0043
 1905SOL    HW2 7691   4.087   0.436   3.114  1.3881 -1.5233  1.0665
 1905SOL    HW3 7692   4.003   0.309   3.118 -1.6006  0.3658 -0.1003
 1905SOL    MW4 7693   4.017   0.392   3.142 -0.0024  0.0573  0.1245
 1906SOL     OW 7694   4.259   0.507   3.088  0.7554 -0.0545 -1.1494
 1906SOL    HW2 7695   4.253   0.591   3.133  1.5485 -0.2915 -0.5953
 1906SOL    HW3 7696   4.268   0.530   2.995  0.9101  0.4661 -1.0028
 1906SOL    MW4 7697   4.259   0.521   3.082  0.8798 -0.0170 -1.0569
 1907SOL     OW 7698   4.288   0.781   3.163 -0.1727 -0.1888  0.4128
 1907SOL    HW2 7699   4.213   0.826   3.126  0.2574 -1.4744 -2.1471
 1907SOL    HW3 7700   4.364   0.827   3.127  0.2508 -0.9275  0.3396
 1907SOL    MW4 7701   4.288   0.793   3.153 -0.0596 -0.4559  0.0656
 1908SOL     OW 7702   4.014   0.893   3.081  0.0357 -0.3117 -0.0714
 1908SOL    HW2 7703   4.033   0.985   3.097  2.0499 -0.7234  0.1147
 1908SOL    HW3 7704   4.021   0.883   2.986  1.6488 -0.6119  0.0546
 1908SOL    MW4 7705   4.018   0.904   3.070  0.5145 -0.4056 -0.0305
 1909SOL     OW 7706   4.061   1.143   3.146  0.1352  0.7981  0.3369
 1909SOL    HW2 7707   4.073   1.142   3.242 -0.5835  1.6053  0.4309
 1909SOL    HW3 7708   3.976   1.184   3.132 -1.2540 -2.1875 -0.5093
 1909SOL    MW4 7709   4.052   1.148   3.157 -0.1435  0.5107  0.2375
 1910SOL     OW 7710   4.266   1.308   3.035  0.2973 -0.0945  0.0680
 1910SOL    HW2 7711   4.198   1.250   3.070  0.7379  0.4988  1.9530
 1910SOL    HW3 7712   4.254   1.304   2.940 -1.6407 -0.8875  0.3198
 1910SOL    MW4 7713   4.255   1.300   3.027  0.0997 -0.1210  0.3500
 1911SOL     OW 7714   4.264   1.559   3.157  0.5121  0.4115 -0.2312
 1911SOL    HW2 7715   4.188   1.601   3.117 -0.2337 -0.8359 -0.1439
 1911SOL    HW3 7716   4.263   1.470   3.123  1.2210  0.0230  0.7411
 1911SOL    MW4 7717   4.254   1.553   3.147  0.5074  0.1956 -0.0916
 1912SOL     OW 7718   4.042   1.645   3.001 -0.0681  0.3484 -0.0688
 1912SOL    HW2 7719   4.043   1.733   3.038  0.5948  0.3374 -0.0535
 1912SOL    HW3 7720   3.954   1.612   3.019 -0.3226  1.0092 -0.0834
 1912SOL    MW4 7721   4.030   1.653   3.008 -0.0138  0.4340 -0.0684
 1913SOL     OW 7722   4.058   1.886   3.136 -0.3769  0.1992  0.0413
 1913SOL    HW2 7723   4.127   1.941   3.099 -0.3106  0.5092  0.6127
 1913SOL    HW3 7724   3.977   1.919   3.098 -0.2601  0.1810 -0.2224
 1913SOL    MW4 7725   4.057   1.898   3.126 -0.3529  0.2377  0.0820
 1914SOL     OW 7726   4.251   2.050   3.027 -0.1207 -0.4429  0.2738
 1914SOL    HW2 7727   4.235   2.142   3.050 -0.6400 -0.4666  0.0276
 1914SOL    HW3 7728   4.247   2.048   2.932  1.5386 -0.4358  0.1937
 1914SOL    MW4 7729   4.248   2.062   3.018  0.0300 -0.4451  0.2308
 1915SOL     OW 7730   4.206   2.314   3.088 -0.3601  0.3884 -0.0460
 1915SOL    HW2 7731   4.141   2.356   3.032 -1.8583  2.0247  2.8254
 1915SOL    HW3 7732   4.288   2.357   3.065 -0.8447  0.6773 -1.3218
 1915SOL    MW4 7733   4.208   2.325   3.077 -0.6213  0.6425  0.1647
 1916SOL     OW 7734   3.986   2.430   2.948 -0.4344 -0.1507 -0.0508
 1916SOL    HW2 7735   4.001   2.509   3.000  0.2494 -1.2968  1.5515
 1916SOL    HW3 7736   3.927   2.377   3.002  0.3114 -1.3672 -0.4106
 1916SOL    MW4 7737   3.981   2.434   2.962 -0.2453 -0.4628  0.1128
 1917SOL     OW 7738   4.041   2.656   3.107 -0.2854 -0.0882  0.2265
 1917SOL    HW2 7739   4.039   2.651   3.202 -0.0891  3.2889  0.4945
 1917SOL    HW3 7740   3.968   2.714   3.084  0.2550 -0.0743 -1.5717
 1917SOL    MW4 7741   4.031   2.663   3.116 -0.1879  0.3591  0.0248
 1918SOL     OW 7742   4.247   2.805   2.990  0.0949  0.0006 -0.0075
 1918SOL    HW2 7743   4.179   2.756   3.036 -0.7272  0.3630 -0.8302
 1918SOL    HW3 7744   4.328   2.780   3.034 -0.6369  0.0549  1.3967
 1918SOL    MW4 7745   4.249   2.795   3.002 -0.1101  0.0556  0.0691
 1919SOL     OW 7746   4.250   3.067   3.094 -0.4539 -0.1739 -0.0699
 1919SOL    HW2 7747   4.231   3.038   3.184  0.7669 -1.6159 -0.2415
 1919SOL    HW3 7748   4.250   2.986   3.043 -1.7240  0.7042 -1.4993
 1919SOL    MW4 7749   4.248   3.052   3.099 -0.4601 -0.2482 -0.2811
 1920SOL     OW 7750   4.024   3.201   2.991 -0.0959  0.0238 -0.2557
 1920SOL    HW2 7751   4.041   3.293   3.007  0.2632 -0.1737  0.5155
 1920SOL    HW3 7752   4.101   3.156   3.025 -0.6654 -0.6278  0.1840
 1920SOL    MW4 7753   4.036   3.207   2.997 -0.1235 -0.0887 -0.0958
 1921SOL     OW 7754   4.040   3.476   3.107  0.1093  0.1334  0.6140
 1921SOL    HW2 7755   4.040   3.471   3.203 -1.3637  0.8809  0.6743
 1921SOL    HW3 7756   3.959   3.523   3.086  1.3237  1.6198 -0.9040
 1921SOL    MW4 7757   4.029   3.482   3.117  0.0753  0.4284  0.4215
 1922SOL     OW 7758   4.289   3.588   3.033 -0.2695  0.1654 -0.0859
 1922SOL    HW2 7759   4.292   3.673   3.077  0.7877  0.6088 -0.9879
 1922SOL    HW3 7760   4.198   3.560   3.042 -0.7118  1.5538 -0.0745
 1922SOL    MW4 7761   4.277   3.595   3.040 -0.1888  0.4067 -0.2034
 1923SOL     OW 7762   4.273   3.847   3.118  0.4075  0.4359  0.7358
 1923SOL    HW2 7763   4.191   3.894   3.102 -0.2735 -1.4336 -1.5124
 1923SOL    HW3 7764   4.341   3.910   3.095 -0.4642  0.9086 -0.5823
 1923SOL    MW4 7765   4.272   3.862   3.113  0.2027  0.2518  0.2654
 1924SOL     OW 7766   4.061   4.014   3.062 -0.7459 -0.0519  0.4166
 1924SOL    HW2 7767   4.063   4.104   3.094 -0.0586  0.3689 -0.7747
 1924SOL    HW3 7768   3.982   3.976   3.101 -1.8951  1.5215 -0.3345
 1924SOL    MW4 7769   4.051   4.020   3.071 -0.8068  0.2112  0.1602
 1925SOL     OW 7770   4.096   4.272   3.132  0.0266 -0.8534  0.1023
 1925SOL    HW2 7771   4.079   4.276   3.226 -0.0067 -0.7140  0.0887
 1925SOL    HW3 7772   4.188   4.297   3.123 -0.2551  0.1666 -0.0065
 1925SOL    MW4 7773   4.106   4.276   3.143 -0.0148 -0.7005  0.0858
 1926SOL     OW 7774   4.356   4.384   3.067 -0.1114  0.4717 -0.0831
 1926SOL    HW2 7775   4.438   4.344   3.094 -1.1807 -0.5816  1.7311
 1926SOL    HW3 7776   4.339   4.348   2.979  1.2091  0.5019 -0.3577
 1926SOL    MW4 7777   4.364   4.374   3.059 -0.0782  0.3376  0.1199
 1927SOL     OW 7778   0.227   4.662   3.437  0.3474 -0.1111  0.1420
 1927SOL    HW2 7779   0.301   4.697   3.487  0.6796 -1.5628  0.6905
 1927SOL    HW3 7780   0.209   4.577   3.477 -2.3444  0.6769  0.7165
 1927SOL    MW4 7781   0.235   4.656   3.449  0.0361 -0.1984  0.2899
 1928SOL     OW 7782   0.010   0.118   3.537 -0.4043 -0.0392 -0.0150
 1928SOL    HW2 7783   0.016   0.201   3.488 -0.8903 -0.0231 -0.0508
 1928SOL    HW3 7784   0.090   0.071   3.513 -0.0276  0.5013  0.1583
 1928SOL    MW4 7785   0.021   0.123   3.527 -0.4187  0.0343  0.0033
 1929SOL     OW 7786   0.020   0.389   3.436  0.6970  0.1199 -0.2176
 1929SOL    HW2 7787  -0.048   0.450   3.465  0.6582 -0.1807  0.3102
 1929SOL    HW3 7788   0.102   0.431   3.463  0.6406 -0.3943  0.7655
 1929SOL    MW4 7789   0.022   0.403   3.443  0.6845  0.0124 -0.0181
 1930SOL     OW 7790   0.266   0.499   3.524 -0.1412 -0.2381  0.1522
 1930SOL    HW2 7791   0.338   0.459   3.475 -0.5704 -0.3195 -0.4230
 1930SOL    HW3 7792   0.270   0.591   3.501 -0.6065 -0.3445 -0.3888
 1930SOL    MW4 7793   0.276   0.506   3.514 -0.2592 -0.2628  0.0052
 1931SOL     OW 7794   0.278   0.780   3.432  0.2978  0.2216  0.1839
 1931SOL    HW2 7795   0.341   0.843   3.467  0.6302  0.6468 -1.1311
 1931SOL    HW3 7796   0.193   0.815   3.456  0.4741  1.2800 -0.6726
 1931SOL    MW4 7797   0.275   0.793   3.439  0.3649  0.4174 -0.1025
 1932SOL     OW 7798   0.021   0.895   3.502  0.1934 -0.5289 -0.2695
 1932SOL    HW2 7799   0.042   0.923   3.591  2.3438 -2.4282 -0.1598
 1932SOL    HW3 7800   0.013   0.977   3.453 -0.6302  0.5142  1.5508
 1932SOL    MW4 7801   0.023   0.910   3.507  0.3684 -0.6419 -0.0150
 1933SOL     OW 7802   4.479   1.153   3.421  0.0346  0.0379  0.0115
 1933SOL    HW2 7803   4.548   1.201   3.467  0.2128  0.6081 -0.8448
 1933SOL    HW3 7804   4.497   1.169   3.328 -0.4867 -0.8746 -0.2474
 1933SOL    MW4 7805   4.491   1.161   3.414 -0.0107 -0.0073 -0.1359
 1934SOL     OW 7806   0.203   1.289   3.526  0.0310 -0.2183 -0.2417
 1934SOL    HW2 7807   0.282   1.243   3.497 -0.9194 -1.8447 -0.2927
 1934SOL    HW3 7808   0.205   1.371   3.477  0.0345 -1.6161 -2.6966
 1934SOL    MW4 7809   0.214   1.294   3.516 -0.0939 -0.6171 -0.5729
 1935SOL     OW 7810   0.238   1.526   3.396 -0.0787  0.1822  0.3529
 1935SOL    HW2 7811   0.315   1.567   3.434  0.4727 -1.3253  0.8974
 1935SOL    HW3 7812   0.233   1.561   3.307  2.9202 -1.8929 -0.6936
 1935SOL    MW4 7813   0.247   1.536   3.389  0.3897 -0.2904  0.2868
 1936SOL     OW 7814   0.024   1.668   3.491 -0.4817 -0.0111  0.3059
 1936SOL    HW2 7815  -0.063   1.633   3.468 -0.4786  0.3273 -0.2350
 1936SOL    HW3 7816   0.085   1.608   3.449 -0.4200 -1.2113  2.0779
 1936SOL    MW4 7817   0.020   1.656   3.482 -0.4731 -0.1247  0.4683
 1937SOL     OW 7818   0.009   1.934   3.419  0.1273  0.7174 -0.0239
 1937SOL    HW2 7819   0.004   1.841   3.442 -0.9298  1.0125  0.9554
 1937SOL    HW3 7820  -0.003   1.936   3.324  2.3932 -0.3264 -0.3702
 1937SOL    MW4 7821   0.007   1.922   3.409  0.2868  0.6185  0.0598
 1938SOL     OW 7822   0.248   2.045   3.498 -0.5945  0.1475  0.1949
 1938SOL    HW2 7823   0.238   2.055   3.593 -1.1633 -0.5325  0.2115
 1938SOL    HW3 7824   0.166   2.005   3.470 -0.1560 -0.2735 -0.4929
 1938SOL    MW4 7825   0.236   2.041   3.507 -0.6117  0.0021  0.1066
 1939SOL     OW 7826   0.228   2.326   3.408 -0.7852  0.2084  0.0657
 1939SOL    HW2 7827   0.144   2.347   3.449 -1.3428 -0.8940 -0.5187
 1939SOL    HW3 7828   0.246   2.236   3.433 -0.1976  0.1504 -0.5342
 1939SOL    MW4 7829   0.220   2.317   3.417 -0.7813  0.0556 -0.0906
 1940SOL     OW 7830   4.482   2.434   3.496 -0.2431 -0.1414  0.4677
 1940SOL    HW2 7831   4.478   2.469   3.585 -0.0777  1.5277 -0.1649
 1940SOL    HW3 7832   4.391   2.430   3.468 -0.2204  0.3734  0.3189
 1940SOL    MW4 7833   4.470   2.438   3.504 -0.2182  0.1466  0.3645
 1941SOL     OW 7834   0.005   2.692   3.401 -0.1948  0.0049  0.5392
 1941SOL    HW2 7835   0.084   2.736   3.432  0.3927  0.0060 -0.8811
 1941SOL    HW3 7836   0.020   2.599   3.421 -0.5014  0.1829  1.6199
 1941SOL    MW4 7837   0.018   2.685   3.408 -0.1577  0.0284  0.4945
 1942SOL     OW 7838   0.241   2.805   3.508 -0.1518  0.0793  0.0233
 1942SOL    HW2 7839   0.333   2.779   3.497 -0.1742  0.3186 -0.7527
 1942SOL    HW3 7840   0.241   2.899   3.492 -0.5981  0.0109 -0.3824
 1942SOL    MW4 7841   0.253   2.814   3.505 -0.2137  0.1018 -0.1326
 1943SOL     OW 7842   0.266   3.074   3.413 -0.2204 -0.0043 -0.0518
 1943SOL    HW2 7843   0.183   3.117   3.437  0.2920  1.1099 -0.2250
 1943SOL    HW3 7844   0.259   3.060   3.319 -0.2881 -0.0623 -0.0379
 1943SOL    MW4 7845   0.254   3.078   3.404 -0.1617  0.1352 -0.0730
 1944SOL     OW 7846   0.011   3.150   3.465 -0.2748 -1.4519  0.1928
 1944SOL    HW2 7847   0.011   3.165   3.560 -0.1400 -2.0099  0.2841
 1944SOL    HW3 7848   0.022   3.237   3.427 -0.6643 -1.1872  0.6836
 1944SOL    MW4 7849   0.013   3.163   3.473 -0.3084 -1.4906  0.2694
 1945SOL     OW 7850   0.013   3.408   3.415 -0.0942  0.1116 -0.3199
 1945SOL    HW2 7851  -0.065   3.454   3.447  0.2610  0.5993 -0.1504
 1945SOL    HW3 7852   0.015   3.426   3.321  0.8048  1.5920 -0.0299
 1945SOL    MW4 7853   0.003   3.416   3.407  0.0713  0.3712 -0.2592
 1946SOL     OW 7854   0.209   3.626   3.456  0.2455 -0.2325 -0.2993
 1946SOL    HW2 7855   0.206   3.621   3.551 -0.9272  2.2204 -0.1539
 1946SOL    HW3 7856   0.137   3.570   3.427  0.0472 -0.2976  0.3046
 1946SOL    MW4 7857   0.199   3.618   3.465  0.0646  0.0825 -0.2003
 1947SOL     OW 7858   0.208   3.889   3.390 -0.5206 -0.3057 -0.2730
 1947SOL    HW2 7859   0.130   3.931   3.426  0.6815  0.9804  0.8954
 1947SOL    HW3 7860   0.201   3.797   3.415 -1.3649 -0.0756  0.3371
 1947SOL    MW4 7861   0.197   3.883   3.398 -0.4734 -0.1056 -0.0384
 1948SOL     OW 7862   4.476   3.981   3.511  0.2466 -0.0711  0.0186
 1948SOL    HW2 7863   4.466   3.969   3.606  1.5963 -0.5825  0.1034
 1948SOL    HW3 7864   4.481   4.076   3.499  0.5762 -0.0264  0.5131
 1948SOL    MW4 7865   4.475   3.992   3.522  0.4683 -0.1328  0.0951
 1949SOL     OW 7866   0.003   4.246   3.438 -0.2383 -0.2535  0.0217
 1949SOL    HW2 7867  -0.069   4.309   3.445 -1.3424 -1.4762 -0.1574
 1949SOL    HW3 7868   0.077   4.289   3.480 -0.8958  1.2865 -0.3532
 1949SOL    MW4 7869   0.004   4.260   3.444 -0.4707 -0.2117 -0.0513
 1950SOL     OW 7870   0.239   4.404   3.528  0.4739  0.2315  0.2271
 1950SOL    HW2 7871   0.254   4.413   3.622  0.1875  0.9243  0.2112
 1950SOL    HW3 7872   0.317   4.359   3.495  0.0253 -1.1361  0.9803
 1950SOL    MW4 7873   0.251   4.399   3.536  0.3769  0.1426  0.3247
 1951SOL     OW 7874   0.651   4.627   3.396 -0.2679  0.2764 -0.0906
 1951SOL    HW2 7875   0.714   4.678   3.447  0.7382 -0.6399 -0.4112
 1951SOL    HW3 7876   0.664   4.657   3.306 -0.9945  0.8092 -0.0217
 1951SOL    MW4 7877   0.661   4.638   3.391 -0.2310  0.2260 -0.1240
 1952SOL     OW 7878   0.450   0.121   3.552 -0.0711  0.4330 -0.0602
 1952SOL    HW2 7879   0.453   0.093   3.644 -3.4255  0.1346  0.0419
 1952SOL    HW3 7880   0.516   0.067   3.508 -0.6265 -1.7328  1.6305
 1952SOL    MW4 7881   0.459   0.110   3.559 -0.5870  0.1079  0.1760
 1953SOL     OW 7882   0.467   0.351   3.395 -0.1535  0.1349  0.3319
 1953SOL    HW2 7883   0.541   0.403   3.426  0.2048  0.4456 -1.0135
 1953SOL    HW3 7884   0.450   0.288   3.465 -0.6234  2.0928  2.0281
 1953SOL    MW4 7885   0.474   0.350   3.408 -0.1682  0.4342  0.3786
 1954SOL     OW 7886   0.687   0.540   3.485  0.2369 -0.1774 -0.0016
 1954SOL    HW2 7887   0.691   0.520   3.579  1.2057  1.5565  0.3456
 1954SOL    HW3 7888   0.763   0.496   3.448 -0.1824 -0.9178  0.0121
 1954SOL    MW4 7889   0.697   0.532   3.492  0.3094 -0.0464  0.0458
 1955SOL     OW 7890   0.695   0.809   3.380  0.3330  0.3030 -0.3930
 1955SOL    HW2 7891   0.622   0.851   3.425  0.2336 -0.3758  0.0748
 1955SOL    HW3 7892   0.695   0.719   3.411  2.4937  0.7407  1.0248
 1955SOL    MW4 7893   0.686   0.803   3.390  0.6050  0.2712 -0.1442
 1956SOL     OW 7894   0.491   0.935   3.517 -0.0567 -0.1808  0.4469
 1956SOL    HW2 7895   0.488   0.918   3.611  1.7785 -1.1419  0.3475
 1956SOL    HW3 7896   0.475   1.029   3.510  0.6501  0.0598  1.7981
 1956SOL    MW4 7897   0.489   0.945   3.529  0.2787 -0.2759  0.6123
 1957SOL     OW 7898   0.441   1.190   3.448 -0.4320  0.1529  0.6599
 1957SOL    HW2 7899   0.522   1.236   3.470  0.1660 -1.2237  1.3931
 1957SOL    HW3 7900   0.448   1.173   3.354  0.3649 -0.4056  0.8167
 1957SOL    MW4 7901   0.453   1.194   3.438 -0.2480 -0.1024  0.7775
 1958SOL     OW 7902   0.691   1.321   3.513  0.6858  0.0811  0.1496
 1958SOL    HW2 7903   0.777   1.288   3.486  0.7734  0.7819 -0.4298
 1958SOL    HW3 7904   0.687   1.410   3.477  0.2506  0.5247  1.2741
 1958SOL    MW4 7905   0.702   1.328   3.505  0.6399  0.2322  0.2217
 1959SOL     OW 7906   0.689   1.589   3.419 -0.4013  0.2011  0.0782
 1959SOL    HW2 7907   0.760   1.629   3.469  0.1016 -1.0537  0.4022
 1959SOL    HW3 7908   0.609   1.619   3.462 -0.0497  0.9935  0.1913
 1959SOL    MW4 7909   0.688   1.598   3.431 -0.2886  0.1401  0.1359
 1960SOL     OW 7910   0.441   1.680   3.507  0.1117  0.0250 -0.4419
 1960SOL    HW2 7911   0.412   1.702   3.596  0.4075 -2.0828  0.2061
 1960SOL    HW3 7912   0.447   1.764   3.462  0.2614  1.1455  1.6280
 1960SOL    MW4 7913   0.438   1.694   3.513  0.1705 -0.1054 -0.0834
 1961SOL     OW 7914   0.463   1.923   3.384  0.3606  0.3372 -0.2981
 1961SOL    HW2 7915   0.382   1.960   3.419 -0.0846 -0.4450 -0.4917
 1961SOL    HW3 7916   0.451   1.924   3.289 -0.9147 -3.0293 -0.2596
 1961SOL    MW4 7917   0.451   1.928   3.376  0.1336 -0.2102 -0.3183
 1962SOL     OW 7918   0.681   2.055   3.493 -0.0280  0.1565  0.2907
 1962SOL    HW2 7919   0.661   2.070   3.585  0.9490  0.0375  0.5293
 1962SOL    HW3 7920   0.609   2.001   3.460  0.6050 -1.4314  1.4697
 1962SOL    MW4 7921   0.669   2.050   3.501  0.1844 -0.0687  0.4773
 1963SOL     OW 7922   0.670   2.279   3.335  0.4176  0.5808 -0.3148
 1963SOL    HW2 7923   0.737   2.334   3.376  0.3298  0.6381 -0.2482
 1963SOL    HW3 7924   0.676   2.196   3.382  0.8212  0.4008 -0.6825
 1963SOL    MW4 7925   0.679   2.275   3.347  0.4593  0.5648 -0.3545
 1964SOL     OW 7926   0.479   2.407   3.523 -0.4422  0.3823  0.2945
 1964SOL    HW2 7927   0.540   2.338   3.495 -0.0019  0.6201  0.6700
 1964SOL    HW3 7928   0.394   2.377   3.491  0.0921  0.7797 -1.5726
 1964SOL    MW4 7929   0.476   2.394   3.515 -0.3136  0.4659  0.0978
 1965SOL     OW 7930   0.470   2.677   3.420  0.2099 -0.0065 -0.5598
 1965SOL    HW2 7931   0.485   2.584   3.436  0.2357  0.1280  0.1857
 1965SOL    HW3 7932   0.472   2.685   3.325 -1.9406 -1.1546 -0.7541
 1965SOL    MW4 7933   0.472   2.666   3.409 -0.0704 -0.1400 -0.4871
 1966SOL     OW 7934   0.692   2.844   3.500 -0.1241  0.1983  0.5357
 1966SOL    HW2 7935   0.761   2.803   3.448  0.3356 -0.2554  1.4790
 1966SOL    HW3 7936   0.614   2.791   3.482  0.2614 -0.5654  1.0529
 1966SOL    MW4 7937   0.691   2.831   3.491 -0.0126  0.0377  0.7284
 1967SOL     OW 7938   0.659   3.109   3.402  0.0945  0.0741  0.6575
 1967SOL    HW2 7939   0.580   3.149   3.440  0.1822  0.4014  0.5027
 1967SOL    HW3 7940   0.653   3.017   3.425 -0.7680 -0.0629 -0.0521
 1967SOL    MW4 7941   0.648   3.102   3.410 -0.0077  0.0994  0.5436
 1968SOL     OW 7942   0.454   3.255   3.512 -0.4251 -0.3818  0.7932
 1968SOL    HW2 7943   0.449   3.235   3.606 -1.5577 -0.5153  0.7193
 1968SOL    HW3 7944   0.387   3.199   3.472 -0.4588  0.2160  0.0007
 1968SOL    MW4 7945   0.444   3.245   3.519 -0.5790 -0.3207  0.6788
 1969SOL     OW 7946   0.478   3.504   3.386 -0.2095 -0.0942  0.3561
 1969SOL    HW2 7947   0.466   3.422   3.434  1.0391 -0.2455  0.4192
 1969SOL    HW3 7948   0.396   3.551   3.400 -1.3832 -1.7804 -0.5828
 1969SOL    MW4 7949   0.465   3.499   3.394 -0.1996 -0.3366  0.2406
 1970SOL     OW 7950   0.676   3.604   3.547 -0.5688 -0.1559 -0.1742
 1970SOL    HW2 7951   0.754   3.581   3.496 -0.0828  1.1493 -0.0526
 1970SOL    HW3 7952   0.603   3.571   3.496 -0.0707  0.8557 -1.5712
 1970SOL    MW4 7953   0.677   3.597   3.534 -0.4391  0.1500 -0.3426
 1971SOL     OW 7954   0.679   3.855   3.400 -0.4295 -0.1233  0.2078
 1971SOL    HW2 7955   0.605   3.912   3.420 -1.2276 -0.6794 -1.0989
 1971SOL    HW3 7956   0.663   3.776   3.450  0.7433  0.7979  2.1230
 1971SOL    MW4 7957   0.667   3.852   3.409 -0.3800 -0.0749  0.2882
 1972SOL     OW 7958   0.451   3.994   3.527  0.2588 -0.3774 -0.0622
 1972SOL    HW2 7959   0.456   4.087   3.508  0.7943 -0.2123  0.8359
 1972SOL    HW3 7960   0.369   3.965   3.487 -0.2154  0.6109  0.1777
 1972SOL    MW4 7961   0.441   4.002   3.519  0.2669 -0.2251  0.0880
 1973SOL     OW 7962   0.485   4.254   3.401 -0.0408  0.4461 -0.2969
 1973SOL    HW2 7963   0.567   4.304   3.405  0.2773 -0.1666  1.2820
 1973SOL    HW3 7964   0.461   4.255   3.309  2.3650 -0.3182 -0.9797
 1973SOL    MW4 7965   0.493   4.260   3.390  0.3186  0.2646 -0.1788
 1974SOL     OW 7966   0.662   4.406   3.582 -0.2589 -0.2114 -0.6516
 1974SOL    HW2 7967   0.720   4.336   3.551  0.6885  0.4145 -0.3025
 1974SOL    HW3 7968   0.669   4.474   3.515  2.1308  1.3296  1.1220
 1974SOL    MW4 7969   0.671   4.406   3.569  0.1814  0.0749 -0.3712
 1975SOL     OW 7970   1.041   4.638   3.361  0.0368 -0.5633  0.0167
 1975SOL    HW2 7971   1.123   4.677   3.390  0.2216 -0.2050 -1.0041
 1975SOL    HW3 7972   1.051   4.624   3.267 -0.6882 -1.4551  0.0574
 1975SOL    MW4 7973   1.053   4.642   3.353 -0.0345 -0.6332 -0.1128
 1976SOL     OW 7974   0.875   0.128   3.537 -0.0922 -0.5690  0.2657
 1976SOL    HW2 7975   0.880   0.101   3.629  2.4187  0.0279  0.3395
 1976SOL    HW3 7976   0.937   0.071   3.492  0.2731  0.5608 -0.6848
 1976SOL    MW4 7977   0.884   0.117   3.543  0.2872 -0.3412  0.1500
 1977SOL     OW 7978   0.894   0.401   3.391  0.2548 -0.0011 -0.3544
 1977SOL    HW2 7979   0.968   0.425   3.447  1.3840  0.8436 -2.1499
 1977SOL    HW3 7980   0.874   0.310   3.415  1.4087  0.0016  0.6485
 1977SOL    MW4 7981   0.901   0.392   3.402  0.5561  0.1107 -0.4590
 1978SOL     OW 7982   1.095   0.511   3.509 -0.3809  0.2595 -0.0833
 1978SOL    HW2 7983   1.096   0.513   3.604 -0.2671  0.5824 -0.0921
 1978SOL    HW3 7984   1.099   0.603   3.482  0.8901  0.1259 -0.4011
 1978SOL    MW4 7985   1.096   0.523   3.518 -0.1981  0.2845 -0.1264
 1979SOL     OW 7986   1.144   0.763   3.374  0.2824  0.2453 -0.1652
 1979SOL    HW2 7987   1.224   0.810   3.397 -0.0428  1.0443 -0.6467
 1979SOL    HW3 7988   1.074   0.827   3.386 -0.4810 -0.9136  1.8706
 1979SOL    MW4 7989   1.145   0.778   3.379  0.1389  0.1978  0.0401
 1980SOL     OW 7990   0.920   0.913   3.476 -0.2427 -0.1120  0.3374
 1980SOL    HW2 7991   0.915   1.004   3.447  1.5214 -0.3720 -0.8626
 1980SOL    HW3 7992   0.838   0.874   3.446  0.3248  0.3280 -1.8794
 1980SOL    MW4 7993   0.908   0.920   3.469  0.0649 -0.0883 -0.1132
 1981SOL     OW 7994   0.915   1.204   3.416 -0.7444 -0.0208 -0.2231
 1981SOL    HW2 7995   0.993   1.253   3.444 -0.5139 -0.7391  0.4012
 1981SOL    HW3 7996   0.913   1.216   3.321 -1.2148  1.9594  0.0136
 1981SOL    MW4 7997   0.925   1.212   3.407 -0.7761  0.1457 -0.1097
 1982SOL     OW 7998   1.139   1.342   3.479 -0.1752 -0.0497 -0.4638
 1982SOL    HW2 7999   1.151   1.327   3.573 -1.2147  0.1436 -0.2935
 1982SOL    HW3 8000   1.108   1.432   3.473  0.6566  0.2035 -1.0595
 1982SOL    MW4 8001   1.137   1.352   3.491 -0.2025  0.0092 -0.5200
 1983SOL     OW 8002   1.068   1.589   3.379  0.2358  0.6184 -0.3589
 1983SOL    HW2 8003   1.159   1.610   3.399  0.8495 -0.8156 -1.5683
 1983SOL    HW3 8004   1.065   1.580   3.284 -1.2244  0.8263 -0.3572
 1983SOL    MW4 8005   1.079   1.591   3.369  0.1242  0.4567 -0.5186
 1984SOL     OW 8006   0.884   1.721   3.563  0.0492  0.2878  0.0840
 1984SOL    HW2 8007   0.843   1.803   3.537 -0.4458 -0.4396 -1.4541
 1984SOL    HW3 8008   0.947   1.702   3.494 -0.1131 -0.8307  0.2385
 1984SOL    MW4 8009   0.887   1.729   3.551 -0.0375  0.0442 -0.0985
 1985SOL     OW 8010   0.907   1.956   3.366 -0.1892 -0.2334  0.2591
 1985SOL    HW2 8011   0.984   1.976   3.421  0.2183 -0.8852 -0.0764
 1985SOL    HW3 8012   0.834   1.994   3.414  0.3344  0.3388  0.6187
 1985SOL    MW4 8013   0.908   1.964   3.380 -0.0663 -0.2439  0.2620
 1986SOL     OW 8014   1.130   2.042   3.499 -0.3147  0.5865 -0.0569
 1986SOL    HW2 8015   1.198   2.016   3.437 -2.0597  0.1347 -1.8350
 1986SOL    HW3 8016   1.120   2.136   3.486 -1.5886  0.2692 -1.4000
 1986SOL    MW4 8017   1.138   2.051   3.489 -0.7130  0.4849 -0.4687
 1987SOL     OW 8018   1.102   2.302   3.370  0.0635 -0.0253  0.0875
 1987SOL    HW2 8019   1.180   2.353   3.392  0.9853 -1.6544  0.6398
 1987SOL    HW3 8020   1.096   2.308   3.274  0.6924  0.3484  0.0688
 1987SOL    MW4 8021   1.112   2.310   3.360  0.2681 -0.1910  0.1581
 1988SOL     OW 8022   0.880   2.436   3.457  0.0147 -0.2749  0.0120
 1988SOL    HW2 8023   0.883   2.413   3.550 -0.6148 -0.0449  0.0909
 1988SOL    HW3 8024   0.962   2.402   3.421  0.1333 -0.6055  0.5950
 1988SOL    MW4 8025   0.892   2.428   3.464 -0.0527 -0.2880  0.0994
 1989SOL     OW 8026   0.892   2.698   3.400  0.0404  0.6638 -0.1298
 1989SOL    HW2 8027   0.974   2.740   3.427  0.6956  1.0390 -2.5979
 1989SOL    HW3 8028   0.901   2.607   3.430  1.7347  0.4902 -1.0882
 1989SOL    MW4 8029   0.904   2.691   3.407  0.3504  0.6902 -0.5820
 1990SOL     OW 8030   1.119   2.841   3.495 -0.1852  0.0539 -0.2090
 1990SOL    HW2 8031   1.123   2.831   3.590 -0.2510  1.4771 -0.0505
 1990SOL    HW3 8032   1.192   2.790   3.462  0.0587 -0.1426  0.6272
 1990SOL    MW4 8033   1.129   2.833   3.503 -0.1616  0.2155 -0.0780
 1991SOL     OW 8034   1.077   3.101   3.395  0.4289  0.3459  0.4512
 1991SOL    HW2 8035   1.090   3.018   3.441  1.2537 -0.6946 -1.6220
 1991SOL    HW3 8036   1.084   3.079   3.303 -2.4994  2.1736 -0.2693
 1991SOL    MW4 8037   1.079   3.087   3.389  0.1513  0.4497  0.0825
 1992SOL     OW 8038   0.873   3.254   3.514  0.0052  0.5440 -0.0163
 1992SOL    HW2 8039   0.945   3.202   3.479  0.1170 -0.3953  1.5561
 1992SOL    HW3 8040   0.794   3.212   3.481  0.1650  1.4256 -1.5408
 1992SOL    MW4 8041   0.872   3.242   3.505  0.0411  0.5364 -0.0095
 1993SOL     OW 8042   0.894   3.516   3.402  0.1154  0.1546 -0.4874
 1993SOL    HW2 8043   0.885   3.425   3.430 -0.0505  0.0578 -0.8448
 1993SOL    HW3 8044   0.882   3.513   3.307 -0.6447  0.6471 -0.4097
 1993SOL    MW4 8045   0.891   3.503   3.393 -0.0067  0.2067 -0.5243
 1994SOL     OW 8046   1.134   3.618   3.484 -0.4617 -0.0987  0.2434
 1994SOL    HW2 8047   1.150   3.609   3.578  0.1700 -1.1730  0.0476
 1994SOL    HW3 8048   1.055   3.566   3.468  0.3634 -1.2773 -0.0781
 1994SOL    MW4 8049   1.126   3.610   3.494 -0.2694 -0.3958  0.1750
 1995SOL     OW 8050   1.131   3.868   3.353  0.2690 -0.1256 -0.3223
 1995SOL    HW2 8051   1.207   3.914   3.389  0.3320  0.4358 -1.1586
 1995SOL    HW3 8052   1.129   3.785   3.399  0.5313  0.4578  0.7643
 1995SOL    MW4 8053   1.141   3.863   3.364  0.3119  0.0257 -0.2892
 1996SOL     OW 8054   0.922   3.964   3.501  0.3971 -0.5068 -0.3244
 1996SOL    HW2 8055   0.977   3.921   3.435  0.5441  0.3587 -0.7767
 1996SOL    HW3 8056   0.838   3.918   3.495  0.9593 -1.6051  0.1290
 1996SOL    MW4 8057   0.918   3.952   3.491  0.4907 -0.5374 -0.3240
 1997SOL     OW 8058   0.818   4.217   3.414  0.1089  0.9437 -0.2674
 1997SOL    HW2 8059   0.856   4.134   3.444 -0.4235  0.6721 -0.3467
 1997SOL    HW3 8060   0.835   4.219   3.320  0.5877  1.1716 -0.1781
 1997SOL    MW4 8061   0.825   4.206   3.406  0.1018  0.9384 -0.2661
 1998SOL     OW 8062   1.065   4.372   3.484  0.1850  0.3048  0.4897
 1998SOL    HW2 8063   0.980   4.334   3.461  0.8709  0.3352 -2.2989
 1998SOL    HW3 8064   1.061   4.462   3.450  0.1812  1.3828  3.2023
 1998SOL    MW4 8065   1.053   4.379   3.477  0.2750  0.4516  0.4797
 1999SOL     OW 8066   1.500   0.009   3.381  0.1984 -0.5267  0.0059
 1999SOL    HW2 8067   1.483  -0.080   3.413 -0.0551  0.0006  1.3604
 1999SOL    HW3 8068   1.423   0.059   3.407  1.2644  0.5728  1.1304
 1999SOL    MW4 8069   1.487   0.004   3.389  0.3058 -0.3122  0.3328
 2000SOL     OW 8070   1.279   0.124   3.475  0.0495  0.3861 -0.0705
 2000SOL    HW2 8071   1.314   0.138   3.563  0.0154  0.7404 -0.1091
 2000SOL    HW3 8072   1.257   0.212   3.444 -1.0037  0.1589  0.0155
 2000SOL    MW4 8073   1.280   0.138   3.482 -0.0939  0.4029 -0.0644
 2001SOL     OW 8074   1.293   0.371   3.368 -0.4008 -0.3540  0.3118
 2001SOL    HW2 8075   1.374   0.398   3.412 -0.2617  1.0453 -0.7425
 2001SOL    HW3 8076   1.223   0.414   3.418 -0.1892  1.9372 -1.2743
 2001SOL    MW4 8077   1.295   0.380   3.380 -0.3546  0.1329 -0.0367
 2002SOL     OW 8078   1.532   0.513   3.488  0.0608  0.1227 -0.6318
 2002SOL    HW2 8079   1.563   0.528   3.577 -0.5496 -2.0040 -0.0380
 2002SOL    HW3 8080   1.604   0.469   3.444 -0.5466 -1.0996 -0.4380
 2002SOL    MW4 8081   1.545   0.509   3.494 -0.0998 -0.3190 -0.5276
 2003SOL     OW 8082   1.582   0.763   3.383  0.0481  0.4099 -0.3462
 2003SOL    HW2 8083   1.536   0.832   3.432  1.6947  0.6840  0.8477
 2003SOL    HW3 8084   1.554   0.682   3.424  0.0310  0.5256 -0.1271
 2003SOL    MW4 8085   1.572   0.762   3.395  0.2630  0.4613 -0.1595
 2004SOL     OW 8086   1.366   0.908   3.491  0.8665  0.1902  0.5239
 2004SOL    HW2 8087   1.364   0.907   3.587 -1.3374  0.1121  0.5027
 2004SOL    HW3 8088   1.350   0.999   3.467 -0.1210 -0.0559  0.2229
 2004SOL    MW4 8089   1.364   0.920   3.501  0.4455  0.1474  0.4814
 2005SOL     OW 8090   1.364   1.175   3.399  0.6245  0.0493 -0.3050
 2005SOL    HW2 8091   1.442   1.215   3.437  0.5752  0.4048 -0.5643
 2005SOL    HW3 8092   1.294   1.237   3.420  0.0903 -1.1215  1.4355
 2005SOL    MW4 8093   1.365   1.189   3.406  0.5475 -0.0582 -0.1097
 2006SOL     OW 8094   1.564   1.291   3.531  0.3267 -0.8730 -0.5509
 2006SOL    HW2 8095   1.562   1.298   3.626  1.0325  0.1919 -0.6048
 2006SOL    HW3 8096   1.655   1.269   3.510  0.4647  0.1191 -1.0427
 2006SOL    MW4 8097   1.576   1.289   3.541  0.4380 -0.6015 -0.6230
 2007SOL     OW 8098   1.566   1.539   3.399  0.1099 -0.5624  0.6520
 2007SOL    HW2 8099   1.560   1.463   3.457  0.1370  0.4549  2.0429
 2007SOL    HW3 8100   1.640   1.589   3.434  0.0154  0.1490 -0.1647
 2007SOL    MW4 8101   1.575   1.536   3.412  0.1010 -0.3343  0.7277
 2008SOL     OW 8102   1.325   1.699   3.479  0.5503  0.3499 -0.1390
 2008SOL    HW2 8103   1.307   1.689   3.572 -0.5663 -1.2879 -0.5210
 2008SOL    HW3 8104   1.401   1.643   3.463  0.5340  0.3668 -0.2787
 2008SOL    MW4 8105   1.333   1.691   3.489  0.4009  0.1360 -0.2074
 2009SOL     OW 8106   1.347   1.934   3.342 -0.0350  0.5719  0.1221
 2009SOL    HW2 8107   1.421   1.983   3.378 -0.1952  1.3928 -0.6394
 2009SOL    HW3 8108   1.351   1.849   3.385  1.6231  0.4406 -0.2389
 2009SOL    MW4 8109   1.357   1.929   3.352  0.1628  0.6629 -0.0262
 2010SOL     OW 8110   1.579   2.051   3.447  0.0673  0.1691 -0.2626
 2010SOL    HW2 8111   1.657   2.013   3.406 -1.3649 -1.5294 -1.5132
 2010SOL    HW3 8112   1.578   2.141   3.417  0.7150 -0.2206 -1.5155
 2010SOL    MW4 8113   1.589   2.058   3.438 -0.0362 -0.1066 -0.5929
 2011SOL     OW 8114   1.556   2.309   3.320  0.2509  0.1958  0.4035
 2011SOL    HW2 8115   1.484   2.355   3.363  1.1198  0.9916  1.0257
 2011SOL    HW3 8116   1.540   2.320   3.227 -0.8350 -0.2727  0.5232
 2011SOL    MW4 8117   1.544   2.316   3.313  0.2222  0.2389  0.5014
 2012SOL     OW 8118   1.339   2.445   3.441 -0.1617 -0.2349 -0.4257
 2012SOL    HW2 8119   1.351   2.441   3.536 -0.2545 -0.0907 -0.4080
 2012SOL    HW3 8120   1.342   2.538   3.420  1.8665 -0.3689 -0.8307
 2012SOL    MW4 8121   1.341   2.457   3.451  0.0936 -0.2337 -0.4768
 2013SOL     OW 8122   1.343   2.710   3.387  0.1694 -0.7521 -0.2229
 2013SOL    HW2 8123   1.407   2.759   3.437 -0.9137  0.2962  0.1538
 2013SOL    HW3 8124   1.360   2.733   3.296 -0.8151  0.9380 -0.0000
 2013SOL    MW4 8125   1.354   2.719   3.381 -0.1035 -0.3910 -0.1438
 2014SOL     OW 8126   1.601   2.846   3.478  0.2177  0.2201  0.0211
 2014SOL    HW2 8127   1.661   2.795   3.423  0.5773  0.3851  0.2545
 2014SOL    HW3 8128   1.602   2.933   3.438  0.0395  0.1897 -0.0473
 2014SOL    MW4 8129   1.609   2.851   3.465  0.2416  0.2375  0.0429
 2015SOL     OW 8130   1.588   3.104   3.384  0.1701  0.0731 -0.3487
 2015SOL    HW2 8131   1.646   3.153   3.442 -1.3595  0.9463  0.4865
 2015SOL    HW3 8132   1.500   3.123   3.417 -0.6948  0.1348 -2.6451
 2015SOL    MW4 8133   1.584   3.113   3.396 -0.1459  0.1965 -0.5417
 2016SOL     OW 8134   1.335   3.158   3.483  0.3833 -0.0579  0.2606
 2016SOL    HW2 8135   1.334   3.164   3.579  0.7995 -0.2866  0.2824
 2016SOL    HW3 8136   1.245   3.137   3.460 -0.2954  2.5046  0.4256
 2016SOL    MW4 8137   1.323   3.156   3.493  0.3484  0.2501  0.2856
 2017SOL     OW 8138   1.335   3.422   3.380 -0.0647  0.0832  0.3208
 2017SOL    HW2 8139   1.326   3.331   3.407 -0.6192 -0.0503 -0.2991
 2017SOL    HW3 8140   1.258   3.467   3.415 -0.7026 -0.0585 -0.8688
 2017SOL    MW4 8141   1.324   3.416   3.388 -0.2220  0.0470  0.0823
 2018SOL     OW 8142   1.544   3.622   3.479 -0.0926  0.1802 -0.1122
 2018SOL    HW2 8143   1.536   3.598   3.572  0.7591 -0.5914 -0.2319
 2018SOL    HW3 8144   1.486   3.561   3.434 -1.1135  1.0715 -0.0143
 2018SOL    MW4 8145   1.536   3.611   3.485 -0.1148  0.1957 -0.1149
 2019SOL     OW 8146   1.574   3.887   3.371 -0.0825  0.3288 -0.2544
 2019SOL    HW2 8147   1.561   3.798   3.404  0.4036  0.1048 -0.6515
 2019SOL    HW3 8148   1.555   3.880   3.277  0.1055  0.6103 -0.3125
 2019SOL    MW4 8149   1.569   3.874   3.363  0.0063  0.3364 -0.3142
 2020SOL     OW 8150   1.341   3.999   3.488 -0.0619  0.1115 -0.1827
 2020SOL    HW2 8151   1.329   4.083   3.445 -0.9216 -0.6865 -1.5581
 2020SOL    HW3 8152   1.427   3.969   3.458  0.1590  0.4089  0.1525
 2020SOL    MW4 8153   1.351   4.006   3.478 -0.1462  0.0453 -0.3200
 2021SOL     OW 8154   1.290   4.245   3.393 -0.2813 -0.0973  0.1025
 2021SOL    HW2 8155   1.212   4.277   3.439  0.9655  0.5365  1.8180
 2021SOL    HW3 8156   1.278   4.273   3.303 -0.9206  2.1061  0.8431
 2021SOL    MW4 8157   1.278   4.253   3.387 -0.2011  0.2770  0.4263
 2022SOL     OW 8158   1.501   4.415   3.482  0.7448 -0.0799 -0.3003
 2022SOL    HW2 8159   1.591   4.392   3.462  0.8324  0.1547 -0.1843
 2022SOL    HW3 8160   1.450   4.338   3.457  0.8586  0.1784 -1.3336
 2022SOL    MW4 8161   1.506   4.402   3.476  0.7714 -0.0153 -0.4215
 2023SOL     OW 8162   1.999   4.646   3.463 -0.1770 -0.0938  0.3244
 2023SOL    HW2 8163   2.071   4.702   3.494 -1.0927  1.2370  0.0635
 2023SOL    HW3 8164   1.920   4.698   3.476 -0.8408 -0.4836 -1.9002
 2023SOL    MW4 8165   1.998   4.660   3.469 -0.3853  0.0305 -0.0036
 2024SOL     OW 8166   1.757   0.104   3.484 -0.3014  0.0152 -0.1731
 2024SOL    HW2 8167   1.770   0.104   3.579 -1.1364 -0.2268 -0.0530
 2024SOL    HW3 8168   1.672   0.063   3.471 -0.5702  0.7846 -0.9720
 2024SOL    MW4 8169   1.748   0.099   3.495 -0.4470  0.0848 -0.2625
 2025SOL     OW 8170   1.757   0.369   3.408 -0.0938  0.6939 -0.4736
 2025SOL    HW2 8171   1.765   0.277   3.433  0.1067  0.5241 -1.1408
 2025SOL    HW3 8172   1.772   0.369   3.313  0.1827  1.4498 -0.4307
 2025SOL    MW4 8173   1.760   0.356   3.399 -0.0308  0.7712 -0.5562
 2026SOL     OW 8174   1.987   0.504   3.480  0.3680  0.2591 -0.4284
 2026SOL    HW2 8175   1.999   0.594   3.450 -0.3987  0.6158  0.3290
 2026SOL    HW3 8176   1.902   0.478   3.446  0.2574  0.0735 -0.0094
 2026SOL    MW4 8177   1.978   0.512   3.472  0.2524  0.2816 -0.2730
 2027SOL     OW 8178   2.013   0.783   3.424  0.3146  0.0061  0.2625
 2027SOL    HW2 8179   2.090   0.832   3.452  0.1039 -0.7024  2.1712
 2027SOL    HW3 8180   2.025   0.769   3.330  1.6896  1.3349  0.2375
 2027SOL    MW4 8181   2.024   0.788   3.415  0.4680  0.0879  0.5109
 2028SOL     OW 8182   1.790   0.914   3.502  0.1469  0.1380 -0.2230
 2028SOL    HW2 8183   1.870   0.871   3.473 -0.2373 -0.5789 -0.2464
 2028SOL    HW3 8184   1.721   0.871   3.452 -0.1074  1.7856 -1.3021
 2028SOL    MW4 8185   1.791   0.903   3.492  0.0626  0.2608 -0.3684
 2029SOL     OW 8186   1.785   1.161   3.407 -0.0778  0.0313  0.0789
 2029SOL    HW2 8187   1.864   1.207   3.436  1.3514 -1.3279 -1.5350
 2029SOL    HW3 8188   1.791   1.074   3.447 -1.0891  0.1319  0.4673
 2029SOL    MW4 8189   1.796   1.156   3.416 -0.0228 -0.1348 -0.0827
 2030SOL     OW 8190   2.010   1.307   3.500  0.2613  0.4301 -0.0017
 2030SOL    HW2 8191   2.028   1.299   3.594  2.5564  0.6593 -0.3828
 2030SOL    HW3 8192   2.016   1.401   3.482 -2.5415  0.6530  0.0274
 2030SOL    MW4 8193   2.013   1.318   3.510  0.1943  0.4898 -0.0482
 2031SOL     OW 8194   2.036   1.570   3.414  0.0480  0.7528 -0.8094
 2031SOL    HW2 8195   2.090   1.648   3.426 -0.3873  0.9770 -0.2621
 2031SOL    HW3 8196   1.947   1.600   3.433 -0.2543  0.3596 -1.5722
 2031SOL    MW4 8197   2.031   1.585   3.418 -0.0494  0.7305 -0.8380
 2032SOL     OW 8198   1.776   1.698   3.483 -0.3044 -0.2187  0.0531
 2032SOL    HW2 8199   1.781   1.722   3.575 -0.1952  0.6888 -0.1898
 2032SOL    HW3 8200   1.782   1.781   3.436  0.6713 -0.7690 -0.7991
 2032SOL    MW4 8201   1.777   1.712   3.489 -0.1613 -0.1715 -0.0916
 2033SOL     OW 8202   1.790   1.933   3.329  0.0906  0.3694  0.2306
 2033SOL    HW2 8203   1.875   1.972   3.348  0.9616 -0.9379 -0.9463
 2033SOL    HW3 8204   1.788   1.924   3.234 -0.9935 -0.4320  0.3184
 2033SOL    MW4 8205   1.801   1.937   3.319  0.0623  0.0912  0.0865
 2034SOL     OW 8206   2.030   2.060   3.456  0.4499 -0.6154 -0.3360
 2034SOL    HW2 8207   2.123   2.047   3.437  0.0893 -1.1677 -1.7988
 2034SOL    HW3 8208   2.014   2.152   3.434  1.0944  0.0407  1.8615
 2034SOL    MW4 8209   2.040   2.070   3.450  0.4873 -0.6020 -0.2389
 2035SOL     OW 8210   2.003   2.320   3.360 -0.5177  0.9786  0.1866
 2035SOL    HW2 8211   2.093   2.343   3.380 -0.1585 -0.2402 -0.0133
 2035SOL    HW3 8212   2.001   2.311   3.264 -0.6638  0.1918  0.2660
 2035SOL    MW4 8213   2.014   2.322   3.350 -0.4895  0.7141  0.1709
 2036SOL     OW 8214   1.760   2.417   3.471 -0.0427 -0.7054 -0.2630
 2036SOL    HW2 8215   1.842   2.394   3.428 -0.4070 -0.0950 -1.3078
 2036SOL    HW3 8216   1.693   2.372   3.421 -0.2545 -2.3323  1.4329
 2036SOL    MW4 8217   1.762   2.408   3.459 -0.1187 -0.8392 -0.1769
 2037SOL     OW 8218   1.787   2.682   3.365  0.2048 -0.3946  0.2225
 2037SOL    HW2 8219   1.866   2.718   3.404  0.5683 -1.5947  0.6318
 2037SOL    HW3 8220   1.775   2.598   3.409 -2.9077  0.9940  2.2131
 2037SOL    MW4 8221   1.796   2.675   3.376 -0.1578 -0.3695  0.5391
 2038SOL     OW 8222   2.029   2.836   3.455  0.6001 -0.2474  0.3655
 2038SOL    HW2 8223   2.058   2.817   3.544  1.3856  1.5100  0.5119
 2038SOL    HW3 8224   1.999   2.927   3.458 -0.4041 -0.5192 -0.9087
 2038SOL    MW4 8225   2.029   2.845   3.467  0.5710 -0.0513  0.2167
 2039SOL     OW 8226   2.008   3.117   3.399 -0.2109 -0.4801  0.0779
 2039SOL    HW2 8227   2.083   3.169   3.429 -0.3273  0.7612 -1.6925
 2039SOL    HW3 8228   1.932   3.168   3.425 -0.3782 -0.6873 -0.0049
 2039SOL    MW4 8229   2.008   3.130   3.406 -0.2482 -0.3436 -0.1664
 2040SOL     OW 8230   1.794   3.257   3.495 -0.1632 -0.2302  0.1979
 2040SOL    HW2 8231   1.796   3.263   3.590 -1.3315 -0.6613  0.2523
 2040SOL    HW3 8232   1.788   3.347   3.465 -0.0374 -0.1103  0.5342
 2040SOL    MW4 8233   1.794   3.269   3.503 -0.3008 -0.2713  0.2494
 2041SOL     OW 8234   1.807   3.546   3.411  0.4361  0.2531 -0.1871
 2041SOL    HW2 8235   1.727   3.584   3.447  0.0529 -0.0376 -0.7217
 2041SOL    HW3 8236   1.788   3.537   3.317  1.6910  1.7080 -0.5955
 2041SOL    MW4 8237   1.794   3.550   3.403  0.5512  0.4070 -0.3116
 2042SOL     OW 8238   2.036   3.665   3.543  0.2242  0.3470 -0.0387
 2042SOL    HW2 8239   2.109   3.619   3.502 -0.8141 -1.2406 -0.1631
 2042SOL    HW3 8240   1.958   3.623   3.507 -0.7342  0.7890  1.4638
 2042SOL    MW4 8241   2.035   3.653   3.533 -0.0393  0.1962  0.1431
 2043SOL     OW 8242   1.981   3.916   3.415  0.1024 -0.0156 -0.0889
 2043SOL    HW2 8243   1.898   3.960   3.435  0.4549  0.7500 -0.3034
 2043SOL    HW3 8244   1.978   3.835   3.467 -0.7834 -0.0014 -0.1065
 2043SOL    MW4 8245   1.970   3.911   3.425  0.0319  0.0875 -0.1194
 2044SOL     OW 8246   1.710   4.083   3.500  0.5920 -0.0090  0.0808
 2044SOL    HW2 8247   1.728   4.049   3.588  1.0990  1.6183  0.6338
 2044SOL    HW3 8248   1.661   4.014   3.457 -0.8456 -0.3111  2.1035
 2044SOL    MW4 8249   1.706   4.070   3.506  0.4692  0.1664  0.4206
 2045SOL     OW 8250   1.751   4.334   3.411  1.0333  0.3702 -0.6308
 2045SOL    HW2 8251   1.735   4.247   3.448 -1.1401  1.5396  1.2626
 2045SOL    HW3 8252   1.751   4.320   3.316 -0.1951 -1.5385 -0.3747
 2045SOL    MW4 8253   1.749   4.320   3.403  0.5844  0.2723 -0.3474
 2046SOL     OW 8254   2.006   4.363   3.478  0.2283 -0.4062 -0.2668
 2046SOL    HW2 8255   1.924   4.340   3.435  0.4696  0.0918 -0.9855
 2046SOL    HW3 8256   1.999   4.456   3.496  0.0648 -0.6329  0.9205
 2046SOL    MW4 8257   1.994   4.372   3.475  0.2387 -0.3705 -0.2050
 2047SOL     OW 8258   2.444   0.006   3.413 -0.2371 -0.5778 -0.1355
 2047SOL    HW2 8259   2.448  -0.086   3.438  0.5951 -0.8612 -1.2508
 2047SOL    HW3 8260   2.458   0.006   3.318  2.4104  0.8740  0.1949
 2047SOL    MW4 8261   2.446  -0.006   3.404  0.2220 -0.4236 -0.2389
 2048SOL     OW 8262   2.226   0.105   3.560 -0.1351  0.0657 -0.0755
 2048SOL    HW2 8263   2.227   0.192   3.522 -0.6529 -0.4213 -1.2247
 2048SOL    HW3 8264   2.298   0.059   3.518 -1.8859 -1.0645 -1.9455
 2048SOL    MW4 8265   2.235   0.110   3.550 -0.4346 -0.1476 -0.4737
 2049SOL     OW 8266   2.205   0.358   3.428  0.6968 -0.0538  0.8146
 2049SOL    HW2 8267   2.272   0.418   3.460 -0.1823  0.2031  2.2421
 2049SOL    HW3 8268   2.122   0.403   3.446  0.0524 -1.4341  1.3580
 2049SOL    MW4 8269   2.203   0.372   3.435  0.4959 -0.2020  1.0748
 2050SOL     OW 8270   2.469   0.499   3.478  0.3264  0.0660 -0.2499
 2050SOL    HW2 8271   2.531   0.445   3.430  0.6548 -0.8096  1.1227
 2050SOL    HW3 8272   2.461   0.579   3.426  0.2747 -1.0634 -2.0038
 2050SOL    MW4 8273   2.476   0.502   3.465  0.3629 -0.1985 -0.3002
 2051SOL     OW 8274   2.441   0.752   3.375 -0.1381  0.2205  0.1531
 2051SOL    HW2 8275   2.531   0.767   3.403 -0.8889  0.2465  2.6709
 2051SOL    HW3 8276   2.444   0.759   3.280  2.2472  1.6464  0.2975
 2051SOL    MW4 8277   2.453   0.755   3.366  0.0775  0.4122  0.5045
 2052SOL     OW 8278   2.238   0.913   3.495  0.1098 -0.1749 -0.2466
 2052SOL    HW2 8279   2.259   1.001   3.462 -0.3655 -0.1572 -0.5071
 2052SOL    HW3 8280   2.307   0.857   3.459  0.9337  0.2353  0.6505
 2052SOL    MW4 8281   2.250   0.917   3.486  0.1557 -0.1184 -0.1628
 2053SOL     OW 8282   2.237   1.182   3.396 -0.6258 -0.2982 -0.5892
 2053SOL    HW2 8283   2.320   1.216   3.430 -1.1679 -0.6360  1.1489
 2053SOL    HW3 8284   2.170   1.230   3.445 -1.4396 -0.9091 -1.0856
 2053SOL    MW4 8285   2.239   1.193   3.407 -0.8047 -0.4232 -0.4253
 2054SOL     OW 8286   2.497   1.290   3.513  0.0298 -0.3204  0.0026
 2054SOL    HW2 8287   2.516   1.310   3.605 -0.2481  0.8181 -0.1787
 2054SOL    HW3 8288   2.567   1.230   3.486  0.5451 -0.0562  0.7382
 2054SOL    MW4 8289   2.509   1.285   3.522  0.0610 -0.1354  0.0758
 2055SOL     OW 8290   2.442   1.555   3.407 -0.1968  0.4986  0.0830
 2055SOL    HW2 8291   2.440   1.463   3.434 -0.1772  0.3963 -0.2680
 2055SOL    HW3 8292   2.449   1.553   3.312  2.2056  0.8608  0.2159
 2055SOL    MW4 8293   2.443   1.543   3.398  0.1228  0.5330  0.0541
 2056SOL     OW 8294   2.241   1.738   3.485 -0.0038 -0.0937 -0.0718
 2056SOL    HW2 8295   2.237   1.724   3.580 -0.9552  0.8788  0.0502
 2056SOL    HW3 8296   2.308   1.678   3.454 -0.1014 -0.8376  1.1447
 2056SOL    MW4 8297   2.249   1.728   3.493 -0.1423 -0.0634  0.1047
 2057SOL     OW 8298   2.275   1.974   3.341  0.1915  0.0601 -0.0662
 2057SOL    HW2 8299   2.244   1.892   3.379  0.5192  0.2855  0.6913
 2057SOL    HW3 8300   2.248   1.969   3.249  0.1259 -0.8517 -0.0053
 2057SOL    MW4 8301   2.267   1.962   3.334  0.2258 -0.0304  0.0417
 2058SOL     OW 8302   2.504   2.052   3.468  0.2859 -0.4553  0.0820
 2058SOL    HW2 8303   2.496   2.050   3.563  1.1223  1.2321  0.1990
 2058SOL    HW3 8304   2.415   2.036   3.436 -0.1897  0.0548  1.1566
 2058SOL    MW4 8305   2.491   2.049   3.476  0.3335 -0.1655  0.2389
 2059SOL     OW 8306   2.495   2.302   3.336  0.1734  0.1721  0.6253
 2059SOL    HW2 8307   2.546   2.367   3.386 -0.5590  0.6521  0.7564
 2059SOL    HW3 8308   2.508   2.220   3.383  3.0013 -0.2811 -0.8502
 2059SOL    MW4 8309   2.504   2.300   3.349  0.4497  0.1757  0.4478
 2060SOL     OW 8310   2.251   2.403   3.468 -0.1818  0.0622  0.3494
 2060SOL    HW2 8311   2.234   2.497   3.460  0.2213  0.1464  0.4638
 2060SOL    HW3 8312   2.338   2.391   3.430 -1.0978 -0.5951 -1.6340
 2060SOL    MW4 8313   2.260   2.414   3.462 -0.2494 -0.0134  0.1028
 2061SOL     OW 8314   2.255   2.671   3.389  0.1613 -0.0821  0.0672
 2061SOL    HW2 8315   2.183   2.733   3.404 -1.7033 -2.0062 -0.6384
 2061SOL    HW3 8316   2.270   2.674   3.295  1.0243  0.3082  0.2121
 2061SOL    MW4 8317   2.247   2.679   3.379  0.0293 -0.2842 -0.0067
 2062SOL     OW 8318   2.445   2.843   3.531 -0.0611 -0.1767 -0.4257
 2062SOL    HW2 8319   2.433   2.924   3.482  1.7222 -0.5092 -1.4659
 2062SOL    HW3 8320   2.385   2.781   3.489  1.2007 -0.3606 -1.9947
 2062SOL    MW4 8321   2.435   2.845   3.519  0.3407 -0.2449 -0.7699
 2063SOL     OW 8322   2.456   3.065   3.371  0.0068 -0.6141  0.3890
 2063SOL    HW2 8323   2.537   3.114   3.389 -0.0900 -0.4673  0.4263
 2063SOL    HW3 8324   2.446   3.068   3.276  0.6411 -1.5838  0.2879
 2063SOL    MW4 8325   2.466   3.072   3.361  0.0775 -0.7226  0.3805
 2064SOL     OW 8326   2.266   3.262   3.458  0.2730  0.0114  0.4895
 2064SOL    HW2 8327   2.267   3.239   3.551  0.2082 -1.2654  0.1754
 2064SOL    HW3 8328   2.331   3.205   3.418  1.1457  1.3686 -0.0755
 2064SOL    MW4 8329   2.275   3.252   3.465  0.3796  0.0222  0.3734
 2065SOL     OW 8330   2.242   3.529   3.410  0.1550 -0.3607  0.4312
 2065SOL    HW2 8331   2.243   3.439   3.442 -0.2474 -0.7783 -0.7002
 2065SOL    HW3 8332   2.261   3.522   3.316  0.5836  0.7742  0.4144
 2065SOL    MW4 8333   2.245   3.516   3.402  0.1585 -0.2658  0.2797
 2066SOL     OW 8334   2.467   3.647   3.498 -0.5677 -0.3635 -0.0328
 2066SOL    HW2 8335   2.457   3.741   3.481  0.4486 -0.1504  0.5334
 2066SOL    HW3 8336   2.380   3.611   3.482 -1.1270  0.7772  0.3780
 2066SOL    MW4 8337   2.454   3.655   3.494 -0.5074 -0.1848  0.0963
 2067SOL     OW 8338   2.422   3.906   3.446 -0.3533 -0.3538  0.0984
 2067SOL    HW2 8339   2.498   3.963   3.457  0.8267 -2.0694  1.0722
 2067SOL    HW3 8340   2.347   3.963   3.465  0.6715  1.2708 -0.5309
 2067SOL    MW4 8341   2.422   3.921   3.450 -0.0622 -0.3657  0.1438
 2068SOL     OW 8342   2.209   4.050   3.527  0.2913 -0.2269 -0.1356
 2068SOL    HW2 8343   2.226   4.133   3.481 -1.9487  0.6717  0.6103
 2068SOL    HW3 8344   2.130   4.016   3.486 -0.7875 -0.2415  1.9157
 2068SOL    MW4 8345   2.201   4.057   3.516 -0.1464 -0.1101  0.2332
 2069SOL     OW 8346   2.256   4.273   3.378 -0.7001 -0.0827  0.2224
 2069SOL    HW2 8347   2.176   4.314   3.411 -0.8521 -0.0632 -0.1676
 2069SOL    HW3 8348   2.250   4.281   3.283 -0.0332  0.2924  0.2051
 2069SOL    MW4 8349   2.245   4.279   3.370 -0.6323 -0.0310  0.1686
 2070SOL     OW 8350   2.466   4.413   3.485 -0.1746  0.1740 -0.1923
 2070SOL    HW2 8351   2.467   4.412   3.581  0.2486  0.7531 -0.1859
 2070SOL    HW3 8352   2.392   4.357   3.462 -0.0002 -0.3404  0.4616
 2070SOL    MW4 8353   2.456   4.406   3.495 -0.0956  0.1817 -0.1049
 2071SOL     OW 8354   2.893   4.647   3.445  0.4013  0.0697  0.4277
 2071SOL    HW2 8355   2.822   4.701   3.480  1.4209  1.0670  0.9903
 2071SOL    HW3 8356   2.892   4.663   3.351  0.2769  0.5599  0.5116
 2071SOL    MW4 8357   2.884   4.656   3.437  0.5195  0.2666  0.5131
 2072SOL     OW 8358   2.670   0.130   3.503  0.0732 -1.0618 -0.2361
 2072SOL    HW2 8359   2.669   0.212   3.453  0.0207  0.3377  1.9503
 2072SOL    HW3 8360   2.585   0.090   3.486 -0.6549  0.2832  0.1029
 2072SOL    MW4 8361   2.659   0.136   3.494 -0.0300 -0.6997  0.0970
 2073SOL     OW 8362   2.662   0.347   3.353  0.0812 -0.0143  0.2958
 2073SOL    HW2 8363   2.731   0.385   3.407  1.5841 -4.1112  1.4418
 2073SOL    HW3 8364   2.692   0.361   3.263  1.4479 -0.0461  0.7345
 2073SOL    MW4 8365   2.675   0.354   3.348  0.4597 -0.5591  0.5047
 2074SOL     OW 8366   2.864   0.471   3.494  0.2242 -0.0675 -0.0716
 2074SOL    HW2 8367   2.854   0.497   3.585 -1.3301  0.1865 -0.3001
 2074SOL    HW3 8368   2.881   0.552   3.447 -1.0808  0.0882 -0.2914
 2074SOL    MW4 8369   2.865   0.485   3.500 -0.1528 -0.0134 -0.1309
 2075SOL     OW 8370   2.921   0.731   3.350 -0.2523 -0.0534 -0.3279
 2075SOL    HW2 8371   3.003   0.767   3.385 -0.1838 -0.2526 -0.2841
 2075SOL    HW3 8372   2.853   0.774   3.401 -0.2133  0.7914 -0.9685
 2075SOL    MW4 8373   2.923   0.741   3.361 -0.2382  0.0318 -0.4065
 2076SOL     OW 8374   2.712   0.844   3.492 -0.2503  0.4167  0.1446
 2076SOL    HW2 8375   2.692   0.844   3.586 -1.3595 -0.7219 -0.0823
 2076SOL    HW3 8376   2.707   0.936   3.466  0.3932  0.7741  1.2638
 2076SOL    MW4 8377   2.709   0.856   3.501 -0.3116  0.3136  0.2623
 2077SOL     OW 8378   2.692   1.113   3.412 -0.4620  0.3806  0.2543
 2077SOL    HW2 8379   2.768   1.163   3.442  0.2764 -0.0335 -0.9325
 2077SOL    HW3 8380   2.688   1.129   3.318 -0.6891 -1.1511 -0.0061
 2077SOL    MW4 8381   2.702   1.122   3.404 -0.3946  0.1240  0.0634
 2078SOL     OW 8382   2.907   1.270   3.472  0.8530 -0.0526  0.5224
 2078SOL    HW2 8383   2.920   1.280   3.566  2.1238  1.0341  0.2421
 2078SOL    HW3 8384   2.976   1.208   3.445  0.0429 -0.9224  0.4142
 2078SOL    MW4 8385   2.918   1.263   3.481  0.9141 -0.0241  0.4711
 2079SOL     OW 8386   2.913   1.529   3.378  0.0367 -0.0109  0.1656
 2079SOL    HW2 8387   2.851   1.572   3.437  1.3304  0.0071  1.5352
 2079SOL    HW3 8388   2.912   1.437   3.405  0.1711 -0.1159 -0.1859
 2079SOL    MW4 8389   2.905   1.523   3.389  0.2253 -0.0224  0.2997
 2080SOL     OW 8390   2.693   1.629   3.491  0.6839 -0.2651 -0.0845
 2080SOL    HW2 8391   2.691   1.715   3.450  0.8262  0.3652  1.1963
 2080SOL    HW3 8392   2.611   1.588   3.466 -0.3083  1.0387  0.9356
 2080SOL    MW4 8393   2.682   1.635   3.483  0.5717 -0.0100  0.2191
 2081SOL     OW 8394   2.711   1.875   3.372  0.3733 -0.3871 -0.6054
 2081SOL    HW2 8395   2.637   1.929   3.398  0.6987  0.6718 -1.8122
 2081SOL    HW3 8396   2.719   1.889   3.278  2.4923  0.0054 -0.3994
 2081SOL    MW4 8397   2.703   1.884   3.363  0.6957 -0.1955 -0.7377
 2082SOL     OW 8398   2.922   2.049   3.471  0.1998 -0.2514 -0.3404
 2082SOL    HW2 8399   2.918   2.068   3.565 -0.2345 -1.1464 -0.1648
 2082SOL    HW3 8400   2.851   1.986   3.457  1.2781 -1.3647 -0.9524
 2082SOL    MW4 8401   2.912   2.043   3.482  0.2847 -0.5164 -0.3982
 2083SOL     OW 8402   2.881   2.306   3.371 -0.0858  0.2183 -0.1651
 2083SOL    HW2 8403   2.897   2.216   3.400 -1.7157 -0.4051 -1.1565
 2083SOL    HW3 8404   2.887   2.302   3.276  0.2163  1.2536 -0.1947
 2083SOL    MW4 8405   2.884   2.293   3.363 -0.2608  0.2728 -0.2997
 2084SOL     OW 8406   2.660   2.472   3.474 -0.2973 -0.0605  0.5414
 2084SOL    HW2 8407   2.664   2.474   3.569 -0.4875 -1.4950  0.5762
 2084SOL    HW3 8408   2.740   2.426   3.448  0.4732  1.5776 -0.0520
 2084SOL    MW4 8409   2.671   2.466   3.483 -0.2208 -0.0339  0.4678
 2085SOL     OW 8410   2.684   2.740   3.399 -0.2808 -0.3956  0.4098
 2085SOL    HW2 8411   2.673   2.646   3.414 -0.0760 -0.5022 -0.0875
 2085SOL    HW3 8412   2.617   2.781   3.453 -0.1849 -0.8116  0.8523
 2085SOL    MW4 8413   2.674   2.733   3.408 -0.2413 -0.4647  0.4027
 2086SOL     OW 8414   2.933   2.843   3.476 -0.2121  0.2827 -0.8211
 2086SOL    HW2 8415   2.905   2.851   3.567  2.1583  0.4960 -0.0987
 2086SOL    HW3 8416   2.857   2.805   3.431 -0.7683 -1.5242  1.5844
 2086SOL    MW4 8417   2.919   2.839   3.482  0.0272  0.0725 -0.4084
 2087SOL     OW 8418   2.934   3.100   3.352  0.5397 -0.1421 -0.0066
 2087SOL    HW2 8419   2.916   3.015   3.391  2.2556 -0.3232  0.3961
 2087SOL    HW3 8420   2.921   3.086   3.258  0.8200 -0.8392  0.0590
 2087SOL    MW4 8421   2.930   3.087   3.344  0.8035 -0.2580  0.0551
 2088SOL     OW 8422   2.696   3.232   3.446  0.5758  0.0207  0.3616
 2088SOL    HW2 8423   2.695   3.243   3.541  0.3206 -0.2618  0.3935
 2088SOL    HW3 8424   2.783   3.199   3.427  0.6539  0.1532  0.4891
 2088SOL    MW4 8425   2.707   3.229   3.456  0.5524  0.0010  0.3824
 2089SOL     OW 8426   2.664   3.498   3.335 -0.3969  0.3636  0.0522
 2089SOL    HW2 8427   2.657   3.410   3.372 -0.9316  0.4787  0.2340
 2089SOL    HW3 8428   2.592   3.547   3.376  1.3641  1.5511  1.7736
 2089SOL    MW4 8429   2.653   3.493   3.345 -0.2351  0.5352  0.3033
 2090SOL     OW 8430   2.884   3.596   3.482  0.0269 -0.0822  0.4714
 2090SOL    HW2 8431   2.879   3.689   3.462  1.3811 -0.4377 -1.6326
 2090SOL    HW3 8432   2.804   3.558   3.445  1.0651 -0.2591 -1.6173
 2090SOL    MW4 8433   2.872   3.603   3.475  0.3424 -0.1523 -0.0815
 2091SOL     OW 8434   2.865   3.873   3.435 -0.3510 -0.0540  0.4233
 2091SOL    HW2 8435   2.940   3.925   3.464 -0.2264 -0.5706  1.0420
 2091SOL    HW3 8436   2.789   3.919   3.471 -0.2718 -0.0370  0.5682
 2091SOL    MW4 8437   2.865   3.886   3.444 -0.3242 -0.1199  0.5238
 2092SOL     OW 8438   2.653   4.035   3.505  0.3519  0.0218  0.8645
 2092SOL    HW2 8439   2.652   4.042   3.600  1.2851 -0.6811  0.9300
 2092SOL    HW3 8440   2.677   4.123   3.475  1.2540 -0.0610  1.3205
 2092SOL    MW4 8441   2.656   4.048   3.513  0.5939 -0.0820  0.9334
 2093SOL     OW 8442   2.692   4.277   3.390 -0.3717  0.4210  0.0795
 2093SOL    HW2 8443   2.765   4.318   3.436  0.4197 -0.5178 -0.3088
 2093SOL    HW3 8444   2.616   4.330   3.412  0.5434  1.7969 -0.0379
 2093SOL    MW4 8445   2.692   4.289   3.399 -0.1469  0.4787  0.0129
 2094SOL     OW 8446   2.923   4.384   3.530  0.0892 -0.1259  0.2169
 2094SOL    HW2 8447   2.907   4.389   3.624 -0.0388 -0.3987  0.2119
 2094SOL    HW3 8448   2.924   4.475   3.500 -1.3501 -0.0865  0.2381
 2094SOL    MW4 8449   2.921   4.396   3.538 -0.1175 -0.1569  0.2193
 2095SOL     OW 8450   3.362   0.001   3.439  0.1797 -0.5212  0.3086
 2095SOL    HW2 8451   3.279   0.043   3.462  0.1189 -0.5806  0.2001
 2095SOL    HW3 8452   3.359  -0.005   3.343  0.2572 -0.6297  0.3134
 2095SOL    MW4 8453   3.350   0.006   3.429  0.1822 -0.5433  0.2947
 2096SOL     OW 8454   3.112   0.113   3.531 -0.2084 -0.4043 -0.3785
 2096SOL    HW2 8455   3.102   0.203   3.500 -0.5217 -0.3684 -0.1665
 2096SOL    HW3 8456   3.034   0.067   3.498 -0.0001 -0.6236 -0.5743
 2096SOL    MW4 8457   3.101   0.119   3.522 -0.2224 -0.4285 -0.3760
 2097SOL     OW 8458   3.102   0.370   3.427  0.0141  0.2756 -0.1564
 2097SOL    HW2 8459   3.011   0.386   3.454 -0.3005  1.1079 -1.6728
 2097SOL    HW3 8460   3.098   0.362   3.332  1.4669 -0.2257 -0.1915
 2097SOL    MW4 8461   3.089   0.371   3.418  0.1643  0.3192 -0.3612
 2098SOL     OW 8462   3.355   0.505   3.513 -0.0975 -0.4763  0.1307
 2098SOL    HW2 8463   3.361   0.504   3.609  0.9530  0.6519  0.0928
 2098SOL    HW3 8464   3.276   0.455   3.493 -0.2181 -0.8836  1.5797
 2098SOL    MW4 8465   3.346   0.499   3.523  0.0250 -0.3812  0.3171
 2099SOL     OW 8466   3.370   0.757   3.394 -0.4709  0.0969 -0.1331
 2099SOL    HW2 8467   3.439   0.811   3.433 -1.2695  0.5448  0.6720
 2099SOL    HW3 8468   3.374   0.674   3.442  0.1391 -0.2275 -0.7383
 2099SOL    MW4 8469   3.380   0.753   3.405 -0.4957  0.1132 -0.1068
 2100SOL     OW 8470   3.125   0.857   3.501 -0.2043  0.1173 -0.4491
 2100SOL    HW2 8471   3.135   0.948   3.474  0.7471  0.3498  0.6795
 2100SOL    HW3 8472   3.208   0.816   3.477 -0.1618 -0.1660  0.1847
 2100SOL    MW4 8473   3.137   0.864   3.494 -0.0732  0.1106 -0.2170
 2101SOL     OW 8474   3.145   1.126   3.409 -0.3258 -0.2365  0.0728
 2101SOL    HW2 8475   3.229   1.159   3.440 -0.0134 -1.1646  0.2202
 2101SOL    HW3 8476   3.148   1.136   3.314 -0.5850  0.9775  0.1877
 2101SOL    MW4 8477   3.156   1.132   3.400 -0.3190 -0.1988  0.1073
 2102SOL     OW 8478   3.361   1.244   3.497  0.1729  0.1269 -0.5098
 2102SOL    HW2 8479   3.455   1.235   3.479  0.4095  1.5821 -0.1064
 2102SOL    HW3 8480   3.337   1.327   3.455 -0.7157  0.2488  0.2377
 2102SOL    MW4 8481   3.370   1.254   3.489  0.0868  0.3351 -0.3576
 2103SOL     OW 8482   3.340   1.494   3.397  0.2176  0.2063 -0.3237
 2103SOL    HW2 8483   3.425   1.533   3.418  0.2225  0.3176 -0.5423
 2103SOL    HW3 8484   3.278   1.542   3.450  0.3709 -0.3374  0.3514
 2103SOL    MW4 8485   3.343   1.506   3.407  0.2387  0.1491 -0.2635
 2104SOL     OW 8486   3.129   1.636   3.503 -0.0147 -0.3186  0.3181
 2104SOL    HW2 8487   3.115   1.723   3.466 -1.3253 -0.5880  0.1445
 2104SOL    HW3 8488   3.059   1.582   3.465  0.4920 -1.3344  0.7895
 2104SOL    MW4 8489   3.118   1.640   3.493 -0.1206 -0.4882  0.3574
 2105SOL     OW 8490   3.124   1.880   3.381 -0.2545 -0.0493  0.4627
 2105SOL    HW2 8491   3.062   1.944   3.414 -0.6709 -0.2696  0.1071
 2105SOL    HW3 8492   3.134   1.902   3.288 -0.5356 -0.6121  0.2995
 2105SOL    MW4 8493   3.117   1.892   3.373 -0.3464 -0.1527  0.3946
 2106SOL     OW 8494   3.354   2.020   3.457  0.0926  0.0996  0.1316
 2106SOL    HW2 8495   3.332   2.106   3.422  0.1362  0.0883  0.0756
 2106SOL    HW3 8496   3.288   1.961   3.420  0.9111 -0.1347 -0.9799
 2106SOL    MW4 8497   3.343   2.023   3.448  0.2062  0.0672 -0.0224
 2107SOL     OW 8498   3.350   2.280   3.355 -0.0522 -0.1411 -0.1034
 2107SOL    HW2 8499   3.426   2.313   3.402  0.2927 -1.9821  0.6731
 2107SOL    HW3 8500   3.277   2.332   3.389  0.5765  0.3132  0.5780
 2107SOL    MW4 8501   3.350   2.291   3.366  0.0765 -0.3238  0.0892
 2108SOL     OW 8502   3.120   2.408   3.469  0.1049  0.0675  0.0730
 2108SOL    HW2 8503   3.123   2.501   3.449 -0.5704 -0.0956 -0.8230
 2108SOL    HW3 8504   3.032   2.381   3.443  0.8038 -1.1302 -1.0905
 2108SOL    MW4 8505   3.108   2.417   3.463  0.1080 -0.1118 -0.1986
 2109SOL     OW 8506   3.127   2.672   3.403 -0.9526 -0.0450  0.0084
 2109SOL    HW2 8507   3.204   2.714   3.441  0.5979 -1.2550 -1.6650
 2109SOL    HW3 8508   3.053   2.725   3.433  0.6297  1.8200  0.7432
 2109SOL    MW4 8509   3.127   2.684   3.412 -0.5393  0.0415 -0.1152
 2110SOL     OW 8510   3.375   2.803   3.494  0.3664  0.1039  0.2158
 2110SOL    HW2 8511   3.429   2.739   3.448 -0.7905 -0.2178 -0.7224
 2110SOL    HW3 8512   3.393   2.886   3.449  0.8480  0.1879  0.5626
 2110SOL    MW4 8513   3.384   2.806   3.482  0.2773  0.0725  0.1378
 2111SOL     OW 8514   3.397   3.070   3.382 -0.4659 -0.5251 -0.5527
 2111SOL    HW2 8515   3.461   3.125   3.427  0.3311 -1.4633 -0.5314
 2111SOL    HW3 8516   3.312   3.106   3.408  0.0030 -0.6048  1.1279
 2111SOL    MW4 8517   3.394   3.082   3.391 -0.2987 -0.6592 -0.3281
 2112SOL     OW 8518   3.155   3.212   3.476 -0.2800 -0.1084  0.1780
 2112SOL    HW2 8519   3.150   3.307   3.460  0.6217 -0.0707  0.1087
 2112SOL    HW3 8520   3.078   3.177   3.432 -0.6807  0.6074  0.2970
 2112SOL    MW4 8521   3.144   3.220   3.468 -0.2139 -0.0091  0.1843
 2113SOL     OW 8522   3.159   3.492   3.437  0.4413 -0.1298 -0.7153
 2113SOL    HW2 8523   3.077   3.540   3.442 -0.3926 -1.3924 -1.8819
 2113SOL    HW3 8524   3.182   3.491   3.344  0.9360 -1.1462 -0.5995
 2113SOL    MW4 8525   3.152   3.498   3.426  0.3967 -0.4306 -0.8543
 2114SOL     OW 8526   3.373   3.635   3.538 -0.1635  0.0281  0.1093
 2114SOL    HW2 8527   3.350   3.723   3.510  0.5533  0.4144  0.7185
 2114SOL    HW3 8528   3.298   3.581   3.513 -0.5326  0.7791 -0.4088
 2114SOL    MW4 8529   3.360   3.639   3.531 -0.1175  0.1781  0.1211
 2115SOL     OW 8530   3.320   3.871   3.411  0.2401  0.0070 -0.0383
 2115SOL    HW2 8531   3.399   3.914   3.444  0.3090  1.3246 -1.8430
 2115SOL    HW3 8532   3.249   3.908   3.464  0.6732 -0.1117  0.6309
 2115SOL    MW4 8533   3.321   3.882   3.422  0.3064  0.1650 -0.1881
 2116SOL     OW 8534   3.092   4.008   3.522 -0.1192  0.1914  0.2559
 2116SOL    HW2 8535   3.107   4.012   3.616  0.0477 -1.6248  0.3344
 2116SOL    HW3 8536   3.128   4.089   3.488 -0.0087  0.7789  1.7329
 2116SOL    MW4 8537   3.099   4.019   3.530 -0.0825  0.0296  0.4613
 2117SOL     OW 8538   3.162   4.259   3.419 -0.5922  0.3035 -0.0371
 2117SOL    HW2 8539   3.224   4.322   3.459 -1.6000  1.3771 -0.1326
 2117SOL    HW3 8540   3.077   4.283   3.456 -0.8297 -1.7936  0.8514
 2117SOL    MW4 8541   3.159   4.271   3.429 -0.7567  0.1683  0.0677
 2118SOL     OW 8542   3.372   4.394   3.524 -0.1992 -0.1287  0.0972
 2118SOL    HW2 8543   3.355   4.397   3.619  0.4305  0.3926  0.2007
 2118SOL    HW3 8544   3.378   4.486   3.498  0.5420 -0.2782 -0.2778
 2118SOL    MW4 8545   3.370   4.407   3.533 -0.0184 -0.0792  0.0610
 2119SOL     OW 8546   3.863   4.632   3.431 -0.3973 -0.5748  0.6510
 2119SOL    HW2 8547   3.778   4.666   3.461 -0.1097  1.4624 -0.7038
 2119SOL    HW3 8548   3.857   4.635   3.336  2.3042  2.6434  0.4840
 2119SOL    MW4 8549   3.851   4.637   3.422 -0.0029  0.1187  0.4501
 2120SOL     OW 8550   3.615   0.087   3.507  0.3819 -0.2552 -0.2547
 2120SOL    HW2 8551   3.621   0.181   3.488  1.0673  0.0550  1.3792
 2120SOL    HW3 8552   3.526   0.063   3.484  0.4941  0.5692 -1.6356
 2120SOL    MW4 8553   3.604   0.097   3.502  0.4876 -0.1055 -0.2213
 2121SOL     OW 8554   3.591   0.355   3.431 -0.3615 -0.5593  0.5228
 2121SOL    HW2 8555   3.665   0.398   3.474 -0.2157 -1.7455  1.4941
 2121SOL    HW3 8556   3.513   0.399   3.466 -0.2196 -1.1883  1.6330
 2121SOL    MW4 8557   3.590   0.367   3.441 -0.3235 -0.7989  0.7975
 2122SOL     OW 8558   3.805   0.489   3.560  0.6648  0.3469  0.2635
 2122SOL    HW2 8559   3.812   0.480   3.655  0.2850  0.3614  0.2923
 2122SOL    HW3 8560   3.887   0.453   3.526 -0.4444 -2.4443  0.4188
 2122SOL    MW4 8561   3.817   0.483   3.568  0.4685 -0.0194  0.2878
 2123SOL     OW 8562   3.808   0.754   3.465  0.3035  0.6701 -0.0258
 2123SOL    HW2 8563   3.889   0.801   3.490  0.7595 -0.7942  1.3364
 2123SOL    HW3 8564   3.821   0.666   3.499 -0.6451 -0.4013 -2.3949
 2123SOL    MW4 8565   3.821   0.749   3.473  0.2387  0.3356 -0.1583
 2124SOL     OW 8566   3.568   0.877   3.537 -0.2486 -0.4177  0.1514
 2124SOL    HW2 8567   3.561   0.881   3.633 -0.5890 -1.0086  0.1580
 2124SOL    HW3 8568   3.646   0.823   3.521  0.0959  0.0941  0.0918
 2124SOL    MW4 8569   3.577   0.870   3.548 -0.2482 -0.4281  0.1445
 2125SOL     OW 8570   3.609   1.133   3.423 -0.3836  0.3067  0.0923
 2125SOL    HW2 8571   3.602   1.046   3.462 -1.7945  0.6739  0.6903
 2125SOL    HW3 8572   3.606   1.117   3.328 -0.7009 -0.2835  0.1995
 2125SOL    MW4 8573   3.608   1.119   3.415 -0.6118  0.2773  0.1853
 2126SOL     OW 8574   3.821   1.290   3.525  0.3131 -0.2551 -0.4808
 2126SOL    HW2 8575   3.814   1.279   3.620  0.2726  0.3064 -0.4127
 2126SOL    HW3 8576   3.751   1.235   3.489 -1.1415  1.2633 -0.0625
 2126SOL    MW4 8577   3.811   1.282   3.533  0.1159  0.0191 -0.4168
 2127SOL     OW 8578   3.831   1.499   3.351 -0.1913  0.2869  0.3283
 2127SOL    HW2 8579   3.892   1.561   3.389  0.9869  0.2643 -1.4667
 2127SOL    HW3 8580   3.838   1.421   3.406  0.6813  0.6267  0.7050
 2127SOL    MW4 8581   3.840   1.496   3.363  0.0794  0.3289  0.1407
 2128SOL     OW 8582   3.594   1.616   3.471 -0.1432 -0.0846 -0.6608
 2128SOL    HW2 8583   3.611   1.707   3.448  0.2481  0.0731  0.2044
 2128SOL    HW3 8584   3.671   1.569   3.441 -0.1437 -0.0611 -0.6997
 2128SOL    MW4 8585   3.606   1.622   3.464 -0.0918 -0.0607 -0.5517
 2129SOL     OW 8586   3.585   1.886   3.398 -0.4775 -0.1210  0.1932
 2129SOL    HW2 8587   3.657   1.938   3.433 -0.6304 -0.1789  0.6051
 2129SOL    HW3 8588   3.506   1.932   3.426 -0.6080 -0.3790  0.2518
 2129SOL    MW4 8589   3.584   1.899   3.406 -0.5147 -0.1627  0.2553
 2130SOL     OW 8590   3.807   2.014   3.498 -0.1434  0.7100 -0.1381
 2130SOL    HW2 8591   3.800   2.024   3.593 -0.6881 -1.7023  0.1136
 2130SOL    HW3 8592   3.899   1.991   3.483  0.0672  1.6208 -0.2546
 2130SOL    MW4 8593   3.818   2.012   3.508 -0.1879  0.5119 -0.1202
 2131SOL     OW 8594   3.776   2.263   3.364  0.0454  0.1663  0.4052
 2131SOL    HW2 8595   3.841   2.311   3.415  0.8316  0.0890 -0.5124
 2131SOL    HW3 8596   3.776   2.175   3.402 -1.2439  0.8144  1.9512
 2131SOL    MW4 8597   3.785   2.258   3.376 -0.0210  0.2418  0.4880
 2132SOL     OW 8598   3.567   2.384   3.485 -0.3457 -0.2674 -0.5073
 2132SOL    HW2 8599   3.574   2.478   3.467 -1.0622 -0.3268 -1.1114
 2132SOL    HW3 8600   3.639   2.345   3.435 -0.3298 -0.0873 -0.6243
 2132SOL    MW4 8601   3.578   2.391   3.476 -0.4377 -0.2515 -0.6027
 2133SOL     OW 8602   3.596   2.644   3.411 -0.5274  0.2460 -0.3095
 2133SOL    HW2 8603   3.678   2.689   3.432 -1.3643  1.3454  0.7101
 2133SOL    HW3 8604   3.594   2.641   3.315  0.6986  0.2106 -0.3389
 2133SOL    MW4 8605   3.606   2.650   3.401 -0.4759  0.3862 -0.1788
 2134SOL     OW 8606   3.818   2.810   3.499  0.0145 -0.1447  0.1193
 2134SOL    HW2 8607   3.789   2.818   3.590 -1.2323 -1.7965 -0.1230
 2134SOL    HW3 8608   3.836   2.900   3.472 -1.0497  0.5067  1.5339
 2134SOL    MW4 8609   3.816   2.823   3.508 -0.2904 -0.2766  0.2742
 2135SOL     OW 8610   3.842   3.107   3.429  0.5618  0.4726  0.4511
 2135SOL    HW2 8611   3.918   3.159   3.454  1.2009 -0.4063  0.3542
 2135SOL    HW3 8612   3.836   3.118   3.334  0.3551  0.8231  0.5033
 2135SOL    MW4 8613   3.851   3.115   3.420  0.6187  0.4029  0.4451
 2136SOL     OW 8614   3.603   3.220   3.510 -0.2662 -0.2887 -0.1999
 2136SOL    HW2 8615   3.606   3.312   3.484  0.2246 -0.1738  0.2693
 2136SOL    HW3 8616   3.690   3.186   3.491 -0.8145 -0.9755 -1.5180
 2136SOL    MW4 8617   3.615   3.228   3.504 -0.2739 -0.3643 -0.3119
 2137SOL     OW 8618   3.589   3.488   3.431  0.5753  0.5604 -0.0094
 2137SOL    HW2 8619   3.511   3.532   3.465 -0.1596 -0.2609 -0.6101
 2137SOL    HW3 8620   3.589   3.507   3.337  0.3134 -0.6180 -0.2567
 2137SOL    MW4 8621   3.579   3.497   3.423  0.4437  0.2964 -0.1211
 2138SOL     OW 8622   3.829   3.628   3.500 -0.2319  0.4056 -0.0096
 2138SOL    HW2 8623   3.828   3.609   3.594 -0.9038  0.0321 -0.0897
 2138SOL    HW3 8624   3.751   3.586   3.466  0.4040 -0.1099 -0.8694
 2138SOL    MW4 8625   3.819   3.620   3.508 -0.2367  0.2882 -0.1335
 2139SOL     OW 8626   3.792   3.877   3.410 -0.4835  0.4314  0.0291
 2139SOL    HW2 8627   3.714   3.916   3.451 -1.2633 -0.3834 -0.6615
 2139SOL    HW3 8628   3.793   3.787   3.441 -1.2186 -0.2638 -1.9010
 2139SOL    MW4 8629   3.782   3.871   3.420 -0.6833  0.2320 -0.3166
 2140SOL     OW 8630   3.553   3.974   3.517 -0.3981  0.0566 -0.4096
 2140SOL    HW2 8631   3.563   3.989   3.611 -0.1590  1.6282 -0.6635
 2140SOL    HW3 8632   3.580   4.057   3.477 -0.3170 -0.6604 -1.8721
 2140SOL    MW4 8633   3.558   3.987   3.524 -0.3557  0.1693 -0.6361
 2141SOL     OW 8634   3.594   4.255   3.430 -0.5616 -0.0834  0.5717
 2141SOL    HW2 8635   3.516   4.299   3.465 -1.4343 -1.0815 -0.1091
 2141SOL    HW3 8636   3.596   4.281   3.338  0.7777  1.1630  0.9286
 2141SOL    MW4 8637   3.584   4.264   3.422 -0.5002 -0.0501  0.5291
 2142SOL     OW 8638   3.849   4.364   3.523 -0.8622  0.0643  0.1509
 2142SOL    HW2 8639   3.766   4.327   3.490 -1.0342  0.9540 -0.4234
 2142SOL    HW3 8640   3.840   4.458   3.510 -0.1601  0.2613  1.0306
 2142SOL    MW4 8641   3.837   4.371   3.517 -0.7923  0.2079  0.1912
 2143SOL     OW 8642   4.307   0.011   3.387  0.6169 -0.3289  0.3090
 2143SOL    HW2 8643   4.294  -0.080   3.414 -1.2063  0.0339  0.7166
 2143SOL    HW3 8644   4.375   0.044   3.446 -0.5432 -0.6858  1.8920
 2143SOL    MW4 8645   4.314   0.004   3.398  0.2236 -0.3281  0.5717
 2144SOL     OW 8646   4.092   0.133   3.509 -0.0481 -0.2532  0.1822
 2144SOL    HW2 8647   4.169   0.090   3.474 -0.5094 -1.7256  0.8966
 2144SOL    HW3 8648   4.021   0.070   3.495 -0.5117 -0.2815  2.3670
 2144SOL    MW4 8649   4.092   0.119   3.503 -0.1702 -0.4512  0.5651
 2145SOL     OW 8650   4.034   0.388   3.445 -0.2507  0.1264 -0.4682
 2145SOL    HW2 8651   4.041   0.295   3.468  0.9300  0.3494  0.0825
 2145SOL    HW3 8652   4.029   0.389   3.350  0.0408 -0.4860 -0.4918
 2145SOL    MW4 8653   4.034   0.376   3.436 -0.0567  0.0750 -0.3986
 2146SOL     OW 8654   4.260   0.518   3.501  0.0519 -0.0612 -0.8116
 2146SOL    HW2 8655   4.249   0.613   3.506 -0.4210 -0.1322 -0.5096
 2146SOL    HW3 8656   4.173   0.484   3.482  0.2180 -0.4365 -0.9111
 2146SOL    MW4 8657   4.247   0.526   3.499  0.0114 -0.1201 -0.7849
 2147SOL     OW 8658   4.277   0.795   3.425  0.4602  0.0623  0.7717
 2147SOL    HW2 8659   4.352   0.845   3.456  0.6492 -0.2695  0.8455
 2147SOL    HW3 8660   4.281   0.803   3.329  0.1612  0.6669  0.8053
 2147SOL    MW4 8661   4.287   0.803   3.416  0.4454  0.0983  0.7858
 2148SOL     OW 8662   4.043   0.904   3.536  0.0618 -0.5769 -0.7329
 2148SOL    HW2 8663   4.038   0.994   3.504 -0.3742  0.0412  1.0294
 2148SOL    HW3 8664   4.124   0.870   3.498  0.3253  0.6062 -1.2690
 2148SOL    MW4 8665   4.053   0.911   3.526  0.0391 -0.3392 -0.5713
 2149SOL     OW 8666   4.055   1.154   3.428  0.0210  0.2104 -0.3177
 2149SOL    HW2 8667   4.129   1.201   3.468 -0.8593  2.3988 -1.2194
 2149SOL    HW3 8668   3.979   1.208   3.448 -1.1886 -1.4499 -0.3917
 2149SOL    MW4 8669   4.055   1.167   3.436 -0.2542  0.2800 -0.4466
 2150SOL     OW 8670   4.260   1.295   3.531 -0.4204 -0.1920 -0.1220
 2150SOL    HW2 8671   4.283   1.383   3.501 -0.1972 -0.3843 -0.5209
 2150SOL    HW3 8672   4.327   1.238   3.492 -1.2047 -0.6845 -0.7666
 2150SOL    MW4 8673   4.272   1.299   3.522 -0.4940 -0.2823 -0.2596
 2151SOL     OW 8674   4.278   1.557   3.431 -0.3729  0.4002  0.1113
 2151SOL    HW2 8675   4.196   1.578   3.475  0.1305  0.6354  0.9448
 2151SOL    HW3 8676   4.255   1.556   3.338 -1.6994 -1.2801  0.4292
 2151SOL    MW4 8677   4.264   1.560   3.424 -0.4811  0.2095  0.2632
 2152SOL     OW 8678   4.023   1.648   3.497  0.3586  0.0838 -0.0625
 2152SOL    HW2 8679   4.014   1.651   3.592 -0.3860  0.3690 -0.1390
 2152SOL    HW3 8680   4.032   1.740   3.471 -1.1360  0.1475 -0.4160
 2152SOL    MW4 8681   4.023   1.661   3.506  0.0639  0.1298 -0.1192
 2153SOL     OW 8682   4.060   1.905   3.417  0.0936 -0.0688 -0.0509
 2153SOL    HW2 8683   4.142   1.954   3.427 -0.6155  1.1628 -0.2053
 2153SOL    HW3 8684   4.047   1.900   3.322  0.2563 -0.7229 -0.0421
 2153SOL    MW4 8685   4.069   1.911   3.406  0.0210  0.0073 -0.0699
 2154SOL     OW 8686   4.285   2.090   3.494  0.1399  0.6763  0.1826
 2154SOL    HW2 8687   4.297   2.181   3.466  1.8166  0.1469 -0.9310
 2154SOL    HW3 8688   4.363   2.045   3.461 -1.8038 -1.6591 -1.3328
 2154SOL    MW4 8689   4.297   2.096   3.486  0.1049  0.2983 -0.1643
 2155SOL     OW 8690   4.235   2.344   3.373 -0.1852 -0.1479 -0.8621
 2155SOL    HW2 8691   4.146   2.361   3.404 -0.3237 -1.9478 -0.2087
 2155SOL    HW3 8692   4.224   2.324   3.280 -0.4833 -0.4635 -0.7623
 2155SOL    MW4 8693   4.222   2.343   3.364 -0.2432 -0.4270 -0.7629
 2156SOL     OW 8694   3.998   2.411   3.486 -0.0845  0.2060 -0.5764
 2156SOL    HW2 8695   4.010   2.420   3.581 -1.9264 -1.4279 -0.1435
 2156SOL    HW3 8696   3.993   2.501   3.454 -1.0183  0.7901  1.1202
 2156SOL    MW4 8697   3.999   2.424   3.495 -0.4511  0.0675 -0.2956
 2157SOL     OW 8698   4.020   2.675   3.400  0.2181  0.0189  0.1116
 2157SOL    HW2 8699   4.100   2.706   3.442  0.3201  0.5971 -0.4851
 2157SOL    HW3 8700   3.949   2.722   3.444  0.3658  1.0363 -0.7224
 2157SOL    MW4 8701   4.021   2.685   3.411  0.2513  0.2294 -0.0770
 2158SOL     OW 8702   4.252   2.782   3.505  0.0322  0.3621  0.4252
 2158SOL    HW2 8703   4.262   2.791   3.599  1.7738  0.2326  0.2529
 2158SOL    HW3 8704   4.336   2.751   3.473 -0.7375 -0.2523 -1.1027
 2158SOL    MW4 8705   4.264   2.779   3.513  0.1602  0.2642  0.2012
 2159SOL     OW 8706   4.260   3.029   3.365 -0.0092  0.2859 -0.2148
 2159SOL    HW2 8707   4.252   2.947   3.414  0.2988 -0.4819 -1.4120
 2159SOL    HW3 8708   4.340   3.070   3.397 -0.5754  0.4924  0.9363
 2159SOL    MW4 8709   4.269   3.023   3.376 -0.0439  0.2122 -0.2205
 2160SOL     OW 8710   4.101   3.205   3.523 -0.5783  0.0344 -0.0656
 2160SOL    HW2 8711   4.085   3.291   3.483 -0.3743  0.4092  0.6454
 2160SOL    HW3 8712   4.162   3.161   3.463 -1.0143  0.2246 -0.6466
 2160SOL    MW4 8713   4.107   3.211   3.510 -0.6089  0.1092 -0.0484
 2161SOL     OW 8714   4.030   3.446   3.406 -0.7938 -1.1258 -0.2011
 2161SOL    HW2 8715   4.110   3.492   3.433 -0.5475 -1.1133 -0.9235
 2161SOL    HW3 8716   3.958   3.499   3.440 -0.4885 -1.4817  1.0170
 2161SOL    MW4 8717   4.031   3.459   3.414 -0.7215 -1.1714 -0.1357
 2162SOL     OW 8718   4.272   3.564   3.490  0.1523  0.4237 -0.0681
 2162SOL    HW2 8719   4.260   3.567   3.584  1.0387  1.2262  0.0194
 2162SOL    HW3 8720   4.281   3.656   3.463  2.5456  0.0729 -0.5773
 2162SOL    MW4 8721   4.271   3.577   3.499  0.5851  0.4833 -0.1235
 2163SOL     OW 8722   4.301   3.813   3.386  0.0094  0.5611  0.4728
 2163SOL    HW2 8723   4.357   3.883   3.421 -0.4728  1.1700  0.0560
 2163SOL    HW3 8724   4.309   3.822   3.291  0.3646 -0.3003  0.4216
 2163SOL    MW4 8725   4.310   3.824   3.378 -0.0076  0.5279  0.4108
 2164SOL     OW 8726   4.058   3.976   3.447 -0.1084  0.2070 -0.3101
 2164SOL    HW2 8727   4.106   3.896   3.430 -0.3157  0.0021  0.0383
 2164SOL    HW3 8728   3.966   3.952   3.435 -0.2212  0.1938  0.5262
 2164SOL    MW4 8729   4.052   3.963   3.443 -0.1512  0.1779 -0.1540
 2165SOL     OW 8730   4.074   4.251   3.401 -0.6219  0.0263  0.6950
 2165SOL    HW2 8731   4.081   4.162   3.434 -0.6461 -0.4648 -0.5808
 2165SOL    HW3 8732   3.994   4.286   3.441 -0.2589 -0.2990  1.7081
 2165SOL    MW4 8733   4.064   4.244   3.410 -0.5770 -0.0811  0.6604
 2166SOL     OW 8734   4.278   4.412   3.480 -0.2581 -0.1540  0.3414
 2166SOL    HW2 8735   4.256   4.411   3.574 -1.6596  1.6481  0.0712
 2166SOL    HW3 8736   4.211   4.358   3.439 -0.1357 -0.2670  0.2894
 2166SOL    MW4 8737   4.266   4.405   3.487 -0.4268  0.0682  0.2990
 2167SOL     OW 8738   0.203   4.647   3.924  0.2476  0.6245  0.2884
 2167SOL    HW2 8739   0.214   4.663   4.018 -0.2156  0.4105  0.3794
 2167SOL    HW3 8740   0.125   4.698   3.900  1.0878  1.6799 -0.2338
 2167SOL    MW4 8741   0.194   4.656   3.933  0.2974  0.7353  0.2317
 2168SOL     OW 8742   4.474   0.130   3.825 -0.4534 -0.0925 -0.2372
 2168SOL    HW2 8743   4.467   0.222   3.851 -0.9025 -0.2385  0.1792
 2168SOL    HW3 8744   4.475   0.131   3.730  0.4637  0.4081 -0.2272
 2168SOL    MW4 8745   4.473   0.142   3.816 -0.3916 -0.0457 -0.1807
 2169SOL     OW 8746   4.480   0.392   3.887  0.1490 -0.1006 -0.1554
 2169SOL    HW2 8747   4.403   0.440   3.859  1.2567  0.8356 -1.7145
 2169SOL    HW3 8748   4.554   0.442   3.850  1.5490 -0.3079  2.2683
 2169SOL    MW4 8749   4.480   0.405   3.878  0.4798 -0.0045 -0.0410
 2170SOL     OW 8750   0.210   0.524   3.802 -0.1648  0.0983 -0.2052
 2170SOL    HW2 8751   0.230   0.617   3.818  0.0348  0.1395 -0.6552
 2170SOL    HW3 8752   0.233   0.511   3.710  0.5002 -0.5836  0.0505
 2170SOL    MW4 8753   0.216   0.535   3.792 -0.0507  0.0137 -0.2306
 2171SOL     OW 8754   0.237   0.788   3.889  0.0693  0.0755 -0.2076
 2171SOL    HW2 8755   0.247   0.784   3.984  1.1286  1.1655 -0.2600
 2171SOL    HW3 8756   0.165   0.850   3.875  0.5278  0.6334 -0.1316
 2171SOL    MW4 8757   0.228   0.796   3.900  0.2696  0.2929 -0.2046
 2172SOL     OW 8758   0.033   0.936   3.767 -0.1129  0.0206 -0.1214
 2172SOL    HW2 8759  -0.043   0.878   3.773 -0.1922  0.1427  0.0757
 2172SOL    HW3 8760   0.007   1.014   3.817 -0.1585  0.3911 -0.7252
 2172SOL    MW4 8761   0.019   0.939   3.775 -0.1294  0.0855 -0.1750
 2173SOL     OW 8762   0.005   1.152   3.915 -0.3744 -0.1051  0.2928
 2173SOL    HW2 8763  -0.069   1.197   3.875 -0.9178 -0.6661  0.6692
 2173SOL    HW3 8764   0.081   1.183   3.865 -0.8487  0.5091 -0.0582
 2173SOL    MW4 8765   0.005   1.162   3.903 -0.5087 -0.0980  0.2961
 2174SOL     OW 8766   0.243   1.251   3.807 -0.2024 -0.1446 -0.5198
 2174SOL    HW2 8767   0.238   1.346   3.821  0.3006 -0.0697 -0.8250
 2174SOL    HW3 8768   0.233   1.241   3.712 -0.3523 -0.4020 -0.4751
 2174SOL    MW4 8769   0.241   1.263   3.796 -0.1559 -0.1687 -0.5541
 2175SOL     OW 8770   0.225   1.543   3.875  0.1027  0.4094  0.2476
 2175SOL    HW2 8771   0.220   1.538   3.970  1.4575  0.6590  0.3399
 2175SOL    HW3 8772   0.137   1.568   3.848 -0.5024 -0.4524  1.3779
 2175SOL    MW4 8773   0.213   1.545   3.884  0.2016  0.3289  0.4089
 2176SOL     OW 8774   4.489   1.651   3.774 -0.3129  0.6915  0.0286
 2176SOL    HW2 8775   4.504   1.743   3.793  0.8152  0.5794 -0.2818
 2176SOL    HW3 8776   4.520   1.639   3.684  0.0895 -0.1068  0.2629
 2176SOL    MW4 8777   4.495   1.661   3.765 -0.1106  0.5715  0.0191
 2177SOL     OW 8778   0.040   1.921   3.873 -0.2097  0.4375 -0.2502
 2177SOL    HW2 8779   0.046   1.958   3.961 -0.4264  2.9928 -1.2714
 2177SOL    HW3 8780  -0.031   1.969   3.831 -1.4421 -2.1169 -1.2166
 2177SOL    MW4 8781   0.032   1.932   3.879 -0.4008  0.4377 -0.5126
 2178SOL     OW 8782   0.263   2.052   3.776  0.3858  0.2990  0.4225
 2178SOL    HW2 8783   0.235   2.142   3.794  1.4080  0.3483  1.8361
 2178SOL    HW3 8784   0.189   1.998   3.803 -0.4097  0.7209 -0.8442
 2178SOL    MW4 8785   0.249   2.057   3.782  0.4157  0.3614  0.4416
 2179SOL     OW 8786   0.206   2.315   3.828  0.8255 -0.1065 -0.1126
 2179SOL    HW2 8787   0.186   2.332   3.920 -2.4588 -0.8400 -0.6312
 2179SOL    HW3 8788   0.154   2.380   3.780  0.4228 -1.4502 -1.5139
 2179SOL    MW4 8789   0.196   2.326   3.834  0.3391 -0.3803 -0.3660
 2180SOL     OW 8790   0.008   2.502   3.759 -0.2889  0.4317  0.1379
 2180SOL    HW2 8791  -0.076   2.471   3.795 -0.7762  1.5575 -0.0034
 2180SOL    HW3 8792   0.020   2.588   3.799  1.1303 -0.0034  0.6586
 2180SOL    MW4 8793  -0.002   2.509   3.769 -0.1664  0.5226  0.1879
 2181SOL     OW 8794   4.469   2.733   3.935  0.6402 -0.4945  0.5508
 2181SOL    HW2 8795   4.489   2.730   4.029 -0.3088 -0.8862  0.7519
 2181SOL    HW3 8796   4.547   2.769   3.895  0.3165  1.6520  1.7283
 2181SOL    MW4 8797   4.482   2.737   3.942  0.4725 -0.2630  0.7324
 2182SOL     OW 8798   0.213   2.802   3.812  0.0028  0.2124 -0.0103
 2182SOL    HW2 8799   0.285   2.751   3.849  0.8752  1.3129 -0.1401
 2182SOL    HW3 8800   0.219   2.788   3.718 -0.7503 -0.7074  0.0731
 2182SOL    MW4 8801   0.223   2.794   3.805  0.0185  0.2363 -0.0165
 2183SOL     OW 8802   0.261   3.061   3.881  0.2352  0.1221 -0.1353
 2183SOL    HW2 8803   0.253   3.062   3.976 -0.2409  1.5343 -0.1664
 2183SOL    HW3 8804   0.253   2.969   3.856 -1.2096 -0.0864  1.0567
 2183SOL    MW4 8805   0.259   3.049   3.890 -0.0182  0.2811  0.0176
 2184SOL     OW 8806   0.022   3.193   3.750 -0.0574  0.1168  0.3279
 2184SOL    HW2 8807   0.006   3.280   3.787 -0.4726 -0.5253  1.6663
 2184SOL    HW3 8808   0.098   3.160   3.797 -1.4922 -1.3129  1.7061
 2184SOL    MW4 8809   0.030   3.200   3.761 -0.3015 -0.1566  0.6864
 2185SOL     OW 8810   4.482   3.466   3.831 -0.6204  0.4327  0.4289
 2185SOL    HW2 8811   4.563   3.504   3.797 -0.5240 -0.2836 -0.1685
 2185SOL    HW3 8812   4.492   3.467   3.926  1.1690 -1.9527  0.2997
 2185SOL    MW4 8813   4.494   3.471   3.839 -0.3716  0.0234  0.3328
 2186SOL     OW 8814   0.224   3.620   3.749 -0.1558 -0.0974  0.2308
 2186SOL    HW2 8815   0.290   3.582   3.807 -0.3760 -0.8568 -0.0062
 2186SOL    HW3 8816   0.202   3.704   3.790 -0.0732 -0.4813  1.0772
 2186SOL    MW4 8817   0.229   3.626   3.762 -0.1739 -0.2482  0.3114
 2187SOL     OW 8818   0.184   3.850   3.871 -0.2557  0.2819 -0.6993
 2187SOL    HW2 8819   0.187   3.852   3.967  0.6440 -2.2764 -0.6467
 2187SOL    HW3 8820   0.269   3.885   3.844 -0.0849 -0.0176 -0.5508
 2187SOL    MW4 8821   0.195   3.855   3.880 -0.1144 -0.0949 -0.6731
 2188SOL     OW 8822   4.448   3.992   3.813 -0.3097 -0.0680  0.8281
 2188SOL    HW2 8823   4.379   3.935   3.846 -0.3527 -0.8807 -0.6038
 2188SOL    HW3 8824   4.529   3.952   3.843 -0.3736 -0.4041  0.5513
 2188SOL    MW4 8825   4.449   3.979   3.821 -0.3242 -0.2196  0.6025
 2189SOL     OW 8826   4.467   4.261   3.844 -0.0422 -0.5053 -0.4694
 2189SOL    HW2 8827   4.557   4.291   3.832 -0.1520 -0.8974 -2.3949
 2189SOL    HW3 8828   4.473   4.165   3.841 -0.6551 -0.5095 -1.6601
 2189SOL    MW4 8829   4.480   4.252   3.842 -0.1378 -0.5579 -0.8805
 2190SOL     OW 8830   0.220   4.389   3.807  0.0819  0.1221  0.2333
 2190SOL    HW2 8831   0.278   4.325   3.848 -0.7258 -0.0846  1.0676
 2190SOL    HW3 8832   0.229   4.468   3.861  0.5318  0.4881 -0.3715
 2190SOL    MW4 8833   0.228   4.391   3.819  0.0347  0.1435  0.2637
 2191SOL     OW 8834   0.672   4.590   3.946 -0.0528 -0.0514  0.0480
 2191SOL    HW2 8835   0.647   4.498   3.931  0.9308 -0.1035 -1.3717
 2191SOL    HW3 8836   0.594   4.640   3.922 -0.1510 -0.4433 -0.4582
 2191SOL    MW4 8837   0.659   4.584   3.941  0.0640 -0.1101 -0.2062
 2192SOL     OW 8838   0.458   0.068   3.824 -0.1548 -0.0577  0.0262
 2192SOL    HW2 8839   0.448   0.158   3.853 -0.6920 -0.2106  0.3303
 2192SOL    HW3 8840   0.381   0.023   3.860  0.2669 -0.6966  0.1328
 2192SOL    MW4 8841   0.446   0.074   3.833 -0.1700 -0.1622  0.0806
 2193SOL     OW 8842   0.437   0.358   3.860 -0.5565  0.5386  0.2016
 2193SOL    HW2 8843   0.507   0.396   3.807 -0.0473 -2.8661 -1.6991
 2193SOL    HW3 8844   0.359   0.407   3.834  0.4524  1.9059 -0.3484
 2193SOL    MW4 8845   0.436   0.370   3.850 -0.3562  0.2698 -0.1221
 2194SOL     OW 8846   0.676   0.494   3.758 -0.5026  0.3661 -0.4227
 2194SOL    HW2 8847   0.746   0.437   3.790 -0.7607  0.1331 -0.2792
 2194SOL    HW3 8848   0.682   0.572   3.812  0.6056  0.9638 -1.3826
 2194SOL    MW4 8849   0.686   0.497   3.769 -0.3905  0.4142 -0.5307
 2195SOL     OW 8850   0.710   0.757   3.891 -0.4564  0.1100 -0.3073
 2195SOL    HW2 8851   0.776   0.790   3.830 -0.0618 -2.0881 -1.1234
 2195SOL    HW3 8852   0.634   0.814   3.877  0.8052  1.7927 -0.3389
 2195SOL    MW4 8853   0.708   0.769   3.881 -0.2379  0.0420 -0.4191
 2196SOL     OW 8854   0.475   0.880   3.781 -0.1124  0.0827 -0.3260
 2196SOL    HW2 8855   0.480   0.969   3.817 -0.4013 -0.7128  1.7521
 2196SOL    HW3 8856   0.401   0.840   3.826  2.3870 -2.4715  1.7305
 2196SOL    MW4 8857   0.466   0.887   3.792  0.1792 -0.3592  0.2193
 2197SOL     OW 8858   0.460   1.121   3.917  0.3868  0.4532  0.2246
 2197SOL    HW2 8859   0.529   1.185   3.900 -0.8384  2.0988  1.2507
 2197SOL    HW3 8860   0.379   1.164   3.888 -0.6622  0.0375  2.3682
 2197SOL    MW4 8861   0.458   1.135   3.911  0.0867  0.6155  0.6425
 2198SOL     OW 8862   0.675   1.285   3.805  0.4554  0.6854  0.7523
 2198SOL    HW2 8863   0.760   1.246   3.825 -0.0668 -0.7949  0.2341
 2198SOL    HW3 8864   0.673   1.289   3.709  0.1986  1.3188  0.7809
 2198SOL    MW4 8865   0.686   1.280   3.795  0.3527  0.5736  0.6876
 2199SOL     OW 8866   0.638   1.548   3.864  0.4717 -0.4476  0.1064
 2199SOL    HW2 8867   0.727   1.582   3.855  0.4285 -0.5195 -0.6163
 2199SOL    HW3 8868   0.646   1.454   3.852  0.0310 -0.2403 -1.9524
 2199SOL    MW4 8869   0.651   1.540   3.862  0.4079 -0.4296 -0.2604
 2200SOL     OW 8870   0.413   1.719   3.780 -0.1133 -0.4065 -0.3979
 2200SOL    HW2 8871   0.487   1.665   3.810 -0.1939 -1.5400 -2.1886
 2200SOL    HW3 8872   0.336   1.677   3.819  0.0567  0.0171  0.4124
 2200SOL    MW4 8873   0.413   1.706   3.789 -0.1015 -0.5003 -0.5274
 2201SOL     OW 8874   0.445   1.930   3.939 -0.3436  0.2619 -0.4663
 2201SOL    HW2 8875   0.439   1.839   3.909  1.3341  0.3780 -1.2458
 2201SOL    HW3 8876   0.379   1.977   3.889 -0.8700 -0.4311 -0.4320
 2201SOL    MW4 8877   0.436   1.924   3.928 -0.1917  0.1858 -0.5648
 2202SOL     OW 8878   0.644   2.066   3.774 -0.1827  0.1496  0.1071
 2202SOL    HW2 8879   0.674   2.143   3.821  0.5727  0.6377 -1.1441
 2202SOL    HW3 8880   0.571   2.032   3.826 -0.8804  2.0177  0.3837
 2202SOL    MW4 8881   0.638   2.071   3.787 -0.1751  0.4604 -0.0212
 2203SOL     OW 8882   0.698   2.308   3.901  0.1001 -0.4269  0.1813
 2203SOL    HW2 8883   0.764   2.345   3.843 -0.7677 -1.3920 -1.4663
 2203SOL    HW3 8884   0.617   2.352   3.876  0.0022  0.3484  1.8143
 2203SOL    MW4 8885   0.696   2.318   3.890 -0.0274 -0.4520  0.1793
 2204SOL     OW 8886   0.454   2.431   3.788 -0.4877 -0.3889  0.5911
 2204SOL    HW2 8887   0.378   2.380   3.816 -2.8396  1.4932 -2.0470
 2204SOL    HW3 8888   0.462   2.414   3.695  0.4872  1.7426  0.2440
 2204SOL    MW4 8889   0.445   2.422   3.780 -0.6694  0.1407  0.1969
 2205SOL     OW 8890   0.439   2.677   3.884 -0.0440 -0.0761  0.1338
 2205SOL    HW2 8891   0.519   2.704   3.839  0.9470  0.3313  2.0707
 2205SOL    HW3 8892   0.436   2.582   3.873  2.4986 -0.5376  2.7794
 2205SOL    MW4 8893   0.449   2.668   3.877  0.4222 -0.0832  0.7384
 2206SOL     OW 8894   0.661   2.803   3.761 -0.1207  0.3886 -0.0959
 2206SOL    HW2 8895   0.736   2.757   3.799  0.5706  1.3403 -0.3147
 2206SOL    HW3 8896   0.687   2.822   3.671 -0.5005  1.0108 -0.0772
 2206SOL    MW4 8897   0.674   2.799   3.754 -0.0796  0.5960 -0.1225
 2207SOL     OW 8898   0.678   3.059   3.863 -0.0747 -0.1221 -0.4283
 2207SOL    HW2 8899   0.650   3.062   3.955 -1.7703  0.3555 -0.9373
 2207SOL    HW3 8900   0.671   2.967   3.838 -1.4101  0.0210 -0.6049
 2207SOL    MW4 8901   0.673   3.048   3.872 -0.4746 -0.0403 -0.5188
 2208SOL     OW 8902   0.457   3.220   3.805 -0.3173  0.0955  0.4250
 2208SOL    HW2 8903   0.533   3.162   3.813  0.0076  0.0519 -2.5168
 2208SOL    HW3 8904   0.382   3.163   3.821  0.0887 -0.7690 -0.6781
 2208SOL    MW4 8905   0.457   3.204   3.809 -0.2208 -0.0243 -0.1085
 2209SOL     OW 8906   0.423   3.483   3.892  0.3859 -0.1903 -0.0136
 2209SOL    HW2 8907   0.509   3.518   3.868  0.3494  0.2629  0.5159
 2209SOL    HW3 8908   0.423   3.394   3.857 -0.1237  0.8207 -2.7554
 2209SOL    MW4 8909   0.434   3.476   3.884  0.3138  0.0031 -0.3054
 2210SOL     OW 8910   0.674   3.605   3.826  0.1290 -0.3734  0.3974
 2210SOL    HW2 8911   0.684   3.699   3.835  0.2624 -0.6418  3.2897
 2210SOL    HW3 8912   0.683   3.589   3.732  0.6265  2.4129 -0.0597
 2210SOL    MW4 8913   0.676   3.615   3.815  0.2123 -0.0410  0.7188
 2211SOL     OW 8914   0.682   3.869   3.903 -0.2229 -0.4657  0.3159
 2211SOL    HW2 8915   0.686   3.886   3.997 -0.4150 -0.3666  0.3066
 2211SOL    HW3 8916   0.751   3.924   3.866 -1.1539  0.6793  0.2349
 2211SOL    MW4 8917   0.692   3.879   3.910 -0.3710 -0.3016  0.3042
 2212SOL     OW 8918   0.433   3.957   3.807 -0.3300 -0.0080  0.3221
 2212SOL    HW2 8919   0.516   3.923   3.841  1.3566  2.5983 -1.0606
 2212SOL    HW3 8920   0.447   3.966   3.713 -2.3583  0.0648 -0.0021
 2212SOL    MW4 8921   0.445   3.954   3.799 -0.3751  0.3455  0.0970
 2213SOL     OW 8922   0.396   4.213   3.917  0.1339  0.1818 -0.0831
 2213SOL    HW2 8923   0.472   4.257   3.880  0.8291 -0.2667  0.7857
 2213SOL    HW3 8924   0.402   4.122   3.885  0.5249 -0.1085  0.8038
 2213SOL    MW4 8925   0.406   4.206   3.908  0.2772  0.0844  0.1485
 2214SOL     OW 8926   0.633   4.344   3.853  0.0506  0.6327  0.4206
 2214SOL    HW2 8927   0.717   4.306   3.877  0.5537  1.2502 -0.3254
 2214SOL    HW3 8928   0.644   4.371   3.762 -1.3444 -0.3648 -0.0644
 2214SOL    MW4 8929   0.645   4.342   3.844 -0.0671  0.5822  0.2582
 2215SOL     OW 8930   1.158   4.620   3.873 -0.0162 -0.0729 -0.1156
 2215SOL    HW2 8931   1.225   4.676   3.832  0.8427 -1.1621 -0.2192
 2215SOL    HW3 8932   1.176   4.533   3.838  0.0766 -0.8311  1.7812
 2215SOL    MW4 8933   1.169   4.616   3.863  0.1093 -0.3166  0.1209
 2216SOL     OW 8934   0.910   0.054   3.803  0.3944  0.2991  0.0786
 2216SOL    HW2 8935   0.992   0.012   3.828  1.1340  0.8686 -1.2992
 2216SOL    HW3 8936   0.842   0.007   3.852  1.2650 -2.0268 -0.8706
 2216SOL    MW4 8937   0.912   0.042   3.813  0.6068  0.0673 -0.2284
 2217SOL     OW 8938   0.883   0.341   3.871 -0.3319  0.0279  0.4352
 2217SOL    HW2 8939   0.889   0.329   3.966 -0.1473 -0.7206  0.3287
 2217SOL    HW3 8940   0.883   0.253   3.835 -2.6834  0.2433 -0.1469
 2217SOL    MW4 8941   0.884   0.328   3.879 -0.6178 -0.0423  0.3443
 2218SOL     OW 8942   1.096   0.524   3.809 -0.2047  0.0704  0.1336
 2218SOL    HW2 8943   1.184   0.490   3.828 -0.1799 -0.8519 -1.5526
 2218SOL    HW3 8944   1.037   0.458   3.845 -0.2400  0.7901  1.4520
 2218SOL    MW4 8945   1.100   0.511   3.817 -0.2061  0.0436  0.0849
 2219SOL     OW 8946   1.145   0.791   3.861  0.2834  0.7002 -0.3696
 2219SOL    HW2 8947   1.132   0.813   3.953  0.7786  1.7508 -0.5529
 2219SOL    HW3 8948   1.131   0.696   3.857  1.1080  0.5145  0.9349
 2219SOL    MW4 8949   1.141   0.781   3.873  0.4575  0.8143 -0.2217
 2220SOL     OW 8950   0.904   0.902   3.753  0.0141 -0.0393  0.2733
 2220SOL    HW2 8951   0.992   0.867   3.763 -0.1288 -0.5490 -0.1966
 2220SOL    HW3 8952   0.890   0.905   3.658  0.2446  1.8741  0.2988
 2220SOL    MW4 8953   0.914   0.897   3.741  0.0256  0.1459  0.2146
 2221SOL     OW 8954   0.928   1.161   3.889  0.0062  0.1892  0.2570
 2221SOL    HW2 8955   0.920   1.166   3.984  0.0137 -0.7331  0.3158
 2221SOL    HW3 8956   0.914   1.068   3.869 -1.2790  0.5809 -0.7512
 2221SOL    MW4 8957   0.925   1.149   3.899 -0.1624  0.1192  0.1318
 2222SOL     OW 8958   1.155   1.296   3.758  0.3750 -0.1829  0.1124
 2222SOL    HW2 8959   1.134   1.379   3.800 -0.1755 -0.1421 -0.2305
 2222SOL    HW3 8960   1.085   1.237   3.784 -0.3265  0.0179 -1.2378
 2222SOL    MW4 8961   1.143   1.299   3.767  0.2098 -0.1512 -0.1111
 2223SOL     OW 8962   1.133   1.552   3.870 -0.3749  0.3123 -0.2863
 2223SOL    HW2 8963   1.145   1.543   3.964  1.6318 -2.6920 -0.7648
 2223SOL    HW3 8964   1.210   1.601   3.841 -0.0341 -0.4057 -0.6000
 2223SOL    MW4 8965   1.145   1.557   3.879 -0.0651 -0.1788 -0.3908
 2224SOL     OW 8966   0.875   1.664   3.838  0.3456  0.2011 -0.1084
 2224SOL    HW2 8967   0.960   1.629   3.865  0.6790 -0.2647 -1.7249
 2224SOL    HW3 8968   0.884   1.680   3.744 -1.5554 -0.4723 -0.4328
 2224SOL    MW4 8969   0.887   1.662   3.829  0.1387  0.0508 -0.3648
 2225SOL     OW 8970   0.861   1.928   3.855  0.1868 -0.5660 -0.4073
 2225SOL    HW2 8971   0.861   1.833   3.847 -0.7955 -0.4509 -2.0059
 2225SOL    HW3 8972   0.775   1.955   3.823  0.8402  0.9260 -0.9499
 2225SOL    MW4 8973   0.850   1.919   3.850  0.1433 -0.3539 -0.6897
 2226SOL     OW 8974   1.128   2.018   3.771 -0.1508 -0.4919  0.5454
 2226SOL    HW2 8975   1.038   1.992   3.788 -0.3898  0.0969  0.2044
 2226SOL    HW3 8976   1.135   2.020   3.675  0.2621 -0.6666  0.5690
 2226SOL    MW4 8977   1.117   2.015   3.761 -0.1279 -0.4370  0.5033
 2227SOL     OW 8978   1.107   2.288   3.852 -0.0888  0.0357 -0.4168
 2227SOL    HW2 8979   1.112   2.285   3.948 -1.5254  1.8300 -0.2621
 2227SOL    HW3 8980   1.112   2.196   3.826  1.9838 -0.3843  1.2605
 2227SOL    MW4 8981   1.108   2.275   3.862 -0.0049  0.2172 -0.1750
 2228SOL     OW 8982   0.885   2.412   3.741 -0.1755 -0.3859 -0.5306
 2228SOL    HW2 8983   0.892   2.499   3.780 -1.1023 -0.5304 -0.0127
 2228SOL    HW3 8984   0.959   2.364   3.777 -1.7136 -0.8903  2.0928
 2228SOL    MW4 8985   0.896   2.417   3.751 -0.5007 -0.4714 -0.1163
 2229SOL     OW 8986   0.910   2.669   3.855  0.2529 -0.3659 -0.0412
 2229SOL    HW2 8987   0.927   2.670   3.950 -2.1347  1.4097  0.4093
 2229SOL    HW3 8988   0.975   2.729   3.819  0.9238 -0.7507  0.4975
 2229SOL    MW4 8989   0.921   2.677   3.863  0.0264 -0.1824  0.0894
 2230SOL     OW 8990   1.114   2.838   3.771 -0.5250 -0.3517 -0.1326
 2230SOL    HW2 8991   1.198   2.799   3.796 -1.1581 -0.7971  1.3641
 2230SOL    HW3 8992   1.122   2.930   3.795 -0.6140 -0.4861  0.4302
 2230SOL    MW4 8993   1.127   2.845   3.778 -0.6201 -0.4282  0.1392
 2231SOL     OW 8994   1.125   3.093   3.869 -0.1513 -0.0373 -0.6014
 2231SOL    HW2 8995   1.202   3.133   3.828 -1.0257  2.9490  0.5831
 2231SOL    HW3 8996   1.051   3.143   3.834 -1.5495 -2.4155 -1.1710
 2231SOL    MW4 8997   1.125   3.105   3.859 -0.4512  0.0427 -0.5202
 2232SOL     OW 8998   0.886   3.236   3.805 -0.5567 -0.1403  0.2235
 2232SOL    HW2 8999   0.831   3.162   3.831 -1.0314  0.0293 -0.3061
 2232SOL    HW3 9000   0.885   3.234   3.709  1.4797 -0.9869  0.1842
 2232SOL    MW4 9001   0.879   3.226   3.796 -0.3507 -0.2296  0.1483
 2233SOL     OW 9002   0.932   3.516   3.872 -0.0529 -0.1027 -0.0954
 2233SOL    HW2 9003   0.917   3.425   3.846  1.3330 -0.0069 -1.2902
 2233SOL    HW3 9004   0.854   3.563   3.842 -0.5803 -0.8116  0.1391
 2233SOL    MW4 9005   0.920   3.510   3.865  0.0604 -0.1833 -0.2222
 2234SOL     OW 9006   1.157   3.611   3.761 -0.3737 -0.0501  0.3648
 2234SOL    HW2 9007   1.182   3.699   3.790  0.8551 -0.4449  0.5340
 2234SOL    HW3 9008   1.077   3.592   3.810 -0.9248  1.1704 -0.0483
 2234SOL    MW4 9009   1.150   3.620   3.771 -0.2842  0.0587  0.3326
 2235SOL     OW 9010   1.109   3.897   3.889  0.3796  0.0057  0.3522
 2235SOL    HW2 9011   1.129   3.892   3.983  1.0391  1.7377  0.3301
 2235SOL    HW3 9012   1.190   3.929   3.849 -0.4515  0.9711 -0.5896
 2235SOL    MW4 9013   1.122   3.901   3.896  0.3569  0.3612  0.2253
 2236SOL     OW 9014   0.895   4.003   3.778  0.2991 -0.1542 -0.0457
 2236SOL    HW2 9015   0.978   3.962   3.802  0.2278 -0.1418  0.2272
 2236SOL    HW3 9016   0.904   4.023   3.685  0.3397 -0.7783 -0.1814
 2236SOL    MW4 9017   0.907   4.000   3.769  0.2950 -0.2351 -0.0277
 2237SOL     OW 9018   0.902   4.249   3.902  0.5419  0.2873  0.3303
 2237SOL    HW2 9019   0.914   4.250   3.997 -2.5639  1.4883  0.7761
 2237SOL    HW3 9020   0.907   4.157   3.878  0.6467 -0.0975  1.7435
 2237SOL    MW4 9021   0.904   4.237   3.912  0.1460  0.3948  0.5758
 2238SOL     OW 9022   1.116   4.352   3.772 -0.5229  0.5666  0.3022
 2238SOL    HW2 9023   1.032   4.327   3.811 -1.0124  1.0607 -0.4041
 2238SOL    HW3 9024   1.098   4.355   3.678  0.3774  0.3479  0.1233
 2238SOL    MW4 9025   1.102   4.349   3.765 -0.4686  0.6027  0.1855
 2239SOL     OW 9026   1.545   0.012   3.870 -0.2815 -0.2445 -0.2012
 2239SOL    HW2 9027   1.585   0.011   3.957  0.5358  0.2155 -0.5639
 2239SOL    HW3 9028   1.548  -0.080   3.842  0.8800 -0.1694 -0.3700
 2239SOL    MW4 9029   1.551  -0.000   3.878 -0.0204 -0.1740 -0.2708
 2240SOL     OW 9030   1.349   0.141   3.746 -0.2864  0.0141 -0.0765
 2240SOL    HW2 9031   1.342   0.232   3.774  0.5213 -0.1300  0.6372
 2240SOL    HW3 9032   1.415   0.103   3.805 -0.8839 -1.1215 -0.1252
 2240SOL    MW4 9033   1.357   0.148   3.758 -0.2587 -0.1547  0.0112
 2241SOL     OW 9034   1.361   0.414   3.841 -0.0802  0.3546  0.4441
 2241SOL    HW2 9035   1.367   0.412   3.937 -1.6730  1.2364  0.5793
 2241SOL    HW3 9036   1.440   0.462   3.814  1.4915 -1.7537  1.1540
 2241SOL    MW4 9037   1.372   0.420   3.850 -0.0831  0.1928  0.5555
 2242SOL     OW 9038   1.608   0.549   3.758 -0.0675  0.3644 -0.0889
 2242SOL    HW2 9039   1.686   0.497   3.773 -0.2995  0.7710  2.8229
 2242SOL    HW3 9040   1.622   0.630   3.807 -1.4965  1.2565 -1.0881
 2242SOL    MW4 9041   1.620   0.553   3.766 -0.2868  0.5358  0.1631
 2243SOL     OW 9042   1.629   0.783   3.890 -0.5087  0.4487  0.1074
 2243SOL    HW2 9043   1.701   0.836   3.855 -0.0784  0.4044  0.9157
 2243SOL    HW3 9044   1.550   0.827   3.859 -0.1502 -0.3677 -2.1083
 2243SOL    MW4 9045   1.628   0.796   3.881 -0.4047  0.3352 -0.0784
 2244SOL     OW 9046   1.405   0.898   3.785 -0.4333  0.7486  0.0012
 2244SOL    HW2 9047   1.381   0.982   3.825 -0.4749 -0.5768  2.9449
 2244SOL    HW3 9048   1.332   0.839   3.806 -0.4502 -0.0108 -2.1051
 2244SOL    MW4 9049   1.392   0.901   3.793 -0.4411  0.4736  0.1116
 2245SOL     OW 9050   1.377   1.170   3.888 -0.1608 -0.6307 -0.5051
 2245SOL    HW2 9051   1.373   1.177   3.984 -0.6140 -1.8526 -0.4204
 2245SOL    HW3 9052   1.300   1.218   3.857  0.8164  1.0867 -0.3528
 2245SOL    MW4 9053   1.366   1.177   3.897 -0.0917 -0.5653 -0.4740
 2246SOL     OW 9054   1.602   1.303   3.804  0.1102 -0.5777 -0.4386
 2246SOL    HW2 9055   1.676   1.244   3.821  0.5341 -0.2856 -1.2448
 2246SOL    HW3 9056   1.525   1.252   3.831  0.6925 -0.3540  1.7574
 2246SOL    MW4 9057   1.602   1.288   3.810  0.2429 -0.5099 -0.2553
 2247SOL     OW 9058   1.565   1.557   3.865  0.1696  0.3078  0.3335
 2247SOL    HW2 9059   1.561   1.570   3.960 -0.3551 -0.2643  0.3957
 2247SOL    HW3 9060   1.602   1.469   3.855  2.7877  1.4113 -0.0528
 2247SOL    MW4 9061   1.570   1.547   3.877  0.4458  0.3778  0.2909
 2248SOL     OW 9062   1.344   1.668   3.750  0.2666  0.2587  0.0914
 2248SOL    HW2 9063   1.365   1.755   3.783  0.2896  0.4364 -0.3761
 2248SOL    HW3 9064   1.414   1.612   3.782  0.8711  0.6329 -0.5432
 2248SOL    MW4 9065   1.356   1.672   3.758  0.3494  0.3314 -0.0539
 2249SOL     OW 9066   1.365   1.930   3.877  0.1160  0.0887  0.1279
 2249SOL    HW2 9067   1.370   1.949   3.971 -0.1070  0.3987  0.0801
 2249SOL    HW3 9068   1.286   1.976   3.848 -0.3242 -0.7603 -0.0379
 2249SOL    MW4 9069   1.355   1.939   3.885  0.0285  0.0175  0.0997
 2250SOL     OW 9070   1.573   2.350   3.826 -0.2832 -0.4014 -0.0199
 2250SOL    HW2 9071   1.578   2.265   3.783 -0.7817 -0.4858  0.0823
 2250SOL    HW3 9072   1.658   2.390   3.810 -0.8034 -0.0272 -1.8963
 2250SOL    MW4 9073   1.584   2.344   3.818 -0.4176 -0.3629 -0.2539
 2251SOL     OW 9074   1.566   2.278   4.088 -0.0037 -0.1571  0.5736
 2251SOL    HW2 9075   1.635   2.336   4.118 -0.3691  0.2777  0.5891
 2251SOL    HW3 9076   1.559   2.296   3.994 -1.2415  1.0415  0.8742
 2251SOL    MW4 9077   1.574   2.288   4.079 -0.2152  0.0584  0.6151
 2252SOL     OW 9078   1.331   2.424   3.723  0.3044  0.0187  0.3269
 2252SOL    HW2 9079   1.410   2.389   3.763 -0.0822 -1.1149  0.1077
 2252SOL    HW3 9080   1.262   2.363   3.748 -0.2405  0.2119 -0.6755
 2252SOL    MW4 9081   1.332   2.412   3.732  0.1816 -0.1051  0.1655
 2253SOL     OW 9082   1.366   2.694   3.834 -0.0779 -0.1477 -0.2179
 2253SOL    HW2 9083   1.356   2.685   3.928 -1.0135  0.4667 -0.2493
 2253SOL    HW3 9084   1.335   2.611   3.798 -0.7551  0.0217 -0.0408
 2253SOL    MW4 9085   1.361   2.682   3.841 -0.2909 -0.0443 -0.1986
 2254SOL     OW 9086   1.602   2.820   3.758 -0.3678 -0.5235 -0.0087
 2254SOL    HW2 9087   1.529   2.766   3.786  0.1938 -0.9098  0.7341
 2254SOL    HW3 9088   1.591   2.829   3.663 -0.3494 -2.1215 -0.1727
 2254SOL    MW4 9089   1.591   2.814   3.749 -0.2912 -0.7856  0.0677
 2255SOL     OW 9090   1.587   3.064   3.890  0.3946  0.0988 -0.1478
 2255SOL    HW2 9091   1.581   3.042   3.983 -0.0551  0.0061 -0.1989
 2255SOL    HW3 9092   1.582   2.980   3.845  1.8757  0.0376 -0.2016
 2255SOL    MW4 9093   1.585   3.050   3.896  0.5307  0.0787 -0.1614
 2256SOL     OW 9094   1.365   3.178   3.777 -0.2786 -0.5365  0.5445
 2256SOL    HW2 9095   1.362   3.274   3.787 -2.1838 -0.4449 -0.6404
 2256SOL    HW3 9096   1.442   3.151   3.827  0.8423  1.7151  0.0973
 2256SOL    MW4 9097   1.374   3.187   3.785 -0.3822 -0.2275  0.3293
 2257SOL     OW 9098   1.335   3.441   3.861  0.4604 -0.1285  0.0536
 2257SOL    HW2 9099   1.413   3.479   3.822  1.0931 -0.2362  1.1912
 2257SOL    HW3 9100   1.262   3.493   3.827  1.1453  0.8329  0.0492
 2257SOL    MW4 9101   1.336   3.453   3.852  0.6342 -0.0160  0.2029
 2258SOL     OW 9102   1.551   3.579   3.750 -0.1033 -0.3602 -0.0106
 2258SOL    HW2 9103   1.616   3.524   3.795 -1.4735 -1.7275  0.3396
 2258SOL    HW3 9104   1.528   3.646   3.814 -0.6570 -1.1931  0.6821
 2258SOL    MW4 9105   1.556   3.581   3.765 -0.3573 -0.6506  0.1268
 2259SOL     OW 9106   1.528   3.822   3.888  0.3587  0.1355 -0.2017
 2259SOL    HW2 9107   1.541   3.829   3.983 -0.4642 -1.2192  0.0134
 2259SOL    HW3 9108   1.462   3.889   3.869  1.4262  1.2716 -0.0308
 2259SOL    MW4 9109   1.521   3.832   3.898  0.3909  0.1068 -0.1509
 2260SOL     OW 9110   1.338   3.990   3.769  0.2171 -0.1429  0.2003
 2260SOL    HW2 9111   1.364   4.079   3.795  2.2949 -0.0606 -2.0094
 2260SOL    HW3 9112   1.344   3.990   3.673 -0.7568 -2.3759  0.1126
 2260SOL    MW4 9113   1.342   4.002   3.760  0.3628 -0.4268 -0.1030
 2261SOL     OW 9114   1.332   4.260   3.888 -0.0853  0.2391  0.5117
 2261SOL    HW2 9115   1.399   4.319   3.853 -0.4776 -0.6106 -1.7425
 2261SOL    HW3 9116   1.250   4.290   3.848 -0.7066 -0.1452  1.4859
 2261SOL    MW4 9117   1.330   4.272   3.878 -0.2191  0.0758  0.3428
 2262SOL     OW 9118   1.520   4.414   3.765 -0.0075 -0.3796 -0.1561
 2262SOL    HW2 9119   1.599   4.364   3.786  0.1867 -0.4120 -0.9421
 2262SOL    HW3 9120   1.509   4.403   3.670 -0.9031 -0.3021 -0.0714
 2262SOL    MW4 9121   1.529   4.406   3.755 -0.0999 -0.3734 -0.2484
 2263SOL     OW 9122   1.965   4.625   3.906 -0.1765 -0.3408  0.2624
 2263SOL    HW2 9123   2.032   4.686   3.874 -0.3863 -0.1071  0.2650
 2263SOL    HW3 9124   1.977   4.546   3.854  0.7994 -0.6883  0.9846
 2263SOL    MW4 9125   1.975   4.623   3.895 -0.0753 -0.3557  0.3583
 2264SOL     OW 9126   1.770   0.092   3.749  0.0895  0.2496  0.1804
 2264SOL    HW2 9127   1.840   0.052   3.799  0.5064 -0.6857 -1.1048
 2264SOL    HW3 9128   1.689   0.062   3.791  0.4183 -1.2140 -0.2126
 2264SOL    MW4 9129   1.768   0.083   3.761  0.1880 -0.0669 -0.0410
 2265SOL     OW 9130   1.817   0.368   3.828  0.2090 -0.1635 -0.0828
 2265SOL    HW2 9131   1.819   0.366   3.924 -2.8843  1.2427  0.0656
 2265SOL    HW3 9132   1.818   0.275   3.803 -0.4508 -0.5973  1.3928
 2265SOL    MW4 9133   1.817   0.355   3.837 -0.2862 -0.0352  0.1314
 2266SOL     OW 9134   2.043   0.504   3.764 -0.2635 -0.6461 -0.2036
 2266SOL    HW2 9135   1.969   0.454   3.799  0.1385 -1.0981  0.0059
 2266SOL    HW3 9136   2.021   0.517   3.672 -0.9751 -0.0964  0.0382
 2266SOL    MW4 9137   2.030   0.499   3.756 -0.3045 -0.6332 -0.1440
 2267SOL     OW 9138   2.186   0.701   3.921  0.7625  0.3872  0.4186
 2267SOL    HW2 9139   2.158   0.708   4.012  1.7427 -2.9501  1.0730
 2267SOL    HW3 9140   2.121   0.644   3.881 -0.1713  2.5788 -1.2398
 2267SOL    MW4 9141   2.174   0.694   3.928  0.7687  0.2361  0.2863
 2268SOL     OW 9142   1.863   0.876   3.772  0.2245  0.3744 -0.0256
 2268SOL    HW2 9143   1.959   0.877   3.765  0.1591 -2.4451 -2.0745
 2268SOL    HW3 9144   1.832   0.888   3.682 -1.3506  0.8136  0.5557
 2268SOL    MW4 9145   1.872   0.878   3.759  0.0079  0.0604 -0.2191
 2269SOL     OW 9146   1.819   1.138   3.856 -0.0600  0.8976  0.0708
 2269SOL    HW2 9147   1.822   1.128   3.951  0.8051  0.0832 -0.0401
 2269SOL    HW3 9148   1.854   1.056   3.821 -3.2384 -0.0878 -1.0095
 2269SOL    MW4 9149   1.824   1.126   3.864 -0.3650  0.6602 -0.0863
 2270SOL     OW 9150   2.046   1.309   3.777 -0.0561 -0.0470 -0.7288
 2270SOL    HW2 9151   2.127   1.283   3.820 -0.3559 -1.4651 -1.0159
 2270SOL    HW3 9152   1.977   1.262   3.824 -0.4469 -1.1052 -2.3357
 2270SOL    MW4 9153   2.048   1.299   3.789 -0.1473 -0.3737 -0.9787
 2271SOL     OW 9154   2.224   1.930   3.878 -0.2961  0.1495 -0.4861
 2271SOL    HW2 9155   2.139   1.942   3.837 -0.7119  0.1803  0.3621
 2271SOL    HW3 9156   2.209   1.949   3.971  0.4080 -0.8538 -0.1577
 2271SOL    MW4 9157   2.211   1.934   3.885 -0.2582  0.0212 -0.3309
 2272SOL     OW 9158   1.778   1.720   3.758  0.4797 -0.7165 -0.1857
 2272SOL    HW2 9159   1.795   1.806   3.797  1.1626 -1.4157  1.1223
 2272SOL    HW3 9160   1.701   1.687   3.805 -0.0840 -0.6118 -1.0317
 2272SOL    MW4 9161   1.770   1.727   3.770  0.4954 -0.7950 -0.1252
 2273SOL     OW 9162   1.546   2.084   3.743  0.2539  0.5089 -0.2058
 2273SOL    HW2 9163   1.492   2.024   3.793 -0.4542  0.5146 -0.9428
 2273SOL    HW3 9164   1.532   2.058   3.652  1.3695  0.6143 -0.4090
 2273SOL    MW4 9165   1.537   2.073   3.737  0.3076  0.5236 -0.3300
 2274SOL     OW 9166   1.775   1.989   3.851  0.0319 -0.4074 -0.2492
 2274SOL    HW2 9167   1.707   2.040   3.807 -0.4937  0.1991  1.2658
 2274SOL    HW3 9168   1.778   2.023   3.940  2.2009 -0.5555 -0.2387
 2274SOL    MW4 9169   1.767   2.000   3.857  0.2486 -0.3469 -0.0477
 2275SOL     OW 9170   2.449   2.817   4.230  0.1151 -0.1483 -0.4128
 2275SOL    HW2 9171   2.429   2.805   4.323 -0.4765 -0.7306 -0.6124
 2275SOL    HW3 9172   2.403   2.745   4.186 -0.5452  0.7858 -1.2715
 2275SOL    MW4 9173   2.440   2.806   4.237 -0.0503 -0.1020 -0.5527
 2276SOL     OW 9174   1.829   2.424   3.764  0.3187 -0.2904 -0.7949
 2276SOL    HW2 9175   1.828   2.517   3.789 -2.0654 -0.3567 -0.5952
 2276SOL    HW3 9176   1.806   2.424   3.671 -1.6647 -0.7955 -0.3246
 2276SOL    MW4 9177   1.826   2.437   3.755 -0.2574 -0.3657 -0.7067
 2277SOL     OW 9178   1.828   2.691   3.840 -0.2811 -0.1747  0.2084
 2277SOL    HW2 9179   1.821   2.689   3.935  0.0025 -0.8902  0.2214
 2277SOL    HW3 9180   1.747   2.732   3.810 -0.1588  0.4899  0.7808
 2277SOL    MW4 9181   1.817   2.696   3.848 -0.2276 -0.1814  0.2856
 2278SOL     OW 9182   2.065   2.798   3.728 -0.2491  0.4136 -0.4931
 2278SOL    HW2 9183   2.135   2.763   3.783 -1.0141 -0.2033  0.1009
 2278SOL    HW3 9184   1.985   2.769   3.770 -0.8471 -0.2795 -2.0700
 2278SOL    MW4 9185   2.064   2.789   3.741 -0.4292  0.2403 -0.6230
 2279SOL     OW 9186   2.052   3.044   3.848  0.2090 -0.1651  0.4952
 2279SOL    HW2 9187   2.120   3.101   3.811 -0.1825 -0.4068 -0.5994
 2279SOL    HW3 9188   2.054   2.965   3.794 -1.5386  0.1825 -0.1182
 2279SOL    MW4 9189   2.061   3.041   3.836 -0.0734 -0.1509  0.2701
 2280SOL     OW 9190   1.820   3.206   3.783 -0.0475 -0.2961  0.1643
 2280SOL    HW2 9191   1.896   3.150   3.795 -0.8106 -1.5951 -0.8028
 2280SOL    HW3 9192   1.747   3.157   3.821 -0.6811  0.1600 -0.4271
 2280SOL    MW4 9193   1.820   3.192   3.789 -0.2319 -0.4075 -0.0410
 2281SOL     OW 9194   1.779   3.493   3.882 -0.6454 -0.1459  0.0211
 2281SOL    HW2 9195   1.856   3.547   3.864 -0.8483  0.6234  1.3257
 2281SOL    HW3 9196   1.804   3.405   3.857 -0.1021  0.4640 -1.6246
 2281SOL    MW4 9197   1.792   3.489   3.877 -0.6005  0.0365 -0.0238
 2282SOL     OW 9198   2.008   3.617   3.818 -0.5006 -0.0569 -0.1304
 2282SOL    HW2 9199   2.079   3.561   3.849 -0.5968 -0.1656 -0.1070
 2282SOL    HW3 9200   2.022   3.623   3.724 -1.6356 -1.7413 -0.4376
 2282SOL    MW4 9201   2.019   3.611   3.810 -0.6628 -0.2935 -0.1676
 2283SOL     OW 9202   1.986   3.883   3.873  0.2049  0.1961  0.2453
 2283SOL    HW2 9203   2.064   3.918   3.830  0.1060 -0.0482 -0.1304
 2283SOL    HW3 9204   1.988   3.789   3.853  0.1588  0.0816  0.7716
 2283SOL    MW4 9205   1.997   3.875   3.865  0.1858  0.1485  0.2651
 2284SOL     OW 9206   1.743   3.966   3.743 -0.0149  0.0866 -0.0839
 2284SOL    HW2 9207   1.822   3.942   3.790  0.2268  0.2900 -0.3823
 2284SOL    HW3 9208   1.679   3.900   3.768  0.3410 -0.2611 -0.0875
 2284SOL    MW4 9209   1.745   3.954   3.752  0.0638  0.0672 -0.1237
 2285SOL     OW 9210   1.730   4.243   3.834 -0.3226  0.1212 -0.1401
 2285SOL    HW2 9211   1.814   4.269   3.797  0.5051  0.4635  1.9136
 2285SOL    HW3 9212   1.724   4.149   3.814  0.8659 -0.0556  0.2618
 2285SOL    MW4 9213   1.740   4.234   3.827 -0.0566  0.1431  0.1838
 2286SOL     OW 9214   1.972   4.382   3.755  0.6834 -0.4934  0.2966
 2286SOL    HW2 9215   2.051   4.353   3.800  0.7979 -1.3448 -0.4443
 2286SOL    HW3 9216   1.990   4.365   3.662 -0.4580 -0.8880  0.1450
 2286SOL    MW4 9217   1.985   4.376   3.749  0.5480 -0.6576  0.1788
 2287SOL     OW 9218   2.439   4.650   3.890 -0.4420 -0.2549 -0.4632
 2287SOL    HW2 9219   2.428   4.664   3.985 -0.6240 -0.6435 -0.4240
 2287SOL    HW3 9220   2.524   4.689   3.870 -1.0500  1.1298 -0.4083
 2287SOL    MW4 9221   2.449   4.657   3.900 -0.5465 -0.1235 -0.4506
 2288SOL     OW 9222   2.187   0.096   3.824  0.4422  0.3390 -0.2716
 2288SOL    HW2 9223   2.263   0.046   3.852 -0.1426 -0.6065 -0.3625
 2288SOL    HW3 9224   2.202   0.114   3.731  0.6533  0.3383 -0.2369
 2288SOL    MW4 9225   2.199   0.092   3.816  0.3929  0.2141 -0.2792
 2289SOL     OW 9226   2.277   0.354   3.880  0.3031  0.2266 -0.1592
 2289SOL    HW2 9227   2.250   0.266   3.852  0.4966  1.0092 -2.9748
 2289SOL    HW3 9228   2.199   0.408   3.865  0.7826  0.8956 -0.2454
 2289SOL    MW4 9229   2.263   0.350   3.874  0.3922  0.4181 -0.5422
 2290SOL     OW 9230   2.497   0.472   3.758 -0.0725 -0.3749  0.0230
 2290SOL    HW2 9231   2.427   0.421   3.800 -0.8264 -0.1040 -0.8829
 2290SOL    HW3 9232   2.473   0.472   3.666  1.6977 -1.1680 -0.4458
 2290SOL    MW4 9233   2.484   0.465   3.752  0.0618 -0.4438 -0.1585
 2291SOL     OW 9234   2.476   0.704   3.913 -0.1863  0.1070  0.2689
 2291SOL    HW2 9235   2.383   0.720   3.923 -0.1972 -0.0363  0.4118
 2291SOL    HW3 9236   2.482   0.620   3.868 -0.1243 -0.9347  2.1775
 2291SOL    MW4 9237   2.465   0.695   3.909 -0.1793 -0.0493  0.5395
 2292SOL     OW 9238   2.138   0.930   3.773  0.2055  0.0970  0.0989
 2292SOL    HW2 9239   2.141   0.850   3.826 -1.7183 -0.2245 -0.2402
 2292SOL    HW3 9240   2.185   0.907   3.692  0.3166 -0.4443  0.3129
 2292SOL    MW4 9241   2.145   0.916   3.769 -0.0339 -0.0168  0.0820
 2293SOL     OW 9242   2.288   1.157   3.865  0.6407 -0.7125  0.1391
 2293SOL    HW2 9243   2.282   1.155   3.961  1.5157 -0.3556  0.2072
 2293SOL    HW3 9244   2.249   1.075   3.836 -0.7476 -0.2847  0.7419
 2293SOL    MW4 9245   2.282   1.146   3.874  0.5732 -0.6090  0.2277
 2294SOL     OW 9246   2.521   1.289   3.802 -0.3475 -0.0013 -0.0722
 2294SOL    HW2 9247   2.517   1.379   3.834  1.2894  0.3143 -0.7372
 2294SOL    HW3 9248   2.438   1.250   3.832 -1.2596  1.8190 -0.1301
 2294SOL    MW4 9249   2.509   1.296   3.810 -0.2522  0.2806 -0.1676
 2295SOL     OW 9250   2.464   1.548   3.916 -0.2819 -0.2077 -0.4287
 2295SOL    HW2 9251   2.537   1.593   3.873 -0.8297  1.4179  0.2650
 2295SOL    HW3 9252   2.387   1.574   3.865 -0.7019  0.2844  0.4341
 2295SOL    MW4 9253   2.463   1.558   3.904 -0.4096  0.0719 -0.2234
 2296SOL     OW 9254   2.005   1.569   3.860 -0.9784 -0.2073  0.7173
 2296SOL    HW2 9255   1.930   1.593   3.807 -0.3354  0.7249  0.2065
 2296SOL    HW3 9256   2.018   1.475   3.843 -0.3226  0.2264 -1.3773
 2296SOL    MW4 9257   1.997   1.560   3.851 -0.8070 -0.0271  0.3734
 2297SOL     OW 9258   2.249   1.660   3.775 -0.0167 -0.0435 -0.6411
 2297SOL    HW2 9259   2.166   1.626   3.808 -0.1499  0.8568 -0.0423
 2297SOL    HW3 9260   2.248   1.753   3.797  2.4942 -0.5864  2.1530
 2297SOL    MW4 9261   2.238   1.668   3.782  0.2971  0.0036 -0.1934
 2298SOL     OW 9262   2.432   2.067   3.748 -0.6993 -0.3793 -0.4901
 2298SOL    HW2 9263   2.414   2.159   3.765  1.4958 -0.2300  1.3415
 2298SOL    HW3 9264   2.358   2.020   3.786 -1.1326  0.5595 -0.1670
 2298SOL    MW4 9265   2.420   2.073   3.755 -0.4671 -0.2360 -0.2058
 2299SOL     OW 9266   2.245   2.473   3.746  0.1099  0.2711  0.4278
 2299SOL    HW2 9267   2.260   2.447   3.655 -1.2515  0.5744  0.1056
 2299SOL    HW3 9268   2.178   2.413   3.778  0.1488  0.5485  1.0458
 2299SOL    MW4 9269   2.238   2.462   3.738 -0.0648  0.3479  0.4668
 2300SOL     OW 9270   2.060   2.285   3.816 -0.0391 -0.1019 -0.2192
 2300SOL    HW2 9271   2.040   2.193   3.795 -0.7555  0.0253 -0.1195
 2300SOL    HW3 9272   1.979   2.332   3.796  0.2973  0.4978 -0.1780
 2300SOL    MW4 9273   2.047   2.279   3.811 -0.0892 -0.0057 -0.2005
 2301SOL     OW 9274   2.282   2.692   3.905 -0.2797 -0.0752 -0.1237
 2301SOL    HW2 9275   2.271   2.673   3.998 -0.9326  0.3000 -0.1194
 2301SOL    HW3 9276   2.302   2.607   3.864 -1.2468 -0.4460  0.1699
 2301SOL    MW4 9277   2.283   2.678   3.912 -0.4935 -0.0746 -0.0844
 2302SOL     OW 9278   2.478   2.859   3.814  0.3897 -0.0170  0.0806
 2302SOL    HW2 9279   2.414   2.810   3.864 -0.0735  0.2188 -0.2831
 2302SOL    HW3 9280   2.469   2.827   3.724  0.5666  0.2345 -0.0297
 2302SOL    MW4 9281   2.469   2.848   3.809  0.3519  0.0472  0.0181
 2303SOL     OW 9282   2.462   3.129   3.861  0.8373 -0.3064  0.2639
 2303SOL    HW2 9283   2.456   3.110   3.954 -1.5767 -2.4948 -0.2562
 2303SOL    HW3 9284   2.447   3.044   3.819 -3.1843  1.4529 -2.1519
 2303SOL    MW4 9285   2.459   3.115   3.867 -0.0117 -0.3629 -0.1235
 2304SOL     OW 9286   2.247   3.224   3.730 -0.2382 -0.0161  0.3045
 2304SOL    HW2 9287   2.216   3.305   3.771 -0.5634 -0.3143  0.6600
 2304SOL    HW3 9288   2.325   3.200   3.780 -1.1961 -0.9143  1.4243
 2304SOL    MW4 9289   2.253   3.231   3.742 -0.4075 -0.1738  0.4990
 2305SOL     OW 9290   2.228   3.472   3.882  0.0646 -0.7589 -0.1641
 2305SOL    HW2 9291   2.239   3.462   3.977  0.4308  1.1052 -0.0022
 2305SOL    HW3 9292   2.296   3.533   3.856 -0.8842 -0.2274 -1.4324
 2305SOL    MW4 9293   2.239   3.478   3.891 -0.0126 -0.4427 -0.3099
 2306SOL     OW 9294   2.441   3.654   3.780  0.0000 -0.1308 -0.2073
 2306SOL    HW2 9295   2.523   3.605   3.786 -0.0500 -0.1313  0.4364
 2306SOL    HW3 9296   2.426   3.663   3.685 -0.4296 -2.0852 -0.3526
 2306SOL    MW4 9297   2.450   3.649   3.768 -0.0632 -0.3886 -0.1414
 2307SOL     OW 9298   2.468   3.899   3.905  0.0955  0.0647 -0.1113
 2307SOL    HW2 9299   2.542   3.939   3.859  0.7831 -0.9942  0.0586
 2307SOL    HW3 9300   2.456   3.814   3.862 -1.7318  0.6866 -0.8693
 2307SOL    MW4 9301   2.477   3.893   3.893 -0.0548  0.0069 -0.1888
 2308SOL     OW 9302   2.227   4.001   3.807  0.0813  0.4689 -0.0125
 2308SOL    HW2 9303   2.317   3.986   3.837 -0.4239  0.1226  1.3387
 2308SOL    HW3 9304   2.233   3.994   3.712  1.5883  0.9755  0.0169
 2308SOL    MW4 9305   2.240   3.998   3.798  0.2136  0.4900  0.1695
 2309SOL     OW 9306   2.218   4.269   3.871  0.2974  0.3165 -0.2972
 2309SOL    HW2 9307   2.208   4.257   3.965 -1.1504  0.1909 -0.4616
 2309SOL    HW3 9308   2.237   4.182   3.837  0.8638  0.3691 -0.1162
 2309SOL    MW4 9309   2.219   4.256   3.878  0.1810  0.3066 -0.2949
 2310SOL     OW 9310   2.441   4.402   3.768 -0.8731  0.2085 -0.2693
 2310SOL    HW2 9311   2.371   4.352   3.810  0.3844 -0.1357  1.4827
 2310SOL    HW3 9312   2.446   4.484   3.819  1.4548 -0.7141  1.0737
 2310SOL    MW4 9313   2.433   4.406   3.780 -0.3996  0.0420  0.1390
 2311SOL     OW 9314   2.900   4.640   3.914  0.1137 -0.1135 -0.3949
 2311SOL    HW2 9315   2.886   4.646   4.009 -2.5822  3.4083 -0.9078
 2311SOL    HW3 9316   2.983   4.686   3.900  0.9201 -1.3298  0.3272
 2311SOL    MW4 9317   2.909   4.647   3.925 -0.1357  0.1907 -0.3672
 2312SOL     OW 9318   2.677   0.113   3.816 -0.2982  0.3734  0.0156
 2312SOL    HW2 9319   2.750   0.060   3.845 -0.2160  0.1928 -0.5084
 2312SOL    HW3 9320   2.683   0.112   3.720  0.3730  2.2573  0.0169
 2312SOL    MW4 9321   2.687   0.106   3.807 -0.1991  0.5981 -0.0534
 2313SOL     OW 9322   2.678   0.380   3.927  0.4557  0.1170  0.0004
 2313SOL    HW2 9323   2.692   0.287   3.906  0.9497  0.2980 -0.4897
 2313SOL    HW3 9324   2.613   0.410   3.864  0.7936  0.2733 -0.2727
 2313SOL    MW4 9325   2.672   0.371   3.916  0.5655  0.1615 -0.1004
 2314SOL     OW 9326   2.899   0.505   3.781 -0.3220 -0.9100 -0.0898
 2314SOL    HW2 9327   2.986   0.470   3.802 -0.4731 -1.7970 -0.8977
 2314SOL    HW3 9328   2.839   0.450   3.832 -0.5029 -1.2517 -0.6688
 2314SOL    MW4 9329   2.903   0.493   3.790 -0.3657 -1.0721 -0.2728
 2315SOL     OW 9330   2.907   0.777   3.858 -0.2209  0.1477  0.2650
 2315SOL    HW2 9331   2.988   0.824   3.841  0.5162 -1.1364  0.1454
 2315SOL    HW3 9332   2.926   0.686   3.834 -1.6283 -0.2093  0.4247
 2315SOL    MW4 9333   2.920   0.771   3.853 -0.3092 -0.0688  0.2701
 2316SOL     OW 9334   2.658   0.870   3.758  0.4763  0.1263 -0.0872
 2316SOL    HW2 9335   2.742   0.832   3.785  0.4417 -0.2843 -0.5515
 2316SOL    HW3 9336   2.592   0.820   3.805  0.5053  0.6473  0.5099
 2316SOL    MW4 9337   2.661   0.859   3.768  0.4756  0.1408 -0.0696
 2317SOL     OW 9338   2.747   1.135   3.863 -0.3441 -0.6032  0.1199
 2317SOL    HW2 9339   2.717   1.046   3.843 -0.2461 -0.5235 -0.3762
 2317SOL    HW3 9340   2.670   1.190   3.852  0.0651 -0.3388 -1.5605
 2317SOL    MW4 9341   2.733   1.130   3.859 -0.2773 -0.5578 -0.1674
 2318SOL     OW 9342   2.943   1.277   3.730  0.7088 -0.1793 -0.4281
 2318SOL    HW2 9343   2.938   1.359   3.779 -1.0648  0.0497 -0.9625
 2318SOL    HW3 9344   2.879   1.220   3.772 -0.4789 -0.1442 -2.1472
 2318SOL    MW4 9345   2.934   1.280   3.742  0.3181 -0.1444 -0.7253
 2319SOL     OW 9346   2.913   1.532   3.885 -0.0929  0.2653  0.4172
 2319SOL    HW2 9347   2.935   1.511   3.976  2.0624 -2.6095 -0.6766
 2319SOL    HW3 9348   2.983   1.589   3.855 -1.3162  2.0181  0.7861
 2319SOL    MW4 9349   2.925   1.536   3.893  0.0303  0.1173  0.3216
 2320SOL     OW 9350   2.683   1.636   3.784 -0.2405 -0.2502 -0.2450
 2320SOL    HW2 9351   2.757   1.589   3.821 -0.3745  0.0777  0.4455
 2320SOL    HW3 9352   2.702   1.641   3.690  0.5872 -0.2039 -0.0766
 2320SOL    MW4 9353   2.695   1.630   3.777 -0.1490 -0.2006 -0.1318
 2321SOL     OW 9354   2.677   1.937   3.826 -0.1494  0.0600  0.3931
 2321SOL    HW2 9355   2.673   1.843   3.807 -0.1301 -0.1046  1.2061
 2321SOL    HW3 9356   2.589   1.969   3.807  0.4642  0.3368 -2.2293
 2321SOL    MW4 9357   2.665   1.929   3.821 -0.0658  0.0749  0.1545
 2322SOL     OW 9358   2.891   2.072   3.741 -0.5776  0.0738 -0.3623
 2322SOL    HW2 9359   2.884   2.162   3.774  0.3036 -0.2536  0.7928
 2322SOL    HW3 9360   2.807   2.032   3.762 -1.1914  0.7929 -1.4215
 2322SOL    MW4 9361   2.879   2.079   3.748 -0.5422  0.1254 -0.3498
 2323SOL     OW 9362   2.908   2.327   3.836  0.1048 -0.1523 -0.3453
 2323SOL    HW2 9363   2.918   2.309   3.929 -1.6661  0.1327 -0.0803
 2323SOL    HW3 9364   2.997   2.346   3.805  0.8990 -1.5292  0.9994
 2323SOL    MW4 9365   2.921   2.327   3.844 -0.0243 -0.2964 -0.1333
 2324SOL     OW 9366   2.687   2.464   3.756  0.0259 -0.4335 -0.1343
 2324SOL    HW2 9367   2.686   2.553   3.790  0.2765 -0.5047  0.0609
 2324SOL    HW3 9368   2.772   2.428   3.784 -0.3816 -0.9770  0.4221
 2324SOL    MW4 9369   2.698   2.471   3.764  0.0055 -0.5150 -0.0350
 2325SOL     OW 9370   2.698   2.727   3.910  0.5537 -0.2185  0.0126
 2325SOL    HW2 9371   2.703   2.725   4.006  2.0760  1.5305  0.0144
 2325SOL    HW3 9372   2.629   2.791   3.891 -0.1853 -1.0274 -0.0799
 2325SOL    MW4 9373   2.690   2.735   3.920  0.6571 -0.0947  0.0007
 2326SOL     OW 9374   2.900   2.843   3.759  0.0473 -0.3475  0.3980
 2326SOL    HW2 9375   2.913   2.934   3.787  0.8704 -0.2338 -0.3415
 2326SOL    HW3 9376   2.827   2.812   3.813 -1.2473  1.2216 -0.3871
 2326SOL    MW4 9377   2.892   2.851   3.770 -0.0148 -0.1256  0.1969
 2327SOL     OW 9378   2.912   3.115   3.815 -0.0790 -0.0647  0.2436
 2327SOL    HW2 9379   2.987   3.170   3.790  0.5062 -1.1931 -0.5196
 2327SOL    HW3 9380   2.836   3.159   3.775  0.2242  0.8576  0.6731
 2327SOL    MW4 9381   2.912   3.128   3.806  0.0381 -0.0920  0.1996
 2328SOL     OW 9382   2.680   3.248   3.737  0.1910 -0.1627 -0.4173
 2328SOL    HW2 9383   2.690   3.336   3.772  1.0351 -0.8514  1.0968
 2328SOL    HW3 9384   2.607   3.210   3.787  0.6414 -0.7505 -0.2052
 2328SOL    MW4 9385   2.671   3.255   3.748  0.3619 -0.3309 -0.1898
 2329SOL     OW 9386   2.662   3.515   3.848  0.3895 -0.0710 -0.6109
 2329SOL    HW2 9387   2.656   3.528   3.942 -0.9729 -2.2549 -0.3630
 2329SOL    HW3 9388   2.739   3.565   3.822  1.8048 -0.8463  1.9295
 2329SOL    MW4 9389   2.671   3.523   3.857  0.3963 -0.4613 -0.2429
 2330SOL     OW 9390   2.902   3.655   3.786  0.2281  1.1856  0.0198
 2330SOL    HW2 9391   2.962   3.585   3.811 -0.6378  0.5800  0.4777
 2330SOL    HW3 9392   2.906   3.659   3.691  0.1714  0.3987 -0.0162
 2330SOL    MW4 9393   2.910   3.646   3.777  0.1063  1.0018  0.0753
 2331SOL     OW 9394   2.916   3.923   3.850  0.1120  0.0896  0.7107
 2331SOL    HW2 9395   2.915   3.929   3.945  0.3988  0.5613  0.6837
 2331SOL    HW3 9396   2.925   3.829   3.832  2.4160  0.1935  1.1599
 2331SOL    MW4 9397   2.917   3.912   3.860  0.4539  0.1655  0.7660
 2332SOL     OW 9398   2.671   4.035   3.785 -0.1359  0.3485  0.0992
 2332SOL    HW2 9399   2.695   4.121   3.821  1.9332  0.1051 -0.6132
 2332SOL    HW3 9400   2.748   3.981   3.800 -1.1882 -1.2244 -0.0450
 2332SOL    MW4 9401   2.684   4.039   3.792 -0.0017  0.1092 -0.0141
 2333SOL     OW 9402   2.649   4.286   3.913 -0.1319 -0.0915 -0.0372
 2333SOL    HW2 9403   2.732   4.322   3.881  0.3682 -0.4275  0.8643
 2333SOL    HW3 9404   2.582   4.333   3.864  0.6023 -0.0528 -1.0143
 2333SOL    MW4 9405   2.651   4.297   3.902  0.0308 -0.1307 -0.0474
 2334SOL     OW 9406   2.879   4.396   3.805  0.3101  0.6478  0.1348
 2334SOL    HW2 9407   2.960   4.354   3.833 -0.0107  0.3579  0.6383
 2334SOL    HW3 9408   2.877   4.480   3.851 -1.6016 -1.0196  3.2935
 2334SOL    MW4 9409   2.889   4.402   3.814  0.0157  0.3896  0.6177
 2335SOL     OW 9410   3.387   0.006   3.894  0.1356  0.0505 -0.2577
 2335SOL    HW2 9411   3.380   0.015   3.989 -1.3336  0.5580 -0.4019
 2335SOL    HW3 9412   3.468   0.052   3.872  1.0265 -0.9533  0.8519
 2335SOL    MW4 9413   3.397   0.013   3.903  0.0594 -0.0153 -0.1304
 2336SOL     OW 9414   3.140   0.088   3.815  0.2171  0.0897 -0.1059
 2336SOL    HW2 9415   3.220   0.043   3.840  0.7299  0.7517 -0.5283
 2336SOL    HW3 9416   3.137   0.081   3.720  0.2918  0.9186 -0.1735
 2336SOL    MW4 9417   3.150   0.081   3.806  0.2947  0.2864 -0.1702
 2337SOL     OW 9418   3.132   0.368   3.891 -0.3178  0.2494 -0.2014
 2337SOL    HW2 9419   3.105   0.370   3.983  1.5282 -0.0738  0.3778
 2337SOL    HW3 9420   3.144   0.275   3.871 -0.4846  0.3332 -0.7030
 2337SOL    MW4 9421   3.130   0.356   3.900 -0.0961  0.2179 -0.1910
 2338SOL     OW 9422   3.383   0.479   3.802  0.2909 -0.0828  0.1814
 2338SOL    HW2 9423   3.456   0.437   3.848 -0.0751  0.0970  0.9409
 2338SOL    HW3 9424   3.305   0.434   3.834  0.0451 -0.0647 -0.3915
 2338SOL    MW4 9425   3.382   0.467   3.812  0.2100 -0.0567  0.2060
 2339SOL     OW 9426   3.384   0.746   3.892 -0.1908  0.5296  0.0963
 2339SOL    HW2 9427   3.374   0.747   3.987 -2.6763  2.2058 -0.1166
 2339SOL    HW3 9428   3.400   0.655   3.870  0.1544  0.0842  2.0854
 2339SOL    MW4 9429   3.385   0.734   3.902 -0.4730  0.6920  0.3304
 2340SOL     OW 9430   3.147   0.871   3.780 -0.2251 -0.4303  0.0108
 2340SOL    HW2 9431   3.221   0.814   3.802 -1.3442 -1.3398  1.4624
 2340SOL    HW3 9432   3.133   0.856   3.686 -0.9598 -3.1479  0.4911
 2340SOL    MW4 9433   3.155   0.861   3.770 -0.4694 -0.9088  0.2656
 2341SOL     OW 9434   3.131   1.136   3.893 -0.0748  0.0291 -0.0323
 2341SOL    HW2 9435   3.139   1.045   3.865  0.8609 -0.4595  1.7249
 2341SOL    HW3 9436   3.071   1.175   3.830  1.4795 -1.1460 -2.3247
 2341SOL    MW4 9437   3.124   1.129   3.881  0.2537 -0.1904 -0.1028
 2342SOL     OW 9438   3.336   1.269   3.775 -0.0249  0.0982  0.1149
 2342SOL    HW2 9439   3.264   1.217   3.811  0.6226 -0.9870 -0.1538
 2342SOL    HW3 9440   3.329   1.260   3.680  0.3877  0.0837  0.0816
 2342SOL    MW4 9441   3.326   1.261   3.767  0.1152 -0.0468  0.0749
 2343SOL     OW 9442   3.364   1.529   3.880  0.6355  0.1807 -0.3908
 2343SOL    HW2 9443   3.289   1.580   3.850 -0.0132  0.1056  1.0395
 2343SOL    HW3 9444   3.354   1.444   3.837  0.5608  0.5570 -1.1298
 2343SOL    MW4 9445   3.353   1.525   3.870  0.5400  0.2203 -0.2997
 2344SOL     OW 9446   3.129   1.658   3.774 -0.1105 -0.3556  0.3803
 2344SOL    HW2 9447   3.113   1.752   3.788  2.9579  0.0737  1.3916
 2344SOL    HW3 9448   3.125   1.647   3.679  0.7705  1.0459  0.1729
 2344SOL    MW4 9449   3.126   1.669   3.764  0.4106 -0.1140  0.4864
 2345SOL     OW 9450   3.103   1.931   3.814 -0.1130 -0.6944 -0.8270
 2345SOL    HW2 9451   3.110   1.933   3.910  1.2776 -1.1888 -0.9015
 2345SOL    HW3 9452   3.029   1.987   3.794 -0.1732 -0.2724  0.5300
 2345SOL    MW4 9453   3.094   1.938   3.824  0.0622 -0.7039 -0.6578
 2346SOL     OW 9454   3.375   2.027   3.734 -0.0564 -0.1302 -0.1684
 2346SOL    HW2 9455   3.288   1.994   3.758  0.5114 -0.9346  0.7811
 2346SOL    HW3 9456   3.375   2.026   3.638 -0.6624 -1.2824 -0.1606
 2346SOL    MW4 9457   3.363   2.023   3.724 -0.0613 -0.3886 -0.0422
 2347SOL     OW 9458   3.362   2.279   3.846  0.3218  0.7521  0.0971
 2347SOL    HW2 9459   3.356   2.187   3.821 -0.1297  0.8544 -0.1772
 2347SOL    HW3 9460   3.288   2.321   3.802  0.6621  1.2909  0.0283
 2347SOL    MW4 9461   3.352   2.272   3.837  0.3073  0.8364  0.0520
 2348SOL     OW 9462   3.166   2.420   3.746  0.7126 -0.1327 -0.0657
 2348SOL    HW2 9463   3.140   2.510   3.766  0.4247 -0.3345  0.4969
 2348SOL    HW3 9464   3.157   2.413   3.651 -0.4233  0.0887  0.0092
 2348SOL    MW4 9465   3.161   2.431   3.736  0.5248 -0.1302  0.0184
 2349SOL     OW 9466   3.092   2.670   3.816  0.0611 -0.1690 -0.0851
 2349SOL    HW2 9467   3.106   2.678   3.910  0.9252 -0.3109 -0.1945
 2349SOL    HW3 9468   3.019   2.728   3.797 -0.5012 -0.5950  0.7658
 2349SOL    MW4 9469   3.084   2.678   3.826  0.1009 -0.2437  0.0126
 2350SOL     OW 9470   3.340   2.804   3.761  0.1819 -0.2767 -0.1446
 2350SOL    HW2 9471   3.261   2.750   3.763  1.7306 -2.6573 -1.2735
 2350SOL    HW3 9472   3.368   2.803   3.670  0.9471  1.4466  0.0493
 2350SOL    MW4 9473   3.333   2.797   3.749  0.4871 -0.3631 -0.2680
 2351SOL     OW 9474   3.342   3.041   3.900 -0.0907  0.5111 -0.1006
 2351SOL    HW2 9475   3.419   3.072   3.851  1.1417  0.2260  1.6380
 2351SOL    HW3 9476   3.325   2.954   3.864 -0.3583  1.0500 -1.3258
 2351SOL    MW4 9477   3.350   3.034   3.889  0.0365  0.5448 -0.0329
 2352SOL     OW 9478   3.164   3.194   3.770 -0.4020  0.4460  0.1921
 2352SOL    HW2 9479   3.241   3.151   3.808  1.8698  4.2302  0.2511
 2352SOL    HW3 9480   3.181   3.194   3.676  1.3888  4.1030  0.4233
 2352SOL    MW4 9481   3.177   3.189   3.763  0.1340  1.4279  0.2303
 2353SOL     OW 9482   3.127   3.485   3.852  0.3631 -0.3936  0.2708
 2353SOL    HW2 9483   3.206   3.533   3.825  0.2413 -0.1098  0.4139
 2353SOL    HW3 9484   3.145   3.394   3.829  0.3370 -0.1840 -0.6005
 2353SOL    MW4 9485   3.140   3.480   3.845  0.3438 -0.3288  0.1750
 2354SOL     OW 9486   3.355   3.631   3.813  0.0757 -0.5023  0.2210
 2354SOL    HW2 9487   3.364   3.721   3.845 -0.3263  0.3888 -2.1201
 2354SOL    HW3 9488   3.368   3.637   3.719 -1.4859 -2.6752 -0.1722
 2354SOL    MW4 9489   3.357   3.643   3.805 -0.1836 -0.6714 -0.1397
 2355SOL     OW 9490   3.354   3.893   3.903  0.2633 -0.1658  0.3468
 2355SOL    HW2 9491   3.426   3.943   3.866  0.6816 -1.7270 -0.9735
 2355SOL    HW3 9492   3.275   3.933   3.865  0.5574 -0.0981 -0.1886
 2355SOL    MW4 9493   3.353   3.905   3.893  0.3574 -0.3629  0.1020
 2356SOL     OW 9494   3.155   4.052   3.780 -0.7295  0.1397  0.0673
 2356SOL    HW2 9495   3.159   4.138   3.820 -1.3305  0.5040 -0.6502
 2356SOL    HW3 9496   3.079   4.010   3.820 -1.6184  0.6850 -1.0440
 2356SOL    MW4 9497   3.146   4.058   3.790 -0.9263  0.2599 -0.1740
 2357SOL     OW 9498   3.125   4.299   3.889 -0.1544  0.1610  0.0222
 2357SOL    HW2 9499   3.126   4.307   3.985  1.1928 -1.8955  0.1947
 2357SOL    HW3 9500   3.204   4.344   3.860 -0.6090  0.8617 -0.1421
 2357SOL    MW4 9501   3.135   4.306   3.898 -0.0367 -0.0181  0.0231
 2358SOL     OW 9502   3.368   4.406   3.802  0.2180  0.2437  0.0977
 2358SOL    HW2 9503   3.430   4.352   3.852 -1.7909 -0.7992  1.5520
 2358SOL    HW3 9504   3.372   4.492   3.843  0.4786  0.0822  0.4154
 2358SOL    MW4 9505   3.377   4.410   3.814 -0.0129  0.0849  0.3314
 2359SOL     OW 9506   3.818   4.638   3.925 -0.3251  0.4152 -0.4181
 2359SOL    HW2 9507   3.896   4.677   3.884 -0.1089  0.3784 -0.0492
 2359SOL    HW3 9508   3.822   4.545   3.901  0.5055  0.1392  0.7579
 2359SOL    MW4 9509   3.829   4.631   3.917 -0.1867  0.3738 -0.2146
 2360SOL     OW 9510   3.613   0.124   3.793  0.4678  0.2542  0.1324
 2360SOL    HW2 9511   3.691   0.075   3.819 -1.1853 -3.0117 -0.7489
 2360SOL    HW3 9512   3.602   0.103   3.700 -0.6683  1.8288 -0.1104
 2360SOL    MW4 9513   3.622   0.115   3.784  0.0999  0.0311 -0.0160
 2361SOL     OW 9514   3.602   0.361   3.927 -0.5603 -0.2897  0.2333
 2361SOL    HW2 9515   3.678   0.411   3.897  1.0656 -1.0284  2.9819
 2361SOL    HW3 9516   3.610   0.277   3.883 -0.1686 -0.1247 -0.0169
 2361SOL    MW4 9517   3.613   0.357   3.917 -0.2940 -0.3653  0.5631
 2362SOL     OW 9518   3.836   0.484   3.833 -0.2760  0.5023  0.2824
 2362SOL    HW2 9519   3.924   0.452   3.849 -0.0589  1.0233  0.1367
 2362SOL    HW3 9520   3.840   0.577   3.853 -0.4704  0.7889 -0.9678
 2362SOL    MW4 9521   3.848   0.492   3.838 -0.2730  0.6089  0.0982
 2363SOL     OW 9522   3.795   0.763   3.911 -0.2222  0.4331 -0.3064
 2363SOL    HW2 9523   3.874   0.791   3.864 -0.5758  0.0408 -1.1552
 2363SOL    HW3 9524   3.725   0.815   3.873 -0.5874 -0.2378 -0.5690
 2363SOL    MW4 9525   3.797   0.773   3.900 -0.3171  0.2929 -0.4530
 2364SOL     OW 9526   3.585   0.913   3.810  0.0144  0.7831 -0.0110
 2364SOL    HW2 9527   3.569   1.003   3.839  0.7875  0.5001  1.3508
 2364SOL    HW3 9528   3.520   0.861   3.858  0.3689  0.4802  0.1444
 2364SOL    MW4 9529   3.574   0.918   3.820  0.1631  0.7058  0.1893
 2365SOL     OW 9530   3.574   1.194   3.924  0.4047  0.0886 -0.3466
 2365SOL    HW2 9531   3.649   1.230   3.877  0.4185  0.3376 -0.1346
 2365SOL    HW3 9532   3.498   1.225   3.875  0.4694 -1.0355 -1.1764
 2365SOL    MW4 9533   3.574   1.203   3.912  0.4151 -0.0269 -0.4282
 2366SOL     OW 9534   3.815   1.289   3.804  0.2576  0.2562  0.3214
 2366SOL    HW2 9535   3.896   1.246   3.834  0.6238  0.7652  0.0619
 2366SOL    HW3 9536   3.824   1.380   3.833 -0.0654  0.3936 -0.0184
 2366SOL    MW4 9537   3.827   1.295   3.812  0.2632  0.3415  0.2425
 2367SOL     OW 9538   3.825   1.545   3.892 -0.4399 -0.2626  0.3036
 2367SOL    HW2 9539   3.821   1.545   3.987 -0.4635  0.4567  0.3001
 2367SOL    HW3 9540   3.738   1.572   3.864 -1.0460 -2.3724  0.0496
 2367SOL    MW4 9541   3.813   1.548   3.901 -0.5231 -0.4460  0.2694
 2368SOL     OW 9542   3.598   1.625   3.764 -0.0772 -0.3096 -0.7848
 2368SOL    HW2 9543   3.507   1.607   3.785 -0.4145  2.3061  0.1658
 2368SOL    HW3 9544   3.601   1.629   3.668 -0.7356 -1.4534 -0.8555
 2368SOL    MW4 9545   3.587   1.623   3.754 -0.2086 -0.1154 -0.6688
 2369SOL     OW 9546   3.593   1.902   3.849 -0.0867  0.3131  0.1598
 2369SOL    HW2 9547   3.519   1.931   3.796 -0.9941 -1.6960  0.2688
 2369SOL    HW3 9548   3.595   1.807   3.837  1.5335  0.1717  1.3765
 2369SOL    MW4 9549   3.584   1.893   3.840  0.0074  0.0294  0.3347
 2370SOL     OW 9550   3.814   2.079   3.776  0.1080  0.0179 -0.3163
 2370SOL    HW2 9551   3.902   2.046   3.792  0.3393  0.6539 -0.2679
 2370SOL    HW3 9552   3.757   2.017   3.820  0.6483  0.8667  1.6265
 2370SOL    MW4 9553   3.818   2.066   3.784  0.2098  0.2136 -0.0536
 2371SOL     OW 9554   3.809   2.332   3.883 -0.2210 -0.1243  0.1407
 2371SOL    HW2 9555   3.732   2.376   3.847  0.3420  0.4423 -0.3675
 2371SOL    HW3 9556   3.810   2.247   3.839 -1.4650 -0.7757  1.3279
 2371SOL    MW4 9557   3.799   2.327   3.873 -0.3109 -0.1354  0.2303
 2372SOL     OW 9558   3.583   2.432   3.784 -0.3307  0.0305  0.0546
 2372SOL    HW2 9559   3.504   2.391   3.819 -0.6873 -0.6069 -1.4514
 2372SOL    HW3 9560   3.575   2.422   3.689  2.4847 -1.7780 -0.0329
 2372SOL    MW4 9561   3.572   2.425   3.776 -0.0060 -0.2921 -0.1554
 2373SOL     OW 9562   3.573   2.683   3.871  0.6407 -0.3017 -0.0507
 2373SOL    HW2 9563   3.576   2.594   3.838  0.0662  0.3043 -1.7854
 2373SOL    HW3 9564   3.493   2.721   3.834  1.3519  1.2170 -0.0980
 2373SOL    MW4 9565   3.563   2.677   3.862  0.6588 -0.0215 -0.2859
 2374SOL     OW 9566   3.780   2.834   3.772 -0.2252 -0.0441 -0.1425
 2374SOL    HW2 9567   3.847   2.770   3.795  0.9072  1.3688  0.5911
 2374SOL    HW3 9568   3.698   2.795   3.801  0.3207 -1.6033 -0.6323
 2374SOL    MW4 9569   3.778   2.821   3.779 -0.0038 -0.0634 -0.1101
 2375SOL     OW 9570   3.789   3.088   3.872  0.0269  0.0593 -0.0475
 2375SOL    HW2 9571   3.699   3.117   3.855 -0.1094 -0.4431 -0.1870
 2375SOL    HW3 9572   3.795   3.003   3.829  0.6446  0.2023 -0.2469
 2375SOL    MW4 9573   3.778   3.081   3.864  0.0904  0.0119 -0.0925
 2376SOL     OW 9574   3.527   3.186   3.764  0.4807 -0.0133 -0.6313
 2376SOL    HW2 9575   3.548   3.270   3.805 -0.3371  0.4593 -1.1594
 2376SOL    HW3 9576   3.567   3.191   3.677  1.8839 -0.8615 -0.0599
 2376SOL    MW4 9577   3.535   3.198   3.758  0.5577 -0.0627 -0.6256
 2377SOL     OW 9578   3.564   3.468   3.893  0.0426 -0.2577  0.2845
 2377SOL    HW2 9579   3.586   3.492   3.983  0.9111  0.9539 -0.2370
 2377SOL    HW3 9580   3.494   3.528   3.868  0.9802  0.5641 -0.4150
 2377SOL    MW4 9581   3.558   3.479   3.901  0.2806  0.0105  0.1233
 2378SOL     OW 9582   3.805   3.625   3.800  0.3607 -0.1106  0.2718
 2378SOL    HW2 9583   3.802   3.715   3.834  0.3709 -0.4713  1.2543
 2378SOL    HW3 9584   3.720   3.587   3.826 -0.3261  0.1108 -1.5612
 2378SOL    MW4 9585   3.793   3.632   3.808  0.2716 -0.1287  0.1597
 2379SOL     OW 9586   3.819   3.886   3.883 -0.2388 -0.1478  0.1615
 2379SOL    HW2 9587   3.830   3.884   3.978  0.7814 -0.6778  0.0336
 2379SOL    HW3 9588   3.904   3.914   3.849  0.4245 -3.0669 -0.7555
 2379SOL    MW4 9589   3.831   3.889   3.891 -0.0167 -0.6032  0.0234
 2380SOL     OW 9590   3.596   4.033   3.803 -0.2775  0.2403 -0.3912
 2380SOL    HW2 9591   3.600   4.116   3.850 -1.9760  1.1097 -1.7209
 2380SOL    HW3 9592   3.684   3.997   3.808  0.4240  2.0693  0.3257
 2380SOL    MW4 9593   3.608   4.039   3.810 -0.4091  0.5960 -0.4718
 2381SOL     OW 9594   3.579   4.279   3.930  0.3776  0.1673 -0.2146
 2381SOL    HW2 9595   3.572   4.290   4.025  0.5755  1.8360 -0.3786
 2381SOL    HW3 9596   3.673   4.287   3.912  0.6580 -2.6186 -0.2964
 2381SOL    MW4 9597   3.591   4.281   3.941  0.4408  0.0196 -0.2472
 2382SOL     OW 9598   3.822   4.352   3.824  0.1213 -0.3448 -0.0435
 2382SOL    HW2 9599   3.897   4.297   3.846  0.1966 -0.1939  0.0732
 2382SOL    HW3 9600   3.818   4.350   3.728  0.3005 -0.3168 -0.0511
 2382SOL    MW4 9601   3.831   4.344   3.814  0.1547 -0.3214 -0.0291
 2383SOL     OW 9602   4.254   4.639   3.879  0.3553 -0.0650 -0.2575
 2383SOL    HW2 9603   4.257   4.625   3.974 -1.8325  0.7666 -0.0423
 2383SOL    HW3 9604   4.338   4.681   3.859  0.6352  0.2097  1.3874
 2383SOL    MW4 9605   4.265   4.643   3.889  0.1040  0.0811 -0.0119
 2384SOL     OW 9606   4.048   0.116   3.809  0.1566 -0.3646  0.2444
 2384SOL    HW2 9607   4.129   0.079   3.842  0.3357  0.6096  0.9032
 2384SOL    HW3 9608   4.063   0.127   3.715  0.3212 -1.3688  0.1451
 2384SOL    MW4 9609   4.060   0.113   3.801  0.2022 -0.3685  0.3181
 2385SOL     OW 9610   4.076   0.370   3.915  0.0598 -0.4000 -0.0504
 2385SOL    HW2 9611   4.059   0.359   4.009 -0.6199  0.3069 -0.0821
 2385SOL    HW3 9612   4.080   0.281   3.881 -0.8142 -0.6499  0.4601
 2385SOL    MW4 9613   4.074   0.357   3.923 -0.1450 -0.3397  0.0126
 2386SOL     OW 9614   4.266   0.518   3.784 -0.2135  0.4209  0.2494
 2386SOL    HW2 9615   4.189   0.471   3.816  0.9570 -1.3226  0.5686
 2386SOL    HW3 9616   4.267   0.501   3.690 -0.3476  0.6379  0.2088
 2386SOL    MW4 9617   4.256   0.510   3.776 -0.0768  0.2195  0.2861
 2387SOL     OW 9618   4.294   0.788   3.851  0.2542  0.0655 -0.2098
 2387SOL    HW2 9619   4.205   0.818   3.831 -0.0547  0.0134  1.0092
 2387SOL    HW3 9620   4.292   0.694   3.833 -0.3300 -0.1795  1.0385
 2387SOL    MW4 9621   4.282   0.780   3.846  0.1359  0.0262  0.1159
 2388SOL     OW 9622   4.030   0.877   3.809 -0.0017 -0.0028  0.0466
 2388SOL    HW2 9623   4.040   0.966   3.843 -1.2366 -0.2297  1.0370
 2388SOL    HW3 9624   4.023   0.888   3.714 -1.2436  1.0665  0.2426
 2388SOL    MW4 9625   4.030   0.890   3.801 -0.3285  0.1083  0.2031
 2389SOL     OW 9626   4.052   1.155   3.883 -0.2848  0.2573  0.3146
 2389SOL    HW2 9627   4.048   1.183   3.975  0.5250  1.3174  0.0288
 2389SOL    HW3 9628   4.134   1.192   3.850  0.0131 -1.1004 -0.5174
 2389SOL    MW4 9629   4.062   1.163   3.891 -0.1383  0.2180  0.1669
 2390SOL     OW 9630   4.297   1.279   3.803 -0.1635  0.2131 -0.3806
 2390SOL    HW2 9631   4.281   1.372   3.821  0.6804  0.2974 -0.0301
 2390SOL    HW3 9632   4.294   1.272   3.708 -0.1189  0.6184 -0.4143
 2390SOL    MW4 9633   4.295   1.290   3.793 -0.0463  0.2776 -0.3390
 2391SOL     OW 9634   4.261   1.549   3.866  0.0111  0.1771  0.5110
 2391SOL    HW2 9635   4.193   1.598   3.819  0.2943 -0.5133 -0.6442
 2391SOL    HW3 9636   4.343   1.582   3.829  0.2490 -0.0338  0.8571
 2391SOL    MW4 9637   4.263   1.560   3.855  0.0796  0.0581  0.4046
 2392SOL     OW 9638   4.036   1.674   3.768  0.3936 -0.0858  0.4987
 2392SOL    HW2 9639   4.037   1.770   3.772  1.8629 -0.1242  1.6953
 2392SOL    HW3 9640   3.954   1.649   3.811  0.8616  0.5944  1.8176
 2392SOL    MW4 9641   4.025   1.683   3.774  0.6499 -0.0011  0.8304
 2393SOL     OW 9642   4.051   1.954   3.856  0.3437 -0.2520  0.4836
 2393SOL    HW2 9643   4.038   1.958   3.951 -0.1472  0.3848  0.3925
 2393SOL    HW3 9644   4.137   1.993   3.842  0.0054  0.5409  0.5810
 2393SOL    MW4 9645   4.061   1.960   3.866  0.2341 -0.0632  0.4842
 2394SOL     OW 9646   4.339   2.094   3.797  0.2804  0.1798  0.5045
 2394SOL    HW2 9647   4.348   2.184   3.828 -0.9657  0.4231  0.1968
 2394SOL    HW3 9648   4.336   2.102   3.702 -0.0361 -0.1616  0.4840
 2394SOL    MW4 9649   4.339   2.107   3.788  0.0739  0.1669  0.4616
 2395SOL     OW 9650   4.293   2.364   3.873  0.1821 -0.1209  0.0297
 2395SOL    HW2 9651   4.283   2.337   3.964  0.2768 -0.9128 -0.1839
 2395SOL    HW3 9652   4.204   2.383   3.843 -0.0121 -1.1623 -0.0925
 2395SOL    MW4 9653   4.280   2.363   3.881  0.1693 -0.3629 -0.0148
 2396SOL     OW 9654   4.046   2.397   3.768 -0.7118 -0.0701 -0.0635
 2396SOL    HW2 9655   4.057   2.490   3.785  2.2533 -0.8733  2.8944
 2396SOL    HW3 9656   3.971   2.371   3.821 -2.2947  0.7804 -1.8020
 2396SOL    MW4 9657   4.037   2.406   3.777 -0.5298 -0.0641  0.0975
 2397SOL     OW 9658   3.995   2.665   3.822 -0.0107 -0.7309  0.0412
 2397SOL    HW2 9659   4.001   2.654   3.917 -1.3560  1.2271  0.3770
 2397SOL    HW3 9660   4.074   2.713   3.798 -0.3244 -0.0603  0.3558
 2397SOL    MW4 9661   4.006   2.670   3.832 -0.2294 -0.3841  0.1268
 2398SOL     OW 9662   4.232   2.806   3.779 -0.6485 -0.0035  0.5491
 2398SOL    HW2 9663   4.229   2.901   3.791  0.3010  0.2415 -1.0975
 2398SOL    HW3 9664   4.302   2.777   3.837 -0.4813  0.3808  0.5413
 2398SOL    MW4 9665   4.241   2.815   3.788 -0.5016  0.0796  0.3309
 2399SOL     OW 9666   4.253   3.089   3.821  0.0104  0.3700 -0.1748
 2399SOL    HW2 9667   4.187   3.154   3.796 -0.7576 -0.6210 -0.7534
 2399SOL    HW3 9668   4.336   3.127   3.792 -0.2868  1.6950  0.6958
 2399SOL    MW4 9669   4.255   3.103   3.814 -0.1297  0.4141 -0.1364
 2400SOL     OW 9670   4.014   3.238   3.790 -0.1889 -0.0485 -0.0527
 2400SOL    HW2 9671   3.937   3.185   3.808 -0.9167  1.0115  0.0116
 2400SOL    HW3 9672   4.027   3.229   3.695  0.1563 -0.9557  0.0765
 2400SOL    MW4 9673   4.005   3.230   3.780 -0.2398 -0.0284 -0.0272
 2401SOL     OW 9674   4.008   3.464   3.922  0.1923  0.3848 -0.0062
 2401SOL    HW2 9675   4.018   3.382   3.873  1.3938  1.0066 -0.8301
 2401SOL    HW3 9676   3.947   3.516   3.870  0.2967  0.4534 -0.0598
 2401SOL    MW4 9677   4.001   3.460   3.909  0.3648  0.4761 -0.1221
 2402SOL     OW 9678   4.228   3.563   3.760 -0.1800  0.3326 -0.5191
 2402SOL    HW2 9679   4.169   3.512   3.815 -0.2151  2.0668  1.1107
 2402SOL    HW3 9680   4.316   3.533   3.784 -0.2517  0.1487 -0.4852
 2402SOL    MW4 9681   4.232   3.553   3.771 -0.1941  0.5372 -0.2997
 2403SOL     OW 9682   4.242   3.830   3.882 -0.2813  0.2822  0.0925
 2403SOL    HW2 9683   4.183   3.883   3.828 -0.5986  0.9569  1.0907
 2403SOL    HW3 9684   4.223   3.740   3.856 -2.2489  0.4439  0.8699
 2403SOL    MW4 9685   4.232   3.825   3.871 -0.5827  0.3924  0.3266
 2404SOL     OW 9686   4.047   3.967   3.736  1.1480  0.0025 -0.1868
 2404SOL    HW2 9687   4.041   4.062   3.751  0.1197 -0.1358  0.2671
 2404SOL    HW3 9688   4.060   3.959   3.641 -0.7079  0.5376 -0.5132
 2404SOL    MW4 9689   4.048   3.979   3.725  0.7677  0.0548 -0.1695
 2405SOL     OW 9690   4.047   4.209   3.867  0.9105  0.2660  0.1621
 2405SOL    HW2 9691   4.040   4.233   3.959  0.4815 -1.2015  0.5147
 2405SOL    HW3 9692   4.118   4.264   3.834 -0.7123  2.7685  0.7040
 2405SOL    MW4 9693   4.055   4.220   3.875  0.6399  0.4025  0.2801
 2406SOL     OW 9694   4.236   4.386   3.750 -0.1203 -0.3417  0.3034
 2406SOL    HW2 9695   4.244   4.475   3.786 -3.4228 -0.3065  1.1127
 2406SOL    HW3 9696   4.319   4.344   3.773  0.8626  2.0166  1.3193
 2406SOL    MW4 9697   4.248   4.392   3.758 -0.4268 -0.0262  0.5441
 2407SOL     OW 9698   4.484   0.160   4.291 -0.4655  0.3652  0.1750
 2407SOL    HW2 9699   4.484   0.182   4.384 -1.2931  0.4455  0.1565
 2407SOL    HW3 9700   4.494   0.244   4.246 -1.5253  0.4957  0.1612
 2407SOL    MW4 9701   4.485   0.174   4.297 -0.7145  0.3930  0.1707
 2408SOL     OW 9702   4.482   0.202   4.562 -0.8225  0.1473 -0.3439
 2408SOL    HW2 9703   4.400   0.154   4.548 -0.1658 -1.4803  1.1169
 2408SOL    HW3 9704   4.456   0.286   4.599 -1.8141 -0.5082  0.4533
 2408SOL    MW4 9705   4.468   0.206   4.565 -0.8667 -0.1540 -0.0458
 2409SOL     OW 9706   0.013   0.411   4.167 -0.4150  0.0583  0.2056
 2409SOL    HW2 9707   0.097   0.455   4.178 -1.5091  1.6398  2.6815
 2409SOL    HW3 9708   0.010   0.389   4.074  2.2964  0.8446 -0.1244
 2409SOL    MW4 9709   0.024   0.414   4.156 -0.2017  0.3707  0.4892
 2410SOL     OW 9710   1.023   0.539   4.426  0.1093 -0.3094  0.2361
 2410SOL    HW2 9711   1.004   0.631   4.443 -0.5820  0.0504 -2.3021
 2410SOL    HW3 9712   0.961   0.491   4.481 -0.3298  0.7533  0.6790
 2410SOL    MW4 9713   1.013   0.545   4.435 -0.0398 -0.1217 -0.0401
 2411SOL     OW 9714   0.230   0.787   4.155 -0.4971  0.3741 -0.1663
 2411SOL    HW2 9715   0.230   0.696   4.186  0.0982  0.1441 -0.8335
 2411SOL    HW3 9716   0.158   0.828   4.203 -0.9420 -0.5162 -0.0529
 2411SOL    MW4 9717   0.220   0.780   4.166 -0.4773  0.2263 -0.2389
 2412SOL     OW 9718   0.002   0.887   4.275  0.4745  0.3023 -0.1418
 2412SOL    HW2 9719  -0.062   0.830   4.232 -0.6122  0.2532  1.4836
 2412SOL    HW3 9720  -0.015   0.974   4.239 -0.6992  0.3370  0.4730
 2412SOL    MW4 9721  -0.009   0.891   4.265  0.1760  0.3004  0.1535
 2413SOL     OW 9722   4.438   1.149   4.219  0.2082  0.0621 -0.2621
 2413SOL    HW2 9723   4.514   1.193   4.258  0.0005 -0.4248  0.6978
 2413SOL    HW3 9724   4.451   1.159   4.125  2.1538 -1.1641 -0.1531
 2413SOL    MW4 9725   4.450   1.156   4.212  0.4373 -0.1638 -0.1206
 2414SOL     OW 9726   0.694   2.332   4.175  0.0056  0.1158 -0.2301
 2414SOL    HW2 9727   0.689   2.332   4.080  0.0188 -0.0337 -0.2300
 2414SOL    HW3 9728   0.673   2.242   4.201 -0.6772  0.3153 -0.0605
 2414SOL    MW4 9729   0.691   2.320   4.166 -0.0827  0.1221 -0.2079
 2415SOL     OW 9730   2.480   3.417   4.662 -0.0682 -0.5614  0.5208
 2415SOL    HW2 9731   2.419   3.470   4.610 -0.7788 -0.6551  1.2642
 2415SOL    HW3 9732   2.522   3.360   4.597  1.7714  1.8652 -0.5284
 2415SOL    MW4 9733   2.478   3.416   4.646  0.0808 -0.2537  0.4811
 2416SOL     OW 9734   3.899   0.572   4.557 -0.0095 -0.0881 -0.1047
 2416SOL    HW2 9735   3.988   0.607   4.554  0.4961 -1.3872 -0.5470
 2416SOL    HW3 9736   3.909   0.484   4.593 -1.3361  0.4121  1.5225
 2416SOL    MW4 9737   3.912   0.565   4.561 -0.1180 -0.1935  0.0520
 2417SOL     OW 9738   0.230   2.119   4.283  0.0962  0.4654  0.1301
 2417SOL    HW2 9739   0.229   2.133   4.377  1.0155  0.4868  0.1369
 2417SOL    HW3 9740   0.313   2.076   4.266  0.4812  1.5796 -0.8403
 2417SOL    MW4 9741   0.241   2.115   4.293  0.2683  0.6151  0.0029
 2418SOL     OW 9742   0.222   3.079   4.167  0.6837 -0.1155  0.0598
 2418SOL    HW2 9743   0.214   2.986   4.190  0.7805  0.0688  0.8441
 2418SOL    HW3 9744   0.133   3.113   4.174  0.3948 -0.4526 -1.6077
 2418SOL    MW4 9745   0.209   3.071   4.171  0.6584 -0.1357 -0.0572
 2419SOL     OW 9746   0.456   2.325   4.511  0.0617 -0.1925  0.5433
 2419SOL    HW2 9747   0.513   2.248   4.502  0.9805  0.7419 -2.1154
 2419SOL    HW3 9748   0.515   2.397   4.531 -0.4639  0.3507  0.1547
 2419SOL    MW4 9749   0.471   2.324   4.512  0.1136  0.0024  0.1416
 2420SOL     OW 9750   4.487   2.455   4.248 -0.6164  0.6872  0.5355
 2420SOL    HW2 9751   4.558   2.427   4.191  0.1008  2.1800  0.6628
 2420SOL    HW3 9752   4.411   2.405   4.218  0.4152 -0.7221  0.2264
 2420SOL    MW4 9753   4.486   2.445   4.237 -0.3853  0.6981  0.5121
 2421SOL     OW 9754   0.006   2.753   4.219 -0.2428  0.3460  0.4877
 2421SOL    HW2 9755   0.084   2.792   4.258  0.5604  0.5543 -1.2502
 2421SOL    HW3 9756   0.012   2.660   4.239  0.4032  0.3793  0.4456
 2421SOL    MW4 9757   0.017   2.746   4.227 -0.0516  0.3781  0.2527
 2422SOL     OW 9758   0.654   3.391   4.510  0.2668 -0.0190  0.4060
 2422SOL    HW2 9759   0.674   3.434   4.427 -1.9132 -1.9956 -1.1986
 2422SOL    HW3 9760   0.710   3.313   4.511  0.7433  0.3203  1.1057
 2422SOL    MW4 9761   0.664   3.386   4.500  0.0421 -0.2353  0.2866
 2423SOL     OW 9762   0.077   2.491   4.531 -0.1549 -0.0157  0.3109
 2423SOL    HW2 9763   0.093   2.584   4.545 -2.1720  0.2410  0.9617
 2423SOL    HW3 9764   0.045   2.485   4.441 -0.4333 -0.0277  0.4100
 2423SOL    MW4 9765   0.075   2.502   4.521 -0.4578  0.0165  0.4096
 2424SOL     OW 9766   4.451   3.210   4.189 -0.4775  0.0328  0.6218
 2424SOL    HW2 9767   4.360   3.188   4.168 -0.0220 -0.1258 -1.1981
 2424SOL    HW3 9768   4.459   3.303   4.167  0.0449 -0.1676 -0.0153
 2424SOL    MW4 9769   4.440   3.219   4.184 -0.3486 -0.0148  0.2980
 2425SOL     OW 9770   4.483   3.478   4.133 -0.2204 -0.0633  0.1831
 2425SOL    HW2 9771   4.550   3.528   4.180 -1.1312  2.4015 -1.0666
 2425SOL    HW3 9772   4.401   3.521   4.157 -1.1333 -1.6062 -0.1393
 2425SOL    MW4 9773   4.481   3.490   4.142 -0.4606  0.0584 -0.0243
 2426SOL     OW 9774   0.196   3.620   4.260 -0.1109  0.1073 -0.3943
 2426SOL    HW2 9775   0.186   3.651   4.350  2.5015  0.4054 -0.1678
 2426SOL    HW3 9776   0.273   3.564   4.262 -0.8285 -1.0026 -2.1930
 2426SOL    MW4 9777   0.205   3.617   4.272  0.1391  0.0002 -0.6018
 2427SOL     OW 9778   0.198   3.869   4.134 -0.1803  0.2279  0.3340
 2427SOL    HW2 9779   0.211   3.784   4.176  0.6512  0.4082  0.4412
 2427SOL    HW3 9780   0.127   3.910   4.184 -0.4370 -0.3095  0.4157
 2427SOL    MW4 9781   0.190   3.863   4.146 -0.1044  0.1810  0.3591
 2428SOL     OW 9782   4.475   4.010   4.270  0.3657 -0.2220  0.0297
 2428SOL    HW2 9783   4.404   3.963   4.227  0.2754  0.3345 -0.4424
 2428SOL    HW3 9784   4.479   4.094   4.224  0.7203  0.1104  0.6614
 2428SOL    MW4 9785   4.467   4.015   4.258  0.4005 -0.1049  0.0505
 2429SOL     OW 9786   4.476   4.271   4.140 -0.3222  0.3807  0.2148
 2429SOL    HW2 9787   4.466   4.278   4.046 -0.5334 -2.2914 -0.0189
 2429SOL    HW3 9788   4.553   4.323   4.161  0.3851  0.0710 -1.5964
 2429SOL    MW4 9789   4.485   4.279   4.131 -0.2565 -0.0124 -0.0558
 2430SOL     OW 9790   1.266   4.449   4.489  0.2459 -0.3949  0.3636
 2430SOL    HW2 9791   1.206   4.402   4.548  0.3132 -0.3143  0.4976
 2430SOL    HW3 9792   1.351   4.409   4.507  0.2298 -0.5180  0.1638
 2430SOL    MW4 9793   1.269   4.437   4.499  0.2526 -0.4010  0.3552
 2431SOL     OW 9794   0.674   4.594   4.219  0.2868  0.6124  0.3076
 2431SOL    HW2 9795   0.613   4.667   4.232  0.9758  1.3926 -0.7914
 2431SOL    HW3 9796   0.686   4.589   4.124  1.1213 -0.2040  0.4511
 2431SOL    MW4 9797   0.667   4.603   4.208  0.4878  0.6080  0.1812
 2432SOL     OW 9798   0.476   0.139   4.263 -0.2123  0.2964  0.5223
 2432SOL    HW2 9799   0.449   0.158   4.353  1.7203  0.3735  1.0981
 2432SOL    HW3 9800   0.476   0.224   4.219  1.1575  0.5931  1.0905
 2432SOL    MW4 9801   0.472   0.152   4.269  0.2234  0.3457  0.6733
 2433SOL     OW 9802   0.461   0.396   4.123 -0.0600 -0.2002  0.6619
 2433SOL    HW2 9803   0.545   0.434   4.149 -0.7477  1.7753  0.0159
 2433SOL    HW3 9804   0.466   0.390   4.027 -1.0096  0.7549  0.5503
 2433SOL    MW4 9805   0.473   0.400   4.114 -0.2760  0.1864  0.5617
 2434SOL     OW 9806   0.411   1.203   4.658 -0.1312 -0.2612 -0.0771
 2434SOL    HW2 9807   0.416   1.113   4.625 -0.9836 -0.4280  0.2421
 2434SOL    HW3 9808   0.494   1.243   4.631  0.3990 -1.2399  0.0849
 2434SOL    MW4 9809   0.422   1.197   4.650 -0.1737 -0.4123 -0.0129
 2435SOL     OW 9810   0.696   0.491   4.213  0.2891 -0.3314 -0.4103
 2435SOL    HW2 9811   0.706   0.586   4.211  0.1489 -0.3314 -1.8125
 2435SOL    HW3 9812   0.778   0.457   4.177 -0.2200 -0.6874 -1.2526
 2435SOL    MW4 9813   0.708   0.499   4.208  0.2034 -0.3784 -0.7067
 2436SOL     OW 9814   0.438   0.925   4.281 -0.6291  0.1390 -0.2289
 2436SOL    HW2 9815   0.419   1.014   4.249 -0.2572  0.0190 -0.7920
 2436SOL    HW3 9816   0.368   0.871   4.245 -0.3313  0.0423 -0.6713
 2436SOL    MW4 9817   0.426   0.930   4.272 -0.5408  0.1104 -0.3614
 2437SOL     OW 9818   0.431   1.191   4.190 -0.4455  0.0000 -0.1611
 2437SOL    HW2 9819   0.517   1.221   4.219 -1.1279  1.2867  0.6106
 2437SOL    HW3 9820   0.445   1.157   4.102  0.7993  0.4503 -0.1476
 2437SOL    MW4 9821   0.444   1.190   4.182 -0.3713  0.2292 -0.0572
 2438SOL     OW 9822   0.630   1.557   4.130  0.3005 -0.0629 -0.3287
 2438SOL    HW2 9823   0.554   1.611   4.152 -0.0760 -0.4453 -0.7116
 2438SOL    HW3 9824   0.627   1.548   4.035  0.4247 -0.6869 -0.2701
 2438SOL    MW4 9825   0.620   1.563   4.120  0.2671 -0.1957 -0.3710
 2439SOL     OW 9826   0.447   1.946   4.211 -0.3122 -0.0894 -0.1422
 2439SOL    HW2 9827   0.434   1.857   4.245 -0.9785 -0.0080 -0.1878
 2439SOL    HW3 9828   0.434   1.938   4.117  0.1054 -0.0361 -0.2032
 2439SOL    MW4 9829   0.444   1.933   4.203 -0.3450 -0.0718 -0.1564
 2440SOL     OW 9830   0.186   1.549   4.151  0.2352 -0.1638  0.0602
 2440SOL    HW2 9831   0.186   1.464   4.194  2.5859  1.3638  3.3336
 2440SOL    HW3 9832   0.118   1.599   4.196  0.6626  0.5214 -0.0400
 2440SOL    MW4 9833   0.177   1.545   4.163  0.6017  0.1281  0.4787
 2441SOL     OW 9834   0.677   2.059   4.277  0.3351 -0.2944 -0.2157
 2441SOL    HW2 9835   0.588   2.026   4.265 -0.1006  0.8920 -0.3488
 2441SOL    HW3 9836   0.733   1.992   4.238 -0.5730 -0.4718 -1.2416
 2441SOL    MW4 9837   0.672   2.046   4.270  0.1578 -0.1612 -0.3686
 2442SOL     OW 9838   0.874   2.098   4.650 -0.4188 -0.0365  0.4725
 2442SOL    HW2 9839   0.955   2.084   4.601 -1.4628 -2.1470 -0.7058
 2442SOL    HW3 9840   0.885   2.045   4.730 -0.8853 -0.8390  0.0103
 2442SOL    MW4 9841   0.886   2.089   4.654 -0.6181 -0.4208  0.2556
 2443SOL     OW 9842   0.418   2.432   4.250 -0.1384 -0.5400  0.2307
 2443SOL    HW2 9843   0.417   2.412   4.343  0.3196  1.3903  0.6725
 2443SOL    HW3 9844   0.508   2.413   4.222 -0.0631 -0.3734  0.3586
 2443SOL    MW4 9845   0.430   2.427   4.258 -0.0681 -0.2632  0.3057
 2444SOL     OW 9846   0.199   2.335   4.102  0.0058 -0.8255  0.2484
 2444SOL    HW2 9847   0.279   2.361   4.147  0.6389 -0.8145 -0.8570
 2444SOL    HW3 9848   0.174   2.252   4.142  0.5146 -0.7778  0.6632
 2444SOL    MW4 9849   0.206   2.328   4.113  0.1564 -0.8178  0.1578
 2445SOL     OW 9850   0.484   2.691   4.163 -0.1253 -0.0278  0.5174
 2445SOL    HW2 9851   0.444   2.607   4.187  0.4019 -0.3742  0.1905
 2445SOL    HW3 9852   0.458   2.706   4.072  0.2030 -0.0875  0.4126
 2445SOL    MW4 9853   0.476   2.682   4.154 -0.0125 -0.0813  0.4611
 2446SOL     OW 9854   0.707   2.816   4.265 -0.0975 -0.2142 -0.2498
 2446SOL    HW2 9855   0.632   2.768   4.229 -0.8954  0.4159  0.5170
 2446SOL    HW3 9856   0.700   2.904   4.228  0.2424 -0.1457 -0.1548
 2446SOL    MW4 9857   0.696   2.821   4.256 -0.1580 -0.1221 -0.1359
 2447SOL     OW 9858   0.276   2.825   4.261  0.2494 -0.7118 -0.2779
 2447SOL    HW2 9859   0.288   2.845   4.354 -0.4533  0.9722 -0.5282
 2447SOL    HW3 9860   0.359   2.784   4.235  1.4979  1.2137  0.4780
 2447SOL    MW4 9861   0.289   2.823   4.270  0.3214 -0.2356 -0.2117
 2448SOL     OW 9862   4.423   2.886   4.528 -0.0351  0.4847 -0.1469
 2448SOL    HW2 9863   4.488   2.855   4.592  0.4151  0.4667 -0.6083
 2448SOL    HW3 9864   4.445   2.978   4.515  1.6678 -0.2195 -2.4182
 2448SOL    MW4 9865   4.435   2.894   4.535  0.2484  0.3898 -0.5069
 2449SOL     OW 9866   0.439   3.462   4.168 -0.3006  0.2113 -0.0825
 2449SOL    HW2 9867   0.456   3.369   4.184  0.1922 -0.0049 -1.7692
 2449SOL    HW3 9868   0.438   3.470   4.073 -1.2083  1.7875  0.0459
 2449SOL    MW4 9869   0.441   3.451   4.157 -0.3554  0.3908 -0.2880
 2450SOL     OW 9870   3.995   3.020   4.527 -0.3151  0.1690 -0.1736
 2450SOL    HW2 9871   3.909   3.040   4.565  0.0905  1.2981  0.1659
 2450SOL    HW3 9872   3.998   3.071   4.446  0.6696  1.4266  0.6281
 2450SOL    MW4 9873   3.984   3.029   4.521 -0.1316  0.4840 -0.0234
 2451SOL     OW 9874   0.409   4.034   4.249  0.2772  0.3476 -0.6047
 2451SOL    HW2 9875   0.404   4.130   4.245  1.6611  0.3895 -1.4220
 2451SOL    HW3 9876   0.331   4.005   4.202  0.0239  1.0691 -0.6395
 2451SOL    MW4 9877   0.398   4.043   4.242  0.4264  0.4482 -0.7167
 2452SOL     OW 9878   0.182   3.387   4.548 -0.7222 -0.0614 -0.7167
 2452SOL    HW2 9879   0.172   3.476   4.514 -1.2856  0.3538  0.5107
 2452SOL    HW3 9880   0.169   3.396   4.643 -0.1219 -1.3445 -0.5040
 2452SOL    MW4 9881   0.179   3.400   4.556 -0.7173 -0.1760 -0.5264
 2453SOL     OW 9882   0.422   4.304   4.190  0.0203 -0.2857  0.5833
 2453SOL    HW2 9883   0.345   4.357   4.210 -1.4864 -2.0871 -0.3029
 2453SOL    HW3 9884   0.419   4.291   4.095  0.0916 -2.3144  0.8333
 2453SOL    MW4 9885   0.411   4.309   4.180 -0.1691 -0.7906  0.4997
 2454SOL     OW 9886   4.259   4.400   4.242 -0.0533 -0.0592 -0.5957
 2454SOL    HW2 9887   4.323   4.355   4.186 -0.1969 -0.6013 -0.3230
 2454SOL    HW3 9888   4.255   4.489   4.207  0.7994 -0.0447 -0.6542
 2454SOL    MW4 9889   4.267   4.406   4.230  0.0410 -0.1287 -0.5665
 2455SOL     OW 9890   1.639   3.182   4.832  0.1474  0.1401  0.0771
 2455SOL    HW2 9891   1.547   3.159   4.828  0.0709  0.5311 -0.6730
 2455SOL    HW3 9892   1.686   3.099   4.823 -0.1245 -0.2690  2.2103
 2455SOL    MW4 9893   1.633   3.168   4.830  0.1013  0.1376  0.2594
 2456SOL     OW 9894   0.887   0.126   4.291  0.2411  0.2020  0.0338
 2456SOL    HW2 9895   0.812   0.067   4.284 -0.5474  1.1100  0.6804
 2456SOL    HW3 9896   0.957   0.083   4.242 -1.2829  0.2874 -2.2612
 2456SOL    MW4 9897   0.886   0.112   4.284 -0.0641  0.3331 -0.1836
 2457SOL     OW 9898   0.928   0.340   4.129 -0.3090  0.2171 -0.0373
 2457SOL    HW2 9899   1.010   0.386   4.144  0.4271 -0.9042 -0.5894
 2457SOL    HW3 9900   0.928   0.269   4.194 -0.4930 -0.2344 -0.5286
 2457SOL    MW4 9901   0.939   0.337   4.140 -0.2361  0.0095 -0.1755
 2458SOL     OW 9902   1.139   0.530   4.170  0.0384 -0.4334  0.1188
 2458SOL    HW2 9903   1.112   0.537   4.262 -0.6949 -0.4683 -0.0920
 2458SOL    HW3 9904   1.225   0.487   4.174 -0.1996 -0.8649  0.7623
 2458SOL    MW4 9905   1.147   0.525   4.183 -0.0899 -0.4949  0.1764
 2459SOL     OW 9906   1.133   0.812   4.132 -0.2586 -0.0983  0.6484
 2459SOL    HW2 9907   1.222   0.841   4.152 -0.7322  1.6022  0.4358
 2459SOL    HW3 9908   1.135   0.717   4.143  1.6680 -0.1174  0.2843
 2459SOL    MW4 9909   1.145   0.804   4.136 -0.0669  0.1236  0.5727
 2460SOL     OW 9910   0.706   0.769   4.170  0.5562  0.1076 -0.3407
 2460SOL    HW2 9911   0.711   0.761   4.075  1.7858 -1.6193 -0.1644
 2460SOL    HW3 9912   0.626   0.819   4.186 -0.8713 -1.4945 -2.2081
 2460SOL    MW4 9913   0.696   0.774   4.160  0.5301 -0.3316 -0.5636
 2461SOL     OW 9914   0.911   1.216   4.191 -0.4268 -0.0976  0.0915
 2461SOL    HW2 9915   0.915   1.123   4.211  0.4239 -0.0575  0.0882
 2461SOL    HW3 9916   0.989   1.253   4.232 -1.3419  0.8011  1.0789
 2461SOL    MW4 9917   0.922   1.209   4.199 -0.4354  0.0262  0.2213
 2462SOL     OW 9918   1.833   0.873   4.272 -0.0275 -0.1409 -0.0113
 2462SOL    HW2 9919   1.915   0.826   4.254  0.9026  1.3484  0.2024
 2462SOL    HW3 9920   1.839   0.896   4.365  0.7096  2.5297 -0.6662
 2462SOL    MW4 9921   1.845   0.870   4.282  0.1924  0.4079 -0.0701
 2463SOL     OW 9922   4.188   1.225   4.560  0.0282  0.0905  0.0878
 2463SOL    HW2 9923   4.193   1.262   4.472  0.2553  0.8462  0.4121
 2463SOL    HW3 9924   4.149   1.139   4.548  2.0792 -0.7171 -1.0244
 2463SOL    MW4 9925   4.183   1.218   4.547  0.3285  0.0837 -0.0157
 2464SOL     OW 9926   0.711   0.910   4.664 -0.0289  0.3071  0.1846
 2464SOL    HW2 9927   0.791   0.875   4.623  0.3384  1.3815 -0.0331
 2464SOL    HW3 9928   0.741   0.987   4.713 -1.0050  1.0110 -0.3093
 2464SOL    MW4 9929   0.726   0.915   4.665 -0.1093  0.5417  0.0911
 2465SOL     OW 9930   1.347   1.683   4.259  0.4579  0.0942 -0.5471
 2465SOL    HW2 9931   1.434   1.660   4.228  1.0082  0.7476  0.4825
 2465SOL    HW3 9932   1.292   1.610   4.232  1.2447 -0.1313 -1.5626
 2465SOL    MW4 9933   1.351   1.670   4.251  0.6344  0.1507 -0.5455
 2466SOL     OW 9934   1.608   1.027   4.760 -0.0912  0.3312  0.2843
 2466SOL    HW2 9935   1.518   1.011   4.788 -0.3003  0.3078 -0.3991
 2466SOL    HW3 9936   1.625   1.118   4.784  0.6088 -0.4506  2.8642
 2466SOL    MW4 9937   1.598   1.037   4.767 -0.0265  0.2251  0.5345
 2467SOL     OW 9938   0.879   1.889   4.158 -0.2650  0.1202  0.3318
 2467SOL    HW2 9939   0.891   1.898   4.064 -0.5870 -0.8410  0.1916
 2467SOL    HW3 9940   0.945   1.948   4.196  0.4169 -0.0968 -0.4816
 2467SOL    MW4 9941   0.890   1.898   4.151 -0.2174 -0.0352  0.2060
 2468SOL     OW 9942   0.947   2.415   4.299 -0.4898  0.0201  0.0829
 2468SOL    HW2 9943   0.935   2.408   4.394 -0.5335 -1.4242 -0.0262
 2468SOL    HW3 9944   0.867   2.379   4.262 -0.9044  1.5227 -0.5008
 2468SOL    MW4 9945   0.935   2.410   4.307 -0.5503  0.0279 -0.0091
 2469SOL     OW 9946   0.924   2.670   4.144  0.3847  0.0202 -0.2096
 2469SOL    HW2 9947   0.935   2.590   4.195 -1.1941 -0.0020  0.1214
 2469SOL    HW3 9948   0.850   2.715   4.184  1.2893  1.6967 -0.3578
 2469SOL    MW4 9949   0.916   2.665   4.156  0.2957  0.2384 -0.1855
 2470SOL     OW 9950   1.142   3.105   4.144  0.0320 -0.5155 -0.1363
 2470SOL    HW2 9951   1.148   3.010   4.158 -1.3103 -0.7148 -0.8430
 2470SOL    HW3 9952   1.144   3.115   4.049  1.7475  0.3006 -0.0357
 2470SOL    MW4 9953   1.143   3.094   4.133  0.0813 -0.4339 -0.2160
 2471SOL     OW 9954   0.906   3.214   4.216  0.3954 -0.7164 -0.3380
 2471SOL    HW2 9955   0.908   3.307   4.196 -1.1220 -0.5353  0.2809
 2471SOL    HW3 9956   0.992   3.181   4.188  1.7105  1.2284  1.3612
 2471SOL    MW4 9957   0.917   3.222   4.209  0.3687 -0.4356 -0.0319
 2472SOL     OW 9958   1.170   2.875   4.480  0.8200 -0.1310 -0.3292
 2472SOL    HW2 9959   1.242   2.935   4.497  1.0303 -0.5030  0.1055
 2472SOL    HW3 9960   1.164   2.871   4.385  0.7360  0.6528 -0.3618
 2472SOL    MW4 9961   1.179   2.882   4.470  0.8366 -0.0768 -0.2766
 2473SOL     OW 9962   0.694   3.533   4.261 -0.0642  0.1163  0.5195
 2473SOL    HW2 9963   0.610   3.526   4.214  0.9379  0.2986 -1.3349
 2473SOL    HW3 9964   0.682   3.606   4.321 -0.4725  1.6655 -1.4051
 2473SOL    MW4 9965   0.681   3.542   4.262  0.0142  0.3448  0.0210
 2474SOL     OW 9966   0.956   3.490   4.138  0.3022 -0.3055 -0.9001
 2474SOL    HW2 9967   0.948   3.502   4.043  0.2361 -0.7361 -0.9509
 2474SOL    HW3 9968   0.868   3.508   4.171 -0.0752 -1.6619 -1.0928
 2474SOL    MW4 9969   0.943   3.494   4.130  0.2437 -0.5412 -0.9322
 2475SOL     OW 9970   1.152   3.639   4.277  0.0980  0.0658  0.0219
 2475SOL    HW2 9971   1.134   3.720   4.230 -0.6251 -0.1848 -0.1492
 2475SOL    HW3 9972   1.083   3.579   4.248 -1.0211  0.2424  2.2097
 2475SOL    MW4 9973   1.140   3.642   4.267 -0.1450  0.0560  0.2880
 2476SOL     OW 9974   2.513   1.178   4.512  0.1431  0.7144  0.0202
 2476SOL    HW2 9975   2.580   1.109   4.513  0.4472  1.0078  0.2240
 2476SOL    HW3 9976   2.501   1.198   4.419  1.6837  1.9364  0.0505
 2476SOL    MW4 9977   2.521   1.171   4.500  0.3862  0.9143  0.0515
 2477SOL     OW 9978   0.650   3.938   4.176  0.1547  0.0667 -0.2636
 2477SOL    HW2 9979   0.659   3.875   4.247  0.5605  0.4391  0.0184
 2477SOL    HW3 9980   0.566   3.981   4.193 -0.3266 -0.6916 -0.6975
 2477SOL    MW4 9981   0.640   3.935   4.188  0.1447  0.0155 -0.2837
 2478SOL     OW 9982   1.370   4.010   4.278  0.3118  0.3125  0.0039
 2478SOL    HW2 9983   1.402   4.035   4.365 -2.1494  0.5760  0.8703
 2478SOL    HW3 9984   1.343   4.092   4.237 -0.2868 -0.0118 -0.2696
 2478SOL    MW4 9985   1.371   4.024   4.284 -0.0919  0.3042  0.0830
 2479SOL     OW 9986   1.560   4.614   4.148  0.0623 -0.2034  0.0008
 2479SOL    HW2 9987   1.486   4.660   4.187 -0.6763 -0.5216 -0.9989
 2479SOL    HW3 9988   1.558   4.527   4.188 -1.2322 -0.8258 -1.3790
 2479SOL    MW4 9989   1.550   4.609   4.158 -0.2060 -0.3276 -0.3123
 2480SOL     OW 9990   1.345   0.126   4.240 -0.4251  0.2071  0.1255
 2480SOL    HW2 9991   1.343   0.120   4.335 -0.6517  0.4306  0.1381
 2480SOL    HW3 9992   1.259   0.095   4.212 -1.1513  2.1237  0.1280
 2480SOL    MW4 9993   1.333   0.121   4.249 -0.5509  0.4894  0.1278
 2481SOL     OW 9994   1.377   0.381   4.126 -0.3206 -0.2248 -0.0493
 2481SOL    HW2 9995   1.448   0.417   4.180 -0.2786  1.0891 -0.9725
 2481SOL    HW3 9996   1.362   0.293   4.162  1.0759 -0.1249  0.8099
 2481SOL    MW4 9997   1.384   0.374   4.138 -0.1310 -0.0383 -0.0577
 2482SOL     OW 9998   1.182   0.959   4.604  0.7222 -0.0601  0.0215
 2482SOL    HW2 9999   1.221   0.974   4.690  0.1517 -0.0303  0.2722
 2482SOL    HW310000   1.148   1.044   4.578 -0.3783 -0.3810  0.3945
 2482SOL    MW410001   1.183   0.972   4.612  0.5018 -0.0985  0.1035
 2483SOL     OW10002   1.360   1.157   4.172  0.0136  0.2812  0.4003
 2483SOL    HW210003   1.360   1.061   4.167 -0.6120  0.3233 -0.4876
 2483SOL    HW310004   1.429   1.177   4.236  0.0264 -0.7630  0.7333
 2483SOL    MW410005   1.369   1.147   4.180 -0.0674  0.1490  0.3271
 2484SOL     OW10006   1.621   0.741   4.156  0.1778 -0.6681  0.0272
 2484SOL    HW210007   1.696   0.787   4.193 -0.7831  1.2701 -0.3156
 2484SOL    HW310008   1.631   0.752   4.061 -0.8902  0.2321  0.0032
 2484SOL    MW410009   1.632   0.749   4.148 -0.0899 -0.2936 -0.0215
 2485SOL     OW10010   1.395   0.886   4.175  0.2177 -0.0282 -0.2895
 2485SOL    HW210011   1.383   0.892   4.270 -0.4806 -0.5501 -0.3393
 2485SOL    HW310012   1.468   0.825   4.164 -0.1703 -0.5284 -0.1052
 2485SOL    MW410013   1.403   0.879   4.186  0.0744 -0.1630 -0.2713
 2486SOL     OW10014   1.121   1.242   4.552 -0.1155  0.6725  0.0531
 2486SOL    HW210015   1.195   1.292   4.586 -0.2333  0.8926 -0.0163
 2486SOL    HW310016   1.044   1.289   4.583 -0.2257  0.6836 -0.2340
 2486SOL    MW410017   1.120   1.255   4.561 -0.1454  0.7030  0.0057
 2487SOL     OW10018   1.833   1.492   4.465 -0.5811  0.4497  0.0328
 2487SOL    HW210019   1.908   1.551   4.452 -1.3950  1.3447 -0.6717
 2487SOL    HW310020   1.818   1.453   4.379 -0.6974  0.0014  0.2571
 2487SOL    MW410021   1.841   1.495   4.452 -0.7039  0.5087 -0.0305
 2488SOL     OW10022   2.094   1.512   4.812  0.4616  0.7731 -0.3278
 2488SOL    HW210023   2.049   1.596   4.804  0.0101  0.4133 -1.7557
 2488SOL    HW310024   2.086   1.490   4.905 -0.3907  1.7735 -0.1482
 2488SOL    MW410025   2.087   1.520   4.823  0.2897  0.8576 -0.4926
 2489SOL     OW10026   1.375   1.947   4.174 -0.3223 -0.1640  0.1830
 2489SOL    HW210027   1.434   1.990   4.237  0.1388  0.7760 -0.8821
 2489SOL    HW310028   1.368   1.857   4.206  0.9162 -0.0279  0.8617
 2489SOL    MW410029   1.382   1.941   4.187 -0.0980 -0.0219  0.1316
 2490SOL     OW10030   1.138   2.274   4.122 -0.3119  0.0797 -0.2671
 2490SOL    HW210031   1.155   2.190   4.164  2.1744  1.1743  0.9659
 2490SOL    HW310032   1.068   2.312   4.174 -2.0691 -1.5511 -1.3474
 2490SOL    MW410033   1.131   2.268   4.134 -0.2156  0.0091 -0.2465
 2491SOL     OW10034   2.715   2.481   4.503  0.2162  0.0866 -0.4116
 2491SOL    HW210035   2.771   2.558   4.503  1.1040 -0.5113  1.9747
 2491SOL    HW310036   2.627   2.515   4.522  0.5067  0.5628  0.0728
 2491SOL    MW410037   2.711   2.495   4.505  0.3717  0.0703 -0.0334
 2492SOL     OW10038   1.392   2.680   5.009  0.0049 -0.2283  0.6945
 2492SOL    HW210039   1.447   2.673   5.087  1.1824  0.8648 -0.0290
 2492SOL    HW310040   1.450   2.658   4.936 -0.2506  1.8713 -0.1707
 2492SOL    MW410041   1.407   2.676   5.010  0.1267  0.1931  0.4849
 2493SOL     OW10042   1.367   2.658   4.103 -0.2285  0.5173  0.3018
 2493SOL    HW210043   1.439   2.683   4.161  1.3677 -1.1771 -0.9016
 2493SOL    HW310044   1.337   2.574   4.138 -0.2518  0.2218 -0.4402
 2493SOL    MW410045   1.372   2.650   4.116 -0.0211  0.2549  0.0453
 2494SOL     OW10046   1.582   3.027   4.179  0.3284  0.0517 -0.1292
 2494SOL    HW210047   1.673   3.055   4.183  0.6000 -0.8386 -0.0053
 2494SOL    HW310048   1.533   3.100   4.218  0.8823  0.9665 -1.0992
 2494SOL    MW410049   1.587   3.041   4.185  0.4373  0.0548 -0.2408
 2495SOL     OW10050   1.426   3.014   4.561  0.5787 -0.3763  0.2349
 2495SOL    HW210051   1.512   3.006   4.520  0.5427 -0.3748  0.1591
 2495SOL    HW310052   1.445   3.047   4.650  0.6628 -0.4692  0.2520
 2495SOL    MW410053   1.440   3.018   4.568  0.5852 -0.3881  0.2270
 2496SOL     OW10054   1.149   2.421   4.724 -0.2841  0.2274  0.2983
 2496SOL    HW210055   1.210   2.413   4.798 -1.0936  1.1756  1.0950
 2496SOL    HW310056   1.179   2.500   4.678  0.5656 -0.6861 -0.7201
 2496SOL    MW410057   1.161   2.431   4.728 -0.2788  0.2322  0.2689
 2497SOL     OW10058   1.350   3.507   4.134 -0.4536 -0.0718 -0.1575
 2497SOL    HW210059   1.283   3.565   4.169  0.1489  1.1868 -1.0383
 2497SOL    HW310060   1.324   3.491   4.043  0.8015  1.0559 -0.7495
 2497SOL    MW410061   1.338   3.512   4.126 -0.2084  0.2429 -0.3514
 2498SOL     OW10062   1.565   3.562   4.288  0.6171 -0.0736  0.0052
 2498SOL    HW210063   1.641   3.516   4.254  0.4054 -1.0917  0.8899
 2498SOL    HW310064   1.497   3.548   4.222  1.0342  0.3724 -0.5204
 2498SOL    MW410065   1.566   3.554   4.275  0.6442 -0.1493  0.0525
 2499SOL     OW10066   1.544   3.834   4.164  0.0116  0.2925 -0.5057
 2499SOL    HW210067   1.485   3.892   4.212  0.5305  0.1971  0.2589
 2499SOL    HW310068   1.549   3.755   4.217  0.3667  0.0775 -0.8576
 2499SOL    MW410069   1.537   3.832   4.177  0.1268  0.2515 -0.4506
 2500SOL     OW10070   2.235   4.446   4.720  0.5038  0.5265  0.5868
 2500SOL    HW210071   2.306   4.460   4.658  0.2908 -0.6973  0.0550
 2500SOL    HW310072   2.264   4.373   4.774 -0.7129 -0.5775 -0.2145
 2500SOL    MW410073   2.248   4.438   4.719  0.3154  0.2193  0.4110
 2501SOL     OW10074   1.340   4.243   4.154 -0.1391 -0.5755  0.0392
 2501SOL    HW210075   1.420   4.290   4.177 -0.6340  0.0490  0.5029
 2501SOL    HW310076   1.340   4.241   4.059 -0.4088  0.8755  0.0078
 2501SOL    MW410077   1.351   4.249   4.145 -0.2400 -0.3009  0.0963
 2502SOL     OW10078   1.632   0.257   4.776  0.0087  0.2714  0.0618
 2502SOL    HW210079   1.628   0.351   4.756 -0.4336  0.1425 -0.4468
 2502SOL    HW310080   1.712   0.248   4.828 -0.1598  0.9958  0.4609
 2502SOL    MW410081   1.642   0.268   4.781 -0.0720  0.3499  0.0467
 2503SOL     OW10082   2.007   4.635   4.185 -0.1616  0.1375  0.1475
 2503SOL    HW210083   1.926   4.683   4.204  0.7252  1.9213 -0.3827
 2503SOL    HW310084   1.998   4.610   4.093  0.6509  1.9318 -0.4381
 2503SOL    MW410085   1.995   4.638   4.175  0.0625  0.6099  0.0010
 2504SOL     OW10086   1.765   0.104   4.233  0.0409  0.5042 -0.3616
 2504SOL    HW210087   1.686   0.053   4.216 -0.6173  1.2722  0.3211
 2504SOL    HW310088   1.766   0.170   4.164  0.9208 -0.4492 -1.2766
 2504SOL    MW410089   1.755   0.106   4.222  0.0702  0.4797 -0.3924
 2505SOL     OW10090   1.805   0.356   4.099  0.3798  0.0321 -0.1897
 2505SOL    HW210091   1.870   0.373   4.167  0.4286  3.0515 -0.9073
 2505SOL    HW310092   1.725   0.399   4.131 -0.5877 -1.5620 -0.4287
 2505SOL    MW410093   1.803   0.364   4.112  0.2587  0.2201 -0.3161
 2506SOL     OW10094   1.991   0.455   4.293  0.5884  0.5732 -0.3304
 2506SOL    HW210095   1.998   0.471   4.387  0.7646  1.0409 -0.4253
 2506SOL    HW310096   2.080   0.438   4.264  0.6359  1.2209 -0.5608
 2506SOL    MW410097   2.003   0.455   4.301  0.6180  0.7204 -0.3738
 2507SOL     OW10098   0.428   1.619   4.539  0.6131  0.0216  0.5792
 2507SOL    HW210099   0.336   1.607   4.563  0.3172  0.7645 -0.1835
 2507SOL    HW310100   0.453   1.702   4.581  0.1239  1.2749 -1.5713
 2507SOL    MW410101   0.419   1.628   4.548  0.5095  0.2849  0.1950
 2508SOL     OW10102   2.055   0.723   4.196 -0.3749  0.5215 -0.1040
 2508SOL    HW210103   2.118   0.767   4.253 -0.6596  0.3367  0.3543
 2508SOL    HW310104   2.029   0.645   4.244 -0.7916  0.4813 -0.3887
 2508SOL    MW410105   2.060   0.719   4.210 -0.4675  0.4918 -0.0815
 2509SOL     OW10106   1.824   1.136   4.150  0.2568 -0.1673 -0.2491
 2509SOL    HW210107   1.910   1.172   4.173  0.0892  0.3905 -0.4795
 2509SOL    HW310108   1.821   1.051   4.193  0.5353  0.2336  0.5766
 2509SOL    MW410109   1.835   1.129   4.159  0.2713 -0.0408 -0.1712
 2510SOL     OW10110   2.431   1.538   4.184 -0.1754 -0.0707  0.0871
 2510SOL    HW210111   2.432   1.549   4.089  1.1108 -1.5884 -0.1087
 2510SOL    HW310112   2.519   1.564   4.212  0.8531 -3.5171  0.3168
 2510SOL    MW410113   2.443   1.543   4.175  0.1299 -0.7256  0.0916
 2511SOL     OW10114   2.070   1.668   4.493  0.1826  0.1534 -0.3144
 2511SOL    HW210115   2.103   1.646   4.406  1.7513  3.2526 -0.5725
 2511SOL    HW310116   2.144   1.711   4.536 -0.9832 -0.1758  2.0971
 2511SOL    MW410117   2.084   1.671   4.488  0.2360  0.5189 -0.0296
 2512SOL     OW10118   2.009   1.732   4.086 -0.6274 -0.5370 -0.2523
 2512SOL    HW210119   1.990   1.692   4.002 -0.2074  1.6086 -1.3947
 2512SOL    HW310120   1.923   1.747   4.126 -0.8878 -0.0999 -0.9817
 2512SOL    MW410121   1.995   1.728   4.080 -0.6064 -0.1963 -0.4992
 2513SOL     OW10122   1.305   0.045   4.492  0.0437 -0.0023  0.1059
 2513SOL    HW210123   1.301  -0.050   4.490  1.8769 -0.1175  0.7113
 2513SOL    HW310124   1.243   0.070   4.561 -0.0048 -0.7914  0.3559
 2513SOL    MW410125   1.296   0.036   4.501  0.2792 -0.1217  0.2189
 2514SOL     OW10126   0.598   1.372   4.560  0.2188  0.2577 -0.1896
 2514SOL    HW210127   0.545   1.451   4.560  0.8730  0.7065  0.1214
 2514SOL    HW310128   0.604   1.347   4.468  0.7108  1.0576 -0.3809
 2514SOL    MW410129   0.592   1.379   4.548  0.3700  0.4225 -0.1736
 2515SOL     OW10130   1.582   1.603   4.142 -0.1481 -0.0029  0.6910
 2515SOL    HW210131   1.629   1.520   4.156 -0.1228 -0.3125 -1.0416
 2515SOL    HW310132   1.645   1.671   4.168  0.2595 -0.4931  1.0025
 2515SOL    MW410133   1.597   1.601   4.147 -0.0911 -0.1085  0.5040
 2516SOL     OW10134   1.767   2.070   4.112  0.0054 -0.1555  0.2259
 2516SOL    HW210135   1.841   2.123   4.141 -0.2732  0.0486  0.5704
 2516SOL    HW310136   1.693   2.130   4.113 -0.0341 -0.1691 -0.8200
 2516SOL    MW410137   1.767   2.085   4.116 -0.0367 -0.1302  0.1335
 2517SOL     OW10138   1.344   2.409   4.264 -0.6586 -0.4840 -0.0602
 2517SOL    HW210139   1.267   2.364   4.230 -0.6051 -0.5793 -0.0554
 2517SOL    HW310140   1.417   2.374   4.214 -0.6766 -0.0417 -0.3971
 2517SOL    MW410141   1.343   2.399   4.253 -0.6540 -0.4382 -0.1040
 2518SOL     OW10142   1.219   2.853   4.858 -0.3766  0.6140  0.1367
 2518SOL    HW210143   1.255   2.800   4.929 -3.0153  0.0201  1.0775
 2518SOL    HW310144   1.217   2.795   4.783 -0.0349  0.4530  0.2480
 2518SOL    MW410145   1.224   2.839   4.858 -0.6797  0.5145  0.2756
 2519SOL     OW10146   2.007   2.801   4.234  0.3440  0.3759  0.2112
 2519SOL    HW210147   1.938   2.752   4.188 -0.2479  1.4956 -0.1115
 2519SOL    HW310148   1.980   2.801   4.325  1.6234 -2.0285  0.6275
 2519SOL    MW410149   1.994   2.794   4.240  0.4348  0.2062  0.2236
 2520SOL     OW10150   1.832   3.143   4.200  0.0895  0.0608 -0.1123
 2520SOL    HW210151   1.847   3.160   4.293 -0.1583 -0.1007 -0.0415
 2520SOL    HW310152   1.919   3.126   4.163 -0.0335 -2.0747  0.5265
 2520SOL    MW410153   1.845   3.143   4.207  0.0407 -0.2425 -0.0186
 2521SOL     OW10154   1.811   3.434   4.153  0.4516 -0.1575 -0.0857
 2521SOL    HW210155   1.801   3.339   4.152 -1.9977  0.0760 -0.1672
 2521SOL    HW310156   1.814   3.459   4.061 -1.1436  0.0394 -0.0963
 2521SOL    MW410157   1.810   3.425   4.141 -0.0820 -0.1006 -0.0982
 2522SOL     OW10158   2.036   3.587   4.231 -0.3035  0.1627  0.5098
 2522SOL    HW210159   1.952   3.544   4.216 -0.2924  0.3872 -0.1992
 2522SOL    HW310160   2.027   3.673   4.189  0.1851  0.2898  0.6614
 2522SOL    MW410161   2.024   3.593   4.223 -0.2375  0.2093  0.4368
 2523SOL     OW10162   2.018   3.855   4.137 -0.2271  0.0491 -0.0463
 2523SOL    HW210163   1.939   3.883   4.183 -0.5320 -1.8981  0.6322
 2523SOL    HW310164   2.000   3.874   4.044 -1.1670  0.3121  0.1870
 2523SOL    MW410165   2.005   3.862   4.130 -0.3912 -0.1729  0.0734
 2524SOL     OW10166   1.775   3.928   4.257 -0.3429 -0.6940  0.0601
 2524SOL    HW210167   1.761   4.016   4.224  0.3758 -0.0720  1.3278
 2524SOL    HW310168   1.699   3.878   4.228 -2.2374  1.0668  1.7831
 2524SOL    MW410169   1.763   3.933   4.249 -0.4979 -0.3793  0.4549
 2525SOL     OW10170   1.756   4.172   4.128  0.2447 -0.0273 -0.2089
 2525SOL    HW210171   1.819   4.236   4.160  0.2752 -0.0495 -0.2242
 2525SOL    HW310172   1.753   4.186   4.033  0.9896 -0.7012 -0.3461
 2525SOL    MW410173   1.764   4.182   4.119  0.3469 -0.1192 -0.2294
 2526SOL     OW10174   1.945   4.368   4.235  0.0411  0.1518  0.2641
 2526SOL    HW210175   1.917   4.345   4.324 -0.3439  1.9121  0.6150
 2526SOL    HW310176   1.964   4.462   4.240  1.4365 -0.0322 -1.1536
 2526SOL    MW410177   1.944   4.377   4.248  0.1744  0.3595  0.1240
 2527SOL     OW10178   2.439   0.024   4.162  0.7094 -0.0023  0.0350
 2527SOL    HW210179   2.431  -0.062   4.203  1.8276  0.3285  0.9906
 2527SOL    HW310180   2.512   0.065   4.208  1.8290  0.4869 -2.1340
 2527SOL    MW410181   2.447   0.018   4.173  1.0045  0.1059 -0.1249
 2528SOL     OW10182   2.956   0.625   4.541 -0.1134 -0.1113 -0.0907
 2528SOL    HW210183   2.866   0.626   4.573 -0.0609 -0.4406  0.0731
 2528SOL    HW310184   2.991   0.711   4.566 -0.0294 -0.4210  0.8738
 2528SOL    MW410185   2.949   0.637   4.549 -0.0951 -0.1955  0.0577
 2529SOL     OW10186   2.222   0.413   4.153  0.1357  0.0980 -0.0258
 2529SOL    HW210187   2.226   0.320   4.175  1.4189  0.1566  0.0635
 2529SOL    HW310188   2.255   0.419   4.064 -2.6424  0.1626 -1.0835
 2529SOL    MW410189   2.227   0.402   4.144 -0.0615  0.1143 -0.1535
 2530SOL     OW10190   1.770   4.476   4.568  0.3719 -0.2270 -0.1081
 2530SOL    HW210191   1.688   4.524   4.561  0.4001 -0.0713  0.5456
 2530SOL    HW310192   1.837   4.544   4.575  0.5450 -0.3536 -0.5227
 2530SOL    MW410193   1.768   4.492   4.568  0.3983 -0.2232 -0.0768
 2531SOL     OW10194   2.501   0.767   4.183 -0.2797 -0.4967  0.1337
 2531SOL    HW210195   2.484   0.691   4.238  1.8957 -1.1780 -0.0913
 2531SOL    HW310196   2.503   0.733   4.094 -2.1077  0.3206 -0.2441
 2531SOL    MW410197   2.499   0.753   4.179 -0.2337 -0.4788  0.0544
 2532SOL     OW10198   2.274   0.887   4.297 -0.3423  0.1789 -0.3011
 2532SOL    HW210199   2.305   0.915   4.383  0.2720 -1.3273 -0.0296
 2532SOL    HW310200   2.351   0.846   4.256 -0.7537  0.4676 -1.3857
 2532SOL    MW410201   2.288   0.886   4.303 -0.3152  0.0182 -0.4082
 2533SOL     OW10202   2.262   1.134   4.132 -0.7865  0.4268 -0.0790
 2533SOL    HW210203   2.322   1.196   4.176 -0.3671  0.5349 -0.8003
 2533SOL    HW310204   2.270   1.054   4.184  1.4625 -0.1793 -1.2644
 2533SOL    MW410205   2.271   1.132   4.145 -0.4346  0.3611 -0.3309
 2534SOL     OW10206   2.471   1.279   4.238  0.0149 -0.0560 -0.2938
 2534SOL    HW210207   2.456   1.372   4.225  0.4058  0.2421  1.2787
 2534SOL    HW310208   2.557   1.263   4.199 -0.5868 -0.0249 -1.6578
 2534SOL    MW410209   2.481   1.289   4.231 -0.0129 -0.0126 -0.2661
 2535SOL     OW10210   2.344   2.423   4.328 -0.1346 -0.1739 -0.2158
 2535SOL    HW210211   2.413   2.400   4.266 -0.2994  0.4482 -0.6283
 2535SOL    HW310212   2.286   2.481   4.280 -0.5256 -0.0695  0.3743
 2535SOL    MW410213   2.346   2.427   4.314 -0.2079 -0.0782 -0.1922
 2536SOL     OW10214   2.011   1.992   3.722 -0.1393 -0.0736  0.2018
 2536SOL    HW210215   1.921   2.007   3.752  0.2495  3.0773  0.0159
 2536SOL    HW310216   2.006   2.001   3.627  0.1626 -1.2354  0.0668
 2536SOL    MW410217   1.998   1.995   3.713 -0.0482  0.1888  0.1593
 2537SOL     OW10218   2.454   2.040   4.204 -0.3375  0.0015  0.1204
 2537SOL    HW210219   2.472   2.044   4.298  0.3927 -0.6402  0.0165
 2537SOL    HW310220   2.364   2.007   4.198 -0.5684  0.5389  0.6037
 2537SOL    MW410221   2.445   2.036   4.216 -0.2718 -0.0124  0.1702
 2538SOL     OW10222   2.687   1.926   4.114 -0.0971  0.6213 -0.3160
 2538SOL    HW210223   2.599   1.953   4.138 -0.8410 -0.8228 -1.3379
 2538SOL    HW310224   2.688   1.930   4.018  0.9338  0.5834 -0.3182
 2538SOL    MW410225   2.676   1.930   4.104 -0.0594  0.4258 -0.4511
 2539SOL     OW10226   2.464   2.333   3.870 -0.1384 -0.0788 -0.2733
 2539SOL    HW210227   2.544   2.373   3.836 -0.0470  0.8483  0.9959
 2539SOL    HW310228   2.393   2.381   3.828 -0.0275  1.0467  0.8115
 2539SOL    MW410229   2.465   2.344   3.860 -0.1118  0.1919  0.0372
 2540SOL     OW10230   1.184   1.872   4.717 -0.2712 -0.0412 -0.0411
 2540SOL    HW210231   1.200   1.787   4.676  0.3964  0.3586 -0.6410
 2540SOL    HW310232   1.132   1.853   4.795  0.8549 -1.1297  0.4642
 2540SOL    MW410233   1.179   1.858   4.722 -0.0346 -0.1321 -0.0539
 2541SOL     OW10234   2.212   2.618   4.155  0.1479  0.1777  0.4111
 2541SOL    HW210235   2.144   2.675   4.190  0.4705 -0.0743  1.4820
 2541SOL    HW310236   2.165   2.541   4.122 -0.1559  0.4026  0.3208
 2541SOL    MW410237   2.197   2.615   4.155  0.1502  0.1740  0.5403
 2542SOL     OW10238   2.957   2.831   4.188  0.2946 -0.0436 -0.3303
 2542SOL    HW210239   2.868   2.795   4.180 -0.0065  0.9822 -1.8148
 2542SOL    HW310240   2.954   2.883   4.268 -0.8986  1.1508 -1.1066
 2542SOL    MW410241   2.945   2.833   4.197  0.0973  0.2491 -0.6289
 2543SOL     OW10242   2.264   3.188   4.272  0.5906 -0.4722 -0.1471
 2543SOL    HW210243   2.248   3.275   4.236  0.5856 -0.5988 -0.4606
 2543SOL    HW310244   2.209   3.130   4.219  2.2205 -0.9454 -1.4050
 2543SOL    MW410245   2.255   3.192   4.260  0.8049 -0.5512 -0.3548
 2544SOL     OW10246   1.377   3.218   4.236 -0.0406 -0.4900  0.0903
 2544SOL    HW210247   1.299   3.180   4.195 -0.2701 -0.4658  0.5019
 2544SOL    HW310248   1.379   3.308   4.204  0.0582 -0.6180 -0.2600
 2544SOL    MW410249   1.367   3.225   4.226 -0.0577 -0.5040  0.0978
 2545SOL     OW10250   2.256   3.441   4.159  0.1832  0.0359  0.2487
 2545SOL    HW210251   2.339   3.488   4.167  0.2972  0.2036 -1.6722
 2545SOL    HW310252   2.190   3.505   4.187  0.4997  0.7390 -0.5671
 2545SOL    MW410253   2.258   3.456   4.163  0.2401  0.1509 -0.1121
 2546SOL     OW10254   2.455   3.604   4.244 -0.5046  0.6865 -0.6222
 2546SOL    HW210255   2.435   3.608   4.338  2.1096 -0.7208  0.0411
 2546SOL    HW310256   2.468   3.695   4.218 -1.1285  1.0754  0.3842
 2546SOL    MW410257   2.454   3.616   4.253 -0.2420  0.5519 -0.4015
 2547SOL     OW10258   2.469   3.883   4.182  0.2259  0.0213 -0.0884
 2547SOL    HW210259   2.538   3.931   4.228  0.0956  0.2285 -0.1070
 2547SOL    HW310260   2.493   3.886   4.090 -0.2551  0.8401 -0.1941
 2547SOL    MW410261   2.481   3.889   4.176  0.1454  0.1564 -0.1044
 2548SOL     OW10262   2.252   4.026   4.214  0.3224 -0.1435  0.2245
 2548SOL    HW210263   2.333   3.977   4.201 -0.0799 -1.2148  1.6289
 2548SOL    HW310264   2.183   3.965   4.188 -0.1349 -0.0098  1.1140
 2548SOL    MW410265   2.254   4.012   4.209  0.2089 -0.2675  0.5269
 2549SOL     OW10266   2.200   4.306   4.141  0.8486 -0.0310  0.5378
 2549SOL    HW210267   2.202   4.213   4.163  0.8803  0.1554  1.3372
 2549SOL    HW310268   2.114   4.336   4.169  0.0121 -0.2735 -1.6543
 2549SOL    MW410269   2.189   4.298   4.148  0.7424 -0.0381  0.3543
 2550SOL     OW10270   3.744   3.088   4.641 -0.3308 -0.1248 -0.0717
 2550SOL    HW210271   3.694   3.151   4.590 -0.3147 -0.7285 -0.8495
 2550SOL    HW310272   3.698   3.083   4.725 -1.2333 -0.2410 -0.5635
 2550SOL    MW410273   3.731   3.096   4.645 -0.4478 -0.2198 -0.2394
 2551SOL     OW10274   2.495   3.835   4.569 -0.2572  0.1994  0.3276
 2551SOL    HW210275   2.565   3.814   4.506  0.1188 -0.3202  0.9171
 2551SOL    HW310276   2.541   3.853   4.651 -0.9056 -1.5650  1.0957
 2551SOL    MW410277   2.511   3.835   4.571 -0.2930 -0.1023  0.5069
 2552SOL     OW10278   2.638   0.062   4.574  0.2551 -0.3923 -0.7814
 2552SOL    HW210279   2.573  -0.009   4.576  0.8569 -0.9403  1.0075
 2552SOL    HW310280   2.721   0.018   4.591  0.6226  0.7540  0.4628
 2552SOL    MW410281   2.640   0.047   4.577  0.3829 -0.3133 -0.3815
 2553SOL     OW10282   2.652   0.377   4.214  0.0560 -0.4658 -1.0296
 2553SOL    HW210283   2.654   0.392   4.120  0.1908  0.2630 -0.9188
 2553SOL    HW310284   2.725   0.430   4.248 -0.5515  0.0040 -0.4239
 2553SOL    MW410285   2.662   0.386   4.206 -0.0064 -0.3076 -0.9351
 2554SOL     OW10286   2.845   0.556   4.286  0.2696 -0.1020  0.0687
 2554SOL    HW210287   2.886   0.573   4.371  0.4432 -0.7926  0.1246
 2554SOL    HW310288   2.866   0.634   4.234  0.7948 -0.0051  0.4194
 2554SOL    MW410289   2.853   0.569   4.290  0.3619 -0.1804  0.1221
 2555SOL     OW10290   2.923   0.778   4.131  0.0143  0.0880  0.3820
 2555SOL    HW210291   3.006   0.813   4.164  0.8171 -0.5727 -0.8799
 2555SOL    HW310292   2.927   0.793   4.037 -1.3825  0.1941  0.3356
 2555SOL    MW410293   2.934   0.785   4.123 -0.0641  0.0148  0.2089
 2556SOL     OW10294   2.729   0.927   4.247 -0.3475 -0.3467 -0.3706
 2556SOL    HW210295   2.657   0.874   4.213 -0.2076 -0.9270  0.2134
 2556SOL    HW310296   2.808   0.879   4.221 -0.1572  0.4034 -1.2029
 2556SOL    MW410297   2.730   0.914   4.239 -0.3042 -0.3242 -0.4034
 2557SOL     OW10298   2.715   1.180   4.137  0.0886 -0.0933 -0.2132
 2557SOL    HW210299   2.721   1.098   4.186 -1.5872 -0.1928 -0.1521
 2557SOL    HW310300   2.752   1.159   4.051 -0.4039 -0.9441 -0.2276
 2557SOL    MW410301   2.721   1.166   4.132 -0.1974 -0.2186 -0.2065
 2558SOL     OW10302   2.887   1.095   4.653 -0.4493  0.3203 -0.0784
 2558SOL    HW210303   2.892   1.183   4.615  1.4340  0.3435  0.1951
 2558SOL    HW310304   2.869   1.110   4.746 -0.7299  0.3920 -0.1431
 2558SOL    MW410305   2.885   1.109   4.660 -0.2377  0.3327 -0.0505
 2559SOL     OW10306   2.905   1.306   4.283  0.0082  0.0923 -0.1657
 2559SOL    HW210307   2.987   1.258   4.266  0.4586  0.3217  1.2795
 2559SOL    HW310308   2.842   1.267   4.222  1.9909  2.2349 -3.7479
 2559SOL    MW410309   2.908   1.294   4.273  0.3290  0.4052 -0.4482
 2560SOL     OW10310   2.933   1.557   4.167  0.5128 -0.3827 -0.3868
 2560SOL    HW210311   2.926   1.473   4.213  0.1092  1.2283  2.6041
 2560SOL    HW310312   2.846   1.596   4.175  0.5975  0.1904 -2.0874
 2560SOL    MW410313   2.920   1.551   4.174  0.4706 -0.0945 -0.2165
 2561SOL     OW10314   2.202   1.944   4.164  0.4967  0.4404 -0.9442
 2561SOL    HW210315   2.142   1.870   4.152  1.3582 -0.3390 -0.5996
 2561SOL    HW310316   2.149   2.012   4.205 -0.2825 -0.0285 -1.1577
 2561SOL    MW410317   2.187   1.943   4.168  0.5076  0.2757 -0.9274
 2562SOL     OW10318   2.318   2.549   4.899 -0.2610 -0.1282  0.0406
 2562SOL    HW210319   2.230   2.537   4.864  0.1911  0.4289 -1.3191
 2562SOL    HW310320   2.307   2.614   4.968 -1.0189 -0.5333  0.3107
 2562SOL    MW410321   2.305   2.556   4.903 -0.3014 -0.1082 -0.1030
 2563SOL     OW10322   3.382   2.837   4.211 -0.5503 -0.5403  0.2695
 2563SOL    HW210323   3.365   2.930   4.198 -2.4590 -0.8005  0.8086
 2563SOL    HW310324   3.478   2.829   4.203 -0.3743  1.4330  0.1449
 2563SOL    MW410325   3.393   2.848   4.208 -0.7789 -0.3142  0.3238
 2564SOL     OW10326   3.140   1.930   4.079 -0.0890  0.2803  0.3337
 2564SOL    HW210327   3.205   1.999   4.094 -1.1348  1.6867 -1.3105
 2564SOL    HW310328   3.063   1.959   4.129 -0.7764  0.7221 -0.9473
 2564SOL    MW410329   3.138   1.943   4.088 -0.3176  0.5242 -0.0525
 2565SOL     OW10330   2.705   2.713   4.197  0.1617 -0.4668 -0.6786
 2565SOL    HW210331   2.632   2.754   4.241  0.3211 -0.6350 -0.2567
 2565SOL    HW310332   2.703   2.622   4.226  1.4238 -0.1322  0.5027
 2565SOL    MW410333   2.695   2.707   4.206  0.3493 -0.4449 -0.4678
 2566SOL     OW10334   3.640   2.763   4.125  0.2389 -0.3863 -0.0421
 2566SOL    HW210335   3.616   2.747   4.034  0.0519  0.8874 -0.2302
 2566SOL    HW310336   3.623   2.680   4.169 -1.1946 -0.5583 -0.8649
 2566SOL    MW410337   3.635   2.750   4.119  0.0250 -0.2410 -0.1750
 2567SOL     OW10338   2.920   3.111   4.090  0.0804 -0.1674  0.0991
 2567SOL    HW210339   2.937   3.020   4.115  0.6894  0.1053  0.6872
 2567SOL    HW310340   2.928   3.112   3.995 -0.0262 -0.7498  0.0824
 2567SOL    MW410341   2.923   3.099   4.081  0.1469 -0.2081  0.1750
 2568SOL     OW10342   2.702   3.248   4.184  0.2592  0.3355 -0.3844
 2568SOL    HW210343   2.781   3.200   4.157  1.2654  2.7017 -1.8018
 2568SOL    HW310344   2.630   3.188   4.164  1.5634 -1.1098 -0.8646
 2568SOL    MW410345   2.703   3.234   4.178  0.5639  0.4570 -0.6351
 2569SOL     OW10346   2.687   3.518   4.115 -0.2411 -0.1020 -0.1694
 2569SOL    HW210347   2.697   3.425   4.139 -1.3004 -0.5166 -1.2879
 2569SOL    HW310348   2.618   3.550   4.172  1.2746  0.4590  1.3966
 2569SOL    MW410349   2.679   3.510   4.126 -0.1812 -0.0830 -0.1106
 2570SOL     OW10350   2.632   2.981   4.555  0.1486 -0.1927  0.0905
 2570SOL    HW210351   2.553   2.929   4.539 -0.6061  0.6948  0.8879
 2570SOL    HW310352   2.674   2.938   4.629  1.6636 -2.0518 -1.7778
 2570SOL    MW410353   2.627   2.969   4.563  0.2491 -0.3207 -0.0505
 2571SOL     OW10354   2.902   3.643   4.223  0.2303 -0.2352 -0.5195
 2571SOL    HW210355   2.984   3.593   4.233  0.0155 -0.5986 -0.5445
 2571SOL    HW310356   2.838   3.577   4.194 -0.6282 -0.4358  1.7612
 2571SOL    MW410357   2.905   3.628   4.220  0.0889 -0.3097 -0.2217
 2572SOL     OW10358   2.912   3.903   4.128 -0.1660 -0.2953 -0.0179
 2572SOL    HW210359   2.908   3.812   4.159  1.7976 -0.3578  0.1660
 2572SOL    HW310360   2.994   3.936   4.165  1.4130  0.1672 -3.7216
 2572SOL    MW410361   2.922   3.895   4.137  0.3016 -0.2425 -0.4826
 2573SOL     OW10362   2.637   4.264   4.184 -0.0950 -0.8127 -0.6937
 2573SOL    HW210363   2.717   4.309   4.211 -1.8871  1.9735  0.2116
 2573SOL    HW310364   2.632   4.279   4.089  1.1732 -2.2441 -1.0038
 2573SOL    MW410365   2.647   4.272   4.175 -0.1640 -0.6337 -0.6151
 2574SOL     OW10366   2.869   4.399   4.246 -0.5307  0.3425  0.1389
 2574SOL    HW210367   2.865   4.494   4.239 -0.7790  0.2923 -0.4021
 2574SOL    HW310368   2.950   4.375   4.201 -1.1894  0.1803 -0.9800
 2574SOL    MW410369   2.879   4.408   4.239 -0.6506  0.3147 -0.0801
 2575SOL     OW10370   3.379   0.031   4.179  0.3760  0.5588  0.6908
 2575SOL    HW210371   3.381  -0.059   4.211 -0.5960  0.6347  0.9623
 2575SOL    HW310372   3.455   0.073   4.220  1.0531 -0.2355  0.2619
 2575SOL    MW410373   3.390   0.025   4.189  0.3371  0.4641  0.6700
 2576SOL     OW10374   3.071   0.403   4.161 -0.0254  0.4431  0.2753
 2576SOL    HW210375   2.996   0.448   4.199  0.7650  1.0302  1.1711
 2576SOL    HW310376   3.086   0.329   4.220 -1.1180 -0.8351 -1.0098
 2576SOL    MW410377   3.063   0.399   4.174 -0.0653  0.3519  0.2236
 2577SOL     OW10378   3.131   0.138   4.285  0.0118  0.0327 -0.0350
 2577SOL    HW210379   3.125   0.102   4.373  0.2175 -1.1248 -0.4800
 2577SOL    HW310380   3.221   0.120   4.258 -0.2481 -0.2291 -0.7311
 2577SOL    MW410381   3.142   0.131   4.293  0.0045 -0.1546 -0.1850
 2578SOL     OW10382   3.311   0.519   4.280  0.1322 -0.0563 -0.5255
 2578SOL    HW210383   3.383   0.462   4.253 -0.5756 -0.3770 -1.7526
 2578SOL    HW310384   3.233   0.477   4.245 -0.7505 -0.0808  1.3749
 2578SOL    MW410385   3.310   0.506   4.272 -0.0772 -0.1019 -0.4368
 2579SOL     OW10386   3.381   0.756   4.165 -0.5199 -0.2259  0.0984
 2579SOL    HW210387   3.306   0.805   4.198  0.1398  0.4420  0.6125
 2579SOL    HW310388   3.364   0.665   4.191 -1.3443 -0.1485 -0.1533
 2579SOL    MW410389   3.369   0.750   4.173 -0.5417 -0.1276  0.1330
 2580SOL     OW10390   3.147   0.906   4.240 -0.5780  0.6843 -0.1598
 2580SOL    HW210391   3.142   0.907   4.336 -0.6936 -0.1539 -0.1498
 2580SOL    HW310392   3.152   0.998   4.215 -1.7845  0.9607  0.5896
 2580SOL    MW410393   3.147   0.918   4.249 -0.7524  0.6102 -0.0591
 2581SOL     OW10394   3.135   1.184   4.155  0.0503  0.7086  0.2570
 2581SOL    HW210395   3.136   1.173   4.060 -0.9158 -0.4915  0.3653
 2581SOL    HW310396   3.224   1.210   4.177  0.0178  1.9902 -1.0828
 2581SOL    MW410397   3.147   1.186   4.146 -0.0815  0.7195  0.0944
 2582SOL     OW10398   2.883   4.648   4.568 -0.3999  0.1169  0.3288
 2582SOL    HW210399   2.972   4.685   4.568 -0.5184  0.3982 -0.5758
 2582SOL    HW310400   2.894   4.560   4.534 -0.4418  0.0923  0.3794
 2582SOL    MW410401   2.896   4.642   4.564 -0.4213  0.1512  0.2160
 2583SOL     OW10402   4.006   1.939   4.594  0.0525 -0.1550 -0.4670
 2583SOL    HW210403   3.923   1.930   4.548  0.6148 -0.9707 -1.3365
 2583SOL    HW310404   3.981   1.951   4.686 -0.9875 -2.0483 -0.4739
 2583SOL    MW410405   3.992   1.939   4.600 -0.0105 -0.5125 -0.5827
 2584SOL     OW10406   3.169   1.714   4.235 -0.1207  0.0527 -0.2878
 2584SOL    HW210407   3.147   1.791   4.182 -1.0937  0.7601  1.1189
 2584SOL    HW310408   3.090   1.660   4.234 -0.1444  0.0689  0.4369
 2584SOL    MW410409   3.156   1.717   4.228 -0.2520  0.1482 -0.0062
 2585SOL     OW10410   2.977   2.275   4.131  0.2983 -0.5676  0.0623
 2585SOL    HW210411   2.961   2.189   4.171 -0.4521 -0.4039  0.1140
 2585SOL    HW310412   2.927   2.336   4.185 -0.8912 -0.3684 -1.2433
 2585SOL    MW410413   2.969   2.272   4.143  0.0422 -0.5195 -0.1030
 2586SOL     OW10414   4.268   1.537   4.138  0.0530  0.1559 -0.6093
 2586SOL    HW210415   4.337   1.595   4.170 -2.2219  1.8669  1.4405
 2586SOL    HW310416   4.275   1.541   4.043  1.0404  2.4803 -0.4652
 2586SOL    MW410417   4.278   1.545   4.130 -0.1163  0.6881 -0.3195
 2587SOL     OW10418   3.121   2.013   4.642 -0.4714 -0.4174 -0.3326
 2587SOL    HW210419   3.124   1.957   4.719 -0.9272  0.5302  0.3826
 2587SOL    HW310420   3.041   1.987   4.596 -1.2791  0.4078  0.5864
 2587SOL    MW410421   3.111   2.002   4.646 -0.6380 -0.1838 -0.1168
 2588SOL     OW10422   3.188   2.665   4.097 -0.2947 -0.0423  0.1445
 2588SOL    HW210423   3.112   2.711   4.131  0.2445 -0.5426  2.1138
 2588SOL    HW310424   3.262   2.722   4.118  0.3519 -1.6271  2.3797
 2588SOL    MW410425   3.188   2.678   4.104 -0.1383 -0.3173  0.6990
 2589SOL     OW10426   3.865   2.842   4.264  0.0483  0.1976  0.1350
 2589SOL    HW210427   3.869   2.804   4.352  0.9843 -0.3998 -0.1559
 2589SOL    HW310428   3.794   2.795   4.220 -0.8593  0.9499  0.7717
 2589SOL    MW410429   3.856   2.831   4.270  0.0522  0.2179  0.1812
 2590SOL     OW10430   3.325   2.107   4.167  0.5951  0.9825  0.2888
 2590SOL    HW210431   3.340   2.201   4.164 -1.4897  1.3511  0.4666
 2590SOL    HW310432   3.316   2.086   4.260  1.1079  0.6057  0.2541
 2590SOL    MW410433   3.326   2.116   4.179  0.3877  0.9816  0.3080
 2591SOL     OW10434   3.357   3.111   4.170  0.4324  0.1847  0.3763
 2591SOL    HW210435   3.276   3.161   4.184  0.3670  0.0612  0.4388
 2591SOL    HW310436   3.360   3.096   4.076  0.9092  1.0788  0.2393
 2591SOL    MW410437   3.347   3.116   4.159  0.4864  0.2863  0.3662
 2592SOL     OW10438   3.118   3.249   4.207 -0.0717  0.4489  0.3697
 2592SOL    HW210439   3.105   3.247   4.301  1.8922 -2.3040  0.6537
 2592SOL    HW310440   3.045   3.197   4.172  0.3211 -0.2480  0.5645
 2592SOL    MW410441   3.106   3.242   4.215  0.2394 -0.0062  0.4330
 2593SOL     OW10442   3.137   3.504   4.160 -0.4868  0.3186 -0.1137
 2593SOL    HW210443   3.131   3.410   4.174 -0.5754  0.5747  1.7599
 2593SOL    HW310444   3.135   3.515   4.065 -4.2462 -1.3347 -0.3307
 2593SOL    MW410445   3.136   3.493   4.149 -0.9944  0.1345  0.1049
 2594SOL     OW10446   3.372   3.623   4.287  0.4719  0.1212  0.5926
 2594SOL    HW210447   3.364   3.587   4.376 -0.2166  0.4364  0.6607
 2594SOL    HW310448   3.307   3.575   4.237  1.2069 -0.4101  0.1387
 2594SOL    MW410449   3.362   3.612   4.292  0.4780  0.0927  0.5412
 2595SOL     OW10450   3.149   4.001   4.254 -0.4595  0.3051  0.3644
 2595SOL    HW210451   3.241   3.979   4.236 -0.4854 -0.2916  0.9146
 2595SOL    HW310452   3.141   3.992   4.349 -0.8298  1.3810  0.4410
 2595SOL    MW410453   3.160   3.997   4.264 -0.5116  0.3681  0.4468
 2596SOL     OW10454   3.307   4.505   4.494  0.3633 -0.1655  0.4297
 2596SOL    HW210455   3.399   4.504   4.517  0.2500 -1.5044  0.8990
 2596SOL    HW310456   3.271   4.426   4.536 -0.5826 -0.6979 -1.3306
 2596SOL    MW410457   3.314   4.494   4.503  0.2236 -0.4134  0.2589
 2597SOL     OW10458   3.125   4.281   4.171 -0.1113  0.1766  0.2293
 2597SOL    HW210459   3.211   4.320   4.188 -0.7088  0.8159  1.8123
 2597SOL    HW310460   3.133   4.191   4.203  0.0316  0.1687  0.1733
 2597SOL    MW410461   3.137   4.274   4.177 -0.1714  0.2599  0.4311
 2598SOL     OW10462   2.745   4.134   4.550 -0.0834  0.2628 -0.1178
 2598SOL    HW210463   2.668   4.179   4.586 -1.5136 -2.4111  0.3178
 2598SOL    HW310464   2.710   4.087   4.474  1.4164  0.0737 -0.6918
 2598SOL    MW410465   2.730   4.134   4.545 -0.0741 -0.1149 -0.1359
 2599SOL     OW10466   3.827   0.014   4.220 -0.1750  0.8545  0.0144
 2599SOL    HW210467   3.824   0.010   4.124  0.1774 -0.4580  0.0547
 2599SOL    HW310468   3.745   0.058   4.244 -0.5590  0.6252 -0.8553
 2599SOL    MW410469   3.816   0.020   4.211 -0.1788  0.6509 -0.0949
 2600SOL     OW10470   3.591   0.150   4.291 -0.1172 -0.0621 -0.3494
 2600SOL    HW210471   3.604   0.240   4.261 -0.1767 -0.3641 -1.2778
 2600SOL    HW310472   3.597   0.156   4.387 -0.7976  1.0409 -0.3629
 2600SOL    MW410473   3.593   0.163   4.300 -0.2146  0.0436 -0.4730
 2601SOL     OW10474   3.592   0.397   4.200 -0.0757  0.4800 -0.1495
 2601SOL    HW210475   3.672   0.432   4.240  1.5827 -2.0345 -1.1311
 2601SOL    HW310476   3.609   0.402   4.106 -0.7788 -0.7007 -0.3427
 2601SOL    MW410477   3.605   0.403   4.193  0.0505 -0.0076 -0.3047
 2602SOL     OW10478   3.820   0.514   4.295 -0.1032 -0.4589  0.1035
 2602SOL    HW210479   3.855   0.539   4.381  1.1698 -0.1420 -0.4875
 2602SOL    HW310480   3.816   0.596   4.246  0.4209 -0.8255 -0.5640
 2602SOL    MW410481   3.824   0.528   4.300  0.1340 -0.4655 -0.0625
 2603SOL     OW10482   3.838   0.773   4.191  0.2338 -0.2869 -0.0144
 2603SOL    HW210483   3.761   0.822   4.222  2.0231  1.2195  2.2121
 2603SOL    HW310484   3.836   0.782   4.096 -2.2797 -0.1840  0.0169
 2603SOL    MW410485   3.827   0.781   4.183  0.1383 -0.0746  0.2832
 2604SOL     OW10486   3.595   0.875   4.287  0.3998 -0.5033  0.2060
 2604SOL    HW210487   3.587   0.965   4.257  1.8060 -0.7356 -0.9605
 2604SOL    HW310488   3.523   0.829   4.243  0.4162 -0.1750 -0.1699
 2604SOL    MW410489   3.584   0.881   4.277  0.5877 -0.4906  0.0024
 2605SOL     OW10490   3.563   1.141   4.198 -0.0083 -0.2401  0.3300
 2605SOL    HW210491   3.639   1.177   4.243  0.8499 -2.3971  0.6614
 2605SOL    HW310492   3.577   1.163   4.106  1.3106 -1.1091  0.3148
 2605SOL    MW410493   3.575   1.149   4.191  0.2792 -0.6393  0.3719
 2606SOL     OW10494   3.785   1.217   4.336  0.0288  0.1665 -0.0556
 2606SOL    HW210495   3.791   1.151   4.406 -0.6718  1.1728  0.9636
 2606SOL    HW310496   3.802   1.300   4.380  0.7694  0.6960 -1.3168
 2606SOL    MW410497   3.788   1.219   4.351  0.0339  0.3692 -0.0877
 2607SOL     OW10498   3.809   1.564   4.171  0.0814 -0.0238  0.0512
 2607SOL    HW210499   3.731   1.621   4.176  0.3201  0.2676  0.4811
 2607SOL    HW310500   3.815   1.525   4.258  0.4862  0.0420  0.0511
 2607SOL    MW410501   3.799   1.567   4.184  0.1664  0.0234  0.1078
 2608SOL     OW10502   3.398   1.557   4.163  0.2027  0.1871  0.1240
 2608SOL    HW210503   3.399   1.535   4.070 -0.3755  1.3912 -0.1773
 2608SOL    HW310504   3.320   1.611   4.174 -0.1024 -0.5273  1.4476
 2608SOL    MW410505   3.388   1.561   4.152  0.0861  0.2518  0.2584
 2609SOL     OW10506   3.421   2.355   4.105  0.3661 -0.1801  0.0773
 2609SOL    HW210507   3.402   2.326   4.016 -0.9357  1.7081 -0.2912
 2609SOL    HW310508   3.351   2.417   4.125  1.6362  0.7255  1.7855
 2609SOL    MW410509   3.409   2.359   4.096  0.3619  0.1884  0.2542
 2610SOL     OW10510   4.009   1.958   4.127 -0.1517 -0.0969  0.0329
 2610SOL    HW210511   4.026   1.876   4.172  0.2754  0.1960  0.4183
 2610SOL    HW310512   3.935   1.997   4.173 -0.5694 -0.4263 -0.3644
 2610SOL    MW410513   4.002   1.952   4.139 -0.1502 -0.1017  0.0315
 2611SOL     OW10514   4.241   2.324   4.155  0.0024  0.3360  0.1537
 2611SOL    HW210515   4.176   2.373   4.205  0.3445  0.1661  0.7870
 2611SOL    HW310516   4.228   2.233   4.183  1.1147  0.4215  0.9819
 2611SOL    MW410517   4.231   2.318   4.166  0.1945  0.3252  0.3462
 2612SOL     OW10518   3.616   2.516   4.253  0.3249  0.0463  0.0562
 2612SOL    HW210519   3.617   2.499   4.348  1.6712  0.1286  0.0609
 2612SOL    HW310520   3.544   2.462   4.221  0.4256 -0.6864  1.0132
 2612SOL    MW410521   3.607   2.506   4.262  0.5159 -0.0401  0.1831
 2613SOL     OW10522   0.180   2.738   4.634 -0.0209  0.0241  0.1562
 2613SOL    HW210523   0.239   2.794   4.584  0.2011  0.4142  0.8417
 2613SOL    HW310524   0.232   2.711   4.710 -0.2396 -0.8352 -0.0019
 2613SOL    MW410525   0.194   2.742   4.637 -0.0204 -0.0379  0.2260
 2614SOL     OW10526   3.796   3.080   4.154  0.2085  0.1494  0.4740
 2614SOL    HW210527   3.808   3.077   4.059  0.5520 -1.0526  0.5475
 2614SOL    HW310528   3.809   2.989   4.183  0.5752  0.5917  1.7249
 2614SOL    MW410529   3.799   3.067   4.145  0.3021  0.0491  0.6490
 2615SOL     OW10530   3.602   2.466   4.524 -0.1025  0.5211  0.0399
 2615SOL    HW210531   3.604   2.370   4.522 -0.0604  0.5248 -0.2089
 2615SOL    HW310532   3.510   2.489   4.535 -0.2150  0.4601 -0.7632
 2615SOL    MW410533   3.590   2.457   4.525 -0.1116  0.5138 -0.0987
 2616SOL     OW10534   3.580   3.237   4.234  0.2855 -0.1806 -0.3635
 2616SOL    HW210535   3.653   3.181   4.210  0.4584  0.3227 -1.0312
 2616SOL    HW310536   3.502   3.183   4.219  0.6153 -1.6727  3.0030
 2616SOL    MW410537   3.579   3.223   4.229  0.3519 -0.3111 -0.0072
 2617SOL     OW10538   3.602   3.515   4.158  0.2408  0.2022 -0.1306
 2617SOL    HW210539   3.578   3.428   4.189  0.3965  0.6012  1.1741
 2617SOL    HW310540   3.526   3.569   4.176  0.9007  0.7732  1.0159
 2617SOL    MW410541   3.589   3.511   4.165  0.3483  0.3302  0.1931
 2618SOL     OW10542   3.824   3.627   4.264 -0.3178  0.1105  0.4598
 2618SOL    HW210543   3.908   3.586   4.242 -0.0286  0.1181  1.5292
 2618SOL    HW310544   3.760   3.579   4.212  0.2657 -0.3252  0.1315
 2618SOL    MW410545   3.827   3.616   4.254 -0.2027  0.0541  0.5574
 2619SOL     OW10546   3.818   3.877   4.166 -0.1853  0.3341  0.0835
 2619SOL    HW210547   3.750   3.932   4.205  0.4650  0.1331  1.5437
 2619SOL    HW310548   3.808   3.792   4.208  0.6819  0.1764 -0.0079
 2619SOL    MW410549   3.808   3.873   4.177  0.0150  0.2868  0.2642
 2620SOL     OW10550   3.416   3.896   4.178  0.0928 -0.1997 -0.1272
 2620SOL    HW210551   3.400   3.811   4.219  0.4691  0.2392  0.9461
 2620SOL    HW310552   3.402   3.881   4.085 -0.2396 -1.3430  0.1047
 2620SOL    MW410553   3.412   3.883   4.171  0.0985 -0.2928  0.0453
 2621SOL     OW10554   3.636   4.037   4.312  0.2066  0.5455  0.0100
 2621SOL    HW210555   3.649   4.045   4.407  0.1751 -0.1328  0.0778
 2621SOL    HW310556   3.561   3.978   4.304  0.5216  0.2059 -0.4421
 2621SOL    MW410557   3.628   4.030   4.323  0.2439  0.4110 -0.0410
 2622SOL     OW10558   3.152   2.987   4.572 -0.1455 -0.4832 -0.3687
 2622SOL    HW210559   3.229   2.941   4.540  0.3684  0.5532 -0.6324
 2622SOL    HW310560   3.130   2.943   4.655  0.7459 -0.7532 -0.2729
 2622SOL    MW410561   3.159   2.975   4.579  0.0396 -0.3824 -0.3910
 2623SOL     OW10562   4.281   4.666   4.158 -0.6653  0.4356  0.1192
 2623SOL    HW210563   4.205   4.718   4.188 -0.6811  0.8196 -0.5633
 2623SOL    HW310564   4.356   4.705   4.203 -0.7581  0.6478  0.0912
 2623SOL    MW410565   4.281   4.678   4.168 -0.6800  0.5140  0.0257
 2624SOL     OW10566   4.070   0.127   4.288 -0.2517 -0.1408  0.1341
 2624SOL    HW210567   4.056   0.219   4.264 -1.3185 -0.6945 -1.4734
 2624SOL    HW310568   3.984   0.087   4.277  0.5453 -1.6479 -0.6178
 2624SOL    MW410569   4.057   0.134   4.284 -0.2871 -0.4127 -0.1774
 2625SOL     OW10570   4.056   0.378   4.201  0.2067 -0.3453 -0.1046
 2625SOL    HW210571   4.131   0.431   4.227  0.7759 -1.5165  0.6750
 2625SOL    HW310572   3.980   0.421   4.241  0.5712  0.2964 -0.1034
 2625SOL    MW410573   4.056   0.390   4.210  0.3300 -0.4151 -0.0014
 2626SOL     OW10574   4.289   0.536   4.286  0.0760  0.1310 -0.5438
 2626SOL    HW210575   4.289   0.613   4.230  0.2310  0.3400 -0.2580
 2626SOL    HW310576   4.362   0.483   4.255  0.8803  0.7890  0.1999
 2626SOL    MW410577   4.298   0.539   4.275  0.2031  0.2453 -0.4077
 2627SOL     OW10578   4.080   0.923   4.209 -0.1570 -0.1282 -0.8282
 2627SOL    HW210579   3.996   0.878   4.201 -0.5024  0.5557 -1.0849
 2627SOL    HW310580   4.063   1.011   4.175 -0.0277  0.8641  1.5683
 2627SOL    MW410581   4.066   0.928   4.204 -0.1850  0.0929 -0.5460
 2628SOL     OW10582   4.288   0.764   4.138  0.0716  0.1411  0.3427
 2628SOL    HW210583   4.294   0.767   4.043 -1.0159 -0.7799  0.2461
 2628SOL    HW310584   4.220   0.828   4.160  0.8926  0.9609  0.5750
 2628SOL    MW410585   4.280   0.773   4.129  0.0362  0.1277  0.3605
 2629SOL     OW10586   4.027   1.181   4.162  0.5887 -0.3501  0.0594
 2629SOL    HW210587   4.088   1.231   4.216  0.0234  1.1394 -0.6564
 2629SOL    HW310588   3.940   1.207   4.195  0.2626 -0.0432 -1.0314
 2629SOL    MW410589   4.023   1.191   4.174  0.4711 -0.1129 -0.1788
 2630SOL     OW10590   2.401   2.325   4.740 -0.2658 -0.7409  0.0964
 2630SOL    HW210591   2.475   2.281   4.781 -0.0579 -0.2331  0.2657
 2630SOL    HW310592   2.364   2.379   4.809  0.2324  0.3027 -0.4446
 2630SOL    MW410593   2.406   2.326   4.755 -0.1726 -0.5362  0.0477
 2631SOL     OW10594   4.059   1.697   4.240  0.1823  0.1279 -0.0091
 2631SOL    HW210595   3.971   1.668   4.216  0.3943  1.5506 -2.6518
 2631SOL    HW310596   4.118   1.639   4.191  0.6868  0.6684 -0.0551
 2631SOL    MW410597   4.055   1.686   4.230  0.2770  0.3868 -0.3643
 2632SOL     OW10598   3.362   1.300   4.254 -0.0198 -0.4062 -0.1714
 2632SOL    HW210599   3.438   1.244   4.241 -0.4407 -1.0423  0.0805
 2632SOL    HW310600   3.384   1.382   4.209  0.0117 -1.2853 -1.8071
 2632SOL    MW410601   3.375   1.304   4.246 -0.0708 -0.6062 -0.3538
 2633SOL     OW10602   4.456   1.694   4.264 -0.2002 -0.1439 -0.2549
 2633SOL    HW210603   4.458   1.783   4.229  1.4800 -0.4238 -0.9128
 2633SOL    HW310604   4.437   1.706   4.357 -1.5853  0.7928 -0.6322
 2633SOL    MW410605   4.453   1.708   4.271 -0.1616 -0.0572 -0.3915
 2634SOL     OW10606   0.029   1.962   4.165 -0.4519  0.1266 -0.6321
 2634SOL    HW210607   0.091   2.012   4.219 -0.5499 -0.3716 -0.0519
 2634SOL    HW310608  -0.057   1.997   4.187 -0.6789 -1.3624  0.9745
 2634SOL    MW410609   0.026   1.973   4.175 -0.4947 -0.1354 -0.3433
 2635SOL     OW10610   3.086   0.876   4.567  0.0035 -0.0096  0.0632
 2635SOL    HW210611   3.041   0.951   4.604  0.9804  0.7028 -0.1723
 2635SOL    HW310612   3.157   0.858   4.628 -0.4682 -1.0002  0.3305
 2635SOL    MW410613   3.090   0.883   4.580  0.0703 -0.0463  0.0672
 2636SOL     OW10614   3.630   2.179   4.529  0.0485  0.1292 -0.1999
 2636SOL    HW210615   3.542   2.146   4.509 -0.4056 -0.1078  1.9835
 2636SOL    HW310616   3.683   2.101   4.544 -0.0632  0.2854  1.1245
 2636SOL    MW410617   3.625   2.165   4.528 -0.0260  0.1190  0.2627
 2637SOL     OW10618   4.034   2.673   4.112  0.4548  0.1868 -0.1982
 2637SOL    HW210619   4.112   2.720   4.141  1.0988 -1.1580  0.3179
 2637SOL    HW310620   3.961   2.724   4.147  1.0695  1.9391 -1.4411
 2637SOL    MW410621   4.035   2.686   4.120  0.6208  0.2403 -0.2937
 2638SOL     OW10622   4.209   2.858   4.214 -0.2750 -0.0641 -0.1685
 2638SOL    HW210623   4.180   2.834   4.302 -0.0872  1.6612  0.3766
 2638SOL    HW310624   4.293   2.812   4.204 -0.2648 -0.2180  0.5727
 2638SOL    MW410625   4.216   2.849   4.224 -0.2489  0.1435  0.0014
 2639SOL     OW10626   4.188   3.122   4.090 -0.0837  0.0964  0.0946
 2639SOL    HW210627   4.203   3.033   4.121  0.3905  0.6765  1.5478
 2639SOL    HW310628   4.216   3.120   3.998 -1.0901 -1.5136 -0.2041
 2639SOL    MW410629   4.194   3.110   4.082 -0.1540 -0.0396  0.2470
 2640SOL     OW10630   3.999   3.197   4.290  0.0821  0.0995  0.0468
 2640SOL    HW210631   3.919   3.167   4.247  0.6779  1.6309 -2.1973
 2640SOL    HW310632   4.070   3.167   4.233  1.0385  0.2182  1.1378
 2640SOL    MW410633   3.998   3.189   4.277  0.2868  0.3171 -0.1054
 2641SOL     OW10634   4.030   3.457   4.201 -0.1966  0.0753 -0.0133
 2641SOL    HW210635   4.011   3.366   4.222  0.5799 -0.4407 -1.4419
 2641SOL    HW310636   4.029   3.460   4.105 -0.3026  1.5856  0.0258
 2641SOL    MW410637   4.028   3.445   4.191 -0.1082  0.2062 -0.1965
 2642SOL     OW10638   4.244   3.599   4.279 -0.2944  0.2579 -0.2285
 2642SOL    HW210639   4.228   3.689   4.250  0.5208  0.0638 -1.3167
 2642SOL    HW310640   4.176   3.547   4.235  0.7064  0.0172 -1.5162
 2642SOL    MW410641   4.233   3.604   4.269 -0.0553  0.2003 -0.5417
 2643SOL     OW10642   4.253   3.862   4.181 -0.0301  0.2178  0.5257
 2643SOL    HW210643   4.180   3.916   4.213 -0.2459  0.6686 -0.7135
 2643SOL    HW310644   4.240   3.857   4.087  0.3222 -1.5321  0.5544
 2643SOL    MW410645   4.242   3.869   4.173 -0.0124  0.0465  0.3667
 2644SOL     OW10646   4.035   4.014   4.258  0.3324  0.1284  0.0573
 2644SOL    HW210647   4.047   3.989   4.349 -2.0366  0.2015  0.4280
 2644SOL    HW310648   3.958   3.965   4.230  1.3555 -0.3292 -2.0924
 2644SOL    MW410649   4.026   4.004   4.266  0.1550  0.0777 -0.1783
 2645SOL     OW10650   3.602   4.286   4.208  0.5327 -0.1854 -0.3968
 2645SOL    HW210651   3.684   4.322   4.244 -0.4233  1.5147  0.1213
 2645SOL    HW310652   3.597   4.198   4.245  1.4334  0.2079  0.7076
 2645SOL    MW410653   3.612   4.279   4.218  0.5252  0.0916 -0.1826
 2646SOL     OW10654   3.273   0.839   4.808 -0.2207  0.4018 -0.2547
 2646SOL    HW210655   3.288   0.836   4.903 -2.2538 -0.1728  0.0538
 2646SOL    HW310656   3.315   0.760   4.775 -1.3146 -0.4706  0.4329
 2646SOL    MW410657   3.281   0.828   4.816 -0.6335  0.2109 -0.1225
 2647SOL     OW10658   0.774   1.140   4.794 -0.0977  0.4641  0.1478
 2647SOL    HW210659   0.704   1.169   4.852 -0.7475  1.0877 -0.9402
 2647SOL    HW310660   0.830   1.216   4.782 -0.0871  0.4036 -0.2157
 2647SOL    MW410661   0.772   1.154   4.800 -0.1821  0.5385 -0.0439
 2648SOL     OW10662   3.940   4.145   4.594 -0.0994  0.0644  0.1567
 2648SOL    HW210663   4.004   4.078   4.571  0.2514  0.3318  0.3485
 2648SOL    HW310664   3.856   4.100   4.592  0.4008 -1.1011  3.0703
 2648SOL    MW410665   3.937   4.130   4.591  0.0129 -0.0539  0.5670
 2649SOL     OW10666   3.561   0.376   4.784  0.1599 -0.2897  0.2551
 2649SOL    HW210667   3.634   0.319   4.810 -0.6251 -1.0524  0.8090
 2649SOL    HW310668   3.602   0.460   4.764  1.2203 -0.7749  0.3551
 2649SOL    MW410669   3.576   0.379   4.785  0.1957 -0.4543  0.3409
 2650SOL     OW10670   3.350   1.341   4.531 -0.2867  0.0283  0.5287
 2650SOL    HW210671   3.340   1.253   4.569 -0.9862  0.0036  0.3006
 2650SOL    HW310672   3.339   1.327   4.437  0.9435  0.1654  0.3593
 2650SOL    MW410673   3.347   1.327   4.524 -0.2162  0.0432  0.4764
 2651SOL     OW10674   4.468   3.803   4.612 -0.0747  0.1219 -0.1800
 2651SOL    HW210675   4.377   3.774   4.612  0.1077 -0.4985  1.1870
 2651SOL    HW310676   4.464   3.898   4.596 -1.0364  0.2709  0.8761
 2651SOL    MW410677   4.456   3.812   4.610 -0.1774  0.0596  0.1392
 2652SOL     OW10678   4.239   0.489   4.736 -0.0026 -0.2425 -0.0554
 2652SOL    HW210679   4.247   0.532   4.822 -0.3741 -0.2978  0.0065
 2652SOL    HW310680   4.294   0.542   4.678  1.4303 -1.0634  0.5383
 2652SOL    MW410681   4.247   0.502   4.740  0.1378 -0.3580  0.0310
 2653SOL     OW10682   0.247   0.527   4.241  0.7940  0.0908 -0.4739
 2653SOL    HW210683   0.243   0.497   4.332  0.4395  0.0532 -0.4996
 2653SOL    HW310684   0.317   0.475   4.201  1.2021  0.3762 -0.1245
 2653SOL    MW410685   0.256   0.516   4.248  0.8011  0.1235 -0.4315
 2654SOL     OW10686   2.016   0.514   4.572 -0.2087  0.0696 -0.5456
 2654SOL    HW210687   2.058   0.598   4.590 -1.0263  0.2070  0.7943
 2654SOL    HW310688   2.048   0.456   4.642  1.1354 -1.0285 -2.0271
 2654SOL    MW410689   2.026   0.517   4.584 -0.1392 -0.0572 -0.5641
 2655SOL     OW10690   1.648   1.301   4.796 -0.3065 -0.3481 -0.2307
 2655SOL    HW210691   1.743   1.307   4.783 -0.3399 -1.6073 -1.1079
 2655SOL    HW310692   1.615   1.385   4.763  0.5360  0.2759  0.4776
 2655SOL    MW410693   1.656   1.313   4.790 -0.1997 -0.4319 -0.2527
 2656SOL     OW10694   0.422   1.667   4.270 -0.1028  0.3315 -0.0411
 2656SOL    HW210695   0.340   1.636   4.232  0.0344  0.4662 -0.4565
 2656SOL    HW310696   0.424   1.629   4.357 -1.4866  1.8229  0.6648
 2656SOL    MW410697   0.412   1.658   4.276 -0.2673  0.5461 -0.0024
 2657SOL     OW10698   0.330   0.687   4.638  0.2118 -0.3711  0.1418
 2657SOL    HW210699   0.338   0.777   4.607  1.7182 -0.2656  0.7584
 2657SOL    HW310700   0.289   0.695   4.724 -0.4649 -0.3464 -0.1839
 2657SOL    MW410701   0.326   0.700   4.645  0.3213 -0.3540  0.1798
 2658SOL     OW10702   1.648   1.039   4.479 -0.1743  0.3418  0.4892
 2658SOL    HW210703   1.588   0.966   4.462 -0.5089  0.1126  2.4575
 2658SOL    HW310704   1.652   1.044   4.575  1.8490  1.2755  0.3765
 2658SOL    MW410705   1.640   1.030   4.489  0.0485  0.4349  0.7343
 2659SOL     OW10706   2.771   2.825   4.745 -0.3452  0.0842 -0.3853
 2659SOL    HW210707   2.797   2.761   4.678  0.6963 -0.2243  0.2990
 2659SOL    HW310708   2.700   2.782   4.793  0.1727 -0.4460 -0.0978
 2659SOL    MW410709   2.765   2.811   4.743 -0.1395 -0.0262 -0.2570
 2660SOL     OW10710   0.026   2.018   4.621 -0.3175 -0.0885 -0.2088
 2660SOL    HW210711  -0.058   2.063   4.606 -0.0531  0.1405 -1.0089
 2660SOL    HW310712   0.090   2.089   4.627 -0.4493 -0.1124  2.5296
 2660SOL    MW410713   0.023   2.034   4.620 -0.3000 -0.0613  0.0467
 2661SOL     OW10714   1.368   3.097   4.810  0.3437 -0.1334 -0.2880
 2661SOL    HW210715   1.325   3.018   4.843  0.9499  0.4236  1.9652
 2661SOL    HW310716   1.299   3.163   4.805  0.2706 -0.1846  0.0449
 2661SOL    MW410717   1.354   3.095   4.814  0.4141 -0.0665  0.0529
 2662SOL     OW10718   0.375   2.917   4.508 -0.1893 -0.2494  0.2916
 2662SOL    HW210719   0.376   3.005   4.544 -0.0713 -0.8634  1.8602
 2662SOL    HW310720   0.465   2.886   4.518 -0.5307 -1.0354  1.0228
 2662SOL    MW410721   0.387   2.924   4.514 -0.2188 -0.4339  0.5956
 2663SOL     OW10722   1.117   2.051   4.511  0.0042  0.2568 -0.0632
 2663SOL    HW210723   1.169   2.131   4.519 -0.9139  0.8936 -0.5188
 2663SOL    HW310724   1.152   1.994   4.580  0.5194  1.1173  0.3953
 2663SOL    MW410725   1.129   2.054   4.521 -0.0490  0.4542 -0.0634
 2664SOL     OW10726   3.118   3.289   4.487 -0.1331 -0.1873 -0.4902
 2664SOL    HW210727   3.043   3.339   4.520 -0.4444 -0.1956 -1.1805
 2664SOL    HW310728   3.108   3.203   4.527  0.2167  0.1983  0.4345
 2664SOL    MW410729   3.107   3.284   4.497 -0.1280 -0.1376 -0.4592
 2665SOL     OW10730   0.900   2.931   4.590  0.0661 -0.3390  0.1096
 2665SOL    HW210731   0.992   2.913   4.569  0.0191  1.2316 -1.5536
 2665SOL    HW310732   0.878   3.008   4.538 -3.0943 -2.5360 -1.9902
 2665SOL    MW410733   0.909   2.939   4.580 -0.3571 -0.4215 -0.3867
 2666SOL     OW10734   0.436   4.059   4.544  0.1287 -0.2865  0.3241
 2666SOL    HW210735   0.440   4.047   4.449  0.1328 -0.6505  0.3715
 2666SOL    HW310736   0.503   4.125   4.562 -0.1110  0.0374  0.0325
 2666SOL    MW410737   0.445   4.066   4.534  0.0976 -0.2918  0.2923
 2667SOL     OW10738   4.396   4.079   4.532  0.4998 -0.1693  0.0769
 2667SOL    HW210739   4.475   4.106   4.577 -0.1457  1.4992  0.2445
 2667SOL    HW310740   4.426   4.053   4.445  1.5398 -1.9450  0.9248
 2667SOL    MW410741   4.410   4.079   4.526  0.5522 -0.1841  0.2112
 2668SOL     OW10742   2.678   0.683   4.588  0.4265 -0.3012 -0.2645
 2668SOL    HW210743   2.594   0.637   4.596  1.0269 -1.3363  0.3697
 2668SOL    HW310744   2.655   0.774   4.571 -0.8081 -0.7778 -1.1689
 2668SOL    MW410745   2.664   0.689   4.587  0.3426 -0.5006 -0.2999
 2669SOL     OW10746   3.782   3.515   4.516  0.1211  0.0432  0.1529
 2669SOL    HW210747   3.788   3.546   4.426 -2.0462 -0.1204 -0.0758
 2669SOL    HW310748   3.871   3.488   4.538  1.0085  1.5869 -1.3787
 2669SOL    MW410749   3.794   3.516   4.507 -0.0479  0.2253 -0.0792
 2670SOL     OW10750   2.498   2.759   4.833  0.4245 -0.0429  0.0056
 2670SOL    HW210751   2.440   2.830   4.861  0.4506 -0.1572  0.3597
 2670SOL    HW310752   2.445   2.680   4.842  0.9149 -0.2553  1.2210
 2670SOL    MW410753   2.483   2.758   4.838  0.4926 -0.0861  0.2127
 2671SOL     OW10754   1.603   0.532   4.716 -0.3904 -0.0800  0.0267
 2671SOL    HW210755   1.662   0.586   4.768 -0.0163 -0.5502  0.0889
 2671SOL    HW310756   1.648   0.520   4.632 -1.0847  0.8616 -0.5068
 2671SOL    MW410757   1.617   0.538   4.712 -0.4326 -0.0178 -0.0358
 2672SOL     OW10758   1.160   4.437   4.249 -0.0158  0.2624  0.0964
 2672SOL    HW210759   1.227   4.385   4.205 -0.3032 -0.3332  0.3561
 2672SOL    HW310760   1.191   4.444   4.339 -1.4958 -2.1189  0.8409
 2672SOL    MW410761   1.173   4.431   4.255 -0.2490 -0.1297  0.2289
 2673SOL     OW10762   1.721   1.377   4.242 -0.2812  0.3740 -0.1134
 2673SOL    HW210763   1.756   1.300   4.198  0.7068  1.1709 -0.7431
 2673SOL    HW310764   1.642   1.346   4.286 -0.9943 -0.5747 -2.0048
 2673SOL    MW410765   1.715   1.363   4.242 -0.2450  0.3539 -0.4468
 2674SOL     OW10766   4.223   3.697   4.536  0.0689 -0.5577 -0.1233
 2674SOL    HW210767   4.247   3.663   4.450 -0.9684  0.2314 -0.7323
 2674SOL    HW310768   4.188   3.620   4.582  2.7993 -1.5165  0.4599
 2674SOL    MW410769   4.222   3.682   4.531  0.2928 -0.5801 -0.1273
 2675SOL     OW10770   0.911   0.935   4.247  0.2951 -0.1631 -0.3738
 2675SOL    HW210771   0.846   0.873   4.214  0.0883  0.4206 -1.0902
 2675SOL    HW310772   0.996   0.895   4.227  0.1714 -1.4093  1.4910
 2675SOL    MW410773   0.914   0.922   4.240  0.2515 -0.2505 -0.2217
 2676SOL     OW10774   4.355   0.872   4.517 -0.1107 -0.5132 -0.0490
 2676SOL    HW210775   4.267   0.906   4.503  0.0221 -0.0399  0.2516
 2676SOL    HW310776   4.403   0.896   4.438 -0.2321 -0.7164 -0.1861
 2676SOL    MW410777   4.350   0.879   4.505 -0.1092 -0.4776 -0.0277
 2677SOL     OW10778   3.832   1.464   4.420  0.1576 -0.0485 -0.3255
 2677SOL    HW210779   3.756   1.468   4.478  0.5603 -0.1666  0.2187
 2677SOL    HW310780   3.907   1.475   4.479  0.6150 -1.1652 -0.6995
 2677SOL    MW410781   3.832   1.466   4.435  0.2711 -0.2115 -0.3028
 2678SOL     OW10782   0.358   0.237   4.509 -0.4486 -0.0194 -0.2512
 2678SOL    HW210783   0.434   0.290   4.532 -0.1253 -0.9647  0.9036
 2678SOL    HW310784   0.283   0.297   4.515 -0.1013  0.2915  1.1559
 2678SOL    MW410785   0.358   0.252   4.513 -0.3601 -0.1031  0.0873
 2679SOL     OW10786   1.150   1.304   4.291 -0.1755  0.3230  0.4489
 2679SOL    HW210787   1.220   1.251   4.252 -1.0394  0.6002 -1.4940
 2679SOL    HW310788   1.152   1.280   4.384  1.8939 -0.3443  0.2661
 2679SOL    MW410789   1.160   1.294   4.298 -0.0166  0.2716  0.1688
 2680SOL     OW10790   3.748   1.913   4.492 -0.4702 -0.1968  0.0686
 2680SOL    HW210791   3.750   1.939   4.400  1.4487  0.9611  0.4202
 2680SOL    HW310792   3.667   1.862   4.501 -0.5282 -0.5616 -2.3152
 2680SOL    MW410793   3.738   1.910   4.481 -0.2246 -0.0921 -0.1993
 2681SOL     OW10794   0.956   1.610   4.530  0.4713 -0.1794 -0.1766
 2681SOL    HW210795   0.933   1.629   4.439  0.8423 -0.8033 -0.4066
 2681SOL    HW310796   0.901   1.669   4.582 -0.4594 -0.5236 -0.7685
 2681SOL    MW410797   0.946   1.620   4.525  0.3974 -0.3072 -0.2842
 2682SOL     OW10798   1.754   1.802   4.196 -0.0063 -0.3263  0.2235
 2682SOL    HW210799   1.753   1.890   4.159 -0.3215 -0.7638 -0.8172
 2682SOL    HW310800   1.746   1.816   4.290 -0.8851  0.7193  0.0021
 2682SOL    MW410801   1.753   1.815   4.203 -0.1638 -0.2459  0.0572
 2683SOL     OW10802   2.336   4.116   4.487  0.1313 -0.4976 -0.1962
 2683SOL    HW210803   2.341   4.026   4.520  0.3414 -0.7320 -0.8686
 2683SOL    HW310804   2.314   4.106   4.395  1.4655  0.1109 -0.5750
 2683SOL    MW410805   2.333   4.103   4.480  0.3347 -0.4482 -0.3352
 2684SOL     OW10806   3.356   3.461   4.536 -0.1345 -0.4725  0.0530
 2684SOL    HW210807   3.433   3.405   4.526  0.2628  0.3965 -2.1709
 2684SOL    HW310808   3.281   3.402   4.527  0.2844 -0.8651 -0.9417
 2684SOL    MW410809   3.356   3.446   4.534 -0.0265 -0.4096 -0.3724
 2685SOL     OW10810   1.567   2.779   4.256 -0.0748 -0.1968 -0.0381
 2685SOL    HW210811   1.566   2.874   4.245 -0.7684 -0.3997 -1.8068
 2685SOL    HW310812   1.532   2.764   4.344 -0.6049  1.1489 -0.0196
 2685SOL    MW410813   1.562   2.789   4.266 -0.2363 -0.0460 -0.2689
 2686SOL     OW10814   3.620   3.750   4.615  0.1263 -0.5286  0.3754
 2686SOL    HW210815   3.609   3.687   4.686 -0.0726 -1.1747 -0.2199
 2686SOL    HW310816   3.655   3.699   4.542 -0.5530 -0.0670 -0.2911
 2686SOL    MW410817   3.623   3.735   4.615  0.0105 -0.5529  0.2089
 2687SOL     OW10818   0.192   3.645   4.537 -0.0013  0.1794 -0.1916
 2687SOL    HW210819   0.275   3.681   4.569  0.4274 -0.9431 -0.0173
 2687SOL    HW310820   0.125   3.707   4.567  0.6163  0.2977  0.9635
 2687SOL    MW410821   0.194   3.658   4.545  0.1367  0.0470 -0.0162
 2688SOL     OW10822   0.955   0.798   4.491 -0.0493 -0.1702 -0.1491
 2688SOL    HW210823   1.018   0.857   4.533 -0.4027  2.0356 -2.5534
 2688SOL    HW310824   0.928   0.846   4.412 -4.1442 -1.4309  0.4138
 2688SOL    MW410825   0.960   0.812   4.486 -0.6362 -0.0455 -0.3920
 2689SOL     OW10826   4.092   0.963   4.479 -0.3964  0.0151 -0.1927
 2689SOL    HW210827   4.000   0.987   4.493 -0.5458 -0.2595 -0.6969
 2689SOL    HW310828   4.096   0.937   4.387 -0.0815 -1.1535  0.1440
 2689SOL    MW410829   4.080   0.963   4.469 -0.3748 -0.1754 -0.2151
 2690SOL     OW10830   0.867   4.081   4.539  0.1135 -0.2345 -0.0629
 2690SOL    HW210831   0.890   4.058   4.449  0.5544 -0.8810  0.2114
 2690SOL    HW310832   0.778   4.116   4.533 -0.3971 -1.5926 -0.5564
 2690SOL    MW410833   0.858   4.082   4.526  0.1042 -0.4988 -0.0916
 2691SOL     OW10834   1.388   0.857   4.453  0.4851  0.1959  0.3738
 2691SOL    HW210835   1.418   0.789   4.513  2.0146  1.0573  0.6202
 2691SOL    HW310836   1.315   0.900   4.499  1.5492  0.7516  1.5767
 2691SOL    MW410837   1.382   0.854   4.467  0.8274  0.3828  0.5651
 2692SOL     OW10838   0.179   0.485   4.505 -0.0107  0.5123  0.1649
 2692SOL    HW210839   0.232   0.544   4.559 -0.4696  0.5527  0.5743
 2692SOL    HW310840   0.094   0.528   4.499 -0.3056 -0.0428  0.3405
 2692SOL    MW410841   0.175   0.499   4.511 -0.1102  0.4444  0.2422
 2693SOL     OW10842   0.457   3.199   4.263  0.1353  0.5042  0.2818
 2693SOL    HW210843   0.377   3.153   4.239 -0.2724  0.5180  1.5521
 2693SOL    HW310844   0.456   3.200   4.359  2.2953 -0.5965  0.3465
 2693SOL    MW410845   0.446   3.193   4.273  0.3665  0.3607  0.4582
 2694SOL     OW10846   0.679   3.086   4.141 -0.1718 -0.1636 -0.0449
 2694SOL    HW210847   0.756   3.138   4.166 -0.6390  0.0414  0.9924
 2694SOL    HW310848   0.608   3.121   4.194 -0.7462 -1.0975 -0.1859
 2694SOL    MW410849   0.680   3.098   4.151 -0.3092 -0.2599  0.0734
 2695SOL     OW10850   1.104   0.179   4.652  0.0704  0.2618 -0.1481
 2695SOL    HW210851   1.108   0.186   4.747 -0.4757  0.3752 -0.1335
 2695SOL    HW310852   1.019   0.217   4.629 -0.4574 -1.1382 -0.5437
 2695SOL    MW410853   1.093   0.185   4.662 -0.0712  0.0920 -0.1979
 2696SOL     OW10854   2.078   4.114   4.642  0.4848  0.0566  0.1198
 2696SOL    HW210855   2.159   4.123   4.592  1.8874 -1.6088  1.9952
 2696SOL    HW310856   2.058   4.021   4.640 -1.7353  0.5196 -0.8031
 2696SOL    MW410857   2.086   4.103   4.635  0.3772 -0.1025  0.2451
 2697SOL     OW10858   1.110   0.023   4.152  0.0390 -0.6891 -0.0584
 2697SOL    HW210859   1.119  -0.064   4.191  0.7239 -0.7382 -0.3133
 2697SOL    HW310860   1.127   0.008   4.058  0.9981 -0.1501  0.0177
 2697SOL    MW410861   1.114   0.009   4.145  0.2558 -0.6244 -0.0825
 2698SOL     OW10862   1.234   1.646   4.556 -0.1901  0.4879 -0.4009
 2698SOL    HW210863   1.248   1.694   4.475 -0.9490  2.6331  0.7058
 2698SOL    HW310864   1.141   1.621   4.553 -0.1820  0.4406 -0.2696
 2698SOL    MW410865   1.224   1.649   4.545 -0.2893  0.7646 -0.2370
 2699SOL     OW10866   1.513   1.282   4.385 -0.2372 -0.4851 -0.0798
 2699SOL    HW210867   1.464   1.337   4.447 -0.3930 -0.6971 -0.0143
 2699SOL    HW310868   1.562   1.221   4.441 -0.1624 -0.4952 -0.1566
 2699SOL    MW410869   1.513   1.281   4.401 -0.2478 -0.5144 -0.0815
 2700SOL     OW10870   4.150   1.709   4.518  0.1273 -0.2039 -0.0627
 2700SOL    HW210871   4.099   1.787   4.540 -0.4897 -0.9502  1.2520
 2700SOL    HW310872   4.130   1.692   4.426  1.1652  1.8287 -0.7082
 2700SOL    MW410873   4.141   1.717   4.509  0.1831 -0.0342  0.0257
 2701SOL     OW10874   1.323   2.415   4.928  0.2205 -0.5689  0.6184
 2701SOL    HW210875   1.409   2.377   4.908  0.2544 -0.2764  0.2197
 2701SOL    HW310876   1.343   2.497   4.973  0.1472 -0.7366  0.9607
 2701SOL    MW410877   1.337   2.420   4.932  0.2155 -0.5522  0.6113
 2702SOL     OW10878   0.590   0.386   4.451 -0.6914  0.3828  0.6207
 2702SOL    HW210879   0.605   0.461   4.508  3.5363  0.2316 -0.1313
 2702SOL    HW310880   0.624   0.414   4.366  0.3333 -2.1497  0.1774
 2702SOL    MW410881   0.597   0.400   4.447  0.0015  0.0287  0.4635
 2703SOL     OW10882   1.119   2.019   4.241  0.2869  0.0989  0.2986
 2703SOL    HW210883   1.104   2.030   4.335  0.0213 -2.8913  0.6509
 2703SOL    HW310884   1.203   1.973   4.236 -1.1629 -2.5538 -0.7500
 2703SOL    MW410885   1.128   2.014   4.253  0.0606 -0.6454  0.2060
 2704SOL     OW10886   0.663   1.329   4.300  0.5462  0.0109  0.8563
 2704SOL    HW210887   0.662   1.410   4.248  0.3560 -0.4367  0.1527
 2704SOL    HW310888   0.745   1.287   4.275  0.2849 -0.3767  0.6457
 2704SOL    MW410889   0.674   1.334   4.290  0.4867 -0.0993  0.7358
 2705SOL     OW10890   2.031   2.169   4.236 -0.1007 -0.1362 -0.2232
 2705SOL    HW210891   2.034   2.203   4.325 -2.2799 -0.1649 -0.1179
 2705SOL    HW310892   2.050   2.245   4.181 -0.0865  0.1650  0.1976
 2705SOL    MW410893   2.034   2.184   4.240 -0.3862 -0.1001 -0.1540
 2706SOL     OW10894   1.537   2.651   4.546 -0.2508 -0.0598 -0.1118
 2706SOL    HW210895   1.573   2.645   4.634  0.9585  0.1117 -0.5855
 2706SOL    HW310896   1.595   2.596   4.493  0.2635  1.4703 -1.1809
 2706SOL    MW410897   1.549   2.643   4.550 -0.0235  0.1645 -0.3157
 2707SOL     OW10898   1.009   3.031   4.848 -0.1569 -0.2363  0.3927
 2707SOL    HW210899   1.083   2.972   4.863  1.1541  1.0479 -0.8693
 2707SOL    HW310900   0.974   3.005   4.763 -0.5870 -0.2287  0.5639
 2707SOL    MW410901   1.014   3.019   4.839 -0.0407 -0.0658  0.2489
 2708SOL     OW10902   2.544   0.193   4.811 -0.1638  0.1944 -0.3119
 2708SOL    HW210903   2.618   0.200   4.873 -0.7827 -1.0810  0.5922
 2708SOL    HW310904   2.582   0.151   4.734  0.2837  0.4972 -0.2649
 2708SOL    MW410905   2.559   0.189   4.809 -0.1862  0.0661 -0.1864
 2709SOL     OW10906   0.874   3.204   4.493 -0.0269  0.2818  0.3023
 2709SOL    HW210907   0.894   3.204   4.399 -3.4083  1.7258 -0.4768
 2709SOL    HW310908   0.941   3.259   4.532  0.7059  0.6446 -1.4334
 2709SOL    MW410909   0.885   3.211   4.486 -0.3764  0.5205 -0.0296
 2710SOL     OW10910   1.138   3.885   4.170 -0.1876 -0.0671 -0.0867
 2710SOL    HW210911   1.061   3.927   4.208 -0.7778  0.2962 -1.6366
 2710SOL    HW310912   1.212   3.920   4.220 -0.7790  1.8870 -0.5086
 2710SOL    MW410913   1.138   3.896   4.181 -0.3436  0.2389 -0.3467
 2711SOL     OW10914   0.421   3.209   4.531 -0.0479  0.3481  0.1326
 2711SOL    HW210915   0.497   3.257   4.563 -0.0232 -0.7012  1.7713
 2711SOL    HW310916   0.352   3.274   4.524  0.9364  1.2671 -1.1643
 2711SOL    MW410917   0.422   3.224   4.535  0.0853  0.3307  0.1779
 2712SOL     OW10918   1.152   3.253   4.888 -0.1391  0.0348  0.3489
 2712SOL    HW210919   1.155   3.291   4.975  0.1744 -0.5051  0.5786
 2712SOL    HW310920   1.088   3.183   4.895 -1.4781  1.1700 -0.3400
 2712SOL    MW410921   1.144   3.249   4.900 -0.2744  0.1132  0.2875
 2713SOL     OW10922   0.636   4.242   4.565 -0.0659  0.0539  0.0124
 2713SOL    HW210923   0.603   4.311   4.623 -2.3282 -0.1852 -0.9367
 2713SOL    HW310924   0.637   4.283   4.478  0.2590 -0.5634 -0.2763
 2713SOL    MW410925   0.631   4.257   4.561 -0.3215 -0.0591 -0.1512
 2714SOL     OW10926   1.250   2.287   4.512  0.3445 -0.2094  0.3853
 2714SOL    HW210927   1.270   2.358   4.451 -2.0078 -0.3597 -0.6126
 2714SOL    HW310928   1.214   2.330   4.590 -1.6208 -0.2906 -0.4427
 2714SOL    MW410929   1.248   2.302   4.514 -0.2252 -0.2403  0.1435
 2715SOL     OW10930   4.201   0.118   4.542 -0.4487 -0.0495  0.3819
 2715SOL    HW210931   4.153   0.133   4.460 -0.0035  1.7707  0.4340
 2715SOL    HW310932   4.190   0.025   4.559 -1.3416 -0.2692 -1.2594
 2715SOL    MW410933   4.193   0.108   4.533 -0.5078  0.1617  0.1721
 2716SOL     OW10934   4.026   0.320   4.630 -0.0935 -0.2178 -0.6867
 2716SOL    HW210935   4.087   0.382   4.672 -0.5808 -0.4006  0.3076
 2716SOL    HW310936   4.074   0.238   4.627  0.3144  0.0474 -1.4085
 2716SOL    MW410937   4.040   0.318   4.635 -0.1040 -0.2069 -0.6504
 2717SOL     OW10938   0.443   3.764   4.597  0.2990  0.2019  0.0453
 2717SOL    HW210939   0.516   3.724   4.644  1.3168  1.4590 -0.4239
 2717SOL    HW310940   0.463   3.857   4.597  0.2871  0.2474 -2.7640
 2717SOL    MW410941   0.455   3.771   4.603  0.4317  0.3738 -0.3872
 2718SOL     OW10942   1.923   0.173   4.748  0.4820 -0.2771 -0.1534
 2718SOL    HW210943   1.863   0.194   4.677 -0.4578 -2.0948  0.0699
 2718SOL    HW310944   1.951   0.084   4.730 -0.0119 -0.8852  1.9184
 2718SOL    MW410945   1.919   0.164   4.736  0.2928 -0.5972  0.1497
 2719SOL     OW10946   1.577   4.358   4.252  0.1092 -0.5242 -0.4310
 2719SOL    HW210947   1.591   4.344   4.345 -0.5885 -0.2328 -0.2837
 2719SOL    HW310948   1.625   4.287   4.210 -0.9122 -1.5932  0.2030
 2719SOL    MW410949   1.586   4.347   4.258 -0.1177 -0.6270 -0.3281
 2720SOL     OW10950   2.893   3.896   4.598 -0.0673  0.0493 -0.0365
 2720SOL    HW210951   2.855   3.848   4.524 -0.2845 -0.1817  0.2192
 2720SOL    HW310952   2.860   3.985   4.588  1.7450  0.5794 -1.4911
 2720SOL    MW410953   2.883   3.901   4.587  0.1431  0.0889 -0.1945
 2721SOL     OW10954   1.495   4.279   4.523  0.2537  0.2596  0.1274
 2721SOL    HW210955   1.578   4.291   4.570  1.4621 -0.5319 -1.7484
 2721SOL    HW310956   1.476   4.186   4.531 -0.3525  0.4038  0.3768
 2721SOL    MW410957   1.504   4.268   4.530  0.3331  0.1740 -0.0873
 2722SOL     OW10958   0.658   3.613   4.684 -0.2246 -0.1504 -0.0512
 2722SOL    HW210959   0.682   3.532   4.638  2.1790  0.0815  0.7117
 2722SOL    HW310960   0.730   3.673   4.664 -0.8994  1.0825  1.1750
 2722SOL    MW410961   0.671   3.610   4.675  0.0035  0.0427  0.2112
 2723SOL     OW10962   1.797   0.784   4.744 -0.3814  0.0791 -0.1375
 2723SOL    HW210963   1.850   0.818   4.672 -0.5670  0.1903 -0.2225
 2723SOL    HW310964   1.725   0.846   4.751  0.0672  0.5184  0.6726
 2723SOL    MW410965   1.795   0.797   4.735 -0.3468  0.1517 -0.0424
 2724SOL     OW10966   4.462   1.136   4.543  0.0669  0.3287 -0.2007
 2724SOL    HW210967   4.373   1.168   4.557  0.3290  0.4809  1.1711
 2724SOL    HW310968   4.459   1.044   4.568  0.2879  0.3178 -0.2131
 2724SOL    MW410969   4.450   1.128   4.548  0.1307  0.3473 -0.0210
 2725SOL     OW10970   0.533   1.836   4.702 -0.3403  0.1572 -0.1663
 2725SOL    HW210971   0.556   1.915   4.653 -0.0944 -0.4650 -1.0618
 2725SOL    HW310972   0.451   1.858   4.746 -0.4109  0.8179 -0.6227
 2725SOL    MW410973   0.525   1.850   4.701 -0.3172  0.1622 -0.3448
 2726SOL     OW10974   1.952   0.861   4.543 -0.2157  0.4330 -0.3202
 2726SOL    HW210975   2.034   0.817   4.564 -0.0761  0.4958 -0.7388
 2726SOL    HW310976   1.974   0.953   4.536 -0.5177  0.5808  0.5908
 2726SOL    MW410977   1.966   0.867   4.545 -0.2372  0.4608 -0.2556
 2727SOL     OW10978   3.422   4.128   4.675  0.0091  0.0429  0.3258
 2727SOL    HW210979   3.340   4.165   4.644 -0.1993  0.1544  0.9972
 2727SOL    HW310980   3.427   4.155   4.767  0.2277 -0.9288  0.6067
 2727SOL    MW410981   3.412   4.136   4.683  0.0105 -0.0706  0.4516
 2728SOL     OW10982   1.249   0.415   4.556  0.1972  0.3246 -0.0173
 2728SOL    HW210983   1.188   0.449   4.491 -0.3807  1.1877  0.9428
 2728SOL    HW310984   1.209   0.333   4.586 -0.0493  0.4401 -0.0264
 2728SOL    MW410985   1.236   0.409   4.552  0.0886  0.4537  0.1087
 2729SOL     OW10986   2.006   2.777   4.730 -0.0252  0.4450  0.6059
 2729SOL    HW210987   2.031   2.695   4.773 -0.6403  0.2497  0.5856
 2729SOL    HW310988   2.089   2.813   4.697  0.4489  0.5505  1.8711
 2729SOL    MW410989   2.020   2.771   4.731 -0.0436  0.4332  0.7701
 2730SOL     OW10990   1.274   2.655   4.606  0.6897 -0.2000  0.2312
 2730SOL    HW210991   1.367   2.648   4.584  0.5726 -1.8579  0.2334
 2730SOL    HW310992   1.240   2.720   4.544  1.7391  0.0715 -0.0783
 2730SOL    MW410993   1.282   2.663   4.595  0.8128 -0.3829  0.1903
 2731SOL     OW10994   1.791   2.672   4.123 -0.1753  0.0198 -0.0047
 2731SOL    HW210995   1.713   2.713   4.161 -0.2471 -1.0559  1.0350
 2731SOL    HW310996   1.788   2.582   4.155  0.8244 -0.3657 -0.9896
 2731SOL    MW410997   1.780   2.666   4.133 -0.0529 -0.1731  0.0019
 2732SOL     OW10998   0.624   2.808   4.530  0.4417 -0.0668  0.0485
 2732SOL    HW210999   0.697   2.834   4.587  1.0609 -1.5178 -0.0583
 2732SOL    HW311000   0.657   2.823   4.441  0.0693  0.6646  0.0326
 2732SOL    MW411001   0.638   2.813   4.526  0.4743 -0.1619  0.0319
 2733SOL     OW11002   1.147   2.830   4.205  0.7666 -0.2768  0.2542
 2733SOL    HW211003   1.223   2.782   4.172  0.2496  0.9108 -2.8873
 2733SOL    HW311004   1.072   2.783   4.170  0.2052  1.3072 -0.7400
 2733SOL    MW411005   1.148   2.818   4.196  0.6241  0.0892 -0.2913
 2734SOL     OW11006   1.861   2.755   4.476  0.1807  0.8173  0.0362
 2734SOL    HW211007   1.914   2.752   4.556 -0.2445 -0.1963  0.2927
 2734SOL    HW311008   1.828   2.666   4.466  0.7850  0.7664 -1.6636
 2734SOL    MW411009   1.864   2.743   4.486  0.2043  0.6769 -0.1540
 2735SOL     OW11010   1.977   3.850   4.672  0.4937 -0.4157  0.1132
 2735SOL    HW211011   1.896   3.890   4.640  0.6961 -0.0568  0.0450
 2735SOL    HW311012   1.950   3.799   4.748 -0.0360 -1.5193 -0.8175
 2735SOL    MW411013   1.963   3.849   4.678  0.4505 -0.5138 -0.0186
 2736SOL     OW11014   0.921   4.287   4.173 -0.0428 -0.0994 -0.3043
 2736SOL    HW211015   1.002   4.325   4.204  0.0470  0.4459 -1.1808
 2736SOL    HW311016   0.853   4.323   4.230 -0.0419  1.9252 -1.5234
 2736SOL    MW411017   0.923   4.296   4.184 -0.0308  0.2398 -0.5803
 2737SOL     OW11018   0.908   2.390   4.581 -0.0718 -0.3962 -0.3385
 2737SOL    HW211019   0.987   2.415   4.629 -1.5871  0.1184  1.9649
 2737SOL    HW311020   0.884   2.305   4.618 -1.5293  0.2339  0.2169
 2737SOL    MW411021   0.915   2.382   4.592 -0.4641 -0.2453  0.0386
 2738SOL     OW11022   2.420   4.537   4.533 -0.1699  0.4539  0.2317
 2738SOL    HW211023   2.359   4.610   4.523 -1.6344 -0.7588  0.1706
 2738SOL    HW311024   2.415   4.490   4.449  1.5900  0.8848 -0.1472
 2738SOL    MW411025   2.412   4.540   4.520 -0.1309  0.3505  0.1731
 2739SOL     OW11026   2.484   3.079   4.144  0.1527 -0.0313  0.0918
 2739SOL    HW211027   2.421   3.122   4.201 -1.1718 -1.2834 -0.3859
 2739SOL    HW311028   2.483   2.987   4.172  2.3601  0.0821  0.6102
 2739SOL    MW411029   2.476   3.072   4.155  0.2692 -0.1817  0.0973
 2740SOL     OW11030   2.713   2.201   4.593 -0.0464 -0.2643  0.1939
 2740SOL    HW211031   2.634   2.173   4.546  0.0431 -0.6662  0.2789
 2740SOL    HW311032   2.710   2.297   4.590  0.5258 -0.2871 -1.5770
 2740SOL    MW411033   2.702   2.210   4.586  0.0410 -0.3207 -0.0286
 2741SOL     OW11034   2.923   4.366   4.532 -0.0824 -0.2914 -0.0135
 2741SOL    HW211035   2.860   4.299   4.559 -0.8654  0.6486  0.5421
 2741SOL    HW311036   2.917   4.369   4.436 -1.3727  0.2421  0.0764
 2741SOL    MW411037   2.914   4.358   4.523 -0.3557 -0.0978  0.0715
 2742SOL     OW11038   2.075   0.395   4.810  0.5077  0.2432  0.3349
 2742SOL    HW211039   2.020   0.459   4.854 -0.7667 -0.4167 -0.2786
 2742SOL    HW311040   2.019   0.319   4.798  1.5977 -0.4952 -0.1688
 2742SOL    MW411041   2.061   0.394   4.814  0.4838  0.0587  0.1874
 2743SOL     OW11042   2.320   0.316   4.689  0.1415  0.1707  0.1721
 2743SOL    HW211043   2.244   0.334   4.745 -1.2393 -2.2543 -0.8385
 2743SOL    HW311044   2.381   0.270   4.746  1.0547  2.3982  1.0756
 2743SOL    MW411045   2.318   0.313   4.704  0.0799  0.1447  0.1578
 2744SOL     OW11046   0.658   4.343   4.304 -0.4369  0.1415  0.6287
 2744SOL    HW211047   0.678   4.436   4.293  0.5662 -0.0478  0.7838
 2744SOL    HW311048   0.571   4.332   4.267 -0.0493  0.9104 -0.5271
 2744SOL    MW411049   0.649   4.353   4.298 -0.2534  0.2179  0.4969
 2745SOL     OW11050   0.438   0.948   4.557 -0.5228  0.9068  0.6903
 2745SOL    HW211051   0.444   0.943   4.461 -0.2146 -0.5045  0.7702
 2745SOL    HW311052   0.529   0.956   4.586 -0.4342 -0.8969  0.9610
 2745SOL    MW411053   0.451   0.949   4.548 -0.4704  0.4826  0.7367
 2746SOL     OW11054   3.176   4.261   4.597 -0.6201 -0.1996 -0.3764
 2746SOL    HW211055   3.089   4.300   4.597 -0.9205 -0.8678  0.0477
 2746SOL    HW311056   3.162   4.169   4.575  0.0793 -0.0954 -1.2867
 2746SOL    MW411057   3.163   4.254   4.594 -0.5677 -0.2737 -0.4406
 2747SOL     OW11058   3.394   0.619   4.683  0.0545  0.1203 -0.2132
 2747SOL    HW211059   3.428   0.548   4.737 -0.0555 -0.8999 -1.4490
 2747SOL    HW311060   3.324   0.578   4.632  0.6510  0.8714 -1.6691
 2747SOL    MW411061   3.389   0.604   4.683  0.1187  0.0848 -0.5684
 2748SOL     OW11062   1.602   0.469   4.238  0.1318 -0.0515  0.3739
 2748SOL    HW211063   1.619   0.561   4.217 -2.6579  0.4614  0.2192
 2748SOL    HW311064   1.619   0.463   4.332 -0.0844  0.7272  0.4713
 2748SOL    MW411065   1.607   0.481   4.248 -0.2648  0.1189  0.3662
 2749SOL     OW11066   1.786   0.194   4.498  0.3237  0.0241  0.0203
 2749SOL    HW211067   1.708   0.147   4.528  0.4100 -0.5938 -0.7188
 2749SOL    HW311068   1.800   0.163   4.409  2.6375 -1.4628  0.8587
 2749SOL    MW411069   1.777   0.184   4.491  0.6403 -0.2536  0.0339
 2750SOL     OW11070   0.618   2.072   4.558  0.0921  0.2006  0.5540
 2750SOL    HW211071   0.705   2.084   4.595  0.6842 -0.0664 -0.7157
 2750SOL    HW311072   0.632   2.071   4.463 -1.0238 -1.7917  0.3656
 2750SOL    MW411073   0.631   2.073   4.550  0.0230 -0.0978  0.3610
 2751SOL     OW11074   2.056   1.261   4.262  0.1104 -0.4011 -0.6901
 2751SOL    HW211075   2.133   1.216   4.227 -0.1403 -0.8282 -0.7001
 2751SOL    HW311076   2.078   1.354   4.257  0.8409 -0.5404 -0.1990
 2751SOL    MW411077   2.069   1.267   4.257  0.1738 -0.4759 -0.6266
 2752SOL     OW11078   1.140   1.540   4.156 -0.0282  0.0140  0.0611
 2752SOL    HW211079   1.055   1.567   4.190  0.3545 -0.5594  1.5187
 2752SOL    HW311080   1.150   1.450   4.186  0.7117 -0.2164 -0.8491
 2752SOL    MW411081   1.130   1.532   4.164  0.1199 -0.0920  0.1340
 2753SOL     OW11082   0.619   0.629   4.624 -0.1499 -0.0468  0.1731
 2753SOL    HW211083   0.526   0.647   4.630 -0.3280 -0.6749 -0.6224
 2753SOL    HW311084   0.661   0.711   4.648 -0.8955 -0.0558  1.5317
 2753SOL    MW411085   0.613   0.642   4.628 -0.2719 -0.1309  0.2475
 2754SOL     OW11086   2.128   1.549   4.248 -0.1607  0.6192  0.0307
 2754SOL    HW211087   2.097   1.613   4.183 -1.4001  1.3256  1.2825
 2754SOL    HW311088   2.223   1.554   4.243 -0.2159  0.2628 -2.1178
 2754SOL    MW411089   2.136   1.558   4.238 -0.3316  0.6654 -0.0873
 2755SOL     OW11090   2.080   3.045   4.111 -0.1735  0.0015  0.2650
 2755SOL    HW211091   2.078   3.036   4.016 -3.8996  0.7348  0.2240
 2755SOL    HW311092   2.064   2.957   4.145 -2.1905  0.3243  0.1698
 2755SOL    MW411093   2.078   3.032   4.103 -0.9313  0.1409  0.2475
 2756SOL     OW11094   1.625   2.671   4.802  0.1427  0.1618  0.3372
 2756SOL    HW211095   1.672   2.755   4.803  1.2970 -0.4571 -0.9982
 2756SOL    HW311096   1.694   2.605   4.798 -0.7657 -0.8607  1.4337
 2756SOL    MW411097   1.641   2.674   4.801  0.1750 -0.0546  0.3057
 2757SOL     OW11098   4.477   3.180   4.484 -0.0298  0.8620 -0.0166
 2757SOL    HW211099   4.546   3.245   4.497 -0.8634  1.6763  0.3364
 2757SOL    HW311100   4.467   3.173   4.389  0.2688  1.0246 -0.0585
 2757SOL    MW411101   4.485   3.187   4.473 -0.1006  0.9906  0.0243
 2758SOL     OW11102   1.016   4.310   4.603  0.0235 -0.2928  0.9007
 2758SOL    HW211103   0.990   4.335   4.692  0.0596 -0.1810  0.8790
 2758SOL    HW311104   0.967   4.229   4.587 -1.5812  0.7926  0.2547
 2758SOL    MW411105   1.006   4.303   4.613 -0.1833 -0.1349  0.8130
 2759SOL     OW11106   1.682   2.960   4.515  0.1637  0.0618  0.3730
 2759SOL    HW211107   1.738   3.032   4.486 -0.9057  0.3914 -0.9001
 2759SOL    HW311108   1.729   2.881   4.486  1.0651  0.2518  1.2868
 2759SOL    MW411109   1.696   2.959   4.507  0.1414  0.1307  0.3257
 2760SOL     OW11110   0.188   4.439   4.238 -0.5890 -0.3566 -0.4546
 2760SOL    HW211111   0.183   4.438   4.334 -0.1180  1.3709 -0.3985
 2760SOL    HW311112   0.216   4.528   4.216 -0.0653 -0.9292 -2.1767
 2760SOL    MW411113   0.191   4.451   4.248 -0.4577 -0.2046 -0.6742
 2761SOL     OW11114   1.349   1.407   4.592 -0.2367 -0.1423  0.0151
 2761SOL    HW211115   1.302   1.490   4.579  0.1387  0.0534 -0.0777
 2761SOL    HW311116   1.409   1.425   4.664 -0.4142 -0.4442  0.2408
 2761SOL    MW411117   1.351   1.421   4.600 -0.2105 -0.1564  0.0324
 2762SOL     OW11118   1.565   0.031   4.605  0.0654  0.0270  0.1074
 2762SOL    HW211119   1.485   0.062   4.563 -1.0126 -2.3708  0.3358
 2762SOL    HW311120   1.573   0.086   4.684 -0.5712  1.2125 -0.6414
 2762SOL    MW411121   1.556   0.042   4.610 -0.1608 -0.1329  0.0391
 2763SOL     OW11122   2.726   3.737   4.433 -0.0507 -0.1679 -0.3860
 2763SOL    HW211123   2.787   3.701   4.368  2.3594  2.1508  0.4885
 2763SOL    HW311124   2.714   3.666   4.496  0.0644 -1.3748 -1.6813
 2763SOL    MW411125   2.733   3.723   4.433  0.2825 -0.0215 -0.4416
 2764SOL     OW11126   1.503   4.008   4.532  0.2569 -0.2624 -0.4411
 2764SOL    HW211127   1.461   3.941   4.587 -1.4865  1.2124  0.1048
 2764SOL    HW311128   1.596   4.003   4.554 -0.1387 -1.1166  1.1227
 2764SOL    MW411129   1.509   3.999   4.542 -0.0254 -0.1802 -0.1626
 2765SOL     OW11130   2.323   0.986   4.553  0.0792 -0.3624 -0.2620
 2765SOL    HW211131   2.237   1.029   4.556  0.0066 -0.4676 -0.8461
 2765SOL    HW311132   2.386   1.058   4.555 -0.0372 -0.2471 -0.8666
 2765SOL    MW411133   2.320   1.001   4.554  0.0544 -0.3611 -0.4196
 2766SOL     OW11134   2.684   4.025   4.289 -0.3448 -0.3627 -0.3949
 2766SOL    HW211135   2.682   4.109   4.242 -0.2170  0.1992  0.5888
 2766SOL    HW311136   2.753   3.975   4.245 -0.7585 -0.1473 -1.3118
 2766SOL    MW411137   2.693   4.030   4.277 -0.3824 -0.2604 -0.3862
 2767SOL     OW11138   1.359   0.909   4.826  0.0336  0.5674 -0.1507
 2767SOL    HW211139   1.333   0.880   4.913  0.3549  1.3944  0.2236
 2767SOL    HW311140   1.372   0.828   4.776  0.7407  0.0797  0.8249
 2767SOL    MW411141   1.357   0.895   4.831  0.1694  0.6121  0.0272
 2768SOL     OW11142   2.414   4.415   4.289  0.0357 -0.3082  0.1281
 2768SOL    HW211143   2.339   4.364   4.259 -0.1506  0.4661 -0.7679
 2768SOL    HW311144   2.490   4.366   4.257 -0.0996 -0.8511  0.6384
 2768SOL    MW411145   2.414   4.402   4.281 -0.0069 -0.2770  0.0772
 2769SOL     OW11146   1.773   3.970   4.526 -0.0068 -0.7653  0.1255
 2769SOL    HW211147   1.763   3.933   4.438 -0.7833 -0.4291  0.0742
 2769SOL    HW311148   1.802   4.060   4.510  1.1086 -1.0963  0.2377
 2769SOL    MW411149   1.776   3.977   4.512  0.0378 -0.7644  0.1340
 2770SOL     OW11150   3.584   0.129   4.574 -0.2014  0.1591 -0.6413
 2770SOL    HW211151   3.648   0.137   4.645 -0.6267 -0.2428 -0.2150
 2770SOL    HW311152   3.500   0.146   4.615 -0.5312 -0.8738 -0.8827
 2770SOL    MW411153   3.582   0.132   4.589 -0.3011 -0.0302 -0.6170
 2771SOL     OW11154   1.375   0.664   4.668 -0.1876  0.1479 -0.4841
 2771SOL    HW211155   1.448   0.607   4.693  0.5303  1.2228 -0.0802
 2771SOL    HW311156   1.308   0.604   4.635  0.6929 -0.8950 -0.4152
 2771SOL    MW411157   1.376   0.648   4.667  0.0234  0.1521 -0.4220
 2772SOL     OW11158   3.330   0.254   4.650 -0.3494 -0.3070  0.3341
 2772SOL    HW211159   3.289   0.336   4.620  0.3893  0.1212  0.4982
 2772SOL    HW311160   3.374   0.277   4.731  0.3225 -0.7505  0.0950
 2772SOL    MW411161   3.330   0.268   4.657 -0.1636 -0.3091  0.3238
 2773SOL     OW11162   0.876   1.377   4.665 -0.2791 -0.1229 -0.1408
 2773SOL    HW211163   0.902   1.458   4.620 -2.2053  1.3771  1.4061
 2773SOL    HW311164   0.785   1.364   4.641 -0.1642 -1.4982  0.1389
 2773SOL    MW411165   0.868   1.386   4.656 -0.5180 -0.1066  0.1001
 2774SOL     OW11166   1.844   3.191   4.466 -0.1386  0.0045 -0.0434
 2774SOL    HW211167   1.938   3.199   4.484 -0.2685 -0.3525  0.8233
 2774SOL    HW311168   1.802   3.246   4.533 -0.5246  0.6289 -0.7878
 2774SOL    MW411169   1.851   3.200   4.477 -0.2066  0.0393 -0.0267
 2775SOL     OW11170   2.683   1.670   4.219  0.3395  0.2637 -0.0124
 2775SOL    HW211171   2.694   1.734   4.149 -0.8780 -0.5153 -0.9271
 2775SOL    HW311172   2.678   1.723   4.299  0.5778  1.2295 -0.6246
 2775SOL    MW411173   2.684   1.686   4.221  0.2103  0.2884 -0.2141
 2776SOL     OW11174   1.966   1.741   4.770  0.0415 -0.1891 -0.3020
 2776SOL    HW211175   1.986   1.828   4.803 -3.2938  1.0021 -1.2900
 2776SOL    HW311176   1.988   1.745   4.677  1.2406 -0.9052 -0.0732
 2776SOL    MW411177   1.972   1.753   4.762 -0.2403 -0.1265 -0.4020
 2777SOL     OW11178   2.087   3.623   4.527  0.2398 -0.0628  0.3277
 2777SOL    HW211179   2.040   3.703   4.550 -0.7816 -0.4615 -0.3415
 2777SOL    HW311180   2.065   3.607   4.436 -2.1014 -2.7803  1.2758
 2777SOL    MW411181   2.078   3.631   4.518 -0.2038 -0.4737  0.3643
 2778SOL     OW11182   3.338   2.140   4.471 -0.0515  0.1884  0.2522
 2778SOL    HW211183   3.265   2.099   4.517 -0.1543 -0.6172 -0.6292
 2778SOL    HW311184   3.326   2.234   4.486 -2.6270  0.2525 -1.8705
 2778SOL    MW411185   3.327   2.147   4.479 -0.4046  0.0908 -0.1440
 2779SOL     OW11186   1.755   2.921   4.777 -0.2381 -0.0765  0.1823
 2779SOL    HW211187   1.838   2.876   4.796 -0.8165 -1.2343 -0.0048
 2779SOL    HW311188   1.757   2.934   4.682 -0.0787  0.2932  0.2348
 2779SOL    MW411189   1.766   2.917   4.767 -0.2934 -0.1805  0.1650
 2780SOL     OW11190   2.452   2.520   4.549  0.3302  0.1199  0.0312
 2780SOL    HW211191   2.399   2.482   4.479  1.1728 -1.5267  0.2745
 2780SOL    HW311192   2.438   2.462   4.624  0.4690  1.1327  0.8495
 2780SOL    MW411193   2.443   2.507   4.550  0.4594  0.0365  0.1707
 2781SOL     OW11194   2.058   2.393   4.065 -0.0017  0.2403  0.1507
 2781SOL    HW211195   1.965   2.400   4.086 -0.0230  2.2701 -0.4972
 2781SOL    HW311196   2.060   2.352   3.979 -0.2657 -0.2488  0.3739
 2781SOL    MW411197   2.046   2.388   4.057 -0.0396  0.4437  0.0949
 2782SOL     OW11198   4.238   2.092   4.481  0.3250  0.0962 -0.1105
 2782SOL    HW211199   4.241   2.179   4.521 -0.9954  0.0123  0.1976
 2782SOL    HW311200   4.161   2.050   4.520  0.2236 -0.7595 -1.1976
 2782SOL    MW411201   4.228   2.098   4.492  0.1383 -0.0274 -0.2131
 2783SOL     OW11202   1.377   3.762   4.660 -0.7536  0.1544 -0.3388
 2783SOL    HW211203   1.403   3.675   4.632 -0.1567 -0.6874  2.6899
 2783SOL    HW311204   1.283   3.766   4.643 -0.7031 -0.9177 -0.8520
 2783SOL    MW411205   1.368   3.751   4.654 -0.6683 -0.0982 -0.0072
 2784SOL     OW11206   1.733   0.457   4.499 -0.2980  0.0519  0.4636
 2784SOL    HW211207   1.824   0.483   4.514  0.5521 -1.4217 -1.9625
 2784SOL    HW311208   1.734   0.362   4.506 -1.3354 -0.0864 -1.1934
 2784SOL    MW411209   1.745   0.448   4.502 -0.3228 -0.1607 -0.0749
 2785SOL     OW11210   2.197   0.155   4.234  0.3626 -0.0416 -0.7151
 2785SOL    HW211211   2.119   0.101   4.219  0.3497 -0.1999 -0.0664
 2785SOL    HW311212   2.269   0.102   4.200  0.3649 -0.5212  0.0326
 2785SOL    MW411213   2.196   0.141   4.227  0.3612 -0.1257 -0.5317
 2786SOL     OW11214   1.111   3.674   4.561 -0.0912  0.2197 -0.2871
 2786SOL    HW211215   1.110   3.586   4.598  0.0067  0.6052  0.6533
 2786SOL    HW311216   1.125   3.661   4.468 -1.6576 -0.8424 -0.3825
 2786SOL    MW411217   1.113   3.661   4.554 -0.2850  0.1304 -0.1760
 2787SOL     OW11218   3.667   4.033   4.595 -0.0059 -0.1831 -0.5421
 2787SOL    HW211219   3.585   4.069   4.630  0.4403  0.5800 -0.2619
 2787SOL    HW311220   3.656   3.938   4.603 -0.4353 -0.0636  0.4934
 2787SOL    MW411221   3.654   4.025   4.601 -0.0033 -0.0663 -0.3681
 2788SOL     OW11222   1.074   3.381   4.611  0.2136  0.0633  0.3447
 2788SOL    HW211223   1.076   3.368   4.706 -0.2117  0.7576  0.4476
 2788SOL    HW311224   1.157   3.345   4.581  0.4712  0.0868  1.0142
 2788SOL    MW411225   1.085   3.374   4.620  0.1915  0.1581  0.4463
 2789SOL     OW11226   1.720   3.376   4.662 -0.3626 -0.2149  0.7045
 2789SOL    HW211227   1.641   3.423   4.635 -0.1561 -1.9256 -3.2787
 2789SOL    HW311228   1.689   3.308   4.722 -1.5899  0.5262  0.9222
 2789SOL    MW411229   1.706   3.373   4.666 -0.4972 -0.3428  0.2074
 2790SOL     OW11230   3.156   3.975   4.531  0.2801  0.5926  0.4269
 2790SOL    HW211231   3.079   3.944   4.578  0.9784 -0.4842  0.8981
 2790SOL    HW311232   3.226   3.914   4.557  1.0462  0.9322 -0.7704
 2790SOL    MW411233   3.155   3.963   4.540  0.4733  0.4954  0.3319
 2791SOL     OW11234   3.144   0.062   4.550  0.0861 -0.3990 -0.1285
 2791SOL    HW211235   3.209  -0.005   4.530  0.7708 -0.2246  1.4893
 2791SOL    HW311236   3.192   0.130   4.596 -1.1270 -0.0054  0.5837
 2791SOL    MW411237   3.159   0.062   4.553  0.0162 -0.3240  0.1793
 2792SOL     OW11238   3.832   4.410   4.283  0.0676  0.5309  0.2467
 2792SOL    HW211239   3.838   4.502   4.257  0.7379  0.5827  0.5655
 2792SOL    HW311240   3.910   4.369   4.245 -0.3284  0.0550 -0.0560
 2792SOL    MW411241   3.843   4.417   4.275  0.1040  0.4749  0.2484
 2793SOL     OW11242   2.502   4.285   4.629 -0.1192 -0.1621  0.2460
 2793SOL    HW211243   2.431   4.256   4.573 -1.7026  0.8705  1.6311
 2793SOL    HW311244   2.504   4.380   4.617  0.1526 -0.0424  1.1964
 2793SOL    MW411245   2.493   4.294   4.620 -0.2923 -0.0095  0.5546
 2794SOL     OW11246   2.615   1.447   4.551 -0.2316 -0.2458  0.2398
 2794SOL    HW211247   2.583   1.362   4.523  0.2064  0.2239 -1.7378
 2794SOL    HW311248   2.704   1.430   4.584 -0.6356 -0.7537  1.0640
 2794SOL    MW411249   2.623   1.434   4.552 -0.2275 -0.2507  0.0877
 2795SOL     OW11250   3.381   1.037   4.605 -0.3886  0.1585 -0.3778
 2795SOL    HW211251   3.449   0.979   4.571 -0.7776 -0.0296 -0.8262
 2795SOL    HW311252   3.353   0.995   4.686 -0.6752 -0.2858 -0.7037
 2795SOL    MW411253   3.387   1.024   4.611 -0.4778  0.0750 -0.4802
 2796SOL     OW11254   2.051   1.119   4.521  0.4371  0.7668  0.3165
 2796SOL    HW211255   2.046   1.160   4.434 -1.4466 -0.5326 -0.2222
 2796SOL    HW311256   2.018   1.185   4.581  1.4192  1.5456  0.0202
 2796SOL    MW411257   2.046   1.133   4.517  0.3185  0.6981  0.2065
 2797SOL     OW11258   3.608   1.449   4.568  0.0060  0.2043 -0.1383
 2797SOL    HW211259   3.526   1.404   4.546  0.6696 -0.0071 -2.3181
 2797SOL    HW311260   3.582   1.539   4.586 -0.7990 -0.0516  0.0223
 2797SOL    MW411261   3.594   1.455   4.568 -0.0126  0.1427 -0.4044
 2798SOL     OW11262   3.200   0.489   4.548  0.0302  0.2160  0.0684
 2798SOL    HW211263   3.234   0.498   4.458  0.4961  0.1104  0.2307
 2798SOL    HW311264   3.108   0.514   4.541  0.1661  0.6248 -0.3628
 2798SOL    MW411265   3.193   0.494   4.535  0.1097  0.2560  0.0334
 2799SOL     OW11266   2.423   2.790   4.511 -0.4660 -0.1010 -0.1003
 2799SOL    HW211267   2.352   2.828   4.563  0.0396  0.5670  0.1263
 2799SOL    HW311268   2.445   2.708   4.556 -0.4817  0.1446  0.3668
 2799SOL    MW411269   2.417   2.784   4.524 -0.4013  0.0193 -0.0086
 2800SOL     OW11270   3.597   1.726   4.250 -0.0805 -0.0061  0.2544
 2800SOL    HW211271   3.521   1.674   4.224 -1.5564  0.8432  2.6736
 2800SOL    HW311272   3.576   1.815   4.223 -0.2237  0.3345  1.4609
 2800SOL    MW411273   3.584   1.730   4.243 -0.2942  0.1509  0.7329
 2801SOL     OW11274   2.888   1.973   4.505 -0.0563  0.3699 -0.0234
 2801SOL    HW211275   2.839   2.046   4.545  0.4820  0.6820  0.0690
 2801SOL    HW311276   2.824   1.902   4.498 -0.2959  0.4941  0.8893
 2801SOL    MW411277   2.873   1.974   4.509 -0.0167  0.4275  0.1097
 2802SOL     OW11278   2.756   2.435   4.242  0.6702 -0.2494  0.0289
 2802SOL    HW211279   2.744   2.437   4.337  0.2406 -0.0515 -0.0313
 2802SOL    HW311280   2.673   2.400   4.208  0.8306 -0.3384 -0.2717
 2802SOL    MW411281   2.743   2.430   4.250  0.6349 -0.2353 -0.0191
 2803SOL     OW11282   2.926   2.012   4.233 -0.4476 -0.6182 -0.1092
 2803SOL    HW211283   2.840   2.008   4.191 -0.7239 -0.1240  0.4185
 2803SOL    HW311284   2.907   2.010   4.327 -0.0653  2.5547  0.0912
 2803SOL    MW411285   2.912   2.011   4.240 -0.4339 -0.1345 -0.0129
 2804SOL     OW11286   2.531   2.325   4.126  0.0632  0.5603 -0.0710
 2804SOL    HW211287   2.517   2.336   4.032  0.4475 -1.3688 -0.3698
 2804SOL    HW311288   2.494   2.238   4.146  0.0291  0.9272  1.5478
 2804SOL    MW411289   2.524   2.315   4.116  0.1094  0.3545  0.1030
 2805SOL     OW11290   4.121   3.969   4.510 -0.3224 -0.3441 -0.2999
 2805SOL    HW211291   4.143   3.878   4.525 -2.2528 -0.3582  2.8113
 2805SOL    HW311292   4.202   4.017   4.529  0.2248 -1.2586 -0.3044
 2805SOL    MW411293   4.135   3.964   4.514 -0.5045 -0.4666  0.1101
 2806SOL     OW11294   2.356   3.623   4.502 -0.1398 -0.0510 -0.4082
 2806SOL    HW211295   2.261   3.637   4.511 -0.2411  0.3761 -2.0334
 2806SOL    HW311296   2.394   3.708   4.523 -0.0291 -0.5210  1.3786
 2806SOL    MW411297   2.348   3.636   4.506 -0.1385 -0.0567 -0.3872
 2807SOL     OW11298   2.261   0.093   4.518 -0.2099 -0.3449 -0.4342
 2807SOL    HW211299   2.295   0.176   4.552 -0.7713  0.4593 -1.7923
 2807SOL    HW311300   2.239   0.112   4.427 -0.9941 -1.8059 -0.5605
 2807SOL    MW411301   2.262   0.107   4.510 -0.3874 -0.4315 -0.6304
 2808SOL     OW11302   2.669   0.132   4.308 -0.1448  0.1798  0.4592
 2808SOL    HW211303   2.657   0.225   4.288  1.2001  0.5450  1.3312
 2808SOL    HW311304   2.662   0.127   4.403 -0.2559 -0.6264  0.4112
 2808SOL    MW411305   2.666   0.144   4.318  0.0181  0.1216  0.5684
 2809SOL     OW11306   4.056   3.440   4.522 -0.6176 -0.0091  0.1351
 2809SOL    HW211307   4.077   3.358   4.565  0.5504  0.1562 -0.1177
 2809SOL    HW311308   4.083   3.428   4.431 -1.6863  0.1774 -0.2154
 2809SOL    MW411309   4.062   3.428   4.515 -0.6046  0.0372  0.0553
 2810SOL     OW11310   2.901   0.000   4.189  0.2710  0.2319  0.4907
 2810SOL    HW211311   2.835   0.043   4.245  0.8553  1.4045  0.3063
 2810SOL    HW311312   2.983   0.041   4.214  0.9558 -1.3238  0.8063
 2810SOL    MW411313   2.903   0.011   4.200  0.4385  0.1812  0.5083
 2811SOL     OW11314   3.615   3.302   4.513 -0.2615 -0.2332  0.2978
 2811SOL    HW211315   3.611   3.288   4.418  0.5502  0.9262  0.0752
 2811SOL    HW311316   3.684   3.368   4.524 -0.0751 -0.6601  1.7303
 2811SOL    MW411317   3.624   3.309   4.502 -0.1299 -0.1366  0.4568
 2812SOL     OW11318   1.899   4.249   4.481  0.0218 -0.0650  0.0001
 2812SOL    HW211319   1.963   4.217   4.546 -1.1677 -0.5284  0.9613
 2812SOL    HW311320   1.868   4.332   4.518  0.8529  0.6897 -0.9910
 2812SOL    MW411321   1.904   4.256   4.495 -0.0256 -0.0267 -0.0033
 2813SOL     OW11322   2.716   3.573   4.664 -0.5029 -0.0150  0.0596
 2813SOL    HW211323   2.630   3.531   4.663 -0.4712 -0.0876  0.6703
 2813SOL    HW311324   2.702   3.656   4.710 -0.1557 -0.2154  0.5244
 2813SOL    MW411325   2.703   3.579   4.670 -0.4530 -0.0508  0.2012
 2814SOL     OW11326   1.902   0.577   4.899 -0.2232 -0.1387 -0.0606
 2814SOL    HW211327   1.925   0.615   4.983 -0.6437  0.3885 -0.1840
 2814SOL    HW311328   1.868   0.650   4.848  1.7353 -0.0584 -1.3319
 2814SOL    MW411329   1.901   0.591   4.903 -0.0200 -0.0585 -0.2441
 2815SOL     OW11330   2.022   4.606   4.626  0.1187  0.5827  0.3200
 2815SOL    HW211331   2.085   4.662   4.580 -0.6011  0.3609 -0.9593
 2815SOL    HW311332   2.076   4.539   4.668  0.7498  0.3888 -0.7733
 2815SOL    MW411333   2.038   4.605   4.626  0.1073  0.5279  0.0072
 2816SOL     OW11334   2.426   0.528   4.303  0.0666 -0.0259  0.1206
 2816SOL    HW211335   2.355   0.501   4.244  0.1591  0.8718 -0.4096
 2816SOL    HW311336   2.502   0.477   4.274 -0.7336 -2.1642  1.7060
 2816SOL    MW411337   2.427   0.518   4.291 -0.0267 -0.1895  0.2599
 2817SOL     OW11338   4.418   1.733   4.527  0.4690 -0.8159 -0.4214
 2817SOL    HW211339   4.323   1.730   4.521  0.4988  0.3313 -1.7583
 2817SOL    HW311340   4.438   1.825   4.548  1.2722 -1.0478 -0.1395
 2817SOL    MW411341   4.408   1.745   4.529  0.5789 -0.6951 -0.5608
 2818SOL     OW11342   3.928   4.566   4.817  0.1205  0.0468  0.1136
 2818SOL    HW211343   3.893   4.506   4.751 -0.2092  1.1859 -0.7636
 2818SOL    HW311344   4.016   4.586   4.787  0.7861 -1.1365  1.1964
 2818SOL    MW411345   3.935   4.560   4.804  0.1650  0.0410  0.1411
 2819SOL     OW11346   0.637   3.759   4.404 -0.1636 -0.0044 -0.0527
 2819SOL    HW211347   0.706   3.772   4.469  0.3874  0.0889 -0.6545
 2819SOL    HW311348   0.556   3.763   4.454  0.3073 -1.2243  0.8499
 2819SOL    MW411349   0.636   3.761   4.419 -0.0288 -0.1531 -0.0134
 2820SOL     OW11350   1.305   3.266   4.512  0.5853  0.2001 -0.4173
 2820SOL    HW211351   1.334   3.187   4.558 -0.0420  0.2131  0.0130
 2820SOL    HW311352   1.318   3.247   4.420  0.2398 -0.4900 -0.3233
 2820SOL    MW411353   1.311   3.253   4.506  0.4570  0.1106 -0.3476
 2821SOL     OW11354   2.201   0.742   4.610  0.1800  0.5127  0.3195
 2821SOL    HW211355   2.268   0.680   4.638 -1.3337 -0.6530  1.4477
 2821SOL    HW311356   2.248   0.824   4.596  2.0731 -0.6664 -0.3878
 2821SOL    MW411357   2.216   0.745   4.612  0.2303  0.2034  0.3748
 2822SOL     OW11358   3.801   1.026   4.544 -0.5662  0.3800 -0.4947
 2822SOL    HW211359   3.733   0.967   4.577 -1.0811  0.9105 -0.5944
 2822SOL    HW311360   3.807   1.094   4.610  0.6965 -0.2841  0.0818
 2822SOL    MW411361   3.793   1.027   4.557 -0.4675  0.3623 -0.4315
 2823SOL     OW11362   2.426   0.563   4.600 -0.2689  0.1642  0.2811
 2823SOL    HW211363   2.428   0.565   4.504  1.1252 -1.6725  0.2322
 2823SOL    HW311364   2.392   0.476   4.621 -0.3324  0.4683  1.4431
 2823SOL    MW411365   2.422   0.552   4.590 -0.0937 -0.0380  0.4282
 2824SOL     OW11366   3.561   0.827   4.574 -0.1414  0.0887  0.1859
 2824SOL    HW211367   3.576   0.813   4.480  0.5113  0.8867  0.1628
 2824SOL    HW311368   3.493   0.764   4.597 -0.7189  0.2939 -0.9459
 2824SOL    MW411369   3.554   0.817   4.565 -0.1316  0.2210  0.0329
 2825SOL     OW11370   2.882   2.704   4.513  0.3457 -0.6836 -0.2124
 2825SOL    HW211371   2.972   2.679   4.531  0.4124 -0.3976 -0.1515
 2825SOL    HW311372   2.887   2.794   4.481 -0.0244 -0.2745  0.8635
 2825SOL    MW411373   2.894   2.712   4.511  0.3059 -0.5922 -0.0629
 2826SOL     OW11374   2.683   0.950   4.515 -0.1038  0.3020 -0.3634
 2826SOL    HW211375   2.772   0.970   4.544  0.2684 -1.6777 -0.1038
 2826SOL    HW311376   2.692   0.932   4.421 -0.2242  0.0789 -0.3325
 2826SOL    MW411377   2.696   0.951   4.506 -0.0703  0.0113 -0.3247
 2827SOL     OW11378   2.113   3.146   4.506 -0.2270 -0.6149 -0.2156
 2827SOL    HW211379   2.161   3.163   4.425 -0.7252  0.4671 -0.2963
 2827SOL    HW311380   2.163   3.191   4.573 -1.4536  1.0682 -0.3959
 2827SOL    MW411381   2.126   3.154   4.504 -0.4542 -0.2501 -0.2499
 2828SOL     OW11382   3.526   1.744   4.539 -0.1652  0.0169  0.1746
 2828SOL    HW211383   3.430   1.749   4.535 -0.1549 -0.7781 -1.4417
 2828SOL    HW311384   3.553   1.734   4.448  1.5709  2.0027  0.4290
 2828SOL    MW411385   3.517   1.743   4.526  0.0656  0.1740 -0.0048
 2829SOL     OW11386   3.237   1.764   4.518 -0.2752  0.4310  0.0877
 2829SOL    HW211387   3.204   1.849   4.547 -0.2954  0.7640 -0.9097
 2829SOL    HW311388   3.199   1.752   4.431  0.3303 -0.2560 -0.0856
 2829SOL    MW411389   3.227   1.774   4.511 -0.1981  0.3842 -0.0672
 2830SOL     OW11390   1.459   3.500   4.577  0.2355  0.3866 -0.1846
 2830SOL    HW211391   1.412   3.417   4.570 -0.2002  0.6840 -0.8013
 2830SOL    HW311392   1.481   3.523   4.487  2.7860 -0.4441  0.2050
 2830SOL    MW411393   1.455   3.492   4.564  0.5145  0.3161 -0.2141
 2831SOL     OW11394   0.140   1.601   4.641  0.3406 -0.0467  0.4524
 2831SOL    HW211395   0.113   1.509   4.631 -1.4957  0.5166  0.0038
 2831SOL    HW311396   0.068   1.651   4.603  1.0250  1.6117  1.3060
 2831SOL    MW411397   0.127   1.595   4.634  0.1886  0.2464  0.5059
 2832SOL     OW11398   2.634   3.258   4.478 -0.6817 -0.1063  0.2551
 2832SOL    HW211399   2.637   3.234   4.385 -0.3266 -0.0253  0.2437
 2832SOL    HW311400   2.633   3.175   4.525  2.4584 -0.1986  0.2786
 2832SOL    MW411401   2.634   3.244   4.472 -0.2205 -0.1080  0.2570
 2833SOL     OW11402   0.198   2.229   4.560  0.0444 -0.0190  0.4851
 2833SOL    HW211403   0.288   2.262   4.562 -0.0941  0.3937 -0.0730
 2833SOL    HW311404   0.145   2.306   4.581 -0.2575  0.0260 -0.4394
 2833SOL    MW411405   0.203   2.244   4.563 -0.0137  0.0412  0.2890
 2834SOL     OW11406   4.103   2.543   4.579  0.4430 -1.1249  0.4574
 2834SOL    HW211407   4.121   2.635   4.560 -2.3065 -0.5721  0.3988
 2834SOL    HW311408   4.113   2.499   4.494 -1.8595 -0.2756 -0.2762
 2834SOL    MW411409   4.107   2.549   4.565 -0.2236 -0.9398  0.3529
 2835SOL     OW11410   3.181   2.433   4.251 -0.0130 -0.5513 -0.2162
 2835SOL    HW211411   3.119   2.374   4.209  0.2309 -1.6034  0.8835
 2835SOL    HW311412   3.167   2.517   4.208 -1.6190 -0.9774 -0.5425
 2835SOL    MW411413   3.171   2.436   4.240 -0.1929 -0.7463 -0.1144
 2836SOL     OW11414   2.240   3.250   4.741 -0.5515  0.5678 -0.5842
 2836SOL    HW211415   2.322   3.294   4.763  0.0226  0.1534 -1.8667
 2836SOL    HW311416   2.178   3.321   4.723 -0.5882  0.8892  0.7363
 2836SOL    MW411417   2.243   3.265   4.742 -0.4807  0.5558 -0.5794
 2837SOL     OW11418   2.879   3.366   4.578  0.0245  0.0369  0.0092
 2837SOL    HW211419   2.840   3.431   4.636 -0.6764 -0.2575 -0.1282
 2837SOL    HW311420   2.806   3.332   4.527  0.4292 -0.6367 -0.1365
 2837SOL    MW411421   2.864   3.370   4.579 -0.0145 -0.0908 -0.0281
 2838SOL     OW11422   2.694   3.855   4.790 -0.2331 -0.0232 -0.0901
 2838SOL    HW211423   2.767   3.868   4.730  0.7578  0.0457  1.1218
 2838SOL    HW311424   2.680   3.941   4.829 -0.6150 -0.1605  0.0770
 2838SOL    MW411425   2.702   3.868   4.787 -0.1528 -0.0322  0.0916
 2839SOL     OW11426   3.306   2.441   4.511  0.3157 -0.0870  0.1629
 2839SOL    HW211427   3.272   2.434   4.422  2.3247  1.3869 -0.7585
 2839SOL    HW311428   3.244   2.499   4.556 -0.8532 -1.0512 -0.1735
 2839SOL    MW411429   3.293   2.448   4.505  0.4268 -0.0200 -0.0029
 2840SOL     OW11430   0.176   4.158   4.600 -0.2279 -0.3068 -0.1931
 2840SOL    HW211431   0.184   4.249   4.573 -0.7088 -0.2697 -0.2193
 2840SOL    HW311432   0.265   4.124   4.598 -0.0637  0.1292 -0.3004
 2840SOL    MW411433   0.188   4.165   4.597 -0.2697 -0.2446 -0.2112
 2841SOL     OW11434   3.793   0.164   4.789 -0.0085  0.1573 -0.4811
 2841SOL    HW211435   3.846   0.095   4.829 -0.6762 -0.0946 -0.0110
 2841SOL    HW311436   3.851   0.205   4.725 -0.1094 -2.0115 -2.0562
 2841SOL    MW411437   3.807   0.160   4.786 -0.1099 -0.1621 -0.6266
 2842SOL     OW11438   2.907   1.367   4.578 -0.2496 -0.3076 -0.1236
 2842SOL    HW211439   2.907   1.356   4.483 -1.5797  1.5456 -0.3631
 2842SOL    HW311440   2.982   1.424   4.596 -1.1824  0.9837 -0.2854
 2842SOL    MW411441   2.917   1.373   4.568 -0.5484  0.1073 -0.1764
 2843SOL     OW11442   3.806   1.261   4.671 -0.4807 -0.5402  0.2458
 2843SOL    HW211443   3.880   1.322   4.671 -1.2806  0.4598 -1.0980
 2843SOL    HW311444   3.730   1.316   4.656 -1.0924 -2.0036 -2.2508
 2843SOL    MW411445   3.806   1.276   4.669 -0.6671 -0.6012 -0.2613
 2844SOL     OW11446   0.894   1.634   4.228  0.1127  0.1040 -0.0788
 2844SOL    HW211447   0.917   1.722   4.197  0.7997 -0.5874 -1.5793
 2844SOL    HW311448   0.800   1.626   4.210 -0.1309  0.8291  0.8318
 2844SOL    MW411449   0.884   1.644   4.221  0.1712  0.1084 -0.1569
 2845SOL     OW11450   0.180   1.327   4.582  0.0760  0.4231 -0.0038
 2845SOL    HW211451   0.257   1.284   4.618  1.4280  1.3204 -1.6968
 2845SOL    HW311452   0.121   1.256   4.557  1.8233 -0.4377 -1.8014
 2845SOL    MW411453   0.182   1.312   4.583  0.4850  0.4277 -0.4644
 2846SOL     OW11454   3.354   4.431   4.229  0.2178  0.2354  0.1366
 2846SOL    HW211455   3.342   4.446   4.323 -0.6198 -1.1579  0.2672
 2846SOL    HW311456   3.439   4.388   4.222  0.2051  0.1901  0.2638
 2846SOL    MW411457   3.363   4.427   4.241  0.1059  0.0453  0.1702
 2847SOL     OW11458   1.925   1.324   4.676  0.4657  0.4451  0.2722
 2847SOL    HW211459   1.980   1.382   4.728  1.3934  0.5239 -0.7698
 2847SOL    HW311460   1.889   1.380   4.607 -0.6992  0.3299  0.7691
 2847SOL    MW411461   1.928   1.339   4.673  0.4344  0.4402  0.2007
 2848SOL     OW11462   0.774   1.698   4.729  0.1569  0.2178  0.3581
 2848SOL    HW211463   0.690   1.744   4.727 -0.6882 -1.3291 -0.3264
 2848SOL    HW311464   0.754   1.611   4.764  1.6747  0.2351  1.3235
 2848SOL    MW411465   0.761   1.692   4.733  0.2456  0.0161  0.3948
 2849SOL     OW11466   3.133   1.514   4.620 -0.0137  0.6825 -0.3345
 2849SOL    HW211467   3.170   1.600   4.603  1.1796  0.3372  0.4362
 2849SOL    HW311468   3.196   1.452   4.583  0.4905  0.0734  1.4661
 2849SOL    MW411469   3.146   1.517   4.613  0.2103  0.5566  0.0052
 2850SOL     OW11470   4.407   0.599   4.530  0.0669  0.1060 -0.6523
 2850SOL    HW211471   4.397   0.694   4.538 -0.5253 -0.0293  0.2766
 2850SOL    HW311472   4.361   0.577   4.449 -0.9895  0.4291 -0.1386
 2850SOL    MW411473   4.400   0.608   4.520 -0.1507  0.1307 -0.4621
 2851SOL     OW11474   4.233   1.305   4.298 -0.1920  0.2783  0.0464
 2851SOL    HW211475   4.293   1.238   4.268 -0.5625  0.1005 -0.3068
 2851SOL    HW311476   4.256   1.383   4.247 -1.2212 -0.1899 -1.1514
 2851SOL    MW411477   4.244   1.307   4.287 -0.3772  0.1931 -0.1588
 2852SOL     OW11478   3.788   2.055   4.250 -0.1030  0.0005 -0.1088
 2852SOL    HW211479   3.713   2.026   4.196 -0.8328  0.6616  0.5410
 2852SOL    HW311480   3.789   2.150   4.240  0.2507  0.0511  0.4259
 2852SOL    MW411481   3.778   2.064   4.241 -0.1526  0.0947  0.0477
 2853SOL     OW11482   3.348   2.811   4.484 -0.0621  0.2255 -0.1859
 2853SOL    HW211483   3.360   2.830   4.391  1.0624 -0.8739 -0.2812
 2853SOL    HW311484   3.436   2.816   4.522 -0.3419 -0.4631  0.5913
 2853SOL    MW411485   3.361   2.814   4.477  0.0498 -0.0103 -0.0963
 2854SOL     OW11486   4.045   2.460   4.306  0.3705 -0.0313  0.0977
 2854SOL    HW211487   4.043   2.537   4.248 -0.1879 -0.8463 -0.9919
 2854SOL    HW311488   3.963   2.415   4.287  0.8588 -1.0779  0.4728
 2854SOL    MW411489   4.034   2.464   4.296  0.3619 -0.2770  0.0029
 2855SOL     OW11490   3.598   2.834   4.606  0.1104  0.2489  0.7846
 2855SOL    HW211491   3.633   2.923   4.606 -0.3316  0.4585 -1.4256
 2855SOL    HW311492   3.670   2.780   4.574  0.1840 -0.1031  1.5428
 2855SOL    MW411493   3.612   2.839   4.601  0.0620  0.2303  0.5927
 2856SOL     OW11494   2.208   2.923   4.632  0.0666 -0.1418  0.0553
 2856SOL    HW211495   2.257   2.956   4.708 -1.8437  1.2976  0.6844
 2856SOL    HW311496   2.167   3.000   4.594 -1.0333 -1.2130 -0.9743
 2856SOL    MW411497   2.209   2.937   4.637 -0.3304 -0.0932  0.0029
 2857SOL     OW11498   3.825   2.667   4.515  0.3961  0.5135 -0.1241
 2857SOL    HW211499   3.907   2.625   4.539 -0.6068 -1.5286 -0.1957
 2857SOL    HW311500   3.759   2.599   4.524 -1.1052  1.7601 -1.3627
 2857SOL    MW411501   3.827   2.653   4.519  0.0656  0.4082 -0.2966
 2858SOL     OW11502   3.057   2.847   4.821 -0.2828  0.3422 -0.1739
 2858SOL    HW211503   2.964   2.846   4.798 -0.1844  0.1811 -0.5693
 2858SOL    HW311504   3.058   2.858   4.916 -0.6926  1.3399 -0.2832
 2858SOL    MW411505   3.044   2.848   4.830 -0.3235  0.4523 -0.2403
 2859SOL     OW11506   0.261   1.863   4.748  0.2836  0.1801 -0.4066
 2859SOL    HW211507   0.234   1.772   4.762  0.0343  0.2576 -0.3854
 2859SOL    HW311508   0.186   1.903   4.703 -0.2108  0.7593  0.9056
 2859SOL    MW411509   0.247   1.856   4.744  0.1855  0.2668 -0.2308
 2860SOL     OW11510   3.339   3.772   4.594  0.1323  0.1859 -0.5310
 2860SOL    HW211511   3.434   3.774   4.602  0.0093  1.4885  0.9714
 2860SOL    HW311512   3.317   3.680   4.584  1.5184 -0.1575 -0.4105
 2860SOL    MW411513   3.349   3.760   4.594  0.2990  0.3123 -0.3171
 2861SOL     OW11514   4.028   4.265   4.139 -0.2568  0.3970  0.2937
 2861SOL    HW211515   4.105   4.306   4.178  2.4286 -0.6941 -3.4978
 2861SOL    HW311516   4.021   4.179   4.181  0.4883  0.5894  0.8079
 2861SOL    MW411517   4.037   4.259   4.149  0.1960  0.2780 -0.1388
 2862SOL     OW11518   2.893   2.969   4.439  0.0747 -0.2579 -0.1361
 2862SOL    HW211519   2.814   3.003   4.480 -0.1646  1.1079 -1.6884
 2862SOL    HW311520   2.963   2.988   4.502 -0.2659  1.8945 -0.3870
 2862SOL    MW411521   2.892   2.976   4.453 -0.0014  0.2065 -0.3738
 2863SOL     OW11522   4.161   2.790   4.487 -0.0568 -0.3996  0.0809
 2863SOL    HW211523   4.092   2.854   4.503 -0.5148 -1.2726  1.6353
 2863SOL    HW311524   4.241   2.834   4.517 -0.4372 -0.7303  1.6078
 2863SOL    MW411525   4.163   2.805   4.493 -0.1674 -0.5584  0.4878
 2864SOL     OW11526   0.861   0.293   4.533  0.4799 -0.1854  0.0792
 2864SOL    HW211527   0.868   0.254   4.446  0.9909  0.7747 -0.3224
 2864SOL    HW311528   0.773   0.330   4.535  0.6527  0.2475 -0.2289
 2864SOL    MW411529   0.850   0.293   4.521  0.5702 -0.0016 -0.0153
 2865SOL     OW11530   3.688   0.611   4.733  0.2681 -0.0188  0.5737
 2865SOL    HW211531   3.770   0.603   4.685 -1.3757 -3.9055 -1.8029
 2865SOL    HW311532   3.641   0.683   4.689  1.4335  0.6982  0.4911
 2865SOL    MW411533   3.692   0.619   4.721  0.2050 -0.4370  0.2494
 2866SOL     OW11534   3.595   4.513   4.540 -0.1670  0.4901  0.1995
 2866SOL    HW211535   3.676   4.470   4.568 -0.1604  0.8676  0.7849
 2866SOL    HW311536   3.616   4.607   4.541 -0.2119  0.5153 -0.9644
 2866SOL    MW411537   3.608   4.520   4.544 -0.1719  0.5436  0.1235
 2867SOL     OW11538   0.240   0.056   4.182 -0.3163  0.0346 -0.4293
 2867SOL    HW211539   0.167   0.088   4.236 -0.0227  1.0143 -0.5906
 2867SOL    HW311540   0.316   0.106   4.213  0.1663 -0.5556 -0.6595
 2867SOL    MW411541   0.240   0.067   4.193 -0.2139  0.0860 -0.4811
 2868SOL     OW11542   0.520   1.213   4.937  0.0338  0.2450 -0.3660
 2868SOL    HW211543   0.482   1.246   4.856 -0.1641  0.5155 -0.1616
 2868SOL    HW311544   0.470   1.134   4.957 -0.2369  0.4458 -0.2484
 2868SOL    MW411545   0.509   1.207   4.929 -0.0280  0.3072 -0.3233
 2869SOL     OW11546   3.153   2.643   4.611 -0.5956 -0.1667  0.0941
 2869SOL    HW211547   3.213   2.698   4.560 -0.4765 -1.0103 -0.6785
 2869SOL    HW311548   3.143   2.690   4.694  1.2612 -0.1024  0.2946
 2869SOL    MW411549   3.159   2.656   4.615 -0.3347 -0.2694  0.0186
 2870SOL     OW11550   3.893   4.415   4.547  0.6642 -0.5749  0.0035
 2870SOL    HW211551   3.904   4.322   4.568 -2.3926 -0.8914  0.3443
 2870SOL    HW311552   3.881   4.417   4.452  0.1669 -0.5934  0.0649
 2870SOL    MW411553   3.893   4.403   4.537  0.1953 -0.6194  0.0567
 2871SOL     OW11554   0.217   0.020   4.647 -0.2840  0.2379 -0.1045
 2871SOL    HW211555   0.290   0.053   4.596 -1.0499  1.5930 -0.3379
 2871SOL    HW311556   0.155   0.093   4.652 -2.3946 -1.4116 -1.3662
 2871SOL    MW411557   0.218   0.034   4.641 -0.6635  0.1990 -0.3018
 2872SOL     OW11558   4.027   1.460   4.615  0.2518  0.2791  0.0845
 2872SOL    HW211559   4.089   1.387   4.610 -0.6424 -0.4725 -0.2437
 2872SOL    HW311560   4.081   1.538   4.605  1.0463 -0.3986 -1.1513
 2872SOL    MW411561   4.042   1.461   4.613  0.2384  0.0905 -0.1221
 2873SOL     OW11562   2.029   3.418   4.704 -0.0187 -0.4455 -0.0219
 2873SOL    HW211563   1.933   3.421   4.704  0.0138  0.4133  0.8215
 2873SOL    HW311564   2.055   3.489   4.645  0.0946 -1.0195 -0.6738
 2873SOL    MW411565   2.020   3.428   4.696  0.0005 -0.4079  0.0033
 2874SOL     OW11566   4.264   2.054   4.205 -0.1125  0.5346 -0.3927
 2874SOL    HW211567   4.189   1.998   4.184  0.7051 -1.1561  0.9782
 2874SOL    HW311568   4.266   2.055   4.301  1.1502  1.2055 -0.4225
 2874SOL    MW411569   4.254   2.047   4.215  0.1616  0.3998 -0.2155
 2875SOL     OW11570   0.171   1.306   4.294  0.1896  0.0804  0.1807
 2875SOL    HW211571   0.195   1.311   4.386  0.4743 -1.6746  0.2239
 2875SOL    HW311572   0.245   1.262   4.252  0.2042  1.1444 -0.9468
 2875SOL    MW411573   0.184   1.301   4.301  0.2291 -0.0108  0.0377
 2876SOL     OW11574   0.926   1.904   4.850 -0.1443 -0.1183  0.2113
 2876SOL    HW211575   0.858   1.844   4.819  0.0068 -0.0336 -0.2863
 2876SOL    HW311576   0.911   1.910   4.944 -0.4942 -0.5187  0.1831
 2876SOL    MW411577   0.915   1.897   4.858 -0.1705 -0.1599  0.1421
 2877SOL     OW11578   3.558   1.974   4.117  0.3013  0.0731  0.3750
 2877SOL    HW211579   3.580   1.958   4.025 -0.6612 -0.3076  0.2082
 2877SOL    HW311580   3.476   2.023   4.114  0.9123  1.1699  1.0092
 2877SOL    MW411581   3.550   1.979   4.104  0.2549  0.1676  0.4368
 2878SOL     OW11582   0.647   2.530   4.498  0.1615  0.4357 -0.1478
 2878SOL    HW211583   0.734   2.502   4.525 -0.4450 -0.2127  1.1467
 2878SOL    HW311584   0.645   2.624   4.519  0.7962  0.6212 -0.8698
 2878SOL    MW411585   0.658   2.539   4.504  0.1652  0.3746 -0.0725
 2879SOL     OW11586   3.824   2.313   4.197 -0.1452  0.4791 -0.0953
 2879SOL    HW211587   3.750   2.373   4.203  0.0335  0.5865  1.1068
 2879SOL    HW311588   3.848   2.314   4.104 -1.8638  0.1592 -0.5542
 2879SOL    MW411589   3.818   2.321   4.186 -0.3483  0.4508  0.0033
 2880SOL     OW11590   4.169   3.197   4.658  0.2043 -0.7550  0.3751
 2880SOL    HW211591   4.114   3.122   4.632  2.1947 -2.5213  1.1073
 2880SOL    HW311592   4.255   3.177   4.622  0.9593  0.8015  1.2824
 2880SOL    MW411593   4.173   3.184   4.650  0.5670 -0.7827  0.5913
 2881SOL     OW11594   0.914   4.022   4.268 -0.3255  0.0917 -0.1296
 2881SOL    HW211595   0.825   4.001   4.237 -0.3010 -0.5077  0.2057
 2881SOL    HW311596   0.923   4.116   4.252 -1.0566  0.1723 -0.0856
 2881SOL    MW411597   0.903   4.032   4.262 -0.4187  0.0229 -0.0792
 2882SOL     OW11598   0.856   3.792   4.590  0.0435 -0.1209 -0.0672
 2882SOL    HW211599   0.945   3.756   4.590 -0.2088 -0.7480  0.6674
 2882SOL    HW311600   0.869   3.887   4.586  0.7461 -0.2064  0.0265
 2882SOL    MW411601   0.870   3.800   4.589  0.1030 -0.2148  0.0420
 2883SOL     OW11602   4.369   4.362   4.528  0.0530  0.1252 -0.2870
 2883SOL    HW211603   4.337   4.368   4.438 -0.8831 -0.3751  0.0002
 2883SOL    HW311604   4.370   4.269   4.547 -0.2794  0.2593  0.4038
 2883SOL    MW411605   4.365   4.351   4.519 -0.1140  0.0768 -0.1578
 2884SOL     OW11606   0.143   4.439   4.523 -0.0667 -0.3662  0.2647
 2884SOL    HW211607   0.054   4.405   4.530 -0.1091 -0.1827  0.6262
 2884SOL    HW311608   0.142   4.520   4.574 -0.1686  0.5833 -1.2185
 2884SOL    MW411609   0.131   4.445   4.531 -0.0857 -0.2170  0.1163
 2885SOL     OW11610   4.313   2.366   4.590  0.4142  0.0507  0.0017
 2885SOL    HW211611   4.248   2.435   4.603  1.2055  0.5473  1.5015
 2885SOL    HW311612   4.398   2.410   4.600  0.9629 -0.8096 -0.7516
 2885SOL    MW411613   4.316   2.381   4.593  0.5913  0.0026  0.0997
 2886SOL     OW11614   4.139   4.528   4.623 -0.0454 -0.3396 -0.4332
 2886SOL    HW211615   4.206   4.464   4.597  1.2331  0.3604  1.0531
 2886SOL    HW311616   4.058   4.495   4.584  0.8848 -2.0263 -0.9904
 2886SOL    MW411617   4.137   4.515   4.614  0.2465 -0.4702 -0.3104
 2887NA      NA11618   0.187   0.460   0.751  0.1724 -0.0705 -0.3528
 2888NA      NA11619   2.169   3.861   0.607 -0.1847  0.2745 -0.2002
   4.49070   4.66690  10.00000
