Gromacs Runs On Most of All Computer Systems in water
11584
    1RU5    O5'    1   2.520   2.290   2.734  0.4583  0.5848  0.2468
    1RU5    H5T    2   2.577   2.243   2.673  0.5652  0.7095  0.2510
    1RU5    C5'    3   2.469   2.410   2.678 -0.5737  0.2115 -0.3652
    1RU5   H5'1    4   2.535   2.440   2.596 -0.5946  0.9671 -0.1128
    1RU5   H5'2    5   2.469   2.489   2.753 -1.1553  0.3196 -0.4756
    1RU5    C4'    6   2.328   2.384   2.625  0.0781 -0.6307 -0.5531
    1RU5    H4'    7   2.296   2.473   2.571  0.7442 -0.2262 -0.2983
    1RU5    O4'    8   2.343   2.276   2.537  0.2334 -0.4798  0.2562
    1RU5    C1'    9   2.216   2.207   2.533  0.3673 -0.3930  0.3653
    1RU5    H1'   10   2.173   2.214   2.433 -0.5733 -0.8057  0.7342
    1RU5     N1   11   2.216   2.062   2.567 -0.1889  0.1649  0.1312
    1RU5     C6   12   2.325   1.998   2.631  0.4774 -0.1995  0.1560
    1RU5     H6   13   2.398   2.063   2.676  1.1329 -0.8027 -0.0350
    1RU5     C5   14   2.319   1.866   2.656 -0.4482 -0.2428 -0.2495
    1RU5     H5   15   2.394   1.831   2.725 -1.1805 -0.0261  0.6542
    1RU5     C4   16   2.217   1.781   2.614  0.2605 -0.0002  0.0505
    1RU5     O4   17   2.199   1.667   2.654 -0.0690  0.5538  0.0949
    1RU5     N3   18   2.128   1.847   2.526 -0.3474 -0.3328  0.3141
    1RU5     H3   19   2.061   1.787   2.480 -1.0823  1.2305 -0.6535
    1RU5     C2   20   2.115   1.981   2.515  0.2817 -0.2600  0.0226
    1RU5     O2   21   2.021   2.016   2.448  0.0719 -0.2343  0.2289
    1RU5    C3'   22   2.222   2.340   2.731  1.0816 -0.8023  0.3340
    1RU5    H3'   23   2.271   2.261   2.788  0.2046 -0.8224  1.0726
    1RU5    C2'   24   2.121   2.282   2.627  0.2132  0.2198 -0.4988
    1RU5   H2'1   25   2.060   2.214   2.685 -1.6650  1.4924 -0.9262
    1RU5    O2'   26   2.038   2.377   2.553  0.0273 -0.1769  0.4440
    1RU5   HO'2   27   2.070   2.465   2.576  1.4973 -0.2284 -1.2404
    1RU5    O3'   28   2.184   2.453   2.804  0.4536 -0.2298  0.4190
    2RG3      P   29   2.099   2.451   2.940 -0.1021  0.2327 -0.3899
    2RG3    O1P   30   2.086   2.588   2.989 -0.7369  0.1121  0.3956
    2RG3    O2P   31   2.163   2.350   3.026 -0.2611  0.3238 -0.2660
    2RG3    O5'   32   1.960   2.389   2.896 -0.3484  0.4394 -0.8854
    2RG3    C5'   33   1.866   2.453   2.804  0.3480  0.3512 -0.1709
    2RG3   H5'1   34   1.914   2.505   2.721  0.1756 -0.1502 -0.5935
    2RG3   H5'2   35   1.811   2.527   2.862  0.4437 -0.1734  0.6043
    2RG3    C4'   36   1.756   2.355   2.749 -0.0951  0.1747  0.2998
    2RG3    H4'   37   1.699   2.412   2.676  0.3456  0.2986  0.0545
    2RG3    O4'   38   1.818   2.246   2.694  0.0775  0.7168 -0.2483
    2RG3    C1'   39   1.736   2.129   2.709 -0.0545 -0.4835  0.1696
    2RG3    H1'   40   1.712   2.089   2.611  0.8867 -1.5122  0.3512
    2RG3     N9   41   1.823   2.029   2.781 -0.5306 -0.4163  0.6028
    2RG3     C8   42   1.927   2.053   2.873  0.4752 -0.7516 -0.0351
    2RG3     H8   43   1.949   2.152   2.909  0.1751 -0.5969 -0.2726
    2RG3     N7   44   1.996   1.946   2.896  0.0190  0.0385 -0.2831
    2RG3     C5   45   1.927   1.844   2.829  0.3733 -0.1072  0.2404
    2RG3     C6   46   1.945   1.699   2.834  0.2393  0.1091  0.1898
    2RG3     O6   47   2.034   1.631   2.894 -0.3104  0.0271  0.5978
    2RG3     N1   48   1.850   1.633   2.759  0.3244  0.0616 -0.2462
    2RG3     H1   49   1.861   1.534   2.745  1.2652  0.1808 -0.4287
    2RG3     C2   50   1.756   1.693   2.694  0.2734 -0.0452 -0.0974
    2RG3     N2   51   1.670   1.620   2.631 -0.1966 -0.0516 -0.1188
    2RG3    H21   52   1.670   1.519   2.630 -1.6146 -0.0957  1.5458
    2RG3    H22   53   1.587   1.665   2.593  0.0568  0.0240 -0.5880
    2RG3     N3   54   1.727   1.822   2.692 -0.0643  0.5608  0.0802
    2RG3     C4   55   1.817   1.892   2.764  0.2761  0.2891 -0.0288
    2RG3    C3'   56   1.660   2.299   2.848 -0.5399  0.2002 -0.4238
    2RG3    H3'   57   1.719   2.280   2.937 -0.5372 -0.0684 -0.4820
    2RG3    C2'   58   1.612   2.164   2.786 -0.5526  0.3679 -0.2471
    2RG3   H2'1   59   1.585   2.087   2.859  0.9096 -0.6008 -0.7007
    2RG3    O2'   60   1.507   2.170   2.688 -0.2797 -0.3175  0.2134
    2RG3   HO'2   61   1.422   2.153   2.731 -1.0119 -0.2812 -1.1780
    2RG3    O3'   62   1.552   2.385   2.876  0.7060 -0.2612 -0.3836
    2RG3    H3T   63   1.493   2.386   2.799 -1.1140 -1.1995  0.9601
    5SOL     OW   64   0.615   1.239   1.510  0.4828 -0.1786 -0.2434
    5SOL    HW2   65   0.569   1.187   1.443  1.5273 -0.8357 -0.4629
    5SOL    HW3   66   0.684   1.284   1.462 -1.5483  2.9058 -0.3825
    5SOL    MW4   67   0.618   1.238   1.495  0.3526  0.1416 -0.2906
    6SOL     OW   68   2.391   1.257   1.563  0.0911  0.0884 -0.3896
    6SOL    HW2   69   2.397   1.198   1.638  0.5337  1.0190  0.3152
    6SOL    HW3   70   2.300   1.252   1.535  0.1434 -0.9914 -0.3910
    6SOL    MW4   71   2.380   1.249   1.569  0.1564  0.0685 -0.2968
    7SOL     OW   72   1.429   4.448   3.252 -0.5907 -0.0607 -0.1048
    7SOL    HW2   73   1.344   4.465   3.212  0.2365  1.3759 -1.3245
    7SOL    HW3   74   1.460   4.535   3.279  0.5145 -0.5628  0.2512
    7SOL    MW4   75   1.422   4.462   3.251 -0.3357  0.0629 -0.2186
    8SOL     OW   76   2.567   3.159   3.627 -0.1768 -0.1084 -0.1415
    8SOL    HW2   77   2.626   3.086   3.644  0.1957  0.0162 -0.8857
    8SOL    HW3   78   2.490   3.119   3.586 -1.4659 -0.5339  2.5240
    8SOL    MW4   79   2.564   3.144   3.624 -0.2975 -0.1478  0.1121
    9SOL     OW   80   3.878   0.965   1.331 -0.5337 -0.1307 -0.1578
    9SOL    HW2   81   3.880   1.027   1.403 -2.2445  1.5115 -1.4794
    9SOL    HW3   82   3.917   1.013   1.257 -0.4305 -1.1603 -0.7833
    9SOL    MW4   83   3.884   0.979   1.331 -0.7458 -0.0499 -0.4146
   10SOL     OW   84   0.871   4.308   3.425  0.2713  0.7558  0.2757
   10SOL    HW2   85   0.809   4.335   3.492 -0.8298 -0.9329 -0.0310
   10SOL    HW3   86   0.849   4.363   3.349 -0.6333  0.4160  0.2820
   10SOL    MW4   87   0.860   4.319   3.424  0.0067  0.4878  0.2365
   11SOL     OW   88   1.240   0.647   2.775 -0.1654  0.0017  0.0694
   11SOL    HW2   89   1.289   0.604   2.705 -1.1985  1.9017 -1.8603
   11SOL    HW3   90   1.153   0.607   2.773 -0.6405  1.0651 -0.6910
   11SOL    MW4   91   1.235   0.636   2.766 -0.3644  0.3927 -0.2854
   12SOL     OW   92   0.413   0.633   2.793 -0.4823 -0.0894  0.2610
   12SOL    HW2   93   0.492   0.670   2.755 -0.0759  0.9693  2.0828
   12SOL    HW3   94   0.363   0.601   2.718  0.4437  1.6180 -1.1212
   12SOL    MW4   95   0.417   0.633   2.778 -0.3065  0.2756  0.3188
   13SOL     OW   96   2.252   1.298   4.306  0.2183  0.7148  0.0345
   13SOL    HW2   97   2.299   1.364   4.255 -1.5100  0.8296 -1.4782
   13SOL    HW3   98   2.232   1.229   4.243  0.6814 -0.5806  1.2662
   13SOL    MW4   99   2.256   1.298   4.291  0.0515  0.5591 -0.0029
   14SOL     OW  100   2.300   1.807   4.128  0.9381 -0.5063 -0.3619
   14SOL    HW2  101   2.264   1.879   4.076  1.0768  0.5186  0.9583
   14SOL    HW3  102   2.231   1.787   4.191  2.0335  0.4246  1.1664
   14SOL    MW4  103   2.286   1.814   4.129  1.1010 -0.2482  0.0138
   15SOL     OW  104   0.461   2.127   3.037  0.4071 -0.1086 -0.1090
   15SOL    HW2  105   0.381   2.085   3.068  0.7354 -0.3036  0.4840
   15SOL    HW3  106   0.442   2.220   3.037  0.9068  0.0089  2.1754
   15SOL    MW4  107   0.448   2.134   3.041  0.5163 -0.1187  0.2706
   16SOL     OW  108   0.381   1.014   3.182 -0.2782 -0.3918 -0.2039
   16SOL    HW2  109   0.307   0.998   3.124 -1.2196  0.1914  0.8208
   16SOL    HW3  110   0.376   1.107   3.202  1.6067 -0.0237 -1.2937
   16SOL    MW4  111   0.371   1.024   3.177 -0.1537 -0.2662 -0.2127
   17SOL     OW  112   0.210   4.442   1.454 -0.1009 -0.0065 -0.0258
   17SOL    HW2  113   0.221   4.498   1.531  0.2556  0.9469 -0.7609
   17SOL    HW3  114   0.175   4.360   1.489  0.8963  0.0957  1.2647
   17SOL    MW4  115   0.207   4.438   1.469  0.0777  0.1330  0.0474
   18SOL     OW  116   4.340   0.187   1.194 -0.2465 -0.3109 -0.0037
   18SOL    HW2  117   4.328   0.279   1.219 -0.7802  0.3040 -2.3752
   18SOL    HW3  118   4.432   0.182   1.169 -0.6205  0.0063 -1.4821
   18SOL    MW4  119   4.351   0.198   1.194 -0.3657 -0.1879 -0.5118
   19SOL     OW  120   2.829   1.118   0.827 -0.0563 -0.4264 -0.3054
   19SOL    HW2  121   2.757   1.082   0.775 -0.1535  2.7268 -2.4492
   19SOL    HW3  122   2.906   1.071   0.796 -0.6151 -1.1088 -0.6987
   19SOL    MW4  123   2.829   1.107   0.816 -0.1431 -0.1004 -0.6402
   20SOL     OW  124   1.514   4.389   1.156 -0.8636 -0.2332 -0.1335
   20SOL    HW2  125   1.476   4.375   1.243  0.5287 -0.2644  0.4850
   20SOL    HW3  126   1.531   4.483   1.152  0.6919 -0.4861  0.3173
   20SOL    MW4  127   1.512   4.399   1.167 -0.4747 -0.2704  0.0076
   21SOL     OW  128   4.140   1.047   0.718  0.1078  0.2508 -0.1302
   21SOL    HW2  129   4.234   1.028   0.717  0.1458  0.2784  1.4159
   21SOL    HW3  130   4.117   1.061   0.626  1.5562 -0.0534 -0.5484
   21SOL    MW4  131   4.150   1.047   0.706  0.3042  0.2143  0.0186
   22SOL     OW  132   1.094   1.112   1.312 -0.2689  0.1186  0.1049
   22SOL    HW2  133   1.173   1.161   1.333 -0.3969  0.6200 -0.5498
   22SOL    HW3  134   1.038   1.175   1.266 -1.0349 -0.2348  0.5411
   22SOL    MW4  135   1.097   1.127   1.308 -0.3867  0.1380  0.0761
   23SOL     OW  136   3.036   3.769   1.641  0.2535  0.1143  0.3128
   23SOL    HW2  137   3.075   3.803   1.722 -0.0268 -0.0437  0.5135
   23SOL    HW3  138   3.102   3.707   1.607  0.7489  0.8297 -0.0365
   23SOL    MW4  139   3.050   3.765   1.647  0.2820  0.1879  0.2933
   24SOL     OW  140   0.932   1.051   2.326  0.2548 -0.3526 -0.0791
   24SOL    HW2  141   0.948   1.144   2.306  0.3507 -0.1981  0.7150
   24SOL    HW3  142   0.910   1.050   2.419 -4.2985 -0.5598 -1.0395
   24SOL    MW4  143   0.932   1.063   2.336 -0.3333 -0.3595 -0.1009
   25SOL     OW  144   2.491   4.339   4.023  0.2978  0.0562  0.1045
   25SOL    HW2  145   2.488   4.359   3.930  0.4366 -0.6170 -0.0413
   25SOL    HW3  146   2.540   4.257   4.029 -1.7715 -1.1880  0.5645
   25SOL    MW4  147   2.497   4.331   4.012  0.0429 -0.1965  0.1464
   26SOL     OW  148   2.406   1.640   0.438 -0.1606 -0.0422 -0.2993
   26SOL    HW2  149   2.366   1.567   0.393 -0.9806 -0.1474  0.5830
   26SOL    HW3  150   2.438   1.603   0.521 -1.2087  0.7248  0.4678
   26SOL    MW4  151   2.405   1.626   0.443 -0.4072  0.0452 -0.0817
   27SOL     OW  152   1.727   0.695   1.633  0.1804  0.0758 -0.3065
   27SOL    HW2  153   1.738   0.749   1.711  0.9718 -0.3717 -0.1005
   27SOL    HW3  154   1.641   0.720   1.598  0.2316  0.9521  0.1771
   27SOL    MW4  155   1.717   0.705   1.638  0.2916  0.1324 -0.2155
   28SOL     OW  156   4.136   0.862   3.861 -0.0383  0.1387 -0.2962
   28SOL    HW2  157   4.163   0.953   3.852 -0.8281  0.2845 -1.2433
   28SOL    HW3  158   4.218   0.813   3.863  0.3451  0.5923 -3.0296
   28SOL    MW4  159   4.150   0.868   3.860 -0.0925  0.2179 -0.7820
   29SOL     OW  160   1.796   2.836   0.613  0.1722  0.1020 -0.0257
   29SOL    HW2  161   1.771   2.786   0.691  0.9488 -0.6785 -0.2733
   29SOL    HW3  162   1.881   2.874   0.636 -0.1945  0.9302 -0.0160
   29SOL    MW4  163   1.804   2.834   0.627  0.2263  0.1082 -0.0571
   30SOL     OW  164   4.410   1.082   0.645 -0.2458 -0.5731 -0.0365
   30SOL    HW2  165   4.446   1.046   0.565  1.0266  0.0729  0.2362
   30SOL    HW3  166   4.430   1.176   0.641 -0.2369 -0.5154  0.9906
   30SOL    MW4  167   4.417   1.090   0.634 -0.0768 -0.4802  0.1351
   31SOL     OW  168   1.493   4.128   4.105  0.0405  0.0133 -0.4922
   31SOL    HW2  169   1.409   4.112   4.146 -0.3199 -2.9278 -2.2112
   31SOL    HW3  170   1.521   4.214   4.138 -2.4381 -0.0875  1.9985
   31SOL    MW4  171   1.486   4.138   4.114 -0.3341 -0.3877 -0.3901
   32SOL     OW  172   2.907   2.757   1.774  0.5171 -0.3016 -0.0558
   32SOL    HW2  173   2.927   2.783   1.685 -0.4501 -1.2596 -0.5625
   32SOL    HW3  174   2.883   2.665   1.768 -2.4417  0.3347  0.7145
   32SOL    MW4  175   2.906   2.749   1.762 -0.0007 -0.3440 -0.0211
   33SOL     OW  176   3.444   4.483   3.229  0.4145  0.4301 -0.2147
   33SOL    HW2  177   3.355   4.484   3.196 -0.3675 -1.3067  1.7079
   33SOL    HW3  178   3.488   4.414   3.179 -0.3958 -1.2841  1.3761
   33SOL    MW4  179   3.438   4.474   3.218  0.2048 -0.0253  0.2489
   34SOL     OW  180   1.925   1.817   1.740  0.6394  0.3183 -0.6785
   34SOL    HW2  181   1.983   1.888   1.765  2.2069 -0.8961 -0.7930
   34SOL    HW3  182   1.880   1.793   1.821  0.5947  0.9978 -0.5013
   34SOL    MW4  183   1.927   1.823   1.754  0.8404  0.2477 -0.6703
   35SOL     OW  184   3.308   2.398   2.299 -0.5506 -0.3629 -0.4876
   35SOL    HW2  185   3.377   2.343   2.336  0.0097  0.0369 -0.9324
   35SOL    HW3  186   3.256   2.425   2.375 -0.6137 -1.1976 -0.2253
   35SOL    MW4  187   3.310   2.394   2.314 -0.4852 -0.4203 -0.5119
   36SOL     OW  188   3.696   2.605   1.247  0.2802 -0.1512 -0.4475
   36SOL    HW2  189   3.775   2.598   1.194 -0.0466 -1.1434 -0.7950
   36SOL    HW3  190   3.637   2.538   1.213 -1.1767  1.3647 -0.9756
   36SOL    MW4  191   3.699   2.595   1.236  0.0446 -0.0823 -0.5629
   37SOL     OW  192   3.305   1.977   1.878  0.1768 -0.1130  0.2789
   37SOL    HW2  193   3.349   2.062   1.885 -0.4181  0.2139  0.0457
   37SOL    HW3  194   3.362   1.917   1.926 -0.1315  0.6972  1.6920
   37SOL    MW4  195   3.319   1.981   1.885  0.0577  0.0371  0.4346
   38SOL     OW  196   0.911   0.452   0.728  0.0997 -0.1962 -0.6573
   38SOL    HW2  197   0.898   0.465   0.822  1.8631 -0.4267 -0.3738
   38SOL    HW3  198   0.910   0.357   0.717 -2.2208 -0.1496 -1.2082
   38SOL    MW4  199   0.909   0.442   0.739  0.0262 -0.2205 -0.6925
   39SOL     OW  200   3.277   3.403   3.641 -0.3098 -0.0848 -0.2116
   39SOL    HW2  201   3.306   3.362   3.723  0.6679 -0.2265 -0.6234
   39SOL    HW3  202   3.198   3.354   3.617 -0.9278  0.3285  0.9407
   39SOL    MW4  203   3.271   3.391   3.649 -0.2623 -0.0486 -0.1140
   40SOL     OW  204   2.978   1.345   4.249 -0.1347  0.3241  0.4558
   40SOL    HW2  205   2.999   1.431   4.211 -0.1633  0.9115  1.7445
   40SOL    HW3  206   2.893   1.358   4.292 -1.6239 -1.1743 -1.9480
   40SOL    MW4  207   2.970   1.358   4.250 -0.3350  0.2038  0.3085
   41SOL     OW  208   2.708   1.654   2.116  0.3674 -0.2570 -0.2135
   41SOL    HW2  209   2.799   1.681   2.100  0.4188  1.3282  2.5367
   41SOL    HW3  210   2.713   1.597   2.193 -0.8887 -0.9015 -0.5914
   41SOL    MW4  211   2.721   1.650   2.124  0.2086 -0.1330  0.0997
   42SOL     OW  212   3.222   1.087   0.882 -0.1155  0.1028 -0.4016
   42SOL    HW2  213   3.273   1.153   0.930 -1.1440  0.4925  0.1675
   42SOL    HW3  214   3.168   1.138   0.822 -0.8980 -0.2280  0.0228
   42SOL    MW4  215   3.222   1.103   0.880 -0.3545  0.1106 -0.2705
   43SOL     OW  216   1.396   0.140   2.378 -0.2337  0.1246 -0.6689
   43SOL    HW2  217   1.353   0.178   2.454  1.6052  0.5109  0.1791
   43SOL    HW3  218   1.380   0.046   2.387 -1.9205  0.3524 -1.0142
   43SOL    MW4  219   1.388   0.132   2.389 -0.2135  0.2056 -0.6025
   44SOL     OW  220   3.359   2.581   3.388 -0.3522  0.4036 -0.0557
   44SOL    HW2  221   3.383   2.494   3.420 -2.1202 -0.7315 -1.6961
   44SOL    HW3  222   3.428   2.638   3.420 -0.3536 -1.2092  2.9966
   44SOL    MW4  223   3.371   2.577   3.396 -0.5858  0.0412  0.1307
   45SOL     OW  224   1.102   2.648   4.023  0.2665 -0.1298 -0.2524
   45SOL    HW2  225   1.124   2.731   3.979  0.8721  0.2872  0.8232
   45SOL    HW3  226   1.088   2.586   3.951 -0.1976  0.9077 -1.0678
   45SOL    MW4  227   1.103   2.651   4.007  0.2850  0.0622 -0.2179
   46SOL     OW  228   1.306   2.672   0.224  0.7294  0.3585  0.1698
   46SOL    HW2  229   1.365   2.676   0.148  2.0288 -0.7796  1.0837
   46SOL    HW3  230   1.263   2.757   0.226  1.6928  0.8845 -1.0541
   46SOL    MW4  231   1.308   2.683   0.214  1.0281  0.2780  0.1289
   47SOL     OW  232   3.469   3.792   1.305  0.0219 -0.1711 -0.2508
   47SOL    HW2  233   3.400   3.725   1.308  0.6449 -0.7795  0.9880
   47SOL    HW3  234   3.451   3.848   1.381  0.0151  0.5597 -0.7909
   47SOL    MW4  235   3.457   3.790   1.316  0.1032 -0.1547 -0.1587
   48SOL     OW  236   1.925   0.350   0.455  0.0040 -0.7978  0.0939
   48SOL    HW2  237   1.910   0.349   0.550  1.8945 -0.0760  0.4274
   48SOL    HW3  238   1.988   0.280   0.440  1.5433  0.6339 -0.2804
   48SOL    MW4  239   1.931   0.341   0.466  0.4566 -0.5137  0.0885
   49SOL     OW  240   1.181   1.602   2.525 -0.0145 -0.5589  0.5080
   49SOL    HW2  241   1.140   1.566   2.603  1.1780 -0.8037  1.0366
   49SOL    HW3  242   1.212   1.689   2.552  0.3519 -0.6232  0.2938
   49SOL    MW4  243   1.180   1.609   2.539  0.1912 -0.5996  0.5493
   50SOL     OW  244   2.115   2.485   0.601 -0.2405  0.1942 -0.0595
   50SOL    HW2  245   2.178   2.447   0.539 -1.3123 -2.4912  0.4057
   50SOL    HW3  246   2.110   2.420   0.672 -1.5445  1.6333  1.1904
   50SOL    MW4  247   2.122   2.471   0.602 -0.5541  0.0300  0.1668
   51SOL     OW  248   4.055   0.330   3.881 -0.5383 -0.4773 -0.2045
   51SOL    HW2  249   4.081   0.239   3.899  0.5402 -0.3259 -0.9593
   51SOL    HW3  250   4.032   0.366   3.967  0.4107 -1.0446  0.3032
   51SOL    MW4  251   4.056   0.323   3.895 -0.2713 -0.5322 -0.2372
   52SOL     OW  252   1.454   1.856   2.781 -0.3988 -0.4992 -0.2634
   52SOL    HW2  253   1.543   1.843   2.750 -0.5687  0.6288 -1.2472
   52SOL    HW3  254   1.420   1.768   2.795  0.8968 -0.9334  0.2267
   52SOL    MW4  255   1.461   1.843   2.779 -0.2502 -0.4075 -0.3283
   53SOL     OW  256   0.932   2.409   2.071 -0.4505 -0.7607 -0.1346
   53SOL    HW2  257   0.951   2.377   1.983 -2.5129 -1.2241 -0.4296
   53SOL    HW3  258   0.895   2.334   2.117  0.4777 -0.4833  1.1032
   53SOL    MW4  259   0.930   2.395   2.066 -0.6001 -0.7849 -0.0103
   54SOL     OW  260   1.226   1.427   0.152 -0.0631 -0.0355 -0.0531
   54SOL    HW2  261   1.225   1.522   0.166  1.5390 -0.0114  0.0389
   54SOL    HW3  262   1.215   1.416   0.058  0.9995  0.3051 -0.2235
   54SOL    MW4  263   1.225   1.438   0.142  0.2885  0.0126 -0.0634
   55SOL     OW  264   4.033   1.789   4.080 -0.3678  0.6885  0.8015
   55SOL    HW2  265   3.952   1.753   4.045 -0.6028  1.7766  0.2033
   55SOL    HW3  266   4.099   1.724   4.059 -0.9727  0.1031  0.6948
   55SOL    MW4  267   4.031   1.776   4.073 -0.4787  0.7547  0.7076
   56SOL     OW  268   2.410   3.749   3.915  0.0350  0.3082 -0.1514
   56SOL    HW2  269   2.339   3.693   3.948 -0.0423  1.2912  1.4250
   56SOL    HW3  270   2.490   3.707   3.947  0.1111 -0.1273 -0.8935
   56SOL    MW4  271   2.411   3.736   3.924  0.0350  0.3808 -0.0410
   57SOL     OW  272   2.939   3.564   0.490 -0.3428  0.1757  0.3309
   57SOL    HW2  273   3.023   3.599   0.460  0.1435 -1.9277 -0.8743
   57SOL    HW3  274   2.882   3.640   0.496  1.2276  1.4292 -0.3189
   57SOL    MW4  275   2.943   3.578   0.487 -0.0718  0.0634  0.0862
   58SOL     OW  276   4.446   3.636   2.741  0.3480 -0.3319  0.0443
   58SOL    HW2  277   4.410   3.715   2.702 -0.3029  0.4428  2.1439
   58SOL    HW3  278   4.502   3.667   2.813  0.6159 -1.7422  0.4753
   58SOL    MW4  279   4.449   3.650   2.746  0.2975 -0.4156  0.3781
   59SOL     OW  280   3.754   0.198   0.919  0.2227  0.0646 -0.1150
   59SOL    HW2  281   3.741   0.104   0.931  0.8423  0.0794  0.7301
   59SOL    HW3  282   3.843   0.214   0.949 -0.9223  1.4332  2.8136
   59SOL    MW4  283   3.764   0.188   0.924  0.1533  0.2471  0.3829
   60SOL     OW  284   3.868   3.859   0.440  0.3246 -0.4245  0.6851
   60SOL    HW2  285   3.813   3.860   0.361  0.1913 -1.2918  0.7635
   60SOL    HW3  286   3.885   3.951   0.458 -0.4214 -0.1818  0.1824
   60SOL    MW4  287   3.863   3.871   0.432  0.2089 -0.5069  0.6292
   61SOL     OW  288   3.294   0.234   0.435  0.3097  0.0248 -0.1730
   61SOL    HW2  289   3.238   0.210   0.510 -0.7070  0.6789 -0.6996
   61SOL    HW3  290   3.313   0.327   0.450 -0.2085  0.2527 -0.9108
   61SOL    MW4  291   3.289   0.243   0.447  0.1070  0.1411 -0.3398
   62SOL     OW  292   4.104   4.297   1.960  0.2841 -0.6019  0.0927
   62SOL    HW2  293   4.160   4.328   1.889 -0.0415 -1.5825 -0.5852
   62SOL    HW3  294   4.016   4.292   1.922 -0.4122  1.5629  1.3293
   62SOL    MW4  295   4.100   4.301   1.946  0.1493 -0.4454  0.1663
   63SOL     OW  296   3.304   4.657   3.590  0.4606  0.0100 -0.2822
   63SOL    HW2  297   3.236   4.717   3.621  0.5115  0.2931 -0.7137
   63SOL    HW3  298   3.293   4.578   3.644 -0.3946 -0.0508 -0.5393
   63SOL    MW4  299   3.293   4.654   3.601  0.3545  0.0391 -0.3731
   64SOL     OW  300   2.155   4.031   0.659  0.2113 -0.0198 -0.1358
   64SOL    HW2  301   2.229   4.089   0.643  0.3934 -1.2481 -4.0578
   64SOL    HW3  302   2.186   3.969   0.725  2.2679  0.2123 -0.8748
   64SOL    MW4  303   2.169   4.030   0.666  0.5066 -0.1507 -0.7508
   65SOL     OW  304   0.786   2.809   2.063 -0.1631  0.2738  0.4240
   65SOL    HW2  305   0.756   2.878   2.121 -0.0972  0.1126  0.6516
   65SOL    HW3  306   0.881   2.813   2.067 -0.1189  1.5997 -1.2644
   65SOL    MW4  307   0.794   2.818   2.071 -0.1485  0.4275  0.2313
   66SOL     OW  308   4.197   2.657   2.523 -0.1160  0.0806  0.1559
   66SOL    HW2  309   4.185   2.645   2.429 -0.5138  0.3831  0.1687
   66SOL    HW3  310   4.121   2.616   2.563  0.2761 -0.4413  0.3695
   66SOL    MW4  311   4.185   2.650   2.516 -0.1163  0.0515  0.1855
   67SOL     OW  312   0.734   1.132   1.003  0.1256  0.2163 -0.0828
   67SOL    HW2  313   0.777   1.128   0.918 -0.3413 -1.1099 -0.2557
   67SOL    HW3  314   0.673   1.206   0.996  0.8003  0.7315 -0.5589
   67SOL    MW4  315   0.732   1.141   0.991  0.1530  0.1094 -0.1684
   68SOL     OW  316   4.297   4.466   1.313  0.2747 -0.2507 -0.0563
   68SOL    HW2  317   4.373   4.523   1.302  0.0819 -0.0176 -0.1757
   68SOL    HW3  318   4.332   4.387   1.355  1.0674 -1.2243 -2.4601
   68SOL    MW4  319   4.312   4.463   1.317  0.3543 -0.3481 -0.3891
   69SOL     OW  320   4.028   1.749   2.196 -0.4029 -0.0409 -0.4931
   69SOL    HW2  321   4.113   1.706   2.196  0.5953  1.8240 -2.3820
   69SOL    HW3  322   4.039   1.825   2.254 -1.4035 -0.8613  0.8246
   69SOL    MW4  323   4.041   1.753   2.204 -0.4029  0.0969 -0.5686
   70SOL     OW  324   3.511   1.354   1.992  0.1776 -0.2711 -0.3472
   70SOL    HW2  325   3.564   1.276   2.008  0.3535 -0.3961 -1.4585
   70SOL    HW3  326   3.446   1.326   1.927 -0.8916  0.0346  0.5827
   70SOL    MW4  327   3.510   1.340   1.985  0.0596 -0.2472 -0.3711
   71SOL     OW  328   4.452   4.567   3.242 -0.2451 -0.1149 -0.0413
   71SOL    HW2  329   4.543   4.548   3.267  0.3168  0.0295 -1.8886
   71SOL    HW3  330   4.413   4.606   3.320  1.4586  0.4000  0.5713
   71SOL    MW4  331   4.459   4.570   3.256  0.0544 -0.0272 -0.2041
   72SOL     OW  332   3.410   0.409   0.756 -0.2599  0.0453  0.0834
   72SOL    HW2  333   3.404   0.421   0.661 -0.4012 -2.2838 -0.2196
   72SOL    HW3  334   3.329   0.446   0.790 -2.2637 -3.0602 -1.1326
   72SOL    MW4  335   3.399   0.416   0.748 -0.5429 -0.6717 -0.1171
   73SOL     OW  336   0.703   1.408   2.375  0.3025 -0.1517 -0.2685
   73SOL    HW2  337   0.721   1.501   2.360 -0.0526 -0.4257 -2.5965
   73SOL    HW3  338   0.773   1.379   2.433  0.6883  1.4505  0.0923
   73SOL    MW4  339   0.715   1.416   2.381  0.3065  0.0235 -0.5281
   74SOL     OW  340   1.317   1.141   3.209  0.1889 -0.2648  0.5995
   74SOL    HW2  341   1.225   1.150   3.185  0.0872  0.0189  1.0698
   74SOL    HW3  342   1.354   1.228   3.195  0.3433 -0.3363  0.5659
   74SOL    MW4  343   1.310   1.154   3.204  0.1959 -0.2369  0.6571
   75SOL     OW  344   2.490   4.148   1.154  1.1651 -0.6158 -0.4533
   75SOL    HW2  345   2.582   4.134   1.131  1.3702  0.2211 -0.1464
   75SOL    HW3  346   2.474   4.240   1.135  0.6425 -0.5355  0.3409
   75SOL    MW4  347   2.500   4.158   1.149  1.1234 -0.4945 -0.3082
   76SOL     OW  348   4.136   3.619   1.537 -0.2302  0.0166 -0.0172
   76SOL    HW2  349   4.149   3.678   1.463 -0.9184  0.0230 -0.1349
   76SOL    HW3  350   4.190   3.542   1.516  1.0531  0.8045  0.3710
   76SOL    MW4  351   4.145   3.616   1.524 -0.1516  0.1214  0.0185
   77SOL     OW  352   4.094   4.246   0.334  0.1566  0.1584 -0.1716
   77SOL    HW2  353   4.036   4.175   0.362 -0.5134 -0.0602 -2.0445
   77SOL    HW3  354   4.035   4.316   0.307  0.7985  0.5533 -0.5473
   77SOL    MW4  355   4.079   4.246   0.334  0.1535  0.1817 -0.4683
   78SOL     OW  356   3.757   4.187   1.189  0.3856  0.3001  0.0644
   78SOL    HW2  357   3.818   4.255   1.161 -0.0279  0.9204  0.6509
   78SOL    HW3  358   3.717   4.156   1.107  1.8102 -0.4413 -0.3656
   78SOL    MW4  359   3.759   4.192   1.174  0.5188  0.2847  0.0851
   79SOL     OW  360   0.057   2.034   1.003 -0.0584  0.0312 -0.3695
   79SOL    HW2  361   0.148   2.049   0.980 -0.2464  1.6323 -0.1182
   79SOL    HW3  362   0.010   2.110   0.970 -1.1367 -0.2338  0.4922
   79SOL    MW4  363   0.062   2.046   0.996 -0.2255  0.2074 -0.2226
   80SOL     OW  364   1.741   2.333   1.951  0.2169  0.1284 -0.1842
   80SOL    HW2  365   1.759   2.341   1.858  1.5054 -1.2696 -0.0657
   80SOL    HW3  366   1.745   2.239   1.968  1.0451  0.4518  1.4809
   80SOL    MW4  367   1.744   2.321   1.941  0.4964 -0.0134  0.0511
   81SOL     OW  368   1.721   0.569   1.115 -0.1255 -0.4752  0.3019
   81SOL    HW2  369   1.728   0.503   1.184 -1.7244 -1.1289 -0.1335
   81SOL    HW3  370   1.685   0.521   1.040  1.4897  0.2536 -0.9700
   81SOL    MW4  371   1.717   0.554   1.114 -0.1234 -0.4653  0.0767
   82SOL     OW  372   2.979   0.562   1.638 -0.2835 -0.5310 -0.2375
   82SOL    HW2  373   2.992   0.483   1.691  1.5277 -0.2941 -0.3226
   82SOL    HW3  374   3.060   0.572   1.588 -1.3359  0.1706 -1.8575
   82SOL    MW4  375   2.991   0.553   1.638 -0.1833 -0.4071 -0.4624
   83SOL     OW  376   3.741   0.494   3.059 -0.0360  0.0212 -0.1669
   83SOL    HW2  377   3.714   0.433   2.991 -0.8612  1.0295 -0.7564
   83SOL    HW3  378   3.805   0.552   3.016 -0.4362  0.5548 -0.0563
   83SOL    MW4  379   3.746   0.494   3.045 -0.1976  0.2246 -0.2301
   84SOL     OW  380   2.024   3.107   2.263 -0.4955 -0.5273  0.0084
   84SOL    HW2  381   2.020   3.186   2.318  1.4045 -1.2995  1.2994
   84SOL    HW3  382   2.067   3.136   2.183  0.4126 -0.2950  0.5736
   84SOL    MW4  383   2.029   3.121   2.260 -0.1249 -0.5987  0.2534
   85SOL     OW  384   0.025   0.190   2.833 -0.0287  0.4780  0.1224
   85SOL    HW2  385  -0.034   0.134   2.883  1.6035 -0.0627  1.4740
   85SOL    HW3  386   0.027   0.151   2.745 -1.9818  0.7453 -0.0597
   85SOL    MW4  387   0.017   0.178   2.828 -0.0710  0.4419  0.2766
   86SOL     OW  388   0.886   2.373   1.441  0.8350 -0.4231 -0.3361
   86SOL    HW2  389   0.849   2.434   1.505 -0.8372  0.8627 -2.4587
   86SOL    HW3  390   0.879   2.287   1.483 -0.6767  0.3361  1.0183
   86SOL    MW4  391   0.880   2.369   1.455  0.4150 -0.1535 -0.4375
   87SOL     OW  392   3.646   3.916   3.682  0.3217 -0.2546 -0.0504
   87SOL    HW2  393   3.609   3.834   3.716  2.8028 -0.5458  2.2112
   87SOL    HW3  394   3.592   3.985   3.721 -1.0884 -0.7475 -1.0750
   87SOL    MW4  395   3.634   3.914   3.692  0.4628 -0.3581  0.1130
   88SOL     OW  396   3.310   0.191   2.326  0.3167 -0.7611  0.0318
   88SOL    HW2  397   3.339   0.200   2.235 -0.8318  1.5038 -0.1550
   88SOL    HW3  398   3.267   0.275   2.346  0.4400 -1.2683  2.6307
   88SOL    MW4  399   3.308   0.204   2.317  0.1817 -0.5291  0.3500
   89SOL     OW  400   1.819   2.990   1.577 -0.3371 -0.0497  0.1187
   89SOL    HW2  401   1.808   3.084   1.562 -1.4758  0.1170  1.8491
   89SOL    HW3  402   1.730   2.958   1.593  0.2520 -1.0688  1.4649
   89SOL    MW4  403   1.805   2.998   1.577 -0.4097 -0.1621  0.5246
   90SOL     OW  404   3.258   2.979   1.752 -0.5817  0.2255  0.0702
   90SOL    HW2  405   3.267   2.903   1.695 -2.2913 -0.3950  0.5949
   90SOL    HW3  406   3.316   2.961   1.826 -1.0078 -0.5830  0.2069
   90SOL    MW4  407   3.267   2.967   1.754 -0.8636  0.0370  0.1575
   91SOL     OW  408   2.458   2.750   3.098 -0.1642  0.7247  0.3965
   91SOL    HW2  409   2.496   2.837   3.085 -1.5515  1.3230  0.2312
   91SOL    HW3  410   2.416   2.730   3.014  2.6408 -1.3900 -0.5804
   91SOL    MW4  411   2.458   2.759   3.085  0.0226  0.5248  0.2456
   92SOL     OW  412   3.530   4.434   0.471  0.1521  0.2065  0.1395
   92SOL    HW2  413   3.620   4.467   0.464 -0.2054  1.0524 -0.7117
   92SOL    HW3  414   3.538   4.339   0.460  0.6536  0.5450 -3.0804
   92SOL    MW4  415   3.543   4.426   0.468  0.1709  0.3633 -0.3976
   93SOL     OW  416   2.611   2.032   0.833 -0.3371  0.9716  0.2688
   93SOL    HW2  417   2.585   2.024   0.741  0.9335  1.9549 -0.1984
   93SOL    HW3  418   2.707   2.030   0.831 -0.3163 -0.8326  1.7720
   93SOL    MW4  419   2.621   2.031   0.821 -0.1667  0.8633  0.4055
   94SOL     OW  420   2.926   4.233   1.124 -0.2517 -0.2682  0.2371
   94SOL    HW2  421   2.987   4.283   1.069 -1.5173 -0.0996 -1.0415
   94SOL    HW3  422   2.863   4.297   1.156 -1.6303 -0.9381 -1.0632
   94SOL    MW4  423   2.926   4.248   1.121 -0.6003 -0.3347 -0.1030
   95SOL     OW  424   3.708   4.074   2.559  0.0429 -0.1550  0.0298
   95SOL    HW2  425   3.788   4.098   2.511 -0.6507  0.1477 -0.9931
   95SOL    HW3  426   3.734   4.075   2.651  0.5628  2.5707 -0.1093
   95SOL    MW4  427   3.722   4.077   2.565  0.0198  0.2446 -0.1235
   96SOL     OW  428   1.181   4.536   3.168  0.0629  0.9855  0.0602
   96SOL    HW2  429   1.156   4.622   3.134 -0.6561  0.9274  0.4233
   96SOL    HW3  430   1.151   4.537   3.259  1.2093  0.8243  0.4419
   96SOL    MW4  431   1.174   4.548   3.176  0.1193  0.9561  0.1585
   97SOL     OW  432   2.474   4.630   0.674  0.6986  0.2740 -0.1373
   97SOL    HW2  433   2.538   4.563   0.698 -0.3528 -1.1693 -1.3070
   97SOL    HW3  434   2.460   4.679   0.755  1.5481 -0.8431  0.7063
   97SOL    MW4  435   2.481   4.627   0.688  0.6721 -0.0634 -0.1802
   98SOL     OW  436   0.707   4.623   1.954  0.4768 -0.1562 -0.1684
   98SOL    HW2  437   0.743   4.580   1.876  1.9435 -0.5373  0.7010
   98SOL    HW3  438   0.750   4.709   1.956  1.4359 -0.6407  0.9115
   98SOL    MW4  439   0.717   4.629   1.944  0.7969 -0.2708  0.0886
   99SOL     OW  440   1.929   1.118   1.906 -0.8542  0.1430  0.3184
   99SOL    HW2  441   1.897   1.192   1.958  1.1190  1.3273 -0.0855
   99SOL    HW3  442   1.992   1.157   1.845  0.1815 -1.8484  0.0595
   99SOL    MW4  443   1.933   1.133   1.905 -0.4573  0.0364  0.2309
  100SOL     OW  444   3.555   1.283   4.078 -0.4780  0.0921 -0.1696
  100SOL    HW2  445   3.494   1.243   4.140  0.5018 -2.1554 -0.5800
  100SOL    HW3  446   3.642   1.260   4.112  0.0880  0.3250 -1.4197
  100SOL    MW4  447   3.558   1.275   4.091 -0.2742 -0.1737 -0.3886
  101SOL     OW  448   3.141   2.661   3.553 -0.2867  0.3150  0.6075
  101SOL    HW2  449   3.213   2.624   3.502 -0.0400 -0.1149  1.2617
  101SOL    HW3  450   3.172   2.749   3.578 -0.0667  0.2103  0.7108
  101SOL    MW4  451   3.155   2.668   3.550 -0.2251  0.2444  0.7076
  102SOL     OW  452   3.944   1.096   3.358 -0.6356 -0.0173 -0.0016
  102SOL    HW2  453   3.933   1.159   3.429 -0.6512 -0.3782  0.3160
  102SOL    HW3  454   3.855   1.067   3.337 -0.6471  0.2221 -0.2913
  102SOL    MW4  455   3.931   1.101   3.364 -0.6390 -0.0334  0.0021
  103SOL     OW  456   1.088   4.381   2.477 -0.3306 -0.2623 -0.1459
  103SOL    HW2  457   1.083   4.289   2.503  0.6582 -0.1296  0.5185
  103SOL    HW3  458   1.139   4.423   2.546 -1.3726  0.9280 -0.0694
  103SOL    MW4  459   1.094   4.374   2.489 -0.3376 -0.0877 -0.0479
  104SOL     OW  460   2.949   0.847   2.259  0.3288 -0.2158  0.4300
  104SOL    HW2  461   2.983   0.783   2.196 -0.2208  0.8955 -1.0335
  104SOL    HW3  462   3.027   0.885   2.299  0.8891  1.7660 -2.3463
  104SOL    MW4  463   2.964   0.844   2.256  0.3300  0.1922 -0.1292
  105SOL     OW  464   3.148   1.689   3.799  0.1306 -0.3140 -0.5376
  105SOL    HW2  465   3.135   1.729   3.885  2.2277 -1.3073  0.3003
  105SOL    HW3  466   3.105   1.604   3.806 -1.8219  0.5904 -1.3289
  105SOL    MW4  467   3.141   1.683   3.811  0.1497 -0.3258 -0.5314
  106SOL     OW  468   0.387   0.955   1.641 -0.4004 -0.1524  0.1352
  106SOL    HW2  469   0.392   1.006   1.722  0.0831 -0.5152  0.3371
  106SOL    HW3  470   0.472   0.967   1.600 -0.8663  0.5452 -0.6360
  106SOL    MW4  471   0.399   0.963   1.646 -0.3981 -0.1082  0.0601
  107SOL     OW  472   2.508   2.756   0.971 -0.2062 -0.2369  0.1378
  107SOL    HW2  473   2.582   2.783   1.026 -0.6140 -0.1914  0.6664
  107SOL    HW3  474   2.451   2.834   0.968 -1.3289 -0.9836  1.5624
  107SOL    MW4  475   2.510   2.770   0.978 -0.4084 -0.3293  0.3955
  108SOL     OW  476   0.623   4.343   2.151 -0.0045  0.1730  0.3383
  108SOL    HW2  477   0.715   4.319   2.156  0.6800  2.4419 -0.6669
  108SOL    HW3  478   0.603   4.338   2.057 -0.9904 -0.5786  0.5809
  108SOL    MW4  479   0.633   4.339   2.139 -0.0443  0.3729  0.2375
  109SOL     OW  480   2.671   2.550   4.270 -0.6453 -0.0473 -0.0037
  109SOL    HW2  481   2.606   2.561   4.201 -0.1276  0.6991 -0.3764
  109SOL    HW3  482   2.649   2.616   4.335 -0.2142  0.2666 -0.1721
  109SOL    MW4  483   2.660   2.560   4.270 -0.5202  0.0925 -0.0749
  110SOL     OW  484   2.831   0.076   1.784 -0.2433  0.3716 -0.0908
  110SOL    HW2  485   2.750   0.095   1.830 -0.2664 -2.1177  1.0070
  110SOL    HW3  486   2.883   0.155   1.793 -0.1468 -0.0788  4.5817
  110SOL    MW4  487   2.828   0.089   1.792 -0.2337 -0.0162  0.6706
  111SOL     OW  488   2.327   2.016   3.516 -0.4585  0.5414  0.1112
  111SOL    HW2  489   2.267   2.041   3.445 -0.1423 -0.4334 -0.5224
  111SOL    HW3  490   2.275   1.955   3.569 -0.2548  0.2005 -0.0745
  111SOL    MW4  491   2.312   2.011   3.513 -0.3901  0.3679  0.0033
  112SOL     OW  492   3.722   0.541   3.768  0.5377 -0.0312 -0.1418
  112SOL    HW2  493   3.653   0.607   3.771  0.4103 -0.1695  0.0282
  112SOL    HW3  494   3.802   0.590   3.751  0.6584  0.3226  1.3484
  112SOL    MW4  495   3.723   0.556   3.766  0.5369 -0.0028  0.0770
  113SOL     OW  496   0.742   0.871   4.257  0.4485 -0.3978 -0.0696
  113SOL    HW2  497   0.703   0.924   4.188  0.0625  1.2535  1.3751
  113SOL    HW3  498   0.670   0.815   4.287  0.0967  0.2263  0.2685
  113SOL    MW4  499   0.727   0.870   4.252  0.3511 -0.0976  0.1655
  114SOL     OW  500   4.348   3.846   2.330 -0.5009 -0.2092 -0.0045
  114SOL    HW2  501   4.410   3.820   2.263 -2.4231 -1.2663 -1.3953
  114SOL    HW3  502   4.360   3.941   2.339  0.7453 -0.2918 -0.8022
  114SOL    MW4  503   4.358   3.855   2.323 -0.5903 -0.3595 -0.2935
  115SOL     OW  504   0.715   0.919   0.141  0.0855 -0.6196 -0.0597
  115SOL    HW2  505   0.636   0.957   0.102  1.1329 -0.1764 -1.7959
  115SOL    HW3  506   0.758   0.993   0.185 -0.2293 -0.7655  0.4958
  115SOL    MW4  507   0.710   0.934   0.142  0.1822 -0.5803 -0.2154
  116SOL     OW  508   0.478   4.376   1.637  0.2710 -0.0816  0.0374
  116SOL    HW2  509   0.437   4.455   1.601 -0.3719 -0.9570 -1.1502
  116SOL    HW3  510   0.544   4.352   1.572  1.4906  0.2960  1.0966
  116SOL    MW4  511   0.482   4.383   1.624  0.3471 -0.1473  0.0204
  117SOL     OW  512   0.931   4.649   3.575 -0.0467 -0.1125  0.4066
  117SOL    HW2  513   0.939   4.623   3.666  0.2264  0.0720  0.4401
  117SOL    HW3  514   0.957   4.742   3.575  1.2782 -0.4656 -0.0604
  117SOL    MW4  515   0.936   4.658   3.587  0.1642 -0.1349  0.3495
  118SOL     OW  516   3.043   4.066   2.126 -0.1056 -0.2602 -0.1664
  118SOL    HW2  517   2.975   4.041   2.064 -1.4218  1.6704  0.4513
  118SOL    HW3  518   3.017   4.026   2.209  0.4283 -0.9264 -0.3153
  118SOL    MW4  519   3.031   4.058   2.128 -0.2089 -0.0935 -0.1049
  119SOL     OW  520   3.852   4.273   1.817 -0.1532  0.5489  0.0705
  119SOL    HW2  521   3.822   4.361   1.839  0.7943  0.5606  1.3241
  119SOL    HW3  522   3.876   4.278   1.725 -1.0217  1.3417 -0.1222
  119SOL    MW4  523   3.851   4.285   1.808 -0.1428  0.6557  0.2103
  120SOL     OW  524   3.615   2.126   2.107  0.6583 -0.3411 -0.0800
  120SOL    HW2  525   3.582   2.156   2.022  0.5412  0.2998  0.1929
  120SOL    HW3  526   3.705   2.099   2.089  0.0319 -2.0067 -0.8072
  120SOL    MW4  527   3.623   2.126   2.094  0.5603 -0.4764 -0.1402
  121SOL     OW  528   3.408   1.250   1.538  0.3871 -0.2388 -0.1685
  121SOL    HW2  529   3.353   1.311   1.490 -2.3494 -1.5839  1.1023
  121SOL    HW3  530   3.372   1.250   1.627  3.6818  0.2597  1.2264
  121SOL    MW4  531   3.396   1.258   1.543  0.4609 -0.3504  0.1830
  122SOL     OW  532   3.200   1.288   0.672 -0.0222  0.1686  0.1458
  122SOL    HW2  533   3.286   1.256   0.644 -0.2776  0.1366 -0.6264
  122SOL    HW3  534   3.218   1.366   0.723  0.5245 -0.4043  0.8407
  122SOL    MW4  535   3.214   1.294   0.675  0.0162  0.0888  0.1357
  123SOL     OW  536   0.593   1.399   4.117 -0.6318 -0.2848  0.1721
  123SOL    HW2  537   0.672   1.448   4.138 -0.4115 -0.5075 -0.1400
  123SOL    HW3  538   0.608   1.365   4.029 -1.2770  0.0828 -0.0773
  123SOL    MW4  539   0.605   1.401   4.108 -0.6878 -0.2658  0.0982
  124SOL     OW  540   0.707   0.723   3.183  0.1107 -0.2264  0.2952
  124SOL    HW2  541   0.782   0.730   3.242  0.3325  0.0167 -0.0172
  124SOL    HW3  542   0.705   0.806   3.136  0.6231 -0.8629 -0.8693
  124SOL    MW4  543   0.717   0.735   3.185  0.2076 -0.2783  0.1004
  125SOL     OW  544   1.648   4.471   3.915 -0.1680 -0.1945 -0.4950
  125SOL    HW2  545   1.735   4.432   3.904 -0.5983 -0.9910 -1.1241
  125SOL    HW3  546   1.608   4.420   3.985 -0.3385 -0.1983 -0.5955
  125SOL    MW4  547   1.654   4.459   3.923 -0.2472 -0.3004 -0.5915
  126SOL     OW  548   1.489   4.552   2.837  0.3570  0.9040  0.1200
  126SOL    HW2  549   1.405   4.511   2.860  0.3851  1.1623  0.6966
  126SOL    HW3  550   1.554   4.504   2.888  0.4346  1.4066  0.4981
  126SOL    MW4  551   1.486   4.541   2.846  0.3710  1.0042  0.2460
  127SOL     OW  552   4.107   0.754   0.598 -0.2819 -0.0429 -0.2265
  127SOL    HW2  553   4.016   0.743   0.571 -0.0864 -1.1878 -0.4715
  127SOL    HW3  554   4.158   0.706   0.532  0.5553  1.2580 -0.5366
  127SOL    MW4  555   4.102   0.746   0.585 -0.1459 -0.0223 -0.2997
  128SOL     OW  556   1.990   1.440   3.063  0.3006 -0.1754  0.2543
  128SOL    HW2  557   2.057   1.447   3.131  0.2433  0.2757  0.2640
  128SOL    HW3  558   2.023   1.493   2.991 -0.5333  0.9144  0.6562
  128SOL    MW4  559   2.003   1.448   3.062  0.1829  0.0280  0.3083
  129SOL     OW  560   2.792   4.337   3.995 -0.0667 -0.2915  0.1608
  129SOL    HW2  561   2.739   4.263   3.967 -0.0169 -1.1890  2.3769
  129SOL    HW3  562   2.732   4.393   4.044  0.0775  0.7466 -0.8334
  129SOL    MW4  563   2.777   4.335   3.998 -0.0408 -0.2732  0.3219
  130SOL     OW  564   2.409   0.328   3.848  0.2750  0.4331 -0.0996
  130SOL    HW2  565   2.342   0.277   3.802 -0.4613  0.3894  1.0077
  130SOL    HW3  566   2.382   0.419   3.837  0.4865  0.4630 -0.3622
  130SOL    MW4  567   2.396   0.333   3.840  0.2058  0.4312  0.0117
  131SOL     OW  568   1.214   3.706   1.120  0.1489  0.0149  0.0862
  131SOL    HW2  569   1.145   3.736   1.061 -0.1304 -1.3321 -0.2957
  131SOL    HW3  570   1.292   3.701   1.064  0.1083 -0.3152  0.0568
  131SOL    MW4  571   1.215   3.709   1.105  0.1068 -0.2065  0.0319
  132SOL     OW  572   1.852   1.477   2.392 -0.4634  0.8651 -0.2020
  132SOL    HW2  573   1.782   1.430   2.439  0.0901  0.2392 -0.0020
  132SOL    HW3  574   1.898   1.408   2.343  0.8434  1.0902  0.7134
  132SOL    MW4  575   1.849   1.461   2.392 -0.2178  0.8122 -0.0551
  133SOL     OW  576   0.817   4.446   2.455  0.4547  0.2009  0.2644
  133SOL    HW2  577   0.911   4.432   2.459  0.4534  0.6638  2.2031
  133SOL    HW3  578   0.779   4.359   2.464  0.6809  0.0582 -0.1359
  133SOL    MW4  579   0.824   4.433   2.457  0.4844  0.2432  0.4675
  134SOL     OW  580   0.289   3.104   0.259  0.3703  0.0929 -0.3406
  134SOL    HW2  581   0.367   3.153   0.230 -1.1210  1.8227 -1.5013
  134SOL    HW3  582   0.291   3.113   0.355  1.6255  0.0403 -0.3412
  134SOL    MW4  583   0.300   3.112   0.268  0.3391  0.3140 -0.4938
  135SOL     OW  584   1.404   4.541   3.748  0.2915 -0.5156 -0.0426
  135SOL    HW2  585   1.332   4.512   3.804 -1.2856  2.8207 -0.1766
  135SOL    HW3  586   1.477   4.557   3.808  0.2173 -1.7987  0.3880
  135SOL    MW4  587   1.404   4.539   3.763  0.0737 -0.2451 -0.0036
  136SOL     OW  588   3.489   3.341   1.860 -0.1317  0.2048  0.3845
  136SOL    HW2  589   3.429   3.370   1.790 -0.7596  0.5510  1.0565
  136SOL    HW3  590   3.543   3.274   1.819  0.3712  1.3245 -0.8000
  136SOL    MW4  591   3.488   3.336   1.845 -0.1481  0.3982  0.3169
  137SOL     OW  592   0.414   3.478   1.725  0.6039 -0.1680  0.2376
  137SOL    HW2  593   0.410   3.510   1.635  0.0156 -0.2132  0.2437
  137SOL    HW3  594   0.456   3.392   1.719  1.2359  0.1499  0.0966
  137SOL    MW4  595   0.419   3.471   1.712  0.6096 -0.1318  0.2198
  138SOL     OW  596   1.214   0.320   0.444  0.1430  0.0638  0.4187
  138SOL    HW2  597   1.201   0.233   0.408  0.8579 -0.1175  0.5829
  138SOL    HW3  598   1.248   0.372   0.371  0.4693 -0.0028  0.5200
  138SOL    MW4  599   1.217   0.316   0.430  0.2804  0.0311  0.4537
  139SOL     OW  600   2.938   0.515   3.236 -0.4329 -0.1232  0.1146
  139SOL    HW2  601   2.911   0.444   3.295 -1.1032 -1.1934 -1.4261
  139SOL    HW3  602   2.969   0.585   3.294  0.8690 -1.9247  1.6573
  139SOL    MW4  603   2.939   0.515   3.252 -0.3493 -0.5020  0.1149
  140SOL     OW  604   1.729   0.165   1.701 -0.4583  0.1797  0.2535
  140SOL    HW2  605   1.687   0.096   1.649  0.3681 -0.7087  0.7524
  140SOL    HW3  606   1.809   0.186   1.653 -0.4756  0.4545  0.3456
  140SOL    MW4  607   1.734   0.158   1.688 -0.3514  0.0987  0.3315
  141SOL     OW  608   0.227   4.063   2.023  0.2732  0.3392 -0.1481
  141SOL    HW2  609   0.160   4.097   2.083 -0.0162 -1.7269  0.7564
  141SOL    HW3  610   0.305   4.055   2.077  0.2573 -0.6847 -0.2704
  141SOL    MW4  611   0.228   4.067   2.038  0.2329 -0.0687 -0.0448
  142SOL     OW  612   2.301   1.512   2.897  0.1470 -0.8466  0.0780
  142SOL    HW2  613   2.353   1.532   2.819 -1.0981 -3.8294 -1.6157
  142SOL    HW3  614   2.218   1.558   2.883  0.1121 -0.9785 -0.1641
  142SOL    MW4  615   2.297   1.520   2.885 -0.0219 -1.2575 -0.1774
  143SOL     OW  616   3.414   2.802   0.727 -0.0442  0.3064  0.2261
  143SOL    HW2  617   3.436   2.832   0.815  2.0461  0.1201 -0.2111
  143SOL    HW3  618   3.372   2.878   0.686 -0.0087  0.7501  0.9976
  143SOL    MW4  619   3.411   2.816   0.733  0.2363  0.3405  0.2702
  144SOL     OW  620   2.543   4.428   1.004 -0.4580  0.1325 -0.6137
  144SOL    HW2  621   2.579   4.434   0.915  1.0818  0.6166  0.0224
  144SOL    HW3  622   2.489   4.506   1.013  0.2103  0.6203 -0.7764
  144SOL    MW4  623   2.541   4.439   0.993 -0.1664  0.2608 -0.5512
  145SOL     OW  624   1.617   1.415   0.827  0.0828  0.2007 -0.5454
  145SOL    HW2  625   1.527   1.446   0.815 -0.1712 -0.2932  0.0127
  145SOL    HW3  626   1.669   1.466   0.765 -0.5648  0.5807 -0.7824
  145SOL    MW4  627   1.612   1.426   0.817 -0.0361  0.1857 -0.5031
  146SOL     OW  628   2.125   0.735   1.634 -0.0428  0.5278  0.3200
  146SOL    HW2  629   2.099   0.825   1.614 -0.6155  0.1133 -0.8628
  146SOL    HW3  630   2.110   0.726   1.728  0.5776  1.8484  0.5590
  146SOL    MW4  631   2.120   0.746   1.644 -0.0365  0.6474  0.1955
  147SOL     OW  632   3.518   0.469   4.217  0.4405 -0.1537 -0.2121
  147SOL    HW2  633   3.543   0.405   4.283  0.9081 -1.1911 -1.3624
  147SOL    HW3  634   3.570   0.445   4.140  0.2844  1.3356 -0.7952
  147SOL    MW4  635   3.528   0.458   4.215  0.4818 -0.0941 -0.4401
  148SOL     OW  636   2.099   4.250   1.860 -0.1647 -0.2104 -0.2793
  148SOL    HW2  637   2.153   4.183   1.902 -0.1905  0.9527  1.6309
  148SOL    HW3  638   2.084   4.316   1.928 -1.0147  1.2310 -1.8238
  148SOL    MW4  639   2.104   4.250   1.874 -0.2804  0.1330 -0.2310
  149SOL     OW  640   4.456   0.368   2.315 -0.3399  0.0943 -0.6821
  149SOL    HW2  641   4.408   0.292   2.347  0.2559 -0.1670 -0.4024
  149SOL    HW3  642   4.399   0.442   2.334  0.1341 -0.0160  1.3009
  149SOL    MW4  643   4.442   0.368   2.322 -0.1984  0.0453 -0.3834
  150SOL     OW  644   1.546   3.942   0.378 -0.1235 -0.0445  0.7116
  150SOL    HW2  645   1.614   3.889   0.418 -1.4550 -0.7641  2.0763
  150SOL    HW3  646   1.525   3.897   0.296  2.0447  0.9958 -0.4553
  150SOL    MW4  647   1.552   3.929   0.372 -0.0130 -0.0021  0.7377
  151SOL     OW  648   1.085   3.671   3.462  0.2360  0.4306 -0.5050
  151SOL    HW2  649   1.165   3.721   3.476  0.4647 -0.0975  0.1108
  151SOL    HW3  650   1.062   3.686   3.371  1.6471 -0.3137 -0.9977
  151SOL    MW4  651   1.092   3.679   3.452  0.4523  0.2625 -0.4890
  152SOL     OW  652   4.147   4.655   2.587 -0.3316  0.3460 -0.1985
  152SOL    HW2  653   4.195   4.723   2.538 -0.5267  2.2452  2.1746
  152SOL    HW3  654   4.057   4.686   2.587 -0.5761 -0.3750  0.1403
  152SOL    MW4  655   4.142   4.668   2.580 -0.3896  0.5012  0.1593
  153SOL     OW  656   3.198   3.971   0.348  0.2887  0.5157  0.2337
  153SOL    HW2  657   3.173   4.040   0.409 -2.3199 -1.6636  1.7025
  153SOL    HW3  658   3.129   3.971   0.282  0.5447 -0.3649 -0.0417
  153SOL    MW4  659   3.186   3.981   0.347 -0.0217  0.1121  0.3912
  154SOL     OW  660   0.912   4.269   2.836  0.0175  0.4867  0.2093
  154SOL    HW2  661   0.878   4.353   2.806  1.2047  1.7978  2.4168
  154SOL    HW3  662   0.838   4.228   2.882  0.1828  1.4966  1.3989
  154SOL    MW4  663   0.898   4.275   2.838  0.1960  0.7930  0.6578
  155SOL     OW  664   3.225   2.613   4.000  0.4429  0.3529  0.1243
  155SOL    HW2  665   3.268   2.547   4.055  0.7018 -0.5106 -1.0877
  155SOL    HW3  666   3.213   2.570   3.916 -0.6558  1.3999 -0.2715
  155SOL    MW4  667   3.229   2.599   3.996  0.3319  0.3769 -0.0885
  156SOL     OW  668   0.848   0.619   3.885 -0.0363  0.3047  0.2174
  156SOL    HW2  669   0.799   0.581   3.959 -1.5543 -0.0215 -0.9207
  156SOL    HW3  670   0.784   0.674   3.841  0.8263  0.3834 -0.9424
  156SOL    MW4  671   0.833   0.621   3.889 -0.1228  0.2720 -0.0856
  157SOL     OW  672   4.131   2.369   2.729  0.2246 -0.3424  0.0607
  157SOL    HW2  673   4.092   2.399   2.647  0.7277 -0.9845 -0.4165
  157SOL    HW3  674   4.225   2.384   2.718  0.0192  2.5171  1.7473
  157SOL    MW4  675   4.138   2.375   2.717  0.2642 -0.0498  0.2198
  158SOL     OW  676   3.873   3.288   3.520 -0.3109 -0.1204 -0.2126
  158SOL    HW2  677   3.874   3.229   3.595  0.8102 -1.1899 -1.0462
  158SOL    HW3  678   3.955   3.337   3.527 -0.3591  0.0106 -0.5623
  158SOL    MW4  679   3.884   3.287   3.531 -0.1698 -0.2441 -0.3686
  159SOL     OW  680   2.869   2.475   1.743  0.2517  0.2039  0.2060
  159SOL    HW2  681   2.806   2.428   1.798  0.2514  0.0190  0.0476
  159SOL    HW3  682   2.950   2.475   1.794  0.3588 -0.3042  0.0432
  159SOL    MW4  683   2.872   2.468   1.757  0.2658  0.1125  0.1637
  160SOL     OW  684   3.022   3.277   3.602  0.0445  0.3112 -0.1148
  160SOL    HW2  685   2.959   3.282   3.530  0.0744  0.3020 -0.1418
  160SOL    HW3  686   2.974   3.234   3.673 -0.2070  0.9713  0.1155
  160SOL    MW4  687   3.008   3.272   3.602  0.0153  0.3970 -0.0880
  161SOL     OW  688   4.151   3.423   1.086  0.0245 -0.0110 -0.2791
  161SOL    HW2  689   4.072   3.410   1.139 -0.3447 -2.6996 -1.3867
  161SOL    HW3  690   4.143   3.513   1.054 -1.7257  0.3307  1.0068
  161SOL    MW4  691   4.139   3.433   1.089 -0.2546 -0.3204 -0.2556
  162SOL     OW  692   2.199   3.032   0.446  0.3582  0.0463 -0.4964
  162SOL    HW2  693   2.268   2.966   0.461 -0.9449 -0.9711  1.2275
  162SOL    HW3  694   2.136   2.987   0.390 -0.4561 -0.1361  0.5544
  162SOL    MW4  695   2.200   3.017   0.441  0.0789 -0.1118 -0.1303
  163SOL     OW  696   1.016   0.070   2.256  0.0398 -0.1301  0.0273
  163SOL    HW2  697   0.928   0.035   2.248 -0.6539  1.0307  2.0665
  163SOL    HW3  698   1.069   0.017   2.197 -1.8605 -1.3744 -0.6037
  163SOL    MW4  699   1.011   0.059   2.247 -0.3024 -0.1411  0.2131
  164SOL     OW  700   1.270   1.093   3.908  0.0268  0.2227 -0.1031
  164SOL    HW2  701   1.290   1.049   3.990 -0.5355  0.6610  0.2682
  164SOL    HW3  702   1.282   1.026   3.841 -0.5386 -0.4166  0.4294
  164SOL    MW4  703   1.274   1.078   3.910 -0.1221  0.1961  0.0160
  165SOL     OW  704   0.307   1.993   0.895 -0.5238 -0.2687 -0.3432
  165SOL    HW2  705   0.396   2.023   0.912 -0.6762 -0.3088  0.5230
  165SOL    HW3  706   0.289   2.023   0.805  0.7391 -1.2099 -0.9213
  165SOL    MW4  707   0.316   2.001   0.885 -0.3772 -0.3982 -0.3052
  166SOL     OW  708   2.486   4.146   1.899  0.5496  0.0284  0.0290
  166SOL    HW2  709   2.492   4.233   1.936  2.9039 -0.2712  0.3762
  166SOL    HW3  710   2.528   4.153   1.813 -1.1975 -0.2616 -0.8770
  166SOL    MW4  711   2.492   4.158   1.892  0.6297 -0.0491 -0.0445
  167SOL     OW  712   4.018   2.904   1.009 -0.0864 -0.1971  0.1339
  167SOL    HW2  713   4.036   2.970   1.077 -0.1945 -0.9020  0.8527
  167SOL    HW3  714   4.090   2.914   0.947  0.2736  0.1300  0.5970
  167SOL    MW4  715   4.030   2.914   1.010 -0.0539 -0.2472  0.2899
  168SOL     OW  716   2.062   1.142   2.798 -0.0084 -0.1894 -0.1245
  168SOL    HW2  717   2.005   1.140   2.875  1.3282 -1.4221  0.8676
  168SOL    HW3  718   2.143   1.182   2.830 -0.0414  0.8762 -1.3364
  168SOL    MW4  719   2.065   1.147   2.812  0.1636 -0.2115 -0.1533
  169SOL     OW  720   3.685   0.258   1.949 -0.1552  0.1309 -0.1361
  169SOL    HW2  721   3.744   0.221   2.015 -0.0080  0.7550  0.0882
  169SOL    HW3  722   3.604   0.207   1.958  0.4496 -0.9368 -0.6570
  169SOL    MW4  723   3.682   0.246   1.959 -0.0563  0.0724 -0.1751
  170SOL     OW  724   2.974   3.705   2.034  0.2755 -0.0999  0.4769
  170SOL    HW2  725   2.882   3.717   2.010  0.4756  0.9288  0.2398
  170SOL    HW3  726   2.970   3.660   2.119 -0.4356 -0.4602  0.2600
  170SOL    MW4  727   2.961   3.701   2.042  0.2081 -0.0119  0.4170
  171SOL     OW  728   2.960   2.886   1.537 -0.4031  0.1282  0.0736
  171SOL    HW2  729   2.901   2.951   1.575  0.0328  0.5866 -0.0386
  171SOL    HW3  730   2.909   2.845   1.467  0.2606  2.2879 -1.7174
  171SOL    MW4  731   2.946   2.889   1.533 -0.2582  0.4735 -0.1775
  172SOL     OW  732   3.830   2.483   1.804  0.2667 -0.1162  0.1523
  172SOL    HW2  733   3.848   2.577   1.802 -0.1125 -0.0557 -0.6415
  172SOL    HW3  734   3.826   2.462   1.897 -2.6903  1.2584  0.4032
  172SOL    MW4  735   3.832   2.493   1.816 -0.1731  0.0727  0.0806
  173SOL     OW  736   3.422   3.225   2.947  0.1034 -0.2733  0.0496
  173SOL    HW2  737   3.414   3.184   2.861  1.2921 -0.5297  0.0586
  173SOL    HW3  738   3.415   3.319   2.930 -2.0592 -0.4352 -0.0368
  173SOL    MW4  739   3.420   3.232   2.934 -0.0250 -0.3281  0.0393
  174SOL     OW  740   2.497   0.469   2.888 -0.6480 -0.2408  0.0992
  174SOL    HW2  741   2.455   0.551   2.915 -0.1123  0.0587  0.0407
  174SOL    HW3  742   2.447   0.440   2.812 -0.5614  0.2806 -0.1642
  174SOL    MW4  743   2.485   0.476   2.882 -0.5658 -0.1325  0.0570
  175SOL     OW  744   0.571   2.604   0.609 -0.6624 -0.3627  0.2040
  175SOL    HW2  745   0.619   2.596   0.526  0.7074  1.2237  0.8239
  175SOL    HW3  746   0.492   2.653   0.586  0.3923  1.3157  0.0728
  175SOL    MW4  747   0.567   2.610   0.595 -0.3425  0.0682  0.2685
  176SOL     OW  748   2.100   0.520   1.436 -0.4084 -0.1070  0.0894
  176SOL    HW2  749   2.102   0.571   1.517 -2.2150  1.3105 -0.7183
  176SOL    HW3  750   2.144   0.576   1.371  1.3723 -1.3928  0.1374
  176SOL    MW4  751   2.106   0.534   1.438 -0.4120 -0.0896 -0.0108
  177SOL     OW  752   0.024   0.190   0.283 -0.0308 -0.3223  0.3135
  177SOL    HW2  753   0.063   0.138   0.354  0.6922 -0.6017 -0.2704
  177SOL    HW3  754   0.095   0.247   0.254 -0.3937 -0.0413 -0.0185
  177SOL    MW4  755   0.039   0.190   0.289  0.0167 -0.3221  0.1926
  178SOL     OW  756   2.350   4.643   1.033  0.1378  0.1878 -0.9817
  178SOL    HW2  757   2.307   4.632   1.118 -0.0706 -0.8979 -1.2207
  178SOL    HW3  758   2.366   4.738   1.026 -2.7992  0.6963 -1.1852
  178SOL    MW4  759   2.347   4.654   1.043 -0.2775  0.1116 -1.0400
  179SOL     OW  760   2.053   1.764   2.197 -0.4121 -0.2338 -0.1051
  179SOL    HW2  761   2.119   1.695   2.208 -0.1490  0.0374  0.0131
  179SOL    HW3  762   1.994   1.753   2.271 -1.0790 -1.1192 -0.7581
  179SOL    MW4  763   2.054   1.753   2.208 -0.4654 -0.3148 -0.1755
  180SOL     OW  764   3.286   1.905   2.629  0.1761 -0.0828 -0.3059
  180SOL    HW2  765   3.235   1.915   2.709 -0.0817  1.4942 -0.6401
  180SOL    HW3  766   3.365   1.858   2.656  0.8515  1.8443  1.2294
  180SOL    MW4  767   3.290   1.900   2.643  0.2310  0.3796 -0.1476
  181SOL     OW  768   1.206   2.751   2.541 -0.3582  0.1876  0.3606
  181SOL    HW2  769   1.287   2.787   2.504 -1.1827  1.4648 -0.2396
  181SOL    HW3  770   1.139   2.817   2.521 -1.7504 -1.3151 -0.0457
  181SOL    MW4  771   1.208   2.764   2.533 -0.6506  0.1578  0.2282
  182SOL     OW  772   3.573   2.450   2.646  0.0799  0.0533  0.2617
  182SOL    HW2  773   3.505   2.498   2.692  0.8887 -0.0771  1.6002
  182SOL    HW3  774   3.597   2.378   2.705  0.9783 -0.2400 -0.4347
  182SOL    MW4  775   3.567   2.447   2.660  0.3054 -0.0026  0.3467
  183SOL     OW  776   3.999   3.512   4.333 -0.0793  0.0984 -0.3806
  183SOL    HW2  777   4.082   3.517   4.380 -0.3548  2.1574 -0.0609
  183SOL    HW3  778   4.005   3.431   4.282  0.9249 -1.2853  1.8706
  183SOL    MW4  779   4.011   3.502   4.332  0.0167  0.1876 -0.0410
  184SOL     OW  780   2.082   1.490   4.018  1.0199  0.0171 -0.4772
  184SOL    HW2  781   2.139   1.417   3.994 -0.7490 -2.1062  1.5528
  184SOL    HW3  782   2.085   1.492   4.114 -1.3436  0.6390 -0.3937
  184SOL    MW4  783   2.090   1.481   4.028  0.4747 -0.1808 -0.1984
  185SOL     OW  784   4.190   4.448   3.845  0.0738  0.2965 -0.1358
  185SOL    HW2  785   4.242   4.437   3.765  0.8906  1.2358  0.2631
  185SOL    HW3  786   4.253   4.470   3.913 -0.5013 -1.4663  1.0043
  185SOL    MW4  787   4.205   4.449   3.843  0.1059  0.1879  0.0672
  186SOL     OW  788   4.384   2.442   2.624 -0.1171 -0.2795  0.2956
  186SOL    HW2  789   4.459   2.470   2.677  0.1204  0.2921 -0.3377
  186SOL    HW3  790   4.357   2.521   2.577  0.8473 -1.2026 -1.8718
  186SOL    MW4  791   4.391   2.456   2.625  0.0415 -0.3259 -0.0739
  187SOL     OW  792   2.558   3.336   1.845  0.0463  0.2328 -0.1117
  187SOL    HW2  793   2.644   3.376   1.831  0.0903  0.7908  1.5774
  187SOL    HW3  794   2.567   3.289   1.928 -0.5809 -1.7086 -1.1092
  187SOL    MW4  795   2.571   3.335   1.854 -0.0308  0.0503 -0.0205
  188SOL     OW  796   3.965   4.103   1.363 -0.3335 -0.3587 -0.2753
  188SOL    HW2  797   3.900   4.109   1.293 -0.6112  0.4075  0.0492
  188SOL    HW3  798   4.049   4.117   1.319 -0.6538  2.0883 -0.1516
  188SOL    MW4  799   3.967   4.105   1.348 -0.4122  0.0653 -0.2162
  189SOL     OW  800   0.432   1.252   2.570  0.0440 -0.8237 -0.1772
  189SOL    HW2  801   0.456   1.334   2.614 -0.5390 -0.2366 -0.9332
  189SOL    HW3  802   0.430   1.275   2.477  1.4198 -2.0867 -0.5341
  189SOL    MW4  803   0.435   1.266   2.563  0.1486 -0.9129 -0.3242
  190SOL     OW  804   3.252   3.741   2.932 -0.0856  0.3850 -0.1188
  190SOL    HW2  805   3.235   3.785   2.848 -0.7324  0.5772  0.1129
  190SOL    HW3  806   3.328   3.787   2.967  1.1437 -0.6888 -1.3034
  190SOL    MW4  807   3.260   3.753   2.925 -0.0088  0.2685 -0.2449
  191SOL     OW  808   0.466   0.958   3.437 -0.2916  0.1131 -0.5619
  191SOL    HW2  809   0.483   0.864   3.442 -2.0407 -0.1623  0.6211
  191SOL    HW3  810   0.439   0.973   3.347  0.8183 -0.3707 -0.9795
  191SOL    MW4  811   0.465   0.948   3.426 -0.3759  0.0129 -0.4609
  192SOL     OW  812   0.388   4.041   3.264  0.1860 -0.1794  0.1233
  192SOL    HW2  813   0.349   3.970   3.214 -0.2842  0.2460 -0.1243
  192SOL    HW3  814   0.313   4.087   3.303  0.4886  0.1222  0.3541
  192SOL    MW4  815   0.373   4.038   3.263  0.1639 -0.0844  0.1209
  193SOL     OW  816   1.642   0.023   0.516  0.2311  0.5497 -0.5559
  193SOL    HW2  817   1.670   0.096   0.461  0.9249  1.1274  0.5448
  193SOL    HW3  818   1.576   0.060   0.575  0.8264  0.3761  0.2269
  193SOL    MW4  819   1.637   0.037   0.516  0.4013  0.6030 -0.3073
  194SOL     OW  820   4.341   2.890   4.107  0.5607  0.1561  0.4312
  194SOL    HW2  821   4.289   2.899   4.027  0.7654  0.9478  0.3813
  194SOL    HW3  822   4.307   2.812   4.150  1.1837 -0.9413 -0.9983
  194SOL    MW4  823   4.330   2.881   4.102  0.6690  0.1156  0.2360
  195SOL     OW  824   1.538   2.689   0.989  0.2640 -0.0234  0.8320
  195SOL    HW2  825   1.615   2.703   0.934  0.2883  0.6859  1.0358
  195SOL    HW3  826   1.474   2.649   0.930  0.3499  0.5650  0.3191
  195SOL    MW4  827   1.539   2.686   0.974  0.2785  0.1478  0.7912
  196SOL     OW  828   0.321   2.268   3.521 -0.4769 -0.0990 -0.1668
  196SOL    HW2  829   0.276   2.247   3.603 -0.0053 -1.4722 -0.2502
  196SOL    HW3  830   0.251   2.297   3.462 -1.0057 -0.4755  0.2724
  196SOL    MW4  831   0.306   2.269   3.524 -0.4845 -0.3297 -0.1199
  197SOL     OW  832   2.831   4.641   1.516 -0.3570 -0.1152 -0.4241
  197SOL    HW2  833   2.742   4.607   1.515 -0.7289  0.8152 -1.9008
  197SOL    HW3  834   2.837   4.691   1.597 -0.9275 -0.8367  0.0621
  197SOL    MW4  835   2.820   4.643   1.526 -0.4814 -0.0877 -0.5548
  198SOL     OW  836   2.086   3.284   1.284 -0.1629  0.3166 -0.4614
  198SOL    HW2  837   2.047   3.207   1.242 -0.3163  0.6508 -0.9314
  198SOL    HW3  838   2.076   3.268   1.378 -0.8276  0.0912 -0.5696
  198SOL    MW4  839   2.080   3.272   1.291 -0.2708  0.3312 -0.5378
  199SOL     OW  840   1.832   0.335   2.232  0.1874 -0.0105  0.2764
  199SOL    HW2  841   1.794   0.249   2.214 -0.3901  0.4000 -0.5347
  199SOL    HW3  842   1.774   0.373   2.298  0.3711 -0.2040  0.5454
  199SOL    MW4  843   1.819   0.329   2.238  0.1354  0.0181  0.2050
  200SOL     OW  844   2.084   1.686   1.554  0.1948 -0.5455 -0.2616
  200SOL    HW2  845   2.036   1.728   1.626  0.6952  0.0972 -0.2986
  200SOL    HW3  846   2.053   1.596   1.554 -1.7364  0.0812 -0.8874
  200SOL    MW4  847   2.074   1.680   1.564  0.0062 -0.3779 -0.3490
  201SOL     OW  848   0.549   3.215   2.786 -0.2886 -0.6450 -0.3611
  201SOL    HW2  849   0.529   3.147   2.850  0.6919 -1.1751 -0.6084
  201SOL    HW3  850   0.574   3.291   2.838 -1.4052 -0.4547 -0.0841
  201SOL    MW4  851   0.550   3.217   2.801 -0.3065 -0.6897 -0.3574
  202SOL     OW  852   3.720   3.815   0.205 -0.0505 -0.3623  0.5806
  202SOL    HW2  853   3.715   3.725   0.234 -0.6432 -0.4363  0.2739
  202SOL    HW3  854   3.645   3.858   0.246 -0.2340 -0.2039  0.0932
  202SOL    MW4  855   3.709   3.809   0.214 -0.1531 -0.3512  0.4758
  203SOL     OW  856   0.873   2.372   3.985  0.0930  0.0235  0.2474
  203SOL    HW2  857   0.846   2.461   4.007 -1.5633 -0.6719  1.1244
  203SOL    HW3  858   0.850   2.320   4.061 -1.6088 -1.6440 -1.3525
  203SOL    MW4  859   0.866   2.377   3.998 -0.3501 -0.2882  0.1521
  204SOL     OW  860   1.904   2.634   1.321 -0.0374  0.0942  0.0202
  204SOL    HW2  861   1.971   2.567   1.333 -0.8114 -0.8998 -1.1201
  204SOL    HW3  862   1.825   2.585   1.300 -0.7357  1.3505 -0.3209
  204SOL    MW4  863   1.903   2.619   1.320 -0.2316  0.1290 -0.1752
  205SOL     OW  864   3.839   3.584   1.822 -0.3391  0.0123  0.0606
  205SOL    HW2  865   3.787   3.550   1.895  0.4460  0.7983  0.9945
  205SOL    HW3  866   3.776   3.633   1.769 -0.9881 -0.8758  0.0035
  205SOL    MW4  867   3.824   3.586   1.824 -0.3214 -0.0014  0.1764
  206SOL     OW  868   2.784   2.029   2.914 -0.0177  0.2145  0.1827
  206SOL    HW2  869   2.868   2.052   2.874  0.6323 -1.3886  0.5803
  206SOL    HW3  870   2.803   1.951   2.966 -1.4764  0.5995  1.3264
  206SOL    MW4  871   2.798   2.022   2.916 -0.1242  0.0539  0.3860
  207SOL     OW  872   3.764   0.006   3.132  0.0675 -0.3089  0.1222
  207SOL    HW2  873   3.706   0.077   3.158  2.2501  1.5762 -0.0447
  207SOL    HW3  874   3.766  -0.053   3.208  0.1146  1.0337  1.1733
  207SOL    MW4  875   3.756   0.008   3.145  0.3617  0.1170  0.2389
  208SOL     OW  876   3.641   1.612   3.020 -0.8605  0.4084  0.3082
  208SOL    HW2  877   3.657   1.554   2.945 -2.9520 -1.2354  1.0692
  208SOL    HW3  878   3.549   1.636   3.012 -1.0313  0.4562  2.1572
  208SOL    MW4  879   3.631   1.607   3.009 -1.1592  0.1978  0.6528
  209SOL     OW  880   3.571   2.907   1.616  0.4178  0.4466  0.1716
  209SOL    HW2  881   3.610   2.886   1.532 -3.7633  0.8335 -1.9958
  209SOL    HW3  882   3.606   2.994   1.638  2.7156 -0.3269 -0.3684
  209SOL    MW4  883   3.580   2.916   1.608  0.1690  0.3955 -0.1856
  210SOL     OW  884   4.279   0.415   2.871 -0.6813 -0.0848 -0.1673
  210SOL    HW2  885   4.196   0.370   2.888 -0.7267  0.1959  0.3595
  210SOL    HW3  886   4.339   0.380   2.937 -0.0630 -1.1419 -1.2782
  210SOL    MW4  887   4.276   0.404   2.882 -0.6056 -0.1872 -0.2446
  211SOL     OW  888   1.818   1.240   0.331 -0.7845 -0.3117 -0.0670
  211SOL    HW2  889   1.891   1.293   0.300 -0.2302 -0.8256  0.3633
  211SOL    HW3  890   1.751   1.304   0.356  0.0262  0.1907  0.8206
  211SOL    MW4  891   1.819   1.256   0.330 -0.6044 -0.3133  0.1069
  212SOL     OW  892   0.003   0.106   0.747 -0.0192 -0.4551  0.0104
  212SOL    HW2  893  -0.046   0.187   0.734  2.0587  1.1679  1.9448
  212SOL    HW3  894   0.046   0.090   0.663  0.2865  0.9701 -0.1173
  212SOL    MW4  895   0.002   0.115   0.734  0.2952 -0.0529  0.2487
  213SOL     OW  896   2.167   3.657   0.690  0.0927  0.1944  0.2890
  213SOL    HW2  897   2.215   3.729   0.731 -0.4766  0.8090 -0.1149
  213SOL    HW3  898   2.102   3.632   0.756 -1.3189  1.6824 -0.5085
  213SOL    MW4  899   2.165   3.663   0.704 -0.1686  0.4721  0.1305
  214SOL     OW  900   2.120   3.706   2.568  0.5077 -0.0534  0.4379
  214SOL    HW2  901   2.213   3.703   2.546  0.1320 -0.8318 -1.0967
  214SOL    HW3  902   2.076   3.665   2.493 -1.0506  0.0913  1.2531
  214SOL    MW4  903   2.126   3.700   2.555  0.2527 -0.1369  0.3431
  215SOL     OW  904   3.927   4.439   0.248 -0.0210 -0.7044 -0.4489
  215SOL    HW2  905   3.865   4.389   0.194  1.1095  0.2891 -2.7399
  215SOL    HW3  906   3.872   4.483   0.312 -2.0038  1.7342 -3.6774
  215SOL    MW4  907   3.911   4.438   0.250 -0.1335 -0.2522 -1.1771
  216SOL     OW  908   0.097   3.536   1.132 -0.2254 -0.5960 -0.5277
  216SOL    HW2  909   0.137   3.460   1.175  0.5017 -0.9513 -1.7964
  216SOL    HW3  910   0.037   3.572   1.197 -0.7105 -2.3690  0.0207
  216SOL    MW4  911   0.095   3.531   1.146 -0.1935 -0.8769 -0.6227
  217SOL     OW  912   0.887   2.106   1.561  0.6500  0.3166  0.4002
  217SOL    HW2  913   0.867   2.038   1.497 -0.5477  1.1475 -0.1321
  217SOL    HW3  914   0.902   2.059   1.643  0.6113 -0.6431 -0.1381
  217SOL    MW4  915   0.886   2.091   1.563  0.4869  0.2999  0.2589
  218SOL     OW  916   0.039   4.198   3.774  0.3214 -0.1921 -0.0186
  218SOL    HW2  917   0.069   4.230   3.859  1.5887  0.5829 -0.7428
  218SOL    HW3  918   0.088   4.117   3.760  2.3372  1.2043 -1.3160
  218SOL    MW4  919   0.050   4.191   3.783  0.7546  0.0944 -0.2856
  219SOL     OW  920   0.028   1.774   2.959  0.1147 -0.4792  0.4804
  219SOL    HW2  921  -0.017   1.691   2.944  1.1261 -0.9146 -0.1931
  219SOL    HW3  922   0.004   1.799   3.048 -1.0033 -0.9839  0.3320
  219SOL    MW4  923   0.019   1.767   2.969  0.1006 -0.6032  0.3722
  220SOL     OW  924   1.860   4.185   1.717  0.0537 -0.4849  0.5667
  220SOL    HW2  925   1.888   4.141   1.637 -0.3942 -0.8501  0.6113
  220SOL    HW3  926   1.940   4.191   1.770  1.5011  3.9900 -1.8091
  220SOL    MW4  927   1.874   4.180   1.713  0.1855  0.0577  0.2593
  221SOL     OW  928   0.281   0.817   1.249 -0.0313  0.0608  0.7437
  221SOL    HW2  929   0.335   0.738   1.241  0.0113  0.1710 -0.1873
  221SOL    HW3  930   0.212   0.793   1.310 -1.2871 -1.4471 -1.1920
  221SOL    MW4  931   0.279   0.803   1.256 -0.1913 -0.1236  0.3655
  222SOL     OW  932   3.611   4.301   3.087 -0.1539 -0.2457  0.4598
  222SOL    HW2  933   3.669   4.276   3.159 -0.6054 -0.1652  0.8481
  222SOL    HW3  934   3.544   4.233   3.085  0.2625 -0.6408 -0.3483
  222SOL    MW4  935   3.610   4.288   3.096 -0.1585 -0.2875  0.4044
  223SOL     OW  936   3.879   0.024   3.669 -0.4244 -0.8348 -0.4183
  223SOL    HW2  937   3.823   0.101   3.662  0.6774  0.0504  0.3255
  223SOL    HW3  938   3.825  -0.041   3.714 -0.2729  0.6167  1.9422
  223SOL    MW4  939   3.864   0.026   3.674 -0.2592 -0.5265 -0.0086
  224SOL     OW  940   4.092   4.332   2.935  0.2429  0.2875 -0.1145
  224SOL    HW2  941   4.000   4.357   2.941  0.3958  0.6803  0.7106
  224SOL    HW3  942   4.099   4.285   2.852 -0.4531  1.2944 -0.7559
  224SOL    MW4  943   4.081   4.329   2.925  0.1717  0.4725 -0.0906
  225SOL     OW  944   3.170   4.207   4.120  0.0810 -0.6859  0.0128
  225SOL    HW2  945   3.119   4.281   4.086  2.3231  0.4112 -1.0889
  225SOL    HW3  946   3.136   4.131   4.072  0.6418  0.2911 -1.9885
  225SOL    MW4  947   3.159   4.207   4.109  0.4506 -0.4120 -0.3958
  226SOL     OW  948   3.214   0.417   2.420 -0.4230  0.1083  0.3007
  226SOL    HW2  949   3.270   0.494   2.430 -0.0622 -0.1283  0.1100
  226SOL    HW3  950   3.129   0.452   2.397 -0.3615  0.4752  0.6338
  226SOL    MW4  951   3.211   0.432   2.418 -0.3674  0.1255  0.3192
  227SOL     OW  952   3.551   1.167   2.269 -0.0259 -0.2887 -0.2888
  227SOL    HW2  953   3.556   1.125   2.355 -0.1437  0.6726  0.1880
  227SOL    HW3  954   3.638   1.156   2.232  0.5979  1.0016  0.7596
  227SOL    MW4  955   3.563   1.160   2.276  0.0410  0.0085 -0.0875
  228SOL     OW  956   3.266   2.509   1.640 -0.2299 -0.7675 -0.0578
  228SOL    HW2  957   3.293   2.601   1.638 -1.5005 -0.3764  0.3624
  228SOL    HW3  958   3.348   2.460   1.633  0.6103  0.3902  1.4064
  228SOL    MW4  959   3.280   2.515   1.639 -0.2866 -0.5634  0.1910
  229SOL     OW  960   3.172   3.263   2.100 -0.4784  0.2918 -0.3017
  229SOL    HW2  961   3.259   3.222   2.109 -0.5447 -0.1137 -1.4653
  229SOL    HW3  962   3.178   3.342   2.153  0.2793 -0.2426  0.4313
  229SOL    MW4  963   3.185   3.268   2.108 -0.3870  0.1676 -0.3583
  230SOL     OW  964   2.061   2.681   2.043 -0.1064  0.2913 -0.2518
  230SOL    HW2  965   2.123   2.716   2.108  0.9246 -0.4776 -0.8226
  230SOL    HW3  966   2.016   2.610   2.089 -0.6348  0.8979  0.1872
  230SOL    MW4  967   2.063   2.677   2.058 -0.0398  0.2697 -0.2692
  231SOL     OW  968   1.471   3.420   0.631 -0.1928 -0.1287  0.0065
  231SOL    HW2  969   1.410   3.418   0.557  1.3556 -0.6669 -1.2812
  231SOL    HW3  970   1.534   3.487   0.607 -0.0762  0.1832  1.1806
  231SOL    MW4  971   1.471   3.429   0.618  0.0268 -0.1583 -0.0084
  232SOL     OW  972   0.828   1.204   3.622  0.2407  0.7492 -0.1512
  232SOL    HW2  973   0.917   1.227   3.596  0.4933 -0.3515 -0.2934
  232SOL    HW3  974   0.778   1.206   3.540  0.4781 -0.1828 -0.3211
  232SOL    MW4  975   0.833   1.207   3.608  0.3053  0.4809 -0.1924
  233SOL     OW  976   0.795   4.025   2.666 -0.2035 -0.1952  0.3147
  233SOL    HW2  977   0.735   4.099   2.652 -0.6039 -0.9161 -2.0204
  233SOL    HW3  978   0.881   4.059   2.640 -0.0966 -0.0629  0.8298
  233SOL    MW4  979   0.799   4.040   2.660 -0.2422 -0.2728  0.0746
  234SOL     OW  980   2.209   3.546   3.955 -0.0253  0.3013  0.3421
  234SOL    HW2  981   2.137   3.602   3.927 -0.4613  0.1968  1.2531
  234SOL    HW3  982   2.167   3.463   3.979  0.3577  0.3422  1.1709
  234SOL    MW4  983   2.194   3.543   3.954 -0.0322  0.2930  0.5715
  235SOL     OW  984   0.122   1.688   3.747 -0.2451 -0.2743 -0.4684
  235SOL    HW2  985   0.172   1.700   3.828  0.5142  2.0752 -1.2528
  235SOL    HW3  986   0.030   1.686   3.775  0.0609 -0.6714  0.5481
  235SOL    MW4  987   0.117   1.689   3.761 -0.1045 -0.0166 -0.4377
  236SOL     OW  988   4.393   3.724   3.401  0.1069 -0.2269  0.0368
  236SOL    HW2  989   4.318   3.774   3.432 -0.2994  0.0576 -1.4052
  236SOL    HW3  990   4.382   3.720   3.306  0.7394 -2.0686  0.0299
  236SOL    MW4  991   4.382   3.730   3.393  0.1369 -0.4323 -0.1545
  237SOL     OW  992   1.451   2.039   3.428  0.1352  0.2458 -0.3807
  237SOL    HW2  993   1.435   2.104   3.359  1.0809  0.4900 -0.3712
  237SOL    HW3  994   1.371   2.041   3.481 -0.9491 -0.5422 -1.9390
  237SOL    MW4  995   1.438   2.048   3.426  0.1168  0.1738 -0.5853
  238SOL     OW  996   0.627   1.735   2.644  0.0365  0.4187  0.4507
  238SOL    HW2  997   0.569   1.660   2.658 -0.2354  0.6016  0.3035
  238SOL    HW3  998   0.568   1.808   2.623  0.3839  0.3550 -0.7943
  238SOL    MW4  999   0.612   1.735   2.643  0.0464  0.4345  0.2673
  239SOL     OW 1000   3.800   2.000   0.434 -0.1811  0.2809  0.6823
  239SOL    HW2 1001   3.844   2.085   0.434 -1.1211  0.8025 -1.5799
  239SOL    HW3 1002   3.707   2.021   0.445 -0.4004 -0.4615  0.2740
  239SOL    MW4 1003   3.793   2.014   0.435 -0.3343  0.2518  0.3299
  240SOL     OW 1004   2.428   2.208   2.231 -0.2253  0.3936  0.1034
  240SOL    HW2 1005   2.398   2.265   2.302  0.6777  0.5074  0.3983
  240SOL    HW3 1006   2.371   2.132   2.236  0.5740 -0.1215  1.7051
  240SOL    MW4 1007   2.417   2.206   2.241 -0.0005  0.3407  0.3536
  241SOL     OW 1008   1.865   3.806   0.987 -0.5120  0.7315 -0.1024
  241SOL    HW2 1009   1.877   3.838   0.898 -0.9057  1.6433  0.1630
  241SOL    HW3 1010   1.950   3.816   1.029 -0.6409  1.4505 -0.0148
  241SOL    MW4 1011   1.878   3.811   0.981 -0.5809  0.9468 -0.0559
  242SOL     OW 1012   2.309   2.226   3.712  0.2589  0.0287  0.6211
  242SOL    HW2 1013   2.314   2.165   3.638 -0.2993 -0.2533  0.8056
  242SOL    HW3 1014   2.231   2.279   3.694 -0.1916 -0.4043  1.2720
  242SOL    MW4 1015   2.299   2.225   3.700  0.1256 -0.0658  0.7312
  243SOL     OW 1016   1.655   4.002   1.626 -0.8212  0.0939  0.3084
  243SOL    HW2 1017   1.700   4.072   1.672  0.6624  0.2595 -1.3240
  243SOL    HW3 1018   1.718   3.930   1.623 -1.9873 -0.9918  1.1502
  243SOL    MW4 1019   1.669   4.002   1.631 -0.7793 -0.0277  0.2041
  244SOL     OW 1020   2.107   3.710   3.007 -0.1018 -0.1004  0.3807
  244SOL    HW2 1021   2.024   3.758   3.001 -1.2754 -1.8542  2.2127
  244SOL    HW3 1022   2.098   3.655   3.085  1.8565 -2.0921 -0.7434
  244SOL    MW4 1023   2.095   3.709   3.016  0.0019 -0.5946  0.4742
  245SOL     OW 1024   1.056   1.781   1.744 -0.5971 -0.1250 -0.3336
  245SOL    HW2 1025   0.974   1.733   1.749 -1.0436  0.7243  0.6808
  245SOL    HW3 1026   1.094   1.756   1.659 -1.1885 -1.6399 -0.1664
  245SOL    MW4 1027   1.050   1.771   1.733 -0.7341 -0.2128 -0.1776
  246SOL     OW 1028   2.195   1.781   3.626  0.2038  0.3625  0.1553
  246SOL    HW2 1029   2.108   1.747   3.606  0.8370 -1.4052  0.3628
  246SOL    HW3 1030   2.216   1.747   3.713  1.7370 -0.4931 -0.5235
  246SOL    MW4 1031   2.187   1.772   3.635  0.4897  0.0165  0.0935
  247SOL     OW 1032   2.033   0.865   4.086  0.4935 -0.0713  0.0233
  247SOL    HW2 1033   2.073   0.778   4.081 -0.0882 -0.3312 -0.3208
  247SOL    HW3 1034   1.967   0.864   4.016 -0.3280  0.2270  0.7881
  247SOL    MW4 1035   2.029   0.853   4.076  0.3083 -0.0662  0.0782
  248SOL     OW 1036   2.638   4.157   0.340  0.1902 -0.3009 -0.0506
  248SOL    HW2 1037   2.636   4.098   0.415 -1.0722  0.3022  0.3934
  248SOL    HW3 1038   2.684   4.235   0.371 -1.5346  0.5085  0.5233
  248SOL    MW4 1039   2.644   4.159   0.354 -0.2038 -0.1149  0.0837
  249SOL     OW 1040   3.146   1.662   2.920  0.4000  0.0544  0.3932
  249SOL    HW2 1041   3.064   1.636   2.879  0.3649 -0.1285  0.5799
  249SOL    HW3 1042   3.139   1.630   3.010  0.3320  0.7453  0.6403
  249SOL    MW4 1043   3.134   1.655   2.926  0.3860  0.1215  0.4504
  250SOL     OW 1044   1.530   4.395   2.038  0.1450 -0.0838  0.0101
  250SOL    HW2 1045   1.619   4.402   2.072  0.2774  1.0113 -0.5351
  250SOL    HW3 1046   1.491   4.324   2.088  1.6993 -1.3850 -0.5740
  250SOL    MW4 1047   1.537   4.387   2.049  0.3675 -0.1111 -0.1388
  251SOL     OW 1048   2.099   2.446   1.229 -0.2808 -0.7336 -1.0897
  251SOL    HW2 1049   2.143   2.425   1.311 -1.4157 -0.9763 -0.5348
  251SOL    HW3 1050   2.166   2.489   1.176  0.6792 -1.2933 -0.3446
  251SOL    MW4 1051   2.114   2.449   1.233 -0.3040 -0.8395 -0.9181
  252SOL     OW 1052   3.779   2.555   1.495  0.2086  0.6768 -0.0620
  252SOL    HW2 1053   3.710   2.518   1.550  1.8283  0.0639  1.6047
  252SOL    HW3 1054   3.738   2.568   1.410 -2.0614  0.6892  1.0164
  252SOL    MW4 1055   3.765   2.552   1.491  0.1228  0.5975  0.3002
  253SOL     OW 1056   4.311   0.390   1.551  0.1196  0.0442 -0.5670
  253SOL    HW2 1057   4.327   0.417   1.461  0.6854  1.4239 -0.0655
  253SOL    HW3 1058   4.277   0.468   1.594  0.1556 -0.5157  0.4987
  253SOL    MW4 1059   4.308   0.404   1.545  0.1988  0.1523 -0.3603
  254SOL     OW 1060   0.864   4.281   1.844 -0.6679  0.0717 -0.2645
  254SOL    HW2 1061   0.882   4.363   1.800  1.5183 -0.3267 -0.2159
  254SOL    HW3 1062   0.885   4.214   1.779  0.6002 -0.4759  0.6768
  254SOL    MW4 1063   0.869   4.283   1.830 -0.2121 -0.0534 -0.1338
  255SOL     OW 1064   2.035   2.153   1.199  0.1899 -0.0347  0.6896
  255SOL    HW2 1065   2.041   2.102   1.280  0.2212  0.1635  0.8138
  255SOL    HW3 1066   2.044   2.244   1.228  1.4065 -0.0343  0.3290
  255SOL    MW4 1067   2.037   2.158   1.214  0.3548 -0.0088  0.6585
  256SOL     OW 1068   1.407   4.531   2.513  0.7905  0.2649  0.0970
  256SOL    HW2 1069   1.352   4.532   2.592 -2.4539  2.8838 -2.0577
  256SOL    HW3 1070   1.490   4.570   2.541  0.4155 -0.6505  2.6352
  256SOL    MW4 1071   1.411   4.536   2.528  0.3129  0.4892  0.1473
  257SOL     OW 1072   1.640   1.247   2.846  0.1462  0.3428 -0.2741
  257SOL    HW2 1073   1.721   1.229   2.893  0.0956  0.8665  0.0162
  257SOL    HW3 1074   1.615   1.163   2.808  0.1429 -0.1062  0.7040
  257SOL    MW4 1075   1.647   1.234   2.847  0.1392  0.3526 -0.1068
  258SOL     OW 1076   1.347   2.494   4.100 -0.5412 -0.0880 -0.0819
  258SOL    HW2 1077   1.423   2.547   4.121 -0.8948  0.1334  0.6526
  258SOL    HW3 1078   1.275   2.556   4.090 -0.2625 -0.1322 -2.5711
  258SOL    MW4 1079   1.347   2.509   4.102 -0.5509 -0.0644 -0.3133
  259SOL     OW 1080   3.184   1.681   3.197  0.0310  0.4743 -0.8216
  259SOL    HW2 1081   3.214   1.621   3.266 -0.0734 -1.0930 -2.1091
  259SOL    HW3 1082   3.264   1.727   3.169  0.0394  1.2747  0.4581
  259SOL    MW4 1083   3.199   1.679   3.203  0.0184  0.3731 -0.8225
  260SOL     OW 1084   4.390   2.352   3.770  0.3897 -0.3864  0.5080
  260SOL    HW2 1085   4.338   2.290   3.822 -0.4887 -0.0943 -0.0123
  260SOL    HW3 1086   4.480   2.323   3.782  0.2965  0.1926  2.9149
  260SOL    MW4 1087   4.395   2.340   3.778  0.2613 -0.2713  0.7567
  261SOL     OW 1088   0.456   4.418   0.637  0.2495 -0.0926  0.2625
  261SOL    HW2 1089   0.499   4.444   0.719  1.1381 -1.5353  0.2716
  261SOL    HW3 1090   0.369   4.389   0.664  0.0579  0.6937  0.5209
  261SOL    MW4 1091   0.450   4.418   0.651  0.3414 -0.1793  0.2978
  262SOL     OW 1092   1.810   2.546   3.791 -0.5271  0.0108 -0.2730
  262SOL    HW2 1093   1.806   2.541   3.886 -0.1532 -1.4503 -0.3172
  262SOL    HW3 1094   1.721   2.525   3.761 -0.5717  0.1736 -0.2550
  262SOL    MW4 1095   1.798   2.543   3.800 -0.4836 -0.1605 -0.2766
  263SOL     OW 1096   1.065   4.185   3.950  0.0882  0.1070 -0.5585
  263SOL    HW2 1097   1.146   4.133   3.948  1.0147  1.5654 -1.3256
  263SOL    HW3 1098   1.054   4.209   4.042  0.1367 -0.6959 -0.3405
  263SOL    MW4 1099   1.074   4.181   3.962  0.2168  0.1936 -0.6309
  264SOL     OW 1100   1.267   4.312   3.604  0.4561  0.1257  0.0705
  264SOL    HW2 1101   1.333   4.369   3.643 -0.7354  0.8248  1.1000
  264SOL    HW3 1102   1.212   4.371   3.552  1.4463 -0.6563 -1.9425
  264SOL    MW4 1103   1.268   4.327   3.602  0.4295  0.1154 -0.0594
  265SOL     OW 1104   3.310   0.739   0.467 -0.0034  0.0710 -0.5223
  265SOL    HW2 1105   3.245   0.770   0.403  0.5662  0.2698 -1.0124
  265SOL    HW3 1106   3.361   0.817   0.489  0.2761 -0.1474 -0.3843
  265SOL    MW4 1107   3.308   0.754   0.461  0.1090  0.0685 -0.5687
  266SOL     OW 1108   4.102   0.732   3.420 -0.3070 -0.1287  0.1812
  266SOL    HW2 1109   4.103   0.636   3.414  0.0596 -0.2342  1.8305
  266SOL    HW3 1110   4.072   0.760   3.334  0.5250 -1.6968 -0.6494
  266SOL    MW4 1111   4.098   0.723   3.408 -0.1493 -0.3495  0.2892
  267SOL     OW 1112   2.960   3.527   3.704  0.0609  0.0916 -0.6509
  267SOL    HW2 1113   2.870   3.551   3.683  0.1291 -0.2159 -1.3145
  267SOL    HW3 1114   2.976   3.446   3.655  0.9069  0.5002 -1.0848
  267SOL    MW4 1115   2.951   3.520   3.695  0.1814  0.1049 -0.7956
  268SOL     OW 1116   3.354   2.813   3.001 -0.2341 -0.3644 -0.3796
  268SOL    HW2 1117   3.291   2.853   2.942 -0.2441  0.4807  0.1954
  268SOL    HW3 1118   3.359   2.873   3.075 -0.5058 -1.6041  0.6522
  268SOL    MW4 1119   3.347   2.826   3.003 -0.2711 -0.4168 -0.1676
  269SOL     OW 1120   2.920   3.593   2.288  0.2320 -0.1158  0.0616
  269SOL    HW2 1121   2.876   3.628   2.366  1.2936 -1.0011  1.0755
  269SOL    HW3 1122   2.877   3.509   2.272  1.0252 -0.6382  0.6114
  269SOL    MW4 1123   2.908   3.586   2.296  0.4766 -0.3016  0.2680
  270SOL     OW 1124   0.330   0.459   2.284  0.4139  0.3090  0.0142
  270SOL    HW2 1125   0.269   0.396   2.245  0.4977  0.1061  0.2126
  270SOL    HW3 1126   0.413   0.442   2.240  0.4141  0.3457  0.0001
  270SOL    MW4 1127   0.333   0.448   2.273  0.4251  0.2870  0.0386
  271SOL     OW 1128   2.617   1.747   1.081 -0.2569  0.2523 -0.2683
  271SOL    HW2 1129   2.549   1.809   1.105 -0.8334 -0.0858 -0.9816
  271SOL    HW3 1130   2.638   1.701   1.162 -1.2127  0.0499 -0.1260
  271SOL    MW4 1131   2.611   1.749   1.095 -0.4592  0.1810 -0.3436
  272SOL     OW 1132   1.710   4.173   1.092  0.0789 -0.3184  0.4449
  272SOL    HW2 1133   1.751   4.185   1.007  0.1375 -0.8683  0.3942
  272SOL    HW3 1134   1.658   4.252   1.105  0.8158  0.1971  0.3239
  272SOL    MW4 1135   1.709   4.185   1.083  0.1839 -0.3228  0.4222
  273SOL     OW 1136   1.556   0.263   1.053 -0.5649 -0.1523  0.0659
  273SOL    HW2 1137   1.615   0.303   1.117  1.0301 -1.0101 -0.8265
  273SOL    HW3 1138   1.497   0.333   1.027  0.8167  1.0460  0.1124
  273SOL    MW4 1139   1.556   0.277   1.058 -0.1721 -0.1073 -0.0458
  274SOL     OW 1140   1.417   0.542   2.954 -0.1065  0.0231 -0.0782
  274SOL    HW2 1141   1.366   0.593   2.891  0.0096  1.5843  1.0820
  274SOL    HW3 1142   1.451   0.468   2.903 -0.7603  0.7747 -1.6276
  274SOL    MW4 1143   1.414   0.539   2.939 -0.1776  0.3282 -0.1297
  275SOL     OW 1144   3.941   3.896   4.067 -0.1879  0.2365 -0.1373
  275SOL    HW2 1145   3.994   3.816   4.076 -0.3942 -0.0198 -1.1534
  275SOL    HW3 1146   3.852   3.863   4.055  0.0366  0.5462 -2.8901
  275SOL    MW4 1147   3.937   3.881   4.066 -0.1855  0.2434 -0.6351
  276SOL     OW 1148   1.551   2.720   4.069 -0.0211 -0.2054  0.3115
  276SOL    HW2 1149   1.630   2.668   4.086 -0.3703 -0.9030 -0.1565
  276SOL    HW3 1150   1.569   2.805   4.108  0.7954 -0.4980  0.5819
  276SOL    MW4 1151   1.563   2.724   4.077  0.0405 -0.3362  0.2856
  277SOL     OW 1152   2.778   4.016   1.608  0.9194  0.6898  0.0797
  277SOL    HW2 1153   2.849   4.046   1.551  0.5655  0.0142 -0.7332
  277SOL    HW3 1154   2.816   4.018   1.696  1.5657  1.4629 -0.2089
  277SOL    MW4 1155   2.792   4.020   1.612  0.9580  0.7033 -0.0657
  278SOL     OW 1156   2.856   3.455   4.089  0.1892  0.5737 -0.4125
  278SOL    HW2 1157   2.923   3.462   4.021 -0.2081 -0.4077 -0.9125
  278SOL    HW3 1158   2.903   3.430   4.168  0.4215 -0.0435 -0.7456
  278SOL    MW4 1159   2.871   3.453   4.090  0.1676  0.3629 -0.5226
  279SOL     OW 1160   0.389   2.646   1.368  0.0764 -0.2490 -0.1402
  279SOL    HW2 1161   0.461   2.705   1.344 -1.9873  1.7898 -1.5526
  279SOL    HW3 1162   0.387   2.648   1.464  0.5595  1.3713 -0.1535
  279SOL    MW4 1163   0.398   2.654   1.378 -0.1322  0.2339 -0.3283
  280SOL     OW 1164   4.063   1.462   3.721 -0.1382  0.2931 -0.2088
  280SOL    HW2 1165   3.976   1.459   3.762 -0.0053  0.5582  0.0872
  280SOL    HW3 1166   4.090   1.553   3.727  1.1419 -0.1797  1.7638
  280SOL    MW4 1167   4.055   1.473   3.727  0.0486  0.2656  0.0906
  281SOL     OW 1168   3.982   1.135   1.127 -0.3575  0.0088  0.2306
  281SOL    HW2 1169   3.940   1.217   1.150 -2.6451 -1.3686  1.1409
  281SOL    HW3 1170   4.075   1.149   1.148 -0.9314  1.9010  1.6193
  281SOL    MW4 1171   3.989   1.147   1.133 -0.7350  0.0767  0.5341
  282SOL     OW 1172   3.888   4.126   0.511 -0.3368  0.1282 -0.2169
  282SOL    HW2 1173   3.886   4.143   0.605  0.9041  1.4028 -0.4174
  282SOL    HW3 1174   3.803   4.157   0.480 -0.0963  1.2777  0.2303
  282SOL    MW4 1175   3.876   4.132   0.519 -0.1411  0.4478 -0.1844
  283SOL     OW 1176   3.680   3.699   1.638 -0.3301 -0.3249  0.0114
  283SOL    HW2 1177   3.729   3.761   1.584  1.0311  0.0202  1.5982
  283SOL    HW3 1178   3.603   3.747   1.668 -0.3872 -0.0925 -0.5038
  283SOL    MW4 1179   3.676   3.713   1.634 -0.1583 -0.2487  0.1529
  284SOL     OW 1180   3.497   0.525   1.621  0.2552 -0.4329 -0.0745
  284SOL    HW2 1181   3.565   0.588   1.597 -0.0528 -0.0809 -0.0247
  284SOL    HW3 1182   3.545   0.445   1.643  0.6313 -0.2976 -0.3998
  284SOL    MW4 1183   3.512   0.522   1.621  0.2642 -0.3685 -0.1109
  285SOL     OW 1184   1.354   3.824   2.447  0.2759  0.1688 -0.1401
  285SOL    HW2 1185   1.273   3.779   2.472  1.6795 -1.2488  2.0626
  285SOL    HW3 1186   1.386   3.863   2.528  2.5572 -0.5757 -0.6292
  285SOL    MW4 1187   1.348   3.823   2.461  0.7621 -0.1163  0.0863
  286SOL     OW 1188   0.573   2.802   2.590 -0.3472 -0.3417 -0.5459
  286SOL    HW2 1189   0.659   2.808   2.550 -0.2135  0.9411 -0.0719
  286SOL    HW3 1190   0.520   2.866   2.543 -0.3116  0.8436  0.9913
  286SOL    MW4 1191   0.577   2.811   2.579 -0.3248 -0.0162 -0.2804
  287SOL     OW 1192   3.742   4.521   1.883 -0.1366 -0.2253 -0.0917
  287SOL    HW2 1193   3.664   4.556   1.839 -0.3585  0.1028  0.5595
  287SOL    HW3 1194   3.809   4.588   1.869  0.4330 -1.1303 -1.8423
  287SOL    MW4 1195   3.740   4.535   1.875 -0.0908 -0.3014 -0.2367
  288SOL     OW 1196   0.665   3.881   2.116  0.3439 -0.3836 -0.4047
  288SOL    HW2 1197   0.621   3.867   2.032  0.9256 -0.7450 -0.6469
  288SOL    HW3 1198   0.661   3.796   2.159  1.1805 -0.5198 -0.6025
  288SOL    MW4 1199   0.658   3.868   2.111  0.5310 -0.4492 -0.4625
  289SOL     OW 1200   3.007   1.602   0.448 -0.1484 -0.3442  0.0215
  289SOL    HW2 1201   2.961   1.645   0.520 -0.0824 -1.6417  0.8552
  289SOL    HW3 1202   2.940   1.592   0.380  0.0124  1.7181 -0.4978
  289SOL    MW4 1203   2.992   1.607   0.449 -0.1183 -0.2433  0.0630
  290SOL     OW 1204   4.415   2.145   4.417  0.1050 -0.0206 -0.5052
  290SOL    HW2 1205   4.364   2.074   4.379  1.6964 -0.5663 -1.6857
  290SOL    HW3 1206   4.372   2.225   4.386 -2.2376 -0.4110  1.5752
  290SOL    MW4 1207   4.403   2.146   4.408  0.0062 -0.1440 -0.3858
  291SOL     OW 1208   2.351   1.530   4.214 -0.3298  0.6358  0.0873
  291SOL    HW2 1209   2.435   1.546   4.257 -0.3773  1.3237 -0.0705
  291SOL    HW3 1210   2.336   1.609   4.161 -0.7414  0.2195 -0.4197
  291SOL    MW4 1211   2.360   1.543   4.212 -0.3905  0.6715 -0.0005
  292SOL     OW 1212   2.448   4.537   2.304  0.1826  0.3406  0.2951
  292SOL    HW2 1213   2.470   4.525   2.397 -0.5063  1.1665  0.5736
  292SOL    HW3 1214   2.371   4.594   2.305  1.3730  2.0142 -0.8475
  292SOL    MW4 1215   2.441   4.543   2.317  0.2484  0.6700  0.1812
  293SOL     OW 1216   4.067   0.147   3.443 -0.7996  0.3655  0.6193
  293SOL    HW2 1217   3.999   0.087   3.472 -2.4074  2.0138  0.3170
  293SOL    HW3 1218   4.062   0.221   3.505  1.4402  0.0260  1.2678
  293SOL    MW4 1219   4.058   0.149   3.455 -0.7167  0.5382  0.6649
  294SOL     OW 1220   4.323   3.134   1.011  0.3518  0.4132  0.1745
  294SOL    HW2 1221   4.316   3.209   0.952 -2.4819  0.3964  0.3997
  294SOL    HW3 1222   4.306   3.058   0.955  0.8241  0.1504  0.3932
  294SOL    MW4 1223   4.320   3.134   0.996  0.0401  0.3765  0.2331
  295SOL     OW 1224   0.685   0.807   3.728 -0.3984 -0.1176  0.0777
  295SOL    HW2 1225   0.679   0.732   3.668  0.4813  0.8119 -1.1677
  295SOL    HW3 1226   0.758   0.859   3.696 -1.5128  1.7332  0.4330
  295SOL    MW4 1227   0.694   0.804   3.716 -0.4294  0.2493 -0.0396
  296SOL     OW 1228   1.240   2.846   3.838 -0.3633 -0.2436 -0.6466
  296SOL    HW2 1229   1.294   2.913   3.879 -0.0227 -0.5865 -0.5268
  296SOL    HW3 1230   1.298   2.771   3.828 -0.6608 -0.4272 -1.0404
  296SOL    MW4 1231   1.255   2.845   3.842 -0.3575 -0.3133 -0.6828
  297SOL     OW 1232   3.473   3.513   3.459 -0.0840  0.5458  0.1708
  297SOL    HW2 1233   3.443   3.553   3.377 -0.1663  0.1442  0.0027
  297SOL    HW3 1234   3.393   3.506   3.512  0.0610  1.2762  0.4820
  297SOL    MW4 1235   3.458   3.517   3.455 -0.0758  0.5891  0.1895
  298SOL     OW 1236   0.921   0.286   3.792 -0.1655  0.5111  0.4577
  298SOL    HW2 1237   0.942   0.322   3.878  0.2822  1.3127  0.0117
  298SOL    HW3 1238   0.922   0.361   3.733 -0.8479  0.0234 -0.1870
  298SOL    MW4 1239   0.924   0.300   3.796 -0.1964  0.5525  0.3138
  299SOL     OW 1240   1.927   4.390   3.882  0.1943  0.3969 -0.2003
  299SOL    HW2 1241   2.012   4.412   3.845  0.6403 -0.7566  0.1359
  299SOL    HW3 1242   1.944   4.317   3.941 -0.8584  0.8404  0.6695
  299SOL    MW4 1243   1.940   4.384   3.884  0.1143  0.3033 -0.0412
  300SOL     OW 1244   4.122   4.619   0.220 -0.2709 -0.0288 -0.1225
  300SOL    HW2 1245   4.091   4.695   0.171 -1.1171  0.0240  0.4796
  300SOL    HW3 1246   4.046   4.560   0.222 -0.5227  0.3268  1.8193
  300SOL    MW4 1247   4.108   4.621   0.214 -0.4158  0.0248  0.2131
  301SOL     OW 1248   2.649   0.115   2.811 -0.0672  0.1862 -0.1039
  301SOL    HW2 1249   2.690   0.182   2.866  0.8406 -1.5270  1.3901
  301SOL    HW3 1250   2.573   0.086   2.861  0.1398 -0.6187 -0.2450
  301SOL    MW4 1251   2.645   0.120   2.825  0.0799 -0.1460  0.0746
  302SOL     OW 1252   0.601   3.915   3.381  0.2250 -0.1488 -0.0433
  302SOL    HW2 1253   0.528   3.951   3.331  0.7979  0.3946 -0.4939
  302SOL    HW3 1254   0.595   3.960   3.466  1.0446  1.1697 -0.6633
  302SOL    MW4 1255   0.590   3.926   3.386  0.4086  0.0968 -0.1845
  303SOL     OW 1256   1.039   4.322   0.952 -0.1428 -0.2741  0.3654
  303SOL    HW2 1257   1.132   4.343   0.962  0.1296 -0.5236 -1.5867
  303SOL    HW3 1258   1.007   4.384   0.887 -1.4287  0.0025  1.2417
  303SOL    MW4 1259   1.047   4.333   0.945 -0.2767 -0.2708  0.2235
  304SOL     OW 1260   0.392   3.003   2.024  0.3150  0.7158  0.1973
  304SOL    HW2 1261   0.327   3.070   2.007  0.8403  0.9325 -0.9818
  304SOL    HW3 1262   0.475   3.051   2.026  0.6934  0.1036 -0.6720
  304SOL    MW4 1263   0.395   3.018   2.022  0.4342  0.6635 -0.0732
  305SOL     OW 1264   4.371   0.045   3.026 -0.0551 -0.1910 -0.0820
  305SOL    HW2 1265   4.317  -0.011   2.970  0.4607  0.6390 -1.4418
  305SOL    HW3 1266   4.401  -0.013   3.096 -1.4330 -1.0335 -0.1662
  305SOL    MW4 1267   4.368   0.030   3.028 -0.1688 -0.1926 -0.2728
  306SOL     OW 1268   3.704   0.657   1.492 -0.2057 -0.0301  0.2252
  306SOL    HW2 1269   3.708   0.669   1.397 -0.4795  3.3860  0.6127
  306SOL    HW3 1270   3.782   0.701   1.525  0.0436 -1.4572  1.5983
  306SOL    MW4 1271   3.715   0.664   1.484 -0.2089  0.2323  0.4574
  307SOL     OW 1272   1.016   3.767   1.696 -0.6467 -0.4414  0.1562
  307SOL    HW2 1273   1.087   3.727   1.646 -1.8943 -2.3904 -0.1425
  307SOL    HW3 1274   0.973   3.693   1.739 -2.9362  0.5959 -0.2438
  307SOL    MW4 1275   1.020   3.752   1.695 -1.1134 -0.5617  0.0640
  308SOL     OW 1276   4.130   4.517   0.643 -0.3433 -0.5441 -0.5664
  308SOL    HW2 1277   4.132   4.606   0.609  0.7353 -0.8862 -1.4363
  308SOL    HW3 1278   4.040   4.504   0.673 -0.7274  0.5204 -1.2420
  308SOL    MW4 1279   4.119   4.527   0.643 -0.2513 -0.4487 -0.7703
  309SOL     OW 1280   2.420   4.120   2.868  0.3628  0.1314  0.1282
  309SOL    HW2 1281   2.399   4.028   2.888  1.2712  0.0060  0.5305
  309SOL    HW3 1282   2.515   4.120   2.855  0.3613  1.0163  0.1276
  309SOL    MW4 1283   2.430   4.108   2.869  0.4823  0.2317  0.1812
  310SOL     OW 1284   2.428   2.470   1.322 -0.3616 -0.0251 -0.0451
  310SOL    HW2 1285   2.508   2.417   1.315 -0.2878 -0.2650  2.3766
  310SOL    HW3 1286   2.459   2.556   1.350 -1.0822 -0.7297  3.1420
  310SOL    MW4 1287   2.443   2.474   1.325 -0.4470 -0.1497  0.6950
  311SOL     OW 1288   3.071   0.682   1.002 -0.2519 -0.0171  0.1783
  311SOL    HW2 1289   3.141   0.726   0.954 -1.6896  0.9431 -1.0691
  311SOL    HW3 1290   3.047   0.742   1.072 -1.9181  1.0512 -1.2642
  311SOL    MW4 1291   3.077   0.695   1.005 -0.6614  0.2506 -0.1767
  312SOL     OW 1292   4.251   0.652   1.607  0.4253 -0.3265  0.2659
  312SOL    HW2 1293   4.215   0.724   1.555  0.6215  0.0966  0.7065
  312SOL    HW3 1294   4.344   0.673   1.616  0.8521 -1.5575 -1.1010
  312SOL    MW4 1295   4.258   0.665   1.601  0.5074 -0.4331  0.1439
  313SOL     OW 1296   2.040   0.428   4.198  0.0839  0.1604  0.5622
  313SOL    HW2 1297   1.994   0.355   4.157  1.6090  0.5305 -1.8867
  313SOL    HW3 1298   2.101   0.386   4.259 -0.6487 -0.5006  0.8458
  313SOL    MW4 1299   2.042   0.413   4.201  0.1884  0.1221  0.2766
  314SOL     OW 1300   2.515   3.020   3.115 -0.0126  0.4034  0.6788
  314SOL    HW2 1301   2.557   3.016   3.201  0.9601 -0.1479  0.1876
  314SOL    HW3 1302   2.422   3.028   3.134 -0.0754 -2.3597  1.8300
  314SOL    MW4 1303   2.508   3.021   3.129  0.1075 -0.0339  0.7660
  315SOL     OW 1304   2.049   4.446   2.064  0.1135 -0.4151  0.0445
  315SOL    HW2 1305   1.961   4.430   2.097  0.0856  1.1372  0.7464
  315SOL    HW3 1306   2.107   4.416   2.134  0.1352 -0.7952 -0.1339
  315SOL    MW4 1307   2.045   4.440   2.077  0.1125 -0.2604  0.1135
  316SOL     OW 1308   2.690   4.181   0.788 -0.1490 -0.1175  0.5161
  316SOL    HW2 1309   2.671   4.130   0.866 -3.9931  1.5823  0.7961
  316SOL    HW3 1310   2.647   4.134   0.717  1.6338 -0.5901 -0.2775
  316SOL    MW4 1311   2.682   4.168   0.789 -0.4213  0.0439  0.4484
  317SOL     OW 1312   1.050   1.900   3.159 -0.2924 -0.0415 -0.4320
  317SOL    HW2 1313   1.086   1.858   3.237 -0.1629  1.3992  0.2914
  317SOL    HW3 1314   0.955   1.890   3.169 -0.3746  1.8279  0.8966
  317SOL    MW4 1315   1.042   1.893   3.171 -0.2862  0.3951 -0.1612
  318SOL     OW 1316   0.107   0.043   0.500  0.2335  0.1632  0.3461
  318SOL    HW2 1317   0.200   0.021   0.495  0.3065  0.4545  0.3939
  318SOL    HW3 1318   0.062  -0.037   0.474  0.4764 -0.3346  1.4258
  318SOL    MW4 1319   0.114   0.030   0.496  0.2752  0.1360  0.4949
  319SOL     OW 1320   0.506   3.526   3.274  0.2092  0.6544  0.6205
  319SOL    HW2 1321   0.569   3.588   3.236  0.2760  1.5790  2.1984
  319SOL    HW3 1322   0.459   3.491   3.198  0.3049  2.4906 -0.3268
  319SOL    MW4 1323   0.508   3.530   3.259  0.2307  1.0188  0.7038
  320SOL     OW 1324   0.629   4.245   2.577  0.5372  0.0222  0.7659
  320SOL    HW2 1325   0.605   4.301   2.651  3.0580 -0.3550  1.9104
  320SOL    HW3 1326   0.547   4.202   2.553 -0.5345  0.9016  2.6767
  320SOL    MW4 1327   0.615   4.247   2.584  0.7284  0.0882  1.1690
  321SOL     OW 1328   3.518   1.551   4.032 -0.0046  0.3657  0.3228
  321SOL    HW2 1329   3.528   1.464   4.070  0.3151 -0.0510 -0.6866
  321SOL    HW3 1330   3.424   1.560   4.018 -0.0651  0.2918  0.6798
  321SOL    MW4 1331   3.507   1.541   4.035  0.0296  0.3010  0.2365
  322SOL     OW 1332   0.730   2.333   2.537  0.0138 -0.3197  0.3631
  322SOL    HW2 1333   0.680   2.401   2.492 -1.8205 -0.5937  1.9245
  322SOL    HW3 1334   0.729   2.258   2.477  0.9781  0.5891 -0.8204
  322SOL    MW4 1335   0.723   2.332   2.523 -0.1010 -0.2360  0.4132
  323SOL     OW 1336   3.549   0.589   1.874 -0.4008  0.1651 -0.1418
  323SOL    HW2 1337   3.518   0.592   1.784 -1.0227 -0.3318  0.0563
  323SOL    HW3 1338   3.491   0.528   1.918 -0.3280  0.6772  0.6842
  323SOL    MW4 1339   3.537   0.582   1.868 -0.4730  0.1671 -0.0067
  324SOL     OW 1340   0.644   3.180   3.600  0.5396 -0.3005  0.0738
  324SOL    HW2 1341   0.614   3.198   3.511  1.7077 -1.5021 -0.5811
  324SOL    HW3 1342   0.671   3.265   3.634  0.1388  0.1544 -0.7338
  324SOL    MW4 1343   0.643   3.194   3.593  0.6409 -0.3991 -0.1190
  325SOL     OW 1344   4.432   2.992   2.753 -0.2267 -0.3883  0.4590
  325SOL    HW2 1345   4.519   2.962   2.780  0.6921 -0.0262 -2.0004
  325SOL    HW3 1346   4.417   3.071   2.806  2.1502  1.1354 -1.0237
  325SOL    MW4 1347   4.442   2.999   2.764  0.2089 -0.1397 -0.0610
  326SOL     OW 1348   2.332   3.368   2.693 -0.1271  0.1279  0.3927
  326SOL    HW2 1349   2.270   3.435   2.719 -0.5789 -0.2477  0.2995
  326SOL    HW3 1350   2.291   3.286   2.720  0.2057 -0.1388  0.0950
  326SOL    MW4 1351   2.319   3.366   2.700 -0.1428  0.0429  0.3414
  327SOL     OW 1352   4.000   1.175   2.473  0.2215 -0.2260  0.1368
  327SOL    HW2 1353   3.990   1.149   2.564  2.2472  3.7000  1.5894
  327SOL    HW3 1354   4.079   1.131   2.444 -0.0394 -0.9265  0.4743
  327SOL    MW4 1355   4.009   1.166   2.481  0.4544  0.1997  0.3726
  328SOL     OW 1356   2.093   1.175   3.654  0.0821  0.2036 -0.4398
  328SOL    HW2 1357   2.087   1.239   3.583  0.0013 -0.4804 -1.0620
  328SOL    HW3 1358   2.132   1.222   3.727  0.4230  0.8391 -1.0375
  328SOL    MW4 1359   2.097   1.189   3.654  0.1166  0.1973 -0.6011
  329SOL     OW 1360   0.716   2.726   0.839 -0.1096 -0.3191  0.0077
  329SOL    HW2 1361   0.641   2.717   0.780  1.2706  1.3702 -2.0553
  329SOL    HW3 1362   0.723   2.820   0.855  2.2091 -0.3332 -0.6988
  329SOL    MW4 1363   0.707   2.738   0.833  0.3784 -0.0980 -0.3577
  330SOL     OW 1364   0.570   0.730   0.692 -0.6200  0.1186 -0.0581
  330SOL    HW2 1365   0.532   0.726   0.780 -1.1453  3.0601 -0.1143
  330SOL    HW3 1366   0.539   0.813   0.656  2.5107  0.6468 -1.7007
  330SOL    MW4 1367   0.561   0.740   0.699 -0.2763  0.5763 -0.2822
  331SOL     OW 1368   4.016   3.788   2.718  0.0398  0.2767 -0.1417
  331SOL    HW2 1369   4.066   3.770   2.637  1.2915 -0.7560  0.8348
  331SOL    HW3 1370   3.931   3.748   2.703  0.2637  0.0889 -0.9543
  331SOL    MW4 1371   4.012   3.781   2.705  0.2346  0.1154 -0.1202
  332SOL     OW 1372   4.318   1.590   2.892 -0.6495  0.0234 -0.7765
  332SOL    HW2 1373   4.301   1.641   2.813  0.2831 -0.4091 -1.2557
  332SOL    HW3 1374   4.332   1.501   2.860  1.6034  0.1802 -0.3187
  332SOL    MW4 1375   4.317   1.585   2.877 -0.2289 -0.0129 -0.7792
  333SOL     OW 1376   3.092   1.024   1.369  0.5144 -0.0089  0.0169
  333SOL    HW2 1377   3.084   1.031   1.464 -0.9578  1.9814 -0.2275
  333SOL    HW3 1378   3.174   0.975   1.356  0.4482 -0.8023  2.2957
  333SOL    MW4 1379   3.102   1.019   1.380  0.3114  0.1490  0.2853
  334SOL     OW 1380   2.971   2.849   2.596 -0.1817  0.1614 -0.2403
  334SOL    HW2 1381   2.923   2.767   2.593 -0.8216  0.4939  0.7042
  334SOL    HW3 1382   2.920   2.909   2.541  0.8673 -0.3500 -1.8327
  334SOL    MW4 1383   2.958   2.846   2.588 -0.1276  0.1378 -0.3257
  335SOL     OW 1384   3.158   3.071   0.912  0.6142 -0.5418 -0.3625
  335SOL    HW2 1385   3.071   3.110   0.923  1.5288  1.4969 -0.1849
  335SOL    HW3 1386   3.152   2.986   0.955 -0.8398  0.2496  1.0273
  335SOL    MW4 1387   3.146   3.065   0.919  0.5429 -0.1683 -0.1557
  336SOL     OW 1388   4.168   2.248   1.018 -0.6575  0.3563 -0.1006
  336SOL    HW2 1389   4.103   2.178   1.008 -0.6990  0.1078  1.7382
  336SOL    HW3 1390   4.130   2.323   0.971 -1.5830 -0.2263 -0.2927
  336SOL    MW4 1391   4.154   2.249   1.010 -0.7858  0.2465  0.1167
  337SOL     OW 1392   4.087   2.811   0.108 -0.0562  0.1552  0.2585
  337SOL    HW2 1393   4.128   2.869   0.173  2.0074 -0.1285 -0.7531
  337SOL    HW3 1394   4.155   2.748   0.087 -1.4615 -1.0904 -0.5600
  337SOL    MW4 1395   4.101   2.811   0.114  0.0305 -0.0463  0.0170
  338SOL     OW 1396   0.259   4.191   1.091  0.1016  0.3275  0.1099
  338SOL    HW2 1397   0.167   4.184   1.114  0.4736 -2.1971  0.9582
  338SOL    HW3 1398   0.298   4.243   1.161 -0.6333  1.2885 -0.1840
  338SOL    MW4 1399   0.252   4.197   1.103  0.0537  0.1216  0.1831
  339SOL     OW 1400   4.226   1.002   1.897 -0.1604  0.2962 -0.4128
  339SOL    HW2 1401   4.235   1.054   1.977  0.2775 -2.3427  1.2947
  339SOL    HW3 1402   4.179   1.060   1.836 -1.0777  2.1186  1.9570
  339SOL    MW4 1403   4.221   1.017   1.899 -0.2236  0.1885  0.1252
  340SOL     OW 1404   2.310   4.598   2.658  0.3682 -0.4489 -0.0906
  340SOL    HW2 1405   2.303   4.632   2.747  0.7155  1.0171 -0.6130
  340SOL    HW3 1406   2.221   4.570   2.636 -0.1130  0.9452  0.0321
  340SOL    MW4 1407   2.298   4.599   2.667  0.3507 -0.0720 -0.1433
  341SOL     OW 1408   2.628   1.340   2.561 -0.5112  0.0833 -0.0993
  341SOL    HW2 1409   2.561   1.293   2.511  0.0124 -1.6300  0.7837
  341SOL    HW3 1410   2.674   1.392   2.495 -1.9732  0.4001 -0.8850
  341SOL    MW4 1411   2.625   1.341   2.545 -0.6349 -0.1009 -0.0868
  342SOL     OW 1412   3.541   4.661   3.440  0.1159  0.0656  0.6718
  342SOL    HW2 1413   3.460   4.658   3.492 -1.3043  0.0971 -1.4728
  342SOL    HW3 1414   3.540   4.578   3.392  0.3126  0.9751 -0.9036
  342SOL    MW4 1415   3.530   4.649   3.441 -0.0455  0.1903  0.1810
  343SOL     OW 1416   0.885   0.240   1.649  0.4161 -0.0639  0.4878
  343SOL    HW2 1417   0.968   0.203   1.619  0.0744 -1.4063  1.1977
  343SOL    HW3 1418   0.876   0.321   1.598  1.5047 -0.5803 -0.5594
  343SOL    MW4 1419   0.895   0.246   1.638  0.5146 -0.3091  0.4432
  344SOL     OW 1420   2.023   4.325   2.372 -0.3961 -0.3864 -0.0540
  344SOL    HW2 1421   2.044   4.319   2.465 -1.3302 -0.0645  0.1913
  344SOL    HW3 1422   2.003   4.236   2.346 -0.8668 -0.3729  0.2435
  344SOL    MW4 1423   2.023   4.313   2.381 -0.5815 -0.3424  0.0179
  345SOL     OW 1424   2.079   4.479   3.121 -0.0780 -0.6810 -0.0327
  345SOL    HW2 1425   1.986   4.460   3.136 -0.1700 -0.9763 -0.9279
  345SOL    HW3 1426   2.125   4.407   3.164 -0.2442 -0.3156  0.7680
  345SOL    MW4 1427   2.072   4.467   3.128 -0.1121 -0.6714 -0.0451
  346SOL     OW 1428   1.104   0.877   1.152 -0.0142 -0.3883 -0.2208
  346SOL    HW2 1429   1.197   0.869   1.131  0.3138  1.5758  0.3412
  346SOL    HW3 1430   1.098   0.961   1.199 -2.0832 -0.4358 -0.3787
  346SOL    MW4 1431   1.115   0.887   1.156 -0.2439 -0.1355 -0.1676
  347SOL     OW 1432   3.006   1.583   4.084 -0.1158 -0.2121  0.2879
  347SOL    HW2 1433   3.041   1.671   4.095 -0.2097 -0.3176  1.5675
  347SOL    HW3 1434   2.912   1.595   4.073 -0.2272 -0.1824  1.1967
  347SOL    MW4 1435   2.998   1.596   4.084 -0.1431 -0.2221  0.5765
  348SOL     OW 1436   0.011   2.558   1.415  0.0751  0.1700 -0.0776
  348SOL    HW2 1437   0.024   2.652   1.412  1.0156  0.0377 -0.6082
  348SOL    HW3 1438   0.033   2.533   1.505  0.1071  0.4178 -0.0187
  348SOL    MW4 1439   0.016   2.567   1.427  0.2034  0.1853 -0.1400
  349SOL     OW 1440   3.730   1.566   1.660  0.2762 -0.1013 -0.4343
  349SOL    HW2 1441   3.761   1.657   1.655 -0.1854  0.1184  0.4632
  349SOL    HW3 1442   3.640   1.574   1.693 -0.3737 -0.7865 -1.9942
  349SOL    MW4 1443   3.722   1.579   1.664  0.1295 -0.1627 -0.5217
  350SOL     OW 1444   3.725   2.070   1.486  0.5891  0.3296  0.4799
  350SOL    HW2 1445   3.759   2.004   1.545 -0.2700  1.5116  2.3484
  350SOL    HW3 1446   3.802   2.122   1.461  1.0535 -0.5672  0.0514
  350SOL    MW4 1447   3.740   2.068   1.490  0.5369  0.3672  0.6700
  351SOL     OW 1448   1.124   1.700   1.494  0.3132  0.0473  0.1249
  351SOL    HW2 1449   1.082   1.614   1.497 -1.6936  1.0015  0.4206
  351SOL    HW3 1450   1.216   1.681   1.476 -0.1747 -2.1308 -0.2717
  351SOL    MW4 1451   1.131   1.686   1.492 -0.0159 -0.1142  0.1116
  352SOL     OW 1452   4.478   2.491   0.811  0.1842 -0.0276 -0.2984
  352SOL    HW2 1453   4.423   2.538   0.874 -0.1945 -0.0682 -0.5943
  352SOL    HW3 1454   4.566   2.496   0.847  0.1587  0.9963 -0.3828
  352SOL    MW4 1455   4.482   2.498   0.824  0.1311  0.1025 -0.3486
  353SOL     OW 1456   3.409   1.712   3.665  0.3191  0.2632 -0.0343
  353SOL    HW2 1457   3.318   1.714   3.692 -0.2706 -0.0022 -1.9245
  353SOL    HW3 1458   3.418   1.783   3.602  1.0317 -0.6590 -1.0012
  353SOL    MW4 1459   3.398   1.721   3.660  0.3350  0.1065 -0.4113
  354SOL     OW 1460   2.990   0.988   3.043  0.2098 -0.1019 -0.1242
  354SOL    HW2 1461   2.997   1.067   2.990 -1.7602  0.8126  0.9277
  354SOL    HW3 1462   2.933   0.930   2.992  1.0265 -0.5722 -0.5290
  354SOL    MW4 1463   2.984   0.991   3.029  0.0577 -0.0433 -0.0386
  355SOL     OW 1464   2.451   3.894   3.345  0.2973 -0.5062  0.1080
  355SOL    HW2 1465   2.506   3.967   3.319 -0.5708  0.0937 -0.0401
  355SOL    HW3 1466   2.422   3.916   3.434 -0.2576 -0.5026 -0.0748
  355SOL    MW4 1467   2.454   3.906   3.353  0.1094 -0.4265  0.0644
  356SOL     OW 1468   3.108   3.346   0.587 -0.5522 -0.1874 -0.2431
  356SOL    HW2 1469   3.060   3.269   0.559 -0.1917 -0.4917 -0.0325
  356SOL    HW3 1470   3.053   3.420   0.562 -0.5651 -0.4828 -1.0957
  356SOL    MW4 1471   3.095   3.346   0.580 -0.5064 -0.2663 -0.3278
  357SOL     OW 1472   0.080   3.442   3.125  0.3516  0.2805 -0.3305
  357SOL    HW2 1473   0.038   3.446   3.211  0.2403  0.3952 -0.3915
  357SOL    HW3 1474   0.173   3.430   3.145  0.0137 -2.5371 -0.2047
  357SOL    MW4 1475   0.087   3.441   3.139  0.2923 -0.0761 -0.3219
  358SOL     OW 1476   3.924   4.193   4.056 -0.3340  0.3454  0.0896
  358SOL    HW2 1477   3.928   4.100   4.080 -1.5352  0.5169  0.9766
  358SOL    HW3 1478   3.964   4.197   3.969  0.7986 -0.8233  0.5498
  358SOL    MW4 1479   3.930   4.181   4.048 -0.3428  0.2141  0.2675
  359SOL     OW 1480   0.811   3.404   0.954  0.0623  0.1762  0.3276
  359SOL    HW2 1481   0.789   3.496   0.968 -0.7733  0.1044 -0.5220
  359SOL    HW3 1482   0.905   3.405   0.938  0.0091  0.9209  0.0189
  359SOL    MW4 1483   0.821   3.416   0.954 -0.0550  0.2651  0.1748
  360SOL     OW 1484   3.976   2.401   2.496  0.1127 -0.0829  0.2164
  360SOL    HW2 1485   4.015   2.395   2.409 -1.3057 -1.1724 -0.3574
  360SOL    HW3 1486   3.902   2.460   2.485 -0.8170 -1.1947  0.3892
  360SOL    MW4 1487   3.971   2.408   2.483 -0.1969 -0.3734  0.1633
  361SOL     OW 1488   4.099   1.419   2.435  0.3200 -0.5180 -0.3254
  361SOL    HW2 1489   4.079   1.331   2.467  0.3248 -0.4003  0.0095
  361SOL    HW3 1490   4.166   1.406   2.369  1.9654 -0.5737  1.3135
  361SOL    MW4 1491   4.105   1.405   2.431  0.5374 -0.5099 -0.0651
  362SOL     OW 1492   2.171   0.558   2.479  0.2345  0.2350 -0.1527
  362SOL    HW2 1493   2.117   0.621   2.527  1.9827  1.5739  0.0900
  362SOL    HW3 1494   2.204   0.607   2.403  0.8765 -0.6545 -0.4606
  362SOL    MW4 1495   2.168   0.572   2.475  0.5498  0.2944 -0.1612
  363SOL     OW 1496   3.121   2.905   2.834 -0.5242  0.6448  0.1528
  363SOL    HW2 1497   3.117   2.998   2.856 -1.9285  0.3727  1.0666
  363SOL    HW3 1498   3.095   2.901   2.742  0.0502  1.1976 -0.0422
  363SOL    MW4 1499   3.117   2.917   2.825 -0.6337  0.6819  0.2475
  364SOL     OW 1500   3.491   4.159   3.803  0.0880  0.0459 -0.0948
  364SOL    HW2 1501   3.487   4.188   3.894  0.8309  0.5172 -0.2140
  364SOL    HW3 1502   3.515   4.237   3.754  1.2313 -0.5640 -0.5126
  364SOL    MW4 1503   3.494   4.173   3.809  0.3366  0.0272 -0.1657
  365SOL     OW 1504   3.861   4.190   0.792  0.8987 -0.0348  0.3411
  365SOL    HW2 1505   3.933   4.147   0.837  1.4134  0.5908  0.1360
  365SOL    HW3 1506   3.784   4.174   0.846  1.1707 -0.8169  0.4949
  365SOL    MW4 1507   3.860   4.183   0.805  1.0023 -0.0558  0.3343
  366SOL     OW 1508   1.898   1.298   1.251 -0.0805 -0.0319 -0.4678
  366SOL    HW2 1509   1.949   1.240   1.195 -0.5584  0.1865 -1.1468
  366SOL    HW3 1510   1.807   1.284   1.223 -0.3008  0.2626  0.0872
  366SOL    MW4 1511   1.893   1.289   1.240 -0.1725  0.0358 -0.4842
  367SOL     OW 1512   2.043   1.437   0.279  0.6167  0.2339  0.1405
  367SOL    HW2 1513   1.993   1.512   0.247  2.6522  1.2229 -0.8815
  367SOL    HW3 1514   2.064   1.460   0.370  0.5647  0.5442  0.0769
  367SOL    MW4 1515   2.039   1.450   0.287  0.8786  0.4053 -0.0027
  368SOL     OW 1516   4.021   0.479   4.110  0.1870 -0.0742  0.3237
  368SOL    HW2 1517   4.015   0.571   4.086  0.3411  0.0389  0.7015
  368SOL    HW3 1518   4.111   0.468   4.140 -0.1338 -0.0767  1.3313
  368SOL    MW4 1519   4.032   0.490   4.111  0.1650 -0.0596  0.5064
  369SOL     OW 1520   3.138   0.632   2.978  0.5155 -0.9954 -0.2484
  369SOL    HW2 1521   3.086   0.604   2.903 -0.9088  0.7457  0.0535
  369SOL    HW3 1522   3.154   0.552   3.028 -2.2156 -1.5328 -0.1511
  369SOL    MW4 1523   3.133   0.617   2.975 -0.0329 -0.8365 -0.1957
  370SOL     OW 1524   2.075   4.663   3.346  0.4274  0.2146 -0.7643
  370SOL    HW2 1525   2.105   4.598   3.283  1.1301  0.7144 -0.9493
  370SOL    HW3 1526   2.057   4.741   3.293  0.9104  0.5999 -0.3690
  370SOL    MW4 1527   2.076   4.665   3.331  0.5836  0.3314 -0.7365
  371SOL     OW 1528   3.776   3.329   2.666 -0.1828  0.1297 -0.2465
  371SOL    HW2 1529   3.800   3.316   2.757  0.7838 -0.4419 -0.5735
  371SOL    HW3 1530   3.697   3.383   2.669  0.1626  0.5836  0.9100
  371SOL    MW4 1531   3.769   3.335   2.678 -0.0098  0.1140 -0.1371
  372SOL     OW 1532   1.363   4.076   1.176 -0.3798 -0.0915 -0.0721
  372SOL    HW2 1533   1.335   4.167   1.172  0.3607  0.0683 -1.9256
  372SOL    HW3 1534   1.453   4.077   1.145 -0.6291 -1.5683 -0.8941
  372SOL    MW4 1535   1.371   4.088   1.171 -0.3150 -0.2656 -0.4251
  373SOL     OW 1536   3.193   0.164   0.939 -0.1280  0.0789  0.5614
  373SOL    HW2 1537   3.185   0.259   0.954 -0.7733 -0.1427  1.6837
  373SOL    HW3 1538   3.168   0.152   0.847 -2.0944  0.7578  0.9793
  373SOL    MW4 1539   3.189   0.175   0.929 -0.4723  0.1393  0.7646
  374SOL     OW 1540   4.244   0.859   2.618 -0.1359 -0.1035  0.4168
  374SOL    HW2 1541   4.253   0.945   2.575  0.1743 -0.2413  0.2059
  374SOL    HW3 1542   4.276   0.874   2.707  0.7822 -0.2194  0.1130
  374SOL    MW4 1543   4.249   0.873   2.624  0.0262 -0.1369  0.3488
  375SOL     OW 1544   4.060   1.960   0.139 -0.1040  0.2039  0.1306
  375SOL    HW2 1545   4.048   2.053   0.156  1.2139  0.5131 -0.5466
  375SOL    HW3 1546   3.971   1.926   0.128 -0.5232  2.0115 -2.7257
  375SOL    MW4 1547   4.047   1.968   0.140  0.0148  0.4832 -0.3356
  376SOL     OW 1548   4.384   1.735   1.351 -0.1378 -0.2214 -0.3354
  376SOL    HW2 1549   4.294   1.765   1.335 -0.0042  0.4682  0.1752
  376SOL    HW3 1550   4.439   1.808   1.321  0.2925 -1.0759 -1.6352
  376SOL    MW4 1551   4.379   1.749   1.345 -0.0634 -0.2433 -0.4395
  377SOL     OW 1552   3.552   2.561   2.266  0.2914 -0.4413  0.3165
  377SOL    HW2 1553   3.534   2.473   2.298  0.6402 -0.3308  0.8253
  377SOL    HW3 1554   3.510   2.565   2.179 -2.5203 -0.0463  1.6283
  377SOL    MW4 1555   3.544   2.550   2.259 -0.0336 -0.3746  0.5567
  378SOL     OW 1556   3.281   0.813   3.338 -0.2737 -0.2824  0.4552
  378SOL    HW2 1557   3.307   0.721   3.340  0.7454 -0.0523 -1.0736
  378SOL    HW3 1558   3.283   0.836   3.245 -1.3830  1.0480  0.7453
  378SOL    MW4 1559   3.284   0.804   3.326 -0.2856 -0.0766  0.2918
  379SOL     OW 1560   2.398   2.237   1.933 -0.5131  0.1501 -0.6223
  379SOL    HW2 1561   2.463   2.301   1.903  1.6796 -1.7783 -0.0935
  379SOL    HW3 1562   2.393   2.252   2.028 -1.7478  1.0909 -0.8254
  379SOL    MW4 1563   2.406   2.248   1.942 -0.3867  0.0198 -0.5794
  380SOL     OW 1564   3.876   3.935   3.558 -0.5393 -0.6363  0.2098
  380SOL    HW2 1565   3.946   3.925   3.622 -0.1013 -0.6150 -0.2615
  380SOL    HW3 1566   3.796   3.938   3.610 -0.1582 -0.2390  0.7783
  380SOL    MW4 1567   3.874   3.934   3.573 -0.4311 -0.5810  0.2227
  381SOL     OW 1568   4.260   1.090   2.463 -0.7590 -0.0817  0.1904
  381SOL    HW2 1569   4.323   1.150   2.502 -2.8332  3.0471 -1.0457
  381SOL    HW3 1570   4.297   1.068   2.377  1.2067 -2.6543  1.6448
  381SOL    MW4 1571   4.273   1.095   2.457 -0.7730 -0.0083  0.2196
  382SOL     OW 1572   0.927   4.024   3.598 -0.2919  0.1649 -0.2296
  382SOL    HW2 1573   1.023   4.034   3.596 -0.3051  0.1279 -1.2800
  382SOL    HW3 1574   0.902   4.019   3.506 -1.1823 -1.0767  0.0713
  382SOL    MW4 1575   0.937   4.025   3.586 -0.4112 -0.0033 -0.3285
  383SOL     OW 1576   0.500   3.313   1.147 -0.3904  0.2706 -0.6599
  383SOL    HW2 1577   0.489   3.344   1.057 -1.3724  0.6864 -0.4078
  383SOL    HW3 1578   0.536   3.225   1.138 -2.8491 -0.6937 -1.5388
  383SOL    MW4 1579   0.504   3.306   1.134 -0.8444  0.1984 -0.7427
  384SOL     OW 1580   1.168   0.992   1.699 -0.0386  0.3487 -0.1189
  384SOL    HW2 1581   1.183   1.086   1.685 -0.9325  0.5476  0.2095
  384SOL    HW3 1582   1.095   0.971   1.642 -1.0136  0.2536  1.1361
  384SOL    MW4 1583   1.160   1.002   1.690 -0.2851  0.3624  0.0900
  385SOL     OW 1584   3.874   0.701   0.951 -1.2712  0.5022  0.1824
  385SOL    HW2 1585   3.829   0.670   0.873 -1.3592  1.4340 -0.1518
  385SOL    HW3 1586   3.906   0.788   0.927  0.1849  0.1038  0.6197
  385SOL    MW4 1587   3.872   0.709   0.938 -1.0908  0.5725  0.1959
  386SOL     OW 1588   2.171   2.893   1.094  0.4108 -0.5277  0.1714
  386SOL    HW2 1589   2.126   2.809   1.078  0.9452 -1.0958  1.5488
  386SOL    HW3 1590   2.100   2.955   1.112 -0.0833 -0.3207 -2.2840
  386SOL    MW4 1591   2.156   2.890   1.094  0.4163 -0.5753  0.0292
  387SOL     OW 1592   1.154   4.516   3.446  0.2660  0.1905 -0.1244
  387SOL    HW2 1593   1.073   4.545   3.488  0.3820  0.3687 -0.0229
  387SOL    HW3 1594   1.218   4.583   3.469  0.5966 -0.2832  0.3222
  387SOL    MW4 1595   1.151   4.529   3.454  0.3248  0.1521 -0.0520
  388SOL     OW 1596   3.513   3.903   1.031 -0.2794  0.0016 -0.1663
  388SOL    HW2 1597   3.425   3.874   1.006  0.3062 -0.3192 -1.9428
  388SOL    HW3 1598   3.519   3.884   1.124 -2.6110  1.3822  0.2933
  388SOL    MW4 1599   3.503   3.897   1.040 -0.5097  0.1416 -0.3401
  389SOL     OW 1600   4.239   3.135   0.654 -0.1621  0.1201  0.0719
  389SOL    HW2 1601   4.173   3.089   0.602 -0.8455  1.1143  0.0254
  389SOL    HW3 1602   4.210   3.227   0.652  0.7016  0.4132  0.8510
  389SOL    MW4 1603   4.226   3.141   0.647 -0.1378  0.2899  0.1685
  390SOL     OW 1604   4.380   4.210   1.388 -0.3964  0.3899 -0.1174
  390SOL    HW2 1605   4.341   4.150   1.324  0.6314  0.6114 -0.9726
  390SOL    HW3 1606   4.400   4.154   1.464 -2.5972  0.3387  0.4414
  390SOL    MW4 1607   4.378   4.195   1.390 -0.5507  0.4125 -0.1565
  391SOL     OW 1608   0.406   1.373   1.895  0.4825  0.8615 -0.6152
  391SOL    HW2 1609   0.355   1.430   1.953  2.0800  0.8520  0.8465
  391SOL    HW3 1610   0.349   1.297   1.880  0.4877  0.2795  1.9994
  391SOL    MW4 1611   0.392   1.370   1.901  0.6939  0.7834 -0.0774
  392SOL     OW 1612   2.740   1.694   3.685 -0.2085  0.8208  0.0731
  392SOL    HW2 1613   2.689   1.766   3.724 -1.8065 -0.1196 -0.2064
  392SOL    HW3 1614   2.696   1.676   3.602 -0.9491 -1.6457  0.9424
  392SOL    MW4 1615   2.727   1.701   3.680 -0.5171  0.3712  0.1509
  393SOL     OW 1616   2.714   2.274   1.855 -0.5538  0.0423 -0.3526
  393SOL    HW2 1617   2.669   2.268   1.770  0.9445  0.2274 -1.1633
  393SOL    HW3 1618   2.753   2.187   1.867 -0.6932  0.0436  0.1139
  393SOL    MW4 1619   2.713   2.262   1.845 -0.3746  0.0670 -0.3980
  394SOL     OW 1620   3.959   0.355   1.521  0.0005 -0.3006  0.4560
  394SOL    HW2 1621   3.867   0.360   1.549  0.4848  1.4652  1.8785
  394SOL    HW3 1622   4.006   0.405   1.588  1.9170 -0.6781 -0.5964
  394SOL    MW4 1623   3.953   0.362   1.534  0.3176 -0.1175  0.5049
  395SOL     OW 1624   3.866   2.044   1.977 -0.3920 -0.2288  0.0215
  395SOL    HW2 1625   3.916   2.067   2.056  0.5733 -0.1775 -0.5845
  395SOL    HW3 1626   3.891   2.112   1.914 -0.0116 -1.1072 -0.7839
  395SOL    MW4 1627   3.876   2.056   1.979 -0.2146 -0.3378 -0.1646
  396SOL     OW 1628   3.198   0.756   0.210  0.6262 -0.1711  0.0048
  396SOL    HW2 1629   3.266   0.690   0.197  0.9988  0.3777 -0.8467
  396SOL    HW3 1630   3.118   0.705   0.226  0.6751 -0.8562 -1.8175
  396SOL    MW4 1631   3.196   0.741   0.210  0.6819 -0.1891 -0.3480
  397SOL     OW 1632   2.630   1.919   2.383 -0.2771 -0.2272 -0.0628
  397SOL    HW2 1633   2.578   1.927   2.303  0.5524 -0.3468 -0.6254
  397SOL    HW3 1634   2.625   2.006   2.424 -1.3873 -0.4035  0.1881
  397SOL    MW4 1635   2.623   1.932   2.378 -0.3140 -0.2662 -0.1042
  398SOL     OW 1636   4.299   4.123   0.208 -0.0623  0.3662  0.1164
  398SOL    HW2 1637   4.222   4.154   0.255  0.6140  0.0391  1.4674
  398SOL    HW3 1638   4.341   4.202   0.175 -1.3896  0.5007 -1.3200
  398SOL    MW4 1639   4.295   4.138   0.210 -0.1483  0.3405  0.1051
  399SOL     OW 1640   3.918   3.678   3.429 -0.4992 -0.1450 -0.3552
  399SOL    HW2 1641   3.882   3.759   3.465  1.3582 -0.3583  2.1230
  399SOL    HW3 1642   3.847   3.641   3.378 -2.6170  1.1671  1.5487
  399SOL    MW4 1643   3.904   3.684   3.427 -0.5336  0.0000  0.2227
  400SOL     OW 1644   3.729   4.598   0.941 -0.0710 -0.1522 -0.1470
  400SOL    HW2 1645   3.796   4.574   1.005 -0.7535 -1.1532  0.1994
  400SOL    HW3 1646   3.652   4.547   0.965 -0.2961 -0.6772 -1.8610
  400SOL    MW4 1647   3.728   4.588   0.952 -0.1910 -0.3538 -0.3274
  401SOL     OW 1648   1.772   3.673   3.979 -0.5186  0.3606  0.6770
  401SOL    HW2 1649   1.861   3.680   3.945  0.2687 -1.0164  2.3521
  401SOL    HW3 1650   1.750   3.761   4.009 -0.0214  0.8711 -0.4314
  401SOL    MW4 1651   1.781   3.685   3.979 -0.3490  0.2465  0.7517
  402SOL     OW 1652   1.273   1.378   0.946 -0.2079 -0.4412  0.1832
  402SOL    HW2 1653   1.199   1.416   0.992 -0.5456 -0.9845  0.0936
  402SOL    HW3 1654   1.288   1.436   0.872 -2.5649 -2.0261 -1.6088
  402SOL    MW4 1655   1.266   1.391   0.942 -0.5636 -0.7219 -0.0650
  403SOL     OW 1656   4.232   1.111   1.445  0.1193  0.0079 -0.1603
  403SOL    HW2 1657   4.320   1.075   1.433  0.4352  0.3994  0.9276
  403SOL    HW3 1658   4.216   1.164   1.367  1.4756  1.2002  0.3461
  403SOL    MW4 1659   4.241   1.113   1.433  0.3395  0.2168  0.0501
  404SOL     OW 1660   0.847   0.770   2.857  0.4763 -0.4450  0.4895
  404SOL    HW2 1661   0.804   0.748   2.774  2.1809 -0.2545 -0.4661
  404SOL    HW3 1662   0.790   0.836   2.897  0.1515  0.2048 -1.0083
  404SOL    MW4 1663   0.833   0.776   2.851  0.6584 -0.3341  0.1657
  405SOL     OW 1664   3.889   3.483   1.291 -0.2878 -0.0031 -0.0454
  405SOL    HW2 1665   3.873   3.479   1.386 -0.9719 -0.7712 -0.1814
  405SOL    HW3 1666   3.804   3.462   1.252  0.1331 -0.2760 -0.8255
  405SOL    MW4 1667   3.876   3.480   1.298 -0.3223 -0.1404 -0.1663
  406SOL     OW 1668   4.465   3.779   0.576 -0.1602  0.2203 -0.2699
  406SOL    HW2 1669   4.440   3.767   0.668  0.0895 -0.5665 -0.3018
  406SOL    HW3 1670   4.417   3.857   0.548  0.2417  0.8289  0.7086
  406SOL    MW4 1671   4.455   3.788   0.584 -0.0739  0.1967 -0.1451
  407SOL     OW 1672   1.300   4.394   0.961  0.6614 -0.0510 -0.0082
  407SOL    HW2 1673   1.352   4.392   0.881 -0.6656  0.1026 -0.8955
  407SOL    HW3 1674   1.363   4.385   1.031  1.8284 -0.3805 -1.0883
  407SOL    MW4 1675   1.315   4.393   0.959  0.6403 -0.0744 -0.2677
  408SOL     OW 1676   0.159   3.202   1.916  0.5673 -0.0729  0.2485
  408SOL    HW2 1677   0.172   3.296   1.927  0.6447 -0.3163  2.3573
  408SOL    HW3 1678   0.104   3.195   1.838  2.0743  1.6126 -1.0051
  408SOL    MW4 1679   0.153   3.213   1.907  0.7763  0.1173  0.3612
  409SOL     OW 1680   4.366   0.638   2.462 -0.1270 -0.1404  0.1335
  409SOL    HW2 1681   4.445   0.627   2.515  0.0733  0.9285  0.0618
  409SOL    HW3 1682   4.314   0.703   2.509  0.1674  0.9978 -1.1072
  409SOL    MW4 1683   4.370   0.645   2.475 -0.0620  0.1508 -0.0393
  410SOL     OW 1684   3.236   1.268   4.154 -0.0335 -0.3962 -0.3590
  410SOL    HW2 1685   3.245   1.172   4.157 -0.1683 -0.3694  1.3361
  410SOL    HW3 1686   3.155   1.286   4.201  0.5375  0.6349  0.2313
  410SOL    MW4 1687   3.227   1.258   4.160  0.0241 -0.2567 -0.0572
  411SOL     OW 1688   2.736   3.125   1.158  0.4826  0.3355 -0.4946
  411SOL    HW2 1689   2.765   3.158   1.243 -1.5188 -2.9998  1.6382
  411SOL    HW3 1690   2.640   3.129   1.162  0.2371 -2.9844 -1.1798
  411SOL    MW4 1691   2.727   3.130   1.170  0.1860 -0.5426 -0.3036
  412SOL     OW 1692   0.745   3.469   0.501 -0.2238 -0.0267  0.0184
  412SOL    HW2 1693   0.668   3.524   0.485  0.6624  1.2551  0.1557
  412SOL    HW3 1694   0.816   3.530   0.518  0.5396 -1.2313  1.2629
  412SOL    MW4 1695   0.744   3.484   0.501 -0.0061 -0.0167  0.2007
  413SOL     OW 1696   3.994   3.424   0.271 -0.9463  0.3999 -0.0961
  413SOL    HW2 1697   4.060   3.476   0.317  0.0551 -2.0556  1.3404
  413SOL    HW3 1698   4.043   3.377   0.204 -1.2950 -0.9594  0.5778
  413SOL    MW4 1699   4.009   3.425   0.268 -0.8602 -0.1035  0.1823
  414SOL     OW 1700   1.078   4.547   4.229 -0.9407 -0.0752  0.3250
  414SOL    HW2 1701   1.171   4.568   4.241 -0.5751 -1.3459 -0.1987
  414SOL    HW3 1702   1.051   4.597   4.152 -0.5841 -0.0168  0.2389
  414SOL    MW4 1703   1.087   4.557   4.221 -0.8454 -0.2356  0.2446
  415SOL     OW 1704   3.752   3.577   3.228 -0.3243  0.1035  0.5554
  415SOL    HW2 1705   3.718   3.498   3.271  1.8637 -0.5802  1.0833
  415SOL    HW3 1706   3.829   3.547   3.180  0.9772  2.0457  1.3763
  415SOL    MW4 1707   3.758   3.562   3.227  0.1359  0.2697  0.7334
  416SOL     OW 1708   1.962   3.708   1.366 -0.3479  0.4111 -0.3734
  416SOL    HW2 1709   1.894   3.738   1.426  0.5131 -0.7180  1.1952
  416SOL    HW3 1710   1.975   3.781   1.305 -1.5797  1.3687  0.5105
  416SOL    MW4 1711   1.955   3.721   1.366 -0.3968  0.3886 -0.0499
  417SOL     OW 1712   1.293   2.639   2.988  0.3712 -0.1183 -0.0571
  417SOL    HW2 1713   1.233   2.565   2.984  0.3463 -0.0425 -1.1892
  417SOL    HW3 1714   1.256   2.703   2.927  1.1368  0.2777 -0.1127
  417SOL    MW4 1715   1.280   2.638   2.979  0.4690 -0.0558 -0.2141
  418SOL     OW 1716   0.278   3.810   0.505  0.4722  0.4111 -0.0137
  418SOL    HW2 1717   0.275   3.904   0.523  0.1787  0.4100 -0.0598
  418SOL    HW3 1718   0.186   3.784   0.498  0.5658  0.2351 -0.5997
  418SOL    MW4 1719   0.266   3.819   0.507  0.4458  0.3879 -0.0971
  419SOL     OW 1720   0.254   3.333   2.220 -0.2617  0.0608 -0.2474
  419SOL    HW2 1721   0.225   3.258   2.272 -1.1791  0.0563 -0.7591
  419SOL    HW3 1722   0.174   3.382   2.202  0.1721  0.5153 -0.9495
  419SOL    MW4 1723   0.240   3.330   2.225 -0.3255  0.1204 -0.4077
  420SOL     OW 1724   1.486   3.647   1.018  0.5050  0.0493  0.3494
  420SOL    HW2 1725   1.521   3.733   1.040  0.8508 -0.3566  1.4105
  420SOL    HW3 1726   1.524   3.588   1.083  1.4163 -1.1475 -1.2308
  420SOL    MW4 1727   1.496   3.650   1.029  0.6709 -0.1621  0.2809
  421SOL     OW 1728   1.335   1.103   3.487 -0.2046 -0.0718 -0.2100
  421SOL    HW2 1729   1.399   1.171   3.507 -1.0729  0.3111  1.4020
  421SOL    HW3 1730   1.323   1.107   3.392  2.4188 -0.4124 -0.5705
  421SOL    MW4 1731   1.342   1.112   3.477  0.0271 -0.0663 -0.0451
  422SOL     OW 1732   0.039   3.104   3.211  0.2294 -0.4585 -0.0380
  422SOL    HW2 1733  -0.044   3.107   3.165  0.8094  0.0488 -1.0804
  422SOL    HW3 1734   0.016   3.106   3.303 -0.8668  1.2337 -0.3255
  422SOL    MW4 1735   0.025   3.105   3.217  0.1613 -0.1681 -0.2134
  423SOL     OW 1736   0.977   0.863   3.922 -0.2065  0.1799  0.3902
  423SOL    HW2 1737   0.949   0.771   3.917  0.7429 -0.1154  0.3647
  423SOL    HW3 1738   0.961   0.898   3.834  0.4395 -0.2674  0.0879
  423SOL    MW4 1739   0.971   0.855   3.910  0.0039  0.0819  0.3471
  424SOL     OW 1740   0.575   0.533   0.462 -0.4883  0.2681  0.2329
  424SOL    HW2 1741   0.637   0.571   0.399 -1.6965 -0.0809 -1.1976
  424SOL    HW3 1742   0.596   0.576   0.545  0.6915  1.2351 -0.5470
  424SOL    MW4 1743   0.586   0.544   0.465 -0.4920  0.3496 -0.0587
  425SOL     OW 1744   0.708   0.483   3.070 -0.9987  0.3207  0.0917
  425SOL    HW2 1745   0.763   0.444   3.138  0.3922  0.0734 -1.1554
  425SOL    HW3 1746   0.698   0.574   3.096  1.3985  0.7881 -0.5251
  425SOL    MW4 1747   0.714   0.490   3.082 -0.4990  0.3498 -0.1545
  426SOL     OW 1748   4.405   0.680   1.169 -0.1092  0.2066 -0.3007
  426SOL    HW2 1749   4.455   0.714   1.243  0.3804 -1.7454  0.2879
  426SOL    HW3 1750   4.370   0.758   1.126  1.5222  1.4772  0.6223
  426SOL    MW4 1751   4.407   0.694   1.173  0.1707  0.1167 -0.1013
  427SOL     OW 1752   0.084   0.772   2.008 -0.1515 -0.0704  0.3689
  427SOL    HW2 1753   0.007   0.747   2.058  0.0572 -2.2765 -0.3664
  427SOL    HW3 1754   0.057   0.850   1.959 -1.7869 -0.5941  0.4068
  427SOL    MW4 1755   0.071   0.779   2.008 -0.3398 -0.4305  0.2768
  428SOL     OW 1756   3.925   4.204   3.620  0.8631  0.1045 -0.4136
  428SOL    HW2 1757   3.899   4.118   3.588  1.0974  0.1086 -0.6178
  428SOL    HW3 1758   3.997   4.230   3.563  1.1331  0.2107 -0.0264
  428SOL    MW4 1759   3.931   4.196   3.608  0.9296  0.1187 -0.3893
  429SOL     OW 1760   1.225   0.660   0.845  0.0650 -0.0707  0.2251
  429SOL    HW2 1761   1.246   0.736   0.900 -0.4168 -0.5504  1.0747
  429SOL    HW3 1762   1.130   0.655   0.844  0.1032 -1.2271  0.9636
  429SOL    MW4 1763   1.216   0.669   0.852  0.0064 -0.2866  0.4346
  430SOL     OW 1764   0.364   1.213   3.762  0.0439 -0.0272  0.4664
  430SOL    HW2 1765   0.329   1.244   3.845 -1.0631 -0.0440  0.0171
  430SOL    HW3 1766   0.415   1.135   3.784 -1.3508 -0.8089  0.9729
  430SOL    MW4 1767   0.366   1.207   3.776 -0.2862 -0.1326  0.4740
  431SOL     OW 1768   2.386   2.420   3.173  0.7276  0.1244 -0.4856
  431SOL    HW2 1769   2.452   2.418   3.104  0.0453 -0.8804 -1.1250
  431SOL    HW3 1770   2.303   2.407   3.127  0.0463  1.5850  0.2833
  431SOL    MW4 1771   2.383   2.418   3.158  0.5476  0.1843 -0.4687
  432SOL     OW 1772   0.553   2.426   1.745 -0.4139 -0.0183  0.0293
  432SOL    HW2 1773   0.486   2.473   1.695  0.6334  1.0156 -0.4435
  432SOL    HW3 1774   0.636   2.460   1.710  0.3300 -0.0516  1.7534
  432SOL    MW4 1775   0.555   2.437   1.733 -0.1776  0.1137  0.1944
  433SOL     OW 1776   2.114   4.347   2.623 -0.4662  0.3456  0.0080
  433SOL    HW2 1777   2.088   4.331   2.714  0.5261  1.0351  0.4146
  433SOL    HW3 1778   2.191   4.292   2.609  0.6754  1.8391  0.2558
  433SOL    MW4 1779   2.121   4.338   2.633 -0.1845  0.6328  0.0944
  434SOL     OW 1780   1.478   3.204   2.794 -0.8851 -0.3186  0.4637
  434SOL    HW2 1781   1.460   3.150   2.871  1.2345 -1.6586  0.0828
  434SOL    HW3 1782   1.514   3.285   2.830 -0.9592 -0.4975  0.9421
  434SOL    MW4 1783   1.481   3.208   2.809 -0.6152 -0.5193  0.4766
  435SOL     OW 1784   1.761   0.892   1.830 -0.3184 -0.1487 -0.4181
  435SOL    HW2 1785   1.826   0.955   1.862  0.9978 -1.0130 -1.3299
  435SOL    HW3 1786   1.691   0.895   1.895 -0.6861  2.8609 -0.8643
  435SOL    MW4 1787   1.761   0.901   1.843 -0.1932  0.1344 -0.5972
  436SOL     OW 1788   1.052   0.187   2.523 -0.3928 -0.5267  0.2997
  436SOL    HW2 1789   0.982   0.251   2.519  0.6311  0.5971  0.0617
  436SOL    HW3 1790   1.049   0.143   2.438  0.3859  0.8265 -0.4456
  436SOL    MW4 1791   1.043   0.189   2.511 -0.1550 -0.1999  0.1698
  437SOL     OW 1792   0.561   0.332   0.702 -0.0815 -0.4179 -0.2782
  437SOL    HW2 1793   0.506   0.388   0.757  1.1069 -0.0243  0.5324
  437SOL    HW3 1794   0.563   0.377   0.617 -1.2145 -0.5848 -0.4122
  437SOL    MW4 1795   0.554   0.345   0.698 -0.0742 -0.3880 -0.1888
  438SOL     OW 1796   3.677   3.474   1.090  0.0547 -0.6041  0.0372
  438SOL    HW2 1797   3.721   3.419   1.025 -0.2817 -1.4706  0.5374
  438SOL    HW3 1798   3.685   3.563   1.055 -1.0948 -1.1696 -1.7458
  438SOL    MW4 1799   3.684   3.478   1.077 -0.1414 -0.7930 -0.1321
  439SOL     OW 1800   0.483   4.112   0.301  0.2727 -0.1284 -0.6397
  439SOL    HW2 1801   0.571   4.126   0.265  0.2208  0.3274 -0.5953
  439SOL    HW3 1802   0.458   4.025   0.269  0.4990 -0.0145 -1.1460
  439SOL    MW4 1803   0.492   4.102   0.292  0.2957 -0.0534 -0.7006
  440SOL     OW 1804   2.144   3.577   1.527 -0.3032 -0.1582 -0.0810
  440SOL    HW2 1805   2.103   3.625   1.455 -1.5238  0.5306  1.0681
  440SOL    HW3 1806   2.224   3.626   1.546 -0.2698 -0.0185 -0.5733
  440SOL    MW4 1807   2.149   3.590   1.520 -0.4601 -0.0489  0.0057
  441SOL     OW 1808   0.417   3.021   1.562 -0.5427  0.0566 -0.1535
  441SOL    HW2 1809   0.448   2.977   1.482  1.5768  1.6336 -0.2648
  441SOL    HW3 1810   0.446   2.964   1.633  2.2126  1.2032 -0.2941
  441SOL    MW4 1811   0.425   3.008   1.560  0.1005  0.4158 -0.1868
  442SOL     OW 1812   0.635   3.376   2.999  0.0114  0.4872 -0.1525
  442SOL    HW2 1813   0.571   3.381   3.070  0.0899  0.4066 -0.0751
  442SOL    HW3 1814   0.719   3.363   3.044 -0.1336 -1.0919 -0.3097
  442SOL    MW4 1815   0.637   3.375   3.014  0.0026  0.2682 -0.1628
  443SOL     OW 1816   2.495   1.495   1.675 -0.3828  0.2191 -0.2805
  443SOL    HW2 1817   2.534   1.472   1.759  0.2793  1.5108 -0.2189
  443SOL    HW3 1818   2.470   1.411   1.636  0.1971 -0.4500  0.7733
  443SOL    MW4 1819   2.497   1.481   1.681 -0.2186  0.3011 -0.1335
  444SOL     OW 1820   4.353   2.817   0.338 -0.5985 -0.0892 -0.4713
  444SOL    HW2 1821   4.316   2.795   0.424 -0.8244 -0.4453 -0.6553
  444SOL    HW3 1822   4.320   2.905   0.319  0.4521  0.4914  0.3516
  444SOL    MW4 1823   4.344   2.826   0.347 -0.4892 -0.0594 -0.3870
  445SOL     OW 1824   2.642   3.559   1.218  0.2342 -0.2249 -0.2844
  445SOL    HW2 1825   2.607   3.509   1.144  1.0055 -0.2343 -0.6485
  445SOL    HW3 1826   2.587   3.534   1.292 -0.8839  0.1904 -0.9709
  445SOL    MW4 1827   2.630   3.549   1.218  0.1884 -0.1712 -0.4231
  446SOL     OW 1828   3.012   3.397   0.845 -0.1169 -0.1646 -0.3658
  446SOL    HW2 1829   3.047   3.361   0.764  0.8358 -1.0080  0.4079
  446SOL    HW3 1830   2.985   3.321   0.896 -0.5065  0.3455  0.2040
  446SOL    MW4 1831   3.013   3.382   0.841 -0.0424 -0.2089 -0.1886
  447SOL     OW 1832   1.978   0.710   3.655 -0.4090  0.0943 -0.5627
  447SOL    HW2 1833   1.944   0.771   3.589  0.0576  1.3334  0.3088
  447SOL    HW3 1834   2.073   0.712   3.642 -0.3003  0.5058  0.2682
  447SOL    MW4 1835   1.986   0.719   3.644 -0.3331  0.3121 -0.3383
  448SOL     OW 1836   1.338   0.181   4.021  0.2477  0.1174 -0.3887
  448SOL    HW2 1837   1.293   0.245   4.077 -0.4961 -0.1568 -0.6832
  448SOL    HW3 1838   1.306   0.199   3.933 -1.5378 -2.0163 -0.2116
  448SOL    MW4 1839   1.328   0.192   4.017 -0.0862 -0.2003 -0.4039
  449SOL     OW 1840   0.570   2.995   4.079  0.1535 -0.1549  0.3862
  449SOL    HW2 1841   0.603   2.916   4.036  0.9788  1.1595 -1.5337
  449SOL    HW3 1842   0.633   3.063   4.053 -0.9178  1.2523  1.4224
  449SOL    MW4 1843   0.583   2.994   4.070  0.1211  0.2041  0.2694
  450SOL     OW 1844   0.603   0.559   3.604  0.2126 -0.0890 -0.1972
  450SOL    HW2 1845   0.623   0.471   3.573 -1.0066 -0.4410 -0.0144
  450SOL    HW3 1846   0.574   0.606   3.526  0.0372 -0.1022 -0.1404
  450SOL    MW4 1847   0.602   0.554   3.590  0.0286 -0.1372 -0.1655
  451SOL     OW 1848   2.915   1.646   2.769  0.2485  0.1577 -0.2368
  451SOL    HW2 1849   2.928   1.684   2.683  1.8930  2.8097  1.1135
  451SOL    HW3 1850   2.835   1.686   2.802 -0.9446 -1.6173 -0.8809
  451SOL    MW4 1851   2.906   1.656   2.762  0.3080  0.2735 -0.1438
  452SOL     OW 1852   2.063   3.275   4.088 -0.7488  0.5356 -0.5379
  452SOL    HW2 1853   2.144   3.224   4.086  0.2071  2.0283 -0.7684
  452SOL    HW3 1854   2.029   3.264   4.177 -0.4061 -0.2679 -0.5069
  452SOL    MW4 1855   2.069   3.267   4.100 -0.5774  0.6266 -0.5641
  453SOL     OW 1856   0.930   1.695   0.990  0.0764 -0.0672  0.4788
  453SOL    HW2 1857   0.836   1.678   0.984 -0.2321  1.1799  1.6016
  453SOL    HW3 1858   0.948   1.756   0.918  0.2678 -1.3122 -0.5281
  453SOL    MW4 1859   0.920   1.701   0.980  0.0610 -0.0669  0.4941
  454SOL     OW 1860   0.922   0.503   3.601  0.1458 -0.1429 -0.2475
  454SOL    HW2 1861   0.996   0.544   3.646  0.6470  0.8007 -1.8546
  454SOL    HW3 1862   0.844   0.544   3.639  0.5880  1.2318 -0.7730
  454SOL    MW4 1863   0.922   0.514   3.612  0.2703  0.1630 -0.5291
  455SOL     OW 1864   1.602   2.501   3.120 -0.1619 -0.1197 -0.3320
  455SOL    HW2 1865   1.682   2.552   3.109  0.2340 -0.5011  0.7118
  455SOL    HW3 1866   1.583   2.467   3.033 -0.0338  1.2115 -0.8910
  455SOL    MW4 1867   1.610   2.503   3.107 -0.0929  0.0057 -0.2682
  456SOL     OW 1868   3.992   0.542   1.304  0.7455  0.2765 -0.0105
  456SOL    HW2 1869   3.926   0.508   1.243  1.6796  0.5490 -1.1878
  456SOL    HW3 1870   3.987   0.482   1.379  2.2473 -2.4377 -1.9789
  456SOL    MW4 1871   3.982   0.530   1.306  1.0667 -0.0457 -0.4255
  457SOL     OW 1872   2.467   4.619   4.058 -0.1202  0.1145  0.7017
  457SOL    HW2 1873   2.556   4.645   4.036 -0.5914  1.5969  0.5018
  457SOL    HW3 1874   2.469   4.523   4.055  1.3020  0.1474  0.0846
  457SOL    MW4 1875   2.479   4.610   4.055  0.0055  0.3142  0.5937
  458SOL     OW 1876   1.596   2.144   0.398  0.2499  0.5762 -0.4128
  458SOL    HW2 1877   1.502   2.127   0.398  0.3194  0.1459  0.3191
  458SOL    HW3 1878   1.627   2.113   0.313 -0.1498 -0.0090 -0.3491
  458SOL    MW4 1879   1.588   2.138   0.387  0.2065  0.4420 -0.3078
  459SOL     OW 1880   0.932   2.005   2.482 -0.4264 -0.3785 -0.2064
  459SOL    HW2 1881   0.934   1.925   2.429 -1.4156 -0.1301 -0.6347
  459SOL    HW3 1882   1.002   2.059   2.446 -0.8264 -0.3831 -0.9910
  459SOL    MW4 1883   0.942   2.001   2.470 -0.6097 -0.3464 -0.3664
  460SOL     OW 1884   2.730   0.819   3.821 -0.2419  0.0863  0.3390
  460SOL    HW2 1885   2.822   0.848   3.821  0.1699 -1.1320 -0.6204
  460SOL    HW3 1886   2.681   0.894   3.789  0.5262  0.4838  0.0733
  460SOL    MW4 1887   2.736   0.833   3.817 -0.0863 -0.0221  0.1774
  461SOL     OW 1888   1.592   4.316   3.678  0.5868 -0.3730  0.3807
  461SOL    HW2 1889   1.626   4.356   3.758  1.6208  0.6536 -0.5518
  461SOL    HW3 1890   1.591   4.222   3.697 -1.8647  0.0303  2.6021
  461SOL    MW4 1891   1.597   4.309   3.691  0.3998 -0.1845  0.5507
  462SOL     OW 1892   4.166   4.274   3.446 -0.5239  0.9088  0.2858
  462SOL    HW2 1893   4.148   4.315   3.361  1.4063 -0.1346 -0.6508
  462SOL    HW3 1894   4.220   4.337   3.493  0.1679  0.6014 -0.0913
  462SOL    MW4 1895   4.171   4.288   3.441 -0.1779  0.7305  0.1125
  463SOL     OW 1896   0.632   0.496   1.124  0.5090  0.0757 -0.2317
  463SOL    HW2 1897   0.662   0.544   1.200 -1.3419  0.1877  0.4559
  463SOL    HW3 1898   0.539   0.481   1.140  0.6044 -1.9698 -1.3653
  463SOL    MW4 1899   0.624   0.500   1.136  0.2774 -0.1794 -0.2905
  464SOL     OW 1900   1.015   3.779   3.195 -0.4852 -0.5309  0.0258
  464SOL    HW2 1901   1.073   3.850   3.222 -1.6521  0.6895 -0.6065
  464SOL    HW3 1902   1.063   3.734   3.125  0.6861 -1.0251  1.1200
  464SOL    MW4 1903   1.029   3.782   3.189 -0.4847 -0.4349  0.0868
  465SOL     OW 1904   1.338   1.021   2.151 -0.0663  0.4241 -0.5703
  465SOL    HW2 1905   1.268   1.007   2.088 -0.5865 -0.2592  0.1455
  465SOL    HW3 1906   1.352   1.116   2.152 -0.9479  0.5574 -0.7482
  465SOL    MW4 1907   1.331   1.032   2.143 -0.2512  0.3517 -0.4992
  466SOL     OW 1908   4.117   1.835   1.365  0.3715 -0.0246 -0.5063
  466SOL    HW2 1909   4.102   1.929   1.361  0.5890  0.1152  1.4466
  466SOL    HW3 1910   4.030   1.796   1.353  0.0720  0.4752 -0.0020
  466SOL    MW4 1911   4.103   1.842   1.363  0.3610  0.0597 -0.1822
  467SOL     OW 1912   1.669   2.653   2.140 -0.3931 -0.1055 -0.3401
  467SOL    HW2 1913   1.630   2.671   2.225  1.0140  1.9490 -0.0944
  467SOL    HW3 1914   1.732   2.582   2.157  0.4266  0.8089  0.5020
  467SOL    MW4 1915   1.672   2.646   2.153 -0.0993  0.2861 -0.1967
  468SOL     OW 1916   2.474   2.493   1.792 -0.3156  0.5809 -0.2456
  468SOL    HW2 1917   2.485   2.584   1.763 -0.0642  1.2849  1.9688
  468SOL    HW3 1918   2.509   2.441   1.719  1.8098  2.3347 -0.5527
  468SOL    MW4 1919   2.480   2.499   1.778 -0.0021  0.9053  0.0060
  469SOL     OW 1920   4.175   3.350   2.706  0.0088  0.3098  0.0302
  469SOL    HW2 1921   4.167   3.281   2.772  0.5552 -0.3060 -0.5368
  469SOL    HW3 1922   4.177   3.432   2.756 -0.6577 -0.0782  0.7107
  469SOL    MW4 1923   4.174   3.352   2.721 -0.0072  0.1769  0.0453
  470SOL     OW 1924   1.107   0.999   1.984 -0.1345 -0.5606 -0.0923
  470SOL    HW2 1925   1.137   0.999   1.893  1.9806 -0.6625  0.5844
  470SOL    HW3 1926   1.081   1.090   2.001 -0.3815 -0.5094 -0.7573
  470SOL    MW4 1927   1.108   1.011   1.974  0.1121 -0.5673 -0.0908
  471SOL     OW 1928   1.489   4.040   2.599 -0.4288 -0.1281 -0.2832
  471SOL    HW2 1929   1.503   4.087   2.681  1.5516 -1.1457  0.0037
  471SOL    HW3 1930   1.459   4.107   2.537  2.0821  1.4989  0.1840
  471SOL    MW4 1931   1.487   4.055   2.601  0.1637 -0.0477 -0.1838
  472SOL     OW 1932   3.516   0.916   0.159 -0.2184  0.4574  0.3167
  472SOL    HW2 1933   3.507   0.821   0.153  0.7604  0.3878 -0.1161
  472SOL    HW3 1934   3.426   0.949   0.151 -0.5880 -0.4402  0.7184
  472SOL    MW4 1935   3.503   0.908   0.157 -0.1376  0.3298  0.3126
  473SOL     OW 1936   1.440   2.755   1.257  0.0777 -0.3484  0.2700
  473SOL    HW2 1937   1.459   2.848   1.268 -1.2803 -0.0690  0.3379
  473SOL    HW3 1938   1.485   2.731   1.177  0.0370  0.4943 -0.0168
  473SOL    MW4 1939   1.448   2.764   1.248 -0.1070 -0.2003  0.2412
  474SOL     OW 1940   3.356   3.544   3.185 -0.3107  0.6572 -0.1761
  474SOL    HW2 1941   3.279   3.503   3.224  1.1544 -0.2979  1.7963
  474SOL    HW3 1942   3.359   3.631   3.225  0.3096  0.2515  0.6639
  474SOL    MW4 1943   3.346   3.550   3.196 -0.0355  0.4776  0.1950
  475SOL     OW 1944   2.393   0.705   1.560  0.1237  0.3299 -0.1672
  475SOL    HW2 1945   2.394   0.616   1.524  0.1481  0.2720 -0.0234
  475SOL    HW3 1946   2.312   0.709   1.611  0.9222 -0.1415  1.1647
  475SOL    MW4 1947   2.382   0.694   1.562  0.2322  0.2601  0.0275
  476SOL     OW 1948   4.208   2.804   0.602 -0.4639 -0.2235  0.3224
  476SOL    HW2 1949   4.136   2.742   0.612  0.0700 -0.8241  0.4166
  476SOL    HW3 1950   4.287   2.750   0.602 -0.0368  0.3927 -0.2165
  476SOL    MW4 1951   4.209   2.789   0.603 -0.3366 -0.2215  0.2638
  477SOL     OW 1952   4.436   4.524   1.626 -1.2224 -0.7951 -0.0273
  477SOL    HW2 1953   4.441   4.595   1.563  1.0349  0.9768  2.0627
  477SOL    HW3 1954   4.458   4.564   1.710  0.5896 -4.0351  1.1363
  477SOL    MW4 1955   4.439   4.538   1.629 -0.6857 -0.9890  0.4020
  478SOL     OW 1956   0.621   0.105   4.121  0.3748 -0.3799  0.2916
  478SOL    HW2 1957   0.632   0.140   4.033  0.0303 -1.3103 -0.1262
  478SOL    HW3 1958   0.585   0.178   4.171  0.3700  0.0895 -0.3907
  478SOL    MW4 1959   0.617   0.119   4.116  0.3287 -0.4407  0.1459
  479SOL     OW 1960   2.876   3.336   3.372 -0.4102  0.4688 -0.7572
  479SOL    HW2 1961   2.863   3.247   3.339 -1.1303  0.3843 -0.2681
  479SOL    HW3 1962   2.791   3.378   3.361 -0.6598  0.4429  0.9672
  479SOL    MW4 1963   2.863   3.330   3.366 -0.5383  0.4542 -0.4652
  480SOL     OW 1964   2.760   0.580   3.035 -0.3118 -0.1976  0.3038
  480SOL    HW2 1965   2.676   0.586   3.079 -0.6042 -0.2307 -0.2435
  480SOL    HW3 1966   2.824   0.570   3.105 -0.5920  1.5842  0.8163
  480SOL    MW4 1967   2.757   0.579   3.050 -0.3872  0.0331  0.2992
  481SOL     OW 1968   0.264   3.272   3.322 -0.0238 -0.8070  0.1241
  481SOL    HW2 1969   0.218   3.197   3.359  0.9764 -1.1230  0.7475
  481SOL    HW3 1970   0.258   3.340   3.389 -0.9340 -0.3172 -0.4417
  481SOL    MW4 1971   0.258   3.271   3.335 -0.0119 -0.7839  0.1318
  482SOL     OW 1972   1.610   4.029   0.794  0.2166 -0.4950  0.5181
  482SOL    HW2 1973   1.531   3.997   0.750  0.5515 -0.5822 -0.0131
  482SOL    HW3 1974   1.598   4.003   0.885 -0.4541 -0.3556  0.4759
  482SOL    MW4 1975   1.598   4.022   0.800  0.1724 -0.4878  0.4424
  483SOL     OW 1976   3.213   1.784   2.201 -0.1413  0.0621  0.2309
  483SOL    HW2 1977   3.253   1.699   2.181 -0.4567 -0.0834  0.2109
  483SOL    HW3 1978   3.282   1.848   2.184  0.3541 -0.2575  1.0570
  483SOL    MW4 1979   3.227   1.781   2.196 -0.1178  0.0007  0.3374
  484SOL     OW 1980   3.737   1.313   1.217  0.0576 -0.0779 -0.2146
  484SOL    HW2 1981   3.720   1.396   1.172  0.2524 -0.2364 -0.5786
  484SOL    HW3 1982   3.699   1.326   1.304  0.1398  0.4166 -0.2464
  484SOL    MW4 1983   3.730   1.326   1.223  0.0944 -0.0336 -0.2668
  485SOL     OW 1984   0.045   0.895   0.468 -0.3362 -0.2907  0.2977
  485SOL    HW2 1985   0.098   0.856   0.538 -1.4356  0.2245  1.4349
  485SOL    HW3 1986   0.087   0.865   0.387  0.0104 -2.1882  1.1577
  485SOL    MW4 1987   0.058   0.886   0.467 -0.4356 -0.4731  0.5612
  486SOL     OW 1988   1.285   1.867   2.530 -0.1081  0.1115  0.1698
  486SOL    HW2 1989   1.314   1.900   2.615 -0.4888  0.0416  0.3274
  486SOL    HW3 1990   1.234   1.939   2.492  0.5959  0.3764 -0.2725
  486SOL    MW4 1991   1.282   1.881   2.537 -0.0654  0.1372  0.1323
  487SOL     OW 1992   0.228   1.047   3.603  0.1397 -0.5698  0.7499
  487SOL    HW2 1993   0.297   1.015   3.545 -1.2060 -0.3514 -1.0338
  487SOL    HW3 1994   0.272   1.109   3.661  1.5138 -0.7431 -0.0770
  487SOL    MW4 1995   0.243   1.051   3.603  0.1435 -0.5640  0.4053
  488SOL     OW 1996   0.599   4.325   1.889  0.4416  0.2920 -0.2855
  488SOL    HW2 1997   0.688   4.307   1.857  0.2122 -0.8175 -0.3432
  488SOL    HW3 1998   0.551   4.354   1.812  0.4493 -0.2874 -0.5164
  488SOL    MW4 1999   0.605   4.326   1.875  0.4123  0.0691 -0.3237
  489SOL     OW 2000   1.258   2.073   3.626 -0.0976  0.2386  0.4304
  489SOL    HW2 2001   1.169   2.039   3.618  0.7847 -2.0551  0.0285
  489SOL    HW3 2002   1.285   2.047   3.714  0.0193  1.3035  0.7070
  489SOL    MW4 2003   1.250   2.065   3.637  0.0342  0.0765  0.4137
  490SOL     OW 2004   0.784   3.223   0.385  0.0327 -0.2250  0.2245
  490SOL    HW2 2005   0.879   3.213   0.387 -0.2028 -2.5485  0.4875
  490SOL    HW3 2006   0.770   3.314   0.413  2.1518  0.1146  0.3011
  490SOL    MW4 2007   0.795   3.234   0.389  0.2812 -0.4869  0.2693
  491SOL     OW 2008   4.086   4.180   3.838  0.2505 -0.2896 -0.6692
  491SOL    HW2 2009   4.124   4.266   3.856  0.2045 -0.4844  0.3599
  491SOL    HW3 2010   4.029   4.195   3.762 -0.3888  0.7654  0.0087
  491SOL    MW4 2011   4.083   4.193   3.830  0.1602 -0.1760 -0.4439
  492SOL     OW 2012   0.686   2.348   3.783 -0.0866 -0.3563 -0.0398
  492SOL    HW2 2013   0.728   2.323   3.866  1.5339 -0.4170 -0.8618
  492SOL    HW3 2014   0.662   2.264   3.743 -0.1347 -0.3519 -0.0213
  492SOL    MW4 2015   0.688   2.333   3.789  0.1208 -0.3638 -0.1457
  493SOL     OW 2016   2.801   0.607   0.876  0.0994 -0.0106  0.1354
  493SOL    HW2 2017   2.734   0.577   0.938 -0.5396  0.3151 -0.3846
  493SOL    HW3 2018   2.863   0.656   0.930 -0.5626  0.4489  0.5003
  493SOL    MW4 2019   2.800   0.610   0.892 -0.0725  0.0930  0.1149
  494SOL     OW 2020   3.123   2.935   0.450 -0.3124 -0.3859  0.3649
  494SOL    HW2 2021   3.064   2.863   0.472  0.7304 -0.4961  2.8858
  494SOL    HW3 2022   3.172   2.903   0.375 -2.0335 -1.0609 -0.5148
  494SOL    MW4 2023   3.121   2.921   0.443 -0.4017 -0.4897  0.5814
  495SOL     OW 2024   3.430   4.385   1.849  0.0675 -0.3648 -0.3305
  495SOL    HW2 2025   3.499   4.326   1.819  0.8344 -0.1230  0.9488
  495SOL    HW3 2026   3.374   4.331   1.905  0.0649 -0.1873 -0.1627
  495SOL    MW4 2027   3.432   4.370   1.852  0.1686 -0.3095 -0.1396
  496SOL     OW 2028   0.051   1.803   1.793  0.4961 -0.3148  0.2443
  496SOL    HW2 2029   0.107   1.877   1.816 -2.8074  2.9512 -1.7002
  496SOL    HW3 2030   0.081   1.778   1.705 -0.4687  0.8949 -0.4520
  496SOL    MW4 2031   0.063   1.810   1.784 -0.0670  0.2757 -0.1042
  497SOL     OW 2032   4.229   4.379   1.051 -0.4190  0.0725 -0.2520
  497SOL    HW2 2033   4.248   4.453   0.993  0.3717 -0.1334 -0.2566
  497SOL    HW3 2034   4.245   4.412   1.139 -1.4296  0.3266 -0.1600
  497SOL    MW4 2035   4.234   4.393   1.055 -0.4478  0.0787 -0.2406
  498SOL     OW 2036   2.499   1.041   0.456 -0.0222  0.2651 -0.5569
  498SOL    HW2 2037   2.531   0.951   0.458 -0.3542  0.1351 -1.1052
  498SOL    HW3 2038   2.574   1.092   0.425  0.3579  0.2666  0.3363
  498SOL    MW4 2039   2.513   1.036   0.452 -0.0160  0.2482 -0.5114
  499SOL     OW 2040   1.587   1.051   3.087  0.5261  0.0017  0.2206
  499SOL    HW2 2041   1.570   1.144   3.068  0.1013 -0.2588 -0.7370
  499SOL    HW3 2042   1.666   1.031   3.036  0.4779 -0.2245  0.2384
  499SOL    MW4 2043   1.595   1.061   3.078  0.4636 -0.0625  0.0966
  500SOL     OW 2044   1.362   1.176   1.114 -0.2019 -0.4064  0.2934
  500SOL    HW2 2045   1.326   1.206   1.197 -1.2687 -0.3995 -0.1541
  500SOL    HW3 2046   1.335   1.242   1.050 -1.4434 -1.6094 -0.4612
  500SOL    MW4 2047   1.353   1.188   1.117 -0.5064 -0.5643  0.1347
  501SOL     OW 2048   0.704   0.190   0.899  0.6146  0.8492  0.1428
  501SOL    HW2 2049   0.680   0.260   0.837 -0.5883 -1.0472 -1.5970
  501SOL    HW3 2050   0.792   0.165   0.873 -0.1884 -0.5099 -1.4365
  501SOL    MW4 2051   0.712   0.196   0.887  0.3499  0.4197 -0.2951
  502SOL     OW 2052   0.303   1.738   1.208 -0.5216 -0.1852  0.1226
  502SOL    HW2 2053   0.363   1.771   1.275 -0.2597  0.9628 -0.6756
  502SOL    HW3 2054   0.285   1.648   1.235 -1.3723  0.6325  2.4039
  502SOL    MW4 2055   0.308   1.730   1.221 -0.5993  0.0741  0.3183
  503SOL     OW 2056   3.291   0.405   4.044 -0.2408  0.2627  0.1652
  503SOL    HW2 2057   3.306   0.480   3.986 -0.0126 -0.5773 -0.8809
  503SOL    HW3 2058   3.349   0.420   4.119  1.7874 -0.1740 -1.2590
  503SOL    MW4 2059   3.301   0.417   4.046  0.0570  0.0943 -0.1612
  504SOL     OW 2060   3.490   2.073   0.149 -0.0922  0.1880  0.7637
  504SOL    HW2 2061   3.419   2.137   0.148 -0.8595 -0.6530  0.1144
  504SOL    HW3 2062   3.570   2.126   0.145 -0.7259  1.1002 -0.2464
  504SOL    MW4 2063   3.491   2.088   0.148 -0.2770  0.1974  0.5447
  505SOL     OW 2064   4.153   4.405   2.450 -0.1102  0.1957 -0.2070
  505SOL    HW2 2065   4.146   4.495   2.482 -0.5433  0.1725 -0.2301
  505SOL    HW3 2066   4.092   4.402   2.376 -0.6152 -0.3024  0.2220
  505SOL    MW4 2067   4.144   4.417   2.444 -0.2341  0.1264 -0.1535
  506SOL     OW 2068   2.148   2.198   0.757  0.4611  0.4482  0.0426
  506SOL    HW2 2069   2.214   2.158   0.700 -0.6200  0.7169 -1.4495
  506SOL    HW3 2070   2.152   2.147   0.838  0.8055 -1.0968 -0.9159
  506SOL    MW4 2071   2.157   2.186   0.760  0.3641  0.2799 -0.2808
  507SOL     OW 2072   1.423   0.019   1.742 -0.4720 -0.0545 -0.5910
  507SOL    HW2 2073   1.470   0.012   1.659 -1.5591  0.5710 -1.2736
  507SOL    HW3 2074   1.364  -0.056   1.743 -0.0767 -0.3637 -0.1272
  507SOL    MW4 2075   1.422   0.008   1.731 -0.5633 -0.0128 -0.6199
  508SOL     OW 2076   1.304   2.243   3.336 -0.0238 -0.8708 -0.3546
  508SOL    HW2 2077   1.340   2.329   3.313  1.8358 -1.8572 -1.2726
  508SOL    HW3 2078   1.247   2.220   3.262 -1.1502 -0.0922  0.2622
  508SOL    MW4 2079   1.302   2.251   3.323  0.0730 -0.8981 -0.3946
  509SOL     OW 2080   3.916   0.266   0.540 -0.9767 -0.5730 -0.0681
  509SOL    HW2 2081   3.962   0.325   0.599 -0.4208 -0.1590 -0.9001
  509SOL    HW3 2082   3.985   0.215   0.498 -1.2121  0.4205 -1.7068
  509SOL    MW4 2083   3.931   0.267   0.542 -0.9346 -0.3873 -0.3941
  510SOL     OW 2084   3.561   3.496   2.699 -0.3349 -0.2737 -0.1388
  510SOL    HW2 2085   3.485   3.472   2.645 -1.1015  1.5727  0.0928
  510SOL    HW3 2086   3.526   3.502   2.788  0.2178  0.0296  0.0580
  510SOL    MW4 2087   3.546   3.493   2.703 -0.3629  0.0098 -0.0823
  511SOL     OW 2088   4.217   1.258   0.895 -0.0996  0.0984 -0.0122
  511SOL    HW2 2089   4.184   1.180   0.850 -1.5996  0.0650  1.0870
  511SOL    HW3 2090   4.201   1.329   0.834  0.1298 -0.2934 -0.5265
  511SOL    MW4 2091   4.210   1.257   0.881 -0.2666  0.0423  0.0650
  512SOL     OW 2092   2.785   3.705   2.641 -0.2450 -0.0493 -0.3682
  512SOL    HW2 2093   2.819   3.788   2.673 -0.1832 -0.5380  0.8432
  512SOL    HW3 2094   2.767   3.654   2.720 -0.5610 -1.0776 -1.0941
  512SOL    MW4 2095   2.787   3.709   2.655 -0.2785 -0.2494 -0.3042
  513SOL     OW 2096   4.376   0.710   3.888 -0.0075 -0.0875  0.0713
  513SOL    HW2 2097   4.346   0.624   3.861 -0.6403 -0.3443  1.5341
  513SOL    HW3 2098   4.437   0.738   3.820  0.8210 -2.0238  0.0105
  513SOL    MW4 2099   4.380   0.703   3.876  0.0181 -0.3769  0.2565
  514SOL     OW 2100   0.248   1.591   2.489  0.3516  0.2347 -0.3786
  514SOL    HW2 2101   0.154   1.571   2.495  0.6233 -0.8421  0.4912
  514SOL    HW3 2102   0.283   1.526   2.429  0.9289 -0.8528  1.0877
  514SOL    MW4 2103   0.240   1.580   2.482  0.4636 -0.0508 -0.0706
  515SOL     OW 2104   0.755   0.702   0.315 -0.1172 -0.1284  0.1861
  515SOL    HW2 2105   0.734   0.771   0.251  1.1137  0.2194  0.1319
  515SOL    HW3 2106   0.822   0.742   0.371 -1.3809 -0.3525  1.8642
  515SOL    MW4 2107   0.761   0.717   0.314 -0.1215 -0.1121  0.4003
  516SOL     OW 2108   4.067   1.494   0.447 -0.7895 -0.9205 -0.1316
  516SOL    HW2 2109   4.106   1.491   0.359 -0.8908  0.1676 -0.2211
  516SOL    HW3 2110   3.975   1.517   0.432 -0.5357  0.4417  0.3182
  516SOL    MW4 2111   4.060   1.497   0.434 -0.7696 -0.5974 -0.0841
  517SOL     OW 2112   4.212   1.802   1.039 -0.5887  0.8422  0.1063
  517SOL    HW2 2113   4.277   1.736   1.062 -3.4119 -0.8642  3.5882
  517SOL    HW3 2114   4.219   1.810   0.944  1.8807 -2.2970 -0.0512
  517SOL    MW4 2115   4.221   1.794   1.029 -0.6356  0.2029  0.5448
  518SOL     OW 2116   0.923   1.766   2.293  0.3838  0.0315 -0.1274
  518SOL    HW2 2117   0.967   1.685   2.268 -2.9701 -1.2343 -2.2876
  518SOL    HW3 2118   0.834   1.739   2.316 -0.5259  2.9623 -0.0043
  518SOL    MW4 2119   0.917   1.752   2.293 -0.1788  0.2512 -0.3963
  519SOL     OW 2120   1.357   1.984   1.757  0.3152 -0.0981 -0.4066
  519SOL    HW2 2121   1.360   1.985   1.661  2.2740  0.3473 -0.3537
  519SOL    HW3 2122   1.358   2.077   1.782  0.6055 -0.2327  0.0774
  519SOL    MW4 2123   1.357   1.997   1.747  0.6119 -0.0571 -0.3358
  520SOL     OW 2124   1.615   1.881   1.755  0.3284  0.2048  0.2284
  520SOL    HW2 2125   1.531   1.927   1.750 -0.7141 -1.4722  1.5441
  520SOL    HW3 2126   1.658   1.916   1.833  0.1532 -0.0381  0.4359
  520SOL    MW4 2127   1.610   1.892   1.765  0.1678 -0.0486  0.4293
  521SOL     OW 2128   1.358   0.132   2.858  0.2954  0.1004 -0.0449
  521SOL    HW2 2129   1.411   0.052   2.854  2.0957  1.1007  2.5445
  521SOL    HW3 2130   1.278   0.105   2.904  0.7198 -0.2933  0.4664
  521SOL    MW4 2131   1.354   0.118   2.863  0.5888  0.1804  0.3643
  522SOL     OW 2132   1.465   4.243   1.824  0.7036  0.6661  0.6149
  522SOL    HW2 2133   1.374   4.219   1.839  0.9485 -0.5485  0.1960
  522SOL    HW3 2134   1.480   4.317   1.883 -0.0833 -0.1834  1.9027
  522SOL    MW4 2135   1.455   4.249   1.834  0.6319  0.3934  0.7294
  523SOL     OW 2136   1.102   3.102   2.822  0.2931 -0.1520  0.0227
  523SOL    HW2 2137   1.146   3.017   2.833  1.8410  0.5520 -0.5836
  523SOL    HW3 2138   1.019   3.092   2.868  1.4314 -1.2616  1.9206
  523SOL    MW4 2139   1.097   3.089   2.830  0.6477 -0.2053  0.1934
  524SOL     OW 2140   1.188   4.256   1.921 -0.1132 -0.4663 -0.1394
  524SOL    HW2 2141   1.169   4.163   1.908 -2.1700 -0.0674 -0.1054
  524SOL    HW3 2142   1.166   4.273   2.012 -1.4478  0.4553 -0.6332
  524SOL    MW4 2143   1.183   4.246   1.931 -0.5608 -0.2923 -0.2002
  525SOL     OW 2144   0.156   3.909   0.120  0.1887  0.7478 -0.3603
  525SOL    HW2 2145   0.098   3.934   0.048 -1.3196  1.0718  0.9500
  525SOL    HW3 2146   0.138   3.972   0.190  1.0848 -0.0197  0.5911
  525SOL    MW4 2147   0.146   3.921   0.120  0.1079  0.6895 -0.0619
  526SOL     OW 2148   2.323   1.232   2.895  0.6341  0.2613 -0.1807
  526SOL    HW2 2149   2.402   1.221   2.843  0.1509 -0.0799 -0.8499
  526SOL    HW3 2150   2.304   1.326   2.891  0.5929  0.2358 -0.6342
  526SOL    MW4 2151   2.331   1.243   2.888  0.5648  0.2129 -0.3290
  527SOL     OW 2152   1.250   1.684   2.096 -0.2260  0.1899 -0.0070
  527SOL    HW2 2153   1.217   1.653   2.011  1.6932  0.2292 -0.7888
  527SOL    HW3 2154   1.266   1.777   2.083 -1.1238  0.4716  0.8067
  527SOL    MW4 2155   1.248   1.692   2.083 -0.0912  0.2322 -0.0029
  528SOL     OW 2156   0.719   3.908   0.426 -0.2624  0.3145 -0.3888
  528SOL    HW2 2157   0.787   3.863   0.375  0.1487  1.6218 -1.0209
  528SOL    HW3 2158   0.713   3.995   0.386 -0.8914  0.8995  0.9561
  528SOL    MW4 2159   0.727   3.914   0.414 -0.2911  0.5641 -0.2947
  529SOL     OW 2160   2.304   0.637   2.254 -0.3822 -0.6851 -0.5099
  529SOL    HW2 2161   2.310   0.651   2.160  0.8191 -1.2921 -0.5321
  529SOL    HW3 2162   2.394   0.647   2.285 -0.6624 -1.2030  0.4759
  529SOL    MW4 2163   2.316   0.641   2.246 -0.2608 -0.8335 -0.3827
  530SOL     OW 2164   3.656   2.788   2.832 -0.1669 -0.8218  0.1258
  530SOL    HW2 2165   3.627   2.870   2.870 -0.7564 -1.0300  0.1304
  530SOL    HW3 2166   3.706   2.813   2.754 -0.6684 -0.4779 -0.0834
  530SOL    MW4 2167   3.659   2.802   2.827 -0.3109 -0.8039  0.0987
  531SOL     OW 2168   0.531   1.183   0.299  0.4756  0.0971 -0.6580
  531SOL    HW2 2169   0.608   1.142   0.337 -0.9562 -1.6767  0.4486
  531SOL    HW3 2170   0.489   1.114   0.248 -1.7879  0.2230  0.9351
  531SOL    MW4 2171   0.535   1.169   0.297 -0.0120 -0.1203 -0.3018
  532SOL     OW 2172   1.610   2.180   0.913  0.0075 -0.4553  0.1434
  532SOL    HW2 2173   1.673   2.170   0.984  1.0305 -0.2516 -0.7060
  532SOL    HW3 2174   1.531   2.214   0.955  0.8147  0.2977  1.0841
  532SOL    MW4 2175   1.608   2.183   0.928  0.2491 -0.3290  0.1554
  533SOL     OW 2176   3.770   0.297   2.554  0.0776  0.1038 -0.1020
  533SOL    HW2 2177   3.742   0.325   2.467 -1.0387  2.1157  0.8782
  533SOL    HW3 2178   3.850   0.346   2.571  0.4486 -0.4963 -0.0953
  533SOL    MW4 2179   3.777   0.307   2.545 -0.0207  0.2901  0.0279
  534SOL     OW 2180   3.193   4.602   2.351  0.2739  0.5296  0.4705
  534SOL    HW2 2181   3.233   4.681   2.315  0.1528  0.7071  0.7290
  534SOL    HW3 2182   3.267   4.545   2.372  0.3968  0.9302  1.1194
  534SOL    MW4 2183   3.208   4.605   2.349  0.2742  0.6061  0.5903
  535SOL     OW 2184   2.869   1.262   3.987  0.5417  0.0590 -0.1344
  535SOL    HW2 2185   2.878   1.329   3.920 -1.1185  0.7942  0.3454
  535SOL    HW3 2186   2.910   1.301   4.065 -0.1004  0.3928  0.0454
  535SOL    MW4 2187   2.875   1.276   3.989  0.2379  0.2000 -0.0472
  536SOL     OW 2188   1.271   0.892   3.692 -0.0178  0.4425 -0.3857
  536SOL    HW2 2189   1.359   0.856   3.701  0.3605  1.5750  0.4621
  536SOL    HW3 2190   1.282   0.965   3.632 -0.3167  0.8221  0.0262
  536SOL    MW4 2191   1.284   0.897   3.685 -0.0073  0.6420 -0.2196
  537SOL     OW 2192   0.809   0.224   1.919 -0.2281  0.2869  0.1850
  537SOL    HW2 2193   0.873   0.253   1.985  0.6147 -0.9442 -0.0822
  537SOL    HW3 2194   0.856   0.231   1.836 -0.1773 -1.3901  0.0687
  537SOL    MW4 2195   0.824   0.229   1.917 -0.1102 -0.0968  0.1343
  538SOL     OW 2196   3.911   3.442   1.582  0.4170  0.1764 -0.0323
  538SOL    HW2 2197   3.983   3.502   1.562  0.0491  0.6578  0.0788
  538SOL    HW3 2198   3.876   3.474   1.665  0.8019 -0.7425  0.4842
  538SOL    MW4 2199   3.916   3.454   1.590  0.4191  0.1183  0.0504
  539SOL     OW 2200   1.612   2.305   4.025  0.0882  0.0151 -0.2915
  539SOL    HW2 2201   1.672   2.232   4.011  0.1647  0.0769 -0.2950
  539SOL    HW3 2202   1.584   2.331   3.937 -0.9937 -0.8699 -0.2058
  539SOL    MW4 2203   1.616   2.299   4.012 -0.0443 -0.0937 -0.2804
  540SOL     OW 2204   2.327   2.545   1.079  0.2957  0.2463 -0.2990
  540SOL    HW2 2205   2.386   2.611   1.044  0.7478  0.8420  1.5031
  540SOL    HW3 2206   2.379   2.499   1.145 -0.4062 -1.0597 -0.6496
  540SOL    MW4 2207   2.341   2.548   1.083  0.2627  0.1528 -0.1075
  541SOL     OW 2208   4.330   4.023   1.940 -0.3762 -0.4029  0.3847
  541SOL    HW2 2209   4.284   4.063   1.866  0.8218 -0.0464 -0.1788
  541SOL    HW3 2210   4.362   4.097   1.991 -1.7700 -0.6463  1.6330
  541SOL    MW4 2211   4.328   4.038   1.937 -0.4025 -0.3881  0.4750
  542SOL     OW 2212   1.751   2.428   0.826  0.3681  0.1787 -0.3409
  542SOL    HW2 2213   1.726   2.454   0.737 -1.6732 -0.6305 -0.0275
  542SOL    HW3 2214   1.697   2.351   0.845  1.8824 -0.5664  1.0356
  542SOL    MW4 2215   1.740   2.421   0.817  0.2985 -0.0262 -0.1179
  543SOL     OW 2216   1.435   4.212   3.393 -0.2898  0.2546 -0.3400
  543SOL    HW2 2217   1.449   4.289   3.337 -0.0464  0.9921  0.7246
  543SOL    HW3 2218   1.394   4.246   3.472  0.7118 -0.5639  0.5541
  543SOL    MW4 2219   1.432   4.227   3.396 -0.1256  0.2441 -0.0815
  544SOL     OW 2220   2.906   1.474   3.801  0.4945  0.2509  0.1264
  544SOL    HW2 2221   2.844   1.544   3.783  1.7463  1.4247  0.2229
  544SOL    HW3 2222   2.908   1.422   3.721 -0.1460  0.5679 -0.0966
  544SOL    MW4 2223   2.898   1.477   3.788  0.5748  0.4476  0.1097
  545SOL     OW 2224   1.216   1.451   3.387 -0.1097  0.8340 -0.1117
  545SOL    HW2 2225   1.152   1.411   3.446  0.4484 -0.4653 -0.3827
  545SOL    HW3 2226   1.183   1.431   3.299  0.8702 -0.1637 -0.2557
  545SOL    MW4 2227   1.203   1.443   3.383  0.0932  0.5308 -0.1664
  546SOL     OW 2228   0.491   1.684   2.055 -0.1064  0.1117  0.1613
  546SOL    HW2 2229   0.499   1.760   2.113  0.3772  1.2885 -1.4461
  546SOL    HW3 2230   0.567   1.629   2.077  2.2459  2.3696 -1.9676
  546SOL    MW4 2231   0.502   1.686   2.066  0.2678  0.5649 -0.3316
  547SOL     OW 2232   0.139   1.103   2.042 -0.0603  0.0372 -0.4275
  547SOL    HW2 2233   0.068   1.082   1.982 -1.0502  0.3620  0.6215
  547SOL    HW3 2234   0.135   1.198   2.053 -0.1119 -0.0573  0.4176
  547SOL    MW4 2235   0.129   1.113   2.036 -0.1977  0.0675 -0.1774
  548SOL     OW 2236   3.442   3.186   2.094  0.0105 -0.2245 -0.3870
  548SOL    HW2 2237   3.422   3.255   2.031 -3.3544 -0.2355  0.5373
  548SOL    HW3 2238   3.424   3.105   2.047 -1.4376 -0.2661  0.2128
  548SOL    MW4 2239   3.437   3.184   2.079 -0.6242 -0.2315 -0.1860
  549SOL     OW 2240   0.678   0.132   3.848 -0.2580  0.3203 -0.1078
  549SOL    HW2 2241   0.664   0.057   3.790  0.2929 -0.8603  1.2616
  549SOL    HW3 2242   0.770   0.155   3.834  0.1524 -0.5926  1.0029
  549SOL    MW4 2243   0.688   0.125   3.838 -0.1311  0.0441  0.2196
  550SOL     OW 2244   3.732   1.325   0.365  0.0728 -0.0637  0.2617
  550SOL    HW2 2245   3.776   1.410   0.361  0.2594 -0.0847  1.7665
  550SOL    HW3 2246   3.751   1.291   0.452 -0.5250 -1.3783 -0.0964
  550SOL    MW4 2247   3.740   1.332   0.376  0.0186 -0.2400  0.4129
  551SOL     OW 2248   0.609   3.052   1.107  0.4208 -0.4913 -0.0198
  551SOL    HW2 2249   0.704   3.043   1.106  0.2969 -1.7202 -0.6674
  551SOL    HW3 2250   0.579   3.009   1.027 -0.6211  0.6204 -0.2445
  551SOL    MW4 2251   0.618   3.045   1.097  0.2670 -0.5066 -0.1349
  552SOL     OW 2252   3.683   1.022   3.306  0.3808  0.4230  0.0548
  552SOL    HW2 2253   3.708   0.939   3.266  0.2674  0.3451  0.1475
  552SOL    HW3 2254   3.682   1.084   3.232  1.2096  0.5085  0.1114
  552SOL    MW4 2255   3.686   1.019   3.291  0.4749  0.4239  0.0744
  553SOL     OW 2256   2.023   1.525   0.568  0.3344  0.4522  0.4344
  553SOL    HW2 2257   2.075   1.599   0.599  2.3739 -0.2931 -1.0663
  553SOL    HW3 2258   2.032   1.459   0.636 -1.8204  1.6942  1.9661
  553SOL    MW4 2259   2.031   1.526   0.581  0.3192  0.5178  0.4385
  554SOL     OW 2260   0.028   0.587   0.292 -0.2868  0.1632  0.0717
  554SOL    HW2 2261   0.102   0.526   0.299 -0.0852  0.5447  1.3048
  554SOL    HW3 2262  -0.028   0.547   0.225 -0.0249 -1.2415  0.6602
  554SOL    MW4 2263   0.031   0.573   0.284 -0.2257  0.0283  0.3121
  555SOL     OW 2264   2.948   1.751   1.405  0.1844  0.1900 -0.4211
  555SOL    HW2 2265   2.932   1.840   1.438 -0.2133  0.2870 -0.8824
  555SOL    HW3 2266   2.988   1.764   1.319  0.0640 -0.0817 -0.5176
  555SOL    MW4 2267   2.951   1.765   1.398  0.1161  0.1670 -0.4946
  556SOL     OW 2268   0.043   2.520   0.057 -0.3608  0.1315 -0.1059
  556SOL    HW2 2269   0.092   2.516  -0.025 -0.5818 -1.6123 -0.1821
  556SOL    HW3 2270   0.110   2.530   0.125 -0.1845  1.6699 -0.4866
  556SOL    MW4 2271   0.059   2.521   0.055 -0.3667  0.1044 -0.1662
  557SOL     OW 2272   2.311   0.192   2.551 -0.0245 -0.0616 -0.0014
  557SOL    HW2 2273   2.292   0.104   2.583  0.3219 -0.8596 -1.9439
  557SOL    HW3 2274   2.274   0.194   2.463 -0.5865  1.9587  0.2550
  557SOL    MW4 2275   2.303   0.181   2.544 -0.0529  0.0997 -0.2239
  558SOL     OW 2276   1.970   1.223   2.288  0.3020 -0.0293 -0.0051
  558SOL    HW2 2277   2.024   1.179   2.355 -0.1068 -1.9348 -0.8933
  558SOL    HW3 2278   1.895   1.165   2.277 -1.1010  1.7746 -0.0080
  558SOL    MW4 2279   1.967   1.209   2.296  0.0629 -0.0427 -0.1225
  559SOL     OW 2280   3.130   2.691   2.422  0.2109 -0.0449  0.2246
  559SOL    HW2 2281   3.219   2.721   2.407 -0.3038  0.5777 -1.6317
  559SOL    HW3 2282   3.096   2.749   2.490  0.8150  0.4563  0.0983
  559SOL    MW4 2283   3.137   2.702   2.429  0.2227  0.1035 -0.0372
  560SOL     OW 2284   3.800   2.435   2.084 -0.4289  0.1703  0.1601
  560SOL    HW2 2285   3.803   2.524   2.119 -1.0220  0.6996 -1.0990
  560SOL    HW3 2286   3.712   2.405   2.103 -0.4272  0.0799  0.0222
  560SOL    MW4 2287   3.789   2.443   2.091 -0.5074  0.2279 -0.0243
  561SOL     OW 2288   2.913   4.610   1.191  0.4446 -0.4151 -0.4380
  561SOL    HW2 2289   3.007   4.589   1.190  0.4846 -0.2394 -0.7680
  561SOL    HW3 2290   2.908   4.697   1.150  0.0616 -0.7700 -1.1559
  561SOL    MW4 2291   2.925   4.619   1.185  0.3994 -0.4392 -0.5761
  562SOL     OW 2292   2.403   4.085   2.261  1.2546 -0.4974  0.2235
  562SOL    HW2 2293   2.461   4.096   2.336  0.7132 -0.2596  0.6088
  562SOL    HW3 2294   2.363   4.171   2.248  2.2017 -0.2319 -1.0512
  562SOL    MW4 2295   2.406   4.098   2.269  1.3077 -0.4311  0.1061
  563SOL     OW 2296   1.581   4.375   1.601  0.6940 -0.0509 -0.1660
  563SOL    HW2 2297   1.534   4.322   1.665  1.7214 -0.9195 -0.1185
  563SOL    HW3 2298   1.664   4.396   1.643  1.4687 -0.7988 -1.2723
  563SOL    MW4 2299   1.586   4.371   1.615  0.9319 -0.2642 -0.3057
  564SOL     OW 2300   3.368   3.953   1.502  0.1712  0.1031 -0.0194
  564SOL    HW2 2301   3.433   4.022   1.511 -0.8091  1.1687 -0.8948
  564SOL    HW3 2302   3.364   3.913   1.589  1.2410  0.6960  0.3144
  564SOL    MW4 2303   3.376   3.957   1.515  0.1829  0.3216 -0.0908
  565SOL     OW 2304   1.286   2.383   1.419  0.1744 -0.1992  0.1844
  565SOL    HW2 2305   1.243   2.299   1.404  0.6229 -0.3067 -0.5495
  565SOL    HW3 2306   1.241   2.444   1.360  1.2118 -0.3788 -0.8136
  565SOL    MW4 2307   1.274   2.380   1.409  0.3704 -0.2372 -0.0441
  566SOL     OW 2308   1.426   1.657   1.499  0.3710 -0.2259  0.4463
  566SOL    HW2 2309   1.434   1.586   1.436  1.2128  0.6048 -0.3844
  566SOL    HW3 2310   1.516   1.680   1.522  0.1471  1.5643 -0.4090
  566SOL    MW4 2311   1.439   1.651   1.494  0.4526  0.1199  0.2240
  567SOL     OW 2312   2.251   1.996   3.938 -0.1433  0.0160  0.3072
  567SOL    HW2 2313   2.168   2.025   3.898 -0.3042 -0.2022  0.4804
  567SOL    HW3 2314   2.319   2.032   3.881 -0.3467  0.5598  0.3985
  567SOL    MW4 2315   2.249   2.005   3.925 -0.1915  0.0591  0.3419
  568SOL     OW 2316   3.274   2.372   0.446  0.0125  0.6766  0.2967
  568SOL    HW2 2317   3.198   2.426   0.472  1.2178  2.2788  0.5832
  568SOL    HW3 2318   3.332   2.433   0.402  0.9900 -0.6274 -0.2348
  568SOL    MW4 2319   3.271   2.388   0.444  0.3006  0.7162  0.2643
  569SOL     OW 2320   0.979   4.517   0.761 -0.0713 -0.1460 -0.2899
  569SOL    HW2 2321   1.061   4.505   0.712 -0.2468 -1.0177 -0.3741
  569SOL    HW3 2322   0.984   4.608   0.793  0.1722  0.3426 -1.6786
  569SOL    MW4 2323   0.991   4.528   0.759 -0.0623 -0.1965 -0.4842
  570SOL     OW 2324   3.343   0.994   4.171 -0.0862 -0.0656 -0.1353
  570SOL    HW2 2325   3.286   0.957   4.104 -1.0085 -1.3061  1.3182
  570SOL    HW3 2326   3.387   0.919   4.211 -0.1272  0.5778  1.1718
  570SOL    MW4 2327   3.341   0.979   4.168 -0.2129 -0.1444  0.2284
  571SOL     OW 2328   2.326   1.843   1.941  0.3763 -0.1422 -0.0525
  571SOL    HW2 2329   2.402   1.880   1.896  0.1770  1.3621  0.8295
  571SOL    HW3 2330   2.305   1.764   1.891  2.7641 -0.8152 -0.0573
  571SOL    MW4 2331   2.333   1.837   1.928  0.6647 -0.0325  0.0633
  572SOL     OW 2332   1.513   2.810   3.036 -0.2337  0.0084  0.5665
  572SOL    HW2 2333   1.541   2.806   3.127 -3.3589  2.4691  1.7305
  572SOL    HW3 2334   1.451   2.738   3.026 -1.7875  1.2503  1.1217
  572SOL    MW4 2335   1.509   2.800   3.046 -0.8510  0.4973  0.7935
  573SOL     OW 2336   0.596   2.065   3.284  0.2502 -0.1481  0.2099
  573SOL    HW2 2337   0.651   2.142   3.277  0.8600 -0.6820 -1.0458
  573SOL    HW3 2338   0.538   2.069   3.208  0.2813 -0.9154  0.1365
  573SOL    MW4 2339   0.596   2.075   3.273  0.3348 -0.3200  0.0346
  574SOL     OW 2340   3.817   0.480   1.836 -0.3019  0.1843 -0.5740
  574SOL    HW2 2341   3.752   0.547   1.855 -0.5273 -0.2914  0.3500
  574SOL    HW3 2342   3.798   0.409   1.897  2.2476  0.8108  1.0199
  574SOL    MW4 2343   3.806   0.479   1.846  0.0048  0.2042 -0.2418
  575SOL     OW 2344   2.986   0.035   3.966 -0.1697  0.2348  0.5483
  575SOL    HW2 2345   2.991   0.123   4.003 -0.3309 -0.5703  2.5697
  575SOL    HW3 2346   2.893   0.015   3.962 -0.1353  0.1703  0.0856
  575SOL    MW4 2347   2.974   0.044   3.971 -0.1864  0.1201  0.7539
  576SOL     OW 2348   0.058   3.385   2.667  0.0600  0.0983  0.0210
  576SOL    HW2 2349   0.010   3.464   2.693 -2.0224 -0.7511 -1.1489
  576SOL    HW3 2350   0.147   3.417   2.648 -0.0232  1.7092  2.1101
  576SOL    MW4 2351   0.063   3.400   2.668 -0.2257  0.1986  0.1423
  577SOL     OW 2352   1.004   4.076   0.794  0.0854 -0.0909  0.8139
  577SOL    HW2 2353   0.912   4.049   0.792 -0.1175  0.6057 -0.1390
  577SOL    HW3 2354   1.008   4.144   0.862 -0.4553  1.0143 -0.2330
  577SOL    MW4 2355   0.992   4.082   0.802 -0.0126  0.1469  0.5501
  578SOL     OW 2356   2.544   2.615   0.725  0.2557 -0.0943 -0.6090
  578SOL    HW2 2357   2.568   2.662   0.805 -0.4058  1.4692 -1.3089
  578SOL    HW3 2358   2.504   2.534   0.756 -0.8610  0.9250  0.6718
  578SOL    MW4 2359   2.542   2.610   0.739  0.0210  0.2463 -0.5323
  579SOL     OW 2360   2.264   0.709   3.606 -0.4786 -0.1427 -0.2591
  579SOL    HW2 2361   2.270   0.805   3.605  2.2425 -0.2693 -1.7870
  579SOL    HW3 2362   2.280   0.686   3.698  0.0912  0.8192 -0.1029
  579SOL    MW4 2363   2.267   0.719   3.618 -0.0443 -0.0325 -0.4396
  580SOL     OW 2364   2.132   2.629   2.453 -0.4699 -0.2206 -0.0456
  580SOL    HW2 2365   2.160   2.559   2.394  0.9358 -1.8743  2.4899
  580SOL    HW3 2366   2.214   2.668   2.485 -1.1665 -0.0043  1.5395
  580SOL    MW4 2367   2.146   2.625   2.449 -0.3762 -0.4103  0.4981
  581SOL     OW 2368   3.322   1.575   0.110 -0.6948 -0.8507 -0.0760
  581SOL    HW2 2369   3.252   1.539   0.056  0.2473 -0.2582 -1.7261
  581SOL    HW3 2370   3.362   1.499   0.150 -0.8115 -1.3836 -0.9545
  581SOL    MW4 2371   3.318   1.560   0.108 -0.5860 -0.8429 -0.4096
  582SOL     OW 2372   4.140   3.655   1.804  0.0935 -0.2946 -0.3442
  582SOL    HW2 2373   4.151   3.667   1.710  0.6124  2.1841  0.0137
  582SOL    HW3 2374   4.046   3.663   1.819  0.0757 -0.0981 -0.5713
  582SOL    MW4 2375   4.129   3.658   1.794  0.1593  0.0584 -0.3270
  583SOL     OW 2376   4.432   0.302   3.089 -0.1186 -0.1427 -0.3461
  583SOL    HW2 2377   4.401   0.330   3.175  0.8958  0.5898 -0.1978
  583SOL    HW3 2378   4.407   0.210   3.082 -1.2544  0.1142  0.2398
  583SOL    MW4 2379   4.425   0.294   3.099 -0.1349 -0.0122 -0.2489
  584SOL     OW 2380   0.830   2.089   0.293  0.5435  0.3381 -0.1486
  584SOL    HW2 2381   0.893   2.017   0.290  0.1848 -0.2621  4.1894
  584SOL    HW3 2382   0.885   2.168   0.294  0.9795  0.1253 -2.4909
  584SOL    MW4 2383   0.846   2.090   0.292  0.5537  0.2306  0.1147
  585SOL     OW 2384   0.519   3.777   3.064 -0.4865  0.4671 -0.0899
  585SOL    HW2 2385   0.586   3.772   3.132 -0.0146  0.0059 -0.5799
  585SOL    HW3 2386   0.569   3.786   2.983 -1.0600  1.4932 -0.3254
  585SOL    MW4 2387   0.535   3.777   3.062 -0.4999  0.5417 -0.1855
  586SOL     OW 2388   0.317   3.999   1.396  0.4192  1.0110 -0.1460
  586SOL    HW2 2389   0.342   4.038   1.480 -0.9718  0.9474  0.3063
  586SOL    HW3 2390   0.336   3.906   1.406 -1.4790  0.7053  0.7790
  586SOL    MW4 2391   0.323   3.992   1.408 -0.0147  0.9625  0.0359
  587SOL     OW 2392   4.332   1.694   2.618  0.3490  0.5358  0.1494
  587SOL    HW2 2393   4.347   1.787   2.603  0.1841  0.2669 -1.8231
  587SOL    HW3 2394   4.238   1.681   2.604  0.5858 -0.1449 -0.8685
  587SOL    MW4 2395   4.322   1.704   2.614  0.3586  0.4106 -0.2451
  588SOL     OW 2396   2.528   2.727   1.386 -0.3789 -0.2861  0.1150
  588SOL    HW2 2397   2.513   2.743   1.479  1.4942  0.5449  0.2911
  588SOL    HW3 2398   2.504   2.809   1.343  0.7810  0.0446  0.0917
  588SOL    MW4 2399   2.522   2.740   1.393  0.0215 -0.1326  0.1351
  589SOL     OW 2400   0.181   2.190   1.610  0.1123 -0.0674  0.0919
  589SOL    HW2 2401   0.174   2.183   1.515 -0.7796 -1.6875  0.2583
  589SOL    HW3 2402   0.274   2.205   1.626  0.3792 -0.5136 -0.9834
  589SOL    MW4 2403   0.193   2.191   1.599  0.0299 -0.3402 -0.0280
  590SOL     OW 2404   0.048   4.621   1.875  0.3775  0.2824  0.3343
  590SOL    HW2 2405  -0.002   4.701   1.887  0.1228  0.1870 -0.0837
  590SOL    HW3 2406   0.033   4.572   1.956 -2.0119 -0.7168 -0.6439
  590SOL    MW4 2407   0.039   4.625   1.887  0.0287  0.1383  0.1501
  591SOL     OW 2408   0.746   2.970   0.507 -0.0043 -0.4539  0.5567
  591SOL    HW2 2409   0.758   3.050   0.456 -2.9049 -0.4119 -0.1282
  591SOL    HW3 2410   0.746   2.999   0.598  1.3250 -0.0217  0.4342
  591SOL    MW4 2411   0.748   2.984   0.512 -0.2116 -0.3912  0.4502
  592SOL     OW 2412   4.196   1.396   0.204  0.5346  0.0066 -0.1116
  592SOL    HW2 2413   4.111   1.365   0.173  0.7117 -0.9464  0.3288
  592SOL    HW3 2414   4.242   1.317   0.231  1.0059  0.6535  1.0306
  592SOL    MW4 2415   4.191   1.382   0.204  0.6199 -0.0336  0.0972
  593SOL     OW 2416   0.720   3.573   3.508  0.5087  0.2798  0.0263
  593SOL    HW2 2417   0.797   3.522   3.483 -0.5754 -0.5673 -1.6724
  593SOL    HW3 2418   0.674   3.590   3.426 -0.4925  1.8245  0.8684
  593SOL    MW4 2419   0.724   3.569   3.494  0.2336  0.3717 -0.0868
  594SOL     OW 2420   2.396   1.824   0.878 -0.1746  0.1065 -0.0063
  594SOL    HW2 2421   2.311   1.854   0.845  0.0976 -0.5169 -1.3394
  594SOL    HW3 2422   2.450   1.904   0.882 -0.5849  0.3787  0.0516
  594SOL    MW4 2423   2.392   1.839   0.874 -0.1929  0.0601 -0.1745
  595SOL     OW 2424   3.170   1.390   1.161 -0.4081  0.0004  0.6324
  595SOL    HW2 2425   3.094   1.334   1.180  0.3553 -1.3292 -0.1400
  595SOL    HW3 2426   3.138   1.452   1.095 -1.0122 -0.1260  0.8052
  595SOL    MW4 2427   3.156   1.391   1.155 -0.3870 -0.1916  0.5534
  596SOL     OW 2428   0.438   4.325   0.912  0.1883  0.1058 -0.0276
  596SOL    HW2 2429   0.517   4.329   0.967  0.9452 -0.2017 -1.0720
  596SOL    HW3 2430   0.376   4.274   0.964 -0.2285  2.4757  1.8949
  596SOL    MW4 2431   0.441   4.319   0.926  0.2333  0.3781  0.0883
  597SOL     OW 2432   2.493   3.493   0.508 -0.4323  0.0197 -0.4253
  597SOL    HW2 2433   2.577   3.447   0.503 -0.0483  0.4705  1.6345
  597SOL    HW3 2434   2.428   3.424   0.496  0.2084 -0.5090 -0.9117
  597SOL    MW4 2435   2.495   3.478   0.506 -0.2971  0.0093 -0.2177
  598SOL     OW 2436   2.696   3.729   1.970  0.1800 -0.0556 -0.9252
  598SOL    HW2 2437   2.648   3.690   2.043  0.4420  0.0814 -0.6824
  598SOL    HW3 2438   2.692   3.823   1.986 -0.3700  0.0151 -1.4622
  598SOL    MW4 2439   2.689   3.736   1.982  0.1419 -0.0284 -0.9639
  599SOL     OW 2440   4.273   3.485   4.454 -0.1788  0.0521  0.1808
  599SOL    HW2 2441   4.313   3.531   4.380 -1.5287  1.8283  0.5044
  599SOL    HW3 2442   4.334   3.499   4.527 -0.2228  0.7410  0.0928
  599SOL    MW4 2443   4.286   3.493   4.454 -0.3629  0.3774  0.2117
  600SOL     OW 2444   1.392   1.339   2.682  0.5870  0.2690 -0.2447
  600SOL    HW2 2445   1.477   1.308   2.650  0.0620 -0.5977 -0.8280
  600SOL    HW3 2446   1.407   1.431   2.701  1.3703  0.4125 -1.4377
  600SOL    MW4 2447   1.406   1.347   2.680  0.6211  0.1736 -0.4792
  601SOL     OW 2448   4.424   1.953   4.053 -0.4624  0.4161  0.1599
  601SOL    HW2 2449   4.506   2.003   4.061 -0.8405  1.0883 -0.1737
  601SOL    HW3 2450   4.393   1.945   4.143 -1.2674  2.2440  0.0571
  601SOL    MW4 2451   4.431   1.958   4.066 -0.6189  0.7460  0.1025
  602SOL     OW 2452   1.094   3.452   0.887 -0.3735  0.0265 -0.2579
  602SOL    HW2 2453   1.116   3.452   0.793 -1.3515 -0.3434 -0.4852
  602SOL    HW3 2454   1.136   3.373   0.921 -1.4036 -0.7255 -0.7125
  602SOL    MW4 2455   1.103   3.442   0.879 -0.6385 -0.1214 -0.3479
  603SOL     OW 2456   4.402   2.108   0.638 -0.0541  0.2918  0.0164
  603SOL    HW2 2457   4.472   2.043   0.644  1.6466  2.0151 -0.7051
  603SOL    HW3 2458   4.403   2.153   0.723 -1.0281 -0.3899  0.4046
  603SOL    MW4 2459   4.411   2.105   0.650  0.0420  0.4292 -0.0277
  604SOL     OW 2460   2.229   1.317   3.853 -0.0781 -0.0309  0.5161
  604SOL    HW2 2461   2.280   1.377   3.799  0.5853  0.0917  1.2795
  604SOL    HW3 2462   2.285   1.240   3.864 -0.2189 -0.0569  1.0333
  604SOL    MW4 2463   2.243   1.315   3.847 -0.0091 -0.0181  0.6850
  605SOL     OW 2464   2.673   0.569   2.126 -0.6307 -0.2279 -0.4566
  605SOL    HW2 2465   2.666   0.500   2.060  0.9706 -0.7727 -0.0999
  605SOL    HW3 2466   2.691   0.648   2.076  0.6539 -0.6523 -0.6847
  605SOL    MW4 2467   2.675   0.570   2.110 -0.2501 -0.3557 -0.4396
  606SOL     OW 2468   0.316   0.957   2.365  0.1966 -0.3057 -0.0192
  606SOL    HW2 2469   0.351   1.019   2.301 -2.3861  1.1456 -0.1201
  606SOL    HW3 2470   0.295   0.879   2.315  0.5437 -0.1062 -0.4758
  606SOL    MW4 2471   0.318   0.955   2.350 -0.0984 -0.0879 -0.0927
  607SOL     OW 2472   2.914   1.536   1.839  0.5635 -0.2830  0.1685
  607SOL    HW2 2473   2.903   1.495   1.925  1.0507 -0.5958  0.0807
  607SOL    HW3 2474   2.872   1.622   1.848 -0.8529 -0.9699  0.2139
  607SOL    MW4 2475   2.907   1.542   1.852  0.4411 -0.4150  0.1630
  608SOL     OW 2476   3.397   0.553   3.824 -0.1854 -0.1690 -0.0956
  608SOL    HW2 2477   3.415   0.492   3.753 -1.1703 -0.9083  0.2791
  608SOL    HW3 2478   3.448   0.631   3.803  0.7341 -0.9612 -0.8061
  608SOL    MW4 2479   3.406   0.555   3.812 -0.1941 -0.3710 -0.1400
  609SOL     OW 2480   1.788   3.972   1.280  0.1303 -0.1062  0.0413
  609SOL    HW2 2481   1.703   3.940   1.311 -0.1478  2.1916  1.7512
  609SOL    HW3 2482   1.768   4.021   1.200 -0.4274  1.8547  1.3426
  609SOL    MW4 2483   1.774   3.974   1.273  0.0200  0.4556  0.4387
  610SOL     OW 2484   4.468   3.562   0.407  0.7894 -0.6196 -0.3420
  610SOL    HW2 2485   4.457   3.642   0.458 -1.5576 -0.8052 -0.5023
  610SOL    HW3 2486   4.539   3.515   0.450 -0.2021 -0.1019  1.8992
  610SOL    MW4 2487   4.476   3.566   0.419  0.3486 -0.5760 -0.0674
  611SOL     OW 2488   3.116   4.274   1.536 -0.0117  0.0074  0.2861
  611SOL    HW2 2489   3.131   4.210   1.605 -0.1569  1.0600  1.3212
  611SOL    HW3 2490   3.054   4.232   1.477 -0.1642 -0.7726  0.9944
  611SOL    MW4 2491   3.110   4.260   1.538 -0.0508  0.0429  0.5161
  612SOL     OW 2492   1.882   4.220   0.864  0.4271 -0.7181  0.0578
  612SOL    HW2 2493   1.963   4.235   0.913  0.0681  0.0302  0.4402
  612SOL    HW3 2494   1.908   4.224   0.772  0.9064 -0.9696  0.1815
  612SOL    MW4 2495   1.896   4.222   0.859  0.4429 -0.6528  0.1245
  613SOL     OW 2496   2.025   1.451   4.321 -0.2071 -0.0776 -0.0448
  613SOL    HW2 2497   1.949   1.395   4.338  0.4794 -1.1078 -0.3515
  613SOL    HW3 2498   2.101   1.396   4.339  0.4803  0.9946  0.4110
  613SOL    MW4 2499   2.025   1.437   4.326 -0.0257 -0.0722 -0.0253
  614SOL     OW 2500   0.211   1.086   2.584  0.0122  0.3248  0.0378
  614SOL    HW2 2501   0.240   1.048   2.500 -0.9830  1.5039 -0.8527
  614SOL    HW3 2502   0.279   1.150   2.606  0.7109 -0.5772  0.5845
  614SOL    MW4 2503   0.224   1.089   2.576 -0.0269  0.3612 -0.0076
  615SOL     OW 2504   1.655   1.148   0.871 -0.3576  0.7014  0.0881
  615SOL    HW2 2505   1.640   1.238   0.844 -0.2264  0.4677 -0.7666
  615SOL    HW3 2506   1.574   1.102   0.849 -0.2812  0.5255  0.1699
  615SOL    MW4 2507   1.643   1.153   0.865 -0.3303  0.6474 -0.0139
  616SOL     OW 2508   1.794   2.902   1.320  0.0564  0.1416 -0.4302
  616SOL    HW2 2509   1.798   2.928   1.411  0.0351  0.1687 -0.4371
  616SOL    HW3 2510   1.822   2.810   1.320 -1.3996 -0.3161 -0.2041
  616SOL    MW4 2511   1.799   2.893   1.332 -0.1385  0.0846 -0.4013
  617SOL     OW 2512   0.185   0.536   4.002  0.3602 -0.6002 -0.4108
  617SOL    HW2 2513   0.218   0.614   4.047  0.5509 -0.5333 -0.6664
  617SOL    HW3 2514   0.167   0.566   3.913  1.4039 -1.0930 -0.7996
  617SOL    MW4 2515   0.187   0.551   3.997  0.5230 -0.6564 -0.4957
  618SOL     OW 2516   3.570   1.900   4.309  0.5731  0.6221  0.1179
  618SOL    HW2 2517   3.489   1.929   4.266  0.7638  1.3040  0.2116
  618SOL    HW3 2518   3.577   1.808   4.286  1.1169  1.1674 -2.0401
  618SOL    MW4 2519   3.560   1.892   4.300  0.6700  0.7839 -0.1545
  619SOL     OW 2520   4.030   2.001   1.048 -0.0403  0.0017 -0.0495
  619SOL    HW2 2521   4.000   1.988   0.957 -0.0479 -1.3121  0.1380
  619SOL    HW3 2522   4.088   1.928   1.065  1.0383  0.9974  0.5688
  619SOL    MW4 2523   4.033   1.990   1.038  0.1006 -0.0403  0.0567
  620SOL     OW 2524   0.505   0.994   3.829  0.1256  0.0793  0.6458
  620SOL    HW2 2525   0.554   0.938   3.770  0.1006 -0.5688  1.2267
  620SOL    HW3 2526   0.569   1.021   3.895  0.0581  0.4608  0.5562
  620SOL    MW4 2527   0.520   0.990   3.830  0.1133  0.0440  0.7105
  621SOL     OW 2528   3.686   0.778   1.210  0.1545 -0.9325  0.1645
  621SOL    HW2 2529   3.730   0.857   1.242 -0.3636  0.2795 -2.0306
  621SOL    HW3 2530   3.755   0.729   1.166  0.4228 -1.6217  1.3201
  621SOL    MW4 2531   3.701   0.782   1.209  0.1214 -0.8636  0.0273
  622SOL     OW 2532   3.827   2.713   3.890  0.2768  0.4733 -0.0842
  622SOL    HW2 2533   3.760   2.673   3.945  1.7130 -0.6650  0.8512
  622SOL    HW3 2534   3.844   2.799   3.930 -0.0764  0.4509  0.1132
  622SOL    MW4 2535   3.821   2.719   3.902  0.4194  0.3200  0.0651
  623SOL     OW 2536   0.453   2.192   1.626 -0.1801  0.1316 -0.1088
  623SOL    HW2 2537   0.481   2.259   1.690  0.5134 -0.3374  0.0904
  623SOL    HW3 2538   0.516   2.201   1.554 -0.1660 -0.2157 -0.1402
  623SOL    MW4 2539   0.465   2.202   1.625 -0.0867  0.0238 -0.0865
  624SOL     OW 2540   3.072   1.411   0.075 -0.0573 -0.1842 -0.5630
  624SOL    HW2 2541   3.131   1.398   0.149 -1.5186 -1.7786  0.3714
  624SOL    HW3 2542   3.010   1.477   0.104  0.9182  1.0955 -1.3449
  624SOL    MW4 2543   3.071   1.418   0.088 -0.1214 -0.2258 -0.5429
  625SOL     OW 2544   0.558   2.081   0.935 -0.2297  0.0398 -0.4917
  625SOL    HW2 2545   0.550   2.175   0.951  2.4433  0.1968  0.1217
  625SOL    HW3 2546   0.583   2.044   1.020  0.1153 -1.0278 -1.0451
  625SOL    MW4 2547   0.560   2.088   0.948  0.1685 -0.0803 -0.4838
  626SOL     OW 2548   2.263   1.621   1.761 -0.0746 -0.2035  0.1344
  626SOL    HW2 2549   2.350   1.593   1.733  1.5706  2.6783  2.0730
  626SOL    HW3 2550   2.221   1.654   1.682  1.1423 -0.3731 -0.5887
  626SOL    MW4 2551   2.269   1.622   1.747  0.3033  0.1543  0.2949
  627SOL     OW 2552   4.228   3.387   2.052  0.0746  0.4792  0.0344
  627SOL    HW2 2553   4.172   3.452   2.095 -0.6890  0.3428 -0.7309
  627SOL    HW3 2554   4.316   3.408   2.082 -0.2400  1.4946  0.2731
  627SOL    MW4 2555   4.232   3.399   2.061 -0.0682  0.5953 -0.0353
  628SOL     OW 2556   1.419   3.027   3.970  0.1875 -0.0610  0.1132
  628SOL    HW2 2557   1.337   3.049   4.015  1.3166 -0.1136  2.2790
  628SOL    HW3 2558   1.434   3.100   3.911 -0.3712  0.9684  1.2127
  628SOL    MW4 2559   1.410   3.040   3.968  0.2629  0.0677  0.5441
  629SOL     OW 2560   1.247   2.159   2.790 -0.5873  0.3063 -0.3205
  629SOL    HW2 2561   1.176   2.097   2.772 -0.0835 -1.6553  3.8603
  629SOL    HW3 2562   1.209   2.244   2.772 -2.7381 -0.9271 -1.9042
  629SOL    MW4 2563   1.232   2.162   2.785 -0.8045 -0.1152  0.0222
  630SOL     OW 2564   0.168   1.323   1.752 -0.2292  0.2771  0.6336
  630SOL    HW2 2565   0.204   1.366   1.675  0.8183 -0.7110  0.5607
  630SOL    HW3 2566   0.077   1.350   1.755  0.0358  1.2659 -0.2799
  630SOL    MW4 2567   0.161   1.332   1.742 -0.0560  0.2773  0.5033
  631SOL     OW 2568   3.222   3.112   4.153  0.0595 -0.0235  0.1092
  631SOL    HW2 2569   3.311   3.092   4.181  0.2019 -0.3822 -0.5771
  631SOL    HW3 2570   3.205   3.200   4.186  1.0357  0.4444 -0.6275
  631SOL    MW4 2571   3.231   3.121   4.161  0.2072 -0.0091 -0.0787
  632SOL     OW 2572   0.407   1.736   0.956  0.2520  0.2077 -0.0750
  632SOL    HW2 2573   0.385   1.827   0.933 -0.7161 -0.2667 -1.0768
  632SOL    HW3 2574   0.359   1.720   1.037 -1.8050 -0.2884 -1.3737
  632SOL    MW4 2575   0.398   1.746   0.964 -0.1472  0.0798 -0.3785
  633SOL     OW 2576   1.099   3.476   1.236  0.3100  0.0042  0.0908
  633SOL    HW2 2577   1.155   3.439   1.304 -1.2029  1.7296  2.3295
  633SOL    HW3 2578   1.155   3.539   1.190  1.0019 -0.3367  0.4683
  633SOL    MW4 2579   1.114   3.480   1.239  0.2017  0.1867  0.4359
  634SOL     OW 2580   4.260   2.885   0.874  0.1773  0.8895  0.1117
  634SOL    HW2 2581   4.247   2.907   0.782 -0.0280  2.2679  0.4617
  634SOL    HW3 2582   4.341   2.835   0.875  0.3785  1.1782 -0.7772
  634SOL    MW4 2583   4.269   2.881   0.862  0.1774  1.1096  0.0406
  635SOL     OW 2584   1.809   1.945   0.839 -0.2419 -0.2472  0.3223
  635SOL    HW2 2585   1.797   1.983   0.926  1.6546  1.8484 -0.2794
  635SOL    HW3 2586   1.742   1.987   0.785  2.3735  3.0849 -0.5349
  635SOL    MW4 2587   1.799   1.956   0.843  0.3535  0.4690  0.1298
  636SOL     OW 2588   0.684   4.568   0.911 -0.0555 -0.3092 -0.2907
  636SOL    HW2 2589   0.772   4.531   0.920 -0.1476 -0.4233  0.1949
  636SOL    HW3 2590   0.698   4.661   0.897  0.2061 -0.6034 -2.1646
  636SOL    MW4 2591   0.697   4.575   0.910 -0.0332 -0.3629 -0.4739
  637SOL     OW 2592   3.786   2.020   3.165 -0.3483 -0.7398  0.0825
  637SOL    HW2 2593   3.802   2.112   3.146  0.1206 -0.2307  2.6796
  637SOL    HW3 2594   3.702   2.019   3.211  0.3823 -1.3910  1.4597
  637SOL    MW4 2595   3.777   2.032   3.169 -0.1900 -0.7589  0.6070
  638SOL     OW 2596   3.668   0.315   1.658  0.1704 -0.3969  0.0637
  638SOL    HW2 2597   3.624   0.235   1.687 -0.7211  0.0463 -0.0618
  638SOL    HW3 2598   3.708   0.350   1.738  0.2808 -0.7882  0.1820
  638SOL    MW4 2599   3.668   0.309   1.673  0.0675 -0.3900  0.0626
  639SOL     OW 2600   0.408   2.400   3.097  0.4514 -0.4362 -0.4033
  639SOL    HW2 2601   0.451   2.415   3.181  1.3348 -2.2758 -0.4930
  639SOL    HW3 2602   0.428   2.478   3.045  1.8886 -0.3257  0.2930
  639SOL    MW4 2603   0.416   2.412   3.101  0.7576 -0.6642 -0.3233
  640SOL     OW 2604   2.581   4.086   2.486  0.3044 -0.1434 -0.3091
  640SOL    HW2 2605   2.663   4.087   2.534  0.4966 -2.4796 -0.5621
  640SOL    HW3 2606   2.514   4.064   2.551  0.2958 -1.2770 -0.6908
  640SOL    MW4 2607   2.583   4.084   2.501  0.3285 -0.6003 -0.3929
  641SOL     OW 2608   3.287   3.828   4.198 -0.1904 -0.1477  0.2575
  641SOL    HW2 2609   3.229   3.868   4.133  0.4382  1.4076  0.6169
  641SOL    HW3 2610   3.268   3.874   4.279  1.7708  0.6557  0.3083
  641SOL    MW4 2611   3.277   3.839   4.200  0.1512  0.1633  0.3119
  642SOL     OW 2612   2.816   3.872   0.747 -0.2203  0.1319 -0.3174
  642SOL    HW2 2613   2.849   3.787   0.776 -1.4373 -0.3395 -0.2766
  642SOL    HW3 2614   2.795   3.859   0.655 -0.5592  0.3329 -0.2697
  642SOL    MW4 2615   2.818   3.859   0.739 -0.4258  0.0966 -0.3057
  643SOL     OW 2616   0.296   0.093   2.835  0.4046 -0.1685  0.1416
  643SOL    HW2 2617   0.347   0.115   2.913  1.8612 -0.0924 -0.7971
  643SOL    HW3 2618   0.210   0.132   2.850  0.7688  0.1079  1.5681
  643SOL    MW4 2619   0.292   0.101   2.847  0.6448 -0.1220  0.2060
  644SOL     OW 2620   2.644   3.643   2.421  0.1237  0.0427 -0.3220
  644SOL    HW2 2621   2.680   3.674   2.504  0.7786  1.9154 -1.2753
  644SOL    HW3 2622   2.632   3.549   2.433  1.7388  0.0260  1.3263
  644SOL    MW4 2623   2.647   3.635   2.433  0.4232  0.2875 -0.2303
  645SOL     OW 2624   2.711   0.405   1.576 -0.2052 -0.3617  0.5618
  645SOL    HW2 2625   2.772   0.476   1.558  0.8125 -1.4656 -0.4575
  645SOL    HW3 2626   2.731   0.339   1.509 -2.7865 -0.5799 -0.0378
  645SOL    MW4 2627   2.722   0.406   1.564 -0.4117 -0.5361  0.3482
  646SOL     OW 2628   4.342   3.387   0.876 -0.4388  0.0143 -0.2401
  646SOL    HW2 2629   4.299   3.410   0.794 -0.5134 -1.6472 -0.6716
  646SOL    HW3 2630   4.280   3.413   0.944 -0.8983  0.2612 -0.7530
  646SOL    MW4 2631   4.328   3.394   0.875 -0.5088 -0.1721 -0.3647
  647SOL     OW 2632   3.241   0.616   1.555 -0.0833 -0.2499  0.0797
  647SOL    HW2 2633   3.259   0.694   1.502 -1.0048 -0.5997 -0.7631
  647SOL    HW3 2634   3.328   0.579   1.571  0.2314 -0.0702 -1.1028
  647SOL    MW4 2635   3.255   0.621   1.550 -0.1631 -0.2724 -0.1876
  648SOL     OW 2636   3.376   4.568   0.276 -0.0219 -0.1876 -0.2263
  648SOL    HW2 2637   3.420   4.504   0.332 -0.5517 -0.6174 -0.2911
  648SOL    HW3 2638   3.436   4.643   0.271  1.0165 -1.0664 -0.9378
  648SOL    MW4 2639   3.390   4.570   0.283  0.0453 -0.3605 -0.3287
  649SOL     OW 2640   0.944   0.626   2.480  0.2953 -0.2329  0.0675
  649SOL    HW2 2641   0.960   0.589   2.567  0.0505 -0.8688 -0.1524
  649SOL    HW3 2642   1.011   0.693   2.470  0.5838 -0.4390  0.5800
  649SOL    MW4 2643   0.955   0.630   2.490  0.3010 -0.3440  0.1061
  650SOL     OW 2644   0.513   1.870   2.264 -0.0998 -0.4815 -0.4078
  650SOL    HW2 2645   0.594   1.922   2.263  0.9155 -2.0343 -1.5978
  650SOL    HW3 2646   0.444   1.935   2.277  1.3563  0.8111  1.2922
  650SOL    MW4 2647   0.515   1.886   2.266  0.2263 -0.5158 -0.3407
  651SOL     OW 2648   2.409   0.857   3.134  0.1444  0.5444  0.5138
  651SOL    HW2 2649   2.457   0.777   3.155 -0.4053 -0.4998 -1.9421
  651SOL    HW3 2650   2.476   0.917   3.103  0.2263 -0.0713 -0.5661
  651SOL    MW4 2651   2.424   0.854   3.132  0.0830  0.3253  0.0474
  652SOL     OW 2652   4.200   3.531   0.424 -0.0093 -0.1377 -0.1781
  652SOL    HW2 2653   4.175   3.624   0.424 -0.7565 -0.3298 -1.1701
  652SOL    HW3 2654   4.295   3.532   0.438  0.0662  0.8040 -0.7255
  652SOL    MW4 2655   4.209   3.544   0.426 -0.0978 -0.0389 -0.3812
  653SOL     OW 2656   1.374   1.395   0.447 -0.0487 -0.0235 -0.1211
  653SOL    HW2 2657   1.373   1.300   0.457 -2.2065  0.0672  0.7795
  653SOL    HW3 2658   1.355   1.409   0.354  1.2988 -0.4880 -0.4706
  653SOL    MW4 2659   1.371   1.384   0.436 -0.1556 -0.0728 -0.0484
  654SOL     OW 2660   3.727   3.534   0.331 -0.0319 -0.3005  0.2402
  654SOL    HW2 2661   3.788   3.551   0.403 -1.4057  2.3893  0.8456
  654SOL    HW3 2662   3.759   3.454   0.291  1.1343 -1.5582  3.4918
  654SOL    MW4 2663   3.739   3.526   0.336 -0.0596 -0.1113  0.7491
  655SOL     OW 2664   3.078   1.963   0.294 -0.2485  0.6202  0.0845
  655SOL    HW2 2665   3.147   1.899   0.279 -0.7069 -0.0855  0.9571
  655SOL    HW3 2666   3.061   1.959   0.388 -1.7161  0.5497 -0.1736
  655SOL    MW4 2667   3.085   1.954   0.304 -0.5023  0.5177  0.1656
  656SOL     OW 2668   1.430   4.647   2.060  0.5297 -0.6499  0.2600
  656SOL    HW2 2669   1.464   4.704   1.991  0.5545 -0.9239  0.0440
  656SOL    HW3 2670   1.463   4.560   2.037 -0.4658 -0.9455 -0.0441
  656SOL    MW4 2671   1.439   4.643   2.048  0.4017 -0.7253  0.1917
  657SOL     OW 2672   1.160   1.702   2.966 -0.0958  0.8173  0.6193
  657SOL    HW2 2673   1.081   1.721   2.914 -0.9912 -0.4067  1.5040
  657SOL    HW3 2674   1.171   1.779   3.021 -0.9830  0.7669  0.8690
  657SOL    MW4 2675   1.151   1.715   2.966 -0.3310  0.6492  0.7691
  658SOL     OW 2676   3.357   1.949   4.114 -0.1070 -0.3692  0.1673
  658SOL    HW2 2677   3.411   1.895   4.056  0.8952  0.7719  0.0443
  658SOL    HW3 2678   3.344   2.031   4.066 -1.6531 -0.4831  0.3449
  658SOL    MW4 2679   3.362   1.953   4.100 -0.1786 -0.2337  0.1745
  659SOL     OW 2680   0.489   1.499   2.734 -0.3068  0.7271 -0.0681
  659SOL    HW2 2681   0.552   1.504   2.806 -0.6834  2.5504  0.1695
  659SOL    HW3 2682   0.404   1.507   2.776 -0.5690  0.9865 -0.6361
  659SOL    MW4 2683   0.486   1.501   2.749 -0.3911  1.0020 -0.1116
  660SOL     OW 2684   2.183   0.651   0.859 -0.6117 -0.3594 -0.0130
  660SOL    HW2 2685   2.103   0.640   0.911 -0.9318  0.9314 -0.2168
  660SOL    HW3 2686   2.173   0.737   0.818  0.6766 -0.3975 -0.4154
  660SOL    MW4 2687   2.171   0.661   0.860 -0.4838 -0.1941 -0.0930
  661SOL     OW 2688   3.748   4.482   2.164  0.6378  0.1963  0.6981
  661SOL    HW2 2689   3.842   4.480   2.182  0.9115 -1.0053 -0.7040
  661SOL    HW3 2690   3.742   4.516   2.074 -0.2457  0.0426  0.6964
  661SOL    MW4 2691   3.759   4.486   2.154  0.5572  0.0172  0.5128
  662SOL     OW 2692   4.304   1.933   1.812 -0.1420  0.1677 -0.2829
  662SOL    HW2 2693   4.241   1.874   1.769  0.7882 -0.1373 -1.2557
  662SOL    HW3 2694   4.384   1.881   1.818  0.0768  0.6236  0.7768
  662SOL    MW4 2695   4.306   1.918   1.807  0.0095  0.1876 -0.2714
  663SOL     OW 2696   1.571   2.071   2.410  0.4179 -0.0020  0.2254
  663SOL    HW2 2697   1.516   2.102   2.482  0.4832  0.0515  0.2532
  663SOL    HW3 2698   1.566   1.976   2.414  0.9068 -0.0088  0.6811
  663SOL    MW4 2699   1.563   2.063   2.420  0.4910  0.0041  0.2892
  664SOL     OW 2700   0.210   3.435   0.473  0.0684 -0.0682 -0.2800
  664SOL    HW2 2701   0.258   3.455   0.393 -0.0132 -1.4148 -0.6793
  664SOL    HW3 2702   0.268   3.465   0.544  0.4969  0.3887 -0.8199
  664SOL    MW4 2703   0.224   3.441   0.472  0.1142 -0.1857 -0.4039
  665SOL     OW 2704   3.327   1.463   1.377  0.0082  0.4213 -0.1097
  665SOL    HW2 2705   3.402   1.506   1.335  0.3364  0.0284  0.0764
  665SOL    HW3 2706   3.268   1.441   1.304  0.4323  0.0245 -0.3352
  665SOL    MW4 2707   3.329   1.466   1.362  0.1075  0.3171 -0.1149
  666SOL     OW 2708   4.234   2.089   2.983 -0.4245  0.5766  0.1841
  666SOL    HW2 2709   4.195   2.010   3.021 -1.3863  0.2897 -1.3539
  666SOL    HW3 2710   4.214   2.083   2.889  2.5552  0.8734 -0.5191
  666SOL    MW4 2711   4.226   2.078   2.976 -0.1578  0.5779 -0.1116
  667SOL     OW 2712   2.953   0.378   1.261 -0.4778 -0.2428  0.0955
  667SOL    HW2 2713   3.040   0.373   1.300 -1.1648  0.6345  1.8077
  667SOL    HW3 2714   2.961   0.332   1.177  1.7896  0.4593 -0.0921
  667SOL    MW4 2715   2.966   0.371   1.255 -0.2692 -0.0344  0.2967
  668SOL     OW 2716   1.914   4.187   0.582  0.0170  0.2463  0.7296
  668SOL    HW2 2717   1.959   4.259   0.537 -1.1256 -0.0462 -0.9367
  668SOL    HW3 2718   1.971   4.111   0.567 -0.6447  0.0256 -0.7697
  668SOL    MW4 2719   1.928   4.186   0.574 -0.2211  0.1788  0.3119
  669SOL     OW 2720   1.340   1.789   0.449  0.1274 -0.2126  0.2292
  669SOL    HW2 2721   1.337   1.884   0.444  2.1714 -0.1419 -0.0371
  669SOL    HW3 2722   1.268   1.766   0.508 -1.6567  1.3312 -1.2825
  669SOL    MW4 2723   1.330   1.798   0.456  0.1618  0.0005 -0.0054
  670SOL     OW 2724   0.972   3.781   3.699 -0.2660  0.2644 -0.1755
  670SOL    HW2 2725   0.951   3.868   3.664 -1.2424  0.1982  0.2303
  670SOL    HW3 2726   0.992   3.729   3.621 -1.6879  0.3186 -0.5990
  670SOL    MW4 2727   0.972   3.786   3.684 -0.5824  0.2627 -0.1779
  671SOL     OW 2728   4.118   2.988   1.876  0.3317 -0.3296  0.2031
  671SOL    HW2 2729   4.186   2.934   1.835  1.3328  1.3960 -0.4179
  671SOL    HW3 2730   4.156   3.012   1.961  1.1003  1.8130 -0.7297
  671SOL    MW4 2731   4.132   2.984   1.882  0.5655  0.1807 -0.0019
  672SOL     OW 2732   1.569   3.044   1.255  0.1252 -0.0341  0.5258
  672SOL    HW2 2733   1.566   3.029   1.161 -1.4171  0.4509  0.4778
  672SOL    HW3 2734   1.643   2.992   1.286 -0.8792 -2.2042 -0.5948
  672SOL    MW4 2735   1.578   3.035   1.247 -0.2109 -0.2565  0.3716
  673SOL     OW 2736   0.469   4.442   3.418 -0.3181  0.3255 -0.0679
  673SOL    HW2 2737   0.428   4.408   3.498  1.5349 -1.3904  0.1866
  673SOL    HW3 2738   0.538   4.500   3.450  1.2577 -1.3570 -0.4020
  673SOL    MW4 2739   0.473   4.445   3.433  0.1343 -0.1230 -0.0782
  674SOL     OW 2740   0.084   3.672   2.977  0.0684  0.1241  0.0084
  674SOL    HW2 2741   0.082   3.589   3.023  0.5016  0.0917 -0.0314
  674SOL    HW3 2742   0.150   3.724   3.022 -1.9599  1.3845  1.6218
  674SOL    MW4 2743   0.092   3.668   2.989 -0.1421  0.2861  0.2160
  675SOL     OW 2744   2.636   3.452   3.320 -0.0330 -0.4059  0.3024
  675SOL    HW2 2745   2.584   3.454   3.240  1.5070  0.1808 -0.7226
  675SOL    HW3 2746   2.675   3.539   3.326 -0.3332 -0.3533  1.8473
  675SOL    MW4 2747   2.635   3.463   3.311  0.1307 -0.3214  0.3710
  676SOL     OW 2748   1.086   3.280   3.606  0.2544 -0.0278  0.4599
  676SOL    HW2 2749   1.134   3.197   3.609  0.8600  0.2628 -0.7822
  676SOL    HW3 2750   1.152   3.347   3.623  0.2077  0.3392 -0.7664
  676SOL    MW4 2751   1.101   3.278   3.608  0.3282  0.0591  0.1342
  677SOL     OW 2752   3.533   0.996   1.477  0.4250 -0.2296 -0.7827
  677SOL    HW2 2753   3.496   1.084   1.488  1.4771  0.3173 -1.4901
  677SOL    HW3 2754   3.582   1.001   1.395  0.3228 -1.5448 -0.9342
  677SOL    MW4 2755   3.535   1.009   1.468  0.5500 -0.3310 -0.8960
  678SOL     OW 2756   0.824   0.480   4.126 -0.0322 -0.0806 -0.0794
  678SOL    HW2 2757   0.746   0.434   4.155 -0.4523  1.3208  1.0660
  678SOL    HW3 2758   0.828   0.559   4.180  1.5898  0.4039 -0.8432
  678SOL    MW4 2759   0.815   0.484   4.137  0.1263  0.1683 -0.0291
  679SOL     OW 2760   0.098   2.256   2.871  0.1136  0.1896  0.1819
  679SOL    HW2 2761   0.172   2.300   2.829 -0.2023  0.9847  0.4376
  679SOL    HW3 2762   0.086   2.175   2.822  1.1961  0.0246  0.1801
  679SOL    MW4 2763   0.106   2.251   2.859  0.2147  0.2728  0.2155
  680SOL     OW 2764   3.129   3.166   2.940  0.4188  0.5241  0.0593
  680SOL    HW2 2765   3.092   3.234   2.884  1.1535 -0.1431 -1.2546
  680SOL    HW3 2766   3.218   3.195   2.958  0.0906  0.8905  1.1659
  680SOL    MW4 2767   3.136   3.178   2.935  0.4728  0.4845  0.0317
  681SOL     OW 2768   0.667   1.643   1.003  0.1427 -0.0079 -0.1107
  681SOL    HW2 2769   0.663   1.550   0.982  1.2754 -0.5401  1.8828
  681SOL    HW3 2770   0.582   1.678   0.976 -1.0700 -2.0425  0.9436
  681SOL    MW4 2771   0.656   1.635   0.997  0.1321 -0.3465  0.2915
  682SOL     OW 2772   3.837   2.307   3.051  0.5744 -0.1864 -0.2737
  682SOL    HW2 2773   3.814   2.398   3.033 -0.2979 -0.2481  0.5229
  682SOL    HW3 2774   3.933   2.307   3.054  0.6253  0.4620 -1.5023
  682SOL    MW4 2775   3.847   2.319   3.049  0.4661 -0.1092 -0.3307
  683SOL     OW 2776   2.683   0.543   2.701 -0.0473  0.1222  0.9281
  683SOL    HW2 2777   2.665   0.637   2.691  0.3089  0.0957 -0.0137
  683SOL    HW3 2778   2.605   0.508   2.745  0.1894  1.0073  2.0847
  683SOL    MW4 2779   2.670   0.551   2.705  0.0308  0.2354  0.9568
  684SOL     OW 2780   1.568   1.482   2.983 -0.2189 -0.0044  0.0370
  684SOL    HW2 2781   1.589   1.404   2.932  0.2602  0.3868 -0.3590
  684SOL    HW3 2782   1.528   1.447   3.063 -1.3261 -0.6002 -0.7575
  684SOL    MW4 2783   1.566   1.467   2.987 -0.3017 -0.0314 -0.1199
  685SOL     OW 2784   1.813   4.418   2.756 -0.4871  0.9317 -0.2481
  685SOL    HW2 2785   1.870   4.358   2.804 -0.3696  1.2703  0.0350
  685SOL    HW3 2786   1.839   4.505   2.786 -0.2428  1.1586 -1.1051
  685SOL    MW4 2787   1.824   4.422   2.766 -0.4394  1.0061 -0.3242
  686SOL     OW 2788   3.535   4.281   2.632 -0.3121  0.0809 -0.3330
  686SOL    HW2 2789   3.484   4.250   2.707  0.6700  0.4200  0.4839
  686SOL    HW3 2790   3.586   4.205   2.604  0.3303  0.3209  0.1878
  686SOL    MW4 2791   3.535   4.267   2.638 -0.0975  0.1569 -0.1564
  687SOL     OW 2792   4.127   3.548   3.880 -0.0881 -0.0190  0.0596
  687SOL    HW2 2793   4.175   3.556   3.798  0.0713 -0.0893  0.1464
  687SOL    HW3 2794   4.038   3.575   3.858  0.1953  0.9822  0.1050
  687SOL    MW4 2795   4.122   3.553   3.866 -0.0300  0.1040  0.0770
  688SOL     OW 2796   2.390   2.941   1.279 -0.7671 -0.1165  0.3272
  688SOL    HW2 2797   2.318   2.893   1.239  0.1259 -1.7062  0.5804
  688SOL    HW3 2798   2.367   2.948   1.371 -0.0968 -1.6004  0.6193
  688SOL    MW4 2799   2.377   2.936   1.286 -0.5608 -0.5221  0.3991
  689SOL     OW 2800   1.089   2.521   2.474 -0.4639  0.7628  0.4421
  689SOL    HW2 2801   1.120   2.604   2.511  2.9231 -0.4813  0.6072
  689SOL    HW3 2802   1.055   2.473   2.549 -0.5553  1.1899  0.6772
  689SOL    MW4 2803   1.089   2.526   2.489 -0.0291  0.6549  0.4947
  690SOL     OW 2804   3.720   0.970   0.465 -0.4163 -0.5939 -0.3470
  690SOL    HW2 2805   3.772   0.890   0.457 -0.3122 -0.5622  0.0158
  690SOL    HW3 2806   3.719   1.007   0.377  0.2632 -0.5382 -0.3324
  690SOL    MW4 2807   3.727   0.964   0.452 -0.3128 -0.5824 -0.2972
  691SOL     OW 2808   0.656   1.162   3.403  0.5583  0.1743  0.2181
  691SOL    HW2 2809   0.620   1.078   3.430 -0.2550 -0.0460 -1.4630
  691SOL    HW3 2810   0.585   1.224   3.417  0.3812  0.1823 -0.7060
  691SOL    MW4 2811   0.642   1.159   3.408  0.4277  0.1463 -0.1259
  692SOL     OW 2812   4.238   0.144   1.643 -0.2180  0.3006 -0.3831
  692SOL    HW2 2813   4.147   0.137   1.615 -0.0894 -0.4403 -0.6196
  692SOL    HW3 2814   4.262   0.235   1.625 -0.8211  0.4191 -0.5834
  692SOL    MW4 2815   4.230   0.155   1.637 -0.2809  0.2185 -0.4406
  693SOL     OW 2816   2.683   0.387   1.881 -0.6207  0.1196  0.3686
  693SOL    HW2 2817   2.718   0.403   1.793  3.2861  1.2738  2.0453
  693SOL    HW3 2818   2.668   0.293   1.883  2.1979 -0.4155 -0.5899
  693SOL    MW4 2819   2.686   0.377   1.870  0.2666  0.2013  0.4634
  694SOL     OW 2820   1.135   2.806   0.766 -0.2897 -0.3706 -0.4208
  694SOL    HW2 2821   1.054   2.765   0.735 -0.1148 -1.5684  0.6721
  694SOL    HW3 2822   1.191   2.810   0.689 -1.5031  0.7817 -1.2727
  694SOL    MW4 2823   1.132   2.801   0.752 -0.4268 -0.3767 -0.3890
  695SOL     OW 2824   3.949   3.182   1.786 -0.4740 -0.1572 -0.0404
  695SOL    HW2 2825   4.011   3.110   1.800 -0.7054 -0.7956 -2.0662
  695SOL    HW3 2826   4.005   3.259   1.777 -0.0048 -0.5719 -0.8419
  695SOL    MW4 2827   3.965   3.183   1.787 -0.4427 -0.2961 -0.4135
  696SOL     OW 2828   3.309   1.147   2.798 -0.3518  0.3265  0.4035
  696SOL    HW2 2829   3.221   1.183   2.815 -0.9316 -0.9416  0.1769
  696SOL    HW3 2830   3.300   1.102   2.714  0.4547 -0.0619  0.5258
  696SOL    MW4 2831   3.296   1.146   2.789 -0.3219  0.1081  0.3898
  697SOL     OW 2832   3.453   4.640   1.330 -0.1027 -0.2197  0.0427
  697SOL    HW2 2833   3.413   4.676   1.251 -0.6396  0.7390  0.7539
  697SOL    HW3 2834   3.545   4.667   1.324 -0.0451 -0.5104 -0.4592
  697SOL    MW4 2835   3.460   4.648   1.318 -0.1659 -0.1316  0.0705
  698SOL     OW 2836   4.452   1.503   2.455  0.4077 -0.0032 -0.2975
  698SOL    HW2 2837   4.409   1.564   2.515  1.0138 -0.1618  0.3036
  698SOL    HW3 2838   4.454   1.420   2.503  0.6569 -0.1953 -0.6388
  698SOL    MW4 2839   4.447   1.500   2.469  0.5207 -0.0494 -0.2635
  699SOL     OW 2840   2.433   1.563   0.703  0.2907 -0.1873  0.4953
  699SOL    HW2 2841   2.346   1.603   0.711  0.2785  0.0494 -0.7319
  699SOL    HW3 2842   2.492   1.626   0.745  0.1381  0.6397 -0.5140
  699SOL    MW4 2843   2.429   1.577   0.710  0.2687 -0.0470  0.2002
  700SOL     OW 2844   3.504   4.647   2.764 -0.0763 -0.2850 -0.5026
  700SOL    HW2 2845   3.582   4.592   2.753  0.1082 -0.0076 -0.5833
  700SOL    HW3 2846   3.494   4.691   2.680  0.8576  1.2155  0.1403
  700SOL    MW4 2847   3.513   4.645   2.752  0.0713 -0.0505 -0.4280
  701SOL     OW 2848   1.595   0.732   3.069 -0.4149 -0.4885  0.3222
  701SOL    HW2 2849   1.542   0.812   3.071  0.4637  0.0750  1.3347
  701SOL    HW3 2850   1.536   0.666   3.034 -1.4198  0.4073  0.2898
  701SOL    MW4 2851   1.580   0.734   3.064 -0.4315 -0.2959  0.4516
  702SOL     OW 2852   2.662   0.837   3.372  0.3992 -0.3101  0.5155
  702SOL    HW2 2853   2.748   0.872   3.350  0.6883 -0.3681  1.5618
  702SOL    HW3 2854   2.609   0.914   3.391 -0.7830  0.0091 -3.5070
  702SOL    MW4 2855   2.666   0.852   3.372  0.2816 -0.2756  0.1230
  703SOL     OW 2856   1.634   4.605   3.533  0.3171 -0.1273  0.4151
  703SOL    HW2 2857   1.608   4.533   3.590 -0.1218  0.7744  1.3545
  703SOL    HW3 2858   1.730   4.604   3.535  0.3098 -0.6825  0.4252
  703SOL    MW4 2859   1.643   4.595   3.540  0.2582 -0.0815  0.5403
  704SOL     OW 2860   2.863   4.063   1.868 -0.1197 -0.2717  0.0228
  704SOL    HW2 2861   2.857   4.151   1.830 -0.9229 -0.1940  0.3134
  704SOL    HW3 2862   2.794   4.061   1.935  0.1002 -1.0147  0.2342
  704SOL    MW4 2863   2.853   4.074   1.872 -0.1967 -0.3595  0.0890
  705SOL     OW 2864   2.986   2.763   3.990  0.4094 -0.3802 -0.5711
  705SOL    HW2 2865   3.056   2.701   4.014  0.9944 -0.2056 -1.7982
  705SOL    HW3 2866   3.032   2.840   3.958 -0.3461 -0.3287 -1.5622
  705SOL    MW4 2867   3.002   2.765   3.989  0.3867 -0.3505 -0.8638
  706SOL     OW 2868   1.965   0.223   3.746  0.1774 -0.3000  0.2421
  706SOL    HW2 2869   1.936   0.304   3.703 -0.0379 -0.0775  0.7929
  706SOL    HW3 2870   1.954   0.241   3.840 -0.9304 -1.3765  0.3285
  706SOL    MW4 2871   1.960   0.236   3.753  0.0029 -0.4126  0.3262
  707SOL     OW 2872   3.510   3.847   0.623  0.3716  0.1406  0.1138
  707SOL    HW2 2873   3.431   3.807   0.659  1.3626 -0.4138  1.7108
  707SOL    HW3 2874   3.500   3.940   0.640  0.9894 -0.1465  2.1894
  707SOL    MW4 2875   3.498   3.854   0.630  0.5839  0.0296  0.5983
  708SOL     OW 2876   0.511   3.801   1.905 -0.6882  0.1583  0.7672
  708SOL    HW2 2877   0.548   3.714   1.892  0.8250  0.6824  1.4371
  708SOL    HW3 2878   0.537   3.850   1.828 -1.6434 -0.0056  0.3336
  708SOL    MW4 2879   0.519   3.796   1.893 -0.6146  0.2058  0.7983
  709SOL     OW 2880   1.065   2.796   2.149 -0.1090 -0.2620  0.0252
  709SOL    HW2 2881   1.020   2.729   2.201  1.0140 -0.3193  0.9530
  709SOL    HW3 2882   1.146   2.753   2.121 -0.3618  0.0218 -1.1387
  709SOL    MW4 2883   1.070   2.781   2.153  0.0058 -0.2320 -0.0057
  710SOL     OW 2884   3.792   0.436   1.163 -0.5593 -0.2795  0.2370
  710SOL    HW2 2885   3.729   0.467   1.098 -1.2928 -1.8581  0.1533
  710SOL    HW3 2886   3.738   0.401   1.234  0.2324  0.5202  1.2444
  710SOL    MW4 2887   3.776   0.435   1.163 -0.5517 -0.3823  0.3589
  711SOL     OW 2888   1.316   0.971   2.528 -0.0807  0.1336  0.2731
  711SOL    HW2 2889   1.239   0.924   2.497  1.3341 -2.5347  0.5751
  711SOL    HW3 2890   1.317   0.954   2.623 -0.4629  2.2422  0.6820
  711SOL    MW4 2891   1.306   0.962   2.537  0.0556  0.0598  0.3672
  712SOL     OW 2892   1.218   1.221   2.492  0.0968  0.0853 -0.0650
  712SOL    HW2 2893   1.235   1.135   2.529  0.0943 -0.0037 -0.2711
  712SOL    HW3 2894   1.268   1.281   2.547  1.3929 -0.2068 -0.9043
  712SOL    MW4 2895   1.226   1.218   2.505  0.2675  0.0350 -0.2031
  713SOL     OW 2896   1.752   1.810   0.069  0.1087 -0.2780 -0.8935
  713SOL    HW2 2897   1.768   1.900   0.097 -0.5681  0.1132 -1.7472
  713SOL    HW3 2898   1.660   1.809   0.042 -0.2844 -1.5638  0.3847
  713SOL    MW4 2899   1.742   1.822   0.069 -0.0324 -0.3960 -0.8375
  714SOL     OW 2900   2.888   4.535   1.972 -0.0112 -0.0306 -0.2413
  714SOL    HW2 2901   2.895   4.612   1.916  2.4573 -0.0323 -0.0083
  714SOL    HW3 2902   2.861   4.465   1.913  0.2412  0.4715 -0.9698
  714SOL    MW4 2903   2.886   4.536   1.957  0.3479  0.0353 -0.3066
  715SOL     OW 2904   0.572   2.542   2.447  0.2006 -0.0382 -0.0866
  715SOL    HW2 2905   0.547   2.611   2.508  0.7740  1.2168 -1.2408
  715SOL    HW3 2906   0.567   2.584   2.361 -0.2872 -1.6922 -0.8676
  715SOL    MW4 2907   0.568   2.557   2.444  0.2118 -0.0908 -0.3417
  716SOL     OW 2908   4.060   2.118   1.413 -0.0725 -0.3376 -0.0160
  716SOL    HW2 2909   4.019   2.202   1.394  2.4377  0.6417 -1.2118
  716SOL    HW3 2910   4.080   2.122   1.507  0.6181  0.6506 -0.2031
  716SOL    MW4 2911   4.057   2.130   1.423  0.3495 -0.0780 -0.1984
  717SOL     OW 2912   1.545   0.660   1.986 -0.2935 -0.0508  0.1365
  717SOL    HW2 2913   1.549   0.748   2.025  0.6516  0.6584 -1.5067
  717SOL    HW3 2914   1.469   0.663   1.929  0.8498  0.3384 -1.3912
  717SOL    MW4 2915   1.536   0.672   1.984 -0.0180  0.0941 -0.2819
  718SOL     OW 2916   3.159   4.099   1.759 -0.1481  0.1761  0.0199
  718SOL    HW2 2917   3.129   4.022   1.807 -0.7738 -0.3623 -1.2270
  718SOL    HW3 2918   3.176   4.164   1.827 -0.4379 -0.7755  1.0149
  718SOL    MW4 2919   3.158   4.097   1.775 -0.2692 -0.0210 -0.0132
  719SOL     OW 2920   1.744   3.123   2.793  0.6480 -0.1372  0.1101
  719SOL    HW2 2921   1.650   3.139   2.799  0.5408 -0.7594  0.1274
  719SOL    HW3 2922   1.752   3.028   2.782  1.2376  0.0164 -0.8508
  719SOL    MW4 2923   1.733   3.112   2.793  0.7116 -0.1988 -0.0145
  720SOL     OW 2924   0.458   1.162   4.180 -0.3428  0.2932 -0.3190
  720SOL    HW2 2925   0.492   1.251   4.177 -0.2551  0.2667 -0.0982
  720SOL    HW3 2926   0.383   1.166   4.239  1.0230 -0.2371  1.5182
  720SOL    MW4 2927   0.453   1.174   4.187 -0.1510  0.2198 -0.0472
  721SOL     OW 2928   0.062   1.767   0.898 -0.4069  0.1889 -0.3643
  721SOL    HW2 2929   0.022   1.704   0.958 -1.2434 -0.8298 -1.9711
  721SOL    HW3 2930   0.051   1.852   0.941 -0.9470 -0.5310  0.9355
  721SOL    MW4 2931   0.055   1.770   0.912 -0.5885 -0.0405 -0.4048
  722SOL     OW 2932   0.598   3.033   3.197 -0.6737  0.2313 -0.2836
  722SOL    HW2 2933   0.591   3.113   3.250 -0.5378  1.3563 -1.9147
  722SOL    HW3 2934   0.541   2.970   3.241  0.2652  0.7808  1.7917
  722SOL    MW4 2935   0.590   3.036   3.210 -0.5320  0.4525 -0.2251
  723SOL     OW 2936   1.386   2.506   2.706  0.2950  0.2967  0.5597
  723SOL    HW2 2937   1.432   2.589   2.722 -0.5860  0.8068  0.4555
  723SOL    HW3 2938   1.323   2.500   2.778 -0.6681  0.4563 -0.2600
  723SOL    MW4 2939   1.384   2.516   2.718  0.0517  0.3850  0.4377
  724SOL     OW 2940   3.193   2.740   2.005 -0.2535 -0.8034 -0.1766
  724SOL    HW2 2941   3.165   2.660   1.960  0.4011 -0.4115 -1.2883
  724SOL    HW3 2942   3.117   2.798   1.999 -0.3619 -0.9571 -0.2971
  724SOL    MW4 2943   3.179   2.737   1.998 -0.1814 -0.7720 -0.3393
  725SOL     OW 2944   0.855   1.723   3.633 -0.0832 -0.1932 -0.0945
  725SOL    HW2 2945   0.880   1.812   3.607  1.3696 -0.5246  0.1417
  725SOL    HW3 2946   0.937   1.681   3.659 -0.5137 -2.1308 -1.7429
  725SOL    MW4 2947   0.869   1.729   3.633  0.0516 -0.4927 -0.2806
  726SOL     OW 2948   0.257   0.102   2.462 -0.3816  0.5732  0.1378
  726SOL    HW2 2949   0.292   0.124   2.376  0.2725  0.2165  0.3102
  726SOL    HW3 2950   0.303   0.159   2.522  0.6122 -0.5563  0.4714
  726SOL    MW4 2951   0.267   0.112   2.458 -0.1642  0.3771  0.2048
  727SOL     OW 2952   4.411   1.024   2.223  0.5272  0.2205  0.6760
  727SOL    HW2 2953   4.382   0.934   2.206 -0.3463  0.6707 -0.2700
  727SOL    HW3 2954   4.501   1.026   2.191  0.2335 -0.0607 -0.1908
  727SOL    MW4 2955   4.419   1.012   2.217  0.3729  0.2427  0.4368
  728SOL     OW 2956   0.667   2.811   2.854 -0.1741  0.1659  0.2091
  728SOL    HW2 2957   0.632   2.817   2.766  2.4266  3.1313 -0.7108
  728SOL    HW3 2958   0.628   2.885   2.901  0.2873  0.0190  0.8452
  728SOL    MW4 2959   0.657   2.822   2.849  0.2299  0.5379  0.1717
  729SOL     OW 2960   0.395   2.933   3.842  0.4251 -0.2845  0.3681
  729SOL    HW2 2961   0.331   2.873   3.881 -0.8367  0.7339 -0.0891
  729SOL    HW3 2962   0.448   2.963   3.916 -0.8939  0.3615  1.0759
  729SOL    MW4 2963   0.393   2.929   3.857  0.0846 -0.0651  0.4013
  730SOL     OW 2964   2.222   2.599   3.634 -0.0721  0.3534  0.3852
  730SOL    HW2 2965   2.168   2.666   3.592  0.9467  0.4412 -0.8044
  730SOL    HW3 2966   2.260   2.549   3.562 -0.7630 -1.4879  1.2586
  730SOL    MW4 2967   2.220   2.601   3.619 -0.0286  0.1223  0.3433
  731SOL     OW 2968   2.450   3.950   1.344  0.4371 -0.1397  0.4812
  731SOL    HW2 2969   2.382   3.975   1.407  1.1510 -0.7184  1.4971
  731SOL    HW3 2970   2.466   4.029   1.293  0.5035  0.6122  1.6357
  731SOL    MW4 2971   2.443   3.963   1.346  0.5403 -0.1168  0.7676
  732SOL     OW 2972   2.471   3.405   3.549 -0.6004 -0.0789  0.1219
  732SOL    HW2 2973   2.497   3.322   3.589 -0.5995 -0.3050 -0.3366
  732SOL    HW3 2974   2.513   3.403   3.462  1.0316  1.2719  0.8479
  732SOL    MW4 2975   2.480   3.394   3.543 -0.3846  0.0694  0.1571
  733SOL     OW 2976   0.085   0.885   2.740  0.4196 -0.2220  0.0650
  733SOL    HW2 2977   0.086   0.803   2.691  0.2844  0.1239 -0.5236
  733SOL    HW3 2978   0.134   0.946   2.685 -1.6481  0.7799 -0.7400
  733SOL    MW4 2979   0.091   0.882   2.726  0.1290 -0.0442 -0.1187
  734SOL     OW 2980   1.468   1.574   2.244 -0.1074 -0.1852  0.1082
  734SOL    HW2 2981   1.396   1.600   2.186 -0.0105 -0.9116 -0.3419
  734SOL    HW3 2982   1.542   1.558   2.185  0.8365  1.9062  0.6861
  734SOL    MW4 2983   1.468   1.576   2.228  0.0298 -0.0051  0.1249
  735SOL     OW 2984   2.741   2.217   0.419  0.0329  0.2930  0.1099
  735SOL    HW2 2985   2.700   2.301   0.400  0.5076  0.8084  1.3198
  735SOL    HW3 2986   2.806   2.236   0.487  2.7995 -0.3897 -2.2802
  735SOL    MW4 2987   2.744   2.230   0.426  0.4606  0.2708 -0.0458
  736SOL     OW 2988   0.074   2.188   1.311 -0.5229  0.4329 -0.6541
  736SOL    HW2 2989   0.116   2.103   1.296 -0.8825  0.1747 -0.1969
  736SOL    HW3 2990  -0.020   2.172   1.298 -0.3897  1.2786 -2.8980
  736SOL    MW4 2991   0.067   2.175   1.307 -0.5528  0.5105 -0.8898
  737SOL     OW 2992   3.354   3.778   3.371 -0.4109  0.6892 -0.5666
  737SOL    HW2 2993   3.311   3.863   3.362  0.2136  1.0111 -0.5488
  737SOL    HW3 2994   3.363   3.766   3.466  0.6560  1.2021 -0.5889
  737SOL    MW4 2995   3.350   3.788   3.382 -0.1876  0.7992 -0.5672
  738SOL     OW 2996   1.640   0.537   0.832  0.4687 -0.5778  0.1568
  738SOL    HW2 2997   1.692   0.466   0.795  1.6141  0.0904  0.4605
  738SOL    HW3 2998   1.552   0.523   0.797  1.1202 -1.0239 -1.3546
  738SOL    MW4 2999   1.635   0.526   0.822  0.7058 -0.5485 -0.0026
  739SOL     OW 3000   3.981   2.109   3.826  0.0842 -0.1617  0.8018
  739SOL    HW2 3001   3.902   2.068   3.863  0.2640 -0.1209  1.2308
  739SOL    HW3 3002   3.972   2.096   3.732 -0.0393 -0.8748  0.9066
  739SOL    MW4 3003   3.969   2.102   3.818  0.0916 -0.2503  0.8721
  740SOL     OW 3004   3.438   1.858   0.902  0.7839 -0.2205  0.0082
  740SOL    HW2 3005   3.425   1.898   0.988 -0.1996 -0.0118 -0.2280
  740SOL    HW3 3006   3.490   1.921   0.852  0.1974  0.2593  0.0064
  740SOL    MW4 3007   3.443   1.871   0.907  0.5767 -0.1296 -0.0232
  741SOL     OW 3008   2.805   1.932   1.088 -0.1511 -0.1395 -0.4969
  741SOL    HW2 3009   2.737   1.866   1.076 -1.5014  0.8571  1.4145
  741SOL    HW3 3010   2.881   1.883   1.120 -1.2864 -0.7421  1.3652
  741SOL    MW4 3011   2.806   1.917   1.091 -0.4792 -0.0874  0.0010
  742SOL     OW 3012   1.834   1.805   4.120 -0.1963  0.3388  0.1025
  742SOL    HW2 3013   1.886   1.786   4.198 -1.1463  0.3610  0.7490
  742SOL    HW3 3014   1.879   1.757   4.050  1.7876  1.8876  0.2613
  742SOL    MW4 3015   1.847   1.796   4.121 -0.0600  0.5461  0.2089
  743SOL     OW 3016   1.187   2.085   0.137 -0.2008 -0.0421  0.6146
  743SOL    HW2 3017   1.122   2.014   0.132  0.9458 -1.1094  0.5173
  743SOL    HW3 3018   1.138   2.161   0.167 -1.8456 -0.4050 -1.0790
  743SOL    MW4 3019   1.172   2.085   0.140 -0.2667 -0.2306  0.3783
  744SOL     OW 3020   0.155   2.408   1.185  0.6790  0.2521  0.2402
  744SOL    HW2 3021   0.132   2.474   1.250 -0.0133  0.6145 -0.3652
  744SOL    HW3 3022   0.121   2.326   1.221  1.3572  0.2527  0.8955
  744SOL    MW4 3023   0.147   2.406   1.198  0.6771  0.2999  0.2468
  745SOL     OW 3024   3.591   0.438   0.949  0.6151 -0.0512 -0.1624
  745SOL    HW2 3025   3.524   0.450   0.881  0.5420  1.4378  0.1691
  745SOL    HW3 3026   3.612   0.345   0.945  0.3302 -0.0512 -1.9752
  745SOL    MW4 3027   3.585   0.427   0.939  0.5679  0.1452 -0.3579
  746SOL     OW 3028   2.924   3.578   1.154  0.3172 -0.0943  0.0361
  746SOL    HW2 3029   2.915   3.575   1.058 -0.8313  0.7429  0.1037
  746SOL    HW3 3030   2.835   3.568   1.186  0.6216  0.2884  1.0062
  746SOL    MW4 3031   2.911   3.577   1.145  0.2055  0.0668  0.1731
  747SOL     OW 3032   1.669   3.906   3.169  0.2254 -0.2747  0.5243
  747SOL    HW2 3033   1.586   3.895   3.122  0.8348  1.0329 -0.8861
  747SOL    HW3 3034   1.648   3.966   3.241  0.0682  0.5628 -0.2078
  747SOL    MW4 3035   1.655   3.913   3.172  0.2849  0.0081  0.2415
  748SOL     OW 3036   2.974   0.818   1.206 -0.4619  0.2386 -0.1538
  748SOL    HW2 3037   3.017   0.880   1.266 -1.4244 -0.1771  0.9928
  748SOL    HW3 3038   2.907   0.871   1.162 -0.2690  0.3736 -0.2819
  748SOL    MW4 3039   2.971   0.833   1.208 -0.5634  0.2016 -0.0193
  749SOL     OW 3040   3.271   0.754   2.267 -0.4667 -0.4930  0.4861
  749SOL    HW2 3041   3.257   0.768   2.361  0.6299 -0.8364  0.6996
  749SOL    HW3 3042   3.330   0.824   2.240  0.9026 -1.6446  0.4858
  749SOL    MW4 3043   3.277   0.765   2.276 -0.1416 -0.6902  0.5143
  750SOL     OW 3044   0.112   3.021   1.247  0.3338 -0.1598  0.0003
  750SOL    HW2 3045   0.030   2.983   1.215  0.4973 -0.6994  0.2137
  750SOL    HW3 3046   0.154   3.057   1.169 -0.0276 -0.0334 -0.1364
  750SOL    MW4 3047   0.107   3.021   1.232  0.3077 -0.2143  0.0105
  751SOL     OW 3048   0.374   1.069   1.899  0.3411  0.5017  0.3620
  751SOL    HW2 3049   0.418   0.988   1.927  0.8633  0.5612 -0.2842
  751SOL    HW3 3050   0.286   1.062   1.936  0.4835 -0.2222  0.5742
  751SOL    MW4 3051   0.369   1.057   1.908  0.4287  0.4138  0.3046
  752SOL     OW 3052   3.612   3.318   2.266 -0.0985  0.1766  0.2077
  752SOL    HW2 3053   3.613   3.292   2.358 -1.7476 -0.3384  0.0974
  752SOL    HW3 3054   3.556   3.254   2.223  0.1626  0.7655 -1.0558
  752SOL    MW4 3055   3.605   3.306   2.272 -0.2816  0.1864  0.0265
  753SOL     OW 3056   1.912   1.352   2.684 -0.0237  0.4074  0.1643
  753SOL    HW2 3057   1.964   1.362   2.604 -1.1623 -2.9792 -1.0865
  753SOL    HW3 3058   1.964   1.295   2.740  0.1547  1.6586  1.2749
  753SOL    MW4 3059   1.926   1.346   2.681 -0.1504  0.1255  0.1459
  754SOL     OW 3060   0.015   3.232   2.899  0.2817 -0.1261  0.1216
  754SOL    HW2 3061  -0.003   3.297   2.967  0.7727 -0.4552  0.5652
  754SOL    HW3 3062   0.006   3.281   2.817 -0.5951  0.2032  0.4016
  754SOL    MW4 3063   0.011   3.247   2.897  0.2308 -0.1261  0.2172
  755SOL     OW 3064   2.814   4.360   2.765  0.6185 -0.0757 -0.0947
  755SOL    HW2 3065   2.791   4.440   2.813 -0.6085 -1.2484  1.2965
  755SOL    HW3 3066   2.825   4.390   2.675  0.8418  1.7866  0.5108
  755SOL    MW4 3067   2.812   4.375   2.759  0.4861  0.0162  0.1688
  756SOL     OW 3068   2.546   0.771   4.017 -0.0236 -0.4627  0.2226
  756SOL    HW2 3069   2.576   0.688   4.055  0.2802 -0.6888 -0.4968
  756SOL    HW3 3070   2.611   0.790   3.949  0.4391  0.8617  1.0283
  756SOL    MW4 3071   2.559   0.762   4.013  0.0775 -0.3178  0.2337
  757SOL     OW 3072   4.077   2.969   2.312  0.9361 -0.5021 -0.1650
  757SOL    HW2 3073   4.101   2.983   2.404 -0.5769  0.8609  0.0557
  757SOL    HW3 3074   4.143   3.018   2.262  0.3323  0.8153  0.3092
  757SOL    MW4 3075   4.089   2.977   2.317  0.6566 -0.1483 -0.0732
  758SOL     OW 3076   3.517   3.874   1.966  0.1725 -0.3448  0.3911
  758SOL    HW2 3077   3.588   3.834   2.016 -0.3872 -1.1355  0.5509
  758SOL    HW3 3078   3.443   3.877   2.027  0.2406  1.0354  0.4183
  758SOL    MW4 3079   3.517   3.869   1.981  0.1080 -0.2670  0.4159
  759SOL     OW 3080   3.756   4.239   0.124 -0.1566  0.1038 -0.5820
  759SOL    HW2 3081   3.802   4.155   0.129  1.3766  0.9137 -0.7901
  759SOL    HW3 3082   3.668   4.216   0.093 -0.0980 -1.5416  0.4049
  759SOL    MW4 3083   3.751   4.225   0.120  0.0534 -0.0062 -0.4792
  760SOL     OW 3084   3.772   2.104   4.218 -0.0666  0.0381  0.0751
  760SOL    HW2 3085   3.711   2.044   4.261 -0.7151  1.1370  0.6984
  760SOL    HW3 3086   3.738   2.191   4.238  0.5901  0.6017 -1.2479
  760SOL    MW4 3087   3.759   2.107   4.227 -0.0653  0.2573 -0.0176
  761SOL     OW 3088   3.228   1.454   2.526  0.2600  0.2586  0.2131
  761SOL    HW2 3089   3.241   1.510   2.602 -0.5434  0.0939  0.4671
  761SOL    HW3 3090   3.310   1.462   2.477  1.3624 -0.7596  1.8231
  761SOL    MW4 3091   3.241   1.463   2.529  0.2995  0.1025  0.4590
  762SOL     OW 3092   2.320   4.171   2.600 -0.8647  0.3788  0.0485
  762SOL    HW2 3093   2.271   4.091   2.582  0.2534 -0.2009 -0.4470
  762SOL    HW3 3094   2.343   4.165   2.692  0.2988 -0.4771 -0.2913
  762SOL    MW4 3095   2.316   4.160   2.609 -0.5636  0.1893 -0.0618
  763SOL     OW 3096   3.247   4.062   3.780 -0.1629 -0.3062  0.5443
  763SOL    HW2 3097   3.186   4.130   3.755  0.4038 -0.2520 -0.7022
  763SOL    HW3 3098   3.334   4.101   3.767  0.1592 -0.1400  2.9417
  763SOL    MW4 3099   3.251   4.076   3.775 -0.0460 -0.2770  0.6964
  764SOL     OW 3100   2.878   4.020   0.336 -0.3660  0.2357  0.5339
  764SOL    HW2 3101   2.932   4.088   0.376  0.4134  0.9657 -1.6739
  764SOL    HW3 3102   2.805   4.068   0.295  0.7756 -0.0931 -1.9858
  764SOL    MW4 3103   2.875   4.036   0.335 -0.1123  0.2885 -0.0898
  765SOL     OW 3104   2.527   4.073   3.698  0.3101 -0.7645 -0.0298
  765SOL    HW2 3105   2.610   4.042   3.661  1.6250  1.3261  1.0483
  765SOL    HW3 3106   2.460   4.047   3.635  1.9397 -1.4201 -1.5024
  765SOL    MW4 3107   2.529   4.065   3.685  0.6988 -0.5755 -0.0818
  766SOL     OW 3108   1.834   0.471   3.042 -0.6728 -0.2348 -0.1757
  766SOL    HW2 3109   1.925   0.500   3.048 -0.7538  0.3987 -1.8401
  766SOL    HW3 3110   1.841   0.380   3.011 -0.6286  0.0217 -0.9190
  766SOL    MW4 3111   1.847   0.463   3.039 -0.6777 -0.1174 -0.4933
  767SOL     OW 3112   1.215   3.037   3.602  0.4261 -0.2477  0.0885
  767SOL    HW2 3113   1.194   2.961   3.657 -2.7463  1.0515  0.7985
  767SOL    HW3 3114   1.240   2.999   3.517 -2.2336 -2.1177  0.0691
  767SOL    MW4 3115   1.215   3.022   3.598 -0.3434 -0.3231  0.1795
  768SOL     OW 3116   3.324   1.876   1.166  0.8200 -0.1993  0.1750
  768SOL    HW2 3117   3.285   1.963   1.171  2.0575  0.3832  0.0060
  768SOL    HW3 3118   3.398   1.880   1.226  0.0035 -1.6246  1.3049
  768SOL    MW4 3119   3.329   1.888   1.175  0.8755 -0.3104  0.3017
  769SOL     OW 3120   3.612   0.841   2.875  0.1653  0.0783 -0.6125
  769SOL    HW2 3121   3.648   0.825   2.962  2.3237 -0.4227 -1.5624
  769SOL    HW3 3122   3.517   0.849   2.889  0.5704  0.7715  1.8571
  769SOL    MW4 3123   3.604   0.840   2.888  0.5035  0.1037 -0.4120
  770SOL     OW 3124   4.308   0.321   0.419  0.1292  0.2607  0.5245
  770SOL    HW2 3125   4.386   0.293   0.373  0.1358  0.5401  0.3686
  770SOL    HW3 3126   4.337   0.335   0.509 -0.1733 -1.6149  0.9400
  770SOL    MW4 3127   4.322   0.319   0.425  0.0901  0.0502  0.5588
  771SOL     OW 3128   2.186   0.880   2.789  0.1002 -0.3271 -0.3906
  771SOL    HW2 3129   2.168   0.968   2.757 -0.8312 -0.9948 -1.7765
  771SOL    HW3 3130   2.149   0.878   2.877 -0.3639  0.4968 -0.5638
  771SOL    MW4 3131   2.178   0.891   2.796 -0.0837 -0.3065 -0.5965
  772SOL     OW 3132   2.417   4.226   3.117 -0.1111  0.0052  0.1210
  772SOL    HW2 3133   2.324   4.208   3.129 -1.1104  2.2137 -3.5393
  772SOL    HW3 3134   2.437   4.191   3.030  1.6695  2.2646 -0.4414
  772SOL    MW4 3135   2.408   4.219   3.107 -0.0079  0.5946 -0.4358
  773SOL     OW 3136   2.516   0.275   3.375 -0.4782 -0.2005  0.1327
  773SOL    HW2 3137   2.497   0.278   3.281  1.3269 -1.8536 -0.3129
  773SOL    HW3 3138   2.506   0.366   3.404 -0.8745  0.3631 -1.6924
  773SOL    MW4 3139   2.512   0.288   3.367 -0.2923 -0.3442 -0.1669
  774SOL     OW 3140   2.797   3.477   1.844  0.4074 -0.1502 -0.5531
  774SOL    HW2 3141   2.763   3.546   1.901 -1.3305 -0.7322 -0.8633
  774SOL    HW3 3142   2.812   3.521   1.761  1.9521  0.4637  0.0269
  774SOL    MW4 3143   2.794   3.492   1.841  0.3819 -0.1459 -0.5174
  775SOL     OW 3144   1.550   2.650   1.522 -0.2102  0.5973 -0.1637
  775SOL    HW2 3145   1.503   2.661   1.439  0.6935 -0.2784 -0.8183
  775SOL    HW3 3146   1.560   2.739   1.556 -0.4285  0.9911 -1.0987
  775SOL    MW4 3147   1.545   2.663   1.515 -0.1197  0.5338 -0.3735
  776SOL     OW 3148   0.183   2.846   4.212 -0.1501 -0.2196  0.0453
  776SOL    HW2 3149   0.093   2.831   4.240  0.2682 -0.9789  0.9977
  776SOL    HW3 3150   0.235   2.783   4.262  1.0184  0.8185  0.1669
  776SOL    MW4 3151   0.178   2.836   4.222  0.0593 -0.1829  0.1874
  777SOL     OW 3152   3.506   0.138   0.303 -0.7313  0.4338  0.1105
  777SOL    HW2 3153   3.564   0.133   0.379  0.4403 -0.3620 -0.8198
  777SOL    HW3 3154   3.424   0.173   0.338  1.0664  3.9817  1.0451
  777SOL    MW4 3155   3.503   0.142   0.318 -0.3395  0.7969  0.1111
  778SOL     OW 3156   2.241   3.934   0.402  0.7420 -0.6394  0.1622
  778SOL    HW2 3157   2.229   3.966   0.491  2.3609  0.9618 -0.1627
  778SOL    HW3 3158   2.214   4.008   0.346  0.6174 -1.2998 -0.6579
  778SOL    MW4 3159   2.236   3.948   0.406  0.9391 -0.5152  0.0111
  779SOL     OW 3160   0.675   4.104   0.823 -0.0007  0.0518 -0.0889
  779SOL    HW2 3161   0.629   4.143   0.748 -0.2311 -1.5217 -0.8007
  779SOL    HW3 3162   0.679   4.010   0.801 -1.1688 -0.6248  2.4405
  779SOL    MW4 3163   0.669   4.097   0.810 -0.1851 -0.2446  0.1509
  780SOL     OW 3164   3.141   2.491   3.754  0.0029 -0.7276 -0.3141
  780SOL    HW2 3165   3.202   2.420   3.731  0.5943 -0.9800  1.8641
  780SOL    HW3 3166   3.139   2.547   3.677 -0.9131 -3.4103 -2.3142
  780SOL    MW4 3167   3.149   2.489   3.741 -0.0398 -1.1148 -0.2906
  781SOL     OW 3168   0.844   1.894   1.159  0.1272 -0.5101  0.3546
  781SOL    HW2 3169   0.872   1.856   1.243  0.3577  0.4092  0.6972
  781SOL    HW3 3170   0.865   1.826   1.095 -0.8434 -1.5849  1.1331
  781SOL    MW4 3171   0.850   1.880   1.162  0.0296 -0.5307  0.5026
  782SOL     OW 3172   1.164   2.803   2.815 -0.2611  0.2164  0.7728
  782SOL    HW2 3173   1.176   2.787   2.721 -0.9693 -1.3496  0.9205
  782SOL    HW3 3174   1.069   2.799   2.828 -0.2719  1.9063  1.3179
  782SOL    MW4 3175   1.153   2.800   2.804 -0.3560  0.2329  0.8643
  783SOL     OW 3176   4.069   0.032   3.872 -0.1035 -0.3383  0.2453
  783SOL    HW2 3177   4.010   0.049   3.799  1.0996 -0.1364 -0.7115
  783SOL    HW3 3178   4.102  -0.057   3.856 -0.4327 -0.5934  0.9706
  783SOL    MW4 3179   4.066   0.022   3.860  0.0119 -0.3453  0.2148
  784SOL     OW 3180   3.483   0.127   0.767 -0.0978  0.2301  0.1063
  784SOL    HW2 3181   3.434   0.209   0.766  0.0792  0.3405  0.2878
  784SOL    HW3 3182   3.508   0.116   0.859  0.2056  0.1711  0.0170
  784SOL    MW4 3183   3.480   0.136   0.779 -0.0346  0.2369  0.1186
  785SOL     OW 3184   2.852   1.736   0.642  0.2100  0.3502  0.6414
  785SOL    HW2 3185   2.788   1.731   0.572  0.5951  1.7639  0.1562
  785SOL    HW3 3186   2.811   1.691   0.716 -1.7546  2.0548  0.6337
  785SOL    MW4 3187   2.838   1.730   0.643  0.0017  0.7615  0.5764
  786SOL     OW 3188   1.488   0.683   3.478 -0.4703 -0.2649  0.0590
  786SOL    HW2 3189   1.502   0.752   3.543 -0.6495 -0.1130 -0.0650
  786SOL    HW3 3190   1.512   0.603   3.524 -0.4939 -0.1481  0.2795
  786SOL    MW4 3191   1.493   0.682   3.493 -0.4970 -0.2295  0.0715
  787SOL     OW 3192   3.282   1.513   2.108 -0.0261 -0.0863  0.0255
  787SOL    HW2 3193   3.241   1.528   2.023 -2.7570  0.5831  1.4143
  787SOL    HW3 3194   3.370   1.480   2.087 -0.8807 -0.5368 -3.0338
  787SOL    MW4 3195   3.288   1.510   2.094 -0.4990 -0.0573 -0.1950
  788SOL     OW 3196   3.595   0.190   3.232 -0.0795  0.8360 -0.3552
  788SOL    HW2 3197   3.579   0.122   3.298  0.5201  1.2600  0.2323
  788SOL    HW3 3198   3.525   0.178   3.168 -0.3908  0.1158  0.1129
  788SOL    MW4 3199   3.584   0.179   3.232 -0.0415  0.7969 -0.2160
  789SOL     OW 3200   4.318   4.445   3.600  0.1990  0.2059  0.2100
  789SOL    HW2 3201   4.298   4.531   3.563  0.0584 -0.1353 -0.5103
  789SOL    HW3 3202   4.410   4.431   3.580 -0.2004 -0.5324 -1.1393
  789SOL    MW4 3203   4.327   4.455   3.592  0.1283  0.0639 -0.0629
  790SOL     OW 3204   3.485   1.593   0.989 -0.2686 -0.1380 -0.1081
  790SOL    HW2 3205   3.484   1.676   0.940 -2.6143  0.9933  1.6998
  790SOL    HW3 3206   3.495   1.620   1.081 -0.3068 -1.9170  0.4317
  790SOL    MW4 3207   3.486   1.608   0.995 -0.5832 -0.2234  0.2016
  791SOL     OW 3208   3.035   1.941   0.571 -0.2886  0.2010  0.2089
  791SOL    HW2 3209   2.975   1.870   0.592  1.0277 -1.0377 -0.1364
  791SOL    HW3 3210   3.119   1.915   0.610  0.9990  0.0637 -2.5052
  791SOL    MW4 3211   3.038   1.929   0.579  0.0548  0.0194 -0.1948
  792SOL     OW 3212   3.795   4.481   3.324 -0.3248 -0.4400  0.2264
  792SOL    HW2 3213   3.837   4.479   3.410 -0.5493 -0.0335  0.3471
  792SOL    HW3 3214   3.772   4.389   3.306  0.5269 -0.6575  0.1963
  792SOL    MW4 3215   3.798   4.468   3.333 -0.2422 -0.4148  0.2382
  793SOL     OW 3216   0.980   0.549   2.756 -0.2880  0.0685  0.3997
  793SOL    HW2 3217   0.950   0.624   2.808 -0.7967  0.5360 -0.5466
  793SOL    HW3 3218   0.952   0.472   2.805 -0.9120  0.5040  0.7344
  793SOL    MW4 3219   0.972   0.549   2.769 -0.4374  0.1877  0.3188
  794SOL     OW 3220   0.553   3.791   2.514  0.2527  0.1059  0.0019
  794SOL    HW2 3221   0.511   3.813   2.597 -0.5542 -0.9193 -0.1308
  794SOL    HW3 3222   0.645   3.773   2.537 -0.1443 -0.9464  0.7817
  794SOL    MW4 3223   0.560   3.792   2.528  0.0938 -0.1681  0.0873
  795SOL     OW 3224   0.721   2.822   3.904  0.2454 -0.0259 -0.9769
  795SOL    HW2 3225   0.745   2.863   3.821 -0.2955  0.0814 -1.0791
  795SOL    HW3 3226   0.672   2.744   3.879  0.2465 -0.0971 -0.7584
  795SOL    MW4 3227   0.718   2.817   3.889  0.1742 -0.0212 -0.9618
  796SOL     OW 3228   1.315   3.837   3.478 -0.8042 -0.0743  0.0025
  796SOL    HW2 3229   1.280   3.911   3.526 -2.8228 -0.6654 -0.5136
  796SOL    HW3 3230   1.409   3.839   3.496 -0.7309  2.9342 -0.4693
  796SOL    MW4 3231   1.323   3.847   3.487 -1.0608  0.2446 -0.1278
  797SOL     OW 3232   3.869   2.720   0.275 -0.0738  0.4839  0.6141
  797SOL    HW2 3233   3.872   2.774   0.354 -1.4387  1.0707  0.2857
  797SOL    HW3 3234   3.907   2.775   0.206  2.6040 -0.6170  1.1654
  797SOL    MW4 3235   3.874   2.734   0.276  0.0994  0.4160  0.6435
  798SOL     OW 3236   3.657   0.650   3.364  0.1038  0.2699 -0.6943
  798SOL    HW2 3237   3.563   0.644   3.383 -0.0984  0.2049 -1.6864
  798SOL    HW3 3238   3.689   0.560   3.371 -0.1761  0.0846 -1.6513
  798SOL    MW4 3239   3.649   0.637   3.367  0.0401  0.2369 -0.9513
  799SOL     OW 3240   0.081   1.693   3.420 -0.2398  0.5703 -0.3419
  799SOL    HW2 3241   0.103   1.609   3.380 -0.6788  0.2731  0.0328
  799SOL    HW3 3242  -0.014   1.689   3.435 -0.1264  0.7864  0.4695
  799SOL    MW4 3243   0.071   1.682   3.417 -0.2828  0.5596 -0.1853
  800SOL     OW 3244   2.234   0.314   1.657 -0.0217 -0.0388 -0.0379
  800SOL    HW2 3245   2.300   0.342   1.720 -0.6244 -0.4211  0.7657
  800SOL    HW3 3246   2.275   0.328   1.572  1.2967 -0.7681  0.4682
  800SOL    MW4 3247   2.248   0.320   1.654  0.0727 -0.1855  0.1348
  801SOL     OW 3248   2.784   3.807   0.479 -0.1917  0.4339 -0.1323
  801SOL    HW2 3249   2.700   3.786   0.440  0.6557 -1.0095 -1.2255
  801SOL    HW3 3250   2.816   3.882   0.429 -0.5499  0.6060 -0.1039
  801SOL    MW4 3251   2.777   3.814   0.467 -0.1273  0.2663 -0.2728
  802SOL     OW 3252   0.873   1.858   1.436 -0.6136 -0.3065  0.4243
  802SOL    HW2 3253   0.953   1.821   1.473 -0.7502 -0.5209  0.5038
  802SOL    HW3 3254   0.806   1.790   1.449 -0.1053 -1.4066 -2.5148
  802SOL    MW4 3255   0.874   1.844   1.443 -0.5646 -0.4799  0.0471
  803SOL     OW 3256   0.686   1.646   1.283 -0.1477  0.2762 -0.3756
  803SOL    HW2 3257   0.630   1.721   1.302  1.7914  1.5665  0.2923
  803SOL    HW3 3258   0.694   1.646   1.188 -1.1732  0.1541 -0.4689
  803SOL    MW4 3259   0.680   1.656   1.273 -0.0272  0.4303 -0.2999
  804SOL     OW 3260   3.002   0.584   0.386  0.2630 -0.3204  0.0889
  804SOL    HW2 3261   2.945   0.517   0.350 -1.3842  0.6708  0.7442
  804SOL    HW3 3262   3.053   0.540   0.454 -0.8331 -0.8951  0.5396
  804SOL    MW4 3263   3.001   0.570   0.390 -0.0987 -0.2654  0.2349
  805SOL     OW 3264   1.517   2.773   2.646  0.4177 -0.0122 -0.2749
  805SOL    HW2 3265   1.558   2.705   2.591 -1.6703  0.1272 -2.0715
  805SOL    HW3 3266   1.589   2.806   2.699  2.3634 -0.7706 -2.3179
  805SOL    MW4 3267   1.532   2.768   2.646  0.3989 -0.0939 -0.7818
  806SOL     OW 3268   3.782   1.162   1.881  0.1974  0.4436 -0.4399
  806SOL    HW2 3269   3.760   1.104   1.808  0.6086  0.2365 -0.3986
  806SOL    HW3 3270   3.819   1.104   1.947 -1.2198  0.4563  0.3928
  806SOL    MW4 3271   3.784   1.147   1.880  0.0646  0.4179 -0.3246
  807SOL     OW 3272   2.604   1.030   3.021  0.2861  0.0186  0.3062
  807SOL    HW2 3273   2.604   1.089   2.945 -0.8958  0.0132  0.2889
  807SOL    HW3 3274   2.649   0.952   2.991 -1.2264 -0.4613 -0.7849
  807SOL    MW4 3275   2.610   1.028   3.007 -0.0694 -0.0454  0.1600
  808SOL     OW 3276   1.514   2.297   1.289 -0.0458  0.2122  0.2546
  808SOL    HW2 3277   1.450   2.334   1.350  0.1800  1.7231 -0.4117
  808SOL    HW3 3278   1.460   2.258   1.220 -0.2682  0.1654  0.4513
  808SOL    MW4 3279   1.498   2.297   1.288 -0.0453  0.4055  0.1926
  809SOL     OW 3280   1.876   1.208   3.007 -0.2280  0.3297 -0.1702
  809SOL    HW2 3281   1.884   1.154   3.086 -0.5072  1.6322  0.7641
  809SOL    HW3 3282   1.908   1.294   3.033 -0.2002  0.7418 -1.5221
  809SOL    MW4 3283   1.881   1.212   3.021 -0.2611  0.5559 -0.2251
  810SOL     OW 3284   2.795   2.693   1.342  0.2419  0.1940 -0.4469
  810SOL    HW2 3285   2.700   2.693   1.353  0.1122  0.3263 -1.5080
  810SOL    HW3 3286   2.814   2.609   1.299  0.6701 -0.0821  0.2692
  810SOL    MW4 3287   2.785   2.682   1.338  0.2811  0.1750 -0.4923
  811SOL     OW 3288   3.004   4.474   0.539  0.2106  0.2577 -0.1088
  811SOL    HW2 3289   3.070   4.515   0.483  1.0656 -2.1560 -0.9361
  811SOL    HW3 3290   3.052   4.451   0.619  0.3986 -1.4513 -0.6915
  811SOL    MW4 3291   3.019   4.476   0.542  0.3486 -0.2866 -0.2948
  812SOL     OW 3292   0.160   2.622   1.812  0.2769  0.1277 -0.1469
  812SOL    HW2 3293   0.167   2.610   1.907  0.4327  1.2480 -0.0103
  812SOL    HW3 3294   0.127   2.538   1.780  0.9600 -0.5163  0.8081
  812SOL    MW4 3295   0.156   2.610   1.820  0.3876  0.1905 -0.0029
  813SOL     OW 3296   1.771   0.902   2.915 -0.2811 -0.0889  0.7079
  813SOL    HW2 3297   1.754   0.915   2.822 -1.0735  1.1534  1.0075
  813SOL    HW3 3298   1.718   0.826   2.939  0.3093 -0.7198  0.0502
  813SOL    MW4 3299   1.762   0.894   2.906 -0.3078 -0.0082  0.6607
  814SOL     OW 3300   3.438   1.057   3.026 -0.2323 -0.2409  0.4017
  814SOL    HW2 3301   3.397   1.085   2.944  0.4698 -2.0420 -0.5817
  814SOL    HW3 3302   3.389   0.978   3.051  0.4665 -0.4922  0.9749
  814SOL    MW4 3303   3.426   1.050   3.019 -0.0479 -0.5116  0.3476
  815SOL     OW 3304   3.761   2.808   0.825  0.5783  0.3389 -0.2193
  815SOL    HW2 3305   3.846   2.779   0.857  0.2026 -0.8859 -0.2913
  815SOL    HW3 3306   3.773   2.820   0.731  0.8034  0.6961 -0.1478
  815SOL    MW4 3307   3.774   2.806   0.817  0.5586  0.2246 -0.2194
  816SOL     OW 3308   4.328   3.411   1.481 -0.2894  0.3113 -0.4433
  816SOL    HW2 3309   4.295   3.323   1.503  0.4080  0.2422  0.3438
  816SOL    HW3 3310   4.384   3.434   1.555  0.0679  1.1418 -0.9756
  816SOL    MW4 3311   4.331   3.402   1.494 -0.1502  0.4117 -0.4095
  817SOL     OW 3312   0.942   1.312   2.217 -0.1087  0.1007 -0.0292
  817SOL    HW2 3313   0.858   1.338   2.257  0.0486 -0.0720  0.4240
  817SOL    HW3 3314   1.003   1.379   2.247 -0.1419  0.3870 -0.5958
  817SOL    MW4 3315   0.939   1.324   2.227 -0.0923  0.1156 -0.0441
  818SOL     OW 3316   0.501   4.298   3.196  0.1419  0.0496  0.0434
  818SOL    HW2 3317   0.504   4.349   3.277 -2.3860  0.7339 -0.2554
  818SOL    HW3 3318   0.471   4.211   3.224  0.2741 -0.0207 -0.0320
  818SOL    MW4 3319   0.498   4.293   3.211 -0.1742  0.1307 -0.0060
  819SOL     OW 3320   3.153   3.828   1.880  0.1090  0.1721 -0.7798
  819SOL    HW2 3321   3.078   3.803   1.933  0.8812  1.9417  1.2631
  819SOL    HW3 3322   3.204   3.748   1.870 -0.4495 -0.3584  0.5467
  819SOL    MW4 3323   3.150   3.814   1.886  0.1373  0.3355 -0.3352
  820SOL     OW 3324   3.519   4.474   4.185  0.0645  0.2845  0.2422
  820SOL    HW2 3325   3.613   4.459   4.179 -0.1080 -0.5887 -0.4929
  820SOL    HW3 3326   3.486   4.396   4.230 -0.1714  1.1168  1.5252
  820SOL    MW4 3327   3.527   4.462   4.190  0.0103  0.2794  0.3147
  821SOL     OW 3328   3.942   3.909   1.742  0.0878  0.2468  0.9424
  821SOL    HW2 3329   3.909   3.939   1.826 -0.7961 -0.4185  0.8328
  821SOL    HW3 3330   4.013   3.970   1.721 -0.9963  1.6133  1.2163
  821SOL    MW4 3331   3.947   3.921   1.750 -0.1717  0.3393  0.9642
  822SOL     OW 3332   4.398   2.606   3.966  0.1230  0.1443 -0.0328
  822SOL    HW2 3333   4.472   2.661   3.941  0.6381 -1.2963 -1.8324
  822SOL    HW3 3334   4.342   2.604   3.888 -0.0747 -1.5114  0.1192
  822SOL    MW4 3335   4.400   2.613   3.952  0.1650 -0.2644 -0.2501
  823SOL     OW 3336   2.575   2.440   0.345  0.4668  0.3699  0.0125
  823SOL    HW2 3337   2.486   2.409   0.360 -0.9027  1.7657 -4.4769
  823SOL    HW3 3338   2.576   2.529   0.382  0.2869  0.0760  0.7442
  823SOL    MW4 3339   2.563   2.448   0.352  0.2623  0.5150 -0.4833
  824SOL     OW 3340   1.367   2.530   3.268 -0.4530  0.0338 -0.0573
  824SOL    HW2 3341   1.457   2.524   3.234 -0.1056  0.2177  0.8303
  824SOL    HW3 3342   1.317   2.566   3.194  0.1706 -0.2110 -0.6070
  824SOL    MW4 3343   1.372   2.534   3.254 -0.3248  0.0260 -0.0129
  825SOL     OW 3344   0.771   2.291   3.296 -0.0200 -0.2019  0.1163
  825SOL    HW2 3345   0.807   2.268   3.210 -1.4218 -0.6353 -0.3650
  825SOL    HW3 3346   0.844   2.280   3.356  1.0682  0.4107 -1.0669
  825SOL    MW4 3347   0.785   2.287   3.293 -0.0614 -0.1781 -0.1032
  826SOL     OW 3348   1.108   1.635   4.122  0.2042 -0.1068  0.4887
  826SOL    HW2 3349   1.120   1.660   4.030  0.3394 -0.5214  0.3938
  826SOL    HW3 3350   1.168   1.692   4.170  0.0806  0.1633  0.3295
  826SOL    MW4 3351   1.117   1.646   4.116  0.2058 -0.1259  0.4549
  827SOL     OW 3352   0.625   3.761   4.021 -0.1471  0.0669  0.1976
  827SOL    HW2 3353   0.626   3.755   3.925  0.2997 -0.7725  0.2493
  827SOL    HW3 3354   0.555   3.702   4.048  0.0820 -0.1051  0.4141
  827SOL    MW4 3355   0.616   3.752   4.012 -0.0579 -0.0668  0.2327
  828SOL     OW 3356   3.486   2.549   1.977  0.0664 -0.3185  0.3756
  828SOL    HW2 3357   3.397   2.576   1.954  0.5677 -0.3291 -1.6419
  828SOL    HW3 3358   3.541   2.620   1.943  0.9098 -0.8065  0.7238
  828SOL    MW4 3359   3.481   2.562   1.970  0.2437 -0.3843  0.1553
  829SOL     OW 3360   2.243   4.238   0.327 -0.3045  0.3515 -0.3449
  829SOL    HW2 3361   2.173   4.301   0.344 -1.9349 -0.6114 -3.1330
  829SOL    HW3 3362   2.312   4.289   0.286 -0.5383  0.8091 -0.1769
  829SOL    MW4 3363   2.243   4.253   0.324 -0.5503  0.2847 -0.6906
  830SOL     OW 3364   0.797   2.151   2.833  0.2270  0.5699 -0.0945
  830SOL    HW2 3365   0.745   2.229   2.814 -0.8746 -0.6952 -2.5016
  830SOL    HW3 3366   0.733   2.085   2.859  1.1203  0.3656  1.6501
  830SOL    MW4 3367   0.782   2.153   2.834  0.1996  0.3762 -0.1819
  831SOL     OW 3368   3.307   4.280   2.830 -0.0508 -0.3334  0.1856
  831SOL    HW2 3369   3.314   4.373   2.853  0.3687 -0.5215  0.8402
  831SOL    HW3 3370   3.215   4.267   2.809 -0.4577 -0.1544  1.8130
  831SOL    MW4 3371   3.296   4.291   2.830 -0.0491 -0.3343  0.4871
  832SOL     OW 3372   3.713   1.241   3.588  0.0624 -0.0002 -0.4203
  832SOL    HW2 3373   3.760   1.324   3.581 -0.1221  0.1698  0.3378
  832SOL    HW3 3374   3.775   1.182   3.631 -0.5019  0.3023  0.8337
  832SOL    MW4 3375   3.728   1.244   3.593 -0.0362  0.0622 -0.1550
  833SOL     OW 3376   0.834   0.431   3.303  0.0948 -0.0553  0.1989
  833SOL    HW2 3377   0.927   0.451   3.294 -0.5322  1.6685 -3.1218
  833SOL    HW3 3378   0.797   0.510   3.343 -0.5741  1.0451 -2.4851
  833SOL    MW4 3379   0.842   0.444   3.307 -0.0762  0.3173 -0.5934
  834SOL     OW 3380   1.833   2.315   1.667 -0.1233  0.3908 -0.1309
  834SOL    HW2 3381   1.918   2.297   1.705  0.6578  1.2140 -1.4389
  834SOL    HW3 3382   1.801   2.230   1.637  0.0823  0.0309  0.6807
  834SOL    MW4 3383   1.840   2.302   1.668  0.0069  0.4520 -0.1965
  835SOL     OW 3384   3.500   0.112   2.513  0.3896 -0.2679  0.3120
  835SOL    HW2 3385   3.535   0.197   2.537 -0.5278  0.0136  0.6516
  835SOL    HW3 3386   3.427   0.131   2.455  0.1619 -0.8160  0.4127
  835SOL    MW4 3387   3.495   0.125   2.509  0.2387 -0.3031  0.3703
  836SOL     OW 3388   2.692   0.785   1.955 -0.2606  0.4181 -0.2474
  836SOL    HW2 3389   2.605   0.817   1.930  0.1704  0.9336 -1.1177
  836SOL    HW3 3390   2.737   0.768   1.872  1.0813  1.8677  0.1473
  836SOL    MW4 3391   2.687   0.787   1.941 -0.0262  0.6774 -0.3102
  837SOL     OW 3392   0.668   4.310   1.423  0.4269 -0.0770 -0.7505
  837SOL    HW2 3393   0.613   4.254   1.368 -0.4419 -0.7647  0.7703
  837SOL    HW3 3394   0.754   4.269   1.423  0.5756  0.2263 -2.0133
  837SOL    MW4 3395   0.672   4.298   1.416  0.3319 -0.1273 -0.7164
  838SOL     OW 3396   2.346   0.103   1.405  0.0753 -0.0158 -0.3329
  838SOL    HW2 3397   2.271   0.163   1.405  0.3364  0.3490  1.3616
  838SOL    HW3 3398   2.413   0.148   1.353  0.6734  1.7534  1.8680
  838SOL    MW4 3399   2.345   0.117   1.398  0.1886  0.2658  0.1812
  839SOL     OW 3400   2.641   1.415   0.277  0.3605 -0.6843 -0.0784
  839SOL    HW2 3401   2.604   1.451   0.357  0.5750  1.6543 -0.9884
  839SOL    HW3 3402   2.573   1.430   0.210  1.1754 -0.3311 -0.8375
  839SOL    MW4 3403   2.627   1.422   0.278  0.4966 -0.3291 -0.2986
  840SOL     OW 3404   3.293   0.994   2.571 -0.7200  0.5944 -0.2538
  840SOL    HW2 3405   3.311   0.920   2.630 -2.4593 -0.2884 -0.7704
  840SOL    HW3 3406   3.378   1.018   2.535 -0.0222 -0.6991  0.4920
  840SOL    MW4 3407   3.307   0.987   2.574 -0.8576  0.3073 -0.2236
  841SOL     OW 3408   0.158   0.424   2.884 -0.9334  0.5157 -0.7576
  841SOL    HW2 3409   0.109   0.343   2.867  0.6318 -0.9050  1.2796
  841SOL    HW3 3410   0.224   0.399   2.948 -0.1453  3.3412 -0.4045
  841SOL    MW4 3411   0.160   0.410   2.890 -0.6229  0.7010 -0.4423
  842SOL     OW 3412   2.118   3.311   1.569  0.9183 -0.5239 -0.5293
  842SOL    HW2 3413   2.113   3.406   1.565  2.7990 -0.3750  0.1374
  842SOL    HW3 3414   2.208   3.292   1.594  0.6040 -2.4892 -0.7478
  842SOL    MW4 3415   2.129   3.321   1.572  1.1249 -0.7634 -0.4703
  843SOL     OW 3416   2.879   2.138   3.607 -0.1774  0.5744  0.1331
  843SOL    HW2 3417   2.874   2.107   3.697  0.7275 -0.3189 -0.1055
  843SOL    HW3 3418   2.819   2.082   3.558 -0.1999  0.6460  0.0780
  843SOL    MW4 3419   2.870   2.126   3.612 -0.0613  0.4663  0.0944
  844SOL     OW 3420   2.552   3.820   0.838  0.5292 -0.1338 -0.2971
  844SOL    HW2 3421   2.632   3.837   0.789  0.4056 -0.9654 -0.8091
  844SOL    HW3 3422   2.581   3.810   0.928  0.7762  1.2851 -0.2157
  844SOL    MW4 3423   2.566   3.821   0.843  0.5455 -0.0563 -0.3539
  845SOL     OW 3424   2.258   1.030   3.277  0.3034  0.0931 -0.3346
  845SOL    HW2 3425   2.268   1.011   3.371  0.6193 -2.3265 -0.8277
  845SOL    HW3 3426   2.306   0.961   3.233 -3.5545 -1.4427 -2.4068
  845SOL    MW4 3427   2.265   1.019   3.284 -0.1638 -0.4288 -0.6731
  846SOL     OW 3428   2.228   2.980   3.149 -0.8211 -0.2026 -0.0105
  846SOL    HW2 3429   2.239   2.889   3.176  2.8374 -0.2051 -1.1121
  846SOL    HW3 3430   2.232   2.977   3.053  0.2654  1.1710 -0.0303
  846SOL    MW4 3431   2.230   2.968   3.140 -0.1950 -0.0217 -0.1585
  847SOL     OW 3432   1.681   2.810   0.195  0.5560  0.6073 -0.2475
  847SOL    HW2 3433   1.745   2.743   0.174  0.9739  0.7325  0.6089
  847SOL    HW3 3434   1.720   2.892   0.163  0.2812  0.5208 -0.8136
  847SOL    MW4 3435   1.694   2.812   0.188  0.5748  0.6123 -0.2092
  848SOL     OW 3436   1.202   3.951   3.257 -0.0000  0.4684 -0.0107
  848SOL    HW2 3437   1.163   4.037   3.272  2.1168  1.6003 -0.8114
  848SOL    HW3 3438   1.246   3.930   3.339 -0.5148  0.1461  0.1841
  848SOL    MW4 3439   1.202   3.959   3.270  0.2115  0.5753 -0.0904
  849SOL     OW 3440   2.249   4.062   1.034  0.1339 -0.3661  0.5388
  849SOL    HW2 3441   2.330   4.070   1.084  0.1774  0.9382  0.2888
  849SOL    HW3 3442   2.207   4.148   1.042 -0.4260 -0.5147 -0.6835
  849SOL    MW4 3443   2.254   4.075   1.042  0.0658 -0.2136  0.3446
  850SOL     OW 3444   4.313   1.616   4.291 -0.2669  0.8983 -0.3055
  850SOL    HW2 3445   4.288   1.539   4.342  0.3762  0.7205 -0.2481
  850SOL    HW3 3446   4.395   1.591   4.249  0.6374  2.0207  0.7627
  850SOL    MW4 3447   4.320   1.602   4.292 -0.0625  1.0229 -0.1564
  851SOL     OW 3448   1.224   2.412   1.696  0.5031 -0.1227 -0.0822
  851SOL    HW2 3449   1.246   2.502   1.721 -0.0879 -0.2893  1.0469
  851SOL    HW3 3450   1.245   2.408   1.602 -0.7466  1.5814 -0.4574
  851SOL    MW4 3451   1.230   2.424   1.687  0.2602  0.0801  0.0173
  852SOL     OW 3452   0.916   0.682   2.205 -0.0672 -0.3423  0.0261
  852SOL    HW2 3453   0.822   0.699   2.196  0.0808  0.3365 -0.2806
  852SOL    HW3 3454   0.930   0.670   2.299 -0.5594 -1.0703  0.0136
  852SOL    MW4 3455   0.905   0.682   2.216 -0.1127 -0.3487 -0.0160
  853SOL     OW 3456   1.395   3.940   0.609  0.6940  0.1819  0.1576
  853SOL    HW2 3457   1.342   4.018   0.595 -0.0954 -0.5303 -0.9825
  853SOL    HW3 3458   1.442   3.928   0.527  0.4255 -0.8117  0.1349
  853SOL    MW4 3459   1.394   3.949   0.596  0.5544 -0.0432  0.0042
  854SOL     OW 3460   1.781   0.005   1.937 -0.3573  0.6651 -0.3972
  854SOL    HW2 3461   1.802  -0.071   1.882 -0.7237  0.1650  0.1464
  854SOL    HW3 3462   1.749   0.071   1.875  0.1245  0.4345 -0.8912
  854SOL    MW4 3463   1.779   0.004   1.921 -0.3421  0.5687 -0.3906
  855SOL     OW 3464   0.274   0.286   1.607 -0.8601 -0.4473  0.4049
  855SOL    HW2 3465   0.263   0.224   1.535 -1.1377 -0.8561  0.7976
  855SOL    HW3 3466   0.343   0.247   1.662 -1.5227 -0.7605  1.0248
  855SOL    MW4 3467   0.282   0.272   1.605 -0.9842 -0.5425  0.5383
  856SOL     OW 3468   2.045   3.600   3.611  0.4536 -0.1176  0.0717
  856SOL    HW2 3469   1.984   3.615   3.539  0.9909 -1.1286 -0.6006
  856SOL    HW3 3470   2.016   3.517   3.650 -0.7916  1.1696  2.0152
  856SOL    MW4 3471   2.033   3.591   3.607  0.3603 -0.0813  0.2396
  857SOL     OW 3472   0.815   3.216   1.849 -0.0173 -0.0016  0.3609
  857SOL    HW2 3473   0.847   3.302   1.874  0.8769 -0.1265 -0.3138
  857SOL    HW3 3474   0.750   3.233   1.781  0.1538  0.1421  0.2329
  857SOL    MW4 3475   0.811   3.229   1.844  0.1233  0.0007  0.2549
  858SOL     OW 3476   1.160   2.415   2.905  0.6766 -0.1653  0.4333
  858SOL    HW2 3477   1.139   2.343   2.965  1.0348 -2.2257 -1.8416
  858SOL    HW3 3478   1.075   2.443   2.872  0.7011 -1.3200 -0.6496
  858SOL    MW4 3479   1.146   2.409   2.909  0.7271 -0.5894 -0.0098
  859SOL     OW 3480   0.379   2.193   2.038  0.0740  0.0559 -0.0426
  859SOL    HW2 3481   0.313   2.144   1.990 -0.4572  1.7848 -1.1593
  859SOL    HW3 3482   0.461   2.149   2.018 -0.4905 -0.8636 -0.3439
  859SOL    MW4 3483   0.381   2.181   2.029 -0.0705  0.1626 -0.2296
  860SOL     OW 3484   2.742   2.919   3.682  0.4198  0.0445 -0.0828
  860SOL    HW2 3485   2.718   2.877   3.764  0.4004 -0.0402 -0.1317
  860SOL    HW3 3486   2.785   2.850   3.631  0.7673  0.1958  0.0041
  860SOL    MW4 3487   2.744   2.904   3.686  0.4630  0.0534 -0.0777
  861SOL     OW 3488   0.382   1.267   1.198 -0.5735 -0.1530  0.5982
  861SOL    HW2 3489   0.345   1.350   1.226  1.5656  0.5755  1.3647
  861SOL    HW3 3490   0.342   1.250   1.113 -1.6116  1.2611  0.7891
  861SOL    MW4 3491   0.372   1.275   1.191 -0.4282  0.1297  0.7246
  862SOL     OW 3492   0.119   2.168   4.079  0.3968  0.4099  0.1140
  862SOL    HW2 3493   0.142   2.129   4.163 -2.3343  0.5756  0.9798
  862SOL    HW3 3494   0.098   2.259   4.100 -1.2315  0.2127 -0.5673
  862SOL    MW4 3495   0.119   2.175   4.093 -0.1783  0.4055  0.1378
  863SOL     OW 3496   2.207   4.170   3.985 -0.1031 -0.3115 -0.1498
  863SOL    HW2 3497   2.221   4.252   3.938 -0.1024 -0.3599 -0.2345
  863SOL    HW3 3498   2.260   4.178   4.064 -0.7131  0.0956  0.2202
  863SOL    MW4 3499   2.216   4.182   3.989 -0.1838 -0.2642 -0.1121
  864SOL     OW 3500   4.072   2.500   2.966  0.2342  0.4078  0.5540
  864SOL    HW2 3501   4.014   2.575   2.954  0.0663 -0.0512 -1.7488
  864SOL    HW3 3502   4.083   2.464   2.878  2.5566 -0.6066  1.2238
  864SOL    MW4 3503   4.066   2.505   2.953  0.5188  0.2131  0.3386
  865SOL     OW 3504   2.722   0.995   2.134 -0.1133  0.2433 -0.1094
  865SOL    HW2 3505   2.726   0.923   2.071 -0.7278 -0.1559  0.3031
  865SOL    HW3 3506   2.789   0.972   2.199  0.0030  0.2782 -0.2147
  865SOL    MW4 3507   2.732   0.982   2.134 -0.1788  0.1952 -0.0687
  866SOL     OW 3508   0.040   4.398   0.868  0.3847  0.1374 -0.4045
  866SOL    HW2 3509  -0.026   4.465   0.886  1.1963  0.8555 -0.0797
  866SOL    HW3 3510   0.122   4.436   0.899  0.7075 -1.3857  0.6599
  866SOL    MW4 3511   0.042   4.412   0.874  0.5344  0.0315 -0.2212
  867SOL     OW 3512   0.265   3.853   3.108  0.2321 -0.0536 -0.0608
  867SOL    HW2 3513   0.357   3.836   3.084  0.3004 -0.0552  0.1970
  867SOL    HW3 3514   0.234   3.914   3.042  0.4611  0.0516 -0.0728
  867SOL    MW4 3515   0.273   3.858   3.096  0.2714 -0.0398 -0.0286
  868SOL     OW 3516   4.231   0.633   9.969 -0.2339 -0.1383 -0.2606
  868SOL    HW2 3517   4.183   0.653   9.889 -1.8716  2.0373  1.2406
  868SOL    HW3 3518   4.239   0.716  10.015  0.7436 -1.3414  1.8355
  868SOL    MW4 3519   4.226   0.646   9.964 -0.3209 -0.0101  0.2136
  869SOL     OW 3520   0.018   3.850   4.174 -0.2329  0.2791 -0.0774
  869SOL    HW2 3521   0.097   3.901   4.192 -0.2449  0.0992  0.4695
  869SOL    HW3 3522  -0.053   3.915   4.176  0.0761  0.7287 -2.1680
  869SOL    MW4 3523   0.019   3.865   4.177 -0.1937  0.3145 -0.2809
  870SOL     OW 3524   0.886   1.362   1.777  0.1208 -0.9312  0.0793
  870SOL    HW2 3525   0.824   1.337   1.845  0.3162 -1.3249  0.1161
  870SOL    HW3 3526   0.968   1.320   1.802  1.3199  2.3076  1.8327
  870SOL    MW4 3527   0.889   1.353   1.789  0.3048 -0.5558  0.3155
  871SOL     OW 3528   4.207   4.058   1.202 -0.2049  0.6572 -0.1827
  871SOL    HW2 3529   4.192   3.969   1.234  1.8445  0.5221  0.4644
  871SOL    HW3 3530   4.181   4.054   1.109 -0.7992 -0.4091  0.0179
  871SOL    MW4 3531   4.201   4.046   1.194 -0.0134  0.4988 -0.0708
  872SOL     OW 3532   2.061   4.325   2.890 -0.2993 -0.0386 -0.0315
  872SOL    HW2 3533   2.069   4.380   2.968 -3.6754 -0.9643  1.0576
  872SOL    HW3 3534   2.061   4.235   2.924 -0.7546 -0.4935 -1.2026
  872SOL    MW4 3535   2.062   4.320   2.905 -0.8049 -0.2208 -0.0422
  873SOL     OW 3536   0.741   2.022   3.986 -0.5256 -0.1381 -0.1444
  873SOL    HW2 3537   0.700   1.936   3.984 -0.6351 -0.0825 -0.2672
  873SOL    HW3 3538   0.827   2.010   3.945 -0.1998 -0.3716  0.5844
  873SOL    MW4 3539   0.747   2.009   3.981 -0.4971 -0.1616 -0.0644
  874SOL     OW 3540   2.524   0.269   1.254 -0.2018 -0.3298  0.4194
  874SOL    HW2 3541   2.565   0.318   1.183  0.9324 -0.7757  0.7560
  874SOL    HW3 3542   2.598   0.231   1.302 -1.0937 -3.1623 -0.4113
  874SOL    MW4 3543   2.539   0.271   1.251 -0.1700 -0.7623  0.3542
  875SOL     OW 3544   2.188   0.259   3.023  0.0313 -0.3016 -0.0578
  875SOL    HW2 3545   2.126   0.294   3.087 -0.2159 -0.8548  0.0047
  875SOL    HW3 3546   2.161   0.297   2.940  0.5762  0.7111  0.2177
  875SOL    MW4 3547   2.176   0.269   3.020  0.0706 -0.2410 -0.0131
  876SOL     OW 3548   2.002   1.436   1.541 -0.2731  0.3874 -0.4964
  876SOL    HW2 3549   2.025   1.386   1.462  0.1110  0.2348 -0.2932
  876SOL    HW3 3550   1.908   1.453   1.533 -0.4351 -0.4780 -0.5118
  876SOL    MW4 3551   1.993   1.431   1.529 -0.2438  0.2531 -0.4716
  877SOL     OW 3552   1.409   4.335   1.393  0.1126  0.0643 -0.6421
  877SOL    HW2 3553   1.330   4.374   1.432  0.1157  0.5215 -1.0904
  877SOL    HW3 3554   1.477   4.352   1.458  0.2079  1.2000 -1.0148
  877SOL    MW4 3555   1.407   4.343   1.407  0.1256  0.2742 -0.7504
  878SOL     OW 3556   1.928   0.906   0.959 -0.0288  0.0120  0.1155
  878SOL    HW2 3557   1.913   0.952   1.042  1.4991 -0.6519  0.7778
  878SOL    HW3 3558   1.966   0.972   0.901 -1.8102  0.6795 -0.3215
  878SOL    MW4 3559   1.931   0.921   0.962 -0.0622  0.0126  0.1452
  879SOL     OW 3560   2.872   0.008   3.496 -0.4679 -0.0966  0.0476
  879SOL    HW2 3561   2.873   0.072   3.425  0.2864 -2.3479 -2.0152
  879SOL    HW3 3562   2.944   0.036   3.554  0.2081  0.6223 -1.1184
  879SOL    MW4 3563   2.882   0.021   3.495 -0.2794 -0.2988 -0.3784
  880SOL     OW 3564   1.303   1.775   4.306 -0.6099 -1.0708  0.4959
  880SOL    HW2 3565   1.391   1.807   4.287 -0.8042 -0.6396  0.3047
  880SOL    HW3 3566   1.262   1.847   4.355 -1.2352 -0.7936 -0.4299
  880SOL    MW4 3567   1.309   1.789   4.310 -0.7181 -0.9773  0.3486
  881SOL     OW 3568   2.395   3.660   1.627  0.0673  0.6166  0.1847
  881SOL    HW2 3569   2.480   3.698   1.606 -1.0564  3.5994  0.8154
  881SOL    HW3 3570   2.395   3.652   1.723  0.3573 -1.1593  0.0439
  881SOL    MW4 3571   2.406   3.664   1.637 -0.0427  0.7761  0.2494
  882SOL     OW 3572   0.685   1.037   4.050 -0.1008 -0.2595  0.1807
  882SOL    HW2 3573   0.765   1.081   4.078 -0.4225  0.1220  0.5028
  882SOL    HW3 3574   0.614   1.088   4.089 -0.5865  0.6733 -1.8755
  882SOL    MW4 3575   0.686   1.049   4.059 -0.2073 -0.0861 -0.0477
  883SOL     OW 3576   2.438   2.727   3.743  0.5282 -0.7032  0.5309
  883SOL    HW2 3577   2.423   2.786   3.817  0.7233  1.0914 -0.8307
  883SOL    HW3 3578   2.350   2.701   3.715  0.3420  0.6268 -0.1691
  883SOL    MW4 3579   2.424   2.731   3.749  0.5295 -0.2909  0.2587
  884SOL     OW 3580   4.290   2.486   1.283 -0.1133  0.1100 -0.1008
  884SOL    HW2 3581   4.375   2.508   1.322  0.1760  0.5366 -0.9589
  884SOL    HW3 3582   4.289   2.391   1.281 -0.6940  0.0307  2.1478
  884SOL    MW4 3583   4.301   2.477   1.288 -0.1521  0.1559  0.0826
  885SOL     OW 3584   0.217   3.501   3.505 -0.2539  0.2404  0.1402
  885SOL    HW2 3585   0.239   3.566   3.438  0.8201 -0.1766  0.0735
  885SOL    HW3 3586   0.262   3.531   3.584  0.4579 -0.5475  0.0454
  885SOL    MW4 3587   0.226   3.513   3.507 -0.0183  0.0813  0.1190
  886SOL     OW 3588   1.566   2.399   2.330  0.0609  0.0518  0.4083
  886SOL    HW2 3589   1.643   2.342   2.341 -0.1647 -0.6021 -1.2773
  886SOL    HW3 3590   1.495   2.351   2.374 -0.0469 -0.8121 -0.6855
  886SOL    MW4 3591   1.567   2.385   2.337  0.0169 -0.1485  0.0415
  887SOL     OW 3592   0.470   4.045   2.436  0.3713 -0.0832 -0.1921
  887SOL    HW2 3593   0.468   4.052   2.341 -3.3296 -0.6451 -0.2292
  887SOL    HW3 3594   0.497   3.954   2.452  3.4843  0.7165 -0.5892
  887SOL    MW4 3595   0.474   4.034   2.426  0.2937 -0.0520 -0.2491
  888SOL     OW 3596   1.080   0.903   3.411 -0.5294 -0.4395  0.3351
  888SOL    HW2 3597   1.074   0.951   3.329 -1.2434 -0.8254  0.1539
  888SOL    HW3 3598   1.136   0.828   3.392 -0.4482 -0.3626  0.2763
  888SOL    MW4 3599   1.086   0.899   3.398 -0.6129 -0.4803  0.3033
  889SOL     OW 3600   1.782   0.580   2.804 -0.3622  0.0831  0.1654
  889SOL    HW2 3601   1.822   0.513   2.750 -0.2490  0.8446 -0.7130
  889SOL    HW3 3602   1.776   0.541   2.891 -0.6284 -1.1806 -0.4145
  889SOL    MW4 3603   1.787   0.566   2.808 -0.3824  0.0169 -0.0269
  890SOL     OW 3604   1.150   3.089   1.358  0.0271 -0.0432  0.5102
  890SOL    HW2 3605   1.130   2.995   1.358  1.0363 -0.2665  0.0304
  890SOL    HW3 3606   1.080   3.128   1.409 -2.2496 -0.6412 -2.0627
  890SOL    MW4 3607   1.138   3.082   1.365 -0.1403 -0.1516  0.1074
  891SOL     OW 3608   1.875   1.104   1.466 -0.3220  0.0290  0.2536
  891SOL    HW2 3609   1.881   1.183   1.412  0.9470  0.3444  0.8241
  891SOL    HW3 3610   1.803   1.122   1.526 -0.2414  0.6345  0.1738
  891SOL    MW4 3611   1.866   1.117   1.467 -0.1439  0.1506  0.3182
  892SOL     OW 3612   2.140   3.163   2.693  0.2099  0.5178 -0.5928
  892SOL    HW2 3613   2.123   3.221   2.619 -0.6477 -0.8557 -1.4747
  892SOL    HW3 3614   2.090   3.202   2.765 -0.7223  0.6205 -1.2890
  892SOL    MW4 3615   2.131   3.176   2.693 -0.0262  0.3502 -0.8011
  893SOL     OW 3616   3.476   0.544   2.242 -0.5342  0.1445 -0.4642
  893SOL    HW2 3617   3.451   0.509   2.157 -1.4723  0.2513 -0.2410
  893SOL    HW3 3618   3.416   0.617   2.256  0.5359  0.9891 -0.3270
  893SOL    MW4 3619   3.464   0.549   2.233 -0.5169  0.2701 -0.4165
  894SOL     OW 3620   3.715   1.149   3.072 -0.1582  0.6392 -0.1332
  894SOL    HW2 3621   3.629   1.120   3.042 -0.8068 -1.2292  3.3008
  894SOL    HW3 3622   3.777   1.097   3.021 -1.2122 -2.4191  1.5747
  894SOL    MW4 3623   3.712   1.138   3.061 -0.3827 -0.0108  0.5453
  895SOL     OW 3624   1.267   3.469   1.748 -0.7397 -0.0226 -0.5230
  895SOL    HW2 3625   1.259   3.513   1.832  1.6624  0.8838 -0.7369
  895SOL    HW3 3626   1.312   3.387   1.768  0.6597  0.6152 -1.0525
  895SOL    MW4 3627   1.272   3.464   1.761 -0.2382  0.1810 -0.6212
  896SOL     OW 3628   2.323   1.112   2.066 -0.1560 -0.1366 -0.0872
  896SOL    HW2 3629   2.240   1.067   2.052 -1.0512  0.9090  1.6869
  896SOL    HW3 3630   2.373   1.055   2.125 -0.2245 -0.0400  0.0632
  896SOL    MW4 3631   2.319   1.099   2.072 -0.2830  0.0141  0.1667
  897SOL     OW 3632   2.882   3.138   3.797 -0.4643  0.2829  0.1942
  897SOL    HW2 3633   2.823   3.198   3.843 -0.8846  1.5139 -1.9228
  897SOL    HW3 3634   2.824   3.080   3.748  0.0204 -0.5444  0.5761
  897SOL    MW4 3635   2.867   3.138   3.797 -0.4559  0.3362 -0.0348
  898SOL     OW 3636   3.343   4.635   1.922  0.5657 -0.1452  0.4728
  898SOL    HW2 3637   3.376   4.546   1.913 -0.4368 -0.4879  0.1337
  898SOL    HW3 3638   3.277   4.643   1.853 -0.4400  0.3619  1.4915
  898SOL    MW4 3639   3.339   4.625   1.911  0.3006 -0.1240  0.5625
  899SOL     OW 3640   3.736   2.309   3.315 -0.3029  0.4509 -0.4197
  899SOL    HW2 3641   3.773   2.306   3.227  0.0420  0.6270 -0.2814
  899SOL    HW3 3642   3.797   2.257   3.368  0.0654  1.2302 -0.0774
  899SOL    MW4 3643   3.749   2.302   3.310 -0.2089  0.5770 -0.3560
  900SOL     OW 3644   0.252   1.862   2.561  0.6739 -0.1188  0.0345
  900SOL    HW2 3645   0.252   1.771   2.533  0.3799 -0.2179  0.3606
  900SOL    HW3 3646   0.195   1.906   2.498  1.2618 -0.0562 -0.4578
  900SOL    MW4 3647   0.244   1.856   2.549  0.7127 -0.1236  0.0124
  901SOL     OW 3648   3.647   4.345   3.633 -0.4379 -0.1700 -0.1548
  901SOL    HW2 3649   3.725   4.292   3.615  0.5924  1.3795 -0.4141
  901SOL    HW3 3650   3.582   4.316   3.570 -0.1735 -1.6972  0.2624
  901SOL    MW4 3651   3.649   4.334   3.623 -0.2673 -0.1669 -0.1338
  902SOL     OW 3652   0.696   0.562   1.734  0.1201 -0.0493  0.7261
  902SOL    HW2 3653   0.791   0.562   1.730  0.0711  0.2284 -0.9069
  902SOL    HW3 3654   0.669   0.509   1.659 -0.9956 -0.9696  1.7608
  902SOL    MW4 3655   0.705   0.555   1.724 -0.0336 -0.1341  0.6472
  903SOL     OW 3656   4.249   4.638   2.170  0.4748  0.0597 -0.5115
  903SOL    HW2 3657   4.343   4.638   2.190  0.6871  0.6265 -1.4899
  903SOL    HW3 3658   4.244   4.649   2.075 -0.6262  2.5061 -0.2124
  903SOL    MW4 3659   4.261   4.640   2.160  0.3567  0.4573 -0.6008
  904SOL     OW 3660   3.599   4.280   1.390  0.0502 -0.1747 -0.4352
  904SOL    HW2 3661   3.614   4.219   1.462  0.4041 -0.8763 -1.0932
  904SOL    HW3 3662   3.651   4.245   1.318  1.8979  2.0159 -0.2298
  904SOL    MW4 3663   3.608   4.267   1.390  0.3407  0.0219 -0.4950
  905SOL     OW 3664   3.527   2.062   2.866 -0.9218 -0.1785  0.2635
  905SOL    HW2 3665   3.614   2.090   2.838 -1.2388  0.9392  0.4022
  905SOL    HW3 3666   3.486   2.141   2.901 -0.9986 -1.2711  2.7544
  905SOL    MW4 3667   3.533   2.076   2.867 -0.9739 -0.1752  0.6106
  906SOL     OW 3668   0.155   3.726   1.569 -0.0266  0.0873  0.0240
  906SOL    HW2 3669   0.164   3.795   1.635 -1.1584 -0.0110  0.2914
  906SOL    HW3 3670   0.094   3.762   1.504  0.2600 -0.2231 -0.4207
  906SOL    MW4 3671   0.148   3.740   1.569 -0.1381  0.0331  0.0006
  907SOL     OW 3672   1.987   3.530   0.881  0.6202  0.4795  0.3902
  907SOL    HW2 3673   1.914   3.581   0.915 -0.4246  0.2224 -1.4090
  907SOL    HW3 3674   2.051   3.529   0.952 -0.7041  1.5473  1.6196
  907SOL    MW4 3675   1.986   3.536   0.895  0.3077  0.5867  0.3150
  908SOL     OW 3676   4.473   4.463   0.442  0.2330  0.1069  0.2321
  908SOL    HW2 3677   4.461   4.446   0.348 -0.1254  0.5827  0.1913
  908SOL    HW3 3678   4.415   4.400   0.484  1.1129 -0.7689  0.1704
  908SOL    MW4 3679   4.464   4.452   0.435  0.3023  0.0539  0.2186
  909SOL     OW 3680   2.193   0.624   4.086 -0.2495  0.2038  0.4889
  909SOL    HW2 3681   2.257   0.642   4.155  0.2413  0.0338  0.0872
  909SOL    HW3 3682   2.144   0.549   4.117 -0.1079  0.2012  0.7036
  909SOL    MW4 3683   2.195   0.617   4.099 -0.1664  0.1810  0.4640
  910SOL     OW 3684   0.965   0.590   1.719 -0.0983 -0.0462  0.1440
  910SOL    HW2 3685   0.964   0.636   1.803  1.0133  1.8075 -0.8144
  910SOL    HW3 3686   1.025   0.516   1.734  0.5403  0.5888  0.8332
  910SOL    MW4 3687   0.973   0.586   1.732  0.1326  0.2822  0.1085
  911SOL     OW 3688   3.954   2.221   0.203 -0.4615 -0.2346  0.0942
  911SOL    HW2 3689   3.958   2.227   0.299 -1.0915  1.2289  0.0459
  911SOL    HW3 3690   3.991   2.303   0.172 -0.6138 -0.5376 -0.9202
  911SOL    MW4 3691   3.960   2.232   0.212 -0.5648 -0.0813 -0.0460
  912SOL     OW 3692   3.770   1.704   2.626 -0.1076  0.0272  0.3556
  912SOL    HW2 3693   3.863   1.690   2.648 -0.2987 -2.2164 -0.0876
  912SOL    HW3 3694   3.771   1.725   2.532 -0.1138 -0.9454  0.1336
  912SOL    MW4 3695   3.783   1.705   2.616 -0.1338 -0.3971  0.2677
  913SOL     OW 3696   1.467   1.836   0.024 -0.4286  0.0799 -0.0803
  913SOL    HW2 3697   1.458   1.803  -0.065  2.3735 -0.1463 -0.3284
  913SOL    HW3 3698   1.461   1.931   0.016  1.9810  0.1994 -0.8552
  913SOL    MW4 3699   1.465   1.844   0.012  0.2590  0.0658 -0.2153
  914SOL     OW 3700   0.016   0.047   2.599  0.3217 -0.4133 -0.0469
  914SOL    HW2 3701   0.093   0.055   2.543 -0.4900  1.1271 -0.9747
  914SOL    HW3 3702  -0.020  -0.040   2.577 -0.5185  0.5453 -2.6531
  914SOL    MW4 3703   0.021   0.036   2.588  0.1037 -0.0837 -0.5131
  915SOL     OW 3704   0.140   0.300   2.125 -0.1482 -0.6636  0.0295
  915SOL    HW2 3705   0.070   0.317   2.187  0.0140 -1.2318  0.3731
  915SOL    HW3 3706   0.151   0.382   2.077 -1.1360 -0.6165 -0.1149
  915SOL    MW4 3707   0.132   0.313   2.127 -0.2571 -0.7323  0.0556
  916SOL     OW 3708   1.507   0.507   3.852 -0.6846 -0.8389 -0.4096
  916SOL    HW2 3709   1.567   0.567   3.896  0.7904 -0.6150 -2.6557
  916SOL    HW3 3710   1.523   0.422   3.894  0.1705 -0.4838 -0.0033
  916SOL    MW4 3711   1.517   0.504   3.863 -0.3772 -0.7625 -0.6523
  917SOL     OW 3712   1.212   2.864   1.030 -0.4060 -0.6087 -0.2685
  917SOL    HW2 3713   1.198   2.841   0.938 -2.4596  0.9123 -0.3683
  917SOL    HW3 3714   1.288   2.922   1.029 -0.2082 -0.8779 -0.9719
  917SOL    MW4 3715   1.220   2.868   1.017 -0.6509 -0.4435 -0.3746
  918SOL     OW 3716   2.468   3.169   1.133  0.1868 -0.1208  0.1976
  918SOL    HW2 3717   2.438   3.132   1.051 -1.4209  0.4200  0.5366
  918SOL    HW3 3718   2.434   3.110   1.200 -1.1844  1.1580  0.6546
  918SOL    MW4 3719   2.460   3.157   1.131 -0.2062  0.1194  0.3026
  919SOL     OW 3720   3.875   2.761   1.849 -0.1612 -0.2408 -0.3847
  919SOL    HW2 3721   3.901   2.787   1.761  1.8424  0.2220  0.3123
  919SOL    HW3 3722   3.907   2.832   1.905 -0.6588 -0.9368  0.8002
  919SOL    MW4 3723   3.883   2.774   1.845  0.0377 -0.2716 -0.1364
  920SOL     OW 3724   4.406   2.085   3.345  0.0359 -0.3986 -0.5056
  920SOL    HW2 3725   4.401   2.105   3.438 -4.5346 -1.2677 -0.4489
  920SOL    HW3 3726   4.448   2.161   3.306  1.3836  0.2735  2.1339
  920SOL    MW4 3727   4.411   2.097   3.352 -0.3891 -0.4246 -0.1502
  921SOL     OW 3728   4.344   1.994   2.590  0.5855  0.0314 -0.0191
  921SOL    HW2 3729   4.415   1.996   2.654  0.2700 -0.6443  0.3642
  921SOL    HW3 3730   4.267   2.024   2.640  0.5460  0.5079 -0.3616
  921SOL    MW4 3731   4.343   1.998   2.605  0.5383  0.0051 -0.0138
  922SOL     OW 3732   0.862   4.395   1.150  0.1112 -0.1375  0.3839
  922SOL    HW2 3733   0.783   4.341   1.154  0.1824 -0.3452 -0.7652
  922SOL    HW3 3734   0.915   4.355   1.080  1.3197 -0.1149  1.2763
  922SOL    MW4 3735   0.858   4.383   1.141  0.2801 -0.1612  0.3501
  923SOL     OW 3736   3.046   1.785   1.148 -0.6357  0.6114 -0.8101
  923SOL    HW2 3737   3.137   1.814   1.147 -0.5118  0.2464 -0.4679
  923SOL    HW3 3738   3.043   1.715   1.083 -0.3271 -0.3686  0.2064
  923SOL    MW4 3739   3.058   1.779   1.140 -0.5786  0.4339 -0.6310
  924SOL     OW 3740   2.971   2.638   2.193  0.0924  0.2196  0.0690
  924SOL    HW2 3741   3.045   2.669   2.140  1.0985 -0.3985  1.0844
  924SOL    HW3 3742   3.001   2.647   2.283  0.5398 -3.9400  0.4188
  924SOL    MW4 3743   2.985   2.643   2.198  0.2842 -0.4108  0.2487
  925SOL     OW 3744   4.407   0.415   3.344 -0.1040 -0.6006  0.5071
  925SOL    HW2 3745   4.436   0.496   3.301  0.9946 -0.9247  0.6031
  925SOL    HW3 3746   4.312   0.424   3.351 -0.4768 -1.1743 -3.1985
  925SOL    MW4 3747   4.399   0.427   3.340 -0.0081 -0.7191  0.0308
  926SOL     OW 3748   0.212   0.337   3.171 -0.1397  0.0501 -0.1572
  926SOL    HW2 3749   0.243   0.255   3.210  0.9287  0.0968 -0.8996
  926SOL    HW3 3750   0.117   0.326   3.165  0.0330 -1.2872 -0.5942
  926SOL    MW4 3751   0.204   0.325   3.175  0.0240 -0.1202 -0.3128
  927SOL     OW 3752   0.320   1.651   3.185  0.2774 -0.5692  0.1694
  927SOL    HW2 3753   0.268   1.577   3.217 -1.3951  0.4455 -0.1834
  927SOL    HW3 3754   0.356   1.691   3.265 -0.3364 -0.6445  0.4875
  927SOL    MW4 3755   0.318   1.646   3.200 -0.0243 -0.4452  0.1647
  928SOL     OW 3756   3.717   2.572   3.003 -0.0917  0.2912  0.2363
  928SOL    HW2 3757   3.706   2.628   2.926 -0.2672  1.5031  1.1200
  928SOL    HW3 3758   3.629   2.567   3.042 -0.0088 -0.3357  0.3540
  928SOL    MW4 3759   3.704   2.579   2.998 -0.1040  0.3684  0.3684
  929SOL     OW 3760   3.354   3.086   2.714  0.1788  0.0975  0.3620
  929SOL    HW2 3761   3.407   3.007   2.700  0.5892  0.2451  1.0835
  929SOL    HW3 3762   3.264   3.054   2.714  0.3245 -0.3232  0.2840
  929SOL    MW4 3763   3.349   3.071   2.712  0.2522  0.0613  0.4470
  930SOL     OW 3764   2.509   1.692   1.470  0.5795 -0.2795 -0.4654
  930SOL    HW2 3765   2.577   1.664   1.409  0.7630  1.3450 -1.0454
  930SOL    HW3 3766   2.517   1.633   1.545  1.5612 -1.1172 -1.2205
  930SOL    MW4 3767   2.519   1.681   1.472  0.7331 -0.1756 -0.6416
  931SOL     OW 3768   0.060   3.464   3.854  0.3668 -0.0430  0.0403
  931SOL    HW2 3769   0.024   3.426   3.934 -0.1329  1.0288  0.3439
  931SOL    HW3 3770   0.076   3.390   3.796 -0.5246 -0.7032  0.6402
  931SOL    MW4 3771   0.057   3.449   3.857  0.1836  0.0112  0.1595
  932SOL     OW 3772   1.766   2.062   3.962 -0.2675 -0.3348 -0.2668
  932SOL    HW2 3773   1.830   2.067   3.891 -0.7742  0.6123 -0.6787
  932SOL    HW3 3774   1.793   1.987   4.014  0.9566 -0.1726 -0.6477
  932SOL    MW4 3775   1.778   2.053   3.960 -0.1729 -0.1884 -0.3710
  933SOL     OW 3776   4.327   0.532   0.899  0.7150  0.4565 -0.1046
  933SOL    HW2 3777   4.394   0.499   0.960  2.5860  0.5653 -2.0428
  933SOL    HW3 3778   4.249   0.480   0.919  2.1110 -1.4993  0.4374
  933SOL    MW4 3779   4.326   0.521   0.910  1.1458  0.2128 -0.2887
  934SOL     OW 3780   3.750   2.575   3.448  0.3464  0.3185  0.4210
  934SOL    HW2 3781   3.789   2.553   3.533  0.0455  0.2029  0.5301
  934SOL    HW3 3782   3.749   2.492   3.401 -0.4958  0.1595  0.7131
  934SOL    MW4 3783   3.755   2.561   3.453  0.1953  0.2823  0.4740
  935SOL     OW 3784   3.682   2.255   0.178 -0.1900  0.8601 -0.1475
  935SOL    HW2 3785   3.776   2.249   0.194 -0.4541 -1.0058  0.8524
  935SOL    HW3 3786   3.663   2.349   0.183  1.3338  1.1182  1.3573
  935SOL    MW4 3787   3.692   2.267   0.181 -0.0238  0.6478  0.1829
  936SOL     OW 3788   3.897   2.825   3.643 -0.3846 -0.5969 -0.1909
  936SOL    HW2 3789   3.848   2.785   3.715  0.1076 -0.0943  0.4360
  936SOL    HW3 3790   3.932   2.906   3.680  0.4158 -0.6465 -0.8062
  936SOL    MW4 3791   3.895   2.831   3.657 -0.2141 -0.5372 -0.1893
  937SOL     OW 3792   4.350   2.411   3.502  0.3995 -0.1852 -0.1232
  937SOL    HW2 3793   4.364   2.424   3.596 -1.3965 -0.7904  0.2387
  937SOL    HW3 3794   4.303   2.490   3.474 -1.6884 -1.3086  0.1012
  937SOL    MW4 3795   4.346   2.423   3.511 -0.1130 -0.4132 -0.0458
  938SOL     OW 3796   2.986   1.484   3.371  0.2992  0.7070  0.1241
  938SOL    HW2 3797   3.079   1.460   3.365  0.2177  0.8359 -2.2121
  938SOL    HW3 3798   2.985   1.566   3.420  1.3958  0.5063  0.4893
  938SOL    MW4 3799   2.998   1.492   3.376  0.4332  0.6976 -0.1359
  939SOL     OW 3800   1.600   3.111   0.779  0.4192  0.4199 -0.2190
  939SOL    HW2 3801   1.688   3.082   0.805  0.5337  0.0717 -0.9822
  939SOL    HW3 3802   1.578   3.179   0.843  0.4494 -0.8248  1.1240
  939SOL    MW4 3803   1.609   3.116   0.791  0.4382  0.2096 -0.1424
  940SOL     OW 3804   3.008   1.401   2.681  0.0348 -0.1145  0.1311
  940SOL    HW2 3805   2.975   1.485   2.713  0.4084  0.2064 -0.3226
  940SOL    HW3 3806   3.071   1.424   2.613  1.5144 -0.7167  1.2927
  940SOL    MW4 3807   3.012   1.415   2.676  0.2792 -0.1515  0.2246
  941SOL     OW 3808   2.109   1.058   2.472 -0.1540 -0.9660  0.3991
  941SOL    HW2 3809   2.203   1.076   2.477 -0.1291 -0.7443 -0.7333
  941SOL    HW3 3810   2.103   0.980   2.417 -0.6517 -0.8710  0.3197
  941SOL    MW4 3811   2.121   1.050   2.465 -0.2165 -0.9241  0.2394
  942SOL     OW 3812   4.370   3.623   4.222 -0.2574  0.6986  0.2131
  942SOL    HW2 3813   4.419   3.704   4.233 -0.5338  0.7591  1.0256
  942SOL    HW3 3814   4.284   3.651   4.191 -0.0593  0.6465 -0.4037
  942SOL    MW4 3815   4.365   3.638   4.219 -0.2675  0.6995  0.2389
  943SOL     OW 3816   2.078   2.228   2.109 -0.0765 -0.2979  0.2508
  943SOL    HW2 3817   2.142   2.160   2.128 -0.6937 -0.4592  1.8167
  943SOL    HW3 3818   2.086   2.243   2.015  0.8034 -1.7843  0.0760
  943SOL    MW4 3819   2.088   2.221   2.099 -0.0422 -0.5152  0.4344
  944SOL     OW 3820   1.686   2.500   1.187  0.1179 -0.3042 -0.5145
  944SOL    HW2 3821   1.644   2.540   1.111 -0.9211 -0.9627 -0.2952
  944SOL    HW3 3822   1.631   2.425   1.209 -1.3841  1.6005  2.7278
  944SOL    MW4 3823   1.673   2.496   1.180 -0.2174 -0.1400 -0.0579
  945SOL     OW 3824   0.936   1.486   0.544  0.7018  0.1978  0.3168
  945SOL    HW2 3825   0.869   1.542   0.504 -0.5773  0.6452  2.9856
  945SOL    HW3 3826   0.975   1.439   0.470 -2.5587 -0.0943 -1.3138
  945SOL    MW4 3827   0.933   1.487   0.529  0.1028  0.2183  0.4538
  946SOL     OW 3828   4.365   0.842   3.413 -0.0489 -0.4898  0.0934
  946SOL    HW2 3829   4.424   0.787   3.361 -0.8412 -2.3565  1.1490
  946SOL    HW3 3830   4.280   0.799   3.407 -0.6238  0.4856  1.1283
  946SOL    MW4 3831   4.362   0.829   3.406 -0.2289 -0.6074  0.3691
  947SOL     OW 3832   3.119   3.935   3.988  0.5093  0.0207  0.3831
  947SOL    HW2 3833   3.163   3.973   3.912 -0.4687  0.1570 -0.1131
  947SOL    HW3 3834   3.032   3.913   3.957  0.8355 -2.0150  0.8588
  947SOL    MW4 3835   3.114   3.937   3.974  0.4234 -0.2301  0.3805
  948SOL     OW 3836   4.388   4.100   4.127  0.1675  0.3156 -0.1310
  948SOL    HW2 3837   4.359   4.073   4.040  0.7552 -1.3332  0.1643
  948SOL    HW3 3838   4.319   4.159   4.157 -2.6328 -2.9227  0.2270
  948SOL    MW4 3839   4.375   4.104   4.120 -0.1245 -0.3290 -0.0448
  949SOL     OW 3840   1.701   4.097   1.944 -0.2084 -0.3799 -0.3100
  949SOL    HW2 3841   1.612   4.125   1.923 -0.3761 -1.0253 -0.4672
  949SOL    HW3 3842   1.755   4.135   1.875 -0.0470  1.8883  1.0055
  949SOL    MW4 3843   1.696   4.106   1.932 -0.2093 -0.1659 -0.1572
  950SOL     OW 3844   4.271   0.420   2.598 -0.3167  0.1368  0.5342
  950SOL    HW2 3845   4.296   0.506   2.566  0.4553 -0.0325  0.6687
  950SOL    HW3 3846   4.282   0.426   2.693 -0.2927 -0.0978  0.5469
  950SOL    MW4 3847   4.276   0.432   2.606 -0.2122  0.0834  0.5536
  951SOL     OW 3848   0.642   4.521   3.004 -0.2600 -0.0200 -0.6029
  951SOL    HW2 3849   0.598   4.602   3.027  0.3697  0.9357 -2.6437
  951SOL    HW3 3850   0.679   4.490   3.087 -1.9645  0.8505  0.5122
  951SOL    MW4 3851   0.641   4.528   3.018 -0.4018  0.2208 -0.7250
  952SOL     OW 3852   4.422   2.832   2.439  0.2738 -0.0772 -0.1032
  952SOL    HW2 3853   4.395   2.923   2.451 -1.8059 -0.3718 -2.1018
  952SOL    HW3 3854   4.354   2.781   2.482  0.6139 -0.7223 -0.3203
  952SOL    MW4 3855   4.410   2.837   2.446  0.0439 -0.2010 -0.3958
  953SOL     OW 3856   0.921   4.023   1.674  0.2558 -0.1339 -0.2684
  953SOL    HW2 3857   0.944   3.933   1.697  1.5346 -0.0692 -1.2364
  953SOL    HW3 3858   0.944   4.031   1.581  0.5906  1.3239 -0.0835
  953SOL    MW4 3859   0.927   4.012   1.665  0.4688  0.0672 -0.3718
  954SOL     OW 3860   1.799   4.378   2.165 -0.0292 -0.2592  0.6128
  954SOL    HW2 3861   1.811   4.444   2.233 -1.8645 -0.8770  1.5904
  954SOL    HW3 3862   1.829   4.297   2.205 -0.0999 -0.4336  0.3119
  954SOL    MW4 3863   1.804   4.376   2.179 -0.2809 -0.3638  0.7021
  955SOL     OW 3864   0.904   1.281   1.168  0.1711  0.7058  0.2738
  955SOL    HW2 3865   0.861   1.327   1.240  1.4631  1.6154  0.4757
  955SOL    HW3 3866   0.835   1.227   1.130 -0.1259 -1.1948  3.3257
  955SOL    MW4 3867   0.889   1.280   1.173  0.3024  0.5751  0.7031
  956SOL     OW 3868   3.554   0.044   3.996 -0.0297  0.1475 -0.7240
  956SOL    HW2 3869   3.514  -0.020   4.056 -0.2433  1.6249  0.7364
  956SOL    HW3 3870   3.599  -0.010   3.931 -1.8166 -1.5196 -0.6331
  956SOL    MW4 3871   3.555   0.028   3.995 -0.2935  0.1225 -0.5190
  957SOL     OW 3872   0.393   0.847   0.330  0.1897 -0.5428 -0.6839
  957SOL    HW2 3873   0.409   0.886   0.417 -1.4030 -1.0256 -0.1671
  957SOL    HW3 3874   0.440   0.764   0.332 -0.0258 -0.6528 -0.2090
  957SOL    MW4 3875   0.401   0.841   0.342 -0.0489 -0.6211 -0.5531
  958SOL     OW 3876   3.403   0.050   1.077 -0.1994 -0.5971 -0.3955
  958SOL    HW2 3877   3.332   0.096   1.030  0.1411 -0.5230 -0.8467
  958SOL    HW3 3878   3.420  -0.027   1.023  1.2296  0.2681 -1.2242
  958SOL    MW4 3879   3.396   0.046   1.063  0.0341 -0.4731 -0.5645
  959SOL     OW 3880   2.435   1.111   1.803 -0.2567 -0.1479  0.2752
  959SOL    HW2 3881   2.391   1.123   1.887 -1.9117 -0.0252 -0.5959
  959SOL    HW3 3882   2.526   1.136   1.820 -0.5164 -0.3861  2.0876
  959SOL    MW4 3883   2.441   1.116   1.816 -0.5095 -0.1631  0.3994
  960SOL     OW 3884   3.007   0.294   4.108 -0.1947 -0.3453  0.0320
  960SOL    HW2 3885   3.099   0.276   4.123 -0.0854  0.6872  0.7145
  960SOL    HW3 3886   3.006   0.374   4.055 -0.6820  0.4024  1.1235
  960SOL    MW4 3887   3.019   0.302   4.103 -0.2444 -0.1104  0.2656
  961SOL     OW 3888   1.895   0.242   4.035  0.2696  0.1642 -0.3564
  961SOL    HW2 3889   1.899   0.146   4.042 -0.0507  0.1256 -0.6412
  961SOL    HW3 3890   1.801   0.262   4.041  0.4576  0.5962  1.3000
  961SOL    MW4 3891   1.883   0.232   4.036  0.2522  0.2161 -0.1755
  962SOL     OW 3892   1.807   0.975   1.206 -0.2950 -0.2108 -0.3837
  962SOL    HW2 3893   1.837   0.996   1.294 -0.3867  0.8154 -0.5811
  962SOL    HW3 3894   1.745   1.045   1.184 -1.7461 -1.5310 -0.5296
  962SOL    MW4 3895   1.803   0.987   1.214 -0.4987 -0.2496 -0.4292
  963SOL     OW 3896   1.835   3.524   2.830 -0.2862 -0.0231 -0.1746
  963SOL    HW2 3897   1.840   3.611   2.870 -1.1178 -0.2550  0.4699
  963SOL    HW3 3898   1.792   3.539   2.746 -0.1786  0.2286 -0.1858
  963SOL    MW4 3899   1.830   3.537   2.825 -0.3817 -0.0205 -0.0911
  964SOL     OW 3900   3.917   0.771   1.656  0.1296  0.1919 -0.3713
  964SOL    HW2 3901   3.998   0.781   1.607 -0.1581  1.0347 -0.6823
  964SOL    HW3 3902   3.945   0.768   1.748  0.5726 -0.2601 -0.5231
  964SOL    MW4 3903   3.931   0.772   1.662  0.1500  0.2434 -0.4324
  965SOL     OW 3904   0.002   3.473   2.181 -0.5157  0.2838  0.4212
  965SOL    HW2 3905  -0.029   3.455   2.270  2.5138  0.0491  1.4769
  965SOL    HW3 3906   0.006   3.569   2.176 -1.9333  0.3418  0.0488
  965SOL    MW4 3907  -0.002   3.483   2.192 -0.3033  0.2606  0.5114
  966SOL     OW 3908   2.098   3.578   1.933 -0.5653 -0.3125 -0.2353
  966SOL    HW2 3909   2.191   3.569   1.911 -0.0076  0.9011  1.4853
  966SOL    HW3 3910   2.057   3.498   1.900  1.3844 -1.6467  0.5049
  966SOL    MW4 3911   2.105   3.566   1.926 -0.2344 -0.3281  0.0894
  967SOL     OW 3912   1.153   4.229   3.281 -0.2119  0.3093 -0.1960
  967SOL    HW2 3913   1.093   4.264   3.347 -0.1066  0.7024 -0.3064
  967SOL    HW3 3914   1.238   4.229   3.324  0.1807  2.2601 -0.9196
  967SOL    MW4 3915   1.156   4.233   3.295 -0.1462  0.6185 -0.3059
  968SOL     OW 3916   0.211   0.725   2.258  0.0285 -0.2031 -0.6130
  968SOL    HW2 3917   0.266   0.647   2.255  3.2469  2.0208 -1.2388
  968SOL    HW3 3918   0.182   0.737   2.168  1.3999  0.5877 -0.9601
  968SOL    MW4 3919   0.214   0.716   2.246  0.6341  0.1946 -0.7412
  969SOL     OW 3920   1.249   3.977   2.713  0.0291  0.0643 -0.3960
  969SOL    HW2 3921   1.252   3.882   2.729 -0.1665  0.1690  0.2877
  969SOL    HW3 3922   1.338   4.000   2.686 -0.1098 -0.4382 -1.3178
  969SOL    MW4 3923   1.261   3.967   2.711 -0.0151  0.0119 -0.4275
  970SOL     OW 3924   0.384   3.658   4.096  0.0022 -0.0413 -0.0697
  970SOL    HW2 3925   0.296   3.675   4.062 -0.3876 -0.4006  0.7479
  970SOL    HW3 3926   0.377   3.573   4.140  0.9467 -0.4317 -0.6477
  970SOL    MW4 3927   0.371   3.649   4.097  0.0754 -0.1404 -0.0381
  971SOL     OW 3928   1.669   1.205   1.129  0.2320 -0.3324 -0.3745
  971SOL    HW2 3929   1.675   1.198   1.034 -0.1248 -0.0438 -0.4204
  971SOL    HW3 3930   1.575   1.212   1.146  0.3299  0.1987 -0.0447
  971SOL    MW4 3931   1.657   1.205   1.119  0.1979 -0.2242 -0.3370
  972SOL     OW 3932   2.355   2.814   3.995 -0.0960 -0.0682 -0.1541
  972SOL    HW2 3933   2.280   2.855   3.952 -0.2889  1.3017  1.4574
  972SOL    HW3 3934   2.400   2.887   4.038  0.3220 -1.3456  1.6056
  972SOL    MW4 3935   2.351   2.829   3.995 -0.0663 -0.0563  0.2904
  973SOL     OW 3936   3.518   1.285   2.670 -0.0397 -0.0792 -0.0509
  973SOL    HW2 3937   3.489   1.348   2.603  0.5225 -0.1258 -0.3452
  973SOL    HW3 3938   3.438   1.260   2.716 -0.6615 -1.1404 -1.6424
  973SOL    MW4 3939   3.504   1.290   2.667 -0.0474 -0.2254 -0.2995
  974SOL     OW 3940   2.684   3.650   3.947  0.0955  0.7347  0.2693
  974SOL    HW2 3941   2.731   3.581   3.994  0.1369 -0.1252 -1.0110
  974SOL    HW3 3942   2.702   3.633   3.854  0.0166  2.3996 -0.0725
  974SOL    MW4 3943   2.693   3.639   3.941  0.0904  0.8409  0.0553
  975SOL     OW 3944   3.362   4.552   0.701 -0.8095 -0.1484  0.3424
  975SOL    HW2 3945   3.417   4.516   0.631  0.1261  0.8985  0.5194
  975SOL    HW3 3946   3.385   4.645   0.704 -3.2141  0.5078 -0.1562
  975SOL    MW4 3947   3.372   4.559   0.692 -1.0030  0.0763  0.2999
  976SOL     OW 3948   0.730   1.087   2.129  0.0161 -0.0340 -0.0216
  976SOL    HW2 3949   0.788   1.056   2.199  0.2783 -0.6869 -0.5238
  976SOL    HW3 3950   0.742   1.024   2.058 -0.3848  0.5223 -0.5914
  976SOL    MW4 3951   0.740   1.075   2.129 -0.0022 -0.0466 -0.1633
  977SOL     OW 3952   2.644   0.795   1.453  0.1374 -0.3367  0.1235
  977SOL    HW2 3953   2.562   0.766   1.493 -0.7740  1.0211 -0.7290
  977SOL    HW3 3954   2.675   0.719   1.404 -0.5794 -0.8775  0.5079
  977SOL    MW4 3955   2.637   0.781   1.452 -0.0775 -0.2289  0.0618
  978SOL     OW 3956   4.310   3.581   3.664 -0.2306  0.0149  0.2917
  978SOL    HW2 3957   4.338   3.673   3.664  1.4995 -0.4949  0.2403
  978SOL    HW3 3958   4.388   3.533   3.691 -0.7706 -1.5563 -0.9074
  978SOL    MW4 3959   4.324   3.587   3.668 -0.0734 -0.2599  0.1266
  979SOL     OW 3960   1.984   3.329   1.801  0.2515  0.1478  0.0951
  979SOL    HW2 3961   2.033   3.320   1.719 -0.0307 -2.0121  0.1271
  979SOL    HW3 3962   1.993   3.244   1.844 -1.0702  0.6821  1.5007
  979SOL    MW4 3963   1.992   3.317   1.796  0.0399 -0.0668  0.2848
  980SOL     OW 3964   0.178   2.579   2.088 -0.0932  0.0779 -0.5161
  980SOL    HW2 3965   0.145   2.502   2.134 -1.1001 -0.7997 -2.6358
  980SOL    HW3 3966   0.271   2.562   2.077 -0.3264 -0.8709 -1.0482
  980SOL    MW4 3967   0.186   2.567   2.093 -0.2568 -0.1631 -0.8657
  981SOL     OW 3968   3.359   0.561   2.700  0.6148  0.4496  0.7422
  981SOL    HW2 3969   3.338   0.483   2.750  0.6249  0.9981  1.6105
  981SOL    HW3 3970   3.454   0.566   2.703  0.6258  0.3859  0.5161
  981SOL    MW4 3971   3.369   0.552   2.707  0.6175  0.5136  0.8268
  982SOL     OW 3972   0.017   3.161   0.326  0.1309 -0.2811 -0.0431
  982SOL    HW2 3973   0.033   3.173   0.419 -0.8006  0.3243  0.0418
  982SOL    HW3 3974   0.104   3.146   0.289  0.8754  2.3742  0.5091
  982SOL    MW4 3975   0.031   3.161   0.333  0.1068  0.1490  0.0409
  983SOL     OW 3976   0.705   3.601   2.769 -0.3393  0.2888  0.1502
  983SOL    HW2 3977   0.701   3.566   2.680 -0.5009 -0.1338  0.3225
  983SOL    HW3 3978   0.618   3.587   2.805 -0.0498 -0.2911  0.6500
  983SOL    MW4 3979   0.693   3.594   2.762 -0.3224  0.1566  0.2391
  984SOL     OW 3980   4.368   0.420   0.092  0.7110 -0.1404  0.0700
  984SOL    HW2 3981   4.335   0.489   0.034 -1.5422 -0.5402  0.8341
  984SOL    HW3 3982   4.371   0.342   0.037 -1.0113 -0.4212  0.3375
  984SOL    MW4 3983   4.364   0.419   0.077  0.1860 -0.2302  0.2061
  985SOL     OW 3984   3.646   1.616   0.573  0.5612  0.5636 -0.2872
  985SOL    HW2 3985   3.592   1.692   0.553  0.7639  1.1649  1.3517
  985SOL    HW3 3986   3.588   1.541   0.562 -0.2832  1.1210  0.2955
  985SOL    MW4 3987   3.631   1.616   0.569  0.4766  0.7164  0.0058
  986SOL     OW 3988   3.053   2.489   0.577 -0.0011  0.5844  0.1530
  986SOL    HW2 3989   3.035   2.397   0.595  1.4125  0.0436 -1.1222
  986SOL    HW3 3990   3.127   2.510   0.634 -0.8788  1.1874  1.0872
  986SOL    MW4 3991   3.060   2.480   0.587  0.0694  0.5927  0.1079
  987SOL     OW 3992   0.952   0.954   1.506 -0.0511 -0.0942 -0.3073
  987SOL    HW2 3993   0.990   0.874   1.470  1.0531 -0.0391  0.6837
  987SOL    HW3 3994   0.983   1.023   1.447  0.8929 -0.1278  0.1414
  987SOL    MW4 3995   0.961   0.953   1.494  0.2192 -0.0913 -0.1172
  988SOL     OW 3996   0.927   0.944   3.681  0.0638 -0.6925 -0.3242
  988SOL    HW2 3997   0.893   1.031   3.659 -1.1845 -0.6039  1.8082
  988SOL    HW3 3998   0.990   0.925   3.612 -0.5033  1.4082 -1.4717
  988SOL    MW4 3999   0.931   0.953   3.669 -0.1758 -0.4036 -0.1943
  989SOL     OW 4000   3.468   1.773   1.989 -0.6395  0.3415 -0.0195
  989SOL    HW2 4001   3.467   1.725   2.072 -0.6500 -0.9334 -0.7378
  989SOL    HW3 4002   3.560   1.796   1.976 -0.6008  0.3249  0.2256
  989SOL    MW4 4003   3.480   1.769   1.998 -0.6359  0.1711 -0.0819
  990SOL     OW 4004   0.085   4.361   3.561  0.1597 -0.4330  0.1926
  990SOL    HW2 4005   0.053   4.310   3.635 -1.3369 -0.9170 -0.7694
  990SOL    HW3 4006   0.084   4.300   3.487  1.5777  0.0615 -0.2362
  990SOL    MW4 4007   0.080   4.346   3.561  0.1493 -0.4320  0.0093
  991SOL     OW 4008   0.845   4.406   0.302  0.0966  0.1159 -0.3348
  991SOL    HW2 4009   0.812   4.433   0.387  0.8300 -1.3206  0.4360
  991SOL    HW3 4010   0.940   4.418   0.308  0.1362  0.1917 -1.0130
  991SOL    MW4 4011   0.853   4.411   0.314  0.1986 -0.0634 -0.3226
  992SOL     OW 4012   0.282   1.474   1.546  0.0532 -0.0328 -0.8307
  992SOL    HW2 4013   0.373   1.459   1.573 -0.5104 -1.3386  0.4167
  992SOL    HW3 4014   0.266   1.566   1.568  0.6601 -0.1612  0.2057
  992SOL    MW4 4015   0.292   1.484   1.552  0.0589 -0.2218 -0.5294
  993SOL     OW 4016   2.408   4.596   1.811  0.1444 -0.0875 -0.0091
  993SOL    HW2 4017   2.413   4.541   1.889  0.3984 -1.8311 -1.2039
  993SOL    HW3 4018   2.318   4.629   1.811 -0.4779 -1.7196 -0.0257
  993SOL    MW4 4019   2.397   4.593   1.821  0.0961 -0.5326 -0.1688
  994SOL     OW 4020   3.846   1.912   3.415  0.1171 -0.2015  0.4871
  994SOL    HW2 4021   3.815   1.972   3.347 -0.5648  0.5541  1.4533
  994SOL    HW3 4022   3.902   1.850   3.368  0.5298  0.9530 -0.5861
  994SOL    MW4 4023   3.849   1.912   3.400  0.0818  0.0505  0.4730
  995SOL     OW 4024   2.390   1.102   3.917  0.5851  0.1469 -0.2620
  995SOL    HW2 4025   2.327   1.061   3.976 -0.6801 -0.3179 -1.8854
  995SOL    HW3 4026   2.459   1.135   3.974 -0.6912 -0.1347  1.4787
  995SOL    MW4 4027   2.390   1.101   3.932  0.2499  0.0484 -0.2465
  996SOL     OW 4028   4.203   1.866   3.533 -0.1054  0.0259  0.1152
  996SOL    HW2 4029   4.266   1.933   3.560 -3.1438  2.3580  1.8324
  996SOL    HW3 4030   4.153   1.906   3.462  0.6076 -1.9566 -1.5509
  996SOL    MW4 4031   4.204   1.880   3.527 -0.4120  0.0719  0.1218
  997SOL     OW 4032   3.276   2.101   2.425 -0.3935 -0.1012 -0.3072
  997SOL    HW2 4033   3.286   2.034   2.494  2.0357  0.6047  0.0842
  997SOL    HW3 4034   3.330   2.069   2.353  0.7094  1.3835 -0.1511
  997SOL    MW4 4035   3.284   2.088   2.425  0.0725  0.1879 -0.2351
  998SOL     OW 4036   3.096   1.861   4.027  0.6400 -0.4502 -0.3832
  998SOL    HW2 4037   3.046   1.930   3.982  0.1109 -0.9999 -0.6516
  998SOL    HW3 4038   3.170   1.907   4.066  0.2418  0.2925 -0.4769
  998SOL    MW4 4039   3.099   1.877   4.026  0.5178 -0.4247 -0.4306
  999SOL     OW 4040   2.062   3.730   0.445 -0.1001 -0.0162  0.0846
  999SOL    HW2 4041   2.124   3.795   0.410  1.2186 -2.0063 -1.3715
  999SOL    HW3 4042   2.107   3.690   0.519 -0.3713 -0.2307  0.1361
  999SOL    MW4 4043   2.076   3.734   0.450  0.0381 -0.3071 -0.1007
 1000SOL     OW 4044   4.233   2.628   3.743 -0.3760 -0.2128 -0.2877
 1000SOL    HW2 4045   4.158   2.570   3.755 -0.5492  0.0960  0.1483
 1000SOL    HW3 4046   4.242   2.637   3.648 -0.9283 -0.2077 -0.3402
 1000SOL    MW4 4047   4.224   2.622   3.732 -0.4721 -0.1712 -0.2372
 1001SOL     OW 4048   4.094   0.454   0.701  0.2360 -0.2079 -0.0200
 1001SOL    HW2 4049   4.081   0.461   0.795  1.7443  0.1811  0.1816
 1001SOL    HW3 4050   4.099   0.545   0.671  2.5766 -0.2907 -0.0229
 1001SOL    MW4 4051   4.093   0.467   0.709  0.7439 -0.1675  0.0061
 1002SOL     OW 4052   1.637   3.197   0.311 -0.3940  0.0820  0.1727
 1002SOL    HW2 4053   1.569   3.161   0.367  0.7722 -1.4531  0.6320
 1002SOL    HW3 4054   1.702   3.232   0.372 -0.9109  1.8745 -0.2618
 1002SOL    MW4 4055   1.637   3.197   0.327 -0.3083  0.1163  0.1760
 1003SOL     OW 4056   2.674   4.452   0.743 -0.4437  0.0211  0.4907
 1003SOL    HW2 4057   2.677   4.356   0.749 -0.3202  0.0139  0.3163
 1003SOL    HW3 4058   2.755   4.481   0.785  1.6892 -0.1280 -3.3207
 1003SOL    MW4 4059   2.685   4.443   0.749 -0.1462  0.0005 -0.0351
 1004SOL     OW 4060   0.515   3.241   0.385  0.0714  0.2755  0.2513
 1004SOL    HW2 4061   0.609   3.234   0.367  0.0164 -0.3822  0.2089
 1004SOL    HW3 4062   0.489   3.325   0.346  0.5289  0.1996 -0.2197
 1004SOL    MW4 4063   0.524   3.251   0.377  0.1245  0.1788  0.1836
 1005SOL     OW 4064   0.610   2.095   1.919  0.0035  0.0909 -0.3644
 1005SOL    HW2 4065   0.690   2.100   1.971 -0.0133  0.4658 -0.3704
 1005SOL    HW3 4066   0.631   2.143   1.839 -0.3876  0.6099 -0.1551
 1005SOL    MW4 4067   0.624   2.102   1.915 -0.0503  0.2093 -0.3376
 1006SOL     OW 4068   0.295   3.734   1.215 -0.6781  0.2078  0.2265
 1006SOL    HW2 4069   0.228   3.667   1.205 -0.2161 -0.3253  0.5845
 1006SOL    HW3 4070   0.377   3.684   1.222 -0.0663  0.9034 -1.7049
 1006SOL    MW4 4071   0.297   3.719   1.215 -0.5365  0.2294  0.0190
 1007SOL     OW 4072   0.675   0.038   1.634 -0.1361 -0.7978 -0.0389
 1007SOL    HW2 4073   0.685  -0.011   1.553  1.8827 -0.7871  0.1820
 1007SOL    HW3 4074   0.725   0.119   1.620 -0.8892 -0.1817  0.7256
 1007SOL    MW4 4075   0.683   0.042   1.622  0.0309 -0.7151  0.0912
 1008SOL     OW 4076   2.685   4.112   2.826  0.0906 -0.0906 -0.4197
 1008SOL    HW2 4077   2.740   4.190   2.815  0.0433  0.2524  1.6503
 1008SOL    HW3 4078   2.746   4.044   2.855 -0.4617  0.1260  1.2658
 1008SOL    MW4 4079   2.701   4.113   2.828  0.0119 -0.0167  0.0758
 1009SOL     OW 4080   4.001   0.064   1.565  0.1783 -0.2862  0.1513
 1009SOL    HW2 4081   3.958   0.050   1.649 -1.0796  0.8712 -0.2669
 1009SOL    HW3 4082   3.974   0.153   1.539  1.6573 -0.1042 -0.8160
 1009SOL    MW4 4083   3.992   0.074   1.572  0.2074 -0.1095 -0.0314
 1010SOL     OW 4084   0.078   3.990   0.855 -0.2982 -0.0670 -0.1485
 1010SOL    HW2 4085   0.149   3.970   0.916  0.0609  0.5805 -0.3408
 1010SOL    HW3 4086   0.024   4.054   0.901 -1.1459 -1.0859  0.2655
 1010SOL    MW4 4087   0.080   3.996   0.869 -0.3626 -0.1159 -0.1193
 1011SOL     OW 4088   0.682   0.263   2.649 -0.0486  0.0734  0.1729
 1011SOL    HW2 4089   0.694   0.172   2.621 -1.8095  0.1100 -0.7348
 1011SOL    HW3 4090   0.725   0.315   2.581 -0.8789  0.0016 -0.4107
 1011SOL    MW4 4091   0.689   0.258   2.636 -0.3905  0.0687 -0.0238
 1012SOL     OW 4092   1.443   3.017   2.150 -0.2173  0.2958  0.1778
 1012SOL    HW2 4093   1.363   3.062   2.122 -1.1431 -0.8682  0.9017
 1012SOL    HW3 4094   1.476   2.975   2.070 -1.9232 -1.6023  0.4139
 1012SOL    MW4 4095   1.436   3.017   2.136 -0.5645 -0.1082  0.3049
 1013SOL     OW 4096   1.252   0.595   1.493 -0.1170 -0.6567  0.2667
 1013SOL    HW2 4097   1.172   0.647   1.504 -0.4318 -1.0533 -0.1590
 1013SOL    HW3 4098   1.248   0.563   1.403  0.9739  0.0861 -0.0572
 1013SOL    MW4 4099   1.241   0.598   1.483 -0.0148 -0.6111  0.1678
 1014SOL     OW 4100   4.192   4.558   4.255  0.2426 -0.5732 -0.4033
 1014SOL    HW2 4101   4.214   4.630   4.314  0.6489 -0.8775 -0.1779
 1014SOL    HW3 4102   4.103   4.576   4.226  0.0290 -0.4398  0.3329
 1014SOL    MW4 4103   4.183   4.570   4.259  0.2680 -0.5956 -0.2766
 1015SOL     OW 4104   1.030   2.962   2.481 -0.0506 -0.3841 -0.1820
 1015SOL    HW2 4105   0.981   3.006   2.551  0.6050 -0.8130  0.5648
 1015SOL    HW3 4106   1.103   3.021   2.463  0.2892 -0.7012  0.1410
 1015SOL    MW4 4107   1.033   2.976   2.488  0.0808 -0.4823 -0.0410
 1016SOL     OW 4108   3.039   3.614   3.077  0.0209  0.2498  0.3229
 1016SOL    HW2 4109   3.056   3.579   3.164 -0.4386 -0.7427  0.0164
 1016SOL    HW3 4110   3.125   3.641   3.045  0.5646 -1.6851  0.0960
 1016SOL    MW4 4111   3.053   3.613   3.084  0.0319 -0.1366  0.2527
 1017SOL     OW 4112   2.577   0.775   0.481  0.4059  0.2466  0.2080
 1017SOL    HW2 4113   2.664   0.806   0.458 -0.1650  0.9644 -1.0568
 1017SOL    HW3 4114   2.552   0.717   0.409 -0.6822  1.0920 -0.1066
 1017SOL    MW4 4115   2.585   0.771   0.469  0.1869  0.4529 -0.0004
 1018SOL     OW 4116   2.672   2.172   2.549  0.0938  0.3588 -0.3916
 1018SOL    HW2 4117   2.678   2.256   2.505 -1.0916  1.0445  0.7146
 1018SOL    HW3 4118   2.763   2.150   2.571  0.4496  1.1403 -1.0720
 1018SOL    MW4 4119   2.685   2.180   2.546 -0.0157  0.5522 -0.3355
 1019SOL     OW 4120   3.315   2.858   0.253 -0.2564  0.3838 -0.2065
 1019SOL    HW2 4121   3.254   2.859   0.180 -0.5596  0.0546  0.0395
 1019SOL    HW3 4122   3.350   2.947   0.257 -0.8375  0.6133 -0.2494
 1019SOL    MW4 4123   3.312   2.869   0.244 -0.3729  0.3707 -0.1797
 1020SOL     OW 4124   3.303   2.556   2.733 -0.0910  0.0547 -0.0633
 1020SOL    HW2 4125   3.242   2.539   2.804 -0.2008  0.6432 -0.0145
 1020SOL    HW3 4126   3.327   2.648   2.743  1.1455 -0.2754  0.1938
 1020SOL    MW4 4127   3.298   2.566   2.744  0.0577  0.0889 -0.0231
 1021SOL     OW 4128   3.851   1.140   2.221  0.0625 -0.0050 -0.2944
 1021SOL    HW2 4129   3.858   1.136   2.317 -1.2671  0.8618 -0.1495
 1021SOL    HW3 4130   3.942   1.139   2.190  0.5744  1.7224  1.0556
 1021SOL    MW4 4131   3.864   1.139   2.230 -0.0453  0.3371 -0.0973
 1022SOL     OW 4132   3.832   2.523   4.225  0.1042 -0.1519  0.2626
 1022SOL    HW2 4133   3.859   2.456   4.162  0.7351  0.9346 -0.6310
 1022SOL    HW3 4134   3.755   2.564   4.185  0.2850  0.3001  0.3807
 1022SOL    MW4 4135   3.825   2.519   4.212  0.2115  0.0510  0.1597
 1023SOL     OW 4136   2.137   1.440   1.946  0.0876  0.0428  0.4270
 1023SOL    HW2 4137   2.214   1.402   1.990  0.0698 -0.2767  0.1839
 1023SOL    HW3 4138   2.174   1.495   1.877  0.1282  0.8768  1.0942
 1023SOL    MW4 4139   2.152   1.443   1.943  0.0906  0.1106  0.4829
 1024SOL     OW 4140   3.402   3.435   1.085  0.0088  0.2076 -0.0263
 1024SOL    HW2 4141   3.497   3.433   1.098 -0.1324 -0.7951  0.9712
 1024SOL    HW3 4142   3.375   3.343   1.091 -0.8680  0.3415 -1.6358
 1024SOL    MW4 4143   3.411   3.423   1.088 -0.1254  0.0930 -0.1070
 1025SOL     OW 4144   0.232   1.490   1.285  0.3571  0.4711  0.3244
 1025SOL    HW2 4145   0.267   1.479   1.374 -0.6666 -1.5310  0.5192
 1025SOL    HW3 4146   0.159   1.428   1.281 -1.2622  2.3944 -1.0596
 1025SOL    MW4 4147   0.227   1.481   1.296  0.0083  0.4606  0.1675
 1026SOL     OW 4148   1.132   2.130   1.408  0.3714  0.4430 -0.4747
 1026SOL    HW2 4149   1.068   2.137   1.478 -0.0062  1.0386 -0.8728
 1026SOL    HW3 4150   1.186   2.054   1.431 -0.0819  0.3229  0.1803
 1026SOL    MW4 4151   1.131   2.121   1.420  0.2617  0.5057 -0.4408
 1027SOL     OW 4152   2.400   3.723   2.520 -0.5868 -0.1884  0.3562
 1027SOL    HW2 4153   2.425   3.778   2.595 -1.0805 -0.4451  0.7065
 1027SOL    HW3 4154   2.484   3.690   2.487 -0.1954  1.5776 -0.4758
 1027SOL    MW4 4155   2.414   3.726   2.526 -0.6003  0.0107  0.2925
 1028SOL     OW 4156   2.622   1.430   3.271  0.3785 -0.2658  0.1030
 1028SOL    HW2 4157   2.660   1.344   3.288  1.3327 -0.2182 -1.7114
 1028SOL    HW3 4158   2.530   1.412   3.251 -0.1646 -0.5472  2.7752
 1028SOL    MW4 4159   2.615   1.416   3.270  0.4325 -0.2966  0.2162
 1029SOL     OW 4160   2.747   1.197   0.418 -0.5438 -0.3292 -0.1038
 1029SOL    HW2 4161   2.786   1.233   0.497 -1.6376 -0.8291  0.6762
 1029SOL    HW3 4162   2.732   1.273   0.362  0.7109 -0.0355 -0.0618
 1029SOL    MW4 4163   2.750   1.212   0.421 -0.5226 -0.3564  0.0047
 1030SOL     OW 4164   3.120   1.370   3.064  0.0197  0.1588  0.6493
 1030SOL    HW2 4165   3.055   1.437   3.086 -2.5953 -2.1984  0.2963
 1030SOL    HW3 4166   3.139   1.328   3.148 -0.2405 -0.3203  0.4672
 1030SOL    MW4 4167   3.114   1.373   3.078 -0.3598 -0.2154  0.5786
 1031SOL     OW 4168   3.655   2.529   0.234  0.2486 -0.3097 -0.0587
 1031SOL    HW2 4169   3.571   2.570   0.255  0.1552 -0.2449 -0.5551
 1031SOL    HW3 4170   3.720   2.599   0.245  0.2704 -0.4241  0.5687
 1031SOL    MW4 4171   3.653   2.544   0.238  0.2394 -0.3161 -0.0414
 1032SOL     OW 4172   1.958   4.596   1.296 -0.0161  0.8121  0.4185
 1032SOL    HW2 4173   2.053   4.589   1.289 -0.0306 -0.7389  1.5231
 1032SOL    HW3 4174   1.943   4.615   1.389 -0.9055 -1.8046  0.8522
 1032SOL    MW4 4175   1.969   4.598   1.308 -0.1354  0.2618  0.6214
 1033SOL     OW 4176   1.595   0.447   3.596 -0.5460 -0.4172  0.7890
 1033SOL    HW2 4177   1.605   0.354   3.575  0.3655 -0.0551 -0.4545
 1033SOL    HW3 4178   1.555   0.448   3.683  0.0558 -1.9730  1.1054
 1033SOL    MW4 4179   1.591   0.434   3.605 -0.3463 -0.5747  0.6666
 1034SOL     OW 4180   3.936   1.487   2.896 -0.0949  0.3771 -0.1191
 1034SOL    HW2 4181   3.858   1.483   2.841  0.8281  0.6083 -1.4687
 1034SOL    HW3 4182   3.906   1.459   2.982 -1.5704  0.0463 -0.7254
 1034SOL    MW4 4183   3.922   1.483   2.900 -0.1676  0.3639 -0.3772
 1035SOL     OW 4184   3.580   2.368   1.698  0.1696 -0.4151  0.0696
 1035SOL    HW2 4185   3.661   2.399   1.738 -0.2030  1.3206 -0.4799
 1035SOL    HW3 4186   3.608   2.302   1.634  0.9561 -1.3954  1.4064
 1035SOL    MW4 4187   3.594   2.363   1.695  0.2241 -0.3157  0.1736
 1036SOL     OW 4188   0.127   4.063   0.595  0.2087  0.2070  0.2882
 1036SOL    HW2 4189   0.140   4.157   0.607  0.6831  0.2495 -0.5167
 1036SOL    HW3 4190   0.116   4.028   0.684  1.7706  0.7705  0.7120
 1036SOL    MW4 4191   0.127   4.070   0.608  0.4774  0.2871  0.2380
 1037SOL     OW 4192   1.724   3.977   2.196  0.0971 -0.0441 -0.5148
 1037SOL    HW2 4193   1.777   3.900   2.173 -0.2566 -0.3034 -0.4602
 1037SOL    HW3 4194   1.709   4.022   2.112 -0.2298 -0.3755 -0.6336
 1037SOL    MW4 4195   1.729   3.973   2.182  0.0073 -0.1218 -0.5233
 1038SOL     OW 4196   3.616   0.723   2.414 -0.1716  0.2310 -0.0248
 1038SOL    HW2 4197   3.707   0.715   2.385  0.3297 -2.0886  1.9948
 1038SOL    HW3 4198   3.572   0.649   2.372 -1.3952  1.9597 -1.8440
 1038SOL    MW4 4199   3.623   0.712   2.404 -0.2670  0.1530  0.0017
 1039SOL     OW 4200   3.792   2.872   0.537 -0.3536 -0.0807  0.0353
 1039SOL    HW2 4201   3.876   2.918   0.544 -0.6491  0.1883  2.1143
 1039SOL    HW3 4202   3.728   2.941   0.523 -0.3297 -0.2384 -0.9402
 1039SOL    MW4 4203   3.795   2.887   0.536 -0.3896 -0.0660  0.1809
 1040SOL     OW 4204   0.463   2.607   2.923  0.0947  0.3362 -0.0039
 1040SOL    HW2 4205   0.395   2.633   2.861 -1.0010 -0.0946  0.9981
 1040SOL    HW3 4206   0.522   2.683   2.926 -0.7870  1.0465 -0.2747
 1040SOL    MW4 4207   0.462   2.621   2.915 -0.1662  0.3731  0.0927
 1041SOL     OW 4208   4.402   1.601   1.913  0.2329  0.5227 -0.4082
 1041SOL    HW2 4209   4.395   1.531   1.847  3.1885  0.6173 -0.9307
 1041SOL    HW3 4210   4.450   1.671   1.868 -0.3630  1.8105  0.9369
 1041SOL    MW4 4211   4.408   1.601   1.898  0.5445  0.7050 -0.2996
 1042SOL     OW 4212   2.114   1.156   1.134  0.1278 -0.2076  0.0985
 1042SOL    HW2 4213   2.153   1.083   1.182  0.3480  0.4923  1.0010
 1042SOL    HW3 4214   2.187   1.195   1.087  0.4243  0.7198  1.2952
 1042SOL    MW4 4215   2.129   1.151   1.134  0.1960  0.0070  0.3754
 1043SOL     OW 4216   3.974   0.763   2.666 -0.2281  0.5286  0.5570
 1043SOL    HW2 4217   4.069   0.772   2.654 -0.3240  0.9404  0.0853
 1043SOL    HW3 4218   3.940   0.744   2.578 -0.6105  0.6386  0.6801
 1043SOL    MW4 4219   3.982   0.762   2.653 -0.2911  0.5974  0.5112
 1044SOL     OW 4220   2.639   4.337   2.198  0.0122  0.1006  0.2375
 1044SOL    HW2 4221   2.732   4.318   2.206  0.3454 -0.1164 -3.5768
 1044SOL    HW3 4222   2.622   4.404   2.264  2.9633  0.4940  0.6352
 1044SOL    MW4 4223   2.649   4.343   2.208  0.4456  0.1235 -0.2134
 1045SOL     OW 4224   3.941   1.612   1.948 -0.3197 -0.2139  0.6150
 1045SOL    HW2 4225   3.980   1.678   2.005  0.2047  2.1372 -2.3499
 1045SOL    HW3 4226   3.906   1.547   2.008  1.7094  1.2826  3.5668
 1045SOL    MW4 4227   3.942   1.612   1.963  0.0174  0.2937  0.6133
 1046SOL     OW 4228   3.875   1.370   3.135 -0.1981 -0.2000 -0.7573
 1046SOL    HW2 4229   3.831   1.426   3.198 -0.7267 -0.7703 -0.6149
 1046SOL    HW3 4230   3.817   1.294   3.125  0.2659 -0.4894 -1.3204
 1046SOL    MW4 4231   3.862   1.367   3.142 -0.2065 -0.3134 -0.8128
 1047SOL     OW 4232   1.752   1.537   0.618  0.0212 -0.0622  0.3849
 1047SOL    HW2 4233   1.737   1.631   0.620  0.9295  0.2030 -2.1175
 1047SOL    HW3 4234   1.847   1.529   0.605 -0.2936 -1.2516 -1.3478
 1047SOL    MW4 4235   1.763   1.548   0.616  0.0993 -0.1841 -0.1738
 1048SOL     OW 4236   1.581   0.948   2.042 -0.1100 -0.0649 -0.2766
 1048SOL    HW2 4237   1.498   0.988   2.070 -0.3890 -0.0608 -1.1041
 1048SOL    HW3 4238   1.647   0.989   2.098 -1.0583 -2.6639  2.8828
 1048SOL    MW4 4239   1.579   0.959   2.053 -0.2720 -0.4073  0.0310
 1049SOL     OW 4240   1.328   1.956   3.890 -0.3314 -0.2138  0.4963
 1049SOL    HW2 4241   1.411   1.913   3.866 -0.0106  0.1865  0.8789
 1049SOL    HW3 4242   1.351   2.014   3.962 -0.9926 -0.2495  0.7387
 1049SOL    MW4 4243   1.342   1.958   3.896 -0.3762 -0.1657  0.5786
 1050SOL     OW 4244   2.293   3.609   3.463  0.1453  0.1349 -0.4540
 1050SOL    HW2 4245   2.353   3.542   3.495  0.2521  0.1278 -0.6729
 1050SOL    HW3 4246   2.217   3.602   3.522  0.3388  0.1178 -0.2059
 1050SOL    MW4 4247   2.291   3.599   3.475  0.1848  0.1318 -0.4501
 1051SOL     OW 4248   3.115   3.489   3.320 -0.1110  0.5811  0.2111
 1051SOL    HW2 4249   3.119   3.552   3.392  2.0227 -0.0494  0.6790
 1051SOL    HW3 4250   3.037   3.437   3.337 -0.8555  1.8693  0.8362
 1051SOL    MW4 4251   3.106   3.491   3.332  0.0722  0.6678  0.3555
 1052SOL     OW 4252   2.868   1.152   2.384 -0.3618 -0.2592  0.1767
 1052SOL    HW2 4253   2.946   1.109   2.349 -0.5473 -1.4799  1.2112
 1052SOL    HW3 4254   2.863   1.121   2.475 -1.6185  0.4082  0.3417
 1052SOL    MW4 4255   2.878   1.142   2.392 -0.5519 -0.3321  0.3350
 1053SOL     OW 4256   0.027   2.606   2.842  0.0008  0.2496 -0.0199
 1053SOL    HW2 4257   0.001   2.568   2.926  0.8785 -1.1721 -0.3788
 1053SOL    HW3 4258  -0.050   2.655   2.813 -0.5737  0.1075  1.2361
 1053SOL    MW4 4259   0.013   2.608   2.850  0.0409  0.0429  0.0987
 1054SOL     OW 4260   4.358   2.516   3.068  0.1449  0.4257  0.5109
 1054SOL    HW2 4261   4.266   2.504   3.044 -0.3219  0.0281  2.3844
 1054SOL    HW3 4262   4.386   2.431   3.100  0.9762  0.7225  0.5845
 1054SOL    MW4 4263   4.349   2.503   3.069  0.1926  0.4127  0.7677
 1055SOL     OW 4264   3.435   1.226   3.593 -0.4126  0.0594 -0.3679
 1055SOL    HW2 4265   3.430   1.144   3.544  1.3638 -1.5964  2.1216
 1055SOL    HW3 4266   3.528   1.244   3.602 -0.5875 -0.4291  3.5076
 1055SOL    MW4 4267   3.446   1.218   3.588 -0.2012 -0.2234  0.4718
 1056SOL     OW 4268   1.981   0.659   1.056 -0.1413 -0.0346  0.2341
 1056SOL    HW2 4269   1.894   0.640   1.091 -0.0295  0.4411  0.7898
 1056SOL    HW3 4270   1.975   0.749   1.025  0.3995  0.2900  1.0663
 1056SOL    MW4 4271   1.969   0.668   1.057 -0.0554  0.0710  0.4172
 1057SOL     OW 4272   2.971   0.501   3.911  0.1504  0.7542  0.1010
 1057SOL    HW2 4273   2.912   0.466   3.844  0.2209  0.6842  0.0753
 1057SOL    HW3 4274   3.018   0.571   3.867 -0.7089  1.5621  0.4358
 1057SOL    MW4 4275   2.969   0.506   3.896  0.0460  0.8516  0.1416
 1058SOL     OW 4276   0.449   0.965   0.595  0.9297  0.2792  0.0983
 1058SOL    HW2 4277   0.502   1.044   0.590  1.2115  0.0462 -0.6404
 1058SOL    HW3 4278   0.368   0.993   0.638  0.1951  1.4170 -1.9822
 1058SOL    MW4 4279   0.445   0.979   0.600  0.8700  0.3986 -0.2736
 1059SOL     OW 4280   0.327   0.438   0.818  0.1547  0.5508 -0.0101
 1059SOL    HW2 4281   0.306   0.348   0.840  1.5478  0.6029  1.7149
 1059SOL    HW3 4282   0.305   0.447   0.726  0.2672 -1.6405 -0.2665
 1059SOL    MW4 4283   0.322   0.427   0.809  0.3534  0.2685  0.1836
 1060SOL     OW 4284   4.280   2.748   2.788  0.0924 -0.2445 -0.1471
 1060SOL    HW2 4285   4.213   2.731   2.722 -0.2652  1.8291 -0.3332
 1060SOL    HW3 4286   4.320   2.831   2.762  1.2169 -0.3347  1.2131
 1060SOL    MW4 4287   4.276   2.756   2.776  0.1941  0.0172  0.0076
 1061SOL     OW 4288   2.404   2.839   0.534 -0.0380 -0.4545  0.6789
 1061SOL    HW2 4289   2.475   2.793   0.490  0.1728  0.4424  0.0724
 1061SOL    HW3 4290   2.362   2.772   0.589  1.4632 -0.9022  1.2858
 1061SOL    MW4 4291   2.408   2.824   0.535  0.1879 -0.3948  0.6790
 1062SOL     OW 4292   4.485   1.340   1.264  0.4312 -0.1878 -0.0273
 1062SOL    HW2 4293   4.416   1.295   1.215 -0.2428  0.3697  0.3920
 1062SOL    HW3 4294   4.438   1.385   1.335  1.3917 -1.0840  1.2068
 1062SOL    MW4 4295   4.469   1.340   1.267  0.4692 -0.2325  0.1910
 1063SOL     OW 4296   2.702   1.151   3.259  0.0518  0.0418  0.4665
 1063SOL    HW2 4297   2.779   1.094   3.265  0.2089 -0.0299 -1.6599
 1063SOL    HW3 4298   2.653   1.117   3.184 -0.5544  1.8499  0.0147
 1063SOL    MW4 4299   2.706   1.139   3.250 -0.0074  0.2707  0.1261
 1064SOL     OW 4300   2.340   2.398   0.857  0.0979  0.4543  0.0699
 1064SOL    HW2 4301   2.272   2.334   0.839 -1.1458  1.4460  1.1501
 1064SOL    HW3 4302   2.317   2.434   0.943  1.9283  0.8680  0.4100
 1064SOL    MW4 4303   2.328   2.394   0.866  0.1752  0.6399  0.2573
 1065SOL     OW 4304   1.837   0.480   1.476  0.3492 -0.1054  0.5191
 1065SOL    HW2 4305   1.817   0.561   1.522 -0.5023  0.6442 -1.1181
 1065SOL    HW3 4306   1.928   0.492   1.446 -0.2914  0.9428 -1.0824
 1065SOL    MW4 4307   1.847   0.493   1.478  0.1523  0.1317  0.0918
 1066SOL     OW 4308   0.489   4.092   2.837  0.0340 -0.0642  0.7240
 1066SOL    HW2 4309   0.551   4.066   2.905  0.9748  0.7902  0.2147
 1066SOL    HW3 4310   0.513   4.182   2.816  0.5877 -0.7198 -1.6154
 1066SOL    MW4 4311   0.501   4.101   2.843  0.2312 -0.0377  0.3479
 1067SOL     OW 4312   0.408   1.915   1.620 -0.5345 -0.5673 -0.1300
 1067SOL    HW2 4313   0.420   2.008   1.636  1.0199 -0.6687 -0.6631
 1067SOL    HW3 4314   0.446   1.873   1.698  0.2548 -0.8058 -0.6408
 1067SOL    MW4 4315   0.415   1.921   1.633 -0.2252 -0.6120 -0.2677
 1068SOL     OW 4316   0.661   4.584   1.374 -0.2167  0.1409 -0.5000
 1068SOL    HW2 4317   0.658   4.491   1.399 -0.0139 -0.2749 -1.9791
 1068SOL    HW3 4318   0.600   4.591   1.301  0.0709  1.0889 -0.6501
 1068SOL    MW4 4319   0.653   4.573   1.368 -0.1519  0.2108 -0.7149
 1069SOL     OW 4320   1.678   2.048   2.027  0.2937  0.5965 -0.3097
 1069SOL    HW2 4321   1.738   2.045   2.102  0.4320  0.4977 -0.4223
 1069SOL    HW3 4322   1.592   2.061   2.065  0.2814 -0.0930 -0.0859
 1069SOL    MW4 4323   1.675   2.049   2.042  0.3102  0.4926 -0.2949
 1070SOL     OW 4324   4.476   3.157   3.470 -0.1165 -0.6191  0.1608
 1070SOL    HW2 4325   4.520   3.159   3.555 -0.1235 -1.8207  0.2121
 1070SOL    HW3 4326   4.455   3.248   3.451  0.4763 -0.2702  1.1420
 1070SOL    MW4 4327   4.479   3.169   3.479 -0.0396 -0.7317  0.2971
 1071SOL     OW 4328   2.205   4.412   1.649  0.1956  0.0931  0.1870
 1071SOL    HW2 4329   2.286   4.438   1.693 -1.4493  2.5445  1.8996
 1071SOL    HW3 4330   2.154   4.368   1.717  0.2983 -1.9546 -1.0353
 1071SOL    MW4 4331   2.209   4.410   1.664 -0.0079  0.1459  0.2517
 1072SOL     OW 4332   3.167   0.038   1.726 -0.0194  0.5511  0.1416
 1072SOL    HW2 4333   3.207   0.058   1.641  1.4499 -1.8345  0.2223
 1072SOL    HW3 4334   3.114  -0.040   1.710 -0.3818  0.5649  1.2269
 1072SOL    MW4 4335   3.166   0.030   1.713  0.1268  0.2382  0.2955
 1073SOL     OW 4336   1.799   3.228   2.525  0.2668 -0.5068  0.3989
 1073SOL    HW2 4337   1.752   3.170   2.464  0.7010 -0.8108  0.3496
 1073SOL    HW3 4338   1.767   3.203   2.611  0.9547 -1.3000  0.4344
 1073SOL    MW4 4339   1.789   3.217   2.528  0.4148 -0.6516  0.3965
 1074SOL     OW 4340   2.689   1.179   1.868  0.4107 -0.0500 -0.0082
 1074SOL    HW2 4341   2.750   1.193   1.795 -0.4121 -1.6312 -1.0463
 1074SOL    HW3 4342   2.732   1.113   1.922 -0.1210 -0.7672 -0.4514
 1074SOL    MW4 4343   2.703   1.172   1.865  0.2320 -0.3532 -0.2037
 1075SOL     OW 4344   2.379   3.400   2.274 -0.1509 -0.0914 -0.3326
 1075SOL    HW2 4345   2.400   3.423   2.365  0.0351  0.5487 -0.5309
 1075SOL    HW3 4346   2.447   3.338   2.249  1.6988  2.1438 -1.0384
 1075SOL    MW4 4347   2.391   3.395   2.283  0.1178  0.2878 -0.4516
 1076SOL     OW 4348   2.309   2.126   0.530  0.2389  0.0687  0.2209
 1076SOL    HW2 4349   2.277   2.042   0.496 -0.8789  0.4432  0.3217
 1076SOL    HW3 4350   2.404   2.120   0.522  0.0546 -0.2008 -2.1352
 1076SOL    MW4 4351   2.317   2.114   0.524  0.0672  0.0827 -0.0766
 1077SOL     OW 4352   1.290   3.392   0.436  0.6701  0.1483  0.4604
 1077SOL    HW2 4353   1.226   3.442   0.487  0.0421  0.3530 -0.5266
 1077SOL    HW3 4354   1.250   3.305   0.425  0.6245  0.2312 -0.0328
 1077SOL    MW4 4355   1.276   3.387   0.442  0.5811  0.1862  0.2651
 1078SOL     OW 4356   2.647   1.697   2.871 -0.0807  0.0731 -0.5236
 1078SOL    HW2 4357   2.593   1.774   2.887  1.1769  1.2687 -1.9138
 1078SOL    HW3 4358   2.604   1.652   2.798 -0.4651 -0.2055 -0.1261
 1078SOL    MW4 4359   2.634   1.701   2.864  0.0346  0.1942 -0.6547
 1079SOL     OW 4360   0.760   4.146   0.274  0.0637  0.0459  0.3156
 1079SOL    HW2 4361   0.775   4.239   0.292  0.8203 -0.2318  1.1082
 1079SOL    HW3 4362   0.844   4.114   0.242 -0.1676 -0.3986  0.1543
 1079SOL    MW4 4363   0.773   4.154   0.272  0.1330 -0.0496  0.3989
 1080SOL     OW 4364   4.326   1.345   2.259  0.1778  0.7627  0.4782
 1080SOL    HW2 4365   4.374   1.390   2.329 -0.0348 -0.6545  1.5438
 1080SOL    HW3 4366   4.390   1.339   2.187  0.5047  1.9155  0.6585
 1080SOL    MW4 4367   4.341   1.350   2.259  0.1931  0.7278  0.6425
 1081SOL     OW 4368   1.078   1.547   2.279 -0.2277 -0.3642 -0.4883
 1081SOL    HW2 4369   1.102   1.556   2.371 -3.0197 -0.3317  0.2747
 1081SOL    HW3 4370   1.151   1.587   2.231  0.9129  0.2751  1.7280
 1081SOL    MW4 4371   1.091   1.553   2.284 -0.4456 -0.2755 -0.0949
 1082SOL     OW 4372   1.159   4.437   1.501 -0.6480 -0.3194  0.2532
 1082SOL    HW2 4373   1.108   4.517   1.494  0.4778  0.5706  2.0999
 1082SOL    HW3 4374   1.196   4.438   1.589  1.6904 -1.4661 -0.6459
 1082SOL    MW4 4375   1.157   4.448   1.511 -0.1910 -0.3538  0.3783
 1083SOL     OW 4376   0.626   3.737   1.492 -0.3149 -0.0232  0.4952
 1083SOL    HW2 4377   0.547   3.719   1.441  0.7276  0.0924 -1.1864
 1083SOL    HW3 4378   0.666   3.651   1.504  0.3495  0.1553 -0.4008
 1083SOL    MW4 4379   0.621   3.723   1.487 -0.0896  0.0157  0.1551
 1084SOL     OW 4380   2.603   1.830   3.206 -0.2247 -0.6124 -0.2563
 1084SOL    HW2 4381   2.615   1.787   3.291  0.0791 -0.0192 -0.0009
 1084SOL    HW3 4382   2.690   1.829   3.165 -0.1562  0.0206 -0.1274
 1084SOL    MW4 4383   2.616   1.824   3.212 -0.1755 -0.4506 -0.2055
 1085SOL     OW 4384   0.216   1.208   0.029 -0.0807 -0.4620  0.2653
 1085SOL    HW2 4385   0.202   1.260   0.107 -0.6909 -1.4264  0.8106
 1085SOL    HW3 4386   0.185   1.263  -0.043 -0.2499  0.1156  0.7830
 1085SOL    MW4 4387   0.210   1.222   0.030 -0.1835 -0.5131  0.4054
 1086SOL     OW 4388   1.370   3.986   3.051  0.4728  0.4135 -0.1749
 1086SOL    HW2 4389   1.321   3.973   3.132  0.7276  1.1428  0.0942
 1086SOL    HW3 4390   1.308   4.026   2.990 -0.2530 -1.7715 -0.9385
 1086SOL    MW4 4391   1.355   3.989   3.053  0.4106  0.2215 -0.2398
 1087SOL     OW 4392   0.420   1.377   2.284 -0.0665  0.1393 -0.2144
 1087SOL    HW2 4393   0.413   1.293   2.240 -0.2291  0.4212 -0.7391
 1087SOL    HW3 4394   0.513   1.390   2.299  0.2081  1.1265 -2.6368
 1087SOL    MW4 4395   0.431   1.368   2.280 -0.0517  0.3068 -0.6032
 1088SOL     OW 4396   1.456   2.108   0.040 -0.4346  0.2479 -0.2610
 1088SOL    HW2 4397   1.443   2.192  -0.004 -0.5321 -0.0718 -0.8366
 1088SOL    HW3 4398   1.373   2.093   0.086 -0.9248 -0.1930 -1.2714
 1088SOL    MW4 4399   1.443   2.117   0.040 -0.5121  0.1473 -0.4703
 1089SOL     OW 4400   3.404   3.582   4.225  0.1066 -0.3176  0.2378
 1089SOL    HW2 4401   3.356   3.661   4.202  0.2316  0.3711  2.2211
 1089SOL    HW3 4402   3.480   3.613   4.273  1.0298 -1.5637 -0.3798
 1089SOL    MW4 4403   3.407   3.596   4.228  0.2449 -0.3915  0.4182
 1090SOL     OW 4404   1.983   3.328   3.688 -0.2786 -0.1967 -0.0061
 1090SOL    HW2 4405   2.061   3.273   3.693  0.6534  1.1715  1.0172
 1090SOL    HW3 4406   1.953   3.336   3.779 -0.3695  0.9942 -0.1275
 1090SOL    MW4 4407   1.989   3.322   3.701 -0.1676  0.1409  0.1128
 1091SOL     OW 4408   0.360   3.581   1.471 -0.3320 -0.0946  0.6158
 1091SOL    HW2 4409   0.329   3.517   1.407  0.0939 -0.3133  0.6337
 1091SOL    HW3 4410   0.280   3.624   1.501 -0.5049  0.3284 -0.3969
 1091SOL    MW4 4411   0.345   3.578   1.466 -0.2987 -0.0675  0.4845
 1092SOL     OW 4412   3.383   0.398   1.999  0.3423 -0.3169 -0.3987
 1092SOL    HW2 4413   3.288   0.394   2.010  0.5108  1.3789  1.8765
 1092SOL    HW3 4414   3.412   0.309   2.018 -0.7177 -0.6709 -0.3627
 1092SOL    MW4 4415   3.374   0.386   2.003  0.2246 -0.1399 -0.0937
 1093SOL     OW 4416   0.551   0.820   2.444 -0.0779 -0.4036  0.5386
 1093SOL    HW2 4417   0.458   0.837   2.428 -0.5855  0.1589  3.6723
 1093SOL    HW3 4418   0.581   0.775   2.365 -2.3071  1.8850 -1.6924
 1093SOL    MW4 4419   0.543   0.816   2.432 -0.4390 -0.0275  0.6576
 1094SOL     OW 4420   1.139   1.563   3.666 -0.0455  0.8381  0.0967
 1094SOL    HW2 4421   1.217   1.560   3.611  0.9406  0.4765  1.4847
 1094SOL    HW3 4422   1.155   1.499   3.735 -0.8537  1.9077  1.3273
 1094SOL    MW4 4423   1.151   1.554   3.668 -0.0221  0.9315  0.4423
 1095SOL     OW 4424   3.960   2.374   1.373  0.0013 -0.1138  0.6148
 1095SOL    HW2 4425   4.040   2.424   1.356  0.7547 -1.7799 -0.9075
 1095SOL    HW3 4426   3.904   2.434   1.423  1.6988  1.5021  0.6228
 1095SOL    MW4 4427   3.963   2.388   1.378  0.3245 -0.1206  0.4150
 1096SOL     OW 4428   2.993   1.713   3.528 -0.2711  0.0607 -0.1676
 1096SOL    HW2 4429   2.913   1.705   3.580 -0.7543  0.2875 -0.8721
 1096SOL    HW3 4430   3.063   1.712   3.593 -0.7481 -1.7400  0.3610
 1096SOL    MW4 4431   2.991   1.712   3.544 -0.3979 -0.1469 -0.1910
 1097SOL     OW 4432   3.056   0.099   3.679  0.3441 -0.1048  0.0041
 1097SOL    HW2 4433   3.052   0.099   3.774  0.2538  0.4049  0.0001
 1097SOL    HW3 4434   3.073   0.190   3.655 -1.6263  0.1390 -0.5510
 1097SOL    MW4 4435   3.058   0.111   3.688  0.0720 -0.0054 -0.0696
 1098SOL     OW 4436   0.913   2.264   3.059 -0.2599 -0.3551  0.1275
 1098SOL    HW2 4437   0.992   2.209   3.062 -0.9986 -1.4859 -0.9464
 1098SOL    HW3 4438   0.867   2.236   2.980 -2.2206 -0.3497  1.2371
 1098SOL    MW4 4439   0.918   2.253   3.049 -0.6161 -0.5035  0.1323
 1099SOL     OW 4440   0.519   4.576   1.128 -0.3142  0.0514 -0.1202
 1099SOL    HW2 4441   0.511   4.671   1.127  0.2462  0.1033 -2.0070
 1099SOL    HW3 4442   0.576   4.556   1.053 -1.0115 -1.8086 -0.1751
 1099SOL    MW4 4443   0.526   4.586   1.118 -0.3323 -0.1874 -0.3763
 1100SOL     OW 4444   0.025   4.161   2.743 -0.4070  0.1716  0.1694
 1100SOL    HW2 4445   0.013   4.252   2.771  0.2476  0.7132 -1.2591
 1100SOL    HW3 4446   0.081   4.167   2.666  2.3069 -1.6826  1.9151
 1100SOL    MW4 4447   0.031   4.174   2.737  0.0374 -0.0014  0.2112
 1101SOL     OW 4448   1.596   3.129   2.360  0.7114  0.0109  0.3336
 1101SOL    HW2 4449   1.543   3.115   2.438  1.3589 -0.9214  0.6096
 1101SOL    HW3 4450   1.534   3.127   2.287  0.1203  0.8056  0.8160
 1101SOL    MW4 4451   1.581   3.127   2.360  0.7188 -0.0074  0.4337
 1102SOL     OW 4452   1.377   2.200   1.061  0.1647 -0.0048  0.6284
 1102SOL    HW2 4453   1.314   2.265   1.031  0.8063 -0.0532 -0.8846
 1102SOL    HW3 4454   1.331   2.116   1.053  0.4038 -0.0384 -0.4502
 1102SOL    MW4 4455   1.363   2.198   1.056  0.2809 -0.0157  0.2865
 1103SOL     OW 4456   4.109   1.170   1.696  0.0753  0.1963 -0.4435
 1103SOL    HW2 4457   4.015   1.158   1.683  0.4177 -2.0955 -0.9988
 1103SOL    HW3 4458   4.147   1.157   1.609  0.9349  1.0614 -0.2127
 1103SOL    MW4 4459   4.101   1.167   1.682  0.2332  0.0081 -0.4861
 1104SOL     OW 4460   0.679   1.305   1.968  0.4582 -0.2159 -0.5738
 1104SOL    HW2 4461   0.588   1.335   1.963  0.4048 -0.3494 -0.4226
 1104SOL    HW3 4462   0.676   1.230   2.028  0.3614 -1.3430 -1.9496
 1104SOL    MW4 4463   0.667   1.299   1.976  0.4385 -0.3824 -0.7354
 1105SOL     OW 4464   4.060   2.492   0.944  0.0414 -0.0277 -1.1262
 1105SOL    HW2 4465   4.134   2.541   0.980  0.4045  0.0033 -1.8895
 1105SOL    HW3 4466   4.047   2.530   0.857  0.3488 -1.3118 -1.7472
 1105SOL    MW4 4467   4.068   2.504   0.937  0.1302 -0.1931 -1.3088
 1106SOL     OW 4468   0.043   0.390   1.704  0.0450 -0.3445 -0.7882
 1106SOL    HW2 4469  -0.022   0.388   1.633 -0.8043  0.7061 -0.0476
 1106SOL    HW3 4470   0.119   0.344   1.668 -1.4025 -2.3276 -1.3656
 1106SOL    MW4 4471   0.045   0.384   1.690 -0.2580 -0.4675 -0.7666
 1107SOL     OW 4472   2.848   3.312   2.577 -0.0458 -0.0598  0.4397
 1107SOL    HW2 4473   2.862   3.227   2.618  0.1634  0.2145  0.9469
 1107SOL    HW3 4474   2.929   3.360   2.595 -0.2765  0.3452  0.4045
 1107SOL    MW4 4475   2.861   3.307   2.585 -0.0486  0.0296  0.5021
 1108SOL     OW 4476   1.589   1.479   3.825 -0.4050  0.2422  0.2052
 1108SOL    HW2 4477   1.541   1.400   3.849  0.6814  0.0775  1.9074
 1108SOL    HW3 4478   1.543   1.550   3.870 -1.0481  0.5308 -0.8777
 1108SOL    MW4 4479   1.576   1.478   3.834 -0.3464  0.2584  0.2868
 1109SOL     OW 4480   1.824   2.280   2.378 -0.5303 -0.1412 -0.6605
 1109SOL    HW2 4481   1.825   2.186   2.359 -0.4255 -0.1311 -0.7105
 1109SOL    HW3 4482   1.894   2.292   2.443 -0.5539 -0.1008 -0.6430
 1109SOL    MW4 4483   1.834   2.269   2.384 -0.5196 -0.1349 -0.6649
 1110SOL     OW 4484   1.325   0.770   2.248  0.1135  0.2059 -0.2643
 1110SOL    HW2 4485   1.394   0.757   2.313  0.7542 -0.0579 -0.9879
 1110SOL    HW3 4486   1.348   0.853   2.205  0.7601 -0.5473 -1.4317
 1110SOL    MW4 4487   1.337   0.779   2.251  0.2834  0.0717 -0.5138
 1111SOL     OW 4488   0.338   3.572   3.743 -0.9342  0.0965  0.3664
 1111SOL    HW2 4489   0.278   3.616   3.804  1.7150  1.4332  2.1398
 1111SOL    HW3 4490   0.382   3.505   3.796 -1.0439 -1.0398 -0.9563
 1111SOL    MW4 4491   0.336   3.569   3.758 -0.5992  0.1228  0.4256
 1112SOL     OW 4492   1.083   1.493   1.101  0.2763  0.0144 -0.4194
 1112SOL    HW2 4493   1.028   1.559   1.060  0.9808  1.9052  1.5622
 1112SOL    HW3 4494   1.024   1.421   1.120 -0.9636  0.9400 -0.6908
 1112SOL    MW4 4495   1.068   1.492   1.098  0.2058  0.3858 -0.1937
 1113SOL     OW 4496   2.636   4.115   3.958 -0.1138 -0.8477 -0.1752
 1113SOL    HW2 4497   2.719   4.067   3.955 -0.0839 -0.7279 -2.3169
 1113SOL    HW3 4498   2.593   4.094   3.875 -2.4143 -1.2036  1.0601
 1113SOL    MW4 4499   2.641   4.106   3.947 -0.4134 -0.8788 -0.2947
 1114SOL     OW 4500   3.441   2.254   0.968  0.1524  0.2498 -0.6316
 1114SOL    HW2 4501   3.453   2.297   0.883  2.5884  0.2086 -0.3373
 1114SOL    HW3 4502   3.419   2.164   0.945  2.1161 -0.1064 -1.2636
 1114SOL    MW4 4503   3.440   2.248   0.953  0.7327  0.1974 -0.6761
 1115SOL     OW 4504   3.735   2.337   0.934  0.1651  0.5252 -0.2408
 1115SOL    HW2 4505   3.668   2.403   0.915  0.0122 -0.3215 -2.7168
 1115SOL    HW3 4506   3.692   2.253   0.920  1.0895 -0.0765  0.4249
 1115SOL    MW4 4507   3.721   2.335   0.930  0.2668  0.3343 -0.4796
 1116SOL     OW 4508   0.910   2.568   0.231 -0.8927  0.0815  0.3492
 1116SOL    HW2 4509   0.944   2.644   0.279 -0.3249 -0.4090  0.7400
 1116SOL    HW3 4510   0.837   2.602   0.180 -1.1612  0.7221  1.1558
 1116SOL    MW4 4511   0.905   2.582   0.231 -0.8531  0.1013  0.5072
 1117SOL     OW 4512   0.623   2.367   2.786  0.1985 -0.0334  0.2055
 1117SOL    HW2 4513   0.643   2.353   2.693  2.1008 -0.3631  0.6555
 1117SOL    HW3 4514   0.609   2.461   2.794  1.4316  0.1846 -0.1532
 1117SOL    MW4 4515   0.624   2.378   2.775  0.6122 -0.0479  0.2177
 1118SOL     OW 4516   1.046   2.313   0.293  0.4037  0.0443  0.0338
 1118SOL    HW2 4517   1.006   2.397   0.269 -1.4746  0.2105  3.3850
 1118SOL    HW3 4518   1.138   2.335   0.309  0.2417  1.1810 -0.5349
 1118SOL    MW4 4519   1.053   2.327   0.292  0.1343  0.2162  0.4009
 1119SOL     OW 4520   3.823   1.199   0.588 -0.0206 -0.1639  0.0242
 1119SOL    HW2 4521   3.911   1.191   0.551  0.0457 -1.1583  0.3774
 1119SOL    HW3 4522   3.773   1.129   0.546 -0.7064  0.5526 -0.3541
 1119SOL    MW4 4523   3.828   1.188   0.577 -0.1023 -0.2006  0.0209
 1120SOL     OW 4524   3.699   3.833   3.152 -0.0583  0.0902  1.0340
 1120SOL    HW2 4525   3.673   3.877   3.233  0.8328 -1.4114  2.1577
 1120SOL    HW3 4526   3.705   3.741   3.175  0.5746 -0.3193 -0.6582
 1120SOL    MW4 4527   3.696   3.827   3.166  0.1428 -0.1616  0.9592
 1121SOL     OW 4528   1.960   3.280   0.769 -0.1823  0.3037 -0.3980
 1121SOL    HW2 4529   1.953   3.368   0.806 -1.8171 -0.3765  0.9557
 1121SOL    HW3 4530   1.896   3.279   0.698  1.0591  0.7442 -1.5417
 1121SOL    MW4 4531   1.951   3.292   0.765 -0.2342  0.2720 -0.3703
 1122SOL     OW 4532   0.066   1.842   0.629 -0.1165 -0.5096 -0.3253
 1122SOL    HW2 4533   0.072   1.806   0.717  0.3714 -0.5658 -0.3794
 1122SOL    HW3 4534   0.019   1.776   0.579  0.7298 -1.0610 -0.4131
 1122SOL    MW4 4535   0.061   1.829   0.634  0.0595 -0.5900 -0.3440
 1123SOL     OW 4536   2.132   1.990   1.785 -0.1676  0.3196 -0.6397
 1123SOL    HW2 4537   2.183   1.947   1.854 -1.3807 -2.1321 -1.2042
 1123SOL    HW3 4538   2.198   2.029   1.728  0.9537  0.0588  0.4451
 1123SOL    MW4 4539   2.148   1.989   1.787 -0.1795 -0.0383 -0.5710
 1124SOL     OW 4540   4.249   4.000   3.456  0.1452 -0.1036 -0.0488
 1124SOL    HW2 4541   4.192   3.945   3.403 -1.9437 -0.0808  2.1152
 1124SOL    HW3 4542   4.214   4.089   3.446 -0.1861 -0.0789  1.2496
 1124SOL    MW4 4543   4.237   4.005   3.448 -0.1740 -0.0973  0.4079
 1125SOL     OW 4544   0.275   4.385   3.058  0.2611 -0.7226  0.2013
 1125SOL    HW2 4545   0.362   4.353   3.082  0.7835  0.8317  0.4520
 1125SOL    HW3 4546   0.283   4.407   2.965  0.4041  0.2272  0.4286
 1125SOL    MW4 4547   0.287   4.384   3.049  0.3489 -0.3924  0.2646
 1126SOL     OW 4548   2.603   2.276   3.458 -0.1270  0.4027  0.6386
 1126SOL    HW2 4549   2.600   2.214   3.531 -1.3930 -1.6565 -1.0889
 1126SOL    HW3 4550   2.589   2.221   3.380 -1.6423  2.9290 -0.9153
 1126SOL    MW4 4551   2.601   2.260   3.457 -0.4942  0.4642  0.2058
 1127SOL     OW 4552   0.241   0.776   0.953  0.0458 -0.3608 -0.3408
 1127SOL    HW2 4553   0.257   0.832   1.028 -0.2647 -1.3867  0.5015
 1127SOL    HW3 4554   0.325   0.732   0.937  0.3466  0.4856 -1.1280
 1127SOL    MW4 4555   0.254   0.777   0.961  0.0445 -0.3844 -0.3335
 1128SOL     OW 4556   4.431   1.597   1.075  0.7822 -0.2503  0.2389
 1128SOL    HW2 4557   4.446   1.513   1.030 -0.8151 -0.4204  0.0007
 1128SOL    HW3 4558   4.439   1.575   1.167 -0.4176 -0.8525  0.2155
 1128SOL    MW4 4559   4.434   1.583   1.081  0.4129 -0.3524  0.2044
 1129SOL     OW 4560   2.258   4.288   3.523 -0.9123 -0.1864 -0.4677
 1129SOL    HW2 4561   2.310   4.363   3.493  0.4103 -0.7638  0.3736
 1129SOL    HW3 4562   2.173   4.326   3.545 -0.1576  1.1381  0.2503
 1129SOL    MW4 4563   2.253   4.303   3.522 -0.6385 -0.0877 -0.2623
 1130SOL     OW 4564   2.373   1.427   3.557 -0.2757 -0.2409  0.5336
 1130SOL    HW2 4565   2.280   1.415   3.541 -0.7737  2.4589  1.1682
 1130SOL    HW3 4566   2.391   1.517   3.530  2.0691 -0.6142  0.7263
 1130SOL    MW4 4567   2.363   1.437   3.552 -0.0319  0.0662  0.6428
 1131SOL     OW 4568   1.173   2.109   2.396  0.1550  0.1962 -0.3421
 1131SOL    HW2 4569   1.210   2.184   2.443 -0.4677  0.7715 -0.7591
 1131SOL    HW3 4570   1.173   2.136   2.304  0.9190 -0.7375 -0.6258
 1131SOL    MW4 4571   1.178   2.123   2.390  0.1737  0.1490 -0.4346
 1132SOL     OW 4572   1.559   2.903   1.632  0.1915 -0.5296  0.2619
 1132SOL    HW2 4573   1.478   2.932   1.588  0.9924  0.3656 -0.6436
 1132SOL    HW3 4574   1.549   2.934   1.722 -0.0578  0.4164 -0.0841
 1132SOL    MW4 4575   1.547   2.911   1.638  0.2644 -0.2866  0.0968
 1133SOL     OW 4576   0.244   1.740   3.985  0.2448 -0.0648  0.0413
 1133SOL    HW2 4577   0.219   1.756   4.077 -0.5399 -0.8936 -0.0160
 1133SOL    HW3 4578   0.315   1.801   3.969 -0.2016  0.7211  0.9436
 1133SOL    MW4 4579   0.250   1.750   3.995  0.0823 -0.0705  0.1528
 1134SOL     OW 4580   3.117   0.759   2.028 -0.2974 -0.2197 -0.2416
 1134SOL    HW2 4581   3.179   0.752   2.101 -0.4101  0.4926 -0.0751
 1134SOL    HW3 4582   3.056   0.687   2.041  0.5834 -1.0367 -0.4959
 1134SOL    MW4 4583   3.117   0.748   2.039 -0.1957 -0.2335 -0.2532
 1135SOL     OW 4584   1.518   1.342   3.490 -0.5115 -0.1810  0.0712
 1135SOL    HW2 4585   1.598   1.393   3.479 -0.7337  0.5515  1.7817
 1135SOL    HW3 4586   1.447   1.406   3.486 -0.8541 -0.4792  1.1811
 1135SOL    MW4 4587   1.519   1.357   3.488 -0.5860 -0.1237  0.4432
 1136SOL     OW 4588   3.590   3.059   1.201  0.3255 -0.1185  0.0799
 1136SOL    HW2 4589   3.506   3.088   1.168  1.0913  1.5924 -0.4094
 1136SOL    HW3 4590   3.638   3.029   1.123  0.2198 -0.9953  0.3418
 1136SOL    MW4 4591   3.585   3.059   1.187  0.4125 -0.0083  0.0499
 1137SOL     OW 4592   4.036   0.059   3.175 -0.3618 -0.0037  0.0562
 1137SOL    HW2 4593   3.941   0.053   3.166 -0.6570  0.1418  2.6594
 1137SOL    HW3 4594   4.050   0.097   3.262  2.0697  1.0160 -0.7198
 1137SOL    MW4 4595   4.025   0.063   3.185 -0.0801  0.1500  0.2971
 1138SOL     OW 4596   4.088   2.973   2.622  0.3148  0.6769 -0.2512
 1138SOL    HW2 4597   4.016   3.016   2.576 -0.0809  2.2018  1.7443
 1138SOL    HW3 4598   4.057   2.884   2.639 -1.4111  1.5536  1.2729
 1138SOL    MW4 4599   4.075   2.967   2.618  0.0343  0.9937  0.2131
 1139SOL     OW 4600   4.148   0.090   0.465 -0.1547 -0.2552 -0.3847
 1139SOL    HW2 4601   4.222   0.148   0.452  0.9845 -1.2687  1.4842
 1139SOL    HW3 4602   4.154   0.028   0.393  0.3724  0.1083 -0.6590
 1139SOL    MW4 4603   4.158   0.090   0.454  0.0653 -0.3410 -0.1743
 1140SOL     OW 4604   0.171   3.955   1.728  0.4332 -0.1788  0.2099
 1140SOL    HW2 4605   0.149   3.955   1.821 -1.6444  4.2566 -0.1295
 1140SOL    HW3 4606   0.232   4.028   1.718  0.3792 -0.4001 -1.9371
 1140SOL    MW4 4607   0.176   3.965   1.739  0.1519  0.3772 -0.1181
 1141SOL     OW 4608   0.429   0.602   1.873 -0.4410 -0.3304  0.2397
 1141SOL    HW2 4609   0.354   0.546   1.893  0.2779 -1.6972 -0.7658
 1141SOL    HW3 4610   0.500   0.541   1.853  0.3156  0.9382 -1.0664
 1141SOL    MW4 4611   0.428   0.586   1.873 -0.2463 -0.3434 -0.0652
 1142SOL     OW 4612   3.400   2.787   0.996  0.1460  0.5803  0.3713
 1142SOL    HW2 4613   3.307   2.802   1.010 -0.0681 -1.1830  0.9648
 1142SOL    HW3 4614   3.432   2.755   1.081  0.6361 -1.8624 -0.6816
 1142SOL    MW4 4615   3.392   2.785   1.009  0.1824  0.0255  0.3107
 1143SOL     OW 4616   4.052   2.582   0.672  0.3336  0.4815  0.5220
 1143SOL    HW2 4617   3.965   2.543   0.660  0.8290 -0.6686  0.6154
 1143SOL    HW3 4618   4.112   2.524   0.625  1.0614  1.2622  0.4613
 1143SOL    MW4 4619   4.048   2.570   0.664  0.4954  0.4327  0.5263
 1144SOL     OW 4620   0.994   3.106   3.812 -0.0572  0.5812 -0.1152
 1144SOL    HW2 4621   1.059   3.106   3.882 -0.8415  2.2731  0.6568
 1144SOL    HW3 4622   1.029   3.167   3.747 -0.3873  0.7168 -0.1653
 1144SOL    MW4 4623   1.007   3.114   3.813 -0.2041  0.8221 -0.0200
 1145SOL     OW 4624   1.843   1.193   3.312 -0.4746 -0.1831  0.2006
 1145SOL    HW2 4625   1.906   1.124   3.293 -0.4002 -0.4037  1.2172
 1145SOL    HW3 4626   1.759   1.147   3.323 -0.4532 -0.1048  0.7232
 1145SOL    MW4 4627   1.840   1.178   3.311 -0.4618 -0.2021  0.4034
 1146SOL     OW 4628   1.230   3.712   3.795  0.7826 -0.3428  0.1510
 1146SOL    HW2 4629   1.279   3.788   3.828 -0.2925 -0.7790  2.8965
 1146SOL    HW3 4630   1.141   3.745   3.782  0.9862 -0.4137 -1.5016
 1146SOL    MW4 4631   1.225   3.727   3.798  0.6677 -0.4098  0.2954
 1147SOL     OW 4632   2.780   4.353   2.498  0.9795 -0.2253 -0.7089
 1147SOL    HW2 4633   2.687   4.330   2.511  1.6653 -1.4555  2.6253
 1147SOL    HW3 4634   2.815   4.280   2.446  0.3258 -0.3636 -0.9641
 1147SOL    MW4 4635   2.772   4.340   2.493  0.9835 -0.4053 -0.3026
 1148SOL     OW 4636   3.042   4.192   2.742  0.9908 -0.0511 -0.4101
 1148SOL    HW2 4637   3.058   4.218   2.652  0.5957 -0.1416 -0.5085
 1148SOL    HW3 4638   2.977   4.255   2.774 -1.5670 -2.1677 -1.3104
 1148SOL    MW4 4639   3.036   4.204   2.735  0.6013 -0.3424 -0.5419
 1149SOL     OW 4640   3.834   3.098   3.119 -0.1546 -0.1804 -0.3619
 1149SOL    HW2 4641   3.907   3.051   3.160  0.9129  0.3293 -1.6534
 1149SOL    HW3 4642   3.808   3.164   3.183  0.7215 -0.1632 -0.0216
 1149SOL    MW4 4643   3.840   3.100   3.132  0.1020 -0.1109 -0.4876
 1150SOL     OW 4644   3.168   0.069   3.240 -0.5276  0.4376 -0.1289
 1150SOL    HW2 4645   3.076   0.085   3.260 -0.3555  0.4118  0.7137
 1150SOL    HW3 4646   3.215   0.102   3.316  0.0970 -0.3885 -0.1423
 1150SOL    MW4 4647   3.162   0.075   3.253 -0.4227  0.3252 -0.0193
 1151SOL     OW 4648   1.133   3.606   3.003 -0.1400  0.0442  0.3314
 1151SOL    HW2 4649   1.207   3.572   3.054 -0.6943 -0.3235  0.9065
 1151SOL    HW3 4650   1.085   3.527   2.976  0.8597  0.1522 -1.8769
 1151SOL    MW4 4651   1.137   3.591   3.006 -0.0811  0.0103  0.1161
 1152SOL     OW 4652   1.009   0.708   1.352  0.1723 -0.5568  0.1051
 1152SOL    HW2 4653   0.918   0.700   1.325 -0.1042 -0.2355  0.9304
 1152SOL    HW3 4654   1.051   0.759   1.282 -0.9067  1.7133  1.1007
 1152SOL    MW4 4655   1.003   0.713   1.339 -0.0067 -0.2149  0.3453
 1153SOL     OW 4656   1.332   2.827   0.546 -0.6335 -0.3735 -0.9494
 1153SOL    HW2 4657   1.388   2.754   0.518 -0.5883 -1.1961  1.1148
 1153SOL    HW3 4658   1.389   2.904   0.542  0.7071 -1.1865  1.0617
 1153SOL    MW4 4659   1.347   2.827   0.542 -0.4507 -0.5894 -0.4117
 1154SOL     OW 4660   3.003   0.966   0.630 -0.1203  0.4364  0.2490
 1154SOL    HW2 4661   2.944   0.919   0.571  0.5441  0.3692 -0.3801
 1154SOL    HW3 4662   3.071   1.001   0.572  1.0877 -0.4889  1.0899
 1154SOL    MW4 4663   3.004   0.964   0.615  0.1266  0.3055  0.2769
 1155SOL     OW 4664   1.575   0.804   1.196 -0.1990  0.2611 -0.2569
 1155SOL    HW2 4665   1.644   0.868   1.214 -0.2383  0.7540 -1.7745
 1155SOL    HW3 4666   1.622   0.728   1.162 -0.1193 -0.6870  1.8956
 1155SOL    MW4 4667   1.591   0.803   1.194 -0.1938  0.2010 -0.1731
 1156SOL     OW 4668   2.070   1.602   0.963  0.8917 -0.0554 -0.2405
 1156SOL    HW2 4669   2.077   1.523   0.909  2.5185 -1.3220  1.7467
 1156SOL    HW3 4670   1.999   1.583   1.024 -0.7536  1.2601 -1.6953
 1156SOL    MW4 4671   2.061   1.589   0.964  0.8893 -0.0489 -0.1702
 1157SOL     OW 4672   2.123   2.947   2.479  0.1994  0.2128 -0.6872
 1157SOL    HW2 4673   2.074   2.985   2.552  1.9914  0.4015  0.4578
 1157SOL    HW3 4674   2.096   2.998   2.402 -1.2245  0.4330 -0.0598
 1157SOL    MW4 4675   2.113   2.959   2.478  0.2482  0.2670 -0.4532
 1158SOL     OW 4676   1.758   2.527   4.092  0.1839 -0.6000 -0.3069
 1158SOL    HW2 4677   1.720   2.439   4.093  0.1822 -0.6006 -0.4323
 1158SOL    HW3 4678   1.768   2.549   4.185 -0.4294 -0.4652 -0.2739
 1158SOL    MW4 4679   1.754   2.518   4.105  0.1029 -0.5820 -0.3195
 1159SOL     OW 4680   0.016   0.116   3.963  0.0683  0.0908  0.2654
 1159SOL    HW2 4681  -0.003   0.123   3.870  1.4648  0.7858  0.0197
 1159SOL    HW3 4682   0.109   0.097   3.967  0.1574  0.7370  1.5368
 1159SOL    MW4 4683   0.025   0.114   3.951  0.2643  0.2677  0.4008
 1160SOL     OW 4684   2.677   3.251   0.781  0.5302 -0.4731  0.2643
 1160SOL    HW2 4685   2.613   3.186   0.752  0.5296 -0.1467 -0.4939
 1160SOL    HW3 4686   2.702   3.296   0.701 -0.8342  1.7027  1.0292
 1160SOL    MW4 4687   2.672   3.248   0.767  0.3500 -0.1431  0.2652
 1161SOL     OW 4688   0.955   2.774   0.420 -0.1234  0.6150  0.4009
 1161SOL    HW2 4689   0.894   2.842   0.449 -0.1252 -0.1669  2.3304
 1161SOL    HW3 4690   0.955   2.710   0.492  1.1867 -0.5571 -0.6174
 1161SOL    MW4 4691   0.946   2.775   0.433  0.0492  0.3572  0.5211
 1162SOL     OW 4692   1.426   3.546   2.362 -0.0118  0.3238  0.1083
 1162SOL    HW2 4693   1.514   3.513   2.346  0.0775  0.9592 -0.7400
 1162SOL    HW3 4694   1.433   3.641   2.350 -0.8918  0.3385 -0.3583
 1162SOL    MW4 4695   1.438   3.554   2.358 -0.1161  0.4096 -0.0651
 1163SOL     OW 4696   1.873   1.550   1.142 -0.2193 -0.0082  0.6142
 1163SOL    HW2 4697   1.894   1.466   1.183  1.4224  0.3922  0.6469
 1163SOL    HW3 4698   1.785   1.539   1.107  0.4937 -2.2206 -0.5769
 1163SOL    MW4 4699   1.864   1.538   1.143  0.0913 -0.2475  0.4615
 1164SOL     OW 4700   4.113   3.448   3.494  0.2803  0.1559  0.0122
 1164SOL    HW2 4701   4.049   3.519   3.488 -1.0698 -1.1029 -0.5624
 1164SOL    HW3 4702   4.177   3.480   3.558 -0.1620  2.0069 -0.4348
 1164SOL    MW4 4703   4.113   3.462   3.502  0.0434  0.2341 -0.1228
 1165SOL     OW 4704   0.385   1.546   0.313  0.4756  0.3141  0.1547
 1165SOL    HW2 4705   0.330   1.624   0.325  0.6415  0.2708  1.2685
 1165SOL    HW3 4706   0.332   1.488   0.259 -0.3335  0.5321  0.6921
 1165SOL    MW4 4707   0.370   1.549   0.308  0.3907  0.3371  0.3726
 1166SOL     OW 4708   0.780   1.671   0.398 -0.1635 -0.7633  0.0835
 1166SOL    HW2 4709   0.719   1.717   0.455 -0.9170 -1.0648 -0.4623
 1166SOL    HW3 4710   0.739   1.586   0.382  1.0155 -1.4778  0.7487
 1166SOL    MW4 4711   0.767   1.666   0.403 -0.1073 -0.8975  0.0992
 1167SOL     OW 4712   3.098   3.475   2.630  0.2789  0.2236  0.0571
 1167SOL    HW2 4713   3.094   3.568   2.611 -0.3773  0.3834  0.9451
 1167SOL    HW3 4714   3.072   3.468   2.722  0.0759 -0.8554 -0.0721
 1167SOL    MW4 4715   3.094   3.486   2.640  0.1652  0.1023  0.1571
 1168SOL     OW 4716   3.388   4.132   3.084 -0.4708 -0.0196 -0.3751
 1168SOL    HW2 4717   3.430   4.053   3.052 -0.7581  0.8405 -3.0179
 1168SOL    HW3 4718   3.348   4.171   3.006 -1.9960  1.6999  1.2235
 1168SOL    MW4 4719   3.388   4.127   3.070 -0.7100  0.3204 -0.5126
 1169SOL     OW 4720   3.005   3.413   2.886 -0.0626  0.1648 -0.1023
 1169SOL    HW2 4721   3.027   3.477   2.953  1.7868  0.5217 -1.0173
 1169SOL    HW3 4722   2.917   3.436   2.858 -0.6637  0.2967  1.8744
 1169SOL    MW4 4723   2.997   3.424   2.891  0.1020  0.2291  0.0377
 1170SOL     OW 4724   0.541   0.327   1.903 -0.0834 -0.0394  0.0059
 1170SOL    HW2 4725   0.630   0.292   1.905  0.2886  0.9629  1.1374
 1170SOL    HW3 4726   0.486   0.249   1.891  0.9453 -0.6291 -1.0823
 1170SOL    MW4 4727   0.546   0.312   1.901  0.1014  0.0151  0.0114
 1171SOL     OW 4728   1.298   3.557   2.013  0.5716 -0.2190  0.6199
 1171SOL    HW2 4729   1.231   3.577   2.078 -0.4237  0.8501 -0.7034
 1171SOL    HW3 4730   1.366   3.622   2.028 -0.6158  1.4024 -0.7270
 1171SOL    MW4 4731   1.298   3.569   2.023  0.2837  0.1359  0.2675
 1172SOL     OW 4732   2.343   0.654   4.329 -0.4509 -0.1744  0.1775
 1172SOL    HW2 4733   2.409   0.584   4.335 -1.0539 -0.6985  0.7308
 1172SOL    HW3 4734   2.284   0.638   4.402 -1.1950  0.3010 -0.3114
 1172SOL    MW4 4735   2.344   0.643   4.339 -0.6287 -0.1808  0.1860
 1173SOL     OW 4736   2.530   1.471   3.919  0.0796 -0.2825 -0.0903
 1173SOL    HW2 4737   2.543   1.407   3.989 -2.2327 -0.2461  0.3859
 1173SOL    HW3 4738   2.560   1.425   3.840  1.4518 -0.7906  0.7057
 1173SOL    MW4 4739   2.536   1.456   3.918 -0.0446 -0.3449  0.0777
 1174SOL     OW 4740   1.795   4.454   1.751  0.1265  0.2358  0.6102
 1174SOL    HW2 4741   1.848   4.504   1.690 -0.0986  1.8296  1.6867
 1174SOL    HW3 4742   1.829   4.365   1.744  2.0510  0.9611  0.2897
 1174SOL    MW4 4743   1.806   4.449   1.742  0.3507  0.5422  0.7099
 1175SOL     OW 4744   0.140   1.454   3.280 -0.3343 -0.5026  0.6145
 1175SOL    HW2 4745   0.080   1.420   3.213 -2.0807  1.7074  0.9996
 1175SOL    HW3 4746   0.116   1.407   3.360 -1.2959  0.1072  0.6833
 1175SOL    MW4 4747   0.129   1.443   3.282 -0.6915 -0.1307  0.6745
 1176SOL     OW 4748   1.805   0.343   0.736 -0.6755  0.2943 -0.1031
 1176SOL    HW2 4749   1.783   0.257   0.772 -0.4586  0.0318 -0.5881
 1176SOL    HW3 4750   1.886   0.367   0.781 -0.5527  0.0921 -0.2139
 1176SOL    MW4 4751   1.813   0.335   0.747 -0.6306  0.2330 -0.1817
 1177SOL     OW 4752   0.412   3.114   0.608  0.2123  1.0941  0.0557
 1177SOL    HW2 4753   0.347   3.156   0.664 -0.9070 -0.1059 -0.3158
 1177SOL    HW3 4754   0.452   3.186   0.559 -1.6682  1.7326 -0.5824
 1177SOL    MW4 4755   0.408   3.129   0.609 -0.1835  1.0200 -0.0775
 1178SOL     OW 4756   1.362   0.895   1.057 -0.3894  0.3612  0.0165
 1178SOL    HW2 4757   1.366   0.989   1.078  3.0489  1.0912 -3.3043
 1178SOL    HW3 4758   1.437   0.857   1.101 -0.8775 -0.5512  0.0754
 1178SOL    MW4 4759   1.372   0.903   1.065  0.0000  0.3371 -0.4138
 1179SOL     OW 4760   0.698   3.408   3.764 -0.1822 -0.4760 -0.3448
 1179SOL    HW2 4761   0.701   3.478   3.699 -2.3992 -0.5465 -0.5400
 1179SOL    HW3 4762   0.777   3.422   3.817  1.4185 -0.1489 -2.7309
 1179SOL    MW4 4763   0.709   3.419   3.763 -0.2635 -0.4423 -0.6855
 1180SOL     OW 4764   0.291   0.695   1.654 -0.3147 -0.3642 -0.5353
 1180SOL    HW2 4765   0.309   0.789   1.650 -0.9974 -0.2320 -0.5846
 1180SOL    HW3 4766   0.353   0.661   1.718 -0.6299  0.2617  0.1059
 1180SOL    MW4 4767   0.301   0.703   1.662 -0.4463 -0.2642 -0.4570
 1181SOL     OW 4768   0.121   0.220   1.128  0.3128 -0.2164  0.1371
 1181SOL    HW2 4769   0.109   0.314   1.110 -0.7074 -0.5756 -1.1851
 1181SOL    HW3 4770   0.144   0.216   1.220  1.3935  1.4222 -0.0420
 1181SOL    MW4 4771   0.122   0.232   1.137  0.3208 -0.0476 -0.0610
 1182SOL     OW 4772   1.357   4.573   4.078 -0.2376  0.3963  0.6038
 1182SOL    HW2 4773   1.351   4.668   4.069 -0.2517  0.1902 -2.0454
 1182SOL    HW3 4774   1.287   4.539   4.023  0.3394 -1.1844  0.7983
 1182SOL    MW4 4775   1.347   4.581   4.070 -0.1636  0.1607  0.2794
 1183SOL     OW 4776   2.723   3.357   0.522 -0.2317  0.1922 -0.3178
 1183SOL    HW2 4777   2.787   3.410   0.474  0.8842  0.2107  1.1502
 1183SOL    HW3 4778   2.755   3.267   0.513  0.4022  0.2742  0.9898
 1183SOL    MW4 4779   2.736   3.352   0.515 -0.0010  0.2055  0.0484
 1184SOL     OW 4780   0.842   3.046   0.774 -0.6246 -0.3040 -0.2019
 1184SOL    HW2 4781   0.793   3.127   0.761  0.4988  0.3570 -0.4437
 1184SOL    HW3 4782   0.928   3.064   0.738  0.0378 -1.1897  0.8709
 1184SOL    MW4 4783   0.847   3.059   0.768 -0.3890 -0.3338 -0.0923
 1185SOL     OW 4784   1.524   2.872   3.639  0.4334  0.5564 -0.0169
 1185SOL    HW2 4785   1.508   2.963   3.664  1.0262  0.5254  0.4707
 1185SOL    HW3 4786   1.461   2.855   3.569  0.0911  1.2374  0.1237
 1185SOL    MW4 4787   1.513   2.882   3.633  0.4663  0.6421  0.0660
 1186SOL     OW 4788   1.569   0.738   2.729 -0.2403  0.1577 -0.2456
 1186SOL    HW2 4789   1.637   0.682   2.767  0.8488  1.6707  0.1105
 1186SOL    HW3 4790   1.513   0.679   2.680  0.6240 -1.2954  0.4930
 1186SOL    MW4 4791   1.570   0.723   2.727  0.0176  0.1656 -0.1011
 1187SOL     OW 4792   1.909   1.141   0.767 -0.4197  0.1746  0.6639
 1187SOL    HW2 4793   1.915   1.113   0.676 -0.2083  0.2201  0.6653
 1187SOL    HW3 4794   1.817   1.129   0.789 -0.7784  1.5413  0.0028
 1187SOL    MW4 4795   1.898   1.136   0.758 -0.4393  0.3608  0.5768
 1188SOL     OW 4796   2.341   0.602   3.863  0.8473 -0.1764  0.6291
 1188SOL    HW2 4797   2.420   0.653   3.878  1.2803 -0.8322  0.5762
 1188SOL    HW3 4798   2.280   0.631   3.931  1.0323  0.5303  0.4916
 1188SOL    MW4 4799   2.343   0.612   3.874  0.9289 -0.1697  0.6039
 1189SOL     OW 4800   3.591   1.067   1.187 -0.1711  0.8172 -0.1885
 1189SOL    HW2 4801   3.652   1.139   1.202 -0.4326  0.8471  0.7339
 1189SOL    HW3 4802   3.513   1.109   1.151  0.0490  0.8748 -0.6012
 1189SOL    MW4 4803   3.588   1.082   1.184 -0.1764  0.8289 -0.1212
 1190SOL     OW 4804   3.774   4.207   3.302 -0.0728  0.3998 -0.2330
 1190SOL    HW2 4805   3.857   4.188   3.258 -0.7397 -0.1290 -1.2841
 1190SOL    HW3 4806   3.735   4.121   3.317 -0.9272  0.6966 -0.7213
 1190SOL    MW4 4807   3.779   4.193   3.298 -0.2735  0.3691 -0.4358
 1191SOL     OW 4808   3.953   3.991   0.166  0.0561  0.0312  0.0482
 1191SOL    HW2 4809   3.892   3.918   0.156 -0.6965  0.8396 -1.3684
 1191SOL    HW3 4810   4.037   3.955   0.136 -0.1893 -0.4352 -0.0957
 1191SOL    MW4 4811   3.956   3.976   0.161 -0.0756  0.0761 -0.1577
 1192SOL     OW 4812   1.313   1.451   4.200 -0.3535  0.7332 -0.2373
 1192SOL    HW2 4813   1.230   1.490   4.172 -0.7985  0.4459  0.6539
 1192SOL    HW3 4814   1.361   1.523   4.239 -0.7265  0.6286  0.4241
 1192SOL    MW4 4815   1.308   1.465   4.202 -0.4616  0.6815 -0.0319
 1193SOL     OW 4816   0.144   1.974   3.699  0.1731 -0.1163 -0.5788
 1193SOL    HW2 4817   0.197   2.004   3.625  0.1716 -0.7172 -0.8295
 1193SOL    HW3 4818   0.150   1.878   3.695 -0.1194 -0.1589 -0.0142
 1193SOL    MW4 4819   0.152   1.965   3.689  0.1343 -0.2012 -0.5374
 1194SOL     OW 4820   0.028   1.408   2.072 -0.0262  0.0314 -0.1583
 1194SOL    HW2 4821   0.110   1.451   2.092 -0.6219  0.7268  0.8022
 1194SOL    HW3 4822  -0.014   1.465   2.007 -0.3841  0.3922  0.3955
 1194SOL    MW4 4823   0.033   1.421   2.066 -0.1520  0.1706  0.0415
 1195SOL     OW 4824   3.379   1.211   1.088 -0.3939 -0.1249 -0.0591
 1195SOL    HW2 4825   3.439   1.265   1.035 -1.5427 -0.0009 -1.2573
 1195SOL    HW3 4826   3.311   1.271   1.116 -0.4796 -0.4761  0.4897
 1195SOL    MW4 4827   3.378   1.226   1.085 -0.5569 -0.1547 -0.1448
 1196SOL     OW 4828   2.797   0.829   2.919  0.6301 -0.0774 -0.4156
 1196SOL    HW2 4829   2.801   0.745   2.965  0.3591  0.0380 -0.1755
 1196SOL    HW3 4830   2.746   0.810   2.840 -0.2157  0.0631  0.0929
 1196SOL    MW4 4831   2.790   0.815   2.915  0.4828 -0.0436 -0.3171
 1197SOL     OW 4832   1.823   1.358   3.969 -0.0301 -0.1419 -0.2354
 1197SOL    HW2 4833   1.904   1.409   3.978  1.4258 -1.9147 -2.5664
 1197SOL    HW3 4834   1.757   1.422   3.944  0.7784  1.2560  1.1739
 1197SOL    MW4 4835   1.825   1.373   3.967  0.2687 -0.1915 -0.3572
 1198SOL     OW 4836   1.605   1.104   3.674 -0.5017 -0.1443  0.4265
 1198SOL    HW2 4837   1.594   1.189   3.632  1.7494 -0.3427 -0.6070
 1198SOL    HW3 4838   1.697   1.101   3.700 -0.2755 -2.6947 -0.5505
 1198SOL    MW4 4839   1.616   1.115   3.672 -0.1749 -0.5070  0.1612
 1199SOL     OW 4840   1.566   2.871   3.318 -0.1606  0.2157 -0.2295
 1199SOL    HW2 4841   1.572   2.963   3.292 -1.7878  0.0479 -1.2849
 1199SOL    HW3 4842   1.655   2.847   3.343  0.0363  2.4474  1.3827
 1199SOL    MW4 4843   1.578   2.880   3.318 -0.3493  0.4880 -0.1559
 1200SOL     OW 4844   0.170   2.280   3.752  0.3598  0.2653  0.0648
 1200SOL    HW2 4845   0.186   2.234   3.834 -1.1959  1.0647  0.8243
 1200SOL    HW3 4846   0.220   2.361   3.760  0.7720  0.0249 -0.0707
 1200SOL    MW4 4847   0.179   2.284   3.764  0.2089  0.3393  0.1469
 1201SOL     OW 4848   3.588   0.271   4.364 -0.6327  0.2088  0.1329
 1201SOL    HW2 4849   3.526   0.203   4.391 -0.4553 -0.3620 -0.8717
 1201SOL    HW3 4850   3.643   0.228   4.298  0.5566  0.8356  0.7080
 1201SOL    MW4 4851   3.587   0.256   4.359 -0.4525  0.2162  0.0763
 1202SOL     OW 4852   1.421   3.269   3.440 -0.5557 -0.3512  0.2914
 1202SOL    HW2 4853   1.420   3.361   3.412 -0.9805  0.0084  1.4611
 1202SOL    HW3 4854   1.345   3.230   3.398 -0.9646  0.0918  0.6178
 1202SOL    MW4 4855   1.411   3.276   3.431 -0.6657 -0.2456  0.4890
 1203SOL     OW 4856   3.264   2.550   0.741  0.8475 -0.4988  0.3804
 1203SOL    HW2 4857   3.304   2.637   0.741  0.6252 -0.3852 -0.9067
 1203SOL    HW3 4858   3.335   2.491   0.715  0.3597 -0.3717 -1.2964
 1203SOL    MW4 4859   3.279   2.554   0.737  0.7539 -0.4668 -0.0107
 1204SOL     OW 4860   1.487   0.746   1.508  0.2939  0.2541  0.0090
 1204SOL    HW2 4861   1.507   0.755   1.414  1.7184 -1.1576  0.1478
 1204SOL    HW3 4862   1.406   0.695   1.511 -0.0061  0.7004 -0.4667
 1204SOL    MW4 4863   1.479   0.740   1.496  0.4423  0.1267 -0.0354
 1205SOL     OW 4864   3.106   1.103   1.626  0.0228 -0.1515 -0.5246
 1205SOL    HW2 4865   3.169   1.171   1.651  0.2831  0.3318 -2.4379
 1205SOL    HW3 4866   3.110   1.040   1.698  1.7711  0.5019 -0.0062
 1205SOL    MW4 4867   3.115   1.103   1.639  0.2875 -0.0014 -0.7086
 1206SOL     OW 4868   2.789   3.096   1.658  0.1571 -0.0612  0.1166
 1206SOL    HW2 4869   2.847   3.145   1.716  0.1690 -0.6442  0.5904
 1206SOL    HW3 4870   2.766   3.159   1.589  1.8221 -0.0183 -0.4094
 1206SOL    MW4 4871   2.793   3.111   1.656  0.3784 -0.1326  0.1096
 1207SOL     OW 4872   3.011   1.433   2.325  0.1142  0.0839 -0.1070
 1207SOL    HW2 4873   3.072   1.470   2.389  0.2624 -0.5344  0.1129
 1207SOL    HW3 4874   2.979   1.353   2.366 -0.3534  0.0660 -0.4999
 1207SOL    MW4 4875   3.015   1.428   2.339  0.0720 -0.0001 -0.1297
 1208SOL     OW 4876   2.416   0.096   0.421 -0.1084 -0.2091  0.0406
 1208SOL    HW2 4877   2.432   0.057   0.507 -0.9007 -2.3488 -0.7597
 1208SOL    HW3 4878   2.320   0.100   0.414 -0.0465  0.1090 -0.6729
 1208SOL    MW4 4879   2.405   0.092   0.431 -0.2050 -0.4494 -0.1591
 1209SOL     OW 4880   3.032   0.049   2.568  0.2899 -0.2063 -0.1599
 1209SOL    HW2 4881   2.955   0.016   2.521 -0.0661 -0.7350  0.7861
 1209SOL    HW3 4882   3.105   0.030   2.510 -0.4697  1.8715 -1.8717
 1209SOL    MW4 4883   3.031   0.042   2.554  0.1426 -0.0019 -0.2611
 1210SOL     OW 4884   3.759   1.914   2.392 -0.2763  0.4909 -0.0955
 1210SOL    HW2 4885   3.848   1.885   2.370 -0.8252 -0.0717 -1.6546
 1210SOL    HW3 4886   3.769   2.003   2.424  0.8213  0.5535 -0.6071
 1210SOL    MW4 4887   3.772   1.922   2.393 -0.2041  0.4250 -0.3688
 1211SOL     OW 4888   0.056   2.838   1.671 -0.0191  0.2520  0.0006
 1211SOL    HW2 4889   0.101   2.768   1.719  0.6362  0.4095 -0.3701
 1211SOL    HW3 4890   0.110   2.851   1.593  0.8980  2.4237  0.9472
 1211SOL    MW4 4891   0.069   2.830   1.667  0.1884  0.5593  0.0767
 1212SOL     OW 4892   1.006   2.013   2.734 -0.2880  0.2632 -0.3561
 1212SOL    HW2 4893   0.938   2.063   2.778 -0.2763  1.8184 -2.0370
 1212SOL    HW3 4894   0.971   1.995   2.647  0.1137 -1.8345 -0.1096
 1212SOL    MW4 4895   0.993   2.017   2.728 -0.2335  0.1915 -0.5455
 1213SOL     OW 4896   3.410   0.483   0.472 -0.4510  0.0880  0.1142
 1213SOL    HW2 4897   3.366   0.567   0.456 -1.4537 -0.3900  0.3030
 1213SOL    HW3 4898   3.482   0.481   0.409  0.2932  1.6004  0.8992
 1213SOL    MW4 4899   3.413   0.494   0.462 -0.4852  0.2245  0.2427
 1214SOL     OW 4900   2.104   2.063   3.352 -0.1792  0.3600  0.0259
 1214SOL    HW2 4901   2.084   1.985   3.301 -2.1879  0.4430  0.6399
 1214SOL    HW3 4902   2.052   2.054   3.432 -1.0624  2.6777 -0.2489
 1214SOL    MW4 4903   2.095   2.052   3.356 -0.5610  0.6764  0.0708
 1215SOL     OW 4904   0.353   2.291   0.507  0.0075 -0.3624 -0.1856
 1215SOL    HW2 4905   0.423   2.323   0.564  0.9746  0.4474 -1.7931
 1215SOL    HW3 4906   0.318   2.214   0.552  2.0304 -0.8677  0.5685
 1215SOL    MW4 4907   0.357   2.285   0.520  0.4020 -0.3223 -0.2982
 1216SOL     OW 4908   0.996   4.274   4.197 -0.0411  0.0914  0.0130
 1216SOL    HW2 4909   0.903   4.264   4.176  0.1011  1.3065 -1.2399
 1216SOL    HW3 4910   1.004   4.364   4.227  0.7899  0.0631 -0.1182
 1216SOL    MW4 4911   0.985   4.284   4.198  0.0873  0.2480 -0.1698
 1217SOL     OW 4912   2.036   1.987   1.428 -0.4041 -0.8445 -1.3317
 1217SOL    HW2 4913   1.985   1.910   1.404  0.2924 -1.7943  0.1724
 1217SOL    HW3 4914   2.126   1.956   1.430 -0.2978 -0.4588  1.0501
 1217SOL    MW4 4915   2.041   1.973   1.425 -0.2980 -0.9189 -0.8190
 1218SOL     OW 4916   0.296   3.692   2.097 -0.1063 -0.3066 -0.1968
 1218SOL    HW2 4917   0.285   3.611   2.047 -0.9869  0.0710 -0.6150
 1218SOL    HW3 4918   0.357   3.744   2.045 -1.6482  0.4197 -1.2901
 1218SOL    MW4 4919   0.303   3.688   2.084 -0.4259 -0.1609 -0.3963
 1219SOL     OW 4920   1.333   0.421   0.976  0.1218 -0.1226 -0.4107
 1219SOL    HW2 4921   1.295   0.496   0.930 -0.0882 -0.9609 -1.6199
 1219SOL    HW3 4922   1.298   0.427   1.065 -2.5305 -0.6576 -1.3898
 1219SOL    MW4 4923   1.324   0.432   0.982 -0.2559 -0.3038 -0.6995
 1220SOL     OW 4924   3.974   2.773   3.373  0.4107  0.1374 -0.2470
 1220SOL    HW2 4925   3.936   2.794   3.459  1.5474 -0.1498  0.3307
 1220SOL    HW3 4926   3.903   2.727   3.327 -0.8256  1.9202 -0.1516
 1220SOL    MW4 4927   3.959   2.769   3.379  0.3974  0.3350 -0.1583
 1221SOL     OW 4928   1.485   3.742   0.188 -0.0860  0.1787  0.1717
 1221SOL    HW2 4929   1.521   3.654   0.198 -1.0217 -0.1721  0.5390
 1221SOL    HW3 4930   1.503   3.765   0.096 -0.4668 -0.6918 -0.1278
 1221SOL    MW4 4931   1.492   3.734   0.177 -0.2596  0.0174  0.1806
 1222SOL     OW 4932   2.562   4.352   1.429 -0.3058 -0.1961 -0.7792
 1222SOL    HW2 4933   2.549   4.433   1.477  1.1754 -0.4348  0.0513
 1222SOL    HW3 4934   2.622   4.375   1.358  0.3883 -0.6412 -0.3367
 1222SOL    MW4 4935   2.568   4.365   1.426 -0.0188 -0.2856 -0.6112
 1223SOL     OW 4936   4.032   2.112   2.176 -0.2600  0.6696  0.0137
 1223SOL    HW2 4937   4.114   2.094   2.130 -0.8116 -1.7865 -0.1225
 1223SOL    HW3 4938   4.036   2.205   2.198  2.5681  0.5813  0.0597
 1223SOL    MW4 4939   4.043   2.122   2.173  0.0405  0.3338  0.0017
 1224SOL     OW 4940   4.305   1.155   3.525 -0.5058  0.2213 -0.0089
 1224SOL    HW2 4941   4.312   1.074   3.474  0.0255  0.0299  0.3668
 1224SOL    HW3 4942   4.382   1.206   3.500 -1.2188  0.9397 -0.7983
 1224SOL    MW4 4943   4.316   1.151   3.515 -0.5298  0.2909 -0.0637
 1225SOL     OW 4944   0.924   2.760   1.649 -0.1942  0.1227  0.5670
 1225SOL    HW2 4945   1.008   2.804   1.662  0.3099  0.1031 -2.3576
 1225SOL    HW3 4946   0.866   2.800   1.714  1.1412  2.6870  0.2369
 1225SOL    MW4 4947   0.927   2.771   1.659  0.0485  0.4587  0.1376
 1226SOL     OW 4948   2.867   1.565   0.191 -0.4077 -0.0960 -0.3935
 1226SOL    HW2 4949   2.793   1.504   0.195 -0.7305  0.2849 -0.4841
 1226SOL    HW3 4950   2.839   1.632   0.128  0.3314 -0.3626 -1.0184
 1226SOL    MW4 4951   2.854   1.566   0.183 -0.3529 -0.0809 -0.4879
 1227SOL     OW 4952   1.914   1.769   1.338  0.2342 -0.4708  0.2407
 1227SOL    HW2 4953   1.891   1.706   1.270 -0.7750  0.9147 -0.7247
 1227SOL    HW3 4954   1.992   1.732   1.380  1.3737 -0.9173 -2.2154
 1227SOL    MW4 4955   1.921   1.756   1.335  0.2514 -0.3470 -0.2106
 1228SOL     OW 4956   3.315   4.320   1.352 -0.3506 -0.3421  0.8576
 1228SOL    HW2 4957   3.403   4.292   1.379  0.5018  1.6295  0.2268
 1228SOL    HW3 4958   3.264   4.318   1.433  0.8721  0.7058  1.6752
 1228SOL    MW4 4959   3.320   4.316   1.366 -0.0768  0.0563  0.8823
 1229SOL     OW 4960   0.010   2.926   3.788  0.0503 -0.3069 -0.1166
 1229SOL    HW2 4961   0.016   2.895   3.697  1.0916 -0.1700 -0.1049
 1229SOL    HW3 4962  -0.076   2.898   3.817 -0.1249 -0.7318 -1.0160
 1229SOL    MW4 4963  -0.000   2.918   3.780  0.1650 -0.3448 -0.2337
 1230SOL     OW 4964   4.298   0.464   3.818 -0.1215  0.1431 -0.0723
 1230SOL    HW2 4965   4.362   0.428   3.880 -0.5383  0.0320  0.2948
 1230SOL    HW3 4966   4.216   0.420   3.839  0.1138 -1.2092 -1.8720
 1230SOL    MW4 4967   4.296   0.454   3.829 -0.1454 -0.0500 -0.2613
 1231SOL     OW 4968   3.975   2.940   4.017  0.3309  0.1334 -0.5269
 1231SOL    HW2 4969   4.040   2.919   3.950  0.4977 -0.3444 -0.2153
 1231SOL    HW3 4970   3.978   2.866   4.079  0.5149  0.7919  0.2614
 1231SOL    MW4 4971   3.984   2.927   4.017  0.3772  0.1571 -0.3819
 1232SOL     OW 4972   2.002   2.089   3.824 -0.2065  0.0379 -0.1130
 1232SOL    HW2 4973   2.005   2.179   3.791  1.5486  0.0739  0.0753
 1232SOL    HW3 4974   1.991   2.035   3.745  2.0170  0.2443 -0.6005
 1232SOL    MW4 4975   2.001   2.094   3.809  0.3183  0.0701 -0.1526
 1233SOL     OW 4976   0.284   3.169   3.031  0.1132 -0.4784  0.2067
 1233SOL    HW2 4977   0.214   3.186   2.968  0.7468 -0.9983 -0.6519
 1233SOL    HW3 4978   0.240   3.166   3.116 -0.6811  0.6574 -0.1636
 1233SOL    MW4 4979   0.269   3.171   3.034  0.0920 -0.3974  0.0446
 1234SOL     OW 4980   4.153   2.149   1.683  0.6762 -0.1227  0.6470
 1234SOL    HW2 4981   4.214   2.083   1.715 -0.0396 -1.7140 -1.1362
 1234SOL    HW3 4982   4.199   2.232   1.694  1.7308 -0.9293  2.6225
 1234SOL    MW4 4983   4.167   2.151   1.688  0.7205 -0.4394  0.6723
 1235SOL     OW 4984   4.427   3.101   2.507 -0.2937  0.9162  0.1602
 1235SOL    HW2 4985   4.416   3.071   2.598 -0.9491  2.0527  0.4604
 1235SOL    HW3 4986   4.346   3.149   2.487 -0.0421  0.8952 -0.9403
 1235SOL    MW4 4987   4.415   3.103   2.517 -0.3471  1.0633  0.0546
 1236SOL     OW 4988   1.004   2.254   3.463 -0.1516  0.1080  0.1787
 1236SOL    HW2 4989   0.983   2.328   3.520 -0.5007  0.5502 -0.5188
 1236SOL    HW3 4990   1.099   2.258   3.453 -0.3376  1.3596 -1.0770
 1236SOL    MW4 4991   1.014   2.264   3.470 -0.2222  0.3316 -0.0792
 1237SOL     OW 4992   4.024   0.387   3.608 -0.1990  0.2887 -0.0954
 1237SOL    HW2 4993   4.024   0.361   3.699  0.2458 -1.4165 -0.5711
 1237SOL    HW3 4994   4.015   0.482   3.610  0.1643  0.2928  1.7260
 1237SOL    MW4 4995   4.023   0.396   3.620 -0.0925  0.0643  0.0823
 1238SOL     OW 4996   4.382   1.708   3.913 -0.5950 -0.0657  0.2066
 1238SOL    HW2 4997   4.293   1.699   3.878 -0.7344  0.1252  0.5170
 1238SOL    HW3 4998   4.382   1.792   3.959  0.7307  1.6018 -2.7129
 1238SOL    MW4 4999   4.371   1.718   3.914 -0.4382  0.1795 -0.1376
 1239SOL     OW 5000   2.916   2.027   3.869  0.9433  0.6823 -0.4213
 1239SOL    HW2 5001   2.958   2.112   3.886  1.0586  0.2739  1.4570
 1239SOL    HW3 5002   2.833   2.032   3.916  1.1276 -0.3808  0.0249
 1239SOL    MW4 5003   2.911   2.039   3.878  0.9828  0.4878 -0.1147
 1240SOL     OW 5004   3.889   2.156   3.534 -0.4334 -0.1857 -0.3190
 1240SOL    HW2 5005   3.966   2.208   3.510 -0.0808 -0.1727  0.8290
 1240SOL    HW3 5006   3.907   2.069   3.499  0.8442 -0.6139  1.3233
 1240SOL    MW4 5007   3.902   2.151   3.526 -0.2182 -0.2403  0.0489
 1241SOL     OW 5008   0.261   2.036   0.632 -0.2822  0.3353  0.5043
 1241SOL    HW2 5009   0.201   1.961   0.630 -0.8345  0.7789 -0.1152
 1241SOL    HW3 5010   0.324   2.019   0.562 -0.0338  0.1433  0.7772
 1241SOL    MW4 5011   0.261   2.024   0.622 -0.3223  0.3686  0.4586
 1242SOL     OW 5012   0.967   2.354   0.643  0.2754 -0.1723  0.1351
 1242SOL    HW2 5013   0.901   2.311   0.590 -0.5284  0.0710  0.9258
 1242SOL    HW3 5014   0.952   2.320   0.732  0.3127  0.9314  0.5683
 1242SOL    MW4 5015   0.957   2.344   0.648  0.1743  0.0052  0.2965
 1243SOL     OW 5016   4.390   4.364   3.064 -0.2582  0.1282 -0.4145
 1243SOL    HW2 5017   4.295   4.352   3.065 -0.3314  0.6483 -0.8976
 1243SOL    HW3 5018   4.407   4.424   3.137 -0.3403  0.3286 -0.5609
 1243SOL    MW4 5019   4.380   4.370   3.074 -0.2789  0.2227 -0.4973
 1244SOL     OW 5020   3.957   0.689   3.708  0.1613 -0.0705  0.0687
 1244SOL    HW2 5021   4.022   0.745   3.751  0.5590 -0.0031 -0.6126
 1244SOL    HW3 5022   3.913   0.748   3.646  0.5736 -0.4983 -0.6442
 1244SOL    MW4 5023   3.960   0.704   3.705  0.2682 -0.1180 -0.1152
 1245SOL     OW 5024   4.358   1.301   2.852  0.1570  0.2690  0.0450
 1245SOL    HW2 5025   4.270   1.269   2.870 -0.4159  1.9401  0.2996
 1245SOL    HW3 5026   4.412   1.262   2.921 -0.2596 -1.2457 -0.4660
 1245SOL    MW4 5027   4.354   1.291   2.864  0.0262  0.2897  0.0112
 1246SOL     OW 5028   1.744   4.464   0.873 -0.0756 -0.4337  0.0376
 1246SOL    HW2 5029   1.807   4.393   0.885 -0.0227 -0.3028  0.5500
 1246SOL    HW3 5030   1.664   4.420   0.844  0.1244 -0.6439 -0.2014
 1246SOL    MW4 5031   1.742   4.449   0.870 -0.0422 -0.4439  0.0737
 1247SOL     OW 5032   1.034   0.315   2.100  0.2931 -0.6618 -0.0884
 1247SOL    HW2 5033   1.052   0.242   2.158 -0.2016 -0.2203  0.6337
 1247SOL    HW3 5034   1.090   0.386   2.131  0.9952 -0.8233 -0.9742
 1247SOL    MW4 5035   1.044   0.315   2.112  0.3204 -0.6249 -0.1101
 1248SOL     OW 5036   4.116   1.778   1.645  0.4494  0.7197  0.2026
 1248SOL    HW2 5037   4.102   1.684   1.647  0.8247  0.6589  0.0492
 1248SOL    HW3 5038   4.139   1.798   1.554  0.8806  0.8809  0.3434
 1248SOL    MW4 5039   4.118   1.768   1.633  0.5565  0.7328  0.2010
 1249SOL     OW 5040   3.286   1.793   0.684  0.2938  0.1643  0.5642
 1249SOL    HW2 5041   3.329   1.826   0.762  0.7465 -1.8708  1.1980
 1249SOL    HW3 5042   3.354   1.795   0.616  1.5088 -3.0342  1.5603
 1249SOL    MW4 5043   3.301   1.797   0.685  0.5136 -0.5261  0.7792
 1250SOL     OW 5044   1.833   0.881   3.480 -0.1346  0.1761 -0.2036
 1250SOL    HW2 5045   1.766   0.945   3.505 -0.3141 -0.3022  0.5654
 1250SOL    HW3 5046   1.784   0.807   3.445 -0.0452 -0.3399  0.7294
 1250SOL    MW4 5047   1.818   0.879   3.479 -0.1465  0.0450  0.0212
 1251SOL     OW 5048   3.454   4.218   2.214 -0.4287  0.6212  0.1039
 1251SOL    HW2 5049   3.397   4.228   2.138 -1.8578  0.6952  1.1547
 1251SOL    HW3 5050   3.429   4.290   2.273  0.2686  0.2460  0.8732
 1251SOL    MW4 5051   3.443   4.229   2.212 -0.5255  0.5817  0.3438
 1252SOL     OW 5052   2.720   4.529   3.188 -0.0211  0.1652 -0.3803
 1252SOL    HW2 5053   2.787   4.464   3.209  1.3739  1.3832 -0.9825
 1252SOL    HW3 5054   2.735   4.550   3.096 -2.5767 -1.0720 -1.1286
 1252SOL    MW4 5055   2.731   4.523   3.179 -0.1740  0.1621 -0.5584
 1253SOL     OW 5056   0.536   3.674   0.492  0.2429 -0.1616  0.6858
 1253SOL    HW2 5057   0.585   3.747   0.455  0.2052 -0.4076  0.1383
 1253SOL    HW3 5058   0.454   3.713   0.523 -0.0795 -0.0806 -0.2407
 1253SOL    MW4 5059   0.531   3.688   0.491  0.1954 -0.1836  0.4913
 1254SOL     OW 5060   3.145   0.185   0.664  0.1049 -0.1810 -0.3188
 1254SOL    HW2 5061   3.133   0.279   0.653  1.2111  0.1890  1.3622
 1254SOL    HW3 5062   3.058   0.148   0.650 -0.6585  1.2555  0.4850
 1254SOL    MW4 5063   3.132   0.193   0.661  0.1500  0.0573  0.0091
 1255SOL     OW 5064   3.294   3.841   2.132 -0.1893 -0.0371 -0.0960
 1255SOL    HW2 5065   3.237   3.846   2.056 -0.9356 -2.0381  0.2980
 1255SOL    HW3 5066   3.314   3.748   2.141  1.6527  0.4219  0.8685
 1255SOL    MW4 5067   3.289   3.829   2.123 -0.0448 -0.2406  0.0832
 1256SOL     OW 5068   2.111   3.874   2.122  0.3906  0.3830  0.1306
 1256SOL    HW2 5069   2.187   3.829   2.159 -0.5543 -2.2407 -1.0320
 1256SOL    HW3 5070   2.146   3.922   2.047  0.7670 -1.6456 -1.0288
 1256SOL    MW4 5071   2.126   3.874   2.117  0.3159 -0.2310 -0.1757
 1257SOL     OW 5072   1.556   0.898   0.630 -0.1384 -0.2140 -0.1415
 1257SOL    HW2 5073   1.591   0.929   0.546 -0.0464  1.2700  0.4302
 1257SOL    HW3 5074   1.634   0.878   0.682 -0.1971 -1.2569 -0.4492
 1257SOL    MW4 5075   1.571   0.900   0.626 -0.1340 -0.1558 -0.1067
 1258SOL     OW 5076   4.216   3.587   2.862 -0.1620  0.3190  0.4681
 1258SOL    HW2 5077   4.150   3.651   2.835 -1.8296 -2.1184 -1.4758
 1258SOL    HW3 5078   4.293   3.609   2.808 -1.4909 -0.7064 -1.9453
 1258SOL    MW4 5079   4.218   3.599   2.851 -0.5569 -0.1378 -0.1068
 1259SOL     OW 5080   1.783   3.765   1.576  0.7912 -0.1986 -0.3855
 1259SOL    HW2 5081   1.723   3.697   1.607 -1.1775  1.2422 -0.9072
 1259SOL    HW3 5082   1.857   3.762   1.637 -0.9371 -0.3860  1.7673
 1259SOL    MW4 5083   1.785   3.756   1.588  0.3033 -0.0331 -0.1704
 1260SOL     OW 5084   0.592   4.076   1.296  0.5224 -0.2205 -0.1162
 1260SOL    HW2 5085   0.635   3.991   1.285 -0.0779 -0.5268 -0.1147
 1260SOL    HW3 5086   0.504   4.055   1.326  0.2966  0.3960 -0.3322
 1260SOL    MW4 5087   0.586   4.062   1.298  0.4134 -0.1798 -0.1445
 1261SOL     OW 5088   2.961   2.336   1.479 -0.3564 -0.1446 -0.3889
 1261SOL    HW2 5089   2.896   2.364   1.544 -0.9957 -0.1143 -1.0395
 1261SOL    HW3 5090   3.033   2.301   1.531 -0.1997  1.3038  0.3938
 1261SOL    MW4 5091   2.962   2.335   1.494 -0.4199  0.0501 -0.3716
 1262SOL     OW 5092   3.764   2.578   2.472 -0.4997  0.2604 -0.3657
 1262SOL    HW2 5093   3.730   2.575   2.382 -0.8079  0.8727 -0.2679
 1262SOL    HW3 5094   3.692   2.546   2.525 -0.2164 -0.3866 -0.3571
 1262SOL    MW4 5095   3.750   2.573   2.467 -0.5033  0.2556 -0.3519
 1263SOL     OW 5096   1.247   1.152   0.485 -0.7967 -0.0863  0.0536
 1263SOL    HW2 5097   1.222   1.165   0.576  0.7584 -1.2231  0.6621
 1263SOL    HW3 5098   1.247   1.057   0.473  0.5327 -0.0080 -0.6850
 1263SOL    MW4 5099   1.244   1.141   0.495 -0.4162 -0.2260  0.0364
 1264SOL     OW 5100   1.938   4.058   3.245  0.3535  0.1376  0.0136
 1264SOL    HW2 5101   1.853   4.018   3.226  0.1020  1.1003 -0.9112
 1264SOL    HW3 5102   1.953   4.038   3.338 -1.9524  1.8896  0.8215
 1264SOL    MW4 5103   1.928   4.050   3.255  0.0160  0.4959 -0.0019
 1265SOL     OW 5104   2.601   2.734   2.753 -0.2086  0.3605  0.2738
 1265SOL    HW2 5105   2.599   2.828   2.737 -1.4962  0.4656  1.0504
 1265SOL    HW3 5106   2.522   2.715   2.804  0.5048 -0.9937  0.9263
 1265SOL    MW4 5107   2.591   2.744   2.757 -0.2842  0.1957  0.4623
 1266SOL     OW 5108   1.525   0.012   1.236 -0.7252 -0.4187  0.0417
 1266SOL    HW2 5109   1.432   0.017   1.259 -0.2320  0.2459  1.9404
 1266SOL    HW3 5110   1.541   0.089   1.182 -0.4951  1.3448  2.5896
 1266SOL    MW4 5111   1.515   0.023   1.232 -0.6298 -0.0983  0.6282
 1267SOL     OW 5112   3.277   0.280   3.424 -0.4969 -0.3961 -0.1118
 1267SOL    HW2 5113   3.247   0.312   3.508 -0.5667 -0.4461 -0.1177
 1267SOL    HW3 5114   3.364   0.243   3.442  0.3274  1.3251 -0.4248
 1267SOL    MW4 5115   3.285   0.279   3.437 -0.3972 -0.1757 -0.1538
 1268SOL     OW 5116   0.481   3.424   2.112 -0.0592  0.3483 -0.0007
 1268SOL    HW2 5117   0.392   3.411   2.145 -0.7995  1.1207 -1.6420
 1268SOL    HW3 5118   0.518   3.336   2.106 -0.7733  0.0127  0.5015
 1268SOL    MW4 5119   0.474   3.410   2.115 -0.2511  0.4060 -0.1512
 1269SOL     OW 5120   2.585   3.254   2.128  0.3827 -0.2862  0.0197
 1269SOL    HW2 5121   2.653   3.271   2.193 -0.5900  0.1162  0.9390
 1269SOL    HW3 5122   2.584   3.158   2.119  1.4035 -0.2641 -0.3696
 1269SOL    MW4 5123   2.594   3.243   2.135  0.3891 -0.2301  0.0896
 1270SOL     OW 5124   3.604   3.499   1.435 -0.6866  0.1925  0.6572
 1270SOL    HW2 5125   3.628   3.568   1.497  2.0555 -0.7926  0.7598
 1270SOL    HW3 5126   3.598   3.545   1.350 -0.4624  0.8488  0.9881
 1270SOL    MW4 5127   3.607   3.514   1.432 -0.2952  0.1490  0.7145
 1271SOL     OW 5128   3.316   4.030   2.353 -0.1361  0.0027  0.5589
 1271SOL    HW2 5129   3.305   3.972   2.277 -1.4387 -0.3804  1.0158
 1271SOL    HW3 5130   3.384   4.091   2.327  1.4563 -1.8944  0.1545
 1271SOL    MW4 5131   3.323   4.030   2.339 -0.0980 -0.2985  0.5660
 1272SOL     OW 5132   1.545   2.656   1.882  0.1583 -0.4527 -0.2922
 1272SOL    HW2 5133   1.580   2.649   1.970 -0.2005  1.4092  0.0236
 1272SOL    HW3 5134   1.621   2.646   1.825  0.6015 -0.3490  0.2757
 1272SOL    MW4 5135   1.560   2.654   1.886  0.1695 -0.1934 -0.1757
 1273SOL     OW 5136   4.152   3.374   3.213  0.3746  0.3123  0.5262
 1273SOL    HW2 5137   4.170   3.396   3.304  0.0117 -1.1607  0.9736
 1273SOL    HW3 5138   4.213   3.302   3.193  0.6394  0.7954 -0.4823
 1273SOL    MW4 5139   4.163   3.367   3.222  0.3614  0.1817  0.4520
 1274SOL     OW 5140   2.197   4.402   3.834  0.0535 -0.6212  0.1187
 1274SOL    HW2 5141   2.279   4.399   3.783 -0.6194 -0.7261 -0.9695
 1274SOL    HW3 5142   2.195   4.491   3.869  1.2998 -1.0288  1.2643
 1274SOL    MW4 5143   2.208   4.413   3.832  0.1290 -0.6890  0.1264
 1275SOL     OW 5144   0.408   0.193   3.523  0.5026 -0.1598 -0.3886
 1275SOL    HW2 5145   0.365   0.265   3.569 -0.5744 -1.3209  0.4527
 1275SOL    HW3 5146   0.370   0.114   3.561  1.5872 -1.1786 -1.3793
 1275SOL    MW4 5147   0.398   0.192   3.534  0.5036 -0.4474 -0.4086
 1276SOL     OW 5148   1.775   1.570   3.155  0.0578  0.2290 -0.1612
 1276SOL    HW2 5149   1.852   1.529   3.116  0.5156  1.4482 -0.5716
 1276SOL    HW3 5150   1.708   1.564   3.087 -0.0124 -0.2399 -0.0512
 1276SOL    MW4 5151   1.776   1.564   3.141  0.1090  0.3281 -0.2005
 1277SOL     OW 5152   3.131   0.705   3.799 -0.1395 -0.5973  0.2628
 1277SOL    HW2 5153   3.135   0.778   3.860  0.9746 -0.3010 -0.1634
 1277SOL    HW3 5154   3.220   0.670   3.797 -0.1511 -0.5651 -1.2438
 1277SOL    MW4 5155   3.143   0.710   3.807  0.0057 -0.5539  0.0076
 1278SOL     OW 5156   2.526   1.987   1.821 -0.1958  0.2213  0.3042
 1278SOL    HW2 5157   2.495   2.074   1.844 -1.0188  0.7674 -2.6279
 1278SOL    HW3 5158   2.615   1.983   1.855 -0.6785  1.6360  1.7689
 1278SOL    MW4 5159   2.534   1.998   1.829 -0.3681  0.4802  0.1106
 1279SOL     OW 5160   0.099   4.548   1.227  0.0098  0.0573  0.8594
 1279SOL    HW2 5161   0.154   4.539   1.149 -1.2237 -0.7498  0.0561
 1279SOL    HW3 5162   0.137   4.488   1.290  0.5277  0.1023  0.5943
 1279SOL    MW4 5163   0.112   4.539   1.225 -0.0846 -0.0439  0.7185
 1280SOL     OW 5164   0.536   4.022   4.064  0.1865  0.1819  0.5287
 1280SOL    HW2 5165   0.603   4.085   4.089 -0.1292  0.7022  0.0848
 1280SOL    HW3 5166   0.584   3.943   4.040  0.6746  0.7318 -0.3307
 1280SOL    MW4 5167   0.551   4.020   4.064  0.2093  0.3228  0.3567
 1281SOL     OW 5168   0.320   2.101   2.292  0.1871  0.3853 -0.0306
 1281SOL    HW2 5169   0.334   2.142   2.206 -1.5276  1.4783  0.1722
 1281SOL    HW3 5170   0.334   2.172   2.355  0.1070 -0.0739  0.5050
 1281SOL    MW4 5171   0.323   2.116   2.289 -0.0497  0.4690  0.0670
 1282SOL     OW 5172   2.834   0.785   1.708  0.3508  0.1669  0.6329
 1282SOL    HW2 5173   2.793   0.801   1.623  1.4161 -0.6386 -0.0411
 1282SOL    HW3 5174   2.876   0.700   1.700 -0.6994 -0.5633  2.4308
 1282SOL    MW4 5175   2.834   0.776   1.696  0.3529 -0.0358  0.7811
 1283SOL     OW 5176   1.945   1.720   3.491 -0.0658  0.1430 -0.5498
 1283SOL    HW2 5177   1.910   1.747   3.406 -0.1562 -1.1908 -0.9646
 1283SOL    HW3 5178   1.872   1.673   3.532  0.0069  0.7100  0.2229
 1283SOL    MW4 5179   1.931   1.717   3.485 -0.0682  0.0417 -0.5028
 1284SOL     OW 5180   2.879   0.097   3.232  0.3889  0.1637  0.0796
 1284SOL    HW2 5181   2.829   0.016   3.223 -0.3550  0.6614 -0.3237
 1284SOL    HW3 5182   2.846   0.154   3.162  0.9240  0.8100  0.3425
 1284SOL    MW4 5183   2.868   0.094   3.221  0.3614  0.3146  0.0613
 1285SOL     OW 5184   0.101   0.748   0.704  0.5847 -0.1711 -0.4466
 1285SOL    HW2 5185   0.155   0.780   0.776 -0.1173  0.3872 -0.1623
 1285SOL    HW3 5186   0.011   0.752   0.737  0.3308 -0.7207 -1.0492
 1285SOL    MW4 5187   0.096   0.753   0.718  0.4586 -0.1700 -0.4886
 1286SOL     OW 5188   3.719   3.579   4.266  0.1348 -0.5060  0.2096
 1286SOL    HW2 5189   3.806   3.565   4.303 -0.0701  0.1977  0.9898
 1286SOL    HW3 5190   3.692   3.493   4.234  0.8480 -0.8679  0.5681
 1286SOL    MW4 5191   3.727   3.566   4.267  0.2017 -0.4611  0.3600
 1287SOL     OW 5192   0.276   3.366   4.121  0.0202  0.4652  0.1037
 1287SOL    HW2 5193   0.334   3.356   4.046 -1.9256 -1.1914 -1.2578
 1287SOL    HW3 5194   0.267   3.277   4.156 -0.9573  0.8390  0.8361
 1287SOL    MW4 5195   0.282   3.353   4.116 -0.3655  0.2959  0.0205
 1288SOL     OW 5196   4.131   3.879   2.088  0.3627  0.1713  0.5516
 1288SOL    HW2 5197   4.054   3.892   2.034  0.8727 -0.8415 -0.4284
 1288SOL    HW3 5198   4.204   3.913   2.035  1.0303 -1.9694  0.0599
 1288SOL    MW4 5199   4.131   3.885   2.074  0.5188 -0.2449  0.3574
 1289SOL     OW 5200   1.999   0.242   3.217 -0.0495 -0.2604 -0.0674
 1289SOL    HW2 5201   1.963   0.316   3.266  1.5228 -0.0579  0.7926
 1289SOL    HW3 5202   1.924   0.182   3.207 -1.5192  1.7066 -1.3772
 1289SOL    MW4 5203   1.984   0.244   3.222 -0.0360  0.0258 -0.1268
 1290SOL     OW 5204   3.118   1.838   1.710  0.0981  0.7355  0.4100
 1290SOL    HW2 5205   3.183   1.876   1.769  1.7100 -1.9656  0.4415
 1290SOL    HW3 5206   3.167   1.816   1.631 -0.3754 -2.8151  1.0403
 1290SOL    MW4 5207   3.133   1.841   1.707  0.2484 -0.0894  0.4972
 1291SOL     OW 5208   4.105   1.996   3.299  0.4925  0.2095  0.0765
 1291SOL    HW2 5209   4.090   1.942   3.221  2.0246 -0.4039  0.1869
 1291SOL    HW3 5210   4.178   2.053   3.274  0.0148  1.0368  0.5608
 1291SOL    MW4 5211   4.113   1.996   3.285  0.6318  0.2377  0.1550
 1292SOL     OW 5212   2.131   4.538   0.918  0.2611 -0.0067 -0.2056
 1292SOL    HW2 5213   2.209   4.583   0.951  0.5054 -0.6841  0.1400
 1292SOL    HW3 5214   2.096   4.598   0.852  0.6780  0.6208  0.1314
 1292SOL    MW4 5215   2.137   4.552   0.914  0.3481 -0.0138 -0.1155
 1293SOL     OW 5216   3.538   1.978   3.293  0.1967  0.4653  0.2248
 1293SOL    HW2 5217   3.468   2.044   3.284  0.5278  1.1373  2.4010
 1293SOL    HW3 5218   3.530   1.947   3.383  2.2405 -0.0106  0.2557
 1293SOL    MW4 5219   3.527   1.983   3.303  0.5102  0.4911  0.5159
 1294SOL     OW 5220   0.335   3.568   0.727 -0.0706 -0.3666 -0.0175
 1294SOL    HW2 5221   0.379   3.647   0.757 -1.3765 -0.0770  1.1906
 1294SOL    HW3 5222   0.244   3.580   0.753 -0.8919 -0.9349 -2.5099
 1294SOL    MW4 5223   0.329   3.580   0.734 -0.3512 -0.4034 -0.1869
 1295SOL     OW 5224   1.527   3.023   0.528 -0.3511 -0.3870  0.1369
 1295SOL    HW2 5225   1.583   2.945   0.526 -0.3990 -0.4320  0.7149
 1295SOL    HW3 5226   1.547   3.065   0.611  0.2716  0.6563 -0.5234
 1295SOL    MW4 5227   1.537   3.019   0.538 -0.2753 -0.2556  0.1261
 1296SOL     OW 5228   2.366   0.600   1.061  0.7881  0.2712  0.3490
 1296SOL    HW2 5229   2.325   0.632   1.141 -0.3758 -0.5587  0.1012
 1296SOL    HW3 5230   2.314   0.637   0.990  1.0984  0.0597  0.0078
 1296SOL    MW4 5231   2.354   0.609   1.062  0.6757  0.1339  0.2712
 1297SOL     OW 5232   0.955   3.428   2.869 -0.1533  0.2291  0.1802
 1297SOL    HW2 5233   0.968   3.429   2.774  0.4531 -1.3972  0.2176
 1297SOL    HW3 5234   0.868   3.465   2.883 -0.2163  0.5267 -1.0161
 1297SOL    MW4 5235   0.945   3.433   2.858 -0.0815  0.0539  0.0272
 1298SOL     OW 5236   0.429   1.353   3.521 -0.2855  0.0262 -0.0125
 1298SOL    HW2 5237   0.415   1.446   3.540 -1.0521  0.0330 -0.6197
 1298SOL    HW3 5238   0.415   1.309   3.605 -0.4343  0.3977  0.1597
 1298SOL    MW4 5239   0.426   1.360   3.535 -0.4063  0.0762 -0.0699
 1299SOL     OW 5240   3.926   0.185   2.050  0.1701  0.4402  0.3601
 1299SOL    HW2 5241   3.956   0.167   2.139 -0.6614 -0.6124  0.4391
 1299SOL    HW3 5242   3.993   0.243   2.013  1.4851 -0.6077  1.0537
 1299SOL    MW4 5243   3.939   0.190   2.057  0.2339  0.1631  0.4623
 1300SOL     OW 5244   2.848   2.426   4.087 -0.4996  0.2613 -0.5048
 1300SOL    HW2 5245   2.834   2.486   4.014 -1.2800  1.2824  0.4765
 1300SOL    HW3 5246   2.799   2.464   4.160  0.0584 -0.8815  0.4888
 1300SOL    MW4 5247   2.840   2.439   4.087 -0.5291  0.2451 -0.2441
 1301SOL     OW 5248   0.430   2.998   2.459  0.3364 -0.2138 -0.3246
 1301SOL    HW2 5249   0.388   2.962   2.381  0.5651 -1.0278 -0.0793
 1301SOL    HW3 5250   0.358   3.016   2.519  0.2053 -0.1397 -0.5054
 1301SOL    MW4 5251   0.415   2.995   2.457  0.3493 -0.3111 -0.3159
 1302SOL     OW 5252   1.654   0.741   3.931 -0.2344 -0.1954 -0.3928
 1302SOL    HW2 5253   1.629   0.782   4.014 -1.5597 -1.9154  0.0852
 1302SOL    HW3 5254   1.736   0.784   3.907 -1.0612  2.0096  0.5880
 1302SOL    MW4 5255   1.662   0.752   3.939 -0.5184 -0.1314 -0.2003
 1303SOL     OW 5256   1.410   1.589   3.590 -0.6594  0.0103 -0.1378
 1303SOL    HW2 5257   1.458   1.659   3.546 -0.5293  1.0103  1.5462
 1303SOL    HW3 5258   1.478   1.533   3.628 -0.7514 -1.3023 -1.8324
 1303SOL    MW4 5259   1.425   1.591   3.589 -0.6543 -0.0310 -0.1390
 1304SOL     OW 5260   2.437   3.349   3.918  0.1286  0.2922 -0.2738
 1304SOL    HW2 5261   2.397   3.324   3.835 -1.2312  0.5731  0.2703
 1304SOL    HW3 5262   2.396   3.434   3.940  1.0007  0.5670  0.3192
 1304SOL    MW4 5263   2.426   3.357   3.910  0.0644  0.3657 -0.1237
 1305SOL     OW 5264   4.222   3.674   2.515  0.5597  0.2684  0.1866
 1305SOL    HW2 5265   4.275   3.595   2.513 -0.0958 -0.1502 -1.7777
 1305SOL    HW3 5266   4.258   3.730   2.446 -0.8960  0.4007 -0.4914
 1305SOL    MW4 5267   4.233   3.671   2.505  0.2813  0.2308 -0.1619
 1306SOL     OW 5268   3.654   0.375   2.839 -0.3756 -0.2531  0.0008
 1306SOL    HW2 5269   3.692   0.304   2.788  2.0895 -0.1591  1.5616
 1306SOL    HW3 5270   3.655   0.451   2.781 -0.7500 -0.9347 -0.8885
 1306SOL    MW4 5271   3.659   0.376   2.825 -0.0997 -0.3306  0.0896
 1307SOL     OW 5272   2.645   3.792   1.456 -0.1849 -0.1672  0.0687
 1307SOL    HW2 5273   2.694   3.860   1.503  0.7349  0.6977 -2.0880
 1307SOL    HW3 5274   2.566   3.837   1.426 -1.8454 -1.2849  2.6145
 1307SOL    MW4 5275   2.641   3.807   1.458 -0.2825 -0.2005  0.1200
 1308SOL     OW 5276   4.147   0.317   1.944 -0.0602 -0.2967  0.1746
 1308SOL    HW2 5277   4.233   0.275   1.944  0.4873  0.8253 -0.4017
 1308SOL    HW3 5278   4.140   0.358   1.858 -1.4077 -0.8487  0.0003
 1308SOL    MW4 5279   4.157   0.317   1.932 -0.1659 -0.2215  0.0755
 1309SOL     OW 5280   2.358   0.446   2.656 -0.2212  0.2930 -0.1052
 1309SOL    HW2 5281   2.309   0.507   2.601  1.1428  1.6415  0.1316
 1309SOL    HW3 5282   2.351   0.362   2.611 -0.3465  1.0733 -1.5749
 1309SOL    MW4 5283   2.350   0.443   2.642 -0.0577  0.5738 -0.2677
 1310SOL     OW 5284   1.890   2.617   0.151 -0.2676  0.8155 -0.0060
 1310SOL    HW2 5285   1.894   2.587   0.242  0.1896 -0.0947 -0.3229
 1310SOL    HW3 5286   1.953   2.689   0.147  0.6541  0.0242  0.0890
 1310SOL    MW4 5287   1.899   2.623   0.162 -0.0857  0.5908 -0.0353
 1311SOL     OW 5288   2.901   0.955   3.295  0.4044 -0.3523 -0.1891
 1311SOL    HW2 5289   2.991   0.958   3.325  0.7270 -1.4140 -0.9890
 1311SOL    HW3 5290   2.907   0.964   3.200 -0.2660 -1.0785 -0.3079
 1311SOL    MW4 5291   2.913   0.956   3.286  0.3588 -0.5882 -0.3102
 1312SOL     OW 5292   0.328   4.527   0.223  0.4303 -0.1114  0.0737
 1312SOL    HW2 5293   0.413   4.492   0.198  0.2335 -1.0690  0.7172
 1312SOL    HW3 5294   0.272   4.450   0.232 -0.1720  0.4078  0.8898
 1312SOL    MW4 5295   0.332   4.512   0.221  0.3248 -0.1693  0.2663
 1313SOL     OW 5296   1.623   0.432   3.212 -0.5950 -0.3719  0.1118
 1313SOL    HW2 5297   1.691   0.450   3.146 -1.9711 -0.2086 -1.2891
 1313SOL    HW3 5298   1.633   0.501   3.277 -0.2286  0.3823 -0.7400
 1313SOL    MW4 5299   1.633   0.443   3.211 -0.7281 -0.2508 -0.1855
 1314SOL     OW 5300   3.477   2.394   0.697  0.1602  0.1889 -0.2619
 1314SOL    HW2 5301   3.525   2.473   0.722 -0.6549  0.2417  1.1503
 1314SOL    HW3 5302   3.500   2.381   0.605  0.2149  2.1270 -0.5439
 1314SOL    MW4 5303   3.487   2.402   0.688  0.0598  0.4518 -0.1128
 1315SOL     OW 5304   1.105   0.831   2.429 -0.2441  0.3523 -0.3991
 1315SOL    HW2 5305   1.051   0.890   2.376  2.1187  2.3268 -0.6727
 1315SOL    HW3 5306   1.177   0.805   2.371  0.7619  0.1911  0.8941
 1315SOL    MW4 5307   1.107   0.835   2.414  0.2004  0.5916 -0.2646
 1316SOL     OW 5308   1.407   4.072   1.502  0.5391 -0.1645 -0.1316
 1316SOL    HW2 5309   1.493   4.071   1.545  0.6066 -0.1037 -0.2651
 1316SOL    HW3 5310   1.406   4.155   1.454  0.8553 -0.6930 -1.0547
 1316SOL    MW4 5311   1.418   4.083   1.502  0.5896 -0.2265 -0.2708
 1317SOL     OW 5312   2.235   1.069   4.130  0.2065  0.3081  0.4682
 1317SOL    HW2 5313   2.305   1.015   4.167  0.9594 -0.0468 -1.3945
 1317SOL    HW3 5314   2.168   1.007   4.102  0.5703  0.4002 -0.6373
 1317SOL    MW4 5315   2.236   1.054   4.131  0.3536  0.2735  0.0763
 1318SOL     OW 5316   2.569   0.650   0.729  0.0786  0.3606 -0.6750
 1318SOL    HW2 5317   2.656   0.638   0.767 -0.1381 -0.9237 -0.5773
 1318SOL    HW3 5318   2.585   0.678   0.639  0.5905 -1.4302 -1.1415
 1318SOL    MW4 5319   2.582   0.652   0.722  0.1175 -0.0451 -0.7237
 1319SOL     OW 5320   2.368   4.196   0.568 -0.3198  0.2851 -0.4262
 1319SOL    HW2 5321   2.357   4.271   0.626 -0.1096  0.0007 -0.0157
 1319SOL    HW3 5322   2.325   4.222   0.486 -1.6520  0.2348  0.2436
 1319SOL    MW4 5323   2.361   4.210   0.565 -0.4678  0.2413 -0.2837
 1320SOL     OW 5324   3.913   1.372   1.761  0.7692  0.0498 -0.1938
 1320SOL    HW2 5325   3.847   1.439   1.742  0.9071  0.1636 -0.2711
 1320SOL    HW3 5326   3.865   1.304   1.808  0.5291 -0.0170 -0.5376
 1320SOL    MW4 5327   3.898   1.372   1.765  0.7558  0.0559 -0.2493
 1321SOL     OW 5328   0.860   1.483   3.147  0.3015 -0.2114  0.0940
 1321SOL    HW2 5329   0.952   1.466   3.169 -0.0943 -1.4841  0.7956
 1321SOL    HW3 5330   0.828   1.538   3.218 -0.6135 -3.2363  2.1151
 1321SOL    MW4 5331   0.868   1.488   3.159  0.1286 -0.7784  0.4535
 1322SOL     OW 5332   2.187   4.641   3.978  0.3774  0.4419  0.0533
 1322SOL    HW2 5333   2.201   4.707   3.910  1.7020 -3.3669 -3.5723
 1322SOL    HW3 5334   2.267   4.641   4.029  0.7758  0.9497 -0.5647
 1322SOL    MW4 5335   2.199   4.650   3.976  0.6046  0.0067 -0.5066
 1323SOL     OW 5336   4.427   4.465   2.491 -0.1112  0.2095  0.4766
 1323SOL    HW2 5337   4.339   4.442   2.461  0.3285 -0.9991  0.1050
 1323SOL    HW3 5338   4.484   4.399   2.452  1.0680  1.4174  0.0923
 1323SOL    MW4 5339   4.423   4.453   2.482  0.1025  0.2098  0.3769
 1324SOL     OW 5340   1.393   3.058   3.012  0.0991  0.3049 -0.1415
 1324SOL    HW2 5341   1.441   2.975   3.014  1.4380  1.0277 -1.0515
 1324SOL    HW3 5342   1.415   3.101   3.095  1.3254  0.7843 -0.7050
 1324SOL    MW4 5343   1.402   3.053   3.023  0.4376  0.4635 -0.3359
 1325SOL     OW 5344   2.592   0.124   2.542  0.1003 -0.1196 -0.1398
 1325SOL    HW2 5345   2.611   0.113   2.635 -0.1132 -0.6461 -0.1586
 1325SOL    HW3 5346   2.500   0.153   2.539  0.4022  0.8670 -0.1355
 1325SOL    MW4 5347   2.582   0.127   2.554  0.1121 -0.0589 -0.1416
 1326SOL     OW 5348   2.876   1.833   3.107 -1.1005 -0.2455  0.4819
 1326SOL    HW2 5349   2.911   1.745   3.094 -0.7921  0.0536 -0.8643
 1326SOL    HW3 5350   2.913   1.863   3.190 -0.5690 -1.0783  0.5436
 1326SOL    MW4 5351   2.886   1.826   3.116 -0.9897 -0.3160  0.3126
 1327SOL     OW 5352   3.205   0.942   3.927 -0.0067 -0.2221 -0.3840
 1327SOL    HW2 5353   3.118   0.976   3.905  0.0525  0.7527  0.8887
 1327SOL    HW3 5354   3.266   1.003   3.885  0.0923  0.8806  1.3427
 1327SOL    MW4 5355   3.202   0.955   3.918  0.0143  0.0520  0.0122
 1328SOL     OW 5356   3.415   2.811   2.671  0.0799 -0.4749 -0.1192
 1328SOL    HW2 5357   3.443   2.776   2.586 -1.4757 -2.4763  0.1760
 1328SOL    HW3 5358   3.483   2.783   2.732  0.3027 -0.5181 -0.3845
 1328SOL    MW4 5359   3.427   2.803   2.668 -0.0958 -0.7446 -0.1154
 1329SOL     OW 5360   0.401   4.096   1.637 -0.5821 -0.1399  0.3906
 1329SOL    HW2 5361   0.480   4.048   1.663  0.4729  1.2727 -0.1273
 1329SOL    HW3 5362   0.425   4.188   1.647 -1.7539  0.3301 -0.9727
 1329SOL    MW4 5363   0.415   4.102   1.642 -0.5975  0.1092  0.1423
 1330SOL     OW 5364   3.072   3.419   1.877  0.5065  0.1513  0.0360
 1330SOL    HW2 5365   3.098   3.393   1.965  0.8563 -0.4643 -0.2480
 1330SOL    HW3 5366   2.988   3.465   1.890  0.5972  0.1411  0.6927
 1330SOL    MW4 5367   3.064   3.422   1.890  0.5646  0.0687  0.0852
 1331SOL     OW 5368   1.718   3.935   4.022  0.1617  0.3245 -0.2886
 1331SOL    HW2 5369   1.804   3.976   4.029  0.3794 -0.2586  0.4725
 1331SOL    HW3 5370   1.662   3.986   4.080  0.5557 -0.7624  1.0735
 1331SOL    MW4 5371   1.722   3.947   4.030  0.2425  0.1042 -0.0086
 1332SOL     OW 5372   1.988   1.802   0.354  0.3570  0.2192 -0.2236
 1332SOL    HW2 5373   1.923   1.864   0.386  0.4114 -0.1363  0.5996
 1332SOL    HW3 5374   1.936   1.734   0.309  0.2641  0.6195 -0.7245
 1332SOL    MW4 5375   1.972   1.801   0.352  0.3518  0.2252 -0.1810
 1333SOL     OW 5376   3.316   0.183   3.886  0.0943  0.2461 -0.1203
 1333SOL    HW2 5377   3.387   0.134   3.928 -0.6826 -0.3764  0.4825
 1333SOL    HW3 5378   3.308   0.263   3.938 -0.1181 -0.0144  0.2548
 1333SOL    MW4 5379   3.324   0.187   3.898 -0.0365  0.1296  0.0086
 1334SOL     OW 5380   1.358   0.443   1.737 -0.2153  0.1717 -0.2178
 1334SOL    HW2 5381   1.339   0.534   1.756  2.2278  0.9005 -1.0279
 1334SOL    HW3 5382   1.453   0.434   1.752 -0.7269 -2.7284  1.7917
 1334SOL    MW4 5383   1.368   0.454   1.741  0.0396 -0.1148 -0.0596
 1335SOL     OW 5384   1.666   0.998   0.369 -0.3956  0.4448  0.3560
 1335SOL    HW2 5385   1.691   0.935   0.302 -0.1912 -1.4051  2.1429
 1335SOL    HW3 5386   1.707   1.080   0.341  1.1493 -0.7161 -0.8618
 1335SOL    MW4 5387   1.675   1.001   0.357 -0.1649  0.0477  0.4311
 1336SOL     OW 5388   0.684   4.656   2.581 -0.0361 -0.0895 -0.2147
 1336SOL    HW2 5389   0.613   4.593   2.570  0.3570 -0.9999  2.1242
 1336SOL    HW3 5390   0.757   4.620   2.532 -0.5248 -0.2769 -0.8020
 1336SOL    MW4 5391   0.685   4.643   2.573 -0.0487 -0.2346  0.0162
 1337SOL     OW 5392   0.900   1.333   2.569 -0.0982  0.4805 -0.1096
 1337SOL    HW2 5393   0.889   1.244   2.602 -3.2461  0.5522 -0.8130
 1337SOL    HW3 5394   0.986   1.333   2.527  0.9628 -1.5339  1.9640
 1337SOL    MW4 5395   0.910   1.321   2.568 -0.3735  0.2242  0.0710
 1338SOL     OW 5396   3.936   0.367   3.184  0.0112 -0.2546  0.2271
 1338SOL    HW2 5397   3.862   0.410   3.140  0.1587 -0.6963 -0.4589
 1338SOL    HW3 5398   3.985   0.327   3.113  0.9978  0.1702  0.6667
 1338SOL    MW4 5399   3.932   0.368   3.168  0.1607 -0.2568  0.1945
 1339SOL     OW 5400   2.523   1.865   2.141 -0.0396 -0.4010 -0.3040
 1339SOL    HW2 5401   2.454   1.834   2.082  0.6150  1.2983 -2.0296
 1339SOL    HW3 5402   2.596   1.804   2.128 -0.4434 -0.9445 -0.0598
 1339SOL    MW4 5403   2.523   1.853   2.132 -0.0069 -0.2486 -0.4995
 1340SOL     OW 5404   3.216   0.363   1.363 -0.3709 -0.3591 -0.0236
 1340SOL    HW2 5405   3.221   0.423   1.437  0.5970 -1.1119  0.5483
 1340SOL    HW3 5406   3.283   0.394   1.302 -0.4135 -0.3898 -0.0865
 1340SOL    MW4 5407   3.226   0.375   1.365 -0.2489 -0.4625  0.0435
 1341SOL     OW 5408   0.818   1.638   1.811 -0.2155 -0.0812  0.0698
 1341SOL    HW2 5409   0.837   1.544   1.812 -0.4101 -0.1184  1.0293
 1341SOL    HW3 5410   0.746   1.648   1.748  0.7303 -0.3846 -1.0686
 1341SOL    MW4 5411   0.811   1.627   1.803 -0.1164 -0.1261  0.0463
 1342SOL     OW 5412   3.470   2.440   1.202  0.4414 -0.0822  0.7313
 1342SOL    HW2 5413   3.456   2.364   1.145  0.3389  1.2396 -1.0559
 1342SOL    HW3 5414   3.480   2.403   1.289  0.0272 -2.1258 -0.0563
 1342SOL    MW4 5415   3.469   2.425   1.206  0.3734 -0.1774  0.3916
 1343SOL     OW 5416   2.527   2.088   3.257  0.1698 -0.4852 -0.2144
 1343SOL    HW2 5417   2.438   2.093   3.222  0.6581  0.6384 -1.3213
 1343SOL    HW3 5418   2.547   1.994   3.256 -1.1329 -0.7743  0.3797
 1343SOL    MW4 5419   2.518   2.076   3.252  0.0622 -0.3750 -0.2820
 1344SOL     OW 5420   3.141   2.576   3.206  0.3903 -0.0644 -0.0252
 1344SOL    HW2 5421   3.214   2.589   3.267  0.2748  0.1838  0.0615
 1344SOL    HW3 5422   3.082   2.649   3.224  0.8671  0.6199 -1.1649
 1344SOL    MW4 5423   3.143   2.588   3.216  0.4380  0.0584 -0.1640
 1345SOL     OW 5424   1.052   0.105   0.105  0.3652  0.0837  0.2993
 1345SOL    HW2 5425   0.964   0.070   0.116  0.6178 -0.4058  0.8077
 1345SOL    HW3 5426   1.040   0.188   0.061 -0.1422 -1.3844 -2.4050
 1345SOL    MW4 5427   1.039   0.111   0.101  0.3316 -0.1745  0.0096
 1346SOL     OW 5428   3.828   3.536   2.287  0.0372  0.0521  0.2142
 1346SOL    HW2 5429   3.906   3.538   2.232  0.6055 -0.7007  0.9643
 1346SOL    HW3 5430   3.862   3.536   2.377 -0.6522 -3.8334  0.5740
 1346SOL    MW4 5431   3.843   3.536   2.292  0.0215 -0.5600  0.3607
 1347SOL     OW 5432   1.784   3.620   2.561  0.1934 -0.0120 -0.3943
 1347SOL    HW2 5433   1.767   3.714   2.548 -0.6626 -0.4139 -2.3084
 1347SOL    HW3 5434   1.756   3.579   2.479  0.2977 -1.9861  0.5372
 1347SOL    MW4 5435   1.778   3.627   2.548  0.0943 -0.3257 -0.5240
 1348SOL     OW 5436   3.837   1.442   3.861 -0.1080 -0.1263 -0.3446
 1348SOL    HW2 5437   3.749   1.437   3.825  0.6264 -1.7709 -1.9895
 1348SOL    HW3 5438   3.838   1.379   3.932 -0.3761  0.1849 -0.0647
 1348SOL    MW4 5439   3.826   1.433   3.865 -0.0460 -0.3022 -0.5245
 1349SOL     OW 5440   1.262   3.231   0.891  0.2115 -0.4474 -0.5179
 1349SOL    HW2 5441   1.345   3.275   0.908 -0.3088  0.6963 -0.8336
 1349SOL    HW3 5442   1.227   3.211   0.978 -0.2302  1.1089 -0.3189
 1349SOL    MW4 5443   1.268   3.235   0.905  0.0845 -0.0911 -0.5333
 1350SOL     OW 5444   1.048   1.110   3.145  0.2291  0.5549 -0.6594
 1350SOL    HW2 5445   0.955   1.131   3.153  0.1769  0.3819 -0.8122
 1350SOL    HW3 5446   1.053   1.052   3.069  0.2443 -0.8440  0.3883
 1350SOL    MW4 5447   1.037   1.105   3.136  0.2242  0.3474 -0.5410
 1351SOL     OW 5448   3.730   0.588   0.728 -0.3406 -0.1669 -0.1602
 1351SOL    HW2 5449   3.645   0.629   0.712 -1.6786 -1.8934  2.1424
 1351SOL    HW3 5450   3.708   0.501   0.761  2.3602 -1.0901 -0.7061
 1351SOL    MW4 5451   3.716   0.582   0.730 -0.1612 -0.5165  0.0716
 1352SOL     OW 5452   1.331   0.052   3.550 -0.4865  0.2125 -0.1469
 1352SOL    HW2 5453   1.361  -0.020   3.606 -0.5460  1.6169  1.7076
 1352SOL    HW3 5454   1.412   0.098   3.525 -0.6085  0.6710  0.2919
 1352SOL    MW4 5455   1.346   0.048   3.554 -0.5105  0.4583  0.1557
 1353SOL     OW 5456   0.881   2.993   1.056 -0.0316 -0.0851  0.1261
 1353SOL    HW2 5457   0.932   3.069   1.082 -0.4615 -0.1177  1.0704
 1353SOL    HW3 5458   0.874   3.000   0.961 -0.4274  1.2699  0.2503
 1353SOL    MW4 5459   0.887   3.004   1.047 -0.1405  0.0894  0.2670
 1354SOL     OW 5460   3.728   3.297   0.873 -0.0996  0.2794 -0.5370
 1354SOL    HW2 5461   3.646   3.291   0.824 -0.2708 -1.6222 -0.0672
 1354SOL    HW3 5462   3.742   3.208   0.907  1.4417  0.9129  0.5358
 1354SOL    MW4 5463   3.719   3.284   0.871  0.0811  0.1125 -0.3334
 1355SOL     OW 5464   2.775   0.217   1.378 -0.1027 -0.0607  0.2939
 1355SOL    HW2 5465   2.845   0.255   1.325 -1.3541 -1.2455 -2.3167
 1355SOL    HW3 5466   2.809   0.130   1.402 -0.3507 -0.3229 -0.2986
 1355SOL    MW4 5467   2.789   0.210   1.374 -0.3006 -0.2516 -0.1286
 1356SOL     OW 5468   4.383   2.076   3.632 -0.2820 -0.1984  0.4231
 1356SOL    HW2 5469   4.469   2.043   3.660 -0.2844  0.3102  1.0383
 1356SOL    HW3 5470   4.372   2.159   3.679 -0.4584  0.4922 -0.7955
 1356SOL    MW4 5471   4.393   2.083   3.642 -0.3052 -0.0403  0.3436
 1357SOL     OW 5472   3.289   3.031   0.671  0.6430  0.6614 -0.6026
 1357SOL    HW2 5473   3.234   3.044   0.748  0.1391 -0.7857 -0.7173
 1357SOL    HW3 5474   3.228   3.019   0.599  1.1161  0.2725 -0.9412
 1357SOL    MW4 5475   3.274   3.031   0.672  0.6392  0.4191 -0.6624
 1358SOL     OW 5476   2.367   3.238   3.272  0.5799 -0.5001  0.0617
 1358SOL    HW2 5477   2.273   3.239   3.256  0.5730  0.0336  0.1448
 1358SOL    HW3 5478   2.403   3.302   3.211  0.8795 -0.6335  0.0973
 1358SOL    MW4 5479   2.360   3.246   3.262  0.6185 -0.4473  0.0772
 1359SOL     OW 5480   3.870   0.980   3.996 -0.2094  0.1607 -0.3590
 1359SOL    HW2 5481   3.890   1.000   3.905 -1.5194 -1.2429 -0.9755
 1359SOL    HW3 5482   3.778   0.954   3.995 -0.2098  0.0516  1.3584
 1359SOL    MW4 5483   3.861   0.980   3.984 -0.3822 -0.0389 -0.2139
 1360SOL     OW 5484   2.526   1.319   0.835 -0.1214  0.0074 -0.2289
 1360SOL    HW2 5485   2.526   1.408   0.800  0.3756 -0.9338 -2.7497
 1360SOL    HW3 5486   2.491   1.328   0.924 -4.7425  2.0271 -2.1155
 1360SOL    MW4 5487   2.521   1.332   0.842 -0.6657  0.1497 -0.8104
 1361SOL     OW 5488   3.447   0.991   1.862  0.5051 -0.5482  0.3806
 1361SOL    HW2 5489   3.406   0.913   1.824 -0.0348 -0.6360  1.1328
 1361SOL    HW3 5490   3.540   0.968   1.868  0.2798 -1.3102  1.0253
 1361SOL    MW4 5491   3.454   0.977   1.858  0.4041 -0.6603  0.5649
 1362SOL     OW 5492   2.742   4.385   0.426 -0.1175 -0.2036  0.2188
 1362SOL    HW2 5493   2.791   4.406   0.505  0.8989  0.6400 -0.6259
 1362SOL    HW3 5494   2.711   4.469   0.394 -1.8758 -0.6913  0.5591
 1362SOL    MW4 5495   2.744   4.399   0.432 -0.2155 -0.1569  0.1522
 1363SOL     OW 5496   2.750   0.347   2.495 -0.4562 -0.6105 -0.2660
 1363SOL    HW2 5497   2.701   0.270   2.524 -0.4378 -0.7147 -0.5168
 1363SOL    HW3 5498   2.740   0.409   2.567  0.4374 -1.2462  0.4232
 1363SOL    MW4 5499   2.743   0.345   2.509 -0.3357 -0.7081 -0.2079
 1364SOL     OW 5500   1.969   4.621   1.567  0.2183  0.0254 -0.4603
 1364SOL    HW2 5501   1.959   4.715   1.586  0.9656 -0.0641  0.4467
 1364SOL    HW3 5502   2.046   4.595   1.618 -0.9498 -1.4487  0.5698
 1364SOL    MW4 5503   1.978   4.630   1.576  0.1628 -0.1807 -0.2047
 1365SOL     OW 5504   0.408   4.119   3.828 -0.3707  0.1986  0.1503
 1365SOL    HW2 5505   0.446   4.107   3.915 -0.6547  1.7549  0.5100
 1365SOL    HW3 5506   0.335   4.057   3.825  2.6253 -3.4423 -0.8626
 1365SOL    MW4 5507   0.404   4.109   3.839 -0.0128 -0.0772  0.0644
 1366SOL     OW 5508   3.207   3.612   1.518  0.0723  0.3791  0.0317
 1366SOL    HW2 5509   3.261   3.538   1.548 -1.2882 -0.7809 -0.3642
 1366SOL    HW3 5510   3.223   3.617   1.424 -0.5149  0.0184 -0.0907
 1366SOL    MW4 5511   3.216   3.603   1.510 -0.1848  0.1788 -0.0368
 1367SOL     OW 5512   3.878   0.029   2.559  0.0030 -0.0732  0.1683
 1367SOL    HW2 5513   3.838   0.115   2.570 -0.1133 -0.1483  0.3315
 1367SOL    HW3 5514   3.807  -0.033   2.574 -0.2664 -0.1749 -1.3953
 1367SOL    MW4 5515   3.864   0.032   2.562 -0.0477 -0.0965 -0.0165
 1368SOL     OW 5516   1.354   3.058   1.569  0.0437 -0.1298  0.2843
 1368SOL    HW2 5517   1.307   3.109   1.504  1.4271  0.6941 -0.0918
 1368SOL    HW3 5518   1.384   3.122   1.633  2.8743 -0.2523 -0.8373
 1368SOL    MW4 5519   1.352   3.073   1.569  0.5997 -0.0374  0.0868
 1369SOL     OW 5520   2.250   4.015   1.913 -0.1911 -0.3016  0.0399
 1369SOL    HW2 5521   2.338   4.052   1.920 -0.9157  1.3925  0.5199
 1369SOL    HW3 5522   2.242   3.988   1.821  0.8718 -0.5931  0.0354
 1369SOL    MW4 5523   2.260   4.016   1.902 -0.1464 -0.1159  0.1025
 1370SOL     OW 5524   3.877   3.468   0.694  0.0015 -0.2894 -0.1255
 1370SOL    HW2 5525   3.829   3.429   0.768  0.4035  2.5890  1.7173
 1370SOL    HW3 5526   3.823   3.543   0.668  0.8681 -0.1362 -1.4898
 1370SOL    MW4 5527   3.863   3.472   0.700  0.1688  0.1106 -0.0623
 1371SOL     OW 5528   3.164   2.822   1.369  0.1688  0.4607 -0.2281
 1371SOL    HW2 5529   3.152   2.727   1.370 -0.1810  0.4901 -1.0482
 1371SOL    HW3 5530   3.105   2.854   1.438 -0.7232  0.1828 -0.8457
 1371SOL    MW4 5531   3.154   2.814   1.378  0.0048  0.4280 -0.4178
 1372SOL     OW 5532   0.729   3.004   2.230 -0.4850  0.2645 -0.6119
 1372SOL    HW2 5533   0.804   3.057   2.259 -1.2333  1.7350 -1.3105
 1372SOL    HW3 5534   0.715   2.942   2.302  0.7627  0.6348 -0.0188
 1372SOL    MW4 5535   0.737   3.003   2.244 -0.4192  0.5074 -0.6258
 1373SOL     OW 5536   2.852   3.913   2.948 -0.0447  0.5436  0.5809
 1373SOL    HW2 5537   2.852   3.964   3.029  0.8579 -0.4024  1.1918
 1373SOL    HW3 5538   2.811   3.830   2.973 -1.0844  0.7907 -0.2912
 1373SOL    MW4 5539   2.846   3.908   2.962 -0.0629  0.4513  0.5465
 1374SOL     OW 5540   2.810   0.353   3.432 -0.2298  0.3591 -0.1051
 1374SOL    HW2 5541   2.729   0.302   3.426  0.3084 -0.6332  0.9870
 1374SOL    HW3 5542   2.817   0.376   3.524  0.4250  0.9623 -0.3032
 1374SOL    MW4 5543   2.800   0.349   3.443 -0.0725  0.3077  0.0129
 1375SOL     OW 5544   3.573   1.004   2.484 -0.0536  0.8038 -0.3743
 1375SOL    HW2 5545   3.634   1.030   2.554  0.4044  1.8335 -1.1531
 1375SOL    HW3 5546   3.583   0.908   2.479 -0.1099  0.7091  0.9769
 1375SOL    MW4 5547   3.582   0.994   2.493 -0.0005  0.9271 -0.2987
 1376SOL     OW 5548   2.840   3.996   2.585  0.1119  0.2123 -0.4274
 1376SOL    HW2 5549   2.897   3.970   2.513 -0.3907 -0.5682 -0.5497
 1376SOL    HW3 5550   2.900   4.027   2.653  0.6897 -0.6091 -0.5519
 1376SOL    MW4 5551   2.855   3.996   2.585  0.1218  0.0010 -0.4599
 1377SOL     OW 5552   2.109   0.553   0.427  0.1891  0.2967  0.7356
 1377SOL    HW2 5553   2.036   0.494   0.408  0.4117 -0.6416  2.6881
 1377SOL    HW3 5554   2.068   0.628   0.469  0.1217  0.6836 -0.0189
 1377SOL    MW4 5555   2.094   0.555   0.430  0.2093  0.2239  0.8936
 1378SOL     OW 5556   1.397   1.009   0.814  0.2953 -0.0773  0.4680
 1378SOL    HW2 5557   1.446   0.964   0.744  0.5175  0.2473  0.4146
 1378SOL    HW3 5558   1.404   0.951   0.889  2.9835  1.1739  1.2373
 1378SOL    MW4 5559   1.405   0.995   0.814  0.6793  0.1307  0.5624
 1379SOL     OW 5560   0.659   1.344   3.852 -0.4954  0.2709 -0.4470
 1379SOL    HW2 5561   0.695   1.287   3.784 -0.6928 -0.9176  0.4267
 1379SOL    HW3 5562   0.639   1.425   3.806  2.3953  0.6513 -1.1552
 1379SOL    MW4 5563   0.661   1.347   3.837 -0.1401  0.1644 -0.4253
 1380SOL     OW 5564   0.277   4.321   1.933 -0.3664 -0.7594 -0.7762
 1380SOL    HW2 5565   0.273   4.235   1.974 -1.3278 -0.4279 -0.1722
 1380SOL    HW3 5566   0.346   4.313   1.866 -0.3908 -1.9558 -0.6573
 1380SOL    MW4 5567   0.286   4.309   1.929 -0.4964 -0.8731 -0.6809
 1381SOL     OW 5568   3.547   3.670   3.788  0.0671 -0.0574 -0.0667
 1381SOL    HW2 5569   3.537   3.637   3.877  1.8173  0.8891  0.5102
 1381SOL    HW3 5570   3.588   3.599   3.740  2.1800  0.5708  0.7322
 1381SOL    MW4 5571   3.551   3.656   3.794  0.5767  0.1504  0.1147
 1382SOL     OW 5572   0.987   0.381   0.078 -0.4437 -0.5859  0.4118
 1382SOL    HW2 5573   0.955   0.467   0.052 -1.0075 -1.1960 -0.9668
 1382SOL    HW3 5574   0.930   0.356   0.152 -2.2185 -1.0145 -1.0532
 1382SOL    MW4 5575   0.975   0.389   0.085 -0.7523 -0.7229  0.0366
 1383SOL     OW 5576   0.159   2.849   3.092 -0.3183  0.1193 -0.4582
 1383SOL    HW2 5577   0.165   2.853   2.997 -0.3163  0.6119 -0.4377
 1383SOL    HW3 5578   0.117   2.931   3.118 -0.6249 -0.1596 -0.0590
 1383SOL    MW4 5579   0.154   2.861   3.083 -0.3585  0.1476 -0.4027
 1384SOL     OW 5580   1.423   0.403   0.618 -0.1580 -0.3082 -0.1758
 1384SOL    HW2 5581   1.342   0.365   0.584 -0.5904  1.2516 -0.9516
 1384SOL    HW3 5582   1.415   0.497   0.599  0.6696  0.2556  2.0534
 1384SOL    MW4 5583   1.411   0.411   0.611 -0.1059 -0.0280  0.0160
 1385SOL     OW 5584   1.551   4.391   4.159 -0.7735 -0.4291  0.5078
 1385SOL    HW2 5585   1.479   4.452   4.143  0.1462  0.6524  0.4474
 1385SOL    HW3 5586   1.628   4.447   4.171  0.4193 -1.6380 -1.2817
 1385SOL    MW4 5587   1.552   4.406   4.159 -0.4947 -0.4458  0.2642
 1386SOL     OW 5588   2.202   0.531   3.264 -0.4866  0.1416  0.1261
 1386SOL    HW2 5589   2.246   0.590   3.324  1.8979 -0.7762 -0.6494
 1386SOL    HW3 5590   2.119   0.510   3.306 -0.3222  2.1547  1.4913
 1386SOL    MW4 5591   2.197   0.536   3.277 -0.1504  0.2861  0.2041
 1387SOL     OW 5592   2.443   0.303   3.097 -0.3308 -0.2210  0.3807
 1387SOL    HW2 5593   2.349   0.289   3.085 -0.2419 -0.4666 -0.0555
 1387SOL    HW3 5594   2.467   0.363   3.027 -0.3220  0.5363  1.0208
 1387SOL    MW4 5595   2.434   0.309   3.086 -0.3178 -0.1535  0.4072
 1388SOL     OW 5596   3.180   1.597   1.848  0.5832 -0.1780  0.1353
 1388SOL    HW2 5597   3.092   1.561   1.857  0.9251 -0.8862  0.7107
 1388SOL    HW3 5598   3.167   1.680   1.802 -0.1086 -1.5414 -2.2415
 1388SOL    MW4 5599   3.167   1.603   1.843  0.5372 -0.4512 -0.1023
 1389SOL     OW 5600   4.077   0.766   1.900  0.3493  0.2339 -0.0700
 1389SOL    HW2 5601   4.144   0.834   1.907  2.6354 -1.9186 -0.0948
 1389SOL    HW3 5602   4.114   0.691   1.948 -1.8424 -1.1639 -0.4818
 1389SOL    MW4 5603   4.091   0.765   1.907  0.3619 -0.2345 -0.1276
 1390SOL     OW 5604   2.584   2.405   2.981  0.0480 -0.1765  0.0584
 1390SOL    HW2 5605   2.554   2.373   2.895  2.2394 -0.8215 -0.5129
 1390SOL    HW3 5606   2.608   2.325   3.028 -2.0533  0.1059  1.6668
 1390SOL    MW4 5607   2.583   2.390   2.976  0.0598 -0.2246  0.1953
 1391SOL     OW 5608   0.414   0.329   3.989  0.7587 -0.0560 -0.1991
 1391SOL    HW2 5609   0.347   0.395   4.009  0.3663 -0.4084 -0.3327
 1391SOL    HW3 5610   0.434   0.343   3.897  0.8356  0.0163 -0.1723
 1391SOL    MW4 5611   0.408   0.340   3.980  0.7171 -0.0929 -0.2134
 1392SOL     OW 5612   0.546   2.529   4.123 -0.8535  0.5232 -0.0199
 1392SOL    HW2 5613   0.623   2.577   4.151  0.0282 -1.1954  0.5859
 1392SOL    HW3 5614   0.547   2.534   4.027 -0.7830  1.6981  0.0437
 1392SOL    MW4 5615   0.556   2.536   4.114 -0.7279  0.4518  0.0687
 1393SOL     OW 5616   2.433   2.736   2.506  0.1827  0.4918 -0.7010
 1393SOL    HW2 5617   2.469   2.719   2.592  0.6010  0.2771 -0.9205
 1393SOL    HW3 5618   2.424   2.832   2.502 -1.1354  0.4144  0.1039
 1393SOL    MW4 5619   2.436   2.747   2.517  0.0637  0.4532 -0.6237
 1394SOL     OW 5620   1.419   2.817   2.351  0.0341 -0.0508 -0.4664
 1394SOL    HW2 5621   1.492   2.822   2.413 -0.4551  0.8427  0.0534
 1394SOL    HW3 5622   1.442   2.880   2.283 -0.9002  1.2837  0.4184
 1394SOL    MW4 5623   1.432   2.826   2.350 -0.1538  0.2432 -0.2811
 1395SOL     OW 5624   0.940   4.589   3.833 -0.6085 -0.3690 -0.1199
 1395SOL    HW2 5625   0.857   4.541   3.833 -0.6636 -0.2738 -0.4514
 1395SOL    HW3 5626   0.926   4.662   3.894 -0.8383 -0.2345 -0.3343
 1395SOL    MW4 5627   0.927   4.593   3.841 -0.6461 -0.3390 -0.1919
 1396SOL     OW 5628   3.825   1.824   0.194 -0.3663  0.3962  0.0687
 1396SOL    HW2 5629   3.743   1.790   0.158 -0.6110  1.2370 -0.1875
 1396SOL    HW3 5630   3.798   1.875   0.271 -0.3305  2.5317 -1.2912
 1396SOL    MW4 5631   3.811   1.826   0.200 -0.3936  0.7888 -0.1445
 1397SOL     OW 5632   3.362   3.570   2.136 -0.4342 -0.2516 -0.7662
 1397SOL    HW2 5633   3.440   3.573   2.190 -0.5712 -0.0734 -0.5778
 1397SOL    HW3 5634   3.291   3.550   2.198 -0.8001  1.3479 -0.6619
 1397SOL    MW4 5635   3.363   3.567   2.151 -0.5007 -0.0169 -0.7274
 1398SOL     OW 5636   1.603   3.257   2.012  0.0649  0.1267  0.4109
 1398SOL    HW2 5637   1.525   3.289   2.056 -0.7070 -0.7399 -0.2956
 1398SOL    HW3 5638   1.676   3.287   2.066 -0.7439  1.1296  0.9575
 1398SOL    MW4 5639   1.603   3.265   2.025 -0.1436  0.1447  0.3896
 1399SOL     OW 5640   1.223   0.525   2.153  0.1504 -0.0449 -0.1072
 1399SOL    HW2 5641   1.259   0.610   2.180  0.9826 -0.5369  0.3747
 1399SOL    HW3 5642   1.298   0.465   2.159 -0.5926 -0.9408  0.2022
 1399SOL    MW4 5643   1.238   0.529   2.158  0.1621 -0.2280 -0.0026
 1400SOL     OW 5644   0.680   1.691   2.395 -0.5758  0.1064  0.1061
 1400SOL    HW2 5645   0.611   1.750   2.364 -1.5069 -0.4330  1.1155
 1400SOL    HW3 5646   0.678   1.701   2.491 -0.6960 -1.5086  0.2786
 1400SOL    MW4 5647   0.671   1.700   2.404 -0.7145 -0.1779  0.2623
 1401SOL     OW 5648   2.269   1.218   0.732 -0.1322 -0.0532  0.2109
 1401SOL    HW2 5649   2.345   1.258   0.774 -2.5620  2.3372  2.4611
 1401SOL    HW3 5650   2.253   1.139   0.783 -0.0482  0.2117  0.6531
 1401SOL    MW4 5651   2.277   1.213   0.744 -0.4418  0.2970  0.5661
 1402SOL     OW 5652   1.480   3.402   3.835  0.9090  0.2024  0.0542
 1402SOL    HW2 5653   1.502   3.318   3.796 -0.9453 -0.6437  0.7598
 1402SOL    HW3 5654   1.402   3.431   3.787  0.3296  0.5353  1.1878
 1402SOL    MW4 5655   1.473   3.395   3.823  0.5878  0.1347  0.2968
 1403SOL     OW 5656   3.977   2.923   1.366  0.2045 -0.3154  0.0323
 1403SOL    HW2 5657   3.977   2.995   1.428 -0.7311 -0.7742  0.5792
 1403SOL    HW3 5658   3.885   2.914   1.339  0.4756 -0.6136 -0.8390
 1403SOL    MW4 5659   3.965   2.931   1.370  0.1168 -0.4153 -0.0106
 1404SOL     OW 5660   0.513   0.704   0.966 -0.3971  0.0255 -0.0782
 1404SOL    HW2 5661   0.555   0.622   0.993 -0.5659 -0.1665 -0.3923
 1404SOL    HW3 5662   0.567   0.773   1.005  0.2747 -0.2198 -0.5618
 1404SOL    MW4 5663   0.526   0.702   0.975 -0.3308 -0.0322 -0.1835
 1405SOL     OW 5664   0.946   0.099   0.511  0.2428  0.0087 -0.5165
 1405SOL    HW2 5665   0.901   0.015   0.497 -0.5133  0.1213  1.1196
 1405SOL    HW3 5666   1.030   0.089   0.467 -0.3457 -1.1561 -1.4078
 1405SOL    MW4 5667   0.951   0.087   0.503  0.0654 -0.1302 -0.4182
 1406SOL     OW 5668   3.890   0.691   2.404  0.0325  0.0223 -0.1363
 1406SOL    HW2 5669   3.942   0.728   2.332  0.7946 -0.7480  0.0020
 1406SOL    HW3 5670   3.923   0.601   2.413  1.4208  0.7550  2.5480
 1406SOL    MW4 5671   3.901   0.684   2.396  0.3159  0.0173  0.2360
 1407SOL     OW 5672   1.767   2.338   0.416 -0.2527  0.0826 -0.3738
 1407SOL    HW2 5673   1.700   2.270   0.425  0.3629 -0.2168  2.4116
 1407SOL    HW3 5674   1.842   2.305   0.465 -0.1732  3.0008  1.6156
 1407SOL    MW4 5675   1.768   2.325   0.424 -0.1611  0.4282  0.2561
 1408SOL     OW 5676   0.097   2.327   3.376  0.2732 -0.1260  0.2990
 1408SOL    HW2 5677   0.024   2.367   3.424 -1.2731 -1.2193 -1.0618
 1408SOL    HW3 5678   0.111   2.385   3.301  1.1386  0.3474  0.8268
 1408SOL    MW4 5679   0.089   2.340   3.372  0.1834 -0.2079  0.1893
 1409SOL     OW 5680   4.251   2.414   2.018 -0.0868  0.2411  0.2207
 1409SOL    HW2 5681   4.332   2.367   2.000  0.1802  0.7286  0.1253
 1409SOL    HW3 5682   4.278   2.506   2.025 -0.7122  0.4765 -0.4075
 1409SOL    MW4 5683   4.265   2.420   2.016 -0.1340  0.3364  0.1249
 1410SOL     OW 5684   1.825   2.651   3.073  0.3437 -0.2761  0.2343
 1410SOL    HW2 5685   1.825   2.694   3.159  1.1840  0.5253 -0.1542
 1410SOL    HW3 5686   1.918   2.638   3.053  0.1999  0.6762 -1.0987
 1410SOL    MW4 5687   1.837   2.655   3.082  0.4357 -0.0443  0.0072
 1411SOL     OW 5688   3.391   0.143   3.054 -0.4289  0.3218 -0.2556
 1411SOL    HW2 5689   3.404   0.070   2.994 -1.0317  0.1566 -0.1939
 1411SOL    HW3 5690   3.310   0.121   3.100 -0.0559  0.5205  0.5038
 1411SOL    MW4 5691   3.382   0.130   3.052 -0.4592  0.3262 -0.1476
 1412SOL     OW 5692   1.748   1.960   0.525 -0.5318  0.3634 -0.1298
 1412SOL    HW2 5693   1.683   2.014   0.480 -0.0132  0.3426 -0.8945
 1412SOL    HW3 5694   1.696   1.905   0.585 -1.2044  0.4427 -0.6393
 1412SOL    MW4 5695   1.733   1.960   0.527 -0.5521  0.3711 -0.2980
 1413SOL     OW 5696   2.046   3.295   2.463  0.1767 -0.5215  0.0122
 1413SOL    HW2 5697   1.959   3.270   2.496 -0.0505 -0.1168 -0.2770
 1413SOL    HW3 5698   2.031   3.378   2.418  0.6831 -0.5435 -0.1925
 1413SOL    MW4 5699   2.032   3.303   2.461  0.2136 -0.4709 -0.0532
 1414SOL     OW 5700   4.272   0.947   0.398  0.5223  0.0349  0.2371
 1414SOL    HW2 5701   4.214   0.896   0.455  0.6008 -0.8022 -0.4149
 1414SOL    HW3 5702   4.360   0.922   0.426  0.5949  1.8355  1.6977
 1414SOL    MW4 5703   4.276   0.937   0.410  0.5422  0.1621  0.3438
 1415SOL     OW 5704   0.567   2.268   4.197  0.0843  0.0125  0.2058
 1415SOL    HW2 5705   0.656   2.238   4.182  0.4319  0.9540  0.3458
 1415SOL    HW3 5706   0.573   2.364   4.191 -0.8482  0.0947  0.5645
 1415SOL    MW4 5707   0.579   2.277   4.194  0.0072  0.1476  0.2718
 1416SOL     OW 5708   2.478   2.739   1.682  0.5005 -0.2500 -0.4955
 1416SOL    HW2 5709   2.541   2.793   1.730  0.6271 -1.4256  0.6905
 1416SOL    HW3 5710   2.406   2.799   1.662  1.2693  0.7069 -0.4454
 1416SOL    MW4 5711   2.477   2.754   1.686  0.6187 -0.2789 -0.3324
 1417SOL     OW 5712   2.894   4.505   0.909 -0.5114  0.2550  0.0239
 1417SOL    HW2 5713   2.978   4.468   0.883 -0.8225  0.2440 -1.0140
 1417SOL    HW3 5714   2.910   4.544   0.995  0.3819 -0.3209  0.1285
 1417SOL    MW4 5715   2.907   4.506   0.917 -0.4346  0.1779 -0.0992
 1418SOL     OW 5716   0.521   2.398   3.376  0.0611 -0.7484 -0.5372
 1418SOL    HW2 5717   0.609   2.365   3.395  0.2680 -0.1399 -0.4133
 1418SOL    HW3 5718   0.468   2.367   3.449  0.3327 -0.5080 -0.2326
 1418SOL    MW4 5719   0.526   2.390   3.388  0.1243 -0.6363 -0.4809
 1419SOL     OW 5720   0.741   4.621   2.247  0.1357  0.2999 -0.1966
 1419SOL    HW2 5721   0.758   4.554   2.313  2.0610  1.0105  0.0622
 1419SOL    HW3 5722   0.704   4.572   2.173  0.0932 -0.8298  0.5599
 1419SOL    MW4 5723   0.739   4.606   2.246  0.3841  0.2451 -0.0625
 1420SOL     OW 5724   3.725   3.289   3.291 -0.0555  0.3723  0.1001
 1420SOL    HW2 5725   3.642   3.256   3.326  1.3793 -2.0249  1.3992
 1420SOL    HW3 5726   3.782   3.296   3.367  1.3292  0.7488 -0.9513
 1420SOL    MW4 5727   3.722   3.286   3.306  0.3166  0.1056  0.1330
 1421SOL     OW 5728   2.246   1.871   0.450 -0.1799 -0.2487  0.5853
 1421SOL    HW2 5729   2.315   1.804   0.442  1.1883  1.0453  1.2559
 1421SOL    HW3 5730   2.171   1.833   0.405  0.9819 -1.6789 -0.2159
 1421SOL    MW4 5731   2.246   1.857   0.443  0.1540 -0.2667  0.5680
 1422SOL     OW 5732   4.376   2.251   0.394 -0.0783 -0.5209 -0.4567
 1422SOL    HW2 5733   4.377   2.175   0.336 -0.0075 -0.1046 -1.0044
 1422SOL    HW3 5734   4.410   2.219   0.477  0.2984 -0.9984 -0.7979
 1422SOL    MW4 5735   4.381   2.237   0.397 -0.0196 -0.5293 -0.5740
 1423SOL     OW 5736   0.077   3.837   2.524  0.2555 -0.1052  0.2552
 1423SOL    HW2 5737   0.001   3.839   2.466  0.5932  0.9140 -0.1737
 1423SOL    HW3 5738   0.135   3.771   2.487  0.2085  0.1239 -0.2241
 1423SOL    MW4 5739   0.075   3.829   2.512  0.2938  0.0596  0.1354
 1424SOL     OW 5740   4.061   1.199   0.473 -0.0493 -0.1380  0.2729
 1424SOL    HW2 5741   4.064   1.146   0.393 -1.1099 -0.8198  0.6880
 1424SOL    HW3 5742   4.078   1.288   0.442  0.5508 -0.5364 -0.5787
 1424SOL    MW4 5743   4.064   1.204   0.458 -0.1101 -0.2806  0.2153
 1425SOL     OW 5744   3.784   1.984   1.178 -0.2264 -0.2288 -0.3432
 1425SOL    HW2 5745   3.876   1.987   1.153  0.3441  0.2041  1.7796
 1425SOL    HW3 5746   3.763   2.072   1.209 -1.1074 -0.5562  0.0399
 1425SOL    MW4 5747   3.793   1.996   1.179 -0.2675 -0.2149 -0.0125
 1426SOL     OW 5748   3.777   2.836   2.576 -0.5035  0.4719  0.1549
 1426SOL    HW2 5749   3.798   2.923   2.542 -0.5706  0.3502 -0.2016
 1426SOL    HW3 5750   3.776   2.779   2.499  0.7072 -0.0703  0.5347
 1426SOL    MW4 5751   3.779   2.840   2.562 -0.3526  0.3843  0.1581
 1427SOL     OW 5752   3.418   2.442   4.126  0.1109  0.0829  0.1160
 1427SOL    HW2 5753   3.450   2.435   4.216  0.4117  0.2050  0.0173
 1427SOL    HW3 5754   3.473   2.509   4.086  0.3621 -0.3924 -0.3341
 1427SOL    MW4 5755   3.429   2.450   4.132  0.1841  0.0365  0.0439
 1428SOL     OW 5756   3.213   2.116   1.282  0.2356  0.1587 -0.0161
 1428SOL    HW2 5757   3.192   2.202   1.244 -1.2162 -0.7248 -1.2748
 1428SOL    HW3 5758   3.262   2.136   1.361 -0.2355  2.1627 -0.2099
 1428SOL    MW4 5759   3.217   2.130   1.287 -0.0181  0.3066 -0.2077
 1429SOL     OW 5760   1.294   0.712   1.836 -0.0907  0.3161 -0.4667
 1429SOL    HW2 5761   1.299   0.798   1.793 -0.0527  1.5970  1.9723
 1429SOL    HW3 5762   1.221   0.720   1.897  1.0697 -0.7485  1.1063
 1429SOL    MW4 5763   1.285   0.725   1.838  0.0676  0.3446  0.0627
 1430SOL     OW 5764   2.677   1.619   0.838  0.1236 -0.0727  0.0196
 1430SOL    HW2 5765   2.680   1.662   0.923 -2.2019  0.0357  0.1032
 1430SOL    HW3 5766   2.713   1.532   0.853 -0.4945 -0.1304  1.1998
 1430SOL    MW4 5767   2.682   1.613   0.851 -0.2646 -0.0659  0.1863
 1431SOL     OW 5768   1.077   0.542   3.217 -0.7763  0.1079  0.2335
 1431SOL    HW2 5769   1.133   0.478   3.173 -0.7925 -1.3255  2.2372
 1431SOL    HW3 5770   1.137   0.596   3.268 -1.0894 -0.8352  1.6377
 1431SOL    MW4 5771   1.092   0.540   3.218 -0.8199 -0.2057  0.6833
 1432SOL     OW 5772   4.110   1.451   3.411 -0.1920 -0.3022  0.1209
 1432SOL    HW2 5773   4.074   1.423   3.495 -1.6721  1.3484  0.0647
 1432SOL    HW3 5774   4.180   1.512   3.434  1.3752 -2.0617  0.1834
 1432SOL    MW4 5775   4.114   1.455   3.425 -0.1807 -0.3166  0.1221
 1433SOL     OW 5776   3.842   3.191   2.030  0.4559  0.0183  0.0415
 1433SOL    HW2 5777   3.773   3.257   2.027 -0.4533 -0.9103  0.4131
 1433SOL    HW3 5778   3.872   3.183   1.939  0.8387  1.2119  0.0570
 1433SOL    MW4 5779   3.837   3.199   2.018  0.3865  0.0534  0.0923
 1434SOL     OW 5780   4.082   1.866   3.067 -0.2195  0.0787  0.0228
 1434SOL    HW2 5781   3.998   1.846   3.026 -0.8201 -1.6136  2.0286
 1434SOL    HW3 5782   4.133   1.785   3.057  0.2482  0.2407  1.0880
 1434SOL    MW4 5783   4.078   1.853   3.060 -0.2370 -0.1233  0.4282
 1435SOL     OW 5784   1.200   0.192   3.777  0.0583 -0.6653  0.1644
 1435SOL    HW2 5785   1.106   0.210   3.776 -0.0350 -1.2145 -1.0315
 1435SOL    HW3 5786   1.217   0.149   3.694  0.8396 -3.3913  1.6721
 1435SOL    MW4 5787   1.190   0.189   3.766  0.1491 -1.0975  0.2055
 1436SOL     OW 5788   3.562   1.343   0.905  0.0781  0.3641 -0.0341
 1436SOL    HW2 5789   3.558   1.426   0.953 -0.3367  1.0316 -1.2063
 1436SOL    HW3 5790   3.655   1.331   0.886  0.2684 -0.0012  1.1010
 1436SOL    MW4 5791   3.574   1.353   0.909  0.0486  0.4039 -0.0390
 1437SOL     OW 5792   1.290   3.730   0.795  0.5022 -0.1137  0.3257
 1437SOL    HW2 5793   1.323   3.789   0.727 -1.3062  0.8307  0.2585
 1437SOL    HW3 5794   1.369   3.697   0.838  1.6559 -0.4070 -1.9573
 1437SOL    MW4 5795   1.305   3.734   0.792  0.4158 -0.0277  0.0156
 1438SOL     OW 5796   2.503   1.570   2.664  0.5501  0.1216 -0.7261
 1438SOL    HW2 5797   2.544   1.492   2.628  0.1920 -0.2769 -0.2684
 1438SOL    HW3 5798   2.478   1.621   2.587  1.1702 -0.0084 -1.0205
 1438SOL    MW4 5799   2.505   1.567   2.649  0.5848  0.0521 -0.7045
 1439SOL     OW 5800   2.216   2.366   1.448 -0.5904  0.5204  0.1472
 1439SOL    HW2 5801   2.201   2.381   1.541 -0.0292 -2.1773  0.7119
 1439SOL    HW3 5802   2.297   2.414   1.429 -0.9706  1.4921  0.8988
 1439SOL    MW4 5803   2.225   2.375   1.458 -0.5667  0.2925  0.3209
 1440SOL     OW 5804   1.765   2.051   1.580 -0.1096  0.1855 -0.2281
 1440SOL    HW2 5805   1.726   2.020   1.661 -0.6571  0.2953 -0.4521
 1440SOL    HW3 5806   1.851   2.008   1.577 -0.7549 -1.1228 -0.4085
 1440SOL    MW4 5807   1.772   2.041   1.590 -0.2669  0.0274 -0.2815
 1441SOL     OW 5808   4.118   0.854   1.473 -0.0802 -0.2534 -0.0451
 1441SOL    HW2 5809   4.158   0.940   1.473  0.6416 -0.5820  0.2956
 1441SOL    HW3 5810   4.043   0.862   1.415  0.3326  0.4399 -0.4872
 1441SOL    MW4 5811   4.113   0.866   1.465  0.0696 -0.2054 -0.0584
 1442SOL     OW 5812   0.081   4.253   1.634 -0.7006 -0.7129  0.0509
 1442SOL    HW2 5813   0.007   4.313   1.621  0.8273  0.9558 -1.0144
 1442SOL    HW3 5814   0.119   4.279   1.718 -1.0763 -1.3412  0.4262
 1442SOL    MW4 5815   0.076   4.264   1.644 -0.5486 -0.5755 -0.0402
 1443SOL     OW 5816   4.094   3.837   3.293  0.6267 -0.0041  0.0729
 1443SOL    HW2 5817   4.036   3.793   3.355 -0.5613  0.2864 -0.8066
 1443SOL    HW3 5818   4.054   3.821   3.207 -0.3981  3.5384 -0.1955
 1443SOL    MW4 5819   4.081   3.829   3.290  0.3347  0.5016 -0.0784
 1444SOL     OW 5820   0.582   1.350   0.987 -0.0232 -0.4164  0.0762
 1444SOL    HW2 5821   0.529   1.376   0.912  1.1450  0.6201 -0.4023
 1444SOL    HW3 5822   0.531   1.378   1.063 -0.2503  0.3984 -0.3712
 1444SOL    MW4 5823   0.568   1.357   0.987  0.1009 -0.1721 -0.0459
 1445SOL     OW 5824   1.768   1.456   3.417  0.2499 -0.3466  0.3086
 1445SOL    HW2 5825   1.759   1.505   3.336  1.9011 -0.4269  0.0588
 1445SOL    HW3 5826   1.818   1.378   3.392 -0.3135 -0.9908  1.1577
 1445SOL    MW4 5827   1.773   1.452   3.403  0.3933 -0.4423  0.3877
 1446SOL     OW 5828   3.518   2.118   3.783 -0.4816 -0.0760 -0.2488
 1446SOL    HW2 5829   3.610   2.101   3.801 -0.3634  0.4265 -0.3563
 1446SOL    HW3 5830   3.475   2.110   3.868 -0.2451  0.2750 -0.0955
 1446SOL    MW4 5831   3.525   2.115   3.796 -0.4349  0.0365 -0.2427
 1447SOL     OW 5832   1.003   1.861   0.277 -0.3992  0.1832  0.3018
 1447SOL    HW2 5833   1.084   1.813   0.260 -0.8934 -0.3197 -0.6784
 1447SOL    HW3 5834   0.942   1.795   0.309 -0.9383  0.2209 -0.6042
 1447SOL    MW4 5835   1.005   1.846   0.279 -0.5355  0.1218  0.0530
 1448SOL     OW 5836   3.997   0.445   2.627 -0.5304  0.0811  0.3349
 1448SOL    HW2 5837   3.993   0.476   2.718  0.2432  0.1991  0.3341
 1448SOL    HW3 5838   4.090   0.428   2.612 -0.7783 -0.9234 -0.1095
 1448SOL    MW4 5839   4.009   0.447   2.637 -0.4611 -0.0359  0.2761
 1449SOL     OW 5840   4.031   0.149   2.295 -0.7089  0.4613 -0.0202
 1449SOL    HW2 5841   4.123   0.141   2.320  0.0595 -0.6572 -2.8924
 1449SOL    HW3 5842   3.986   0.084   2.349  0.1236  1.1834  1.5844
 1449SOL    MW4 5843   4.038   0.139   2.305 -0.4983  0.4091 -0.1872
 1450SOL     OW 5844   1.645   1.375   1.848 -0.1653  0.4650 -0.1182
 1450SOL    HW2 5845   1.569   1.325   1.877  0.2548  0.4690  1.0286
 1450SOL    HW3 5846   1.671   1.425   1.925  1.7197 -0.4425 -0.1526
 1450SOL    MW4 5847   1.638   1.375   1.862  0.1389  0.3458  0.0286
 1451SOL     OW 5848   4.433   1.552   0.272 -0.3548  0.5599 -0.2746
 1451SOL    HW2 5849   4.359   1.515   0.224  0.8490  1.2883 -2.7577
 1451SOL    HW3 5850   4.488   1.476   0.292 -0.6301  0.3079 -0.4695
 1451SOL    MW4 5851   4.431   1.537   0.268 -0.2313  0.6229 -0.6280
 1452SOL     OW 5852   0.475   2.863   0.513  0.2201  0.4008 -0.2365
 1452SOL    HW2 5853   0.568   2.870   0.491 -0.2552  1.0387 -2.1297
 1452SOL    HW3 5854   0.453   2.948   0.551  0.2904  0.4366 -0.2749
 1452SOL    MW4 5855   0.485   2.875   0.515  0.1667  0.4897 -0.4914
 1453SOL     OW 5856   2.330   0.092   3.485  0.1480 -0.1289  0.3223
 1453SOL    HW2 5857   2.384   0.164   3.452  0.3021  0.4480  1.7846
 1453SOL    HW3 5858   2.258   0.085   3.423  0.3096  1.0659 -0.0161
 1453SOL    MW4 5859   2.328   0.100   3.472  0.1895  0.1049  0.4704
 1454SOL     OW 5860   0.629   3.947   1.688  0.5899 -0.0523 -0.2301
 1454SOL    HW2 5861   0.720   3.975   1.687  0.4818  0.3032 -0.3802
 1454SOL    HW3 5862   0.623   3.879   1.621  0.5469  0.5676 -0.8598
 1454SOL    MW4 5863   0.640   3.942   1.679  0.5699  0.0763 -0.3331
 1455SOL     OW 5864   3.890   0.944   2.016 -0.4853  0.6914  0.7370
 1455SOL    HW2 5865   3.951   0.884   1.974  0.7539  2.7779 -0.5899
 1455SOL    HW3 5866   3.807   0.896   2.020  0.1814 -0.7042 -1.2855
 1455SOL    MW4 5867   3.887   0.930   2.011 -0.2337  0.7825  0.2949
 1456SOL     OW 5868   3.454   0.644   0.135 -0.3676  0.1617 -0.1853
 1456SOL    HW2 5869   3.485   0.623   0.047  0.1083  0.7863 -0.1728
 1456SOL    HW3 5870   3.500   0.583   0.192  0.8598  1.0842 -0.1670
 1456SOL    MW4 5871   3.464   0.633   0.130 -0.1428  0.3658 -0.1812
 1457SOL     OW 5872   1.766   2.577   1.694  0.1709  0.2173  0.1388
 1457SOL    HW2 5873   1.796   2.487   1.684  1.7506  0.5159  1.8985
 1457SOL    HW3 5874   1.710   2.592   1.617  0.6101 -1.9446 -0.6526
 1457SOL    MW4 5875   1.762   2.567   1.682  0.4373 -0.0281  0.2666
 1458SOL     OW 5876   4.172   0.567   2.059 -0.6261 -0.4780  0.0423
 1458SOL    HW2 5877   4.172   0.481   2.017 -0.6189 -0.3443 -0.2349
 1458SOL    HW3 5878   4.094   0.567   2.114  0.4757 -1.4297  1.6387
 1458SOL    MW4 5879   4.162   0.556   2.061 -0.4797 -0.5859  0.2165
 1459SOL     OW 5880   0.964   4.277   1.393 -0.3334 -0.0683 -1.3270
 1459SOL    HW2 5881   0.942   4.346   1.330  1.9989  1.5865 -0.3772
 1459SOL    HW3 5882   1.037   4.313   1.444 -1.4442 -1.8209  1.5986
 1459SOL    MW4 5883   0.971   4.291   1.391 -0.1722 -0.0811 -0.8159
 1460SOL     OW 5884   0.196   0.136   1.398  0.0112  0.1415 -0.1228
 1460SOL    HW2 5885   0.224   0.058   1.351  0.6073 -0.2640  0.8828
 1460SOL    HW3 5886   0.103   0.121   1.417 -0.3649  0.5453 -1.6225
 1460SOL    MW4 5887   0.187   0.124   1.395  0.0402  0.1413 -0.1880
 1461SOL     OW 5888   1.871   3.925   0.763 -0.2512  0.0455  0.2748
 1461SOL    HW2 5889   1.940   3.991   0.765  0.2457 -0.4404 -0.6810
 1461SOL    HW3 5890   1.791   3.975   0.746 -0.0288  0.5210  0.6284
 1461SOL    MW4 5891   1.869   3.940   0.761 -0.1563  0.0443  0.1954
 1462SOL     OW 5892   3.472   0.969   0.569  0.0379  0.0332  0.2123
 1462SOL    HW2 5893   3.468   0.913   0.647 -1.3323 -2.1748 -1.3792
 1462SOL    HW3 5894   3.561   0.955   0.534  0.8059  1.3679  1.5946
 1462SOL    MW4 5895   3.484   0.960   0.575 -0.0415 -0.0820  0.1847
 1463SOL     OW 5896   4.336   0.918   2.891 -0.0269  0.5697  0.6936
 1463SOL    HW2 5897   4.419   0.875   2.873 -0.2561 -0.4282  1.9443
 1463SOL    HW3 5898   4.340   0.941   2.983 -0.6755  1.5649  0.4863
 1463SOL    MW4 5899   4.347   0.915   2.900 -0.1431  0.5692  0.8311
 1464SOL     OW 5900   2.203   3.874   1.665  0.0019 -0.6682 -0.0199
 1464SOL    HW2 5901   2.214   3.930   1.587  1.9384 -1.3438 -0.2605
 1464SOL    HW3 5902   2.255   3.796   1.646 -0.7623 -1.5228  1.3241
 1464SOL    MW4 5903   2.212   3.871   1.652  0.1564 -0.8702  0.1258
 1465SOL     OW 5904   4.048   2.377   2.224  0.1318 -0.1478  0.4935
 1465SOL    HW2 5905   4.120   2.390   2.163  0.4364 -1.1824  0.6272
 1465SOL    HW3 5906   3.970   2.404   2.175  0.6561  1.5907  0.5641
 1465SOL    MW4 5907   4.047   2.382   2.210  0.2413 -0.0551  0.5205
 1466SOL     OW 5908   0.080   1.960   2.378  0.2683  0.2157  0.3648
 1466SOL    HW2 5909   0.011   2.019   2.410 -2.7935 -1.2566 -3.1361
 1466SOL    HW3 5910   0.138   2.017   2.328 -0.3889  0.9135  0.3784
 1466SOL    MW4 5911   0.078   1.976   2.376 -0.2224  0.1135 -0.0954
 1467SOL     OW 5912   3.412   0.484   1.184  0.4168 -0.5399  0.2429
 1467SOL    HW2 5913   3.476   0.469   1.114 -0.4395  0.1590 -0.7151
 1467SOL    HW3 5914   3.420   0.577   1.204  1.2465 -0.9158  1.6692
 1467SOL    MW4 5915   3.421   0.494   1.177  0.4134 -0.4973  0.3046
 1468SOL     OW 5916   0.526   1.452   1.663  0.3152  0.2054  0.1730
 1468SOL    HW2 5917   0.550   1.367   1.625 -1.8629  0.4024 -1.7952
 1468SOL    HW3 5918   0.479   1.430   1.743 -0.8010 -0.5065 -0.6532
 1468SOL    MW4 5919   0.523   1.438   1.668 -0.1194  0.1374 -0.1955
 1469SOL     OW 5920   2.384   3.501   0.774  0.2517  0.4596 -0.0832
 1469SOL    HW2 5921   2.427   3.504   0.689 -1.0308 -1.5482 -0.8302
 1469SOL    HW3 5922   2.300   3.546   0.760 -0.7457 -1.4667 -0.3722
 1469SOL    MW4 5923   2.379   3.508   0.761 -0.0491 -0.0594 -0.2199
 1470SOL     OW 5924   3.831   1.583   0.361  0.0230 -0.4759  0.3505
 1470SOL    HW2 5925   3.835   1.661   0.305  0.7457  0.7545  2.0861
 1470SOL    HW3 5926   3.756   1.599   0.419  1.1411 -0.3385  1.7754
 1470SOL    MW4 5927   3.821   1.595   0.361  0.2656 -0.2955  0.7675
 1471SOL     OW 5928   1.025   1.064   2.857 -0.4078  0.3759 -0.3117
 1471SOL    HW2 5929   1.099   1.004   2.850 -1.0984 -0.5472  0.1723
 1471SOL    HW3 5930   1.065   1.151   2.860  0.7843 -0.2017  1.9217
 1471SOL    MW4 5931   1.040   1.068   2.856 -0.3417  0.1777  0.0467
 1472SOL     OW 5932   4.228   3.096   2.106 -0.1895 -0.2224  0.6955
 1472SOL    HW2 5933   4.323   3.098   2.116  0.0163 -0.1499 -1.0518
 1472SOL    HW3 5934   4.203   3.189   2.101 -0.0529 -0.2569 -1.1479
 1472SOL    MW4 5935   4.237   3.109   2.107 -0.1445 -0.2174  0.2220
 1473SOL     OW 5936   1.475   0.118   0.731 -0.1910 -0.0239  0.0058
 1473SOL    HW2 5937   1.561   0.106   0.771 -0.1616 -0.2784 -0.1293
 1473SOL    HW3 5938   1.474   0.208   0.700 -0.4543  0.3724  1.1554
 1473SOL    MW4 5939   1.486   0.128   0.732 -0.2218 -0.0052  0.1395
 1474SOL     OW 5940   2.986   0.787   2.702 -0.2807 -0.1127 -0.2261
 1474SOL    HW2 5941   2.924   0.855   2.728  0.7515  0.6183  0.3852
 1474SOL    HW3 5942   2.964   0.712   2.756 -0.2229  0.3526  0.4541
 1474SOL    MW4 5943   2.975   0.786   2.713 -0.1369  0.0452 -0.0558
 1475SOL     OW 5944   2.218   2.708   3.212 -0.0005 -0.2282  0.1589
 1475SOL    HW2 5945   2.173   2.683   3.131 -1.1101  2.5281 -0.1265
 1475SOL    HW3 5946   2.310   2.712   3.188 -0.2810  0.1966 -0.8915
 1475SOL    MW4 5947   2.224   2.705   3.198 -0.1841  0.1915 -0.0174
 1476SOL     OW 5948   3.472   3.085   0.316 -0.0724  0.4329 -0.0588
 1476SOL    HW2 5949   3.407   3.151   0.339 -0.3164  0.3496 -0.4963
 1476SOL    HW3 5950   3.539   3.091   0.384  0.6854  2.1848 -0.9218
 1476SOL    MW4 5951   3.473   3.094   0.328 -0.0045  0.6530 -0.2303
 1477SOL     OW 5952   4.168   3.265   3.813  0.2395  0.2634 -0.6319
 1477SOL    HW2 5953   4.154   3.353   3.848  1.5541  1.0346 -1.9617
 1477SOL    HW3 5954   4.219   3.220   3.880  0.9792  1.0484 -0.6688
 1477SOL    MW4 5955   4.173   3.271   3.826  0.5102  0.4687 -0.8121
 1478SOL     OW 5956   2.865   2.560   3.830  0.1088  0.0245 -0.6696
 1478SOL    HW2 5957   2.913   2.637   3.862  0.4419 -0.3465 -0.2722
 1478SOL    HW3 5958   2.927   2.516   3.772 -0.6285  0.9061 -2.1628
 1478SOL    MW4 5959   2.880   2.565   3.827  0.0558  0.0916 -0.8144
 1479SOL     OW 5960   1.414   0.538   2.579  0.7390  0.2568  0.0578
 1479SOL    HW2 5961   1.452   0.538   2.491 -0.2831  2.3643 -0.4199
 1479SOL    HW3 5962   1.359   0.459   2.581  1.1139 -0.0454 -1.0304
 1479SOL    MW4 5963   1.412   0.527   2.567  0.6536  0.4949 -0.1488
 1480SOL     OW 5964   2.938   4.342   3.228 -0.0229  0.0551  0.1205
 1480SOL    HW2 5965   2.938   4.351   3.323 -0.7294  0.4203  0.0881
 1480SOL    HW3 5966   3.002   4.407   3.198 -0.0144  0.1448  0.3298
 1480SOL    MW4 5967   2.947   4.352   3.237 -0.1149  0.1149  0.1440
 1481SOL     OW 5968   3.541   1.607   1.270  0.0867 -0.1232 -0.0635
 1481SOL    HW2 5969   3.551   1.667   1.345  0.4113 -1.1387  0.7124
 1481SOL    HW3 5970   3.627   1.609   1.228 -0.1801  0.6680 -0.5850
 1481SOL    MW4 5971   3.554   1.615   1.275  0.0942 -0.1528 -0.0300
 1482SOL     OW 5972   3.966   4.305   1.554 -0.4252 -0.3592  0.4167
 1482SOL    HW2 5973   3.901   4.355   1.504  0.9209  0.7081 -0.3117
 1482SOL    HW3 5974   3.978   4.224   1.505 -2.6732 -1.4927  1.6366
 1482SOL    MW4 5975   3.959   4.301   1.541 -0.5441 -0.3681  0.4816
 1483SOL     OW 5976   1.431   0.210   0.251 -0.1254  0.2993  0.0371
 1483SOL    HW2 5977   1.511   0.234   0.298  0.6610 -0.5115 -0.8557
 1483SOL    HW3 5978   1.399   0.292   0.214  1.1316  0.3960 -0.8643
 1483SOL    MW4 5979   1.437   0.224   0.252  0.1441  0.2051 -0.1996
 1484SOL     OW 5980   1.429   3.840   1.751  0.3251  0.0160  0.3685
 1484SOL    HW2 5981   1.487   3.893   1.697  0.4137 -0.2214  0.2319
 1484SOL    HW3 5982   1.361   3.810   1.690  0.5935 -0.5040  0.3205
 1484SOL    MW4 5983   1.428   3.843   1.736  0.3722 -0.0839  0.3442
 1485SOL     OW 5984   3.350   3.153   1.087 -0.2628  0.2114  0.0507
 1485SOL    HW2 5985   3.300   3.159   1.168  0.1636  0.0930  0.3227
 1485SOL    HW3 5986   3.287   3.120   1.022  0.0356 -2.0622  0.8840
 1485SOL    MW4 5987   3.335   3.150   1.089 -0.1671 -0.1040  0.1966
 1486SOL     OW 5988   1.881   3.750   2.190 -0.3646  0.7076 -0.0266
 1486SOL    HW2 5989   1.957   3.797   2.157  1.2227 -2.0777 -0.4889
 1486SOL    HW3 5990   1.848   3.702   2.114 -0.8582 -0.3269  0.8268
 1486SOL    MW4 5991   1.887   3.750   2.175 -0.2203  0.2038  0.0250
 1487SOL     OW 5992   0.116   2.359   2.225  0.6963 -0.2465 -0.0947
 1487SOL    HW2 5993   0.190   2.353   2.285  1.1276  2.2168 -0.3131
 1487SOL    HW3 5994   0.039   2.355   2.281  1.0677  0.3227  0.4547
 1487SOL    MW4 5995   0.115   2.358   2.240  0.8022  0.1533 -0.0510
 1488SOL     OW 5996   1.559   3.147   3.249  0.0280 -0.7212  0.0020
 1488SOL    HW2 5997   1.631   3.204   3.220  0.4894 -0.5654  1.3981
 1488SOL    HW3 5998   1.523   3.191   3.326 -2.4915 -0.0998 -1.4798
 1488SOL    MW4 5999   1.564   3.160   3.255 -0.2435 -0.6189 -0.0093
 1489SOL     OW 6000   2.426   0.432   1.472  0.1149  0.3269 -0.0442
 1489SOL    HW2 6001   2.511   0.406   1.507 -0.2175 -0.6222  0.0925
 1489SOL    HW3 6002   2.432   0.415   1.378  0.4253  1.2344 -0.1857
 1489SOL    MW4 6003   2.438   0.426   1.464  0.1121  0.3214 -0.0447
 1490SOL     OW 6004   2.146   0.002   2.884 -0.1679  0.0180 -0.3906
 1490SOL    HW2 6005   2.213   0.059   2.920 -0.4347  0.0921 -0.0052
 1490SOL    HW3 6006   2.111  -0.044   2.961 -1.9509  1.4425 -0.3161
 1490SOL    MW4 6007   2.150   0.003   2.899 -0.4385  0.2158 -0.3300
 1491SOL     OW 6008   2.060   0.715   1.911  0.6416 -0.1007 -0.0855
 1491SOL    HW2 6009   2.148   0.684   1.932  1.2066  0.0969 -2.0712
 1491SOL    HW3 6010   2.002   0.651   1.952  1.7272 -0.9183  0.1978
 1491SOL    MW4 6011   2.064   0.702   1.919  0.8595 -0.1826 -0.3102
 1492SOL     OW 6012   2.628   2.150   1.150 -0.5034 -0.2297 -0.1098
 1492SOL    HW2 6013   2.629   2.218   1.082 -0.2938  0.6579  0.7585
 1492SOL    HW3 6014   2.683   2.080   1.116 -0.3727  0.2257 -0.8358
 1492SOL    MW4 6015   2.635   2.150   1.137 -0.4585 -0.0522 -0.0911
 1493SOL     OW 6016   2.937   1.011   3.845  0.4386  0.1672  0.3581
 1493SOL    HW2 6017   2.911   1.080   3.907  1.4124  0.1965  0.7318
 1493SOL    HW3 6018   2.969   1.058   3.769  0.8393  0.1317  0.5031
 1493SOL    MW4 6019   2.937   1.027   3.843  0.6201  0.1663  0.4265
 1494SOL     OW 6020   1.398   1.931   1.483  0.0196 -0.1646 -0.4506
 1494SOL    HW2 6021   1.405   1.836   1.478 -0.4796 -0.3086  1.1377
 1494SOL    HW3 6022   1.479   1.963   1.443  1.4203 -1.3398  1.3512
 1494SOL    MW4 6023   1.410   1.923   1.477  0.1388 -0.3386 -0.0032
 1495SOL     OW 6024   0.871   3.296   2.497 -0.8258  0.6185 -0.0477
 1495SOL    HW2 6025   0.892   3.267   2.408 -0.3769  0.3236  0.1493
 1495SOL    HW3 6026   0.820   3.224   2.534  0.0212  0.2007  0.3367
 1495SOL    MW4 6027   0.867   3.283   2.490 -0.6548  0.5243  0.0286
 1496SOL     OW 6028   4.301   3.978   0.481 -0.1476 -0.5508 -0.6194
 1496SOL    HW2 6029   4.277   4.022   0.563  1.6377  0.6680 -0.7038
 1496SOL    HW3 6030   4.220   3.938   0.450 -0.8674 -0.9547  1.6941
 1496SOL    MW4 6031   4.287   3.979   0.488 -0.0067 -0.4432 -0.3253
 1497SOL     OW 6032   1.753   3.314   3.127 -0.1370 -0.0423  0.6137
 1497SOL    HW2 6033   1.733   3.406   3.146 -0.7208  0.0144 -0.2715
 1497SOL    HW3 6034   1.791   3.315   3.040  0.2979 -0.5863  0.8004
 1497SOL    MW4 6035   1.755   3.326   3.118 -0.1568 -0.1066  0.5219
 1498SOL     OW 6036   3.776   4.422   4.097  0.1110  0.3054  0.9282
 1498SOL    HW2 6037   3.828   4.342   4.085  1.0624  1.2208 -1.1693
 1498SOL    HW3 6038   3.840   4.491   4.113 -0.7171  0.6625  2.7953
 1498SOL    MW4 6039   3.791   4.420   4.097  0.1271  0.4735  0.8974
 1499SOL     OW 6040   0.406   0.250   2.640  0.5443 -0.3503  0.4290
 1499SOL    HW2 6041   0.500   0.244   2.659  0.4432  0.3501  1.1500
 1499SOL    HW3 6042   0.366   0.186   2.699  0.5536 -0.5859  0.1832
 1499SOL    MW4 6043   0.413   0.241   2.650  0.5322 -0.2890  0.4919
 1500SOL     OW 6044   3.935   3.268   2.301  0.1301 -0.7058 -0.1633
 1500SOL    HW2 6045   3.901   3.224   2.223 -0.3719 -0.5067 -0.0563
 1500SOL    HW3 6046   3.894   3.354   2.300 -0.1273 -0.8154  0.4948
 1500SOL    MW4 6047   3.925   3.274   2.290  0.0298 -0.6940 -0.0627
 1501SOL     OW 6048   3.958   3.481   3.058 -0.0091 -0.4162 -0.2375
 1501SOL    HW2 6049   4.021   3.439   3.118 -0.3851  0.4305  0.7674
 1501SOL    HW3 6050   4.000   3.563   3.034 -0.9531  0.3863  0.8373
 1501SOL    MW4 6051   3.972   3.486   3.063 -0.1831 -0.1986  0.0367
 1502SOL     OW 6052   2.591   4.030   0.578 -0.3023 -0.0580  0.2931
 1502SOL    HW2 6053   2.508   4.072   0.556 -0.8749 -1.4494 -0.2254
 1502SOL    HW3 6054   2.572   3.936   0.579  1.3242 -0.4126 -0.0939
 1502SOL    MW4 6055   2.577   4.023   0.575 -0.1631 -0.2880  0.1736
 1503SOL     OW 6056   4.270   0.509   4.239 -0.7367 -0.3461  0.0664
 1503SOL    HW2 6057   4.305   0.595   4.261  1.2468 -0.8649 -0.8854
 1503SOL    HW3 6058   4.346   0.460   4.208 -1.8975 -2.3385  0.2867
 1503SOL    MW4 6059   4.285   0.514   4.237 -0.6280 -0.6774 -0.0300
 1504SOL     OW 6060   4.226   2.658   3.456  0.5306  0.1016 -0.3530
 1504SOL    HW2 6061   4.258   2.738   3.416 -1.6723  1.3369  0.2352
 1504SOL    HW3 6062   4.136   2.650   3.424  0.5091 -1.7697  0.1140
 1504SOL    MW4 6063   4.218   2.667   3.447  0.2370  0.0176 -0.2136
 1505SOL     OW 6064   4.000   1.379   1.323  0.1592  0.3153 -0.3158
 1505SOL    HW2 6065   4.031   1.445   1.261 -0.4171  0.3800 -0.5366
 1505SOL    HW3 6066   3.905   1.379   1.313 -0.0340  1.0591  1.2966
 1505SOL    MW4 6067   3.991   1.388   1.314  0.0575  0.4220 -0.1322
 1506SOL     OW 6068   1.868   3.067   0.893  0.3743  0.0420  0.2355
 1506SOL    HW2 6069   1.908   2.999   0.839 -1.3195 -0.6356 -0.1852
 1506SOL    HW3 6070   1.891   3.149   0.849 -1.0270 -0.5036 -1.5807
 1506SOL    MW4 6071   1.876   3.069   0.880 -0.0340 -0.1194 -0.0597
 1507SOL     OW 6072   2.244   1.567   2.302 -0.0376 -0.1938  0.4845
 1507SOL    HW2 6073   2.299   1.635   2.340 -0.7910  0.6817  0.0446
 1507SOL    HW3 6074   2.300   1.524   2.238  0.1654  0.6577  0.0737
 1507SOL    MW4 6075   2.259   1.570   2.298 -0.1101  0.0341  0.3724
 1508SOL     OW 6076   2.924   2.012   1.499  0.1177  0.1503 -0.1722
 1508SOL    HW2 6077   2.922   2.068   1.422  1.3921  0.8005  0.2610
 1508SOL    HW3 6078   2.831   1.998   1.521 -0.2079  2.0700 -0.2716
 1508SOL    MW4 6079   2.911   2.017   1.491  0.2432  0.4895 -0.1284
 1509SOL     OW 6080   1.148   3.096   2.138  0.0000  0.0000 -0.2021
 1509SOL    HW2 6081   1.122   3.007   2.161  0.0000  0.0000 -0.1927
 1509SOL    HW3 6082   1.136   3.101   2.043  0.0000  0.0000 -0.2023
 1509SOL    MW4 6083   1.143   3.085   2.129  0.0000  0.0000 -0.2010
 1510SOL     OW 6084   0.919   3.208   2.233  0.0000  0.0000 -0.0512
 1510SOL    HW2 6085   0.903   3.287   2.181  0.0000  0.0000 -0.0605
 1510SOL    HW3 6086   1.006   3.179   2.206  0.0000  0.0000 -0.0305
 1510SOL    MW4 6087   0.928   3.215   2.223  0.0000  0.0000 -0.0496
 1511SOL     OW 6088   0.887   3.462   2.119  0.0000  0.0000 -0.0258
 1511SOL    HW2 6089   0.961   3.509   2.159  0.0000  0.0000 -0.0459
 1511SOL    HW3 6090   0.810   3.512   2.147  0.0000  0.0000  0.0223
 1511SOL    MW4 6091   0.887   3.475   2.128  0.0000  0.0000 -0.0219
 1512SOL     OW 6092   1.102   3.599   2.203  0.0000  0.0000 -0.1996
 1512SOL    HW2 6093   1.101   3.626   2.295  0.0000  0.0000 -0.1977
 1512SOL    HW3 6094   1.100   3.681   2.155  0.0000  0.0000 -0.1940
 1512SOL    MW4 6095   1.102   3.613   2.209  0.0000  0.0000 -0.1986
 1513SOL     OW 6096   1.098   3.851   2.092  0.0000  0.0000  0.1187
 1513SOL    HW2 6097   1.178   3.889   2.130  0.0000  0.0000  0.1231
 1513SOL    HW3 6098   1.110   3.859   1.998  0.0000  0.0000  0.1192
 1513SOL    MW4 6099   1.110   3.857   2.085  0.0000  0.0000  0.1190
 1514SOL     OW 6100   0.893   4.008   2.207  0.0000  0.0000  0.2145
 1514SOL    HW2 6101   0.957   3.963   2.152  0.0000  0.0000  0.2181
 1514SOL    HW3 6102   0.809   3.969   2.181  0.0000  0.0000  0.2170
 1514SOL    MW4 6103   0.890   3.997   2.196  0.0000  0.0000  0.2155
 1515SOL     OW 6104   0.888   4.266   2.138  0.0000  0.0000  0.4607
 1515SOL    HW2 6105   0.892   4.173   2.162  0.0000  0.0000  0.4650
 1515SOL    HW3 6106   0.884   4.265   2.042  0.0000  0.0000  0.4610
 1515SOL    MW4 6107   0.888   4.254   2.128  0.0000  0.0000  0.4616
 1516SOL     OW 6108   1.144   4.351   2.204  0.0000  0.0000 -0.1401
 1516SOL    HW2 6109   1.137   4.378   2.296  0.0000  0.0000 -0.1402
 1516SOL    HW3 6110   1.055   4.327   2.179  0.0000  0.0000 -0.1257
 1516SOL    MW4 6111   1.131   4.351   2.213  0.0000  0.0000 -0.1380
 1517SOL     OW 6112   1.593   4.643   1.522  0.0000  0.0000 -0.1518
 1517SOL    HW2 6113   1.588   4.549   1.538  0.0000  0.0000 -0.1291
 1517SOL    HW3 6114   1.581   4.652   1.427  0.0000  0.0000 -0.1536
 1517SOL    MW4 6115   1.591   4.632   1.511  0.0000  0.0000 -0.1490
 1518SOL     OW 6116   1.177   1.178   4.248 -0.3566 -0.2673 -0.0524
 1518SOL    HW2 6117   1.191   1.271   4.230  0.1955 -0.2902  0.2659
 1518SOL    HW3 6118   1.255   1.150   4.296 -0.9710 -0.6574  0.7223
 1518SOL    MW4 6119   1.189   1.187   4.252 -0.3647 -0.3220  0.0920
 1519SOL     OW 6120   3.732   0.796   3.137  0.2646  0.2444 -0.2030
 1519SOL    HW2 6121   3.828   0.790   3.130  0.2995  0.8932 -0.3072
 1519SOL    HW3 6122   3.709   0.728   3.201  1.0192  1.5844  1.5240
 1519SOL    MW4 6123   3.742   0.786   3.145  0.3686  0.5068  0.0112
 1520SOL     OW 6124   3.828   1.797   3.673  0.5161  0.1645  0.0682
 1520SOL    HW2 6125   3.810   1.841   3.590  0.1131 -0.1094  0.0118
 1520SOL    HW3 6126   3.846   1.707   3.649 -0.9629 -0.2350  0.4078
 1520SOL    MW4 6127   3.828   1.791   3.659  0.2680  0.0757  0.1056
 1521SOL     OW 6128   2.240   3.172   2.016 -0.9117  0.0807  0.0795
 1521SOL    HW2 6129   2.206   3.256   2.046  0.2196  0.8400 -0.7591
 1521SOL    HW3 6130   2.162   3.127   1.981 -1.7345  0.2781  1.6335
 1521SOL    MW4 6131   2.225   3.177   2.015 -0.8712  0.2072  0.1738
 1522SOL     OW 6132   2.138   3.964   2.495 -0.2233  0.6854 -0.2901
 1522SOL    HW2 6133   2.050   3.998   2.511  0.0960  1.1883  0.4362
 1522SOL    HW3 6134   2.140   3.881   2.543 -0.5116  0.3510 -0.8452
 1522SOL    MW4 6135   2.126   3.958   2.503 -0.2196  0.7074 -0.2675
 1523SOL     OW 6136   2.389   3.014   2.471  0.5002  0.0413 -0.1196
 1523SOL    HW2 6137   2.393   3.059   2.387 -0.3109 -0.0059 -0.1861
 1523SOL    HW3 6138   2.297   2.993   2.483  0.5424  0.4409  0.9843
 1523SOL    MW4 6139   2.378   3.018   2.462  0.3986  0.0877  0.0172
 1524SOL     OW 6140   0.315   2.363   2.727  0.3947  0.0832 -0.1326
 1524SOL    HW2 6141   0.308   2.459   2.725  0.2846  0.1167  1.2277
 1524SOL    HW3 6142   0.398   2.347   2.773  0.0494 -0.4753  0.3012
 1524SOL    MW4 6143   0.325   2.374   2.733  0.3346  0.0138  0.1042
 1525SOL     OW 6144   0.532   2.910   1.339 -0.2127  0.4428  0.0226
 1525SOL    HW2 6145   0.616   2.922   1.384  0.1848 -0.6200 -0.4145
 1525SOL    HW3 6146   0.542   2.959   1.258  0.3824 -0.5217 -0.5019
 1525SOL    MW4 6147   0.545   2.918   1.334 -0.0817  0.1752 -0.1043
 1526SOL     OW 6148   4.260   3.183   1.624 -0.6894 -0.1428  0.0657
 1526SOL    HW2 6149   4.241   3.252   1.686 -1.0604  0.8859 -1.1609
 1526SOL    HW3 6150   4.353   3.162   1.638 -1.1877 -1.1126  2.0934
 1526SOL    MW4 6151   4.270   3.189   1.634 -0.8044 -0.1349  0.1714
 1527SOL     OW 6152   0.239   1.576   2.902  0.0969 -0.4564  0.1742
 1527SOL    HW2 6153   0.267   1.564   2.993 -1.3390  0.4155  0.7378
 1527SOL    HW3 6154   0.186   1.656   2.903 -2.2409 -1.9422 -0.9030
 1527SOL    MW4 6155   0.236   1.585   2.914 -0.4010 -0.5374  0.1063
 1528SOL     OW 6156   3.935   0.963   0.894 -0.1080  0.0512 -0.6550
 1528SOL    HW2 6157   3.994   0.975   0.819 -0.3611 -0.8969 -1.0084
 1528SOL    HW3 6158   3.971   1.021   0.961  0.4548  0.4852 -1.3162
 1528SOL    MW4 6159   3.948   0.972   0.893 -0.0670 -0.0166 -0.7889
 1529SOL     OW 6160   0.785   1.354   0.752  0.1466  0.1920  0.0088
 1529SOL    HW2 6161   0.856   1.397   0.705  0.8004 -0.7999  0.0777
 1529SOL    HW3 6162   0.822   1.270   0.780 -0.8771 -0.0956  0.5218
 1529SOL    MW4 6163   0.799   1.348   0.749  0.0978  0.0231  0.0856
 1530SOL     OW 6164   4.150   2.409   0.476  0.4104  0.3369  0.1555
 1530SOL    HW2 6165   4.225   2.361   0.441  0.3220  0.4248 -0.1539
 1530SOL    HW3 6166   4.104   2.441   0.398  0.1963  0.5020  0.3518
 1530SOL    MW4 6167   4.154   2.407   0.461  0.3705  0.3705  0.1406
 1531SOL     OW 6168   3.652   0.816   2.022 -0.1214 -0.3992 -0.3078
 1531SOL    HW2 6169   3.612   0.739   1.983 -0.7992 -0.8398  1.2333
 1531SOL    HW3 6170   3.590   0.844   2.089  0.1442  1.4508 -0.7913
 1531SOL    MW4 6171   3.639   0.810   2.025 -0.1757 -0.2132 -0.1683
 1532SOL     OW 6172   3.699   0.942   1.707  0.1326 -0.5810 -0.0609
 1532SOL    HW2 6173   3.773   0.884   1.689 -0.4461 -2.2148  2.5846
 1532SOL    HW3 6174   3.632   0.916   1.644  1.3884  0.1525 -1.7247
 1532SOL    MW4 6175   3.700   0.931   1.696  0.2222 -0.6998  0.0684
 1533SOL     OW 6176   1.948   4.107   1.458 -0.2358  0.6184 -0.3437
 1533SOL    HW2 6177   1.948   4.189   1.407 -0.1343 -0.4549 -2.1238
 1533SOL    HW3 6178   1.888   4.050   1.411  0.6831 -0.7701  0.1386
 1533SOL    MW4 6179   1.940   4.110   1.445 -0.1012  0.2942 -0.5150
 1534SOL     OW 6180   4.250   1.589   2.154 -0.7022  0.0154  0.6289
 1534SOL    HW2 6181   4.284   1.599   2.065 -0.8115  0.2332  0.6102
 1534SOL    HW3 6182   4.280   1.503   2.182 -0.2799  0.1356  0.5497
 1534SOL    MW4 6183   4.258   1.579   2.146 -0.6614  0.0600  0.6161
 1535SOL     OW 6184   1.637   2.533   0.591  0.1717  0.1412 -0.0445
 1535SOL    HW2 6185   1.698   2.486   0.534 -1.8628 -1.5290 -0.9050
 1535SOL    HW3 6186   1.582   2.584   0.531 -0.3588  0.3451  0.6075
 1535SOL    MW4 6187   1.638   2.534   0.576 -0.1667 -0.0525 -0.0721
 1536SOL     OW 6188   0.143   4.132   3.384  0.5079  0.3716 -0.3901
 1536SOL    HW2 6189   0.137   4.043   3.421 -0.1108  0.1579 -0.9802
 1536SOL    HW3 6190   0.095   4.126   3.302  1.1396  1.0645 -0.8094
 1536SOL    MW4 6191   0.136   4.119   3.378  0.5096  0.4349 -0.5233
 1537SOL     OW 6192   3.164   2.371   1.171 -0.1856 -0.4608  0.1932
 1537SOL    HW2 6193   3.257   2.372   1.148 -0.3365  0.0524 -0.3856
 1537SOL    HW3 6194   3.153   2.445   1.231 -0.4083  0.0164 -0.4431
 1537SOL    MW4 6195   3.175   2.381   1.176 -0.2351 -0.3300  0.0329
 1538SOL     OW 6196   4.289   1.386   3.855 -0.2320  0.5790 -0.3365
 1538SOL    HW2 6197   4.268   1.448   3.925 -0.5007  0.4403 -0.2946
 1538SOL    HW3 6198   4.218   1.398   3.791  0.4116  1.2462 -0.9384
 1538SOL    MW4 6199   4.277   1.396   3.856 -0.1822  0.6487 -0.4101
 1539SOL     OW 6200   0.474   0.376   2.936  0.3094 -0.1021  0.2492
 1539SOL    HW2 6201   0.456   0.436   2.864 -0.0581  0.8065  1.0902
 1539SOL    HW3 6202   0.539   0.421   2.989  0.5096 -0.7286  0.5475
 1539SOL    MW4 6203   0.481   0.389   2.933  0.2873 -0.0649  0.3994
 1540SOL     OW 6204   4.414   0.092   1.452 -0.7642  0.2921 -0.2760
 1540SOL    HW2 6205   4.349   0.105   1.521  1.4578  1.3026  1.6989
 1540SOL    HW3 6206   4.369   0.116   1.371 -2.4342  2.3280  1.2064
 1540SOL    MW4 6207   4.400   0.097   1.450 -0.6914  0.6940  0.1801
 1541SOL     OW 6208   2.105   1.005   1.591 -0.4085  0.4117  0.0708
 1541SOL    HW2 6209   2.096   1.068   1.663 -1.3938 -0.1960  0.5030
 1541SOL    HW3 6210   2.027   1.020   1.537 -0.6179 -0.3814  0.1415
 1541SOL    MW4 6211   2.093   1.015   1.594 -0.5660  0.2267  0.1372
 1542SOL     OW 6212   3.651   2.359   0.465  0.4307 -0.0065 -0.2836
 1542SOL    HW2 6213   3.712   2.407   0.521  0.4212 -0.8142  0.4242
 1542SOL    HW3 6214   3.657   2.403   0.380 -0.6830  2.1863  0.7306
 1542SOL    MW4 6215   3.660   2.372   0.461  0.2828  0.1762 -0.0564
 1543SOL     OW 6216   0.095   1.993   2.770 -0.1594  0.0378 -0.0740
 1543SOL    HW2 6217   0.080   1.930   2.840  0.7734  0.0517  0.1442
 1543SOL    HW3 6218   0.161   1.951   2.714 -0.0886  0.4970 -0.3342
 1543SOL    MW4 6219   0.102   1.979   2.771 -0.0270  0.1003 -0.0796
 1544SOL     OW 6220   4.378   4.433   0.177  0.4373 -0.2610 -0.0133
 1544SOL    HW2 6221   4.408   4.517   0.144  0.6420  0.2853  1.5308
 1544SOL    HW3 6222   4.284   4.446   0.195  0.4792 -0.3339  0.2703
 1544SOL    MW4 6223   4.369   4.446   0.175  0.4697 -0.1984  0.2278
 1545SOL     OW 6224   1.471   4.471   0.522  0.6628 -0.4203  0.0837
 1545SOL    HW2 6225   1.477   4.395   0.464  2.0080 -1.1040  1.0895
 1545SOL    HW3 6226   1.538   4.531   0.490 -0.8880  0.6856 -1.1638
 1545SOL    MW4 6227   1.480   4.469   0.510  0.6356 -0.3643  0.0519
 1546SOL     OW 6228   2.826   4.325   1.787  0.1692  0.0394 -0.0746
 1546SOL    HW2 6229   2.886   4.370   1.727  0.8575 -1.5089 -0.5591
 1546SOL    HW3 6230   2.746   4.314   1.737 -0.0372  0.8090  0.0802
 1546SOL    MW4 6231   2.824   4.330   1.772  0.2327 -0.0629 -0.1181
 1547SOL     OW 6232   1.255   0.452   0.196 -0.3805 -0.3171  0.1247
 1547SOL    HW2 6233   1.174   0.421   0.156  0.3294 -0.3518 -1.3424
 1547SOL    HW3 6234   1.248   0.548   0.193 -0.1126 -0.3127 -0.5810
 1547SOL    MW4 6235   1.244   0.461   0.190 -0.2515 -0.3211 -0.1620
 1548SOL     OW 6236   2.915   2.769   3.235  0.4583 -0.9364 -0.1304
 1548SOL    HW2 6237   2.897   2.783   3.142 -1.3979  0.7916  0.4636
 1548SOL    HW3 6238   2.968   2.845   3.261 -0.1351 -0.7305  0.5099
 1548SOL    MW4 6239   2.920   2.781   3.226  0.1352 -0.6814  0.0322
 1549SOL     OW 6240   0.238   4.259   0.197 -0.3229 -0.2066  0.0935
 1549SOL    HW2 6241   0.166   4.206   0.232 -0.4181 -0.0071  0.2034
 1549SOL    HW3 6242   0.317   4.214   0.224 -0.3986 -0.1199  0.4639
 1549SOL    MW4 6243   0.239   4.246   0.205 -0.3454 -0.1688  0.1569
 1550SOL     OW 6244   4.056   3.155   1.171  0.8255  0.4514 -0.7563
 1550SOL    HW2 6245   4.138   3.194   1.141  1.0113  0.4887 -0.2191
 1550SOL    HW3 6246   4.061   3.161   1.267 -0.4746  1.8350 -0.7574
 1550SOL    MW4 6247   4.068   3.161   1.180  0.6781  0.6387 -0.6856
 1551SOL     OW 6248   0.505   1.830   1.369  0.3561 -0.1215  0.1895
 1551SOL    HW2 6249   0.482   1.856   1.458 -1.4933 -1.3801  0.1263
 1551SOL    HW3 6250   0.524   1.912   1.323  1.8457  0.4910  1.8627
 1551SOL    MW4 6251   0.504   1.844   1.375  0.3086 -0.2067  0.4019
 1552SOL     OW 6252   1.421   3.037   2.560  0.0039  0.2193 -0.1635
 1552SOL    HW2 6253   1.431   3.085   2.642 -0.7633 -0.3532  0.2727
 1552SOL    HW3 6254   1.427   2.945   2.586  0.1562  0.0488 -0.8043
 1552SOL    MW4 6255   1.423   3.031   2.574 -0.0772  0.1211 -0.1905
 1553SOL     OW 6256   1.171   3.121   4.035 -0.3957  0.4831 -0.2071
 1553SOL    HW2 6257   1.180   3.215   4.045 -1.5608  0.6313 -0.4488
 1553SOL    HW3 6258   1.107   3.095   4.101  0.2662 -0.2120  0.1712
 1553SOL    MW4 6259   1.164   3.130   4.045 -0.4621  0.4108 -0.1888
 1554SOL     OW 6260   2.310   3.164   4.084  0.0113 -0.3791 -0.6401
 1554SOL    HW2 6261   2.360   3.232   4.039 -0.4584  0.9089  0.7563
 1554SOL    HW3 6262   2.373   3.093   4.097  1.4800  1.1564  0.9419
 1554SOL    MW4 6263   2.325   3.164   4.080  0.1431 -0.0067 -0.2475
 1555SOL     OW 6264   2.126   0.282   1.288 -0.5598  0.3316 -0.2797
 1555SOL    HW2 6265   2.123   0.366   1.335  1.6836 -0.0778  0.6208
 1555SOL    HW3 6266   2.189   0.297   1.218 -0.4715 -0.4940 -0.3718
 1555SOL    MW4 6267   2.134   0.295   1.285 -0.2520  0.1686 -0.1730
 1556SOL     OW 6268   1.275   0.720   3.329  0.1436 -0.3314  0.0515
 1556SOL    HW2 6269   1.318   0.768   3.258 -0.8274  1.1743  0.4624
 1556SOL    HW3 6270   1.345   0.705   3.393  0.8409 -1.0010 -0.8520
 1556SOL    MW4 6271   1.290   0.724   3.328  0.1075 -0.2210 -0.0136
 1557SOL     OW 6272   3.476   1.247   0.655  0.1135  0.0104  0.2273
 1557SOL    HW2 6273   3.476   1.151   0.657  1.3669  0.0073  1.0245
 1557SOL    HW3 6274   3.487   1.273   0.746  1.0589  0.8826 -0.1193
 1557SOL    MW4 6275   3.478   1.237   0.667  0.4034  0.1251  0.2868
 1558SOL     OW 6276   2.038   2.933   0.711  0.2271  0.2192  0.0681
 1558SOL    HW2 6277   2.079   2.979   0.638 -0.1021  2.6401  1.3632
 1558SOL    HW3 6278   2.104   2.868   0.737  0.6089 -0.2418 -1.9355
 1558SOL    MW4 6279   2.052   2.930   0.705  0.2344  0.4778 -0.0253
 1559SOL     OW 6280   4.042   2.506   0.244  0.2444  0.7406 -0.4203
 1559SOL    HW2 6281   3.987   2.581   0.263 -0.1167  0.2584  0.4898
 1559SOL    HW3 6282   4.126   2.544   0.216  0.3457  1.4888  0.8554
 1559SOL    MW4 6283   4.046   2.521   0.243  0.2098  0.7756 -0.1319
 1560SOL     OW 6284   3.184   0.437   0.988  0.5579  0.2501 -0.1460
 1560SOL    HW2 6285   3.113   0.501   0.994  0.2357  0.0157 -1.2322
 1560SOL    HW3 6286   3.251   0.468   1.048 -0.2118  0.8134  0.4241
 1560SOL    MW4 6287   3.183   0.449   0.997  0.4137  0.2935 -0.2140
 1561SOL     OW 6288   0.132   0.578   3.725 -0.4826  0.1826  0.0688
 1561SOL    HW2 6289   0.125   0.659   3.675 -2.1370 -0.2096 -0.3707
 1561SOL    HW3 6290   0.079   0.515   3.676  0.6718 -1.1402  0.4669
 1561SOL    MW4 6291   0.124   0.580   3.712 -0.5485 -0.0436  0.0634
 1562SOL     OW 6292   4.450   2.253   3.096 -0.0484  0.4339 -0.1333
 1562SOL    HW2 6293   4.393   2.176   3.088  1.2219 -0.5532  0.2087
 1562SOL    HW3 6294   4.485   2.267   3.008 -1.1220  1.2817 -0.4299
 1562SOL    MW4 6295   4.447   2.244   3.084 -0.0219  0.4156 -0.1273
 1563SOL     OW 6296   3.332   3.317   3.904 -0.1013 -0.1095 -0.3881
 1563SOL    HW2 6297   3.406   3.375   3.920 -1.0962  0.9996  0.2797
 1563SOL    HW3 6298   3.305   3.288   3.991  0.7204 -2.0135 -0.7533
 1563SOL    MW4 6299   3.338   3.321   3.918 -0.1237 -0.2143 -0.3483
 1564SOL     OW 6300   4.131   1.736   3.770 -0.6257 -0.1070  0.0182
 1564SOL    HW2 6301   4.066   1.794   3.809 -0.8219  0.3725 -1.0218
 1564SOL    HW3 6302   4.156   1.779   3.688  1.6227  0.1348  0.8007
 1564SOL    MW4 6303   4.126   1.749   3.765 -0.3548 -0.0119 -0.0157
 1565SOL     OW 6304   2.128   3.313   3.178  0.0216  0.0119 -0.6055
 1565SOL    HW2 6305   2.061   3.280   3.238  0.8499 -0.8682 -0.1456
 1565SOL    HW3 6306   2.091   3.299   3.091 -1.2474  1.4236 -0.3126
 1565SOL    MW4 6307   2.114   3.307   3.175 -0.0365  0.0820 -0.5062
 1566SOL     OW 6308   0.896   3.964   3.030  0.2284 -0.4719 -0.3228
 1566SOL    HW2 6309   0.938   3.892   3.078 -0.1756 -0.9432 -0.6664
 1566SOL    HW3 6310   0.824   3.922   2.984  0.5722 -0.0045 -1.2831
 1566SOL    MW4 6311   0.892   3.949   3.031  0.2205 -0.4723 -0.4947
 1567SOL     OW 6312   2.422   0.059   2.978 -0.2600 -0.1460  0.1911
 1567SOL    HW2 6313   2.429   0.146   3.017 -1.4055  0.1561 -0.2873
 1567SOL    HW3 6314   2.444  -0.001   3.049  1.6877  0.5659  0.2240
 1567SOL    MW4 6315   2.426   0.063   2.992 -0.1540 -0.0122  0.1323
 1568SOL     OW 6316   1.001   3.498   2.614  0.0367 -0.2216  0.0973
 1568SOL    HW2 6317   1.089   3.466   2.635  0.2063  0.3219  0.2221
 1568SOL    HW3 6318   0.956   3.422   2.579 -0.1083 -1.0352  2.0204
 1568SOL    MW4 6319   1.007   3.484   2.612  0.0402 -0.2573  0.3674
 1569SOL     OW 6320   2.566   3.389   2.513  0.0330 -0.4366  0.0351
 1569SOL    HW2 6321   2.643   3.351   2.554 -0.5189 -2.2046 -0.4947
 1569SOL    HW3 6322   2.494   3.369   2.573  0.0886  1.8629  0.8916
 1569SOL    MW4 6323   2.567   3.381   2.526 -0.0327 -0.3664  0.0782
 1570SOL     OW 6324   0.598   0.191   0.308  0.4222  0.2408  0.2883
 1570SOL    HW2 6325   0.662   0.262   0.308 -0.9220  1.4997  1.5127
 1570SOL    HW3 6326   0.603   0.155   0.397 -0.4275  0.2277  0.3335
 1570SOL    MW4 6327   0.607   0.196   0.320  0.1329  0.4051  0.4558
 1571SOL     OW 6328   0.949   0.122   0.802 -0.2286  0.5104 -0.2350
 1571SOL    HW2 6329   1.040   0.145   0.816  0.1090 -0.0801 -1.3544
 1571SOL    HW3 6330   0.937   0.126   0.707 -2.3671  4.2240  0.1036
 1571SOL    MW4 6331   0.959   0.125   0.791 -0.4662  0.9224 -0.3380
 1572SOL     OW 6332   4.465   3.833   1.381 -0.2556  0.4504  0.1634
 1572SOL    HW2 6333   4.519   3.885   1.322  0.1337  0.3844  0.4559
 1572SOL    HW3 6334   4.389   3.808   1.329  0.2352  0.1241 -0.4061
 1572SOL    MW4 6335   4.462   3.837   1.366 -0.1392  0.3986  0.1270
 1573SOL     OW 6336   2.351   1.696   3.104  0.2858 -0.0919 -0.1571
 1573SOL    HW2 6337   2.358   1.642   3.025  0.6246  0.7664 -0.7183
 1573SOL    HW3 6338   2.433   1.745   3.106  0.5775 -0.6026  1.1026
 1573SOL    MW4 6339   2.363   1.695   3.094  0.3688 -0.0461 -0.0648
 1574SOL     OW 6340   4.056   1.616   2.659  0.4592 -0.3097  0.2317
 1574SOL    HW2 6341   4.045   1.547   2.595 -0.3034 -0.0467  0.0765
 1574SOL    HW3 6342   4.042   1.573   2.744 -0.9504 -0.1502  0.0817
 1574SOL    MW4 6343   4.053   1.602   2.662  0.1726 -0.2540  0.1917
 1575SOL     OW 6344   4.339   2.032   0.190 -0.4056 -0.2320 -0.3003
 1575SOL    HW2 6345   4.250   1.998   0.183 -0.4988  0.0301 -0.4137
 1575SOL    HW3 6346   4.360   2.063   0.102 -0.2192 -0.2463 -0.2624
 1575SOL    MW4 6347   4.330   2.032   0.178 -0.3929 -0.1993 -0.3103
 1576SOL     OW 6348   2.960   0.525   2.390  0.3529  0.4799 -0.0141
 1576SOL    HW2 6349   2.903   0.457   2.425  0.9880  0.0630  0.2345
 1576SOL    HW3 6350   2.920   0.608   2.417  0.5858  0.1678  1.3085
 1576SOL    MW4 6351   2.947   0.527   2.398  0.4673  0.3837  0.1931
 1577SOL     OW 6352   1.708   3.486   3.487 -0.0172 -0.2029 -0.0790
 1577SOL    HW2 6353   1.677   3.537   3.562  3.3512  1.7118  0.1079
 1577SOL    HW3 6354   1.646   3.506   3.417 -1.7441  0.0022  1.4907
 1577SOL    MW4 6355   1.696   3.496   3.488  0.1993  0.0765  0.1531
 1578SOL     OW 6356   0.955   2.021   1.812  0.0046  0.6262  0.0286
 1578SOL    HW2 6357   0.957   2.012   1.907 -1.3402 -0.9222 -0.0609
 1578SOL    HW3 6358   1.008   1.949   1.779 -1.0150  0.0620 -0.4219
 1578SOL    MW4 6359   0.962   2.010   1.820 -0.3073  0.3476 -0.0428
 1579SOL     OW 6360   0.599   2.089   3.710 -0.3743  0.2776  0.2397
 1579SOL    HW2 6361   0.508   2.065   3.726 -0.1318  0.0065  1.2306
 1579SOL    HW3 6362   0.646   2.059   3.787  0.4192  1.2395  0.1429
 1579SOL    MW4 6363   0.593   2.082   3.722 -0.2376  0.3688  0.3576
 1580SOL     OW 6364   1.391   3.551   3.357 -0.7298 -0.1397 -0.2844
 1580SOL    HW2 6365   1.333   3.627   3.358  0.1343  0.5468 -1.3864
 1580SOL    HW3 6366   1.383   3.516   3.268  1.4088  0.6543 -0.8288
 1580SOL    MW4 6367   1.382   3.556   3.345 -0.3339  0.0556 -0.5019
 1581SOL     OW 6368   2.502   4.396   3.728 -0.1945 -0.0995  0.2689
 1581SOL    HW2 6369   2.534   4.310   3.698 -0.3378  0.6208 -2.0356
 1581SOL    HW3 6370   2.559   4.459   3.685 -2.3785  1.0849 -0.9433
 1581SOL    MW4 6371   2.514   4.393   3.718 -0.5014  0.1516 -0.1950
 1582SOL     OW 6372   0.419   4.595   1.991  0.3697  0.0717  0.2612
 1582SOL    HW2 6373   0.385   4.512   2.023  1.5960 -0.0214  1.3813
 1582SOL    HW3 6374   0.514   4.584   1.990  0.4641  0.9166 -1.1172
 1582SOL    MW4 6375   0.427   4.583   1.995  0.5440  0.1707  0.2272
 1583SOL     OW 6376   3.601   3.014   2.996  0.0575 -0.1003  0.1212
 1583SOL    HW2 6377   3.671   3.043   3.054 -0.4967  0.9850  0.2751
 1583SOL    HW3 6378   3.543   3.090   2.989 -1.1401 -0.9972  0.0564
 1583SOL    MW4 6379   3.602   3.028   3.003 -0.1738 -0.0751  0.1328
 1584SOL     OW 6380   3.527   2.098   0.423 -0.3554 -0.0600  0.0669
 1584SOL    HW2 6381   3.508   2.084   0.330 -3.1222  0.9522  0.4215
 1584SOL    HW3 6382   3.566   2.185   0.427 -0.6039  0.0598 -0.1066
 1584SOL    MW4 6383   3.529   2.107   0.412 -0.7529  0.0894  0.0908
 1585SOL     OW 6384   1.878   3.436   1.351  0.3733 -0.0693  0.1179
 1585SOL    HW2 6385   1.902   3.528   1.339 -1.1645  0.0733 -2.2088
 1585SOL    HW3 6386   1.949   3.387   1.310 -0.0655  0.1794 -0.9668
 1585SOL    MW4 6387   1.890   3.442   1.344  0.1125 -0.0174 -0.3322
 1586SOL     OW 6388   3.776   1.510   3.570 -0.5930  0.3774  0.0552
 1586SOL    HW2 6389   3.764   1.532   3.477 -0.8087  0.9885  0.2279
 1586SOL    HW3 6390   3.688   1.516   3.608 -0.4029  0.7477  0.4341
 1586SOL    MW4 6391   3.763   1.514   3.563 -0.5963  0.5069  0.1280
 1587SOL     OW 6392   0.601   3.192   2.062  0.2082  0.8305  0.1761
 1587SOL    HW2 6393   0.663   3.208   1.990  0.8182 -0.9667  0.2981
 1587SOL    HW3 6394   0.652   3.147   2.129 -0.9706  0.2865  0.7277
 1587SOL    MW4 6395   0.616   3.188   2.061  0.1332  0.5217  0.2649
 1588SOL     OW 6396   3.742   1.064   0.201 -0.4153  0.1581  0.1073
 1588SOL    HW2 6397   3.670   1.007   0.172  0.4532 -1.1213  0.4277
 1588SOL    HW3 6398   3.702   1.151   0.207 -1.5956 -0.2848 -1.0422
 1588SOL    MW4 6399   3.727   1.068   0.198 -0.4568 -0.0691 -0.0021
 1589SOL     OW 6400   1.221   2.244   0.618 -0.0937  0.0914 -0.1125
 1589SOL    HW2 6401   1.131   2.277   0.621  0.3693  1.2188  2.0121
 1589SOL    HW3 6402   1.275   2.323   0.612  0.7502 -0.6189 -2.5482
 1589SOL    MW4 6403   1.216   2.259   0.617  0.0789  0.1464 -0.1535
 1590SOL     OW 6404   0.551   3.265   3.349  0.0196 -0.5957  0.2364
 1590SOL    HW2 6405   0.572   3.356   3.330 -0.6348 -0.5236 -0.1461
 1590SOL    HW3 6406   0.456   3.259   3.340  0.3094 -1.9115 -2.3323
 1590SOL    MW4 6407   0.541   3.276   3.346 -0.0286 -0.7598 -0.1531
 1591SOL     OW 6408   3.377   0.332   2.857  0.0588 -0.1575 -0.3718
 1591SOL    HW2 6409   3.472   0.346   2.852 -0.0270  0.0656 -1.8502
 1591SOL    HW3 6410   3.367   0.264   2.923  1.1448  0.7066  0.7175
 1591SOL    MW4 6411   3.388   0.325   2.865  0.1907 -0.0141 -0.4232
 1592SOL     OW 6412   1.953   0.252   1.579  0.0974 -0.0999  0.5244
 1592SOL    HW2 6413   1.912   0.330   1.540  0.0659  0.1091  0.9767
 1592SOL    HW3 6414   2.033   0.285   1.619  0.8253 -0.5457 -0.5505
 1592SOL    MW4 6415   1.958   0.267   1.579  0.1892 -0.1312  0.4423
 1593SOL     OW 6416   4.482   1.343   0.911  0.2544 -0.1922 -0.0204
 1593SOL    HW2 6417   4.487   1.364   0.818 -1.2648  2.6250  0.4769
 1593SOL    HW3 6418   4.393   1.309   0.923 -0.5757  2.1928  0.8676
 1593SOL    MW4 6419   4.471   1.341   0.901 -0.0553  0.4941  0.1623
 1594SOL     OW 6420   0.951   0.741   0.950  0.2357 -0.9613  0.3269
 1594SOL    HW2 6421   0.933   0.656   0.990 -0.0355 -1.0594 -0.0061
 1594SOL    HW3 6422   1.001   0.789   1.017  0.8868 -1.5930  0.2875
 1594SOL    MW4 6423   0.955   0.736   0.964  0.2859 -1.0576  0.2778
 1595SOL     OW 6424   2.544   2.592   3.337  0.2889  0.0900  0.0008
 1595SOL    HW2 6425   2.464   2.542   3.323  0.9874 -1.4025  1.0993
 1595SOL    HW3 6426   2.560   2.637   3.254 -0.4108 -1.4771 -1.0059
 1595SOL    MW4 6427   2.536   2.591   3.324  0.2887 -0.3135  0.0129
 1596SOL     OW 6428   0.944   2.300   0.947  0.1905 -0.3425 -0.2457
 1596SOL    HW2 6429   0.867   2.353   0.967  0.6178  0.4463 -0.6849
 1596SOL    HW3 6430   0.964   2.255   1.029  0.2088  0.6598  0.3041
 1596SOL    MW4 6431   0.936   2.301   0.960  0.2493 -0.1061 -0.2311
 1597SOL     OW 6432   3.263   1.492   3.403 -0.0067 -0.7129 -0.2529
 1597SOL    HW2 6433   3.339   1.475   3.348 -0.4134 -0.4589 -0.9098
 1597SOL    HW3 6434   3.293   1.476   3.492  0.2851 -2.4259 -0.6512
 1597SOL    MW4 6435   3.277   1.488   3.407 -0.0222 -0.9053 -0.3920
 1598SOL     OW 6436   2.207   1.558   1.295 -0.1161 -0.2898 -0.0792
 1598SOL    HW2 6437   2.216   1.627   1.360  0.6576 -0.7269  0.2864
 1598SOL    HW3 6438   2.250   1.593   1.217 -1.2919  0.3474 -0.4571
 1598SOL    MW4 6439   2.214   1.572   1.293 -0.1693 -0.2635 -0.0807
 1599SOL     OW 6440   1.019   1.450   1.550 -0.6064  0.1197 -0.0581
 1599SOL    HW2 6441   1.102   1.424   1.591 -0.9653 -2.3271 -0.8225
 1599SOL    HW3 6442   0.953   1.433   1.617 -0.6226  1.0260  0.1607
 1599SOL    MW4 6443   1.021   1.444   1.565 -0.6559 -0.0836 -0.1302
 1600SOL     OW 6444   0.622   1.600   3.738 -0.0929  0.1567  0.6932
 1600SOL    HW2 6445   0.542   1.611   3.686  0.6644 -1.1485 -0.7704
 1600SOL    HW3 6446   0.686   1.656   3.697 -0.1007  0.8146  1.5671
 1600SOL    MW4 6447   0.620   1.609   3.726  0.0060  0.0713  0.6154
 1601SOL     OW 6448   3.178   4.485   3.137  0.3627  0.4928 -0.4056
 1601SOL    HW2 6449   3.224   4.483   3.053 -0.2025 -0.8349 -0.7009
 1601SOL    HW3 6450   3.175   4.578   3.161  4.0016  0.5678  0.0989
 1601SOL    MW4 6451   3.184   4.497   3.129  0.7684  0.3271 -0.3777
 1602SOL     OW 6452   0.328   1.485   4.048 -0.6298  0.5245  0.2475
 1602SOL    HW2 6453   0.423   1.490   4.052 -0.6283  1.1773 -0.4430
 1602SOL    HW3 6454   0.300   1.574   4.026 -1.2777 -0.1034 -1.5436
 1602SOL    MW4 6455   0.337   1.498   4.046 -0.7151  0.5279 -0.0801
 1603SOL     OW 6456   1.832   1.614   0.239 -0.0409 -0.2306  0.3060
 1603SOL    HW2 6457   1.806   1.669   0.164  1.4891 -0.9312 -0.7593
 1603SOL    HW3 6458   1.750   1.574   0.268 -0.7235  0.3420 -0.7775
 1603SOL    MW4 6459   1.818   1.616   0.233  0.0708 -0.2477  0.0225
 1604SOL     OW 6460   3.758   0.383   3.387  0.1210  0.0399  0.2236
 1604SOL    HW2 6461   3.840   0.383   3.337  0.2625 -1.1264  0.4333
 1604SOL    HW3 6462   3.695   0.339   3.330  0.6692 -2.6921  1.6422
 1604SOL    MW4 6463   3.760   0.377   3.373  0.2120 -0.4745  0.4385
 1605SOL     OW 6464   0.916   3.184   1.465  0.4063 -0.1262 -0.2225
 1605SOL    HW2 6465   0.885   3.230   1.387 -0.0772 -0.3908 -0.1898
 1605SOL    HW3 6466   0.943   3.254   1.525  2.5995  0.0328 -1.3504
 1605SOL    MW4 6467   0.916   3.199   1.463  0.6319 -0.1402 -0.3670
 1606SOL     OW 6468   3.855   3.100   2.515  0.1164 -0.0206  0.4299
 1606SOL    HW2 6469   3.885   3.154   2.443  1.2417 -0.7525  0.3373
 1606SOL    HW3 6470   3.810   3.161   2.574 -0.0887  0.7148 -0.4834
 1606SOL    MW4 6471   3.853   3.115   2.514  0.2379 -0.0203  0.2973
 1607SOL     OW 6472   0.782   1.399   1.372 -0.3998 -0.1303  0.0891
 1607SOL    HW2 6473   0.741   1.480   1.342 -2.4522 -0.9355  0.6595
 1607SOL    HW3 6474   0.850   1.428   1.433  0.3367  1.2473 -1.3382
 1607SOL    MW4 6475   0.786   1.414   1.376 -0.5734 -0.0547 -0.0240
 1608SOL     OW 6476   2.817   2.630   2.602 -0.0229 -0.1310  0.6679
 1608SOL    HW2 6477   2.779   2.551   2.563 -0.8601  0.4299  0.3339
 1608SOL    HW3 6478   2.757   2.654   2.672 -0.0610  0.5055  0.4280
 1608SOL    MW4 6479   2.804   2.623   2.606 -0.1383  0.0272  0.5922
 1609SOL     OW 6480   0.049   2.857   3.521 -0.2845 -0.3948  0.1151
 1609SOL    HW2 6481  -0.026   2.852   3.461  0.5054 -0.4737 -0.8670
 1609SOL    HW3 6482   0.102   2.928   3.488  0.6293 -1.0364  0.1878
 1609SOL    MW4 6483   0.046   2.865   3.509 -0.0597 -0.4900 -0.0052
 1610SOL     OW 6484   2.544   0.748   2.459  0.7011 -0.4330  0.3505
 1610SOL    HW2 6485   2.637   0.761   2.441  0.4829  0.0764 -0.4288
 1610SOL    HW3 6486   2.530   0.654   2.448  0.4929 -0.1055 -2.6358
 1610SOL    MW4 6487   2.554   0.737   2.455  0.6447 -0.3226 -0.1464
 1611SOL     OW 6488   2.819   2.486   3.263 -0.5310 -0.6175  0.2787
 1611SOL    HW2 6489   2.852   2.560   3.212 -0.8905 -1.1210 -0.6957
 1611SOL    HW3 6490   2.832   2.410   3.207 -0.1155 -1.3149  1.2953
 1611SOL    MW4 6491   2.825   2.486   3.249 -0.5236 -0.7758  0.2844
 1612SOL     OW 6492   1.298   2.406   0.310 -0.2156 -0.3421  0.4505
 1612SOL    HW2 6493   1.339   2.436   0.391 -0.9370 -1.1397  1.1294
 1612SOL    HW3 6494   1.274   2.486   0.264  2.1341  0.1409 -0.0005
 1612SOL    MW4 6495   1.300   2.420   0.315 -0.0010 -0.3836  0.4806
 1613SOL     OW 6496   4.363   0.744   2.184 -0.0748  0.8733  0.3459
 1613SOL    HW2 6497   4.316   0.665   2.158  1.6489  0.2362 -0.9065
 1613SOL    HW3 6498   4.409   0.719   2.264  0.8723  0.4413 -0.3255
 1613SOL    MW4 6499   4.363   0.730   2.191  0.2775  0.7322  0.0920
 1614SOL     OW 6500   2.733   4.388   1.219 -0.1305 -0.4698  0.2798
 1614SOL    HW2 6501   2.779   4.472   1.216 -0.4658 -0.2693  0.8493
 1614SOL    HW3 6502   2.670   4.393   1.147  1.4868 -1.1879 -1.2328
 1614SOL    MW4 6503   2.731   4.400   1.209  0.0386 -0.5383  0.1554
 1615SOL     OW 6504   4.134   1.394   1.908 -0.7686  0.0442 -0.8271
 1615SOL    HW2 6505   4.076   1.358   1.841 -1.5281  0.2259 -0.2682
 1615SOL    HW3 6506   4.092   1.474   1.937  0.2072  0.6467 -1.0384
 1615SOL    MW4 6507   4.121   1.400   1.903 -0.7396  0.1477 -0.7813
 1616SOL     OW 6508   3.663   3.269   4.170  0.3622  0.2736 -0.6264
 1616SOL    HW2 6509   3.604   3.198   4.197 -0.8714  1.2104 -0.7864
 1616SOL    HW3 6510   3.751   3.234   4.183 -0.2227 -0.6290  1.0284
 1616SOL    MW4 6511   3.667   3.255   4.176  0.1223  0.2782 -0.4296
 1617SOL     OW 6512   0.553   2.579   3.850  0.4529  0.0347  0.2943
 1617SOL    HW2 6513   0.462   2.567   3.822  0.3790  0.3146  0.4088
 1617SOL    HW3 6514   0.602   2.512   3.802  0.0424 -0.7808  1.0008
 1617SOL    MW4 6515   0.547   2.569   3.840  0.3889 -0.0358  0.4025
 1618SOL     OW 6516   3.653   3.490   2.036  0.0453  0.1063  0.0850
 1618SOL    HW2 6517   3.564   3.473   2.005 -0.7301  2.8188  0.6725
 1618SOL    HW3 6518   3.654   3.457   2.126 -0.6795  0.8874  0.3885
 1618SOL    MW4 6519   3.641   3.484   2.044 -0.1526  0.5674  0.2024
 1619SOL     OW 6520   3.414   1.969   3.563 -0.0709  0.2825  0.0913
 1619SOL    HW2 6521   3.331   2.015   3.559 -0.1097  0.1403 -0.8196
 1619SOL    HW3 6522   3.457   2.003   3.642 -1.7458 -0.9538  1.6040
 1619SOL    MW4 6523   3.409   1.979   3.573 -0.2966  0.1006  0.1707
 1620SOL     OW 6524   0.730   1.989   0.730  0.1772  0.1771 -0.1002
 1620SOL    HW2 6525   0.767   2.050   0.666  1.2247  0.8354  1.1216
 1620SOL    HW3 6526   0.688   2.045   0.795  0.1800 -0.4376  0.4343
 1620SOL    MW4 6527   0.730   2.004   0.730  0.3158  0.1829  0.1315
 1621SOL     OW 6528   3.934   1.941   0.787  0.3559  0.6640  0.0953
 1621SOL    HW2 6529   3.880   1.866   0.762  1.0045 -0.1744  1.1401
 1621SOL    HW3 6530   4.000   1.947   0.719  0.1479  0.4327 -0.1271
 1621SOL    MW4 6531   3.936   1.932   0.775  0.4141  0.5229  0.2038
 1622SOL     OW 6532   3.817   1.824   2.978  0.0741  0.3622 -0.0225
 1622SOL    HW2 6533   3.752   1.758   3.003  0.0419  0.6778  0.7596
 1622SOL    HW3 6534   3.809   1.892   3.046  0.1733  1.1216 -0.7631
 1622SOL    MW4 6535   3.807   1.824   2.990  0.0832  0.5040 -0.0167
 1623SOL     OW 6536   0.929   2.648   0.684  0.1258 -0.2130 -0.3894
 1623SOL    HW2 6537   0.845   2.678   0.719  0.3916  0.1471 -0.0531
 1623SOL    HW3 6538   0.921   2.552   0.682 -0.3545 -0.1744 -0.5266
 1623SOL    MW4 6539   0.916   2.639   0.688  0.0975 -0.1605 -0.3631
 1624SOL     OW 6540   3.763   2.003   3.953 -0.2223 -0.1832 -0.1859
 1624SOL    HW2 6541   3.767   2.019   4.048 -0.4394 -1.4897  0.0579
 1624SOL    HW3 6542   3.755   1.908   3.946 -0.6531 -0.0488 -1.5153
 1624SOL    MW4 6543   3.763   1.993   3.965 -0.3078 -0.3377 -0.3290
 1625SOL     OW 6544   4.292   2.608   0.161  0.1652 -0.3743  0.0011
 1625SOL    HW2 6545   4.377   2.572   0.137 -0.0729 -0.3490 -0.8863
 1625SOL    HW3 6546   4.313   2.687   0.212  0.6690 -0.7857  0.4424
 1625SOL    MW4 6547   4.306   2.614   0.165  0.2003 -0.4253 -0.0578
 1626SOL     OW 6548   3.108   1.762   2.448 -0.4375 -0.4914 -0.4248
 1626SOL    HW2 6549   3.160   1.817   2.506 -0.9707 -1.0092  0.5657
 1626SOL    HW3 6550   3.140   1.782   2.361  2.1966 -1.6170  0.2514
 1626SOL    MW4 6551   3.119   1.772   2.445 -0.1605 -0.7082 -0.2048
 1627SOL     OW 6552   1.952   4.125   2.196  0.4121 -0.1597  0.1249
 1627SOL    HW2 6553   2.022   4.065   2.169  0.4298  1.0795 -2.6850
 1627SOL    HW3 6554   1.872   4.071   2.192  0.8197 -0.8086  0.5904
 1627SOL    MW4 6555   1.951   4.110   2.192  0.4683 -0.0815 -0.1841
 1628SOL     OW 6556   3.747   3.682   0.615 -0.2403  0.2776 -0.4672
 1628SOL    HW2 6557   3.664   3.728   0.626 -0.1996  0.3213 -0.3422
 1628SOL    HW3 6558   3.799   3.739   0.558  0.1880  0.8742  0.5098
 1628SOL    MW4 6559   3.743   3.695   0.609 -0.1786  0.3622 -0.3218
 1629SOL     OW 6560   2.341   3.855   3.099 -0.1950 -0.4523  0.3072
 1629SOL    HW2 6561   2.262   3.802   3.084 -1.3117  1.0807  0.7068
 1629SOL    HW3 6562   2.348   3.862   3.194 -0.4345  0.6596  0.2523
 1629SOL    MW4 6563   2.331   3.849   3.109 -0.3738 -0.1037  0.3526
 1630SOL     OW 6564   2.493   3.777   1.138 -0.4264 -0.4318  0.3131
 1630SOL    HW2 6565   2.493   3.837   1.213  0.2371 -0.0467  0.0095
 1630SOL    HW3 6566   2.544   3.702   1.167  1.3153  0.4731 -0.3361
 1630SOL    MW4 6567   2.500   3.775   1.152 -0.1087 -0.2613  0.1874
 1631SOL     OW 6568   2.363   1.378   2.140 -0.0628 -0.1657  0.0478
 1631SOL    HW2 6569   2.442   1.395   2.089 -0.7835 -0.1009 -1.0653
 1631SOL    HW3 6570   2.337   1.289   2.114 -1.7880  0.7541 -1.5776
 1631SOL    MW4 6571   2.370   1.369   2.130 -0.3853 -0.0359 -0.3135
 1632SOL     OW 6572   0.233   2.495   0.922  0.5563 -0.1421 -0.4603
 1632SOL    HW2 6573   0.207   2.481   1.013  0.0225  1.1095 -0.4126
 1632SOL    HW3 6574   0.312   2.443   0.912  0.3097 -0.7410  0.5574
 1632SOL    MW4 6575   0.240   2.486   0.933  0.4533 -0.0560 -0.3197
 1633SOL     OW 6576   1.825   0.793   2.225 -0.3159  0.0138  0.4026
 1633SOL    HW2 6577   1.829   0.726   2.156 -0.0910 -0.7823  1.1743
 1633SOL    HW3 6578   1.914   0.797   2.260  0.1538  2.1441 -0.9447
 1633SOL    MW4 6579   1.837   0.784   2.220 -0.2242  0.1898  0.3266
 1634SOL     OW 6580   0.298   0.091   3.898 -0.1105  0.2117  0.0333
 1634SOL    HW2 6581   0.330   0.173   3.935 -0.0111  0.4762 -0.6381
 1634SOL    HW3 6582   0.353   0.024   3.939 -0.2008  0.4757  0.5909
 1634SOL    MW4 6583   0.309   0.093   3.909 -0.1093  0.2814  0.0184
 1635SOL     OW 6584   2.331   0.652   1.971  0.4198  0.5865 -0.3759
 1635SOL    HW2 6585   2.350   0.563   1.941  1.3993  0.5456  0.3362
 1635SOL    HW3 6586   2.369   0.708   1.903  1.5520  0.4764  0.1440
 1635SOL    MW4 6587   2.339   0.647   1.958  0.6983  0.5666 -0.2133
 1636SOL     OW 6588   2.295   3.999   3.565  0.3549 -0.1264  0.0832
 1636SOL    HW2 6589   2.276   3.978   3.656  1.7307  1.0542  0.6594
 1636SOL    HW3 6590   2.284   4.094   3.559  0.1952 -0.2026 -1.0020
 1636SOL    MW4 6591   2.291   4.008   3.576  0.5155  0.0200  0.0160
 1637SOL     OW 6592   2.988   2.919   1.997 -0.2447 -0.3310 -0.2764
 1637SOL    HW2 6593   3.008   2.971   1.919  1.3479 -0.0751  0.2801
 1637SOL    HW3 6594   2.921   2.858   1.969  0.1256 -0.0594 -1.7804
 1637SOL    MW4 6595   2.982   2.918   1.983  0.0145 -0.2611 -0.4014
 1638SOL     OW 6596   1.850   0.552   2.048  0.2830  0.2378  0.2425
 1638SOL    HW2 6597   1.853   0.472   2.100 -0.6746 -0.6945 -1.0995
 1638SOL    HW3 6598   1.764   0.549   2.005  0.5187  1.6395 -0.3451
 1638SOL    MW4 6599   1.839   0.541   2.049  0.1876  0.2997 -0.0122
 1639SOL     OW 6600   4.118   3.781   0.364 -0.0582  0.0212  0.9582
 1639SOL    HW2 6601   4.144   3.802   0.275  0.0209  0.5857  1.1136
 1639SOL    HW3 6602   4.028   3.812   0.371 -0.1166 -0.1622  1.0282
 1639SOL    MW4 6603   4.109   3.788   0.353 -0.0553  0.0715  0.9879
 1640SOL     OW 6604   2.459   4.506   3.154 -0.1747  0.7430  0.0393
 1640SOL    HW2 6605   2.552   4.500   3.179  0.0351  0.0702 -0.8643
 1640SOL    HW3 6606   2.436   4.416   3.130 -1.2286  0.7991  0.8343
 1640SOL    MW4 6607   2.468   4.493   3.154 -0.2861  0.6618  0.0250
 1641SOL     OW 6608   3.218   0.715   2.533 -0.7062 -0.5849 -0.0165
 1641SOL    HW2 6609   3.271   0.655   2.586  0.4842 -0.7286 -1.3331
 1641SOL    HW3 6610   3.140   0.731   2.585  0.7163 -0.2260  2.0680
 1641SOL    MW4 6611   3.215   0.709   2.546 -0.3614 -0.5565  0.0849
 1642SOL     OW 6612   2.937   1.362   0.572 -0.2046  0.1396 -0.5498
 1642SOL    HW2 6613   3.017   1.313   0.590 -0.3758 -0.2682 -0.8903
 1642SOL    HW3 6614   2.967   1.437   0.521  0.0588  0.4008 -0.0206
 1642SOL    MW4 6615   2.952   1.365   0.568 -0.1924  0.1203 -0.5249
 1643SOL     OW 6616   2.266   0.323   1.034 -0.3879 -0.2320 -0.0062
 1643SOL    HW2 6617   2.314   0.405   1.044 -0.0598 -0.4952  0.6765
 1643SOL    HW3 6618   2.313   0.275   0.966 -0.7790  0.2844 -0.6405
 1643SOL    MW4 6619   2.279   0.328   1.027 -0.3965 -0.1986  0.0001
 1644SOL     OW 6620   3.113   1.050   2.356  0.0955 -0.2685 -0.2200
 1644SOL    HW2 6621   3.165   1.114   2.309 -0.6270  0.9871  0.6537
 1644SOL    HW3 6622   3.162   1.034   2.437 -0.8365  0.9159  0.6030
 1644SOL    MW4 6623   3.126   1.056   2.360 -0.1228  0.0535  0.0038
 1645SOL     OW 6624   1.511   1.429   1.365 -0.0839  0.8037  0.8279
 1645SOL    HW2 6625   1.584   1.428   1.427  0.3002  0.6999  0.3759
 1645SOL    HW3 6626   1.551   1.450   1.280 -0.3322 -0.8680  0.2741
 1645SOL    MW4 6627   1.526   1.432   1.362 -0.0660  0.5695  0.6952
 1646SOL     OW 6628   2.362   3.556   1.894  0.0259 -0.3058  0.2303
 1646SOL    HW2 6629   2.392   3.584   1.981  2.2071 -0.1668 -0.5403
 1646SOL    HW3 6630   2.419   3.483   1.871  0.2583  0.4306 -1.5991
 1646SOL    MW4 6631   2.373   3.550   1.902  0.3445 -0.1903 -0.1128
 1647SOL     OW 6632   1.147   1.746   3.867  0.0004  0.6625 -0.0642
 1647SOL    HW2 6633   1.202   1.824   3.853  0.9885 -0.2017 -1.0661
 1647SOL    HW3 6634   1.165   1.690   3.792  0.5353 -1.2605  1.4540
 1647SOL    MW4 6635   1.157   1.749   3.856  0.2013  0.2948  0.0038
 1648SOL     OW 6636   2.779   3.266   1.448 -0.0352  0.0645  0.0322
 1648SOL    HW2 6637   2.715   3.337   1.454 -0.3534 -0.1607 -0.6944
 1648SOL    HW3 6638   2.863   3.312   1.436 -0.4080  0.3025 -1.8103
 1648SOL    MW4 6639   2.782   3.282   1.447 -0.1264  0.0660 -0.3070
 1649SOL     OW 6640   1.369   2.481   0.564  0.1231 -0.1713 -0.0572
 1649SOL    HW2 6641   1.349   2.549   0.629  0.4759  0.9534 -1.1062
 1649SOL    HW3 6642   1.463   2.468   0.571  0.1843  0.0699 -0.4718
 1649SOL    MW4 6643   1.379   2.488   0.574  0.1775  0.0088 -0.2503
 1650SOL     OW 6644   3.172   3.458   2.299 -0.0489  0.1051  0.4083
 1650SOL    HW2 6645   3.102   3.509   2.338  0.1817 -0.9308  2.2283
 1650SOL    HW3 6646   3.248   3.473   2.355  0.1558 -1.7861  0.6888
 1650SOL    MW4 6647   3.173   3.466   2.311  0.0086 -0.2811  0.6852
 1651SOL     OW 6648   2.880   3.883   3.405 -0.2362  0.2832  0.0893
 1651SOL    HW2 6649   2.941   3.953   3.425  0.8678 -0.2745 -1.2086
 1651SOL    HW3 6650   2.931   3.803   3.415 -0.6532 -0.1782 -1.2827
 1651SOL    MW4 6651   2.895   3.882   3.409 -0.1457  0.1485 -0.2630
 1652SOL     OW 6652   1.901   4.118   3.692  0.5661  0.4734 -0.1579
 1652SOL    HW2 6653   1.957   4.054   3.648 -0.5325 -0.1781 -0.6240
 1652SOL    HW3 6654   1.925   4.202   3.652 -1.5892 -0.3207 -3.2316
 1652SOL    MW4 6655   1.912   4.120   3.681  0.1366  0.2823 -0.6249
 1653SOL     OW 6656   3.041   4.200   0.459 -0.1038 -0.0336  0.1929
 1653SOL    HW2 6657   3.049   4.295   0.471  4.3229 -0.6498  3.0036
 1653SOL    HW3 6658   2.999   4.169   0.540  0.1418 -0.6949  0.0710
 1653SOL    MW4 6659   3.036   4.208   0.471  0.5126 -0.2022  0.5477
 1654SOL     OW 6660   3.845   0.707   0.487  0.1286  0.2051 -0.0722
 1654SOL    HW2 6661   3.812   0.679   0.572 -1.3261  1.0351 -0.3387
 1654SOL    HW3 6662   3.826   0.634   0.428 -1.0183  0.5645 -0.1644
 1654SOL    MW4 6663   3.838   0.694   0.491 -0.2146  0.3620 -0.1195
 1655SOL     OW 6664   0.771   0.902   1.923 -0.4629  0.1726 -0.1100
 1655SOL    HW2 6665   0.846   0.844   1.907 -1.7625 -1.8498  0.8560
 1655SOL    HW3 6666   0.744   0.931   1.836  0.3301 -0.5389 -0.6061
 1655SOL    MW4 6667   0.778   0.898   1.910 -0.5297 -0.1881 -0.0480
 1656SOL     OW 6668   3.624   4.133   0.933 -0.1443  0.0981  0.1029
 1656SOL    HW2 6669   3.545   4.175   0.967 -0.1988  0.0135  0.0791
 1656SOL    HW3 6670   3.621   4.044   0.967  0.4793  0.4053  0.9751
 1656SOL    MW4 6671   3.613   4.127   0.942 -0.0694  0.1273  0.2148
 1657SOL     OW 6672   3.147   4.423   0.794  0.3657 -0.2271  0.5143
 1657SOL    HW2 6673   3.194   4.339   0.797  0.8525 -0.0290 -1.2553
 1657SOL    HW3 6674   3.213   4.486   0.765 -0.9208  0.1029 -1.7903
 1657SOL    MW4 6675   3.162   4.420   0.791  0.2599 -0.1578 -0.0232
 1658SOL     OW 6676   3.414   3.773   1.729 -0.0422 -0.2687 -0.0240
 1658SOL    HW2 6677   3.368   3.696   1.762 -0.4978 -0.1467 -0.3749
 1658SOL    HW3 6678   3.440   3.821   1.808 -2.1924  0.6575  0.1628
 1658SOL    MW4 6679   3.412   3.770   1.744 -0.3860 -0.1307 -0.0457
 1659SOL     OW 6680   2.006   0.721   2.644 -0.2694 -0.6940  0.1484
 1659SOL    HW2 6681   2.067   0.775   2.694 -0.8451 -0.6193  0.7804
 1659SOL    HW3 6682   1.962   0.668   2.710 -0.5947 -1.0417 -0.3480
 1659SOL    MW4 6683   2.008   0.721   2.659 -0.3881 -0.7300  0.1662
 1660SOL     OW 6684   0.931   3.685   0.568 -0.0478 -0.0019  0.3406
 1660SOL    HW2 6685   0.966   3.726   0.489 -0.1337 -0.3023  0.1433
 1660SOL    HW3 6686   0.901   3.757   0.622 -0.3412  0.1814 -0.0707
 1660SOL    MW4 6687   0.932   3.700   0.565 -0.0978 -0.0172  0.2603
 1661SOL     OW 6688   1.125   3.130   1.875  0.6592  0.1320 -0.6639
 1661SOL    HW2 6689   1.121   3.059   1.811 -0.7327 -0.2903 -0.1052
 1661SOL    HW3 6690   1.038   3.169   1.874  0.8609  0.6331  0.4125
 1661SOL    MW4 6691   1.113   3.126   1.866  0.5021  0.1426 -0.4483
 1662SOL     OW 6692   2.026   2.427   0.926 -0.0886 -0.1085 -0.0736
 1662SOL    HW2 6693   1.943   2.404   0.884 -0.6959  2.2098 -0.2203
 1662SOL    HW3 6694   2.022   2.384   1.012 -2.3399  1.5161  0.7043
 1662SOL    MW4 6695   2.014   2.418   0.932 -0.4656  0.4117  0.0097
 1663SOL     OW 6696   4.148   3.235   0.075 -0.3785  0.2463 -0.5762
 1663SOL    HW2 6697   4.165   3.193  -0.009  2.6359 -1.9807  1.0832
 1663SOL    HW3 6698   4.214   3.303   0.082 -2.0942  2.0084 -0.9922
 1663SOL    MW4 6699   4.159   3.238   0.065 -0.2069  0.1850 -0.4122
 1664SOL     OW 6700   0.279   4.490   2.809 -0.1900  0.2674  0.2126
 1664SOL    HW2 6701   0.287   4.584   2.825 -0.6578  0.3938 -0.2829
 1664SOL    HW3 6702   0.185   4.475   2.799  0.0295  0.0656 -1.6271
 1664SOL    MW4 6703   0.268   4.500   2.810 -0.2227  0.2570 -0.0954
 1665SOL     OW 6704   1.296   3.503   3.653 -0.3674  0.1121 -0.0721
 1665SOL    HW2 6705   1.264   3.586   3.689  3.1682  0.8414  1.6169
 1665SOL    HW3 6706   1.310   3.521   3.560  0.1511  1.3241  0.2398
 1665SOL    MW4 6707   1.293   3.516   3.646  0.1674  0.3684  0.1919
 1666SOL     OW 6708   0.102   3.206   3.718 -0.1385 -0.6170 -0.2955
 1666SOL    HW2 6709   0.094   3.118   3.754  1.0474 -0.7972 -0.4463
 1666SOL    HW3 6710   0.196   3.218   3.704 -0.2156  0.9162  0.3477
 1666SOL    MW4 6711   0.114   3.196   3.721  0.0078 -0.4387 -0.2303
 1667SOL     OW 6712   0.739   1.009   1.679  0.0455 -0.1970 -0.1168
 1667SOL    HW2 6713   0.816   0.994   1.625  2.0955 -0.4721  2.7759
 1667SOL    HW3 6714   0.713   1.099   1.660  2.1237  0.4854  0.1280
 1667SOL    MW4 6715   0.746   1.019   1.669  0.5901 -0.1432  0.2971
 1668SOL     OW 6716   1.474   1.676   3.987  0.7678 -0.1764 -0.3854
 1668SOL    HW2 6717   1.497   1.737   4.057  0.4374 -0.1975 -0.2553
 1668SOL    HW3 6718   1.378   1.674   3.989  0.7660 -0.3138 -0.7205
 1668SOL    MW4 6719   1.464   1.684   3.997  0.7241 -0.1973 -0.4125
 1669SOL     OW 6720   3.985   1.486   0.859  0.1485  0.1949 -0.3192
 1669SOL    HW2 6721   4.041   1.474   0.782 -0.0886  0.4923 -0.5409
 1669SOL    HW3 6722   3.944   1.401   0.872  0.8124 -0.0784 -0.0305
 1669SOL    MW4 6723   3.987   1.473   0.850  0.2048  0.1979 -0.3104
 1670SOL     OW 6724   1.089   1.300   1.963 -0.0402 -0.4825 -0.2407
 1670SOL    HW2 6725   1.033   1.294   2.040 -0.1189  2.1410 -0.0516
 1670SOL    HW3 6726   1.106   1.394   1.953  0.5546 -0.8479 -3.0072
 1670SOL    MW4 6727   1.084   1.312   1.972  0.0279 -0.1848 -0.5807
 1671SOL     OW 6728   2.114   3.582   3.246  0.1034  0.2999 -0.6882
 1671SOL    HW2 6729   2.183   3.590   3.311 -1.8311  0.7245  1.3880
 1671SOL    HW3 6730   2.113   3.489   3.223  1.9873  0.4661 -1.4767
 1671SOL    MW4 6731   2.123   3.570   3.252  0.0966  0.3779 -0.5183
 1672SOL     OW 6732   2.286   4.324   1.378 -0.3603  0.5950 -0.1724
 1672SOL    HW2 6733   2.381   4.328   1.385 -0.3953 -0.6820  1.2522
 1672SOL    HW3 6734   2.254   4.351   1.464 -1.2376 -0.8227 -0.0407
 1672SOL    MW4 6735   2.294   4.328   1.390 -0.4804  0.2403  0.0329
 1673SOL     OW 6736   3.360   4.396   2.421 -0.1828 -0.0909  0.5392
 1673SOL    HW2 6737   3.421   4.378   2.492  0.3274 -2.4468 -0.4492
 1673SOL    HW3 6738   3.287   4.334   2.435  0.0836 -0.8307 -1.1319
 1673SOL    MW4 6739   3.358   4.385   2.432 -0.0803 -0.4992  0.1881
 1674SOL     OW 6740   3.461   0.945   3.534 -0.6893 -0.1594 -0.3662
 1674SOL    HW2 6741   3.405   0.894   3.475  0.5129  0.2284 -1.8777
 1674SOL    HW3 6742   3.534   0.973   3.479  1.8725 -2.0197  1.9599
 1674SOL    MW4 6743   3.463   0.942   3.519 -0.1926 -0.3538 -0.2584
 1675SOL     OW 6744   1.859   0.771   4.303 -0.1596  0.0367  0.3938
 1675SOL    HW2 6745   1.910   0.820   4.238 -1.1014  1.3293  0.5926
 1675SOL    HW3 6746   1.877   0.679   4.284  1.2276  0.4478 -0.3428
 1675SOL    MW4 6747   1.868   0.765   4.292 -0.1009  0.2614  0.3223
 1676SOL     OW 6748   4.465   0.367   3.603  0.3170  0.2896 -0.3951
 1676SOL    HW2 6749   4.452   0.388   3.510 -0.9556  0.3805 -0.2016
 1676SOL    HW3 6750   4.390   0.406   3.647  0.7027 -0.1158  0.6252
 1676SOL    MW4 6751   4.453   0.375   3.596  0.1998  0.2481 -0.2346
 1677SOL     OW 6752   3.538   2.959   2.279  0.1216 -0.0951  0.0435
 1677SOL    HW2 6753   3.502   2.952   2.191  0.9191 -0.8696 -0.2271
 1677SOL    HW3 6754   3.633   2.956   2.266  0.3360  2.6162  0.6767
 1677SOL    MW4 6755   3.546   2.958   2.266  0.2551  0.1602  0.0916
 1678SOL     OW 6756   1.874   0.861   3.856 -0.0096  0.0020  0.0333
 1678SOL    HW2 6757   1.906   0.811   3.781  0.8141  0.5928 -0.0159
 1678SOL    HW3 6758   1.870   0.951   3.824  0.7467  0.3208  0.8235
 1678SOL    MW4 6759   1.878   0.866   3.842  0.1988  0.1220  0.1311
 1679SOL     OW 6760   4.037   1.221   3.584 -0.3823 -0.1826  0.3075
 1679SOL    HW2 6761   4.047   1.293   3.646 -0.1771  1.1742 -1.2497
 1679SOL    HW3 6762   4.126   1.189   3.569 -0.4846 -0.8407  1.0794
 1679SOL    MW4 6763   4.050   1.226   3.590 -0.3686 -0.0905  0.2041
 1680SOL     OW 6764   2.400   3.646   2.917  0.2128 -0.6442 -0.1636
 1680SOL    HW2 6765   2.310   3.638   2.884  0.3386 -0.1521 -0.6340
 1680SOL    HW3 6766   2.395   3.714   2.984  0.4937  0.3832 -1.1711
 1680SOL    MW4 6767   2.387   3.654   2.921  0.2663 -0.4437 -0.3583
 1681SOL     OW 6768   1.611   1.032   3.363  0.3457  0.4198  0.2125
 1681SOL    HW2 6769   1.594   1.030   3.269 -0.4419  1.7731  0.3024
 1681SOL    HW3 6770   1.528   1.061   3.401  1.0689  1.1886  1.2195
 1681SOL    MW4 6771   1.598   1.035   3.356  0.3374  0.6999  0.3574
 1682SOL     OW 6772   3.245   2.350   2.031  0.1422  0.3232 -0.2928
 1682SOL    HW2 6773   3.168   2.293   2.038  0.4622 -0.1499 -0.5605
 1682SOL    HW3 6774   3.260   2.382   2.120  1.2381 -1.7322  0.3011
 1682SOL    MW4 6775   3.237   2.347   2.044  0.3290 -0.0103 -0.2499
 1683SOL     OW 6776   1.878   4.056   2.549  0.4788 -0.0987  0.0466
 1683SOL    HW2 6777   1.806   3.998   2.523  0.5690 -0.5729  0.8535
 1683SOL    HW3 6778   1.845   4.144   2.531  0.7187 -0.4251 -2.1525
 1683SOL    MW4 6779   1.864   4.060   2.543  0.5224 -0.2046 -0.1371
 1684SOL     OW 6780   0.628   2.273   1.406 -0.0903 -0.2886 -0.4861
 1684SOL    HW2 6781   0.709   2.321   1.393 -0.0723 -0.6125 -1.6248
 1684SOL    HW3 6782   0.559   2.332   1.374 -0.3670  0.1967  0.9581
 1684SOL    MW4 6783   0.629   2.287   1.400 -0.1244 -0.2670 -0.4458
 1685SOL     OW 6784   1.891   0.359   2.644  0.3498 -0.4249  0.3401
 1685SOL    HW2 6785   1.955   0.358   2.715  1.3800  0.2073 -0.5706
 1685SOL    HW3 6786   1.942   0.343   2.565 -0.4200  1.3660 -0.5440
 1685SOL    MW4 6787   1.906   0.357   2.643  0.3842 -0.1052  0.1032
 1686SOL     OW 6788   0.980   1.946   2.099  0.4357 -0.0777  0.3895
 1686SOL    HW2 6789   0.972   1.888   2.175  0.3130  2.1854  2.1747
 1686SOL    HW3 6790   1.073   1.949   2.080  0.5543 -0.0407  0.9641
 1686SOL    MW4 6791   0.991   1.939   2.106  0.4351  0.2258  0.7007
 1687SOL     OW 6792   3.115   2.515   1.873  0.4126  0.2227  0.1551
 1687SOL    HW2 6793   3.152   2.505   1.786 -2.7002 -0.6269 -1.1255
 1687SOL    HW3 6794   3.163   2.452   1.927  0.8063 -0.9005 -1.4656
 1687SOL    MW4 6795   3.126   2.505   1.869  0.0536 -0.0377 -0.2278
 1688SOL     OW 6796   3.995   2.508   3.835  0.2261 -0.2614  0.7527
 1688SOL    HW2 6797   3.937   2.583   3.849 -0.0603 -0.1211 -1.0526
 1688SOL    HW3 6798   3.979   2.451   3.910 -1.1416  0.4836  1.0437
 1688SOL    MW4 6799   3.985   2.511   3.847  0.0083 -0.1447  0.5529
 1689SOL     OW 6800   2.731   0.157   0.849 -0.1636 -0.2024 -0.5902
 1689SOL    HW2 6801   2.787   0.091   0.807 -0.8075  0.1369 -2.0067
 1689SOL    HW3 6802   2.764   0.240   0.815  1.4790  0.3445  2.1568
 1689SOL    MW4 6803   2.743   0.159   0.839 -0.0315 -0.0855 -0.4146
 1690SOL     OW 6804   4.322   3.859   3.676  0.0551 -0.6898  0.0218
 1690SOL    HW2 6805   4.300   3.920   3.605 -1.2336 -0.8772  0.2388
 1690SOL    HW3 6806   4.344   3.915   3.750  2.0774 -0.4875 -0.7056
 1690SOL    MW4 6807   4.322   3.874   3.676  0.1526 -0.6878 -0.0455
 1691SOL     OW 6808   3.202   1.047   0.468 -0.2010 -0.7412 -0.3546
 1691SOL    HW2 6809   3.183   1.138   0.447 -0.8525 -1.0661 -1.1913
 1691SOL    HW3 6810   3.297   1.039   0.458  0.0888  0.2609  1.3821
 1691SOL    MW4 6811   3.212   1.058   0.464 -0.2489 -0.6520 -0.2359
 1692SOL     OW 6812   3.024   1.143   0.068  0.2514 -0.4081  0.4768
 1692SOL    HW2 6813   2.963   1.118  -0.002  0.7064  0.7413 -0.3444
 1692SOL    HW3 6814   3.039   1.237   0.054  2.8737 -0.8527  0.1466
 1692SOL    MW4 6815   3.018   1.152   0.057  0.6573 -0.3151  0.3248
 1693SOL     OW 6816   4.397   3.773   0.841  0.2577 -0.4341 -0.2278
 1693SOL    HW2 6817   4.455   3.702   0.867 -0.1688 -0.3604  0.9528
 1693SOL    HW3 6818   4.453   3.851   0.838  0.0540 -0.1822  1.8263
 1693SOL    MW4 6819   4.412   3.774   0.844  0.1750 -0.3910  0.1990
 1694SOL     OW 6820   3.072   1.136   3.634  0.1141 -0.1582  0.0609
 1694SOL    HW2 6821   3.138   1.203   3.650 -0.4971  0.2583  0.8815
 1694SOL    HW3 6822   3.088   1.107   3.544  0.5924  0.8469 -0.1848
 1694SOL    MW4 6823   3.082   1.141   3.624  0.0966  0.0293  0.1369
 1695SOL     OW 6824   0.534   4.372   2.795  0.3531  0.1204 -0.0192
 1695SOL    HW2 6825   0.567   4.417   2.872  0.3949 -0.0653  0.0725
 1695SOL    HW3 6826   0.444   4.404   2.786 -0.0135 -0.6489  0.7364
 1695SOL    MW4 6827   0.526   4.382   2.804  0.3103 -0.0052  0.0925
 1696SOL     OW 6828   4.141   1.198   2.115  0.6104 -0.2943 -0.2763
 1696SOL    HW2 6829   4.197   1.228   2.187  0.5276 -0.9944  0.0914
 1696SOL    HW3 6830   4.155   1.262   2.045 -1.2447  1.8224  1.2254
 1696SOL    MW4 6831   4.151   1.210   2.115  0.3548 -0.1073 -0.0296
 1697SOL     OW 6832   3.445   0.302   3.660  0.4940 -0.4384 -0.2361
 1697SOL    HW2 6833   3.421   0.249   3.736  1.1118  0.8601  0.8882
 1697SOL    HW3 6834   3.536   0.278   3.642  0.1926 -1.1209 -0.9080
 1697SOL    MW4 6835   3.454   0.291   3.668  0.5360 -0.3572 -0.1764
 1698SOL     OW 6836   1.747   3.264   1.542  0.0469 -0.6477  0.5482
 1698SOL    HW2 6837   1.729   3.300   1.629 -1.5199  1.9304 -0.7916
 1698SOL    HW3 6838   1.792   3.334   1.495  2.0596 -2.4742 -0.3536
 1698SOL    MW4 6839   1.751   3.278   1.547  0.1059 -0.5486  0.2525
 1699SOL     OW 6840   1.513   3.369   0.893  0.4227  0.0647 -0.0055
 1699SOL    HW2 6841   1.522   3.459   0.922 -0.6431 -0.1658  1.0859
 1699SOL    HW3 6842   1.490   3.375   0.801 -0.7780  0.9475  0.3431
 1699SOL    MW4 6843   1.512   3.381   0.885  0.1236  0.1507  0.1845
 1700SOL     OW 6844   0.293   3.090   4.189  0.1289 -0.3687 -0.6202
 1700SOL    HW2 6845   0.250   3.005   4.200 -0.0629 -0.2112 -0.1154
 1700SOL    HW3 6846   0.380   3.070   4.156  0.3352 -0.8072  0.1725
 1700SOL    MW4 6847   0.299   3.076   4.186  0.1308 -0.4055 -0.4497
 1701SOL     OW 6848   0.591   0.478   1.481  0.0799 -0.5146 -0.2990
 1701SOL    HW2 6849   0.620   0.392   1.452  0.3031 -0.3180 -0.6752
 1701SOL    HW3 6850   0.495   0.474   1.479  0.0825 -1.2653  1.2401
 1701SOL    MW4 6851   0.582   0.466   1.477  0.1097 -0.5877 -0.1458
 1702SOL     OW 6852   1.882   2.965   3.880 -0.1480  0.4471 -0.0902
 1702SOL    HW2 6853   1.828   2.964   3.960  2.8206 -0.2072  1.9732
 1702SOL    HW3 6854   1.837   2.905   3.821 -1.7516 -0.0130  1.5251
 1702SOL    MW4 6855   1.869   2.957   3.883  0.0322  0.3002  0.3953
 1703SOL     OW 6856   3.066   2.158   1.940  0.2253  0.1147  0.4864
 1703SOL    HW2 6857   2.983   2.114   1.960  0.8638 -1.4417 -0.1908
 1703SOL    HW3 6858   3.131   2.088   1.944  1.3895  1.1728  0.1879
 1703SOL    MW4 6859   3.064   2.143   1.943  0.4632  0.0491  0.3576
 1704SOL     OW 6860   1.757   3.658   1.969  0.0026 -0.2980 -0.6617
 1704SOL    HW2 6861   1.798   3.705   1.896  1.2644  0.2468  0.3648
 1704SOL    HW3 6862   1.668   3.692   1.973  1.2933  3.1622  0.9583
 1704SOL    MW4 6863   1.751   3.669   1.960  0.3395  0.2308 -0.3126
 1705SOL     OW 6864   3.410   2.926   1.990  0.0430  0.4943 -0.3561
 1705SOL    HW2 6865   3.481   2.871   1.957 -1.1428 -0.6688 -1.0066
 1705SOL    HW3 6866   3.339   2.865   2.009 -1.1496  1.7438 -0.6822
 1705SOL    MW4 6867   3.410   2.911   1.988 -0.2706  0.5059 -0.4851
 1706SOL     OW 6868   0.167   0.516   1.925 -0.4004  0.0622  0.7316
 1706SOL    HW2 6869   0.129   0.494   1.839  1.7017  1.0279 -0.4776
 1706SOL    HW3 6870   0.140   0.606   1.940  0.9678  0.5918  0.0910
 1706SOL    MW4 6871   0.158   0.525   1.915  0.0574  0.2595  0.4874
 1707SOL     OW 6872   2.601   2.314   0.903  0.6495 -0.2945  0.3749
 1707SOL    HW2 6873   2.608   2.222   0.877 -2.8836 -0.1795 -1.2544
 1707SOL    HW3 6874   2.507   2.334   0.896  1.2427  3.1935  1.5113
 1707SOL    MW4 6875   2.589   2.305   0.898  0.2615  0.1810  0.3099
 1708SOL     OW 6876   3.874   3.748   1.261 -0.1402  0.7472 -0.0803
 1708SOL    HW2 6877   3.843   3.777   1.347 -1.0818  1.3944 -0.6314
 1708SOL    HW3 6878   3.891   3.655   1.272  1.7223  1.2238  1.3719
 1708SOL    MW4 6879   3.872   3.740   1.274 -0.0184  0.8953  0.0386
 1709SOL     OW 6880   0.014   4.435   2.815 -0.4204 -0.0117  0.1470
 1709SOL    HW2 6881  -0.062   4.459   2.762 -0.8724 -0.6747  0.4825
 1709SOL    HW3 6882  -0.019   4.435   2.905  0.3132  1.0094  0.4321
 1709SOL    MW4 6883  -0.000   4.438   2.820 -0.3829  0.0358  0.2286
 1710SOL     OW 6884   1.528   4.140   2.868 -0.0590  0.5978 -0.5923
 1710SOL    HW2 6885   1.551   4.228   2.896 -0.2461  0.2014  0.8180
 1710SOL    HW3 6886   1.483   4.101   2.943  1.8536 -1.4006 -0.4251
 1710SOL    MW4 6887   1.525   4.147   2.881  0.1686  0.2818 -0.3843
 1711SOL     OW 6888   3.872   2.681   2.200 -0.1826 -0.3479  0.3822
 1711SOL    HW2 6889   3.967   2.684   2.197 -0.0508 -2.4518  1.7815
 1711SOL    HW3 6890   3.846   2.772   2.216  1.5249  0.3939 -0.9048
 1711SOL    MW4 6891   3.881   2.694   2.202  0.0601 -0.5276  0.3970
 1712SOL     OW 6892   1.624   0.857   4.180  0.3357 -0.0446  0.1955
 1712SOL    HW2 6893   1.690   0.831   4.245 -0.3057  1.3284  1.4460
 1712SOL    HW3 6894   1.658   0.939   4.143 -0.6389  0.6687  0.8453
 1712SOL    MW4 6895   1.637   0.864   4.184  0.1225  0.2307  0.4463
 1713SOL     OW 6896   3.163   2.429   2.534 -0.0333 -0.6836 -0.1480
 1713SOL    HW2 6897   3.230   2.470   2.588  0.8878 -0.7603 -1.2233
 1713SOL    HW3 6898   3.120   2.503   2.490 -0.5747 -0.6435  0.4430
 1713SOL    MW4 6899   3.166   2.444   2.535  0.0167 -0.6883 -0.2120
 1714SOL     OW 6900   0.158   2.058   1.860 -0.0891 -0.5855 -0.0960
 1714SOL    HW2 6901   0.176   2.097   1.775  0.0536 -2.4427 -0.9495
 1714SOL    HW3 6902   0.098   2.119   1.903  1.1009  1.1457 -0.8881
 1714SOL    MW4 6903   0.152   2.071   1.855  0.0867 -0.6022 -0.3132
 1715SOL     OW 6904   4.003   0.770   3.146  0.3142 -0.6053 -0.0399
 1715SOL    HW2 6905   4.006   0.858   3.109 -0.1262  0.0724  1.5000
 1715SOL    HW3 6906   4.067   0.721   3.095  1.1410  0.8076 -0.4071
 1715SOL    MW4 6907   4.012   0.775   3.134  0.3653 -0.3295  0.1147
 1716SOL     OW 6908   3.481   3.051   3.847 -0.0296  0.0224 -0.5557
 1716SOL    HW2 6909   3.419   3.124   3.852  0.5460  0.5050 -0.3045
 1716SOL    HW3 6910   3.471   3.016   3.759  0.3655  1.0083 -0.9938
 1716SOL    MW4 6911   3.471   3.056   3.836  0.0985  0.2160 -0.5805
 1717SOL     OW 6912   0.784   4.162   3.868  0.1786 -0.5708  0.2423
 1717SOL    HW2 6913   0.769   4.092   3.805 -0.6237 -0.4449  0.2848
 1717SOL    HW3 6914   0.878   4.163   3.882  0.3995 -0.3889 -1.2049
 1717SOL    MW4 6915   0.794   4.153   3.862  0.1019 -0.5298  0.0567
 1718SOL     OW 6916   4.158   1.297   3.201  0.0620 -0.3872 -0.0851
 1718SOL    HW2 6917   4.144   1.337   3.287 -0.2187 -0.2104 -0.2138
 1718SOL    HW3 6918   4.076   1.311   3.154 -0.7217 -2.7300  0.5165
 1718SOL    MW4 6919   4.145   1.304   3.206 -0.0787 -0.6729 -0.0224
 1719SOL     OW 6920   4.350   3.953   2.797  0.3643  0.1313 -0.3479
 1719SOL    HW2 6921   4.339   3.947   2.892 -0.4234  3.1009 -0.2133
 1719SOL    HW3 6922   4.422   4.015   2.785  0.3841 -0.1422 -1.6831
 1719SOL    MW4 6923   4.358   3.960   2.808  0.2632  0.4873 -0.5066
 1720SOL     OW 6924   1.501   1.040   1.477  0.4720  0.1191  0.0288
 1720SOL    HW2 6925   1.548   1.083   1.548  0.3297  2.0783 -1.0273
 1720SOL    HW3 6926   1.493   0.949   1.505  2.1304  0.4376  1.6257
 1720SOL    MW4 6927   1.506   1.033   1.490  0.6721  0.4196  0.1000
 1721SOL     OW 6928   4.036   1.070   0.211  0.1483 -0.1279 -0.4933
 1721SOL    HW2 6929   3.945   1.068   0.182 -0.4217 -1.3300  1.2654
 1721SOL    HW3 6930   4.082   1.009   0.153 -0.1429  0.5789 -1.4639
 1721SOL    MW4 6931   4.030   1.062   0.200  0.0348 -0.1932 -0.3893
 1722SOL     OW 6932   1.962   1.722   3.890 -0.5056 -0.1839  0.4645
 1722SOL    HW2 6933   1.885   1.691   3.843 -0.8095 -0.5441  1.2020
 1722SOL    HW3 6934   2.011   1.643   3.911 -1.2343 -0.1909  2.2640
 1722SOL    MW4 6935   1.958   1.707   3.887 -0.6418 -0.2322  0.7994
 1723SOL     OW 6936   2.703   1.491   2.339 -0.2716  0.5011 -0.1384
 1723SOL    HW2 6937   2.675   1.414   2.290 -1.1596  0.8279 -0.1501
 1723SOL    HW3 6938   2.798   1.492   2.329 -0.2571 -0.5704 -0.1712
 1723SOL    MW4 6939   2.712   1.481   2.331 -0.3872  0.4028 -0.1442
 1724SOL     OW 6940   2.905   2.758   0.926  0.0664 -0.2892 -0.0450
 1724SOL    HW2 6941   2.837   2.775   0.992 -1.1086 -0.0644 -1.3032
 1724SOL    HW3 6942   2.895   2.666   0.904  1.7373 -0.8688  1.4912
 1724SOL    MW4 6943   2.895   2.748   0.932  0.1318 -0.3359 -0.0082
 1725SOL     OW 6944   3.861   1.735   1.333 -0.0236 -0.2320  0.1794
 1725SOL    HW2 6945   3.807   1.795   1.281  1.5426  1.0557 -0.0369
 1725SOL    HW3 6946   3.829   1.746   1.422 -0.3566  0.2573  0.0062
 1725SOL    MW4 6947   3.850   1.745   1.338  0.1390  0.0024  0.1280
 1726SOL     OW 6948   3.183   3.203   1.313 -0.2182  0.4283 -0.0758
 1726SOL    HW2 6949   3.219   3.189   1.400 -0.2623 -1.3445 -0.3306
 1726SOL    HW3 6950   3.124   3.278   1.323  0.1646  0.5530  1.2938
 1726SOL    MW4 6951   3.180   3.211   1.326 -0.1733  0.2110  0.0714
 1727SOL     OW 6952   0.720   0.679   2.620  0.7905 -0.1176 -0.1457
 1727SOL    HW2 6953   0.656   0.736   2.576 -0.5963 -0.6830  1.0908
 1727SOL    HW3 6954   0.797   0.683   2.564  0.2073  1.7860 -0.8800
 1727SOL    MW4 6955   0.722   0.687   2.607  0.5305  0.0589 -0.0794
 1728SOL     OW 6956   2.511   0.597   3.187  0.3071 -0.1710 -0.0237
 1728SOL    HW2 6957   2.437   0.544   3.156  0.3907 -0.5530  0.4166
 1728SOL    HW3 6958   2.507   0.588   3.282 -0.9746  2.3771  0.1881
 1728SOL    MW4 6959   2.500   0.589   3.195  0.1493  0.1148  0.0627
 1729SOL     OW 6960   0.376   1.969   3.845 -0.4606 -0.2565  0.3783
 1729SOL    HW2 6961   0.286   1.973   3.814  0.1614  1.6116 -1.3086
 1729SOL    HW3 6962   0.387   2.047   3.899  0.3844 -0.0206 -0.1284
 1729SOL    MW4 6963   0.366   1.979   3.848 -0.2670  0.0212  0.0889
 1730SOL     OW 6964   3.659   0.348   2.309  0.4147 -0.0622 -0.1648
 1730SOL    HW2 6965   3.590   0.409   2.285  1.8262  1.3256 -0.7487
 1730SOL    HW3 6966   3.617   0.262   2.304 -0.8961  0.6459 -1.9278
 1730SOL    MW4 6967   3.644   0.344   2.305  0.4280  0.2143 -0.4745
 1731SOL     OW 6968   4.164   2.622   1.590  0.5763  0.2213  0.0909
 1731SOL    HW2 6969   4.081   2.667   1.601  0.9258  0.8592  0.1288
 1731SOL    HW3 6970   4.191   2.641   1.500  0.7083  0.0576  0.0930
 1731SOL    MW4 6971   4.157   2.630   1.580  0.6394  0.2837  0.0962
 1732SOL     OW 6972   3.121   3.031   3.894  0.7167  0.1984 -0.2378
 1732SOL    HW2 6973   3.152   3.072   3.974  0.4997  0.5588 -0.3373
 1732SOL    HW3 6974   3.034   3.068   3.880  1.2547  1.0805 -1.3138
 1732SOL    MW4 6975   3.114   3.041   3.903  0.7591  0.3624 -0.3927
 1733SOL     OW 6976   3.403   0.769   1.178  0.6078 -0.6648 -0.1265
 1733SOL    HW2 6977   3.371   0.783   1.089 -0.1192 -1.6299 -0.0248
 1733SOL    HW3 6978   3.494   0.799   1.176  0.1026  0.8422 -0.7668
 1733SOL    MW4 6979   3.411   0.775   1.166  0.4454 -0.5933 -0.1975
 1734SOL     OW 6980   0.857   4.529   1.728 -1.0157 -0.0667  0.1359
 1734SOL    HW2 6981   0.931   4.582   1.758  0.3692 -1.3775 -0.8518
 1734SOL    HW3 6982   0.789   4.592   1.705  0.2392  1.2259 -0.0943
 1734SOL    MW4 6983   0.858   4.544   1.729 -0.6675 -0.0691 -0.0248
 1735SOL     OW 6984   0.073   4.075   0.320  0.2820 -0.3962 -0.2554
 1735SOL    HW2 6985   0.087   4.053   0.412  1.6554 -1.0370 -0.6021
 1735SOL    HW3 6986  -0.022   4.073   0.309  0.0026  1.3276  1.5334
 1735SOL    MW4 6987   0.062   4.072   0.331  0.4264 -0.2532 -0.0651
 1736SOL     OW 6988   1.252   3.702   0.318 -0.0668  0.2265 -0.2284
 1736SOL    HW2 6989   1.262   3.607   0.316 -0.2147  0.1978  0.4667
 1736SOL    HW3 6990   1.321   3.735   0.260 -0.5281 -0.3490 -1.1047
 1736SOL    MW4 6991   1.262   3.694   0.310 -0.1472  0.1469 -0.2523
 1737SOL     OW 6992   0.005   1.027   1.379 -0.3725 -0.2643 -0.2171
 1737SOL    HW2 6993   0.054   1.041   1.459  0.2881 -0.7739 -0.5253
 1737SOL    HW3 6994   0.051   1.080   1.313 -1.5980  1.0811 -0.0159
 1737SOL    MW4 6995   0.017   1.036   1.381 -0.4473 -0.1540 -0.2311
 1738SOL     OW 6996   2.929   3.132   3.141 -0.0199  0.2198  0.5296
 1738SOL    HW2 6997   2.853   3.099   3.093  0.6514 -2.2052  1.0546
 1738SOL    HW3 6998   2.993   3.151   3.073  0.1291 -1.0816  0.2822
 1738SOL    MW4 6999   2.927   3.130   3.126  0.0887 -0.2720  0.5662
 1739SOL     OW 7000   4.259   2.407   1.733 -0.1410 -0.3769 -0.2627
 1739SOL    HW2 7001   4.236   2.436   1.821  1.4109  0.6737 -0.1785
 1739SOL    HW3 7002   4.236   2.481   1.677  2.8639  0.6989 -0.1738
 1739SOL    MW4 7003   4.253   2.421   1.737  0.4606 -0.0963 -0.2400
 1740SOL     OW 7004   1.539   3.508   4.088 -0.2498  0.6081  0.6193
 1740SOL    HW2 7005   1.522   3.463   4.005  1.1330 -1.3522  1.3382
 1740SOL    HW3 7006   1.612   3.567   4.068 -0.0317  0.2631  0.3789
 1740SOL    MW4 7007   1.547   3.510   4.075 -0.0386  0.3040  0.6828
 1741SOL     OW 7008   1.852   3.249   3.917 -0.3160  0.6909  0.1647
 1741SOL    HW2 7009   1.848   3.168   3.867  1.3509 -1.0461  2.6895
 1741SOL    HW3 7010   1.932   3.242   3.969 -0.4293  3.7030  0.8865
 1741SOL    MW4 7011   1.862   3.238   3.917 -0.1110  0.8593  0.5932
 1742SOL     OW 7012   2.669   2.898   1.823  0.4504  0.6530 -0.0813
 1742SOL    HW2 7013   2.685   2.973   1.765  1.6231 -0.0353 -0.6559
 1742SOL    HW3 7014   2.749   2.846   1.818 -0.1546 -0.3709  0.7370
 1742SOL    MW4 7015   2.681   2.901   1.815  0.5255  0.4275 -0.0491
 1743SOL     OW 7016   3.309   3.808   3.640 -0.0461 -0.5153 -0.0286
 1743SOL    HW2 7017   3.268   3.878   3.691  1.3930  0.1409  0.2683
 1743SOL    HW3 7018   3.368   3.765   3.702  1.5651  0.1524 -1.0357
 1743SOL    MW4 7019   3.312   3.812   3.655  0.3567 -0.3407 -0.1221
 1744SOL     OW 7020   0.800   4.652   0.179 -0.0078 -0.6845  0.2837
 1744SOL    HW2 7021   0.801   4.568   0.226 -0.8113 -0.9427 -0.1536
 1744SOL    HW3 7022   0.737   4.706   0.227 -0.4525 -0.7743 -0.1975
 1744SOL    MW4 7023   0.792   4.648   0.191 -0.1725 -0.7300  0.1625
 1745SOL     OW 7024   4.341   3.723   3.099 -0.3559 -0.0550  0.1418
 1745SOL    HW2 7025   4.272   3.666   3.063 -0.2353  0.3568 -0.7520
 1745SOL    HW3 7026   4.413   3.715   3.036  0.7380 -1.1457  1.5084
 1745SOL    MW4 7027   4.342   3.714   3.086 -0.1955 -0.1445  0.2043
 1746SOL     OW 7028   0.929   1.768   2.805 -0.0265  0.4658  0.3666
 1746SOL    HW2 7029   0.839   1.763   2.773 -0.1943  0.0425  0.9055
 1746SOL    HW3 7030   0.958   1.856   2.779 -0.3838  0.3753 -0.3509
 1746SOL    MW4 7031   0.921   1.779   2.797 -0.0958  0.3980  0.3428
 1747SOL     OW 7032   2.777   3.669   3.047  0.2502 -0.8795 -0.0894
 1747SOL    HW2 7033   2.869   3.651   3.065  0.4218  0.1263  0.0817
 1747SOL    HW3 7034   2.741   3.698   3.132 -0.1184 -0.8734 -0.2462
 1747SOL    MW4 7035   2.784   3.671   3.061  0.2241 -0.7460 -0.0875
 1748SOL     OW 7036   4.482   0.013   0.076 -0.6461  0.1445 -0.2335
 1748SOL    HW2 7037   4.462   0.070   0.150 -0.9863  1.5671 -1.4122
 1748SOL    HW3 7038   4.578   0.012   0.071 -0.6028 -0.4644  0.6015
 1748SOL    MW4 7039   4.492   0.020   0.085 -0.6857  0.2519 -0.2789
 1749SOL     OW 7040   2.226   0.136   3.749 -0.4839 -0.2749  0.5151
 1749SOL    HW2 7041   2.134   0.159   3.735 -0.8909 -1.4530  1.1414
 1749SOL    HW3 7042   2.260   0.123   3.661 -1.3724 -1.4687  0.3290
 1749SOL    MW4 7043   2.218   0.137   3.735 -0.6545 -0.5879  0.5732
 1750SOL     OW 7044   0.485   2.863   1.771 -0.4732  0.1568 -0.1834
 1750SOL    HW2 7045   0.578   2.889   1.776 -0.6168  0.7860 -0.6190
 1750SOL    HW3 7046   0.447   2.897   1.851  0.0103 -1.5424  0.7804
 1750SOL    MW4 7047   0.492   2.871   1.782 -0.4284  0.0160 -0.1137
 1751SOL     OW 7048   3.227   4.135   0.798  0.0263 -0.6760  0.0256
 1751SOL    HW2 7049   3.142   4.139   0.754  0.9592  0.0339 -1.7579
 1751SOL    HW3 7050   3.229   4.048   0.838 -0.4804 -1.7103 -2.1185
 1751SOL    MW4 7051   3.216   4.124   0.797  0.0827 -0.7181 -0.4925
 1752SOL     OW 7052   2.819   3.603   0.891  0.0758 -0.0610  0.0525
 1752SOL    HW2 7053   2.735   3.562   0.911 -0.6267  1.2329 -0.1841
 1752SOL    HW3 7054   2.875   3.530   0.866 -0.4978 -1.1167  1.7621
 1752SOL    MW4 7055   2.815   3.588   0.890 -0.0927 -0.0296  0.2468
 1753SOL     OW 7056   2.028   3.730   3.852 -0.0603  0.1796  0.3611
 1753SOL    HW2 7057   2.018   3.693   3.764  1.4895 -1.0496  0.6926
 1753SOL    HW3 7058   2.080   3.808   3.840  0.4103 -0.1560  0.2267
 1753SOL    MW4 7059   2.033   3.735   3.839  0.2062 -0.0269  0.3872
 1754SOL     OW 7060   0.481   1.066   1.341  0.3744 -0.4697 -0.6086
 1754SOL    HW2 7061   0.412   1.000   1.349 -0.7076  0.7436  0.2512
 1754SOL    HW3 7062   0.447   1.128   1.277  0.4314  0.3937  0.1845
 1754SOL    MW4 7063   0.467   1.066   1.334  0.2392 -0.1959 -0.3905
 1755SOL     OW 7064   0.254   2.565   4.245  0.0572  0.0278 -0.0772
 1755SOL    HW2 7065   0.311   2.554   4.169  1.1396  0.7076  0.6144
 1755SOL    HW3 7066   0.276   2.492   4.302  0.2890  0.3194  0.2118
 1755SOL    MW4 7067   0.265   2.554   4.242  0.2306  0.1562  0.0525
 1756SOL     OW 7068   3.181   2.099   0.831  0.0386 -0.3232  0.2979
 1756SOL    HW2 7069   3.168   2.191   0.851  0.5099 -0.1900 -0.0245
 1756SOL    HW3 7070   3.232   2.098   0.750  0.5573 -0.8661  0.6262
 1756SOL    MW4 7071   3.186   2.111   0.823  0.1693 -0.3777  0.2986
 1757SOL     OW 7072   1.973   1.078   0.505 -0.0315 -0.0358  0.2384
 1757SOL    HW2 7073   1.929   1.147   0.456  0.2858  0.6347  0.8952
 1757SOL    HW3 7074   2.066   1.100   0.500  0.3696 -2.0052 -2.0244
 1757SOL    MW4 7075   1.979   1.090   0.498  0.0633 -0.2071  0.0264
 1758SOL     OW 7076   3.844   0.458   0.338  0.2128 -0.2076 -0.3702
 1758SOL    HW2 7077   3.924   0.454   0.286  0.8813  0.3225  0.6166
 1758SOL    HW3 7078   3.858   0.396   0.409 -0.0814  0.1936  0.0413
 1758SOL    MW4 7079   3.856   0.449   0.340  0.2623 -0.0848 -0.1857
 1759SOL     OW 7080   1.590   3.594   1.669 -0.1125  0.0230 -0.8549
 1759SOL    HW2 7081   1.525   3.619   1.735 -0.4793  0.1318 -1.2590
 1759SOL    HW3 7082   1.632   3.516   1.706 -0.1874  0.1936 -0.4074
 1759SOL    MW4 7083   1.587   3.587   1.683 -0.1707  0.0601 -0.8491
 1760SOL     OW 7084   3.266   1.027   0.168 -0.5002 -0.3820 -0.3772
 1760SOL    HW2 7085   3.236   0.945   0.208 -0.3936 -0.8960 -1.3163
 1760SOL    HW3 7086   3.191   1.056   0.114 -0.9660  0.7654  0.8684
 1760SOL    MW4 7087   3.252   1.020   0.166 -0.5474 -0.2984 -0.3368
 1761SOL     OW 7088   1.692   2.855   2.817  0.3800 -0.3076  0.2074
 1761SOL    HW2 7089   1.641   2.835   2.896  1.3334  1.9196  1.4195
 1761SOL    HW3 7090   1.780   2.823   2.836  0.3239 -0.8683 -0.4485
 1761SOL    MW4 7091   1.697   2.848   2.830  0.4984 -0.0877  0.2806
 1762SOL     OW 7092   3.244   1.484   3.986  0.3349  0.1164  0.1484
 1762SOL    HW2 7093   3.238   1.394   4.017 -0.7475  0.3127  0.5330
 1762SOL    HW3 7094   3.165   1.527   4.020  0.6577  1.1169 -0.3277
 1762SOL    MW4 7095   3.233   1.478   3.995  0.2346  0.2743  0.1366
 1763SOL     OW 7096   1.832   3.783   2.976  0.4083  0.2260  0.5454
 1763SOL    HW2 7097   1.775   3.815   3.047 -1.4407  0.0900 -0.8531
 1763SOL    HW3 7098   1.820   3.847   2.906  0.7133 -0.7092 -0.3654
 1763SOL    MW4 7099   1.823   3.796   2.976  0.2046  0.0846  0.2408
 1764SOL     OW 7100   0.410   4.361   1.264  0.0354  0.2861  0.1934
 1764SOL    HW2 7101   0.458   4.419   1.205 -0.1613  0.8588  0.5980
 1764SOL    HW3 7102   0.358   4.419   1.319  0.0895 -0.2616  0.8289
 1764SOL    MW4 7103   0.409   4.376   1.263  0.0165  0.2894  0.3306
 1765SOL     OW 7104   2.292   2.373   0.406  0.3639  0.3502  0.4445
 1765SOL    HW2 7105   2.305   2.284   0.437 -1.0419 -0.1348 -0.3136
 1765SOL    HW3 7106   2.238   2.364   0.327  0.3799  1.8448  0.2353
 1765SOL    MW4 7107   2.286   2.360   0.400  0.1805  0.4833  0.3169
 1766SOL     OW 7108   3.703   3.768   4.057  0.3032  0.6696 -0.6612
 1766SOL    HW2 7109   3.696   3.710   4.133  0.8993  1.5020  0.0351
 1766SOL    HW3 7110   3.734   3.711   3.987  0.6937  0.1001 -0.0327
 1766SOL    MW4 7111   3.706   3.753   4.058  0.4334  0.7043 -0.4864
 1767SOL     OW 7112   0.017   0.112   3.658 -0.1914  0.0033 -0.5574
 1767SOL    HW2 7113   0.106   0.078   3.653 -0.0216  0.2729  0.3933
 1767SOL    HW3 7114   0.024   0.203   3.630 -0.0260  0.2358  0.2073
 1767SOL    MW4 7115   0.030   0.120   3.654 -0.1472  0.0696 -0.3312
 1768SOL     OW 7116   0.716   3.706   3.242  0.2372  0.1813  0.3944
 1768SOL    HW2 7117   0.704   3.779   3.303 -1.7787  0.1589  0.0400
 1768SOL    HW3 7118   0.780   3.739   3.179 -1.2750  1.9926 -0.2612
 1768SOL    MW4 7119   0.723   3.720   3.242 -0.2282  0.4170  0.2613
 1769SOL     OW 7120   1.391   0.665   0.605 -0.3351  0.3512  0.1502
 1769SOL    HW2 7121   1.463   0.724   0.630 -0.4786 -0.2055  1.9578
 1769SOL    HW3 7122   1.335   0.661   0.683 -1.0983 -1.0167 -0.4463
 1769SOL    MW4 7123   1.393   0.672   0.619 -0.4548  0.0973  0.3100
 1770SOL     OW 7124   2.915   0.202   1.058  0.3448  0.0974 -0.1908
 1770SOL    HW2 7125   2.847   0.191   0.992  0.3637  1.7506 -0.5198
 1770SOL    HW3 7126   2.996   0.177   1.013  0.0370 -1.3737  0.0467
 1770SOL    MW4 7127   2.917   0.197   1.043  0.3066  0.1214 -0.2029
 1771SOL     OW 7128   3.785   4.555   0.478 -0.1577  0.2677  0.4795
 1771SOL    HW2 7129   3.750   4.643   0.490  0.0618  0.5566 -0.8913
 1771SOL    HW3 7130   3.829   4.534   0.560  0.7630  1.8779  0.4021
 1771SOL    MW4 7131   3.786   4.563   0.490 -0.0074  0.5188  0.2884
 1772SOL     OW 7132   0.754   1.862   3.177 -0.3344 -0.5256 -0.0817
 1772SOL    HW2 7133   0.688   1.823   3.118 -0.2890  0.1926 -0.6143
 1772SOL    HW3 7134   0.714   1.944   3.207  0.3960  0.0146 -0.5688
 1772SOL    MW4 7135   0.740   1.868   3.173 -0.2321 -0.3595 -0.2162
 1773SOL     OW 7136   3.380   2.183   3.165  0.2040  0.2975  0.0371
 1773SOL    HW2 7137   3.399   2.240   3.091 -0.3625  0.8379  0.3000
 1773SOL    HW3 7138   3.286   2.169   3.161  0.2696 -0.1945  0.2762
 1773SOL    MW4 7139   3.370   2.189   3.155  0.1380  0.3040  0.1030
 1774SOL     OW 7140   0.698   3.290   0.721  0.0997  0.1410 -0.5281
 1774SOL    HW2 7141   0.735   3.341   0.793  0.0971  0.7133 -0.9354
 1774SOL    HW3 7142   0.703   3.347   0.645 -1.5661  0.2033 -0.6111
 1774SOL    MW4 7143   0.703   3.304   0.721 -0.1205  0.2251 -0.5928
 1775SOL     OW 7144   1.581   0.729   2.399 -0.3014 -0.4036 -0.3116
 1775SOL    HW2 7145   1.592   0.735   2.494  0.0188  2.2146 -0.4661
 1775SOL    HW3 7146   1.670   0.735   2.365 -0.5340  0.1729 -0.8208
 1775SOL    MW4 7147   1.594   0.731   2.407 -0.2897  0.0179 -0.3994
 1776SOL     OW 7148   2.329   2.702   2.848 -0.2364  0.3356  0.1882
 1776SOL    HW2 7149   2.261   2.634   2.844 -0.2267  0.3613 -0.3811
 1776SOL    HW3 7150   2.280   2.784   2.854 -0.2596  0.3602 -0.3051
 1776SOL    MW4 7151   2.314   2.704   2.848 -0.2379  0.3421  0.0479
 1777SOL     OW 7152   3.960   2.760   4.233  0.2684  0.6236  0.2534
 1777SOL    HW2 7153   3.916   2.675   4.229 -0.5874  1.0714  0.2123
 1777SOL    HW3 7154   4.053   2.737   4.244  0.2446 -0.3560 -1.3234
 1777SOL    MW4 7155   3.967   2.745   4.234  0.1523  0.5534  0.0405
 1778SOL     OW 7156   0.042   3.128   1.684  0.0365  0.3459 -0.1593
 1778SOL    HW2 7157   0.045   3.034   1.704 -0.5987  0.5874  1.0787
 1778SOL    HW3 7158   0.092   3.136   1.603 -0.4218 -1.1521 -0.6118
 1778SOL    MW4 7159   0.049   3.117   1.676 -0.1078  0.1800 -0.0557
 1779SOL     OW 7160   2.099   3.841   1.132  0.0151  0.1816 -0.0685
 1779SOL    HW2 7161   2.145   3.919   1.102  0.2935 -0.2349 -0.7249
 1779SOL    HW3 7162   2.155   3.768   1.106 -0.9982 -0.3304 -0.8772
 1779SOL    MW4 7163   2.112   3.841   1.125 -0.0820  0.0589 -0.2619
 1780SOL     OW 7164   0.663   1.678   1.585  0.2451 -0.3671  0.5382
 1780SOL    HW2 7165   0.603   1.604   1.598 -0.9115  0.1116 -1.8125
 1780SOL    HW3 7166   0.626   1.748   1.640 -0.2584 -0.6723  0.5950
 1780SOL    MW4 7167   0.650   1.678   1.594  0.0260 -0.3444  0.2356
 1781SOL     OW 7168   3.613   2.591   0.876 -0.1125  0.5902 -0.6814
 1781SOL    HW2 7169   3.534   2.634   0.909  0.3300 -0.4878  1.9491
 1781SOL    HW3 7170   3.671   2.663   0.851 -0.3731  1.4905  1.2290
 1781SOL    MW4 7171   3.610   2.606   0.877 -0.0885  0.5670 -0.0823
 1782SOL     OW 7172   0.563   1.807   1.816 -0.0463  0.2137 -0.1275
 1782SOL    HW2 7173   0.620   1.879   1.842  0.4258 -0.2640  0.1702
 1782SOL    HW3 7174   0.538   1.765   1.898 -1.3204  0.7847 -0.2091
 1782SOL    MW4 7175   0.567   1.811   1.830 -0.1521  0.2263 -0.0988
 1783SOL     OW 7176   2.317   2.086   3.070 -0.1350  0.0684 -0.2274
 1783SOL    HW2 7177   2.270   2.168   3.061 -0.3980 -0.1737 -1.1135
 1783SOL    HW3 7178   2.250   2.021   3.087 -0.0405 -0.1398 -0.6402
 1783SOL    MW4 7179   2.302   2.088   3.071 -0.1571  0.0091 -0.3986
 1784SOL     OW 7180   1.124   3.255   3.061 -0.2549  0.0075  1.1355
 1784SOL    HW2 7181   1.157   3.193   2.996 -0.8024 -1.3200  2.0816
 1784SOL    HW3 7182   1.052   3.300   3.018 -0.1494 -0.3558  0.5789
 1784SOL    MW4 7183   1.119   3.253   3.047 -0.3133 -0.2155  1.1871
 1785SOL     OW 7184   3.681   1.473   2.784  0.3158  0.0793  0.1181
 1785SOL    HW2 7185   3.621   1.411   2.743 -0.6050  0.3555  1.0335
 1785SOL    HW3 7186   3.692   1.542   2.719  0.3198 -0.3954 -0.3883
 1785SOL    MW4 7187   3.675   1.474   2.770  0.1945  0.0532  0.1721
 1786SOL     OW 7188   0.584   1.809   0.576 -0.2936 -0.1583 -0.0773
 1786SOL    HW2 7189   0.626   1.872   0.635 -2.2558 -0.7061  1.9436
 1786SOL    HW3 7190   0.541   1.864   0.510  0.6181  0.4946 -0.1503
 1786SOL    MW4 7191   0.584   1.825   0.575 -0.4323 -0.1444  0.1798
 1787SOL     OW 7192   2.498   4.401   2.563 -0.3847  0.0603  0.1737
 1787SOL    HW2 7193   2.439   4.327   2.574 -3.0619  1.6264 -2.7919
 1787SOL    HW3 7194   2.459   4.471   2.616  0.0844  0.4434  0.0205
 1787SOL    MW4 7195   2.485   4.401   2.571 -0.6759  0.3171 -0.2375
 1788SOL     OW 7196   1.682   1.548   2.059 -0.4053  0.4317 -0.2616
 1788SOL    HW2 7197   1.751   1.486   2.083 -1.5508 -0.3518  1.0507
 1788SOL    HW3 7198   1.729   1.630   2.044  0.7681  0.0756  1.2538
 1788SOL    MW4 7199   1.698   1.551   2.060 -0.4016  0.2813  0.1113
 1789SOL     OW 7200   2.966   1.763   2.054  0.0483  0.5144 -0.3413
 1789SOL    HW2 7201   3.059   1.745   2.066 -0.2429 -0.7463  0.1333
 1789SOL    HW3 7202   2.947   1.835   2.113  1.1328  2.0944 -1.8575
 1789SOL    MW4 7203   2.976   1.770   2.063  0.1531  0.5566 -0.4785
 1790SOL     OW 7204   2.570   3.284   2.855  0.3424  0.1240  0.4441
 1790SOL    HW2 7205   2.585   3.195   2.824  0.6090  0.3481 -0.0749
 1790SOL    HW3 7206   2.510   3.323   2.792  0.6811  0.4976  0.3462
 1790SOL    MW4 7207   2.564   3.278   2.843  0.4222  0.2029  0.3626
 1791SOL     OW 7208   0.917   0.080   4.078 -0.2505  0.3324 -0.0184
 1791SOL    HW2 7209   0.835   0.097   4.124 -1.1819  0.9274 -1.8981
 1791SOL    HW3 7210   0.973   0.154   4.100  0.5546 -1.0610  2.9172
 1791SOL    MW4 7211   0.914   0.092   4.087 -0.2672  0.2271  0.1211
 1792SOL     OW 7212   0.611   4.014   3.661  0.3748 -0.1762 -0.2221
 1792SOL    HW2 7213   0.549   4.045   3.727  0.0144  0.5657 -0.9069
 1792SOL    HW3 7214   0.632   3.925   3.689 -0.0628  0.0022  0.6894
 1792SOL    MW4 7215   0.605   4.006   3.674  0.2695 -0.0548 -0.1924
 1793SOL     OW 7216   1.179   3.556   0.628  0.2578 -0.3725 -0.0537
 1793SOL    HW2 7217   1.093   3.595   0.611  1.2409  2.1686  0.5808
 1793SOL    HW3 7218   1.214   3.606   0.701  1.9721 -1.9037  0.2115
 1793SOL    MW4 7219   1.173   3.568   0.635  0.6137 -0.2394  0.0650
 1794SOL     OW 7220   3.464   0.575   3.078  0.0908 -0.1581  0.7053
 1794SOL    HW2 7221   3.423   0.513   3.018 -0.2747 -0.8270  1.6430
 1794SOL    HW3 7222   3.558   0.554   3.074  0.0762 -0.1440  0.2999
 1794SOL    MW4 7223   3.471   0.564   3.069  0.0408 -0.2444  0.7753
 1795SOL     OW 7224   0.281   0.746   4.173  0.1464  0.3830 -0.4384
 1795SOL    HW2 7225   0.210   0.802   4.205  1.5621  1.6480  0.5859
 1795SOL    HW3 7226   0.299   0.779   4.085 -0.4722  0.1228 -0.6621
 1795SOL    MW4 7227   0.274   0.758   4.166  0.2516  0.5155 -0.3328
 1796SOL     OW 7228   1.656   4.055   3.406  0.2386 -0.0322  0.4175
 1796SOL    HW2 7229   1.581   4.112   3.416  0.3215  0.2367 -0.4927
 1796SOL    HW3 7230   1.635   3.978   3.460 -0.4263  0.2883  0.6168
 1796SOL    MW4 7231   1.643   4.052   3.415  0.1619  0.0453  0.3238
 1797SOL     OW 7232   0.539   3.763   0.884  0.1820  0.4799 -0.3858
 1797SOL    HW2 7233   0.478   3.832   0.909  1.5831  1.0551  1.5839
 1797SOL    HW3 7234   0.616   3.778   0.939 -0.1498 -3.7215  1.4564
 1797SOL    MW4 7235   0.541   3.774   0.895  0.3230  0.0017  0.1171
 1798SOL     OW 7236   0.390   4.406   2.270 -0.0906  0.0049  0.0726
 1798SOL    HW2 7237   0.464   4.388   2.212  0.7754 -0.2092  1.2284
 1798SOL    HW3 7238   0.427   4.458   2.341 -1.5683  2.1109 -0.6458
 1798SOL    MW4 7239   0.405   4.410   2.272 -0.1713  0.2546  0.1302
 1799SOL     OW 7240   1.297   4.000   3.901 -0.1665  0.2123  0.8215
 1799SOL    HW2 7241   1.357   4.065   3.936 -0.3684  0.7666  0.1503
 1799SOL    HW3 7242   1.253   3.964   3.979 -0.2258  1.0444  1.1760
 1799SOL    MW4 7243   1.299   4.004   3.916 -0.2010  0.3953  0.7796
 1800SOL     OW 7244   2.326   3.075   3.509 -0.3016  0.2068 -0.1828
 1800SOL    HW2 7245   2.332   3.123   3.426 -0.0381 -0.7734 -0.7370
 1800SOL    HW3 7246   2.328   2.983   3.484  4.7642 -0.2038  1.2350
 1800SOL    MW4 7247   2.327   3.069   3.495  0.4015  0.0234 -0.0691
 1801SOL     OW 7248   0.398   3.584   2.818 -0.4583 -0.5213 -0.2242
 1801SOL    HW2 7249   0.373   3.527   2.745 -0.1535  0.8415 -1.4171
 1801SOL    HW3 7250   0.364   3.670   2.794  3.9672  1.0668 -1.1897
 1801SOL    MW4 7251   0.390   3.587   2.805  0.1658 -0.1321 -0.5088
 1802SOL     OW 7252   3.551   1.761   0.137 -0.1008 -0.0818  0.2211
 1802SOL    HW2 7253   3.513   1.848   0.124 -0.1168 -0.3440 -1.6518
 1802SOL    HW3 7254   3.478   1.701   0.125 -0.0743 -0.3543  1.4356
 1802SOL    MW4 7255   3.536   1.765   0.134 -0.0994 -0.1523  0.1342
 1803SOL     OW 7256   2.837   1.814   2.569  0.6673 -0.2120 -0.1249
 1803SOL    HW2 7257   2.906   1.795   2.506  0.1831 -0.1097 -0.6967
 1803SOL    HW3 7258   2.766   1.851   2.516  0.7862  1.2033  0.6648
 1803SOL    MW4 7259   2.837   1.817   2.554  0.6189 -0.0118 -0.0961
 1804SOL     OW 7260   3.259   1.747   1.473  0.2922 -0.1739 -0.0547
 1804SOL    HW2 7261   3.265   1.659   1.436 -0.2521 -0.2651  0.0671
 1804SOL    HW3 7262   3.221   1.800   1.402  0.5014 -0.0609 -0.0844
 1804SOL    MW4 7263   3.255   1.742   1.459  0.2482 -0.1708 -0.0426
 1805SOL     OW 7264   0.866   0.332   0.329 -0.1080  0.3410  0.6769
 1805SOL    HW2 7265   0.898   0.252   0.370 -0.7708 -0.1442  0.2479
 1805SOL    HW3 7266   0.919   0.402   0.368  0.0148 -0.2344  1.5395
 1805SOL    MW4 7267   0.877   0.331   0.340 -0.1792  0.2010  0.7341
 1806SOL     OW 7268   4.155   3.381   1.791 -0.6805 -0.6108 -0.0726
 1806SOL    HW2 7269   4.185   3.376   1.882 -0.9387 -0.1340  0.0387
 1806SOL    HW3 7270   4.133   3.473   1.778 -0.5767 -0.6624 -0.6408
 1806SOL    MW4 7271   4.156   3.392   1.802 -0.7005 -0.5548 -0.1330
 1807SOL     OW 7272   2.253   3.249   0.805  0.3268  0.3368  0.4831
 1807SOL    HW2 7273   2.286   3.339   0.796  1.3531 -0.0313  0.4992
 1807SOL    HW3 7274   2.158   3.258   0.796  0.4649  1.3475 -0.1171
 1807SOL    MW4 7275   2.245   3.262   0.802  0.4804  0.4215  0.4061
 1808SOL     OW 7276   3.591   0.936   4.006  0.3215  0.0595  0.1836
 1808SOL    HW2 7277   3.587   0.899   4.094 -0.2532  0.4887  0.3384
 1808SOL    HW3 7278   3.521   1.001   4.004  0.5115  0.2459 -0.5007
 1808SOL    MW4 7279   3.581   0.940   4.017  0.2706  0.1407  0.1140
 1809SOL     OW 7280   0.002   3.535   1.685  0.0012  0.4971 -0.2976
 1809SOL    HW2 7281   0.062   3.594   1.639 -0.2451  0.8483 -0.1610
 1809SOL    HW3 7282  -0.035   3.588   1.756  0.0915  0.0645  0.0745
 1809SOL    MW4 7283   0.005   3.550   1.688 -0.0196  0.4864 -0.2306
 1810SOL     OW 7284   2.689   2.283   2.128 -0.1813 -0.1078 -0.0148
 1810SOL    HW2 7285   2.682   2.291   2.033 -0.7151  0.4976  0.0732
 1810SOL    HW3 7286   2.604   2.250   2.156  0.1716 -0.8593  0.1980
 1810SOL    MW4 7287   2.677   2.280   2.119 -0.2055 -0.1273  0.0250
 1811SOL     OW 7288   2.965   4.109   0.718  0.1048  0.1653 -0.2303
 1811SOL    HW2 7289   2.895   4.156   0.764  0.3540  0.0694  0.2472
 1811SOL    HW3 7290   2.946   4.017   0.733  0.8644  0.1555  0.6951
 1811SOL    MW4 7291   2.953   4.103   0.726  0.2379  0.1516 -0.0452
 1812SOL     OW 7292   1.399   3.493   2.650  0.4878  0.1843  0.5694
 1812SOL    HW2 7293   1.433   3.491   2.560 -1.3999  1.3445 -0.1793
 1812SOL    HW3 7294   1.340   3.418   2.655 -0.0771  0.6282  0.5703
 1812SOL    MW4 7295   1.396   3.483   2.639  0.1643  0.3963  0.4709
 1813SOL     OW 7296   0.837   2.189   4.187  0.3614 -0.0253 -0.1342
 1813SOL    HW2 7297   0.904   2.157   4.248 -1.0381 -1.1487  0.8597
 1813SOL    HW3 7298   0.813   2.111   4.136 -0.5686  0.2311 -0.0943
 1813SOL    MW4 7299   0.843   2.174   4.189  0.0541 -0.1397  0.0024
 1814SOL     OW 7300   4.462   1.842   3.213  0.2901 -0.2987 -0.4953
 1814SOL    HW2 7301   4.446   1.927   3.254  0.2565  0.0630 -1.2551
 1814SOL    HW3 7302   4.505   1.790   3.281  0.5535  0.4142 -0.1152
 1814SOL    MW4 7303   4.465   1.846   3.227  0.3204 -0.1569 -0.5453
 1815SOL     OW 7304   2.771   4.563   2.931 -0.4161 -0.0105  0.4306
 1815SOL    HW2 7305   2.726   4.634   2.884 -0.2806 -0.5628 -0.5365
 1815SOL    HW3 7306   2.864   4.582   2.919 -0.3818 -0.1445  0.4884
 1815SOL    MW4 7307   2.777   4.575   2.923 -0.3939 -0.1006  0.3104
 1816SOL     OW 7308   1.217   0.398   3.449  1.2536  0.0798 -0.6954
 1816SOL    HW2 7309   1.147   0.336   3.469  2.5704 -1.6720 -1.3355
 1816SOL    HW3 7310   1.199   0.474   3.503 -0.4741 -0.8236  0.0238
 1816SOL    MW4 7311   1.206   0.400   3.458  1.1992 -0.2706 -0.6852
 1817SOL     OW 7312   0.757   1.563   2.089 -0.3607  0.6395  0.3721
 1817SOL    HW2 7313   0.795   1.609   2.014  0.3216  0.0025  0.3236
 1817SOL    HW3 7314   0.748   1.472   2.061 -0.2227  0.4199  1.0148
 1817SOL    MW4 7315   0.761   1.557   2.076 -0.2524  0.5264  0.4501
 1818SOL     OW 7316   0.925   2.443   2.704  0.1713 -0.0729 -0.1546
 1818SOL    HW2 7317   0.892   2.486   2.783  1.6585  2.0434 -0.6174
 1818SOL    HW3 7318   0.847   2.414   2.658 -0.9461  2.4486  0.0662
 1818SOL    MW4 7319   0.910   2.445   2.708  0.2201  0.5388 -0.1867
 1819SOL     OW 7320   0.612   3.538   1.906 -0.4683 -0.2982 -0.6751
 1819SOL    HW2 7321   0.560   3.493   1.973 -1.7800  0.4997 -1.1451
 1819SOL    HW3 7322   0.558   3.535   1.827  0.4723 -0.0019 -1.3430
 1819SOL    MW4 7323   0.598   3.531   1.904 -0.5172 -0.1538 -0.8252
 1820SOL     OW 7324   2.092   0.594   3.009 -0.1890  0.1126 -0.0580
 1820SOL    HW2 7325   2.150   0.594   3.085 -1.3334  0.2490  0.8404
 1820SOL    HW3 7326   2.056   0.683   3.006  0.6343  0.4170 -1.3828
 1820SOL    MW4 7327   2.095   0.606   3.019 -0.2313  0.1708 -0.1142
 1821SOL     OW 7328   3.408   1.964   2.216 -0.0321  0.5908  0.4606
 1821SOL    HW2 7329   3.447   1.929   2.296 -0.2563  0.9246  0.7215
 1821SOL    HW3 7330   3.479   2.015   2.175  0.4475 -0.5927 -0.1907
 1821SOL    MW4 7331   3.423   1.966   2.221  0.0014  0.4786  0.4089
 1822SOL     OW 7332   0.879   0.472   0.987 -0.4198  0.0615  0.2396
 1822SOL    HW2 7333   0.922   0.414   1.050  0.5389 -0.4217 -0.8410
 1822SOL    HW3 7334   0.790   0.481   1.019  0.0259 -0.2647  1.6076
 1822SOL    MW4 7335   0.873   0.466   0.999 -0.2345 -0.0452  0.2775
 1823SOL     OW 7336   3.856   1.963   2.735  0.0617 -0.1796  0.2799
 1823SOL    HW2 7337   3.816   1.899   2.676  1.6233 -0.5824 -0.3704
 1823SOL    HW3 7338   3.869   1.915   2.817  1.1763 -0.7127 -0.1879
 1823SOL    MW4 7339   3.853   1.948   2.738  0.4148 -0.3030  0.1326
 1824SOL     OW 7340   2.023   0.861   3.016 -0.2074 -0.3098 -0.0870
 1824SOL    HW2 7341   2.018   0.904   3.101  0.2162  2.1993 -1.2650
 1824SOL    HW3 7342   1.938   0.879   2.976 -0.1507 -0.8871 -0.4690
 1824SOL    MW4 7343   2.011   0.869   3.022 -0.1440 -0.0550 -0.2925
 1825SOL     OW 7344   4.091   1.507   1.595 -0.5107  0.4194  0.0288
 1825SOL    HW2 7345   4.029   1.498   1.523 -1.9243  0.0190  1.2856
 1825SOL    HW3 7346   4.044   1.477   1.672  0.6381  1.8002  1.3134
 1825SOL    MW4 7347   4.077   1.502   1.595 -0.5455  0.5487  0.3642
 1826SOL     OW 7348   3.280   3.593   1.872  0.0621  0.1917 -0.1362
 1826SOL    HW2 7349   3.208   3.529   1.876  1.8308 -1.9519 -1.1987
 1826SOL    HW3 7350   3.336   3.570   1.947  0.1062  1.2621  0.1590
 1826SOL    MW4 7351   3.278   3.581   1.883  0.3014  0.0501 -0.2375
 1827SOL     OW 7352   3.004   4.491   1.661  0.0798  0.0698  0.5030
 1827SOL    HW2 7353   3.054   4.425   1.612 -0.1798  1.1825 -1.3296
 1827SOL    HW3 7354   2.949   4.533   1.594 -0.2023  1.7195  1.7413
 1827SOL    MW4 7355   3.003   4.488   1.645  0.0081  0.4344  0.4246
 1828SOL     OW 7356   0.939   0.872   0.481 -0.0299 -0.1985 -0.0999
 1828SOL    HW2 7357   1.031   0.855   0.465 -0.2760 -0.6117 -1.1372
 1828SOL    HW3 7358   0.927   0.857   0.574  1.2101  1.0671  0.2904
 1828SOL    MW4 7359   0.949   0.868   0.491  0.1012 -0.0861 -0.1853
 1829SOL     OW 7360   3.719   4.519   1.521 -0.3451  0.0305 -0.1400
 1829SOL    HW2 7361   3.735   4.557   1.435 -2.1023  0.8195 -0.1437
 1829SOL    HW3 7362   3.647   4.458   1.507 -0.0230 -0.5203  0.5957
 1829SOL    MW4 7363   3.712   4.516   1.508 -0.5345  0.0620 -0.0434
 1830SOL     OW 7364   0.071   0.991   3.945  0.1227 -0.3027  0.1458
 1830SOL    HW2 7365   0.003   0.970   3.882 -0.4090 -0.4394  0.7635
 1830SOL    HW3 7366   0.083   1.086   3.937  0.1064 -0.3304 -0.2040
 1830SOL    MW4 7367   0.064   1.001   3.936  0.0503 -0.3242  0.1810
 1831SOL     OW 7368   2.506   1.931   2.921  0.2484 -0.1544  0.2024
 1831SOL    HW2 7369   2.590   1.972   2.944  0.4242 -2.1193  3.3505
 1831SOL    HW3 7370   2.441   1.984   2.967 -0.1920  0.7544 -1.4221
 1831SOL    MW4 7371   2.508   1.944   2.931  0.2134 -0.2937  0.4034
 1832SOL     OW 7372   4.381   3.456   2.436  0.3609  0.6295 -0.2784
 1832SOL    HW2 7373   4.315   3.386   2.437  2.1611 -1.1156 -0.5353
 1832SOL    HW3 7374   4.436   3.439   2.512  1.0342  1.5717 -0.5445
 1832SOL    MW4 7375   4.380   3.444   2.446  0.6871  0.5236 -0.3474
 1833SOL     OW 7376   1.110   2.827   1.303 -0.0565  0.1984  0.9282
 1833SOL    HW2 7377   1.132   2.849   1.213  0.5884 -2.2595  0.4481
 1833SOL    HW3 7378   1.019   2.799   1.300  0.1644 -0.5395  0.8976
 1833SOL    MW4 7379   1.101   2.826   1.291  0.0578 -0.2236  0.8607
 1834SOL     OW 7380   0.374   1.627   3.599 -0.0315 -0.1153  0.2069
 1834SOL    HW2 7381   0.283   1.640   3.628 -0.9088 -0.9687 -2.0448
 1834SOL    HW3 7382   0.381   1.679   3.519  1.5242  0.0564  0.4428
 1834SOL    MW4 7383   0.363   1.635   3.592  0.0580 -0.2052 -0.0589
 1835SOL     OW 7384   3.528   2.285   1.418 -0.2437  0.5660 -0.3703
 1835SOL    HW2 7385   3.490   2.213   1.468 -1.1060  1.1461 -0.1797
 1835SOL    HW3 7386   3.611   2.251   1.386 -0.8445 -0.6627 -0.6465
 1835SOL    MW4 7387   3.534   2.271   1.420 -0.4365  0.4804 -0.3815
 1836SOL     OW 7388   1.676   3.874   2.460 -0.3769 -0.0623 -0.3817
 1836SOL    HW2 7389   1.686   3.891   2.366 -0.2843  2.1837 -0.0112
 1836SOL    HW3 7390   1.602   3.929   2.486 -0.4876 -0.7692  0.8284
 1836SOL    MW4 7391   1.668   3.884   2.451 -0.3793  0.1409 -0.1733
 1837SOL     OW 7392   2.321   3.383   1.191 -0.4585  0.3056 -0.1504
 1837SOL    HW2 7393   2.379   3.316   1.155 -0.0936  1.8341 -2.5357
 1837SOL    HW3 7394   2.241   3.336   1.214  1.0599 -1.5292  1.5545
 1837SOL    MW4 7395   2.319   3.368   1.189 -0.2103  0.2651 -0.2401
 1838SOL     OW 7396   1.276   0.211   1.591 -0.5988  0.3072  0.5241
 1838SOL    HW2 7397   1.321   0.142   1.639  2.4104  0.8920 -1.3393
 1838SOL    HW3 7398   1.283   0.288   1.647  1.8276  0.6787 -0.2131
 1838SOL    MW4 7399   1.283   0.212   1.604  0.1184  0.4333  0.1811
 1839SOL     OW 7400   1.129   4.425   0.323 -0.6761 -0.2543 -0.1633
 1839SOL    HW2 7401   1.167   4.436   0.410  0.9385 -0.8021 -0.7631
 1839SOL    HW3 7402   1.135   4.512   0.283 -1.0990 -0.0814  0.1544
 1839SOL    MW4 7403   1.135   4.438   0.329 -0.5189 -0.3037 -0.2005
 1840SOL     OW 7404   2.238   0.288   4.345 -0.1062 -0.0632 -0.4744
 1840SOL    HW2 7405   2.306   0.270   4.279  0.9940  0.2195  0.5579
 1840SOL    HW3 7406   2.259   0.228   4.416  0.7972  1.9977  1.0534
 1840SOL    MW4 7407   2.250   0.278   4.345  0.1583  0.2460 -0.1364
 1841SOL     OW 7408   2.851   0.254   4.350  0.0727  0.0929 -0.3467
 1841SOL    HW2 7409   2.894   0.298   4.424 -1.7493  0.4357  0.5514
 1841SOL    HW3 7410   2.911   0.265   4.277  1.4508  0.6400  0.8444
 1841SOL    MW4 7411   2.865   0.261   4.350  0.0141  0.2103 -0.0710
 1842SOL     OW 7412   4.326   2.878   3.343  0.2472 -0.3599  0.1854
 1842SOL    HW2 7413   4.260   2.947   3.344  1.4828  0.8391  0.5062
 1842SOL    HW3 7414   4.329   2.848   3.252 -0.1356  0.1688 -0.0002
 1842SOL    MW4 7415   4.318   2.883   3.331  0.3605 -0.1321  0.2034
 1843SOL     OW 7416   2.666   2.334   1.359  0.4680  0.5025 -0.2983
 1843SOL    HW2 7417   2.741   2.380   1.322  0.2303  0.6652 -0.5778
 1843SOL    HW3 7418   2.664   2.251   1.312  0.1373  0.7291 -0.6823
 1843SOL    MW4 7419   2.676   2.329   1.348  0.3934  0.5538 -0.3858
 1844SOL     OW 7420   4.201   4.024   2.580  0.6794  0.1393  0.0923
 1844SOL    HW2 7421   4.255   3.969   2.637  0.3814 -0.0976  0.1465
 1844SOL    HW3 7422   4.153   3.962   2.526  0.1413  0.3451  0.3349
 1844SOL    MW4 7423   4.202   4.009   2.580  0.5698  0.1354  0.1316
 1845SOL     OW 7424   2.556   2.279   1.624 -0.1460 -0.7721  0.2113
 1845SOL    HW2 7425   2.595   2.306   1.540 -1.4444 -0.1487 -0.2072
 1845SOL    HW3 7426   2.486   2.218   1.599 -2.4167  1.5906  0.6055
 1845SOL    MW4 7427   2.552   2.275   1.609 -0.6170 -0.3781  0.2080
 1846SOL     OW 7428   3.614   1.582   2.198  0.1316  0.5203 -0.2622
 1846SOL    HW2 7429   3.630   1.510   2.137 -1.6325 -1.2212  1.2699
 1846SOL    HW3 7430   3.697   1.594   2.244  0.0853 -1.3767  0.3366
 1846SOL    MW4 7431   3.627   1.574   2.196 -0.1068  0.0403  0.0191
 1847SOL     OW 7432   2.317   3.262   0.536 -0.1083 -0.1648  0.6971
 1847SOL    HW2 7433   2.292   3.175   0.504  0.7243 -0.4822  0.8846
 1847SOL    HW3 7434   2.297   3.259   0.630  3.2688 -1.4412  1.4406
 1847SOL    MW4 7435   2.311   3.250   0.544  0.4470 -0.3753  0.8200
 1848SOL     OW 7436   0.469   4.070   2.159  0.0692  0.3431 -0.3451
 1848SOL    HW2 7437   0.531   4.142   2.147 -0.0573  0.6892  1.0567
 1848SOL    HW3 7438   0.524   3.992   2.166  0.3869  0.7063  1.3724
 1848SOL    MW4 7439   0.485   4.069   2.158  0.0945  0.4368  0.0665
 1849SOL     OW 7440   3.100   0.320   2.646  0.7462  0.0523 -0.0801
 1849SOL    HW2 7441   3.155   0.356   2.577 -0.4131  0.0538 -1.0141
 1849SOL    HW3 7442   3.087   0.228   2.621 -0.6938  0.3706 -0.5169
 1849SOL    MW4 7443   3.106   0.313   2.634  0.4032  0.0945 -0.2611
 1850SOL     OW 7444   1.773   0.790   0.759 -0.1425  0.4711  0.0222
 1850SOL    HW2 7445   1.748   0.699   0.776  1.4741 -0.3141 -1.5364
 1850SOL    HW3 7446   1.823   0.816   0.836 -2.0092  0.6179  1.2169
 1850SOL    MW4 7447   1.776   0.781   0.771 -0.1754  0.3868 -0.0257
 1851SOL     OW 7448   0.372   3.862   2.711 -1.0186  0.4443  0.1150
 1851SOL    HW2 7449   0.408   3.936   2.760  0.3650  1.6625 -2.6016
 1851SOL    HW3 7450   0.296   3.899   2.665 -0.6939  0.0393 -0.7591
 1851SOL    MW4 7451   0.366   3.877   2.712 -0.7932  0.5517 -0.3588
 1852SOL     OW 7452   0.048   1.417   3.744 -0.5152 -0.0504  0.2876
 1852SOL    HW2 7453  -0.039   1.426   3.783 -0.7115 -0.1383 -0.1329
 1852SOL    HW3 7454   0.081   1.507   3.739  0.3039 -0.1827  2.4455
 1852SOL    MW4 7455   0.041   1.430   3.749 -0.4330 -0.0795  0.5169
 1853SOL     OW 7456   2.464   0.180   0.858 -0.3982  0.0827 -0.0953
 1853SOL    HW2 7457   2.450   0.254   0.800 -0.9663  0.5785  0.6713
 1853SOL    HW3 7458   2.559   0.165   0.856 -0.4983 -0.3369 -1.6740
 1853SOL    MW4 7459   2.475   0.187   0.850 -0.4864  0.0928 -0.2025
 1854SOL     OW 7460   0.142   1.252   3.959  0.0971 -0.3290 -0.7978
 1854SOL    HW2 7461   0.207   1.302   4.008 -0.9427 -0.2615  0.5412
 1854SOL    HW3 7462   0.099   1.316   3.903 -0.7021  0.1481  0.3474
 1854SOL    MW4 7463   0.145   1.267   3.958 -0.1455 -0.2571 -0.4699
 1855SOL     OW 7464   4.026   0.752   4.099 -0.3880  0.1895  0.3145
 1855SOL    HW2 7465   4.056   0.801   4.022  0.4127 -3.0267 -1.5218
 1855SOL    HW3 7466   3.943   0.793   4.123 -0.3085  1.6893 -1.8525
 1855SOL    MW4 7467   4.019   0.764   4.092 -0.2718 -0.0370 -0.2136
 1856SOL     OW 7468   1.712   1.091   4.078  0.0049 -0.2326 -0.0240
 1856SOL    HW2 7469   1.651   1.158   4.047 -0.5590 -1.2199 -1.1346
 1856SOL    HW3 7470   1.792   1.107   4.029 -0.3109 -0.6916 -0.7101
 1856SOL    MW4 7471   1.714   1.102   4.067 -0.1111 -0.4234 -0.2613
 1857SOL     OW 7472   1.355   0.928   4.120 -0.0524 -0.0479 -0.0527
 1857SOL    HW2 7473   1.436   0.893   4.157 -0.1854  0.1464  0.4241
 1857SOL    HW3 7474   1.295   0.853   4.119  1.6793 -1.5917 -5.1770
 1857SOL    MW4 7475   1.358   0.913   4.125  0.1585 -0.2259 -0.6657
 1858SOL     OW 7476   3.221   1.373   3.709 -0.1039  0.1518  0.0062
 1858SOL    HW2 7477   3.306   1.338   3.682 -1.0597 -1.8441 -0.5262
 1858SOL    HW3 7478   3.240   1.423   3.789  1.5320 -0.4933  0.0405
 1858SOL    MW4 7479   3.235   1.375   3.716 -0.0141 -0.1967 -0.0598
 1859SOL     OW 7480   2.257   3.635   1.039 -0.3776 -0.4012 -0.4746
 1859SOL    HW2 7481   2.329   3.697   1.047 -0.7497  0.0371 -0.5079
 1859SOL    HW3 7482   2.280   3.564   1.098 -0.4792  0.2759  0.3945
 1859SOL    MW4 7483   2.270   3.634   1.047 -0.4404 -0.2542 -0.3643
 1860SOL     OW 7484   1.574   1.765   0.637  0.1566  0.3096  0.8546
 1860SOL    HW2 7485   1.505   1.749   0.572  0.8999 -0.0838  0.1457
 1860SOL    HW3 7486   1.530   1.809   0.709 -1.3680 -2.1597  1.4963
 1860SOL    MW4 7487   1.559   1.768   0.638  0.0536 -0.0681  0.8457
 1861SOL     OW 7488   1.686   2.992   4.092 -0.1317 -0.0411 -0.2422
 1861SOL    HW2 7489   1.610   3.001   4.034  0.3322  0.1445 -0.8274
 1861SOL    HW3 7490   1.690   3.074   4.140  1.1520  0.9597 -1.9930
 1861SOL    MW4 7491   1.676   3.004   4.091  0.0989  0.1154 -0.5503
 1862SOL     OW 7492   0.196   4.044   2.918 -0.2577 -0.3311 -0.0094
 1862SOL    HW2 7493   0.146   4.090   2.850  0.4383  0.6780  0.1402
 1862SOL    HW3 7494   0.284   4.082   2.912 -0.5375  0.7887  2.3896
 1862SOL    MW4 7495   0.201   4.055   2.908 -0.2028 -0.0505  0.3266
 1863SOL     OW 7496   0.211   1.281   2.885  0.0440 -0.4230 -0.0822
 1863SOL    HW2 7497   0.304   1.281   2.910 -0.0265  0.1616  0.1810
 1863SOL    HW3 7498   0.191   1.373   2.869 -0.5563 -0.5257  0.0876
 1863SOL    MW4 7499   0.221   1.293   2.886 -0.0445 -0.3594 -0.0250
 1864SOL     OW 7500   2.115   4.291   1.034  0.2428  0.2039  0.1899
 1864SOL    HW2 7501   2.141   4.373   0.991  1.0817 -0.0303  0.2443
 1864SOL    HW3 7502   2.065   4.320   1.111  0.2226  0.6554  0.0129
 1864SOL    MW4 7503   2.112   4.306   1.038  0.3507  0.2332  0.1738
 1865SOL     OW 7504   0.278   2.651   2.729 -0.3728 -0.4070  0.0787
 1865SOL    HW2 7505   0.260   2.677   2.639 -0.7158 -0.2292  0.1977
 1865SOL    HW3 7506   0.192   2.648   2.771 -0.2722 -1.1418  0.2234
 1865SOL    MW4 7507   0.264   2.654   2.723 -0.4048 -0.4804  0.1132
 1866SOL     OW 7508   4.025   1.055   3.075 -0.7387 -0.4074 -0.1231
 1866SOL    HW2 7509   4.016   1.093   3.162 -0.8475 -1.0768  0.1576
 1866SOL    HW3 7510   4.056   1.128   3.021  0.4846 -0.2894  0.7184
 1866SOL    MW4 7511   4.028   1.070   3.079 -0.5913 -0.4803  0.0248
 1867SOL     OW 7512   0.061   3.558   0.863 -0.0245  0.0739  0.5705
 1867SOL    HW2 7513   0.091   3.548   0.953  0.4649  0.5517  0.4629
 1867SOL    HW3 7514  -0.008   3.492   0.853  0.9465 -0.9833  0.8337
 1867SOL    MW4 7515   0.056   3.548   0.873  0.1682 -0.0026  0.5910
 1868SOL     OW 7516   3.983   2.718   2.727  0.3149  1.2378  0.0720
 1868SOL    HW2 7517   3.969   2.747   2.817 -2.0789  0.9774 -0.1735
 1868SOL    HW3 7518   3.902   2.741   2.681  0.3333 -1.2061 -1.3277
 1868SOL    MW4 7519   3.970   2.725   2.733  0.0017  0.8812 -0.1452
 1869SOL     OW 7520   1.933   4.115   3.986  0.4381 -0.2961  0.3787
 1869SOL    HW2 7521   2.027   4.128   4.001  0.5788  0.4791 -1.0402
 1869SOL    HW3 7522   1.924   4.120   3.891 -0.9636 -0.9348  0.4731
 1869SOL    MW4 7523   1.944   4.117   3.975  0.2719 -0.2789  0.2041
 1870SOL     OW 7524   0.131   3.840   3.509 -0.3708  0.0797 -0.4701
 1870SOL    HW2 7525   0.053   3.790   3.483 -0.1307 -0.2476 -0.5635
 1870SOL    HW3 7526   0.203   3.796   3.465  0.2885 -1.6513  2.1968
 1870SOL    MW4 7527   0.130   3.827   3.500 -0.2522 -0.1919 -0.1304
 1871SOL     OW 7528   3.051   2.290   3.931  0.5712  0.1696  0.5860
 1871SOL    HW2 7529   2.993   2.318   4.002 -0.3011 -0.6705  0.2220
 1871SOL    HW3 7530   3.052   2.363   3.870 -1.0674 -0.2638  0.0179
 1871SOL    MW4 7531   3.043   2.303   3.933  0.2396  0.0017  0.4632
 1872SOL     OW 7532   3.183   2.950   3.611 -0.2467  0.2123  0.5474
 1872SOL    HW2 7533   3.140   3.010   3.549  0.0500 -1.2189 -1.0779
 1872SOL    HW3 7534   3.156   2.982   3.697  0.4765  3.0999 -0.2564
 1872SOL    MW4 7535   3.174   2.962   3.614 -0.1123  0.4044  0.2270
 1873SOL     OW 7536   2.239   0.042   2.286  0.2985 -0.1850 -0.5624
 1873SOL    HW2 7537   2.167   0.043   2.350  0.9037  0.4993  0.1156
 1873SOL    HW3 7538   2.197   0.066   2.203 -0.1589  0.8290 -0.0550
 1873SOL    MW4 7539   2.224   0.046   2.283  0.3181  0.0391 -0.4058
 1874SOL     OW 7540   4.294   0.442   1.283  0.1464 -0.4413 -0.0937
 1874SOL    HW2 7541   4.333   0.517   1.236  0.1943  0.8740  1.9910
 1874SOL    HW3 7542   4.200   0.459   1.281  0.2589  0.5591  1.7751
 1874SOL    MW4 7543   4.287   0.454   1.276  0.1678 -0.1357  0.4277
 1875SOL     OW 7544   1.984   4.365   3.577  0.3324  0.1407 -0.6091
 1875SOL    HW2 7545   1.920   4.357   3.506  1.5448  0.8162 -1.7923
 1875SOL    HW3 7546   1.974   4.454   3.609  1.1110  0.4543 -1.2235
 1875SOL    MW4 7547   1.974   4.375   3.572  0.5950  0.2713 -0.8461
 1876SOL     OW 7548   0.674   3.478   2.504 -0.6759 -0.5331  0.3636
 1876SOL    HW2 7549   0.746   3.417   2.491  0.0516  0.3748  0.1004
 1876SOL    HW3 7550   0.596   3.429   2.478  0.0820 -0.7861 -1.4810
 1876SOL    MW4 7551   0.673   3.463   2.499 -0.4799 -0.4463  0.0856
 1877SOL     OW 7552   4.077   0.410   0.971  0.0696  0.1247 -0.2819
 1877SOL    HW2 7553   4.015   0.440   1.037 -0.0978  1.1346 -0.8946
 1877SOL    HW3 7554   4.084   0.316   0.986 -0.3651  0.2678  0.8352
 1877SOL    MW4 7555   4.070   0.401   0.981 -0.0100  0.2768 -0.2155
 1878SOL     OW 7556   1.168   1.971   1.062  0.6057  0.1771 -0.2276
 1878SOL    HW2 7557   1.129   1.967   0.974  0.2394  0.2086 -0.0682
 1878SOL    HW3 7558   1.114   2.035   1.108  0.1541 -0.6049  0.3395
 1878SOL    MW4 7559   1.155   1.979   1.056  0.4977  0.0780 -0.1317
 1879SOL     OW 7560   4.482   1.355   0.631 -0.6137  0.1703  0.1984
 1879SOL    HW2 7561   4.532   1.417   0.579 -1.6624  0.2565 -0.7307
 1879SOL    HW3 7562   4.392   1.389   0.630 -1.0156 -0.8428  0.4563
 1879SOL    MW4 7563   4.477   1.367   0.624 -0.8054  0.0479  0.1099
 1880SOL     OW 7564   4.184   1.539   4.064  0.3151  0.4083  0.1265
 1880SOL    HW2 7565   4.146   1.461   4.105  0.9556  0.1538  0.2402
 1880SOL    HW3 7566   4.244   1.574   4.129 -0.6559  1.5286  0.4256
 1880SOL    MW4 7567   4.187   1.533   4.078  0.2713  0.5225  0.1817
 1881SOL     OW 7568   3.127   3.732   2.530  1.1775  0.3018 -0.2234
 1881SOL    HW2 7569   3.222   3.742   2.524  1.3689 -1.2091  0.1557
 1881SOL    HW3 7570   3.101   3.792   2.600  2.0910 -0.6703  0.9667
 1881SOL    MW4 7571   3.136   3.741   2.539  1.3230 -0.0257 -0.0162
 1882SOL     OW 7572   0.233   4.541   3.295  0.1438 -0.1844  0.2270
 1882SOL    HW2 7573   0.303   4.525   3.358  0.1546 -0.9982  0.0134
 1882SOL    HW3 7574   0.265   4.502   3.213 -1.0627 -1.6424  0.4314
 1882SOL    MW4 7575   0.247   4.533   3.292 -0.0139 -0.4840  0.2258
 1883SOL     OW 7576   3.851   4.179   2.794  0.0801 -0.1755 -0.7668
 1883SOL    HW2 7577   3.905   4.218   2.725  2.0675 -0.0125  0.8638
 1883SOL    HW3 7578   3.907   4.113   2.835 -0.9856 -0.0924  0.8729
 1883SOL    MW4 7579   3.865   4.175   2.790  0.2019 -0.1426 -0.3355
 1884SOL     OW 7580   0.796   2.958   3.669  0.2957  0.4094 -0.0420
 1884SOL    HW2 7581   0.866   3.002   3.717  0.2221  1.4082 -0.8466
 1884SOL    HW3 7582   0.738   3.028   3.640  0.5162 -0.1292 -1.8792
 1884SOL    MW4 7583   0.798   2.973   3.672  0.3151  0.4702 -0.3908
 1885SOL     OW 7584   1.148   1.551   1.873  0.1416 -0.0687 -0.0497
 1885SOL    HW2 7585   1.105   1.622   1.826 -0.6015 -1.7123 -1.9419
 1885SOL    HW3 7586   1.227   1.533   1.823  0.9971  0.2658  1.1544
 1885SOL    MW4 7587   1.152   1.558   1.860  0.1563 -0.2414 -0.1405
 1886SOL     OW 7588   2.717   0.526   4.045 -0.2168 -0.3376 -0.2935
 1886SOL    HW2 7589   2.809   0.535   4.023 -0.1700 -0.9928 -0.3923
 1886SOL    HW3 7590   2.717   0.490   4.134 -0.3693 -0.8701 -0.5070
 1886SOL    MW4 7591   2.729   0.522   4.054 -0.2308 -0.4942 -0.3347
 1887SOL     OW 7592   4.182   3.689   1.006 -0.0223  0.4661 -0.0506
 1887SOL    HW2 7593   4.105   3.722   0.959  0.2490  0.7762 -0.2745
 1887SOL    HW3 7594   4.256   3.718   0.954  0.2381 -0.0915  0.0065
 1887SOL    MW4 7595   4.181   3.697   0.993  0.0477  0.4337 -0.0726
 1888SOL     OW 7596   0.720   0.705   1.299  0.0267 -0.1920 -0.0889
 1888SOL    HW2 7597   0.688   0.724   1.387 -0.0093  0.0168 -0.1448
 1888SOL    HW3 7598   0.687   0.779   1.246 -0.4913 -0.6421 -0.4017
 1888SOL    MW4 7599   0.711   0.718   1.304 -0.0464 -0.2238 -0.1376
 1889SOL     OW 7600   0.656   1.769   4.000  0.0231  0.1075  0.1657
 1889SOL    HW2 7601   0.717   1.716   4.052  0.9080  0.7518 -0.2028
 1889SOL    HW3 7602   0.647   1.722   3.918  0.1423  0.0897  0.1624
 1889SOL    MW4 7603   0.663   1.756   3.996  0.1556  0.1901  0.1168
 1890SOL     OW 7604   0.287   1.288   0.508  0.0361 -0.0577 -0.4223
 1890SOL    HW2 7605   0.241   1.244   0.580  0.0838  0.0761 -0.3089
 1890SOL    HW3 7606   0.378   1.259   0.517  0.6830  2.3742  1.4803
 1890SOL    MW4 7607   0.293   1.279   0.519  0.1278  0.2807 -0.1563
 1891SOL     OW 7608   3.082   3.003   3.324  0.1872  0.1119 -0.3750
 1891SOL    HW2 7609   3.028   3.041   3.255 -0.3165  0.0320 -0.0278
 1891SOL    HW3 7610   3.172   3.017   3.294  0.0162  1.7441 -0.1629
 1891SOL    MW4 7611   3.087   3.009   3.311  0.0985  0.3164 -0.3011
 1892SOL     OW 7612   1.324   2.077   0.413  0.3895 -0.1577  0.5827
 1892SOL    HW2 7613   1.266   2.079   0.336  1.5599  1.0923 -0.3002
 1892SOL    HW3 7614   1.288   2.144   0.471  1.4416  1.2632 -0.3634
 1892SOL    MW4 7615   1.312   2.086   0.410  0.6827  0.1945  0.3414
 1893SOL     OW 7616   0.029   2.424   4.161  0.4886 -0.2247 -0.0160
 1893SOL    HW2 7617   0.100   2.483   4.187  1.8381 -1.5006 -0.7288
 1893SOL    HW3 7618  -0.007   2.464   4.081 -0.0380  0.7641  0.6999
 1893SOL    MW4 7619   0.034   2.437   4.154  0.5971 -0.2627 -0.0153
 1894SOL     OW 7620   2.145   0.185   0.500  0.2374 -0.2388 -0.6636
 1894SOL    HW2 7621   2.159   0.276   0.524 -0.6976 -0.0246 -0.8901
 1894SOL    HW3 7622   2.122   0.141   0.582 -0.9986  0.0877 -0.8188
 1894SOL    MW4 7623   2.144   0.191   0.514 -0.0491 -0.1675 -0.7139
 1895SOL     OW 7624   1.510   3.779   2.004 -0.1588 -0.5292 -0.0052
 1895SOL    HW2 7625   1.464   3.833   2.069  1.7813  1.4694 -0.2333
 1895SOL    HW3 7626   1.496   3.825   1.921 -0.3953 -1.6246 -0.5774
 1895SOL    MW4 7627   1.502   3.792   2.001  0.0659 -0.4098 -0.1106
 1896SOL     OW 7628   0.670   4.492   3.823 -0.1507 -0.2561 -0.3117
 1896SOL    HW2 7629   0.672   4.407   3.778  0.9656  0.3849 -1.5109
 1896SOL    HW3 7630   0.632   4.473   3.909 -0.3101 -1.8910 -0.7286
 1896SOL    MW4 7631   0.666   4.478   3.828 -0.0245 -0.3872 -0.5250
 1897SOL     OW 7632   0.133   1.334   0.278 -0.0886  0.0260 -0.4773
 1897SOL    HW2 7633   0.195   1.312   0.347 -0.4025  0.1832 -0.1414
 1897SOL    HW3 7634   0.056   1.280   0.297 -0.0651 -0.1555 -0.8800
 1897SOL    MW4 7635   0.131   1.324   0.289 -0.1269  0.0229 -0.4861
 1898SOL     OW 7636   3.978   2.775   3.004 -0.8259  0.1282 -0.1089
 1898SOL    HW2 7637   3.924   2.775   3.083 -1.7968  0.6888 -0.7674
 1898SOL    HW3 7638   4.066   2.796   3.036 -1.1215 -0.0667  0.8720
 1898SOL    MW4 7639   3.982   2.778   3.019 -0.9930  0.1767 -0.0663
 1899SOL     OW 7640   1.052   0.797   3.068  0.0199  0.1509 -0.3919
 1899SOL    HW2 7641   0.988   0.802   2.996 -0.3255  1.7429  0.0039
 1899SOL    HW3 7642   1.042   0.709   3.103 -1.9727  0.3622 -0.3544
 1899SOL    MW4 7643   1.042   0.786   3.063 -0.2886  0.3888 -0.3347
 1900SOL     OW 7644   0.142   0.823   0.211 -0.5287 -0.0121  0.3481
 1900SOL    HW2 7645   0.112   0.733   0.225 -1.5503  0.2566 -0.0893
 1900SOL    HW3 7646   0.233   0.823   0.242 -0.0637 -1.5591 -0.9699
 1900SOL    MW4 7647   0.150   0.811   0.217 -0.6021 -0.1807  0.1165
 1901SOL     OW 7648   2.000   2.672   1.044  0.2082  0.1060  0.0419
 1901SOL    HW2 7649   2.028   2.594   0.997  0.0746 -1.0295  1.8079
 1901SOL    HW3 7650   1.960   2.639   1.125 -0.6269  1.9570  0.4216
 1901SOL    MW4 7651   1.999   2.657   1.048  0.0803  0.2000  0.3251
 1902SOL     OW 7652   0.601   2.046   1.219  0.1703  0.3685  0.1349
 1902SOL    HW2 7653   0.609   2.123   1.276 -0.9921 -0.0509  0.8640
 1902SOL    HW3 7654   0.690   2.011   1.215  0.8827  2.2275 -0.8894
 1902SOL    MW4 7655   0.614   2.051   1.226  0.1109  0.5584  0.0960
 1903SOL     OW 7656   1.074   1.319   0.344 -0.7532 -0.7121  0.0133
 1903SOL    HW2 7657   1.142   1.270   0.391 -1.4396 -0.9188  0.8247
 1903SOL    HW3 7658   1.112   1.339   0.259  0.1902 -1.1299  0.3321
 1903SOL    MW4 7659   1.088   1.315   0.339 -0.7192 -0.7945  0.1624
 1904SOL     OW 7660   1.489   3.167   3.705 -0.3488  0.1231 -0.3941
 1904SOL    HW2 7661   1.582   3.178   3.688  0.0950 -0.5348  1.4725
 1904SOL    HW3 7662   1.446   3.202   3.627  1.4849 -0.6683 -1.8044
 1904SOL    MW4 7663   1.496   3.173   3.692 -0.0484 -0.0682 -0.3343
 1905SOL     OW 7664   4.243   2.640   4.205 -0.2507 -0.2279  0.0123
 1905SOL    HW2 7665   4.272   2.612   4.118 -2.3709 -0.5649 -0.6019
 1905SOL    HW3 7666   4.271   2.569   4.263  0.6797 -0.2617 -0.4563
 1905SOL    MW4 7667   4.251   2.627   4.201 -0.4077 -0.2768 -0.1307
 1906SOL     OW 7668   2.849   0.070   0.337 -0.8104 -0.1078  0.3227
 1906SOL    HW2 7669   2.770   0.041   0.291 -0.2397  0.8497 -1.2975
 1906SOL    HW3 7670   2.916   0.007   0.310 -0.5314  0.3133  0.0255
 1906SOL    MW4 7671   2.847   0.058   0.327 -0.6983  0.0741  0.0697
 1907SOL     OW 7672   0.464   2.360   0.265  0.0186 -0.0928 -0.3501
 1907SOL    HW2 7673   0.423   2.328   0.345 -0.6270 -2.2400 -1.5017
 1907SOL    HW3 7674   0.407   2.430   0.235 -1.4199 -1.3098 -0.5351
 1907SOL    MW4 7675   0.451   2.365   0.271 -0.2564 -0.5367 -0.5264
 1908SOL     OW 7676   2.933   0.564   2.105  0.0640  0.0813  0.4946
 1908SOL    HW2 7677   2.970   0.550   2.192  1.6342  0.8863 -0.0359
 1908SOL    HW3 7678   2.838   0.554   2.118  0.5129 -3.4204  1.5888
 1908SOL    MW4 7679   2.925   0.561   2.118  0.3302 -0.2745  0.5689
 1909SOL     OW 7680   2.916   1.498   1.565  0.6926 -0.0560 -0.1939
 1909SOL    HW2 7681   2.909   1.533   1.654 -0.9631  0.2765 -0.4449
 1909SOL    HW3 7682   2.941   1.573   1.511  1.9174 -0.3048  0.0151
 1909SOL    MW4 7683   2.919   1.512   1.570  0.6356 -0.0449 -0.1994
 1910SOL     OW 7684   0.472   1.944   4.168 -0.6543 -0.2276 -0.4061
 1910SOL    HW2 7685   0.526   1.898   4.104 -0.8971 -0.5128 -0.4040
 1910SOL    HW3 7686   0.533   2.003   4.213 -0.1713 -1.1941  0.2153
 1910SOL    MW4 7687   0.487   1.946   4.166 -0.6227 -0.3927 -0.3233
 1911SOL     OW 7688   2.599   4.208   1.659 -0.3153 -0.0708 -0.1553
 1911SOL    HW2 7689   2.664   4.140   1.642  0.8223  0.8780  0.3884
 1911SOL    HW3 7690   2.576   4.241   1.572 -0.3109 -0.6289 -0.3686
 1911SOL    MW4 7691   2.605   4.204   1.645 -0.1645 -0.0196 -0.1117
 1912SOL     OW 7692   2.671   1.933   1.574  0.2946  0.0326  0.4126
 1912SOL    HW2 7693   2.639   1.860   1.521 -0.4225  0.0329  0.8421
 1912SOL    HW3 7694   2.605   1.944   1.642  2.0913 -1.1825  2.4550
 1912SOL    MW4 7695   2.658   1.925   1.576  0.4370 -0.1276  0.7389
 1913SOL     OW 7696   0.832   2.594   2.917 -0.5134  0.9294 -0.7963
 1913SOL    HW2 7697   0.768   2.662   2.895 -0.9582  0.0678 -2.2592
 1913SOL    HW3 7698   0.823   2.581   3.011 -1.6867  1.6368 -0.8092
 1913SOL    MW4 7699   0.822   2.601   2.927 -0.7269  0.9091 -0.9911
 1914SOL     OW 7700   0.088   4.059   1.265  0.0927 -0.2953  0.6373
 1914SOL    HW2 7701   0.173   4.052   1.309 -0.6012 -1.8597  1.7988
 1914SOL    HW3 7702   0.036   4.115   1.323 -0.4068 -1.2872  1.1637
 1914SOL    MW4 7703   0.092   4.065   1.279 -0.0648 -0.6328  0.8601
 1915SOL     OW 7704   3.042   1.568   0.977  0.1843  0.1161 -0.3526
 1915SOL    HW2 7705   2.962   1.528   0.942  0.2393  0.2301 -0.6080
 1915SOL    HW3 7706   3.106   1.558   0.908  0.3605  0.1309 -0.1918
 1915SOL    MW4 7707   3.040   1.561   0.964  0.2151  0.1332 -0.3651
 1916SOL     OW 7708   1.281   2.695   1.823  0.1907  0.2996  0.9376
 1916SOL    HW2 7709   1.372   2.667   1.828 -0.0744 -0.6325  0.6234
 1916SOL    HW3 7710   1.252   2.700   1.914  0.6725  1.0198  1.0599
 1916SOL    MW4 7711   1.289   2.692   1.836  0.2193  0.2718  0.9123
 1917SOL     OW 7712   3.322   2.767   1.597  0.1505  0.2462 -0.0531
 1917SOL    HW2 7713   3.269   2.795   1.522 -0.6491  0.7017  0.6706
 1917SOL    HW3 7714   3.405   2.812   1.586  0.6241 -0.9690 -1.5428
 1917SOL    MW4 7715   3.326   2.776   1.586  0.1075  0.1459 -0.1541
 1918SOL     OW 7716   0.988   3.431   1.571  0.2765 -0.1386 -0.3889
 1918SOL    HW2 7717   1.073   3.424   1.527  0.3311  1.4782 -0.5770
 1918SOL    HW3 7718   1.010   3.438   1.664  0.4234  1.1051 -0.4973
 1918SOL    MW4 7719   1.002   3.431   1.577  0.3031  0.2389 -0.4280
 1919SOL     OW 7720   4.028   3.995   2.889  0.2207  0.3190 -0.3209
 1919SOL    HW2 7721   4.119   4.009   2.915  0.0808  0.2863  0.1902
 1919SOL    HW3 7722   4.031   3.926   2.823  0.6756  1.0637 -1.0745
 1919SOL    MW4 7723   4.040   3.988   2.884  0.2627  0.4129 -0.3529
 1920SOL     OW 7724   1.168   2.527   1.209  0.4471 -0.4390  0.4115
 1920SOL    HW2 7725   1.204   2.615   1.201  0.4944 -0.5627 -0.9956
 1920SOL    HW3 7726   1.073   2.539   1.209  0.4519 -0.3897  0.0860
 1920SOL    MW4 7727   1.160   2.540   1.208  0.4539 -0.4489  0.1829
 1921SOL     OW 7728   3.839   4.431   2.953 -0.5181 -0.1887  0.0198
 1921SOL    HW2 7729   3.798   4.344   2.953  1.6187 -1.2445  0.5324
 1921SOL    HW3 7730   3.803   4.474   3.030  1.4156 -2.1632  2.1078
 1921SOL    MW4 7731   3.829   4.425   2.963  0.0191 -0.5884  0.3629
 1922SOL     OW 7732   0.356   1.287   3.269  0.2347 -0.2109  0.0285
 1922SOL    HW2 7733   0.275   1.333   3.249  0.0516 -1.0548 -1.2474
 1922SOL    HW3 7734   0.377   1.312   3.359 -0.5733  1.2757 -0.1949
 1922SOL    MW4 7735   0.348   1.296   3.278  0.1040 -0.1261 -0.1693
 1923SOL     OW 7736   2.721   1.623   4.054  0.2319 -0.5309  0.0318
 1923SOL    HW2 7737   2.661   1.574   3.997 -1.7897  0.2878  1.3735
 1923SOL    HW3 7738   2.684   1.711   4.056  1.4310 -0.0436  1.0212
 1923SOL    MW4 7739   2.708   1.628   4.046  0.1235 -0.3586  0.3390
 1924SOL     OW 7740   0.190   4.348   0.633  0.5303 -0.4578 -0.0250
 1924SOL    HW2 7741   0.139   4.374   0.557  0.7634  1.6690  0.5143
 1924SOL    HW3 7742   0.130   4.356   0.707  0.9948 -0.1281  0.3229
 1924SOL    MW4 7743   0.176   4.352   0.633  0.6223 -0.1330  0.0920
 1925SOL     OW 7744   0.784   2.917   1.485  0.6656 -0.0669  0.2197
 1925SOL    HW2 7745   0.843   2.853   1.526  1.0103  0.6064  0.7933
 1925SOL    HW3 7746   0.831   3.001   1.493 -0.0106  0.3397 -0.0529
 1925SOL    MW4 7747   0.798   2.920   1.492  0.6218  0.0758  0.2593
 1926SOL     OW 7748   0.878   4.041   3.322  0.2490  0.1382 -0.4315
 1926SOL    HW2 7749   0.854   4.132   3.339  0.5741  0.1558 -0.0541
 1926SOL    HW3 7750   0.868   4.031   3.227 -0.3853  0.3898 -0.3929
 1926SOL    MW4 7751   0.873   4.052   3.312  0.2082  0.1736 -0.3767
 1927SOL     OW 7752   0.346   0.446   1.175 -0.1217 -0.2546 -0.0112
 1927SOL    HW2 7753   0.342   0.487   1.262  1.6586  1.3239 -0.6421
 1927SOL    HW3 7754   0.264   0.471   1.133  0.6882  2.2075 -0.1736
 1927SOL    MW4 7755   0.335   0.454   1.181  0.2200  0.2785 -0.1159
 1928SOL     OW 7756   0.428   0.106   1.776 -0.1010 -0.1874  0.7423
 1928SOL    HW2 7757   0.516   0.090   1.745  0.4218  1.1864  1.4899
 1928SOL    HW3 7758   0.419   0.049   1.853  0.2553 -0.0848  0.8602
 1928SOL    MW4 7759   0.438   0.096   1.782  0.0150  0.0074  0.8565
 1929SOL     OW 7760   2.552   3.009   4.092 -0.0051  0.5879  0.0210
 1929SOL    HW2 7761   2.622   2.945   4.076 -0.5473  0.1811 -0.7099
 1929SOL    HW3 7762   2.593   3.094   4.078  0.4541  0.3658  0.0184
 1929SOL    MW4 7763   2.567   3.011   4.088 -0.0160  0.5052 -0.0758
 1930SOL     OW 7764   3.352   3.167   1.541  0.4472  0.0762 -0.4049
 1930SOL    HW2 7765   3.442   3.169   1.509  0.9134  1.0331  0.9146
 1930SOL    HW3 7766   3.353   3.107   1.615 -0.0253 -0.0262 -0.4770
 1930SOL    MW4 7767   3.364   3.160   1.546  0.4463  0.1888 -0.2402
 1931SOL     OW 7768   2.616   2.962   2.086 -0.5383  0.5773 -0.1641
 1931SOL    HW2 7769   2.664   2.894   2.133  0.1464  0.8401 -0.4791
 1931SOL    HW3 7770   2.625   2.938   1.993  0.6678  1.7077 -0.3599
 1931SOL    MW4 7771   2.623   2.950   2.080 -0.2887  0.7613 -0.2315
 1932SOL     OW 7772   0.028   3.144   0.620 -0.2998  0.1352  0.4423
 1932SOL    HW2 7773   0.067   3.211   0.677 -2.4597  1.5199  0.3333
 1932SOL    HW3 7774  -0.065   3.146   0.641 -0.6471 -1.6283 -0.8370
 1932SOL    MW4 7775   0.021   3.154   0.631 -0.6306  0.0854  0.2591
 1933SOL     OW 7776   0.763   2.934   1.827  0.1450  0.0911  0.2317
 1933SOL    HW2 7777   0.799   3.023   1.837  1.7968 -0.4704 -0.4083
 1933SOL    HW3 7778   0.769   2.896   1.914  0.7914  0.1288  0.2076
 1933SOL    MW4 7779   0.769   2.941   1.840  0.4482  0.0217  0.1440
 1934SOL     OW 7780   0.666   3.603   2.218  0.6037 -0.4620  0.2484
 1934SOL    HW2 7781   0.592   3.566   2.170  0.8569 -0.3086 -0.2696
 1934SOL    HW3 7782   0.649   3.581   2.310 -1.4080  1.7622  0.4672
 1934SOL    MW4 7783   0.654   3.595   2.224  0.3716 -0.1483  0.2089
 1935SOL     OW 7784   4.328   3.590   1.266 -0.4985  0.0409 -0.0580
 1935SOL    HW2 7785   4.289   3.526   1.207  1.5472 -1.8864  0.5969
 1935SOL    HW3 7786   4.347   3.541   1.346 -0.1094  1.7919  0.9717
 1935SOL    MW4 7787   4.326   3.575   1.269 -0.1769  0.0176  0.1642
 1936SOL     OW 7788   3.671   1.340   1.502  0.3131 -0.2749 -0.4436
 1936SOL    HW2 7789   3.584   1.317   1.535  0.0238  1.8818  0.3207
 1936SOL    HW3 7790   3.697   1.416   1.553  2.2182 -0.2655 -1.3938
 1936SOL    MW4 7791   3.663   1.347   1.513  0.5267  0.0110 -0.4681
 1937SOL     OW 7792   3.908   2.218   1.747  0.1620 -0.3049 -0.3911
 1937SOL    HW2 7793   3.911   2.314   1.751  0.2218 -0.2896 -0.7504
 1937SOL    HW3 7794   4.000   2.192   1.742  0.1156 -0.3341 -1.2174
 1937SOL    MW4 7795   3.920   2.227   1.747  0.1640 -0.3066 -0.5475
 1938SOL     OW 7796   0.660   1.476   2.938 -0.1224  0.1030 -0.3683
 1938SOL    HW2 7797   0.604   1.413   2.981 -1.8198  1.8092 -0.0138
 1938SOL    HW3 7798   0.737   1.483   2.995 -1.5035  0.9512  1.4381
 1938SOL    MW4 7799   0.663   1.469   2.951 -0.5286  0.4401 -0.0832
 1939SOL     OW 7800   2.541   3.010   0.717 -0.2201 -0.3479  0.1968
 1939SOL    HW2 7801   2.506   2.961   0.643  1.1088 -0.4281 -0.3832
 1939SOL    HW3 7802   2.473   3.002   0.785 -0.5940 -1.8911 -0.3390
 1939SOL    MW4 7803   2.527   3.002   0.717 -0.0939 -0.5620  0.0495
 1940SOL     OW 7804   0.564   0.413   2.172 -0.4823 -0.1477  0.0807
 1940SOL    HW2 7805   0.562   0.384   2.081 -1.6012  1.2850 -0.3651
 1940SOL    HW3 7806   0.609   0.343   2.218 -0.3628 -1.1291 -1.4889
 1940SOL    MW4 7807   0.569   0.400   2.166 -0.6141 -0.0881 -0.1853
 1941SOL     OW 7808   1.540   1.785   2.413 -0.2379  0.0480  0.1555
 1941SOL    HW2 7809   1.529   1.703   2.366 -0.7285 -0.7270  1.6103
 1941SOL    HW3 7810   1.453   1.805   2.447 -0.4174  1.8366 -1.2449
 1941SOL    MW4 7811   1.527   1.777   2.411 -0.3262  0.1816  0.1626
 1942SOL     OW 7812   0.447   2.467   1.985  0.2340 -0.1220 -0.1565
 1942SOL    HW2 7813   0.480   2.463   1.895  0.3068 -0.5587 -0.1120
 1942SOL    HW3 7814   0.428   2.376   2.007 -1.7718  0.1973 -0.4632
 1942SOL    MW4 7815   0.449   2.454   1.976 -0.0210 -0.1373 -0.1911
 1943SOL     OW 7816   4.071   3.034   3.315  0.0609  0.3185  0.9395
 1943SOL    HW2 7817   4.062   3.079   3.399 -1.4001  1.5641  0.1528
 1943SOL    HW3 7818   4.047   2.943   3.334 -1.7557  0.8987  1.5951
 1943SOL    MW4 7819   4.066   3.028   3.329 -0.3710  0.5596  0.9224
 1944SOL     OW 7820   3.596   2.667   0.582  0.1620  0.4975  0.0276
 1944SOL    HW2 7821   3.535   2.722   0.631 -0.7053  0.8095 -1.3992
 1944SOL    HW3 7822   3.672   2.723   0.567  0.3388  0.4717  0.8214
 1944SOL    MW4 7823   3.598   2.681   0.587  0.0708  0.5355 -0.0560
 1945SOL     OW 7824   1.379   1.519   1.737  0.0447  0.1810  0.4121
 1945SOL    HW2 7825   1.385   1.582   1.666 -1.6540 -0.0905  0.0150
 1945SOL    HW3 7826   1.446   1.548   1.800  1.0176  0.8699 -0.9191
 1945SOL    MW4 7827   1.389   1.531   1.736 -0.0510  0.2360  0.1842
 1946SOL     OW 7828   3.724   0.275   3.647 -0.2644 -0.0715 -0.0172
 1946SOL    HW2 7829   3.776   0.309   3.574  0.1960 -1.0870 -0.1737
 1946SOL    HW3 7830   3.717   0.348   3.708 -1.3682  1.0489 -1.4467
 1946SOL    MW4 7831   3.730   0.289   3.645 -0.3490 -0.0576 -0.2263
 1947SOL     OW 7832   2.604   1.585   4.300  0.2714  0.4669 -0.4322
 1947SOL    HW2 7833   2.642   1.590   4.212  0.3773  1.2732 -0.3483
 1947SOL    HW3 7834   2.647   1.510   4.341  1.5153  1.1321 -0.4719
 1947SOL    MW4 7835   2.615   1.576   4.294  0.4494  0.6610 -0.4263
 1948SOL     OW 7836   3.856   2.392   0.656 -0.0993  0.0686  0.3177
 1948SOL    HW2 7837   3.915   2.324   0.622  0.6202  0.9541 -0.2490
 1948SOL    HW3 7838   3.825   2.358   0.740 -0.7929 -1.5356 -0.5738
 1948SOL    MW4 7839   3.860   2.379   0.663 -0.0958 -0.0262  0.1253
 1949SOL     OW 7840   3.368   1.447   2.993 -0.1946 -0.2327  0.1206
 1949SOL    HW2 7841   3.374   1.481   2.903  0.8060 -2.4684 -0.7052
 1949SOL    HW3 7842   3.277   1.417   3.001  0.3953 -2.5683 -1.1716
 1949SOL    MW4 7843   3.357   1.447   2.982  0.0153 -0.8358 -0.1593
 1950SOL     OW 7844   2.433   2.818   3.467 -0.7642  0.4767  0.4245
 1950SOL    HW2 7845   2.459   2.780   3.551  1.3172  2.3139  0.6563
 1950SOL    HW3 7846   2.440   2.746   3.405  0.4495 -0.2271  1.3505
 1950SOL    MW4 7847   2.438   2.804   3.470 -0.3295  0.6263  0.5772
 1951SOL     OW 7848   3.607   2.615   4.026  0.4058  0.5303 -0.2296
 1951SOL    HW2 7849   3.587   2.572   3.942 -0.1613 -0.7947  0.5606
 1951SOL    HW3 7850   3.560   2.698   4.022 -0.7645 -0.1321 -0.6726
 1951SOL    MW4 7851   3.598   2.620   4.014  0.1764  0.2680 -0.1841
 1952SOL     OW 7852   3.067   0.222   2.939  0.5896  0.7131  0.2288
 1952SOL    HW2 7853   3.119   0.253   2.865  1.8243 -0.5855  0.5113
 1952SOL    HW3 7854   3.098   0.273   3.013 -0.2891  1.6627 -0.0589
 1952SOL    MW4 7855   3.078   0.233   2.939  0.6366  0.6671  0.2282
 1953SOL     OW 7856   0.470   1.283   3.016  0.1591 -0.3559 -0.0885
 1953SOL    HW2 7857   0.489   1.196   2.982  1.9892 -0.6432  1.6239
 1953SOL    HW3 7858   0.452   1.270   3.109  1.9711  1.2605  0.5265
 1953SOL    MW4 7859   0.470   1.270   3.023  0.6396 -0.1806  0.2182
 1954SOL     OW 7860   4.314   2.406   4.335 -0.3037 -0.0991  0.1808
 1954SOL    HW2 7861   4.259   2.340   4.292  0.4462 -0.4841 -0.2119
 1954SOL    HW3 7862   4.392   2.412   4.278 -0.0347  0.5797  0.6176
 1954SOL    MW4 7863   4.317   2.398   4.322 -0.1688 -0.0601  0.1860
 1955SOL     OW 7864   3.612   4.148   1.819  0.0873  0.1352 -0.2198
 1955SOL    HW2 7865   3.697   4.187   1.841 -0.4916  0.8659  0.7976
 1955SOL    HW3 7866   3.605   4.073   1.878 -0.6614  1.0210  0.8534
 1955SOL    MW4 7867   3.623   4.143   1.830 -0.0877  0.3486  0.0560
 1956SOL     OW 7868   4.408   4.184   0.979 -0.1929  0.2448 -0.0091
 1956SOL    HW2 7869   4.465   4.256   0.951 -0.3648  0.9459  1.3812
 1956SOL    HW3 7870   4.331   4.226   1.014 -1.4448 -0.7086 -1.5433
 1956SOL    MW4 7871   4.406   4.199   0.980 -0.3810  0.2112 -0.0281
 1957SOL     OW 7872   0.281   3.684   3.322 -0.1071 -0.0862  0.2943
 1957SOL    HW2 7873   0.258   3.745   3.252 -1.4543 -1.0013 -0.0774
 1957SOL    HW3 7874   0.363   3.644   3.294  1.3978  2.3121  1.0490
 1957SOL    MW4 7875   0.289   3.687   3.309 -0.0863  0.1094  0.3445
 1958SOL     OW 7876   2.432   0.868   0.848 -0.4139  0.3064  0.2813
 1958SOL    HW2 7877   2.465   0.787   0.810  0.0247 -0.4414  2.2291
 1958SOL    HW3 7878   2.485   0.937   0.807  0.5237 -0.5296  0.0644
 1958SOL    MW4 7879   2.443   0.866   0.837 -0.2322  0.0975  0.5097
 1959SOL     OW 7880   3.809   1.378   2.074 -0.1886  0.1392 -0.0466
 1959SOL    HW2 7881   3.791   1.330   1.993  0.0471  0.0326 -0.0374
 1959SOL    HW3 7882   3.838   1.311   2.136  1.1586  0.4145 -0.3445
 1959SOL    MW4 7883   3.811   1.363   2.071  0.0203  0.1615 -0.0846
 1960SOL     OW 7884   1.875   2.470   2.161  0.0447  0.1154 -0.5565
 1960SOL    HW2 7885   1.861   2.422   2.079  0.5362  0.7361 -1.0105
 1960SOL    HW3 7886   1.872   2.403   2.229 -3.6238 -0.0368 -0.7331
 1960SOL    MW4 7887   1.872   2.455   2.159 -0.3744  0.1774 -0.6394
 1961SOL     OW 7888   1.469   4.269   2.447 -0.0560 -0.3847 -0.3548
 1961SOL    HW2 7889   1.432   4.347   2.488 -0.2464 -0.6960  0.0706
 1961SOL    HW3 7890   1.564   4.282   2.451 -0.0868 -0.2090 -0.2205
 1961SOL    MW4 7891   1.477   4.281   2.453 -0.0852 -0.4029 -0.2809
 1962SOL     OW 7892   3.438   2.331   2.928  0.4699  0.0802 -0.4588
 1962SOL    HW2 7893   3.425   2.411   2.978 -2.7666 -1.1942  0.8494
 1962SOL    HW3 7894   3.371   2.334   2.860  0.1938 -1.5789 -0.2857
 1962SOL    MW4 7895   3.428   2.342   2.926  0.0067 -0.3066 -0.2635
 1963SOL     OW 7896   3.266   3.590   1.256 -0.0349 -0.1856  1.3389
 1963SOL    HW2 7897   3.223   3.659   1.204  0.4405  1.1791  2.7098
 1963SOL    HW3 7898   3.311   3.536   1.191 -2.2974 -0.5699  0.0468
 1963SOL    MW4 7899   3.266   3.592   1.240 -0.2706 -0.0563  1.3494
 1964SOL     OW 7900   4.303   1.641   3.400  0.3507  0.4499 -0.4214
 1964SOL    HW2 7901   4.274   1.720   3.446 -0.1490  0.6040 -1.0047
 1964SOL    HW3 7902   4.281   1.657   3.308 -2.0585 -1.4175 -0.2057
 1964SOL    MW4 7903   4.296   1.654   3.394 -0.0324  0.2239 -0.4699
 1965SOL     OW 7904   0.953   4.266   3.098  0.4833  0.2584  0.5774
 1965SOL    HW2 7905   0.977   4.263   3.006  0.1913  1.2223  0.4658
 1965SOL    HW3 7906   1.035   4.249   3.145  0.7346  0.3091  0.1517
 1965SOL    MW4 7907   0.967   4.263   3.092  0.4779  0.3920  0.5066
 1966SOL     OW 7908   1.380   3.199   1.824  0.2132  0.3470  0.3006
 1966SOL    HW2 7909   1.452   3.149   1.864 -0.2491 -0.4674  0.1369
 1966SOL    HW3 7910   1.303   3.172   1.874 -0.2134  0.0657 -0.5023
 1966SOL    MW4 7911   1.379   3.189   1.836  0.0957  0.2027  0.1731
 1967SOL     OW 7912   4.018   3.907   2.359 -0.3532  0.5721  0.0411
 1967SOL    HW2 7913   4.042   3.889   2.268 -1.8316  1.9543 -0.6527
 1967SOL    HW3 7914   3.999   4.001   2.361 -1.3323  0.3676  1.5488
 1967SOL    MW4 7915   4.019   3.917   2.347 -0.6771  0.7277  0.1488
 1968SOL     OW 7916   2.371   1.697   3.396 -0.2077  0.3158 -0.3121
 1968SOL    HW2 7917   2.320   1.722   3.473  1.3369  0.3392  0.7304
 1968SOL    HW3 7918   2.343   1.757   3.328 -1.9644 -0.0280  0.0868
 1968SOL    MW4 7919   2.361   1.708   3.397 -0.2358  0.2735 -0.1218
 1969SOL     OW 7920   2.892   3.165   0.928  0.0761  0.6524 -0.2364
 1969SOL    HW2 7921   2.846   3.156   1.012  1.2948 -1.1470  0.2641
 1969SOL    HW3 7922   2.827   3.200   0.868 -1.5440 -0.5450  0.8113
 1969SOL    MW4 7923   2.878   3.169   0.932  0.0231  0.2573 -0.0322
 1970SOL     OW 7924   3.687   2.868   1.359 -0.4051  0.3162  0.2536
 1970SOL    HW2 7925   3.677   2.787   1.309  0.0200  0.2530  0.2673
 1970SOL    HW3 7926   3.646   2.935   1.304 -1.1608  0.0178  0.4529
 1970SOL    MW4 7927   3.680   2.866   1.345 -0.4487  0.2685  0.2817
 1971SOL     OW 7928   1.392   1.649   3.207  0.0609  0.0152  0.2432
 1971SOL    HW2 7929   1.419   1.718   3.147 -1.5927 -0.9075 -1.5884
 1971SOL    HW3 7930   1.302   1.673   3.232  0.1417 -0.5050  1.0623
 1971SOL    MW4 7931   1.383   1.662   3.203 -0.1466 -0.1751  0.1099
 1972SOL     OW 7932   4.138   3.402   0.661 -0.0585  0.1815  0.0909
 1972SOL    HW2 7933   4.046   3.414   0.685  0.3865  1.1998  1.3038
 1972SOL    HW3 7934   4.148   3.452   0.580 -0.4257  0.5528  0.2759
 1972SOL    MW4 7935   4.127   3.410   0.653 -0.0482  0.3648  0.2753
 1973SOL     OW 7936   1.740   3.236   3.585  0.3404 -0.0127 -0.3035
 1973SOL    HW2 7937   1.822   3.244   3.634 -0.6143  0.8360  1.1950
 1973SOL    HW3 7938   1.721   3.325   3.556 -0.3677 -0.1044 -0.1261
 1973SOL    MW4 7939   1.748   3.249   3.588  0.1210  0.0875 -0.0825
 1974SOL     OW 7940   2.927   4.120   1.400 -0.2059 -0.1201 -0.4528
 1974SOL    HW2 7941   2.893   4.123   1.310 -1.6528 -0.6770  0.0625
 1974SOL    HW3 7942   2.991   4.049   1.399  0.7471  0.7297 -1.3600
 1974SOL    MW4 7943   2.931   4.111   1.388 -0.2708 -0.0815 -0.5047
 1975SOL     OW 7944   0.187   2.105   4.326  0.7666 -0.1902  0.1025
 1975SOL    HW2 7945   0.178   2.014   4.300  1.4717  0.1895 -1.5016
 1975SOL    HW3 7946   0.099   2.129   4.357  0.6679 -1.5031  0.8721
 1975SOL    MW4 7947   0.174   2.096   4.327  0.8466 -0.3135 -0.0076
 1976SOL     OW 7948   2.803   3.606   1.611  0.4677  0.5428 -0.0379
 1976SOL    HW2 7949   2.739   3.663   1.568  0.9615  1.3960  0.3661
 1976SOL    HW3 7950   2.881   3.660   1.620  0.9643 -0.2263  0.2669
 1976SOL    MW4 7951   2.805   3.620   1.607  0.5984  0.5538  0.0557
 1977SOL     OW 7952   2.869   1.324   3.582 -0.2894  0.3992 -0.1236
 1977SOL    HW2 7953   2.928   1.250   3.599  0.1468  0.6050 -0.7227
 1977SOL    HW3 7954   2.911   1.371   3.510 -0.0202  1.8098  0.9381
 1977SOL    MW4 7955   2.882   1.320   3.575 -0.1965  0.6125 -0.0627
 1978SOL     OW 7956   1.689   1.720   1.522  0.2463 -0.2837 -0.1103
 1978SOL    HW2 7957   1.758   1.742   1.459 -0.4497  1.6229 -0.2336
 1978SOL    HW3 7958   1.712   1.768   1.601 -1.5255  1.2821 -0.5190
 1978SOL    MW4 7959   1.701   1.729   1.524 -0.0794  0.1744 -0.1805
 1979SOL     OW 7960   1.522   2.680   0.396  0.2740 -0.4249  0.0938
 1979SOL    HW2 7961   1.591   2.717   0.341 -0.3501 -0.5737 -0.8029
 1979SOL    HW3 7962   1.450   2.662   0.335 -1.1276  1.1232  1.2696
 1979SOL    MW4 7963   1.522   2.682   0.381  0.0068 -0.2401  0.1306
 1980SOL     OW 7964   2.839   2.523   2.923  0.2558  0.2171 -0.1082
 1980SOL    HW2 7965   2.748   2.497   2.938  0.5944  0.0804  1.7411
 1980SOL    HW3 7966   2.863   2.478   2.842 -0.9263 -0.7714  0.0780
 1980SOL    MW4 7967   2.830   2.513   2.914  0.1445  0.0687  0.1602
 1981SOL     OW 7968   2.351   3.024   0.930 -0.1412  0.3057  0.0381
 1981SOL    HW2 7969   2.288   2.979   0.986  0.3362 -2.5125 -1.5984
 1981SOL    HW3 7970   2.303   3.098   0.894 -2.3784 -1.4751 -0.7697
 1981SOL    MW4 7971   2.337   3.028   0.933 -0.3731 -0.3011 -0.2844
 1982SOL     OW 7972   2.736   2.207   3.117 -0.2986  0.0760 -0.1363
 1982SOL    HW2 7973   2.672   2.159   3.170  1.7231 -1.6398  0.8297
 1982SOL    HW3 7974   2.752   2.150   3.042 -1.7211  1.6404 -1.6744
 1982SOL    MW4 7975   2.730   2.193   3.114 -0.2196  0.0563 -0.2117
 1983SOL     OW 7976   3.248   4.245   2.030 -0.0555  0.3890 -0.1329
 1983SOL    HW2 7977   3.187   4.175   2.053  1.7402 -0.8638  0.9699
 1983SOL    HW3 7978   3.205   4.325   2.058 -1.6121 -0.3688 -0.2998
 1983SOL    MW4 7979   3.234   4.246   2.036 -0.0238  0.1240 -0.0093
 1984SOL     OW 7980   1.758   1.669   3.713 -0.0924  0.1610 -0.5432
 1984SOL    HW2 7981   1.692   1.602   3.731 -0.1912 -0.1911 -2.1579
 1984SOL    HW3 7982   1.709   1.751   3.713  0.0135  0.2655  1.3383
 1984SOL    MW4 7983   1.743   1.671   3.716 -0.0914  0.1283 -0.5078
 1985SOL     OW 7984   0.560   4.507   0.069  0.0401 -0.3604  0.5218
 1985SOL    HW2 7985   0.592   4.445   0.003  1.1054  0.4594  0.2459
 1985SOL    HW3 7986   0.623   4.579   0.066 -0.2764 -0.0126  1.9806
 1985SOL    MW4 7987   0.572   4.508   0.060  0.1389 -0.2065  0.6779
 1986SOL     OW 7988   2.694   1.436   2.998 -0.4016  0.0193  0.3060
 1986SOL    HW2 7989   2.665   1.428   3.088 -2.0906  0.4854 -0.1864
 1986SOL    HW3 7990   2.652   1.516   2.965 -0.0613 -0.3118 -0.9898
 1986SOL    MW4 7991   2.685   1.446   3.005 -0.5796  0.0371  0.0699
 1987SOL     OW 7992   4.355   3.413   0.111  0.4195  0.0689 -0.0854
 1987SOL    HW2 7993   4.380   3.504   0.093 -0.7780  0.4075 -0.0782
 1987SOL    HW3 7994   4.403   3.390   0.190 -0.4871  1.2365  0.8287
 1987SOL    MW4 7995   4.364   3.422   0.119  0.1411  0.2677  0.0361
 1988SOL     OW 7996   3.408   4.257   1.068 -0.5018 -0.1520  0.0180
 1988SOL    HW2 7997   3.394   4.307   1.148 -1.5407  1.5234 -1.1927
 1988SOL    HW3 7998   3.332   4.199   1.062 -0.2044 -0.5909  0.4639
 1988SOL    MW4 7999   3.397   4.256   1.078 -0.5996  0.0110 -0.0829
 1989SOL     OW 8000   3.048   4.296   3.707 -0.0977  0.0233 -0.5889
 1989SOL    HW2 8001   3.012   4.356   3.641 -2.1331 -1.2369 -0.6544
 1989SOL    HW3 8002   3.037   4.343   3.790 -1.2098 -0.0317 -0.6975
 1989SOL    MW4 8003   3.042   4.310   3.710 -0.5128 -0.1502 -0.6120
 1990SOL     OW 8004   2.593   3.027   2.656 -0.2648 -0.0186 -0.4290
 1990SOL    HW2 8005   2.521   3.039   2.594 -0.7806 -0.9648 -0.0346
 1990SOL    HW3 8006   2.671   3.019   2.601 -0.7325 -0.9531 -0.9747
 1990SOL    MW4 8007   2.594   3.027   2.640 -0.3946 -0.2668 -0.4492
 1991SOL     OW 8008   1.148   4.107   2.945 -0.2111 -0.0054 -0.0018
 1991SOL    HW2 8009   1.168   4.060   2.864  0.6010 -1.0132  0.7783
 1991SOL    HW3 8010   1.059   4.080   2.967 -0.9606  1.3101 -1.2562
 1991SOL    MW4 8011   1.139   4.098   2.937 -0.2028  0.0353 -0.0646
 1992SOL     OW 8012   3.408   1.812   3.083  0.2863  0.4473  0.0488
 1992SOL    HW2 8013   3.461   1.860   3.147  0.2621 -0.0037  0.4129
 1992SOL    HW3 8014   3.387   1.877   3.016  0.8840  0.7558  0.1519
 1992SOL    MW4 8015   3.412   1.827   3.082  0.3617  0.4286  0.1104
 1993SOL     OW 8016   2.534   1.179   4.349  0.3355 -0.1581  0.1046
 1993SOL    HW2 8017   2.542   1.092   4.309  1.9219  0.9247 -2.0957
 1993SOL    HW3 8018   2.445   1.207   4.328  0.3267 -0.6348 -0.5333
 1993SOL    MW4 8019   2.524   1.171   4.341  0.5438 -0.0782 -0.2704
 1994SOL     OW 8020   3.544   2.690   3.603 -0.4598 -0.0798 -0.1302
 1994SOL    HW2 8021   3.539   2.621   3.669  0.6826  0.4209  0.4887
 1994SOL    HW3 8022   3.613   2.661   3.544  0.8895  1.1294  0.8353
 1994SOL    MW4 8023   3.552   2.677   3.604 -0.1311  0.1459  0.0787
 1995SOL     OW 8024   4.213   4.386   1.718 -0.1158 -0.0924  0.4254
 1995SOL    HW2 8025   4.137   4.389   1.660 -0.7080  1.0185  1.2496
 1995SOL    HW3 8026   4.283   4.427   1.668  0.2762 -2.1935 -0.7968
 1995SOL    MW4 8027   4.212   4.392   1.704 -0.1421 -0.2232  0.3729
 1996SOL     OW 8028   0.820   2.624   4.114  0.1619 -0.1862 -0.4761
 1996SOL    HW2 8029   0.785   2.711   4.092  0.4900  0.0838  0.0694
 1996SOL    HW3 8030   0.914   2.638   4.125  0.2053 -0.6035 -0.3373
 1996SOL    MW4 8031   0.827   2.638   4.112  0.2109 -0.2055 -0.3858
 1997SOL     OW 8032   1.958   2.480   3.407  0.2863  0.2803 -0.1317
 1997SOL    HW2 8033   1.983   2.398   3.364  1.1695 -0.3657  1.5437
 1997SOL    HW3 8034   2.007   2.479   3.490 -2.2254  0.9419  1.4133
 1997SOL    MW4 8035   1.968   2.469   3.412  0.0714  0.2823  0.2933
 1998SOL     OW 8036   1.464   3.611   1.414 -0.5119  0.7060  0.0794
 1998SOL    HW2 8037   1.526   3.592   1.343 -1.2297 -0.8389 -0.1562
 1998SOL    HW3 8038   1.518   3.612   1.493 -0.3280 -1.8319  0.0253
 1998SOL    MW4 8039   1.479   3.609   1.415 -0.5822  0.1674  0.0414
 1999SOL     OW 8040   1.245   4.488   1.761  0.2901  0.5016  0.3901
 1999SOL    HW2 8041   1.179   4.554   1.780 -0.4394  0.1868 -0.9811
 1999SOL    HW3 8042   1.218   4.412   1.813 -0.5409  0.3094 -0.3174
 1999SOL    MW4 8043   1.233   4.486   1.771  0.0843  0.4349  0.1159
 2000SOL     OW 8044   1.547   1.102   2.384 -0.0632  0.0118  0.1108
 2000SOL    HW2 8045   1.488   1.157   2.332  1.1181  1.6234  0.4082
 2000SOL    HW3 8046   1.489   1.053   2.442 -1.1019  1.9453  0.7649
 2000SOL    MW4 8047   1.531   1.103   2.384 -0.0442  0.4796  0.2363
 2001SOL     OW 8048   4.342   1.494   1.479 -0.2514  0.3611  0.1585
 2001SOL    HW2 8049   4.251   1.507   1.505 -1.0212 -0.4666 -1.9557
 2001SOL    HW3 8050   4.372   1.581   1.451 -0.7640  0.4146 -0.2289
 2001SOL    MW4 8051   4.334   1.507   1.479 -0.4206  0.2590 -0.1715
 2002SOL     OW 8052   1.690   0.324   1.296  0.0839 -0.2254 -0.7165
 2002SOL    HW2 8053   1.765   0.273   1.266 -0.9530 -1.3486 -1.4601
 2002SOL    HW3 8054   1.727   0.389   1.355  1.5560 -1.1666 -0.5819
 2002SOL    MW4 8055   1.705   0.326   1.300  0.1413 -0.4978 -0.7968
 2003SOL     OW 8056   2.963   2.228   0.628  0.0680 -0.4081  0.4621
 2003SOL    HW2 8057   2.947   2.194   0.716  0.8431 -0.2789  0.6592
 2003SOL    HW3 8058   3.018   2.161   0.586  1.2747  0.4120  0.7199
 2003SOL    MW4 8059   2.968   2.214   0.634  0.3293 -0.2828  0.5221
 2004SOL     OW 8060   3.836   0.815   3.506  0.2123 -0.2684 -0.3157
 2004SOL    HW2 8061   3.776   0.778   3.441  0.8144  0.2477 -1.1704
 2004SOL    HW3 8062   3.921   0.777   3.484  0.0619 -1.6677  1.4153
 2004SOL    MW4 8063   3.839   0.805   3.494  0.2718 -0.3850 -0.2000
 2005SOL     OW 8064   1.124   2.737   3.547  0.1202  0.0733  0.1588
 2005SOL    HW2 8065   1.129   2.675   3.620  0.7453 -0.9079 -0.7020
 2005SOL    HW3 8066   1.211   2.736   3.508 -0.6234 -0.5998 -1.5538
 2005SOL    MW4 8067   1.136   2.728   3.552  0.1045 -0.1450 -0.1807
 2006SOL     OW 8068   0.811   3.675   1.022  1.0221 -0.2973  0.3577
 2006SOL    HW2 8069   0.890   3.721   0.992  0.3493  0.9008  0.3816
 2006SOL    HW3 8070   0.805   3.695   1.115 -0.1984  1.0026  0.0270
 2006SOL    MW4 8071   0.820   3.684   1.030  0.7723  0.0324  0.3171
 2007SOL     OW 8072   0.385   3.853   0.264 -0.0841  0.1610  0.4112
 2007SOL    HW2 8073   0.344   3.856   0.350 -0.3732  1.9770  0.2372
 2007SOL    HW3 8074   0.313   3.873   0.203  0.4525  0.4639 -0.1263
 2007SOL    MW4 8075   0.370   3.856   0.267 -0.0515  0.4406  0.3173
 2008SOL     OW 8076   1.635   0.422   1.753 -0.2370  0.5002 -1.2977
 2008SOL    HW2 8077   1.664   0.346   1.703  0.3062  0.2609 -0.6275
 2008SOL    HW3 8078   1.655   0.497   1.697  1.5429  0.3306 -0.9207
 2008SOL    MW4 8079   1.641   0.422   1.739  0.0694  0.4463 -1.1594
 2009SOL     OW 8080   1.711   0.097   0.861  0.8377 -0.5680  0.0220
 2009SOL    HW2 8081   1.699   0.002   0.867 -0.4357 -0.5284 -1.4371
 2009SOL    HW3 8082   1.660   0.132   0.934 -0.2555 -0.9155 -0.5629
 2009SOL    MW4 8083   1.703   0.089   0.871  0.5256 -0.6086 -0.2477
 2010SOL     OW 8084   1.591   4.374   3.042  0.2948 -0.0513  0.0899
 2010SOL    HW2 8085   1.521   4.383   3.106 -0.1662 -0.0568 -0.4122
 2010SOL    HW3 8086   1.672   4.386   3.093 -0.0751  0.2018  0.6223
 2010SOL    MW4 8087   1.593   4.377   3.057  0.1851 -0.0186  0.0942
 2011SOL     OW 8088   1.108   3.088   0.689  0.3081  0.1855  0.6538
 2011SOL    HW2 8089   1.142   3.005   0.722 -0.3478 -0.3882 -0.0788
 2011SOL    HW3 8090   1.172   3.153   0.716  0.3418 -0.4145  2.0804
 2011SOL    MW4 8091   1.121   3.085   0.697  0.2260  0.0305  0.7454
 2012SOL     OW 8092   3.378   0.541   3.352 -0.3092 -0.4470 -0.5165
 2012SOL    HW2 8093   3.412   0.544   3.263 -1.1058  0.9488 -0.7921
 2012SOL    HW3 8094   3.375   0.448   3.374 -0.2232 -0.8107 -1.9955
 2012SOL    MW4 8095   3.382   0.529   3.343 -0.4032 -0.3108 -0.7479
 2013SOL     OW 8096   1.776   4.297   2.502 -0.2878  0.0760 -0.0351
 2013SOL    HW2 8097   1.839   4.348   2.451 -1.3073  1.2131 -0.1945
 2013SOL    HW3 8098   1.795   4.320   2.593 -0.8079  0.8185 -0.1129
 2013SOL    MW4 8099   1.787   4.307   2.507 -0.4910  0.3247 -0.0663
 2014SOL     OW 8100   3.470   1.822   0.481  0.0014 -0.2979 -0.2347
 2014SOL    HW2 8101   3.479   1.914   0.457  2.3914  0.0128  1.6210
 2014SOL    HW3 8102   3.413   1.785   0.414 -1.6628  2.6915 -0.5573
 2014SOL    MW4 8103   3.464   1.829   0.469  0.0973  0.1376 -0.0325
 2015SOL     OW 8104   3.859   1.242   4.079  0.6433 -0.0795  0.1846
 2015SOL    HW2 8105   3.945   1.260   4.116  0.4840 -1.1831  1.1483
 2015SOL    HW3 8106   3.863   1.149   4.054  0.0355  0.0998 -0.5942
 2015SOL    MW4 8107   3.871   1.232   4.080  0.5422 -0.2012  0.2089
 2016SOL     OW 8108   2.645   1.217   2.811 -0.0826 -0.1584 -0.8368
 2016SOL    HW2 8109   2.686   1.281   2.869  0.9741 -0.6668 -0.9989
 2016SOL    HW3 8110   2.649   1.258   2.724  0.3884 -0.3384 -0.9039
 2016SOL    MW4 8111   2.651   1.231   2.807  0.1190 -0.2491 -0.8671
 2017SOL     OW 8112   0.818   0.846   0.738  0.1047  0.3427 -0.0186
 2017SOL    HW2 8113   0.731   0.808   0.729 -0.3292  1.6186 -1.3636
 2017SOL    HW3 8114   0.856   0.801   0.813 -1.6976 -0.2522  0.5610
 2017SOL    MW4 8115   0.812   0.835   0.747 -0.1904  0.4325 -0.1196
 2018SOL     OW 8116   3.053   4.081   3.488  0.0740 -0.6860  0.5747
 2018SOL    HW2 8117   3.038   4.145   3.558  0.1180 -0.8122  0.7010
 2018SOL    HW3 8118   3.144   4.095   3.461  0.1627 -0.8639  0.7768
 2018SOL    MW4 8119   3.063   4.091   3.494  0.0916 -0.7257  0.6182
 2019SOL     OW 8120   1.155   3.857   4.102 -0.1945  0.0955  0.1360
 2019SOL    HW2 8121   1.221   3.789   4.112  1.0413  1.0774 -1.1080
 2019SOL    HW3 8122   1.080   3.812   4.064 -0.0255 -0.9148  1.0021
 2019SOL    MW4 8123   1.154   3.842   4.098 -0.0092  0.0920  0.0863
 2020SOL     OW 8124   3.266   1.534   0.833 -0.2024 -0.1096 -0.0086
 2020SOL    HW2 8125   3.266   1.614   0.782 -1.0271 -0.5993 -0.7949
 2020SOL    HW3 8126   3.330   1.549   0.902 -1.2204  1.6806  0.5713
 2020SOL    MW4 8127   3.275   1.546   0.835 -0.4456  0.0619 -0.0358
 2021SOL     OW 8128   3.033   3.133   1.798 -0.0226  0.3924 -0.6064
 2021SOL    HW2 8129   3.056   3.224   1.818  1.4069 -0.1754  0.4088
 2021SOL    HW3 8130   3.115   3.093   1.769 -0.3578 -0.9137  0.2210
 2021SOL    MW4 8131   3.047   3.140   1.797  0.1221  0.1447 -0.3633
 2022SOL     OW 8132   1.144   1.453   3.131  0.2004  0.1771  0.1927
 2022SOL    HW2 8133   1.172   1.539   3.098 -0.2463 -0.0412 -0.7934
 2022SOL    HW3 8134   1.149   1.396   3.054 -0.5211 -0.4419  0.6013
 2022SOL    MW4 8135   1.148   1.457   3.116  0.0461  0.0666  0.1166
 2023SOL     OW 8136   4.135   1.983   0.597  0.1845 -0.5572 -0.3292
 2023SOL    HW2 8137   4.123   1.920   0.526 -0.8236  0.7830 -1.3758
 2023SOL    HW3 8138   4.226   2.012   0.588 -0.0088 -0.2175 -1.2184
 2023SOL    MW4 8139   4.146   1.978   0.587  0.0257 -0.3357 -0.5845
 2024SOL     OW 8140   3.961   4.649   4.126 -0.0238  0.2416  0.4208
 2024SOL    HW2 8141   3.998   4.670   4.041 -0.6911 -0.1919  0.0207
 2024SOL    HW3 8142   3.904   4.723   4.147 -0.1469  0.1757  0.3201
 2024SOL    MW4 8143   3.959   4.661   4.118 -0.1280  0.1760  0.3543
 2025SOL     OW 8144   1.178   3.948   1.839 -0.3904 -0.6436  0.0284
 2025SOL    HW2 8145   1.129   3.932   1.758  0.1429  1.3665 -0.7179
 2025SOL    HW3 8146   1.266   3.918   1.820 -0.4482 -0.8759  0.1258
 2025SOL    MW4 8147   1.183   3.942   1.826 -0.3276 -0.4091 -0.0572
 2026SOL     OW 8148   3.126   2.120   3.191  0.4837  0.4624  0.3429
 2026SOL    HW2 8149   3.118   2.042   3.246 -0.4179  0.3508  0.0609
 2026SOL    HW3 8150   3.087   2.094   3.107 -0.5793  1.4732  0.5177
 2026SOL    MW4 8151   3.119   2.106   3.187  0.2244  0.5808  0.3288
 2027SOL     OW 8152   0.884   0.459   1.459 -0.2620 -0.7586 -0.2971
 2027SOL    HW2 8153   0.806   0.514   1.461 -0.6602 -1.2781 -1.1744
 2027SOL    HW3 8154   0.955   0.518   1.485 -0.9347 -0.2706  0.4393
 2027SOL    MW4 8155   0.883   0.474   1.463 -0.4033 -0.7627 -0.3155
 2028SOL     OW 8156   4.291   2.823   1.730 -0.0166 -0.0035  0.1882
 2028SOL    HW2 8157   4.384   2.826   1.706  0.2980 -2.6405  0.9298
 2028SOL    HW3 8158   4.256   2.749   1.681 -1.2688 -0.2946  1.4985
 2028SOL    MW4 8159   4.299   2.814   1.720 -0.1402 -0.3898  0.4588
 2029SOL     OW 8160   3.754   2.224   2.782  0.2109 -0.4299  0.0955
 2029SOL    HW2 8161   3.782   2.255   2.868  0.2008 -0.0470 -0.0394
 2029SOL    HW3 8162   3.798   2.140   2.771  0.8950 -0.0696  0.1004
 2029SOL    MW4 8163   3.763   2.217   2.792  0.2999 -0.3319  0.0782
 2030SOL     OW 8164   4.142   0.460   3.360 -0.1340  0.2977  0.2842
 2030SOL    HW2 8165   4.111   0.428   3.445 -1.5835  1.4724  0.2238
 2030SOL    HW3 8166   4.076   0.432   3.297 -0.5271  1.8266 -0.0203
 2030SOL    MW4 8167   4.129   0.452   3.363 -0.3772  0.6544  0.2360
 2031SOL     OW 8168   0.016   0.658   3.264 -0.0007 -0.3956  0.1089
 2031SOL    HW2 8169   0.013   0.657   3.169  0.6834 -2.7898  0.0869
 2031SOL    HW3 8170   0.100   0.619   3.286 -0.8527 -1.3726  1.7210
 2031SOL    MW4 8171   0.027   0.653   3.255 -0.0229 -0.8404  0.3188
 2032SOL     OW 8172   2.431   0.896   4.220  0.1748 -0.2446  0.7493
 2032SOL    HW2 8173   2.409   0.825   4.281  0.0163 -0.0973  0.8665
 2032SOL    HW3 8174   2.464   0.852   4.142 -1.1366 -0.5104  0.3227
 2032SOL    MW4 8175   2.432   0.881   4.218 -0.0191 -0.2602  0.7086
 2033SOL     OW 8176   1.682   3.261   4.142 -0.5583 -0.0327  0.0348
 2033SOL    HW2 8177   1.645   3.348   4.132 -1.4200 -0.1818  1.7511
 2033SOL    HW3 8178   1.736   3.248   4.064 -2.4874  0.9890 -1.4857
 2033SOL    MW4 8179   1.684   3.271   4.131 -0.9265  0.0825  0.0606
 2034SOL     OW 8180   3.761   1.562   1.098 -0.3205 -0.1802  0.2464
 2034SOL    HW2 8181   3.849   1.593   1.120  0.1284 -0.3734 -1.2400
 2034SOL    HW3 8182   3.739   1.608   1.017 -1.0898 -1.0482 -0.0435
 2034SOL    MW4 8183   3.770   1.572   1.090 -0.3626 -0.3202  0.0122
 2035SOL     OW 8184   0.517   0.199   1.134  0.3573  0.1217 -0.0192
 2035SOL    HW2 8185   0.458   0.272   1.115  1.5073  1.1640  0.3058
 2035SOL    HW3 8186   0.583   0.203   1.065  0.3294 -0.7272 -0.0990
 2035SOL    MW4 8187   0.518   0.209   1.123  0.5054  0.1472  0.0132
 2036SOL     OW 8188   0.280   3.934   4.201 -0.3082  0.1028 -0.2257
 2036SOL    HW2 8189   0.337   3.862   4.226 -0.2623  0.2058 -0.0372
 2036SOL    HW3 8190   0.338   4.009   4.188 -0.3484  0.0896 -0.4847
 2036SOL    MW4 8191   0.295   3.935   4.203 -0.3075  0.1147 -0.2346
 2037SOL     OW 8192   4.188   1.609   3.129 -0.0026 -0.2720 -0.5138
 2037SOL    HW2 8193   4.156   1.520   3.147 -0.0211 -0.1695 -0.0344
 2037SOL    HW3 8194   4.247   1.598   3.054 -0.5857 -0.5743 -0.9287
 2037SOL    MW4 8195   4.192   1.596   3.122 -0.0820 -0.2983 -0.5052
 2038SOL     OW 8196   0.181   2.544   3.222  0.0597  0.3573 -0.3792
 2038SOL    HW2 8197   0.147   2.625   3.186  0.3572  0.2499 -0.9058
 2038SOL    HW3 8198   0.235   2.507   3.152  0.2001 -0.1230 -0.0224
 2038SOL    MW4 8199   0.184   2.550   3.208  0.1175  0.2797 -0.4013
 2039SOL     OW 8200   4.250   1.063   4.088 -0.1433  0.0328 -0.0905
 2039SOL    HW2 8201   4.261   0.971   4.113 -0.8964  0.1423  0.6674
 2039SOL    HW3 8202   4.290   1.069   4.001  0.6214 -0.8263  0.1937
 2039SOL    MW4 8203   4.257   1.051   4.080 -0.1416 -0.0662  0.0477
 2040SOL     OW 8204   1.180   1.175   0.755 -0.0231 -0.0084 -0.3843
 2040SOL    HW2 8205   1.258   1.123   0.775  0.2263  0.4404 -0.1797
 2040SOL    HW3 8206   1.195   1.259   0.798 -1.5465 -0.6190  1.3941
 2040SOL    MW4 8207   1.192   1.179   0.763 -0.1912 -0.0298 -0.1226
 2041SOL     OW 8208   1.590   1.522   1.129 -0.4354  0.0464  0.8891
 2041SOL    HW2 8209   1.585   1.467   1.051  0.7755  0.5796  0.4191
 2041SOL    HW3 8210   1.569   1.610   1.097  1.0086  0.4262  0.9799
 2041SOL    MW4 8211   1.586   1.527   1.114 -0.0851  0.1669  0.8390
 2042SOL     OW 8212   2.846   0.378   0.739  0.0684  0.3369 -0.1742
 2042SOL    HW2 8213   2.823   0.455   0.791 -2.8439 -0.2606 -0.4922
 2042SOL    HW3 8214   2.805   0.393   0.654  1.1026 -0.7063 -0.8771
 2042SOL    MW4 8215   2.837   0.390   0.735 -0.1795  0.1204 -0.3089
 2043SOL     OW 8216   1.813   1.287   4.270  0.1274 -0.2627 -0.1132
 2043SOL    HW2 8217   1.766   1.203   4.265 -0.1756 -0.0896 -0.1894
 2043SOL    HW3 8218   1.821   1.314   4.179  0.4791 -0.3487 -0.1069
 2043SOL    MW4 8219   1.808   1.279   4.257  0.1339 -0.2513 -0.1225
 2044SOL     OW 8220   1.584   0.467   2.363 -0.0080 -0.3487  0.1957
 2044SOL    HW2 8221   1.580   0.559   2.337 -0.0256 -0.8945 -1.8802
 2044SOL    HW3 8222   1.528   0.422   2.300  0.2513 -1.8266  0.9901
 2044SOL    MW4 8223   1.576   0.473   2.351  0.0237 -0.6157  0.0265
 2045SOL     OW 8224   2.934   2.731   0.493 -0.1967 -0.1641 -0.1553
 2045SOL    HW2 8225   2.951   2.640   0.516 -0.0791  0.1544  1.0868
 2045SOL    HW3 8226   2.913   2.773   0.577  1.1781  1.2632 -0.5028
 2045SOL    MW4 8227   2.933   2.725   0.507  0.0002  0.0663 -0.0373
 2046SOL     OW 8228   2.945   2.082   2.624 -0.1129  0.0568  0.0618
 2046SOL    HW2 8229   2.918   1.990   2.623  0.1805 -0.0335  0.3258
 2046SOL    HW3 8230   2.967   2.102   2.533 -1.4738  0.2558 -0.2425
 2046SOL    MW4 8231   2.944   2.073   2.612 -0.2537  0.0713  0.0563
 2047SOL     OW 8232   0.341   2.352   2.433  0.5988 -0.1037  0.2453
 2047SOL    HW2 8233   0.337   2.349   2.529  0.2561 -0.5260  0.2212
 2047SOL    HW3 8234   0.422   2.399   2.414  0.4621  0.3440  0.7442
 2047SOL    MW4 8235   0.351   2.358   2.443  0.5356 -0.1004  0.3078
 2048SOL     OW 8236   2.899   0.050   0.618  0.0760  0.3161 -0.3219
 2048SOL    HW2 8237   2.928  -0.040   0.606  0.7128  0.4745  0.0105
 2048SOL    HW3 8238   2.883   0.082   0.529  0.3328  0.0359 -0.4691
 2048SOL    MW4 8239   2.900   0.043   0.605  0.1938  0.3001 -0.2975
 2049SOL     OW 8240   2.508   1.258   1.295  0.1551 -0.0959 -0.1828
 2049SOL    HW2 8241   2.599   1.279   1.313  0.5997 -1.9939 -0.1295
 2049SOL    HW3 8242   2.465   1.259   1.381  0.2108  0.3441 -0.1581
 2049SOL    MW4 8243   2.514   1.261   1.309  0.2210 -0.2884 -0.1726
 2050SOL     OW 8244   1.414   4.212   2.195 -0.4653 -0.2669  0.5609
 2050SOL    HW2 8245   1.326   4.250   2.194 -0.7971 -1.0478 -0.1254
 2050SOL    HW3 8246   1.452   4.243   2.278 -1.1493  0.5915  0.5607
 2050SOL    MW4 8247   1.408   4.221   2.206 -0.5994 -0.2565  0.4702
 2051SOL     OW 8248   1.911   2.647   0.439  0.0533  0.2968  0.2993
 2051SOL    HW2 8249   1.965   2.590   0.494 -1.1047 -0.7940  0.3154
 2051SOL    HW3 8250   1.855   2.694   0.500 -0.8259 -0.4835  0.0966
 2051SOL    MW4 8251   1.911   2.645   0.454 -0.2155  0.0498  0.2747
 2052SOL     OW 8252   0.390   3.178   3.712  0.0318 -0.0379 -0.0386
 2052SOL    HW2 8253   0.481   3.178   3.682 -0.5596 -1.6744 -1.9091
 2052SOL    HW3 8254   0.383   3.100   3.767 -0.0241  0.5928  0.8680
 2052SOL    MW4 8255   0.401   3.168   3.715 -0.0536 -0.1705 -0.1662
 2053SOL     OW 8256   0.472   2.778   3.608  0.9161 -0.5742 -0.3877
 2053SOL    HW2 8257   0.389   2.757   3.565  2.6732  1.0073 -4.7828
 2053SOL    HW3 8258   0.446   2.831   3.684 -2.2232 -2.6448  0.0959
 2053SOL    MW4 8259   0.457   2.783   3.613  0.7337 -0.6387 -0.9038
 2054SOL     OW 8260   0.172   2.805   1.427 -0.2562  0.1961  0.1125
 2054SOL    HW2 8261   0.256   2.762   1.412  0.4570  0.8576  2.1117
 2054SOL    HW3 8262   0.165   2.868   1.355  0.9729  0.1785 -0.0352
 2054SOL    MW4 8263   0.182   2.808   1.415  0.0001  0.2811  0.3568
 2055SOL     OW 8264   2.764   1.769   0.047 -0.4421 -0.0507  0.0100
 2055SOL    HW2 8265   2.687   1.776  -0.009 -1.1608 -1.9014  0.7079
 2055SOL    HW3 8266   2.764   1.849   0.099 -1.4565  0.3153 -0.5426
 2055SOL    MW4 8267   2.754   1.780   0.047 -0.6709 -0.2466  0.0292
 2056SOL     OW 8268   0.318   3.136   2.684  0.0314  0.1584  0.4657
 2056SOL    HW2 8269   0.259   3.212   2.677 -0.5033 -0.2827  0.2046
 2056SOL    HW3 8270   0.404   3.175   2.695  0.0203  0.8225 -1.5670
 2056SOL    MW4 8271   0.321   3.151   2.685 -0.0406  0.1879  0.1631
 2057SOL     OW 8272   2.036   4.057   2.959 -0.1168 -0.1485  0.4385
 2057SOL    HW2 8273   1.951   4.045   2.917 -0.1485  0.4241  0.3388
 2057SOL    HW3 8274   2.021   4.036   3.051 -0.4711  0.4214  0.5074
 2057SOL    MW4 8275   2.023   4.053   2.965 -0.1674  0.0019  0.4346
 2058SOL     OW 8276   1.703   2.089   0.144 -0.0573  0.5419 -0.1870
 2058SOL    HW2 8277   1.743   2.168   0.108 -1.3668 -0.2272 -3.4537
 2058SOL    HW3 8278   1.616   2.085   0.104 -0.4273 -1.9660  0.7807
 2058SOL    MW4 8279   1.697   2.099   0.134 -0.2788  0.1094 -0.4903
 2059SOL     OW 8280   0.846   4.226   0.582  0.5797 -0.3839 -0.3467
 2059SOL    HW2 8281   0.751   4.220   0.573  0.3186  0.9492  1.2214
 2059SOL    HW3 8282   0.865   4.177   0.662  0.8242  1.9857  1.0691
 2059SOL    MW4 8283   0.836   4.219   0.592  0.5776  0.1049  0.0470
 2060SOL     OW 8284   2.276   2.754   2.212  0.0364 -0.2182  0.1809
 2060SOL    HW2 8285   2.281   2.850   2.213  1.5770 -0.2827  1.0213
 2060SOL    HW3 8286   2.251   2.731   2.302 -0.2136 -0.6167  0.0101
 2060SOL    MW4 8287   2.273   2.764   2.224  0.2067 -0.2792  0.2694
 2061SOL     OW 8288   3.465   2.217   1.893  0.1900  0.2262  0.7901
 2061SOL    HW2 8289   3.400   2.264   1.945  0.1786  1.2886 -0.1693
 2061SOL    HW3 8290   3.483   2.274   1.819  0.3840 -1.1727 -0.2612
 2061SOL    MW4 8291   3.459   2.231   1.890  0.2143  0.1814  0.5249
 2062SOL     OW 8292   3.476   1.420   3.245  0.0460 -0.3704  0.7724
 2062SOL    HW2 8293   3.556   1.466   3.272  0.3636 -1.1621  1.1883
 2062SOL    HW3 8294   3.478   1.423   3.149  0.3626 -0.0154  0.7883
 2062SOL    MW4 8295   3.487   1.426   3.236  0.1297 -0.4281  0.8295
 2063SOL     OW 8296   3.507   3.945   0.328 -0.1413  0.2161  0.1257
 2063SOL    HW2 8297   3.424   3.936   0.282  0.0570 -1.2541  0.0285
 2063SOL    HW3 8298   3.493   3.900   0.412 -0.5487  2.9881  1.5948
 2063SOL    MW4 8299   3.494   3.938   0.333 -0.1690  0.3881  0.3067
 2064SOL     OW 8300   4.343   1.712   0.477  0.6273 -0.7999 -0.0729
 2064SOL    HW2 8301   4.270   1.760   0.438 -0.8005 -1.5471  1.5705
 2064SOL    HW3 8302   4.373   1.653   0.408 -0.2679 -0.4211 -0.7951
 2064SOL    MW4 8303   4.337   1.711   0.463  0.3204 -0.8485  0.0486
 2065SOL     OW 8304   2.467   0.538   3.465  0.1076 -0.2608 -0.4123
 2065SOL    HW2 8305   2.390   0.564   3.514  0.3754 -0.7705  0.2796
 2065SOL    HW3 8306   2.541   0.563   3.520  0.4015 -1.0434 -0.4419
 2065SOL    MW4 8307   2.466   0.544   3.478  0.1817 -0.4312 -0.3250
 2066SOL     OW 8308   3.444   2.310   3.418  0.3475 -0.0895 -0.0085
 2066SOL    HW2 8309   3.413   2.280   3.332  0.4620  1.5594 -0.6522
 2066SOL    HW3 8310   3.540   2.303   3.413  0.2799 -1.6839  0.6459
 2066SOL    MW4 8311   3.453   2.305   3.406  0.3538 -0.0823 -0.0069
 2067SOL     OW 8312   0.875   3.039   3.189 -0.2602  0.0246  0.5437
 2067SOL    HW2 8313   0.781   3.020   3.190 -0.0777 -0.9791 -0.4716
 2067SOL    HW3 8314   0.915   2.962   3.229  0.2194 -0.1299 -0.2275
 2067SOL    MW4 8315   0.868   3.027   3.195 -0.1728 -0.1285  0.3080
 2068SOL     OW 8316   3.990   2.193   0.508 -0.1344 -0.0571  0.0442
 2068SOL    HW2 8317   4.055   2.260   0.485  0.4672 -0.0618  1.6431
 2068SOL    HW3 8318   4.042   2.122   0.545 -0.9120 -0.7616 -0.2046
 2068SOL    MW4 8319   4.006   2.193   0.510 -0.1574 -0.1504  0.2223
 2069SOL     OW 8320   2.038   0.316   2.419  0.7427  0.1244 -0.0138
 2069SOL    HW2 8321   1.997   0.325   2.333 -0.6540 -1.4726  0.4563
 2069SOL    HW3 8322   2.095   0.392   2.427 -0.4189  1.1853 -1.6430
 2069SOL    MW4 8323   2.040   0.327   2.409  0.4051  0.0536 -0.1664
 2070SOL     OW 8324   2.231   2.001   2.181 -0.4245 -0.2740 -0.0370
 2070SOL    HW2 8325   2.266   1.964   2.101  1.4649 -1.6746  1.3834
 2070SOL    HW3 8326   2.156   1.946   2.203 -1.9320  1.0797 -1.6452
 2070SOL    MW4 8327   2.226   1.989   2.174 -0.3741 -0.2800 -0.0615
 2071SOL     OW 8328   1.946   0.500   3.364  0.5098  0.0142 -0.1974
 2071SOL    HW2 8329   1.924   0.471   3.453 -1.2518 -1.4987 -1.0862
 2071SOL    HW3 8330   1.868   0.546   3.334  1.4162  1.2574 -0.6788
 2071SOL    MW4 8331   1.933   0.502   3.372  0.3971 -0.0213 -0.3779
 2072SOL     OW 8332   3.341   1.606   2.735 -0.1466  0.8046 -0.2870
 2072SOL    HW2 8333   3.416   1.665   2.743 -0.5271  1.2609 -0.1410
 2072SOL    HW3 8334   3.276   1.640   2.796 -0.3445  0.1995 -0.1505
 2072SOL    MW4 8335   3.343   1.618   2.744 -0.2229  0.7849 -0.2496
 2073SOL     OW 8336   2.356   3.808   2.251 -0.4527 -0.7323  0.0888
 2073SOL    HW2 8337   2.354   3.795   2.346 -3.0100 -1.5038 -0.0142
 2073SOL    HW3 8338   2.370   3.902   2.240  4.5103 -1.1994  1.0964
 2073SOL    MW4 8339   2.357   3.818   2.262 -0.1354 -0.8957  0.2081
 2074SOL     OW 8340   4.375   2.877   1.175  0.1504  0.1498  0.3758
 2074SOL    HW2 8341   4.331   2.846   1.254 -0.3746 -0.0602  0.0021
 2074SOL    HW3 8342   4.319   2.949   1.144  0.5304  0.4452  0.3774
 2074SOL    MW4 8343   4.362   2.883   1.181  0.1311  0.1614  0.3268
 2075SOL     OW 8344   0.269   2.729   0.787  0.6762  0.0073  0.8258
 2075SOL    HW2 8345   0.258   2.652   0.842  1.7279 -1.0574 -0.4236
 2075SOL    HW3 8346   0.279   2.695   0.699  0.8980  1.5910  0.2158
 2075SOL    MW4 8347   0.269   2.715   0.783  0.8442  0.0756  0.5805
 2076SOL     OW 8348   4.108   1.814   0.385 -0.0373  0.2106  0.6312
 2076SOL    HW2 8349   4.057   1.733   0.383  1.1355 -0.5300 -1.5843
 2076SOL    HW3 8350   4.091   1.855   0.300  2.0671  0.5438  0.3369
 2076SOL    MW4 8351   4.099   1.809   0.374  0.3948  0.1568  0.3000
 2077SOL     OW 8352   1.850   2.851   2.032 -0.6066  0.3169 -0.2147
 2077SOL    HW2 8353   1.801   2.793   2.089 -0.0883  0.9778  0.9311
 2077SOL    HW3 8354   1.934   2.807   2.019 -0.7833  0.0923 -0.6017
 2077SOL    MW4 8355   1.855   2.838   2.038 -0.5616  0.3746 -0.1147
 2078SOL     OW 8356   1.130   2.533   3.743  0.5064  0.1953  0.4270
 2078SOL    HW2 8357   1.057   2.495   3.695  0.9027  0.6880 -0.5878
 2078SOL    HW3 8358   1.188   2.458   3.761  0.6053  0.0757 -0.3334
 2078SOL    MW4 8359   1.128   2.518   3.739  0.5718  0.2444  0.1929
 2079SOL     OW 8360   1.137   1.669   0.626  0.2570  0.1588  0.2871
 2079SOL    HW2 8361   1.081   1.610   0.576 -0.9633  0.7467  0.9268
 2079SOL    HW3 8362   1.076   1.717   0.683  1.5666 -0.3613  2.1872
 2079SOL    MW4 8363   1.121   1.667   0.627  0.2688  0.1677  0.6222
 2080SOL     OW 8364   3.794   2.187   2.508  0.0107  0.1696  1.0569
 2080SOL    HW2 8365   3.862   2.250   2.483 -0.3735  0.3581  0.4887
 2080SOL    HW3 8366   3.749   2.230   2.581 -1.4704  1.3959 -0.5500
 2080SOL    MW4 8367   3.797   2.201   2.515 -0.2353  0.3562  0.7696
 2081SOL     OW 8368   3.103   2.153   1.661  0.4074 -0.2876  0.0672
 2081SOL    HW2 8369   3.082   2.145   1.754 -1.8171  1.4753 -0.2262
 2081SOL    HW3 8370   3.045   2.089   1.618 -0.4257  0.6780 -0.2836
 2081SOL    MW4 8371   3.092   2.143   1.668  0.0041  0.0725 -0.0179
 2082SOL     OW 8372   0.234   2.653   3.514 -0.5250 -0.2252  0.0306
 2082SOL    HW2 8373   0.209   2.584   3.452 -0.6075 -0.9424  0.8492
 2082SOL    HW3 8374   0.179   2.728   3.489 -1.3798 -0.8630 -0.0401
 2082SOL    MW4 8375   0.224   2.654   3.502 -0.6487 -0.4036  0.1292
 2083SOL     OW 8376   2.927   1.393   2.059 -0.3264  0.0853 -0.1452
 2083SOL    HW2 8377   2.964   1.405   2.147 -0.9276  0.7662  0.0211
 2083SOL    HW3 8378   2.987   1.332   2.016  1.3684  1.6264 -0.0848
 2083SOL    MW4 8379   2.940   1.387   2.065 -0.1822  0.3784 -0.1154
 2084SOL     OW 8380   3.155   2.111   3.578  0.0034  0.4632 -0.1139
 2084SOL    HW2 8381   3.175   2.196   3.540 -0.4123  0.7256  0.2579
 2084SOL    HW3 8382   3.063   2.117   3.605  0.2913  0.2750  0.9285
 2084SOL    MW4 8383   3.145   2.123   3.576 -0.0136  0.4730  0.0725
 2085SOL     OW 8384   2.844   0.807   0.447 -0.1777  0.2223 -0.6666
 2085SOL    HW2 8385   2.859   0.860   0.369  0.5624  1.2411  0.1511
 2085SOL    HW3 8386   2.899   0.730   0.435 -1.6672 -0.6339 -2.1111
 2085SOL    MW4 8387   2.853   0.804   0.435 -0.2763  0.2438 -0.7493
 2086SOL     OW 8388   0.353   0.110   2.188 -0.1292  0.2759  0.0389
 2086SOL    HW2 8389   0.391   0.044   2.132  1.5290  0.6505  0.6834
 2086SOL    HW3 8390   0.319   0.177   2.128 -0.3319 -0.3569 -0.5545
 2086SOL    MW4 8391   0.353   0.110   2.173  0.0628  0.2418  0.0455
 2087SOL     OW 8392   1.158   2.134   3.069 -0.4362  0.0956  0.5197
 2087SOL    HW2 8393   1.188   2.128   2.979  0.7717 -0.9767  0.9786
 2087SOL    HW3 8394   1.125   2.047   3.091  1.5526 -0.3620  1.8661
 2087SOL    MW4 8395   1.158   2.122   3.060 -0.0144 -0.1066  0.7579
 2088SOL     OW 8396   1.014   0.731   1.966  0.2779  0.0064  0.4425
 2088SOL    HW2 8397   1.034   0.823   1.985  1.4536 -0.2031  0.2654
 2088SOL    HW3 8398   0.979   0.697   2.048 -0.2014  0.6238  0.4961
 2088SOL    MW4 8399   1.012   0.739   1.979  0.3698  0.0603  0.4262
 2089SOL     OW 8400   1.202   3.312   2.675 -0.1726  0.1731 -0.3153
 2089SOL    HW2 8401   1.186   3.239   2.735  1.5953  0.7404  0.8998
 2089SOL    HW3 8402   1.206   3.271   2.588 -1.5015 -0.8378  0.0852
 2089SOL    MW4 8403   1.201   3.297   2.671 -0.1148  0.1144 -0.1020
 2090SOL     OW 8404   4.032   3.160   1.482 -0.1677 -0.0642 -0.1144
 2090SOL    HW2 8405   3.980   3.208   1.547 -0.4966  0.7154 -0.9504
 2090SOL    HW3 8406   4.119   3.155   1.521 -0.2143  0.9077  0.1340
 2090SOL    MW4 8407   4.037   3.166   1.496 -0.2170  0.1669 -0.1919
 2091SOL     OW 8408   2.892   2.019   0.843 -0.0888  0.2387 -0.2620
 2091SOL    HW2 8409   2.986   2.028   0.854  0.0273 -1.2084  0.0247
 2091SOL    HW3 8410   2.861   1.985   0.928 -0.4153 -2.3766 -1.3809
 2091SOL    MW4 8411   2.900   2.016   0.856 -0.1163 -0.2973 -0.3718
 2092SOL     OW 8412   0.913   0.664   0.081 -0.5402 -0.4555  0.2156
 2092SOL    HW2 8413   0.875   0.662   0.169  3.6953  1.6988  2.2164
 2092SOL    HW3 8414   0.870   0.737   0.037 -4.6915 -3.2008 -0.6513
 2092SOL    MW4 8415   0.902   0.673   0.087 -0.5291 -0.5335  0.3652
 2093SOL     OW 8416   2.017   2.888   0.298 -0.4024 -0.5919  0.3812
 2093SOL    HW2 8417   1.958   2.839   0.355 -0.6594  0.0792  0.6929
 2093SOL    HW3 8418   1.963   2.958   0.261 -0.3183 -1.1758 -0.9040
 2093SOL    MW4 8419   2.002   2.891   0.300 -0.4253 -0.5808  0.2528
 2094SOL     OW 8420   1.031   0.539   0.446 -0.4151  0.2903  0.0343
 2094SOL    HW2 8421   0.977   0.535   0.525 -0.6307  0.4192 -0.1035
 2094SOL    HW3 8422   1.094   0.468   0.456 -0.0345  0.7082  0.6155
 2094SOL    MW4 8423   1.032   0.529   0.457 -0.3934  0.3625  0.0928
 2095SOL     OW 8424   0.249   1.235   0.952  0.1833  0.0390 -0.3863
 2095SOL    HW2 8425   0.158   1.262   0.946  0.2634  0.2400 -0.6853
 2095SOL    HW3 8426   0.296   1.296   0.895  0.4621 -0.2564 -0.4716
 2095SOL    MW4 8427   0.243   1.247   0.944  0.2307  0.0266 -0.4370
 2096SOL     OW 8428   1.806   0.047   3.165 -0.1542 -0.0064 -0.3709
 2096SOL    HW2 8429   1.796   0.101   3.086  1.2578  2.4402  1.0538
 2096SOL    HW3 8430   1.726   0.063   3.215  0.3443  0.8964  0.1331
 2096SOL    MW4 8431   1.794   0.056   3.161  0.0978  0.4355 -0.1166
 2097SOL     OW 8432   0.492   1.039   2.869  0.2357 -0.0474  0.0148
 2097SOL    HW2 8433   0.525   1.035   2.779 -1.9477 -1.7895 -0.7492
 2097SOL    HW3 8434   0.401   1.011   2.862  0.4356 -1.6396  2.9633
 2097SOL    MW4 8435   0.485   1.034   2.856 -0.0260 -0.4872  0.3030
 2098SOL     OW 8436   3.459   4.500   0.946 -0.2346 -0.4088 -0.0724
 2098SOL    HW2 8437   3.422   4.503   0.858 -0.7113 -0.2987  0.1273
 2098SOL    HW3 8438   3.432   4.414   0.980 -0.2269 -0.3674  0.0379
 2098SOL    MW4 8439   3.450   4.489   0.939 -0.2966 -0.3896 -0.0315
 2099SOL     OW 8440   2.642   2.695   0.472  0.4166  0.1058 -0.3296
 2099SOL    HW2 8441   2.736   2.712   0.469  0.2665  0.6963 -2.9922
 2099SOL    HW3 8442   2.625   2.671   0.563  3.2763 -0.8548  0.0043
 2099SOL    MW4 8443   2.652   2.694   0.484  0.7739  0.0572 -0.6368
 2100SOL     OW 8444   4.025   4.560   1.339  0.3513  0.1675 -0.3746
 2100SOL    HW2 8445   4.115   4.531   1.351 -0.0985 -0.3630  1.8273
 2100SOL    HW3 8446   4.005   4.612   1.416 -0.8210  1.3648 -1.4501
 2100SOL    MW4 8447   4.034   4.563   1.351  0.1373  0.2556 -0.2259
 2101SOL     OW 8448   2.405   0.334   2.139 -0.2819 -0.2845  0.1423
 2101SOL    HW2 8449   2.419   0.404   2.203 -0.8452 -0.2240  0.2068
 2101SOL    HW3 8450   2.458   0.261   2.171 -1.6175 -0.7202  1.4503
 2101SOL    MW4 8451   2.414   0.334   2.152 -0.5326 -0.3340  0.3233
 2102SOL     OW 8452   2.447   4.419   1.995  0.0294 -0.0269 -0.2492
 2102SOL    HW2 8453   2.376   4.379   2.046 -0.1422 -0.5617 -0.9046
 2102SOL    HW3 8454   2.525   4.408   2.050 -0.6163  1.7755  1.0835
 2102SOL    MW4 8455   2.448   4.412   2.009 -0.0784  0.1397 -0.1600
 2103SOL     OW 8456   1.031   1.498   2.731 -0.0385  0.2657  0.2676
 2103SOL    HW2 8457   0.969   1.439   2.688 -0.9009 -0.8340  2.9051
 2103SOL    HW3 8458   0.978   1.570   2.764  0.6691  1.2854 -0.7633
 2103SOL    MW4 8459   1.016   1.499   2.729 -0.0590  0.2551  0.4795
 2104SOL     OW 8460   4.332   1.002   3.146  0.4578 -0.4431  0.1855
 2104SOL    HW2 8461   4.245   1.041   3.135  1.1950  0.8204 -1.3459
 2104SOL    HW3 8462   4.325   0.951   3.227 -1.2578  0.8926  0.9289
 2104SOL    MW4 8463   4.319   1.001   3.156  0.3285 -0.1001  0.0813
 2105SOL     OW 8464   3.008   0.953   1.852 -0.5914 -0.0603 -0.3552
 2105SOL    HW2 8465   3.054   0.896   1.912 -1.2897  0.3783  0.6174
 2105SOL    HW3 8466   2.942   0.897   1.811  0.8988 -0.7356 -1.8969
 2105SOL    MW4 8467   3.005   0.938   1.854 -0.4866 -0.0916 -0.4303
 2106SOL     OW 8468   3.475   1.438   0.415 -0.2749  0.1086  0.1029
 2106SOL    HW2 8469   3.453   1.402   0.501 -0.9052 -2.0293 -0.9243
 2106SOL    HW3 8470   3.555   1.393   0.390 -0.8261 -0.2737 -1.0127
 2106SOL    MW4 8471   3.483   1.428   0.423 -0.4308 -0.2239 -0.1798
 2107SOL     OW 8472   3.971   3.802   0.871 -0.6425  0.1482 -0.5371
 2107SOL    HW2 8473   3.941   3.794   0.780 -1.1755  1.7057 -0.5098
 2107SOL    HW3 8474   3.892   3.791   0.923 -0.4492 -0.0213 -0.2806
 2107SOL    MW4 8475   3.957   3.799   0.866 -0.6871  0.3314 -0.4996
 2108SOL     OW 8476   4.371   1.395   1.748 -0.3033 -0.6214  0.4269
 2108SOL    HW2 8477   4.281   1.382   1.779 -0.6061 -0.5949 -0.4204
 2108SOL    HW3 8478   4.363   1.393   1.652  0.3245  1.2076  0.3172
 2108SOL    MW4 8479   4.358   1.393   1.739 -0.2604 -0.3766  0.3005
 2109SOL     OW 8480   4.281   2.208   1.263  0.3571 -0.0353 -0.0355
 2109SOL    HW2 8481   4.255   2.221   1.172  0.5217 -0.2750 -0.1154
 2109SOL    HW3 8482   4.200   2.182   1.308  0.6199 -1.5877 -0.4413
 2109SOL    MW4 8483   4.267   2.206   1.257  0.4134 -0.2718 -0.0995
 2110SOL     OW 8484   3.766   3.832   2.445 -0.2077  0.1645  0.3076
 2110SOL    HW2 8485   3.856   3.856   2.425 -0.1753  0.0705  0.3426
 2110SOL    HW3 8486   3.731   3.907   2.494 -0.1214  0.1590  0.3759
 2110SOL    MW4 8487   3.773   3.845   2.448 -0.1922  0.1512  0.3211
 2111SOL     OW 8488   2.896   2.403   3.573  0.1219 -0.0502  0.0201
 2111SOL    HW2 8489   2.967   2.406   3.509 -1.7095 -2.3578 -2.2482
 2111SOL    HW3 8490   2.874   2.310   3.581 -1.2122  0.4065  2.3248
 2111SOL    MW4 8491   2.903   2.391   3.566 -0.2959 -0.2944  0.0248
 2112SOL     OW 8492   0.006   0.737   1.672  0.2983  0.4047  0.6318
 2112SOL    HW2 8493   0.099   0.716   1.666 -0.1354 -1.1483 -1.0161
 2112SOL    HW3 8494   0.004   0.825   1.709  2.4377  0.8370 -0.2062
 2112SOL    MW4 8495   0.018   0.746   1.676  0.5235  0.2568  0.3039
 2113SOL     OW 8496   2.111   1.256   1.749 -0.5173  0.5522  0.4680
 2113SOL    HW2 8497   2.070   1.303   1.677 -0.2890 -0.5048 -0.3618
 2113SOL    HW3 8498   2.122   1.322   1.818 -1.3330  1.4122 -0.2146
 2113SOL    MW4 8499   2.107   1.271   1.749 -0.5949  0.5263  0.2683
 2114SOL     OW 8500   3.125   2.356   3.386 -0.1757  0.2363 -0.3922
 2114SOL    HW2 8501   3.122   2.425   3.319  0.1494 -0.5018 -1.1869
 2114SOL    HW3 8502   3.115   2.275   3.336  0.1420 -0.3273  0.4561
 2114SOL    MW4 8503   3.124   2.354   3.370 -0.0906  0.0644 -0.3853
 2115SOL     OW 8504   3.961   3.800   3.067  0.1125 -0.3928  0.1158
 2115SOL    HW2 8505   3.992   3.880   3.025 -1.3712  0.0144 -0.2430
 2115SOL    HW3 8506   3.873   3.822   3.099 -0.7966 -2.2384 -1.0386
 2115SOL    MW4 8507   3.953   3.814   3.066 -0.2031 -0.5825 -0.0839
 2116SOL     OW 8508   0.839   2.803   1.245 -0.7328 -0.0938  0.2056
 2116SOL    HW2 8509   0.853   2.873   1.181 -1.4337  0.4744  0.6740
 2116SOL    HW3 8510   0.818   2.848   1.326 -2.4894 -0.8711  0.2007
 2116SOL    MW4 8511   0.838   2.818   1.247 -1.0571 -0.1216  0.2667
 2117SOL     OW 8512   2.037   2.236   1.845 -0.1515 -0.6699  0.4920
 2117SOL    HW2 8513   2.093   2.304   1.807 -2.5233  0.2396 -1.5192
 2117SOL    HW3 8514   2.078   2.154   1.820  1.3098 -0.0062  0.6664
 2117SOL    MW4 8515   2.050   2.234   1.837 -0.2716 -0.4623  0.2496
 2118SOL     OW 8516   1.854   1.127   3.803 -0.0016 -0.4230 -0.1132
 2118SOL    HW2 8517   1.832   1.212   3.841 -1.0362 -0.2165 -1.1586
 2118SOL    HW3 8518   1.934   1.144   3.753 -1.2805  0.3955 -1.9228
 2118SOL    MW4 8519   1.862   1.141   3.802 -0.3067 -0.2878 -0.4900
 2119SOL     OW 8520   4.439   0.373   4.082 -0.2033 -0.2143 -0.0561
 2119SOL    HW2 8521   4.529   0.405   4.075 -0.3332  0.1726  0.0459
 2119SOL    HW3 8522   4.445   0.280   4.060  0.1829 -0.1353 -0.2831
 2119SOL    MW4 8523   4.452   0.365   4.078 -0.1698 -0.1529 -0.0725
 2120SOL     OW 8524   1.711   3.590   3.183  0.3653  0.4121  0.3829
 2120SOL    HW2 8525   1.642   3.643   3.143  1.2979  0.9767 -0.5052
 2120SOL    HW3 8526   1.760   3.652   3.238  0.2496  0.0384  0.9163
 2120SOL    MW4 8527   1.709   3.605   3.185  0.4731  0.4370  0.3364
 2121SOL     OW 8528   0.206   4.095   2.493  0.3190  0.0349  0.4786
 2121SOL    HW2 8529   0.174   4.005   2.490  0.9496 -0.1555 -0.8913
 2121SOL    HW3 8530   0.296   4.090   2.461 -0.8051  1.6289 -3.3422
 2121SOL    MW4 8531   0.214   4.082   2.488  0.2539  0.2198 -0.2065
 2122SOL     OW 8532   1.298   2.317   3.745 -0.0135  0.1857  0.3610
 2122SOL    HW2 8533   1.391   2.335   3.760  0.3535 -0.9057 -0.5510
 2122SOL    HW3 8534   1.297   2.238   3.691 -1.4852 -0.0706  0.7408
 2122SOL    MW4 8535   1.310   2.309   3.740 -0.1593  0.0079  0.2909
 2123SOL     OW 8536   0.050   0.673   2.995 -0.0242  0.2307  0.0367
 2123SOL    HW2 8537   0.079   0.583   2.975 -0.3357 -0.2611  1.7553
 2123SOL    HW3 8538   0.131   0.724   2.995  0.5212 -0.5803  1.7954
 2123SOL    MW4 8539   0.065   0.668   2.992  0.0066  0.0588  0.4954
 2124SOL     OW 8540   3.607   3.983   3.379 -0.3039  0.4373 -0.1614
 2124SOL    HW2 8541   3.514   4.007   3.369 -0.5642 -0.5275 -0.0910
 2124SOL    HW3 8542   3.620   3.977   3.474  0.2307  2.0848 -0.1138
 2124SOL    MW4 8543   3.596   3.986   3.390 -0.2677  0.5271 -0.1457
 2125SOL     OW 8544   4.010   1.965   4.289  0.3518  0.4074 -0.3960
 2125SOL    HW2 8545   3.920   1.999   4.288  1.0594  2.3508 -1.4284
 2125SOL    HW3 8546   4.016   1.911   4.211  0.0281  0.0805 -0.2000
 2125SOL    MW4 8547   3.999   1.962   4.279  0.4027  0.6207 -0.5064
 2126SOL     OW 8548   2.710   2.813   3.979  0.0189  0.0511 -0.3001
 2126SOL    HW2 8549   2.666   2.728   3.986 -0.9091  0.7116  2.7060
 2126SOL    HW3 8550   2.798   2.797   4.015 -0.2383  0.4099  0.4907
 2126SOL    MW4 8551   2.716   2.799   3.985 -0.1376  0.1855  0.2012
 2127SOL     OW 8552   0.157   3.121   2.346  0.2436  0.1446  0.2810
 2127SOL    HW2 8553   0.123   3.093   2.261  1.4747  0.2695 -0.2743
 2127SOL    HW3 8554   0.087   3.101   2.408 -1.0058  0.8237 -0.8745
 2127SOL    MW4 8555   0.143   3.114   2.343  0.2412  0.2506  0.0553
 2128SOL     OW 8556   1.525   3.890   1.338 -0.3508  0.3061  0.1078
 2128SOL    HW2 8557   1.471   3.946   1.394 -1.3743 -0.7989  0.2462
 2128SOL    HW3 8558   1.501   3.801   1.363 -1.2641 -0.2210 -2.4898
 2128SOL    MW4 8559   1.514   3.886   1.348 -0.6064  0.0908 -0.2167
 2129SOL     OW 8560   4.009   4.130   3.161  0.3489 -0.0057 -0.4043
 2129SOL    HW2 8561   4.020   4.123   3.066  0.4192 -1.1706 -0.3163
 2129SOL    HW3 8562   4.072   4.068   3.198 -0.1957 -0.1140  0.3760
 2129SOL    MW4 8563   4.019   4.121   3.153  0.2866 -0.1731 -0.2899
 2130SOL     OW 8564   3.049   2.172   2.910  0.5707 -0.0560 -0.5624
 2130SOL    HW2 8565   3.028   2.242   2.972  0.7139 -0.2959 -0.2431
 2130SOL    HW3 8566   3.116   2.209   2.853 -0.1352  0.4468 -1.0896
 2130SOL    MW4 8567   3.055   2.186   2.911  0.4964 -0.0212 -0.5898
 2131SOL     OW 8568   2.480   1.691   2.403  0.6574 -0.5442  0.1753
 2131SOL    HW2 8569   2.566   1.651   2.392  1.0294 -0.0909  1.3940
 2131SOL    HW3 8570   2.496   1.785   2.399  0.3856 -0.4301  1.4996
 2131SOL    MW4 8571   2.493   1.698   2.401  0.6709 -0.4693  0.5107
 2132SOL     OW 8572   1.246   3.385   1.486  0.6661  0.3436 -0.0882
 2132SOL    HW2 8573   1.264   3.421   1.573  1.6277  0.6973 -0.4232
 2132SOL    HW3 8574   1.332   3.358   1.453  0.0686 -1.4719 -0.2029
 2132SOL    MW4 8575   1.260   3.386   1.493  0.7141  0.1507 -0.1475
 2133SOL     OW 8576   1.552   0.030   3.296  0.1463 -0.3023  0.6332
 2133SOL    HW2 8577   1.567   0.004   3.387 -0.6240 -0.9601  0.5762
 2133SOL    HW3 8578   1.509   0.115   3.302 -1.9109 -1.3395  0.9488
 2133SOL    MW4 8579   1.548   0.037   3.309 -0.2267 -0.5259  0.6673
 2134SOL     OW 8580   2.744   1.364   4.419 -0.0355 -0.3692 -0.3272
 2134SOL    HW2 8581   2.771   1.387   4.508  0.1786  1.0833 -0.7473
 2134SOL    HW3 8582   2.691   1.285   4.429 -1.0819  0.5041  1.2427
 2134SOL    MW4 8583   2.740   1.357   4.432 -0.1450 -0.0623 -0.1755
 2135SOL     OW 8584   2.830   1.003   1.073  0.2771 -0.2230  0.2069
 2135SOL    HW2 8585   2.748   0.956   1.080 -0.7414  1.5800  0.6072
 2135SOL    HW3 8586   2.836   1.026   0.980 -0.1277  0.4621  0.3520
 2135SOL    MW4 8587   2.820   1.000   1.061  0.0894  0.1053  0.2787
 2136SOL     OW 8588   0.404   2.862   3.286  0.2571 -0.4801 -0.2495
 2136SOL    HW2 8589   0.341   2.849   3.215 -1.5827 -0.6542  1.3845
 2136SOL    HW3 8590   0.441   2.776   3.302 -0.3296 -0.6939 -0.0611
 2136SOL    MW4 8591   0.401   2.849   3.279 -0.0631 -0.5312 -0.0088
 2137SOL     OW 8592   1.609   1.030   2.703  0.5429  0.0048  0.1337
 2137SOL    HW2 8593   1.570   0.943   2.699  1.4746 -0.3650 -1.4540
 2137SOL    HW3 8594   1.692   1.021   2.657  0.7154  1.7068  0.0827
 2137SOL    MW4 8595   1.615   1.018   2.697  0.6887  0.1806 -0.0825
 2138SOL     OW 8596   0.195   2.905   2.792  0.5438 -0.0015  0.5952
 2138SOL    HW2 8597   0.230   2.832   2.741  0.8598  0.3358  0.3304
 2138SOL    HW3 8598   0.242   2.982   2.760 -2.5715  0.9649 -1.9929
 2138SOL    MW4 8599   0.206   2.906   2.781  0.1745  0.1707  0.2189
 2139SOL     OW 8600   3.614   4.155   0.459  0.7237 -0.0958 -0.0319
 2139SOL    HW2 8601   3.586   4.076   0.413 -0.5244  0.4812 -0.2592
 2139SOL    HW3 8602   3.573   4.149   0.545  2.3502 -0.7425  0.7173
 2139SOL    MW4 8603   3.605   4.144   0.464  0.7734 -0.1054  0.0370
 2140SOL     OW 8604   0.907   3.770   4.000  0.0695 -0.1941 -0.3307
 2140SOL    HW2 8605   0.897   3.778   3.905 -0.5142  0.5224 -0.2116
 2140SOL    HW3 8606   0.818   3.772   4.034  0.2180 -1.4256  0.1716
 2140SOL    MW4 8607   0.894   3.771   3.992  0.0121 -0.2620 -0.2489
 2141SOL     OW 8608   1.889   3.165   3.343  0.3033 -0.7038  0.4628
 2141SOL    HW2 8609   1.820   3.163   3.276  2.0050 -0.1744 -1.3571
 2141SOL    HW3 8610   1.845   3.195   3.422 -1.8301 -1.6370 -0.3298
 2141SOL    MW4 8611   1.874   3.169   3.344  0.2463 -0.7567  0.1180
 2142SOL     OW 8612   1.246   4.385   2.924  0.1206  0.7788 -0.0078
 2142SOL    HW2 8613   1.225   4.292   2.925 -0.2000  0.8318 -1.0635
 2142SOL    HW3 8614   1.197   4.422   2.998 -1.0735  0.3846 -0.5858
 2142SOL    MW4 8615   1.237   4.378   2.934 -0.0790  0.7334 -0.2232
 2143SOL     OW 8616   2.704   3.573   3.679  0.5961  0.1889 -0.0616
 2143SOL    HW2 8617   2.645   3.643   3.649 -0.5073 -0.3753  0.7476
 2143SOL    HW3 8618   2.664   3.493   3.645  1.5590 -0.1012 -0.5149
 2143SOL    MW4 8619   2.691   3.572   3.670  0.5777  0.0761 -0.0148
 2144SOL     OW 8620   0.818   2.158   2.135  0.3549  0.0235  0.1131
 2144SOL    HW2 8621   0.877   2.086   2.115  1.7202  1.1759 -0.0382
 2144SOL    HW3 8622   0.774   2.131   2.216 -0.8734 -2.0151 -1.2034
 2144SOL    MW4 8623   0.820   2.145   2.143  0.3730 -0.0932 -0.0806
 2145SOL     OW 8624   0.367   4.630   0.482  0.3406  0.3857 -0.1566
 2145SOL    HW2 8625   0.353   4.593   0.395  0.2201 -1.4206  0.6007
 2145SOL    HW3 8626   0.385   4.554   0.538 -1.4160  1.3136  1.7560
 2145SOL    MW4 8627   0.367   4.615   0.478  0.0930  0.2699  0.1957
 2146SOL     OW 8628   2.026   3.937   3.482 -0.2798  0.1187 -0.1130
 2146SOL    HW2 8629   2.119   3.924   3.463 -0.0041  0.4260  1.0127
 2146SOL    HW3 8630   1.986   3.851   3.469  0.2280 -0.1005 -0.2044
 2146SOL    MW4 8631   2.033   3.924   3.477 -0.1764  0.1304  0.0234
 2147SOL     OW 8632   3.755   0.422   4.024  0.3027  0.0289  0.4935
 2147SOL    HW2 8633   3.747   0.471   3.942  1.8375  0.7584  0.7599
 2147SOL    HW3 8634   3.830   0.462   4.069  1.5506 -2.5094  0.7528
 2147SOL    MW4 8635   3.764   0.434   4.019  0.6702 -0.2098  0.5631
 2148SOL     OW 8636   4.333   4.054   3.865  0.1122 -0.4048  0.1394
 2148SOL    HW2 8637   4.252   4.099   3.842 -0.0635 -0.8544 -0.1125
 2148SOL    HW3 8638   4.402   4.109   3.828 -0.0090  0.6080  1.3660
 2148SOL    MW4 8639   4.332   4.067   3.857  0.0730 -0.3309  0.2682
 2149SOL     OW 8640   2.173   1.719   0.673  0.5283  0.1951 -0.0716
 2149SOL    HW2 8641   2.118   1.777   0.727  2.1362  0.6870  1.0545
 2149SOL    HW3 8642   2.186   1.769   0.592 -3.1459 -1.1636 -1.6450
 2149SOL    MW4 8643   2.167   1.734   0.669  0.2558  0.0806 -0.1305
 2150SOL     OW 8644   1.244   1.723   1.205  0.4043 -0.2422 -0.1072
 2150SOL    HW2 8645   1.166   1.669   1.217 -0.6403  1.4302  0.8034
 2150SOL    HW3 8646   1.218   1.789   1.140  1.2977 -0.1545 -0.3766
 2150SOL    MW4 8647   1.230   1.725   1.198  0.3843 -0.0100 -0.0226
 2151SOL     OW 8648   0.803   2.804   2.431  0.0627  0.0674  0.6128
 2151SOL    HW2 8649   0.882   2.854   2.451 -0.3782  1.0915 -0.1612
 2151SOL    HW3 8650   0.832   2.737   2.369  0.8405 -1.2421  2.3498
 2151SOL    MW4 8651   0.817   2.802   2.426  0.1072  0.0296  0.7396
 2152SOL     OW 8652   3.927   2.769   1.586 -0.0067  0.0054 -0.2202
 2152SOL    HW2 8653   3.868   2.698   1.560  0.0830 -0.4245  0.7539
 2152SOL    HW3 8654   3.931   2.825   1.508 -1.3754 -0.1767 -0.4370
 2152SOL    MW4 8655   3.920   2.767   1.572 -0.1757 -0.0756 -0.1203
 2153SOL     OW 8656   4.319   0.021   3.450 -0.0917  0.4900  0.0659
 2153SOL    HW2 8657   4.378   0.059   3.515 -0.6869  1.8665 -0.1727
 2153SOL    HW3 8658   4.246   0.083   3.444 -0.1510  0.2899 -1.7456
 2153SOL    MW4 8659   4.317   0.034   3.458 -0.1783  0.6452 -0.2048
 2154SOL     OW 8660   0.894   1.103   0.778  0.0755 -0.4585 -0.2700
 2154SOL    HW2 8661   0.891   1.009   0.759  0.5002 -0.3378 -0.9703
 2154SOL    HW3 8662   0.986   1.120   0.798 -0.0070 -0.1991 -0.1074
 2154SOL    MW4 8663   0.906   1.093   0.778  0.1207 -0.4083 -0.3409
 2155SOL     OW 8664   0.308   0.532   1.433 -0.6634  0.2305  0.4969
 2155SOL    HW2 8665   0.318   0.602   1.497  1.1217  0.5587 -0.1216
 2155SOL    HW3 8666   0.280   0.457   1.485 -2.1852  1.2720  1.2214
 2155SOL    MW4 8667   0.306   0.531   1.449 -0.6287  0.4112  0.5109
 2156SOL     OW 8668   1.192   4.510   2.687 -0.0216 -0.0283  0.6726
 2156SOL    HW2 8669   1.198   4.455   2.765 -0.1195 -0.2288  0.5390
 2156SOL    HW3 8670   1.143   4.587   2.715  0.6395  0.2727  1.0189
 2156SOL    MW4 8671   1.186   4.513   2.701  0.0526 -0.0143  0.7007
 2157SOL     OW 8672   0.505   0.130   3.050 -0.1913 -0.6735  0.6600
 2157SOL    HW2 8673   0.453   0.132   3.131 -1.1587 -0.2364  0.0397
 2157SOL    HW3 8674   0.499   0.219   3.015  1.0405 -0.6043  0.6153
 2157SOL    MW4 8675   0.497   0.142   3.056 -0.1563 -0.6067  0.5722
 2158SOL     OW 8676   3.539   1.805   2.765  0.2869  0.1387  0.3595
 2158SOL    HW2 8677   3.627   1.777   2.741 -0.2553  1.1774 -3.2226
 2158SOL    HW3 8678   3.550   1.896   2.794  0.5019  0.0224  0.6383
 2158SOL    MW4 8679   3.552   1.814   2.766  0.2439  0.2604 -0.0763
 2159SOL     OW 8680   4.117   1.297   4.200 -0.9722  0.1323 -0.0787
 2159SOL    HW2 8681   4.112   1.277   4.294 -1.2644  1.0619  0.0990
 2159SOL    HW3 8682   4.165   1.222   4.164 -0.8851 -0.2557  0.8027
 2159SOL    MW4 8683   4.123   1.284   4.208 -0.9990  0.2037  0.0610
 2160SOL     OW 8684   0.659   0.286   3.587 -0.1436 -0.2527 -0.0042
 2160SOL    HW2 8685   0.584   0.230   3.568 -0.0722 -0.0868 -0.8031
 2160SOL    HW3 8686   0.672   0.279   3.682  0.4490 -2.3316 -0.2245
 2160SOL    MW4 8687   0.651   0.278   3.597 -0.0560 -0.5051 -0.1388
 2161SOL     OW 8688   1.696   1.120   1.679 -1.2035  0.0013 -0.4529
 2161SOL    HW2 8689   1.729   1.038   1.715  2.6160  0.6957 -2.1457
 2161SOL    HW3 8690   1.714   1.185   1.748  0.8791  0.3274 -1.2588
 2161SOL    MW4 8691   1.703   1.118   1.693 -0.4247  0.1360 -0.7825
 2162SOL     OW 8692   0.689   0.942   3.020  0.1637  0.6087 -0.0350
 2162SOL    HW2 8693   0.723   1.029   3.043 -0.1507  0.2734  1.7439
 2162SOL    HW3 8694   0.611   0.960   2.968  1.1653  1.3866 -1.2925
 2162SOL    MW4 8695   0.684   0.956   3.016  0.2543  0.6670  0.0339
 2163SOL     OW 8696   4.248   4.134   0.756 -0.6105 -0.0165 -0.2296
 2163SOL    HW2 8697   4.261   4.194   0.682  0.0854 -1.3657 -1.2212
 2163SOL    HW3 8698   4.321   4.151   0.815 -1.3908  1.3531  0.3577
 2163SOL    MW4 8699   4.259   4.144   0.754 -0.6213 -0.0138 -0.2829
 2164SOL     OW 8700   4.177   4.260   4.206 -0.1725 -0.0049  0.6061
 2164SOL    HW2 8701   4.173   4.352   4.232 -0.6081 -0.1277  0.9897
 2164SOL    HW3 8702   4.093   4.244   4.162  0.6476  0.2566 -1.0745
 2164SOL    MW4 8703   4.165   4.270   4.204 -0.1216  0.0134  0.4349
 2165SOL     OW 8704   2.522   4.590   1.550  0.0933  0.2059 -0.2311
 2165SOL    HW2 8705   2.491   4.587   1.640  0.0560 -0.7009 -0.2706
 2165SOL    HW3 8706   2.460   4.646   1.504  0.3773  1.0461  0.4097
 2165SOL    MW4 8707   2.510   4.597   1.555  0.1259  0.1974 -0.1518
 2166SOL     OW 8708   2.473   0.919   2.214 -0.9178  0.1229  0.4330
 2166SOL    HW2 8709   2.482   0.886   2.303 -0.8158  0.7404  0.6548
 2166SOL    HW3 8710   2.559   0.954   2.192 -0.6177 -1.0824 -0.3404
 2166SOL    MW4 8711   2.485   0.919   2.223 -0.8645  0.0454  0.3600
 2167SOL     OW 8712   3.686   3.499   3.628 -0.7406  0.1037  0.3195
 2167SOL    HW2 8713   3.622   3.507   3.557 -0.7221 -0.2407  0.2618
 2167SOL    HW3 8714   3.742   3.426   3.602 -1.0701 -0.3775  0.9516
 2167SOL    MW4 8715   3.685   3.490   3.615 -0.7815 -0.0052  0.3953
 2168SOL     OW 8716   3.484   3.889   2.981 -0.5502 -0.1599  0.0180
 2168SOL    HW2 8717   3.522   3.873   2.894 -1.3233  1.9784 -0.7341
 2168SOL    HW3 8718   3.550   3.857   3.042  1.3849  1.2164 -1.3099
 2168SOL    MW4 8719   3.497   3.883   2.978 -0.3970  0.3037 -0.2563
 2169SOL     OW 8720   2.485   3.793   0.492  0.0765  0.1526  0.1602
 2169SOL    HW2 8721   2.479   3.697   0.497  2.0488 -0.0938 -1.5219
 2169SOL    HW3 8722   2.407   3.819   0.443  0.4955 -0.8110 -1.0753
 2169SOL    MW4 8723   2.474   3.784   0.486  0.3922 -0.0072 -0.2247
 2170SOL     OW 8724   2.053   1.745   4.334 -0.1365  0.3028  0.0683
 2170SOL    HW2 8725   2.046   1.773   4.426  1.2491 -0.2632  0.3549
 2170SOL    HW3 8726   2.062   1.650   4.338  0.8356  0.3576 -0.5965
 2170SOL    MW4 8727   2.053   1.736   4.347  0.1745  0.2356  0.0181
 2171SOL     OW 8728   1.206   2.262   4.208 -0.0735  0.1646  0.0049
 2171SOL    HW2 8729   1.252   2.346   4.199 -0.7014  0.3566 -1.6747
 2171SOL    HW3 8730   1.153   2.256   4.129 -1.6269 -0.8614  1.1020
 2171SOL    MW4 8731   1.205   2.273   4.196 -0.3613  0.0546 -0.0715
 2172SOL     OW 8732   2.841   1.793   1.754 -0.3849 -0.1787 -0.0539
 2172SOL    HW2 8733   2.932   1.807   1.727 -0.8311 -0.8547 -2.0231
 2172SOL    HW3 8734   2.790   1.842   1.689 -1.4729 -1.2029  0.0235
 2172SOL    MW4 8735   2.846   1.802   1.742 -0.5875 -0.4032 -0.3035
 2173SOL     OW 8736   4.336   1.825   2.268 -0.3809  0.0915 -0.0998
 2173SOL    HW2 8737   4.428   1.833   2.296 -0.4011 -2.0509  0.6880
 2173SOL    HW3 8738   4.327   1.733   2.242 -2.5745  0.0188  0.8033
 2173SOL    MW4 8739   4.347   1.814   2.268 -0.6733 -0.2007  0.1235
 2174SOL     OW 8740   1.554   0.830   3.690  0.6542  0.6137  0.0892
 2174SOL    HW2 8741   1.580   0.796   3.775 -0.8840  0.7882  0.6540
 2174SOL    HW3 8742   1.576   0.923   3.694  0.5136  0.6375  0.3297
 2174SOL    MW4 8743   1.560   0.838   3.702  0.4327  0.6399  0.1955
 2175SOL     OW 8744   2.462   3.430   1.430  0.3897 -0.7812 -0.1569
 2175SOL    HW2 8745   2.416   3.503   1.472  0.9249 -0.8613  0.5881
 2175SOL    HW3 8746   2.399   3.394   1.368  0.1898  0.4572 -0.7024
 2175SOL    MW4 8747   2.448   3.435   1.428  0.4339 -0.6282 -0.1305
 2176SOL     OW 8748   1.136   0.119   3.026 -0.0304  0.3759 -0.0249
 2176SOL    HW2 8749   1.173   0.206   3.038 -0.0422  0.6251 -1.6526
 2176SOL    HW3 8750   1.088   0.125   2.943 -2.0908 -0.4838  1.0713
 2176SOL    MW4 8751   1.134   0.131   3.016 -0.3039  0.2954 -0.0951
 2177SOL     OW 8752   3.685   3.161   1.685 -0.3255 -0.0261  0.0600
 2177SOL    HW2 8753   3.683   3.191   1.594 -1.6943  1.3420  0.5095
 2177SOL    HW3 8754   3.774   3.181   1.715 -0.3008  0.8590 -0.5611
 2177SOL    MW4 8755   3.696   3.168   1.677 -0.5026  0.2713  0.0373
 2178SOL     OW 8756   4.281   2.021   2.074  0.3634 -0.0981 -0.2259
 2178SOL    HW2 8757   4.288   1.984   1.986  0.3831 -1.1492  0.2143
 2178SOL    HW3 8758   4.295   1.947   2.133  0.1932  0.5677  0.6675
 2178SOL    MW4 8759   4.284   2.006   2.070  0.3438 -0.1490 -0.0498
 2179SOL     OW 8760   0.223   1.834   4.240  0.5311 -0.1230 -0.1504
 2179SOL    HW2 8761   0.223   1.798   4.328 -0.3976  0.3273  0.0383
 2179SOL    HW3 8762   0.308   1.878   4.232 -0.2903  1.7972  1.3388
 2179SOL    MW4 8763   0.234   1.835   4.250  0.3002  0.1899  0.0706
 2180SOL     OW 8764   2.581   0.137   2.217 -0.4125  0.2507 -0.7867
 2180SOL    HW2 8765   2.675   0.128   2.234 -0.4928  0.2171 -0.3570
 2180SOL    HW3 8766   2.543   0.056   2.251 -0.9682  1.5594  1.8704
 2180SOL    MW4 8767   2.589   0.125   2.224 -0.4964  0.4190 -0.3791
 2181SOL     OW 8768   4.340   2.692   1.970 -0.2567 -0.1855  0.3180
 2181SOL    HW2 8769   4.404   2.745   2.018 -0.5324 -1.5951  2.3020
 2181SOL    HW3 8770   4.338   2.731   1.883  0.4311  2.3075  1.3648
 2181SOL    MW4 8771   4.348   2.704   1.965 -0.2022 -0.0424  0.7180
 2182SOL     OW 8772   2.592   0.128   1.915 -0.4945  0.0659  0.3384
 2182SOL    HW2 8773   2.583   0.107   2.008 -1.7518  2.6452  0.8362
 2182SOL    HW3 8774   2.518   0.084   1.873 -0.0201 -0.9630  0.5518
 2182SOL    MW4 8775   2.581   0.119   1.922 -0.5980  0.2705  0.4321
 2183SOL     OW 8776   3.663   3.123   0.535  0.0561 -0.3884  0.5355
 2183SOL    HW2 8777   3.731   3.179   0.499 -1.4833  0.6108 -0.9387
 2183SOL    HW3 8778   3.618   3.177   0.600 -1.2124  0.0257 -0.6458
 2183SOL    MW4 8779   3.666   3.137   0.539 -0.3142 -0.2019  0.1851
 2184SOL     OW 8780   2.422   0.408   0.701 -0.0327  0.4730  0.2528
 2184SOL    HW2 8781   2.464   0.489   0.732  0.3808  0.6770 -0.8344
 2184SOL    HW3 8782   2.330   0.431   0.688 -0.5753 -0.0303  2.8558
 2184SOL    MW4 8783   2.416   0.422   0.704 -0.0496  0.4335  0.4528
 2185SOL     OW 8784   0.957   0.686   4.266  0.3916  0.5274 -0.0572
 2185SOL    HW2 8785   0.885   0.748   4.269  1.3415  1.6614 -0.5221
 2185SOL    HW3 8786   0.985   0.677   4.357  0.3308  0.8736 -0.0036
 2185SOL    MW4 8787   0.951   0.693   4.279  0.5089  0.7226 -0.1111
 2186SOL     OW 8788   3.959   0.021   1.836 -0.3927  0.2051  0.5498
 2186SOL    HW2 8789   3.945   0.072   1.916  1.2597  1.1374  0.2593
 2186SOL    HW3 8790   4.046  -0.017   1.846 -0.0778  0.5112 -0.9062
 2186SOL    MW4 8791   3.968   0.023   1.848 -0.1335  0.3686  0.3192
 2187SOL     OW 8792   1.725   3.375   1.790  0.0652 -0.4438 -0.4503
 2187SOL    HW2 8793   1.816   3.347   1.795 -0.0581 -0.5274  1.7036
 2187SOL    HW3 8794   1.680   3.322   1.856 -0.7268  2.6409  1.5732
 2187SOL    MW4 8795   1.731   3.364   1.799 -0.0556 -0.0479  0.1009
 2188SOL     OW 8796   0.189   2.790   3.946  0.2866  0.1607  0.0801
 2188SOL    HW2 8797   0.133   2.855   3.904 -1.4643 -0.8834  0.7751
 2188SOL    HW3 8798   0.184   2.810   4.039  1.8618  0.6671  0.0664
 2188SOL    MW4 8799   0.181   2.801   3.953  0.2635  0.0899  0.1700
 2189SOL     OW 8800   1.611   1.899   3.767 -0.6095 -0.1446 -0.2797
 2189SOL    HW2 8801   1.641   1.966   3.828 -1.8189  0.2341 -0.1063
 2189SOL    HW3 8802   1.602   1.944   3.683  1.9454 -0.8595 -0.9981
 2189SOL    MW4 8803   1.614   1.914   3.764 -0.4320 -0.1888 -0.3514
 2190SOL     OW 8804   3.073   0.337   2.044 -0.1866  0.4047 -0.0718
 2190SOL    HW2 8805   3.020   0.268   2.084 -0.1537 -0.2348 -1.1054
 2190SOL    HW3 8806   3.019   0.416   2.051 -0.7312  0.0246  0.0391
 2190SOL    MW4 8807   3.059   0.338   2.050 -0.2539  0.2702 -0.1938
 2191SOL     OW 8808   2.818   2.928   0.691 -0.5506  0.0771 -0.0865
 2191SOL    HW2 8809   2.835   2.897   0.780  0.6603 -0.0430 -0.3443
 2191SOL    HW3 8810   2.731   2.967   0.695 -1.4312 -1.9023  0.6327
 2191SOL    MW4 8811   2.809   2.929   0.703 -0.5071 -0.2000 -0.0256
 2192SOL     OW 8812   0.178   1.568   0.524  0.6443  0.0161 -0.3930
 2192SOL    HW2 8813   0.226   1.494   0.485  0.0408 -0.0111 -1.0974
 2192SOL    HW3 8814   0.241   1.609   0.583  0.9547 -1.1230  0.0789
 2192SOL    MW4 8815   0.193   1.563   0.526  0.6056 -0.1377 -0.4237
 2193SOL     OW 8816   0.062   4.578   2.174 -0.3660 -0.3400 -0.2112
 2193SOL    HW2 8817   0.135   4.638   2.185 -1.5280  1.0798 -0.1800
 2193SOL    HW3 8818   0.082   4.505   2.233  0.1822  0.8538  1.1134
 2193SOL    MW4 8819   0.074   4.576   2.183 -0.4470  0.0052 -0.0322
 2194SOL     OW 8820   0.565   1.256   0.619 -0.3988  0.4191  0.1459
 2194SOL    HW2 8821   0.639   1.279   0.675  0.0773 -0.2295 -0.2161
 2194SOL    HW3 8822   0.578   1.307   0.539  0.1212 -0.3462 -0.2598
 2194SOL    MW4 8823   0.576   1.266   0.616 -0.2674  0.2326  0.0446
 2195SOL     OW 8824   1.808   3.300   0.523 -0.4998 -0.3612 -0.5661
 2195SOL    HW2 8825   1.754   3.378   0.517 -0.8496 -0.4973  0.8086
 2195SOL    HW3 8826   1.892   3.326   0.484 -0.8991  0.4290 -0.9078
 2195SOL    MW4 8827   1.812   3.313   0.517 -0.5987 -0.2751 -0.4297
 2196SOL     OW 8828   0.352   2.837   2.242  0.1480 -0.7108  0.2328
 2196SOL    HW2 8829   0.422   2.776   2.218  2.0397  1.3609  0.2995
 2196SOL    HW3 8830   0.344   2.895   2.167  0.0175  0.4021  1.0949
 2196SOL    MW4 8831   0.360   2.836   2.229  0.3803 -0.2906  0.3555
 2197SOL     OW 8832   0.635   1.429   0.403  0.1987  0.0492 -0.0529
 2197SOL    HW2 8833   0.560   1.489   0.404 -0.5536 -0.8852  1.4200
 2197SOL    HW3 8834   0.608   1.358   0.346  0.1853 -0.0140  0.0325
 2197SOL    MW4 8835   0.622   1.428   0.396  0.0978 -0.0824  0.1527
 2198SOL     OW 8836   1.161   1.344   3.853  0.3658 -0.2410 -0.5492
 2198SOL    HW2 8837   1.205   1.263   3.877  0.8563  0.0295 -0.5314
 2198SOL    HW3 8838   1.076   1.340   3.898 -0.1253 -1.3085 -1.5268
 2198SOL    MW4 8839   1.155   1.333   3.862  0.3657 -0.3462 -0.6757
 2199SOL     OW 8840   3.251   3.897   0.921  0.3817  0.0967  0.2987
 2199SOL    HW2 8841   3.197   3.894   1.000  0.2134 -0.7389  0.1556
 2199SOL    HW3 8842   3.234   3.813   0.877 -0.4679  1.0516 -1.2531
 2199SOL    MW4 8843   3.242   3.885   0.925  0.2475  0.1123  0.0750
 2200SOL     OW 8844   4.405   2.235   0.876 -0.2603  0.3007  0.0262
 2200SOL    HW2 8845   4.319   2.256   0.913 -0.1276 -0.7726  0.9701
 2200SOL    HW3 8846   4.441   2.320   0.849 -0.7090  1.0187  1.6260
 2200SOL    MW4 8847   4.399   2.249   0.877 -0.3018  0.2537  0.3617
 2201SOL     OW 8848   3.335   4.082   3.345 -0.2107 -0.2939  0.6849
 2201SOL    HW2 8849   3.378   4.165   3.367 -1.0726  0.7002 -1.2416
 2201SOL    HW3 8850   3.345   4.075   3.250 -0.5221 -2.2077  0.7756
 2201SOL    MW4 8851   3.342   4.092   3.335 -0.3655 -0.4148  0.4427
 2202SOL     OW 8852   0.750   3.837   1.258 -0.1754  0.0448 -0.1422
 2202SOL    HW2 8853   0.716   3.808   1.343  1.7724  0.3632  0.7713
 2202SOL    HW3 8854   0.834   3.879   1.278 -0.6315  1.9282 -2.0085
 2202SOL    MW4 8855   0.757   3.839   1.272  0.0213  0.3355 -0.2680
 2203SOL     OW 8856   1.150   0.706   0.233  0.7026 -0.1049  0.5193
 2203SOL    HW2 8857   1.126   0.651   0.308  1.7906  0.0744  1.0025
 2203SOL    HW3 8858   1.080   0.691   0.169 -0.6559  0.3411  1.8704
 2203SOL    MW4 8859   1.137   0.697   0.235  0.6669 -0.0224  0.7613
 2204SOL     OW 8860   1.571   3.846   3.580  0.4903  0.2975 -0.1899
 2204SOL    HW2 8861   1.587   3.766   3.631 -0.0479  0.2206 -0.1301
 2204SOL    HW3 8862   1.596   3.917   3.638  0.6902  0.1813 -0.1318
 2204SOL    MW4 8863   1.576   3.845   3.594  0.4460  0.2720 -0.1743
 2205SOL     OW 8864   3.439   4.306   3.453 -0.1799  0.7930  0.7394
 2205SOL    HW2 8865   3.425   4.369   3.382  0.6919 -0.1220 -0.2597
 2205SOL    HW3 8866   3.397   4.346   3.529 -1.0320  1.8452 -0.2614
 2205SOL    MW4 8867   3.431   4.320   3.454 -0.1774  0.8116  0.4754
 2206SOL     OW 8868   3.953   3.493   2.538  0.2351  0.3016  0.3042
 2206SOL    HW2 8869   3.900   3.423   2.576  0.1037 -0.6953 -1.6375
 2206SOL    HW3 8870   4.043   3.464   2.549  0.1396 -0.7272 -1.4999
 2206SOL    MW4 8871   3.958   3.480   2.545  0.2050  0.0343 -0.1903
 2207SOL     OW 8872   1.159   0.745   4.100  0.3266  0.2179  0.1499
 2207SOL    HW2 8873   1.106   0.792   4.036 -0.8376 -1.2639  0.0059
 2207SOL    HW3 8874   1.098   0.726   4.172  1.3150  0.7887  1.1545
 2207SOL    MW4 8875   1.144   0.749   4.101  0.3034  0.0977  0.2632
 2208SOL     OW 8876   1.199   3.153   3.314  0.4118 -0.1050 -0.0805
 2208SOL    HW2 8877   1.128   3.164   3.378  0.3795  1.0135 -0.3007
 2208SOL    HW3 8878   1.157   3.165   3.229  0.3955 -1.9108 -0.3392
 2208SOL    MW4 8879   1.184   3.156   3.311  0.4054 -0.1955 -0.1435
 2209SOL     OW 8880   0.968   3.105   4.224 -0.0675  0.2496  0.1501
 2209SOL    HW2 8881   0.890   3.142   4.183 -0.1998  2.9027  2.5752
 2209SOL    HW3 8882   0.934   3.047   4.292  0.1266 -1.3336 -1.0828
 2209SOL    MW4 8883   0.953   3.103   4.228 -0.0592  0.3908  0.3076
 2210SOL     OW 8884   1.200   0.047   0.322 -0.3344  0.0498  0.4877
 2210SOL    HW2 8885   1.142   0.064   0.248  0.9454  1.3012 -0.2605
 2210SOL    HW3 8886   1.283   0.085   0.296  0.7408 -1.4366  1.6898
 2210SOL    MW4 8887   1.203   0.055   0.309 -0.0237  0.0188  0.5476
 2211SOL     OW 8888   3.465   2.546   3.101  0.3591  0.5277  0.1078
 2211SOL    HW2 8889   3.410   2.623   3.089  0.6409  0.9405  1.4128
 2211SOL    HW3 8890   3.475   2.538   3.196  1.0263 -0.6216 -0.0501
 2211SOL    MW4 8891   3.459   2.555   3.112  0.4842  0.4306  0.2589
 2212SOL     OW 8892   1.227   0.456   1.230  0.1428  0.2559 -0.0463
 2212SOL    HW2 8893   1.281   0.390   1.274  1.5409  1.1035 -0.4386
 2212SOL    HW3 8894   1.142   0.415   1.219  1.0047 -1.4995 -0.2955
 2212SOL    MW4 8895   1.223   0.442   1.234  0.4410  0.1362 -0.1309
 2213SOL     OW 8896   0.643   1.917   3.504 -0.2975  0.5670  0.2808
 2213SOL    HW2 8897   0.632   1.980   3.575 -0.9097  1.9751 -1.0414
 2213SOL    HW3 8898   0.630   1.968   3.425  0.0108 -1.0694 -0.8424
 2213SOL    MW4 8899   0.640   1.932   3.503 -0.3376  0.5369 -0.0417
 2214SOL     OW 8900   2.829   4.056   3.181  0.3655  0.1699  0.5628
 2214SOL    HW2 8901   2.867   4.008   3.255  2.5050  0.0737 -0.5642
 2214SOL    HW3 8902   2.870   4.142   3.185 -1.9217  1.2558  1.3544
 2214SOL    MW4 8903   2.839   4.061   3.191  0.3459  0.3004  0.5183
 2215SOL     OW 8904   2.622   0.517   1.064  0.1996  0.2680 -0.0145
 2215SOL    HW2 8905   2.535   0.555   1.052  0.9306  1.5160 -1.4964
 2215SOL    HW3 8906   2.661   0.568   1.135 -0.7295 -1.1332  1.5379
 2215SOL    MW4 8907   2.616   0.528   1.072  0.1731  0.2478 -0.0052
 2216SOL     OW 8908   0.056   2.480   0.391 -0.6950 -0.5200  0.6922
 2216SOL    HW2 8909  -0.004   2.525   0.451  0.0700 -0.7451  1.6382
 2216SOL    HW3 8910   0.012   2.398   0.371 -0.9509 -0.4473  0.9499
 2216SOL    MW4 8911   0.042   2.475   0.396 -0.6278 -0.5400  0.8510
 2217SOL     OW 8912   2.601   4.116   3.307 -0.4177  0.2290  0.3210
 2217SOL    HW2 8913   2.548   4.161   3.241  0.0451  1.2448  0.6136
 2217SOL    HW3 8914   2.684   4.099   3.262 -0.4842 -0.0445  0.3056
 2217SOL    MW4 8915   2.605   4.120   3.292 -0.3655  0.3271  0.3576
 2218SOL     OW 8916   0.024   1.576   4.134  0.4633  0.1393 -0.2946
 2218SOL    HW2 8917   0.078   1.506   4.098 -0.1214 -0.9138  0.8453
 2218SOL    HW3 8918  -0.007   1.624   4.057  1.3727 -0.4609 -1.0528
 2218SOL    MW4 8919   0.027   1.573   4.119  0.5062 -0.0789 -0.2446
 2219SOL     OW 8920   2.602   3.466   0.950 -0.3241  0.1329 -0.0608
 2219SOL    HW2 8921   2.620   3.381   0.909  0.4714  0.8590 -1.2744
 2219SOL    HW3 8922   2.531   3.503   0.897  0.4933  0.9424 -0.6085
 2219SOL    MW4 8923   2.595   3.460   0.938 -0.1111  0.3355 -0.2931
 2220SOL     OW 8924   0.015   0.862   3.667  0.1159  0.2242  0.2697
 2220SOL    HW2 8925  -0.037   0.881   3.589 -0.2824  0.0150  0.4841
 2220SOL    HW3 8926   0.083   0.929   3.668  0.9405 -0.5681 -1.0098
 2220SOL    MW4 8927   0.017   0.873   3.657  0.1721  0.0920  0.1292
 2221SOL     OW 8928   4.299   4.576   0.855 -0.3235 -0.4764 -0.7796
 2221SOL    HW2 8929   4.352   4.647   0.820 -1.3498  0.7943  0.2067
 2221SOL    HW3 8930   4.243   4.549   0.781  0.5536 -0.7572 -1.3539
 2221SOL    MW4 8931   4.299   4.582   0.840 -0.3428 -0.3457 -0.7253
 2222SOL     OW 8932   1.607   4.228   0.451 -0.4035 -0.0012 -0.0803
 2222SOL    HW2 8933   1.702   4.238   0.460 -0.2999 -1.9878  1.4138
 2222SOL    HW3 8934   1.595   4.137   0.424 -1.9106  0.0882  0.2685
 2222SOL    MW4 8935   1.618   4.218   0.449 -0.5887 -0.2518  0.1629
 2223SOL     OW 8936   2.053   3.399   0.443 -0.0063 -0.5423  0.0472
 2223SOL    HW2 8937   2.144   3.370   0.452 -0.1721 -0.5036  2.1889
 2223SOL    HW3 8938   2.057   3.494   0.449 -0.2690 -0.5879  1.0177
 2223SOL    MW4 8939   2.065   3.407   0.445 -0.0627 -0.5434  0.4579
 2224SOL     OW 8940   0.883   0.696   3.396 -0.0407 -0.4652 -0.3096
 2224SOL    HW2 8941   0.907   0.624   3.455 -1.0645 -0.7694 -0.2460
 2224SOL    HW3 8942   0.948   0.764   3.413  0.2055 -0.9030  0.5261
 2224SOL    MW4 8943   0.895   0.696   3.406 -0.1433 -0.5631 -0.1910
 2225SOL     OW 8944   0.833   0.312   2.894 -0.6738 -0.7100 -0.1704
 2225SOL    HW2 8945   0.762   0.298   2.832 -1.6466  0.4880  0.6550
 2225SOL    HW3 8946   0.796   0.369   2.961  1.2549  0.4764 -0.0680
 2225SOL    MW4 8947   0.819   0.318   2.895 -0.5476 -0.3955 -0.0479
 2226SOL     OW 8948   2.113   1.881   3.151 -0.2781 -0.0251 -0.0443
 2226SOL    HW2 8949   2.054   1.889   3.076 -0.2600 -1.6253 -0.2474
 2226SOL    HW3 8950   2.160   1.799   3.136  0.7931  0.3759  0.9750
 2226SOL    MW4 8951   2.112   1.872   3.139 -0.1345 -0.1832  0.0637
 2227SOL     OW 8952   2.710   2.174   4.025 -0.1291  0.2309 -0.3963
 2227SOL    HW2 8953   2.643   2.222   3.976 -2.9797 -0.9566  2.1264
 2227SOL    HW3 8954   2.764   2.242   4.064 -0.3915  1.2423 -1.7462
 2227SOL    MW4 8955   2.708   2.189   4.024 -0.5400  0.2079 -0.2413
 2228SOL     OW 8956   0.426   1.947   0.395 -0.2985  0.1266 -0.4410
 2228SOL    HW2 8957   0.367   1.886   0.351  0.0482  0.0104 -0.7542
 2228SOL    HW3 8958   0.457   2.005   0.325  1.0277 -0.6895 -0.5494
 2228SOL    MW4 8959   0.423   1.946   0.380 -0.0778  0.0035 -0.4966
 2229SOL     OW 8960   1.178   2.903   0.327  0.1101 -0.0523 -0.4219
 2229SOL    HW2 8961   1.093   2.863   0.345 -0.0460 -0.5034 -2.0916
 2229SOL    HW3 8962   1.233   2.877   0.401 -1.3883  0.8617  1.0672
 2229SOL    MW4 8963   1.174   2.894   0.339 -0.1082  0.0088 -0.4457
 2230SOL     OW 8964   1.665   2.377   3.485  0.6095  0.1539  0.2014
 2230SOL    HW2 8965   1.748   2.424   3.481  0.4520  0.4055 -0.1633
 2230SOL    HW3 8966   1.664   2.323   3.406  0.6708 -0.2691  0.4841
 2230SOL    MW4 8967   1.676   2.376   3.474  0.5968  0.1311  0.1905
 2231SOL     OW 8968   4.360   4.511   4.044  0.0027 -0.0279  0.2055
 2231SOL    HW2 8969   4.308   4.535   4.121  2.3168  0.4872  1.6288
 2231SOL    HW3 8970   4.416   4.586   4.027  1.1728 -1.0414 -0.5593
 2231SOL    MW4 8971   4.360   4.524   4.052  0.4621 -0.0939  0.2918
 2232SOL     OW 8972   4.399   3.757   1.871  0.2906  0.2142 -0.0082
 2232SOL    HW2 8973   4.314   3.734   1.834  1.8909 -0.2988 -3.6508
 2232SOL    HW3 8974   4.392   3.851   1.890 -1.7339 -0.2572  1.7736
 2232SOL    MW4 8975   4.387   3.766   1.868  0.2346  0.0842 -0.2537
 2233SOL     OW 8976   3.296   3.698   0.717  0.2945 -0.2999  0.1157
 2233SOL    HW2 8977   3.284   3.620   0.771  0.0915 -0.4816 -0.1887
 2233SOL    HW3 8978   3.243   3.682   0.639 -0.1499  0.3591  0.2745
 2233SOL    MW4 8979   3.287   3.686   0.713  0.2093 -0.2372  0.0964
 2234SOL     OW 8980   1.905   3.677   3.398 -0.1349  0.0090  0.4185
 2234SOL    HW2 8981   1.967   3.644   3.333  0.9630 -0.0828  1.4924
 2234SOL    HW3 8982   1.851   3.602   3.420  1.2007 -0.6691  1.5297
 2234SOL    MW4 8983   1.906   3.663   3.392  0.1862 -0.0927  0.7067
 2235SOL     OW 8984   2.018   2.934   3.314  0.0957 -0.4100 -0.1014
 2235SOL    HW2 8985   2.087   2.953   3.250 -0.0419 -0.1525 -0.1731
 2235SOL    HW3 8986   1.976   3.018   3.330  0.5603 -0.3519  0.8367
 2235SOL    MW4 8987   2.022   2.947   3.308  0.1390 -0.3684  0.0126
 2236SOL     OW 8988   0.277   2.553   0.214  0.0816  0.1124  0.2037
 2236SOL    HW2 8989   0.223   2.549   0.292  1.5401  2.2221  1.3714
 2236SOL    HW3 8990   0.299   2.646   0.204  2.0798 -0.4612 -1.2046
 2236SOL    MW4 8991   0.273   2.565   0.223  0.5377  0.3150  0.1720
 2237SOL     OW 8992   0.962   1.091   4.090 -0.9304 -0.2386  0.1319
 2237SOL    HW2 8993   1.041   1.091   4.144 -2.5775  1.1387  2.6450
 2237SOL    HW3 8994   0.971   1.014   4.033  2.4445  0.2148 -0.0386
 2237SOL    MW4 8995   0.974   1.081   4.089 -0.7024  0.0030  0.4411
 2238SOL     OW 8996   1.497   3.298   1.393 -0.6127 -0.4702 -0.1978
 2238SOL    HW2 8997   1.580   3.312   1.440 -0.4950  1.9830 -1.0932
 2238SOL    HW3 8998   1.507   3.211   1.354  1.1025 -0.6710  0.6289
 2238SOL    MW4 8999   1.509   3.288   1.394 -0.3710 -0.1731 -0.2068
 2239SOL     OW 9000   1.631   1.446   0.385 -0.1374 -0.0637 -0.0711
 2239SOL    HW2 9001   1.544   1.423   0.419  0.2421 -0.5922  0.5488
 2239SOL    HW3 9002   1.678   1.481   0.461 -0.2077  1.3837 -0.6695
 2239SOL    MW4 9003   1.625   1.448   0.399 -0.0967  0.0576 -0.0682
 2240SOL     OW 9004   1.371   1.300   2.255  0.1352  0.3555  0.2978
 2240SOL    HW2 9005   1.395   1.383   2.296  0.7633  0.1295  0.4073
 2240SOL    HW3 9006   1.318   1.255   2.321 -0.7011  0.9094  0.0130
 2240SOL    MW4 9007   1.367   1.305   2.269  0.1076  0.3988  0.2747
 2241SOL     OW 9008   1.879   2.046   2.201 -0.2936  0.0129  0.1999
 2241SOL    HW2 9009   1.921   2.021   2.284 -0.5397 -1.2938 -0.0529
 2241SOL    HW3 9010   1.931   2.119   2.169  0.3579 -0.0578  1.0668
 2241SOL    MW4 9011   1.891   2.052   2.208 -0.2401 -0.1686  0.2806
 2242SOL     OW 9012   1.664   1.333   2.548 -0.0662  0.1343 -0.3253
 2242SOL    HW2 9013   1.662   1.252   2.498 -0.4169 -0.9371  1.3971
 2242SOL    HW3 9014   1.730   1.318   2.616 -1.8425  0.3798  1.5007
 2242SOL    MW4 9015   1.673   1.320   2.550 -0.3468  0.0252  0.1426
 2243SOL     OW 9016   3.490   3.189   3.387  0.6559  0.3183 -0.4333
 2243SOL    HW2 9017   3.459   3.274   3.417  3.9288  1.3797  0.1857
 2243SOL    HW3 9018   3.511   3.141   3.467  2.1803  0.2849 -0.8284
 2243SOL    MW4 9019   3.489   3.194   3.401  1.2889  0.4539 -0.4039
 2244SOL     OW 9020   0.103   1.904   1.245  0.2008 -0.0516 -0.0276
 2244SOL    HW2 9021   0.064   1.944   1.168  0.0284  0.1719  0.1733
 2244SOL    HW3 9022   0.162   1.837   1.211 -1.7137 -1.6451 -0.3029
 2244SOL    MW4 9023   0.105   1.900   1.231 -0.0745 -0.2322 -0.0376
 2245SOL     OW 9024   1.076   3.218   1.111  0.5336 -0.3499  0.6763
 2245SOL    HW2 9025   1.120   3.175   1.184  2.2758  0.0294 -0.1256
 2245SOL    HW3 9026   1.064   3.308   1.140  1.5695 -0.1028  0.3772
 2245SOL    MW4 9027   1.080   3.224   1.124  0.9000 -0.2673  0.5311
 2246SOL     OW 9028   3.403   3.419   1.611  0.0187 -0.1211  0.5178
 2246SOL    HW2 9029   3.386   3.329   1.584 -0.4346  0.7285 -2.2846
 2246SOL    HW3 9030   3.487   3.441   1.571 -0.4539  1.0690  0.1408
 2246SOL    MW4 9031   3.411   3.410   1.602 -0.1037  0.1481  0.0982
 2247SOL     OW 9032   3.151   1.034   3.381  0.5634 -0.2227  0.0233
 2247SOL    HW2 9033   3.202   1.085   3.318 -1.2093 -0.2488 -1.4773
 2247SOL    HW3 9034   3.192   0.947   3.380 -0.2441 -0.6097 -2.1050
 2247SOL    MW4 9035   3.163   1.029   3.372  0.2234 -0.2772 -0.4554
 2248SOL     OW 9036   2.902   3.089   2.730  0.3215  0.1308  0.2988
 2248SOL    HW2 9037   2.918   2.998   2.708 -2.2465  0.0327 -1.3828
 2248SOL    HW3 9038   2.849   3.086   2.810  0.5384  0.1529  0.4426
 2248SOL    MW4 9039   2.897   3.077   2.737  0.0112  0.1206  0.0958
 2249SOL     OW 9040   2.372   1.244   2.460 -0.3044 -0.5136 -0.7003
 2249SOL    HW2 9041   2.391   1.263   2.368  1.5062  1.1204 -0.0385
 2249SOL    HW3 9042   2.304   1.308   2.484 -0.5372 -0.7165 -0.8243
 2249SOL    MW4 9043   2.366   1.255   2.451 -0.0961 -0.3247 -0.6294
 2250SOL     OW 9044   1.177   0.603   3.633  0.1217  0.5843 -0.2978
 2250SOL    HW2 9045   1.210   0.693   3.630  0.0008  0.5856 -2.0378
 2250SOL    HW3 9046   1.190   0.576   3.724  1.4953  1.8609 -0.0954
 2250SOL    MW4 9047   1.183   0.611   3.645  0.2869  0.7529 -0.5004
 2251SOL     OW 9048   0.050   2.892   0.786  0.3040  0.5545  0.8231
 2251SOL    HW2 9049   0.063   2.952   0.712 -0.1301  0.0431  0.3259
 2251SOL    HW3 9050   0.135   2.850   0.797  0.4264  0.7786  0.7463
 2251SOL    MW4 9051   0.063   2.895   0.777  0.2628  0.5164  0.7474
 2252SOL     OW 9052   1.043   3.823   0.907 -0.7442  0.0584 -0.5459
 2252SOL    HW2 9053   1.117   3.784   0.859  0.5936 -1.6392  2.7185
 2252SOL    HW3 9054   1.047   3.916   0.885  1.4668 -0.2464 -1.5892
 2252SOL    MW4 9055   1.054   3.830   0.898 -0.2761 -0.2055 -0.2528
 2253SOL     OW 9056   2.328   1.609   1.055 -0.3421  0.1161  0.5694
 2253SOL    HW2 9057   2.240   1.617   1.018 -0.0869  1.3938  0.2343
 2253SOL    HW3 9058   2.380   1.674   1.009  0.8092 -0.6902  0.7094
 2253SOL    MW4 9059   2.323   1.618   1.044 -0.1566  0.1781  0.5436
 2254SOL     OW 9060   1.090   3.713   2.461  0.4086 -0.0257  0.1207
 2254SOL    HW2 9061   1.019   3.776   2.465  1.4950  1.1209  2.2770
 2254SOL    HW3 9062   1.056   3.636   2.506 -0.7623 -0.8869 -2.1378
 2254SOL    MW4 9063   1.077   3.711   2.467  0.3974  0.0119  0.1073
 2255SOL     OW 9064   3.246   0.873   3.079  0.7973 -0.6076  0.6236
 2255SOL    HW2 9065   3.222   0.782   3.059  3.1168 -1.5083  1.7961
 2255SOL    HW3 9066   3.162   0.920   3.080 -0.2308 -2.2196 -2.3860
 2255SOL    MW4 9067   3.232   0.867   3.077  0.9677 -0.9391  0.3808
 2256SOL     OW 9068   0.433   3.516   0.280  0.6797  0.2536  0.1362
 2256SOL    HW2 9069   0.426   3.573   0.204  1.3520  0.7307  0.4362
 2256SOL    HW3 9070   0.445   3.575   0.354  2.0691 -0.2991  0.3577
 2256SOL    MW4 9071   0.433   3.531   0.279  0.9517  0.2434  0.2050
 2257SOL     OW 9072   2.556   1.859   3.800  0.2317  0.0332 -0.0528
 2257SOL    HW2 9073   2.482   1.802   3.819 -0.6664  0.9479 -0.7321
 2257SOL    HW3 9074   2.574   1.904   3.882 -0.4162  0.3127 -0.0599
 2257SOL    MW4 9075   2.548   1.858   3.813  0.0277  0.1907 -0.1433
 2258SOL     OW 9076   2.725   3.898   2.332  0.6657 -0.2289  0.0330
 2258SOL    HW2 9077   2.675   3.957   2.388 -1.4935  0.8744 -2.9805
 2258SOL    HW3 9078   2.686   3.812   2.348 -0.3220  0.1724 -0.1793
 2258SOL    MW4 9079   2.713   3.894   2.342  0.2506 -0.0305 -0.3927
 2259SOL     OW 9080   2.938   2.357   2.703  0.1502  0.4063  0.0242
 2259SOL    HW2 9081   3.004   2.379   2.637 -0.2832  0.1250 -0.5036
 2259SOL    HW3 9082   2.962   2.269   2.732 -0.5709 -0.0892 -0.8782
 2259SOL    MW4 9083   2.950   2.349   2.698 -0.0019  0.3042 -0.1643
 2260SOL     OW 9084   3.312   1.243   1.825 -0.6992 -0.1611  0.0396
 2260SOL    HW2 9085   3.232   1.237   1.878  0.3245 -1.7677  1.4509
 2260SOL    HW3 9086   3.347   1.154   1.825  1.2189  0.5823 -0.3936
 2260SOL    MW4 9087   3.306   1.231   1.832 -0.3109 -0.2750  0.1687
 2261SOL     OW 9088   2.171   0.056   1.810 -0.2548  0.0833 -0.5564
 2261SOL    HW2 9089   2.132   0.073   1.896  0.0206 -0.0541 -0.4027
 2261SOL    HW3 9090   2.178   0.142   1.769 -0.7618  0.1049 -0.6065
 2261SOL    MW4 9091   2.167   0.070   1.816 -0.2849  0.0680 -0.5428
 2262SOL     OW 9092   0.271   3.019   3.466  0.4706 -0.2353  0.0295
 2262SOL    HW2 9093   0.311   2.950   3.412  1.1942  0.4806 -0.3665
 2262SOL    HW3 9094   0.341   3.046   3.525  0.2976  0.4111 -0.0632
 2262SOL    MW4 9095   0.286   3.013   3.466  0.5433 -0.0556 -0.0353
 2263SOL     OW 9096   1.225   1.711   0.199  0.0947 -0.2876  0.0105
 2263SOL    HW2 9097   1.270   1.720   0.282 -1.0377  1.0308  0.4904
 2263SOL    HW3 9098   1.283   1.754   0.135 -0.6329  1.7205  0.6797
 2263SOL    MW4 9099   1.239   1.717   0.201 -0.1507  0.1515  0.1621
 2264SOL     OW 9100   2.606   2.515   3.675  0.2109 -0.2440 -0.3126
 2264SOL    HW2 9101   2.689   2.535   3.720  0.7627 -0.0379 -1.4000
 2264SOL    HW3 9102   2.551   2.590   3.691  0.8401  0.3713 -0.9799
 2264SOL    MW4 9103   2.610   2.527   3.683  0.3669 -0.1357 -0.5441
 2265SOL     OW 9104   2.162   1.424   2.518  0.0318 -0.4765  0.8063
 2265SOL    HW2 9105   2.181   1.505   2.565 -2.6485  0.9620 -0.5287
 2265SOL    HW3 9106   2.166   1.448   2.425 -2.8685 -1.3586  0.4275
 2265SOL    MW4 9107   2.165   1.438   2.512 -0.7045 -0.4030  0.5801
 2266SOL     OW 9108   2.575   2.572   2.325 -0.0558  0.4253 -0.0355
 2266SOL    HW2 9109   2.535   2.634   2.386  2.2835  1.9985 -0.0426
 2266SOL    HW3 9110   2.508   2.557   2.259 -1.5669  0.9862  1.3390
 2266SOL    MW4 9111   2.561   2.578   2.324  0.0534  0.7067  0.1450
 2267SOL     OW 9112   0.561   3.241   1.677 -0.5160 -0.0378  0.1889
 2267SOL    HW2 9113   0.600   3.306   1.618  0.7252 -0.7532  0.2010
 2267SOL    HW3 9114   0.526   3.174   1.618 -0.8675  0.1239  0.2123
 2267SOL    MW4 9115   0.562   3.241   1.661 -0.3986 -0.1109  0.1935
 2268SOL     OW 9116   2.607   2.994   3.372 -0.0535 -0.2315  0.6956
 2268SOL    HW2 9117   2.613   3.063   3.439  0.7862 -0.8251  1.2402
 2268SOL    HW3 9118   2.549   2.928   3.410 -2.3963  1.0182 -0.5985
 2268SOL    MW4 9119   2.600   2.995   3.386 -0.2518 -0.1450  0.5965
 2269SOL     OW 9120   4.043   1.579   1.128 -0.1019 -0.6427 -0.4369
 2269SOL    HW2 9121   4.052   1.543   1.039  1.0545 -0.2153 -0.4975
 2269SOL    HW3 9122   4.098   1.657   1.128 -0.0494 -0.6747  0.6833
 2269SOL    MW4 9123   4.052   1.584   1.116  0.0572 -0.5907 -0.2973
 2270SOL     OW 9124   2.230   4.562   1.251 -0.3679  0.0127  0.0003
 2270SOL    HW2 9125   2.270   4.622   1.314 -2.2040  0.2025  1.0216
 2270SOL    HW3 9126   2.241   4.475   1.290 -0.1684 -0.0187 -0.1287
 2270SOL    MW4 9127   2.236   4.559   1.264 -0.5839  0.0334  0.1180
 2271SOL     OW 9128   2.901   0.109   2.183  0.0014  0.4472  0.2181
 2271SOL    HW2 9129   2.882   0.031   2.130  1.2817  0.3590 -0.1491
 2271SOL    HW3 9130   2.895   0.078   2.273 -0.1895  0.0901  0.0848
 2271SOL    MW4 9131   2.898   0.095   2.188  0.1452  0.3885  0.1521
 2272SOL     OW 9132   2.989   3.939   2.354 -0.0415  0.2759  0.2952
 2272SOL    HW2 9133   2.896   3.918   2.347  0.1732 -0.8298  0.5908
 2272SOL    HW3 9134   3.032   3.854   2.363  0.9479  0.8087  0.7087
 2272SOL    MW4 9135   2.982   3.925   2.354  0.1175  0.2003  0.3889
 2273SOL     OW 9136   0.009   4.111   3.144  0.0775  0.2729 -0.5433
 2273SOL    HW2 9137  -0.022   4.202   3.141  1.0550  0.6740  0.9217
 2273SOL    HW3 9138   0.081   4.109   3.081  0.4251  0.6802 -0.1703
 2273SOL    MW4 9139   0.014   4.123   3.135  0.2524  0.3796 -0.3011
 2274SOL     OW 9140   1.066   4.139   0.418 -0.1027 -0.0197 -0.2048
 2274SOL    HW2 9141   1.076   4.212   0.357  1.1825  0.7810  0.9241
 2274SOL    HW3 9142   0.986   4.159   0.466  0.9028  1.3156  0.9535
 2274SOL    MW4 9143   1.057   4.151   0.416  0.1997  0.2623  0.0970
 2275SOL     OW 9144   3.526   3.032   4.221 -0.1551  0.1152 -0.3241
 2275SOL    HW2 9145   3.588   2.986   4.278 -0.2336  1.1041  0.5804
 2275SOL    HW3 9146   3.491   2.964   4.164 -1.1021 -1.1707  1.7313
 2275SOL    MW4 9147   3.529   3.017   4.221 -0.2904  0.0761  0.0668
 2276SOL     OW 9148   3.777   3.788   2.161 -0.0785 -0.5955 -0.2531
 2276SOL    HW2 9149   3.761   3.693   2.163 -0.3452 -0.5436  0.0313
 2276SOL    HW3 9150   3.755   3.818   2.249  0.9879 -0.4251 -0.0497
 2276SOL    MW4 9151   3.772   3.779   2.173  0.0272 -0.5662 -0.1886
 2277SOL     OW 9152   3.509   1.783   2.392  0.2586 -0.1831 -0.3699
 2277SOL    HW2 9153   3.598   1.811   2.412 -0.0617  0.0422  0.7551
 2277SOL    HW3 9154   3.514   1.753   2.301  1.8417 -1.7077  0.1770
 2277SOL    MW4 9155   3.522   1.783   2.382  0.4251 -0.3544 -0.1490
 2278SOL     OW 9156   2.480   3.758   3.633 -0.4048  0.2042  0.1467
 2278SOL    HW2 9157   2.414   3.731   3.568 -1.2015 -0.3975  1.1900
 2278SOL    HW3 9158   2.441   3.735   3.717  1.4221 -0.7822  0.7511
 2278SOL    MW4 9159   2.466   3.751   3.635 -0.2692 -0.0052  0.3641
 2279SOL     OW 9160   3.292   0.846   1.407  0.3997 -0.1063  0.1325
 2279SOL    HW2 9161   3.328   0.825   1.321  0.1492 -0.2452  0.0599
 2279SOL    HW3 9162   3.354   0.908   1.445  0.5328 -0.0784 -0.1308
 2279SOL    MW4 9163   3.305   0.852   1.401  0.3841 -0.1209  0.0882
 2280SOL     OW 9164   2.851   1.221   1.633  0.4481  0.2246  0.0097
 2280SOL    HW2 9165   2.933   1.172   1.639  0.3189 -0.1999 -1.3605
 2280SOL    HW3 9166   2.878   1.313   1.638  1.1625  0.1327 -1.5508
 2280SOL    MW4 9167   2.866   1.226   1.634  0.5255  0.1565 -0.3771
 2281SOL     OW 9168   1.811   2.359   0.125  0.3115 -0.3459 -0.0061
 2281SOL    HW2 9169   1.795   2.358   0.219  0.0259 -0.0463 -0.0521
 2281SOL    HW3 9170   1.826   2.451   0.104 -0.3565 -0.3193 -0.3802
 2281SOL    MW4 9171   1.811   2.371   0.135  0.1857 -0.3030 -0.0615
 2282SOL     OW 9172   0.674   4.632   3.466 -0.5017  0.3777 -0.0518
 2282SOL    HW2 9173   0.667   4.715   3.418  0.3905 -0.0702 -0.9587
 2282SOL    HW3 9174   0.764   4.631   3.498 -0.4858 -0.3002 -0.1287
 2282SOL    MW4 9175   0.685   4.643   3.464 -0.3818  0.2289 -0.1817
 2283SOL     OW 9176   3.260   2.221   2.724  0.2643 -0.1603  0.1652
 2283SOL    HW2 9177   3.320   2.148   2.708  1.5061  1.2953 -2.2571
 2283SOL    HW3 9178   3.216   2.235   2.640 -0.7460  1.1806  0.8893
 2283SOL    MW4 9179   3.262   2.213   2.711  0.2947  0.2084 -0.0589
 2284SOL     OW 9180   1.107   2.204   3.949 -0.3791 -0.0458  0.4355
 2284SOL    HW2 9181   1.029   2.259   3.950 -0.8620 -0.6708 -1.3370
 2284SOL    HW3 9182   1.170   2.251   3.895 -0.3870 -0.6825 -0.1345
 2284SOL    MW4 9183   1.105   2.217   3.942 -0.4439 -0.2124  0.1264
 2285SOL     OW 9184   1.898   4.641   3.569 -0.1825 -0.1871  0.1971
 2285SOL    HW2 9185   1.957   4.653   3.494  1.5472 -1.2403  1.3507
 2285SOL    HW3 9186   1.924   4.709   3.631 -0.8777 -0.0015  0.2842
 2285SOL    MW4 9187   1.909   4.651   3.567 -0.0460 -0.3018  0.3607
 2286SOL     OW 9188   1.868   0.976   2.638  0.0129 -0.3390 -0.1587
 2286SOL    HW2 9189   1.900   0.886   2.625  0.7167 -0.3845  1.6957
 2286SOL    HW3 9190   1.938   1.031   2.603 -1.2874 -0.5153 -3.1135
 2286SOL    MW4 9191   1.882   0.971   2.632 -0.0659 -0.3683 -0.3042
 2287SOL     OW 9192   1.831   3.384   2.126  0.1918 -0.2308  0.0025
 2287SOL    HW2 9193   1.816   3.440   2.050 -0.2055  0.2689  0.4497
 2287SOL    HW3 9194   1.923   3.397   2.147 -0.4063  1.8483  1.3743
 2287SOL    MW4 9195   1.841   3.393   2.118  0.0604  0.1094  0.2427
 2288SOL     OW 9196   0.433   2.410   1.240 -0.0332 -0.0175 -0.3138
 2288SOL    HW2 9197   0.418   2.500   1.270 -0.4011  0.5745 -2.2083
 2288SOL    HW3 9198   0.355   2.362   1.266 -0.3478  0.4857 -0.3360
 2288SOL    MW4 9199   0.421   2.416   1.247 -0.1232  0.1273 -0.5666
 2289SOL     OW 9200   3.097   0.451   0.629  0.2232  0.3659  0.5295
 2289SOL    HW2 9201   3.025   0.426   0.687 -0.2812 -0.3560 -0.4009
 2289SOL    HW3 9202   3.115   0.542   0.652 -2.2037  1.1427 -0.4634
 2289SOL    MW4 9203   3.090   0.460   0.640 -0.1636  0.3732  0.2757
 2290SOL     OW 9204   0.013   3.752   2.115 -0.0439  0.5985 -0.4400
 2290SOL    HW2 9205  -0.026   3.742   2.028  2.1606  0.3344 -1.4292
 2290SOL    HW3 9206   0.107   3.752   2.099  0.4073 -0.1577  2.0385
 2290SOL    MW4 9207   0.020   3.751   2.101  0.3065  0.4640 -0.2437
 2291SOL     OW 9208   1.692   2.269   3.237  0.7528 -0.0905 -0.0196
 2291SOL    HW2 9209   1.787   2.277   3.232  1.0049 -2.6187 -0.3401
 2291SOL    HW3 9210   1.658   2.351   3.202  2.8126  0.2934 -1.1925
 2291SOL    MW4 9211   1.700   2.281   3.232  1.0579 -0.3736 -0.2165
 2292SOL     OW 9212   0.397   4.538   2.534  0.0401 -0.4344 -0.2868
 2292SOL    HW2 9213   0.351   4.522   2.616  1.4440 -1.7680  0.2664
 2292SOL    HW3 9214   0.350   4.611   2.494  0.1363  1.1798  2.3553
 2292SOL    MW4 9215   0.385   4.546   2.540  0.2380 -0.3977  0.1347
 2293SOL     OW 9216   3.333   0.831   2.782  0.1704  0.1999  0.0706
 2293SOL    HW2 9217   3.262   0.863   2.838  1.4548  0.9558  1.3105
 2293SOL    HW3 9218   3.322   0.736   2.782 -1.9015  0.4097 -1.2254
 2293SOL    MW4 9219   3.322   0.822   2.789  0.0668  0.3272  0.0629
 2294SOL     OW 9220   4.193   2.738   1.347  0.1379  0.4506  0.7231
 2294SOL    HW2 9221   4.148   2.685   1.281  2.0395  0.7769 -0.8775
 2294SOL    HW3 9222   4.125   2.794   1.384 -1.2159 -0.6929 -0.0011
 2294SOL    MW4 9223   4.178   2.738   1.343  0.2098  0.3428  0.4164
 2295SOL     OW 9224   0.576   2.334   0.698  0.0054 -0.3936 -0.3562
 2295SOL    HW2 9225   0.587   2.427   0.677 -1.8955 -0.4493 -1.7508
 2295SOL    HW3 9226   0.545   2.333   0.788  1.9110  0.2117  0.3223
 2295SOL    MW4 9227   0.573   2.346   0.707  0.0060 -0.3209 -0.4506
 2296SOL     OW 9228   3.889   1.577   2.367 -0.1605 -0.3886  0.0346
 2296SOL    HW2 9229   3.955   1.512   2.393 -0.6293 -0.5844  0.7465
 2296SOL    HW3 9230   3.931   1.627   2.298 -0.3312 -2.4264 -1.5873
 2296SOL    MW4 9231   3.903   1.575   2.362 -0.2449 -0.6834 -0.0856
 2297SOL     OW 9232   1.558   2.417   3.747 -0.3109 -0.2226  0.0269
 2297SOL    HW2 9233   1.519   2.503   3.765  0.3928 -0.1348  1.1549
 2297SOL    HW3 9234   1.572   2.418   3.652  2.0375  1.9294  0.3388
 2297SOL    MW4 9235   1.555   2.429   3.737  0.0919  0.0730  0.2167
 2298SOL     OW 9236   1.226   4.109   4.216 -0.4621  0.3579  0.2867
 2298SOL    HW2 9237   1.149   4.166   4.214 -0.6738  0.0327 -1.2860
 2298SOL    HW3 9238   1.191   4.021   4.204  0.1570  0.2278 -0.6600
 2298SOL    MW4 9239   1.212   4.105   4.214 -0.4084  0.2980 -0.0453
 2299SOL     OW 9240   4.254   2.152   3.935  0.0578  0.2621 -0.3214
 2299SOL    HW2 9241   4.179   2.111   3.891 -1.8161  1.2342  1.8621
 2299SOL    HW3 9242   4.307   2.078   3.966 -2.2331 -0.5522  1.8221
 2299SOL    MW4 9243   4.251   2.137   3.933 -0.4916  0.2828  0.2494
 2300SOL     OW 9244   1.622   0.308   0.447 -0.5504 -0.9350 -0.3574
 2300SOL    HW2 9245   1.579   0.363   0.513  0.7870 -2.4412  1.8776
 2300SOL    HW3 9246   1.704   0.353   0.429 -1.3465 -0.0252 -1.7391
 2300SOL    MW4 9247   1.627   0.321   0.454 -0.4790 -1.0137 -0.2449
 2301SOL     OW 9248   0.079   0.606   2.634  0.5999  0.2670 -0.1106
 2301SOL    HW2 9249   0.075   0.566   2.721  0.0642  0.8486  0.1362
 2301SOL    HW3 9250   0.144   0.554   2.587  1.2135  0.2192  0.7778
 2301SOL    MW4 9251   0.087   0.593   2.640  0.6102  0.3374  0.0393
 2302SOL     OW 9252   1.676   0.148   3.746  0.2963  0.0289 -0.4932
 2302SOL    HW2 9253   1.662   0.056   3.723 -1.1309 -0.5393  2.4018
 2302SOL    HW3 9254   1.769   0.153   3.765  0.0859 -1.2361  0.9814
 2302SOL    MW4 9255   1.686   0.136   3.745  0.0802 -0.2130  0.0834
 2303SOL     OW 9256   1.956   3.069   1.144 -0.4429 -0.0230  0.3597
 2303SOL    HW2 9257   1.921   3.057   1.056 -0.8281  0.4833  0.4417
 2303SOL    HW3 9258   1.894   3.025   1.202 -0.1306 -0.4538  0.3709
 2303SOL    MW4 9259   1.943   3.062   1.140 -0.4525 -0.0131  0.3722
 2304SOL     OW 9260   3.752   3.698   2.675 -0.0961  0.3300 -0.4565
 2304SOL    HW2 9261   3.710   3.612   2.676  1.6198 -0.5305  0.1608
 2304SOL    HW3 9262   3.743   3.729   2.585  0.5882 -1.1653 -1.0488
 2304SOL    MW4 9263   3.745   3.691   2.663  0.2203  0.0193 -0.4532
 2305SOL     OW 9264   2.520   1.052   3.453 -0.8931  0.3061  0.2661
 2305SOL    HW2 9265   2.564   1.043   3.537 -1.9111  1.8666  0.9848
 2305SOL    HW3 9266   2.583   1.098   3.397 -0.2671 -0.6196  0.2008
 2305SOL    MW4 9267   2.534   1.057   3.456 -0.9449  0.3898  0.3521
 2306SOL     OW 9268   2.606   0.808   2.706  0.1650 -0.3219 -0.2579
 2306SOL    HW2 9269   2.576   0.787   2.618  0.9781  0.3836 -0.7148
 2306SOL    HW3 9270   2.532   0.788   2.763 -0.7488  0.2868 -1.2270
 2306SOL    MW4 9271   2.592   0.803   2.702  0.1516 -0.1485 -0.4461
 2307SOL     OW 9272   1.330   2.670   2.112 -0.2799 -0.1898 -0.2466
 2307SOL    HW2 9273   1.361   2.711   2.192  1.2314 -0.9348 -0.4450
 2307SOL    HW3 9274   1.374   2.585   2.109  0.4124  0.2246 -2.3451
 2307SOL    MW4 9275   1.340   2.664   2.122  0.0110 -0.2334 -0.5496
 2308SOL     OW 9276   0.878   2.528   1.204 -0.0496 -0.2275 -0.0055
 2308SOL    HW2 9277   0.850   2.617   1.224  2.1875  0.5619 -0.1797
 2308SOL    HW3 9278   0.858   2.478   1.283 -1.5259  0.3746  0.0070
 2308SOL    MW4 9279   0.872   2.533   1.217  0.0508 -0.0441 -0.0268
 2309SOL     OW 9280   4.254   3.993   3.068 -0.3923  0.4968  0.6448
 2309SOL    HW2 9281   4.330   4.039   3.105  0.4174  0.3532 -0.7838
 2309SOL    HW3 9282   4.269   3.901   3.090 -0.6793  0.5935  1.2507
 2309SOL    MW4 9283   4.266   3.987   3.075 -0.3233  0.4907  0.5364
 2310SOL     OW 9284   0.806   4.507   2.779 -0.0719  0.2911 -0.0015
 2310SOL    HW2 9285   0.755   4.519   2.859 -1.2609  0.3657 -0.7717
 2310SOL    HW3 9286   0.754   4.547   2.710  1.1455  0.6036 -0.7613
 2310SOL    MW4 9287   0.793   4.514   2.780 -0.0681  0.3419 -0.2031
 2311SOL     OW 9288   1.989   3.582   2.380 -0.5153  0.0000 -0.5118
 2311SOL    HW2 9289   1.922   3.591   2.448  1.4739  1.0767  1.3570
 2311SOL    HW3 9290   1.960   3.641   2.310 -2.1212 -0.4432 -0.2567
 2311SOL    MW4 9291   1.976   3.591   2.380 -0.4647  0.0834 -0.2317
 2312SOL     OW 9292   1.441   0.275   3.321  0.0210  0.1261 -0.0267
 2312SOL    HW2 9293   1.505   0.337   3.285 -0.5283  0.4664 -0.4171
 2312SOL    HW3 9294   1.378   0.329   3.367  1.1277 -0.3507  2.1468
 2312SOL    MW4 9295   1.441   0.290   3.323  0.0945  0.1080  0.2089
 2313SOL     OW 9296   1.707   1.451   1.580 -0.0584 -0.1447  0.3276
 2313SOL    HW2 9297   1.688   1.428   1.671  0.2045  0.1743  0.4668
 2313SOL    HW3 9298   1.677   1.542   1.573  0.6006  0.0692  0.3022
 2313SOL    MW4 9299   1.700   1.460   1.591  0.0632 -0.0745  0.3426
 2314SOL     OW 9300   2.941   3.143   2.210 -0.3581 -0.2470  0.6120
 2314SOL    HW2 9301   2.922   3.084   2.137 -0.7070  0.4554  0.1343
 2314SOL    HW3 9302   3.028   3.178   2.190 -0.3773 -0.1910  0.6284
 2314SOL    MW4 9303   2.950   3.140   2.198 -0.4067 -0.1469  0.5512
 2315SOL     OW 9304   1.961   2.779   2.803  0.2075  0.1894 -0.0432
 2315SOL    HW2 9305   1.969   2.690   2.838  0.4653 -0.0430 -0.6715
 2315SOL    HW3 9306   1.939   2.766   2.710  0.5350  0.7731 -0.2045
 2315SOL    MW4 9307   1.959   2.765   2.795  0.2848  0.2360 -0.1471
 2316SOL     OW 9308   2.177   1.294   1.388  0.5336 -0.1973  0.1342
 2316SOL    HW2 9309   2.205   1.385   1.373 -1.2141  0.6026  1.5523
 2316SOL    HW3 9310   2.147   1.264   1.303  1.5339  0.4029 -0.4440
 2316SOL    MW4 9311   2.177   1.302   1.375  0.4351 -0.0125  0.2450
 2317SOL     OW 9312   2.599   0.404   4.276 -0.0251 -0.0548  0.4715
 2317SOL    HW2 9313   2.663   0.348   4.320 -1.2249 -0.0807  2.2310
 2317SOL    HW3 9314   2.548   0.344   4.222  0.3340 -0.2802  0.3811
 2317SOL    MW4 9315   2.601   0.389   4.275 -0.1361 -0.0879  0.6914
 2318SOL     OW 9316   0.818   2.585   3.196  0.0140  0.4161 -0.9965
 2318SOL    HW2 9317   0.807   2.490   3.203  0.6788  0.4012 -0.0530
 2318SOL    HW3 9318   0.747   2.622   3.249  1.2126  0.3972  0.6647
 2318SOL    MW4 9319   0.807   2.578   3.204  0.2599  0.4115 -0.6530
 2319SOL     OW 9320   4.280   4.308   0.557 -0.2405 -0.0077  0.0938
 2319SOL    HW2 9321   4.229   4.384   0.587  0.3802 -0.3498  2.0341
 2319SOL    HW3 9322   4.230   4.275   0.482 -1.7101  0.9913  0.6025
 2319SOL    MW4 9323   4.266   4.314   0.551 -0.3529  0.0787  0.4169
 2320SOL     OW 9324   0.299   0.507   0.363 -0.2251 -0.4640 -0.8286
 2320SOL    HW2 9325   0.310   0.424   0.317 -0.0570 -1.0674  0.3045
 2320SOL    HW3 9326   0.384   0.524   0.403 -0.7408 -0.5880  0.3375
 2320SOL    MW4 9327   0.311   0.499   0.362 -0.2710 -0.5599 -0.5252
 2321SOL     OW 9328   3.040   1.197   2.853 -0.2016 -0.1154  0.2199
 2321SOL    HW2 9329   3.014   1.262   2.788 -1.3602  0.4432  1.2032
 2321SOL    HW3 9330   3.072   1.249   2.928  0.4509 -0.7232  0.3715
 2321SOL    MW4 9331   3.041   1.212   2.855 -0.2682 -0.1220  0.3698
 2322SOL     OW 9332   3.918   0.027   1.133 -0.1328  0.0651 -0.0718
 2322SOL    HW2 9333   3.963  -0.014   1.207 -1.2211  2.1018  1.7359
 2322SOL    HW3 9334   3.990   0.055   1.075  0.7469 -0.7981  0.5760
 2322SOL    MW4 9335   3.934   0.025   1.135 -0.1605  0.2199  0.2522
 2323SOL     OW 9336   2.130   3.544   2.786  0.4280  0.9434 -0.0200
 2323SOL    HW2 9337   2.081   3.595   2.850  0.5966  0.0717  0.8224
 2323SOL    HW3 9338   2.121   3.593   2.704 -1.1310  1.2432  0.3066
 2323SOL    MW4 9339   2.122   3.557   2.784  0.2444  0.8681  0.1340
 2324SOL     OW 9340   4.426   2.648   0.587 -0.0056  0.1451 -0.0134
 2324SOL    HW2 9341   4.510   2.691   0.575 -0.2456  1.0681  1.4181
 2324SOL    HW3 9342   4.435   2.602   0.671 -0.7767 -0.1136 -0.0695
 2324SOL    MW4 9343   4.438   2.647   0.597 -0.1388  0.2327  0.1680
 2325SOL     OW 9344   3.948   0.433   2.266  0.0368 -0.3381  1.1154
 2325SOL    HW2 9345   3.980   0.351   2.304 -1.4678 -0.4389  2.2197
 2325SOL    HW3 9346   3.859   0.412   2.237  0.4720  0.2773 -0.7478
 2325SOL    MW4 9347   3.941   0.419   2.267 -0.1044 -0.2702  1.0154
 2326SOL     OW 9348   2.699   3.713   3.322  0.1172 -0.2121 -0.0245
 2326SOL    HW2 9349   2.761   3.776   3.358  0.8811  0.3615 -2.2216
 2326SOL    HW3 9350   2.617   3.762   3.316 -0.0867 -0.4040  1.1871
 2326SOL    MW4 9351   2.696   3.728   3.326  0.1910 -0.1616 -0.1545
 2327SOL     OW 9352   3.694   1.077   2.707  0.2417  0.7613  0.0913
 2327SOL    HW2 9353   3.656   1.007   2.761  0.5733 -0.6615 -1.4788
 2327SOL    HW3 9354   3.622   1.138   2.692 -0.8077 -0.6786 -0.8428
 2327SOL    MW4 9355   3.679   1.076   2.712  0.1469  0.3835 -0.2389
 2328SOL     OW 9356   2.806   1.976   0.241  0.1223  0.1736  0.0137
 2328SOL    HW2 9357   2.788   2.069   0.255 -0.5702  0.4305 -2.3651
 2328SOL    HW3 9358   2.901   1.971   0.237  0.1458  0.8515 -0.3692
 2328SOL    MW4 9359   2.816   1.988   0.243  0.0341  0.2970 -0.3507
 2329SOL     OW 9360   1.531   2.425   0.071  0.0392  0.3064  0.2147
 2329SOL    HW2 9361   1.463   2.390   0.129 -0.5157 -0.0143 -0.6233
 2329SOL    HW3 9362   1.611   2.382   0.101 -0.3240 -0.2244  0.4431
 2329SOL    MW4 9363   1.533   2.414   0.083 -0.0820  0.1941  0.1343
 2330SOL     OW 9364   2.367   1.330   1.071 -0.0871  0.3052 -0.2400
 2330SOL    HW2 9365   2.416   1.314   1.152 -1.0694  1.8583  0.7038
 2330SOL    HW3 9366   2.345   1.423   1.075 -2.4659 -0.1931 -0.9808
 2330SOL    MW4 9367   2.371   1.340   1.082 -0.5305  0.4445 -0.2131
 2331SOL     OW 9368   3.502   1.477   2.441  0.0787  0.4183  0.2980
 2331SOL    HW2 9369   3.497   1.567   2.472 -1.0447  0.2028  0.7712
 2331SOL    HW3 9370   3.543   1.483   2.355 -0.1468  1.3935  0.2557
 2331SOL    MW4 9371   3.506   1.490   2.434 -0.0992  0.5186  0.3548
 2332SOL     OW 9372   4.141   2.213   4.198  0.1393 -0.1690 -0.4524
 2332SOL    HW2 9373   4.077   2.150   4.233  1.1756  0.6268  3.0848
 2332SOL    HW3 9374   4.196   2.160   4.140 -0.3178 -2.0978  0.8045
 2332SOL    MW4 9375   4.140   2.197   4.195  0.2151 -0.3183  0.1802
 2333SOL     OW 9376   1.454   1.937   0.864 -0.2155  0.2623 -0.0677
 2333SOL    HW2 9377   1.452   1.901   0.953 -1.5206  0.4284 -0.0304
 2333SOL    HW3 9378   1.498   2.021   0.873  0.5091 -0.1429  0.2597
 2333SOL    MW4 9379   1.460   1.943   0.877 -0.2921  0.2308 -0.0196
 2334SOL     OW 9380   1.447   2.111   2.174 -0.0869  0.6150 -0.3719
 2334SOL    HW2 9381   1.379   2.177   2.184  1.9524  2.8109 -0.5389
 2334SOL    HW3 9382   1.478   2.095   2.263 -0.5453 -0.1020 -0.3364
 2334SOL    MW4 9383   1.442   2.117   2.187  0.1216  0.8101 -0.3893
 2335SOL     OW 9384   1.201   2.399   0.970 -0.5012  0.0485 -0.0566
 2335SOL    HW2 9385   1.190   2.451   1.050 -0.6092  0.3552 -0.2716
 2335SOL    HW3 9386   1.117   2.356   0.958 -1.0720  1.3750 -0.9762
 2335SOL    MW4 9387   1.188   2.400   0.979 -0.5908  0.2642 -0.2064
 2336SOL     OW 9388   3.579   0.057   1.694  0.2802 -0.4131 -0.1039
 2336SOL    HW2 9389   3.487   0.034   1.682  0.6847 -1.8271 -0.6770
 2336SOL    HW3 9390   3.624   0.011   1.623  1.5272 -0.4137  0.6767
 2336SOL    MW4 9391   3.573   0.048   1.683  0.4983 -0.5998 -0.0765
 2337SOL     OW 9392   4.117   0.428   0.201 -0.3778  0.1679 -0.2908
 2337SOL    HW2 9393   4.194   0.394   0.246  0.1667  0.9598 -0.6066
 2337SOL    HW3 9394   4.152   0.492   0.139 -1.2274 -0.0031 -0.9543
 2337SOL    MW4 9395   4.131   0.432   0.199 -0.4177  0.2498 -0.4200
 2338SOL     OW 9396   1.197   4.650   1.070 -0.6363  0.2408  0.0367
 2338SOL    HW2 9397   1.205   4.721   1.006 -0.1029  0.3718  0.2430
 2338SOL    HW3 9398   1.211   4.570   1.019  0.5782  0.3894  0.1247
 2338SOL    MW4 9399   1.200   4.648   1.055 -0.4057  0.2775  0.0756
 2339SOL     OW 9400   0.250   2.600   0.530 -0.0433  0.1831  0.0308
 2339SOL    HW2 9401   0.207   2.523   0.493  0.9548  0.2135 -1.2096
 2339SOL    HW3 9402   0.200   2.674   0.497  0.2033  0.1618 -0.3884
 2339SOL    MW4 9403   0.238   2.599   0.521  0.1210  0.1843 -0.1882
 2340SOL     OW 9404   3.478   1.614   1.758  0.1965  0.8038  0.2276
 2340SOL    HW2 9405   3.391   1.595   1.722  0.7767  0.9401 -1.2621
 2340SOL    HW3 9406   3.460   1.662   1.839 -1.1114  1.0921 -0.2217
 2340SOL    MW4 9407   3.464   1.618   1.764  0.1006  0.8597 -0.0281
 2341SOL     OW 9408   0.526   0.697   3.386 -0.2263  0.0073 -0.2610
 2341SOL    HW2 9409   0.582   0.693   3.308  0.6586 -1.2211  0.4129
 2341SOL    HW3 9410   0.441   0.667   3.356 -0.2894  0.9703 -1.0810
 2341SOL    MW4 9411   0.522   0.693   3.372 -0.1178 -0.0277 -0.2801
 2342SOL     OW 9412   0.446   0.981   0.087  0.3575  0.0485  0.0940
 2342SOL    HW2 9413   0.425   0.929   0.164 -0.5332 -2.0425 -1.5216
 2342SOL    HW3 9414   0.364   1.028   0.068  0.7619  1.0358  0.7730
 2342SOL    MW4 9415   0.432   0.981   0.094  0.2933 -0.0972 -0.0296
 2343SOL     OW 9416   3.402   3.501   2.916 -0.1611  0.0767 -0.3296
 2343SOL    HW2 9417   3.411   3.518   3.009 -1.6050 -0.9164  0.0077
 2343SOL    HW3 9418   3.354   3.576   2.882 -1.8108 -0.7166  0.1921
 2343SOL    MW4 9419   3.397   3.513   2.923 -0.5691 -0.1590 -0.2160
 2344SOL     OW 9420   2.506   3.603   2.149  0.2721 -0.0466  0.5688
 2344SOL    HW2 9421   2.464   3.522   2.178 -0.1497  0.1345  0.4667
 2344SOL    HW3 9422   2.452   3.672   2.186  1.1464  0.1950  1.4047
 2344SOL    MW4 9423   2.493   3.601   2.158  0.3321  0.0091  0.6654
 2345SOL     OW 9424   2.241   1.177   0.476  0.0688 -0.4809 -0.0492
 2345SOL    HW2 9425   2.257   1.212   0.564 -0.4406  1.8092 -0.8236
 2345SOL    HW3 9426   2.326   1.145   0.447  0.8401  1.2247  0.2557
 2345SOL    MW4 9427   2.254   1.178   0.484  0.1032  0.0464 -0.1112
 2346SOL     OW 9428   1.482   1.854   3.061  0.9950  0.1198 -0.0513
 2346SOL    HW2 9429   1.474   1.863   2.966 -1.5301  1.4534  0.2567
 2346SOL    HW3 9430   1.546   1.921   3.086 -0.4107  1.6587 -0.5123
 2346SOL    MW4 9431   1.489   1.864   3.052  0.4764  0.4988 -0.0715
 2347SOL     OW 9432   3.822   3.889   1.487 -0.3249  0.2425 -0.0715
 2347SOL    HW2 9433   3.851   3.958   1.427  1.1081 -0.4963 -0.2345
 2347SOL    HW3 9434   3.866   3.908   1.570  1.1675 -1.2649 -0.5070
 2347SOL    MW4 9435   3.831   3.901   1.490  0.0610 -0.0536 -0.1506
 2348SOL     OW 9436   3.045   4.412   3.980 -0.1937 -0.1125  0.1807
 2348SOL    HW2 9437   3.061   4.507   3.983 -0.9547  0.0301 -0.3374
 2348SOL    HW3 9438   2.951   4.403   3.998  0.1375 -0.8606  1.6596
 2348SOL    MW4 9439   3.035   4.424   3.983 -0.2503 -0.1926  0.3076
 2349SOL     OW 9440   3.595   2.328   4.339 -0.2943  0.1311  0.2536
 2349SOL    HW2 9441   3.653   2.403   4.327 -0.4086  0.3817  1.1919
 2349SOL    HW3 9442   3.604   2.306   4.432 -1.2562 -0.2001  0.2672
 2349SOL    MW4 9443   3.604   2.335   4.350 -0.4363  0.1206  0.3791
 2350SOL     OW 9444   1.603   3.477   1.206 -0.1544  0.3450 -0.1316
 2350SOL    HW2 9445   1.558   3.403   1.246  1.3184 -0.1628  0.6081
 2350SOL    HW3 9446   1.696   3.460   1.221  0.2506  1.8191 -0.8712
 2350SOL    MW4 9447   1.610   3.465   1.213  0.0933  0.4725 -0.1316
 2351SOL     OW 9448   4.250   0.884   0.101  0.2479  0.1912 -0.1630
 2351SOL    HW2 9449   4.336   0.921   0.080  0.5297 -0.3875 -0.0374
 2351SOL    HW3 9450   4.240   0.900   0.195 -0.0155  0.7364 -0.2821
 2351SOL    MW4 9451   4.260   0.891   0.111  0.2508  0.1867 -0.1621
 2352SOL     OW 9452   2.072   2.827   3.583  0.0791 -0.1417  0.0880
 2352SOL    HW2 9453   2.082   2.856   3.493  1.9188  0.0478  0.3361
 2352SOL    HW3 9454   1.978   2.816   3.595 -0.1058 -0.9592 -2.0921
 2352SOL    MW4 9455   2.061   2.829   3.573  0.2975 -0.2244 -0.1669
 2353SOL     OW 9456   4.388   0.353   0.672  0.2164  0.3400  0.5756
 2353SOL    HW2 9457   4.344   0.413   0.732  2.4886  1.0684  1.5483
 2353SOL    HW3 9458   4.467   0.399   0.644  0.5368 -1.0485 -0.9261
 2353SOL    MW4 9459   4.393   0.367   0.676  0.5584  0.2529  0.5058
 2354SOL     OW 9460   3.560   2.476   3.790 -0.3024  0.3864  0.1957
 2354SOL    HW2 9461   3.633   2.444   3.738 -0.1998  0.6259  0.1892
 2354SOL    HW3 9462   3.492   2.409   3.782 -0.3915  0.5559 -0.4698
 2354SOL    MW4 9463   3.561   2.463   3.782 -0.3006  0.4404  0.1073
 2355SOL     OW 9464   4.042   3.845   3.795  0.1779  0.0119 -0.0959
 2355SOL    HW2 9465   4.129   3.822   3.763  0.7021  0.1628  1.2051
 2355SOL    HW3 9466   4.056   3.877   3.884 -1.1098  0.8554 -0.1829
 2355SOL    MW4 9467   4.055   3.846   3.802  0.0777  0.1431  0.0644
 2356SOL     OW 9468   0.948   3.433   3.427 -0.4292 -0.0108 -0.1825
 2356SOL    HW2 9469   0.994   3.512   3.458  0.8404 -0.6490 -0.4209
 2356SOL    HW3 9470   0.982   3.363   3.483 -1.1154 -0.4971 -0.3740
 2356SOL    MW4 9471   0.959   3.434   3.439 -0.3521 -0.1590 -0.2391
 2357SOL     OW 9472   0.272   3.399   1.293 -0.7588  0.3333 -0.1523
 2357SOL    HW2 9473   0.356   3.377   1.252 -0.8143 -0.8275  0.3472
 2357SOL    HW3 9474   0.251   3.323   1.348 -0.7928  1.7725  1.8746
 2357SOL    MW4 9475   0.281   3.386   1.295 -0.7706  0.3695  0.1810
 2358SOL     OW 9476   0.667   2.509   0.382 -0.0370 -0.3616 -0.1044
 2358SOL    HW2 9477   0.747   2.514   0.330 -0.3917  0.4139 -0.5889
 2358SOL    HW3 9478   0.605   2.462   0.325  0.2554 -1.5075  0.5106
 2358SOL    MW4 9479   0.669   2.503   0.367 -0.0452 -0.4106 -0.0871
 2359SOL     OW 9480   1.834   4.549   0.616 -0.7475  0.2953 -0.2036
 2359SOL    HW2 9481   1.799   4.533   0.703  0.1471  0.5686  0.2154
 2359SOL    HW3 9482   1.763   4.591   0.568 -0.8302  1.2605  0.7597
 2359SOL    MW4 9483   1.820   4.552   0.621 -0.6404  0.4587 -0.0212
 2360SOL     OW 9484   1.063   0.350   4.040  0.2978  0.0827 -0.1513
 2360SOL    HW2 9485   1.113   0.400   3.974 -0.9737 -1.1861 -2.1348
 2360SOL    HW3 9486   1.003   0.414   4.077 -0.5743  0.3077 -1.9064
 2360SOL    MW4 9487   1.062   0.365   4.036  0.0150 -0.0550 -0.6447
 2361SOL     OW 9488   2.363   1.295   3.175  0.2499  0.1547 -0.0375
 2361SOL    HW2 9489   2.371   1.264   3.085  1.3939 -0.8932  0.3974
 2361SOL    HW3 9490   2.344   1.215   3.225 -0.6146  0.7661  0.6198
 2361SOL    MW4 9491   2.362   1.280   3.170  0.2866  0.0973  0.1068
 2362SOL     OW 9492   3.345   3.061   3.185  0.8206  0.4422 -0.0441
 2362SOL    HW2 9493   3.367   3.134   3.127  0.3675  0.2538 -0.4552
 2362SOL    HW3 9494   3.384   3.085   3.269  0.5489  1.2332 -0.1347
 2362SOL    MW4 9495   3.353   3.074   3.189  0.7248  0.5219 -0.1104
 2363SOL     OW 9496   1.101   3.158   0.424  0.3550  0.1229  0.5341
 2363SOL    HW2 9497   1.089   3.137   0.517 -0.9223 -0.2186  0.3035
 2363SOL    HW3 9498   1.123   3.074   0.383  1.2715  0.3376  0.5832
 2363SOL    MW4 9499   1.102   3.144   0.431  0.3076  0.1061  0.5102
 2364SOL     OW 9500   3.963   1.060   2.718  0.0591  0.2453  0.0668
 2364SOL    HW2 9501   3.868   1.058   2.715  0.0641  0.2043 -0.0496
 2364SOL    HW3 9502   3.990   0.969   2.712  0.1117  0.2711 -0.0959
 2364SOL    MW4 9503   3.954   1.048   2.717  0.0668  0.2433  0.0300
 2365SOL     OW 9504   1.236   0.171   0.867 -0.6167 -0.1307 -0.0889
 2365SOL    HW2 9505   1.313   0.129   0.829 -1.2278 -1.1534 -0.2333
 2365SOL    HW3 9506   1.268   0.253   0.904  0.8509 -1.2987  1.2972
 2365SOL    MW4 9507   1.250   0.176   0.867 -0.5037 -0.4197  0.0749
 2366SOL     OW 9508   1.218   4.033   3.630 -0.3433 -0.0586  0.2068
 2366SOL    HW2 9509   1.232   4.009   3.722 -0.3749 -0.1799  0.1805
 2366SOL    HW3 9510   1.241   4.125   3.625  1.7200 -0.5668 -0.1243
 2366SOL    MW4 9511   1.223   4.042   3.642 -0.0752 -0.1416  0.1593
 2367SOL     OW 9512   2.817   4.636   2.429 -0.2196 -0.0768  0.1054
 2367SOL    HW2 9513   2.803   4.549   2.465  0.1680  0.3578  1.3180
 2367SOL    HW3 9514   2.737   4.684   2.449 -0.8618 -0.4462 -1.4857
 2367SOL    MW4 9515   2.805   4.631   2.436 -0.2530 -0.0682  0.0553
 2368SOL     OW 9516   4.452   1.252   2.587  0.2694 -0.1130 -0.1302
 2368SOL    HW2 9517   4.535   1.206   2.584  0.8170  0.8486  0.1197
 2368SOL    HW3 9518   4.439   1.271   2.680 -0.0347  0.0988 -0.2150
 2368SOL    MW4 9519   4.461   1.248   2.599  0.3014  0.0418 -0.1082
 2369SOL     OW 9520   4.437   0.239   1.915  0.2340 -0.7329 -0.1730
 2369SOL    HW2 9521   4.467   0.285   1.837  1.4948 -0.2561  0.5810
 2369SOL    HW3 9522   4.498   0.265   1.984 -1.7036 -0.0368  1.3225
 2369SOL    MW4 9523   4.449   0.248   1.914  0.1450 -0.5782  0.1239
 2370SOL     OW 9524   0.267   4.573   1.693 -0.6052 -0.9321  0.4650
 2370SOL    HW2 9525   0.318   4.652   1.710 -0.9796 -0.4992 -0.3917
 2370SOL    HW3 9526   0.197   4.575   1.758 -2.5642  1.1857 -1.6430
 2370SOL    MW4 9527   0.264   4.584   1.704 -0.9131 -0.5956  0.0739
 2371SOL     OW 9528   2.588   1.435   1.987  0.1406 -0.1317  0.7439
 2371SOL    HW2 9529   2.648   1.508   2.001 -0.8255  0.9035 -0.5394
 2371SOL    HW3 9530   2.646   1.362   1.964  0.9866  0.6393  0.3775
 2371SOL    MW4 9531   2.604   1.435   1.986  0.1249  0.1066  0.5264
 2372SOL     OW 9532   3.007   2.128   2.360  0.1321  0.1388  0.1750
 2372SOL    HW2 9533   2.991   2.210   2.314  0.9147  0.5367  0.5941
 2372SOL    HW3 9534   3.103   2.118   2.358  0.1139 -0.2465  1.0117
 2372SOL    MW4 9535   3.018   2.138   2.354  0.2329  0.1404  0.3407
 2373SOL     OW 9536   1.483   2.668   3.816 -0.3945  0.0445  0.4923
 2373SOL    HW2 9537   1.503   2.744   3.761  1.3887 -1.7110 -1.3748
 2373SOL    HW3 9538   1.508   2.696   3.905  1.1265  1.3326 -0.3091
 2373SOL    MW4 9539   1.489   2.682   3.821  0.0415 -0.0174  0.1402
 2374SOL     OW 9540   1.167   1.310   2.874 -0.2654  0.1334 -0.7501
 2374SOL    HW2 9541   1.254   1.312   2.834  0.9731 -0.5091  1.7350
 2374SOL    HW3 9542   1.113   1.368   2.820  2.5558  3.1401 -0.5125
 2374SOL    MW4 9543   1.171   1.318   2.862  0.2702  0.4454 -0.3910
 2375SOL     OW 9544   0.800   3.370   1.270  0.3055 -0.6437 -0.4459
 2375SOL    HW2 9545   0.765   3.350   1.183  0.2060 -0.6986 -0.3944
 2375SOL    HW3 9546   0.868   3.434   1.255 -0.7110  0.4542 -0.4266
 2375SOL    MW4 9547   0.804   3.375   1.257  0.1583 -0.5062 -0.4365
 2376SOL     OW 9548   3.279   1.222   2.197 -0.1981 -0.1126 -0.2884
 2376SOL    HW2 9549   3.369   1.230   2.228  0.1863 -0.6771 -1.2613
 2376SOL    HW3 9550   3.249   1.313   2.188  0.2055  0.0742  0.2037
 2376SOL    MW4 9551   3.287   1.235   2.200 -0.0942 -0.1625 -0.3519
 2377SOL     OW 9552   2.827   2.695   3.506 -0.1073  0.2759 -0.3725
 2377SOL    HW2 9553   2.837   2.745   3.425  0.7724  2.2605  0.9198
 2377SOL    HW3 9554   2.916   2.672   3.532 -0.4184 -0.8506 -0.2480
 2377SOL    MW4 9555   2.840   2.698   3.499 -0.0324  0.3891 -0.1855
 2378SOL     OW 9556   2.199   2.441   1.726  0.3197  0.0038  0.5155
 2378SOL    HW2 9557   2.287   2.468   1.753 -0.1169  2.1821 -0.0851
 2378SOL    HW3 9558   2.149   2.522   1.726 -0.8627 -0.6811 -2.2926
 2378SOL    MW4 9559   2.204   2.455   1.729  0.1061  0.2010  0.0658
 2379SOL     OW 9560   2.585   1.909   4.095 -0.3750 -0.6656  0.0515
 2379SOL    HW2 9561   2.494   1.899   4.124  0.2924  0.7214  2.7940
 2379SOL    HW3 9562   2.604   2.002   4.108  1.1817 -0.7707 -1.3156
 2379SOL    MW4 9563   2.576   1.920   4.101 -0.0813 -0.4966  0.2332
 2380SOL     OW 9564   3.711   4.531   3.829 -0.0939 -0.0120  0.2328
 2380SOL    HW2 9565   3.685   4.474   3.756  0.9331 -0.1621 -0.0247
 2380SOL    HW3 9566   3.734   4.470   3.899 -0.9222  0.1288  0.6291
 2380SOL    MW4 9567   3.711   4.515   3.828 -0.0677 -0.0134  0.2513
 2381SOL     OW 9568   1.231   0.875   0.446  0.1061 -0.2120 -0.0398
 2381SOL    HW2 9569   1.222   0.835   0.359 -0.4353 -1.4452  0.5630
 2381SOL    HW3 9570   1.286   0.813   0.495  0.1815  0.3408  0.5717
 2381SOL    MW4 9571   1.237   0.861   0.441  0.0445 -0.3017  0.1205
 2382SOL     OW 9572   3.733   4.485   2.692 -0.4758 -0.3112  0.0918
 2382SOL    HW2 9573   3.782   4.456   2.769  1.8120  0.9229 -0.8542
 2382SOL    HW3 9574   3.674   4.412   2.673  1.9809 -2.4909  0.4394
 2382SOL    MW4 9575   3.732   4.472   2.700  0.1502 -0.4358  0.0126
 2383SOL     OW 9576   2.585   1.055   0.718 -0.1562  0.4304  0.6111
 2383SOL    HW2 9577   2.549   1.044   0.630  0.8493  0.9197  0.1314
 2383SOL    HW3 9578   2.567   1.147   0.740 -2.3827 -0.2674  1.8223
 2383SOL    MW4 9579   2.578   1.066   0.709 -0.3176  0.4028  0.7076
 2384SOL     OW 9580   2.723   2.851   1.121  0.0626 -0.3166 -0.2161
 2384SOL    HW2 9581   2.753   2.803   1.199 -1.3513  1.0441  1.2018
 2384SOL    HW3 9582   2.741   2.943   1.141 -0.4629  0.0574 -1.4277
 2384SOL    MW4 9583   2.729   2.857   1.134 -0.1934 -0.0877 -0.1888
 2385SOL     OW 9584   3.105   0.384   3.626 -0.4119  0.1300  0.2288
 2385SOL    HW2 9585   3.055   0.446   3.574 -1.1694 -0.1332  0.6416
 2385SOL    HW3 9586   3.106   0.423   3.714 -1.3253 -0.6928  0.6088
 2385SOL    MW4 9587   3.099   0.397   3.631 -0.6325 -0.0133  0.3335
 2386SOL     OW 9588   0.602   1.966   2.884 -0.2311 -0.4602  0.5484
 2386SOL    HW2 9589   0.581   1.880   2.921 -0.3785 -0.2865  0.8707
 2386SOL    HW3 9590   0.548   2.027   2.933 -0.8417 -0.2854 -0.3410
 2386SOL    MW4 9591   0.592   1.963   2.895 -0.3312 -0.4141  0.4735
 2387SOL     OW 9592   4.061   0.755   1.143 -0.0686 -0.0956  0.3326
 2387SOL    HW2 9593   3.995   0.727   1.079  0.6280  1.4533 -1.1218
 2387SOL    HW3 9594   4.045   0.701   1.220 -2.4625 -0.3732 -0.3176
 2387SOL    MW4 9595   4.050   0.744   1.144 -0.2918  0.0721  0.0548
 2388SOL     OW 9596   0.287   0.821   3.910  0.1915 -0.3583  0.6889
 2388SOL    HW2 9597   0.209   0.873   3.929 -0.1412 -0.7148  0.3061
 2388SOL    HW3 9598   0.349   0.883   3.873 -0.3392 -0.3011 -0.1150
 2388SOL    MW4 9599   0.285   0.836   3.907  0.0775 -0.3978  0.5324
 2389SOL     OW 9600   1.966   3.772   1.781 -0.0992 -0.8146 -0.5198
 2389SOL    HW2 9601   2.020   3.715   1.836  0.2390  0.0686  0.0699
 2389SOL    HW3 9602   2.029   3.824   1.731 -0.3652  1.0458  1.0165
 2389SOL    MW4 9603   1.981   3.771   1.782 -0.0896 -0.4528 -0.2393
 2390SOL     OW 9604   0.004   3.377   4.108  0.0952 -0.2865 -0.7101
 2390SOL    HW2 9605   0.098   3.377   4.125  0.0581 -1.6632 -0.4417
 2390SOL    HW3 9606  -0.029   3.454   4.155  0.9070 -0.4881  0.2111
 2390SOL    MW4 9607   0.012   3.387   4.116  0.1974 -0.4947 -0.5531
 2391SOL     OW 9608   1.167   3.411   4.007  0.2283  0.3196  0.0864
 2391SOL    HW2 9609   1.217   3.446   3.934  0.6486  0.0987  0.2617
 2391SOL    HW3 9610   1.201   3.458   4.084 -0.9633  1.3276  0.0106
 2391SOL    MW4 9611   1.178   3.422   4.008  0.1266  0.4234  0.0997
 2392SOL     OW 9612   1.224   0.542   3.900 -0.5129 -0.4934  0.0177
 2392SOL    HW2 9613   1.318   0.534   3.880 -0.6853  0.9313 -1.5360
 2392SOL    HW3 9614   1.220   0.607   3.969 -0.3010 -1.2321  0.7342
 2392SOL    MW4 9615   1.236   0.549   3.906 -0.5077 -0.4029 -0.0930
 2393SOL     OW 9616   4.083   0.193   0.067 -0.1197  0.1245 -0.6018
 2393SOL    HW2 9617   4.143   0.193  -0.008  0.9170 -0.7055  0.2002
 2393SOL    HW3 9618   4.079   0.284   0.096 -0.6347  0.4677 -1.7534
 2393SOL    MW4 9619   4.091   0.205   0.061 -0.0510  0.0602 -0.6479
 2394SOL     OW 9620   1.107   1.265   3.566 -0.2348 -0.1848 -0.1233
 2394SOL    HW2 9621   1.122   1.279   3.660  1.6121  1.4766 -0.6256
 2394SOL    HW3 9622   1.174   1.202   3.540 -0.7240 -0.6174 -0.3276
 2394SOL    MW4 9623   1.118   1.259   3.575 -0.0557 -0.0228 -0.2167
 2395SOL     OW 9624   3.024   0.283   1.775 -0.0474 -0.6652 -0.1452
 2395SOL    HW2 9625   3.032   0.294   1.870 -0.0968 -1.6453 -0.0159
 2395SOL    HW3 9626   3.069   0.200   1.757  0.0103 -0.4513 -0.9853
 2395SOL    MW4 9627   3.031   0.273   1.785 -0.0463 -0.7663 -0.2391
 2396SOL     OW 9628   2.821   2.015   1.941  0.6682 -0.5112  0.4675
 2396SOL    HW2 9629   2.803   2.012   2.035 -1.6440 -1.7262  0.0369
 2396SOL    HW3 9630   2.845   1.925   1.918 -0.9909 -0.7398 -0.4707
 2396SOL    MW4 9631   2.822   2.003   1.950  0.1440 -0.7019  0.2869
 2397SOL     OW 9632   1.476   1.379   3.230 -0.0755  0.1172  0.0656
 2397SOL    HW2 9633   1.498   1.351   3.319 -0.0965  0.7789  0.2829
 2397SOL    HW3 9634   1.424   1.459   3.243  1.6769  1.3920 -0.6098
 2397SOL    MW4 9635   1.472   1.386   3.244  0.1529  0.3728  0.0055
 2398SOL     OW 9636   2.722   4.047   1.072 -0.2255 -0.0208 -0.1104
 2398SOL    HW2 9637   2.801   4.101   1.063 -0.3513  0.3757  1.1269
 2398SOL    HW3 9638   2.754   3.964   1.107 -0.4130  0.2948  0.8109
 2398SOL    MW4 9639   2.737   4.044   1.075 -0.2670  0.0739  0.1743
 2399SOL     OW 9640   3.605   2.763   1.846  0.4608 -0.2671 -0.1080
 2399SOL    HW2 9641   3.596   2.792   1.755 -1.0135  0.6984  0.3200
 2399SOL    HW3 9642   3.699   2.755   1.859  0.7781  1.3739 -1.1881
 2399SOL    MW4 9643   3.616   2.766   1.836  0.3080  0.0770 -0.1941
 2400SOL     OW 9644   1.726   0.675   3.318 -0.0290  0.7618  0.4011
 2400SOL    HW2 9645   1.702   0.699   3.229  0.5288 -0.8640 -0.1892
 2400SOL    HW3 9646   1.647   0.693   3.369 -0.9666 -0.0471 -0.7347
 2400SOL    MW4 9647   1.712   0.681   3.313 -0.0792  0.4405  0.1733
 2401SOL     OW 9648   1.827   3.060   0.144 -0.5144 -0.1767  0.0559
 2401SOL    HW2 9649   1.855   3.104   0.064  0.7985 -0.0877  0.5498
 2401SOL    HW3 9650   1.754   3.113   0.176  1.4441  2.0101  0.9636
 2401SOL    MW4 9651   1.821   3.073   0.138 -0.0829  0.1235  0.2408
 2402SOL     OW 9652   2.782   3.348   2.301 -0.0879 -0.3259 -0.1260
 2402SOL    HW2 9653   2.788   3.351   2.397 -0.8286 -0.1271 -0.0856
 2402SOL    HW3 9654   2.850   3.285   2.275  0.6804  0.2491  0.4736
 2402SOL    MW4 9655   2.792   3.340   2.310 -0.0842 -0.2239 -0.0417
 2403SOL     OW 9656   2.058   1.375   0.795 -0.5980 -0.2321  0.1561
 2403SOL    HW2 9657   2.143   1.335   0.778  0.1012  1.0148  0.6260
 2403SOL    HW3 9658   1.994   1.305   0.781  0.4952 -1.1171 -0.3957
 2403SOL    MW4 9659   2.061   1.361   0.791 -0.3617 -0.1844  0.1453
 2404SOL     OW 9660   3.441   0.939   2.155  0.8999 -0.3099  0.5875
 2404SOL    HW2 9661   3.416   0.974   2.069  0.2244 -1.4658  0.2968
 2404SOL    HW3 9662   3.483   1.013   2.200  0.7584  0.4633 -0.5227
 2404SOL    MW4 9663   3.443   0.954   2.149  0.7920 -0.3605  0.4027
 2405SOL     OW 9664   0.990   0.236   3.478  0.3954  0.4009 -0.3945
 2405SOL    HW2 9665   0.981   0.194   3.393 -0.8466 -1.8232  0.7977
 2405SOL    HW3 9666   0.924   0.306   3.477  0.2656  0.2711 -1.1787
 2405SOL    MW4 9667   0.980   0.240   3.467  0.2143  0.0903 -0.3407
 2406SOL     OW 9668   0.725   3.861   0.703  0.1986  0.4077  0.2132
 2406SOL    HW2 9669   0.651   3.804   0.724 -0.5210  2.0534  2.2768
 2406SOL    HW3 9670   0.712   3.882   0.610  0.2250 -2.3358 -0.4790
 2406SOL    MW4 9671   0.713   3.856   0.693  0.1071  0.2630  0.3942
 2407SOL     OW 9672   0.275   2.552   3.764  0.2616  0.1306  0.6355
 2407SOL    HW2 9673   0.227   2.607   3.826 -2.9838 -0.9160 -0.8088
 2407SOL    HW3 9674   0.257   2.592   3.678  1.3967 -0.7184 -0.0102
 2407SOL    MW4 9675   0.266   2.565   3.761 -0.0168 -0.1194  0.3595
 2408SOL     OW 9676   2.319   2.963   1.553  0.1537  0.5661  0.1820
 2408SOL    HW2 9677   2.225   2.959   1.570 -0.0389  2.2441 -0.3545
 2408SOL    HW3 9678   2.343   3.052   1.577  1.2051  0.7963 -1.6600
 2408SOL    MW4 9679   2.309   2.974   1.558  0.2668  0.8180 -0.1316
 2409SOL     OW 9680   1.892   0.167   1.171 -0.4244  0.5697  0.0322
 2409SOL    HW2 9681   1.903   0.082   1.215  0.0891  0.6832  0.1321
 2409SOL    HW3 9682   1.964   0.221   1.205 -0.8037  1.0726  0.0371
 2409SOL    MW4 9683   1.903   0.163   1.181 -0.4066  0.6510  0.0461
 2410SOL     OW 9684   4.174   3.258   2.437  0.1866  0.3525 -0.2958
 2410SOL    HW2 9685   4.147   3.260   2.529  2.6213  1.7355  0.4511
 2410SOL    HW3 9686   4.092   3.259   2.388 -1.1416  1.7178  1.8622
 2410SOL    MW4 9687   4.160   3.259   2.443  0.3319  0.7153  0.0873
 2411SOL     OW 9688   1.420   0.329   2.188  0.2008  0.2934 -0.1285
 2411SOL    HW2 9689   1.454   0.289   2.108  1.9084  0.1685  0.6331
 2411SOL    HW3 9690   1.406   0.256   2.248 -1.0413  0.3927 -0.2748
 2411SOL    MW4 9691   1.423   0.314   2.185  0.2621  0.2901 -0.0474
 2412SOL     OW 9692   2.052   2.938   1.678 -0.7005  0.4383 -0.1698
 2412SOL    HW2 9693   2.043   2.843   1.675 -1.9656  0.5734 -1.4940
 2412SOL    HW3 9694   1.972   2.971   1.638  0.5397  2.0214 -1.4521
 2412SOL    MW4 9695   2.040   2.930   1.672 -0.7036  0.6652 -0.5137
 2413SOL     OW 9696   4.273   0.892   1.047 -0.0168 -0.5802  0.0913
 2413SOL    HW2 9697   4.196   0.839   1.070  0.1137 -0.8010  0.0233
 2413SOL    HW3 9698   4.291   0.869   0.956  0.3314 -0.7808  0.2116
 2413SOL    MW4 9699   4.265   0.882   1.038  0.0467 -0.6357  0.0983
 2414SOL     OW 9700   2.179   0.697   1.238 -0.4992 -0.5741  0.0877
 2414SOL    HW2 9701   2.175   0.788   1.268 -1.0791 -0.8298  0.8054
 2414SOL    HW3 9702   2.103   0.686   1.182 -0.8568 -0.8352  0.6226
 2414SOL    MW4 9703   2.169   0.707   1.235 -0.6227 -0.6422  0.2530
 2415SOL     OW 9704   3.144   2.858   1.090 -0.4999 -0.1182 -0.6017
 2415SOL    HW2 9705   3.151   2.854   1.186 -0.8006 -0.6300 -0.5977
 2415SOL    HW3 9706   3.054   2.832   1.072 -0.3733 -0.2529 -1.0419
 2415SOL    MW4 9707   3.133   2.854   1.100 -0.5229 -0.2036 -0.6592
 2416SOL     OW 9708   0.325   3.912   1.002  0.0279  0.4324  0.0403
 2416SOL    HW2 9709   0.327   4.003   1.031  3.4452  0.1106  1.0789
 2416SOL    HW3 9710   0.298   3.863   1.079 -0.3895  0.4419 -0.1005
 2416SOL    MW4 9711   0.322   3.917   1.016  0.4237  0.3912  0.1587
 2417SOL     OW 9712   0.821   4.483   3.216 -0.1858 -0.6328  0.0566
 2417SOL    HW2 9713   0.857   4.571   3.226  0.6413 -0.9387 -0.1997
 2417SOL    HW3 9714   0.886   4.436   3.162 -0.2362 -1.6246  0.8405
 2417SOL    MW4 9715   0.835   4.488   3.210 -0.0834 -0.8044  0.1264
 2418SOL     OW 9716   2.959   0.517   2.788 -0.0112 -0.2678 -0.3683
 2418SOL    HW2 9717   2.865   0.534   2.778  0.5465  1.8957 -2.4096
 2418SOL    HW3 9718   2.977   0.444   2.729 -0.1652  0.1617 -0.9440
 2418SOL    MW4 9719   2.949   0.510   2.779  0.0422  0.0744 -0.7136
 2419SOL     OW 9720   2.725   1.621   1.299 -0.0365  0.6878  0.5912
 2419SOL    HW2 9721   2.738   1.531   1.330  0.3911  0.7090  0.4788
 2419SOL    HW3 9722   2.804   1.668   1.327  0.3115  0.7247 -0.4364
 2419SOL    MW4 9723   2.737   1.615   1.307  0.0658  0.6955  0.4408
 2420SOL     OW 9724   1.556   0.315   2.843 -0.0994  0.0366 -0.3149
 2420SOL    HW2 9725   1.557   0.299   2.749 -0.3609  0.7668 -0.4472
 2420SOL    HW3 9726   1.504   0.243   2.879  1.0670 -0.9542 -0.5774
 2420SOL    MW4 9727   1.549   0.303   2.836  0.0200  0.0022 -0.3669
 2421SOL     OW 9728   0.516   1.978   2.578  0.0037 -0.2135 -0.4008
 2421SOL    HW2 9729   0.431   1.935   2.580 -0.2877  0.3707 -0.1941
 2421SOL    HW3 9730   0.541   1.986   2.670 -0.2634  0.6974 -0.4103
 2421SOL    MW4 9731   0.508   1.973   2.591 -0.0700 -0.0162 -0.3748
 2422SOL     OW 9732   3.101   3.915   1.410  0.0450  0.7379  0.6594
 2422SOL    HW2 9733   3.193   3.930   1.430  0.3423  0.4584 -0.5047
 2422SOL    HW3 9734   3.070   3.858   1.481  1.7477 -2.3661 -1.0280
 2422SOL    MW4 9735   3.109   3.909   1.422  0.3090  0.2913  0.2834
 2423SOL     OW 9736   1.382   0.257   1.346  0.0164  0.3693 -0.2049
 2423SOL    HW2 9737   1.473   0.288   1.351  0.7158 -1.5999 -0.3298
 2423SOL    HW3 9738   1.353   0.253   1.437  0.3674  0.1183 -0.1021
 2423SOL    MW4 9739   1.390   0.261   1.358  0.1551  0.0763 -0.2077
 2424SOL     OW 9740   0.637   0.774   1.561 -0.3453  0.0491 -0.3681
 2424SOL    HW2 9741   0.648   0.706   1.628 -0.7862 -0.9056 -1.2620
 2424SOL    HW3 9742   0.685   0.850   1.596  3.8878 -2.0628 -1.3463
 2424SOL    MW4 9743   0.645   0.775   1.575  0.1551 -0.3555 -0.6150
 2425SOL     OW 9744   2.148   2.929   3.846 -0.0024  0.0988 -0.4066
 2425SOL    HW2 9745   2.058   2.948   3.872  0.2848 -0.1767  0.8377
 2425SOL    HW3 9746   2.140   2.877   3.766 -1.0584 -2.0735  1.0606
 2425SOL    MW4 9747   2.135   2.924   3.839 -0.1037 -0.2239 -0.0489
 2426SOL     OW 9748   2.072   1.867   0.879 -0.0174  0.2657  0.2954
 2426SOL    HW2 9749   2.060   1.778   0.914 -0.4747  1.2140  2.6135
 2426SOL    HW3 9750   1.986   1.892   0.847 -0.3272  0.5612  1.3352
 2426SOL    MW4 9751   2.059   1.858   0.880 -0.1187  0.4297  0.7385
 2427SOL     OW 9752   0.543   2.950   0.845  0.3554  0.6276  0.6730
 2427SOL    HW2 9753   0.476   2.881   0.838  1.5167 -0.7579  2.5858
 2427SOL    HW3 9754   0.520   3.013   0.777 -1.0600 -1.3968 -0.7836
 2427SOL    MW4 9755   0.531   2.949   0.835  0.3219  0.1779  0.7332
 2428SOL     OW 9756   4.074   0.469   1.731  0.0613  0.2510 -0.2563
 2428SOL    HW2 9757   4.119   0.552   1.739 -0.1220  0.4638 -1.3261
 2428SOL    HW3 9758   3.986   0.485   1.765  0.2118  0.3339  0.0913
 2428SOL    MW4 9759   4.068   0.482   1.737  0.0567  0.2900 -0.3517
 2429SOL     OW 9760   0.139   1.077   1.609 -0.2221 -0.3441  0.1950
 2429SOL    HW2 9761   0.228   1.041   1.612 -0.5658 -1.2067  0.2904
 2429SOL    HW3 9762   0.145   1.160   1.655  0.7338  0.0308 -0.5888
 2429SOL    MW4 9763   0.152   1.083   1.615 -0.1413 -0.4083  0.1043
 2430SOL     OW 9764   0.971   2.138   1.169 -0.4115  0.6107 -0.0632
 2430SOL    HW2 9765   1.027   2.120   1.244  0.0222  2.6585  0.1387
 2430SOL    HW3 9766   0.916   2.060   1.160  0.9939 -0.5259  1.0537
 2430SOL    MW4 9767   0.971   2.125   1.178 -0.1689  0.7310  0.1109
 2431SOL     OW 9768   0.828   1.131   0.357  0.2367 -0.0731 -0.6227
 2431SOL    HW2 9769   0.883   1.061   0.393  0.7418 -0.4177 -2.0322
 2431SOL    HW3 9770   0.874   1.212   0.381 -1.3942 -0.0674  2.7824
 2431SOL    MW4 9771   0.841   1.133   0.365  0.0882 -0.1179 -0.3594
 2432SOL     OW 9772   2.608   1.298   3.683 -0.3343  0.0744  0.0283
 2432SOL    HW2 9773   2.538   1.340   3.632 -1.4334 -1.1066  0.5295
 2432SOL    HW3 9774   2.689   1.327   3.641 -1.1905 -0.2611 -1.9208
 2432SOL    MW4 9775   2.609   1.307   3.671 -0.5922 -0.1256 -0.1628
 2433SOL     OW 9776   2.780   0.298   2.980 -0.2376  0.2137  0.2117
 2433SOL    HW2 9777   2.872   0.298   2.953 -0.8364  0.9020 -1.9963
 2433SOL    HW3 9778   2.758   0.390   2.989 -1.1961  0.1253 -1.1034
 2433SOL    MW4 9779   2.790   0.310   2.977 -0.4430  0.2929 -0.2530
 2434SOL     OW 9780   3.603   0.335   1.368 -0.0198 -0.1475  0.5218
 2434SOL    HW2 9781   3.616   0.367   1.457  0.7904  2.3209 -0.4213
 2434SOL    HW3 9782   3.523   0.378   1.339  0.0084 -0.5218 -0.1182
 2434SOL    MW4 9783   3.594   0.345   1.376  0.0908  0.1287  0.3130
 2435SOL     OW 9784   3.425   4.210   4.253  0.3590  0.2021  0.0387
 2435SOL    HW2 9785   3.337   4.213   4.216  0.1644 -0.1774  0.4667
 2435SOL    HW3 9786   3.469   4.140   4.205  0.3523  0.2369 -0.0170
 2435SOL    MW4 9787   3.419   4.201   4.242  0.3326  0.1564  0.0882
 2436SOL     OW 9788   0.045   0.747   1.396 -0.3558  0.0783 -0.2429
 2436SOL    HW2 9789   0.011   0.836   1.391 -2.1169 -0.5200  0.5339
 2436SOL    HW3 9790   0.026   0.719   1.486  1.0721 -0.7344 -0.1758
 2436SOL    MW4 9791   0.038   0.755   1.407 -0.3997 -0.1079 -0.1316
 2437SOL     OW 9792   3.761   1.650   0.839  0.7627 -0.0412 -0.4360
 2437SOL    HW2 9793   3.838   1.593   0.845  0.9546  0.3342  0.8903
 2437SOL    HW3 9794   3.721   1.629   0.755  1.6653 -1.0746 -0.6073
 2437SOL    MW4 9795   3.766   1.640   0.829  0.9072 -0.1280 -0.2836
 2438SOL     OW 9796   1.977   3.288   2.920 -0.7211 -0.4083 -0.5035
 2438SOL    HW2 9797   1.965   3.369   2.871 -0.8666 -1.2406 -1.8761
 2438SOL    HW3 9798   1.910   3.228   2.885  0.8433 -1.8384 -1.1356
 2438SOL    MW4 9799   1.966   3.291   2.909 -0.5341 -0.7067 -0.7679
 2439SOL     OW 9800   2.479   3.433   3.096  0.2669 -0.2053  0.3825
 2439SOL    HW2 9801   2.494   3.364   3.031 -1.4437 -0.1542 -0.0788
 2439SOL    HW3 9802   2.453   3.509   3.044 -0.2164  0.0938  1.0670
 2439SOL    MW4 9803   2.478   3.434   3.080 -0.0226 -0.1593  0.4120
 2440SOL     OW 9804   4.300   1.725   0.774  0.1155 -0.0402 -0.1477
 2440SOL    HW2 9805   4.272   1.766   0.693  0.2398  1.0586  0.3450
 2440SOL    HW3 9806   4.389   1.758   0.788  0.2800 -0.6151  0.1722
 2440SOL    MW4 9807   4.308   1.735   0.765  0.1535  0.0288 -0.0404
 2441SOL     OW 9808   1.824   4.430   3.184 -0.0432  0.1290 -0.7517
 2441SOL    HW2 9809   1.820   4.393   3.272 -1.7679 -0.7662 -1.1764
 2441SOL    HW3 9810   1.808   4.524   3.197 -0.1339  0.0285 -0.0851
 2441SOL    MW4 9811   1.821   4.438   3.197 -0.2828 -0.0024 -0.7198
 2442SOL     OW 9812   2.612   1.254   2.250  0.3897 -0.7010  0.1734
 2442SOL    HW2 9813   2.677   1.187   2.272  0.5472 -0.8009 -0.5614
 2442SOL    HW3 9814   2.600   1.245   2.155  0.7430  0.6021 -0.0042
 2442SOL    MW4 9815   2.619   1.244   2.240  0.4570 -0.5422  0.0532
 2443SOL     OW 9816   1.861   0.460   3.631 -0.0592 -0.1767 -0.6033
 2443SOL    HW2 9817   1.886   0.553   3.633 -0.4587 -0.0850  1.6162
 2443SOL    HW3 9818   1.765   0.461   3.632 -0.0629 -0.6157 -0.5432
 2443SOL    MW4 9819   1.852   0.472   3.631 -0.1123 -0.2225 -0.3026
 2444SOL     OW 9820   4.439   3.438   3.390  0.5064  0.3651 -0.3206
 2444SOL    HW2 9821   4.391   3.519   3.405  0.5783  0.3648 -0.0931
 2444SOL    HW3 9822   4.523   3.451   3.434  2.0475  1.6590 -3.4610
 2444SOL    MW4 9823   4.443   3.450   3.398  0.7195  0.5357 -0.7050
 2445SOL     OW 9824   1.233   4.164   0.629  0.5130 -0.2830 -0.3061
 2445SOL    HW2 9825   1.167   4.151   0.696 -1.0535 -0.2626 -1.8063
 2445SOL    HW3 9826   1.184   4.168   0.547  2.4762 -1.6423 -1.6127
 2445SOL    MW4 9827   1.218   4.163   0.627  0.5655 -0.4597 -0.6765
 2446SOL     OW 9828   2.813   1.042   2.640  0.3032 -0.0720  0.3033
 2446SOL    HW2 9829   2.739   0.982   2.639  0.7814 -0.6662 -2.1582
 2446SOL    HW3 9830   2.780   1.119   2.687 -1.1405 -1.1931  1.1833
 2446SOL    MW4 9831   2.799   1.044   2.646  0.1755 -0.2984  0.0947
 2447SOL     OW 9832   0.595   1.040   2.622  0.1178  0.0648  0.0504
 2447SOL    HW2 9833   0.575   0.980   2.551  0.5541 -0.4596  0.3672
 2447SOL    HW3 9834   0.549   1.121   2.599 -2.9261 -1.3200  1.0861
 2447SOL    MW4 9835   0.586   1.043   2.610 -0.2263 -0.1870  0.2289
 2448SOL     OW 9836   1.028   0.047   2.790 -0.1899  0.2145  0.4605
 2448SOL    HW2 9837   0.946  -0.002   2.801 -0.1724 -0.4620 -2.1175
 2448SOL    HW3 9838   1.014   0.098   2.711  1.2685  1.4191  0.9614
 2448SOL    MW4 9839   1.015   0.047   2.781  0.0049  0.2842  0.1864
 2449SOL     OW 9840   1.478   3.737   3.013 -0.1560  0.2356 -0.0290
 2449SOL    HW2 9841   1.470   3.722   2.919 -0.0417 -0.2474  0.0376
 2449SOL    HW3 9842   1.429   3.818   3.029 -1.1868 -0.3329 -0.3128
 2449SOL    MW4 9843   1.471   3.746   3.003 -0.2769  0.0970 -0.0577
 2450SOL     OW 9844   2.492   0.577   0.315 -0.0718 -0.0706  0.0510
 2450SOL    HW2 9845   2.398   0.596   0.308 -0.1719  0.0646  1.6792
 2450SOL    HW3 9846   2.496   0.491   0.356  0.5182  0.2426  0.6612
 2450SOL    MW4 9847   2.480   0.568   0.319 -0.0069 -0.0114  0.3464
 2451SOL     OW 9848   2.417   0.234   4.123 -0.5622 -0.7253 -0.2462
 2451SOL    HW2 9849   2.391   0.262   4.035  0.6348 -0.7891 -0.6366
 2451SOL    HW3 9850   2.434   0.140   4.114  3.0121 -0.0831 -0.8240
 2451SOL    MW4 9851   2.416   0.225   4.110  0.0672 -0.6490 -0.3738
 2452SOL     OW 9852   1.571   1.851   4.186  0.9473 -0.0962  0.3517
 2452SOL    HW2 9853   1.664   1.845   4.165  0.6945 -0.8509 -0.5585
 2452SOL    HW3 9854   1.545   1.939   4.160  1.0355 -0.4392 -0.8926
 2452SOL    MW4 9855   1.579   1.862   4.180  0.9255 -0.2410  0.0668
 2453SOL     OW 9856   0.724   3.458   1.538  0.1306 -0.4457  0.1725
 2453SOL    HW2 9857   0.814   3.470   1.569 -0.2391 -0.7964  1.4102
 2453SOL    HW3 9858   0.733   3.441   1.444  1.2951  0.2742  0.1417
 2453SOL    MW4 9859   0.737   3.457   1.529  0.2354 -0.3967  0.3318
 2454SOL     OW 9860   0.694   2.089   2.383  0.3170  0.1895 -0.3298
 2454SOL    HW2 9861   0.620   2.057   2.434  1.0327 -0.3613  0.3658
 2454SOL    HW3 9862   0.772   2.055   2.428  1.0460  1.8260 -0.3107
 2454SOL    MW4 9863   0.695   2.080   2.396  0.5076  0.3326 -0.2353
 2455SOL     OW 9864   3.360   3.305   0.454  0.1071 -0.1013  0.7730
 2455SOL    HW2 9865   3.272   3.339   0.472  0.0959 -0.8480  2.2423
 2455SOL    HW3 9866   3.399   3.292   0.540  1.3694 -0.5565  0.1542
 2455SOL    MW4 9867   3.354   3.308   0.468  0.2723 -0.2601  0.8852
 2456SOL     OW 9868   3.297   1.190   3.218  0.5575 -0.5590  0.7377
 2456SOL    HW2 9869   3.357   1.256   3.252  1.3546 -1.8115  1.8141
 2456SOL    HW3 9870   3.347   1.145   3.149 -0.0132  0.0140 -0.0535
 2456SOL    MW4 9871   3.312   1.193   3.213  0.5872 -0.6489  0.7753
 2457SOL     OW 9872   2.271   4.437   0.700  0.2304 -0.2244 -0.5536
 2457SOL    HW2 9873   2.238   4.481   0.778 -2.5349  0.0609 -1.8212
 2457SOL    HW3 9874   2.338   4.497   0.665  0.3213  0.4110  0.7024
 2457SOL    MW4 9875   2.275   4.451   0.705 -0.1223 -0.1025 -0.5551
 2458SOL     OW 9876   2.903   4.401   3.493 -0.1751 -0.0570  0.0657
 2458SOL    HW2 9877   2.894   4.496   3.505  0.5968  0.1690 -1.1028
 2458SOL    HW3 9878   2.814   4.368   3.504 -0.7364  0.9983 -1.1027
 2458SOL    MW4 9879   2.890   4.409   3.496 -0.1473  0.1116 -0.2427
 2459SOL     OW 9880   1.036   4.142   2.603  0.4238 -0.2656  0.4996
 2459SOL    HW2 9881   1.113   4.089   2.625  0.6562 -0.0866  0.1221
 2459SOL    HW3 9882   1.015   4.187   2.684  1.3941  0.5348  0.3204
 2459SOL    MW4 9883   1.044   4.141   2.616  0.5825 -0.1364  0.4261
 2460SOL     OW 9884   3.127   4.222   2.457 -0.0076 -0.2725 -0.1515
 2460SOL    HW2 9885   3.163   4.143   2.415 -0.8693 -1.4400  1.2768
 2460SOL    HW3 9886   3.061   4.253   2.396  0.3844 -0.6093 -0.7602
 2460SOL    MW4 9887   3.123   4.216   2.443 -0.0696 -0.4711 -0.0432
 2461SOL     OW 9888   2.877   0.993   0.249  0.0076  0.4234 -0.0239
 2461SOL    HW2 9889   2.951   1.031   0.201 -1.1398  0.9938 -1.4061
 2461SOL    HW3 9890   2.837   1.068   0.293 -0.1782  0.2303  0.1348
 2461SOL    MW4 9891   2.882   1.008   0.248 -0.1686  0.4731 -0.1853
 2462SOL     OW 9892   2.241   2.711   0.744  0.0009  0.4590 -0.2222
 2462SOL    HW2 9893   2.321   2.672   0.779  0.2872  0.7641 -0.5406
 2462SOL    HW3 9894   2.193   2.637   0.705 -0.2057  0.1579  0.5910
 2462SOL    MW4 9895   2.245   2.696   0.744  0.0117  0.4594 -0.1570
 2463SOL     OW 9896   3.654   0.986   0.923  0.0338 -0.2903 -0.0335
 2463SOL    HW2 9897   3.748   0.969   0.926  0.2419  0.9112  0.8660
 2463SOL    HW3 9898   3.633   1.016   1.011 -0.9641  0.5971 -0.5675
 2463SOL    MW4 9899   3.664   0.988   0.935 -0.0703 -0.0147  0.0147
 2464SOL     OW 9900   2.424   1.943   1.159  0.1846 -0.1954 -0.3315
 2464SOL    HW2 9901   2.492   2.006   1.136  1.1959 -1.2259 -0.2229
 2464SOL    HW3 9902   2.360   1.948   1.087 -0.3806  1.8172  0.2849
 2464SOL    MW4 9903   2.424   1.952   1.146  0.2434 -0.0659 -0.2358
 2465SOL     OW 9904   3.809   2.976   2.197  0.1140  0.2025  0.4777
 2465SOL    HW2 9905   3.901   2.976   2.224  0.0520 -0.3588  0.7142
 2465SOL    HW3 9906   3.807   3.028   2.117  0.9419 -1.2512 -0.5095
 2465SOL    MW4 9907   3.821   2.983   2.190  0.2151 -0.0634  0.3786
 2466SOL     OW 9908   0.471   1.133   2.173 -0.1305 -0.0805  0.1121
 2466SOL    HW2 9909   0.457   1.116   2.080  0.0748 -0.6079  0.1739
 2466SOL    HW3 9910   0.564   1.115   2.187  0.1417  1.2929  0.1487
 2466SOL    MW4 9911   0.481   1.128   2.163 -0.0674  0.0312  0.1252
 2467SOL     OW 9912   0.847   3.329   3.178  0.3260 -0.1364 -0.3899
 2467SOL    HW2 9913   0.877   3.363   3.263  0.1071  1.1315 -0.8031
 2467SOL    HW3 9914   0.865   3.235   3.182 -0.4208 -0.2430  1.3891
 2467SOL    MW4 9915   0.853   3.321   3.190  0.1987  0.0167 -0.2096
 2468SOL     OW 9916   3.692   2.054   0.883 -0.3770  0.0436  0.2205
 2468SOL    HW2 9917   3.768   2.025   0.832 -0.3047  0.6914 -0.0334
 2468SOL    HW3 9918   3.712   2.026   0.973  0.4612  0.8013  0.2741
 2468SOL    MW4 9919   3.705   2.046   0.888 -0.2570  0.2289  0.1940
 2469SOL     OW 9920   3.628   4.075   1.566 -0.0752  0.0701  0.3222
 2469SOL    HW2 9921   3.705   4.020   1.557 -0.7902 -1.0130  0.7163
 2469SOL    HW3 9922   3.626   4.098   1.659 -0.4488 -0.2150  0.3822
 2469SOL    MW4 9923   3.638   4.071   1.577 -0.2189 -0.1106  0.3823
 2470SOL     OW 9924   0.535   0.660   4.216 -0.1364  0.7543 -0.3910
 2470SOL    HW2 9925   0.555   0.660   4.122 -1.7731  1.0292 -0.7480
 2470SOL    HW3 9926   0.445   0.691   4.222  0.0483  1.0296  1.3067
 2470SOL    MW4 9927   0.526   0.664   4.204 -0.3279  0.8268 -0.2136
 2471SOL     OW 9928   1.689   2.103   3.562  0.3430 -0.2223 -0.0826
 2471SOL    HW2 9929   1.622   2.090   3.495  1.0859  2.1267 -1.3593
 2471SOL    HW3 9930   1.695   2.198   3.571  3.0281 -0.4015  0.4608
 2471SOL    MW4 9931   1.681   2.114   3.554  0.7954  0.0641 -0.1793
 2472SOL     OW 9932   2.794   3.825   1.226 -0.2586  0.1440 -0.4708
 2472SOL    HW2 9933   2.747   3.805   1.307 -2.7413  1.1965 -1.5890
 2472SOL    HW3 9934   2.787   3.745   1.174  0.2777 -0.1215 -0.1354
 2472SOL    MW4 9935   2.787   3.811   1.230 -0.5157  0.2477 -0.5741
 2473SOL     OW 9936   0.425   1.803   3.389  0.2097 -0.3614  0.2005
 2473SOL    HW2 9937   0.359   1.871   3.403 -0.3008 -0.5592 -1.1532
 2473SOL    HW3 9938   0.503   1.836   3.433 -0.7424 -0.0661  1.7156
 2473SOL    MW4 9939   0.427   1.816   3.397  0.0167 -0.3486  0.2215
 2474SOL     OW 9940   2.380   3.229   1.613  0.1161 -0.4793  0.3579
 2474SOL    HW2 9941   2.407   3.281   1.537  0.2122 -0.6673  0.2638
 2474SOL    HW3 9942   2.441   3.256   1.683 -1.3613  1.3243  0.9977
 2474SOL    MW4 9943   2.392   3.239   1.612 -0.0663 -0.2663  0.4300
 2475SOL     OW 9944   0.054   1.292   3.508 -0.2866 -0.3224  0.2009
 2475SOL    HW2 9945   0.048   1.342   3.589 -0.5912 -1.3010  0.7932
 2475SOL    HW3 9946   0.110   1.217   3.530 -3.5474 -2.7403  0.6555
 2475SOL    MW4 9947   0.061   1.289   3.522 -0.7570 -0.7706  0.3390
 2476SOL     OW 9948   0.336   4.386   3.714  0.0023 -0.1171  0.0926
 2476SOL    HW2 9949   0.361   4.304   3.756  1.9044 -1.0688 -2.7387
 2476SOL    HW3 9950   0.257   4.364   3.663  0.2552 -0.0755 -0.3169
 2476SOL    MW4 9951   0.329   4.373   3.713  0.2866 -0.2375 -0.3350
 2477SOL     OW 9952   0.589   0.084   0.568 -0.5466 -0.2671  0.2777
 2477SOL    HW2 9953   0.501   0.052   0.550 -0.5882 -0.5470  0.9396
 2477SOL    HW3 9954   0.576   0.156   0.630 -0.4476  0.9863 -1.1447
 2477SOL    MW4 9955   0.576   0.089   0.574 -0.5390 -0.1386  0.1774
 2478SOL     OW 9956   1.252   0.381   3.092  0.9508 -0.3795  0.0865
 2478SOL    HW2 9957   1.313   0.363   3.164  0.5996 -1.3154  0.1617
 2478SOL    HW3 9958   1.300   0.438   3.033  0.7385  1.6817  1.8202
 2478SOL    MW4 9959   1.266   0.386   3.094  0.8765 -0.2310  0.3254
 2479SOL     OW 9960   3.365   2.087   1.543  0.1265  0.8243  0.3207
 2479SOL    HW2 9961   3.292   2.102   1.603 -0.8602 -0.3775 -0.5647
 2479SOL    HW3 9962   3.404   2.005   1.574 -0.2457  0.3198 -0.5198
 2479SOL    MW4 9963   3.361   2.078   1.555 -0.0527  0.5991  0.0931
 2480SOL     OW 9964   4.148   3.806   1.295  0.2804 -0.1539  0.0244
 2480SOL    HW2 9965   4.197   3.758   1.228  1.1637 -1.7107  1.7543
 2480SOL    HW3 9966   4.059   3.770   1.291  0.2577 -0.0470 -0.4766
 2480SOL    MW4 9967   4.142   3.795   1.285  0.3939 -0.3452  0.1864
 2481SOL     OW 9968   3.934   3.107   3.725  0.3410 -0.2750  0.4742
 2481SOL    HW2 9969   4.018   3.142   3.754 -0.4040  2.4432 -0.5372
 2481SOL    HW3 9970   3.874   3.125   3.797 -0.5652  2.7318 -0.9640
 2481SOL    MW4 9971   3.938   3.114   3.738  0.1235  0.4804  0.1509
 2482SOL     OW 9972   2.923   1.567   3.092 -0.1086  0.1296  0.5432
 2482SOL    HW2 9973   2.845   1.522   3.057 -0.8259  0.1163  2.1254
 2482SOL    HW3 9974   2.923   1.546   3.185  1.6835  0.3291  0.5998
 2482SOL    MW4 9975   2.912   1.558   3.100  0.0334  0.1541  0.7596
 2483SOL     OW 9976   2.288   3.863   0.841  0.0747 -0.2631 -0.5092
 2483SOL    HW2 9977   2.273   3.933   0.905  0.2514 -0.6111 -0.0860
 2483SOL    HW3 9978   2.383   3.858   0.834  0.0494 -0.0794 -0.9607
 2483SOL    MW4 9979   2.298   3.872   0.849  0.0947 -0.2849 -0.5130
 2484SOL     OW 9980   4.306   1.113   3.811 -0.0375 -0.3370 -0.1092
 2484SOL    HW2 9981   4.324   1.120   3.718  0.2843 -0.2181 -0.0400
 2484SOL    HW3 9982   4.297   1.204   3.840 -1.0984 -0.4048 -0.2092
 2484SOL    MW4 9983   4.307   1.126   3.803 -0.1349 -0.3302 -0.1132
 2485SOL     OW 9984   1.335   2.247   1.876 -0.3589  0.1859  0.0750
 2485SOL    HW2 9985   1.398   2.296   1.929  0.3229  0.0298 -0.5783
 2485SOL    HW3 9986   1.300   2.311   1.814  1.2144 -0.3269 -1.3923
 2485SOL    MW4 9987   1.339   2.262   1.875 -0.0614  0.0975 -0.2048
 2486SOL     OW 9988   3.738   3.181   3.882  0.0154  0.0008 -0.4321
 2486SOL    HW2 9989   3.653   3.149   3.852 -0.5296  1.5177 -0.5478
 2486SOL    HW3 9990   3.729   3.187   3.977  0.6198 -1.5788 -0.2558
 2486SOL    MW4 9991   3.726   3.178   3.890  0.0236 -0.0076 -0.4239
 2487SOL     OW 9992   1.776   2.691   0.858  0.4876  0.4453  0.8080
 2487SOL    HW2 9993   1.859   2.703   0.905  1.1484 -0.2349 -0.1697
 2487SOL    HW3 9994   1.762   2.596   0.860  0.4040  0.4312 -0.1565
 2487SOL    MW4 9995   1.785   2.680   0.865  0.5637  0.3536  0.5518
 2488SOL     OW 9996   2.839   2.486   0.918 -0.2265 -0.0013 -0.0167
 2488SOL    HW2 9997   2.758   2.441   0.892 -0.8551  0.9333  0.3259
 2488SOL    HW3 9998   2.909   2.428   0.886 -0.9991  0.3612 -2.4452
 2488SOL    MW4 9999   2.837   2.472   0.910 -0.4113  0.1700 -0.2918
 2489SOL     OW10000   4.103   2.285   3.435  0.1564  0.3653 -0.0268
 2489SOL    HW210001   4.090   2.270   3.341 -1.5070  1.4005  0.0236
 2489SOL    HW310002   4.186   2.333   3.440  1.0093 -1.0029 -0.8485
 2489SOL    MW410003   4.112   2.290   3.423  0.0496  0.3214 -0.1285
 2490SOL     OW10004   1.377   2.743   3.433  0.3837 -0.3845 -0.1179
 2490SOL    HW210005   1.441   2.793   3.382 -0.5269  0.8398 -0.0738
 2490SOL    HW310006   1.369   2.660   3.385  1.9792 -0.5483 -0.1297
 2490SOL    MW410007   1.385   2.738   3.420  0.4741 -0.2441 -0.1137
 2491SOL     OW10008   3.871   1.028   3.687  0.2438  0.3889  0.1371
 2491SOL    HW210009   3.951   1.061   3.645 -0.2241  0.1454 -0.9607
 2491SOL    HW310010   3.831   0.972   3.621 -0.5798  0.1073  0.8709
 2491SOL    MW410011   3.876   1.025   3.673  0.0732  0.3195  0.0892
 2492SOL     OW10012   2.407   0.396   1.869 -0.1811 -0.1359 -0.3801
 2492SOL    HW210013   2.390   0.371   1.960  0.7789  2.6627  0.6179
 2492SOL    HW310014   2.501   0.384   1.858 -0.5750 -2.3386 -1.6501
 2492SOL    MW410015   2.417   0.391   1.880 -0.1063 -0.0573 -0.4159
 2493SOL     OW10016   2.128   3.399   2.154  0.2017  0.4441  0.4515
 2493SOL    HW210017   2.153   3.467   2.091 -1.7394  0.4148 -0.3994
 2493SOL    HW310018   2.202   3.393   2.213  0.3536  3.4605  0.6814
 2493SOL    MW410019   2.141   3.407   2.154 -0.0346  0.8380  0.3695
 2494SOL     OW10020   0.842   3.865   2.452  0.1129  0.1553  0.0661
 2494SOL    HW210021   0.803   3.920   2.520  0.9124 -0.2080  0.8194
 2494SOL    HW310022   0.860   3.926   2.380  0.7535  0.8333  0.7959
 2494SOL    MW410023   0.839   3.881   2.451  0.3029  0.1967  0.2618
 2495SOL     OW10024   1.381   1.281   1.968  0.0987 -0.0597 -0.2365
 2495SOL    HW210025   1.292   1.260   1.940  0.8004 -3.1502 -0.3230
 2495SOL    HW310026   1.372   1.306   2.060 -0.8101 -0.9127 -0.0828
 2495SOL    MW410027   1.368   1.281   1.976  0.0713 -0.5801 -0.2275
 2496SOL     OW10028   3.752   2.777   3.164  0.1151 -0.2362  0.0779
 2496SOL    HW210029   3.731   2.860   3.122  0.5216 -0.2552 -0.1677
 2496SOL    HW310030   3.743   2.712   3.094  2.5864 -0.0423 -0.4444
 2496SOL    MW410031   3.748   2.779   3.149  0.4947 -0.2131 -0.0236
 2497SOL     OW10032   2.640   1.671   3.426  0.0135  0.1928  0.2552
 2497SOL    HW210033   2.545   1.686   3.420 -0.1805 -1.1129 -0.1009
 2497SOL    HW310034   2.653   1.585   3.386  1.4345  0.6224 -0.2393
 2497SOL    MW410035   2.629   1.662   3.420  0.1755  0.0774  0.1428
 2498SOL     OW10036   1.783   3.827   0.477 -0.6375 -0.3433 -0.1127
 2498SOL    HW210037   1.875   3.813   0.456 -0.9945  0.7537 -2.5705
 2498SOL    HW310038   1.785   3.867   0.564  1.3394  1.3475 -0.8717
 2498SOL    MW410039   1.796   3.830   0.486 -0.4238  0.0246 -0.5372
 2499SOL     OW10040   0.515   0.834   1.996 -0.4554  0.1160  0.2315
 2499SOL    HW210041   0.608   0.844   1.977 -0.0354  0.5758  2.4056
 2499SOL    HW310042   0.484   0.770   1.931  1.1941  0.5233 -0.9826
 2499SOL    MW410043   0.523   0.827   1.985 -0.1823  0.2304  0.3582
 2500SOL     OW10044   0.564   1.724   3.025  0.0263 -0.1458  0.6391
 2500SOL    HW210045   0.488   1.702   3.079 -0.4248 -0.9077 -0.2852
 2500SOL    HW310046   0.602   1.640   3.001 -0.0168  0.1598 -0.5381
 2500SOL    MW410047   0.559   1.710   3.029 -0.0389 -0.2060  0.3619
 2501SOL     OW10048   3.353   2.313   3.680 -0.0305 -0.2555  0.1806
 2501SOL    HW210049   3.409   2.247   3.723 -0.6001 -0.9434 -0.1345
 2501SOL    HW310050   3.393   2.325   3.594  0.4190  0.2504  0.4565
 2501SOL    MW410051   3.366   2.306   3.674 -0.0463 -0.2794  0.1755
 2502SOL     OW10052   4.328   0.787   0.791 -0.2315 -0.2901  0.2883
 2502SOL    HW210053   4.246   0.790   0.741  0.1108  1.2727 -0.1978
 2502SOL    HW310054   4.329   0.699   0.830 -1.4553 -0.8300 -0.8505
 2502SOL    MW410055   4.318   0.776   0.789 -0.3481 -0.1551  0.0739
 2503SOL     OW10056   1.633   2.039   1.344  0.2420 -0.2995 -0.3864
 2503SOL    HW210057   1.676   2.032   1.429  0.7166 -0.8272 -0.6658
 2503SOL    HW310058   1.595   2.127   1.343  2.6710  0.7711 -0.7806
 2503SOL    MW410059   1.634   2.050   1.355  0.6250 -0.2279 -0.4753
 2504SOL     OW10060   2.607   4.581   0.263  0.0458 -0.2744  0.2033
 2504SOL    HW210061   2.580   4.498   0.224  0.6196  0.3649 -1.6203
 2504SOL    HW310062   2.528   4.615   0.305 -0.2196 -1.6762  0.8442
 2504SOL    MW410063   2.593   4.575   0.264  0.0865 -0.3753  0.0472
 2505SOL     OW10064   0.317   0.493   2.558 -0.2651  0.0612 -0.1176
 2505SOL    HW210065   0.334   0.485   2.464  0.2690  0.9098 -0.0933
 2505SOL    HW310066   0.339   0.407   2.593 -1.5874 -0.6247 -0.9354
 2505SOL    MW410067   0.322   0.480   2.550 -0.3691  0.0827 -0.2224
 2506SOL     OW10068   0.730   2.488   0.974 -0.1574  0.3591  0.2379
 2506SOL    HW210069   0.730   2.570   0.925  2.0153  0.2084 -0.0867
 2506SOL    HW310070   0.779   2.508   1.054 -1.4106 -0.0822  1.1224
 2506SOL    MW410071   0.737   2.502   0.978 -0.0361  0.2811  0.3117
 2507SOL     OW10072   2.254   0.978   3.561  0.0999  0.3867 -0.0369
 2507SOL    HW210073   2.347   1.003   3.554  0.0929  0.4629  0.1126
 2507SOL    HW310074   2.213   1.054   3.603  0.0267  0.2303  0.1762
 2507SOL    MW410075   2.261   0.992   3.566  0.0896  0.3760  0.0110
 2508SOL     OW10076   0.591   4.482   4.101 -0.0360  0.2652  0.2552
 2508SOL    HW210077   0.582   4.575   4.119 -1.0660 -0.1106  1.7487
 2508SOL    HW310078   0.502   4.449   4.100  0.2953 -0.6070 -0.8222
 2508SOL    MW410079   0.578   4.490   4.103 -0.1281  0.1006  0.3099
 2509SOL     OW10080   0.399   1.394   0.783  0.1959  0.7393  0.2801
 2509SOL    HW210081   0.407   1.485   0.754  1.4317  0.3437 -0.6761
 2509SOL    HW310082   0.448   1.344   0.718 -0.5516 -0.6270  0.7552
 2509SOL    MW410083   0.407   1.400   0.771  0.2604  0.5069  0.2166
 2510SOL     OW10084   3.476   1.843   1.617  0.2031 -0.1746 -0.3257
 2510SOL    HW210085   3.416   1.808   1.551 -1.5829 -0.3795  1.3631
 2510SOL    HW310086   3.480   1.775   1.685  0.4261  0.8764  0.7427
 2510SOL    MW410087   3.469   1.829   1.618 -0.0031 -0.0631  0.0381
 2511SOL     OW10088   1.181   4.451   3.918  0.4206 -0.0242  0.6555
 2511SOL    HW210089   1.151   4.360   3.923  0.8444 -0.1651  0.7142
 2511SOL    HW310090   1.103   4.501   3.894  0.2048 -0.4168  0.5263
 2511SOL    MW410091   1.167   4.446   3.915  0.4480 -0.0944  0.6466
 2512SOL     OW10092   4.110   2.290   3.122 -0.1908  0.1748  0.1722
 2512SOL    HW210093   4.130   2.217   3.063  1.2124  0.4603  0.2715
 2512SOL    HW310094   4.091   2.364   3.065 -0.0975  0.1195  0.0696
 2512SOL    MW410095   4.110   2.290   3.107  0.0062  0.2050  0.1719
 2513SOL     OW10096   0.710   3.848   2.860 -0.2798  0.2091 -0.9708
 2513SOL    HW210097   0.727   3.762   2.820 -0.1803 -0.5236  0.6050
 2513SOL    HW310098   0.745   3.911   2.797  2.5167 -1.0241 -0.7410
 2513SOL    MW410099   0.717   3.845   2.847  0.1023 -0.0505 -0.7327
 2514SOL     OW10100   3.227   2.202   0.259 -0.4460  0.1229  0.6195
 2514SOL    HW210101   3.211   2.258   0.334 -0.7927  0.4842  0.2773
 2514SOL    HW310102   3.160   2.133   0.266 -1.0302  0.6442  0.1624
 2514SOL    MW410103   3.216   2.200   0.270 -0.5689  0.2394  0.5141
 2515SOL     OW10104   3.634   3.217   1.425  0.1200 -0.5911 -0.1382
 2515SOL    HW210105   3.642   3.309   1.400  0.7926 -0.7324 -0.4643
 2515SOL    HW310106   3.638   3.170   1.342  1.0311 -0.9870  0.1314
 2515SOL    MW410107   3.636   3.223   1.411  0.3288 -0.6616 -0.1456
 2516SOL     OW10108   2.862   2.433   1.186  0.6377 -0.0920 -0.3598
 2516SOL    HW210109   2.929   2.365   1.188  0.1528 -0.6834 -2.7479
 2516SOL    HW310110   2.855   2.457   1.093 -1.6862  0.7428  0.0044
 2516SOL    MW410111   2.870   2.427   1.174  0.2670 -0.0598 -0.6269
 2517SOL     OW10112   2.739   3.492   2.831  0.2334 -0.2228 -0.9525
 2517SOL    HW210113   2.734   3.546   2.910 -0.2467 -0.3423 -0.9021
 2517SOL    HW310114   2.687   3.415   2.852  2.0970 -1.3909 -0.4886
 2517SOL    MW410115   2.731   3.489   2.844  0.4160 -0.3927 -0.8848
 2518SOL     OW10116   3.753   3.725   1.026  0.2600  0.3349 -0.3125
 2518SOL    HW210117   3.787   3.736   1.115  0.4766 -0.7971 -0.2534
 2518SOL    HW310118   3.684   3.791   1.018 -0.2161 -0.0099  0.9246
 2518SOL    MW410119   3.749   3.735   1.036  0.2258  0.1402 -0.1414
 2519SOL     OW10120   3.905   3.146   4.204  0.3746  0.3087 -0.2197
 2519SOL    HW210121   3.915   3.069   4.148 -0.6628 -1.1595  1.5719
 2519SOL    HW310122   3.991   3.188   4.200  0.9068 -0.8212 -1.3836
 2519SOL    MW410123   3.918   3.141   4.196  0.3078 -0.0341 -0.1364
 2520SOL     OW10124   0.205   1.085   0.715  0.2356 -0.3654  0.5287
 2520SOL    HW210125   0.221   1.126   0.800  0.7068  0.1370  0.2045
 2520SOL    HW310126   0.115   1.052   0.720 -0.5222  1.6376  0.4200
 2520SOL    MW410127   0.195   1.086   0.727  0.1978 -0.0348  0.4717
 2521SOL     OW10128   1.992   2.273   3.220 -0.4457 -0.0665  0.4295
 2521SOL    HW210129   2.054   2.307   3.156 -0.0692  0.7539  1.2248
 2521SOL    HW310130   2.038   2.199   3.261  0.0440  0.5928  1.0764
 2521SOL    MW410131   2.006   2.268   3.217 -0.3316  0.1287  0.6199
 2522SOL     OW10132   3.542   3.867   2.716  0.1530  0.3347 -0.3399
 2522SOL    HW210133   3.483   3.854   2.642 -1.0585  1.2634  0.4386
 2522SOL    HW310134   3.611   3.802   2.703 -0.2814  0.1697 -2.0259
 2522SOL    MW410135   3.543   3.857   2.704 -0.0641  0.4351 -0.4594
 2523SOL     OW10136   1.828   1.784   2.021  1.1633 -0.6544  0.4596
 2523SOL    HW210137   1.786   1.865   2.051  1.9657  0.4716 -1.3884
 2523SOL    HW310138   1.913   1.784   2.064  2.0573  0.6367 -1.2657
 2523SOL    MW410139   1.834   1.795   2.031  1.3872 -0.3356 -0.0119
 2524SOL     OW10140   3.837   1.852   1.632 -0.5357 -0.6450  0.1534
 2524SOL    HW210141   3.791   1.848   1.716 -0.1542 -0.0088  0.3916
 2524SOL    HW310142   3.928   1.831   1.652 -0.7372 -2.1511 -0.3591
 2524SOL    MW410143   3.843   1.848   1.645 -0.5119 -0.7597  0.1173
 2525SOL     OW10144   2.180   0.939   0.774 -0.6724 -0.2858 -0.1381
 2525SOL    HW210145   2.168   0.903   0.686 -0.5278 -1.2393  0.2265
 2525SOL    HW310146   2.270   0.916   0.798 -1.0888 -1.0733  0.7225
 2525SOL    MW410147   2.190   0.931   0.766 -0.7083 -0.5155  0.0236
 2526SOL     OW10148   0.190   3.167   1.456 -0.0333  0.1644 -0.3796
 2526SOL    HW210149   0.149   3.101   1.401 -1.0345 -1.0688  1.7729
 2526SOL    HW310150   0.251   3.117   1.511  0.6590  1.3010 -0.1072
 2526SOL    MW410151   0.193   3.152   1.456 -0.0741  0.1516 -0.0597
 2527SOL     OW10152   4.061   0.251   2.941  0.4947 -0.4233 -0.2491
 2527SOL    HW210153   3.989   0.201   2.901 -0.1791 -0.7185  1.2626
 2527SOL    HW310154   4.110   0.185   2.990  1.5780 -0.1499 -0.9594
 2527SOL    MW410155   4.058   0.235   2.942  0.5484 -0.4262 -0.1433
 2528SOL     OW10156   4.120   4.452   3.211  0.2749 -0.2231 -0.1776
 2528SOL    HW210157   4.124   4.547   3.198 -1.5344 -0.0734  0.2388
 2528SOL    HW310158   4.076   4.419   3.133 -0.3989 -0.5603  0.3424
 2528SOL    MW410159   4.115   4.460   3.199 -0.0534 -0.2480 -0.0544
 2529SOL     OW10160   0.884   1.072   2.611  0.3016  0.0605 -0.0118
 2529SOL    HW210161   0.926   1.057   2.695 -1.7567 -1.6234  0.7713
 2529SOL    HW310162   0.790   1.063   2.629 -0.2089  0.3098 -2.3558
 2529SOL    MW410163   0.877   1.069   2.624 -0.0373 -0.1286 -0.2179
 2530SOL     OW10164   1.472   2.702   0.007 -0.6124  0.3902  0.1899
 2530SOL    HW210165   1.536   2.755   0.055  0.1124  0.0100 -0.3307
 2530SOL    HW310166   1.508   2.613   0.011 -1.2507  0.1291  0.1186
 2530SOL    MW410167   1.485   2.697   0.014 -0.6009  0.3059  0.1118
 2531SOL     OW10168   1.798   0.223   2.955 -0.2096 -0.3064  0.3016
 2531SOL    HW210169   1.828   0.174   2.879  0.8697 -0.9644  1.1446
 2531SOL    HW310170   1.710   0.253   2.931 -0.2109 -1.2180 -0.8660
 2531SOL    MW410171   1.790   0.221   2.942 -0.0672 -0.5135  0.2587
 2532SOL     OW10172   1.608   0.257   3.992  0.2494  0.4136 -0.3089
 2532SOL    HW210173   1.515   0.238   4.001  0.2160  1.0379  0.7817
 2532SOL    HW310174   1.635   0.210   3.913 -0.6189 -1.1374  0.2955
 2532SOL    MW410175   1.600   0.248   3.983  0.1304  0.2913 -0.0851
 2533SOL     OW10176   0.920   2.595   2.275  0.1265 -0.0477 -0.6444
 2533SOL    HW210177   0.975   2.556   2.342 -0.8167 -0.3261 -0.0188
 2533SOL    HW310178   0.918   2.530   2.205  0.4117 -0.1331 -0.5753
 2533SOL    MW410179   0.927   2.581   2.275  0.0397 -0.0958 -0.5527
 2534SOL     OW10180   0.908   1.349   3.975  0.0637  0.4647 -0.4661
 2534SOL    HW210181   0.822   1.341   3.933  0.2962 -0.1504 -0.8395
 2534SOL    HW310182   0.918   1.268   4.025  0.1361  0.8368  0.1261
 2534SOL    MW410183   0.898   1.337   3.976  0.1039  0.4325 -0.4373
 2535SOL     OW10184   4.383   2.224   2.440  0.1655  0.0147 -0.2740
 2535SOL    HW210185   4.358   2.145   2.487 -1.7601  0.1165 -1.0814
 2535SOL    HW310186   4.381   2.293   2.507  0.5684 -0.3774  0.1480
 2535SOL    MW410187   4.380   2.223   2.455 -0.0358 -0.0236 -0.3250
 2536SOL     OW10188   1.210   4.437   0.592 -0.5244  0.5007 -0.0741
 2536SOL    HW210189   1.296   4.475   0.574 -0.5431  1.4419  1.6948
 2536SOL    HW310190   1.228   4.345   0.609  0.2823  0.8949  1.2930
 2536SOL    MW410191   1.224   4.430   0.592 -0.4205  0.6766  0.3396
 2537SOL     OW10192   0.087   0.496   1.040 -0.1463 -0.4690  0.3482
 2537SOL    HW210193   0.117   0.537   0.959 -1.1990 -1.0963 -0.3852
 2537SOL    HW310194   0.041   0.565   1.087 -0.4692 -0.3726 -0.1048
 2537SOL    MW410195   0.085   0.510   1.036 -0.3278 -0.5390  0.1917
 2538SOL     OW10196   2.206   2.953   2.884  0.1913  0.1370  0.4146
 2538SOL    HW210197   2.199   3.020   2.816  0.3607 -0.0477  0.2145
 2538SOL    HW310198   2.126   2.902   2.876  0.1987  0.1320  0.3690
 2538SOL    MW410199   2.195   2.955   2.874  0.2148  0.1118  0.3824
 2539SOL     OW10200   1.191   2.023   4.374  0.0617 -0.2191 -0.2006
 2539SOL    HW210201   1.201   2.048   4.466 -0.4668  0.0443 -0.2129
 2539SOL    HW310202   1.200   2.106   4.326  3.1704 -0.7234 -0.6079
 2539SOL    MW410203   1.193   2.037   4.380  0.4022 -0.2511 -0.2561
 2540SOL     OW10204   3.396   3.811   2.488  0.4318  0.2959 -0.5033
 2540SOL    HW210205   3.366   3.884   2.435 -1.6266 -0.2835 -0.1948
 2540SOL    HW310206   3.457   3.763   2.432  2.3342  2.5982 -0.4646
 2540SOL    MW410207   3.400   3.814   2.474  0.4113  0.5231 -0.4575
 2541SOL     OW10208   2.914   4.285   2.255 -0.4029 -0.9875 -0.5289
 2541SOL    HW210209   2.937   4.203   2.211  0.0560 -1.1899  0.0829
 2541SOL    HW310210   2.970   4.351   2.215 -1.8223 -0.6905 -2.0735
 2541SOL    MW410211   2.924   4.283   2.244 -0.5298 -0.9747 -0.6521
 2542SOL     OW10212   4.057   0.812   2.211  0.2280 -0.1941  1.2899
 2542SOL    HW210213   4.003   0.877   2.167 -0.4876 -1.5869  0.0853
 2542SOL    HW310214   4.142   0.817   2.166 -0.1710 -0.8562  0.4419
 2542SOL    MW410215   4.061   0.821   2.199  0.0806 -0.4653  1.0195
 2543SOL     OW10216   0.490   3.001   2.957  0.3819 -0.7116  0.3951
 2543SOL    HW210217   0.532   3.023   3.041 -0.1647 -0.8809  0.7110
 2543SOL    HW310218   0.400   3.030   2.966  0.4469 -0.2644 -0.3282
 2543SOL    MW410219   0.484   3.008   2.969  0.3183 -0.6752  0.3414
 2544SOL     OW10220   3.253   1.295   0.270 -0.0552  0.4689 -0.3398
 2544SOL    HW210221   3.278   1.210   0.231 -0.1751  0.7467 -1.0330
 2544SOL    HW310222   3.335   1.329   0.307 -0.1200 -0.2039  0.4371
 2544SOL    MW410223   3.267   1.288   0.269 -0.0794  0.4168 -0.3288
 2545SOL     OW10224   1.163   2.919   1.695 -0.3349  0.3661  0.2489
 2545SOL    HW210225   1.225   2.959   1.634 -0.1975 -2.2952 -1.4563
 2545SOL    HW310226   1.215   2.853   1.742 -1.0562  0.6072  1.4197
 2545SOL    MW410227   1.178   2.916   1.694 -0.4120  0.0467  0.1785
 2546SOL     OW10228   0.143   3.708   3.955  0.7317 -0.1425  0.1486
 2546SOL    HW210229   0.076   3.651   3.917  0.5770  0.7145 -0.8784
 2546SOL    HW310230   0.099   3.750   4.030 -0.0141  0.6991 -0.7380
 2546SOL    MW410231   0.128   3.706   3.960  0.6129  0.0815 -0.1037
 2547SOL     OW10232   4.104   3.661   4.111  0.1671  0.1995 -0.2037
 2547SOL    HW210233   4.115   3.606   4.034  0.4326  1.2052 -0.8966
 2547SOL    HW310234   4.070   3.602   4.178  0.0708 -0.7157 -1.0473
 2547SOL    MW410235   4.101   3.646   4.110  0.1898  0.2115 -0.4072
 2548SOL     OW10236   4.313   3.171   4.046  0.0416  0.0613 -0.0570
 2548SOL    HW210237   4.341   3.088   4.084  1.2137 -0.1907 -1.4383
 2548SOL    HW310238   4.388   3.230   4.057 -0.8673  1.0238  1.1353
 2548SOL    MW410239   4.326   3.168   4.052  0.0763  0.1547 -0.0820
 2549SOL     OW10240   2.028   0.030   2.488  0.2197  0.3045  0.2856
 2549SOL    HW210241   1.965  -0.026   2.442  1.7686 -0.7338 -0.6183
 2549SOL    HW310242   2.002   0.119   2.466 -1.0536 -0.1084  0.0890
 2549SOL    MW410243   2.016   0.034   2.479  0.2561  0.1131  0.1404
 2550SOL     OW10244   3.453   3.563   0.379  0.3510 -0.1516 -0.4514
 2550SOL    HW210245   3.428   3.471   0.388  1.9972 -0.4064  1.6308
 2550SOL    HW310246   3.547   3.561   0.362  0.4310  1.1588 -0.1844
 2550SOL    MW410247   3.462   3.551   0.378  0.5786 -0.0124 -0.1415
 2551SOL     OW10248   3.042   1.891   3.323  0.3454 -0.1259  0.6946
 2551SOL    HW210249   3.007   1.863   3.407  0.9142 -0.0338  0.9647
 2551SOL    HW310250   3.100   1.819   3.296 -1.4074 -1.1142 -0.6100
 2551SOL    MW410251   3.045   1.878   3.330  0.1891 -0.2441  0.5581
 2552SOL     OW10252   1.267   3.750   1.558 -0.0312 -0.7023  0.1075
 2552SOL    HW210253   1.243   3.812   1.489  2.2951  0.5739  0.3949
 2552SOL    HW310254   1.330   3.690   1.517  1.5620  0.2208  1.1320
 2552SOL    MW410255   1.272   3.750   1.544  0.4860 -0.4122  0.2807
 2553SOL     OW10256   2.064   0.056   2.063  0.6044 -0.1671 -0.0225
 2553SOL    HW210257   1.975   0.090   2.061  0.4784 -0.4389  0.8942
 2553SOL    HW310258   2.054  -0.039   2.058  0.8423 -0.1941 -0.0042
 2553SOL    MW410259   2.051   0.048   2.062  0.6192 -0.2065  0.1006
 2554SOL     OW10260   3.080   3.690   3.512  0.0635  0.1154 -0.9595
 2554SOL    HW210261   3.039   3.637   3.581 -0.8660  1.8184 -0.1877
 2554SOL    HW310262   3.150   3.737   3.556  0.9339 -0.5111 -1.6625
 2554SOL    MW410263   3.084   3.689   3.527  0.0556  0.2573 -0.9501
 2555SOL     OW10264   4.233   4.556   2.836 -0.0327 -0.2103 -0.2480
 2555SOL    HW210265   4.188   4.474   2.857 -0.0427  0.0934  0.9692
 2555SOL    HW310266   4.193   4.585   2.755 -2.7101  0.5374  1.2855
 2555SOL    MW410267   4.222   4.549   2.828 -0.3877 -0.0720  0.1152
 2556SOL     OW10268   2.813   0.369   0.363  0.3266  0.2272 -0.8403
 2556SOL    HW210269   2.717   0.366   0.365  0.3631 -0.6884  0.2619
 2556SOL    HW310270   2.840   0.279   0.344  0.9526  0.9475 -3.5415
 2556SOL    MW410271   2.804   0.357   0.361  0.4139  0.2014 -1.0513
 2557SOL     OW10272   0.559   4.169   0.570  0.7770  0.2750 -0.0671
 2557SOL    HW210273   0.519   4.254   0.587 -1.5218 -1.0818  1.5497
 2557SOL    HW310274   0.530   4.147   0.481 -0.5890  0.1509  0.3922
 2557SOL    MW410275   0.550   4.177   0.560  0.2935  0.0792  0.2068
 2558SOL     OW10276   4.299   0.179   2.450  0.6129  0.1135 -0.0647
 2558SOL    HW210277   4.287   0.266   2.488  2.0098  0.4450 -0.3542
 2558SOL    HW310278   4.373   0.142   2.498  0.2312 -0.7944 -0.1643
 2558SOL    MW410279   4.307   0.186   2.462  0.7463  0.0374 -0.1161
 2559SOL     OW10280   4.301   1.930   4.306 -0.0909  0.0649  0.1164
 2559SOL    HW210281   4.205   1.931   4.311 -0.1816  0.7175 -1.4415
 2559SOL    HW310282   4.324   1.838   4.313 -0.8293 -0.0725  0.7649
 2559SOL    MW410283   4.291   1.918   4.307 -0.1998  0.1328 -0.0033
 2560SOL     OW10284   2.321   1.408   0.328 -0.0576 -0.5452 -0.3355
 2560SOL    HW210285   2.242   1.422   0.275 -1.0964 -1.5444  0.9168
 2560SOL    HW310286   2.293   1.350   0.398  1.2598  0.8883  1.4347
 2560SOL    MW410287   2.307   1.402   0.330 -0.0207 -0.4879  0.0632
 2561SOL     OW10288   2.687   3.249   3.983 -0.2506  0.4197 -0.4734
 2561SOL    HW210289   2.739   3.321   4.019  0.1800  0.9354 -2.1013
 2561SOL    HW310290   2.606   3.291   3.953 -0.5059  0.0300 -0.3297
 2561SOL    MW410291   2.683   3.264   3.984 -0.2275  0.4361 -0.6690
 2562SOL     OW10292   3.939   2.324   4.035  0.2316 -0.2046 -0.4158
 2562SOL    HW210293   4.010   2.300   4.094  0.1210 -0.4131 -0.3650
 2562SOL    HW310294   3.928   2.248   3.978  1.2857  0.5537 -1.6381
 2562SOL    MW410295   3.947   2.311   4.035  0.3562 -0.1318 -0.5708
 2563SOL     OW10296   1.322   2.606   0.813  0.4894  0.0123 -0.4885
 2563SOL    HW210297   1.246   2.664   0.804  0.8914  0.7461  0.8369
 2563SOL    HW310298   1.288   2.529   0.858  0.9246  1.1610  1.8669
 2563SOL    MW410299   1.307   2.603   0.818  0.5997  0.2606 -0.0028
 2564SOL     OW10300   0.274   4.656   3.649 -0.2457  0.1846 -0.3863
 2564SOL    HW210301   0.301   4.697   3.731  1.8044  1.0247 -1.4287
 2564SOL    HW310302   0.284   4.562   3.665  1.1352  0.3826  0.0132
 2564SOL    MW410303   0.279   4.649   3.662  0.2069  0.3214 -0.4711
 2565SOL     OW10304   0.273   1.518   2.099  0.1582  0.2822 -0.4498
 2565SOL    HW210305   0.320   1.471   2.168 -1.6208 -1.1054 -0.1353
 2565SOL    HW310306   0.328   1.594   2.080  3.1285 -1.8955 -0.9363
 2565SOL    MW410307   0.286   1.521   2.106  0.3154 -0.1884 -0.4723
 2566SOL     OW10308   3.453   3.254   0.717  0.4115  0.4025  0.5835
 2566SOL    HW210309   3.393   3.321   0.752 -0.4569 -0.0222 -0.0582
 2566SOL    HW310310   3.402   3.173   0.718  0.6832  0.1985 -0.7689
 2566SOL    MW410311   3.438   3.252   0.722  0.3328  0.3195  0.3204
 2567SOL     OW10312   3.665   0.135   0.535  0.0148 -0.1742  0.0104
 2567SOL    HW210313   3.744   0.175   0.571 -0.7772  1.1095  0.3738
 2567SOL    HW310314   3.604   0.131   0.609  0.0493 -2.0184 -0.0406
 2567SOL    MW410315   3.667   0.140   0.550 -0.0849 -0.2482  0.0515
 2568SOL     OW10316   0.634   0.909   1.122  0.2082 -0.0245  0.1647
 2568SOL    HW210317   0.573   0.958   1.179  0.6212  0.1953  0.4231
 2568SOL    HW310318   0.694   0.976   1.089 -0.0816 -0.1425 -0.6009
 2568SOL    MW410319   0.634   0.925   1.125  0.2245 -0.0110  0.0978
 2569SOL     OW10320   2.159   0.464   0.665  0.0647 -0.6641  0.0947
 2569SOL    HW210321   2.155   0.516   0.584  0.0034 -0.8017  0.0091
 2569SOL    HW310322   2.149   0.528   0.735 -1.4116 -0.7272 -0.0401
 2569SOL    MW410323   2.157   0.479   0.663 -0.1383 -0.6905  0.0656
 2570SOL     OW10324   3.821   1.266   0.855  0.3305 -0.5185 -0.3196
 2570SOL    HW210325   3.819   1.181   0.899 -1.2294 -0.2112  0.2355
 2570SOL    HW310326   3.820   1.245   0.762  1.2536 -1.1229 -0.1977
 2570SOL    MW410327   3.821   1.252   0.848  0.2463 -0.5578 -0.2303
 2571SOL     OW10328   0.917   0.072   3.233  0.7151  0.4087  0.2418
 2571SOL    HW210329   0.827   0.103   3.222  0.5408 -0.4083 -0.6605
 2571SOL    HW310330   0.967   0.121   3.167  0.3668 -1.4807 -1.4909
 2571SOL    MW410331   0.911   0.083   3.222  0.6462  0.0516 -0.1059
 2572SOL     OW10332   3.948   0.597   2.897  0.1560 -0.7568  0.1635
 2572SOL    HW210333   4.036   0.609   2.931 -0.1067  0.5352  0.4146
 2572SOL    HW310334   3.945   0.650   2.818 -0.4889 -0.5562  0.3206
 2572SOL    MW410335   3.959   0.606   2.891  0.0360 -0.5599  0.2174
 2573SOL     OW10336   4.027   4.473   2.175  0.4542  0.0314 -0.7579
 2573SOL    HW210337   4.105   4.528   2.188  0.9747 -0.6254 -1.0856
 2573SOL    HW310338   4.049   4.418   2.101 -0.2292 -0.3442 -0.6797
 2573SOL    MW410339   4.040   4.473   2.167  0.4325 -0.1049 -0.7911
 2574SOL     OW10340   1.467   2.981   0.985 -0.3492 -0.8250  0.0836
 2574SOL    HW210341   1.513   2.897   0.986 -1.4091 -1.4222 -0.4024
 2574SOL    HW310342   1.481   3.015   0.896 -0.7555 -0.9656 -0.0371
 2574SOL    MW410343   1.475   2.974   0.973 -0.5426 -0.9224  0.0035
 2575SOL     OW10344   3.162   4.495   1.182 -0.6651 -0.0605  0.0563
 2575SOL    HW210345   3.196   4.439   1.253  0.1557 -0.0523 -0.3335
 2575SOL    HW310346   3.234   4.554   1.161 -0.2103 -1.3433 -2.1321
 2575SOL    MW410347   3.176   4.495   1.189 -0.4969 -0.2284 -0.2838
 2576SOL     OW10348   3.207   3.688   0.458  0.2568  0.3342  0.0846
 2576SOL    HW210349   3.204   3.779   0.427  0.8899  0.5956  0.7512
 2576SOL    HW310350   3.295   3.658   0.436 -0.3088 -0.4773 -1.0898
 2576SOL    MW410351   3.218   3.696   0.451  0.2658  0.2618  0.0176
 2577SOL     OW10352   0.491   2.367   0.966 -0.2930  0.0661  0.5008
 2577SOL    HW210353   0.441   2.384   1.046 -0.3007 -0.9622  0.7223
 2577SOL    HW310354   0.571   2.419   0.976  0.7300 -1.7556  2.2119
 2577SOL    MW410355   0.495   2.376   0.978 -0.1591 -0.3097  0.7558
 2578SOL     OW10356   1.496   2.403   2.056  0.1476 -0.0706  0.0466
 2578SOL    HW210357   1.516   2.375   2.145 -0.8189 -1.2452 -0.0869
 2578SOL    HW310358   1.578   2.393   2.008  0.4406 -0.2937  0.5944
 2578SOL    MW410359   1.509   2.398   2.062  0.0588 -0.2551  0.1011
 2579SOL     OW10360   1.917   4.637   4.042  0.4509  0.4633 -0.4763
 2579SOL    HW210361   1.891   4.549   4.016  0.4452  0.4135 -0.3019
 2579SOL    HW310362   2.012   4.631   4.055  0.2286  0.1033  1.0392
 2579SOL    MW410363   1.926   4.625   4.040  0.4209  0.4091 -0.2527
 2580SOL     OW10364   4.332   0.186   9.920  0.7266 -0.2243 -0.0093
 2580SOL    HW210365   4.320   0.141   9.836 -0.0162  0.1157 -0.0927
 2580SOL    HW310366   4.394   0.131   9.968 -1.5208 -2.2947  0.5921
 2580SOL    MW410367   4.339   0.173   9.915  0.3324 -0.4526  0.0591
 2581SOL     OW10368   0.966   0.019   1.232 -0.0346 -0.0447  0.1130
 2581SOL    HW210369   0.905  -0.055   1.225  0.0102 -0.2114  1.2545
 2581SOL    HW310370   1.044  -0.009   1.185 -0.7160  0.0285 -1.0631
 2581SOL    MW410371   0.968   0.005   1.225 -0.1186 -0.0570  0.1085
 2582SOL     OW10372   0.339   0.728   3.052 -0.0371  0.3774  0.3952
 2582SOL    HW210373   0.366   0.704   2.963 -0.7006 -1.2461  0.6211
 2582SOL    HW310374   0.396   0.802   3.075  2.1285 -1.0045 -0.3077
 2582SOL    MW410375   0.350   0.735   3.043  0.1611 -0.0191  0.3321
 2583SOL     OW10376   2.407   2.546   2.061  0.4499 -0.5573  0.1984
 2583SOL    HW210377   2.366   2.631   2.080  0.4262 -0.3322 -0.8336
 2583SOL    HW310378   2.444   2.556   1.973  1.8169 -1.1018  0.6976
 2583SOL    MW410379   2.406   2.559   2.052  0.6270 -0.5994  0.1280
 2584SOL     OW10380   4.250   1.155   1.148  0.3427 -0.3357 -0.1138
 2584SOL    HW210381   4.231   1.201   1.066  1.1758  1.8794  0.9083
 2584SOL    HW310382   4.257   1.063   1.122  0.8313  0.3513 -2.5755
 2584SOL    MW410383   4.248   1.149   1.133  0.5174  0.0471 -0.3037
 2585SOL     OW10384   1.588   3.894   1.044  0.2148 -0.5923  0.0940
 2585SOL    HW210385   1.676   3.857   1.041 -0.0789 -1.3673  0.7886
 2585SOL    HW310386   1.570   3.905   1.138 -0.1441  0.2491 -0.0701
 2585SOL    MW410387   1.597   3.891   1.056  0.1287 -0.5839  0.1638
 2586SOL     OW10388   3.092   4.442   2.138  0.0831  0.4234  0.2550
 2586SOL    HW210389   3.109   4.515   2.198 -0.2561  0.5155  0.2397
 2586SOL    HW310390   3.032   4.478   2.072 -0.4486  0.0008  0.5060
 2586SOL    MW410391   3.086   4.457   2.137 -0.0317  0.3800  0.2859
 2587SOL     OW10392   2.849   1.401   0.847 -0.1774 -0.1994  0.1100
 2587SOL    HW210393   2.871   1.408   0.754  1.0781 -1.2167  0.3112
 2587SOL    HW310394   2.824   1.309   0.858  1.6078 -0.5987  1.1457
 2587SOL    MW410395   2.849   1.390   0.836  0.2236 -0.3864  0.2732
 2588SOL     OW10396   2.213   0.962   1.320  0.0278  0.5009 -0.1050
 2588SOL    HW210397   2.180   1.001   1.401 -0.5691 -1.2182  0.5022
 2588SOL    HW310398   2.307   0.953   1.333 -0.2967 -1.3592  1.1088
 2588SOL    MW410399   2.221   0.966   1.332 -0.0937  0.0286  0.1353
 2589SOL     OW10400   0.880   3.508   1.845  0.2504  0.5747 -0.2003
 2589SOL    HW210401   0.787   3.517   1.865  0.6273  0.5918  1.6371
 2589SOL    HW310402   0.922   3.497   1.931  1.7614 -1.0259 -1.0998
 2589SOL    MW410403   0.874   3.507   1.859  0.4995  0.3660 -0.0765
 2590SOL     OW10404   2.832   1.965   2.205 -0.3164  0.0010 -0.0043
 2590SOL    HW210405   2.757   1.950   2.262  0.2211  1.0647  1.0224
 2590SOL    HW310406   2.889   2.022   2.257  0.0839  1.1474 -1.6880
 2590SOL    MW410407   2.830   1.971   2.220 -0.1929  0.2924 -0.0908
 2591SOL     OW10408   2.750   3.025   2.958 -0.2423 -0.0161 -0.0278
 2591SOL    HW210409   2.789   2.938   2.963 -0.8288 -0.2954 -0.1922
 2591SOL    HW310410   2.661   3.013   2.993 -1.1999 -0.0309 -2.3454
 2591SOL    MW410411   2.743   3.012   2.963 -0.4461 -0.0548 -0.3550
 2592SOL     OW10412   3.295   4.390   3.674  0.0010  0.2367  0.2138
 2592SOL    HW210413   3.317   4.403   3.766  0.6131 -0.2505  0.1399
 2592SOL    HW310414   3.206   4.355   3.676  0.5285 -1.1137  0.6985
 2592SOL    MW410415   3.286   4.387   3.687  0.1514 -0.0057  0.2680
 2593SOL     OW10416   1.771   4.014   2.833 -0.2392  0.1964 -0.2014
 2593SOL    HW210417   1.789   4.040   2.743 -2.4648 -1.7529 -1.2822
 2593SOL    HW310418   1.696   4.067   2.859 -1.1015 -0.9028 -0.3770
 2593SOL    MW410419   1.763   4.024   2.824 -0.6465 -0.2055 -0.3674
 2594SOL     OW10420   4.138   3.302   4.218 -0.3940 -0.5321 -0.1239
 2594SOL    HW210421   4.195   3.267   4.150 -0.3513  1.0541 -0.9140
 2594SOL    HW310422   4.196   3.317   4.293  0.3331  1.5437 -1.0889
 2594SOL    MW410423   4.153   3.299   4.219 -0.2923 -0.0489 -0.3552
 2595SOL     OW10424   4.153   0.139   0.999 -0.1952 -0.0355  0.2341
 2595SOL    HW210425   4.218   0.153   1.068  0.3072 -1.4674  0.0827
 2595SOL    HW310426   4.190   0.068   0.947 -1.6614 -0.5301 -0.1404
 2595SOL    MW410427   4.167   0.131   1.001 -0.3223 -0.2897  0.1647
 2596SOL     OW10428   0.883   3.483   3.968  0.3045  0.0910  0.2363
 2596SOL    HW210429   0.863   3.574   3.985 -1.7180 -0.6878  2.1628
 2596SOL    HW310430   0.975   3.473   3.996  0.8154  1.6960 -0.7939
 2596SOL    MW410431   0.893   3.493   3.974  0.1050  0.2000  0.3545
 2597SOL     OW10432   1.893   1.744   2.419  0.2496  0.6059  0.5269
 2597SOL    HW210433   1.863   1.653   2.415  1.6483 -0.0387  3.2034
 2597SOL    HW310434   1.822   1.790   2.464 -1.0648  1.1576 -2.0400
 2597SOL    MW410435   1.880   1.738   2.424  0.2606  0.5938  0.5412
 2598SOL     OW10436   0.951   3.997   1.405  0.1021  0.0493 -0.3062
 2598SOL    HW210437   1.039   3.962   1.391 -0.0595 -0.2895 -0.4697
 2598SOL    HW310438   0.958   4.090   1.382 -0.0548 -0.3970 -2.2619
 2598SOL    MW410439   0.963   4.005   1.400  0.0600 -0.0544 -0.5859
 2599SOL     OW10440   4.410   4.011   1.594  0.0488 -0.3396 -0.1815
 2599SOL    HW210441   4.421   3.940   1.531 -0.0105 -1.2447  0.8265
 2599SOL    HW310442   4.491   4.011   1.645 -0.3095 -0.2339  0.3884
 2599SOL    MW410443   4.422   4.002   1.592 -0.0062 -0.4449  0.0267
 2600SOL     OW10444   1.646   4.629   2.584  0.0662  0.1474 -0.1151
 2600SOL    HW210445   1.648   4.724   2.572  2.7047  0.2777  1.2027
 2600SOL    HW310446   1.619   4.617   2.675  1.0424 -0.3480  0.1033
 2600SOL    MW410447   1.642   4.640   2.594  0.5431  0.0992  0.0875
 2601SOL     OW10448   2.740   1.351   1.366  0.0576 -0.0238 -0.0351
 2601SOL    HW210449   2.768   1.304   1.445 -0.8938 -0.1535  0.2260
 2601SOL    HW310450   2.805   1.327   1.300  0.6769 -0.1699  0.6179
 2601SOL    MW410451   2.752   1.341   1.368  0.0141 -0.0602  0.0856
 2602SOL     OW10452   0.245   4.538   0.983 -0.1785  0.4110 -0.4996
 2602SOL    HW210453   0.328   4.494   0.969 -0.4795  0.4393 -2.5680
 2602SOL    HW310454   0.257   4.626   0.945 -0.9610  0.5994 -0.3400
 2602SOL    MW410455   0.257   4.544   0.976 -0.3214  0.4396 -0.7513
 2603SOL     OW10456   0.062   0.898   4.261 -0.5678 -0.1899  0.4383
 2603SOL    HW210457  -0.019   0.847   4.256 -0.7192  0.1458 -0.6263
 2603SOL    HW310458   0.053   0.963   4.191  0.3849  0.2008  0.6771
 2603SOL    MW410459   0.050   0.900   4.251 -0.4621 -0.0941  0.3295
 2604SOL     OW10460   0.211   1.764   0.320  0.7622 -0.0733  0.2324
 2604SOL    HW210461   0.186   1.750   0.411 -1.1866  0.4786 -0.1919
 2604SOL    HW310462   0.130   1.793   0.277  2.0073  1.1811 -1.3311
 2604SOL    MW410463   0.197   1.766   0.326  0.6694  0.1650 -0.0299
 2605SOL     OW10464   4.143   3.098   2.884  0.6726 -0.1594 -0.1908
 2605SOL    HW210465   4.058   3.138   2.898  0.4342 -0.2899 -1.2060
 2605SOL    HW310466   4.134   3.050   2.802  1.1268 -1.8216  0.6958
 2605SOL    MW410467   4.131   3.097   2.875  0.7014 -0.3960 -0.2079
 2606SOL     OW10468   0.821   2.489   1.676 -0.0283 -0.7729  0.2031
 2606SOL    HW210469   0.881   2.565   1.678 -1.4325  0.3226  2.3244
 2606SOL    HW310470   0.863   2.425   1.733  0.4089 -1.0294 -0.3970
 2606SOL    MW410471   0.835   2.491   1.684 -0.1559 -0.6621  0.4039
 2607SOL     OW10472   0.357   3.450   3.068  0.2116  0.2643 -0.4321
 2607SOL    HW210473   0.383   3.491   2.985 -0.4521  0.4587 -0.5459
 2607SOL    HW310474   0.344   3.358   3.046  1.1721  0.0885 -0.2926
 2607SOL    MW410475   0.359   3.443   3.054  0.2508  0.2668 -0.4289
 2608SOL     OW10476   4.090   4.248   2.668 -0.0502  0.1271  0.2817
 2608SOL    HW210477   4.137   4.166   2.653 -0.1874  0.2523 -0.8658
 2608SOL    HW310478   4.111   4.302   2.592 -2.0227  0.1947 -0.2484
 2608SOL    MW410479   4.099   4.244   2.656 -0.3285  0.1521  0.0603
 2609SOL     OW10480   4.213   0.676   3.005  0.3577 -0.0797 -0.7551
 2609SOL    HW210481   4.263   0.751   2.972 -0.0249  0.5988  0.1957
 2609SOL    HW310482   4.273   0.602   2.995  0.8314  0.3828 -1.4715
 2609SOL    MW410483   4.228   0.676   2.999  0.3695  0.0709 -0.7241
 2610SOL     OW10484   1.786   2.922   2.350  0.5507  0.4322  0.4828
 2610SOL    HW210485   1.721   2.989   2.329 -0.5568 -0.8562 -0.2367
 2610SOL    HW310486   1.868   2.957   2.317  0.0398  1.6004  0.4304
 2610SOL    MW410487   1.788   2.936   2.343  0.3371  0.4165  0.3812
 2611SOL     OW10488   0.568   0.367   4.213  0.2402  0.2789 -0.2950
 2611SOL    HW210489   0.503   0.359   4.142  0.1770  0.0148 -0.2113
 2611SOL    HW310490   0.550   0.451   4.254 -1.2711 -0.6105  0.9236
 2611SOL    MW410491   0.557   0.377   4.209  0.0325  0.1267 -0.1235
 2612SOL     OW10492   2.572   2.048   0.539  0.0947  0.0783 -0.2976
 2612SOL    HW210493   2.604   1.961   0.514  1.7659  0.6034 -0.0437
 2612SOL    HW310494   2.639   2.109   0.505 -1.0602  1.2716 -0.4934
 2612SOL    MW410495   2.585   2.045   0.531  0.1626  0.3052 -0.2900
 2613SOL     OW10496   3.732   1.576   3.280 -0.2501  0.4142 -0.3346
 2613SOL    HW210497   3.815   1.624   3.280 -1.3460  2.3913 -1.9480
 2613SOL    HW310498   3.694   1.596   3.194 -2.8939  0.4098  0.8168
 2613SOL    MW410499   3.738   1.585   3.268 -0.7434  0.6746 -0.3951
 2614SOL     OW10500   0.381   1.666   0.686 -0.0976  0.8226  0.4733
 2614SOL    HW210501   0.352   1.703   0.769 -0.6999  2.1708 -0.3412
 2614SOL    HW310502   0.446   1.728   0.653  0.6972 -0.0927  0.2972
 2614SOL    MW410503   0.386   1.679   0.693 -0.0723  0.8798  0.3425
 2615SOL     OW10504   3.357   4.376   3.942  0.2083 -0.0077 -0.3882
 2615SOL    HW210505   3.295   4.316   3.985  0.5164 -0.3612 -0.4361
 2615SOL    HW310506   3.414   4.405   4.013  1.6227 -1.7048 -0.7917
 2615SOL    MW410507   3.356   4.372   3.957  0.4356 -0.2785 -0.4475
 2616SOL     OW10508   1.798   2.804   3.671  0.1491  0.2017 -0.1282
 2616SOL    HW210509   1.710   2.819   3.638 -0.1498  1.2373  1.0769
 2616SOL    HW310510   1.795   2.715   3.707 -0.1345 -0.1162 -0.9421
 2616SOL    MW410511   1.786   2.795   3.672  0.0722  0.2964 -0.0765
 2617SOL     OW10512   0.686   4.295   3.634  0.2953  0.1321  0.1691
 2617SOL    HW210513   0.644   4.221   3.591 -2.2689  1.0620  0.9879
 2617SOL    HW310514   0.761   4.257   3.681 -1.4020 -2.0579  1.1889
 2617SOL    MW410515   0.690   4.280   3.635 -0.2670 -0.0343  0.4115
 2618SOL     OW10516   2.179   1.482   3.255 -0.6052  0.5659 -0.4705
 2618SOL    HW210517   2.245   1.417   3.231 -0.9662 -0.1281  0.3775
 2618SOL    HW310518   2.225   1.566   3.251  0.0782  0.1795 -0.7902
 2618SOL    MW410519   2.194   1.485   3.251 -0.5627  0.4232 -0.4008
 2619SOL     OW10520   4.227   3.878   0.130 -0.1630  0.9030 -0.0546
 2619SOL    HW210521   4.312   3.834   0.132 -0.3544  0.4347 -1.4317
 2619SOL    HW310522   4.246   3.967   0.157  0.4876  0.3746  1.2713
 2619SOL    MW410523   4.241   3.884   0.134 -0.1020  0.7713 -0.0613
 2620SOL     OW10524   1.078   0.027   1.834 -0.0837 -0.1107  0.7569
 2620SOL    HW210525   1.117   0.114   1.831  0.4027 -0.3359  0.2338
 2620SOL    HW310526   1.080   0.003   1.926  1.0923 -0.1385  0.7422
 2620SOL    MW410527   1.084   0.035   1.846  0.1357 -0.1441  0.6860
 2621SOL     OW10528   0.487   3.396   0.897  0.3326  0.1814 -0.0784
 2621SOL    HW210529   0.455   3.470   0.846  0.5004 -0.0601 -0.5330
 2621SOL    HW310530   0.535   3.342   0.835 -0.6680 -0.8529  0.0181
 2621SOL    MW410531   0.489   3.398   0.882  0.2227  0.0131 -0.1256
 2622SOL     OW10532   1.950   1.996   3.562 -0.4990 -0.0668  0.3097
 2622SOL    HW210533   1.860   2.028   3.554 -0.8594 -0.7664  1.4356
 2622SOL    HW310534   1.946   1.905   3.532  0.0951  0.2904 -0.8709
 2622SOL    MW410535   1.938   1.988   3.557 -0.4680 -0.1121  0.3026
 2623SOL     OW10536   0.983   2.297   1.823  0.0337 -0.0215  0.0436
 2623SOL    HW210537   1.003   2.204   1.817  0.8339  0.1245  0.3848
 2623SOL    HW310538   1.051   2.340   1.771  1.3068  0.5702  2.1715
 2623SOL    MW410539   0.994   2.291   1.815  0.3072  0.0758  0.3694
 2624SOL     OW10540   3.860   3.987   1.992  0.2182  0.1344 -0.6170
 2624SOL    HW210541   3.827   4.066   2.035  0.5203 -0.6660  1.1379
 2624SOL    HW310542   3.832   3.916   2.050  0.3925 -0.9967 -1.9198
 2624SOL    MW410543   3.852   3.988   2.005  0.2809 -0.1204 -0.5574
 2625SOL     OW10544   2.063   4.394   0.493  0.0685  0.4287 -0.8075
 2625SOL    HW210545   2.132   4.403   0.558  1.1689  2.0417 -2.1476
 2625SOL    HW310546   1.986   4.436   0.532 -0.1062 -1.1831  0.6011
 2625SOL    MW410547   2.062   4.401   0.507  0.1907  0.4287 -0.7985
 2626SOL     OW10548   2.229   3.948   3.830  0.1978 -0.4599  0.0343
 2626SOL    HW210549   2.250   4.029   3.876  0.8564 -0.0172 -1.0127
 2626SOL    HW310550   2.307   3.893   3.840  1.4151  0.6796 -2.7679
 2626SOL    MW410551   2.242   3.951   3.837  0.4454 -0.2511 -0.4733
 2627SOL     OW10552   1.689   0.098   2.183 -0.2011 -0.3895 -0.8296
 2627SOL    HW210553   1.714   0.059   2.099  0.4012 -2.5408  0.3169
 2627SOL    HW310554   1.595   0.083   2.190 -0.2295 -0.3212 -1.0710
 2627SOL    MW410555   1.680   0.091   2.173 -0.1254 -0.6643 -0.7102
 2628SOL     OW10556   0.769   3.060   2.666 -0.1669 -0.3614  0.2740
 2628SOL    HW210557   0.685   3.103   2.680  0.4683  1.2125 -0.6021
 2628SOL    HW310558   0.801   3.041   2.754 -1.1040 -0.3153  0.6317
 2628SOL    MW410559   0.762   3.063   2.680 -0.2067 -0.1478  0.2058
 2629SOL     OW10560   3.571   0.449   0.266  0.0857 -0.0011 -0.2148
 2629SOL    HW210561   3.568   0.355   0.250  0.3033  0.0040 -0.2903
 2629SOL    HW310562   3.658   0.465   0.302 -0.2605  0.0539  0.5880
 2629SOL    MW410563   3.582   0.439   0.268  0.0687  0.0068 -0.1189
 2630SOL     OW10564   4.315   0.792   4.155 -0.4723 -0.0363  0.3886
 2630SOL    HW210565   4.363   0.752   4.082  1.3579  1.9149  0.4714
 2630SOL    HW310566   4.227   0.757   4.148 -0.0749 -0.6070 -2.2255
 2630SOL    MW410567   4.310   0.782   4.144 -0.1779  0.1458  0.0553
 2631SOL     OW10568   0.377   2.630   1.645 -0.1145 -0.4954  0.4153
 2631SOL    HW210569   0.308   2.624   1.711  0.0163  1.0960  0.6988
 2631SOL    HW310570   0.442   2.689   1.683 -0.4137  1.0731 -1.4583
 2631SOL    MW410571   0.376   2.637   1.659 -0.1367 -0.0789  0.2055
 2632SOL     OW10572   1.533   1.758   3.420 -0.4575  0.1907  0.6072
 2632SOL    HW210573   1.511   1.851   3.417  1.1315  0.5451 -1.9275
 2632SOL    HW310574   1.477   1.719   3.353 -0.8804 -0.6287  1.4383
 2632SOL    MW410575   1.522   1.765   3.410 -0.3037  0.1293  0.3824
 2633SOL     OW10576   2.640   4.625   3.658  0.2752 -0.4258  0.5180
 2633SOL    HW210577   2.569   4.657   3.603 -0.5465 -0.5608  1.4927
 2633SOL    HW310578   2.718   4.631   3.602 -0.6295 -1.1102 -0.8636
 2633SOL    MW410579   2.641   4.630   3.643  0.0472 -0.5339  0.4644
 2634SOL     OW10580   4.239   3.059   0.267 -0.0664 -0.1804  0.0096
 2634SOL    HW210581   4.200   3.113   0.198  0.0585 -0.5142 -0.3273
 2634SOL    HW310582   4.326   3.098   0.282 -0.5248  0.5733  0.7732
 2634SOL    MW410583   4.245   3.071   0.260 -0.1106 -0.1249  0.0659
 2635SOL     OW10584   0.370   2.220   3.991  0.5171  0.0580  0.6016
 2635SOL    HW210585   0.428   2.230   4.066 -0.4357  1.5276  1.1490
 2635SOL    HW310586   0.284   2.201   4.029 -0.5886  3.6537  0.0246
 2635SOL    MW410587   0.366   2.219   4.006  0.2455  0.7265  0.5980
 2636SOL     OW10588   2.331   1.698   3.852 -0.8250  0.3842 -0.2242
 2636SOL    HW210589   2.297   1.746   3.928  0.7251  1.1194  0.0167
 2636SOL    HW310590   2.381   1.626   3.891 -1.0881  0.0142 -0.5687
 2636SOL    MW410591   2.333   1.695   3.867 -0.6554  0.4321 -0.2377
 2637SOL     OW10592   3.090   1.182   1.979  0.1751  0.4072 -0.1334
 2637SOL    HW210593   3.146   1.161   2.054 -0.8560  2.1718  1.1914
 2637SOL    HW310594   3.055   1.098   1.950  1.5583 -0.4300  0.6071
 2637SOL    MW410595   3.092   1.168   1.985  0.2215  0.5296  0.1390
 2638SOL     OW10596   0.349   2.827   0.275  0.2926  0.0855 -0.4162
 2638SOL    HW210597   0.340   2.920   0.255  1.9844  0.3586  0.0282
 2638SOL    HW310598   0.395   2.825   0.359  0.9852 -1.1629 -0.8167
 2638SOL    MW410599   0.354   2.839   0.284  0.6071 -0.0432 -0.4104
 2639SOL     OW10600   1.755   4.320   3.430  0.0137 -0.0461  0.0757
 2639SOL    HW210601   1.741   4.226   3.420 -0.8070  0.0425  0.3360
 2639SOL    HW310602   1.712   4.342   3.512 -1.0976  0.8206 -0.7275
 2639SOL    MW410603   1.748   4.310   3.439 -0.2414  0.0796  0.0041
 2640SOL     OW10604   2.782   3.006   2.440  0.2415 -0.2751 -0.1525
 2640SOL    HW210605   2.828   3.069   2.384 -1.7560  1.0053 -0.4108
 2640SOL    HW310606   2.783   2.925   2.390  1.1588  0.0709 -0.6963
 2640SOL    MW410607   2.788   3.004   2.426  0.0989 -0.0606 -0.2584
 2641SOL     OW10608   1.517   0.226   1.907 -0.0720 -0.0839 -0.0454
 2641SOL    HW210609   1.499   0.199   1.817  1.8796  1.5886 -0.9800
 2641SOL    HW310610   1.575   0.302   1.898 -0.4837  0.5960  2.6112
 2641SOL    MW410611   1.522   0.233   1.894  0.1311  0.2265  0.1817
 2642SOL     OW10612   2.895   2.790   2.963 -0.1034  0.1950 -0.0271
 2642SOL    HW210613   2.978   2.806   2.919 -0.2742  0.2855 -0.3260
 2642SOL    HW310614   2.873   2.699   2.943  0.9188 -0.4668  1.7606
 2642SOL    MW410615   2.903   2.780   2.954  0.0091  0.1197  0.1693
 2643SOL     OW10616   0.311   3.448   2.573 -0.0734  0.5194  0.0753
 2643SOL    HW210617   0.355   3.388   2.512 -2.8784 -0.6187 -0.8989
 2643SOL    HW310618   0.291   3.525   2.519  0.1958  0.7938  0.3672
 2643SOL    MW410619   0.314   3.450   2.558 -0.4080  0.4053 -0.0148
 2644SOL     OW10620   4.085   1.250   2.886  0.0803 -0.0705  0.0674
 2644SOL    HW210621   4.052   1.184   2.826 -1.2529  0.7176 -0.0766
 2644SOL    HW310622   4.034   1.328   2.867  0.7372  0.6392  1.1395
 2644SOL    MW410623   4.074   1.252   2.875 -0.0091  0.1271  0.1895
 2645SOL     OW10624   3.773   2.915   4.329 -0.4423 -0.5126 -0.0377
 2645SOL    HW210625   3.801   3.006   4.317 -0.3399 -0.2747  1.7838
 2645SOL    HW310626   3.850   2.863   4.303 -0.2847 -0.0570 -0.4950
 2645SOL    MW410627   3.787   2.920   4.324 -0.4079 -0.4210  0.1421
 2646SOL     OW10628   1.334   0.873   3.098 -0.9614 -0.4175  0.4697
 2646SOL    HW210629   1.241   0.858   3.081 -0.8386 -0.7696  0.1112
 2646SOL    HW310630   1.338   0.963   3.130 -1.2846  0.0012 -0.6364
 2646SOL    MW410631   1.323   0.883   3.100 -0.9878 -0.4087  0.2766
 2647SOL     OW10632   3.411   2.596   0.356  0.0554 -0.7005  0.2868
 2647SOL    HW210633   3.393   2.688   0.338  0.4978 -0.8370 -0.9273
 2647SOL    HW310634   3.448   2.595   0.444 -0.6245  0.2051  0.5829
 2647SOL    MW410635   3.414   2.608   0.365  0.0243 -0.5991  0.1656
 2648SOL     OW10636   1.667   2.614   2.467 -0.0303  0.4765  0.0029
 2648SOL    HW210637   1.635   2.526   2.446  0.7430 -0.2569  1.8658
 2648SOL    HW310638   1.760   2.602   2.483  0.0001  1.5761  0.6542
 2648SOL    MW410639   1.675   2.601   2.466  0.0758  0.5248  0.3343
 2649SOL     OW10640   3.533   3.604   2.340  0.4138  0.0586 -0.1614
 2649SOL    HW210641   3.628   3.592   2.334  0.5057  0.8927 -0.5002
 2649SOL    HW310642   3.504   3.534   2.399  1.2563 -0.1106  0.0697
 2649SOL    MW410643   3.542   3.593   2.347  0.5374  0.1464 -0.1755
 2650SOL     OW10644   2.003   3.084   1.936 -0.0977  0.1152 -0.4679
 2650SOL    HW210645   1.939   3.045   1.996 -2.1830  0.4441 -2.4161
 2650SOL    HW310646   2.000   3.028   1.858  0.3141  1.4563 -1.4627
 2650SOL    MW410647   1.994   3.072   1.934 -0.3185  0.3355 -0.8562
 2651SOL     OW10648   4.158   4.100   1.696  0.3469  0.0658  0.1905
 2651SOL    HW210649   4.230   4.058   1.649  0.5652  0.0724  0.5173
 2651SOL    HW310650   4.182   4.193   1.698 -0.1710  0.2280 -0.5968
 2651SOL    MW410651   4.171   4.107   1.690  0.3076  0.0882  0.1298
 2652SOL     OW10652   2.689   0.662   3.582  0.0173 -0.2410 -0.3444
 2652SOL    HW210653   2.700   0.708   3.665  1.8659 -4.1060  1.6949
 2652SOL    HW310654   2.687   0.731   3.516  0.0070  2.8424  2.7485
 2652SOL    MW410655   2.690   0.677   3.584  0.2596 -0.3441  0.3328
 2653SOL     OW10656   3.814   1.707   3.930  0.5835 -0.3028 -0.8879
 2653SOL    HW210657   3.805   1.613   3.910  0.1831 -0.4654  0.0392
 2653SOL    HW310658   3.810   1.750   3.844  1.4453 -1.1837 -1.3798
 2653SOL    MW410659   3.813   1.700   3.916  0.6447 -0.4406 -0.8307
 2654SOL     OW10660   1.206   2.026   0.781  0.1340  0.4565  0.0302
 2654SOL    HW210661   1.224   2.112   0.743  0.4850  0.9860  1.3533
 2654SOL    HW310662   1.292   1.989   0.799  0.0060 -0.6909 -1.6306
 2654SOL    MW410663   1.220   2.033   0.778  0.1634  0.3750 -0.0144
 2655SOL     OW10664   0.136   4.324   2.330  0.5214 -0.3860 -0.3237
 2655SOL    HW210665   0.227   4.351   2.318  0.5943 -1.0917 -1.4414
 2655SOL    HW310666   0.142   4.239   2.374  0.4006 -0.4824 -0.4961
 2655SOL    MW410667   0.149   4.317   2.334  0.5151 -0.4916 -0.4938
 2656SOL     OW10668   0.294   3.680   2.388 -0.2003  0.0731 -0.3133
 2656SOL    HW210669   0.386   3.701   2.402 -0.0738 -0.1372 -0.8375
 2656SOL    HW310670   0.284   3.676   2.293 -0.7870  0.2589 -0.2648
 2656SOL    MW410671   0.305   3.682   2.378 -0.2610  0.0701 -0.3760
 2657SOL     OW10672   2.492   3.855   2.751  0.0846  0.0145 -0.2744
 2657SOL    HW210673   2.566   3.905   2.785  0.0930 -0.0388 -0.2143
 2657SOL    HW310674   2.478   3.786   2.815 -0.4689  0.4520  0.0840
 2657SOL    MW410675   2.500   3.853   2.764  0.0126  0.0653 -0.2193
 2658SOL     OW10676   1.243   1.954   2.022 -0.0532 -0.8724  0.1311
 2658SOL    HW210677   1.281   1.942   1.935  0.6934  0.9032  0.1720
 2658SOL    HW310678   1.313   1.996   2.072 -1.3319  0.4631  0.8346
 2658SOL    MW410679   1.257   1.958   2.017 -0.1236 -0.4619  0.2294
 2659SOL     OW10680   3.362   3.410   2.518 -0.5268  0.0099  0.3630
 2659SOL    HW210681   3.370   3.320   2.485  0.0970  0.7224 -1.4377
 2659SOL    HW310682   3.303   3.402   2.593 -0.2127 -1.9609  0.4341
 2659SOL    MW410683   3.355   3.397   2.524 -0.4029 -0.1559  0.1347
 2660SOL     OW10684   3.177   4.108   1.183  0.1143  0.2961 -0.1736
 2660SOL    HW210685   3.186   4.143   1.271 -0.9736  0.5253 -0.1485
 2660SOL    HW310686   3.095   4.145   1.151  0.4319  0.1005 -1.2301
 2660SOL    MW410687   3.167   4.118   1.190  0.0129  0.3009 -0.3098
 2661SOL     OW10688   4.052   1.936   2.402  0.2214  0.1601 -0.0493
 2661SOL    HW210689   4.043   2.016   2.350 -0.0563  1.3810  1.8267
 2661SOL    HW310690   4.145   1.932   2.422  0.4837 -0.8088 -1.3623
 2661SOL    MW410691   4.063   1.946   2.397  0.2193  0.1932  0.0248
 2662SOL     OW10692   3.555   1.915   1.320  0.1875 -0.5027 -0.3673
 2662SOL    HW210693   3.584   1.952   1.403  0.3076 -2.7107  0.6106
 2662SOL    HW310694   3.616   1.950   1.255  1.1290 -0.0864  0.7345
 2662SOL    MW410695   3.567   1.924   1.322  0.3273 -0.7391 -0.0931
 2663SOL     OW10696   3.731   1.828   1.880 -0.3857  0.0093  0.0937
 2663SOL    HW210697   3.772   1.902   1.923 -0.4956  0.2773 -0.2632
 2663SOL    HW310698   3.788   1.754   1.901  1.1278  0.6381 -1.6493
 2663SOL    MW410699   3.744   1.828   1.888 -0.2005  0.1276 -0.1833
 2664SOL     OW10700   1.165   1.722   3.357  0.8141  0.8081  0.2736
 2664SOL    HW210701   1.193   1.634   3.381  0.5844  0.0248 -2.1612
 2664SOL    HW310702   1.082   1.734   3.404 -0.0642 -0.9965 -0.7459
 2664SOL    MW410703   1.158   1.712   3.367  0.6679  0.4665 -0.1826
 2665SOL     OW10704   0.860   0.359   2.463  0.2389 -0.7368  0.1626
 2665SOL    HW210705   0.865   0.449   2.433 -1.2771 -1.0693 -1.1966
 2665SOL    HW310706   0.802   0.316   2.399 -0.2319 -2.3147  1.6096
 2665SOL    MW410707   0.853   0.365   2.450 -0.0231 -0.9888  0.1743
 2666SOL     OW10708   1.697   3.560   0.484 -0.1139  0.5999  0.2659
 2666SOL    HW210709   1.683   3.541   0.392 -1.6979  0.1981  0.5858
 2666SOL    HW310710   1.742   3.645   0.485  1.2260 -0.0668 -0.9133
 2666SOL    MW410711   1.701   3.569   0.472 -0.1462  0.4590  0.1526
 2667SOL     OW10712   2.479   0.818   1.798  0.2952  0.1921  0.1488
 2667SOL    HW210713   2.472   0.913   1.792  1.1747  0.2100 -0.5410
 2667SOL    HW310714   2.454   0.786   1.711  1.0037 -0.1548  0.0681
 2667SOL    MW410715   2.474   0.826   1.786  0.5050  0.1487  0.0471
 2668SOL     OW10716   1.527   4.308   0.778  0.0138 -0.0708 -0.2710
 2668SOL    HW210717   1.505   4.326   0.686 -1.2776 -1.1408 -0.1884
 2668SOL    HW310718   1.553   4.216   0.779  1.3973  0.3106  0.2136
 2668SOL    MW410719   1.527   4.299   0.766  0.0260 -0.1616 -0.1961
 2669SOL     OW10720   2.745   3.900   3.652  0.0745 -0.5495 -0.3751
 2669SOL    HW210721   2.663   3.858   3.628  0.2251 -0.6601 -0.6880
 2669SOL    HW310722   2.799   3.896   3.574 -0.0607  0.6117 -0.5409
 2669SOL    MW410723   2.741   3.894   3.639  0.0770 -0.4108 -0.4382
 2670SOL     OW10724   3.528   0.789   0.764  0.0450  0.1964 -0.6328
 2670SOL    HW210725   3.588   0.845   0.815  0.7747 -0.6006 -0.6021
 2670SOL    HW310726   3.444   0.798   0.808 -0.0695  1.9685 -1.1498
 2670SOL    MW410727   3.525   0.798   0.777  0.1259  0.3250 -0.6970
 2671SOL     OW10728   0.225   1.005   2.935  0.1736 -0.3371  0.1608
 2671SOL    HW210729   0.160   0.949   2.892  0.2268 -0.3192  0.0567
 2671SOL    HW310730   0.193   1.094   2.922  0.5077 -0.2932 -0.3745
 2671SOL    MW410731   0.212   1.009   2.927  0.2247 -0.3290  0.0765
 2672SOL     OW10732   0.989   1.963   3.594 -0.3870  0.2303 -0.6591
 2672SOL    HW210733   0.963   2.049   3.562  1.0021  0.7286 -0.4871
 2672SOL    HW310734   0.982   1.969   3.689  0.6992  0.4874 -0.5917
 2672SOL    MW410735   0.985   1.975   3.602 -0.0604  0.3300 -0.6273
 2673SOL     OW10736   3.565   2.286   2.326 -0.2494  0.1859  0.1688
 2673SOL    HW210737   3.631   2.253   2.387  0.3075  0.5554 -0.2235
 2673SOL    HW310738   3.592   2.252   2.241 -1.4955 -1.0336  0.2452
 2673SOL    MW410739   3.577   2.277   2.323 -0.3402  0.0739  0.1271
 2674SOL     OW10740   3.894   3.266   2.898 -0.1929 -0.2702 -0.5993
 2674SOL    HW210741   3.919   3.343   2.950 -0.5448  0.1623 -1.0627
 2674SOL    HW310742   3.873   3.199   2.963  0.1074  0.0320 -0.1899
 2674SOL    MW410743   3.894   3.268   2.914 -0.1998 -0.1731 -0.6065
 2675SOL     OW10744   3.152   0.376   3.134  0.1271 -0.1061 -0.7190
 2675SOL    HW210745   3.208   0.349   3.207  0.1778 -0.2299 -0.8017
 2675SOL    HW310746   3.082   0.426   3.174 -0.2457 -0.7943 -0.5061
 2675SOL    MW410747   3.150   0.379   3.149  0.0846 -0.2133 -0.7021
 2676SOL     OW10748   3.012   3.424   1.378  0.4238 -0.1669 -0.2704
 2676SOL    HW210749   2.994   3.459   1.291  0.3590 -0.8539 -0.5415
 2676SOL    HW310750   3.064   3.491   1.421  1.3724 -0.2744 -1.2142
 2676SOL    MW410751   3.016   3.437   1.372  0.5403 -0.2718 -0.4308
 2677SOL     OW10752   3.138   2.480   2.949  0.0055 -0.0889 -0.1491
 2677SOL    HW210753   3.154   2.516   3.036  1.3823  2.1677 -1.2933
 2677SOL    HW310754   3.045   2.495   2.932 -0.3442 -0.8730  1.0657
 2677SOL    MW410755   3.128   2.487   2.958  0.1411  0.1054 -0.1397
 2678SOL     OW10756   0.003   1.027   0.083  0.0448  0.4313 -0.4163
 2678SOL    HW210757   0.064   1.092   0.048  0.5291  1.0599  1.5719
 2678SOL    HW310758   0.059   0.964   0.129 -0.6473 -0.0379 -0.2053
 2678SOL    MW410759   0.019   1.027   0.084  0.0181  0.4524 -0.1262
 2679SOL     OW10760   3.243   1.736   0.338  0.6152 -0.1689  0.0118
 2679SOL    HW210761   3.179   1.692   0.394  1.9199 -0.0987  1.5875
 2679SOL    HW310762   3.247   1.682   0.259  2.6362 -3.2983  2.1199
 2679SOL    MW410763   3.235   1.723   0.335  1.0540 -0.5724  0.4978
 2680SOL     OW10764   1.214   3.166   2.442 -0.2320 -0.3598 -0.3289
 2680SOL    HW210765   1.290   3.115   2.472 -0.3330 -0.5645 -0.4240
 2680SOL    HW310766   1.211   3.153   2.347  0.1751  0.4085 -0.4563
 2680SOL    MW410767   1.224   3.158   2.434 -0.1918 -0.2854 -0.3586
 2681SOL     OW10768   1.222   1.279   1.650 -0.2242  0.2386 -0.1189
 2681SOL    HW210769   1.302   1.326   1.673 -0.1663 -0.0702  0.3156
 2681SOL    HW310770   1.229   1.265   1.555  0.1988  0.2862 -0.0974
 2681SOL    MW410771   1.234   1.283   1.640 -0.1608  0.2042 -0.0587
 2682SOL     OW10772   0.545   0.686   3.945 -0.2133 -0.2394 -0.7997
 2682SOL    HW210773   0.452   0.702   3.929 -0.4700  1.1714  1.8096
 2682SOL    HW310774   0.590   0.744   3.884 -1.1182  2.1743  0.7452
 2682SOL    MW410775   0.539   0.696   3.935 -0.3665  0.2652 -0.2515
 2683SOL     OW10776   2.645   4.317   3.498  0.1282  0.1263 -0.0844
 2683SOL    HW210777   2.561   4.359   3.480  0.7057  1.1922 -0.2849
 2683SOL    HW310778   2.647   4.243   3.437 -0.9869 -0.3531  0.4354
 2683SOL    MW410779   2.634   4.313   3.488  0.0572  0.2036 -0.0422
 2684SOL     OW10780   3.312   2.205   3.988 -0.1617 -0.4922  0.3948
 2684SOL    HW210781   3.225   2.243   3.976 -0.7428 -1.5566  1.1285
 2684SOL    HW310782   3.364   2.277   4.024 -0.5516  0.3434 -0.6696
 2684SOL    MW410783   3.307   2.220   3.991 -0.2897 -0.5226  0.3512
 2685SOL     OW10784   2.526   0.353   0.449 -0.1424  0.0027 -0.6077
 2685SOL    HW210785   2.494   0.265   0.432 -0.5600  0.3075 -1.4131
 2685SOL    HW310786   2.495   0.373   0.537  1.4054 -1.3002  0.2639
 2685SOL    MW410787   2.518   0.344   0.458  0.0064 -0.1290 -0.5990
 2686SOL     OW10788   2.546   0.490   2.365 -0.1775  0.1319 -0.0265
 2686SOL    HW210789   2.586   0.509   2.280  1.8634 -0.3284  0.8090
 2686SOL    HW310790   2.608   0.432   2.408 -0.3165  1.8147  2.5191
 2686SOL    MW410791   2.559   0.485   2.359  0.0734  0.2932  0.4196
 2687SOL     OW10792   4.271   3.123   3.130  0.2062 -0.1276  0.6254
 2687SOL    HW210793   4.271   3.122   3.034  3.8201  0.0126  0.5590
 2687SOL    HW310794   4.196   3.069   3.155 -0.9154  0.0243 -2.2528
 2687SOL    MW410795   4.261   3.116   3.121  0.5350 -0.0892  0.2367
 2688SOL     OW10796   3.460   2.996   3.581 -0.3936 -0.5658  0.0954
 2688SOL    HW210797   3.506   2.912   3.585 -1.2913 -1.1936 -1.7097
 2688SOL    HW310798   3.368   2.973   3.592 -0.9806 -0.2569 -3.4985
 2688SOL    MW410799   3.454   2.982   3.583 -0.5896 -0.6077 -0.6170
 2689SOL     OW10800   0.095   4.311   4.035 -0.0860 -0.1429 -0.3650
 2689SOL    HW210801   0.092   4.234   4.091 -0.3320 -0.7536 -1.2076
 2689SOL    HW310802   0.010   4.352   4.047 -0.1723 -0.3218 -0.3609
 2689SOL    MW410803   0.083   4.306   4.044 -0.1298 -0.2470 -0.4759
 2690SOL     OW10804   0.345   2.324   4.365 -0.1843  0.2406  0.4211
 2690SOL    HW210805   0.430   2.302   4.327  0.0336  0.8196  0.5570
 2690SOL    HW310806   0.294   2.243   4.359  0.2826 -0.0353  0.0881
 2690SOL    MW410807   0.349   2.311   4.359 -0.0940  0.2809  0.3953
 2691SOL     OW10808   2.501   2.593   4.070  0.2580  0.9518  0.0231
 2691SOL    HW210809   2.443   2.663   4.040 -1.2684  0.1551  0.9945
 2691SOL    HW310810   2.492   2.524   4.004 -0.5596  0.5112  0.5723
 2691SOL    MW410811   2.492   2.593   4.058 -0.0510  0.7887  0.2236
 2692SOL     OW10812   1.710   2.007   3.085  0.3065  1.0770  0.3689
 2692SOL    HW210813   1.757   1.951   3.145 -0.2403  1.2256  0.9421
 2692SOL    HW310814   1.692   2.087   3.135  1.1522  1.8046 -0.4610
 2692SOL    MW410815   1.714   2.010   3.099  0.3457  1.1928  0.3350
 2693SOL     OW10816   4.192   2.878   3.855  0.6163 -0.0232 -0.4738
 2693SOL    HW210817   4.202   2.935   3.779  1.8949 -0.6784 -0.8104
 2693SOL    HW310818   4.177   2.791   3.818  0.9762 -0.2953  0.0140
 2693SOL    MW410819   4.192   2.874   3.840  0.8330 -0.1454 -0.4542
 2694SOL     OW10820   1.320   2.348   2.487  0.1208  0.2197  0.3674
 2694SOL    HW210821   1.366   2.390   2.560 -0.6986  0.0294  0.9906
 2694SOL    HW310822   1.250   2.410   2.464  0.4935  0.3683 -0.3840
 2694SOL    MW410823   1.317   2.362   2.494  0.0619  0.2141  0.3507
 2695SOL     OW10824   0.644   0.206   2.325 -0.3404 -0.3085 -0.3519
 2695SOL    HW210825   0.669   0.130   2.272  0.9248  0.0026 -0.2167
 2695SOL    HW310826   0.580   0.171   2.388  0.4097 -1.3065 -0.1324
 2695SOL    MW410827   0.639   0.191   2.327 -0.0746 -0.3991 -0.3052
 2696SOL     OW10828   3.398   2.754   2.401  0.4325  0.6398  0.0364
 2696SOL    HW210829   3.445   2.680   2.361  1.1320  0.7952  0.5687
 2696SOL    HW310830   3.440   2.832   2.365 -0.7793  0.8072 -1.0908
 2696SOL    MW410831   3.410   2.754   2.391  0.3645  0.6826 -0.0417
 2697SOL     OW10832   0.575   2.659   3.337 -0.4029 -0.6331  0.0184
 2697SOL    HW210833   0.625   2.683   3.416  1.1299 -0.1223 -1.0743
 2697SOL    HW310834   0.546   2.569   3.353 -0.9660 -0.1813  1.5840
 2697SOL    MW410835   0.578   2.650   3.350 -0.2750 -0.5064  0.0808
 2698SOL     OW10836   1.371   3.344   2.168 -0.1922 -0.5461  0.3202
 2698SOL    HW210837   1.349   3.415   2.108  1.0993 -0.3573  0.0553
 2698SOL    HW310838   1.346   3.377   2.254 -0.5252 -0.1683  0.0810
 2698SOL    MW410839   1.365   3.357   2.171 -0.0658 -0.4714  0.2537
 2699SOL     OW10840   0.189   1.760   1.551  0.2895  0.1207 -0.1160
 2699SOL    HW210841   0.259   1.821   1.577 -0.7116  0.4746  1.8490
 2699SOL    HW310842   0.159   1.793   1.466  1.2241  1.0737 -0.0898
 2699SOL    MW410843   0.194   1.772   1.543  0.2807  0.2933  0.1467
 2700SOL     OW10844   0.262   0.137   0.902  0.2424  0.3264  0.2119
 2700SOL    HW210845   0.173   0.143   0.867 -0.4071 -2.0524  1.3813
 2700SOL    HW310846   0.256   0.176   0.990  0.1207 -0.7161  0.6719
 2700SOL    MW410847   0.249   0.143   0.909  0.1407 -0.1250  0.4269
 2701SOL     OW10848   2.124   0.859   2.299  0.4095  0.2307  0.5581
 2701SOL    HW210849   2.120   0.896   2.211 -0.6938 -2.2637 -0.4927
 2701SOL    HW310850   2.196   0.795   2.295 -0.8557 -1.2413  0.9006
 2701SOL    MW410851   2.133   0.855   2.287  0.0973 -0.2926  0.4649
 2702SOL     OW10852   2.005   0.253   0.904 -0.3859 -0.1971 -0.0349
 2702SOL    HW210853   1.974   0.204   0.980 -0.5143  1.6575  1.1369
 2702SOL    HW310854   2.087   0.292   0.933 -0.5131  0.6515 -0.8066
 2702SOL    MW410855   2.012   0.252   0.918 -0.4196  0.1596  0.0179
 2703SOL     OW10856   2.759   2.396   2.427  0.2641 -0.0950 -0.2042
 2703SOL    HW210857   2.828   2.381   2.362 -1.0280 -0.7788 -1.4533
 2703SOL    HW310858   2.694   2.449   2.381 -1.2475 -1.6074  0.1284
 2703SOL    MW410859   2.760   2.401   2.412 -0.1059 -0.3846 -0.3250
 2704SOL     OW10860   1.812   2.730   3.337 -0.5267  0.0635  0.3623
 2704SOL    HW210861   1.884   2.791   3.320 -0.4164 -0.2317 -0.2409
 2704SOL    HW310862   1.854   2.653   3.375 -0.3729 -0.5532 -1.0109
 2704SOL    MW410863   1.827   2.728   3.339 -0.4920 -0.0572  0.1013
 2705SOL     OW10864   0.774   3.192   4.025 -0.0851 -0.2175 -0.1486
 2705SOL    HW210865   0.741   3.281   4.015  0.4393 -0.0304 -0.2271
 2705SOL    HW310866   0.839   3.183   3.956 -1.1830 -1.1659 -1.0954
 2705SOL    MW410867   0.778   3.203   4.015 -0.1608 -0.3181 -0.2842
 2706SOL     OW10868   2.784   0.597   1.283 -0.4489  0.0685  0.5246
 2706SOL    HW210869   2.842   0.523   1.264 -1.3198 -0.2591 -0.9607
 2706SOL    HW310870   2.838   0.674   1.265 -0.0230 -0.2129  0.5645
 2706SOL    MW410871   2.799   0.597   1.278 -0.5074 -0.0119  0.3338
 2707SOL     OW10872   4.451   3.701   0.166 -0.4002 -0.0506  0.0267
 2707SOL    HW210873   4.451   3.661   0.253 -1.5011 -2.0414 -0.8558
 2707SOL    HW310874   4.530   3.756   0.165 -0.5490  0.2502  2.3779
 2707SOL    MW410875   4.462   3.703   0.177 -0.5651 -0.2735  0.2204
 2708SOL     OW10876   3.123   0.717   0.672 -0.3932  0.2278  0.4276
 2708SOL    HW210877   3.187   0.712   0.601 -1.1543 -0.6728 -0.2158
 2708SOL    HW310878   3.073   0.796   0.653  0.7452  1.1275  1.1295
 2708SOL    MW410879   3.125   0.727   0.660 -0.3433  0.2276  0.4354
 2709SOL     OW10880   2.613   2.007   3.562  0.3225  0.1042 -0.1322
 2709SOL    HW210881   2.527   2.002   3.519  0.4842 -0.2002 -0.4159
 2709SOL    HW310882   2.599   1.966   3.648  0.5284 -1.2179 -0.7173
 2709SOL    MW410883   2.600   2.001   3.568  0.3707 -0.1106 -0.2468
 2710SOL     OW10884   3.970   2.638   1.148 -0.1278  0.2577 -0.2006
 2710SOL    HW210885   4.004   2.586   1.075  0.2921 -1.2901  1.0834
 2710SOL    HW310886   3.977   2.728   1.118  0.8832 -0.3086 -1.7245
 2710SOL    MW410887   3.975   2.643   1.134  0.0606 -0.0212 -0.2322
 2711SOL     OW10888   2.344   2.429   3.449  0.0792 -0.0326 -0.3787
 2711SOL    HW210889   2.419   2.377   3.478  1.1684  2.2626  1.0336
 2711SOL    HW310890   2.346   2.423   3.354  0.3289 -2.3397 -0.2546
 2711SOL    MW410891   2.354   2.421   3.440  0.2556 -0.0343 -0.1760
 2712SOL     OW10892   0.990   0.315   1.211  0.2550 -0.1843 -0.7621
 2712SOL    HW210893   0.935   0.333   1.287  1.4589 -0.0824  0.0939
 2712SOL    HW310894   0.987   0.220   1.201  0.0256 -0.1904 -0.6405
 2712SOL    MW410895   0.982   0.305   1.220  0.3837 -0.1717 -0.6332
 2713SOL     OW10896   3.112   3.800   1.142  0.4419  0.2136 -0.0103
 2713SOL    HW210897   3.107   3.861   1.216 -1.2327  0.5579 -0.3984
 2713SOL    HW310898   3.044   3.735   1.159  0.8820 -0.4119 -0.6217
 2713SOL    MW410899   3.103   3.800   1.154  0.2789  0.1767 -0.1422
 2714SOL     OW10900   2.261   4.337   2.237  0.1723 -0.0495  0.1281
 2714SOL    HW210901   2.190   4.325   2.299  1.3744 -0.4671  1.4591
 2714SOL    HW310902   2.315   4.407   2.275 -0.4655  1.5126 -1.7461
 2714SOL    MW410903   2.259   4.344   2.250  0.2465  0.1011  0.0563
 2715SOL     OW10904   1.265   0.933   2.806  0.0992  0.3506  0.5173
 2715SOL    HW210905   1.263   0.837   2.806  0.7286  0.3263 -1.0656
 2715SOL    HW310906   1.322   0.956   2.880  1.6065 -0.5520 -0.3383
 2715SOL    MW410907   1.272   0.923   2.816  0.3810  0.2283  0.1955
 2716SOL     OW10908   2.825   0.747   2.473  0.1397  0.3709  0.2776
 2716SOL    HW210909   2.862   0.791   2.396  1.6325 -0.1502  0.6793
 2716SOL    HW310910   2.890   0.761   2.542 -0.5688 -0.2949  1.0901
 2716SOL    MW410911   2.838   0.754   2.472  0.2429  0.2143  0.4377
 2717SOL     OW10912   4.261   2.783   3.075  0.2638  0.0193 -0.1989
 2717SOL    HW210913   4.268   2.768   2.980 -2.0909  0.7325 -0.5076
 2717SOL    HW310914   4.295   2.703   3.114  1.6549 -0.1124 -1.6472
 2717SOL    MW410915   4.266   2.770   3.067  0.1369  0.0958 -0.4308
 2718SOL     OW10916   2.680   0.271   3.894  0.1158 -0.0480 -0.4461
 2718SOL    HW210917   2.586   0.270   3.878 -0.0792  2.2883  0.3829
 2718SOL    HW310918   2.692   0.338   3.961  1.9982 -2.7273  2.0190
 2718SOL    MW410919   2.669   0.280   3.901  0.3381 -0.0933 -0.0117
 2719SOL     OW10920   2.790   0.427   3.705 -0.3543  0.2797  0.0713
 2719SOL    HW210921   2.747   0.360   3.759  0.2694 -0.6786 -0.5989
 2719SOL    HW310922   2.721   0.491   3.688 -1.0085 -0.2688  0.6017
 2719SOL    MW410923   2.775   0.427   3.710 -0.3583  0.0809  0.0527
 2720SOL     OW10924   3.300   0.125   1.509  0.1293  0.2458  0.2395
 2720SOL    HW210925   3.356   0.069   1.455  0.9341 -0.0553  1.3384
 2720SOL    HW310926   3.294   0.208   1.461  2.5391  0.7095  0.6569
 2720SOL    MW410927   3.307   0.129   1.496  0.5534  0.2673  0.4395
 2721SOL     OW10928   2.499   2.368   3.870  0.0584 -0.0630  0.0186
 2721SOL    HW210929   2.536   2.411   3.794  0.9586 -0.2122  0.3694
 2721SOL    HW310930   2.421   2.324   3.837 -0.7045  1.5531 -0.4104
 2721SOL    MW410931   2.493   2.368   3.856  0.0765  0.1307  0.0083
 2722SOL     OW10932   0.376   0.437   3.728  0.3270  0.0462 -0.2308
 2722SOL    HW210933   0.460   0.467   3.691  1.0736 -0.5302  0.9805
 2722SOL    HW310934   0.318   0.512   3.717  1.2867  0.8230 -0.1513
 2722SOL    MW410935   0.380   0.451   3.721  0.5521  0.0727 -0.0606
 2723SOL     OW10936   4.230   4.646   1.874 -0.1768  0.1599 -0.2331
 2723SOL    HW210937   4.259   4.567   1.828 -1.1861 -1.2935  1.5252
 2723SOL    HW310938   4.236   4.716   1.809  1.0243 -1.3041 -1.7463
 2723SOL    MW410939   4.235   4.645   1.859 -0.1512 -0.2251 -0.2007
 2724SOL     OW10940   3.002   0.627   3.533 -0.2348 -0.0767 -0.9287
 2724SOL    HW210941   2.912   0.658   3.544  0.3844  1.7213 -0.7698
 2724SOL    HW310942   3.047   0.653   3.613  0.1743 -1.9467 -0.5285
 2724SOL    MW410943   2.996   0.634   3.545 -0.0997 -0.0862 -0.8550
 2725SOL     OW10944   1.798   2.064   1.102  0.0026  0.1492  0.3319
 2725SOL    HW210945   1.739   2.038   1.173 -1.7049  0.8389 -0.7892
 2725SOL    HW310946   1.876   2.097   1.147  0.1118 -2.0366  1.8315
 2725SOL    MW410947   1.800   2.065   1.118 -0.2084 -0.0482  0.3819
 2726SOL     OW10948   4.141   4.133   2.193  0.0543 -0.1197  0.1053
 2726SOL    HW210949   4.129   4.045   2.158 -0.2129  0.0288 -0.1727
 2726SOL    HW310950   4.134   4.191   2.118 -2.3171  0.3352  0.6383
 2726SOL    MW410951   4.139   4.129   2.179 -0.2942 -0.0401  0.1390
 2727SOL     OW10952   0.252   3.274   0.801 -0.4635 -0.3923 -0.1100
 2727SOL    HW210953   0.227   3.211   0.869 -3.4682 -0.0342 -0.8350
 2727SOL    HW310954   0.305   3.339   0.847 -1.9120 -0.5000  1.7670
 2727SOL    MW410955   0.256   3.274   0.816 -1.0510 -0.3593  0.0420
 2728SOL     OW10956   3.868   4.469   0.727  0.2829 -0.0915 -0.6259
 2728SOL    HW210957   3.823   4.510   0.800 -0.4125  0.6694 -1.4694
 2728SOL    HW310958   3.866   4.375   0.747 -0.5110  0.0557 -0.0089
 2728SOL    MW410959   3.862   4.462   0.739  0.0868  0.0281 -0.6558
 2729SOL     OW10960   3.515   0.740   4.263  0.1868 -0.2085  0.0596
 2729SOL    HW210961   3.512   0.729   4.358  0.9267 -1.1181 -0.0039
 2729SOL    HW310962   3.508   0.651   4.228  0.4460  0.0641 -0.7189
 2729SOL    MW410963   3.514   0.727   4.271  0.3185 -0.2925 -0.0520
 2730SOL     OW10964   3.454   0.142   2.080  0.3474 -0.5527 -0.6362
 2730SOL    HW210965   3.523   0.100   2.132 -1.1476 -2.2602  0.0171
 2730SOL    HW310966   3.421   0.072   2.024 -1.6514 -0.0724 -0.0947
 2730SOL    MW410967   3.459   0.127   2.080 -0.1135 -0.7146 -0.4785
 2731SOL     OW10968   3.836   0.123   2.869  0.1950 -0.3379 -0.3413
 2731SOL    HW210969   3.824   0.037   2.827  0.9186 -0.8961  0.5841
 2731SOL    HW310970   3.792   0.114   2.954 -0.0901  0.3524 -0.4137
 2731SOL    MW410971   3.828   0.110   2.874  0.2527 -0.3205 -0.2286
 2732SOL     OW10972   1.324   1.236   1.393 -0.0041 -0.1750 -0.1597
 2732SOL    HW210973   1.378   1.161   1.419 -0.1267 -0.2140 -0.0154
 2732SOL    HW310974   1.384   1.310   1.394  0.2333 -0.3568 -0.7899
 2732SOL    MW410975   1.339   1.236   1.397  0.0110 -0.2041 -0.2238
 2733SOL     OW10976   3.560   0.769   3.779 -0.6884 -0.1973  0.0664
 2733SOL    HW210977   3.576   0.833   3.848 -0.5758 -0.8432  0.6401
 2733SOL    HW310978   3.528   0.821   3.705  1.1885  0.7535 -0.1078
 2733SOL    MW410979   3.558   0.784   3.778 -0.4261 -0.1571  0.1192
 2734SOL     OW10980   1.334   3.445   3.093 -0.1062  0.6602 -0.0112
 2734SOL    HW210981   1.401   3.444   3.025  0.9739 -1.2130  1.0706
 2734SOL    HW310982   1.276   3.372   3.072 -0.9231  1.2939 -0.0287
 2734SOL    MW410983   1.335   3.435   3.082 -0.0714  0.4966  0.1292
 2735SOL     OW10984   2.223   2.067   0.993  0.0359  0.2333  0.0162
 2735SOL    HW210985   2.182   2.094   1.074 -1.2030  0.5875 -0.7178
 2735SOL    HW310986   2.168   1.995   0.961 -0.0692  0.7704 -1.0195
 2735SOL    MW410987   2.210   2.061   0.999 -0.1416  0.3510 -0.2173
 2736SOL     OW10988   2.405   4.492   3.416 -0.3143  0.2532  0.0730
 2736SOL    HW210989   2.383   4.580   3.448 -2.3118  0.4370 -1.6837
 2736SOL    HW310990   2.401   4.500   3.321  0.5410 -1.4876 -0.1157
 2736SOL    MW410991   2.401   4.505   3.408 -0.4652  0.0477 -0.1838
 2737SOL     OW10992   3.020   4.628   2.845 -0.0300  0.2939  0.1079
 2737SOL    HW210993   3.030   4.647   2.752 -0.7718  1.6766  0.2990
 2737SOL    HW310994   3.044   4.709   2.890 -0.2450 -0.1724  1.0943
 2737SOL    MW410995   3.024   4.641   2.839 -0.1564  0.4148  0.2632
 2738SOL     OW10996   1.640   3.609   3.725 -0.1056  0.0657  0.2118
 2738SOL    HW210997   1.703   3.631   3.794 -1.9592  1.3702  1.5128
 2738SOL    HW310998   1.580   3.548   3.766  0.4463 -1.4020 -1.1183
 2738SOL    MW410999   1.641   3.604   3.740 -0.2773  0.0441  0.2081
 2739SOL     OW11000   2.567   1.038   3.725 -0.1384  0.3638  0.6789
 2739SOL    HW211001   2.594   1.130   3.721 -1.3285  0.7041  0.2190
 2739SOL    HW311002   2.502   1.035   3.794  0.4822 -0.2969  1.2412
 2739SOL    MW411003   2.562   1.050   3.733 -0.2134  0.3215  0.6926
 2740SOL     OW11004   2.054   2.668   1.742  0.0819 -0.0153  0.1352
 2740SOL    HW211005   2.067   2.668   1.836  0.4686 -1.1072  0.0855
 2740SOL    HW311006   1.963   2.639   1.730 -0.0501  0.3790  0.1820
 2740SOL    MW411007   2.044   2.664   1.753  0.1154 -0.1070  0.1348
 2741SOL     OW11008   0.553   3.599   1.196  0.3399  0.2197 -0.1604
 2741SOL    HW211009   0.567   3.622   1.104  0.3723 -0.7419 -0.4025
 2741SOL    HW311010   0.553   3.503   1.197  0.9497  0.2276  0.9369
 2741SOL    MW411011   0.555   3.590   1.184  0.4247  0.0937 -0.0477
 2742SOL     OW11012   0.247   1.952   3.105  0.0124  0.3119 -0.1578
 2742SOL    HW211013   0.155   1.975   3.106 -0.0940 -0.0951 -0.3629
 2742SOL    HW311014   0.248   1.858   3.124  0.3544  0.2182 -0.6532
 2742SOL    MW411015   0.235   1.942   3.108  0.0435  0.2458 -0.2503
 2743SOL     OW11016   1.896   0.017   2.771  0.2504  0.1365  0.3231
 2743SOL    HW211017   1.897   0.025   2.675 -0.4392 -1.7327  0.1452
 2743SOL    HW311018   1.989   0.014   2.795  0.4236 -0.8187 -0.4232
 2743SOL    MW411019   1.909   0.017   2.761  0.1824 -0.2361  0.2012
 2744SOL     OW11020   0.662   0.170   3.282 -0.5696 -0.1251  0.1384
 2744SOL    HW211021   0.691   0.257   3.311 -0.4526 -0.2334  0.3490
 2744SOL    HW311022   0.621   0.185   3.197  0.6759 -0.0690 -0.4514
 2744SOL    MW411023   0.660   0.184   3.275 -0.3899 -0.1320  0.0885
 2745SOL     OW11024   0.941   2.810   3.325 -0.3029  0.2400 -0.1550
 2745SOL    HW211025   0.968   2.770   3.408 -2.2376  0.4960  0.6289
 2745SOL    HW311026   0.917   2.735   3.270 -1.2267  0.1536  0.3402
 2745SOL    MW411027   0.941   2.795   3.329 -0.6801  0.2627  0.0138
 2746SOL     OW11028   3.854   3.629   3.862  0.1545 -0.0138 -0.2474
 2746SOL    HW211029   3.896   3.705   3.822 -1.3898  0.5257 -0.8742
 2746SOL    HW311030   3.787   3.603   3.799 -2.3081  0.8187  1.9574
 2746SOL    MW411031   3.851   3.635   3.848 -0.3736  0.1671 -0.0393
 2747SOL     OW11032   2.611   0.840   1.074  0.1484 -0.5281 -0.1609
 2747SOL    HW211033   2.544   0.857   1.007 -0.3576 -0.4323  0.3683
 2747SOL    HW311034   2.578   0.884   1.152  0.8177 -0.5068  0.1111
 2747SOL    MW411035   2.598   0.848   1.075  0.1700 -0.5127 -0.0552
 2748SOL     OW11036   2.589   1.236   4.069 -0.5719  0.1761 -0.3824
 2748SOL    HW211037   2.579   1.241   4.164  0.4887 -1.0505 -0.1860
 2748SOL    HW311038   2.684   1.231   4.056 -0.7908 -1.5925 -1.3949
 2748SOL    MW411039   2.600   1.236   4.080 -0.4609 -0.2192 -0.4902
 2749SOL     OW11040   0.769   2.192   0.524  0.5144  0.1517  0.4670
 2749SOL    HW211041   0.768   2.152   0.437 -1.4922 -0.7064  0.8709
 2749SOL    HW311042   0.695   2.252   0.525  2.3567  2.5414  0.5481
 2749SOL    MW411043   0.759   2.195   0.512  0.4928  0.3538  0.5311
 2750SOL     OW11044   2.328   2.127   1.563  0.0899 -0.2370  0.2910
 2750SOL    HW211045   2.281   2.198   1.519  1.0588 -0.0820 -0.5145
 2750SOL    HW311046   2.338   2.059   1.496  0.8131 -0.3539  0.5111
 2750SOL    MW411047   2.323   2.127   1.548  0.3130 -0.2320  0.2137
 2751SOL     OW11048   1.300   3.720   2.784  0.1623  0.4881 -0.2873
 2751SOL    HW211049   1.231   3.685   2.841  0.4734  1.3996  0.6741
 2751SOL    HW311050   1.327   3.645   2.731 -0.7425 -0.1722  0.1639
 2751SOL    MW411051   1.294   3.705   2.785  0.0839  0.5214 -0.1011
 2752SOL     OW11052   2.949   1.225   1.210  0.6014  0.0668  0.4653
 2752SOL    HW211053   2.992   1.176   1.280  0.6352  0.7565  0.9323
 2752SOL    HW311054   2.911   1.158   1.153  0.2927 -0.4932  1.3220
 2752SOL    MW411055   2.949   1.210   1.212  0.5653  0.0839  0.6400
 2753SOL     OW11056   3.185   1.939   2.884 -0.0424 -0.0583  0.1558
 2753SOL    HW211057   3.146   1.855   2.909 -0.7643  0.3973  0.5758
 2753SOL    HW311058   3.111   1.998   2.875  0.5085  0.6921  0.4798
 2753SOL    MW411059   3.170   1.936   2.886 -0.0648  0.1007  0.2539
 2754SOL     OW11060   0.834   1.557   4.133 -0.1550 -0.4119 -0.5647
 2754SOL    HW211061   0.872   1.483   4.086 -1.8253 -0.6277 -1.6514
 2754SOL    HW311062   0.906   1.594   4.183  0.9023 -2.2338 -0.7052
 2754SOL    MW411063   0.848   1.552   4.133 -0.2359 -0.6807 -0.7262
 2755SOL     OW11064   2.101   0.960   2.041 -0.4328 -0.2465  0.1520
 2755SOL    HW211065   2.021   1.002   2.010 -0.2993 -1.1230 -1.4146
 2755SOL    HW311066   2.104   0.876   1.995  1.1649 -0.4064  0.5179
 2755SOL    MW411067   2.091   0.955   2.031 -0.2043 -0.3832 -0.0064
 2756SOL     OW11068   2.407   0.746   2.892  0.7890  0.0058  0.0578
 2756SOL    HW211069   2.403   0.782   2.980  1.3149  1.0196 -0.3293
 2756SOL    HW311070   2.328   0.780   2.849  1.2564  0.6641 -0.2900
 2756SOL    MW411071   2.396   0.755   2.898  0.9203  0.2264 -0.0391
 2757SOL     OW11072   4.469   2.220   2.011  0.7217 -0.3420 -0.1793
 2757SOL    HW211073   4.525   2.239   2.086  0.2976 -2.7541  0.8059
 2757SOL    HW311074   4.405   2.157   2.044 -0.4244 -0.2685 -2.1772
 2757SOL    MW411075   4.468   2.214   2.025  0.5145 -0.6504 -0.3128
 2758SOL     OW11076   0.226   1.989   3.426  0.3122  0.2341  0.2360
 2758SOL    HW211077   0.274   2.072   3.425  0.1986  0.3370  1.5794
 2758SOL    HW311078   0.144   2.009   3.381  0.2375  0.8874  0.6574
 2758SOL    MW411079   0.221   2.003   3.420  0.2873  0.3338  0.4687
 2759SOL     OW11080   3.958   4.366   1.151  0.6674 -0.3263  0.0339
 2759SOL    HW211081   3.974   4.429   1.220  1.4133  0.9915 -1.3147
 2759SOL    HW311082   4.045   4.346   1.116  0.2140 -0.2512 -1.1548
 2759SOL    MW411083   3.972   4.371   1.155  0.7060 -0.1431 -0.3009
 2760SOL     OW11084   0.888   2.455   3.618 -0.5151 -0.1164 -0.2887
 2760SOL    HW211085   0.840   2.533   3.591 -0.3609 -0.0658 -0.4189
 2760SOL    HW311086   0.825   2.405   3.670 -0.2610  0.6615  0.7958
 2760SOL    MW411087   0.873   2.459   3.621 -0.4613 -0.0069 -0.1628
 2761SOL     OW11088   0.986   1.858   0.761 -0.3782  0.3544  0.1824
 2761SOL    HW211089   0.905   1.908   0.751 -0.4245  0.0637 -0.9843
 2761SOL    HW311090   1.055   1.924   0.765 -0.7203  0.6263  1.7603
 2761SOL    MW411091   0.984   1.873   0.760 -0.4295  0.3519  0.2367
 2762SOL     OW11092   3.481   4.109   0.701  0.3826 -0.7778  0.2634
 2762SOL    HW211093   3.531   4.104   0.782  0.3092  0.3205  0.3856
 2762SOL    HW311094   3.393   4.134   0.729 -0.3402 -2.9672  0.0776
 2762SOL    MW411095   3.476   4.112   0.715  0.2778 -0.9217  0.2550
 2763SOL     OW11096   3.715   0.072   1.318 -0.1950 -0.4269  0.8750
 2763SOL    HW211097   3.781   0.068   1.249 -0.4016 -0.2890  0.6684
 2763SOL    HW311098   3.696   0.165   1.328 -1.2398 -0.5440  0.0889
 2763SOL    MW411099   3.721   0.083   1.310 -0.3600 -0.4241  0.7440
 2764SOL     OW11100   0.825   1.648   3.359 -0.2458  0.3793  0.0267
 2764SOL    HW211101   0.786   1.731   3.332 -0.6848  0.4469  0.8566
 2764SOL    HW311102   0.840   1.658   3.453 -0.4117 -0.5275  0.1477
 2764SOL    MW411103   0.822   1.660   3.368 -0.3256  0.2686  0.1521
 2765SOL     OW11104   0.328   0.256   0.233 -0.0325 -0.0367 -0.1503
 2765SOL    HW211105   0.316   0.192   0.162 -1.7518 -2.1976  2.0175
 2765SOL    HW311106   0.419   0.245   0.259  0.1717 -0.3418 -0.9660
 2765SOL    MW411107   0.339   0.246   0.227 -0.2324 -0.3621  0.0281
 2766SOL     OW11108   0.142   3.104   0.984 -0.1896  0.0527 -0.1147
 2766SOL    HW211109   0.113   3.025   0.940 -0.8701  0.5658 -0.5946
 2766SOL    HW311110   0.062   3.155   0.999  0.2094  0.5398  0.4107
 2766SOL    MW411111   0.128   3.101   0.980 -0.2268  0.1848 -0.1087
 2767SOL     OW11112   2.956   2.354   2.212  0.8301  0.2352 -0.3897
 2767SOL    HW211113   2.874   2.332   2.168  0.7491 -0.7837  0.2320
 2767SOL    HW311114   2.960   2.449   2.209 -1.6333  0.4792  1.7501
 2767SOL    MW411115   2.946   2.363   2.206  0.4945  0.1328 -0.0255
 2768SOL     OW11116   3.536   3.489   4.009  0.1983  0.0461  0.3354
 2768SOL    HW211117   3.489   3.510   4.089  0.6772 -0.6800  0.8190
 2768SOL    HW311118   3.600   3.422   4.035 -0.5502 -1.1861 -0.9262
 2768SOL    MW411119   3.539   3.483   4.023  0.1628 -0.2120  0.2332
 2769SOL     OW11120   0.181   3.945   3.785 -0.1261  0.2543 -0.3846
 2769SOL    HW211121   0.179   3.911   3.696  0.2952 -0.4222 -0.1345
 2769SOL    HW311122   0.168   3.869   3.841 -1.2422  0.7976  0.1113
 2769SOL    MW411123   0.179   3.931   3.781 -0.2178  0.2367 -0.2863
 2770SOL     OW11124   2.371   3.004   2.192 -0.1055  0.4527  0.3879
 2770SOL    HW211125   2.462   2.987   2.166 -0.2668 -0.6404  0.5345
 2770SOL    HW311126   2.331   3.042   2.113 -0.4502 -2.3583 -0.8454
 2770SOL    MW411127   2.378   3.007   2.178 -0.1721 -0.0625  0.2444
 2771SOL     OW11128   1.346   1.520   0.719  0.6296  0.3436 -0.4544
 2771SOL    HW211129   1.360   1.474   0.636  2.1493  1.9180 -1.0925
 2771SOL    HW311130   1.275   1.582   0.701  0.8485  0.5713 -0.5340
 2771SOL    MW411131   1.338   1.522   0.706  0.8590  0.5815 -0.5491
 2772SOL     OW11132   1.205   3.885   1.337 -0.1268 -0.3170 -0.4756
 2772SOL    HW211133   1.283   3.936   1.318 -0.8949  1.0843  0.0462
 2772SOL    HW311134   1.201   3.820   1.266  2.7898 -1.9753  0.8256
 2772SOL    MW411135   1.215   3.883   1.325  0.1568 -0.3510 -0.2351
 2773SOL     OW11136   2.241   3.192   3.744  0.0351  0.5419 -0.2416
 2773SOL    HW211137   2.237   3.109   3.790  0.7951  0.7039  0.1300
 2773SOL    HW311138   2.255   3.169   3.652 -0.9499  0.2332 -0.3170
 2773SOL    MW411139   2.242   3.178   3.738  0.0055  0.5226 -0.2024
 2774SOL     OW11140   2.052   0.046   0.722  0.3599 -0.6322 -0.0562
 2774SOL    HW211141   2.004   0.098   0.785  0.8657  0.2626 -0.3991
 2774SOL    HW311142   1.985  -0.001   0.673 -0.0607 -0.8467  0.7187
 2774SOL    MW411143   2.037   0.046   0.724  0.3712 -0.5424  0.0008
 2775SOL     OW11144   2.481   4.340   0.182  0.0083  0.0340  0.1383
 2775SOL    HW211145   2.522   4.297   0.257 -0.4122 -0.2606  0.2039
 2775SOL    HW311146   2.441   4.268   0.132  0.4687  0.1995 -0.4826
 2775SOL    MW411147   2.481   4.325   0.185  0.0134  0.0167  0.0650
 2776SOL     OW11148   0.543   2.671   2.175  0.1278 -0.4906  0.2186
 2776SOL    HW211149   0.624   2.692   2.129  1.3612 -3.6017  0.8499
 2776SOL    HW311150   0.498   2.608   2.118  0.2262 -2.0341  1.7918
 2776SOL    MW411151   0.548   2.665   2.161  0.3036 -1.1044  0.5093
 2777SOL     OW11152   1.623   0.249   2.564 -0.2638 -0.4608  0.9788
 2777SOL    HW211153   1.699   0.303   2.584 -0.1024 -0.5066  0.4973
 2777SOL    HW311154   1.583   0.291   2.488 -0.8361 -0.3222  1.3467
 2777SOL    MW411155   1.627   0.262   2.557 -0.3181 -0.4486  0.9634
 2778SOL     OW11156   2.313   1.892   1.408  0.3661 -0.0982  0.2443
 2778SOL    HW211157   2.343   1.896   1.318 -0.0716 -1.0758  0.0396
 2778SOL    HW311158   2.365   1.822   1.448 -0.5911 -0.8031  0.2870
 2778SOL    MW411159   2.324   1.883   1.402  0.1824 -0.3202  0.2228
 2779SOL     OW11160   2.847   3.917   3.906  0.2306 -0.0753 -0.2017
 2779SOL    HW211161   2.820   3.910   3.814  0.5294  1.6703 -0.4277
 2779SOL    HW311162   2.802   3.844   3.949 -0.9032 -0.1650 -1.4984
 2779SOL    MW411163   2.838   3.906   3.900  0.1206  0.1431 -0.4027
 2780SOL     OW11164   4.377   1.183   0.272 -0.0303  0.1662 -0.5013
 2780SOL    HW211165   4.421   1.135   0.202  0.3198 -0.4527  0.1359
 2780SOL    HW311166   4.321   1.118   0.314  0.8226  0.1890  0.6837
 2780SOL    MW411167   4.375   1.168   0.268  0.1283  0.0876 -0.2609
 2781SOL     OW11168   1.517   1.799   1.120 -0.2323  0.5897  0.9587
 2781SOL    HW211169   1.552   1.842   1.198 -0.5803 -0.3126  1.6172
 2781SOL    HW311170   1.435   1.759   1.149 -0.9389  1.2152 -0.1555
 2781SOL    MW411171   1.511   1.800   1.134 -0.3715  0.5531  0.8986
 2782SOL     OW11172   1.579   2.920   1.915  0.5936 -0.3014  0.0335
 2782SOL    HW211173   1.565   2.826   1.913 -0.5636 -0.1376  0.0607
 2782SOL    HW311174   1.670   2.931   1.944  0.1105 -1.3470  1.9754
 2782SOL    MW411175   1.589   2.909   1.919  0.3773 -0.4177  0.2933
 2783SOL     OW11176   1.901   2.756   2.542  0.2954  0.0256 -0.2794
 2783SOL    HW211177   1.846   2.792   2.472 -0.6494  2.1439  1.5007
 2783SOL    HW311178   1.986   2.743   2.501 -0.4287  0.5943 -2.0104
 2783SOL    MW411179   1.905   2.759   2.527  0.0752  0.3803 -0.2730
 2784SOL     OW11180   3.568   1.505   3.766 -0.2349  0.0034 -1.0536
 2784SOL    HW211181   3.550   1.504   3.860  0.0151 -1.2285 -1.0177
 2784SOL    HW311182   3.506   1.570   3.731 -0.6093  0.1742 -0.1024
 2784SOL    MW411183   3.557   1.514   3.774 -0.2515 -0.1366 -0.9234
 2785SOL     OW11184   0.794   1.208   3.159 -0.4443 -0.3555 -0.1836
 2785SOL    HW211185   0.751   1.184   3.241 -0.3773  0.5523  0.1168
 2785SOL    HW311186   0.811   1.301   3.167 -0.1750 -0.3211 -1.1149
 2785SOL    MW411187   0.791   1.217   3.171 -0.3999 -0.2313 -0.2670
 2786SOL     OW11188   4.098   3.598   2.153 -0.5143 -0.1678  0.0514
 2786SOL    HW211189   4.150   3.634   2.225  1.7386 -0.5732 -1.3311
 2786SOL    HW311190   4.100   3.666   2.086 -1.1770 -0.4840 -0.2885
 2786SOL    MW411191   4.105   3.612   2.154 -0.3042 -0.2632 -0.1757
 2787SOL     OW11192   0.737   4.236   4.122 -0.4717  0.0997  0.3255
 2787SOL    HW211193   0.696   4.320   4.140 -0.2202  0.2604  0.1603
 2787SOL    HW311194   0.746   4.234   4.027 -0.0486  0.0926  0.3620
 2787SOL    MW411195   0.733   4.247   4.112 -0.3827  0.1202  0.3085
 2788SOL     OW11196   3.143   4.662   0.349  0.2791 -0.5388 -0.0602
 2788SOL    HW211197   3.174   4.749   0.373  0.4442 -0.6874  0.2763
 2788SOL    HW311198   3.222   4.614   0.325  0.1440 -0.4811 -0.6079
 2788SOL    MW411199   3.158   4.667   0.349  0.2830 -0.5507 -0.0880
 2789SOL     OW11200   0.051   2.416   1.661  0.0764  0.5321 -0.3871
 2789SOL    HW211201   0.084   2.326   1.658 -0.2803  0.3917 -0.1866
 2789SOL    HW311202  -0.036   2.408   1.699 -0.2148  0.8949 -0.9772
 2789SOL    MW411203   0.044   2.403   1.666 -0.0090  0.5612 -0.4386
 2790SOL     OW11204   0.133   0.481   0.611  0.3079 -0.1665 -0.1824
 2790SOL    HW211205   0.179   0.486   0.527 -1.4131  1.9759 -1.0540
 2790SOL    HW311206   0.118   0.572   0.636 -0.3213 -0.7895  1.8319
 2790SOL    MW411207   0.137   0.494   0.603 -0.0022  0.0340 -0.0316
 2791SOL     OW11208   1.299   0.285   2.602  0.3618  0.4386  0.6759
 2791SOL    HW211209   1.329   0.236   2.678  0.6085  2.7699  2.1337
 2791SOL    HW311210   1.210   0.252   2.586  1.2312 -1.8443  0.3825
 2791SOL    MW411211   1.291   0.274   2.610  0.5091  0.4450  0.8295
 2792SOL     OW11212   3.109   2.385   0.896  0.0413  0.1813  0.4254
 2792SOL    HW211213   3.167   2.447   0.851 -0.7281  0.5900 -0.0241
 2792SOL    HW311214   3.138   2.387   0.987 -0.2735  1.5768  0.5132
 2792SOL    MW411215   3.120   2.394   0.902 -0.1018  0.4191  0.3777
 2793SOL     OW11216   1.814   4.571   2.367 -0.3003  0.0484 -0.0061
 2793SOL    HW211217   1.790   4.645   2.312 -0.7135  0.3520  0.5811
 2793SOL    HW311218   1.755   4.576   2.442  1.5509  0.7406  1.4266
 2793SOL    MW411219   1.803   4.581   2.370 -0.1106  0.1793  0.2606
 2794SOL     OW11220   1.433   2.115   4.117 -0.5162  0.0521 -0.0087
 2794SOL    HW211221   1.496   2.187   4.109 -1.3075  0.7000 -0.4601
 2794SOL    HW311222   1.353   2.157   4.149 -0.4792 -0.8992  1.3550
 2794SOL    MW411223   1.431   2.130   4.120 -0.6157  0.0122  0.1121
 2795SOL     OW11224   3.641   0.052   2.273 -0.4846  0.0228  0.2681
 2795SOL    HW211225   3.700  -0.022   2.259 -0.9604 -0.3416  0.1900
 2795SOL    HW311226   3.600   0.035   2.357 -2.2595 -0.9566 -0.7497
 2795SOL    MW411227   3.643   0.040   2.282 -0.7815 -0.1546  0.1235
 2796SOL     OW11228   2.512   0.980   1.297 -0.0602 -0.1559  0.2024
 2796SOL    HW211229   2.527   1.074   1.311 -0.0578 -0.0279 -0.6760
 2796SOL    HW311230   2.580   0.937   1.349  1.4372  0.3737 -1.2891
 2796SOL    MW411231   2.523   0.987   1.306  0.1378 -0.0691 -0.1103
 2797SOL     OW11232   3.993   1.693   3.299 -0.4917 -0.0603  0.4178
 2797SOL    HW211233   4.026   1.623   3.356  0.2524 -0.5581 -0.6155
 2797SOL    HW311234   4.046   1.686   3.219 -0.6471  1.4618  0.1688
 2797SOL    MW411235   4.004   1.683   3.296 -0.4139  0.0749  0.2484
 2798SOL     OW11236   1.296   3.622   4.168  0.2001  0.2810  0.2335
 2798SOL    HW211237   1.315   3.621   4.262  0.2849  0.4514  0.2192
 2798SOL    HW311238   1.375   3.585   4.128  0.8698  1.7882  0.1152
 2798SOL    MW411239   1.309   3.617   4.175  0.2996  0.5023  0.2160
 2799SOL     OW11240   1.497   3.471   0.251 -0.0563 -0.3068 -0.0089
 2799SOL    HW211241   1.416   3.444   0.294  0.5039 -1.3219  0.4436
 2799SOL    HW311242   1.549   3.390   0.245  1.3613  0.5211  0.6761
 2799SOL    MW411243   1.493   3.457   0.256  0.2046 -0.3316  0.1412
 2800SOL     OW11244   4.298   2.620   1.034  0.1789  0.2522 -0.4496
 2800SOL    HW211245   4.292   2.565   1.112 -0.4385 -0.0724 -0.7257
 2800SOL    HW311246   4.306   2.709   1.069 -0.6467  0.1642 -0.0109
 2800SOL    MW411247   4.298   2.624   1.049 -0.0119  0.1976 -0.4282
 2801SOL     OW11248   1.526   3.463   2.877 -0.0986 -0.3333  0.1777
 2801SOL    HW211249   1.484   3.477   2.792 -1.1856 -0.7108  0.6437
 2801SOL    HW311250   1.617   3.490   2.864 -1.1902  3.6441 -0.0097
 2801SOL    MW411251   1.533   3.469   2.864 -0.3859  0.1419  0.2146
 2802SOL     OW11252   2.950   3.131   0.534  0.1066 -0.8332  0.3853
 2802SOL    HW211253   3.007   3.067   0.492  0.7276 -1.0346  1.5275
 2802SOL    HW311254   2.900   3.080   0.598 -0.2899 -0.3941  0.4305
 2802SOL    MW411255   2.951   3.116   0.537  0.1361 -0.8020  0.5420
 2803SOL     OW11256   0.731   2.681   3.569  0.3112 -0.3472  0.1582
 2803SOL    HW211257   0.783   2.761   3.572  0.8383 -0.6869  0.1687
 2803SOL    HW311258   0.644   2.707   3.598 -0.4501  0.9405 -3.0406
 2803SOL    MW411259   0.726   2.695   3.573  0.2803 -0.2220 -0.2625
 2804SOL     OW11260   1.701   3.435   2.364 -0.1250  0.1520 -0.1017
 2804SOL    HW211261   1.734   3.418   2.276  3.1667  0.3341  0.9953
 2804SOL    HW311262   1.704   3.350   2.408 -1.7254  0.0647 -0.1550
 2804SOL    MW411263   1.706   3.422   2.358  0.0980  0.1645  0.0360
 2805SOL     OW11264   4.440   1.308   3.149  0.0949 -0.4001  0.5445
 2805SOL    HW211265   4.432   1.213   3.155 -0.3639 -0.4856 -1.0148
 2805SOL    HW311266   4.356   1.341   3.181 -0.1309 -0.5782  0.1512
 2805SOL    MW411267   4.428   1.300   3.154  0.0048 -0.4350  0.2871
 2806SOL     OW11268   0.288   0.045   0.027  0.4777 -0.3478  0.7354
 2806SOL    HW211269   0.347   0.011  -0.040 -0.0954 -1.5189  0.8020
 2806SOL    HW311270   0.292  -0.019   0.098  0.4863  0.4832  1.4996
 2806SOL    MW411271   0.296   0.032   0.028  0.4032 -0.3927  0.8451
 2807SOL     OW11272   0.335   0.127   3.277  0.2917  0.0490 -0.6386
 2807SOL    HW211273   0.288   0.047   3.297  1.7616 -0.6968 -0.0302
 2807SOL    HW311274   0.368   0.157   3.362 -0.2901  1.3212 -0.8539
 2807SOL    MW411275   0.333   0.121   3.291  0.4089  0.1185 -0.5867
 2808SOL     OW11276   0.018   3.082   2.111 -0.1779 -0.0118  0.2974
 2808SOL    HW211277   0.063   3.116   2.034 -3.7789  0.3603 -1.7526
 2808SOL    HW311278   0.039   2.989   2.112  1.2454  0.2910 -0.1452
 2808SOL    MW411279   0.027   3.074   2.101 -0.4652  0.0775 -0.0312
 2809SOL     OW11280   2.231   4.072   1.452  0.0191  0.2213 -0.3740
 2809SOL    HW211281   2.258   4.158   1.421  0.5242 -0.2228 -1.1881
 2809SOL    HW311282   2.136   4.070   1.439  0.1215  0.3370 -1.1602
 2809SOL    MW411283   2.222   4.083   1.446  0.0994  0.1783 -0.5851
 2810SOL     OW11284   3.513   1.804   3.913  0.0744  0.2523 -0.4609
 2810SOL    HW211285   3.527   1.730   3.972  0.5601  0.3858 -0.4084
 2810SOL    HW311286   3.464   1.766   3.840  0.3818 -0.1428 -0.4680
 2810SOL    MW411287   3.509   1.789   3.911  0.1788  0.2177 -0.4549
 2811SOL     OW11288   1.891   1.380   2.057 -0.2718 -0.0858  0.7483
 2811SOL    HW211289   1.973   1.409   2.019 -0.7168  1.1272  0.6792
 2811SOL    HW311290   1.917   1.331   2.136  0.6079 -2.0467 -0.7131
 2811SOL    MW411291   1.905   1.377   2.063 -0.2143 -0.1845  0.5465
 2812SOL     OW11292   3.169   3.367   4.212 -0.3132  0.0925  0.2140
 2812SOL    HW211293   3.128   3.412   4.139 -1.3998 -0.7781  0.2864
 2812SOL    HW311294   3.229   3.432   4.250  0.0740  0.6197 -1.2807
 2812SOL    MW411295   3.172   3.382   4.207 -0.4055  0.0472  0.0267
 2813SOL     OW11296   4.283   0.602   0.461 -0.3860  0.2985  0.2719
 2813SOL    HW211297   4.267   0.508   0.452 -0.2503  0.0587  2.2574
 2813SOL    HW311298   4.364   0.617   0.413 -0.8058 -0.4596 -0.6897
 2813SOL    MW411299   4.292   0.591   0.454 -0.4239  0.1669  0.4070
 2814SOL     OW11300   3.427   3.163   2.433  0.6976 -0.0078  0.1093
 2814SOL    HW211301   3.469   3.105   2.371  1.9010  0.1139  0.8058
 2814SOL    HW311302   3.393   3.106   2.502  0.4272 -0.0256 -0.0343
 2814SOL    MW411303   3.428   3.148   2.434  0.8206  0.0057  0.1822
 2815SOL     OW11304   3.270   0.792   1.776 -0.4091  0.4561 -0.5982
 2815SOL    HW211305   3.216   0.762   1.850  0.2369  1.2118  0.1913
 2815SOL    HW311306   3.243   0.736   1.703 -0.8364 -0.5226  0.2858
 2815SOL    MW411307   3.259   0.781   1.776 -0.3803  0.4266 -0.3774
 2816SOL     OW11308   4.488   0.970   1.830  0.2035 -0.4905 -0.4072
 2816SOL    HW211309   4.527   1.017   1.756 -0.6587 -0.5536 -0.9043
 2816SOL    HW311310   4.396   0.996   1.829 -0.0146 -1.2355  0.0638
 2816SOL    MW411311   4.481   0.979   1.820  0.0610 -0.5971 -0.4108
 2817SOL     OW11312   0.123   2.816   0.439 -0.0849  0.2310 -0.1040
 2817SOL    HW211313   0.040   2.828   0.393  0.6037  0.9958 -1.1823
 2817SOL    HW311314   0.190   2.834   0.372  0.9443 -0.7570  0.6480
 2817SOL    MW411315   0.121   2.820   0.424  0.1417  0.2015 -0.1470
 2818SOL     OW11316   3.305   2.137   0.596  0.3741  0.0630  0.6097
 2818SOL    HW211317   3.371   2.100   0.537 -0.3093 -0.1695 -0.0218
 2818SOL    HW311318   3.282   2.221   0.556  1.7726  1.0878  1.9314
 2818SOL    MW411319   3.311   2.143   0.583  0.4683  0.1678  0.7008
 2819SOL     OW11320   3.734   0.151   4.145  0.3255  0.5234 -0.1357
 2819SOL    HW211321   3.754   0.237   4.108  0.1443  0.8319  0.4759
 2819SOL    HW311322   3.669   0.113   4.086  0.8564  0.5539 -0.7433
 2819SOL    MW411323   3.728   0.157   4.132  0.3715  0.5681 -0.1349
 2820SOL     OW11324   0.452   3.368   3.898 -0.1978 -0.2482  0.0532
 2820SOL    HW211325   0.420   3.300   3.839  0.5709 -0.2517 -0.3750
 2820SOL    HW311326   0.540   3.388   3.865 -0.8446  1.7608 -0.5182
 2820SOL    MW411327   0.460   3.362   3.886 -0.1817  0.0167 -0.0787
 2821SOL     OW11328   2.154   4.236   3.235  0.4013 -1.1256  0.3055
 2821SOL    HW211329   2.188   4.230   3.324  0.6003  1.0444  0.3899
 2821SOL    HW311330   2.075   4.181   3.236 -0.5844  0.2666  2.3238
 2821SOL    MW411331   2.148   4.228   3.247  0.2978 -0.6561  0.5832
 2822SOL     OW11332   3.845   1.135   1.562  0.6148 -0.0021 -0.1750
 2822SOL    HW211333   3.802   1.219   1.545  2.1125  0.9956  0.7889
 2822SOL    HW311334   3.776   1.080   1.600 -0.4363  0.7095 -1.0163
 2822SOL    MW411335   3.830   1.139   1.565  0.6738  0.2234 -0.1588
 2823SOL     OW11336   0.700   4.209   3.021 -0.0534 -0.2153  0.2653
 2823SOL    HW211337   0.637   4.252   3.078 -0.4903  1.3906 -1.3934
 2823SOL    HW311338   0.784   4.219   3.066 -0.4102  0.9307  0.6824
 2823SOL    MW411339   0.703   4.216   3.035 -0.1581  0.1478  0.1013
 2824SOL     OW11340   1.923   2.190   0.581 -0.4689  0.2195  0.3913
 2824SOL    HW211341   1.991   2.175   0.647  1.2579 -0.0395 -1.4028
 2824SOL    HW311342   1.880   2.105   0.572  0.2344 -0.1208  0.1699
 2824SOL    MW411343   1.927   2.177   0.588 -0.1482  0.1400  0.1254
 2825SOL     OW11344   0.058   2.808   2.151 -0.1733 -0.4460  0.2407
 2825SOL    HW211345   0.028   2.799   2.241 -1.2698 -0.3013 -0.1086
 2825SOL    HW311346   0.107   2.727   2.134 -1.9771 -1.5512  0.1907
 2825SOL    MW411347   0.061   2.796   2.161 -0.5560 -0.5724  0.1881
 2826SOL     OW11348   2.046   2.388   3.722  0.4617  0.6026  0.0551
 2826SOL    HW211349   1.969   2.437   3.753 -0.0311 -0.0132 -0.1952
 2826SOL    HW311350   2.116   2.453   3.721 -0.6132  1.7865 -2.0549
 2826SOL    MW411351   2.045   2.403   3.726  0.2546  0.6773 -0.2565
 2827SOL     OW11352   0.230   3.483   1.922  0.5821 -0.4972 -0.1590
 2827SOL    HW211353   0.295   3.480   1.852  0.4423 -0.8358 -0.2734
 2827SOL    HW311354   0.156   3.530   1.884  0.8543  0.0972  0.0487
 2827SOL    MW411355   0.229   3.489   1.908  0.5996 -0.4635 -0.1466
 2828SOL     OW11356   4.226   1.470   0.682 -0.2981  0.3303  0.2771
 2828SOL    HW211357   4.182   1.496   0.601  2.0356 -0.6432 -1.3536
 2828SOL    HW311358   4.267   1.550   0.714 -0.2467  0.4663 -0.1289
 2828SOL    MW411359   4.226   1.484   0.676  0.0167  0.2198  0.0083
 2829SOL     OW11360   3.097   3.901   2.754 -0.2654 -0.8377 -0.7475
 2829SOL    HW211361   3.110   3.996   2.759  2.0244 -1.1912  1.4402
 2829SOL    HW311362   3.022   3.885   2.810 -1.2971 -0.2344 -1.9279
 2829SOL    MW411363   3.089   3.912   2.762 -0.0994 -0.8049 -0.6151
 2830SOL     OW11364   2.718   4.666   3.923 -0.5267 -0.3679  0.0122
 2830SOL    HW211365   2.683   4.620   3.847 -0.8789 -0.9238  0.5033
 2830SOL    HW311366   2.701   4.758   3.905 -2.3429 -0.6322  0.2836
 2830SOL    MW411367   2.711   4.672   3.911 -0.8128 -0.4761  0.1128
 2831SOL     OW11368   1.759   1.050   2.226  0.1967  0.0731 -0.1508
 2831SOL    HW211369   1.690   1.062   2.292 -1.0220  0.0590 -1.3888
 2831SOL    HW311370   1.784   0.958   2.234 -0.4161 -0.0962 -0.1495
 2831SOL    MW411371   1.753   1.039   2.236 -0.0448  0.0489 -0.3138
 2832SOL     OW11372   1.102   0.324   1.836  0.0850  0.1113  0.1234
 2832SOL    HW211373   1.072   0.324   1.927 -1.6118  1.0851 -0.4188
 2832SOL    HW311374   1.188   0.367   1.839  0.5986 -0.9498  1.4155
 2832SOL    MW411375   1.110   0.330   1.848 -0.0712  0.0998  0.2221
 2833SOL     OW11376   0.876   2.962   2.928 -0.1023  0.3422  0.1765
 2833SOL    HW211377   0.881   2.970   3.023  0.6276 -0.0401  0.1803
 2833SOL    HW311378   0.804   2.901   2.913  0.3451 -0.2838  0.5298
 2833SOL    MW411379   0.867   2.955   2.939  0.0531  0.2093  0.2236
 2834SOL     OW11380   1.018   3.866   0.368  0.0366  0.0790  0.4182
 2834SOL    HW211381   1.104   3.829   0.352  0.3424  1.1337 -0.4394
 2834SOL    HW311382   1.035   3.954   0.403 -0.6005  2.4080 -4.6964
 2834SOL    MW411383   1.031   3.873   0.371 -0.0072  0.5255 -0.3698
 2835SOL     OW11384   1.992   0.974   3.278 -0.1208 -0.1819  0.6612
 2835SOL    HW211385   1.949   0.930   3.351  0.0410 -2.9029 -0.8147
 2835SOL    HW311386   2.078   0.998   3.312 -0.6669  0.1142  1.8709
 2835SOL    MW411387   1.998   0.972   3.292 -0.1715 -0.5018  0.6258
 2836SOL     OW11388   1.390   1.587   2.813 -0.6344  0.5456 -0.1220
 2836SOL    HW211389   1.465   1.570   2.870  0.3939 -0.1731 -1.6744
 2836SOL    HW311390   1.317   1.604   2.874  0.4587 -0.1166  1.3987
 2836SOL    MW411391   1.390   1.587   2.829 -0.3545  0.3635 -0.1264
 2837SOL     OW11392   2.672   1.811   0.429  0.3826 -0.2178 -0.9799
 2837SOL    HW211393   2.719   1.852   0.356  1.2353 -0.4552 -0.5651
 2837SOL    HW311394   2.597   1.768   0.388  0.3253  0.4683 -1.5995
 2837SOL    MW411395   2.668   1.810   0.414  0.4876 -0.1587 -1.0069
 2838SOL     OW11396   1.056   0.043   1.500  0.0935  0.1041  0.3339
 2838SOL    HW211397   1.132   0.099   1.490 -0.9731  1.4403 -0.4664
 2838SOL    HW311398   1.010   0.049   1.416 -2.2254  1.3312  1.6444
 2838SOL    MW411399   1.060   0.051   1.488 -0.3532  0.4423  0.4013
 2839SOL     OW11400   3.437   2.843   4.025  0.3386  0.0296  0.1760
 2839SOL    HW211401   3.448   2.906   3.954  0.7997  1.0706  1.1611
 2839SOL    HW311402   3.357   2.795   4.002  1.2386 -0.5810 -1.7337
 2839SOL    MW411403   3.428   2.845   4.013  0.5183  0.0865  0.0544
 2840SOL     OW11404   1.488   1.268   4.017 -0.0570 -0.1833  0.1692
 2840SOL    HW211405   1.428   1.325   4.065 -0.7024 -1.3946  0.8150
 2840SOL    HW311406   1.430   1.210   3.967  0.5774 -1.0948  0.4852
 2840SOL    MW411407   1.472   1.268   4.017 -0.0584 -0.4635  0.2952
 2841SOL     OW11408   4.057   4.074   0.941  0.0803  0.2501 -0.4841
 2841SOL    HW211409   4.125   4.091   0.876  1.2123  0.6390  0.7753
 2841SOL    HW311410   4.036   3.982   0.931 -0.1002  0.4213 -1.7222
 2841SOL    MW411411   4.063   4.064   0.931  0.2060  0.3233 -0.4813
 2842SOL     OW11412   4.120   2.087   2.718  0.2377  0.4516 -0.1254
 2842SOL    HW211413   4.110   2.182   2.712 -1.3483  0.3584  0.8282
 2842SOL    HW311414   4.037   2.052   2.685  1.1515 -0.6419 -1.3524
 2842SOL    MW411415   4.107   2.095   2.713  0.1488  0.2952 -0.1614
 2843SOL     OW11416   2.010   0.780   0.563  0.2992 -0.2696  0.1100
 2843SOL    HW211417   1.999   0.843   0.492 -0.3091  0.6834  1.0408
 2843SOL    HW311418   1.930   0.787   0.614  0.0693 -2.0543  0.0389
 2843SOL    MW411419   1.998   0.789   0.560  0.1885 -0.3794  0.2235
 2844SOL     OW11420   0.284   0.573   3.286 -0.2836  0.4341  0.2831
 2844SOL    HW211421   0.305   0.614   3.202 -0.2388 -0.6379 -0.2297
 2844SOL    HW311422   0.266   0.482   3.265  0.9457 -0.1389  1.5829
 2844SOL    MW411423   0.285   0.567   3.272 -0.1155  0.2171  0.3870
 2845SOL     OW11424   3.399   1.134   3.853  0.2510 -0.6177  0.9450
 2845SOL    HW211425   3.451   1.199   3.900 -0.8382  0.1030  1.1593
 2845SOL    HW311426   3.427   1.142   3.762 -1.3515  1.5994  0.6195
 2845SOL    MW411427   3.409   1.144   3.847 -0.1042 -0.2302  0.9301
 2846SOL     OW11428   3.618   0.625   2.679 -0.5358 -0.1372  0.2434
 2846SOL    HW211429   3.631   0.655   2.589 -1.0594  1.0371  0.5491
 2846SOL    HW311430   3.622   0.705   2.732 -0.7624 -0.7503  1.2057
 2846SOL    MW411431   3.620   0.640   2.674 -0.6347 -0.0632  0.4108
 2847SOL     OW11432   0.984   1.968   3.860  0.1717 -0.3127  0.3320
 2847SOL    HW211433   1.032   1.886   3.876 -0.9717 -0.9775  0.4318
 2847SOL    HW311434   1.035   2.035   3.905  1.1178 -0.9758  0.2575
 2847SOL    MW411435   0.997   1.966   3.868  0.1457 -0.4879  0.3355
 2848SOL     OW11436   4.156   2.725   2.200 -0.0081 -0.2720 -0.4998
 2848SOL    HW211437   4.197   2.726   2.113  1.8985  0.9278  0.3935
 2848SOL    HW311438   4.140   2.817   2.220  1.2806 -0.3883  1.1900
 2848SOL    MW411439   4.160   2.737   2.191  0.4134 -0.1292 -0.1590
 2849SOL     OW11440   1.770   1.816   3.287 -0.3802  0.0022 -0.0514
 2849SOL    HW211441   1.778   1.746   3.222  0.0347 -1.4036  1.4891
 2849SOL    HW311442   1.684   1.802   3.327 -0.3491  0.4453  0.1762
 2849SOL    MW411443   1.760   1.805   3.284 -0.3214 -0.1249  0.1822
 2850SOL     OW11444   0.637   0.229   1.382  0.3420  0.5277  0.0907
 2850SOL    HW211445   0.594   0.240   1.297  0.8839 -0.2463 -0.2880
 2850SOL    HW311446   0.691   0.151   1.372  1.4425  1.1906  0.7246
 2850SOL    MW411447   0.639   0.220   1.369  0.5587  0.5130  0.1245
 2851SOL     OW11448   4.034   3.032   0.484  0.2894 -0.2283 -0.2496
 2851SOL    HW211449   4.095   3.028   0.410 -1.5469 -0.7989 -1.7747
 2851SOL    HW311450   3.992   3.118   0.475  0.0943 -0.2823  0.1604
 2851SOL    MW411451   4.036   3.043   0.473  0.0215 -0.3102 -0.3968
 2852SOL     OW11452   2.222   2.445   2.265 -0.3641  0.0124 -0.0800
 2852SOL    HW211453   2.278   2.473   2.192 -0.6756  1.3099  0.1768
 2852SOL    HW311454   2.146   2.406   2.222 -0.4828  0.6466 -0.4525
 2852SOL    MW411455   2.220   2.444   2.250 -0.4208  0.2673 -0.0956
 2853SOL     OW11456   3.128   2.545   1.396  0.3623 -0.0089  0.3147
 2853SOL    HW211457   3.170   2.519   1.478  1.4699 -2.2238 -0.9183
 2853SOL    HW311458   3.045   2.498   1.395  0.9502 -1.0511 -0.4404
 2853SOL    MW411459   3.123   2.536   1.406  0.5860 -0.4385  0.0525
 2854SOL     OW11460   0.643   4.244   1.071  0.1479 -0.5812 -0.3328
 2854SOL    HW211461   0.661   4.187   0.996  1.2503 -0.6461 -0.0372
 2854SOL    HW311462   0.602   4.187   1.136  0.1456 -0.7652 -0.4959
 2854SOL    MW411463   0.640   4.229   1.070  0.2930 -0.6142 -0.3152
 2855SOL     OW11464   0.558   2.100   0.193  0.3318  0.0725  0.3435
 2855SOL    HW211465   0.532   2.191   0.192  0.6861  0.1703 -2.0490
 2855SOL    HW311466   0.653   2.102   0.201  0.2231 -0.1259  1.7557
 2855SOL    MW411467   0.567   2.112   0.194  0.3641  0.0591  0.2141
 2856SOL     OW11468   0.619   3.733   3.747 -0.1133 -0.4843 -0.2529
 2856SOL    HW211469   0.661   3.700   3.668 -1.0202 -1.1173 -0.4791
 2856SOL    HW311470   0.538   3.683   3.754 -0.0996 -0.3509  1.0146
 2856SOL    MW411471   0.614   3.722   3.738 -0.2312 -0.5503 -0.1154
 2857SOL     OW11472   0.483   3.285   2.420  0.1129 -0.5237 -0.1550
 2857SOL    HW211473   0.499   3.190   2.419 -0.5594 -0.6577  0.7950
 2857SOL    HW311474   0.423   3.300   2.347  0.2577 -0.8250 -0.3362
 2857SOL    MW411475   0.477   3.274   2.410  0.0434 -0.5810 -0.0532
 2858SOL     OW11476   3.767   3.043   0.984 -0.2393 -0.4676 -0.3099
 2858SOL    HW211477   3.775   2.972   0.922 -1.4326 -0.1278 -0.8816
 2858SOL    HW311478   3.854   3.054   1.021  0.4168 -0.8565 -1.7196
 2858SOL    MW411479   3.779   3.035   0.981 -0.3102 -0.4740 -0.5713
 2859SOL     OW11480   3.290   4.567   2.902  0.2000  0.3654  0.1284
 2859SOL    HW211481   3.349   4.594   2.831  1.0808  3.4815  1.9854
 2859SOL    HW311482   3.203   4.593   2.871  0.3028 -0.2287 -0.6977
 2859SOL    MW411483   3.286   4.574   2.888  0.3297  0.6986  0.2646
 2860SOL     OW11484   1.202   2.229   2.127 -0.0890 -0.1963 -0.1584
 2860SOL    HW211485   1.141   2.298   2.105  0.1525  0.4379  1.0894
 2860SOL    HW311486   1.236   2.198   2.043  0.9399  2.2155 -0.6451
 2860SOL    MW411487   1.198   2.234   2.113  0.0786  0.2055 -0.0579
 2861SOL     OW11488   2.752   2.782   2.255 -0.3424 -0.0661 -0.0276
 2861SOL    HW211489   2.694   2.710   2.279 -0.9357 -0.0704 -1.4220
 2861SOL    HW311490   2.831   2.739   2.222 -0.0018 -0.0634  0.7744
 2861SOL    MW411491   2.755   2.767   2.254 -0.3760 -0.0660 -0.1056
 2862SOL     OW11492   3.807   2.411   3.675  0.1754 -0.0313  0.5221
 2862SOL    HW211493   3.827   2.327   3.634 -1.3440 -0.3392  0.4155
 2862SOL    HW311494   3.887   2.432   3.724  1.0885 -0.8551 -0.5566
 2862SOL    MW411495   3.820   2.403   3.676  0.0954 -0.1807  0.3657
 2863SOL     OW11496   0.634   0.676   2.216 -0.0350 -0.5451 -0.3034
 2863SOL    HW211497   0.579   0.730   2.159  0.8039 -1.7119 -2.3186
 2863SOL    HW311498   0.609   0.586   2.194  1.5646 -1.0449 -0.1205
 2863SOL    MW411499   0.624   0.671   2.205  0.2868 -0.7650 -0.5453
 2864SOL     OW11500   2.111   0.405   2.801  0.6428 -0.0944  0.0573
 2864SOL    HW211501   2.190   0.418   2.748  1.0987 -1.3419  0.4034
 2864SOL    HW311502   2.112   0.477   2.864  1.3526  0.0662 -0.1331
 2864SOL    MW411503   2.122   0.416   2.802  0.7966 -0.2378  0.0780
 2865SOL     OW11504   2.090   1.412   3.511  0.4571 -0.0767 -0.2743
 2865SOL    HW211505   2.013   1.466   3.522  0.2598 -0.3190 -0.4687
 2865SOL    HW311506   2.115   1.423   3.419 -0.5806 -1.6370 -0.7629
 2865SOL    MW411507   2.083   1.421   3.500  0.2944 -0.3145 -0.3645
 2866SOL     OW11508   3.553   3.985   4.133  0.1240 -0.2147 -0.3634
 2866SOL    HW211509   3.620   3.923   4.104 -0.1931 -1.1326  0.8151
 2866SOL    HW311510   3.472   3.933   4.132 -0.4415  0.6757 -1.0635
 2866SOL    MW411511   3.551   3.970   4.129  0.0074 -0.2184 -0.3004
 2867SOL     OW11512   3.898   3.273   0.469 -0.3337 -0.1840 -0.0727
 2867SOL    HW211513   3.882   3.342   0.533  0.0824  0.4399 -0.6320
 2867SOL    HW311514   3.929   3.319   0.391 -0.3654 -0.9751 -0.5608
 2867SOL    MW411515   3.900   3.288   0.467 -0.2830 -0.2060 -0.2109
 2868SOL     OW11516   2.671   3.995   2.070  0.3197  0.4198 -0.2936
 2868SOL    HW211517   2.589   4.044   2.059 -1.5459 -2.1794  1.2802
 2868SOL    HW311518   2.671   3.970   2.163  2.7588  0.0947 -0.3506
 2868SOL    MW411519   2.660   3.998   2.081  0.3955  0.0339 -0.0935
 2869SOL     OW11520   1.646   4.040   3.763 -0.5263 -0.9205 -0.5779
 2869SOL    HW211521   1.735   4.054   3.732 -0.9014 -1.5791 -1.9966
 2869SOL    HW311522   1.657   4.012   3.854  0.5477  1.8693  0.2065
 2869SOL    MW411523   1.659   4.038   3.771 -0.4340 -0.6394 -0.6616
 2870SOL     OW11524   3.729   4.203   2.146  0.6555 -0.3099 -0.5142
 2870SOL    HW211525   3.638   4.184   2.167  0.8630 -0.3598  0.3948
 2870SOL    HW311526   3.735   4.299   2.150  0.2927 -0.2040 -2.1309
 2870SOL    MW411527   3.718   4.213   2.150  0.6351 -0.3028 -0.6077
 2871SOL     OW11528   0.782   4.542   0.534 -0.4617  0.0678  0.1666
 2871SOL    HW211529   0.828   4.510   0.612  1.0412 -1.2891 -1.2312
 2871SOL    HW311530   0.711   4.596   0.569  0.4370 -0.1522  2.4599
 2871SOL    MW411531   0.779   4.545   0.549 -0.1448 -0.1402  0.2848
 2872SOL     OW11532   0.203   2.744   2.473 -0.1324  0.4098 -0.0603
 2872SOL    HW211533   0.121   2.792   2.461 -0.3446 -0.0290 -0.3874
 2872SOL    HW311534   0.247   2.751   2.389  0.3451  0.9733  0.2347
 2872SOL    MW411535   0.198   2.751   2.460 -0.0974  0.4265 -0.0644
 2873SOL     OW11536   3.903   4.172   2.368 -0.0675  0.0695  0.3560
 2873SOL    HW211537   3.988   4.188   2.327 -0.7300  2.9055 -0.0186
 2873SOL    HW311538   3.839   4.194   2.301 -1.1548 -3.0850  0.2711
 2873SOL    MW411539   3.906   4.177   2.354 -0.2983  0.0277  0.2954
 2874SOL     OW11540   1.936   4.324   1.241  0.1772 -0.2697  0.1222
 2874SOL    HW211541   1.867   4.285   1.187  0.2091 -1.5631  0.9726
 2874SOL    HW311542   1.906   4.414   1.257 -0.9361 -0.5767 -0.1569
 2874SOL    MW411543   1.923   4.331   1.236  0.0346 -0.4807  0.1976
 2875SOL     OW11544   4.228   3.108   3.578 -0.6050 -0.0004 -0.1330
 2875SOL    HW211545   4.311   3.127   3.535  0.3742 -1.0940  1.2313
 2875SOL    HW311546   4.210   3.187   3.630  0.0571 -0.1294  0.2974
 2875SOL    MW411547   4.236   3.121   3.580 -0.3886 -0.1619  0.1037
 2876SOL     OW11548   3.764   2.281   1.210 -0.0067 -0.6192 -0.6361
 2876SOL    HW211549   3.749   2.315   1.122  1.7551 -0.4352 -0.8770
 2876SOL    HW311550   3.847   2.321   1.237  0.2328 -1.8775  0.5090
 2876SOL    MW411551   3.773   2.291   1.202  0.2575 -0.7610 -0.5168
 2877SOL     OW11552   0.321   4.460   3.993 -0.3144  0.1051 -0.1126
 2877SOL    HW211553   0.338   4.438   3.901 -1.7088 -0.6018 -0.2170
 2877SOL    HW311554   0.246   4.405   4.017  0.0843  0.2423  1.4725
 2877SOL    MW411555   0.313   4.450   3.984 -0.4458  0.0300  0.0827
 2878SOL     OW11556   3.079   3.451   3.941 -0.1489 -0.1227 -0.2516
 2878SOL    HW211557   3.167   3.419   3.923  0.0732 -0.5154  1.4199
 2878SOL    HW311558   3.048   3.487   3.858  1.4790 -0.2310 -0.9084
 2878SOL    MW411559   3.086   3.451   3.928  0.0954 -0.1886 -0.1175
 2879SOL     OW11560   1.348   3.936   2.187 -0.1313  0.2193  0.1599
 2879SOL    HW211561   1.347   3.913   2.280  0.0818 -0.5024 -0.0123
 2879SOL    HW311562   1.392   4.021   2.184  0.2865  0.0267  0.6764
 2879SOL    MW411563   1.354   3.944   2.199 -0.0480  0.0987  0.2055
 2880SOL     OW11564   3.270   3.464   0.849 -0.7290  0.0892 -0.3493
 2880SOL    HW211565   3.320   3.447   0.929  0.2642  0.6886 -0.8362
 2880SOL    HW311566   3.182   3.434   0.869  0.0767 -2.0271  0.1558
 2880SOL    MW411567   3.265   3.458   0.862 -0.4919 -0.1111 -0.3469
 2881SOL     OW11568   3.276   0.818   0.902 -0.1706  0.0445 -0.3216
 2881SOL    HW211569   3.254   0.911   0.912  2.2953  0.5480  0.8247
 2881SOL    HW311570   3.228   0.791   0.824 -0.6070  2.4072 -0.9298
 2881SOL    MW411571   3.267   0.827   0.893  0.0973  0.4226 -0.2506
 2882SOL     OW11572   4.487   4.196   2.118  0.4152 -0.5762 -0.2485
 2882SOL    HW211573   4.525   4.285   2.118  1.3347 -0.9440 -1.5828
 2882SOL    HW311574   4.471   4.177   2.210  0.4124  0.8936  0.0775
 2882SOL    MW411575   4.490   4.205   2.130  0.5360 -0.4306 -0.3812
 2883SOL     OW11576   4.351   4.114   2.361 -0.2755 -0.4583 -0.5034
 2883SOL    HW211577   4.281   4.134   2.300 -0.6756 -2.9278 -0.9142
 2883SOL    HW311578   4.312   4.125   2.448 -0.4583  0.4863 -0.6996
 2883SOL    MW411579   4.337   4.118   2.365 -0.3529 -0.6595 -0.5834
 2884SOL     OW11580   1.163   4.598   2.084  0.0211  0.2460  0.1894
 2884SOL    HW211581   1.254   4.627   2.081 -0.1090  0.9493  2.2721
 2884SOL    HW311582   1.164   4.518   2.136 -0.6596  0.7770  1.0484
 2884SOL    MW411583   1.175   4.592   2.090 -0.0858  0.4086  0.5779
 2885NA      NA11584   2.709   2.485   3.466  0.1567  0.4585  0.7494
   4.49070   4.66690  10.00000
