Gromacs Runs On Most of All Computer Systems
   64
    1C      O5'    1   2.535   2.364   5.416
    1C      H5T    2   2.626   2.360   5.457
    1C      C5'    3   2.504   2.498   5.382
    1C     H5'1    4   2.573   2.530   5.318
    1C     H5'2    5   2.508   2.553   5.466
    1C      C4'    6   2.366   2.504   5.320
    1C      H4'    7   2.341   2.599   5.303
    1C      O4'    8   2.367   2.430   5.195
    1C      C1'    9   2.231   2.378   5.182
    1C      H1'   10   2.187   2.430   5.109
    1C       N1   11   2.234   2.236   5.143
    1C       C6   12   2.317   2.163   5.222
    1C       H6   13   2.367   2.208   5.296
    1C       C5   14   2.333   2.030   5.201
    1C       H5   15   2.394   1.975   5.258
    1C       C4   16   2.258   1.972   5.094
    1C       N4   17   2.269   1.841   5.069
    1C      H41   18   2.329   1.784   5.125
    1C      H42   19   2.217   1.800   4.994
    1C       N3   20   2.176   2.046   5.018
    1C       C2   21   2.162   2.179   5.040
    1C       O2   22   2.087   2.247   4.970
    1C      C3'   23   2.267   2.430   5.410
    1C      H3'   24   2.304   2.354   5.463
    1C      C2'   25   2.155   2.394   5.313
    1C     H2'1   26   2.097   2.317   5.339
    1C      O2'   27   2.065   2.503   5.303
    1C     HO'2   28   2.015   2.513   5.389
    1C      O3'   29   2.218   2.519   5.509
    2G        P   30   2.244   2.487   5.665
    2G      O1P   31   2.204   2.606   5.743
    2G      O2P   32   2.382   2.433   5.678
    2G      O5'   33   2.141   2.368   5.698
    2G      C5'   34   2.004   2.396   5.728
    2G     H5'1   35   1.966   2.450   5.653
    2G     H5'2   36   2.000   2.449   5.813
    2G      C4'   37   1.929   2.266   5.744
    2G      H4'   38   1.834   2.286   5.767
    2G      O4'   39   1.933   2.191   5.620
    2G      C1'   40   1.942   2.053   5.655
    2G      H1'   41   1.858   2.009   5.622
    2G       N9   42   2.060   1.996   5.588
    2G       C8   43   2.190   2.043   5.588
    2G       H8   44   2.219   2.126   5.637
    2G       N7   45   2.272   1.969   5.518
    2G       C5   46   2.191   1.867   5.469
    2G       C6   47   2.219   1.756   5.387
    2G       O6   48   2.331   1.732   5.343
    2G       N1   49   2.108   1.676   5.360
    2G       H1   50   2.123   1.596   5.302
    2G       C2   51   1.975   1.697   5.406
    2G       N2   52   1.872   1.616   5.377
    2G      H21   53   1.886   1.535   5.320
    2G      H22   54   1.781   1.636   5.413
    2G       N3   55   1.956   1.803   5.483
    2G       C4   56   2.062   1.883   5.511
    2G      C3'   57   2.000   2.179   5.847
    2G      H3'   58   2.098   2.194   5.855
    2G      C2'   59   1.958   2.038   5.806
    2G     H2'1   60   2.017   1.963   5.837
    2G      O2'   61   1.832   2.009   5.863
    2G     HO'2   62   1.842   1.999   5.962
    2G      O3'   63   1.950   2.208   5.977
    2G      H3T   64   1.997   2.151   6.044
   4.49070   4.66690  10.00000
