Gromacs Runs On Most of All Computer Systems in water
11585
    1C      O5'    1   2.101   1.817   5.096  0.1809  0.2964  0.1030
    1C      H5T    2   2.133   1.744   5.149 -0.2486 -0.4136 -0.5964
    1C      C5'    3   2.003   1.909   5.144 -0.2320 -0.1094  0.1522
    1C     H5'1    4   2.013   1.912   5.252 -1.3573 -1.8626  0.3407
    1C     H5'2    5   1.902   1.870   5.127 -0.1841 -0.3802  0.4826
    1C      C4'    6   2.011   2.051   5.089  0.3935  0.1067 -0.5107
    1C      H4'    7   1.936   2.110   5.143  0.4199 -0.2569 -0.0735
    1C      O4'    8   2.137   2.111   5.120  0.1666 -0.3128 -0.2786
    1C      C1'    9   2.178   2.196   5.011  0.4500 -0.3979 -0.4551
    1C      H1'   10   2.198   2.299   5.041 -0.7105 -0.0149 -0.9656
    1C       N1   11   2.305   2.151   4.953 -0.5391  0.3162 -0.4003
    1C       C6   12   2.359   2.029   4.989 -0.2136  0.2291  0.2818
    1C       H6   13   2.305   1.956   5.048  1.5486  0.0437  1.7053
    1C       C5   14   2.485   2.000   4.948 -0.0717  0.2437  0.0604
    1C       H5   15   2.530   1.905   4.970 -0.1279  0.3886  0.8062
    1C       C4   16   2.559   2.095   4.876  0.2373 -0.1592  0.2337
    1C       N4   17   2.686   2.074   4.859 -0.0586 -0.0049  0.2125
    1C      H41   18   2.727   1.994   4.905  0.3115 -0.9240 -1.6945
    1C      H42   19   2.739   2.139   4.803  1.1345 -0.1668  1.1036
    1C       N3   20   2.504   2.205   4.832 -0.7305  0.3996 -0.7043
    1C       C2   21   2.379   2.234   4.871  0.5540  0.1018 -0.0777
    1C       O2   22   2.332   2.339   4.832  0.2427  0.5452 -0.1852
    1C      C3'   23   1.992   2.065   4.937 -0.2484  0.6126 -0.6123
    1C      H3'   24   2.061   1.995   4.890 -0.3391 -0.3422  0.6292
    1C      C2'   25   2.056   2.203   4.920 -0.3365  0.1689 -0.0730
    1C     H2'1   26   2.084   2.230   4.818 -0.2872 -2.4417 -0.7847
    1C      O2'   27   1.968   2.306   4.969  0.2718 -0.1071 -0.1456
    1C     HO'2   28   1.882   2.288   4.932 -0.1306  0.7352  0.3694
    1C      O3'   29   1.858   2.059   4.900  0.6640 -0.4999 -0.0123
    2G        P   30   1.809   2.070   4.744  0.1136  0.0995  0.0736
    2G      O1P   31   1.877   2.181   4.673  0.7015  0.6673  0.0267
    2G      O2P   32   1.662   2.040   4.741 -0.3429 -0.1541  0.3813
    2G      O5'   33   1.888   1.937   4.710 -0.0380 -0.2879 -0.1536
    2G      C5'   34   1.830   1.822   4.634 -0.2110 -0.6443 -0.7834
    2G     H5'1   35   1.852   1.827   4.528 -0.4912 -0.8161 -0.8484
    2G     H5'2   36   1.722   1.818   4.639 -0.2192 -0.5616 -0.8903
    2G      C4'   37   1.895   1.689   4.676 -0.5867  0.2196  0.7515
    2G      H4'   38   1.861   1.610   4.609  1.1849  0.5245 -0.5501
    2G      O4'   39   2.040   1.690   4.659 -0.2256  0.0790 -0.3864
    2G      C1'   40   2.093   1.577   4.734  0.0296 -0.0778  0.1517
    2G      H1'   41   2.086   1.487   4.673  0.6685  0.0706 -0.1501
    2G       N9   42   2.239   1.598   4.763 -0.3748  0.2117 -0.0257
    2G       C8   43   2.302   1.713   4.793  0.0598 -0.8935  0.0320
    2G       H8   44   2.243   1.803   4.800  0.8266 -0.4140  0.4700
    2G       N7   45   2.435   1.709   4.812 -0.1133  0.1978  0.6184
    2G       C5   46   2.460   1.573   4.789 -0.2122 -0.6458  0.2021
    2G       C6   47   2.583   1.500   4.793 -0.3303 -0.2059 -0.3620
    2G       O6   48   2.698   1.545   4.814 -0.6517 -0.5519 -0.2496
    2G       N1   49   2.561   1.363   4.786  0.6724 -0.5604  0.4009
    2G       H1   50   2.638   1.298   4.791  0.2719 -1.4253 -3.1953
    2G       C2   51   2.442   1.311   4.747 -0.0137  0.7060 -0.5113
    2G       N2   52   2.440   1.182   4.730 -0.4073 -0.2344 -0.2781
    2G      H21   53   2.528   1.134   4.718 -0.8493 -0.8537 -1.1331
    2G      H22   54   2.348   1.141   4.715 -0.1234 -0.8016 -0.4738
    2G       N3   55   2.325   1.376   4.742  0.2836  0.0263  0.2234
    2G       C4   56   2.342   1.508   4.764  0.0187 -0.0500 -0.3991
    2G      C3'   57   1.882   1.660   4.830 -0.9263 -0.4503  0.6102
    2G      H3'   58   1.881   1.754   4.885  0.1590  0.9326 -1.6270
    2G      C2'   59   2.006   1.570   4.861 -0.4211  0.0708  0.3209
    2G     H2'1   60   2.052   1.622   4.945 -0.7196  1.3710 -0.3048
    2G      O2'   61   1.953   1.445   4.910 -0.0714 -0.3660  0.0025
    2G     HO'2   62   1.865   1.469   4.937 -0.6040 -2.1090 -0.1748
    2G      O3'   63   1.766   1.594   4.868 -0.4097  0.5335 -0.5169
    2G      H3T   64   1.699   1.660   4.889  1.4823  2.3192  0.0562
    5SOL     OW   65   4.005   0.012   0.358 -0.1562  0.4621 -0.4567
    5SOL    HW2   66   4.015   0.048   0.269  0.2751 -0.3074 -0.7260
    5SOL    HW3   67   4.040  -0.077   0.352 -4.1468 -1.1882 -0.5639
    5SOL    MW4   68   4.011   0.005   0.345 -0.6261  0.1431 -0.5063
    6SOL     OW   69   3.859   4.382   0.490  0.5573 -0.1940 -0.5353
    6SOL    HW2   70   3.785   4.428   0.452 -0.6626 -1.7155 -0.0541
    6SOL    HW3   71   3.842   4.382   0.585  1.0049 -0.8335 -0.4511
    6SOL    MW4   72   3.847   4.388   0.498  0.4554 -0.4787 -0.4607
    7SOL     OW   73   3.948   4.107   0.469 -0.3929 -0.1566  0.2963
    7SOL    HW2   74   4.013   4.103   0.399 -1.0472 -0.7982 -0.2765
    7SOL    HW3   75   3.914   4.197   0.465 -0.4866 -0.2168 -0.2479
    7SOL    MW4   76   3.952   4.119   0.460 -0.4916 -0.2484  0.1489
    8SOL     OW   77   4.035   1.638   0.265 -0.1345 -0.0168  0.0635
    8SOL    HW2   78   4.056   1.643   0.172  0.7492  0.7537  0.2967
    8SOL    HW3   79   3.992   1.721   0.285 -0.2403 -0.1402  0.3673
    8SOL    MW4   80   4.032   1.650   0.256 -0.0324  0.0687  0.1344
    9SOL     OW   81   1.928   0.456   0.528  0.0811  0.3839  0.7600
    9SOL    HW2   82   1.833   0.468   0.523 -0.0287 -0.1374  1.4325
    9SOL    HW3   83   1.944   0.374   0.481 -0.0271 -0.4716  2.1790
    9SOL    MW4   84   1.918   0.447   0.521  0.0521  0.2023  1.0359
   10SOL     OW   85   0.045   4.641   0.474  0.6151 -0.4905  0.6893
   10SOL    HW2   86   0.031   4.549   0.494 -1.2148  0.2628  3.1341
   10SOL    HW3   87   0.043   4.685   0.560  1.4329  1.8269 -0.4241
   10SOL    MW4   88   0.043   4.635   0.488  0.4816 -0.0849  0.8650
   11SOL     OW   89   0.205   1.318   0.481 -0.2105 -0.0405  0.0002
   11SOL    HW2   90   0.271   1.324   0.412 -1.8043 -1.8137 -1.7488
   11SOL    HW3   91   0.130   1.367   0.447 -0.7210 -0.2619  0.7996
   11SOL    MW4   92   0.204   1.325   0.467 -0.4881 -0.3036 -0.1251
   12SOL     OW   93   0.600   1.298   0.499 -0.4216  0.1289 -0.0843
   12SOL    HW2   94   0.592   1.203   0.488 -2.7228  0.4357 -1.3774
   12SOL    HW3   95   0.687   1.319   0.464  0.3573 -1.5577  0.7783
   12SOL    MW4   96   0.611   1.288   0.493 -0.6224 -0.0529 -0.1411
   13SOL     OW   97   4.438   0.408   0.366  0.1222  0.1247 -0.4975
   13SOL    HW2   98   4.389   0.456   0.432  2.6616  1.6743  0.3352
   13SOL    HW3   99   4.430   0.462   0.287  2.5418  1.7358  0.3032
   13SOL    MW4  100   4.430   0.421   0.364  0.7768  0.5417 -0.2820
   14SOL     OW  101   4.176   1.799   0.516  0.0503  0.1787 -0.2612
   14SOL    HW2  102   4.091   1.829   0.482 -0.0259  1.2619  0.8543
   14SOL    HW3  103   4.154   1.730   0.578 -0.0416  0.7083  0.2980
   14SOL    MW4  104   4.162   1.794   0.519  0.0281  0.3914 -0.0403
   15SOL     OW  105   4.333   1.682   0.283  0.2491 -0.0879 -0.4232
   15SOL    HW2  106   4.369   1.762   0.322 -0.3810  1.0364 -2.0807
   15SOL    HW3  107   4.241   1.681   0.310  0.3423 -0.4360 -0.1191
   15SOL    MW4  108   4.326   1.693   0.292  0.1783  0.0144 -0.6017
   16SOL     OW  109   0.097   1.679   0.568 -0.2878 -0.4658 -0.0635
   16SOL    HW2  110   0.056   1.664   0.653  2.2156 -0.9206  1.1205
   16SOL    HW3  111   0.054   1.617   0.510 -1.5191 -0.6724  1.0379
   16SOL    MW4  112   0.086   1.669   0.572 -0.1200 -0.5533  0.2381
   17SOL     OW  113   0.543   2.385   0.481 -0.5271 -0.3336 -0.0515
   17SOL    HW2  114   0.608   2.444   0.444 -0.0302 -0.2831  0.8817
   17SOL    HW3  115   0.583   2.298   0.475 -0.5208 -0.3482  0.1828
   17SOL    MW4  116   0.557   2.381   0.475 -0.4607 -0.3288  0.1025
   18SOL     OW  117   4.025   2.870   0.326 -0.0414 -0.5480 -0.1467
   18SOL    HW2  118   4.063   2.905   0.246  0.3606  0.5177  0.5009
   18SOL    HW3  119   3.955   2.931   0.349 -2.4220 -2.6476 -1.4881
   18SOL    MW4  120   4.021   2.883   0.319 -0.3023 -0.6845 -0.2382
   19SOL     OW  121   4.028   3.257   0.479 -0.1873  0.0686  0.0143
   19SOL    HW2  122   3.990   3.345   0.470 -0.4981 -0.1774 -1.0700
   19SOL    HW3  123   4.063   3.256   0.569  0.9674  1.7538 -0.3712
   19SOL    MW4  124   4.028   3.269   0.490 -0.0763  0.2582 -0.1796
   20SOL     OW  125   0.665   3.175   0.381  0.0652 -0.0005  0.0044
   20SOL    HW2  126   0.733   3.210   0.438  0.6294 -1.7606  0.4608
   20SOL    HW3  127   0.671   3.226   0.301  0.8965  0.8804  0.6177
   20SOL    MW4  128   0.674   3.186   0.378  0.2493 -0.1166  0.1455
   21SOL     OW  129   0.806   3.832   0.416  0.2675 -0.3130 -0.3417
   21SOL    HW2  130   0.815   3.739   0.434  0.8912 -0.8687 -3.2845
   21SOL    HW3  131   0.712   3.847   0.410  0.0567 -0.2169  2.5470
   21SOL    MW4  132   0.795   3.822   0.417  0.3220 -0.3738 -0.3488
   22SOL     OW  133   1.117   3.819   0.440  0.6613 -0.3515  0.2166
   22SOL    HW2  134   1.022   3.828   0.443  0.7590  0.2645  1.7094
   22SOL    HW3  135   1.133   3.725   0.449  0.1621 -0.5736 -1.1337
   22SOL    MW4  136   1.107   3.808   0.441  0.6082 -0.2995  0.2354
   23SOL     OW  137   3.738   3.707   0.490 -0.2492  0.2384 -0.0121
   23SOL    HW2  138   3.766   3.691   0.580 -1.3324 -0.0580  0.2825
   23SOL    HW3  139   3.643   3.698   0.493 -0.4299  1.7342 -0.8873
   23SOL    MW4  140   3.729   3.704   0.502 -0.4163  0.3965 -0.0887
   24SOL     OW  141   4.462   3.600   0.261 -0.5788  0.4191  0.4522
   24SOL    HW2  142   4.524   3.533   0.288 -2.2078 -1.0743  0.5820
   24SOL    HW3  143   4.418   3.562   0.185 -1.5175  1.3401  0.5298
   24SOL    MW4  144   4.464   3.586   0.254 -0.9175  0.3436  0.4796
   25SOL     OW  145   0.819   3.568   0.509 -0.3089 -0.4396 -0.2550
   25SOL    HW2  146   0.799   3.475   0.503 -0.1317 -0.5054  0.1568
   25SOL    HW3  147   0.756   3.602   0.573 -0.5382 -0.2299 -0.5935
   25SOL    MW4  148   0.808   3.560   0.517 -0.3157 -0.4206 -0.2453
   26SOL     OW  149   4.267   3.709   0.408 -0.2305  0.1422  0.7389
   26SOL    HW2  150   4.194   3.703   0.348  0.6924  0.6688 -0.4631
   26SOL    HW3  151   4.342   3.677   0.358  0.2068 -1.2307  2.2388
   26SOL    MW4  152   4.268   3.704   0.394 -0.0510  0.0305  0.7782
   27SOL     OW  153   4.123   4.132   0.255 -0.0516  0.2637 -0.6149
   27SOL    HW2  154   4.212   4.105   0.275 -0.6899  0.1541  2.3632
   27SOL    HW3  155   4.114   4.219   0.296 -1.5012 -0.0485 -0.2098
   27SOL    MW4  156   4.133   4.140   0.263 -0.3276  0.2074 -0.1685
   28SOL     OW  157   0.394   3.250   0.494  0.4832  0.4876 -0.2377
   28SOL    HW2  158   0.401   3.252   0.590 -1.1235 -2.1031 -0.0266
   28SOL    HW3  159   0.483   3.232   0.464  0.6153 -0.7205  0.8663
   28SOL    MW4  160   0.407   3.248   0.503  0.2887 -0.0136 -0.0643
   29SOL     OW  161   0.322   4.638   0.428 -0.2688  0.1810  0.1459
   29SOL    HW2  162   0.340   4.545   0.412  0.3078  0.1725  0.8240
   29SOL    HW3  163   0.229   4.640   0.451 -0.4238 -0.1528 -0.4307
   29SOL    MW4  164   0.312   4.626   0.429 -0.2131  0.1359  0.1593
   30SOL     OW  165   0.701   0.560   0.352 -0.0843 -0.2180  0.1650
   30SOL    HW2  166   0.619   0.572   0.400 -0.0435 -1.3608  0.5458
   30SOL    HW3  167   0.683   0.592   0.264 -0.1786  1.8762  0.9325
   30SOL    MW4  168   0.688   0.565   0.347 -0.0913 -0.0924  0.3165
   31SOL     OW  169   3.912   0.295   0.149 -0.6325 -0.3383  0.1345
   31SOL    HW2  170   3.941   0.354   0.219  0.2671  0.5267 -0.9473
   31SOL    HW3  171   3.993   0.267   0.107 -1.1858 -0.6548 -0.7188
   31SOL    MW4  172   3.926   0.299   0.153 -0.5867 -0.2659 -0.1208
   32SOL     OW  173   1.393   0.103   0.471 -0.1022  0.4736  0.1413
   32SOL    HW2  174   1.428   0.015   0.463 -0.3648  0.3147  0.7055
   32SOL    HW3  175   1.450   0.157   0.416  0.8311  0.1658  0.8113
   32SOL    MW4  176   1.405   0.099   0.463 -0.0137  0.4120  0.3042
   33SOL     OW  177   2.358   4.651   0.283 -0.5273 -0.5091 -0.7678
   33SOL    HW2  178   2.384   4.570   0.239  0.7171  0.5872 -2.0980
   33SOL    HW3  179   2.433   4.674   0.338 -1.7047 -1.3597  1.2698
   33SOL    MW4  180   2.371   4.643   0.284 -0.5183 -0.4768 -0.6745
   34SOL     OW  181   0.561   1.037   0.421 -0.2846 -0.6797  0.4920
   34SOL    HW2  182   0.541   1.066   0.332 -1.5705 -0.2284  0.9273
   34SOL    HW3  183   0.484   0.988   0.449  0.9730 -2.6261  0.5924
   34SOL    MW4  184   0.549   1.035   0.413 -0.2883 -0.8768  0.5627
   35SOL     OW  185   0.240   0.413   0.448  0.3404  0.5783 -0.2520
   35SOL    HW2  186   0.161   0.411   0.394 -0.0383 -0.0989  0.3116
   35SOL    HW3  187   0.208   0.430   0.536  0.8145  0.2772 -0.0181
   35SOL    MW4  188   0.225   0.415   0.452  0.3530  0.4493 -0.1467
   36SOL     OW  189   0.437   1.459   0.342  0.2620  0.2557 -0.2505
   36SOL    HW2  190   0.500   1.408   0.393  1.3313  1.5306 -0.2684
   36SOL    HW3  191   0.481   1.476   0.259  0.1342  1.6631 -0.0357
   36SOL    MW4  192   0.451   1.454   0.338  0.3862  0.6096 -0.2245
   37SOL     OW  193   4.470   1.475   0.421 -0.7231 -0.2581 -0.1450
   37SOL    HW2  194   4.406   1.406   0.437 -1.2602  0.0322 -0.9950
   37SOL    HW3  195   4.422   1.540   0.369 -0.1457  0.6246  0.4206
   37SOL    MW4  196   4.455   1.474   0.416 -0.7172 -0.1032 -0.1825
   38SOL     OW  197   4.438   1.886   0.440  0.0479 -0.4207  0.9215
   38SOL    HW2  198   4.492   1.821   0.485  0.5562  1.7638  3.6515
   38SOL    HW3  199   4.349   1.870   0.473 -0.2171 -1.1876 -0.1625
   38SOL    MW4  200   4.433   1.875   0.450  0.0796 -0.2337  1.1387
   39SOL     OW  201   0.208   3.036   0.410  0.1823  0.1911  0.1135
   39SOL    HW2  202   0.275   3.103   0.421  0.0445  0.2161  0.8674
   39SOL    HW3  203   0.257   2.954   0.402  0.4109  0.5272 -2.2817
   39SOL    MW4  204   0.223   3.034   0.411  0.1943  0.2389 -0.1031
   40SOL     OW  205   3.628   2.515   0.726 -0.3620 -0.1041  0.4471
   40SOL    HW2  206   3.597   2.483   0.642 -2.3514  2.3470  0.1752
   40SOL    HW3  207   3.706   2.566   0.705  0.0735 -0.8328  0.2913
   40SOL    MW4  208   3.634   2.517   0.712 -0.5670  0.1230  0.3906
   41SOL     OW  209   0.202   3.447   0.439  0.0523 -0.0588 -0.3300
   41SOL    HW2  210   0.124   3.397   0.462  0.0399  0.0069 -0.2335
   41SOL    HW3  211   0.274   3.385   0.453  0.0231 -0.1020 -0.3677
   41SOL    MW4  212   0.201   3.432   0.444  0.0468 -0.0558 -0.3223
   42SOL     OW  213   0.766   2.906   0.380  0.4151 -0.4174  0.4483
   42SOL    HW2  214   0.722   2.991   0.376  1.8190  0.3601  1.2834
   42SOL    HW3  215   0.702   2.849   0.422 -0.5378  0.2088 -0.1105
   42SOL    MW4  216   0.752   2.910   0.385  0.4746 -0.2322  0.4848
   43SOL     OW  217   3.874   2.646   0.372 -0.2297  0.1079 -0.3925
   43SOL    HW2  218   3.938   2.709   0.338 -0.1609 -0.1280 -0.7045
   43SOL    HW3  219   3.927   2.577   0.413 -0.2697 -0.2764 -0.9832
   43SOL    MW4  220   3.889   2.645   0.373 -0.2260  0.0262 -0.5116
   44SOL     OW  221   0.582   2.719   0.486  0.0030 -0.5965  0.0419
   44SOL    HW2  222   0.650   2.654   0.466  0.1378 -1.0262  1.8560
   44SOL    HW3  223   0.607   2.754   0.571 -2.0917 -0.8018  0.7576
   44SOL    MW4  224   0.595   2.715   0.494 -0.2556 -0.6804  0.3757
   45SOL     OW  225   0.449   0.215   0.485 -0.7221 -0.2811  0.3784
   45SOL    HW2  226   0.388   0.286   0.471  0.7196  0.6166 -1.7162
   45SOL    HW3  227   0.403   0.137   0.452 -1.9509 -0.1937  1.8424
   45SOL    MW4  228   0.435   0.214   0.479 -0.6940 -0.1511  0.2952
   46SOL     OW  229   4.269   3.187   0.340  0.2857 -0.4115  0.2150
   46SOL    HW2  230   4.284   3.255   0.275  1.4358 -0.2770  0.6111
   46SOL    HW3  231   4.189   3.214   0.386 -1.4641 -1.3283 -2.1824
   46SOL    MW4  232   4.261   3.200   0.338  0.2069 -0.5147 -0.0491
   47SOL     OW  233   4.426   2.962   0.326 -0.1546 -0.7573 -0.0509
   47SOL    HW2  234   4.364   3.034   0.326  0.2471 -0.4147  0.3355
   47SOL    HW3  235   4.510   3.002   0.304 -0.0698 -1.2220 -0.5863
   47SOL    MW4  236   4.429   2.976   0.323 -0.0896 -0.7734 -0.0706
   48SOL     OW  237   1.098   3.529   0.504 -0.1503 -0.2022  0.5259
   48SOL    HW2  238   1.134   3.441   0.500 -1.5226 -0.7052 -1.9611
   48SOL    HW3  239   1.006   3.519   0.479  0.1381  2.1210 -1.7574
   48SOL    MW4  240   1.091   3.516   0.500 -0.2933  0.0381 -0.1035
   49SOL     OW  241   0.678   4.654   0.505  0.0027 -0.5771 -0.4526
   49SOL    HW2  242   0.683   4.559   0.496 -0.9563 -0.8450  1.4399
   49SOL    HW3  243   0.587   4.675   0.483  0.5331  0.0736 -2.0936
   49SOL    MW4  244   0.666   4.644   0.501 -0.0539 -0.5264 -0.4194
   50SOL     OW  245   0.534   3.893   0.444  0.3167 -0.2660  0.0484
   50SOL    HW2  246   0.554   3.948   0.519 -0.0235  1.4955 -1.1169
   50SOL    HW3  247   0.462   3.939   0.399  0.1536 -1.5557 -1.0584
   50SOL    MW4  248   0.527   3.907   0.448  0.2503 -0.2038 -0.2514
   51SOL     OW  249   0.239   3.697   0.552 -0.5691 -0.7750  0.1588
   51SOL    HW2  250   0.217   3.616   0.507 -0.1684  0.0843 -1.6400
   51SOL    HW3  251   0.325   3.721   0.517 -0.5410  0.2505  0.9056
   51SOL    MW4  252   0.248   3.689   0.541 -0.5125 -0.5267  0.0200
   52SOL     OW  253   0.913   0.728   0.452 -0.3469 -0.1008 -0.0834
   52SOL    HW2  254   0.981   0.734   0.385  0.5296 -0.5571  0.7640
   52SOL    HW3  255   0.842   0.680   0.409  0.4110 -0.8476 -0.5269
   52SOL    MW4  256   0.913   0.723   0.437 -0.1312 -0.2595 -0.0301
   53SOL     OW  257   0.835   0.979   0.508 -0.0787 -0.2255 -0.1147
   53SOL    HW2  258   0.851   0.887   0.487 -0.8193 -0.3221 -0.2504
   53SOL    HW3  259   0.751   0.999   0.467  0.5784  0.8038 -0.9704
   53SOL    MW4  260   0.826   0.969   0.500 -0.0897 -0.1025 -0.2455
   54SOL     OW  261   4.232   0.569   0.482  0.1718 -0.0350 -0.0148
   54SOL    HW2  262   4.147   0.567   0.438  0.1571  0.2857  0.0033
   54SOL    HW3  263   4.258   0.661   0.481  0.4660 -0.1159  0.0829
   54SOL    MW4  264   4.225   0.581   0.476  0.2084 -0.0035  0.0005
   55SOL     OW  265   1.561   0.341   0.307 -0.3628 -0.0166 -0.4284
   55SOL    HW2  266   1.635   0.355   0.249  0.6098  0.5872  0.9167
   55SOL    HW3  267   1.581   0.395   0.384 -0.7759 -2.0551  1.1686
   55SOL    MW4  268   1.574   0.350   0.310 -0.2888 -0.2059 -0.0402
   56SOL     OW  269   2.026   1.025   0.295 -0.2645 -0.0915  0.4760
   56SOL    HW2  270   2.089   1.030   0.223 -0.0424 -2.1264  0.5027
   56SOL    HW3  271   2.077   0.990   0.368 -1.1011 -0.4651  0.8776
   56SOL    MW4  272   2.041   1.021   0.295 -0.3455 -0.4092  0.5326
   57SOL     OW  273   1.297   0.888   0.439 -0.5379  0.2084  0.0144
   57SOL    HW2  274   1.293   0.978   0.407 -2.2291  0.3935  0.7434
   57SOL    HW3  275   1.310   0.896   0.533  1.8098 -0.3419 -0.2161
   57SOL    MW4  276   1.298   0.901   0.447 -0.4513  0.1602  0.0802
   58SOL     OW  277   0.375   1.680   0.521 -0.1232 -0.1179 -0.0649
   58SOL    HW2  278   0.279   1.679   0.526 -0.0652 -0.3421  0.9936
   58SOL    HW3  279   0.396   1.613   0.456 -0.7041  0.2654 -0.6614
   58SOL    MW4  280   0.365   1.671   0.513 -0.1922 -0.0969 -0.0039
   59SOL     OW  281   0.863   1.330   0.415 -0.4141  0.4047  0.1554
   59SOL    HW2  282   0.901   1.415   0.435 -0.4019  0.5463 -0.4428
   59SOL    HW3  283   0.923   1.266   0.454 -0.1915  0.6589  0.2299
   59SOL    MW4  284   0.876   1.332   0.422 -0.3831  0.4568  0.0863
   60SOL     OW  285   1.126   0.723   0.276  0.4769  0.2130 -0.7890
   60SOL    HW2  286   1.180   0.784   0.327 -0.6797 -1.0307  2.0404
   60SOL    HW3  287   1.183   0.649   0.258  0.6331  0.2666 -0.5181
   60SOL    MW4  288   1.141   0.721   0.280  0.3449  0.0560 -0.3799
   61SOL     OW  289   1.063   1.152   0.498  0.1942  0.2542  0.0841
   61SOL    HW2  290   1.012   1.071   0.493 -0.7701  0.8395  0.3267
   61SOL    HW3  291   1.132   1.141   0.433 -0.0021 -0.7126  0.0298
   61SOL    MW4  292   1.065   1.140   0.489  0.0411  0.2038  0.1090
   62SOL     OW  293   1.521   0.730   0.445 -0.5553 -0.0555  0.1222
   62SOL    HW2  294   1.448   0.788   0.468 -0.0226  1.0990 -1.0436
   62SOL    HW3  295   1.592   0.789   0.423  0.4520 -1.1773  0.3163
   62SOL    MW4  296   1.520   0.745   0.445 -0.3521 -0.0511 -0.0059
   63SOL     OW  297   4.313   2.142   0.505 -0.7989 -0.1315  0.0574
   63SOL    HW2  298   4.349   2.069   0.453 -0.8377  0.4173 -0.7503
   63SOL    HW3  299   4.378   2.212   0.497 -0.9789  0.0840  0.4587
   63SOL    MW4  300   4.326   2.141   0.497 -0.8278 -0.0305  0.0038
   64SOL     OW  301   0.022   2.343   0.428 -0.6018 -0.0070  0.7660
   64SOL    HW2  302  -0.044   2.406   0.400  0.1425 -1.1008 -3.8773
   64SOL    HW3  303   0.106   2.383   0.404  0.0277 -1.4030  0.5656
   64SOL    MW4  304   0.024   2.356   0.421 -0.4205 -0.3355  0.1269
   65SOL     OW  305   0.782   2.518   0.447  0.0055 -0.8028  0.2845
   65SOL    HW2  306   0.842   2.536   0.375 -0.4168  2.8198  0.7340
   65SOL    HW3  307   0.839   2.491   0.519  0.5200 -3.3010 -1.0142
   65SOL    MW4  308   0.797   2.517   0.447  0.0176 -0.6545  0.1724
   66SOL     OW  309   0.167   2.068   0.440 -0.2376  0.0334 -0.2275
   66SOL    HW2  310   0.097   2.015   0.402  0.2447 -0.3174 -0.6400
   66SOL    HW3  311   0.126   2.151   0.461 -0.4465  0.3305 -1.7615
   66SOL    MW4  312   0.153   2.072   0.438 -0.2015  0.0265 -0.4843
   67SOL     OW  313   0.434   1.966   0.481 -0.2204 -0.3542 -0.5247
   67SOL    HW2  314   0.417   1.873   0.494 -0.9996 -0.0100  1.0488
   67SOL    HW3  315   0.348   2.008   0.484  0.2977  0.6634  1.1304
   67SOL    MW4  316   0.421   1.959   0.483 -0.2548 -0.1745 -0.0987
   68SOL     OW  317   0.290   2.484   0.421  0.0923 -0.2084 -0.2513
   68SOL    HW2  318   0.306   2.513   0.332 -0.2566  0.0817 -0.2182
   68SOL    HW3  319   0.373   2.442   0.448 -0.4792 -2.1754 -1.4344
   68SOL    MW4  320   0.303   2.482   0.413 -0.0292 -0.4296 -0.4030
   69SOL     OW  321   1.166   3.261   0.549 -0.1408  0.3344  0.1110
   69SOL    HW2  322   1.151   3.260   0.644 -0.7636  0.8589  0.0229
   69SOL    HW3  323   1.256   3.230   0.539  0.0378  0.5694  0.8974
   69SOL    MW4  324   1.176   3.257   0.560 -0.1994  0.4346  0.2031
   70SOL     OW  325   0.874   3.274   0.530  0.2421  0.0505  0.3470
   70SOL    HW2  326   0.960   3.243   0.502 -0.2323 -2.1069  1.1540
   70SOL    HW3  327   0.875   3.265   0.625 -1.2906 -1.2065  0.2682
   70SOL    MW4  328   0.885   3.269   0.539 -0.0226 -0.4001  0.4432
   71SOL     OW  329   0.837   4.101   0.487 -0.1117  0.0533 -0.0613
   71SOL    HW2  330   0.857   4.068   0.575  0.6807 -0.2469 -0.3463
   71SOL    HW3  331   0.840   4.023   0.431  1.5046  0.5424 -0.6943
   71SOL    MW4  332   0.840   4.086   0.491  0.2061  0.0787 -0.1824
   72SOL     OW  333   0.346   0.866   0.503 -0.0221 -0.5616  0.4247
   72SOL    HW2  334   0.361   0.776   0.476 -0.2205 -0.8066  1.1346
   72SOL    HW3  335   0.394   0.875   0.585 -0.9847 -0.3670  0.9749
   72SOL    MW4  336   0.354   0.856   0.510 -0.1753 -0.5682  0.5909
   73SOL     OW  337   0.054   4.349   0.531 -0.1440  0.0836  0.0344
   73SOL    HW2  338  -0.035   4.315   0.523  0.0376 -0.6094  0.7757
   73SOL    HW3  339   0.104   4.301   0.465 -0.2455  0.1914 -0.1197
   73SOL    MW4  340   0.049   4.338   0.521 -0.1335  0.0062  0.1118
   74SOL     OW  341   0.709   4.349   0.490 -0.2630 -0.1800 -0.0980
   74SOL    HW2  342   0.747   4.261   0.485  0.1564 -0.0368  0.5040
   74SOL    HW3  343   0.695   4.364   0.583  1.5756  1.1788 -0.0076
   74SOL    MW4  344   0.712   4.340   0.502  0.0349  0.0176 -0.0066
   75SOL     OW  345   1.314   0.528   0.354 -0.3741  0.2300  0.1673
   75SOL    HW2  346   1.361   0.595   0.403 -0.1564  0.2831 -0.1119
   75SOL    HW3  347   1.381   0.486   0.301 -0.5825  0.0742  0.0262
   75SOL    MW4  348   1.329   0.531   0.353 -0.3729  0.2165  0.1118
   76SOL     OW  349   1.080   0.200   0.447 -0.6595  0.1203  0.0974
   76SOL    HW2  350   1.166   0.159   0.440 -1.0237 -0.3896 -1.4556
   76SOL    HW3  351   1.099   0.291   0.471  0.3064  0.0600 -0.4144
   76SOL    MW4  352   1.094   0.207   0.450 -0.5800  0.0451 -0.1750
   77SOL     OW  353   1.536   4.510   0.489  0.3391 -0.4479  0.2501
   77SOL    HW2  354   1.569   4.449   0.424 -0.1225 -1.2753  0.7804
   77SOL    HW3  355   1.554   4.468   0.573 -0.0678  0.0994  0.6179
   77SOL    MW4  356   1.542   4.496   0.492  0.2245 -0.4854  0.3686
   78SOL     OW  357   2.223   0.916   0.771 -0.5422 -0.3973 -0.7470
   78SOL    HW2  358   2.297   0.862   0.799  0.6423  1.0362 -1.0079
   78SOL    HW3  359   2.221   0.907   0.676 -0.5738 -0.2924 -0.7570
   78SOL    MW4  360   2.233   0.908   0.762 -0.3901 -0.1944 -0.7828
   79SOL     OW  361   1.079   0.483   0.516  0.2974 -0.6523  0.3337
   79SOL    HW2  362   1.027   0.560   0.489  0.8393  0.2150  1.7375
   79SOL    HW3  363   1.158   0.488   0.462  0.2340 -0.3429  0.2654
   79SOL    MW4  364   1.082   0.494   0.505  0.3605 -0.4971  0.5099
   80SOL     OW  365   2.210   0.703   0.322  0.0970  0.2082 -0.1052
   80SOL    HW2  366   2.253   0.621   0.348 -0.9877 -0.3189  0.0408
   80SOL    HW3  367   2.118   0.680   0.312 -0.2301  1.4311 -0.0055
   80SOL    MW4  368   2.204   0.689   0.324 -0.0892  0.3000 -0.0728
   81SOL     OW  369   1.917   0.623   0.321 -0.0987  0.0835 -0.1849
   81SOL    HW2  370   1.939   0.583   0.405 -0.1099  0.9792  0.2459
   81SOL    HW3  371   1.863   0.698   0.343 -0.0355  0.3697 -0.9890
   81SOL    MW4  372   1.913   0.627   0.335 -0.0919  0.2395 -0.2342
   82SOL     OW  373   1.933   0.231   0.373  0.0841 -0.0735  0.0306
   82SOL    HW2  374   1.900   0.277   0.296  0.5698  1.5681  0.7765
   82SOL    HW3  375   1.888   0.147   0.372  0.5224 -0.3215 -2.3684
   82SOL    MW4  376   1.923   0.226   0.363  0.2060  0.1104 -0.1875
   83SOL     OW  377   1.731   1.443   0.469  0.1180 -0.2864 -0.1610
   83SOL    HW2  378   1.745   1.489   0.552  0.9392 -0.2932 -0.2960
   83SOL    HW3  379   1.815   1.403   0.449 -0.5311 -1.6767 -0.1687
   83SOL    MW4  380   1.744   1.444   0.478  0.1408 -0.4705 -0.1798
   84SOL     OW  381   1.456   1.368   0.465  0.1209 -0.1593 -0.2086
   84SOL    HW2  382   1.401   1.447   0.471  0.0941  0.0007 -2.2266
   84SOL    HW3  383   1.543   1.402   0.442  0.2441 -0.6694 -0.4894
   84SOL    MW4  384   1.460   1.383   0.463  0.1336 -0.2055 -0.5119
   85SOL     OW  385   1.291   1.161   0.358 -0.0794  0.1708 -0.1299
   85SOL    HW2  386   1.324   1.183   0.271  0.3640 -0.5882 -0.1543
   85SOL    HW3  387   1.327   1.228   0.416  0.7916 -0.1474 -0.2996
   85SOL    MW4  388   1.300   1.172   0.354  0.0939  0.0285 -0.1555
   86SOL     OW  389   0.010   3.238   0.492 -0.1480 -0.1084  0.0608
   86SOL    HW2  390  -0.077   3.213   0.463 -0.3090 -0.0342  0.4801
   86SOL    HW3  391   0.064   3.160   0.478 -0.3820 -0.2985  0.2361
   86SOL    MW4  392   0.006   3.224   0.486 -0.2001 -0.1235  0.1393
   87SOL     OW  393   0.905   2.037   0.358 -0.1239  0.1076  0.1549
   87SOL    HW2  394   0.926   1.973   0.290 -0.2483 -0.9974  1.1504
   87SOL    HW3  395   0.982   2.039   0.414  0.1708  1.3767 -0.2719
   87SOL    MW4  396   0.918   2.029   0.356 -0.1013  0.1290  0.2300
   88SOL     OW  397   2.000   2.021   0.576  0.1323 -0.0251  0.1587
   88SOL    HW2  398   1.954   2.035   0.658  1.4286 -0.8158  1.0320
   88SOL    HW3  399   1.950   1.953   0.531 -0.5026  0.3178  0.3385
   88SOL    MW4  400   1.988   2.014   0.581  0.2196 -0.0842  0.2977
   89SOL     OW  401   1.273   2.307   0.412  0.1462  0.4418  0.4411
   89SOL    HW2  402   1.355   2.272   0.377  0.5730 -0.4297  2.2470
   89SOL    HW3  403   1.300   2.386   0.459  0.0304 -0.1743  1.5398
   89SOL    MW4  404   1.287   2.313   0.413  0.1872  0.2456  0.8244
   90SOL     OW  405   1.141   2.063   0.502  0.3433  0.0116 -0.1632
   90SOL    HW2  406   1.189   2.137   0.466  0.9534 -0.6437 -0.7082
   90SOL    HW3  407   1.148   2.074   0.597  1.1184  0.2228 -0.2401
   90SOL    MW4  408   1.148   2.074   0.510  0.5261 -0.0470 -0.2452
   91SOL     OW  409   1.182   2.770   0.511  0.6646 -0.8696  0.2570
   91SOL    HW2  410   1.122   2.782   0.438 -0.8116  0.9135  1.7021
   91SOL    HW3  411   1.258   2.824   0.489  0.0530 -0.0197  0.2097
   91SOL    MW4  412   1.184   2.779   0.498  0.3891 -0.5219  0.4414
   92SOL     OW  413   1.986   2.300   0.521 -0.3555  0.2087 -0.3883
   92SOL    HW2  414   1.989   2.206   0.537 -2.2974  0.1100 -0.4455
   92SOL    HW3  415   2.042   2.337   0.589 -0.0954 -0.9460  0.0466
   92SOL    MW4  416   1.993   2.292   0.532 -0.5774  0.0434 -0.3384
   93SOL     OW  417   1.542   4.062   0.302  0.1683  0.4030 -0.2840
   93SOL    HW2  418   1.454   4.051   0.338  0.5156 -0.6704  0.2624
   93SOL    HW3  419   1.542   4.010   0.221  0.9448 -1.4046  0.8356
   93SOL    MW4  420   1.531   4.054   0.296  0.3165  0.0229 -0.0642
   94SOL     OW  421   0.442   4.391   0.425 -0.1309  0.5110 -0.3561
   94SOL    HW2  422   0.537   4.380   0.419 -0.1791  0.0131 -0.2085
   94SOL    HW3  423   0.408   4.302   0.434 -0.5494  0.7604  0.5559
   94SOL    MW4  424   0.450   4.378   0.425 -0.1925  0.4783 -0.2163
   95SOL     OW  425   1.425   3.203   0.492  0.1061 -0.1472 -0.2926
   95SOL    HW2  426   1.497   3.231   0.435  0.9029 -1.6311 -0.0315
   95SOL    HW3  427   1.418   3.109   0.478 -1.6271 -0.0542 -0.1129
   95SOL    MW4  428   1.434   3.195   0.483 -0.0176 -0.3309 -0.2345
   96SOL     OW  429   1.078   4.275   0.486  0.1838  0.4709  0.1094
   96SOL    HW2  430   1.074   4.306   0.576  1.8342 -0.5913  0.5743
   96SOL    HW3  431   1.005   4.214   0.478  1.4574 -1.3096  1.5017
   96SOL    MW4  432   1.068   4.271   0.497  0.5695  0.0954  0.3544
   97SOL     OW  433   1.287   4.046   0.424 -0.6553  0.2789 -0.0115
   97SOL    HW2  434   1.227   3.972   0.433 -0.7048  0.2819 -0.3150
   97SOL    HW3  435   1.231   4.123   0.430 -0.7395  0.2740 -0.7317
   97SOL    MW4  436   1.272   4.046   0.426 -0.6728  0.2785 -0.1465
   98SOL     OW  437   1.860   2.813   0.544  0.3395  0.2007  0.2058
   98SOL    HW2  438   1.841   2.901   0.513 -0.0557  0.6011  1.5519
   98SOL    HW3  439   1.920   2.825   0.617  0.2830 -0.6447  0.4016
   98SOL    MW4  440   1.865   2.826   0.550  0.2797  0.1421  0.4092
   99SOL     OW  441   0.753   0.266   0.407 -0.1037 -0.1353  0.4563
   99SOL    HW2  442   0.762   0.360   0.397  0.5430 -0.1604  0.7672
   99SOL    HW3  443   0.662   0.253   0.433 -0.1026  0.4286  0.7496
   99SOL    MW4  444   0.742   0.276   0.409 -0.0182 -0.0642  0.5360
  100SOL     OW  445   1.753   3.993   0.513 -0.0255 -0.2706 -0.2137
  100SOL    HW2  446   1.673   4.009   0.463  0.3900 -0.2814 -0.8908
  100SOL    HW3  447   1.822   4.036   0.462  0.5705 -1.2258 -0.2291
  100SOL    MW4  448   1.751   4.001   0.499  0.1080 -0.3977 -0.3051
  101SOL     OW  449   2.133   4.227   0.162 -0.4681 -0.5279  0.5168
  101SOL    HW2  450   2.064   4.194   0.219 -1.0364  0.0095  0.1421
  101SOL    HW3  451   2.152   4.315   0.196 -0.0577 -0.6217  0.5393
  101SOL    MW4  452   2.127   4.235   0.174 -0.4890 -0.4697  0.4703
  102SOL     OW  453   1.814   4.637   0.446 -0.0669 -0.1039  0.2405
  102SOL    HW2  454   1.824   4.666   0.537 -0.5776  0.2231  0.1913
  102SOL    HW3  455   1.722   4.613   0.438 -0.4708  1.7283 -0.7350
  102SOL    MW4  456   1.803   4.638   0.457 -0.1876  0.1812  0.1053
  103SOL     OW  457   1.647   0.499   0.529 -0.0121 -0.1781 -0.0334
  103SOL    HW2  458   1.612   0.494   0.618 -0.3137 -0.7554 -0.1819
  103SOL    HW3  459   1.612   0.580   0.494 -1.1092 -0.6878 -0.1428
  103SOL    MW4  460   1.638   0.509   0.536 -0.1966 -0.3214 -0.0674
  104SOL     OW  461   1.787   0.866   0.416 -0.0897 -0.4041  0.0297
  104SOL    HW2  462   1.850   0.934   0.393  0.1334 -0.3781  0.7001
  104SOL    HW3  463   1.783   0.869   0.512 -0.3257 -1.1102  0.0422
  104SOL    MW4  464   1.795   0.876   0.426 -0.0916 -0.4938  0.1198
  105SOL     OW  465   1.604   1.997   0.494  0.4240  0.3527 -0.2861
  105SOL    HW2  466   1.523   1.947   0.502  0.1492  0.8256 -0.0470
  105SOL    HW3  467   1.672   1.931   0.479 -0.0031 -0.0457 -0.4861
  105SOL    MW4  468   1.602   1.982   0.493  0.3314  0.3626 -0.2809
  106SOL     OW  469   1.813   0.403   0.195 -0.0653 -0.0414  0.1407
  106SOL    HW2  470   1.847   0.486   0.228 -0.6784  0.7536 -1.1682
  106SOL    HW3  471   1.829   0.406   0.100 -1.7273 -0.6140 -0.1748
  106SOL    MW4  472   1.819   0.415   0.187 -0.3656 -0.0121 -0.0736
  107SOL     OW  473   1.834   1.822   0.475  0.1643 -0.2037  0.0345
  107SOL    HW2  474   1.846   1.753   0.541 -1.3336 -0.3078  0.2223
  107SOL    HW3  475   1.801   1.776   0.398 -1.5228  0.3808  0.3917
  107SOL    MW4  476   1.831   1.807   0.474 -0.2559 -0.1403  0.1064
  108SOL     OW  477   2.620   1.666   0.458  0.4254 -0.0794  0.0110
  108SOL    HW2  478   2.650   1.663   0.549  1.1086  0.9154 -0.1760
  108SOL    HW3  479   2.680   1.727   0.415 -0.6919  0.4580 -0.8053
  108SOL    MW4  480   2.632   1.674   0.464  0.3681  0.1228 -0.1214
  109SOL     OW  481   2.313   1.678   0.487  0.0273 -0.1238  0.0244
  109SOL    HW2  482   2.408   1.683   0.478  0.0948  0.8000  1.1312
  109SOL    HW3  483   2.283   1.768   0.474 -0.5764 -0.1789  0.9771
  109SOL    MW4  484   2.322   1.690   0.484 -0.0436 -0.0092  0.2961
  110SOL     OW  485   1.355   1.880   0.465 -0.0438 -0.1668  0.3042
  110SOL    HW2  486   1.320   1.791   0.463  0.4984 -0.3750 -0.0770
  110SOL    HW3  487   1.278   1.937   0.460 -0.4794 -0.6014  1.7839
  110SOL    MW4  488   1.340   1.876   0.464 -0.0296 -0.2515  0.4491
  111SOL     OW  489   2.269   2.579   0.554 -0.1270 -0.0168 -0.1305
  111SOL    HW2  490   2.190   2.610   0.509 -0.7258 -2.3226 -0.7340
  111SOL    HW3  491   2.239   2.555   0.641  0.6576  2.5731  0.9017
  111SOL    MW4  492   2.255   2.580   0.559 -0.1020  0.0210 -0.0739
  112SOL     OW  493   2.735   3.499   0.403 -0.2107 -0.4073 -0.8019
  112SOL    HW2  494   2.724   3.406   0.422 -1.5744 -0.4282 -1.5828
  112SOL    HW3  495   2.656   3.540   0.440  0.9006  0.5988  0.5121
  112SOL    MW4  496   2.723   3.492   0.411 -0.2439 -0.2770 -0.7316
  113SOL     OW  497   1.341   2.552   0.546  0.2851  0.5782  0.0269
  113SOL    HW2  498   1.425   2.590   0.519 -0.2584  1.7878  0.0462
  113SOL    HW3  499   1.280   2.625   0.547 -0.7731 -0.2952  0.0584
  113SOL    MW4  500   1.344   2.566   0.543  0.0736  0.6225  0.0336
  114SOL     OW  501   1.027   2.778   0.277 -0.7712 -0.3294 -0.1319
  114SOL    HW2  502   0.953   2.834   0.302 -0.7144  0.0781 -0.8385
  114SOL    HW3  503   0.987   2.703   0.233 -0.8315 -0.7111  0.5690
  114SOL    MW4  504   1.012   2.776   0.274 -0.7716 -0.3257 -0.1327
  115SOL     OW  505   1.026   2.301   0.285 -0.1444  0.2710  0.3719
  115SOL    HW2  506   1.116   2.289   0.316  0.1324  0.1225 -0.4770
  115SOL    HW3  507   0.978   2.226   0.321  0.2962 -0.1938  0.0064
  115SOL    MW4  508   1.031   2.289   0.294 -0.0498  0.1900  0.2117
  116SOL     OW  509   3.334   2.024   0.793 -0.0859 -0.1669 -0.7673
  116SOL    HW2  510   3.342   2.118   0.814  0.0372 -0.3919  0.2334
  116SOL    HW3  511   3.374   2.016   0.707 -1.3747  0.9430 -1.4848
  116SOL    MW4  512   3.341   2.036   0.785 -0.2396 -0.0501 -0.7299
  117SOL     OW  513   1.752   2.410   0.484 -0.0872  0.2000 -0.6027
  117SOL    HW2  514   1.832   2.358   0.481 -0.6834 -0.7842  0.2179
  117SOL    HW3  515   1.686   2.356   0.441 -1.1043 -0.4751  1.7242
  117SOL    MW4  516   1.754   2.396   0.478 -0.3002 -0.0188 -0.1874
  118SOL     OW  517   0.903   2.561   0.169 -0.1175  0.1965  0.5189
  118SOL    HW2  518   0.944   2.474   0.177  2.0666  1.1473 -0.0527
  118SOL    HW3  519   0.876   2.566   0.078  1.6620  0.9313  0.0223
  118SOL    MW4  520   0.905   2.550   0.158  0.4055  0.4189  0.3780
  119SOL     OW  521   1.433   2.921   0.465 -0.1246  0.1215 -0.2454
  119SOL    HW2  522   1.476   2.897   0.547  0.2641  0.1132 -0.4495
  119SOL    HW3  523   1.474   2.864   0.399  0.3222  0.8805 -0.6223
  119SOL    MW4  524   1.444   2.910   0.467 -0.0143  0.2208 -0.3221
  120SOL     OW  525   2.071   2.719   0.398  0.7400  0.2329 -0.2048
  120SOL    HW2  526   2.002   2.745   0.459  0.7045  0.4828 -0.3473
  120SOL    HW3  527   2.028   2.657   0.339  0.7738 -0.0050  0.0227
  120SOL    MW4  528   2.056   2.715   0.398  0.7398  0.2346 -0.1935
  121SOL     OW  529   1.775   3.720   0.481 -0.3238 -0.3759 -0.2945
  121SOL    HW2  530   1.772   3.815   0.491 -0.8379 -0.2726 -1.3536
  121SOL    HW3  531   1.869   3.700   0.472 -0.2965  0.1985 -1.4608
  121SOL    MW4  532   1.787   3.730   0.481 -0.3881 -0.2866 -0.5881
  122SOL     OW  533   1.677   4.307   0.344 -0.0677  0.2079 -0.0042
  122SOL    HW2  534   1.644   4.218   0.335 -0.4355  0.2299  1.0442
  122SOL    HW3  535   1.771   4.299   0.331 -0.0159 -0.4340  0.7482
  122SOL    MW4  536   1.685   4.294   0.341 -0.1093  0.1259  0.2334
  123SOL     OW  537   0.994   4.558   0.526 -0.0435 -0.0407  0.3229
  123SOL    HW2  538   1.016   4.475   0.484  1.1875 -0.5820  1.9637
  123SOL    HW3  539   1.046   4.558   0.607 -1.1051  1.6896  1.0295
  123SOL    MW4  540   1.004   4.547   0.531 -0.0212  0.1159  0.6327
  124SOL     OW  541   0.455   0.600   0.473 -0.0013 -0.2773  0.3412
  124SOL    HW2  542   0.378   0.544   0.460 -0.3811 -0.0230  1.4423
  124SOL    HW3  543   0.494   0.568   0.555  1.0758 -0.4112 -0.2184
  124SOL    MW4  544   0.450   0.588   0.482  0.0907 -0.2615  0.4126
  125SOL     OW  545   2.456   4.424   0.167 -0.2198 -0.1707 -0.5689
  125SOL    HW2  546   2.531   4.388   0.215  0.0770  1.0025 -0.1327
  125SOL    HW3  547   2.407   4.347   0.138 -0.6631 -0.8993  2.0073
  125SOL    MW4  548   2.460   4.409   0.170 -0.2391 -0.1121 -0.1715
  126SOL     OW  549   1.974   4.103   0.385  0.2057 -0.1995 -0.0261
  126SOL    HW2  550   1.974   4.185   0.434 -0.9499 -1.0622  1.4703
  126SOL    HW3  551   2.044   4.052   0.424  0.0304 -0.4496 -0.0387
  126SOL    MW4  552   1.983   4.107   0.397  0.0302 -0.3462  0.1697
  127SOL     OW  553   2.625   1.386   0.421  0.0990 -0.7586 -0.4211
  127SOL    HW2  554   2.625   1.480   0.436  0.5012 -0.6142 -1.3279
  127SOL    HW3  555   2.704   1.355   0.466  0.2632 -0.5902 -0.5931
  127SOL    MW4  556   2.636   1.394   0.429  0.1738 -0.7175 -0.5634
  128SOL     OW  557   3.314   1.231   0.452  0.3642 -0.1850 -0.3725
  128SOL    HW2  558   3.337   1.226   0.544 -2.1632  0.4515  0.3058
  128SOL    HW3  559   3.267   1.150   0.433  1.0603 -0.4191 -1.1821
  128SOL    MW4  560   3.311   1.220   0.461  0.1225 -0.1320 -0.3898
  129SOL     OW  561   2.185   1.408   0.468  0.0530 -0.4460 -0.1202
  129SOL    HW2  562   2.213   1.499   0.474  0.2588 -0.4522 -0.9811
  129SOL    HW3  563   2.265   1.358   0.479 -0.0088 -0.5165  0.0088
  129SOL    MW4  564   2.199   1.413   0.470  0.0720 -0.4561 -0.2168
  130SOL     OW  565   3.053   0.692   0.448 -0.5328 -0.3739  1.0835
  130SOL    HW2  566   3.016   0.738   0.373 -0.7133 -0.4789  1.1090
  130SOL    HW3  567   3.055   0.757   0.518  0.1096 -0.1291  0.8415
  130SOL    MW4  568   3.049   0.706   0.447 -0.4718 -0.3555  1.0549
  131SOL     OW  569   1.698   1.636   0.272  0.3422  0.7274 -0.2898
  131SOL    HW2  570   1.759   1.621   0.200 -0.0084  0.2579 -0.4922
  131SOL    HW3  571   1.706   1.558   0.327  0.0754  0.7562 -0.2101
  131SOL    MW4  572   1.707   1.623   0.269  0.2606  0.6694 -0.3060
  132SOL     OW  573   3.430   1.994   0.526 -0.7310 -0.6563 -0.1554
  132SOL    HW2  574   3.406   1.903   0.508 -1.4594 -0.2625 -1.2230
  132SOL    HW3  575   3.359   2.045   0.488 -0.0586  0.3839 -0.0228
  132SOL    MW4  576   3.417   1.989   0.518 -0.7386 -0.4672 -0.2788
  133SOL     OW  577   2.302   0.434   0.428  0.3988 -0.1671  0.3083
  133SOL    HW2  578   2.396   0.423   0.445  0.1307 -1.8056  0.8150
  133SOL    HW3  579   2.271   0.346   0.407 -0.7200  0.6217 -1.4964
  133SOL    MW4  580   2.311   0.421   0.427  0.2155 -0.2792  0.1371
  134SOL     OW  581   2.247   1.950   0.454 -0.3659 -0.2942 -0.2152
  134SOL    HW2  582   2.172   1.993   0.495 -0.4657 -1.5548  0.9375
  134SOL    HW3  583   2.321   2.007   0.473 -0.7314  0.0722  0.1223
  134SOL    MW4  584   2.247   1.963   0.462 -0.4272 -0.4121 -0.0186
  135SOL     OW  585   1.961   1.250   0.447  0.5148  0.0343 -0.3432
  135SOL    HW2  586   2.030   1.316   0.449  0.9529 -0.3749 -1.4760
  135SOL    HW3  587   1.992   1.184   0.385 -0.3123 -0.8039  0.1150
  135SOL    MW4  588   1.974   1.250   0.439  0.4634 -0.1304 -0.4322
  136SOL     OW  589   2.461   2.360   0.466  0.2494  0.3164 -0.4480
  136SOL    HW2  590   2.408   2.434   0.497 -1.1844 -0.8323 -0.1265
  136SOL    HW3  591   2.452   2.361   0.371 -1.3604 -0.6025 -0.3203
  136SOL    MW4  592   2.453   2.370   0.458 -0.1521  0.0434 -0.3887
  137SOL     OW  593   2.465   2.102   0.536  0.1572 -0.3185  0.8253
  137SOL    HW2  594   2.449   2.194   0.515 -2.4842 -1.3188 -1.9713
  137SOL    HW3  595   2.549   2.083   0.495  0.3324  0.6247  0.7205
  137SOL    MW4  596   2.474   2.112   0.528 -0.1681 -0.3259  0.4425
  138SOL     OW  597   2.515   2.830   0.477 -0.1000 -0.0548 -0.4388
  138SOL    HW2  598   2.500   2.828   0.572 -0.1433  0.5235 -0.4338
  138SOL    HW3  599   2.562   2.749   0.459 -0.2605 -0.2595  0.0520
  138SOL    MW4  600   2.519   2.819   0.487 -0.1271 -0.0052 -0.3734
  139SOL     OW  601   1.548   2.239   0.362 -0.3387  0.1313  0.7576
  139SOL    HW2  602   1.608   2.171   0.391 -0.0375 -0.2403 -0.6743
  139SOL    HW3  603   1.545   2.229   0.267 -1.4604  1.1531  0.6728
  139SOL    MW4  604   1.556   2.229   0.353 -0.4468  0.2174  0.5575
  140SOL     OW  605   1.848   3.073   0.442  0.1666  0.1199  0.3453
  140SOL    HW2  606   1.808   3.134   0.380 -0.7261  0.6098  1.3829
  140SOL    HW3  607   1.936   3.108   0.457  0.8553 -0.7224 -1.6186
  140SOL    MW4  608   1.854   3.086   0.436  0.1396  0.0737  0.2231
  141SOL     OW  609   1.918   3.397   0.493  0.3772 -0.1232 -0.3127
  141SOL    HW2  610   1.984   3.328   0.503 -0.4045 -0.6225  1.4514
  141SOL    HW3  611   1.969   3.478   0.490  1.1526 -0.5978 -0.3143
  141SOL    MW4  612   1.934   3.399   0.494  0.3763 -0.2518 -0.0801
  142SOL     OW  613   2.167   3.902   0.487 -0.5602  0.0934  0.1793
  142SOL    HW2  614   2.140   3.815   0.460 -1.5000  0.8671 -1.4258
  142SOL    HW3  615   2.248   3.919   0.440  0.0612 -0.2335  1.1229
  142SOL    MW4  616   2.174   3.893   0.477 -0.6020  0.1523  0.0920
  143SOL     OW  617   1.670   3.299   0.355 -0.3102 -0.2911  0.4202
  143SOL    HW2  618   1.738   3.325   0.417 -0.8805  0.5802  0.6930
  143SOL    HW3  619   1.666   3.371   0.292 -1.6102  0.1230  0.9442
  143SOL    MW4  620   1.678   3.312   0.355 -0.5568 -0.1214  0.5253
  144SOL     OW  621   1.591   2.665   0.475  0.5587  0.5721 -0.1276
  144SOL    HW2  622   1.652   2.593   0.459  1.5928  1.8510 -1.9996
  144SOL    HW3  623   1.634   2.719   0.542 -0.1448 -0.4178  1.1569
  144SOL    MW4  624   1.605   2.663   0.482  0.6022  0.6101 -0.2051
  145SOL     OW  625   1.947   4.387   0.477 -0.3842  0.2345  0.4439
  145SOL    HW2  626   1.890   4.463   0.465 -0.7268 -0.2855 -1.4149
  145SOL    HW3  627   2.031   4.414   0.439 -1.1044 -0.9853 -2.1934
  145SOL    MW4  628   1.951   4.401   0.470 -0.5245  0.0048 -0.1493
  146SOL     OW  629   2.077   3.626   0.487 -0.1610  0.1060 -0.3530
  146SOL    HW2  630   2.081   3.628   0.582 -0.1711  1.3800 -0.3632
  146SOL    HW3  631   2.144   3.563   0.461  1.2236  1.2381  0.4283
  146SOL    MW4  632   2.086   3.618   0.496  0.0205  0.4234 -0.2513
  147SOL     OW  633   2.768   0.163   0.598  0.3373 -0.5308  0.0107
  147SOL    HW2  634   2.804   0.113   0.671 -0.7778  0.8160  1.5056
  147SOL    HW3  635   2.844   0.180   0.541  1.1466 -1.8644  0.6458
  147SOL    MW4  636   2.783   0.158   0.600  0.2968 -0.5291  0.2918
  148SOL     OW  637   2.656   4.383   0.399  0.2564 -0.6088 -0.4108
  148SOL    HW2  638   2.645   4.478   0.405  0.4393 -0.5552 -0.8895
  148SOL    HW3  639   2.748   4.368   0.417  0.1653 -0.7216 -0.0427
  148SOL    MW4  640   2.666   4.393   0.402  0.2682 -0.6161 -0.4254
  149SOL     OW  641   2.389   4.116   0.108  0.1637  0.0271  0.6879
  149SOL    HW2  642   2.296   4.135   0.096  0.4980  0.8850 -0.6175
  149SOL    HW3  643   2.416   4.075   0.026  1.2601  1.0979  0.4959
  149SOL    MW4  644   2.381   4.113   0.096  0.3524  0.2818  0.4904
  150SOL     OW  645   2.210   4.448   0.432  0.1475  0.2382  0.7660
  150SOL    HW2  646   2.264   4.523   0.406  0.4572  0.1948  1.2737
  150SOL    HW3  647   2.273   4.384   0.466 -0.1303 -0.1992  0.4500
  150SOL    MW4  648   2.226   4.450   0.433  0.1516  0.1745  0.7913
  151SOL     OW  649   2.243   0.130   0.704  0.2389 -0.5980 -0.4553
  151SOL    HW2  650   2.283   0.043   0.713 -0.7199 -1.0588 -0.5532
  151SOL    HW3  651   2.237   0.144   0.610  1.9422  0.3143 -0.4466
  151SOL    MW4  652   2.248   0.120   0.693  0.3374 -0.5385 -0.4671
  152SOL     OW  653   2.953   0.254   0.381 -0.2305 -0.5283  0.2392
  152SOL    HW2  654   3.025   0.206   0.423  0.4344 -0.1305 -0.4365
  152SOL    HW3  655   2.956   0.226   0.289 -0.5838 -0.0820  0.0918
  152SOL    MW4  656   2.963   0.244   0.374 -0.1895 -0.4169  0.1306
  153SOL     OW  657   2.428   1.232   0.528 -0.2261 -0.0117 -0.5891
  153SOL    HW2  658   2.469   1.147   0.510 -2.3668 -1.0021 -0.8464
  153SOL    HW3  659   2.492   1.296   0.496  1.3463 -1.5127 -0.5218
  153SOL    MW4  660   2.442   1.229   0.521 -0.3009 -0.3403 -0.6142
  154SOL     OW  661   3.309   0.621   0.401 -0.2070  0.6878  0.7713
  154SOL    HW2  662   3.220   0.652   0.415  0.0227  1.1776  1.1619
  154SOL    HW3  663   3.306   0.527   0.421 -0.4813  0.8444  1.4450
  154SOL    MW4  664   3.297   0.613   0.405 -0.2129  0.7731  0.9117
  155SOL     OW  665   2.597   1.187   0.211 -0.0041  0.5219 -0.0185
  155SOL    HW2  666   2.652   1.214   0.138  0.0441  0.1456 -0.1203
  155SOL    HW3  667   2.602   1.260   0.273  0.2082  0.7018 -0.2484
  155SOL    MW4  668   2.605   1.200   0.210  0.0305  0.4960 -0.0622
  156SOL     OW  669   3.100   1.409   0.499  0.4156  0.4325 -0.0715
  156SOL    HW2  670   3.164   1.347   0.464  0.9695  1.4270 -0.8244
  156SOL    HW3  671   3.140   1.441   0.580  1.2694  1.7156 -0.9961
  156SOL    MW4  672   3.114   1.405   0.505  0.6011  0.7330 -0.2928
  157SOL     OW  673   2.897   2.172   0.595  0.4529 -0.5608  0.5118
  157SOL    HW2  674   2.895   2.086   0.637  1.1792 -0.4032  0.8771
  157SOL    HW3  675   2.838   2.164   0.520  1.6000 -1.7955 -0.2635
  157SOL    MW4  676   2.889   2.160   0.591  0.7002 -0.7029  0.4577
  158SOL     OW  677   2.574   4.653   0.494 -0.5096  1.0251  0.1710
  158SOL    HW2  678   2.523   4.617   0.566 -1.2112  1.3197 -0.1601
  158SOL    HW3  679   2.641   4.706   0.535 -1.0468  1.3723  0.6098
  158SOL    MW4  680   2.576   4.656   0.509 -0.6731  1.1091  0.1851
  159SOL     OW  681   2.878   1.907   0.665  0.3183  0.2709  0.0250
  159SOL    HW2  682   2.945   1.894   0.731 -0.8350 -2.4569  0.6976
  159SOL    HW3  683   2.795   1.887   0.710 -0.6379  0.2303 -1.7087
  159SOL    MW4  684   2.876   1.903   0.680  0.0398 -0.0943 -0.1150
  160SOL     OW  685   2.726   2.103   0.377  0.6000  0.0075  0.1478
  160SOL    HW2  686   2.786   2.153   0.322  1.4354 -0.3713  0.6991
  160SOL    HW3  687   2.763   2.014   0.377  1.1239  0.2013  2.0451
  160SOL    MW4  688   2.739   2.098   0.369  0.7794 -0.0169  0.4709
  161SOL     OW  689   2.862   1.841   0.403  0.1786 -0.2202  0.5615
  161SOL    HW2  690   2.942   1.797   0.375  0.8795  0.4268  1.5037
  161SOL    HW3  691   2.877   1.861   0.496  0.4569  3.2025 -0.1523
  161SOL    MW4  692   2.874   1.838   0.412  0.3078  0.3167  0.5916
  162SOL     OW  693   2.682   3.017   0.354  0.6775 -0.2348  0.1366
  162SOL    HW2  694   2.616   2.967   0.402  0.5033 -1.2464 -1.1350
  162SOL    HW3  695   2.703   3.091   0.411 -0.8151 -0.4623  0.9901
  162SOL    MW4  696   2.676   3.020   0.368  0.4575 -0.3982  0.0814
  163SOL     OW  697   2.758   3.226   0.506 -0.1953  0.3077 -0.6279
  163SOL    HW2  698   2.737   3.217   0.599 -0.5566 -1.0664 -0.8267
  163SOL    HW3  699   2.849   3.256   0.505 -0.6966  1.9031  0.1830
  163SOL    MW4  700   2.767   3.229   0.518 -0.3092  0.3369 -0.5472
  164SOL     OW  701   2.977   3.623   0.515  0.4221 -0.1895 -0.2442
  164SOL    HW2  702   2.908   3.563   0.484  0.3727  0.1158 -0.7373
  164SOL    HW3  703   2.971   3.698   0.456  1.6422 -0.4625 -0.7298
  164SOL    MW4  704   2.967   3.625   0.503  0.5767 -0.1853 -0.3733
  165SOL     OW  705   3.043   3.237   0.516  0.2877 -0.6027 -0.4222
  165SOL    HW2  706   3.065   3.265   0.605 -1.6773  1.2576 -0.4769
  165SOL    HW3  707   3.053   3.142   0.518  1.1243 -0.5033  1.5505
  165SOL    MW4  708   3.047   3.228   0.528  0.1388 -0.3440 -0.1692
  166SOL     OW  709   2.396   3.186   0.273 -0.0753  0.5023 -0.3535
  166SOL    HW2  710   2.354   3.102   0.257 -0.2613  0.2701  1.2551
  166SOL    HW3  711   2.489   3.164   0.283  0.0141  0.6173 -0.9668
  166SOL    MW4  712   2.403   3.172   0.273 -0.0880  0.4871 -0.2222
  167SOL     OW  713   2.115   3.166   0.459 -0.2905 -0.0795  0.3643
  167SOL    HW2  714   2.179   3.105   0.423  0.2105  0.3671  0.4718
  167SOL    HW3  715   2.146   3.182   0.549 -0.8516 -0.2691  0.5878
  167SOL    MW4  716   2.128   3.160   0.466 -0.2985 -0.0458  0.4080
  168SOL     OW  717   3.439   3.392   0.395  0.3968  0.1725  0.2747
  168SOL    HW2  718   3.355   3.369   0.355  2.1861 -0.8139 -3.1457
  168SOL    HW3  719   3.456   3.482   0.365  0.2958  0.5927  1.4574
  168SOL    MW4  720   3.430   3.401   0.386  0.6196  0.0978 -0.0205
  169SOL     OW  721   2.416   4.259   0.503 -0.6137 -0.0565  0.3972
  169SOL    HW2  722   2.413   4.264   0.599  0.8651  0.2199  0.4475
  169SOL    HW3  723   2.508   4.278   0.481 -0.7122 -1.1084 -1.0127
  169SOL    MW4  724   2.428   4.262   0.513 -0.4311 -0.1588  0.2179
  170SOL     OW  725   2.300   3.414   0.409 -0.3695  0.0739 -0.5022
  170SOL    HW2  726   2.340   3.372   0.333  1.2996  0.9005 -0.1062
  170SOL    HW3  727   2.290   3.342   0.472  0.8026 -0.0912 -0.4913
  170SOL    MW4  728   2.304   3.399   0.408  0.0050  0.1612 -0.4485
  171SOL     OW  729   2.993   4.066   0.524 -0.2859  0.0519 -0.4035
  171SOL    HW2  730   3.018   4.034   0.611  1.0806  0.2029 -0.7247
  171SOL    HW3  731   2.945   3.994   0.485 -1.5301  0.2446  0.7471
  171SOL    MW4  732   2.990   4.053   0.530 -0.2701  0.0973 -0.2941
  172SOL     OW  733   3.342   0.351   0.500  0.3001 -0.5314 -0.6263
  172SOL    HW2  734   3.431   0.330   0.472 -0.0800 -1.5012 -1.1510
  172SOL    HW3  735   3.293   0.270   0.484 -0.5261 -0.2180  0.2839
  172SOL    MW4  736   3.347   0.337   0.494  0.1409 -0.6180 -0.5754
  173SOL     OW  737   3.258   4.038   0.434 -0.2416  0.0275  0.5973
  173SOL    HW2  738   3.172   4.079   0.440 -0.2219  0.3663 -1.1966
  173SOL    HW3  739   3.244   3.948   0.464 -0.9355  0.4370  1.5251
  173SOL    MW4  740   3.245   4.031   0.439 -0.3304  0.1264  0.4831
  174SOL     OW  741   2.588   0.408   0.507  0.0185  0.8852 -0.6716
  174SOL    HW2  742   2.664   0.456   0.472  0.3648 -0.3563 -1.6750
  174SOL    HW3  743   2.626   0.328   0.543 -0.6933  0.7966 -0.1248
  174SOL    MW4  744   2.603   0.404   0.507 -0.0298  0.7097 -0.7318
  175SOL     OW  745   2.407   4.002   0.360  0.0289  0.0909  0.0429
  175SOL    HW2  746   2.411   4.031   0.269  1.5728 -1.1718 -0.3076
  175SOL    HW3  747   2.392   4.083   0.410 -0.0820  0.8938 -1.2660
  175SOL    MW4  748   2.405   4.017   0.355  0.2182  0.0300 -0.1761
  176SOL     OW  749   2.508   0.986   0.429  0.1910 -0.3214 -0.4197
  176SOL    HW2  750   2.525   1.012   0.339 -1.0030 -0.1710 -0.6098
  176SOL    HW3  751   2.576   0.921   0.449  2.1355  1.6153 -0.5229
  176SOL    MW4  752   2.519   0.981   0.420  0.2902 -0.0460 -0.4584
  177SOL     OW  753   3.345   0.486   0.738  0.1349 -0.1731 -0.1130
  177SOL    HW2  754   3.352   0.446   0.652  0.9998 -1.1171  0.3833
  177SOL    HW3  755   3.429   0.467   0.781  0.4042  1.8502  0.2802
  177SOL    MW4  756   3.357   0.478   0.733  0.2847 -0.0307  0.0044
  178SOL     OW  757   2.209   0.177   0.411  0.5177  0.6689 -0.3131
  178SOL    HW2  758   2.117   0.178   0.383 -0.1962 -0.0438  1.8600
  178SOL    HW3  759   2.251   0.116   0.350 -0.7815 -0.1606 -0.4163
  178SOL    MW4  760   2.202   0.169   0.399  0.2520  0.4654 -0.0401
  179SOL     OW  761   3.631   0.314   0.496  0.5296  0.2548 -0.2471
  179SOL    HW2  762   3.689   0.390   0.488 -0.7306  1.2778  0.2252
  179SOL    HW3  763   3.668   0.250   0.436  2.1860  0.8743  0.0686
  179SOL    MW4  764   3.644   0.316   0.487  0.5820  0.4715 -0.1431
  180SOL     OW  765   2.749   0.817   0.505  0.3427  0.0148  0.2749
  180SOL    HW2  766   2.754   0.721   0.505  0.9403  0.0464 -0.5674
  180SOL    HW3  767   2.800   0.844   0.429  0.1234  1.0048  0.4745
  180SOL    MW4  768   2.756   0.808   0.495  0.3924  0.1497  0.1902
  181SOL     OW  769   3.634   1.660   0.520  0.3763  0.0133 -0.3179
  181SOL    HW2  770   3.666   1.748   0.499 -0.8657  0.5804  0.1153
  181SOL    HW3  771   3.621   1.662   0.615 -1.0081 -0.1743 -0.4976
  181SOL    MW4  772   3.636   1.672   0.529  0.0298  0.0633 -0.2845
  182SOL     OW  773   2.871   1.251   0.540  0.2005  0.4724  0.1558
  182SOL    HW2  774   2.930   1.321   0.513  0.9509 -0.4103 -0.5399
  182SOL    HW3  775   2.866   1.260   0.635  2.1482  0.0408  0.3261
  182SOL    MW4  776   2.878   1.261   0.549  0.5567  0.2989  0.0865
  183SOL     OW  777   3.581   0.669   0.358 -0.1356 -0.6100  0.4728
  183SOL    HW2  778   3.581   0.714   0.273  0.4137 -1.5156 -0.0109
  183SOL    HW3  779   3.488   0.652   0.375 -0.1850 -1.1738 -0.3423
  183SOL    MW4  780   3.569   0.673   0.349 -0.0699 -0.8039  0.3014
  184SOL     OW  781   3.359   1.722   0.492 -0.2891  0.2943 -0.2810
  184SOL    HW2  782   3.436   1.677   0.457 -1.4884 -0.2725 -2.2029
  184SOL    HW3  783   3.346   1.683   0.579  1.4389  0.2511 -0.0159
  184SOL    MW4  784   3.367   1.711   0.499 -0.2191  0.2139 -0.4996
  185SOL     OW  785   2.897   2.441   0.681  0.2736  0.5363  0.2504
  185SOL    HW2  786   2.893   2.351   0.648 -0.3913  0.4837  0.4457
  185SOL    HW3  787   2.805   2.462   0.701  0.1812  1.9354 -1.5500
  185SOL    MW4  788   2.884   2.432   0.680  0.1736  0.7141  0.0386
  186SOL     OW  789   3.315   2.366   0.596  0.6500  0.5648 -0.3471
  186SOL    HW2  790   3.400   2.375   0.552  0.4121  0.5256 -0.8224
  186SOL    HW3  791   3.337   2.350   0.688  1.1503  1.2466 -0.3416
  186SOL    MW4  792   3.329   2.365   0.602  0.6843  0.6497 -0.4091
  187SOL     OW  793   2.283   2.931   0.361 -0.2722  0.1011 -0.3007
  187SOL    HW2  794   2.359   2.892   0.404  0.8502  1.1725 -1.2946
  187SOL    HW3  795   2.216   2.862   0.364  0.8174 -0.9428  0.3503
  187SOL    MW4  796   2.284   2.917   0.367  0.0198  0.1047 -0.3459
  188SOL     OW  797   2.940   2.286   0.223  0.2690 -0.3417  0.1677
  188SOL    HW2  798   3.035   2.282   0.211  0.3929  0.2163  0.9075
  188SOL    HW3  799   2.924   2.373   0.260 -0.5184 -0.4844  0.1712
  188SOL    MW4  800   2.950   2.297   0.226  0.1812 -0.2871  0.2658
  189SOL     OW  801   2.993   2.807   0.750  0.2495  0.1177 -0.0935
  189SOL    HW2  802   3.017   2.837   0.662  1.2588  0.1826  0.1907
  189SOL    HW3  803   3.067   2.753   0.778  0.1002  0.3782  0.8422
  189SOL    MW4  804   3.006   2.804   0.742  0.3626  0.1607  0.0674
  190SOL     OW  805   3.181   4.530   0.398 -0.1798  0.3556 -0.3206
  190SOL    HW2  806   3.252   4.466   0.408  0.2033  0.8264  0.0305
  190SOL    HW3  807   3.106   4.489   0.439 -0.4287 -0.6482 -1.7560
  190SOL    MW4  808   3.181   4.516   0.405 -0.1624  0.2851 -0.4637
  191SOL     OW  809   2.941   4.361   0.504  0.1643  0.3284 -0.0430
  191SOL    HW2  810   2.944   4.265   0.510  0.0150  0.3279  0.0344
  191SOL    HW3  811   2.914   4.389   0.591  0.6663  0.4644  0.0665
  191SOL    MW4  812   2.938   4.352   0.516  0.2105  0.3462 -0.0183
  192SOL     OW  813   3.160   3.371   0.314  0.1109  0.4884  0.1537
  192SOL    HW2  814   3.120   3.319   0.384  0.6651  0.9191  0.7929
  192SOL    HW3  815   3.099   3.444   0.301 -1.0174 -0.6879 -1.2251
  192SOL    MW4  816   3.146   3.374   0.322  0.0353  0.3898  0.0561
  193SOL     OW  817   2.913   2.579   0.334  0.3386 -0.3039 -0.2844
  193SOL    HW2  818   2.995   2.571   0.382  0.4567 -1.1908 -0.6250
  193SOL    HW3  819   2.923   2.659   0.282  0.6691  0.0206  0.2818
  193SOL    MW4  820   2.925   2.589   0.333  0.3977 -0.3779 -0.2546
  194SOL     OW  821   2.922   2.879   0.282  0.0592 -0.0321 -0.2066
  194SOL    HW2  822   2.961   2.941   0.220 -0.2212 -1.0738 -1.4544
  194SOL    HW3  823   2.831   2.909   0.292  0.3992  0.7698  0.5547
  194SOL    MW4  824   2.915   2.891   0.275  0.0672 -0.0639 -0.2708
  195SOL     OW  825   2.617   3.873   0.519 -0.2406  0.2761 -0.3698
  195SOL    HW2  826   2.560   3.917   0.456  0.1469  0.4091 -0.6283
  195SOL    HW3  827   2.577   3.787   0.531 -0.5786  0.4223 -0.4386
  195SOL    MW4  828   2.604   3.867   0.512 -0.2339  0.3130 -0.4130
  196SOL     OW  829   2.502   3.600   0.509 -0.1598  0.3923 -0.3155
  196SOL    HW2  830   2.437   3.543   0.469 -0.0687  0.4985 -0.6169
  196SOL    HW3  831   2.487   3.591   0.603  0.3891 -0.7403 -0.3412
  196SOL    MW4  832   2.491   3.591   0.516 -0.0753  0.2570 -0.3586
  197SOL     OW  833   0.115   3.980   0.527 -0.1902 -0.4241  0.4959
  197SOL    HW2  834   0.099   4.002   0.619  0.7143 -1.2207  0.8488
  197SOL    HW3  835   0.118   3.884   0.525 -1.1290 -0.4419 -0.5209
  197SOL    MW4  836   0.113   3.970   0.539 -0.1948 -0.5314  0.4082
  198SOL     OW  837   3.748   0.120   0.319  0.3432 -0.1559 -0.3034
  198SOL    HW2  838   3.785   0.174   0.249 -0.2035 -0.6013 -0.9495
  198SOL    HW3  839   3.821   0.066   0.349  0.5092 -0.1881 -0.7558
  198SOL    MW4  840   3.762   0.120   0.314  0.2930 -0.2189 -0.4483
  199SOL     OW  841   3.429   4.385   0.505  0.5074 -0.2576  0.1135
  199SOL    HW2  842   3.451   4.292   0.502 -0.0747 -0.3739 -0.5958
  199SOL    HW3  843   3.495   4.428   0.452 -0.1246 -0.4440 -0.8338
  199SOL    MW4  844   3.441   4.379   0.498  0.3471 -0.2980 -0.1051
  200SOL     OW  845   3.805   0.541   0.507 -0.0713 -0.0933 -0.3342
  200SOL    HW2  846   3.785   0.545   0.600 -0.7141 -0.1581 -0.4707
  200SOL    HW3  847   3.741   0.599   0.466 -0.2228 -0.5944 -0.8078
  200SOL    MW4  848   3.794   0.549   0.514 -0.1760 -0.1680 -0.4147
  201SOL     OW  849   4.105   0.205   0.524  0.0452  0.1709 -0.0939
  201SOL    HW2  850   4.196   0.195   0.496 -0.4402  0.0530 -1.6976
  201SOL    HW3  851   4.056   0.145   0.468 -0.9975  0.0937  0.8845
  201SOL    MW4  852   4.110   0.196   0.513 -0.1569  0.1451 -0.1764
  202SOL     OW  853   4.001   0.417   0.367  0.2752  0.2832 -0.2444
  202SOL    HW2  854   3.931   0.465   0.412 -0.2183 -0.5928 -0.0654
  202SOL    HW3  855   4.037   0.358   0.433  1.0085  0.5444 -0.4105
  202SOL    MW4  856   3.996   0.416   0.381  0.3068  0.2021 -0.2427
  203SOL     OW  857   3.580   1.170   0.399 -0.1506  0.2483  0.3463
  203SOL    HW2  858   3.487   1.189   0.409 -0.1378  0.3039  0.3618
  203SOL    HW3  859   3.587   1.075   0.414 -0.1489  0.3093  0.7386
  203SOL    MW4  860   3.568   1.160   0.402 -0.1485  0.2638  0.4001
  204SOL     OW  861   0.081   0.993   0.421  0.4168  0.1141 -0.4882
  204SOL    HW2  862   0.150   0.931   0.445  0.7578  0.6268 -0.1267
  204SOL    HW3  863   0.114   1.078   0.449 -0.8184  0.2317  0.6878
  204SOL    MW4  864   0.094   0.996   0.428  0.2988  0.1972 -0.2854
  205SOL     OW  865   2.922   0.886   0.294 -0.5185 -0.0887 -0.3347
  205SOL    HW2  866   2.902   0.913   0.204  0.0875  0.1398 -0.4058
  205SOL    HW3  867   2.965   0.963   0.332  1.5789 -1.1016 -0.6531
  205SOL    MW4  868   2.925   0.900   0.287 -0.1621 -0.1922 -0.3861
  206SOL     OW  869   3.609   0.921   0.513  0.0959 -0.1388  0.3708
  206SOL    HW2  870   3.574   0.903   0.601 -0.4683  0.3317  0.2480
  206SOL    HW3  871   3.598   0.839   0.466 -0.7943 -0.0190  0.3548
  206SOL    MW4  872   3.603   0.908   0.519 -0.0963 -0.0609  0.3525
  207SOL     OW  873   3.722   1.391   0.531 -0.1271  0.1593  0.4841
  207SOL    HW2  874   3.688   1.479   0.515  0.2809  0.2668  0.1905
  207SOL    HW3  875   3.677   1.336   0.468 -0.5104  0.1254  0.7834
  207SOL    MW4  876   3.712   1.396   0.521 -0.1237  0.1689  0.4849
  208SOL     OW  877   3.943   2.439   0.784  0.3588  0.0357  0.1520
  208SOL    HW2  878   3.902   2.523   0.768 -0.3407 -0.1163  1.0992
  208SOL    HW3  879   3.871   2.382   0.812  0.8585 -0.8083 -0.2644
  208SOL    MW4  880   3.928   2.442   0.786  0.3321 -0.0958  0.2221
  209SOL     OW  881   4.292   2.524   0.491  0.4120 -0.6807 -0.1896
  209SOL    HW2  882   4.343   2.503   0.570  1.1457 -1.1227 -0.7785
  209SOL    HW3  883   4.282   2.620   0.494  0.1225 -0.7316  0.6299
  209SOL    MW4  884   4.297   2.534   0.502  0.4706 -0.7460 -0.1591
  210SOL     OW  885   3.187   2.141   0.497  0.3174 -0.3300  0.1790
  210SOL    HW2  886   3.098   2.147   0.531 -0.5285 -0.4809 -1.9627
  210SOL    HW3  887   3.227   2.225   0.521 -0.6916  0.1295  0.2827
  210SOL    MW4  888   3.181   2.153   0.505  0.0727 -0.2894 -0.0899
  211SOL     OW  889   2.865   3.868   0.383  0.6942  0.2951 -0.0408
  211SOL    HW2  890   2.843   3.887   0.292  0.4574 -0.6406 -0.1898
  211SOL    HW3  891   2.780   3.854   0.426  0.8894 -1.5411 -0.2073
  211SOL    MW4  892   2.851   3.868   0.377  0.6888 -0.0703 -0.0824
  212SOL     OW  893   3.133   2.556   0.512  0.5123  0.0239 -0.1377
  212SOL    HW2  894   3.055   2.541   0.566  0.2012 -1.2032 -0.9223
  212SOL    HW3  895   3.197   2.492   0.541 -0.4307 -2.1852 -2.7114
  212SOL    MW4  896   3.131   2.546   0.523  0.3467 -0.4294 -0.5807
  213SOL     OW  897   3.849   2.672   0.684  0.3756  0.1502  0.0462
  213SOL    HW2  898   3.888   2.751   0.723  1.2401 -0.5160  0.5394
  213SOL    HW3  899   3.885   2.668   0.596  0.0288  0.5258 -0.1113
  213SOL    MW4  900   3.859   2.682   0.678  0.4439  0.1118  0.0905
  214SOL     OW  901   3.446   2.874   0.650  0.4565  0.3080  0.2321
  214SOL    HW2  902   3.454   2.802   0.713 -0.3449 -0.2142 -0.2497
  214SOL    HW3  903   3.388   2.840   0.582  0.3226  1.3065 -0.1643
  214SOL    MW4  904   3.440   2.860   0.649  0.3333  0.3707  0.1163
  215SOL     OW  905   3.690   3.948   0.371 -0.4777  0.5991 -0.2655
  215SOL    HW2  906   3.771   3.997   0.387 -0.5460  0.4724  0.4784
  215SOL    HW3  907   3.708   3.860   0.403 -0.7991  0.4807 -0.4046
  215SOL    MW4  908   3.703   3.943   0.377 -0.5291  0.5667 -0.1857
  216SOL     OW  909   3.573   2.413   0.461  0.3140 -0.0083 -0.5166
  216SOL    HW2  910   3.614   2.358   0.393  1.7047  0.6878 -0.2618
  216SOL    HW3  911   3.582   2.502   0.428 -1.8884  0.0992 -0.8993
  216SOL    MW4  912   3.580   2.417   0.447  0.2067  0.0980 -0.5335
  217SOL     OW  913   3.472   3.676   0.375 -0.0782 -0.0989 -0.2078
  217SOL    HW2  914   3.379   3.690   0.396  0.0228 -1.1244  1.0364
  217SOL    HW3  915   3.490   3.735   0.302 -1.7786 -0.0818 -0.6311
  217SOL    MW4  916   3.462   3.685   0.368 -0.2890 -0.2320 -0.0995
  218SOL     OW  917   4.263   3.492   0.068 -0.6016  0.1487 -0.3624
  218SOL    HW2  918   4.199   3.550   0.111  0.9607  1.4431  0.2617
  218SOL    HW3  919   4.245   3.501  -0.025 -0.4104  1.6028 -0.2642
  218SOL    MW4  920   4.252   3.501   0.061 -0.3705  0.5114 -0.2671
  219SOL     OW  921   3.968   3.893   0.164  0.0471  0.7639 -0.4502
  219SOL    HW2  922   3.878   3.925   0.161 -0.0728  0.3600 -1.0902
  219SOL    HW3  923   4.018   3.966   0.202 -0.2096  1.7415 -1.9616
  219SOL    MW4  924   3.963   3.907   0.169 -0.0024  0.8399 -0.7341
  220SOL     OW  925   4.273   4.277   0.483  0.1136 -0.1087 -0.2339
  220SOL    HW2  926   4.303   4.189   0.460  0.3439 -0.1614  0.2836
  220SOL    HW3  927   4.275   4.280   0.578 -0.6561  0.1922 -0.2174
  220SOL    MW4  928   4.277   4.266   0.492  0.0424 -0.0758 -0.1634
  221SOL     OW  929   4.082   4.413   0.312  0.2878  0.5592  0.0067
  221SOL    HW2  930   4.160   4.423   0.366 -0.5419  0.9314  1.1542
  221SOL    HW3  931   4.009   4.414   0.374 -0.4811 -2.3379 -0.7726
  221SOL    MW4  932   4.083   4.414   0.327  0.0763  0.2265  0.0553
  222SOL     OW  933   3.870   1.048   0.569  0.3037  0.0509 -0.3029
  222SOL    HW2  934   3.783   1.018   0.541  0.3657  0.0426 -0.4904
  222SOL    HW3  935   3.852   1.122   0.627  0.0712 -1.7710  1.9863
  222SOL    MW4  936   3.856   1.054   0.573  0.2811 -0.1906 -0.0257
  223SOL     OW  937   0.664   2.130   0.473  0.0924 -0.3697 -0.3929
  223SOL    HW2  938   0.588   2.077   0.449  0.5416 -0.7118 -1.0545
  223SOL    HW3  939   0.738   2.089   0.429  1.0009 -1.2190  1.8233
  223SOL    MW4  940   0.664   2.118   0.464  0.2715 -0.5269 -0.1878
  224SOL     OW  941   4.142   1.050   0.471 -0.2014 -0.5383  0.3760
  224SOL    HW2  942   4.048   1.064   0.473 -0.0284  0.6588  1.0404
  224SOL    HW3  943   4.179   1.138   0.482  0.9976 -0.8248 -1.1780
  224SOL    MW4  944   4.135   1.064   0.473 -0.0205 -0.4182  0.2586
  225SOL     OW  945   4.338   0.829   0.469  0.2652 -0.3413  0.0374
  225SOL    HW2  946   4.272   0.897   0.458  1.6559  1.0071 -0.1271
  225SOL    HW3  947   4.416   0.864   0.427  1.2329 -1.6893  0.6718
  225SOL    MW4  948   4.340   0.842   0.462  0.5765 -0.3414  0.0994
  226SOL     OW  949   3.636   4.536   0.345  0.2031  0.1002 -0.5754
  226SOL    HW2  950   3.648   4.522   0.251  1.0701  2.0543 -0.7655
  226SOL    HW3  951   3.647   4.630   0.358  0.7278 -0.2244  1.5733
  226SOL    MW4  952   3.639   4.546   0.334  0.3867  0.3147 -0.3169
  227SOL     OW  953   4.136   0.104   0.129  0.2829  0.6738  0.2633
  227SOL    HW2  954   4.146   0.037   0.061 -1.3187 -1.2691  1.8651
  227SOL    HW3  955   4.213   0.094   0.184 -0.2992 -0.3884  0.9106
  227SOL    MW4  956   4.147   0.094   0.127 -0.0052  0.2773  0.5601
  228SOL     OW  957   4.247   1.314   0.501  0.1299  0.2634  0.0765
  228SOL    HW2  958   4.167   1.366   0.509 -1.1305 -1.6670  0.4884
  228SOL    HW3  959   4.275   1.300   0.592 -0.5306 -1.2177  0.0714
  228SOL    MW4  960   4.240   1.319   0.514 -0.1235 -0.1868  0.1302
  229SOL     OW  961   3.702   2.222   0.302  0.2539 -0.0632  0.1094
  229SOL    HW2  962   3.705   2.147   0.361  0.5484 -0.4565 -0.4060
  229SOL    HW3  963   3.788   2.225   0.261  1.3451  2.4279  2.4327
  229SOL    MW4  964   3.714   2.212   0.304  0.4368  0.2134  0.3480
  230SOL     OW  965   3.992   1.480   0.502  0.6603 -0.1682  0.3998
  230SOL    HW2  966   3.992   1.533   0.422  1.2817 -0.0364  0.4856
  230SOL    HW3  967   3.903   1.444   0.506  0.3484  0.5481  0.1347
  230SOL    MW4  968   3.980   1.482   0.492  0.7012 -0.0563  0.3762
  231SOL     OW  969   4.053   2.174   0.406 -0.1875 -0.1090  0.2560
  231SOL    HW2  970   4.031   2.258   0.446  0.7397 -0.9204  2.4876
  231SOL    HW3  971   4.147   2.163   0.421 -0.4502 -1.9214  0.6943
  231SOL    MW4  972   4.063   2.184   0.413 -0.0992 -0.4551  0.6083
  232SOL     OW  973   3.963   1.908   0.346  0.2977 -0.2905  0.1021
  232SOL    HW2  974   3.989   1.995   0.375 -0.1609  0.3884 -1.4878
  232SOL    HW3  975   3.867   1.911   0.342  0.3142 -0.6298 -0.6687
  232SOL    MW4  976   3.954   1.919   0.349  0.2391 -0.2458 -0.2094
  233SOL     OW  977   0.308   2.766   0.494  0.0946 -0.2106 -0.1612
  233SOL    HW2  978   0.278   2.676   0.480 -0.5728  0.2210 -1.6136
  233SOL    HW3  979   0.403   2.761   0.487 -0.0062 -0.6255 -1.3763
  233SOL    MW4  980   0.317   2.753   0.492 -0.0068 -0.2084 -0.5131
  234SOL     OW  981   3.661   3.072   0.647  0.7719 -0.6054  0.2861
  234SOL    HW2  982   3.598   3.000   0.644 -0.4480  0.4417  0.4368
  234SOL    HW3  983   3.608   3.151   0.646  2.0436  0.3009  1.9040
  234SOL    MW4  984   3.646   3.073   0.646  0.7784 -0.3479  0.5194
  235SOL     OW  985   4.027   2.444   0.512 -0.0493 -0.5016  0.0555
  235SOL    HW2  986   4.014   2.432   0.606 -0.3747  0.0619  0.0816
  235SOL    HW3  987   4.121   2.463   0.503 -0.4120  1.5301  0.4765
  235SOL    MW4  988   4.038   2.445   0.523 -0.1397 -0.1593  0.1145
  236SOL     OW  989   4.342   4.003   0.416  0.1806  0.1894  0.1650
  236SOL    HW2  990   4.314   3.913   0.433 -0.9861  0.0306 -2.3524
  236SOL    HW3  991   4.436   4.003   0.434  0.1736 -1.5248  0.2446
  236SOL    MW4  992   4.351   3.991   0.421  0.0257 -0.0575 -0.1566
  237SOL     OW  993   4.062   3.622   0.231  0.1983  0.0082  0.0915
  237SOL    HW2  994   4.022   3.691   0.177  0.7003  1.5652  1.6373
  237SOL    HW3  995   3.993   3.597   0.292  0.0142 -0.8731 -0.4806
  237SOL    MW4  996   4.048   3.628   0.232  0.2398  0.0973  0.2199
  238SOL     OW  997   0.335   4.136   0.472 -0.2440 -0.2194  0.0242
  238SOL    HW2  998   0.389   4.117   0.549  0.5679  0.4143 -0.3801
  238SOL    HW3  999   0.255   4.085   0.485 -0.4271  0.4773  1.6459
  238SOL    MW4 1000   0.332   4.127   0.484 -0.1611 -0.0443  0.1848
  239SOL     OW 1001   3.686   3.304   0.283 -0.1968 -0.1990 -0.1535
  239SOL    HW2 1002   3.706   3.211   0.274 -0.5915 -0.4090  1.0686
  239SOL    HW3 1003   3.596   3.305   0.317  0.5858  0.5854  1.9158
  239SOL    MW4 1004   3.677   3.292   0.286 -0.1457 -0.1233  0.2808
  240SOL     OW 1005   3.845   3.057   0.403 -0.3432  0.0797  0.0609
  240SOL    HW2 1006   3.914   3.121   0.423  0.6892 -0.6556 -1.0578
  240SOL    HW3 1007   3.786   3.060   0.479  1.3529  0.1330  1.4070
  240SOL    MW4 1008   3.846   3.066   0.416  0.0165 -0.0103  0.0909
  241SOL     OW 1009   3.886   3.475   0.415  0.0974 -0.3134  0.1658
  241SOL    HW2 1010   3.834   3.551   0.441 -0.4436 -0.7024  0.2491
  241SOL    HW3 1011   3.823   3.416   0.373 -0.0003 -1.7621  2.2336
  241SOL    MW4 1012   3.871   3.477   0.413  0.0134 -0.5560  0.4496
  242SOL     OW 1013   3.522   4.124   0.513 -0.0462  0.3864 -1.1718
  242SOL    HW2 1014   3.583   4.068   0.466  0.0057 -0.7735  0.2569
  242SOL    HW3 1015   3.436   4.086   0.494  0.1035 -1.2080  1.0909
  242SOL    MW4 1016   3.518   4.112   0.504 -0.0196  0.0229 -0.6848
  243SOL     OW 1017   3.216   3.761   0.522 -0.1520 -0.5045  0.3036
  243SOL    HW2 1018   3.139   3.705   0.511 -0.5492  0.3492 -1.5070
  243SOL    HW3 1019   3.261   3.726   0.599 -1.5362 -1.9577  0.4733
  243SOL    MW4 1020   3.212   3.749   0.531 -0.3870 -0.5836  0.0870
  244SOL     OW 1021   4.336   0.131   0.358 -0.4063  0.1652 -0.2825
  244SOL    HW2 1022   4.398   0.203   0.350  0.6918 -0.9415 -1.9917
  244SOL    HW3 1023   4.387   0.058   0.393 -0.7274 -0.7679 -1.7363
  244SOL    MW4 1024   4.351   0.131   0.362 -0.3042 -0.1040 -0.6998
  245SOL     OW 1025   0.217   0.022   0.858 -0.5723 -0.4852  0.0046
  245SOL    HW2 1026   0.225  -0.066   0.821  0.0815 -0.2106 -0.5107
  245SOL    HW3 1027   0.135   0.056   0.822 -0.6172 -0.7315 -0.1249
  245SOL    MW4 1028   0.207   0.015   0.848 -0.4919 -0.4814 -0.0805
  246SOL     OW 1029   4.476   0.095   0.732  0.0808 -0.3707  0.0991
  246SOL    HW2 1030   4.399   0.051   0.767 -0.6319  0.5958 -0.2303
  246SOL    HW3 1031   4.460   0.188   0.747  1.5023 -0.2009  0.6524
  246SOL    MW4 1032   4.464   0.102   0.739  0.1745 -0.2208  0.1286
  247SOL     OW 1033   4.479   0.373   0.806  0.3744 -0.8574 -0.3670
  247SOL    HW2 1034   4.474   0.365   0.901  1.1784  1.5035 -0.0883
  247SOL    HW3 1035   4.556   0.428   0.790 -0.8117  0.3227 -2.2752
  247SOL    MW4 1036   4.488   0.379   0.816  0.3242 -0.3903 -0.5820
  248SOL     OW 1037   0.230   0.487   0.715 -0.1005 -0.1722  0.4650
  248SOL    HW2 1038   0.300   0.454   0.772  0.4508 -0.2805 -0.2639
  248SOL    HW3 1039   0.214   0.576   0.746  0.1047 -0.2798  0.8825
  248SOL    MW4 1040   0.237   0.495   0.726 -0.0007 -0.2007  0.4240
  249SOL     OW 1041   0.203   0.744   0.828  0.1718  0.1827  0.1638
  249SOL    HW2 1042   0.197   0.748   0.923 -1.1889 -0.5238  0.1281
  249SOL    HW3 1043   0.133   0.802   0.797  1.6662  1.7183 -0.4281
  249SOL    MW4 1044   0.193   0.752   0.837  0.1895  0.2922  0.0811
  250SOL     OW 1045   4.429   0.886   0.753 -0.0023  0.0809 -0.0686
  250SOL    HW2 1046   4.362   0.827   0.789  0.3649 -0.5192 -0.3565
  250SOL    HW3 1047   4.407   0.892   0.660 -1.0488  1.7619  0.2648
  250SOL    MW4 1048   4.417   0.879   0.746 -0.0916  0.2235 -0.0626
  251SOL     OW 1049   0.031   1.125   0.836 -0.1483 -0.7104  0.1466
  251SOL    HW2 1050   0.013   1.128   0.930 -0.5837  0.1815  0.0428
  251SOL    HW3 1051   0.002   1.037   0.809 -1.4058 -0.4438  0.5810
  251SOL    MW4 1052   0.025   1.114   0.845 -0.3717 -0.5577  0.1903
  252SOL     OW 1053   0.181   1.353   0.758 -0.3236 -0.3589 -0.2634
  252SOL    HW2 1054   0.123   1.280   0.781  0.3527 -0.7993  0.0689
  252SOL    HW3 1055   0.183   1.352   0.662 -1.8251  0.4311 -0.3277
  252SOL    MW4 1056   0.173   1.343   0.748 -0.4325 -0.3127 -0.2280
  253SOL     OW 1057   0.192   1.581   0.903  0.1070 -0.4521 -0.2809
  253SOL    HW2 1058   0.279   1.615   0.884  0.1032  0.2745  0.9440
  253SOL    HW3 1059   0.184   1.503   0.848  1.3715 -0.3018 -0.6934
  253SOL    MW4 1060   0.202   1.575   0.893  0.2733 -0.3364 -0.1737
  254SOL     OW 1061   4.451   1.711   0.826 -0.2399  0.1881 -0.5292
  254SOL    HW2 1062   4.381   1.648   0.840  0.6004 -1.5139 -3.4360
  254SOL    HW3 1063   4.525   1.677   0.876 -0.2382 -0.3152 -0.8749
  254SOL    MW4 1064   4.452   1.699   0.834 -0.1292 -0.1028 -0.9583
  255SOL     OW 1065   4.477   1.982   0.864 -0.0795  0.0452 -0.0725
  255SOL    HW2 1066   4.562   2.000   0.825  1.8826 -0.8904  3.5534
  255SOL    HW3 1067   4.453   1.895   0.833  0.3778  0.2257 -0.9380
  255SOL    MW4 1068   4.485   1.973   0.855  0.2398 -0.0545  0.2918
  256SOL     OW 1069   0.238   2.049   0.721  0.0221 -0.5859 -0.0368
  256SOL    HW2 1070   0.218   2.141   0.740  1.5445 -0.0925 -0.7697
  256SOL    HW3 1071   0.218   2.039   0.628 -0.5151 -1.1068  0.1338
  256SOL    MW4 1072   0.233   2.060   0.712  0.1521 -0.5894 -0.1110
  257SOL     OW 1073   0.177   2.313   0.781  0.3335 -0.0302  0.4580
  257SOL    HW2 1074   0.165   2.304   0.875 -0.9323  0.5556  0.3726
  257SOL    HW3 1075   0.267   2.341   0.770 -0.0112  1.5748  1.6176
  257SOL    MW4 1076   0.187   2.316   0.792  0.1210  0.2589  0.5997
  258SOL     OW 1077   4.435   2.482   0.720  0.2152 -0.1602  0.0668
  258SOL    HW2 1078   4.377   2.444   0.786  1.1464 -0.9985  0.4167
  258SOL    HW3 1079   4.515   2.430   0.726  0.7814  0.5958 -0.8293
  258SOL    MW4 1080   4.438   2.470   0.730  0.4129 -0.1709 -0.0052
  259SOL     OW 1081   4.480   2.711   0.858  0.4259 -0.1675  0.1217
  259SOL    HW2 1082   4.470   2.692   0.951  1.4983 -0.2958  0.2213
  259SOL    HW3 1083   4.447   2.633   0.813  0.5837 -0.4020  0.4163
  259SOL    MW4 1084   4.474   2.698   0.864  0.5889 -0.2151  0.1738
  260SOL     OW 1085   0.185   2.843   0.752 -0.3293  0.0438  0.0046
  260SOL    HW2 1086   0.106   2.802   0.788 -0.6027  0.7409  0.2021
  260SOL    HW3 1087   0.195   2.804   0.665 -0.6172 -0.4028  0.1690
  260SOL    MW4 1088   0.176   2.832   0.745 -0.4034  0.0768  0.0523
  261SOL     OW 1089   0.243   3.106   0.819 -0.2064 -0.4791 -0.0769
  261SOL    HW2 1090   0.236   3.116   0.914 -0.9495 -0.8180 -0.0954
  261SOL    HW3 1091   0.221   3.015   0.803 -0.7582 -0.2461 -0.6444
  261SOL    MW4 1092   0.239   3.095   0.830 -0.3773 -0.4930 -0.1543
  262SOL     OW 1093   0.038   3.281   0.769  0.5770  0.8370 -0.2557
  262SOL    HW2 1094   0.108   3.216   0.779 -0.9617 -0.8401 -0.1119
  262SOL    HW3 1095   0.026   3.289   0.674  0.1887  0.2816 -0.2519
  262SOL    MW4 1096   0.046   3.273   0.758  0.3227  0.5426 -0.2362
  263SOL     OW 1097   4.438   3.524   0.874  0.3002 -0.5256 -0.3114
  263SOL    HW2 1098   4.387   3.556   0.800 -0.6027  1.0018  0.9581
  263SOL    HW3 1099   4.473   3.440   0.844  1.7697  1.0639 -3.2887
  263SOL    MW4 1100   4.436   3.517   0.860  0.3753 -0.1147 -0.5367
  264SOL     OW 1101   0.210   3.624   0.811 -0.2779  0.0894 -0.2942
  264SOL    HW2 1102   0.117   3.603   0.814 -0.4152  0.4449 -1.8812
  264SOL    HW3 1103   0.228   3.646   0.719  1.3894 -0.0773 -0.0362
  264SOL    MW4 1104   0.200   3.625   0.799 -0.0760  0.1147 -0.4695
  265SOL     OW 1105   0.227   3.882   0.882  0.0459  0.0517 -0.1841
  265SOL    HW2 1106   0.243   3.880   0.977  0.5507  0.4834 -0.2589
  265SOL    HW3 1107   0.216   3.790   0.858  1.1347 -0.1599  0.0874
  265SOL    MW4 1108   0.227   3.870   0.892  0.2561  0.0808 -0.1581
  266SOL     OW 1109   0.025   4.036   0.788 -0.3507 -0.7497 -0.5477
  266SOL    HW2 1110  -0.056   3.985   0.792 -0.2685 -0.8144  0.6052
  266SOL    HW3 1111   0.092   3.977   0.822 -0.4238  0.4358  1.7524
  266SOL    MW4 1112   0.023   4.021   0.793 -0.3495 -0.6018 -0.0921
  267SOL     OW 1113   0.026   4.282   0.919 -0.1618 -0.2789  0.3491
  267SOL    HW2 1114   0.034   4.273   1.014 -1.1654  0.5099  0.5122
  267SOL    HW3 1115   0.023   4.192   0.887  0.0185 -0.5500  1.0711
  267SOL    MW4 1116   0.027   4.269   0.927 -0.2704 -0.2112  0.4658
  268SOL     OW 1117   0.227   4.419   0.764  0.5787 -0.1985 -0.1866
  268SOL    HW2 1118   0.155   4.369   0.804  0.8389 -0.9807 -0.6771
  268SOL    HW3 1119   0.214   4.408   0.670  0.5124  0.8561 -0.3070
  268SOL    MW4 1120   0.216   4.411   0.757  0.6043 -0.1626 -0.2672
  269SOL     OW 1121   0.656   4.649   0.844 -0.4060  0.4420  0.0295
  269SOL    HW2 1122   0.648   4.655   0.939  0.8240 -0.6886  0.2151
  269SOL    HW3 1123   0.580   4.696   0.810 -1.7247 -0.5261  1.5829
  269SOL    MW4 1124   0.645   4.656   0.852 -0.4178  0.1650  0.2589
  270SOL     OW 1125   0.442   0.145   0.752 -0.3507  0.0475 -0.1989
  270SOL    HW2 1126   0.358   0.100   0.765  0.3222 -1.5088 -1.1823
  270SOL    HW3 1127   0.443   0.168   0.659 -0.4165  1.5892  0.1655
  270SOL    MW4 1128   0.431   0.142   0.742 -0.2706  0.0456 -0.2805
  271SOL     OW 1129   0.423   0.391   0.893 -0.2858  0.1569 -0.5514
  271SOL    HW2 1130   0.480   0.436   0.831 -2.2708  1.5892 -1.3814
  271SOL    HW3 1131   0.422   0.300   0.863 -0.4347  0.6353 -2.0051
  271SOL    MW4 1132   0.431   0.385   0.881 -0.5674  0.4089 -0.8527
  272SOL     OW 1133   0.601   0.523   0.707 -0.1243  0.2536 -0.3859
  272SOL    HW2 1134   0.688   0.486   0.722 -0.0014  0.3770 -0.7942
  272SOL    HW3 1135   0.599   0.602   0.762 -0.2061 -0.0848  0.1012
  272SOL    MW4 1136   0.612   0.529   0.716 -0.1189  0.2253 -0.3755
  273SOL     OW 1137   0.626   0.740   0.859 -0.4111 -0.5829 -0.2773
  273SOL    HW2 1138   0.709   0.764   0.819  0.0591  1.6561  1.9021
  273SOL    HW3 1139   0.569   0.816   0.842 -0.9462 -0.6498  1.1644
  273SOL    MW4 1140   0.629   0.753   0.851 -0.4197 -0.2964  0.2004
  274SOL     OW 1141   0.436   0.908   0.753  0.3410 -0.1043 -0.2574
  274SOL    HW2 1142   0.419   1.000   0.769  2.8198  0.3895 -0.2001
  274SOL    HW3 1143   0.360   0.862   0.788 -2.0307  2.0409 -2.4488
  274SOL    MW4 1144   0.424   0.914   0.760  0.3551  0.2439 -0.5390
  275SOL     OW 1145   0.410   1.179   0.849 -0.3384 -0.1765  0.4790
  275SOL    HW2 1146   0.488   1.232   0.837 -0.6209 -0.0146 -0.6545
  275SOL    HW3 1147   0.337   1.238   0.831 -0.7662 -0.0757  2.4289
  275SOL    MW4 1148   0.410   1.194   0.845 -0.4321 -0.1417  0.5867
  276SOL     OW 1149   0.650   1.317   0.793  0.4511  0.5440  0.1741
  276SOL    HW2 1150   0.655   1.407   0.823 -2.6129  0.8053  0.0865
  276SOL    HW3 1151   0.636   1.324   0.698  0.8916 -0.0313  0.0647
  276SOL    MW4 1152   0.649   1.330   0.784  0.1050  0.5025  0.1481
  277SOL     OW 1153   0.709   1.590   0.870  0.2619 -0.4348  0.1686
  277SOL    HW2 1154   0.691   1.590   0.964  2.3495 -0.0698  0.5918
  277SOL    HW3 1155   0.627   1.617   0.830 -0.3509  0.4314  1.9542
  277SOL    MW4 1156   0.696   1.593   0.877  0.4565 -0.2724  0.4600
  278SOL     OW 1157   0.437   1.648   0.798 -0.2033  0.5868  0.0746
  278SOL    HW2 1158   0.446   1.740   0.825 -0.4673  0.6691 -0.1142
  278SOL    HW3 1159   0.423   1.653   0.703  0.3432  0.3232 -0.0262
  278SOL    MW4 1160   0.436   1.661   0.789 -0.1660  0.5628  0.0364
  279SOL     OW 1161   0.446   1.924   0.886 -0.1207 -0.6647  0.3873
  279SOL    HW2 1162   0.422   1.929   0.978 -1.5299 -1.0946  0.0433
  279SOL    HW3 1163   0.377   1.972   0.840  1.4220  0.9978 -0.3163
  279SOL    MW4 1164   0.434   1.931   0.892 -0.1031 -0.5020  0.2491
  280SOL     OW 1165   0.675   2.046   0.749 -0.1964  0.3754 -0.0505
  280SOL    HW2 1166   0.607   1.981   0.765  1.7789 -1.5256  0.8461
  280SOL    HW3 1167   0.658   2.077   0.660 -0.7576 -1.8886 -0.7555
  280SOL    MW4 1168   0.664   2.041   0.739 -0.0098 -0.1743 -0.0252
  281SOL     OW 1169   0.692   2.294   0.868 -0.1512 -0.1597  0.5591
  281SOL    HW2 1170   0.677   2.295   0.962 -0.4347 -0.1878  0.5143
  281SOL    HW3 1171   0.696   2.202   0.844 -0.5189 -0.1538  0.4738
  281SOL    MW4 1172   0.691   2.282   0.877 -0.2372 -0.1626  0.5419
  282SOL     OW 1173   0.471   2.433   0.745  0.1116 -0.1718 -0.0700
  282SOL    HW2 1174   0.543   2.384   0.786  1.5918  2.3089  0.3780
  282SOL    HW3 1175   0.497   2.442   0.654 -0.4306 -0.6800 -0.2788
  282SOL    MW4 1176   0.484   2.428   0.739  0.2353  0.0882 -0.0384
  283SOL     OW 1177   0.407   2.689   0.865  0.3509 -0.5486 -0.2064
  283SOL    HW2 1178   0.399   2.610   0.812 -1.2395  0.1264 -1.0191
  283SOL    HW3 1179   0.335   2.744   0.836  0.1352  0.3083  1.8895
  283SOL    MW4 1180   0.397   2.686   0.854  0.1126 -0.3467 -0.0371
  284SOL     OW 1181   0.607   2.844   0.731  0.3855 -0.5990  0.1055
  284SOL    HW2 1182   0.685   2.798   0.761  0.3613 -0.4650  0.3767
  284SOL    HW3 1183   0.535   2.802   0.777  0.2254 -1.1765 -0.6632
  284SOL    MW4 1184   0.608   2.833   0.741  0.3612 -0.6571  0.0399
  285SOL     OW 1185   0.676   3.083   0.849 -0.3439 -0.5369  0.0468
  285SOL    HW2 1186   0.614   3.144   0.808 -1.1770 -1.0316  0.5518
  285SOL    HW3 1187   0.649   2.997   0.819  0.2756 -0.7342  0.0505
  285SOL    MW4 1188   0.664   3.080   0.840 -0.3721 -0.6280  0.1139
  286SOL     OW 1189   0.480   3.266   0.767  0.3697  0.2097 -0.4886
  286SOL    HW2 1190   0.457   3.346   0.815 -0.5190  0.3190 -1.0898
  286SOL    HW3 1191   0.407   3.206   0.783 -0.0220  0.3086 -1.8443
  286SOL    MW4 1192   0.467   3.269   0.775  0.2007  0.2375 -0.7468
  287SOL     OW 1193   0.464   3.529   0.857 -0.0653  0.1902 -0.0053
  287SOL    HW2 1194   0.480   3.499   0.946  2.0316  0.4058 -0.2915
  287SOL    HW3 1195   0.377   3.570   0.861  0.6607  1.5771  2.2853
  287SOL    MW4 1196   0.454   3.530   0.869  0.3072  0.4017  0.2592
  288SOL     OW 1197   0.667   3.669   0.725 -0.1269 -0.1617 -0.4905
  288SOL    HW2 1198   0.590   3.632   0.767  0.4487  0.3116  1.0442
  288SOL    HW3 1199   0.684   3.750   0.773  2.7953 -1.5121  0.9230
  288SOL    MW4 1200   0.659   3.675   0.737  0.3346 -0.2775 -0.1015
  289SOL     OW 1201   0.646   3.932   0.858  0.4313  0.0898  0.3700
  289SOL    HW2 1202   0.711   3.994   0.825  0.8606 -0.4177  0.2616
  289SOL    HW3 1203   0.565   3.957   0.814  0.9251 -0.3656 -0.8244
  289SOL    MW4 1204   0.644   3.943   0.848  0.5531 -0.0372  0.1982
  290SOL     OW 1205   0.438   4.025   0.713  0.1115 -0.6516  0.2089
  290SOL    HW2 1206   0.440   4.105   0.766  1.1271 -0.2815 -0.3615
  290SOL    HW3 1207   0.355   3.983   0.735  0.2716 -0.2209  1.6762
  290SOL    MW4 1208   0.427   4.030   0.723  0.2666 -0.5455  0.3272
  291SOL     OW 1209   0.448   4.259   0.844  0.1389 -0.1059 -0.3738
  291SOL    HW2 1210   0.453   4.276   0.938  1.3269  2.8497 -0.9534
  291SOL    HW3 1211   0.372   4.310   0.814  0.8823  0.4529 -1.3321
  291SOL    MW4 1212   0.439   4.268   0.853  0.3937  0.3576 -0.5767
  292SOL     OW 1213   0.675   4.390   0.750  0.2080 -0.2898 -0.0651
  292SOL    HW2 1214   0.600   4.342   0.786 -0.7567 -0.8774 -2.7235
  292SOL    HW3 1215   0.663   4.480   0.780 -0.5918 -0.7331  0.9841
  292SOL    MW4 1216   0.663   4.395   0.759 -0.0247 -0.4263 -0.2775
  293SOL     OW 1217   1.087   4.655   0.835  0.6371  0.4271  0.5987
  293SOL    HW2 1218   1.163   4.694   0.791  1.0264 -0.2085  0.6926
  293SOL    HW3 1219   1.012   4.704   0.802  0.9183 -0.1185 -0.8636
  293SOL    MW4 1220   1.087   4.666   0.825  0.7256  0.2713  0.4182
  294SOL     OW 1221   0.864   0.137   0.732  0.0962  0.1647 -0.1767
  294SOL    HW2 1222   0.864   0.227   0.766  1.5053  0.3988 -0.7874
  294SOL    HW3 1223   0.796   0.093   0.783  0.7576  1.0510  1.5268
  294SOL    MW4 1224   0.855   0.143   0.743  0.3694  0.3125 -0.0325
  295SOL     OW 1225   0.850   0.410   0.803  0.5913 -0.3813  0.1543
  295SOL    HW2 1226   0.833   0.410   0.897 -0.4115 -1.1983 -0.0191
  295SOL    HW3 1227   0.930   0.462   0.793 -1.0296  2.3795  1.1374
  295SOL    MW4 1228   0.859   0.417   0.814  0.2451 -0.1248  0.2611
  296SOL     OW 1229   1.106   0.533   0.785 -0.3580 -0.0701  0.1263
  296SOL    HW2 1230   1.173   0.471   0.817  1.4232  1.5814 -0.3310
  296SOL    HW3 1231   1.090   0.506   0.695  1.5159  1.0243 -0.5550
  296SOL    MW4 1232   1.113   0.521   0.777  0.1241  0.2921 -0.0238
  297SOL     OW 1233   1.105   0.800   0.847  0.5325 -0.0228 -0.0725
  297SOL    HW2 1234   1.117   0.805   0.941 -1.8806  1.4295  0.2140
  297SOL    HW3 1235   1.100   0.707   0.827 -0.2140 -0.3024  1.4135
  297SOL    MW4 1236   1.106   0.788   0.857  0.1156  0.1319  0.1613
  298SOL     OW 1237   0.854   0.902   0.781 -0.0462 -0.0550  0.0463
  298SOL    HW2 1238   0.946   0.875   0.788 -0.4236 -1.2632  0.5492
  298SOL    HW3 1239   0.841   0.923   0.689  0.1742 -2.0095 -0.4531
  298SOL    MW4 1240   0.864   0.901   0.770 -0.0669 -0.4723  0.0467
  299SOL     OW 1241   0.888   1.191   0.875  0.5660 -0.0311  0.6188
  299SOL    HW2 1242   0.875   1.098   0.857  1.5750 -0.1274  0.3544
  299SOL    HW3 1243   0.805   1.232   0.851  0.4715 -0.7228 -0.2809
  299SOL    MW4 1244   0.876   1.184   0.869  0.6866 -0.1351  0.4652
  300SOL     OW 1245   1.111   1.304   0.716 -0.3628  0.4110 -0.5421
  300SOL    HW2 1246   1.038   1.272   0.769 -0.5113  0.8611 -0.4761
  300SOL    HW3 1247   1.110   1.248   0.638 -1.1388  0.7862 -0.8095
  300SOL    MW4 1248   1.101   1.292   0.713 -0.4847  0.5200 -0.5687
  301SOL     OW 1249   1.001   1.543   0.562  0.2328  0.2236  0.2435
  301SOL    HW2 1250   0.980   1.624   0.607  1.2893  0.0017  1.1706
  301SOL    HW3 1251   1.044   1.489   0.628  1.0698 -0.4255 -0.7986
  301SOL    MW4 1252   1.004   1.547   0.577  0.4826  0.1086  0.2283
  302SOL     OW 1253   0.962   1.662   0.845  0.4474 -0.3637 -0.1959
  302SOL    HW2 1254   0.940   1.755   0.841  1.7279 -0.0804 -0.9453
  302SOL    HW3 1255   0.878   1.617   0.843 -0.1148  0.7183 -1.5383
  302SOL    MW4 1256   0.948   1.668   0.844  0.5422 -0.1837 -0.4719
  303SOL     OW 1257   0.906   1.925   0.862 -0.1538  0.2452  0.2254
  303SOL    HW2 1258   0.880   1.929   0.954 -0.1513 -0.4691  0.2635
  303SOL    HW3 1259   0.830   1.960   0.814 -0.7620 -0.7686  0.4132
  303SOL    MW4 1260   0.892   1.930   0.868 -0.2337  0.0174  0.2552
  304SOL     OW 1261   1.150   2.063   0.787  0.4656 -0.0804 -0.1943
  304SOL    HW2 1262   1.143   2.155   0.813 -0.7626 -0.2549  0.1325
  304SOL    HW3 1263   1.070   2.022   0.821  0.5340 -1.0655 -1.1764
  304SOL    MW4 1264   1.139   2.070   0.795  0.3127 -0.2334 -0.2808
  305SOL     OW 1265   1.071   2.311   0.850  0.0303  0.6516  0.1754
  305SOL    HW2 1266   1.071   2.321   0.945 -0.6215  0.5296  0.1930
  305SOL    HW3 1267   1.143   2.366   0.820 -1.0355  2.2855  0.5816
  305SOL    MW4 1268   1.080   2.320   0.859 -0.1965  0.8512  0.2313
  306SOL     OW 1269   0.865   2.452   0.706 -0.3248 -0.0186 -0.1912
  306SOL    HW2 1270   0.940   2.419   0.756 -1.0897  1.1528  1.7882
  306SOL    HW3 1271   0.790   2.403   0.739 -0.8039  0.5518 -0.4226
  306SOL    MW4 1272   0.865   2.441   0.717 -0.4889  0.2110  0.0395
  307SOL     OW 1273   0.868   2.717   0.811 -0.0237 -0.1510  0.6690
  307SOL    HW2 1274   0.865   2.704   0.906  0.2546 -0.7455  0.5983
  307SOL    HW3 1275   0.862   2.629   0.775 -0.5797  0.1141  0.1211
  307SOL    MW4 1276   0.867   2.703   0.819 -0.0604 -0.1945  0.5873
  308SOL     OW 1277   1.092   2.873   0.752  0.0399 -0.2903  0.1226
  308SOL    HW2 1278   1.012   2.829   0.779 -0.7535  0.7622 -0.4599
  308SOL    HW3 1279   1.112   2.835   0.666 -1.1970  1.1446 -0.8342
  308SOL    MW4 1280   1.084   2.863   0.744 -0.2280  0.0381 -0.0805
  309SOL     OW 1281   1.173   3.143   0.815  0.0481  0.1740 -0.2651
  309SOL    HW2 1282   1.091   3.189   0.826 -0.1358 -0.3035  0.3603
  309SOL    HW3 1283   1.148   3.061   0.772  0.1769 -0.0495  0.0892
  309SOL    MW4 1284   1.159   3.138   0.810  0.0409  0.0813 -0.1358
  310SOL     OW 1285   0.911   3.250   0.815  0.3745  0.2242 -0.3706
  310SOL    HW2 1286   0.871   3.334   0.840 -0.1547 -0.3867  0.8924
  310SOL    HW3 1287   0.844   3.185   0.835  0.9961 -0.5574 -0.8075
  310SOL    MW4 1288   0.897   3.252   0.821  0.3867  0.0403 -0.2615
  311SOL     OW 1289   0.871   3.542   0.893 -0.2775  0.0741 -0.2101
  311SOL    HW2 1290   0.956   3.566   0.856  0.4146  0.8476  1.8567
  311SOL    HW3 1291   0.808   3.595   0.845  0.4935  0.2619 -1.0243
  311SOL    MW4 1292   0.873   3.552   0.882 -0.0845  0.2007 -0.0449
  312SOL     OW 1293   1.133   3.608   0.766 -0.4776 -0.1962 -0.1295
  312SOL    HW2 1294   1.224   3.585   0.784 -0.7618 -0.6456  0.7857
  312SOL    HW3 1295   1.121   3.590   0.673  0.5373  0.4471 -0.3798
  312SOL    MW4 1296   1.143   3.603   0.756 -0.3814 -0.1709 -0.0418
  313SOL     OW 1297   1.060   3.877   0.799 -0.1639 -0.3865  0.3017
  313SOL    HW2 1298   1.071   3.879   0.894  1.9556  0.3767  0.0624
  313SOL    HW3 1299   1.091   3.790   0.773 -1.2161 -0.7826  0.3518
  313SOL    MW4 1300   1.065   3.866   0.808 -0.0229 -0.3378  0.2767
  314SOL     OW 1301   0.878   4.083   0.756  0.2853  0.4029 -0.1483
  314SOL    HW2 1302   0.887   4.156   0.817 -1.5208  0.0116  0.5969
  314SOL    HW3 1303   0.941   4.018   0.788 -0.4558  0.3103  1.1418
  314SOL    MW4 1304   0.888   4.084   0.768 -0.0507  0.3390  0.1202
  315SOL     OW 1305   0.894   4.308   0.893 -0.1248 -0.4340 -0.1396
  315SOL    HW2 1306   0.974   4.337   0.848 -0.8644 -0.9947 -1.8539
  315SOL    HW3 1307   0.823   4.348   0.842 -0.9902 -1.4173  0.3002
  315SOL    MW4 1308   0.895   4.317   0.880 -0.3366 -0.6380 -0.3078
  316SOL     OW 1309   1.116   4.393   0.737  0.1397  0.4574 -0.4993
  316SOL    HW2 1310   1.200   4.351   0.756  0.8186  1.9130 -0.2305
  316SOL    HW3 1311   1.122   4.479   0.779 -3.1556 -1.0053  3.3780
  316SOL    MW4 1312   1.128   4.399   0.745 -0.2056  0.4568  0.0477
  317SOL     OW 1313   1.553   0.016   0.805  0.3316  0.5855 -0.1190
  317SOL    HW2 1314   1.554   0.026   0.901 -0.1763 -1.7516  0.1603
  317SOL    HW3 1315   1.467   0.049   0.779  0.6878  1.7455  0.1695
  317SOL    MW4 1316   1.541   0.022   0.814  0.3115  0.4302 -0.0441
  318SOL     OW 1317   1.317   0.117   0.747 -0.1720  1.1026 -0.0391
  318SOL    HW2 1318   1.319   0.206   0.781 -0.0749  1.0692  0.0424
  318SOL    HW3 1319   1.354   0.123   0.659  1.7801  0.7866  0.7597
  318SOL    MW4 1320   1.322   0.129   0.740  0.0986  1.0565  0.0771
  319SOL     OW 1321   1.349   0.369   0.868  0.0759  0.0964 -0.1895
  319SOL    HW2 1322   1.352   0.378   0.963  0.7246  1.1744 -0.3026
  319SOL    HW3 1323   1.435   0.399   0.838  0.2276 -1.1477 -1.0472
  319SOL    MW4 1324   1.361   0.374   0.876  0.1814  0.0745 -0.3176
  320SOL     OW 1325   1.587   0.464   0.780 -0.0168 -0.3618  0.0615
  320SOL    HW2 1326   1.592   0.551   0.820  0.1506  0.1714 -1.0930
  320SOL    HW3 1327   1.669   0.422   0.803 -0.0220 -0.1447  0.4750
  320SOL    MW4 1328   1.598   0.470   0.788  0.0045 -0.2628 -0.0363
  321SOL     OW 1329   1.562   0.754   0.844 -0.2619 -0.0790  0.4784
  321SOL    HW2 1330   1.635   0.797   0.800  0.5289 -0.9081  0.9841
  321SOL    HW3 1331   1.484   0.796   0.807  0.4314  0.0233 -0.8775
  321SOL    MW4 1332   1.561   0.765   0.833 -0.0660 -0.1749  0.3662
  322SOL     OW 1333   1.331   0.893   0.727 -0.4840 -0.5612 -0.1278
  322SOL    HW2 1334   1.341   0.986   0.744 -1.0617 -0.6481  0.7414
  322SOL    HW3 1335   1.244   0.872   0.762 -0.2577 -1.4658 -0.0966
  322SOL    MW4 1336   1.321   0.902   0.734 -0.5305 -0.6920 -0.0090
  323SOL     OW 1337   1.340   1.153   0.825 -0.2932  0.3741 -0.3737
  323SOL    HW2 1338   1.422   1.198   0.805  0.1331  0.3998  1.3231
  323SOL    HW3 1339   1.273   1.204   0.779  0.6841  0.0884 -2.1366
  323SOL    MW4 1340   1.342   1.166   0.817 -0.1079  0.3397 -0.3824
  324SOL     OW 1341   1.564   1.275   0.721  0.1066 -0.0256  0.0895
  324SOL    HW2 1342   1.569   1.363   0.757  0.6219  0.2309 -0.6043
  324SOL    HW3 1343   1.551   1.288   0.627 -0.5162 -0.6859  0.0808
  324SOL    MW4 1344   1.563   1.288   0.713  0.0924 -0.0789 -0.0032
  325SOL     OW 1345   1.573   1.539   0.817 -0.0931  0.0403  0.1632
  325SOL    HW2 1346   1.603   1.548   0.907 -0.1704 -1.1999  0.3178
  325SOL    HW3 1347   1.483   1.572   0.819  0.4509  1.5790  0.1770
  325SOL    MW4 1348   1.565   1.545   0.829 -0.0316  0.0798  0.1854
  326SOL     OW 1349   1.271   1.603   0.518 -0.4281  0.0272 -0.2171
  326SOL    HW2 1350   1.295   1.594   0.610  0.5174 -0.6026 -0.5176
  326SOL    HW3 1351   1.177   1.583   0.515 -0.3769 -0.3395  0.5489
  326SOL    MW4 1352   1.262   1.599   0.529 -0.2966 -0.1042 -0.1557
  327SOL     OW 1353   1.325   1.647   0.818  0.1270 -0.1618 -0.2786
  327SOL    HW2 1354   1.260   1.647   0.889  0.8733 -1.9115  0.4466
  327SOL    HW3 1355   1.356   1.737   0.813 -0.6697  0.1911  0.9466
  327SOL    MW4 1356   1.320   1.659   0.827  0.1202 -0.3461 -0.0213
  328SOL     OW 1357   1.390   1.934   0.851 -0.3433  0.2310  0.0277
  328SOL    HW2 1358   1.394   1.929   0.947 -0.2989 -2.0624 -0.0603
  328SOL    HW3 1359   1.303   1.968   0.832 -0.1727  1.1560  0.8919
  328SOL    MW4 1360   1.379   1.937   0.861 -0.3148  0.0504  0.1302
  329SOL     OW 1361   1.533   2.324   0.851  0.1492  0.1462 -0.1869
  329SOL    HW2 1362   1.448   2.354   0.818 -0.1668 -1.0029 -0.4317
  329SOL    HW3 1363   1.540   2.234   0.819  1.5357  0.2937 -0.3073
  329SOL    MW4 1364   1.523   2.316   0.842  0.2904  0.0143 -0.2350
  330SOL     OW 1365   1.286   2.471   0.797 -0.0849  0.3535  0.0134
  330SOL    HW2 1366   1.285   2.558   0.837 -0.3629 -0.2274  1.3026
  330SOL    HW3 1367   1.296   2.488   0.703  0.3319  1.7542  0.2941
  330SOL    MW4 1368   1.287   2.485   0.790 -0.0665  0.4618  0.2205
  331SOL     OW 1369   1.319   2.756   0.856  0.2408 -0.5290  0.9246
  331SOL    HW2 1370   1.338   2.761   0.950  1.0915  1.5168  0.6760
  331SOL    HW3 1371   1.236   2.803   0.846  1.6779  1.9366  0.2715
  331SOL    MW4 1372   1.311   2.763   0.867  0.5426  0.0663  0.8056
  332SOL     OW 1373   1.560   2.835   0.706  0.2913 -0.1457 -0.3159
  332SOL    HW2 1374   1.580   2.915   0.756 -1.8888  1.2853 -1.6615
  332SOL    HW3 1375   1.492   2.792   0.758  1.0737 -0.8850  0.1192
  332SOL    MW4 1376   1.554   2.840   0.720  0.1069 -0.0544 -0.4361
  333SOL     OW 1377   1.609   3.060   0.862 -0.1096  0.2329 -0.2358
  333SOL    HW2 1378   1.627   3.058   0.956 -1.4017 -0.6918  0.0066
  333SOL    HW3 1379   1.548   3.133   0.850 -1.8847 -1.1704  0.0253
  333SOL    MW4 1380   1.603   3.070   0.872 -0.5143 -0.0744 -0.1693
  334SOL     OW 1381   1.408   3.256   0.774  0.3472 -0.3027 -0.1347
  334SOL    HW2 1382   1.321   3.216   0.783  0.0543  0.2579 -0.5132
  334SOL    HW3 1383   1.426   3.252   0.680  0.9875 -0.9553  0.0092
  334SOL    MW4 1384   1.398   3.250   0.763  0.3930 -0.3150 -0.1656
  335SOL     OW 1385   1.395   3.536   0.824  0.1529 -0.3022  0.2623
  335SOL    HW2 1386   1.480   3.569   0.795 -0.3036 -0.4011 -1.2645
  335SOL    HW3 1387   1.395   3.444   0.796  0.1000 -0.6917  1.5176
  335SOL    MW4 1388   1.406   3.528   0.816  0.0857 -0.3667  0.2265
  336SOL     OW 1389   1.637   3.653   0.700 -0.5831 -0.1659  0.3873
  336SOL    HW2 1390   1.707   3.594   0.729 -1.6472 -1.6803 -0.1217
  336SOL    HW3 1391   1.668   3.686   0.616  0.7256  1.2373  1.3880
  336SOL    MW4 1392   1.651   3.650   0.693 -0.5509 -0.1807  0.4521
  337SOL     OW 1393   1.528   3.862   0.840 -0.1261 -0.1569  0.0766
  337SOL    HW2 1394   1.466   3.899   0.777  1.5284  0.8125 -0.9923
  337SOL    HW3 1395   1.562   3.784   0.796  0.4079  0.0520  0.1247
  337SOL    MW4 1396   1.524   3.856   0.826  0.1627 -0.0014 -0.0581
  338SOL     OW 1397   1.337   3.996   0.684  0.1528  0.3648  0.2513
  338SOL    HW2 1398   1.251   3.962   0.710  0.1382  0.0340 -0.2299
  338SOL    HW3 1399   1.328   4.014   0.590  1.0250 -0.9207 -0.0858
  338SOL    MW4 1400   1.324   3.994   0.675  0.2661  0.1516  0.1433
  339SOL     OW 1401   1.343   4.257   0.808  0.1240  0.2113  0.1096
  339SOL    HW2 1402   1.414   4.318   0.791  1.0904 -1.0126 -0.3538
  339SOL    HW3 1403   1.366   4.179   0.757 -1.6062 -0.1657 -0.1431
  339SOL    MW4 1404   1.355   4.255   0.799  0.0231  0.0000  0.0151
  340SOL     OW 1405   1.553   4.413   0.743  0.3220  0.1888 -0.5891
  340SOL    HW2 1406   1.628   4.373   0.787 -0.5262 -0.2377  0.4867
  340SOL    HW3 1407   1.543   4.498   0.785 -0.9417 -0.5182  0.5757
  340SOL    MW4 1408   1.562   4.419   0.754  0.0433  0.0396 -0.2935
  341SOL     OW 1409   2.032   4.647   0.832  0.7939 -0.0223 -0.1550
  341SOL    HW2 1410   2.092   4.700   0.778  1.5872 -1.5411 -0.8088
  341SOL    HW3 1411   2.036   4.559   0.793  0.2317 -0.7969  1.4758
  341SOL    MW4 1412   2.041   4.642   0.819  0.8245 -0.3247 -0.0261
  342SOL     OW 1413   1.799   0.089   0.707  0.1128 -0.1103 -0.2700
  342SOL    HW2 1414   1.860   0.033   0.756  0.0570  0.8345  0.8994
  342SOL    HW3 1415   1.712   0.063   0.738  0.1270  1.2145  0.9469
  342SOL    MW4 1416   1.796   0.078   0.718  0.1070  0.1891  0.0448
  343SOL     OW 1417   1.828   0.343   0.865 -0.4382  0.5571 -0.5495
  343SOL    HW2 1418   1.827   0.273   0.799  0.7841 -0.0410  0.0506
  343SOL    HW3 1419   1.903   0.397   0.841 -1.1577  1.4747 -0.7894
  343SOL    MW4 1420   1.838   0.341   0.853 -0.3717  0.5992 -0.5019
  344SOL     OW 1421   2.023   0.512   0.788  0.1013 -0.5921  0.0897
  344SOL    HW2 1422   2.110   0.475   0.803 -0.3197 -0.6674  2.5867
  344SOL    HW3 1423   2.003   0.491   0.697  1.5150 -3.0836  0.3123
  344SOL    MW4 1424   2.032   0.505   0.778  0.2322 -0.9307  0.4485
  345SOL     OW 1425   1.992   0.780   0.855  0.2158  0.3068 -0.1514
  345SOL    HW2 1426   2.013   0.690   0.831 -0.1614  0.6630 -1.9121
  345SOL    HW3 1427   2.064   0.832   0.820 -0.1475  0.8027 -0.1784
  345SOL    MW4 1428   2.004   0.775   0.847  0.1180  0.4192 -0.3873
  346SOL     OW 1429   1.773   0.876   0.718 -0.0554 -0.0806  0.0782
  346SOL    HW2 1430   1.757   0.967   0.744 -1.2075 -0.6992  1.5827
  346SOL    HW3 1431   1.850   0.850   0.768  0.6273  0.2363 -0.7925
  346SOL    MW4 1432   1.781   0.885   0.728 -0.1173 -0.1204  0.1619
  347SOL     OW 1433   1.760   1.135   0.836  0.1479  0.2269 -0.3076
  347SOL    HW2 1434   1.836   1.190   0.817 -0.2520  0.7505 -0.4018
  347SOL    HW3 1435   1.686   1.182   0.797 -0.6210  1.0710  2.0811
  347SOL    MW4 1436   1.760   1.148   0.828 -0.0063  0.4075 -0.0048
  348SOL     OW 1437   1.983   1.244   0.722  0.2785 -0.9995 -0.2564
  348SOL    HW2 1438   2.074   1.224   0.746  0.8874  1.0572 -0.7605
  348SOL    HW3 1439   1.977   1.221   0.630  0.9003  0.7882 -0.7643
  348SOL    MW4 1440   1.994   1.238   0.713  0.4408 -0.4923 -0.3899
  349SOL     OW 1441   2.022   1.515   0.825  0.4896 -0.4493  0.1345
  349SOL    HW2 1442   2.108   1.554   0.809 -0.1308  0.4871 -0.9731
  349SOL    HW3 1443   2.021   1.435   0.773  0.2607  0.1344 -0.7617
  349SOL    MW4 1444   2.033   1.510   0.816  0.3774 -0.2487 -0.1298
  350SOL     OW 1445   1.810   1.616   0.685 -0.0449 -0.0565  0.0342
  350SOL    HW2 1446   1.875   1.578   0.744 -0.6176 -0.0535  0.6643
  350SOL    HW3 1447   1.727   1.606   0.730 -0.4377  0.2944 -0.6023
  350SOL    MW4 1448   1.808   1.610   0.699 -0.1724 -0.0099  0.0333
  351SOL     OW 1449   1.617   2.069   0.766 -0.1400 -0.0373 -0.1100
  351SOL    HW2 1450   1.617   2.044   0.673  0.4912  1.0022 -0.3987
  351SOL    HW3 1451   1.551   2.012   0.806  0.4287 -1.3107 -0.9629
  351SOL    MW4 1452   1.608   2.058   0.759  0.0184 -0.0679 -0.2605
  352SOL     OW 1453   1.892   2.012   0.853  0.0488  0.1227 -0.2742
  352SOL    HW2 1454   1.922   2.103   0.859 -1.4440  0.5788  0.5341
  352SOL    HW3 1455   1.804   2.019   0.816 -0.0979 -0.9898 -0.1262
  352SOL    MW4 1456   1.884   2.025   0.849 -0.1674  0.0358 -0.1481
  353SOL     OW 1457   1.970   2.291   0.856  0.2467  0.0267  0.2588
  353SOL    HW2 1458   1.985   2.318   0.947  0.8070  1.7825 -0.3409
  353SOL    HW3 1459   1.895   2.343   0.828  0.2514 -0.3055 -0.3648
  353SOL    MW4 1460   1.962   2.301   0.864  0.3213  0.2146  0.0975
  354SOL     OW 1461   1.754   2.438   0.770 -0.3694 -0.0146  0.3369
  354SOL    HW2 1462   1.676   2.396   0.807  0.1179 -0.1557  1.2064
  354SOL    HW3 1463   1.740   2.433   0.675 -0.6737 -1.4650  0.4484
  354SOL    MW4 1464   1.742   2.432   0.762 -0.3452 -0.2246  0.4663
  355SOL     OW 1465   1.788   2.696   0.859  0.6163 -0.1006 -0.0101
  355SOL    HW2 1466   1.783   2.602   0.838 -1.7703 -0.0475  0.1432
  355SOL    HW3 1467   1.714   2.734   0.812  0.4691  1.4231  1.4289
  355SOL    MW4 1468   1.778   2.689   0.850  0.2819  0.1073  0.1999
  356SOL     OW 1469   2.025   2.844   0.811 -0.2201 -0.2335  0.1913
  356SOL    HW2 1470   2.102   2.796   0.841 -0.3426 -0.5874 -0.0688
  356SOL    HW3 1471   1.953   2.782   0.818 -0.9519  0.8074  2.7757
  356SOL    MW4 1472   2.026   2.830   0.816 -0.3326 -0.1428  0.4980
  357SOL     OW 1473   2.022   3.119   0.825 -0.3478 -0.3918 -0.0609
  357SOL    HW2 1474   1.942   3.153   0.784 -0.2397 -0.9545 -0.7532
  357SOL    HW3 1475   2.005   3.025   0.836 -0.0369 -0.3938  0.4007
  357SOL    MW4 1476   2.009   3.111   0.821 -0.2923 -0.4666 -0.0914
  358SOL     OW 1477   1.803   3.198   0.696 -0.5086  0.7715 -0.0148
  358SOL    HW2 1478   1.744   3.138   0.741  2.0701 -0.9330  1.2434
  358SOL    HW3 1479   1.808   3.164   0.606  0.0763 -0.2470  0.3991
  358SOL    MW4 1480   1.796   3.185   0.690 -0.0912  0.4125  0.2058
  359SOL     OW 1481   1.812   3.468   0.807 -0.1067  0.2023  0.2767
  359SOL    HW2 1482   1.792   3.433   0.894 -1.0081 -0.0975 -0.0546
  359SOL    HW3 1483   1.801   3.394   0.748 -1.0406  0.8002 -0.3028
  359SOL    MW4 1484   1.808   3.453   0.811 -0.3489  0.2415  0.1565
  360SOL     OW 1485   2.057   3.604   0.760  0.0955  0.0737  0.1491
  360SOL    HW2 1486   2.035   3.686   0.806  0.1333  0.2045 -0.0652
  360SOL    HW3 1487   1.985   3.545   0.782  0.0410  0.1805  0.2633
  360SOL    MW4 1488   2.044   3.607   0.769  0.0935  0.1051  0.1358
  361SOL     OW 1489   1.987   3.869   0.867 -0.1944 -0.5545  0.4028
  361SOL    HW2 1490   1.985   3.867   0.963  0.1800 -0.7098  0.4062
  361SOL    HW3 1491   1.905   3.911   0.843  0.7115  1.4796  0.8324
  361SOL    MW4 1492   1.976   3.874   0.877 -0.0253 -0.3066  0.4599
  362SOL     OW 1493   1.761   4.044   0.789 -0.2473  0.4524 -0.0479
  362SOL    HW2 1494   1.681   3.997   0.815 -0.1882  0.6287  0.4584
  362SOL    HW3 1495   1.753   4.054   0.694  0.3736 -1.7923 -0.3787
  362SOL    MW4 1496   1.749   4.039   0.780 -0.1576  0.1798 -0.0248
  363SOL     OW 1497   1.779   4.324   0.867 -0.3176  0.4752  0.5995
  363SOL    HW2 1498   1.801   4.341   0.958  0.6585  0.0949  0.4472
  363SOL    HW3 1499   1.770   4.229   0.862 -1.5755  0.5911  0.5566
  363SOL    MW4 1500   1.781   4.314   0.878 -0.3549  0.4401  0.5738
  364SOL     OW 1501   2.015   4.362   0.741  0.2720  0.1444  0.5054
  364SOL    HW2 1502   1.931   4.329   0.773  0.5536 -1.1770 -0.0582
  364SOL    HW3 1503   2.000   4.379   0.648  0.9563 -1.3204  0.1038
  364SOL    MW4 1504   2.002   4.360   0.733  0.3994 -0.2232  0.3781
  365SOL     OW 1505   2.408   4.561   0.695 -0.1750  0.1914 -0.8003
  365SOL    HW2 1506   2.463   4.598   0.765  0.5237  1.4435 -1.9830
  365SOL    HW3 1507   2.406   4.467   0.713 -0.0107  0.4996  0.9043
  365SOL    MW4 1508   2.415   4.553   0.707 -0.0613  0.3982 -0.7315
  366SOL     OW 1509   2.561   0.047   0.882 -0.2120  0.3865  0.6139
  366SOL    HW2 1510   2.531   0.030   0.971  0.8793  0.8341  1.0743
  366SOL    HW3 1511   2.574   0.142   0.879 -0.1055  0.3539  0.0290
  366SOL    MW4 1512   2.559   0.057   0.893 -0.0539  0.4413  0.5975
  367SOL     OW 1513   2.253   0.367   0.842  0.2060 -0.0638 -0.0935
  367SOL    HW2 1514   2.336   0.405   0.812  0.5610 -1.3127 -0.7679
  367SOL    HW3 1515   2.250   0.281   0.799 -2.0096  0.4504 -1.0485
  367SOL    MW4 1516   2.264   0.360   0.832 -0.0396 -0.1607 -0.3085
  368SOL     OW 1517   2.480   0.501   0.757 -0.2156  0.1089 -0.2881
  368SOL    HW2 1518   2.535   0.435   0.799 -1.5001 -1.2937 -0.7766
  368SOL    HW3 1519   2.490   0.485   0.663 -1.8757 -0.5204 -0.3672
  368SOL    MW4 1520   2.489   0.491   0.750 -0.6042 -0.1591 -0.3630
  369SOL     OW 1521   2.455   0.791   0.866 -0.3647  0.1337  0.1417
  369SOL    HW2 1522   2.540   0.829   0.848 -0.2226 -1.2651 -2.3976
  369SOL    HW3 1523   2.465   0.698   0.844 -2.5740 -0.0161 -0.4068
  369SOL    MW4 1524   2.467   0.783   0.861 -0.6373 -0.0706 -0.2657
  370SOL     OW 1525   2.224   0.939   0.468 -0.1836 -0.2073  0.3266
  370SOL    HW2 1526   2.315   0.970   0.473 -0.1114 -0.2650 -0.5021
  370SOL    HW3 1527   2.230   0.855   0.424 -0.7950  0.5322 -1.1994
  370SOL    MW4 1528   2.237   0.932   0.463 -0.2549 -0.1174  0.0159
  371SOL     OW 1529   2.209   1.174   0.876 -0.5020  0.6233  0.1137
  371SOL    HW2 1530   2.231   1.161   0.968 -0.5450  1.9012  0.3068
  371SOL    HW3 1531   2.200   1.085   0.841 -1.6219  0.1204  1.6119
  371SOL    MW4 1532   2.211   1.160   0.884 -0.6554  0.7255  0.3368
  372SOL     OW 1533   2.452   1.227   0.794 -0.4937  0.2109  0.4687
  372SOL    HW2 1534   2.362   1.223   0.827 -0.2618  1.4910  1.3285
  372SOL    HW3 1535   2.443   1.229   0.699 -1.3237 -0.6811  0.5246
  372SOL    MW4 1536   2.439   1.227   0.786 -0.5724  0.2621  0.5895
  373SOL     OW 1537   2.447   1.505   0.845  0.0015  0.1280 -0.1282
  373SOL    HW2 1538   2.527   1.547   0.813 -0.7764  1.3411 -0.5217
  373SOL    HW3 1539   2.459   1.412   0.825  1.0652  0.3700 -0.6838
  373SOL    MW4 1540   2.459   1.498   0.838  0.0393  0.3200 -0.2534
  374SOL     OW 1541   2.244   1.662   0.757 -0.4275 -0.4601  0.5475
  374SOL    HW2 1542   2.311   1.598   0.780 -0.2114 -0.6914 -0.6949
  374SOL    HW3 1543   2.248   1.667   0.661 -0.6015  1.2367  0.6203
  374SOL    MW4 1544   2.253   1.654   0.747 -0.4218 -0.2668  0.3932
  375SOL     OW 1545   2.166   1.926   0.878  0.6566  0.1117 -0.0162
  375SOL    HW2 1546   2.192   1.849   0.828 -0.0389  0.5996 -1.1271
  375SOL    HW3 1547   2.071   1.929   0.870  0.7062  1.2388 -0.1995
  375SOL    MW4 1548   2.157   1.916   0.871  0.5715  0.3247 -0.1869
  376SOL     OW 1549   2.411   2.075   0.813  0.1629 -0.3469 -0.1009
  376SOL    HW2 1550   2.320   2.048   0.825  0.1785 -1.1097 -1.5562
  376SOL    HW3 1551   2.422   2.082   0.718  2.0775 -1.8857 -0.0376
  376SOL    MW4 1552   2.401   2.073   0.802  0.4175 -0.6509 -0.2846
  377SOL     OW 1553   2.434   2.346   0.870  0.5744  0.3893 -0.2634
  377SOL    HW2 1554   2.522   2.378   0.852  0.8739  0.3044  0.9961
  377SOL    HW3 1555   2.443   2.250   0.870  0.2679  0.3630 -1.1933
  377SOL    MW4 1556   2.447   2.337   0.868  0.5734  0.3746 -0.2199
  378SOL     OW 1557   2.181   2.445   0.779 -0.1343  0.4116  0.3338
  378SOL    HW2 1558   2.268   2.415   0.806  0.0613  1.2203  0.6330
  378SOL    HW3 1559   2.121   2.376   0.806  0.4378 -0.2195 -0.0048
  378SOL    MW4 1560   2.185   2.432   0.786 -0.0331  0.4351  0.3286
  379SOL     OW 1561   2.253   2.702   0.883  0.1423  0.0008 -0.5303
  379SOL    HW2 1562   2.241   2.707   0.978 -1.2106 -0.3456 -0.6759
  379SOL    HW3 1563   2.230   2.612   0.860  0.3737  0.1102 -1.2039
  379SOL    MW4 1564   2.249   2.691   0.892 -0.0057 -0.0305 -0.6384
  380SOL     OW 1565   2.486   2.836   0.750 -0.1837  0.2984  0.7408
  380SOL    HW2 1566   2.565   2.793   0.782  0.8011 -0.2867 -2.3419
  380SOL    HW3 1567   2.414   2.782   0.782  0.8742 -1.5557  0.0063
  380SOL    MW4 1568   2.487   2.823   0.758  0.0858 -0.0236  0.2371
  381SOL     OW 1569   2.478   3.094   0.869  0.1764 -0.0585  0.3751
  381SOL    HW2 1570   2.495   3.090   0.963  0.9897  0.0087  0.2362
  381SOL    HW3 1571   2.477   3.003   0.840  0.1354 -0.0696  0.4116
  381SOL    MW4 1572   2.480   3.082   0.877  0.2782 -0.0510  0.3616
  382SOL     OW 1573   2.252   3.239   0.748  0.0323 -0.6759 -0.2719
  382SOL    HW2 1574   2.185   3.185   0.790 -0.8900 -0.3044 -1.2434
  382SOL    HW3 1575   2.334   3.193   0.765 -0.6800 -2.1273 -0.6534
  382SOL    MW4 1576   2.254   3.226   0.756 -0.1833 -0.8187 -0.4504
  383SOL     OW 1577   2.258   3.477   0.901 -0.0061 -0.1205 -0.1143
  383SOL    HW2 1578   2.263   3.392   0.856 -2.8897 -1.0936  1.2226
  383SOL    HW3 1579   2.180   3.518   0.864 -0.4285  0.5519  1.4972
  383SOL    MW4 1580   2.248   3.471   0.890 -0.4423 -0.1602  0.2748
  384SOL     OW 1581   2.484   3.579   0.780  0.3227  0.4664 -0.1142
  384SOL    HW2 1582   2.564   3.543   0.819  0.1206 -1.6314 -1.5388
  384SOL    HW3 1583   2.413   3.533   0.824  0.0726 -1.2526 -2.2256
  384SOL    MW4 1584   2.485   3.568   0.791  0.2627 -0.0372 -0.5807
  385SOL     OW 1585   2.428   3.847   0.887 -0.0299  0.4070 -0.3124
  385SOL    HW2 1586   2.354   3.884   0.839 -2.8495 -2.5810  1.5283
  385SOL    HW3 1587   2.435   3.757   0.855  1.6375  0.0720  0.8939
  385SOL    MW4 1588   2.419   3.840   0.877 -0.1819 -0.0317  0.0896
  386SOL     OW 1589   2.206   3.963   0.748 -0.4306 -0.1059  0.0690
  386SOL    HW2 1590   2.127   3.934   0.793 -0.5081 -0.9461 -0.6062
  386SOL    HW3 1591   2.197   3.930   0.659  0.7508 -0.3463  0.0245
  386SOL    MW4 1592   2.195   3.955   0.742 -0.2851 -0.2484 -0.0259
  387SOL     OW 1593   2.178   4.188   0.895 -0.3272 -0.1844 -0.0169
  387SOL    HW2 1594   2.190   4.126   0.823  0.1809  0.9602 -0.9354
  387SOL    HW3 1595   2.135   4.264   0.854  0.0161  0.4940  0.8753
  387SOL    MW4 1596   2.174   4.190   0.880 -0.2151  0.0558 -0.0204
  388SOL     OW 1597   2.427   4.291   0.769  0.3761 -0.0613 -0.0934
  388SOL    HW2 1598   2.515   4.281   0.805  0.3784 -1.9264 -0.5503
  388SOL    HW3 1599   2.371   4.243   0.830  0.2220 -2.2189 -1.8853
  388SOL    MW4 1600   2.431   4.283   0.782  0.3560 -0.5918 -0.3901
  389SOL     OW 1601   2.833   0.015   0.889  0.4293 -0.4184  0.2285
  389SOL    HW2 1602   2.840  -0.070   0.846  0.1008 -0.2543 -0.1505
  389SOL    HW3 1603   2.740   0.036   0.888  0.5929  0.3218 -0.4194
  389SOL    MW4 1604   2.822   0.007   0.883  0.4075 -0.2990  0.0930
  390SOL     OW 1605   3.162   0.131   0.494 -0.2479  0.1021 -0.2683
  390SOL    HW2 1606   3.161   0.045   0.452 -1.3359  0.4399 -0.9537
  390SOL    HW3 1607   3.154   0.112   0.588  0.1874 -0.5657 -0.3634
  390SOL    MW4 1608   3.161   0.117   0.501 -0.3340  0.0586 -0.3713
  391SOL     OW 1609   2.657   0.312   0.875  0.7255  0.0450  0.5695
  391SOL    HW2 1610   2.669   0.355   0.960  0.9070  2.2639 -0.5304
  391SOL    HW3 1611   2.737   0.333   0.826  0.1795 -0.3550 -0.5092
  391SOL    MW4 1612   2.669   0.321   0.879  0.6776  0.2850  0.2820
  392SOL     OW 1613   2.868   0.477   0.761 -0.4214 -0.4402 -0.0360
  392SOL    HW2 1614   2.958   0.448   0.773 -0.1819 -0.0461 -0.8501
  392SOL    HW3 1615   2.854   0.473   0.667 -0.2078  2.5537 -0.2472
  392SOL    MW4 1616   2.878   0.472   0.750 -0.3617  0.0068 -0.1713
  393SOL     OW 1617   2.941   0.732   0.845  0.2394  0.4599  0.3703
  393SOL    HW2 1618   2.936   0.733   0.940  0.1856  0.1214  0.3687
  393SOL    HW3 1619   2.917   0.643   0.820  0.6925  0.4232  0.0641
  393SOL    MW4 1620   2.937   0.721   0.854  0.2921  0.4104  0.3297
  394SOL     OW 1621   2.722   0.883   0.786  0.7165 -0.6864  0.0794
  394SOL    HW2 1622   2.712   0.869   0.691  0.9199 -1.7816  0.2149
  394SOL    HW3 1623   2.781   0.814   0.814  1.9871  0.6275  0.7334
  394SOL    MW4 1624   2.729   0.872   0.777  0.9108 -0.6576  0.1836
  395SOL     OW 1625   2.703   1.147   0.877  0.2390  0.2683 -0.0696
  395SOL    HW2 1626   2.712   1.055   0.855  0.0280  0.1316  0.4043
  395SOL    HW3 1627   2.619   1.174   0.839  0.6637  0.4712 -0.8836
  395SOL    MW4 1628   2.693   1.139   0.869  0.2673  0.2772 -0.1144
  396SOL     OW 1629   2.915   1.286   0.800  0.1121  0.2135  0.0862
  396SOL    HW2 1630   2.988   1.223   0.796 -0.2274 -0.2701  1.1762
  396SOL    HW3 1631   2.842   1.234   0.833 -0.2792  1.1023  0.6061
  396SOL    MW4 1632   2.915   1.271   0.804  0.0157  0.2669  0.2986
  397SOL     OW 1633   2.922   1.556   0.855 -0.2698  0.2880 -0.5945
  397SOL    HW2 1634   3.006   1.590   0.823 -0.3634  0.2312 -0.9033
  397SOL    HW3 1635   2.922   1.464   0.829  0.5036 -0.2657  1.2900
  397SOL    MW4 1636   2.933   1.549   0.847 -0.1802  0.2074 -0.3866
  398SOL     OW 1637   2.673   1.612   0.739 -0.1213 -0.1824 -0.0943
  398SOL    HW2 1638   2.668   1.704   0.764  0.5941  0.4736 -2.1943
  398SOL    HW3 1639   2.758   1.583   0.773  0.3623  0.3920 -0.7897
  398SOL    MW4 1640   2.684   1.620   0.747  0.0370 -0.0200 -0.4631
  399SOL     OW 1641   2.641   1.886   0.818  0.0192  0.5606  0.0900
  399SOL    HW2 1642   2.674   1.907   0.906 -1.4491 -0.3988  0.8889
  399SOL    HW3 1643   2.557   1.932   0.813 -0.7780 -0.8920 -0.0965
  399SOL    MW4 1644   2.634   1.895   0.829 -0.2799  0.2422  0.1708
  400SOL     OW 1645   3.089   1.705   0.344 -0.7133  0.0202  0.2448
  400SOL    HW2 1646   3.088   1.611   0.365  0.4726  0.2217  1.2884
  400SOL    HW3 1647   3.179   1.732   0.362 -1.0396  1.3521 -0.0938
  400SOL    MW4 1648   3.101   1.696   0.349 -0.5999  0.2224  0.3378
  401SOL     OW 1649   2.630   2.503   0.747  0.0673  0.6248  0.1585
  401SOL    HW2 1650   2.628   2.519   0.653  3.0721  0.0113 -0.0508
  401SOL    HW3 1651   2.647   2.588   0.786 -0.7176  0.7966  0.1412
  401SOL    MW4 1652   2.632   2.516   0.740  0.3603  0.5667  0.1286
  402SOL     OW 1653   2.656   2.557   0.467 -0.2526 -0.2529  0.0782
  402SOL    HW2 1654   2.633   2.465   0.453  0.9556 -0.7033  0.9325
  402SOL    HW3 1655   2.746   2.564   0.435 -0.0988  0.4620  0.6607
  402SOL    MW4 1656   2.665   2.545   0.461 -0.0732 -0.2179  0.2678
  403SOL     OW 1657   2.729   2.735   0.850 -0.1199  0.2051 -0.1598
  403SOL    HW2 1658   2.745   2.741   0.944  0.1163  0.7305 -0.2333
  403SOL    HW3 1659   2.813   2.756   0.810  0.3717 -2.1953 -0.4569
  403SOL    MW4 1660   2.742   2.739   0.857 -0.0238 -0.0420 -0.2087
  404SOL     OW 1661   3.074   2.945   0.511  0.3099 -0.2873  0.3150
  404SOL    HW2 1662   3.160   2.913   0.486 -0.1483 -1.4357  0.1778
  404SOL    HW3 1663   3.016   2.918   0.440 -0.1896  0.3729  0.4608
  404SOL    MW4 1664   3.078   2.938   0.498  0.1838 -0.3517  0.3162
  405SOL     OW 1665   2.941   3.069   0.836 -0.4755 -0.0196  0.3983
  405SOL    HW2 1666   2.857   3.092   0.797 -0.5116  0.1017  0.5472
  405SOL    HW3 1667   2.958   2.979   0.807 -0.1926  0.2969 -0.4339
  405SOL    MW4 1668   2.932   3.060   0.827 -0.4430  0.0381  0.3082
  406SOL     OW 1669   2.702   3.218   0.770  0.1521  0.0869  0.4945
  406SOL    HW2 1670   2.713   3.297   0.823 -0.1430  1.1795 -1.0120
  406SOL    HW3 1671   2.630   3.171   0.811 -0.0364  0.8839  1.0946
  406SOL    MW4 1672   2.694   3.222   0.782  0.0885  0.3362  0.3749
  407SOL     OW 1673   2.709   3.461   0.893 -0.2790  0.3321  0.3522
  407SOL    HW2 1674   2.703   3.483   0.986 -0.4329  1.0639  0.1783
  407SOL    HW3 1675   2.778   3.517   0.859  1.2620 -1.4636  0.4433
  407SOL    MW4 1676   2.717   3.471   0.901 -0.0958  0.1917  0.3412
  408SOL     OW 1677   2.911   3.609   0.779 -0.3972  0.1077 -0.0873
  408SOL    HW2 1678   2.906   3.701   0.805  1.2047  0.4697 -0.9343
  408SOL    HW3 1679   2.918   3.612   0.683 -2.0539 -0.9899 -0.2600
  408SOL    MW4 1680   2.911   3.621   0.770 -0.4046  0.0107 -0.2218
  409SOL     OW 1681   2.864   3.861   0.860 -0.2231  0.5132 -0.1510
  409SOL    HW2 1682   2.871   3.883   0.953 -2.5229 -0.0913  0.2140
  409SOL    HW3 1683   2.784   3.904   0.831  0.0581  0.0561 -1.6588
  409SOL    MW4 1684   2.854   3.870   0.868 -0.4897  0.3734 -0.3017
  410SOL     OW 1685   2.645   3.995   0.769  0.0182  0.6498 -0.0220
  410SOL    HW2 1686   2.570   3.952   0.811 -0.1125  1.4691  0.6001
  410SOL    HW3 1687   2.645   3.961   0.680 -0.5471 -0.0521  0.2352
  410SOL    MW4 1688   2.635   3.985   0.763 -0.0737  0.6649  0.0941
  411SOL     OW 1689   2.699   4.250   0.830  0.0260  0.1734 -0.0470
  411SOL    HW2 1690   2.704   4.249   0.926  0.1602 -0.5435 -0.0577
  411SOL    HW3 1691   2.687   4.158   0.806  0.6729  0.2682 -0.7526
  411SOL    MW4 1692   2.698   4.238   0.839  0.1292  0.0916 -0.1415
  412SOL     OW 1693   2.881   4.448   0.762  0.0246 -0.4167 -0.2578
  412SOL    HW2 1694   2.963   4.408   0.791 -0.7479 -0.7400  1.5336
  412SOL    HW3 1695   2.814   4.383   0.783 -0.9010  0.6170  0.0459
  412SOL    MW4 1696   2.883   4.434   0.769 -0.1996 -0.3233  0.0186
  413SOL     OW 1697   3.368   0.025   0.814  0.0183  0.4952 -0.1746
  413SOL    HW2 1698   3.369   0.042   0.908  0.4506 -1.2096  0.1390
  413SOL    HW3 1699   3.275   0.018   0.792 -0.0168 -2.6395  0.8091
  413SOL    MW4 1700   3.356   0.026   0.824  0.0708 -0.1433 -0.0035
  414SOL     OW 1701   3.077   0.114   0.762 -0.4765  0.0990 -0.2330
  414SOL    HW2 1702   3.075   0.202   0.801 -0.3486  0.1835 -0.4097
  414SOL    HW3 1703   3.009   0.065   0.807 -2.1816  0.9853 -1.7876
  414SOL    MW4 1704   3.068   0.120   0.773 -0.6847  0.2271 -0.4613
  415SOL     OW 1705   3.101   0.376   0.875 -0.2060 -0.0202  0.3567
  415SOL    HW2 1706   3.119   0.391   0.968  1.9572  0.2724 -0.0806
  415SOL    HW3 1707   3.180   0.406   0.830  0.0082 -3.0191 -1.3566
  415SOL    MW4 1708   3.114   0.382   0.881  0.1075 -0.3773  0.0730
  416SOL     OW 1709   2.844   0.499   0.458 -0.4389 -0.1169 -0.5320
  416SOL    HW2 1710   2.915   0.560   0.438 -0.9234  0.2089 -1.2473
  416SOL    HW3 1711   2.876   0.414   0.427 -0.3547  0.0205 -0.8154
  416SOL    MW4 1712   2.858   0.496   0.452 -0.4916 -0.0558 -0.6637
  417SOL     OW 1713   3.297   0.738   0.834 -0.4781  0.3870 -0.1275
  417SOL    HW2 1714   3.227   0.781   0.783  0.1113  0.1931 -1.1093
  417SOL    HW3 1715   3.303   0.650   0.797 -0.4785  0.0337  0.7124
  417SOL    MW4 1716   3.288   0.732   0.822 -0.4005  0.3148 -0.1462
  418SOL     OW 1717   3.085   0.870   0.677 -0.2413 -0.0855  0.3733
  418SOL    HW2 1718   3.090   0.955   0.722 -0.4349 -0.6059  1.3956
  418SOL    HW3 1719   3.032   0.816   0.735 -0.8498 -0.6428 -0.7065
  418SOL    MW4 1720   3.079   0.874   0.691 -0.3471 -0.2277  0.3657
  419SOL     OW 1721   3.134   1.110   0.810  0.2349 -0.2550  0.2664
  419SOL    HW2 1722   3.156   1.101   0.902  1.0668 -0.0741  0.0889
  419SOL    HW3 1723   3.210   1.154   0.771 -1.5935  2.9708  0.1781
  419SOL    MW4 1724   3.147   1.114   0.817  0.1035  0.1944  0.2313
  420SOL     OW 1725   3.379   1.242   0.723  0.2334 -0.0500  0.1368
  420SOL    HW2 1726   3.456   1.202   0.764 -0.2738  0.0937  1.2316
  420SOL    HW3 1727   3.365   1.324   0.772  0.2617  0.6504 -1.0059
  420SOL    MW4 1728   3.387   1.248   0.735  0.1705  0.0614  0.1305
  421SOL     OW 1729   3.394   1.492   0.862 -0.4568  0.1125  0.2500
  421SOL    HW2 1730   3.392   1.500   0.957  0.7389 -0.8522  0.3783
  421SOL    HW3 1731   3.462   1.554   0.834 -1.3617  0.9758 -0.0503
  421SOL    MW4 1732   3.403   1.501   0.871 -0.4182  0.0992  0.2273
  422SOL     OW 1733   3.062   1.070   0.452  0.2981  0.4873  0.3955
  422SOL    HW2 1734   2.992   1.126   0.483  0.3935  0.4635  0.6586
  422SOL    HW3 1735   3.076   1.007   0.523 -1.2696 -1.2337 -0.7588
  422SOL    MW4 1736   3.055   1.069   0.465  0.1037  0.2570  0.2779
  423SOL     OW 1737   3.177   1.600   0.720 -0.1987 -0.2271 -0.3280
  423SOL    HW2 1738   3.253   1.573   0.772 -0.2286  0.1476 -0.0922
  423SOL    HW3 1739   3.177   1.695   0.725 -1.9700 -0.3046  1.4615
  423SOL    MW4 1740   3.187   1.609   0.727 -0.4363 -0.1878 -0.0607
  424SOL     OW 1741   3.112   1.862   0.830  0.4493 -0.1225  0.1566
  424SOL    HW2 1742   3.175   1.919   0.786  0.1692  0.2621  0.2552
  424SOL    HW3 1743   3.121   1.884   0.923 -0.3455  0.4468  0.1019
  424SOL    MW4 1744   3.122   1.873   0.836  0.3073  0.0033  0.1624
  425SOL     OW 1745   3.321   2.283   0.859  0.1771  0.1661  0.2706
  425SOL    HW2 1746   3.362   2.299   0.944 -0.5792 -0.4916  0.7665
  425SOL    HW3 1747   3.229   2.305   0.872 -0.0130 -0.2825 -0.2792
  425SOL    MW4 1748   3.314   2.288   0.872  0.0522  0.0200  0.2636
  426SOL     OW 1749   3.072   2.401   0.888 -0.0352  0.1646 -0.0017
  426SOL    HW2 1750   3.003   2.408   0.822  1.0546  0.7696 -1.0910
  426SOL    HW3 1751   3.027   2.369   0.966 -1.7385  1.5399 -0.3916
  426SOL    MW4 1752   3.057   2.398   0.890 -0.1161  0.4261 -0.1969
  427SOL     OW 1753   3.183   2.639   0.877  0.3236 -0.3114 -0.3200
  427SOL    HW2 1754   3.148   2.551   0.880  0.9283 -0.5383  0.0432
  427SOL    HW3 1755   3.276   2.628   0.856 -0.0259  0.3263 -2.3811
  427SOL    MW4 1756   3.191   2.626   0.874  0.3572 -0.2570 -0.5440
  428SOL     OW 1757   3.283   2.784   0.446 -0.4477  0.1336 -0.1132
  428SOL    HW2 1758   3.348   2.734   0.396 -0.1204 -0.5061  0.9223
  428SOL    HW3 1759   3.224   2.717   0.481 -2.3896  0.7963 -2.0160
  428SOL    MW4 1760   3.284   2.769   0.444 -0.6607  0.1364 -0.2276
  429SOL     OW 1761   3.345   3.093   0.804  0.8566 -0.2716 -0.1079
  429SOL    HW2 1762   3.390   3.094   0.888 -0.5727 -0.2403  0.6733
  429SOL    HW3 1763   3.384   3.019   0.757  1.9258 -0.0577  0.4182
  429SOL    MW4 1764   3.356   3.083   0.809  0.8092 -0.2391  0.0647
  430SOL     OW 1765   3.120   3.270   0.774 -0.2057  0.5111 -0.4143
  430SOL    HW2 1766   3.204   3.226   0.790  0.6225  2.0556 -0.4440
  430SOL    HW3 1767   3.056   3.216   0.821  0.7303 -0.9162 -0.7243
  430SOL    MW4 1768   3.123   3.257   0.783  0.0269  0.5267 -0.4591
  431SOL     OW 1769   3.144   3.530   0.887  0.2473 -0.3886 -0.3287
  431SOL    HW2 1770   3.142   3.442   0.849  0.7921 -0.3844 -0.3639
  431SOL    HW3 1771   3.061   3.570   0.860  0.2211 -0.7157 -0.7250
  431SOL    MW4 1772   3.133   3.524   0.879  0.3157 -0.4311 -0.3856
  432SOL     OW 1773   3.347   3.686   0.769 -0.1900 -0.1075  0.2243
  432SOL    HW2 1774   3.345   3.771   0.814  0.6138 -0.8378  1.6672
  432SOL    HW3 1775   3.272   3.639   0.805 -0.5219 -0.0828 -0.4370
  432SOL    MW4 1776   3.337   3.691   0.780 -0.1278 -0.2007  0.3275
  433SOL     OW 1777   3.342   3.952   0.880 -0.0587  0.1922  0.5325
  433SOL    HW2 1778   3.347   3.945   0.975  1.6105 -0.2042  0.4360
  433SOL    HW3 1779   3.427   3.986   0.854 -0.8315  1.1808 -0.7557
  433SOL    MW4 1780   3.354   3.955   0.889  0.0601  0.2701  0.3498
  434SOL     OW 1781   3.064   4.066   0.803  0.1264 -0.3190 -0.0883
  434SOL    HW2 1782   3.144   4.013   0.807  1.2201  1.3590  0.8793
  434SOL    HW3 1783   2.999   4.016   0.852  0.2584 -2.2069 -1.7826
  434SOL    MW4 1784   3.066   4.053   0.810  0.2880 -0.3467 -0.1841
  435SOL     OW 1785   3.115   4.330   0.855  0.0501 -0.1265  0.2859
  435SOL    HW2 1786   3.197   4.350   0.811 -0.5042 -0.6774 -1.0582
  435SOL    HW3 1787   3.093   4.241   0.826 -1.6045  0.4530 -0.3500
  435SOL    MW4 1788   3.123   4.321   0.845 -0.2413 -0.1221  0.0247
  436SOL     OW 1789   3.370   4.430   0.776  1.1303  0.2250  0.3814
  436SOL    HW2 1790   3.382   4.523   0.794  0.9793  0.4576 -0.6705
  436SOL    HW3 1791   3.392   4.420   0.683 -0.5539 -0.4660  0.0232
  436SOL    MW4 1792   3.374   4.441   0.766  0.8881  0.1645  0.1953
  437SOL     OW 1793   3.796   4.662   0.883 -0.2201  0.0267  0.0080
  437SOL    HW2 1794   3.870   4.697   0.833 -0.3915 -1.3004 -1.2090
  437SOL    HW3 1795   3.721   4.711   0.850 -0.3929 -1.1249 -1.3701
  437SOL    MW4 1796   3.796   4.673   0.872 -0.2656 -0.3003 -0.3344
  438SOL     OW 1797   3.606   0.168   0.751  0.1859 -0.3586 -0.0125
  438SOL    HW2 1798   3.523   0.121   0.750 -0.8645  1.4344  0.5042
  438SOL    HW3 1799   3.615   0.203   0.663 -0.3395  0.6405  0.3130
  438SOL    MW4 1800   3.596   0.167   0.740 -0.0222  0.0098  0.0986
  439SOL     OW 1801   3.552   0.402   0.901 -0.0056 -0.0770  0.1146
  439SOL    HW2 1802   3.560   0.402   0.997 -0.7902  0.9381  0.1860
  439SOL    HW3 1803   3.571   0.311   0.876  1.8843  0.0209  1.0794
  439SOL    MW4 1804   3.555   0.390   0.910  0.1404  0.0699  0.2514
  440SOL     OW 1805   3.788   0.532   0.790 -0.1158  0.1920  0.1505
  440SOL    HW2 1806   3.794   0.621   0.825 -0.7121  1.0148 -1.7677
  440SOL    HW3 1807   3.708   0.496   0.830  0.7158  0.1108  1.7800
  440SOL    MW4 1808   3.778   0.539   0.800 -0.0849  0.2898  0.1124
  441SOL     OW 1809   3.779   0.795   0.876 -0.0530 -0.2350  0.3884
  441SOL    HW2 1810   3.797   0.775   0.967  0.6580  1.3349  0.6110
  441SOL    HW3 1811   3.861   0.831   0.842 -0.2100 -1.0985 -0.9670
  441SOL    MW4 1812   3.792   0.797   0.883  0.0200 -0.1419  0.2389
  442SOL     OW 1813   3.541   0.894   0.778 -0.2212 -0.8714  0.6588
  442SOL    HW2 1814   3.621   0.854   0.810 -0.6344 -0.9805  1.5553
  442SOL    HW3 1815   3.471   0.839   0.812 -0.7203 -0.2727  0.6088
  442SOL    MW4 1816   3.542   0.882   0.786 -0.3417 -0.8067  0.7705
  443SOL     OW 1817   3.583   1.157   0.875  0.2134  0.3001 -0.3474
  443SOL    HW2 1818   3.558   1.174   0.966  0.1573 -0.4025 -0.2277
  443SOL    HW3 1819   3.577   1.062   0.866  0.6857  0.3244 -0.9521
  443SOL    MW4 1820   3.579   1.146   0.886  0.2682  0.2105 -0.4115
  444SOL     OW 1821   3.811   1.264   0.759  0.2752 -0.5269 -0.0733
  444SOL    HW2 1822   3.740   1.226   0.811  0.6523  0.4233  1.1862
  444SOL    HW3 1823   3.767   1.305   0.685 -0.5169  0.0456  0.6909
  444SOL    MW4 1824   3.795   1.265   0.756  0.2208 -0.3260  0.1937
  445SOL     OW 1825   3.825   1.532   0.865 -0.6323  0.1137 -0.6161
  445SOL    HW2 1826   3.901   1.564   0.816 -0.7514  1.0273 -0.2158
  445SOL    HW3 1827   3.803   1.449   0.823 -0.3457  0.5774 -1.7053
  445SOL    MW4 1828   3.832   1.525   0.853 -0.6106  0.2953 -0.7070
  446SOL     OW 1829   3.587   1.661   0.802  0.2270 -0.4107  0.3275
  446SOL    HW2 1830   3.586   1.756   0.816 -0.1035 -0.2698 -0.5884
  446SOL    HW3 1831   3.676   1.635   0.823  1.8106  0.8760 -4.1566
  446SOL    MW4 1832   3.598   1.670   0.807  0.3922 -0.2223 -0.3850
  447SOL     OW 1833   3.583   1.928   0.897  0.6122 -0.1474 -0.4029
  447SOL    HW2 1834   3.640   1.986   0.847 -0.6401  0.0577 -1.6370
  447SOL    HW3 1835   3.494   1.956   0.873 -0.0078 -0.2135  1.7558
  447SOL    MW4 1836   3.579   1.939   0.887  0.3650 -0.1291 -0.2810
  448SOL     OW 1837   3.693   1.925   0.444  0.1497  0.4262 -0.0022
  448SOL    HW2 1838   3.730   1.947   0.530  0.4303  0.8263 -0.2257
  448SOL    HW3 1839   3.604   1.960   0.447 -0.3329 -0.8568  0.6702
  448SOL    MW4 1840   3.686   1.933   0.456  0.1233  0.3096  0.0570
  449SOL     OW 1841   3.777   2.013   0.704  0.1852 -0.0120 -0.3826
  449SOL    HW2 1842   3.764   2.097   0.747  0.1219 -0.0019 -0.4218
  449SOL    HW3 1843   3.849   1.972   0.752 -1.5385 -1.1020  1.3403
  449SOL    MW4 1844   3.785   2.019   0.716 -0.0503 -0.1547 -0.1605
  450SOL     OW 1845   3.713   2.268   0.838  0.3625  0.2555  0.3823
  450SOL    HW2 1846   3.733   2.272   0.932  2.2193  1.0681 -0.0213
  450SOL    HW3 1847   3.660   2.346   0.822  2.4443  1.7001  0.2511
  450SOL    MW4 1848   3.709   2.279   0.849  0.8819  0.5534  0.3117
  451SOL     OW 1849   3.474   2.680   0.857 -0.0522 -0.2585  0.3598
  451SOL    HW2 1850   3.528   2.700   0.933 -1.0636 -4.6854  2.4046
  451SOL    HW3 1851   3.524   2.616   0.807 -1.4792 -1.0793 -0.0660
  451SOL    MW4 1852   3.488   2.674   0.860 -0.3738 -0.9508  0.5733
  452SOL     OW 1853   3.614   2.688   0.410  0.2297  0.4404 -0.0871
  452SOL    HW2 1854   3.701   2.674   0.374  0.7970 -0.9582  1.7914
  452SOL    HW3 1855   3.625   2.760   0.473 -0.0644  0.5569 -0.1662
  452SOL    MW4 1856   3.627   2.696   0.414  0.2658  0.2711  0.1503
  453SOL     OW 1857   3.863   3.088   0.839 -0.6619  0.5208  0.2457
  453SOL    HW2 1858   3.919   3.151   0.793 -0.0050 -0.8315 -0.8371
  453SOL    HW3 1859   3.791   3.072   0.778  0.6212 -1.8903 -0.6963
  453SOL    MW4 1860   3.861   3.094   0.825 -0.4060  0.0241 -0.0215
  454SOL     OW 1861   3.501   3.286   0.669 -0.6754  0.1907  0.5828
  454SOL    HW2 1862   3.435   3.219   0.688  0.1826 -1.3682 -1.6712
  454SOL    HW3 1863   3.480   3.316   0.580  0.2011  1.4218  0.7797
  454SOL    MW4 1864   3.490   3.281   0.660 -0.4463  0.1473  0.3114
  455SOL     OW 1865   3.566   3.502   0.836  0.1812  0.0250 -0.6524
  455SOL    HW2 1866   3.541   3.418   0.795 -0.6615  0.5676 -1.2689
  455SOL    HW3 1867   3.494   3.561   0.814 -1.2375 -0.1295  3.2168
  455SOL    MW4 1868   3.553   3.498   0.827 -0.1173  0.0763 -0.2233
  456SOL     OW 1869   3.805   3.650   0.748  0.7142 -0.4335 -0.5059
  456SOL    HW2 1870   3.884   3.600   0.772  0.7801  0.6629  1.6928
  456SOL    HW3 1871   3.733   3.598   0.784  0.5611 -0.5361 -0.9615
  456SOL    MW4 1872   3.806   3.636   0.756  0.7026 -0.3021 -0.2759
  457SOL     OW 1873   3.814   3.899   0.875  0.4250 -0.4777  0.2183
  457SOL    HW2 1874   3.735   3.937   0.836  1.4220  0.1319 -1.2543
  457SOL    HW3 1875   3.818   3.810   0.839  0.2515 -0.6181  0.5405
  457SOL    MW4 1876   3.804   3.892   0.865  0.5333 -0.4156  0.0666
  458SOL     OW 1877   3.588   4.030   0.774  0.0138  0.2267  0.1239
  458SOL    HW2 1878   3.584   4.116   0.815 -0.7759  0.0221  0.4847
  458SOL    HW3 1879   3.563   4.046   0.683  0.3028  0.4464  0.0820
  458SOL    MW4 1880   3.584   4.043   0.767 -0.0522  0.2289  0.1659
  459SOL     OW 1881   3.570   4.286   0.891 -0.0813 -0.1521 -0.0115
  459SOL    HW2 1882   3.641   4.326   0.840  0.4379  0.1034  0.8970
  459SOL    HW3 1883   3.490   4.320   0.851  0.3251  0.3721 -0.4003
  459SOL    MW4 1884   3.569   4.296   0.879  0.0410 -0.0496  0.0570
  460SOL     OW 1885   3.794   4.403   0.772 -0.7406  0.1119 -0.4823
  460SOL    HW2 1886   3.878   4.376   0.809 -0.2854  0.1222 -1.4716
  460SOL    HW3 1887   3.776   4.489   0.811 -0.4418 -0.0320 -0.0312
  460SOL    MW4 1888   3.803   4.411   0.782 -0.6409  0.0939 -0.5533
  461SOL     OW 1889   4.256   4.627   0.845 -0.0963  0.1369 -0.2573
  461SOL    HW2 1890   4.266   4.623   0.940 -0.6818 -0.9614 -0.2305
  461SOL    HW3 1891   4.175   4.678   0.832 -1.3064 -1.6945 -0.0789
  461SOL    MW4 1892   4.246   4.634   0.856 -0.3333 -0.2499 -0.2301
  462SOL     OW 1893   4.025   0.104   0.770  0.0523  0.1901 -0.4661
  462SOL    HW2 1894   4.012   0.190   0.811 -0.0376 -0.4210  0.8185
  462SOL    HW3 1895   4.050   0.124   0.680  0.2756  1.5725 -0.1136
  462SOL    MW4 1896   4.026   0.118   0.764  0.0696  0.2919 -0.2501
  463SOL     OW 1897   4.000   0.367   0.890 -0.6091 -0.1968  0.3487
  463SOL    HW2 1898   4.082   0.406   0.860 -0.4158 -0.5404  0.4303
  463SOL    HW3 1899   3.932   0.423   0.853 -0.3863 -0.8250 -1.0178
  463SOL    MW4 1900   4.002   0.380   0.881 -0.5546 -0.3250  0.1792
  464SOL     OW 1901   4.214   0.489   0.753  0.5158 -0.1197 -0.3606
  464SOL    HW2 1902   4.293   0.440   0.780  1.0037 -0.0052 -1.5595
  464SOL    HW3 1903   4.222   0.497   0.658 -1.0227 -0.2229 -0.5111
  464SOL    MW4 1904   4.226   0.483   0.744  0.3772 -0.1182 -0.5386
  465SOL     OW 1905   4.212   0.747   0.864  0.3891 -0.1729 -0.1033
  465SOL    HW2 1906   4.133   0.794   0.836  0.3499 -0.1745  0.0001
  465SOL    HW3 1907   4.207   0.662   0.819 -0.5094 -0.8053  1.1371
  465SOL    MW4 1908   4.201   0.742   0.855  0.2656 -0.2565  0.0739
  466SOL     OW 1909   4.023   0.925   0.775 -0.1515  0.5354 -0.1102
  466SOL    HW2 1910   4.053   1.003   0.821 -0.7624  0.2889  0.7251
  466SOL    HW3 1911   3.990   0.957   0.691  0.3501  1.0666 -0.1053
  466SOL    MW4 1912   4.022   0.939   0.770 -0.1659  0.5730  0.0007
  467SOL     OW 1913   4.061   1.183   0.895 -0.2281  0.1617 -0.0119
  467SOL    HW2 1914   4.045   1.150   0.983 -0.3481 -0.4390 -0.2527
  467SOL    HW3 1915   3.977   1.220   0.868 -0.3349 -0.1135 -0.0636
  467SOL    MW4 1916   4.048   1.183   0.903 -0.2575  0.0461 -0.0505
  468SOL     OW 1917   4.305   1.263   0.765 -0.0750 -0.5983  0.2249
  468SOL    HW2 1918   4.225   1.226   0.802  0.2365 -0.5430  0.9493
  468SOL    HW3 1919   4.373   1.200   0.786  0.0157 -0.8120 -0.6951
  468SOL    MW4 1920   4.303   1.250   0.772 -0.0219 -0.6192  0.1991
  469SOL     OW 1921   4.250   1.514   0.867 -0.0191 -0.0795 -0.1145
  469SOL    HW2 1922   4.235   1.499   0.960  2.7087  0.2764  0.4386
  469SOL    HW3 1923   4.274   1.428   0.832  1.8901  0.3200  0.1594
  469SOL    MW4 1924   4.251   1.501   0.874  0.5932  0.0203 -0.0054
  470SOL     OW 1925   4.044   1.642   0.734  0.7314  0.3778  0.1456
  470SOL    HW2 1926   4.115   1.604   0.785 -0.5362 -1.8122  0.3367
  470SOL    HW3 1927   4.025   1.576   0.668  0.4414  1.9694 -1.3949
  470SOL    MW4 1928   4.051   1.628   0.732  0.5264  0.2989 -0.0324
  471SOL     OW 1929   4.020   1.900   0.844  0.1335 -0.6077  0.0957
  471SOL    HW2 1930   4.080   1.964   0.805 -0.3538  0.1075  0.4823
  471SOL    HW3 1931   4.053   1.815   0.816  0.9238 -0.1940 -0.2610
  471SOL    MW4 1932   4.033   1.898   0.835  0.1731 -0.4588  0.0997
  472SOL     OW 1933   4.240   2.127   0.780  0.3878 -0.4384  0.0378
  472SOL    HW2 1934   4.314   2.083   0.822  0.2440 -0.9100 -0.2021
  472SOL    HW3 1935   4.262   2.128   0.687  0.0419 -0.6804 -0.0483
  472SOL    MW4 1936   4.253   2.121   0.773  0.3238 -0.5324 -0.0052
  473SOL     OW 1937   4.204   2.383   0.879 -0.2438  0.2482  0.1712
  473SOL    HW2 1938   4.120   2.413   0.846 -0.1664  1.1671  0.7930
  473SOL    HW3 1939   4.207   2.290   0.858 -1.1468  0.3513 -0.4030
  473SOL    MW4 1940   4.193   2.375   0.872 -0.3529  0.3831  0.1774
  474SOL     OW 1941   4.245   2.834   0.493  0.3137 -0.4827  0.0437
  474SOL    HW2 1942   4.170   2.852   0.437 -0.8822 -1.2615  1.3754
  474SOL    HW3 1943   4.320   2.873   0.446 -1.1364  1.7287 -0.5302
  474SOL    MW4 1944   4.245   2.842   0.479 -0.0353 -0.2937  0.1437
  475SOL     OW 1945   4.002   2.842   0.870 -0.3309  0.0303  0.3710
  475SOL    HW2 1946   4.089   2.854   0.833 -0.7443  0.4551 -0.4689
  475SOL    HW3 1947   3.953   2.920   0.843 -1.4699 -1.0007 -0.6089
  475SOL    MW4 1948   4.007   2.854   0.862 -0.5360 -0.0498  0.1309
  476SOL     OW 1949   4.261   2.894   0.771  0.3067 -0.1675  0.0842
  476SOL    HW2 1950   4.322   2.828   0.804  1.1225  0.1821 -0.7175
  476SOL    HW3 1951   4.251   2.873   0.678  0.8254  1.0143 -0.2525
  476SOL    MW4 1952   4.268   2.883   0.763  0.4826  0.0346 -0.0660
  477SOL     OW 1953   4.306   3.144   0.859  0.0236 -0.3726 -0.3285
  477SOL    HW2 1954   4.314   3.056   0.823  1.9934 -0.5900  0.6116
  477SOL    HW3 1955   4.387   3.188   0.835  0.1133  0.4031  1.3121
  477SOL    MW4 1956   4.318   3.138   0.851  0.2952 -0.2990  0.0120
  478SOL     OW 1957   4.079   3.250   0.744  0.2282  0.1135  0.2524
  478SOL    HW2 1958   4.061   3.343   0.754 -0.9311 -0.0620 -0.1219
  478SOL    HW3 1959   4.169   3.239   0.774 -0.0205  1.1566  1.4081
  478SOL    MW4 1960   4.089   3.261   0.749  0.0424  0.2279  0.3555
  479SOL     OW 1961   4.057   3.513   0.792 -0.1055  0.1529  0.1346
  479SOL    HW2 1962   4.083   3.516   0.884  0.2183  0.3721  0.0350
  479SOL    HW3 1963   4.132   3.550   0.745 -0.0339 -0.4911 -0.2615
  479SOL    MW4 1964   4.071   3.518   0.798 -0.0534  0.0973  0.0692
  480SOL     OW 1965   4.283   3.653   0.681 -0.9111 -0.3600  0.1560
  480SOL    HW2 1966   4.286   3.744   0.711 -0.3082 -0.3408  0.0470
  480SOL    HW3 1967   4.282   3.659   0.586 -1.2284 -0.4577  0.1544
  480SOL    MW4 1968   4.283   3.665   0.673 -0.8736 -0.3705  0.1414
  481SOL     OW 1969   4.274   3.905   0.813 -0.0108 -0.0211 -0.1559
  481SOL    HW2 1970   4.274   3.908   0.909 -0.3783 -1.1647 -0.1094
  481SOL    HW3 1971   4.188   3.940   0.788 -0.2961 -0.6252 -0.0276
  481SOL    MW4 1972   4.263   3.910   0.823 -0.0968 -0.2520 -0.1328
  482SOL     OW 1973   4.048   4.031   0.726 -0.3366  0.4183 -0.3533
  482SOL    HW2 1974   3.971   3.998   0.772 -0.5958 -0.6275 -1.5088
  482SOL    HW3 1975   4.014   4.071   0.646  0.3251 -0.1877 -0.9490
  482SOL    MW4 1976   4.033   4.032   0.721 -0.2832  0.2003 -0.5843
  483SOL     OW 1977   4.050   4.282   0.863  0.1672  0.2743  0.1435
  483SOL    HW2 1978   4.141   4.303   0.842  0.6891 -1.0767  0.9661
  483SOL    HW3 1979   4.036   4.194   0.826 -0.6649  0.3023  0.3754
  483SOL    MW4 1980   4.060   4.273   0.855  0.1259  0.0997  0.2826
  484SOL     OW 1981   4.304   4.360   0.753 -0.0047 -0.1951 -0.1505
  484SOL    HW2 1982   4.288   4.451   0.780  0.6652 -0.8633  2.6311
  484SOL    HW3 1983   4.377   4.332   0.806 -0.0359 -2.3150 -1.1920
  484SOL    MW4 1984   4.311   4.368   0.763  0.0796 -0.5627  0.0791
  485SOL     OW 1985   0.253   4.647   1.147  0.0558 -0.2679  0.7315
  485SOL    HW2 1986   0.324   4.704   1.177  0.3994  0.1721 -0.8821
  485SOL    HW3 1987   0.260   4.648   1.052 -1.9881 -0.4011  0.5678
  485SOL    MW4 1988   0.263   4.655   1.138 -0.1685 -0.2275  0.4970
  486SOL     OW 1989   0.037   0.098   1.248  0.7167 -0.1938 -0.0383
  486SOL    HW2 1990  -0.037   0.050   1.211  0.2352  0.5050 -0.0075
  486SOL    HW3 1991   0.114   0.050   1.218  0.2525 -0.9049 -0.1061
  486SOL    MW4 1992   0.038   0.086   1.239  0.5919 -0.1954 -0.0432
  487SOL     OW 1993   4.471   0.337   1.088  0.1405  0.9718  0.2916
  487SOL    HW2 1994   4.397   0.379   1.131 -0.2786  0.3631  0.1590
  487SOL    HW3 1995   4.489   0.259   1.140 -0.4075  0.2003 -0.6447
  487SOL    MW4 1996   4.464   0.332   1.100  0.0129  0.7897  0.1506
  488SOL     OW 1997   0.168   0.508   1.214 -0.1984 -0.2057 -0.5394
  488SOL    HW2 1998   0.179   0.590   1.167 -1.3409 -0.4832 -1.3141
  488SOL    HW3 1999   0.112   0.455   1.157 -0.5388 -1.0303  0.5458
  488SOL    MW4 2000   0.162   0.512   1.200 -0.3940 -0.3511 -0.4985
  489SOL     OW 2001   0.213   0.760   1.099  0.1844 -0.1863 -0.2959
  489SOL    HW2 2002   0.295   0.794   1.135  0.4241 -0.6560 -0.3897
  489SOL    HW3 2003   0.144   0.806   1.148  0.5052 -0.3235  0.2947
  489SOL    MW4 2004   0.215   0.770   1.110  0.2583 -0.2663 -0.2303
  490SOL     OW 2005   4.491   0.891   1.238 -1.0274  0.2729 -1.1323
  490SOL    HW2 2006   4.514   0.884   1.331 -0.3016  1.4732 -1.2077
  490SOL    HW3 2007   4.403   0.852   1.233 -0.6360 -0.7689 -0.1434
  490SOL    MW4 2008   4.482   0.885   1.250 -0.8798  0.2939 -1.0117
  491SOL     OW 2009   4.478   1.131   1.104  0.1480  0.2912 -0.2812
  491SOL    HW2 2010   4.413   1.188   1.145  0.0708 -0.3871  0.5621
  491SOL    HW3 2011   4.477   1.051   1.158 -0.2992 -0.8107 -1.8861
  491SOL    MW4 2012   4.469   1.128   1.116  0.0788  0.0564 -0.3817
  492SOL     OW 2013   0.207   1.253   1.239 -0.0979 -0.0554  0.1473
  492SOL    HW2 2014   0.282   1.215   1.192 -0.9634 -1.2813 -0.2848
  492SOL    HW3 2015   0.131   1.210   1.200 -1.0404  1.2683  0.4990
  492SOL    MW4 2016   0.207   1.242   1.228 -0.3365 -0.0424  0.1366
  493SOL     OW 2017   0.271   1.518   1.182  0.0424 -0.2294  0.4150
  493SOL    HW2 2018   0.256   1.427   1.208 -1.2409 -0.3383 -0.5969
  493SOL    HW3 2019   0.237   1.522   1.092  1.5218  0.8693 -0.1109
  493SOL    MW4 2020   0.264   1.506   1.174  0.0683 -0.0988  0.2121
  494SOL     OW 2021   0.016   1.652   1.231  0.1536  0.5999  0.0605
  494SOL    HW2 2022   0.011   1.742   1.199 -0.3799 -0.0222 -1.6457
  494SOL    HW3 2023   0.102   1.622   1.202 -1.3601 -0.8258 -3.2058
  494SOL    MW4 2024   0.027   1.660   1.223 -0.1168  0.3297 -0.5955
  495SOL     OW 2025   4.474   1.914   1.135  0.1088 -0.3837 -0.5428
  495SOL    HW2 2026   4.416   1.979   1.175  0.5478 -0.6134  0.4656
  495SOL    HW3 2027   4.463   1.927   1.041 -0.4495  0.5814 -0.3455
  495SOL    MW4 2028   4.465   1.924   1.128  0.0935 -0.2867 -0.3837
  496SOL     OW 2029   0.194   2.071   1.245  0.5555  0.1207  0.1644
  496SOL    HW2 2030   0.176   2.155   1.202 -2.2145  0.2284  1.4497
  496SOL    HW3 2031   0.138   2.008   1.201 -0.2838 -0.2920  1.7751
  496SOL    MW4 2032   0.184   2.074   1.234  0.0793  0.0803  0.5463
  497SOL     OW 2033   0.177   2.320   1.110  0.4306  0.0904 -0.5392
  497SOL    HW2 2034   0.260   2.361   1.134 -0.3619  1.2415  0.3315
  497SOL    HW3 2035   0.113   2.362   1.167 -0.6232 -1.3936 -0.6052
  497SOL    MW4 2036   0.180   2.331   1.121  0.1870  0.0465 -0.4330
  498SOL     OW 2037   4.469   2.435   1.268 -0.0590  0.5103  0.2913
  498SOL    HW2 2038   4.465   2.444   1.363 -0.4623 -0.2705  0.3536
  498SOL    HW3 2039   4.387   2.393   1.245 -0.3196  1.4405 -0.4963
  498SOL    MW4 2040   4.458   2.431   1.278 -0.1469  0.5300  0.1957
  499SOL     OW 2041   0.003   2.692   1.140  0.4187 -0.0232 -0.9819
  499SOL    HW2 2042  -0.082   2.733   1.156  0.7473  0.7857 -1.3285
  499SOL    HW3 2043  -0.002   2.608   1.187 -0.6557 -0.0811 -1.1903
  499SOL    MW4 2044  -0.009   2.686   1.148  0.3204  0.0758 -1.0550
  500SOL     OW 2045   0.226   2.865   1.194 -0.0365 -0.2004  0.1555
  500SOL    HW2 2046   0.235   2.860   1.289 -0.8578  0.1404  0.2523
  500SOL    HW3 2047   0.160   2.799   1.173  0.3364 -0.4608 -0.2109
  500SOL    MW4 2048   0.219   2.856   1.204 -0.0957 -0.1900  0.1198
  501SOL     OW 2049   0.206   3.118   1.103  0.1955  0.0662  0.0847
  501SOL    HW2 2050   0.278   3.156   1.153  0.8634 -0.5034 -0.4152
  501SOL    HW3 2051   0.202   3.026   1.131  1.3882 -0.5893 -1.7457
  501SOL    MW4 2052   0.215   3.111   1.113  0.4410 -0.0954 -0.2228
  502SOL     OW 2053   4.489   3.258   1.225 -0.3398 -0.0133  0.2202
  502SOL    HW2 2054   4.417   3.200   1.203 -0.2072  0.4419 -1.4860
  502SOL    HW3 2055   4.565   3.221   1.180  0.1027  0.5079  0.5323
  502SOL    MW4 2056   4.490   3.246   1.216 -0.2646  0.1156  0.0362
  503SOL     OW 2057   0.012   3.527   1.141 -0.5017 -0.1502 -0.0461
  503SOL    HW2 2058   0.015   3.436   1.171  0.5536 -0.6629 -1.6546
  503SOL    HW3 2059  -0.017   3.521   1.050 -0.9218  1.1739 -0.0117
  503SOL    MW4 2060   0.008   3.514   1.133 -0.4177 -0.0432 -0.2538
  504SOL     OW 2061   0.270   3.644   1.239  0.5232 -0.3536  0.6522
  504SOL    HW2 2062   0.273   3.644   1.335  1.2659  1.5773  0.6485
  504SOL    HW3 2063   0.196   3.587   1.218  1.0480 -1.7153  2.3298
  504SOL    MW4 2064   0.260   3.636   1.249  0.6904 -0.2785  0.8731
  505SOL     OW 2065   0.259   3.903   1.163 -0.2338 -0.2775  0.2642
  505SOL    HW2 2066   0.176   3.935   1.199 -0.3545  0.7836 -0.9119
  505SOL    HW3 2067   0.263   3.811   1.187 -2.4257 -0.6851 -0.8804
  505SOL    MW4 2068   0.249   3.895   1.171 -0.5389 -0.1912 -0.0420
  506SOL     OW 2069   0.022   4.006   1.247  0.0739 -0.2466 -0.2403
  506SOL    HW2 2070   0.007   3.972   1.335  0.7884  0.1929  0.0616
  506SOL    HW3 2071  -0.047   3.968   1.193 -0.6253 -0.1701  0.6043
  506SOL    MW4 2072   0.011   3.996   1.251  0.0759 -0.1793 -0.0890
  507SOL     OW 2073   0.019   4.289   1.187 -0.0194  0.8235 -0.4877
  507SOL    HW2 2074   0.100   4.335   1.206  0.6653 -0.9183  1.0338
  507SOL    HW3 2075   0.032   4.201   1.225 -2.6721  0.5839 -0.0123
  507SOL    MW4 2076   0.031   4.283   1.195 -0.2791  0.5617 -0.2241
  508SOL     OW 2077   0.264   4.398   1.246 -0.1484  0.2551  0.5683
  508SOL    HW2 2078   0.249   4.413   1.339 -1.0038 -0.3745  0.5370
  508SOL    HW3 2079   0.267   4.486   1.208 -1.8022  0.4608  0.8809
  508SOL    MW4 2080   0.263   4.412   1.253 -0.4794  0.1998  0.6056
  509SOL     OW 2081   0.672   0.007   1.119 -0.3102  0.4306  0.2211
  509SOL    HW2 2082   0.737   0.064   1.158  1.1169 -0.6840 -0.5008
  509SOL    HW3 2083   0.688  -0.079   1.159 -0.5758 -0.1116 -0.8005
  509SOL    MW4 2084   0.682   0.003   1.129 -0.1569  0.2120 -0.0089
  510SOL     OW 2085   0.460   0.139   1.262 -0.3996 -0.1931  0.2362
  510SOL    HW2 2086   0.459   0.229   1.230  0.0832 -0.5795 -0.8846
  510SOL    HW3 2087   0.528   0.096   1.210  0.8831 -0.6608  2.2530
  510SOL    MW4 2088   0.469   0.145   1.251 -0.1666 -0.3058  0.3543
  511SOL     OW 2089   0.427   0.392   1.168  0.2706  0.1242  0.4115
  511SOL    HW2 2090   0.344   0.427   1.200 -0.3577 -0.8937 -0.0925
  511SOL    HW3 2091   0.416   0.386   1.073 -0.2903 -3.0319  0.6052
  511SOL    MW4 2092   0.415   0.396   1.160  0.1137 -0.4265  0.3706
  512SOL     OW 2093   0.661   0.518   1.241  0.4266 -0.0792 -0.1271
  512SOL    HW2 2094   0.668   0.598   1.189  0.6442 -0.8899 -1.3576
  512SOL    HW3 2095   0.581   0.476   1.209  1.1918 -1.1637 -0.6240
  512SOL    MW4 2096   0.651   0.523   1.230  0.5562 -0.3293 -0.3550
  513SOL     OW 2097   0.691   0.773   1.118  0.2477 -0.3366  0.4466
  513SOL    HW2 2098   0.610   0.810   1.152 -0.2574 -1.2812  0.2560
  513SOL    HW3 2099   0.680   0.774   1.023  0.1802 -1.1109  0.4479
  513SOL    MW4 2100   0.679   0.778   1.110  0.1721 -0.5634  0.4218
  514SOL     OW 2101   0.452   0.884   1.211  0.0570 -0.2400 -0.2093
  514SOL    HW2 2102   0.445   0.904   1.305 -0.1566  0.4830 -0.3740
  514SOL    HW3 2103   0.445   0.969   1.168 -0.1003 -0.5981 -0.8984
  514SOL    MW4 2104   0.450   0.898   1.218  0.0081 -0.1919 -0.3219
  515SOL     OW 2105   0.440   1.158   1.116 -0.3633 -0.3177 -0.1378
  515SOL    HW2 2106   0.514   1.215   1.133 -0.3867 -0.3805  0.1711
  515SOL    HW3 2107   0.423   1.168   1.022  0.3551 -0.6846 -0.3121
  515SOL    MW4 2108   0.448   1.167   1.106 -0.2716 -0.3744 -0.1199
  516SOL     OW 2109   0.660   1.302   1.200 -0.3073  0.2873 -0.0888
  516SOL    HW2 2110   0.745   1.260   1.205 -0.6650 -0.2248  2.2480
  516SOL    HW3 2111   0.678   1.390   1.168  0.9935 -0.0698 -0.3460
  516SOL    MW4 2112   0.673   1.308   1.196 -0.1829  0.1725  0.1855
  517SOL     OW 2113   0.690   1.572   1.145 -0.2218 -0.6456  0.4803
  517SOL    HW2 2114   0.773   1.612   1.172 -0.3632 -0.9184  1.3286
  517SOL    HW3 2115   0.623   1.619   1.196 -0.3397 -2.3437  1.9392
  517SOL    MW4 2116   0.692   1.583   1.156 -0.2561 -0.9056  0.7848
  518SOL     OW 2117   0.471   1.701   1.251  0.3499 -0.1149 -0.0203
  518SOL    HW2 2118   0.466   1.699   1.346  1.6594 -1.1646  0.0408
  518SOL    HW3 2119   0.416   1.628   1.222  0.1601  0.0447 -0.0683
  518SOL    MW4 2120   0.463   1.691   1.260  0.4976 -0.2323 -0.0186
  519SOL     OW 2121   0.433   1.974   1.151 -0.0841 -0.4010 -0.2980
  519SOL    HW2 2122   0.448   1.892   1.198  0.5058  0.2968  0.7498
  519SOL    HW3 2123   0.353   2.010   1.190  0.8194  0.5468  0.7046
  519SOL    MW4 2124   0.424   1.968   1.162  0.1130 -0.1839 -0.0273
  520SOL     OW 2125   0.666   2.080   1.262  0.1894 -0.4395  0.2871
  520SOL    HW2 2126   0.674   2.082   1.358  1.1417  0.4587  0.2025
  520SOL    HW3 2127   0.573   2.068   1.246  0.0230 -0.6347  1.3363
  520SOL    MW4 2128   0.655   2.079   1.273  0.2931 -0.3469  0.4145
  521SOL     OW 2129   0.656   2.334   1.152 -0.0368 -0.3631 -0.3007
  521SOL    HW2 2130   0.571   2.371   1.175  0.3572  0.2661  0.1733
  521SOL    HW3 2131   0.662   2.253   1.204  0.1234  0.1687  0.5241
  521SOL    MW4 2132   0.645   2.328   1.162  0.0362 -0.2100 -0.1295
  522SOL     OW 2133   0.392   2.434   1.218 -0.0814 -0.2733  0.3738
  522SOL    HW2 2134   0.398   2.412   1.311 -3.1267 -1.5776  0.3180
  522SOL    HW3 2135   0.404   2.529   1.214 -1.0217 -0.0686  2.2156
  522SOL    MW4 2136   0.395   2.444   1.230 -0.6072 -0.4184  0.6095
  523SOL     OW 2137   0.449   2.705   1.160  0.0547  0.2426  0.4227
  523SOL    HW2 2138   0.368   2.755   1.175  0.8789  2.3276 -1.7591
  523SOL    HW3 2139   0.445   2.679   1.068  2.2742  1.1886  0.0241
  523SOL    MW4 2140   0.438   2.708   1.150  0.4563  0.6425  0.0824
  524SOL     OW 2141   0.674   2.833   1.220  0.2931 -0.0121  0.0672
  524SOL    HW2 2142   0.682   2.917   1.173  2.3547 -0.9935 -1.4193
  524SOL    HW3 2143   0.587   2.802   1.198  0.5339  0.4523 -1.6764
  524SOL    MW4 2144   0.664   2.840   1.211  0.5969 -0.0803 -0.3591
  525SOL     OW 2145   0.648   3.120   1.131 -0.0168  0.0971 -0.2596
  525SOL    HW2 2146   0.724   3.157   1.177 -0.6983  0.2811  0.7210
  525SOL    HW3 2147   0.667   3.135   1.038  1.6584 -0.8341 -0.0970
  525SOL    MW4 2148   0.661   3.127   1.125  0.1143 -0.0012 -0.1087
  526SOL     OW 2149   0.422   3.246   1.254  0.6262 -0.1138  0.0756
  526SOL    HW2 2150   0.435   3.333   1.215 -1.0024  0.2945  0.4143
  526SOL    HW3 2151   0.485   3.190   1.208  0.4760  0.8808 -1.3816
  526SOL    MW4 2152   0.432   3.250   1.243  0.3915  0.0710 -0.0720
  527SOL     OW 2153   0.474   3.479   1.126  0.0078  0.1743 -0.3632
  527SOL    HW2 2154   0.557   3.523   1.143  0.8501 -2.2844  2.1469
  527SOL    HW3 2155   0.409   3.533   1.172  0.3252  1.5308 -1.4762
  527SOL    MW4 2156   0.476   3.492   1.134  0.1608  0.0291 -0.1788
  528SOL     OW 2157   0.686   3.634   1.243 -0.4519  0.4070 -0.1445
  528SOL    HW2 2158   0.674   3.642   1.337  1.9276  0.6604  0.1659
  528SOL    HW3 2159   0.683   3.725   1.211  1.5737  0.5877  0.0934
  528SOL    MW4 2160   0.684   3.647   1.251  0.1293  0.4642 -0.0721
  529SOL     OW 2161   0.665   3.885   1.122  0.0509 -0.0347 -0.3931
  529SOL    HW2 2162   0.586   3.930   1.152 -0.3135 -0.1389 -1.1760
  529SOL    HW3 2163   0.664   3.896   1.027  1.4584  0.7565 -0.3409
  529SOL    MW4 2164   0.655   3.893   1.114  0.1886  0.0558 -0.4894
  530SOL     OW 2165   0.482   4.041   1.247 -0.0338  0.6510  0.4852
  530SOL    HW2 2166   0.485   4.129   1.210 -0.6768  0.4868  0.0468
  530SOL    HW3 2167   0.398   4.006   1.219 -0.5859  0.5702  2.1919
  530SOL    MW4 2168   0.471   4.048   1.238 -0.1914  0.6185  0.6526
  531SOL     OW 2169   0.487   4.291   1.106 -0.2648  0.2119 -0.1402
  531SOL    HW2 2170   0.565   4.337   1.136 -0.3022 -0.6404  1.3353
  531SOL    HW3 2171   0.414   4.333   1.153 -0.7491  1.2672 -1.8124
  531SOL    MW4 2172   0.488   4.302   1.116 -0.3336  0.2384 -0.1663
  532SOL     OW 2173   0.713   4.416   1.215  0.0427  0.5054 -0.1666
  532SOL    HW2 2174   0.705   4.403   1.309 -0.9237  1.4638 -0.1100
  532SOL    HW3 2175   0.800   4.382   1.193  0.6694  1.2099  1.2265
  532SOL    MW4 2176   0.723   4.410   1.224 -0.0021  0.7248  0.0247
  533SOL     OW 2177   1.087   4.662   1.116 -0.0222  0.1974 -0.2613
  533SOL    HW2 2178   1.144   4.589   1.140 -0.4266 -0.2690 -0.7041
  533SOL    HW3 2179   1.071   4.650   1.022  0.1311  1.0105 -0.3979
  533SOL    MW4 2180   1.093   4.651   1.107 -0.0553  0.2432 -0.3378
  534SOL     OW 2181   0.883   0.160   1.215 -0.2337 -0.2341 -0.3366
  534SOL    HW2 2182   0.883   0.139   1.309  0.7725  1.0850 -0.0288
  534SOL    HW3 2183   0.956   0.110   1.180  0.6437  0.8381 -0.0472
  534SOL    MW4 2184   0.892   0.150   1.223  0.0148  0.0814 -0.2577
  535SOL     OW 2185   0.864   0.404   1.074 -0.4735  0.4880  0.2438
  535SOL    HW2 2186   0.874   0.317   1.113  0.2929 -0.2328 -1.5240
  535SOL    HW3 2187   0.790   0.442   1.121 -0.9842 -1.2161  0.8730
  535SOL    MW4 2188   0.855   0.397   1.085 -0.4398  0.1681  0.0936
  536SOL     OW 2189   1.099   0.523   1.181  0.3360 -0.1503 -0.2093
  536SOL    HW2 2190   1.095   0.500   1.273 -0.2794 -0.0391 -0.2086
  536SOL    HW3 2191   1.021   0.483   1.142  0.8885 -0.6832 -0.7901
  536SOL    MW4 2192   1.088   0.515   1.188  0.3276 -0.2059 -0.2859
  537SOL     OW 2193   1.107   0.799   1.138  0.0226  0.0801  0.4412
  537SOL    HW2 2194   1.032   0.845   1.177  0.0810 -0.9387  1.7678
  537SOL    HW3 2195   1.092   0.707   1.159  1.0527 -0.2654 -0.3080
  537SOL    MW4 2196   1.095   0.793   1.146  0.1662 -0.0999  0.5175
  538SOL     OW 2197   0.891   0.911   1.264 -0.8240 -0.1742 -0.1392
  538SOL    HW2 2198   0.877   1.000   1.230 -0.5333  0.0674  0.3592
  538SOL    HW3 2199   0.826   0.857   1.219 -0.6112  0.1852 -0.8877
  538SOL    MW4 2200   0.881   0.916   1.253 -0.7576 -0.0950 -0.1723
  539SOL     OW 2201   0.901   1.172   1.160 -0.1232  0.2104 -0.4207
  539SOL    HW2 2202   0.969   1.235   1.184  0.2764 -0.3130 -0.1976
  539SOL    HW3 2203   0.902   1.171   1.064  0.5604 -0.2142 -0.4115
  539SOL    MW4 2204   0.910   1.180   1.150  0.0197  0.0854 -0.3901
  540SOL     OW 2205   1.126   1.353   1.191  0.3297  0.0288  0.2637
  540SOL    HW2 2206   1.136   1.351   1.286  1.2776  0.7355  0.1835
  540SOL    HW3 2207   1.198   1.299   1.158  1.2953  1.5305 -0.1318
  540SOL    MW4 2208   1.137   1.346   1.199  0.5822  0.3201  0.2010
  541SOL     OW 2209   1.143   1.602   1.043 -0.0550  0.2950  0.4597
  541SOL    HW2 2210   1.131   1.513   1.077 -0.0955  0.4855  0.9456
  541SOL    HW3 2211   1.070   1.615   0.983  0.2604 -0.2049 -0.0357
  541SOL    MW4 2212   1.132   1.592   1.040 -0.0187  0.2542  0.4585
  542SOL     OW 2213   0.904   1.709   1.249  0.2967  0.0868  0.4203
  542SOL    HW2 2214   0.904   1.796   1.210  1.2459  0.7317  1.8126
  542SOL    HW3 2215   0.995   1.679   1.241  0.3886  0.0114  1.6218
  542SOL    MW4 2216   0.916   1.716   1.243  0.4340  0.1619  0.7626
  543SOL     OW 2217   0.873   1.960   1.141 -0.4098  0.2922 -0.2126
  543SOL    HW2 2218   0.953   2.009   1.161 -0.3648  0.0954  0.0975
  543SOL    HW3 2219   0.803   2.009   1.183 -0.4039  0.2523 -0.1571
  543SOL    MW4 2220   0.875   1.973   1.149 -0.4030  0.2609 -0.1644
  544SOL     OW 2221   1.138   2.053   1.238 -0.4894 -0.3830 -0.3554
  544SOL    HW2 2222   1.126   2.057   1.333  0.0553 -1.1312 -0.2559
  544SOL    HW3 2223   1.138   2.145   1.211 -1.7885 -0.1938  0.2167
  544SOL    MW4 2224   1.136   2.066   1.247 -0.5890 -0.4570 -0.2668
  545SOL     OW 2225   1.082   2.306   1.132  0.5752 -0.0625  0.3422
  545SOL    HW2 2226   1.162   2.350   1.157  0.2827  0.5123  0.2815
  545SOL    HW3 2227   1.012   2.356   1.174  0.2534 -0.5813  0.4326
  545SOL    MW4 2228   1.083   2.318   1.141  0.4941 -0.0551  0.3461
  546SOL     OW 2229   0.886   2.451   1.254  0.4144  0.3301  0.2002
  546SOL    HW2 2230   0.891   2.427   1.346  0.1721 -1.0511 -0.1338
  546SOL    HW3 2231   0.804   2.411   1.224  1.5261 -0.9848 -1.1187
  546SOL    MW4 2232   0.876   2.443   1.262  0.5291 -0.0255 -0.0180
  547SOL     OW 2233   0.881   2.702   1.086 -0.1699 -0.0002  0.2048
  547SOL    HW2 2234   0.888   2.623   1.139  0.0814  1.0939  1.8231
  547SOL    HW3 2235   0.809   2.752   1.126 -0.4714  0.5041 -0.9303
  547SOL    MW4 2236   0.872   2.698   1.098 -0.1765  0.2108  0.2686
  548SOL     OW 2237   1.107   2.850   1.182 -0.0062  0.5312 -0.1473
  548SOL    HW2 2238   1.099   2.844   1.277  0.1528  0.0872 -0.1588
  548SOL    HW3 2239   1.032   2.802   1.149  0.4179 -0.0694 -0.2460
  548SOL    MW4 2240   1.096   2.843   1.190  0.0707  0.3934 -0.1618
  549SOL     OW 2241   1.145   3.121   1.104  0.2469  0.1228 -0.5370
  549SOL    HW2 2242   1.139   3.032   1.137  1.9691 -0.2831 -1.2672
  549SOL    HW3 2243   1.137   3.112   1.009  1.8434  0.5749 -0.7280
  549SOL    MW4 2244   1.143   3.108   1.096  0.6847  0.1290 -0.6585
  550SOL     OW 2245   0.896   3.218   1.218 -0.4726  0.4024 -0.3388
  550SOL    HW2 2246   0.894   3.313   1.204 -0.0431  0.0778 -2.9179
  550SOL    HW3 2247   0.982   3.192   1.185 -0.6490 -0.9206  0.2336
  550SOL    MW4 2248   0.907   3.227   1.212 -0.4392  0.1850 -0.6037
  551SOL     OW 2249   0.909   3.488   1.164  0.4464  0.1261 -0.4398
  551SOL    HW2 2250   0.831   3.534   1.196 -0.2986 -0.9626 -0.6595
  551SOL    HW3 2251   0.899   3.490   1.069 -0.0905 -1.3173 -0.4256
  551SOL    MW4 2252   0.897   3.495   1.156  0.2773 -0.2079 -0.4671
  552SOL     OW 2253   1.135   3.632   1.228 -0.1699  0.0890 -0.0568
  552SOL    HW2 2254   1.204   3.591   1.176 -0.7614 -0.0760 -0.7303
  552SOL    HW3 2255   1.055   3.585   1.202 -0.8874  1.7668 -0.9576
  552SOL    MW4 2256   1.133   3.620   1.218 -0.3426  0.2882 -0.2644
  553SOL     OW 2257   1.084   3.880   1.090  0.1963 -0.0835  0.7771
  553SOL    HW2 2258   1.018   3.914   1.151  0.7228 -0.5832  1.6389
  553SOL    HW3 2259   1.104   3.792   1.124  1.4578  0.1459  0.6364
  553SOL    MW4 2260   1.078   3.873   1.103  0.4324 -0.1192  0.8721
  554SOL     OW 2261   0.894   4.010   1.225 -0.0573  0.1204 -0.4235
  554SOL    HW2 2262   0.893   4.003   1.320 -0.5007  2.9589 -0.1648
  554SOL    HW3 2263   0.809   3.977   1.197 -0.7335  1.1885  0.3465
  554SOL    MW4 2264   0.883   4.005   1.234 -0.2051  0.6361 -0.2878
  555SOL     OW 2265   0.932   4.268   1.157  0.3313 -0.3556  0.6574
  555SOL    HW2 2266   0.904   4.179   1.178  0.1535 -0.3522  0.4305
  555SOL    HW3 2267   0.919   4.276   1.063 -0.8025  0.3207  0.8685
  555SOL    MW4 2268   0.927   4.257   1.148  0.1582 -0.2656  0.6552
  556SOL     OW 2269   1.164   4.399   1.207 -0.2917 -0.1909 -0.5075
  556SOL    HW2 2270   1.163   4.386   1.302 -1.0026 -0.5794 -0.5623
  556SOL    HW3 2271   1.085   4.354   1.176 -0.3142  0.3306 -1.2285
  556SOL    MW4 2272   1.153   4.392   1.216 -0.3885 -0.1736 -0.6096
  557SOL     OW 2273   1.532   0.028   1.073  0.3853 -0.0133  0.3874
  557SOL    HW2 2274   1.609   0.053   1.124  0.3118  2.0335 -0.4809
  557SOL    HW3 2275   1.508  -0.058   1.108  2.2950 -0.1181  1.5400
  557SOL    MW4 2276   1.539   0.020   1.084  0.6275  0.2429  0.4249
  558SOL     OW 2277   1.310   0.124   1.226  0.1400  0.6216  0.0228
  558SOL    HW2 2278   1.379   0.095   1.167 -0.8082  0.9706 -1.2968
  558SOL    HW3 2279   1.229   0.089   1.188 -0.2845 -0.9607  2.3077
  558SOL    MW4 2280   1.308   0.116   1.213 -0.0411  0.4589  0.1501
  559SOL     OW 2281   1.344   0.400   1.144  1.0105 -0.5211  0.1474
  559SOL    HW2 2282   1.340   0.312   1.183  1.7699 -0.3294  0.6800
  559SOL    HW3 2283   1.253   0.431   1.146  0.5794 -1.6756 -0.9519
  559SOL    MW4 2284   1.331   0.393   1.150  1.0538 -0.6481  0.0726
  560SOL     OW 2285   1.588   0.521   1.247  0.3989  0.0293 -0.6425
  560SOL    HW2 2286   1.574   0.607   1.207  0.8705 -0.2279 -1.3710
  560SOL    HW3 2287   1.514   0.468   1.218  1.0780 -0.3472 -1.7283
  560SOL    MW4 2288   1.577   0.526   1.238  0.5507 -0.0543 -0.8819
  561SOL     OW 2289   1.576   0.764   1.115 -0.1173  0.5538 -0.8709
  561SOL    HW2 2290   1.659   0.802   1.146 -0.8453  0.8768  0.7463
  561SOL    HW3 2291   1.581   0.770   1.020  1.1920  1.7105 -0.7492
  561SOL    MW4 2292   1.588   0.770   1.107 -0.0407  0.7491 -0.6415
  562SOL     OW 2293   1.356   0.897   1.228  0.0415  0.0237  0.1001
  562SOL    HW2 2294   1.430   0.859   1.181 -0.9130 -2.7590  0.8016
  562SOL    HW3 2295   1.278   0.862   1.185 -0.9123  2.0231  0.0912
  562SOL    MW4 2296   1.355   0.888   1.216 -0.2104 -0.0796  0.1915
  563SOL     OW 2297   1.323   1.182   1.112  0.1347  0.0137 -0.4293
  563SOL    HW2 2298   1.317   1.101   1.163 -2.0653  0.3063 -0.1768
  563SOL    HW3 2299   1.349   1.153   1.024 -0.7693 -1.0014 -0.3747
  563SOL    MW4 2300   1.325   1.167   1.107 -0.2748 -0.0817 -0.3886
  564SOL     OW 2301   1.535   1.304   1.227 -0.6337 -0.4335 -0.1973
  564SOL    HW2 2302   1.607   1.253   1.189 -0.3623  0.5433 -0.9981
  564SOL    HW3 2303   1.456   1.262   1.193 -0.3905  0.3571 -1.7314
  564SOL    MW4 2304   1.534   1.292   1.218 -0.5658 -0.2003 -0.5053
  565SOL     OW 2305   1.610   1.547   1.091 -0.2380  0.1076 -0.9022
  565SOL    HW2 2306   1.675   1.587   1.148 -1.1927 -0.0443  0.3095
  565SOL    HW3 2307   1.592   1.462   1.131 -3.4270  1.3883  0.4954
  565SOL    MW4 2308   1.616   1.541   1.103 -0.7848  0.2565 -0.5579
  566SOL     OW 2309   1.369   1.648   1.197  0.3034  0.1980  0.0708
  566SOL    HW2 2310   1.445   1.618   1.147 -0.4581 -0.4670 -0.7013
  566SOL    HW3 2311   1.294   1.625   1.143 -0.4440  1.0046  0.7520
  566SOL    MW4 2312   1.369   1.641   1.184  0.1042  0.2167  0.0588
  567SOL     OW 2313   1.369   1.929   1.120  0.4693 -0.0501  0.8511
  567SOL    HW2 2314   1.388   1.841   1.153 -0.0451 -0.0457  1.1575
  567SOL    HW3 2315   1.292   1.957   1.169  1.1793  0.9407  1.4180
  567SOL    MW4 2316   1.361   1.921   1.131  0.4951  0.0812  0.9663
  568SOL     OW 2317   1.590   2.082   1.217  0.3675 -0.2470 -0.0916
  568SOL    HW2 2318   1.582   2.174   1.193  0.7460 -0.5655 -1.4698
  568SOL    HW3 2319   1.518   2.038   1.171  0.3734 -0.6802  0.3066
  568SOL    MW4 2320   1.580   2.088   1.208  0.4182 -0.3462 -0.2210
  569SOL     OW 2321   1.551   2.334   1.118  0.7808 -0.3327  0.0156
  569SOL    HW2 2322   1.462   2.354   1.147  0.9721  1.2560 -0.4176
  569SOL    HW3 2323   1.545   2.324   1.023  0.6983 -2.4375  0.2164
  569SOL    MW4 2324   1.539   2.335   1.110  0.7951 -0.4008 -0.0151
  570SOL     OW 2325   1.311   2.440   1.198  0.2003  0.4048 -0.2574
  570SOL    HW2 2326   1.312   2.454   1.293 -0.4260 -0.0047 -0.1902
  570SOL    HW3 2327   1.318   2.528   1.160  2.1514  0.4649  0.1620
  570SOL    MW4 2328   1.312   2.454   1.205  0.3752  0.3586 -0.1931
  571SOL     OW 2329   1.350   2.729   1.136  0.0408 -0.2113  0.3626
  571SOL    HW2 2330   1.423   2.782   1.166  0.1023 -0.0356 -0.1060
  571SOL    HW3 2331   1.272   2.779   1.161  0.0921 -0.0435  0.1827
  571SOL    MW4 2332   1.349   2.742   1.144  0.0558 -0.1662  0.2770
  572SOL     OW 2333   1.577   2.862   1.197  0.0062 -0.4314  0.2171
  572SOL    HW2 2334   1.654   2.813   1.168  0.7286  1.0377 -0.3943
  572SOL    HW3 2335   1.597   2.953   1.176 -1.4205  0.1089  1.1085
  572SOL    MW4 2336   1.590   2.867   1.191 -0.0867 -0.1664  0.2542
  573SOL     OW 2337   1.640   3.129   1.122 -0.2005  0.0089  0.2488
  573SOL    HW2 2338   1.714   3.178   1.157 -0.1261  1.4313 -1.8078
  573SOL    HW3 2339   1.563   3.180   1.146 -0.4162 -0.7718  1.2341
  573SOL    MW4 2340   1.639   3.142   1.130 -0.2190  0.0935  0.1074
  574SOL     OW 2341   1.390   3.248   1.188 -0.0175 -0.2894  0.3238
  574SOL    HW2 2342   1.387   3.247   1.283 -2.3151  2.9760  0.3766
  574SOL    HW3 2343   1.320   3.190   1.160  0.4026 -0.9398  0.6346
  574SOL    MW4 2344   1.381   3.241   1.197 -0.2651  0.0556  0.3717
  575SOL     OW 2345   1.374   3.507   1.108 -0.1075  0.1808  0.3658
  575SOL    HW2 2346   1.375   3.413   1.122 -0.9854  0.2121  0.6617
  575SOL    HW3 2347   1.375   3.517   1.013  0.1941 -0.1218  0.3365
  575SOL    MW4 2348   1.374   3.496   1.097 -0.1835  0.1450  0.4009
  576SOL     OW 2349   1.594   3.646   1.231  0.4548  0.2346 -0.0503
  576SOL    HW2 2350   1.592   3.731   1.186  1.3807  0.1608 -0.2434
  576SOL    HW3 2351   1.518   3.599   1.195  0.0296  0.9197 -0.0592
  576SOL    MW4 2352   1.584   3.651   1.220  0.5207  0.3154 -0.0770
  577SOL     OW 2353   1.552   3.896   1.116  0.0170 -0.3445 -0.3519
  577SOL    HW2 2354   1.480   3.942   1.158 -0.0338  0.4354 -1.2558
  577SOL    HW3 2355   1.520   3.876   1.028  0.5136 -0.9515 -0.4005
  577SOL    MW4 2356   1.538   3.899   1.110  0.0757 -0.3214 -0.4776
  578SOL     OW 2357   1.304   4.008   1.216 -0.2981 -0.1974 -0.0359
  578SOL    HW2 2358   1.323   4.093   1.176  1.4359 -0.6893 -0.3088
  578SOL    HW3 2359   1.240   3.968   1.157  0.2794  0.1588 -0.9110
  578SOL    MW4 2360   1.298   4.014   1.203  0.0069 -0.2151 -0.1873
  579SOL     OW 2361   1.369   4.243   1.079  0.3225  0.0908 -0.2266
  579SOL    HW2 2362   1.291   4.283   1.119 -0.0094 -2.1050  1.4258
  579SOL    HW3 2363   1.348   4.237   0.986 -1.3271 -0.1236  0.1439
  579SOL    MW4 2364   1.355   4.248   1.072  0.0610 -0.2275  0.0403
  580SOL     OW 2365   1.548   4.433   1.192  0.4671 -0.6966  0.7007
  580SOL    HW2 2366   1.542   4.436   1.287 -1.8582  0.8274  0.5359
  580SOL    HW3 2367   1.496   4.357   1.167 -0.7411  0.1807  0.5245
  580SOL    MW4 2368   1.541   4.423   1.201  0.0008 -0.3800  0.6558
  581SOL     OW 2369   1.996   0.002   1.122  0.2485 -0.3915  0.1005
  581SOL    HW2 2370   2.006  -0.088   1.153 -1.6674 -0.8574 -0.5445
  581SOL    HW3 2371   1.991  -0.006   1.027 -1.1573  0.2298  0.0993
  581SOL    MW4 2372   1.996  -0.011   1.114 -0.1897 -0.3710  0.0153
  582SOL     OW 2373   1.756   0.109   1.217 -0.1749 -0.1355  0.3418
  582SOL    HW2 2374   1.772   0.203   1.203  1.6999 -0.0061  2.9746
  582SOL    HW3 2375   1.833   0.066   1.180 -0.4754 -0.5573  0.2052
  582SOL    MW4 2376   1.769   0.116   1.210  0.0329 -0.1741  0.6711
  583SOL     OW 2377   1.794   0.379   1.144  0.4722  0.3890 -0.4126
  583SOL    HW2 2378   1.717   0.436   1.143  0.4006  0.3007 -0.1050
  583SOL    HW3 2379   1.823   0.375   1.053  0.4682  0.9069 -0.4349
  583SOL    MW4 2380   1.787   0.386   1.132  0.4622  0.4457 -0.3750
  584SOL     OW 2381   2.009   0.508   1.234 -0.1162 -0.1467 -0.3420
  584SOL    HW2 2382   1.996   0.532   1.325 -0.1860 -0.1239 -0.3582
  584SOL    HW3 2383   1.933   0.454   1.212 -0.0716 -0.1984 -0.3701
  584SOL    MW4 2384   1.998   0.504   1.243 -0.1198 -0.1505 -0.3479
  585SOL     OW 2385   2.008   0.767   1.123  0.0573  0.0659 -0.4340
  585SOL    HW2 2386   2.015   0.674   1.145 -1.7931  0.2726  1.2248
  585SOL    HW3 2387   1.988   0.768   1.029  0.2370 -1.2039 -0.4967
  585SOL    MW4 2388   2.006   0.755   1.114 -0.1633 -0.0744 -0.2234
  586SOL     OW 2389   1.796   0.922   1.218  0.5155  0.0292  0.3268
  586SOL    HW2 2390   1.793   0.931   1.314  1.2662  0.9105  0.2732
  586SOL    HW3 2391   1.878   0.876   1.200  0.5189  0.1299  0.0859
  586SOL    MW4 2392   1.806   0.917   1.228  0.6150  0.1588  0.2880
  587SOL     OW 2393   1.769   1.193   1.144 -0.1083  0.3427  0.1363
  587SOL    HW2 2394   1.784   1.106   1.182  0.8785  0.7595  0.7250
  587SOL    HW3 2395   1.777   1.179   1.050  0.4131 -0.1464  0.2461
  587SOL    MW4 2396   1.772   1.179   1.137  0.0907  0.3332  0.2284
  588SOL     OW 2397   2.000   1.309   1.238  0.1913  0.1714 -0.3872
  588SOL    HW2 2398   2.073   1.253   1.211  1.4944  0.9650  1.3634
  588SOL    HW3 2399   1.922   1.264   1.205  1.3261 -1.8059 -0.4656
  588SOL    MW4 2400   1.999   1.296   1.230  0.5131  0.0153 -0.1667
  589SOL     OW 2401   2.044   1.528   1.102 -0.5438 -0.5306  0.2571
  589SOL    HW2 2402   2.030   1.441   1.139  0.7781 -0.1819  1.6057
  589SOL    HW3 2403   2.039   1.515   1.007 -0.6241 -2.0148  0.4638
  589SOL    MW4 2404   2.041   1.515   1.094 -0.3805 -0.6803  0.4622
  590SOL     OW 2405   1.842   1.635   1.257 -0.1879  0.0442 -0.3462
  590SOL    HW2 2406   1.854   1.725   1.228  1.6807 -0.3614 -0.9309
  590SOL    HW3 2407   1.915   1.587   1.217 -1.5565 -1.8650 -0.6440
  590SOL    MW4 2408   1.853   1.640   1.248 -0.1221 -0.2612 -0.4627
  591SOL     OW 2409   1.835   1.927   1.148 -0.3262 -0.2150 -0.0418
  591SOL    HW2 2410   1.750   1.966   1.169  0.4268  0.7924  1.1472
  591SOL    HW3 2411   1.846   1.944   1.054 -2.0660 -1.6051 -0.5478
  591SOL    MW4 2412   1.825   1.934   1.138 -0.4565 -0.2655  0.0484
  592SOL     OW 2413   2.034   2.096   1.252 -0.5476 -0.3828  0.0916
  592SOL    HW2 2414   2.025   2.088   1.347 -0.2449  0.5235  0.2033
  592SOL    HW3 2415   1.963   2.042   1.216 -1.7650  0.6765  0.8547
  592SOL    MW4 2416   2.023   2.088   1.260 -0.6683 -0.1233  0.2069
  593SOL     OW 2417   2.003   2.345   1.114 -0.0621 -0.3298  0.2867
  593SOL    HW2 2418   2.081   2.395   1.139 -0.5337  0.0616  0.9682
  593SOL    HW3 2419   2.010   2.264   1.165  0.6492 -0.9437 -0.7421
  593SOL    MW4 2420   2.014   2.341   1.124 -0.0303 -0.3593  0.2409
  594SOL     OW 2421   1.767   2.460   1.220  0.2980 -0.1622  0.3431
  594SOL    HW2 2422   1.844   2.422   1.179  0.7349  0.3720  0.6617
  594SOL    HW3 2423   1.694   2.409   1.186  0.8548 -1.1480  0.6049
  594SOL    MW4 2424   1.767   2.449   1.210  0.4290 -0.2215  0.4196
  595SOL     OW 2425   1.799   2.722   1.146 -0.0796  0.2746  0.1130
  595SOL    HW2 2426   1.779   2.635   1.181 -0.2862  0.3659  0.2274
  595SOL    HW3 2427   1.808   2.710   1.052 -0.8371  0.2567  0.0393
  595SOL    MW4 2428   1.797   2.709   1.139 -0.2068  0.2844  0.1185
  596SOL     OW 2429   2.031   2.856   1.188 -0.5456  0.5212 -0.5451
  596SOL    HW2 2430   2.043   2.945   1.156 -1.6136  0.7383 -0.3674
  596SOL    HW3 2431   1.943   2.831   1.158  0.2978 -1.0133 -1.8478
  596SOL    MW4 2432   2.021   2.864   1.180 -0.5751  0.3479 -0.6936
  597SOL     OW 2433   2.085   3.114   1.088  0.0780 -0.0394 -0.0091
  597SOL    HW2 2434   2.017   3.173   1.121 -0.8505 -0.5621 -0.9569
  597SOL    HW3 2435   2.077   3.119   0.993  1.4910  0.0277 -0.1307
  597SOL    MW4 2436   2.075   3.123   1.080  0.1421 -0.0992 -0.1502
  598SOL     OW 2437   1.879   3.253   1.195  0.3246 -0.2415  0.1345
  598SOL    HW2 2438   1.846   3.250   1.285 -1.2899  0.4561 -0.4180
  598SOL    HW3 2439   1.845   3.335   1.159  2.4031  0.3311 -0.5714
  598SOL    MW4 2440   1.870   3.263   1.202  0.3859 -0.0739 -0.0315
  599SOL     OW 2441   1.796   3.520   1.103  0.0349  0.6224 -0.1202
  599SOL    HW2 2442   1.875   3.551   1.148 -0.0232  1.1897 -0.4070
  599SOL    HW3 2443   1.724   3.563   1.149 -0.0015  1.5136 -1.0055
  599SOL    MW4 2444   1.797   3.529   1.115  0.0224  0.8149 -0.2749
  600SOL     OW 2445   2.037   3.608   1.227  0.5559  0.2020 -0.5526
  600SOL    HW2 2446   2.034   3.630   1.320  1.7274  0.0282 -0.4705
  600SOL    HW3 2447   2.118   3.558   1.216 -0.5993 -1.5436 -1.2910
  600SOL    MW4 2448   2.047   3.604   1.238  0.5581 -0.0513 -0.6392
  601SOL     OW 2449   2.011   3.895   1.139 -0.2324  0.0134  0.2358
  601SOL    HW2 2450   1.924   3.930   1.159 -0.3666 -0.7968  1.1044
  601SOL    HW3 2451   2.011   3.807   1.175  0.5317 -0.4490 -0.8605
  601SOL    MW4 2452   2.000   3.888   1.146 -0.1495 -0.1545  0.2058
  602SOL     OW 2453   1.765   4.045   1.190  0.1880  0.2532  0.3245
  602SOL    HW2 2454   1.754   4.023   1.282  1.3147  0.5743  0.5499
  602SOL    HW3 2455   1.694   4.000   1.145  0.5995 -1.2586  1.1573
  602SOL    MW4 2456   1.754   4.036   1.196  0.3909  0.0954  0.4642
  603SOL     OW 2457   1.780   4.317   1.142 -0.0915  0.1722  0.3516
  603SOL    HW2 2458   1.758   4.229   1.172  0.2227  0.6919  2.2243
  603SOL    HW3 2459   1.704   4.370   1.167 -0.3053  0.4155 -0.8233
  603SOL    MW4 2460   1.767   4.313   1.150 -0.0782  0.2723  0.4438
  604SOL     OW 2461   2.030   4.418   1.244  0.1418 -0.2422 -0.2288
  604SOL    HW2 2462   2.026   4.416   1.340 -0.2308  2.0960 -0.1545
  604SOL    HW3 2463   1.951   4.373   1.216  0.2575 -0.9526  0.5459
  604SOL    MW4 2464   2.019   4.412   1.253  0.1080 -0.0277 -0.1167
  605SOL     OW 2465   2.463   0.024   1.150  0.2770 -0.2301 -0.2200
  605SOL    HW2 2466   2.524   0.069   1.209 -0.7647 -0.5942  1.1639
  605SOL    HW3 2467   2.377   0.061   1.172 -0.2833 -1.2450 -0.6808
  605SOL    MW4 2468   2.460   0.035   1.161  0.0656 -0.4120 -0.0983
  606SOL     OW 2469   2.222   0.142   1.233  0.1949 -0.2660  0.0838
  606SOL    HW2 2470   2.225   0.229   1.192 -0.2064  0.5071  1.6235
  606SOL    HW3 2471   2.145   0.100   1.194  0.9944 -0.3417 -1.4409
  606SOL    MW4 2472   2.212   0.148   1.222  0.2472 -0.1740  0.0859
  607SOL     OW 2473   2.243   0.386   1.126 -0.4614 -0.2692 -0.2562
  607SOL    HW2 2474   2.163   0.421   1.165  0.4329  1.2622  0.2334
  607SOL    HW3 2475   2.218   0.364   1.036 -1.6195 -0.5494  0.1141
  607SOL    MW4 2476   2.229   0.387   1.119 -0.4961 -0.1042 -0.1427
  608SOL     OW 2477   2.460   0.538   1.249 -0.0563  0.3144 -0.3304
  608SOL    HW2 2478   2.467   0.521   1.343  0.1922 -0.8267 -0.5555
  608SOL    HW3 2479   2.374   0.502   1.225 -0.1150  0.5980 -0.5500
  608SOL    MW4 2480   2.449   0.531   1.258 -0.0312  0.2013 -0.3891
  609SOL     OW 2481   2.480   0.789   1.145 -0.1254 -0.2736  0.1144
  609SOL    HW2 2482   2.458   0.701   1.174 -0.8051 -1.1679 -2.9279
  609SOL    HW3 2483   2.469   0.786   1.050 -1.2973  3.3955  0.0575
  609SOL    MW4 2484   2.476   0.777   1.137 -0.3695  0.0925 -0.2946
  610SOL     OW 2485   2.230   0.898   1.245  0.0097  0.0569 -0.0871
  610SOL    HW2 2486   2.315   0.862   1.218 -0.2907  0.8699 -2.2505
  610SOL    HW3 2487   2.167   0.859   1.184 -0.8520  1.2227  0.0449
  610SOL    MW4 2488   2.233   0.888   1.233 -0.1435  0.3180 -0.3551
  611SOL     OW 2489   2.210   1.154   1.167  0.3948  0.1433 -0.3987
  611SOL    HW2 2490   2.285   1.203   1.199 -1.0007  0.4444  2.5233
  611SOL    HW3 2491   2.227   1.064   1.195  0.1895  0.0187 -0.6761
  611SOL    MW4 2492   2.222   1.149   1.175  0.1833  0.1665 -0.0498
  612SOL     OW 2493   2.433   1.302   1.245  0.0855  0.0590 -0.4074
  612SOL    HW2 2494   2.515   1.258   1.221  0.0858 -0.4406  0.4943
  612SOL    HW3 2495   2.438   1.386   1.200  1.2348  0.1516 -0.1355
  612SOL    MW4 2496   2.445   1.307   1.236  0.2370  0.0052 -0.2526
  613SOL     OW 2497   2.466   1.538   1.116 -0.3649  0.1014  0.6334
  613SOL    HW2 2498   2.389   1.588   1.144  0.3113 -0.2678  3.3844
  613SOL    HW3 2499   2.457   1.529   1.022 -3.4914  0.4089  0.8639
  613SOL    MW4 2500   2.455   1.544   1.108 -0.6881  0.0932  1.0266
  614SOL     OW 2501   2.238   1.682   1.229  0.2951 -0.0817  0.4546
  614SOL    HW2 2502   2.231   1.773   1.202  0.6357 -0.8161 -2.2164
  614SOL    HW3 2503   2.157   1.642   1.199  0.6704 -0.9218  0.5417
  614SOL    MW4 2504   2.226   1.688   1.221  0.3896 -0.2894  0.1136
  615SOL     OW 2505   2.242   1.949   1.142 -0.3213  0.2994  0.1306
  615SOL    HW2 2506   2.166   2.000   1.170 -0.9160 -0.9267  0.8132
  615SOL    HW3 2507   2.224   1.927   1.051 -1.2004 -0.6955  0.5300
  615SOL    MW4 2508   2.229   1.953   1.134 -0.5157  0.0062  0.2733
  616SOL     OW 2509   2.493   2.040   1.214 -0.0553 -0.2669  0.4202
  616SOL    HW2 2510   2.562   1.992   1.168 -0.6701 -1.1047  0.3667
  616SOL    HW3 2511   2.414   1.988   1.200 -0.6936  0.6687  0.5178
  616SOL    MW4 2512   2.492   2.027   1.206 -0.2205 -0.2544  0.4261
  617SOL     OW 2513   2.473   2.323   1.150  0.7130  0.0822  0.7216
  617SOL    HW2 2514   2.472   2.229   1.167 -1.0717 -0.2631 -1.0424
  617SOL    HW3 2515   2.450   2.330   1.057 -0.2241  2.2986  1.0989
  617SOL    MW4 2516   2.469   2.311   1.140  0.3538  0.3293  0.5386
  618SOL     OW 2517   2.236   2.462   1.213 -0.1891  0.5721  0.0664
  618SOL    HW2 2518   2.229   2.456   1.308  0.9550 -1.3509  0.0718
  618SOL    HW3 2519   2.322   2.424   1.193 -0.5104  0.7355 -1.7496
  618SOL    MW4 2520   2.247   2.456   1.223 -0.0808  0.3402 -0.1725
  619SOL     OW 2521   2.272   2.726   1.156 -0.3504 -0.4861  0.2352
  619SOL    HW2 2522   2.258   2.635   1.182 -0.4130 -0.5874 -0.1469
  619SOL    HW3 2523   2.185   2.766   1.157 -0.3815 -0.5444 -0.0129
  619SOL    MW4 2524   2.259   2.719   1.159 -0.3629 -0.5074  0.1521
  620SOL     OW 2525   2.525   2.822   1.245 -0.4348  0.2997 -0.0397
  620SOL    HW2 2526   2.517   2.837   1.339 -0.7822  0.4672 -0.0931
  620SOL    HW3 2527   2.447   2.771   1.222 -0.0390 -0.2610 -0.1286
  620SOL    MW4 2528   2.513   2.818   1.254 -0.4284  0.2480 -0.0583
  621SOL     OW 2529   2.516   3.082   1.136 -0.7485  0.1308 -0.5728
  621SOL    HW2 2530   2.440   3.123   1.176 -0.3771 -0.2366  0.5423
  621SOL    HW3 2531   2.510   2.990   1.162 -0.8961 -0.2817 -1.9976
  621SOL    MW4 2532   2.505   3.075   1.145 -0.7191  0.0279 -0.6136
  622SOL     OW 2533   2.294   3.182   1.264  0.6451  0.1632 -0.0109
  622SOL    HW2 2534   2.302   3.277   1.257 -0.4411  0.4230  1.9885
  622SOL    HW3 2535   2.237   3.157   1.192  0.3674  1.0995 -0.1201
  622SOL    MW4 2536   2.288   3.191   1.253  0.4649  0.3209  0.2385
  623SOL     OW 2537   2.266   3.465   1.191 -0.0538 -0.0713  0.2648
  623SOL    HW2 2538   2.334   3.527   1.213 -0.5033  0.3301  0.5344
  623SOL    HW3 2539   2.256   3.472   1.096 -1.2817  1.5028  0.4998
  623SOL    MW4 2540   2.273   3.474   1.181 -0.2749  0.1893  0.3314
  624SOL     OW 2541   2.447   3.662   1.252 -0.2343  0.3831  0.3570
  624SOL    HW2 2542   2.418   3.679   1.342  0.5168  0.5344  0.5767
  624SOL    HW3 2543   2.463   3.749   1.216  0.0009  0.3035  0.2651
  624SOL    MW4 2544   2.446   3.676   1.259 -0.1047  0.3924  0.3738
  625SOL     OW 2545   2.466   3.908   1.154 -0.4288 -0.3938 -0.3193
  625SOL    HW2 2546   2.387   3.953   1.183 -0.8265 -0.1451 -1.7414
  625SOL    HW3 2547   2.451   3.892   1.061  1.1200 -0.5201 -0.5534
  625SOL    MW4 2548   2.453   3.912   1.145 -0.2770 -0.3777 -0.5378
  626SOL     OW 2549   2.239   4.019   1.264  0.3271 -0.1543 -0.2042
  626SOL    HW2 2550   2.240   4.113   1.250 -1.4916 -0.0707  0.0878
  626SOL    HW3 2551   2.168   3.987   1.207 -0.0658 -1.1473  0.8186
  626SOL    MW4 2552   2.230   4.027   1.255  0.0355 -0.2742 -0.0308
  627SOL     OW 2553   2.253   4.278   1.165  0.1123 -0.0017 -0.5852
  627SOL    HW2 2554   2.178   4.334   1.185 -0.2561 -1.6078  2.8146
  627SOL    HW3 2555   2.231   4.237   1.081 -2.0043  0.8766 -0.4712
  627SOL    MW4 2556   2.240   4.280   1.156 -0.2158 -0.0973 -0.1216
  628SOL     OW 2557   2.482   4.429   1.211 -0.5097 -0.2689  0.3737
  628SOL    HW2 2558   2.400   4.382   1.196 -0.6916  1.0145 -3.0282
  628SOL    HW3 2559   2.460   4.521   1.195  1.1121  0.3475  1.5502
  628SOL    MW4 2560   2.468   4.435   1.207 -0.3197 -0.0176  0.0801
  629SOL     OW 2561   2.888   0.031   1.149  0.0334  0.0126  0.1644
  629SOL    HW2 2562   2.888  -0.059   1.181 -2.2173 -0.4753 -1.1226
  629SOL    HW3 2563   2.868   0.023   1.056  0.5118  1.8105 -0.1088
  629SOL    MW4 2564   2.885   0.018   1.141 -0.2003  0.1854 -0.0415
  630SOL     OW 2565   2.667   0.139   1.275  0.0264  0.6224  0.3073
  630SOL    HW2 2566   2.657   0.113   1.367  0.2098  0.9356  0.4190
  630SOL    HW3 2567   2.748   0.095   1.247  1.3245  2.4805  1.0244
  630SOL    MW4 2568   2.677   0.130   1.283  0.2220  0.9089  0.4165
  631SOL     OW 2569   2.669   0.389   1.146 -0.3564  0.2055 -0.0075
  631SOL    HW2 2570   2.678   0.305   1.191 -0.2286  0.5468  0.6024
  631SOL    HW3 2571   2.584   0.422   1.173 -0.0630  0.6443  0.3724
  631SOL    MW4 2572   2.659   0.382   1.156 -0.3009  0.3085  0.1230
  632SOL     OW 2573   2.887   0.520   1.258 -0.3633  0.0009  0.4165
  632SOL    HW2 2574   2.894   0.608   1.221  1.0758 -0.3826 -0.2652
  632SOL    HW3 2575   2.823   0.476   1.203  2.2575 -0.7800 -2.1704
  632SOL    MW4 2576   2.880   0.526   1.246  0.1726 -0.1527 -0.0147
  633SOL     OW 2577   2.915   0.766   1.116 -0.4440 -0.2915  0.0642
  633SOL    HW2 2578   2.983   0.813   1.164 -1.1837  0.0668  0.7863
  633SOL    HW3 2579   2.835   0.816   1.134 -1.0223 -1.1218 -0.1758
  633SOL    MW4 2580   2.913   0.779   1.125 -0.6182 -0.3538  0.1279
  634SOL     OW 2581   2.715   0.898   1.245  0.2439  0.8642 -0.4019
  634SOL    HW2 2582   2.718   0.985   1.206  0.5659  0.7921 -0.5378
  634SOL    HW3 2583   2.636   0.858   1.208  0.3228  0.9439 -0.6588
  634SOL    MW4 2584   2.705   0.904   1.235  0.2968  0.8652 -0.4537
  635SOL     OW 2585   2.670   1.190   1.150 -0.1787  0.1984  0.8193
  635SOL    HW2 2586   2.759   1.218   1.170  0.0426  1.5601 -1.7517
  635SOL    HW3 2587   2.671   1.173   1.055 -2.4570 -0.4829  0.8805
  635SOL    MW4 2588   2.682   1.192   1.140 -0.4501  0.2881  0.4880
  636SOL     OW 2589   2.928   1.280   1.203  0.3787  0.2767 -0.1006
  636SOL    HW2 2590   2.928   1.273   1.299 -0.1564 -0.0331 -0.1202
  636SOL    HW3 2591   2.924   1.374   1.186 -1.2115  0.2786  0.1891
  636SOL    MW4 2592   2.928   1.291   1.213  0.0982  0.2360 -0.0650
  637SOL     OW 2593   2.880   1.549   1.135 -0.0815 -0.0556 -0.3294
  637SOL    HW2 2594   2.955   1.593   1.175  0.0590 -0.2541 -0.3753
  637SOL    HW3 2595   2.886   1.571   1.042  1.0365 -1.6833 -0.6539
  637SOL    MW4 2596   2.891   1.558   1.128  0.0844 -0.2966 -0.3783
  638SOL     OW 2597   2.671   1.677   1.244  0.0292  0.3997  0.1836
  638SOL    HW2 2598   2.742   1.632   1.197 -0.5121 -1.0008  0.6733
  638SOL    HW3 2599   2.591   1.639   1.208 -0.4448  0.8744  0.7213
  638SOL    MW4 2600   2.669   1.666   1.233 -0.1047  0.2774  0.3190
  639SOL     OW 2601   2.704   1.911   1.104  0.4969  0.1804  0.1517
  639SOL    HW2 2602   2.783   1.957   1.133  0.8845 -0.1556 -0.3382
  639SOL    HW3 2603   2.709   1.826   1.147 -0.1601  0.5491  0.9659
  639SOL    MW4 2604   2.715   1.906   1.113  0.4613  0.1848  0.1945
  640SOL     OW 2605   2.930   2.076   1.193  0.1873 -0.2459  0.1132
  640SOL    HW2 2606   2.930   2.075   1.289  1.4178  0.2123  0.1300
  640SOL    HW3 2607   2.931   2.169   1.170 -0.7064 -0.3427 -0.3624
  640SOL    MW4 2608   2.930   2.088   1.203  0.2317 -0.1981  0.0527
  641SOL     OW 2609   2.942   2.349   1.119  0.3036 -0.3530  0.0474
  641SOL    HW2 2610   3.010   2.408   1.153  0.4021 -1.3451  1.6445
  641SOL    HW3 2611   2.859   2.389   1.147  0.2974  0.0445 -0.5476
  641SOL    MW4 2612   2.940   2.362   1.127  0.3161 -0.4313  0.1795
  642SOL     OW 2613   2.711   2.439   1.220  0.6462  0.3423  0.1036
  642SOL    HW2 2614   2.703   2.435   1.316  0.4466 -0.8392  0.0461
  642SOL    HW3 2615   2.628   2.403   1.188  1.0075  0.0586 -0.5115
  642SOL    MW4 2616   2.699   2.434   1.229  0.6676  0.1488  0.0149
  643SOL     OW 2617   2.755   2.704   1.129  0.1368 -0.4191  0.1161
  643SOL    HW2 2618   2.739   2.610   1.136 -1.4484 -0.1403  0.4081
  643SOL    HW3 2619   2.692   2.744   1.189 -0.0496  0.8986 -0.9349
  643SOL    MW4 2620   2.745   2.697   1.138 -0.0968 -0.2084  0.0160
  644SOL     OW 2621   2.962   2.888   1.241  0.2485 -0.1360  0.0053
  644SOL    HW2 2622   2.962   2.873   1.336  0.4727 -0.8576 -0.1073
  644SOL    HW3 2623   2.895   2.829   1.207 -0.2039  0.5073 -0.2292
  644SOL    MW4 2624   2.954   2.878   1.249  0.2182 -0.1464 -0.0405
  645SOL     OW 2625   2.949   3.129   1.112  0.1443  0.4176 -0.2194
  645SOL    HW2 2626   2.962   3.050   1.164  0.2358  0.1108 -0.7093
  645SOL    HW3 2627   2.938   3.098   1.022  0.3342  0.9720 -0.4397
  645SOL    MW4 2628   2.949   3.115   1.107  0.1814  0.4504 -0.3129
  646SOL     OW 2629   2.718   3.254   1.238 -0.3506 -0.2574  0.5147
  646SOL    HW2 2630   2.801   3.218   1.206 -0.7282  0.1322 -0.9772
  646SOL    HW3 2631   2.652   3.193   1.205 -0.9455  1.4130 -1.4957
  646SOL    MW4 2632   2.721   3.241   1.229 -0.4790  0.0141  0.0526
  647SOL     OW 2633   2.672   3.526   1.155  0.5142  0.1317  0.2122
  647SOL    HW2 2634   2.683   3.436   1.186 -0.3535 -0.2825 -0.6432
  647SOL    HW3 2635   2.592   3.557   1.197  0.7497  0.4641  0.4153
  647SOL    MW4 2636   2.663   3.518   1.164  0.4311  0.1211  0.1261
  648SOL     OW 2637   2.872   3.653   1.284 -0.2681 -0.2197 -0.4507
  648SOL    HW2 2638   2.953   3.609   1.256 -0.7860 -0.2909 -1.8736
  648SOL    HW3 2639   2.803   3.607   1.237 -1.1044  0.0987  0.4677
  648SOL    MW4 2640   2.874   3.641   1.274 -0.4470 -0.1869 -0.5171
  649SOL     OW 2641   2.902   3.889   1.135 -0.2263  0.5202  0.1808
  649SOL    HW2 2642   2.971   3.944   1.172 -0.0402 -0.3293  1.1274
  649SOL    HW3 2643   2.891   3.819   1.199 -0.3167 -0.6645 -1.1121
  649SOL    MW4 2644   2.909   3.887   1.148 -0.2136  0.2518  0.1351
  650SOL     OW 2645   2.680   4.040   1.258 -0.7536 -0.3320  0.3506
  650SOL    HW2 2646   2.755   3.996   1.219 -0.2577 -1.1843  2.1958
  650SOL    HW3 2647   2.604   3.994   1.221 -0.4610  1.4546 -2.6050
  650SOL    MW4 2648   2.680   4.028   1.248 -0.6499 -0.2084  0.2041
  651SOL     OW 2649   2.697   4.273   1.117 -0.1463 -0.1951  0.1592
  651SOL    HW2 2650   2.690   4.191   1.167 -0.8244 -0.4323 -0.3307
  651SOL    HW3 2651   2.624   4.326   1.148 -0.5731 -0.3462 -0.5893
  651SOL    MW4 2652   2.687   4.269   1.128 -0.2921 -0.2456 -0.0042
  652SOL     OW 2653   2.889   4.440   1.218 -0.3832 -0.6207 -0.1160
  652SOL    HW2 2654   2.973   4.401   1.195 -0.6069 -0.8296 -0.5810
  652SOL    HW3 2655   2.824   4.378   1.185 -0.7222 -0.3704  0.0822
  652SOL    MW4 2656   2.891   4.427   1.210 -0.4575 -0.6156 -0.1513
  653SOL     OW 2657   3.348   0.026   1.102  0.3233  0.4854 -0.1554
  653SOL    HW2 2658   3.421   0.059   1.155  0.2177 -1.3777  1.1903
  653SOL    HW3 2659   3.270   0.053   1.151  0.2098 -0.6695  0.3088
  653SOL    MW4 2660   3.348   0.034   1.115  0.2947  0.0877  0.0836
  654SOL     OW 2661   3.114   0.137   1.224  0.1015 -0.3233  0.1303
  654SOL    HW2 2662   3.126   0.101   1.312  0.6472 -0.0591  0.1663
  654SOL    HW3 2663   3.038   0.091   1.190  0.2542 -0.8659  0.5150
  654SOL    MW4 2664   3.106   0.126   1.231  0.1936 -0.3600  0.1860
  655SOL     OW 2665   3.115   0.414   1.139  0.0075 -0.3627 -0.3028
  655SOL    HW2 2666   3.105   0.325   1.173  0.1335 -0.1966  0.1635
  655SOL    HW3 2667   3.034   0.459   1.163  0.8287  0.2726  1.3457
  655SOL    MW4 2668   3.103   0.408   1.147  0.1326 -0.2569 -0.0238
  656SOL     OW 2669   3.352   0.523   1.245  0.6186 -0.6723 -0.0760
  656SOL    HW2 2670   3.355   0.608   1.200  1.0200  0.6865  2.4251
  656SOL    HW3 2671   3.274   0.480   1.209 -0.6151  1.5180 -0.1144
  656SOL    MW4 2672   3.342   0.529   1.234  0.5085 -0.2040  0.2489
  657SOL     OW 2673   3.337   0.761   1.111 -0.0912 -0.3274 -0.1428
  657SOL    HW2 2674   3.262   0.802   1.153 -1.2968  0.0667 -2.5728
  657SOL    HW3 2675   3.310   0.750   1.020  2.8215 -0.1500 -1.0765
  657SOL    MW4 2676   3.323   0.765   1.104  0.1342 -0.2519 -0.5866
  658SOL     OW 2677   3.111   0.896   1.253 -0.2133 -0.3242 -0.0682
  658SOL    HW2 2678   3.120   0.904   1.348 -0.4422  0.0118 -0.0725
  658SOL    HW3 2679   3.116   0.987   1.222  0.1666 -0.4587 -0.4023
  658SOL    MW4 2680   3.113   0.909   1.261 -0.1936 -0.2976 -0.1129
  659SOL     OW 2681   3.150   1.146   1.114  0.3117 -0.3800  0.0154
  659SOL    HW2 2682   3.225   1.177   1.165 -0.5769 -1.3323  1.9584
  659SOL    HW3 2683   3.075   1.194   1.150 -0.5784 -2.3357  0.8613
  659SOL    MW4 2684   3.150   1.156   1.126  0.0770 -0.7637  0.3834
  660SOL     OW 2685   3.348   1.256   1.269  0.2073  0.2185 -0.2742
  660SOL    HW2 2686   3.349   1.245   1.364 -1.2128 -0.4002 -0.3127
  660SOL    HW3 2687   3.354   1.350   1.255 -0.8337  0.4013  0.4644
  660SOL    MW4 2688   3.349   1.267   1.280 -0.1173  0.1609 -0.1820
  661SOL     OW 2689   3.370   1.497   1.131 -0.3640 -0.1315 -0.3564
  661SOL    HW2 2690   3.439   1.555   1.163  0.0652 -1.4025  1.0938
  661SOL    HW3 2691   3.288   1.543   1.150 -0.0214  0.0699  0.6553
  661SOL    MW4 2692   3.368   1.511   1.138 -0.2620 -0.2728 -0.0316
  662SOL     OW 2693   3.139   1.654   1.214 -0.0626  0.0356  0.0162
  662SOL    HW2 2694   3.145   1.650   1.310 -0.6017  0.8071  0.0883
  662SOL    HW3 2695   3.144   1.748   1.194  1.8272 -0.2190 -0.8291
  662SOL    MW4 2696   3.141   1.666   1.224  0.1156  0.1037 -0.0857
  663SOL     OW 2697   3.142   1.919   1.112 -0.0390 -0.1324  0.1610
  663SOL    HW2 2698   3.216   1.967   1.150  1.1466 -1.6065 -0.2318
  663SOL    HW3 2699   3.066   1.975   1.129  1.0593  1.0995  1.1644
  663SOL    MW4 2700   3.142   1.932   1.120  0.2620 -0.1643  0.2415
  664SOL     OW 2701   3.364   2.072   1.239 -0.0842 -0.2827  0.6718
  664SOL    HW2 2702   3.444   2.027   1.210 -0.3591  0.1774 -0.8198
  664SOL    HW3 2703   3.367   2.157   1.195 -2.7909 -1.3308 -1.6033
  664SOL    MW4 2704   3.375   2.077   1.229 -0.4776 -0.3603  0.1749
  665SOL     OW 2705   3.381   2.323   1.130  0.0369  0.3723  0.3856
  665SOL    HW2 2706   3.456   2.365   1.172 -0.0823  1.9409 -0.9336
  665SOL    HW3 2707   3.306   2.375   1.160 -0.1484  0.9087 -0.9862
  665SOL    MW4 2708   3.381   2.335   1.140 -0.0031  0.6502  0.0306
  666SOL     OW 2709   3.161   2.475   1.225 -0.2788  0.1311  0.0678
  666SOL    HW2 2710   3.154   2.475   1.321  0.7943 -0.8338  0.1641
  666SOL    HW3 2711   3.175   2.567   1.202  0.2857  0.2656  0.9130
  666SOL    MW4 2712   3.162   2.487   1.235 -0.0627  0.0215  0.1919
  667SOL     OW 2713   3.195   2.752   1.136 -0.4656  0.2211 -0.6533
  667SOL    HW2 2714   3.115   2.801   1.156 -0.6731 -0.0837 -0.7406
  667SOL    HW3 2715   3.185   2.726   1.044 -1.3472 -1.8458 -0.0036
  667SOL    MW4 2716   3.183   2.755   1.126 -0.6089 -0.0918 -0.5790
  668SOL     OW 2717   3.430   2.880   1.236 -0.3474 -0.7186  0.1697
  668SOL    HW2 2718   3.429   2.959   1.182  0.6982 -0.1319  0.9941
  668SOL    HW3 2719   3.348   2.835   1.215 -0.7473  0.3720 -0.6169
  668SOL    MW4 2720   3.419   2.884   1.226 -0.2620 -0.4973  0.1746
  669SOL     OW 2721   3.425   3.122   1.066  0.1001  0.6130 -0.1619
  669SOL    HW2 2722   3.494   3.170   1.112  0.1637 -0.4951  0.9472
  669SOL    HW3 2723   3.344   3.155   1.103  0.1380  0.0599  0.4446
  669SOL    MW4 2724   3.424   3.133   1.077  0.1135  0.3941  0.0645
  670SOL     OW 2725   3.201   3.258   1.174 -0.1552 -0.3438  0.0800
  670SOL    HW2 2726   3.173   3.350   1.179 -0.5522 -0.4125 -0.7367
  670SOL    HW3 2727   3.122   3.211   1.147  0.1272 -0.8840  0.1871
  670SOL    MW4 2728   3.187   3.264   1.171 -0.1702 -0.4241 -0.0137
  671SOL     OW 2729   3.104   3.517   1.167 -0.4923  0.3286 -0.7266
  671SOL    HW2 2730   3.192   3.548   1.188 -0.5144 -0.2122  0.2341
  671SOL    HW3 2731   3.097   3.525   1.072  1.0707 -0.8376 -0.9742
  671SOL    MW4 2732   3.115   3.522   1.158 -0.2887  0.1037 -0.6326
  672SOL     OW 2733   3.368   3.640   1.248  0.1536  0.0894  0.4219
  672SOL    HW2 2734   3.373   3.631   1.343  1.1282 -1.1001  0.2733
  672SOL    HW3 2735   3.447   3.597   1.216 -0.9657 -0.9678 -0.9978
  672SOL    MW4 2736   3.379   3.633   1.256  0.1345 -0.2067  0.2151
  673SOL     OW 2737   3.346   3.915   1.170  0.3524  0.3037  0.1189
  673SOL    HW2 2738   3.272   3.961   1.210 -1.2143 -0.5708 -1.6610
  673SOL    HW3 2739   3.338   3.825   1.202  0.2631  0.0612 -0.5760
  673SOL    MW4 2740   3.335   3.909   1.179  0.1340  0.1562 -0.2075
  674SOL     OW 2741   3.110   4.038   1.271 -0.1377 -0.4437  0.1558
  674SOL    HW2 2742   3.115   4.019   1.365 -0.9902  0.4942  0.3995
  674SOL    HW3 2743   3.105   4.133   1.266 -0.1214 -0.4909 -0.8495
  674SOL    MW4 2744   3.110   4.048   1.283 -0.2482 -0.3257  0.0553
  675SOL     OW 2745   3.128   4.303   1.139  0.0537 -0.1735 -0.2994
  675SOL    HW2 2746   3.216   4.323   1.169  0.0180  0.7218 -0.7756
  675SOL    HW3 2747   3.133   4.306   1.044 -0.3826 -0.6059 -0.3405
  675SOL    MW4 2748   3.140   4.306   1.130 -0.0086 -0.1125 -0.3675
  676SOL     OW 2749   3.367   4.442   1.208  0.1996  0.2284 -0.7011
  676SOL    HW2 2750   3.449   4.409   1.172 -0.1086 -0.6691 -0.5937
  676SOL    HW3 2751   3.354   4.526   1.165  0.6975 -0.0519 -1.4068
  676SOL    MW4 2752   3.376   4.449   1.198  0.2244  0.0730 -0.7799
  677SOL     OW 2753   3.851   0.009   1.170 -0.0200  0.1216  0.0768
  677SOL    HW2 2754   3.865  -0.082   1.198 -0.0366  0.0421 -0.1692
  677SOL    HW3 2755   3.820   0.001   1.080 -2.5448  0.2589  0.9021
  677SOL    MW4 2756   3.849  -0.004   1.162 -0.3552  0.1292  0.1533
  678SOL     OW 2757   3.594   0.089   1.226  0.8528  0.2069  0.1859
  678SOL    HW2 2758   3.589   0.181   1.202  0.9774  0.0949 -0.2595
  678SOL    HW3 2759   3.687   0.067   1.219  0.4703 -0.7072 -2.5040
  678SOL    MW4 2760   3.606   0.098   1.222  0.8187  0.0715 -0.2278
  679SOL     OW 2761   3.574   0.364   1.190  0.1096  0.3542 -0.4685
  679SOL    HW2 2762   3.649   0.417   1.215 -0.1945  0.1959  0.8330
  679SOL    HW3 2763   3.498   0.420   1.204 -0.1410 -0.0847 -0.0321
  679SOL    MW4 2764   3.573   0.378   1.195  0.0367  0.2754 -0.2393
  680SOL     OW 2765   3.816   0.493   1.273 -0.0942 -0.0967  0.1067
  680SOL    HW2 2766   3.897   0.455   1.240 -0.0999 -1.0118  1.1423
  680SOL    HW3 2767   3.815   0.582   1.237  0.3525 -0.7633 -1.5948
  680SOL    MW4 2768   3.826   0.500   1.264 -0.0362 -0.3054  0.0188
  681SOL     OW 2769   3.814   0.745   1.140 -0.1452 -0.3133 -0.2139
  681SOL    HW2 2770   3.891   0.794   1.170 -0.0686 -0.4440 -0.1941
  681SOL    HW3 2771   3.740   0.799   1.166 -0.1264 -0.9187  1.1441
  681SOL    MW4 2772   3.815   0.759   1.148 -0.1326 -0.4104 -0.0321
  682SOL     OW 2773   3.577   0.871   1.211  0.0888 -0.2207  0.3520
  682SOL    HW2 2774   3.567   0.966   1.207  0.2237 -0.1263  2.0207
  682SOL    HW3 2775   3.493   0.837   1.180 -0.1246  0.4394  0.2023
  682SOL    MW4 2776   3.565   0.879   1.206  0.0784 -0.1211  0.5524
  683SOL     OW 2777   3.592   1.147   1.186  0.1653  0.2504 -0.0426
  683SOL    HW2 2778   3.663   1.206   1.210  0.9155  0.0098 -1.6215
  683SOL    HW3 2779   3.515   1.183   1.230  0.9061  1.5790  0.1830
  683SOL    MW4 2780   3.591   1.160   1.195  0.3619  0.3939 -0.2211
  684SOL     OW 2781   3.813   1.309   1.239 -0.7420  0.4944 -0.2440
  684SOL    HW2 2782   3.818   1.318   1.334 -2.2131  1.2835 -0.2252
  684SOL    HW3 2783   3.834   1.395   1.205 -0.6856  0.3354 -0.6150
  684SOL    MW4 2784   3.816   1.321   1.247 -0.9289  0.5777 -0.2905
  685SOL     OW 2785   3.816   1.589   1.137  0.0191 -0.0012  0.0789
  685SOL    HW2 2786   3.907   1.613   1.154 -0.6453  2.8773 -0.1531
  685SOL    HW3 2787   3.812   1.574   1.043  0.2317 -0.1354  0.0902
  685SOL    MW4 2788   3.828   1.590   1.127 -0.0403  0.3608  0.0498
  686SOL     OW 2789   3.562   1.668   1.238 -0.2130 -0.3258  0.3251
  686SOL    HW2 2790   3.559   1.761   1.220  0.1904 -0.7555 -2.0977
  686SOL    HW3 2791   3.643   1.637   1.197 -0.7080 -1.8798  0.4646
  686SOL    MW4 2792   3.572   1.676   1.231 -0.2253 -0.5876  0.0238
  687SOL     OW 2793   3.598   1.932   1.185  0.0123  0.1712 -0.0544
  687SOL    HW2 2794   3.677   1.985   1.196 -0.5636  1.2338 -0.8811
  687SOL    HW3 2795   3.585   1.929   1.090 -1.5990  1.0364  0.1094
  687SOL    MW4 2796   3.607   1.939   1.174 -0.2761  0.4257 -0.1419
  688SOL     OW 2797   3.847   2.062   1.250 -0.3655 -0.1934  0.1099
  688SOL    HW2 2798   3.833   2.047   1.343  0.6616 -1.0606  0.1323
  688SOL    HW3 2799   3.923   2.009   1.228 -0.8388 -0.3062 -1.3171
  688SOL    MW4 2800   3.855   2.053   1.259 -0.2925 -0.3228 -0.0753
  689SOL     OW 2801   3.794   2.312   1.112 -0.2309 -0.0677  0.1402
  689SOL    HW2 2802   3.870   2.359   1.146  0.8479 -1.3944 -0.4053
  689SOL    HW3 2803   3.799   2.225   1.153 -1.0303 -0.4067 -0.4661
  689SOL    MW4 2804   3.805   2.307   1.122 -0.1941 -0.2873 -0.0118
  690SOL     OW 2805   3.600   2.453   1.245  0.2067  0.1887  0.2260
  690SOL    HW2 2806   3.617   2.454   1.339  0.0540  1.6146  0.2442
  690SOL    HW3 2807   3.657   2.384   1.211  0.6714  0.0470  1.2767
  690SOL    MW4 2808   3.610   2.444   1.253  0.2477  0.3583  0.3669
  691SOL     OW 2809   3.635   2.720   1.147  0.1490 -0.2410 -0.0984
  691SOL    HW2 2810   3.617   2.634   1.185 -0.1484  0.7060  1.9598
  691SOL    HW3 2811   3.559   2.773   1.171  1.0793  1.0508  0.0649
  691SOL    MW4 2812   3.622   2.716   1.155  0.2325  0.0544  0.1947
  692SOL     OW 2813   3.842   2.892   1.250 -0.1986  0.4275  0.1072
  692SOL    HW2 2814   3.842   2.880   1.345 -0.1935  0.2125  0.0808
  692SOL    HW3 2815   3.758   2.856   1.222 -0.0721  0.2155 -0.0034
  692SOL    MW4 2816   3.831   2.885   1.259 -0.1812  0.3712  0.0893
  693SOL     OW 2817   3.841   3.130   1.123 -0.8562 -0.1925  0.4945
  693SOL    HW2 2818   3.870   3.051   1.168 -0.6918 -0.4655 -0.0901
  693SOL    HW3 2819   3.830   3.104   1.032  1.3239  0.9760 -0.1364
  693SOL    MW4 2820   3.844   3.116   1.117 -0.5469 -0.0744  0.3341
  694SOL     OW 2821   3.604   3.265   1.238  0.3755 -0.3375  0.3374
  694SOL    HW2 2822   3.605   3.354   1.203  0.6514 -0.0332  1.1176
  694SOL    HW3 2823   3.687   3.227   1.210  0.5737 -0.1116  0.6194
  694SOL    MW4 2824   3.615   3.272   1.229  0.4380 -0.2677  0.4777
  695SOL     OW 2825   3.584   3.514   1.115  0.0584 -0.4269 -0.5256
  695SOL    HW2 2826   3.664   3.561   1.136 -0.0418 -0.0661 -0.9491
  695SOL    HW3 2827   3.579   3.516   1.020 -0.1600 -0.9434 -0.5306
  695SOL    MW4 2828   3.594   3.520   1.106  0.0165 -0.4473 -0.5822
  696SOL     OW 2829   3.811   3.642   1.219  0.2695  0.3857 -0.7397
  696SOL    HW2 2830   3.804   3.637   1.314  0.8031  0.0212 -0.7175
  696SOL    HW3 2831   3.822   3.735   1.200 -0.3740  0.5174 -0.4868
  696SOL    MW4 2832   3.811   3.653   1.229  0.2549  0.3552 -0.7033
  697SOL     OW 2833   3.847   3.899   1.145 -0.2620 -0.1923 -0.2755
  697SOL    HW2 2834   3.769   3.946   1.175 -1.5531 -2.2695 -0.2243
  697SOL    HW3 2835   3.844   3.907   1.050 -0.3422  0.0319 -0.2554
  697SOL    MW4 2836   3.836   3.906   1.136 -0.4430 -0.4368 -0.2662
  698SOL     OW 2837   3.612   4.026   1.241 -0.1197 -0.0830  0.0215
  698SOL    HW2 2838   3.607   4.040   1.336  0.1867  1.3397 -0.1688
  698SOL    HW3 2839   3.523   3.998   1.218  0.0487 -1.3707  0.8652
  698SOL    MW4 2840   3.599   4.024   1.251 -0.0572 -0.0653  0.1076
  699SOL     OW 2841   3.616   4.309   1.151  0.0863 -0.1579  0.3219
  699SOL    HW2 2842   3.613   4.219   1.183  2.5382  0.0759  1.2511
  699SOL    HW3 2843   3.602   4.301   1.057 -0.2374 -1.4563  0.4670
  699SOL    MW4 2844   3.613   4.296   1.143  0.3672 -0.2980  0.4636
  700SOL     OW 2845   3.842   4.416   1.252 -0.3533  0.1794  0.3383
  700SOL    HW2 2846   3.845   4.412   1.348 -0.0125 -1.2231  0.2882
  700SOL    HW3 2847   3.760   4.371   1.229  0.6168 -1.4386 -0.0925
  700SOL    MW4 2848   3.832   4.409   1.262 -0.1802 -0.2193  0.2749
  701SOL     OW 2849   4.304   4.642   1.144 -0.2151  0.0091 -0.3557
  701SOL    HW2 2850   4.292   4.553   1.175 -2.7534  0.3325 -0.3426
  701SOL    HW3 2851   4.221   4.686   1.163  0.1224  1.6932 -2.6015
  701SOL    MW4 2852   4.292   4.636   1.151 -0.5054  0.2742 -0.6503
  702SOL     OW 2853   4.082   0.117   1.255 -0.4283  0.4901 -0.0717
  702SOL    HW2 2854   4.065   0.135   1.347  0.1035  1.6158 -0.1752
  702SOL    HW3 2855   4.001   0.079   1.222 -1.7286  3.0262  0.1113
  702SOL    MW4 2856   4.069   0.114   1.263 -0.5298  0.9733 -0.0613
  703SOL     OW 2857   4.045   0.370   1.148 -0.3913 -0.3950 -0.2103
  703SOL    HW2 2858   4.052   0.280   1.180 -1.2801 -0.1745  0.6270
  703SOL    HW3 2859   4.011   0.361   1.059 -1.2575 -0.8499  0.1626
  703SOL    MW4 2860   4.041   0.357   1.140 -0.6223 -0.4259 -0.0507
  704SOL     OW 2861   4.284   0.480   1.225  0.2162 -0.0429 -0.1414
  704SOL    HW2 2862   4.277   0.481   1.321 -1.0761  1.5625 -0.2280
  704SOL    HW3 2863   4.199   0.448   1.196  0.2141  0.5695 -0.7968
  704SOL    MW4 2864   4.272   0.476   1.234  0.0453  0.2498 -0.2393
  705SOL     OW 2865   4.265   0.749   1.150  0.0808  0.5127  0.1507
  705SOL    HW2 2866   4.287   0.657   1.163 -1.1971  0.5158  2.4996
  705SOL    HW3 2867   4.249   0.756   1.056  1.3606 -1.3787 -0.2412
  705SOL    MW4 2868   4.266   0.738   1.139  0.0811  0.2636  0.4089
  706SOL     OW 2869   4.025   0.888   1.244  0.0764 -0.4863 -0.1699
  706SOL    HW2 2870   4.024   0.869   1.338 -1.0937 -2.0857 -0.4716
  706SOL    HW3 2871   4.101   0.840   1.211 -0.5955 -1.4636 -0.3180
  706SOL    MW4 2872   4.035   0.879   1.252 -0.1664 -0.8264 -0.2292
  707SOL     OW 2873   4.016   1.145   1.165 -0.6140 -0.1962  0.1366
  707SOL    HW2 2874   4.005   1.061   1.209 -1.8680 -0.3508 -0.4503
  707SOL    HW3 2875   3.940   1.196   1.192  0.6807  1.1256  1.3134
  707SOL    MW4 2876   4.005   1.140   1.175 -0.6084 -0.0422  0.2143
  708SOL     OW 2877   4.271   1.263   1.259 -0.4368  0.5722 -0.1024
  708SOL    HW2 2878   4.270   1.263   1.355  0.3357 -1.7104 -0.0731
  708SOL    HW3 2879   4.193   1.214   1.233 -0.4014  0.7952 -0.6446
  708SOL    MW4 2880   4.261   1.257   1.268 -0.3300  0.3004 -0.1702
  709SOL     OW 2881   4.279   1.521   1.150  0.3956 -0.2481  0.0635
  709SOL    HW2 2882   4.280   1.438   1.199  0.4819 -0.4714 -0.3158
  709SOL    HW3 2883   4.359   1.566   1.178 -0.1960  0.1931  1.0925
  709SOL    MW4 2884   4.290   1.516   1.160  0.3285 -0.2195  0.1493
  710SOL     OW 2885   4.057   1.680   1.217  0.4003  0.6489 -0.2588
  710SOL    HW2 2886   4.052   1.678   1.313  0.3654  0.9366 -0.2530
  710SOL    HW3 2887   4.127   1.619   1.195 -0.5785 -0.5370 -0.1261
  710SOL    MW4 2888   4.065   1.672   1.227  0.2661  0.5304 -0.2406
  711SOL     OW 2889   4.074   1.939   1.150 -0.0881  0.0648 -0.3354
  711SOL    HW2 2890   4.072   1.846   1.173 -1.1900  0.2013  0.1262
  711SOL    HW3 2891   4.056   1.941   1.056 -0.5650 -0.1558 -0.2481
  711SOL    MW4 2892   4.072   1.927   1.140 -0.2966  0.0536 -0.2630
  712SOL     OW 2893   4.289   2.075   1.262 -0.1880  0.1517  0.0467
  712SOL    HW2 2894   4.295   2.157   1.213  1.1210  0.5931  0.9057
  712SOL    HW3 2895   4.215   2.028   1.223 -1.1520  1.8826 -0.2479
  712SOL    MW4 2896   4.280   2.080   1.251 -0.1421  0.4385  0.1211
  713SOL     OW 2897   4.235   2.333   1.146  0.1526  0.1090  0.3926
  713SOL    HW2 2898   4.152   2.360   1.185 -0.3033  0.3036 -0.6750
  713SOL    HW3 2899   4.224   2.350   1.052  0.2830 -2.6130 -0.1670
  713SOL    MW4 2900   4.223   2.339   1.139  0.1092 -0.2244  0.1779
  714SOL     OW 2901   4.002   2.455   1.217  0.2036  0.1500 -0.1268
  714SOL    HW2 2902   3.974   2.481   1.305 -1.6543  0.2535 -0.7225
  714SOL    HW3 2903   4.027   2.537   1.175  0.6673  0.1560  0.1582
  714SOL    MW4 2904   4.002   2.469   1.223  0.0196  0.1643 -0.1678
  715SOL     OW 2905   4.025   2.718   1.103 -0.4567  0.2173  0.0085
  715SOL    HW2 2906   3.962   2.763   1.159 -1.6292 -1.4676  0.1189
  715SOL    HW3 2907   4.006   2.751   1.015 -1.9895 -0.7306 -0.0552
  715SOL    MW4 2908   4.014   2.728   1.099 -0.8130 -0.1302  0.0147
  716SOL     OW 2909   4.247   2.830   1.203 -0.0485  0.2684 -1.0449
  716SOL    HW2 2910   4.263   2.920   1.177 -1.2059  0.9068  0.4377
  716SOL    HW3 2911   4.162   2.808   1.165 -0.8512  0.5713  0.5713
  716SOL    MW4 2912   4.238   2.839   1.194 -0.3076  0.3927 -0.6362
  717SOL     OW 2913   4.279   3.096   1.128  0.8103 -0.1837 -0.2258
  717SOL    HW2 2914   4.213   3.154   1.165  0.6039 -0.5176 -0.0749
  717SOL    HW3 2915   4.287   3.125   1.037  0.5392 -0.0683 -0.2151
  717SOL    MW4 2916   4.271   3.108   1.121  0.7477 -0.2124 -0.2046
  718SOL     OW 2917   4.061   3.282   1.198  0.2333  0.3282  0.4122
  718SOL    HW2 2918   4.056   3.267   1.293  1.0461 -0.2756  0.3637
  718SOL    HW3 2919   3.981   3.242   1.164  0.2723 -0.0599  0.7673
  718SOL    MW4 2920   4.050   3.275   1.206  0.3452  0.1974  0.4526
  719SOL     OW 2921   4.047   3.554   1.091  0.1844  0.0966 -0.2241
  719SOL    HW2 2922   4.048   3.464   1.122  0.9203  0.2652  0.2341
  719SOL    HW3 2923   3.964   3.590   1.125  1.0514  0.3310  1.7070
  719SOL    MW4 2924   4.036   3.547   1.099  0.3958  0.1497  0.0913
  720SOL     OW 2925   4.272   3.641   1.246 -0.1393  0.0502  0.3339
  720SOL    HW2 2926   4.190   3.614   1.206 -0.5447 -0.2584  1.3670
  720SOL    HW3 2927   4.339   3.588   1.202 -0.6863 -1.0187  0.7692
  720SOL    MW4 2928   4.270   3.631   1.235 -0.2646 -0.1316  0.5276
  721SOL     OW 2929   4.291   3.894   1.100 -0.2728  0.0151 -0.0442
  721SOL    HW2 2930   4.219   3.939   1.145  1.6650  1.5051  1.6858
  721SOL    HW3 2931   4.281   3.802   1.123 -2.2350  0.0379 -0.7192
  721SOL    MW4 2932   4.280   3.888   1.109 -0.2756  0.2143  0.0951
  722SOL     OW 2933   4.087   4.019   1.236 -0.3134  0.0494 -0.7780
  722SOL    HW2 2934   4.068   4.106   1.202 -0.7180  0.4424  0.4359
  722SOL    HW3 2935   4.008   3.968   1.217 -0.2855  0.0891 -1.0045
  722SOL    MW4 2936   4.074   4.023   1.229 -0.3629  0.1063 -0.6479
  723SOL     OW 2937   4.052   4.270   1.138  0.7949  0.5058  0.5309
  723SOL    HW2 2938   3.976   4.305   1.185 -0.0014  0.3927 -0.6628
  723SOL    HW3 2939   4.026   4.268   1.046  1.8888 -0.4579  0.2165
  723SOL    MW4 2940   4.039   4.274   1.132  0.8340  0.3638  0.3320
  724SOL     OW 2941   4.255   4.402   1.263 -0.0139 -0.4584  0.2197
  724SOL    HW2 2942   4.178   4.363   1.221 -0.7019 -0.2415  1.2585
  724SOL    HW3 2943   4.328   4.350   1.230 -0.6428 -0.9014 -0.5041
  724SOL    MW4 2944   4.254   4.390   1.253 -0.1874 -0.4883  0.2613
  725SOL     OW 2945   0.235   4.626   1.632 -0.6185  0.1488 -0.0795
  725SOL    HW2 2946   0.316   4.676   1.615 -0.8730  0.1273 -1.4190
  725SOL    HW3 2947   0.165   4.683   1.600 -1.1530  0.2283  1.2160
  725SOL    MW4 2948   0.237   4.640   1.625 -0.7226  0.1569 -0.0855
  726SOL     OW 2949   0.031   0.117   1.532 -0.0418 -0.0514 -0.4168
  726SOL    HW2 2950  -0.058   0.101   1.564 -0.5456  1.8761 -0.7909
  726SOL    HW3 2951   0.023   0.115   1.437  0.3575 -0.1742 -0.4467
  726SOL    MW4 2952   0.018   0.115   1.524 -0.0556  0.1867 -0.4700
  727SOL     OW 2953   0.021   0.380   1.584  0.3848  0.3194  0.0908
  727SOL    HW2 2954  -0.003   0.376   1.676 -0.1985  1.0480 -0.0189
  727SOL    HW3 2955   0.042   0.290   1.560  0.5909  0.1343  0.9467
  727SOL    MW4 2956   0.021   0.368   1.593  0.3351  0.3911  0.1893
  728SOL     OW 2957   0.234   0.519   1.493  0.3249 -0.4179 -0.0227
  728SOL    HW2 2958   0.157   0.472   1.524 -0.1155  0.6178  0.4783
  728SOL    HW3 2959   0.222   0.523   1.398 -0.0007 -0.6728  0.0060
  728SOL    MW4 2960   0.222   0.513   1.484  0.2238 -0.3148  0.0472
  729SOL     OW 2961   0.246   0.786   1.598  0.0771 -0.4875 -0.1796
  729SOL    HW2 2962   0.318   0.831   1.553 -0.1828  0.4734  0.3554
  729SOL    HW3 2963   0.251   0.696   1.566  0.7050 -0.1217 -1.1449
  729SOL    MW4 2964   0.256   0.780   1.587  0.1256 -0.3125 -0.2364
  730SOL     OW 2965   0.007   0.918   1.526  0.2246 -0.2057  0.9049
  730SOL    HW2 2966   0.001   1.008   1.557  0.3046 -0.1338  0.7087
  730SOL    HW3 2967   0.088   0.884   1.566  1.4511  0.5275 -0.8819
  730SOL    MW4 2968   0.017   0.925   1.535  0.3967 -0.0995  0.6433
  731SOL     OW 2969   4.469   1.162   1.641  0.0477  0.3111 -0.7735
  731SOL    HW2 2970   4.474   1.168   1.737  0.5414 -1.2935 -0.6844
  731SOL    HW3 2971   4.545   1.212   1.610  0.1225  0.4808 -0.3250
  731SOL    MW4 2972   4.480   1.170   1.650  0.1230  0.1218 -0.7026
  732SOL     OW 2973   0.223   1.246   1.541  0.3190  0.0124  0.2740
  732SOL    HW2 2974   0.225   1.341   1.553 -1.0251 -0.1323  1.7780
  732SOL    HW3 2975   0.219   1.234   1.446  1.3926  1.4272  0.0286
  732SOL    MW4 2976   0.223   1.257   1.530  0.2833  0.1800  0.4401
  733SOL     OW 2977   0.227   1.533   1.603 -0.6664 -0.0490  0.5518
  733SOL    HW2 2978   0.214   1.552   1.696 -3.1830  0.5677  0.1208
  733SOL    HW3 2979   0.149   1.570   1.560  0.1329 -0.9160 -1.7203
  733SOL    MW4 2980   0.215   1.541   1.609 -0.8930 -0.0819  0.1951
  734SOL     OW 2981   4.474   1.650   1.517  0.5069  0.0356  0.1146
  734SOL    HW2 2982   4.475   1.744   1.536 -0.9091  0.2168 -0.6048
  734SOL    HW3 2983   4.479   1.645   1.421 -2.4591 -0.4800 -0.0591
  734SOL    MW4 2984   4.475   1.662   1.507 -0.0713 -0.0086 -0.0032
  735SOL     OW 2985   0.007   1.919   1.612 -0.1700 -0.5559  0.0451
  735SOL    HW2 2986  -0.003   1.911   1.707 -0.5653 -0.1869  0.0362
  735SOL    HW3 2987  -0.066   1.975   1.585  0.5265  0.1705 -0.3424
  735SOL    MW4 2988  -0.004   1.925   1.621 -0.1307 -0.4114 -0.0073
  736SOL     OW 2989   0.224   2.082   1.525  0.2339  0.3213  0.2285
  736SOL    HW2 2990   0.150   2.027   1.550  1.1409 -0.5998  0.9836
  736SOL    HW3 2991   0.223   2.082   1.430 -0.5563  0.0678  0.2299
  736SOL    MW4 2992   0.214   2.075   1.516  0.2493  0.1662  0.3283
  737SOL     OW 2993   0.213   2.333   1.624 -0.0230 -0.4424 -0.0084
  737SOL    HW2 2994   0.219   2.320   1.719 -0.6822  0.8728  0.2265
  737SOL    HW3 2995   0.225   2.245   1.587  0.8796 -0.8638  1.2574
  737SOL    MW4 2996   0.215   2.319   1.632  0.0091 -0.3245  0.1895
  738SOL     OW 2997   4.474   2.464   1.550  0.0440  0.3080 -0.1559
  738SOL    HW2 2998   4.397   2.432   1.596 -0.3773  1.5392  0.0254
  738SOL    HW3 2999   4.546   2.410   1.582 -0.4526  0.3326  1.0224
  738SOL    MW4 3000   4.473   2.453   1.560 -0.0777  0.4737  0.0235
  739SOL     OW 3001   0.049   2.724   1.611  0.0678 -0.2674  0.6054
  739SOL    HW2 3002  -0.024   2.774   1.574  0.2284 -0.1121  0.4929
  739SOL    HW3 3003   0.028   2.633   1.593 -0.7927 -0.3146  1.8322
  739SOL    MW4 3004   0.037   2.719   1.604 -0.0245 -0.2532  0.7523
  740SOL     OW 3005   0.259   2.842   1.472 -0.0086 -0.1333 -0.0023
  740SOL    HW2 3006   0.336   2.798   1.508 -0.7145 -0.4923  1.1072
  740SOL    HW3 3007   0.187   2.780   1.489 -0.3481 -0.3513 -2.1278
  740SOL    MW4 3008   0.259   2.828   1.479 -0.1466 -0.2096 -0.1364
  741SOL     OW 3009   0.218   3.078   1.629 -0.3334  0.1680 -0.2618
  741SOL    HW2 3010   0.141   3.119   1.590 -0.0975  0.2642 -0.6306
  741SOL    HW3 3011   0.225   2.993   1.584 -0.9258 -0.3553  0.6257
  741SOL    MW4 3012   0.209   3.072   1.618 -0.3805  0.1121 -0.1932
  742SOL     OW 3013   0.012   3.213   1.510  0.0562 -0.0854 -0.3448
  742SOL    HW2 3014   0.024   3.302   1.545  3.0179 -0.8589  0.7806
  742SOL    HW3 3015   0.005   3.226   1.415  0.8580  1.3388 -0.2328
  742SOL    MW4 3016   0.013   3.227   1.502  0.5527  0.0002 -0.1816
  743SOL     OW 3017   0.018   3.481   1.604  0.0147  0.1071 -0.2883
  743SOL    HW2 3018   0.011   3.495   1.698  1.1601 -1.6646  0.0888
  743SOL    HW3 3019  -0.065   3.513   1.568 -0.2535  1.1938  1.2572
  743SOL    MW4 3020   0.006   3.487   1.611  0.1307  0.0165 -0.0346
  744SOL     OW 3021   0.234   3.604   1.500 -0.4588  0.0210  0.3787
  744SOL    HW2 3022   0.233   3.694   1.535 -1.5477  0.0878  0.2046
  744SOL    HW3 3023   0.148   3.569   1.523 -0.6072 -0.4584 -0.9126
  744SOL    MW4 3024   0.222   3.611   1.508 -0.6220 -0.0334  0.1855
  745SOL     OW 3025   0.271   3.842   1.636 -0.2537  0.0310 -0.1110
  745SOL    HW2 3026   0.243   3.854   1.727 -1.3992  1.0634 -0.5711
  745SOL    HW3 3027   0.332   3.914   1.620  1.9326 -1.6506  0.5956
  745SOL    MW4 3028   0.275   3.853   1.646 -0.1163 -0.0548 -0.0784
  746SOL     OW 3029   0.041   3.951   1.519 -0.1895  0.2289 -0.2152
  746SOL    HW2 3030   0.046   4.043   1.543 -2.3842 -0.0282  1.4150
  746SOL    HW3 3031   0.126   3.915   1.545  0.4067  1.6399 -0.1746
  746SOL    MW4 3032   0.053   3.958   1.526 -0.4004  0.3810  0.0052
  747SOL     OW 3033   4.465   4.245   1.578  0.1665 -0.0961  0.2503
  747SOL    HW2 3034   4.474   4.258   1.672 -1.3252 -0.3807  0.4481
  747SOL    HW3 3035   4.402   4.312   1.550 -2.0159 -2.1609  0.0646
  747SOL    MW4 3036   4.458   4.256   1.587 -0.3183 -0.4063  0.2518
  748SOL     OW 3037   0.217   4.383   1.515 -0.5857  0.3936  0.0815
  748SOL    HW2 3038   0.135   4.339   1.539  0.1820 -1.5203 -0.6789
  748SOL    HW3 3039   0.216   4.464   1.565 -1.6001 -0.9535  2.3519
  748SOL    MW4 3040   0.206   4.388   1.525 -0.6183 -0.0367  0.2806
  749SOL     OW 3041   0.695   4.642   1.645  0.1974  0.0364  0.3685
  749SOL    HW2 3042   0.764   4.682   1.591  0.6190  0.4681  1.2139
  749SOL    HW3 3043   0.617   4.695   1.627  0.2718  0.0228 -0.0082
  749SOL    MW4 3044   0.694   4.654   1.635  0.2628  0.0916  0.4303
  750SOL     OW 3045   0.453   0.127   1.574  0.0249 -0.4967  0.3509
  750SOL    HW2 3046   0.423   0.213   1.603 -1.6546 -1.0292  0.2584
  750SOL    HW3 3047   0.462   0.135   1.479  1.9166  0.1650  0.5596
  750SOL    MW4 3048   0.450   0.139   1.566  0.0529 -0.4796  0.3663
  751SOL     OW 3049   0.423   0.396   1.645  0.3028 -0.3451 -0.1936
  751SOL    HW2 3050   0.506   0.431   1.613  0.1571  2.2130  2.0783
  751SOL    HW3 3051   0.357   0.451   1.603 -0.0575  0.2304  1.1244
  751SOL    MW4 3052   0.425   0.408   1.635  0.2360  0.0683  0.2800
  752SOL     OW 3053   0.652   0.499   1.539 -0.0296  0.2251  0.0892
  752SOL    HW2 3054   0.660   0.592   1.560 -0.1771  0.2445  0.0624
  752SOL    HW3 3055   0.638   0.498   1.444 -0.2355  0.1882  0.1191
  752SOL    MW4 3056   0.651   0.512   1.529 -0.0762  0.2227  0.0898
  753SOL     OW 3057   0.700   0.776   1.579 -0.1529  0.0879  0.1306
  753SOL    HW2 3058   0.677   0.791   1.671 -1.1354  1.1494 -0.2736
  753SOL    HW3 3059   0.783   0.823   1.569 -0.2647  0.3428  0.3672
  753SOL    MW4 3060   0.708   0.784   1.590 -0.2973  0.2615  0.1085
  754SOL     OW 3061   0.455   0.919   1.491 -0.6099 -0.6939  0.1082
  754SOL    HW2 3062   0.447   0.993   1.552 -0.4324 -0.4302 -0.1908
  754SOL    HW3 3063   0.530   0.870   1.523  0.5823  0.4257 -0.9525
  754SOL    MW4 3064   0.464   0.923   1.503 -0.4292 -0.5113 -0.0712
  755SOL     OW 3065   0.432   1.133   1.680 -0.7299 -0.4245  0.0775
  755SOL    HW2 3066   0.506   1.184   1.646 -0.1085 -2.7561 -2.1424
  755SOL    HW3 3067   0.355   1.174   1.642 -0.2608 -0.9170 -1.4067
  755SOL    MW4 3068   0.432   1.145   1.671 -0.5860 -0.7972 -0.4112
  756SOL     OW 3069   0.644   1.286   1.506 -0.0440  0.1132 -0.4004
  756SOL    HW2 3070   0.656   1.379   1.524  1.3199 -0.2954  0.9030
  756SOL    HW3 3071   0.621   1.282   1.413 -1.1767  1.8217 -0.2142
  756SOL    MW4 3072   0.642   1.298   1.496 -0.0135  0.2847 -0.2038
  757SOL     OW 3073   0.698   1.535   1.631  0.4974 -0.0310 -0.0915
  757SOL    HW2 3074   0.768   1.596   1.608  0.3485 -0.1033 -0.7270
  757SOL    HW3 3075   0.618   1.578   1.603  0.2274  0.3086  1.1645
  757SOL    MW4 3076   0.697   1.548   1.625  0.4422  0.0043 -0.0095
  758SOL     OW 3077   0.460   1.661   1.520  0.3966 -0.2104 -0.1437
  758SOL    HW2 3078   0.448   1.745   1.563  2.0268 -0.3928  0.7193
  758SOL    HW3 3079   0.385   1.609   1.549 -1.1980  1.2674 -1.5413
  758SOL    MW4 3080   0.449   1.665   1.530  0.4013 -0.0393 -0.2142
  759SOL     OW 3081   0.407   1.917   1.619  0.3065 -0.3662  0.2366
  759SOL    HW2 3082   0.397   1.924   1.713  1.1295  0.9243  0.2330
  759SOL    HW3 3083   0.333   1.966   1.583  1.0982  0.8262  0.2169
  759SOL    MW4 3084   0.396   1.924   1.626  0.5195 -0.0386  0.2335
  760SOL     OW 3085   0.633   2.052   1.535  0.6490  0.3927 -0.4772
  760SOL    HW2 3086   0.711   2.024   1.583  0.7443  1.5531  0.0614
  760SOL    HW3 3087   0.562   1.999   1.571  0.8832  0.6184  0.3269
  760SOL    MW4 3088   0.634   2.041   1.546  0.6925  0.5755 -0.3000
  761SOL     OW 3089   0.660   2.313   1.642 -0.2794 -0.1588 -0.2986
  761SOL    HW2 3090   0.590   2.368   1.606  0.8035  1.4684  0.0268
  761SOL    HW3 3091   0.649   2.228   1.598 -0.5877  1.0011 -2.5440
  761SOL    MW4 3092   0.650   2.309   1.631 -0.1773  0.2086 -0.5519
  762SOL     OW 3093   0.430   2.415   1.497 -0.7704 -0.3274  0.4996
  762SOL    HW2 3094   0.438   2.507   1.523  0.8560 -0.3086 -0.0608
  762SOL    HW3 3095   0.362   2.380   1.555 -0.0769  0.7500  1.9828
  762SOL    MW4 3096   0.422   2.422   1.508 -0.4643 -0.1829  0.6213
  763SOL     OW 3097   0.437   2.673   1.597 -0.1033 -0.0281  0.1428
  763SOL    HW2 3098   0.437   2.678   1.693 -0.2868 -1.0606  0.1985
  763SOL    HW3 3099   0.515   2.721   1.571  0.6430 -0.8179  0.8726
  763SOL    MW4 3100   0.447   2.680   1.606 -0.0291 -0.2685  0.2463
  764SOL     OW 3101   0.643   2.827   1.512 -0.0056  0.1488 -0.0585
  764SOL    HW2 3102   0.638   2.920   1.534  0.9972  0.0205  0.7608
  764SOL    HW3 3103   0.648   2.825   1.416  0.1953  0.9418 -0.0675
  764SOL    MW4 3104   0.643   2.839   1.502  0.1532  0.2365  0.0483
  765SOL     OW 3105   0.662   3.091   1.613 -0.1189  0.1780  0.0750
  765SOL    HW2 3106   0.739   3.144   1.589  0.1002 -0.1650  0.0152
  765SOL    HW3 3107   0.588   3.140   1.578  0.1697 -0.1412 -1.0146
  765SOL    MW4 3108   0.663   3.104   1.605 -0.0519  0.0904 -0.0767
  766SOL     OW 3109   0.438   3.236   1.531 -0.1248 -0.0646  0.0586
  766SOL    HW2 3110   0.364   3.182   1.558 -0.1809 -0.1867 -0.3305
  766SOL    HW3 3111   0.430   3.242   1.436 -1.1146  2.0519  0.2393
  766SOL    MW4 3112   0.427   3.230   1.522 -0.2628  0.1986  0.0312
  767SOL     OW 3113   0.427   3.480   1.652 -0.3880  0.2784 -0.7039
  767SOL    HW2 3114   0.439   3.390   1.621 -2.2994 -0.4468  0.5419
  767SOL    HW3 3115   0.347   3.510   1.608 -1.8969 -0.0079  1.7307
  767SOL    MW4 3116   0.418   3.472   1.642 -0.8393  0.1450 -0.2183
  768SOL     OW 3117   0.622   3.636   1.526  0.0947  0.5832 -0.4566
  768SOL    HW2 3118   0.698   3.581   1.545  1.2706  1.8043 -1.5382
  768SOL    HW3 3119   0.547   3.586   1.559  1.1826 -1.4162 -0.9335
  768SOL    MW4 3120   0.622   3.622   1.533  0.3934  0.4807 -0.6622
  769SOL     OW 3121   0.696   3.870   1.644 -0.0195 -0.6204  0.3774
  769SOL    HW2 3122   0.772   3.909   1.601  0.2556 -0.0281  1.3722
  769SOL    HW3 3123   0.684   3.786   1.601  1.7138 -1.0862  0.7631
  769SOL    MW4 3124   0.705   3.864   1.633  0.2455 -0.6037  0.5594
  770SOL     OW 3125   0.473   4.007   1.526  0.3494 -0.2199  0.0139
  770SOL    HW2 3126   0.556   3.968   1.554  0.0274 -0.4099  0.7057
  770SOL    HW3 3127   0.482   4.015   1.431  1.1381 -0.2918  0.0775
  770SOL    MW4 3128   0.485   4.003   1.517  0.4110 -0.2546  0.1137
  771SOL     OW 3129   0.444   4.261   1.607 -0.2692  0.1788 -0.5186
  771SOL    HW2 3130   0.445   4.168   1.583  0.1248  0.4579 -1.6061
  771SOL    HW3 3131   0.355   4.290   1.587 -0.4773 -0.0299  0.0925
  771SOL    MW4 3132   0.432   4.252   1.601 -0.2446  0.1888 -0.5814
  772SOL     OW 3133   0.655   4.419   1.483  0.4231  0.0022 -0.0009
  772SOL    HW2 3134   0.579   4.372   1.519 -0.1663 -0.5716 -1.9591
  772SOL    HW3 3135   0.655   4.503   1.528 -0.4278 -0.6109  1.1739
  772SOL    MW4 3136   0.645   4.424   1.494  0.2332 -0.1545 -0.1042
  773SOL     OW 3137   1.101   4.640   1.606 -0.3090 -0.4696  0.0439
  773SOL    HW2 3138   1.087   4.660   1.699  0.5539  2.2137 -0.3664
  773SOL    HW3 3139   1.180   4.689   1.583 -1.0975 -0.3060 -2.3605
  773SOL    MW4 3140   1.110   4.649   1.615 -0.2993 -0.0939 -0.3275
  774SOL     OW 3141   0.880   0.087   1.482  0.2897 -0.3417  0.2251
  774SOL    HW2 3142   0.886   0.174   1.521 -0.5116 -0.1770  0.0038
  774SOL    HW3 3143   0.963   0.045   1.503  0.7368  0.5246  0.2210
  774SOL    MW4 3144   0.892   0.093   1.490  0.2430 -0.2057  0.1953
  775SOL     OW 3145   0.898   0.351   1.605  0.3434 -0.0163  0.0795
  775SOL    HW2 3146   0.889   0.354   1.701  0.9278 -0.9881  0.1694
  775SOL    HW3 3147   0.820   0.397   1.573 -1.0962 -1.7464  0.9718
  775SOL    MW4 3148   0.886   0.358   1.614  0.2306 -0.3728  0.2092
  776SOL     OW 3149   1.086   0.487   1.452  0.3269  0.3357 -0.8416
  776SOL    HW2 3150   1.103   0.566   1.502 -0.0832  1.0077 -1.7484
  776SOL    HW3 3151   1.020   0.440   1.502  0.0957  0.8883 -0.6228
  776SOL    MW4 3152   1.080   0.491   1.465  0.2422  0.4972 -0.9325
  777SOL     OW 3153   1.120   0.711   1.623  0.0140  0.4833 -0.1764
  777SOL    HW2 3154   1.115   0.726   1.717  1.4823  0.5241 -0.1068
  777SOL    HW3 3155   1.184   0.774   1.591  0.9284 -0.8034 -0.9281
  777SOL    MW4 3156   1.127   0.721   1.631  0.3283  0.3189 -0.2664
  778SOL     OW 3157   0.945   0.942   1.530 -0.2958 -0.1416  0.0659
  778SOL    HW2 3158   1.019   0.885   1.548  0.8547  0.7656 -1.6459
  778SOL    HW3 3159   0.913   0.913   1.444  0.6052  2.0846 -1.0427
  778SOL    MW4 3160   0.950   0.931   1.521 -0.0251  0.2718 -0.3061
  779SOL     OW 3161   0.916   1.219   1.614  0.4541  0.7496  0.2772
  779SOL    HW2 3162   0.930   1.135   1.571 -0.1121  1.0631 -0.5240
  779SOL    HW3 3163   0.827   1.243   1.592  0.2925  1.1209  1.2862
  779SOL    MW4 3164   0.906   1.211   1.606  0.3580  0.8398  0.3047
  780SOL     OW 3165   1.130   1.317   1.481  0.3575 -0.1789  0.0426
  780SOL    HW2 3166   1.189   1.245   1.505 -0.6679 -0.5627  1.4506
  780SOL    HW3 3167   1.047   1.295   1.523 -0.2459  1.3379 -0.3344
  780SOL    MW4 3168   1.127   1.305   1.490  0.1426 -0.0293  0.1783
  781SOL     OW 3169   1.136   1.591   1.603 -0.1238  0.9310  0.3222
  781SOL    HW2 3170   1.214   1.645   1.593  0.1256  0.7484  1.2558
  781SOL    HW3 3171   1.155   1.510   1.555 -0.2623  1.4135 -0.5661
  781SOL    MW4 3172   1.149   1.588   1.595 -0.1091  0.9705  0.3283
  782SOL     OW 3173   0.900   1.693   1.538 -0.2550 -0.0034  0.8431
  782SOL    HW2 3174   0.983   1.653   1.562  0.5650  0.9464 -0.3089
  782SOL    HW3 3175   0.892   1.678   1.444 -1.9287 -1.0390  1.1397
  782SOL    MW4 3176   0.910   1.686   1.529 -0.3676 -0.0147  0.7303
  783SOL     OW 3177   0.885   1.978   1.637 -0.0420  0.5828 -0.0221
  783SOL    HW2 3178   0.960   2.025   1.601  0.1961  1.2485  1.3218
  783SOL    HW3 3179   0.890   1.891   1.599  0.4786  1.1294 -1.2115
  783SOL    MW4 3180   0.895   1.973   1.627  0.0581  0.7428 -0.0018
  784SOL     OW 3181   1.092   2.106   1.523  0.1244 -0.1069 -0.4886
  784SOL    HW2 3182   1.174   2.070   1.558 -1.7226 -2.0404  2.0515
  784SOL    HW3 3183   1.084   2.191   1.565  0.0040 -0.6439  0.5941
  784SOL    MW4 3184   1.102   2.112   1.533 -0.1352 -0.4327 -0.0106
  785SOL     OW 3185   1.112   2.354   1.646  0.0119  0.2864  0.7098
  785SOL    HW2 3186   1.183   2.396   1.598 -0.2710  0.9191  0.8462
  785SOL    HW3 3187   1.032   2.387   1.605 -0.2010 -0.9979  0.0716
  785SOL    MW4 3188   1.111   2.364   1.634 -0.0535  0.2007  0.6437
  786SOL     OW 3189   0.885   2.446   1.529  0.0106  0.4855  0.2568
  786SOL    HW2 3190   0.874   2.540   1.539 -0.2661  0.3635  1.1125
  786SOL    HW3 3191   0.805   2.408   1.565  0.6864 -0.1329  1.1345
  786SOL    MW4 3192   0.873   2.453   1.535  0.0632  0.3877  0.4854
  787SOL     OW 3193   0.886   2.712   1.597  0.1950 -0.2369 -0.3326
  787SOL    HW2 3194   0.890   2.723   1.692  0.4038 -0.9404 -0.2571
  787SOL    HW3 3195   0.808   2.760   1.570 -0.0781 -0.3628  0.2383
  787SOL    MW4 3196   0.877   2.720   1.606  0.1865 -0.3464 -0.2474
  788SOL     OW 3197   1.115   2.867   1.474  0.5441 -0.2044  0.1994
  788SOL    HW2 3198   1.127   2.949   1.522 -1.6251  0.3560 -0.1478
  788SOL    HW3 3199   1.038   2.827   1.514 -0.3669 -0.4823 -1.7712
  788SOL    MW4 3200   1.106   2.873   1.486  0.1376 -0.1671 -0.1063
  789SOL     OW 3201   1.138   3.106   1.609  0.4027  0.3461 -0.3380
  789SOL    HW2 3202   1.150   3.112   1.703  1.9110  0.1642 -0.5041
  789SOL    HW3 3203   1.202   3.166   1.572  0.9000 -0.7513 -1.2914
  789SOL    MW4 3204   1.148   3.115   1.616  0.6673  0.1771 -0.4857
  790SOL     OW 3205   0.884   3.223   1.513  0.2123 -0.2450  0.0025
  790SOL    HW2 3206   0.964   3.188   1.554 -0.2872 -0.4366  0.8393
  790SOL    HW3 3207   0.893   3.201   1.421  1.2037 -0.1302  0.0607
  790SOL    MW4 3208   0.896   3.215   1.506  0.2773 -0.2553  0.1208
  791SOL     OW 3209   0.842   3.488   1.578  0.0080 -0.0180 -0.0978
  791SOL    HW2 3210   0.927   3.525   1.557 -0.4715  0.9031 -0.4820
  791SOL    HW3 3211   0.848   3.396   1.554  1.3222 -0.2696  1.1393
  791SOL    MW4 3212   0.854   3.481   1.572  0.1181  0.0706  0.0148
  792SOL     OW 3213   1.089   3.643   1.510 -0.0565  0.3941 -0.4372
  792SOL    HW2 3214   1.166   3.593   1.536  0.6144  1.0345 -1.1792
  792SOL    HW3 3215   1.100   3.657   1.416 -1.4631 -0.1792 -0.6897
  792SOL    MW4 3216   1.101   3.638   1.501 -0.1534  0.4029 -0.5684
  793SOL     OW 3217   1.153   3.886   1.600 -0.2399  0.0320  0.2238
  793SOL    HW2 3218   1.242   3.897   1.567 -0.6096  1.0852 -0.4534
  793SOL    HW3 3219   1.123   3.803   1.562 -0.1039  0.4669 -0.8340
  793SOL    MW4 3220   1.161   3.876   1.591 -0.2707  0.2286 -0.0050
  794SOL     OW 3221   0.900   3.976   1.501 -0.8059  0.7873  0.2688
  794SOL    HW2 3222   0.888   4.067   1.527  0.2962  1.2541 -0.7722
  794SOL    HW3 3223   0.989   3.955   1.528  0.0661  1.0279 -2.3014
  794SOL    MW4 3224   0.910   3.985   1.508 -0.5454  0.8810 -0.2077
  795SOL     OW 3225   0.898   4.287   1.564 -0.1168 -0.2139  0.1713
  795SOL    HW2 3226   0.887   4.267   1.657 -0.1896  0.1000  0.2320
  795SOL    HW3 3227   0.821   4.340   1.542  1.6325  2.7100  0.7933
  795SOL    MW4 3228   0.886   4.291   1.574  0.1044  0.2136  0.2613
  796SOL     OW 3229   1.158   4.378   1.495  0.1087 -0.0907  0.3001
  796SOL    HW2 3230   1.073   4.336   1.504  0.5669 -0.8149  1.3032
  796SOL    HW3 3231   1.150   4.460   1.544  0.2922 -0.6203  1.2283
  796SOL    MW4 3232   1.146   4.384   1.503  0.1934 -0.2556  0.5549
  797SOL     OW 3233   1.560   4.645   1.603 -0.5226  0.4286 -0.1770
  797SOL    HW2 3234   1.562   4.665   1.697 -0.3552 -1.3744  0.2119
  797SOL    HW3 3235   1.477   4.684   1.572 -0.7523  0.7104  0.7828
  797SOL    MW4 3236   1.549   4.653   1.611 -0.5307  0.2279  0.0008
  798SOL     OW 3237   1.339   0.099   1.498  0.0460 -0.0771 -0.2279
  798SOL    HW2 3238   1.345   0.190   1.528 -1.9575  0.0831 -0.2470
  798SOL    HW3 3239   1.325   0.106   1.403  1.3706 -0.4517 -0.4599
  798SOL    MW4 3240   1.338   0.112   1.489 -0.0435 -0.1054 -0.2611
  799SOL     OW 3241   1.319   0.362   1.582  0.2710 -0.5469 -0.2103
  799SOL    HW2 3242   1.398   0.404   1.549 -0.0972  1.2956  1.1976
  799SOL    HW3 3243   1.247   0.410   1.541 -0.1393 -1.3321 -0.4236
  799SOL    MW4 3244   1.320   0.374   1.572  0.1683 -0.4074 -0.0527
  800SOL     OW 3245   1.559   0.508   1.517  0.0223 -0.0696 -0.3002
  800SOL    HW2 3246   1.630   0.445   1.526 -0.0883 -0.3370 -1.1999
  800SOL    HW3 3247   1.568   0.543   1.428  0.9415  2.2603  0.6723
  800SOL    MW4 3248   1.569   0.504   1.507  0.1290  0.2025 -0.2908
  801SOL     OW 3249   1.577   0.778   1.606  0.2958 -0.3319  0.2102
  801SOL    HW2 3250   1.571   0.775   1.702  0.3117  0.1194  0.2270
  801SOL    HW3 3251   1.583   0.687   1.580 -2.0307 -0.5965  0.4952
  801SOL    MW4 3252   1.577   0.766   1.616 -0.0091 -0.3073  0.2502
  802SOL     OW 3253   1.333   0.870   1.511 -0.0555 -0.1039 -0.0697
  802SOL    HW2 3254   1.420   0.838   1.538  0.0410  0.3716  0.1975
  802SOL    HW3 3255   1.335   0.869   1.416 -0.7177 -2.6769 -0.0836
  802SOL    MW4 3256   1.345   0.866   1.502 -0.1301 -0.3806 -0.0362
  803SOL     OW 3257   1.309   1.128   1.599 -0.1793 -0.0066  0.1300
  803SOL    HW2 3258   1.311   1.127   1.694 -0.4392  0.9158  0.1501
  803SOL    HW3 3259   1.314   1.035   1.574  0.0368 -0.2426  1.0292
  803SOL    MW4 3260   1.310   1.115   1.608 -0.1850  0.0839  0.2512
  804SOL     OW 3261   1.534   1.273   1.517 -0.6270 -0.1309 -0.1530
  804SOL    HW2 3262   1.448   1.234   1.535 -0.8670  0.9144  0.9976
  804SOL    HW3 3263   1.547   1.258   1.423 -1.7096 -1.0008 -0.1844
  804SOL    MW4 3264   1.524   1.266   1.507 -0.8014 -0.1076 -0.0055
  805SOL     OW 3265   1.548   1.539   1.597 -0.1257 -0.4435 -0.1816
  805SOL    HW2 3266   1.553   1.538   1.692  1.4055 -0.0487 -0.2426
  805SOL    HW3 3267   1.551   1.447   1.571 -0.9286 -0.5689  0.1588
  805SOL    MW4 3268   1.549   1.527   1.606 -0.0296 -0.4079 -0.1445
  806SOL     OW 3269   1.368   1.704   1.481  0.1613  0.3041  0.1602
  806SOL    HW2 3270   1.425   1.636   1.516 -0.0427 -0.0948 -0.2822
  806SOL    HW3 3271   1.363   1.686   1.387 -1.8756 -0.5465  0.4061
  806SOL    MW4 3272   1.375   1.693   1.473 -0.1342  0.1391  0.1342
  807SOL     OW 3273   1.315   1.962   1.601 -0.0631  0.2292 -0.3166
  807SOL    HW2 3274   1.342   1.967   1.693 -0.2482 -0.4925 -0.2190
  807SOL    HW3 3275   1.349   1.878   1.571  0.4516  0.6981 -1.0601
  807SOL    MW4 3276   1.323   1.952   1.609 -0.0196  0.1960 -0.4017
  808SOL     OW 3277   1.570   2.056   1.527  0.3124  0.0083  0.0385
  808SOL    HW2 3278   1.482   2.021   1.537  0.2772 -0.1167 -0.6306
  808SOL    HW3 3279   1.576   2.079   1.434  1.0891 -0.2913  0.0070
  808SOL    MW4 3280   1.560   2.054   1.516  0.4102 -0.0474 -0.0539
  809SOL     OW 3281   1.561   2.320   1.636  0.0556  0.3377  0.3115
  809SOL    HW2 3282   1.618   2.370   1.578  0.2981  1.3433  1.3871
  809SOL    HW3 3283   1.567   2.230   1.605  1.2108  0.6534 -0.3941
  809SOL    MW4 3284   1.569   2.315   1.625  0.2400  0.5119  0.3603
  810SOL     OW 3285   1.327   2.456   1.505 -0.4339  0.0965 -0.0583
  810SOL    HW2 3286   1.334   2.547   1.533 -1.6761  0.3869 -0.6552
  810SOL    HW3 3287   1.400   2.412   1.548  1.7711  1.8928 -1.8432
  810SOL    MW4 3288   1.338   2.462   1.514 -0.3068  0.3719 -0.3725
  811SOL     OW 3289   1.345   2.719   1.576 -0.0742 -0.2867  0.3183
  811SOL    HW2 3290   1.410   2.774   1.531 -0.4537  0.7496  1.0060
  811SOL    HW3 3291   1.261   2.760   1.554 -0.5002 -1.6364 -0.5940
  811SOL    MW4 3292   1.342   2.732   1.567 -0.1804 -0.3281  0.2887
  812SOL     OW 3293   1.543   2.876   1.471  0.2365  0.2507 -0.1697
  812SOL    HW2 3294   1.614   2.829   1.515 -1.6061 -2.3460  0.1113
  812SOL    HW3 3295   1.559   2.862   1.377  0.6808  0.5835 -0.1474
  812SOL    MW4 3296   1.554   2.868   1.464  0.0522 -0.0479 -0.1297
  813SOL     OW 3297   1.573   3.118   1.604  0.3170  0.1730 -0.7783
  813SOL    HW2 3298   1.648   3.148   1.552  0.8287  0.6468  0.2320
  813SOL    HW3 3299   1.547   3.036   1.561  1.2466  0.1369 -1.3035
  813SOL    MW4 3300   1.580   3.111   1.591  0.5070  0.2310 -0.7143
  814SOL     OW 3301   1.365   3.248   1.470 -0.2376 -0.7217 -0.0037
  814SOL    HW2 3302   1.354   3.333   1.513 -1.0188 -0.2012 -1.1837
  814SOL    HW3 3303   1.445   3.212   1.508  0.5052  0.8702  0.0231
  814SOL    MW4 3304   1.374   3.255   1.480 -0.2427 -0.4427 -0.1559
  815SOL     OW 3305   1.330   3.482   1.589  0.3946  0.3221  0.0852
  815SOL    HW2 3306   1.341   3.476   1.684 -0.4421  1.1133  0.2417
  815SOL    HW3 3307   1.407   3.530   1.559  0.5846  0.2092  0.3901
  815SOL    MW4 3308   1.342   3.488   1.598  0.3092  0.4117  0.1462
  816SOL     OW 3309   1.519   3.665   1.508  0.6131  0.6793 -0.0219
  816SOL    HW2 3310   1.564   3.739   1.547  2.0756 -0.1391 -0.1104
  816SOL    HW3 3311   1.551   3.661   1.418  0.1506  0.2527 -0.1769
  816SOL    MW4 3312   1.529   3.674   1.501  0.7449  0.5150 -0.0541
  817SOL     OW 3313   1.601   3.885   1.668 -0.1897  0.2119  0.0448
  817SOL    HW2 3314   1.597   3.881   1.764 -1.0486  1.0062  0.0466
  817SOL    HW3 3315   1.519   3.927   1.642  0.5743  1.1211 -0.9648
  817SOL    MW4 3316   1.590   3.890   1.677 -0.2023  0.4368 -0.0883
  818SOL     OW 3317   1.391   3.992   1.489 -0.1296  0.0666 -0.5599
  818SOL    HW2 3318   1.382   4.083   1.515  1.6305  0.2845 -0.6080
  818SOL    HW3 3319   1.357   3.988   1.399 -0.5221  0.5973 -0.4311
  818SOL    MW4 3320   1.386   4.003   1.480  0.0508  0.1655 -0.5493
  819SOL     OW 3321   1.371   4.240   1.602  0.0423  0.1194 -0.4849
  819SOL    HW2 3322   1.445   4.284   1.560  0.7506 -1.7827 -1.3176
  819SOL    HW3 3323   1.294   4.278   1.561  0.6677 -0.0126 -1.8252
  819SOL    MW4 3324   1.371   4.251   1.591  0.2184 -0.1488 -0.7716
  820SOL     OW 3325   1.579   4.389   1.473 -0.1508 -0.1284  0.1611
  820SOL    HW2 3326   1.663   4.354   1.504  1.0745  1.5182 -1.1243
  820SOL    HW3 3327   1.568   4.470   1.523 -1.4150 -0.7833  0.9413
  820SOL    MW4 3328   1.589   4.395   1.483 -0.1558  0.0029  0.0943
  821SOL     OW 3329   2.001   4.622   1.589 -0.6022  0.1332 -0.1184
  821SOL    HW2 3330   2.001   4.623   1.685 -0.2376 -1.8313 -0.0892
  821SOL    HW3 3331   1.916   4.660   1.565 -1.2729 -0.6382  0.9999
  821SOL    MW4 3332   1.989   4.627   1.599 -0.6425 -0.2284  0.0329
  822SOL     OW 3333   1.779   0.089   1.484 -0.4263 -0.1377  0.2434
  822SOL    HW2 3334   1.699   0.048   1.519 -0.2928  0.3330  1.1026
  822SOL    HW3 3335   1.767   0.087   1.389 -1.0682 -0.8664  0.3310
  822SOL    MW4 3336   1.767   0.083   1.476 -0.4933 -0.1717  0.3684
  823SOL     OW 3337   1.767   0.350   1.597 -0.0112  0.8859 -0.2324
  823SOL    HW2 3338   1.842   0.404   1.571 -1.1392  2.2204 -0.7859
  823SOL    HW3 3339   1.775   0.271   1.544  1.3712  0.7275  0.1998
  823SOL    MW4 3340   1.778   0.346   1.587  0.0224  1.0411 -0.2484
  824SOL     OW 3341   1.996   0.526   1.527  0.5298 -0.3516  0.1323
  824SOL    HW2 3342   2.079   0.479   1.538  0.9389  0.5546  1.0117
  824SOL    HW3 3343   2.017   0.616   1.550 -0.3999  0.1431 -0.9204
  824SOL    MW4 3344   2.010   0.531   1.532  0.4611 -0.1668  0.1094
  825SOL     OW 3345   2.010   0.787   1.640  0.2884  0.0952 -0.2330
  825SOL    HW2 3346   2.095   0.818   1.607  1.1458  0.0878  1.8991
  825SOL    HW3 3347   1.946   0.834   1.586  1.6284  0.8505 -1.2168
  825SOL    MW4 3348   2.013   0.798   1.628  0.5782  0.1938 -0.0815
  826SOL     OW 3349   1.791   0.931   1.503 -0.3757 -0.2350  0.2880
  826SOL    HW2 3350   1.773   1.011   1.552 -0.7839 -0.9116  1.2785
  826SOL    HW3 3351   1.719   0.872   1.526 -1.6105  0.0766 -2.6546
  826SOL    MW4 3352   1.779   0.934   1.513 -0.5925 -0.2832  0.0304
  827SOL     OW 3353   1.765   1.166   1.631 -0.1367  0.4299  0.2222
  827SOL    HW2 3354   1.833   1.222   1.593 -1.0007  2.1972  1.1870
  827SOL    HW3 3355   1.683   1.210   1.607 -0.8717 -0.8800  0.3185
  827SOL    MW4 3356   1.763   1.179   1.623 -0.3476  0.4903  0.3623
  828SOL     OW 3357   1.989   1.265   1.507 -0.0336  0.2014 -0.3015
  828SOL    HW2 3358   2.000   1.352   1.546 -2.1579  0.4273 -0.1644
  828SOL    HW3 3359   1.990   1.281   1.412  0.7109  0.2199 -0.2940
  828SOL    MW4 3360   1.991   1.278   1.499 -0.2158  0.2335 -0.2824
  829SOL     OW 3361   2.033   1.521   1.616 -0.2961 -0.0630 -0.0786
  829SOL    HW2 3362   2.106   1.573   1.583 -0.1794  0.1003  0.4270
  829SOL    HW3 3363   1.956   1.574   1.596 -0.1624  0.3875  0.5876
  829SOL    MW4 3364   2.032   1.535   1.609 -0.2630  0.0179  0.0759
  830SOL     OW 3365   1.787   1.660   1.540  0.3090  0.0395 -0.3074
  830SOL    HW2 3366   1.704   1.615   1.556  0.6631 -0.0851  1.3060
  830SOL    HW3 3367   1.810   1.637   1.450 -0.1743 -1.9682  0.0612
  830SOL    MW4 3368   1.779   1.651   1.530  0.2919 -0.2419 -0.0460
  831SOL     OW 3369   1.789   1.913   1.636 -0.1991 -0.2571 -0.3668
  831SOL    HW2 3370   1.785   1.822   1.606  2.2355 -0.3011 -0.7026
  831SOL    HW3 3371   1.711   1.954   1.599  1.3498 -0.9384 -4.7909
  831SOL    MW4 3372   1.778   1.907   1.627  0.3264 -0.3529 -0.9949
  832SOL     OW 3373   1.991   2.083   1.526  0.3035  0.4275  0.1207
  832SOL    HW2 3374   2.079   2.051   1.546  0.4374 -0.7390 -2.2251
  832SOL    HW3 3375   1.933   2.015   1.561  0.3553  0.6335  0.6210
  832SOL    MW4 3376   1.995   2.070   1.533  0.3279  0.3006 -0.1228
  833SOL     OW 3377   1.996   2.361   1.611  0.1344  0.1344  0.2667
  833SOL    HW2 3378   2.021   2.353   1.703 -0.1272  0.6111  0.3831
  833SOL    HW3 3379   1.978   2.271   1.583  1.6517 -0.1786  0.2634
  833SOL    MW4 3380   1.997   2.348   1.619  0.3000  0.1562  0.2817
  834SOL     OW 3381   1.762   2.462   1.498  0.0438  0.1461 -0.0494
  834SOL    HW2 3382   1.844   2.428   1.533  0.7645  1.4986 -0.3765
  834SOL    HW3 3383   1.771   2.455   1.403 -0.6758 -0.7252 -0.0587
  834SOL    MW4 3384   1.774   2.457   1.491  0.0440  0.2096 -0.0938
  835SOL     OW 3385   1.738   2.744   1.595 -0.0595  0.5970  0.0171
  835SOL    HW2 3386   1.816   2.789   1.563  0.3666 -0.3313 -0.2714
  835SOL    HW3 3387   1.741   2.657   1.554 -0.8813  0.3107  0.5369
  835SOL    MW4 3388   1.749   2.738   1.585 -0.1117  0.4370  0.0478
  836SOL     OW 3389   1.991   2.878   1.486  0.0870 -0.1766  0.1934
  836SOL    HW2 3390   2.011   2.966   1.518 -0.2368  0.0572 -0.2410
  836SOL    HW3 3391   2.007   2.883   1.392  0.5973 -0.7340  0.2512
  836SOL    MW4 3392   1.996   2.890   1.478  0.1113 -0.2191  0.1438
  837SOL     OW 3393   2.010   3.136   1.593  0.0380 -0.0733 -0.2740
  837SOL    HW2 3394   2.001   3.139   1.689  1.1760 -1.1720 -0.1245
  837SOL    HW3 3395   2.101   3.160   1.577 -0.1802  0.2065 -1.1055
  837SOL    MW4 3396   2.021   3.140   1.604  0.1593 -0.1814 -0.3639
  838SOL     OW 3397   1.788   3.226   1.456 -0.1912 -0.3122  0.1084
  838SOL    HW2 3398   1.766   3.310   1.496 -0.0241  0.1026 -0.6635
  838SOL    HW3 3399   1.872   3.202   1.495 -0.7381 -0.6321  1.1057
  838SOL    MW4 3400   1.796   3.234   1.466 -0.2413 -0.2997  0.1379
  839SOL     OW 3401   1.754   3.504   1.584  0.2026  0.2394 -0.0243
  839SOL    HW2 3402   1.750   3.511   1.679 -1.0818  0.9100 -0.1161
  839SOL    HW3 3403   1.691   3.568   1.553  1.7294  1.1134 -1.3721
  839SOL    MW4 3404   1.745   3.513   1.593  0.2345  0.4430 -0.2142
  840SOL     OW 3405   2.019   3.613   1.518  0.1808  0.1342 -0.4993
  840SOL    HW2 3406   2.089   3.552   1.545 -1.0242 -1.0335  0.0567
  840SOL    HW3 3407   1.938   3.569   1.545 -0.7847  1.3288 -1.4216
  840SOL    MW4 3408   2.018   3.599   1.525 -0.1054  0.1376 -0.5475
  841SOL     OW 3409   1.994   3.867   1.639 -0.3777  0.5794  0.1538
  841SOL    HW2 3410   2.082   3.900   1.620  0.5004 -0.1691  2.7235
  841SOL    HW3 3411   1.989   3.784   1.592  0.5466  0.3041  0.5303
  841SOL    MW4 3412   2.005   3.861   1.630 -0.1397  0.4444  0.5425
  842SOL     OW 3413   1.790   3.988   1.476 -0.4446  0.1270 -0.2773
  842SOL    HW2 3414   1.868   3.961   1.526  0.3798  2.6967 -0.0693
  842SOL    HW3 3415   1.716   3.957   1.528  0.4153 -2.1746 -0.3722
  842SOL    MW4 3416   1.791   3.980   1.490 -0.2223  0.1624 -0.2623
  843SOL     OW 3417   1.770   4.238   1.614 -0.6746 -0.2802  0.2682
  843SOL    HW2 3418   1.859   4.270   1.595 -0.6955  1.1516  2.4168
  843SOL    HW3 3419   1.770   4.148   1.581  1.0935  0.1956 -1.1244
  843SOL    MW4 3420   1.782   4.230   1.607 -0.4441 -0.0281  0.3680
  844SOL     OW 3421   2.020   4.358   1.512 -0.0864  0.0753  0.0241
  844SOL    HW2 3422   2.097   4.319   1.554  0.1758  0.6433  0.0833
  844SOL    HW3 3423   2.020   4.449   1.542 -1.7969 -0.3678  1.4312
  844SOL    MW4 3424   2.031   4.365   1.521 -0.2778  0.0920  0.2176
  845SOL     OW 3425   2.438   4.621   1.608 -0.0826 -0.4732 -0.1337
  845SOL    HW2 3426   2.453   4.631   1.702 -1.2237  0.5192 -0.0403
  845SOL    HW3 3427   2.356   4.668   1.592 -0.8279 -2.1159 -1.3163
  845SOL    MW4 3428   2.429   4.629   1.619 -0.3316 -0.5584 -0.2775
  846SOL     OW 3429   2.216   0.109   1.518 -0.0486 -0.0535  0.2471
  846SOL    HW2 3430   2.139   0.055   1.534  0.8098 -1.1273  0.7453
  846SOL    HW3 3431   2.227   0.107   1.423 -0.5122 -0.0557  0.1897
  846SOL    MW4 3432   2.207   0.102   1.507  0.0036 -0.1955  0.3052
  847SOL     OW 3433   2.232   0.376   1.592 -0.1069 -0.3100 -0.0534
  847SOL    HW2 3434   2.236   0.379   1.688 -1.7998 -0.0335  0.0205
  847SOL    HW3 3435   2.223   0.283   1.571  3.7796 -0.7549 -0.1396
  847SOL    MW4 3436   2.232   0.364   1.602  0.1824 -0.3322 -0.0550
  848SOL     OW 3437   2.455   0.505   1.528  0.0428 -0.4758 -0.5232
  848SOL    HW2 3438   2.524   0.443   1.550 -0.3304 -0.4074  0.9104
  848SOL    HW3 3439   2.374   0.463   1.558 -0.2872  0.3981 -0.1604
  848SOL    MW4 3440   2.453   0.491   1.535 -0.0498 -0.3515 -0.2861
  849SOL     OW 3441   2.486   0.778   1.596 -0.3787  0.0282  0.2627
  849SOL    HW2 3442   2.403   0.800   1.552 -0.3633 -0.0251  0.2086
  849SOL    HW3 3443   2.507   0.690   1.566 -0.6427 -0.2166  0.7851
  849SOL    MW4 3444   2.478   0.770   1.587 -0.4117 -0.0111  0.3245
  850SOL     OW 3445   2.244   0.897   1.519  0.2924  0.5394  0.4493
  850SOL    HW2 3446   2.251   0.983   1.560 -0.6668  0.5780  0.5429
  850SOL    HW3 3447   2.244   0.915   1.425  2.9056  0.4214  0.3781
  850SOL    MW4 3448   2.245   0.911   1.512  0.5107  0.5289  0.4523
  851SOL     OW 3449   2.240   1.169   1.591 -0.1139 -0.3093  0.3798
  851SOL    HW2 3450   2.225   1.163   1.685 -1.4654  2.2507  0.3743
  851SOL    HW3 3451   2.155   1.195   1.555  0.4975 -0.8489 -1.5081
  851SOL    MW4 3452   2.227   1.172   1.598 -0.2115 -0.0427  0.1299
  852SOL     OW 3453   2.473   1.333   1.514  0.2017 -0.1667 -0.2458
  852SOL    HW2 3454   2.405   1.272   1.545  0.6656 -0.9465 -0.7292
  852SOL    HW3 3455   2.465   1.329   1.418  0.6587  0.0463 -0.2917
  852SOL    MW4 3456   2.463   1.324   1.505  0.3233 -0.2416 -0.3157
  853SOL     OW 3457   2.473   1.591   1.615 -0.2559 -0.1523 -0.2126
  853SOL    HW2 3458   2.557   1.630   1.592  0.3308  0.0408  2.1367
  853SOL    HW3 3459   2.481   1.500   1.585  0.6756 -0.0584 -0.2784
  853SOL    MW4 3460   2.485   1.584   1.608 -0.0553 -0.1146  0.0886
  854SOL     OW 3461   2.223   1.690   1.506  0.4538  0.0022 -0.4658
  854SOL    HW2 3462   2.307   1.667   1.545  0.5606  1.0611 -0.0554
  854SOL    HW3 3463   2.236   1.677   1.412  0.4526 -1.7421 -0.2447
  854SOL    MW4 3464   2.236   1.685   1.499  0.4678 -0.0881 -0.3825
  855SOL     OW 3465   2.227   1.969   1.576  0.0407 -0.0908  0.3603
  855SOL    HW2 3466   2.238   1.959   1.670 -1.0208 -1.6365  0.3415
  855SOL    HW3 3467   2.213   1.879   1.544 -1.7079  0.6249 -0.9802
  855SOL    MW4 3468   2.227   1.956   1.584 -0.3300 -0.2003  0.1808
  856SOL     OW 3469   2.470   2.067   1.485 -0.0232 -0.1487 -0.0349
  856SOL    HW2 3470   2.385   2.026   1.505 -0.8086  0.8087 -1.2883
  856SOL    HW3 3471   2.481   2.053   1.391 -0.4023  2.6412 -0.5446
  856SOL    MW4 3472   2.460   2.060   1.475 -0.1767  0.3457 -0.2675
  857SOL     OW 3473   2.461   2.325   1.576  0.4753 -0.2472  0.0914
  857SOL    HW2 3474   2.459   2.318   1.671  0.0759 -1.0677  0.0312
  857SOL    HW3 3475   2.463   2.234   1.545  1.9610  0.0391 -0.6656
  857SOL    MW4 3476   2.461   2.312   1.584  0.6187 -0.3178 -0.0162
  858SOL     OW 3477   2.220   2.476   1.491 -0.0121  0.0099  0.1123
  858SOL    HW2 3478   2.288   2.424   1.532 -0.6892 -0.0784  1.1198
  858SOL    HW3 3479   2.139   2.448   1.533 -0.4047  1.7214  0.5178
  858SOL    MW4 3480   2.218   2.466   1.502 -0.1531  0.2239  0.2987
  859SOL     OW 3481   2.252   2.721   1.584 -0.3425 -0.1660 -0.1460
  859SOL    HW2 3482   2.239   2.631   1.553  0.0324 -0.4041  0.3779
  859SOL    HW3 3483   2.171   2.766   1.561 -0.6131 -0.6918 -0.2340
  859SOL    MW4 3484   2.239   2.715   1.577 -0.3288 -0.2668 -0.0886
  860SOL     OW 3485   2.507   2.834   1.527 -0.0661  0.5763  0.2097
  860SOL    HW2 3486   2.512   2.913   1.582  1.2897 -0.2677  1.3606
  860SOL    HW3 3487   2.417   2.804   1.536 -0.1451  1.0576  1.1146
  860SOL    MW4 3488   2.496   2.841   1.536  0.1023  0.5286  0.4809
  861SOL     OW 3489   2.516   3.084   1.656  0.0835 -0.2671  0.3440
  861SOL    HW2 3490   2.572   3.135   1.596 -0.2026 -2.2484 -1.6536
  861SOL    HW3 3491   2.428   3.118   1.640  0.1607  0.0240  0.5212
  861SOL    MW4 3492   2.512   3.095   1.646  0.0558 -0.4902  0.1038
  862SOL     OW 3493   2.275   3.203   1.543  0.1572  0.3792 -0.0529
  862SOL    HW2 3494   2.258   3.297   1.551 -0.7447  0.2476 -0.4324
  862SOL    HW3 3495   2.289   3.188   1.450  1.1806  0.2779  0.1073
  862SOL    MW4 3496   2.274   3.213   1.532  0.1733  0.3486 -0.0819
  863SOL     OW 3497   2.235   3.461   1.594 -0.0982  0.1669  0.1443
  863SOL    HW2 3498   2.228   3.475   1.689  1.2785  0.1677  0.2509
  863SOL    HW3 3499   2.294   3.529   1.564 -1.0826  0.6081 -0.8454
  863SOL    MW4 3500   2.242   3.472   1.603 -0.0465  0.2255  0.0278
  864SOL     OW 3501   2.430   3.660   1.531 -0.5912 -0.0418  0.1808
  864SOL    HW2 3502   2.508   3.613   1.561 -0.6864  0.4903  1.2961
  864SOL    HW3 3503   2.438   3.747   1.570 -0.9361  0.5393 -1.0302
  864SOL    MW4 3504   2.441   3.665   1.540 -0.6492  0.1054  0.1681
  865SOL     OW 3505   2.470   3.904   1.675 -0.0716  0.2194 -0.2578
  865SOL    HW2 3506   2.490   3.893   1.768  0.8688 -0.9883 -0.5941
  865SOL    HW3 3507   2.546   3.950   1.639 -0.0600 -0.0475 -0.5799
  865SOL    MW4 3508   2.483   3.908   1.683  0.0539  0.0246 -0.3446
  866SOL     OW 3509   2.220   3.990   1.542 -0.3821 -0.1532 -0.6216
  866SOL    HW2 3510   2.299   3.946   1.574  0.8461  1.1087 -1.8871
  866SOL    HW3 3511   2.228   3.988   1.447 -1.6866  0.3411 -0.7507
  866SOL    MW4 3512   2.231   3.984   1.534 -0.3922  0.0787 -0.8055
  867SOL     OW 3513   2.256   4.246   1.638  0.1466 -0.0661  0.0862
  867SOL    HW2 3514   2.340   4.269   1.598  0.3884 -0.2525  0.4844
  867SOL    HW3 3515   2.242   4.155   1.613  1.0008 -0.6370  1.6224
  867SOL    MW4 3516   2.266   4.237   1.629  0.2911 -0.1659  0.3414
  868SOL     OW 3517   2.476   4.371   1.486  0.1380  0.1966  0.3983
  868SOL    HW2 3518   2.443   4.444   1.539 -1.3462 -0.4037  0.3248
  868SOL    HW3 3519   2.475   4.404   1.396  0.3276  0.3989  0.4720
  868SOL    MW4 3520   2.471   4.385   1.481 -0.0329  0.1445  0.3983
  869SOL     OW 3521   2.957   0.036   1.633 -0.3168  0.4665 -0.0224
  869SOL    HW2 3522   2.941   0.032   1.727 -0.2029  0.2276 -0.0123
  869SOL    HW3 3523   2.871   0.056   1.595 -0.3432  0.6573  0.1385
  869SOL    MW4 3524   2.944   0.038   1.640 -0.3049  0.4601  0.0002
  870SOL     OW 3525   2.678   0.094   1.556  0.0212 -0.0482  0.2461
  870SOL    HW2 3526   2.664   0.179   1.598 -3.5902  0.2025 -1.2907
  870SOL    HW3 3527   2.603   0.041   1.582  0.9647 -1.9501 -0.8061
  870SOL    MW4 3528   2.666   0.098   1.565 -0.3307 -0.2661 -0.0955
  871SOL     OW 3529   2.677   0.380   1.628 -0.2097  0.3746  0.3213
  871SOL    HW2 3530   2.659   0.393   1.721 -2.6815 -0.2397 -0.0228
  871SOL    HW3 3531   2.758   0.428   1.612  0.2248  0.5210  2.7727
  871SOL    MW4 3532   2.685   0.388   1.638 -0.4785  0.3129  0.5993
  872SOL     OW 3533   2.912   0.482   1.530  0.2872  0.1149 -0.4335
  872SOL    HW2 3534   2.944   0.569   1.555 -1.1397  0.4781  0.1573
  872SOL    HW3 3535   2.895   0.489   1.436 -0.7910  0.7703 -0.1837
  872SOL    MW4 3536   2.914   0.494   1.521 -0.0429  0.2493 -0.3227
  873SOL     OW 3537   2.914   0.760   1.623  0.1370  0.2738  0.0901
  873SOL    HW2 3538   2.921   0.750   1.718  0.4500  0.3450  0.0759
  873SOL    HW3 3539   2.838   0.816   1.610  0.2190  0.4375  0.3097
  873SOL    MW4 3540   2.905   0.766   1.634  0.1888  0.3049  0.1173
  874SOL     OW 3541   2.712   0.941   1.521 -0.1609 -0.2521 -0.5298
  874SOL    HW2 3542   2.627   0.900   1.536 -0.1825 -0.1103 -0.2522
  874SOL    HW3 3543   2.735   0.918   1.431 -0.5734 -0.1476 -0.6640
  874SOL    MW4 3544   2.704   0.933   1.511 -0.2186 -0.2195 -0.5111
  875SOL     OW 3545   2.686   1.202   1.626  0.2324  0.0492 -0.4528
  875SOL    HW2 3546   2.690   1.112   1.594 -0.1208  0.5384 -1.9021
  875SOL    HW3 3547   2.621   1.245   1.570 -0.0665  1.0469  0.6332
  875SOL    MW4 3548   2.678   1.196   1.614  0.1464  0.2455 -0.5008
  876SOL     OW 3549   2.905   1.260   1.478 -0.4516 -0.9319 -0.0771
  876SOL    HW2 3550   2.968   1.223   1.540  0.3627 -2.2506 -1.6786
  876SOL    HW3 3551   2.820   1.225   1.506 -0.0935 -1.5309  0.2628
  876SOL    MW4 3552   2.902   1.251   1.490 -0.2968 -1.1849 -0.2434
  877SOL     OW 3553   2.939   1.521   1.574 -0.0477 -0.3648 -0.0230
  877SOL    HW2 3554   2.855   1.563   1.559  0.9632  1.7167  0.0095
  877SOL    HW3 3555   2.927   1.432   1.541 -2.2866 -0.1415  0.0914
  877SOL    MW4 3556   2.926   1.515   1.568 -0.2098 -0.0608 -0.0036
  878SOL     OW 3557   2.721   1.669   1.501  0.1549  0.6373 -0.1169
  878SOL    HW2 3558   2.713   1.757   1.537  0.1995  0.2065  0.9670
  878SOL    HW3 3559   2.699   1.678   1.409  0.4855  1.8416 -0.0793
  878SOL    MW4 3560   2.717   1.682   1.494  0.2046  0.7393  0.0310
  879SOL     OW 3561   2.720   1.941   1.580 -0.1311 -0.1736  0.2534
  879SOL    HW2 3562   2.721   1.950   1.675  0.5282  0.7730  0.1675
  879SOL    HW3 3563   2.651   2.001   1.551 -0.4507 -0.5914  0.1478
  879SOL    MW4 3564   2.711   1.950   1.588 -0.0863 -0.1040  0.2280
  880SOL     OW 3565   2.934   2.018   1.452 -0.2181  0.3520 -0.1914
  880SOL    HW2 3566   2.959   2.104   1.487  0.1846  0.3881 -0.5661
  880SOL    HW3 3567   2.856   1.994   1.502  0.6731  0.1481  1.1263
  880SOL    MW4 3568   2.927   2.026   1.463 -0.0474  0.3300 -0.0669
  881SOL     OW 3569   2.954   2.298   1.550  0.2174 -0.4268 -0.2425
  881SOL    HW2 3570   2.958   2.325   1.641 -0.8933 -1.6753  0.1810
  881SOL    HW3 3571   2.872   2.336   1.517 -0.4625 -1.7793 -0.1230
  881SOL    MW4 3572   2.944   2.307   1.557 -0.0193 -0.7699 -0.1708
  882SOL     OW 3573   2.715   2.421   1.505 -0.4264 -0.1965  0.1042
  882SOL    HW2 3574   2.705   2.514   1.525 -1.3505  0.4617 -3.0433
  882SOL    HW3 3575   2.630   2.382   1.525 -0.2243 -0.2494  0.8596
  882SOL    MW4 3576   2.702   2.428   1.510 -0.5217 -0.1166 -0.2115
  883SOL     OW 3577   2.720   2.674   1.588  0.2582 -0.0745  0.2778
  883SOL    HW2 3578   2.801   2.722   1.570 -0.0379  0.5579  0.6336
  883SOL    HW3 3579   2.650   2.733   1.560 -0.0811 -0.7080 -0.2439
  883SOL    MW4 3580   2.721   2.688   1.582  0.1745 -0.0744  0.2561
  884SOL     OW 3581   2.950   2.858   1.512  0.0848  0.4186  0.4423
  884SOL    HW2 3582   3.024   2.830   1.566 -0.3470  0.1694  0.8995
  884SOL    HW3 3583   2.948   2.953   1.522  0.4885  0.4483  0.2450
  884SOL    MW4 3584   2.960   2.867   1.520  0.0813  0.3898  0.4766
  885SOL     OW 3585   2.936   3.129   1.582  0.2773 -0.1921 -0.4029
  885SOL    HW2 3586   2.939   3.130   1.677 -0.7812  0.5008 -0.3669
  885SOL    HW3 3587   3.019   3.167   1.555  0.2136  0.4423  0.2670
  885SOL    MW4 3588   2.947   3.135   1.591  0.1290 -0.0167 -0.3098
  886SOL     OW 3589   2.691   3.247   1.504 -0.2282 -0.0258  0.1684
  886SOL    HW2 3590   2.773   3.205   1.532 -0.6553 -0.3243  0.9764
  886SOL    HW3 3591   2.702   3.259   1.409  0.5816 -0.4486  0.2018
  886SOL    MW4 3592   2.703   3.243   1.495 -0.1776 -0.1211  0.2794
  887SOL     OW 3593   2.678   3.532   1.625  0.3986 -0.4780 -0.1116
  887SOL    HW2 3594   2.687   3.522   1.720 -0.1139 -0.5075 -0.0658
  887SOL    HW3 3595   2.665   3.443   1.592  0.1976 -0.4279 -0.1680
  887SOL    MW4 3596   2.678   3.519   1.633  0.3047 -0.4754 -0.1130
  888SOL     OW 3597   2.911   3.646   1.543  0.0055 -0.0666  0.0623
  888SOL    HW2 3598   2.830   3.607   1.574  0.1906 -1.3707 -1.0803
  888SOL    HW3 3599   2.898   3.658   1.449  1.0595 -0.0987 -0.0953
  888SOL    MW4 3600   2.899   3.643   1.534  0.1690 -0.2429 -0.1093
  889SOL     OW 3601   2.890   3.871   1.683 -0.0519  0.1118 -0.3268
  889SOL    HW2 3602   2.811   3.910   1.645 -1.7050 -0.4635  2.3644
  889SOL    HW3 3603   2.897   3.785   1.642 -0.7539  0.2279 -0.6926
  889SOL    MW4 3604   2.881   3.865   1.673 -0.3624  0.0513 -0.0200
  890SOL     OW 3605   2.693   4.039   1.531 -0.6426  0.1348 -0.5573
  890SOL    HW2 3606   2.689   4.131   1.557 -2.3542  0.1660 -0.8853
  890SOL    HW3 3607   2.688   4.041   1.436  3.7760 -0.0854 -0.9124
  890SOL    MW4 3608   2.692   4.051   1.522 -0.2854  0.1101 -0.6474
  891SOL     OW 3609   2.689   4.306   1.636  0.6143  0.0226 -0.2107
  891SOL    HW2 3610   2.762   4.356   1.599  0.5952 -0.4478 -0.8897
  891SOL    HW3 3611   2.614   4.328   1.581  0.1535  0.8184  0.7369
  891SOL    MW4 3612   2.689   4.315   1.624  0.5512  0.0658 -0.1754
  892SOL     OW 3613   2.926   4.445   1.501 -0.2676  0.0991 -0.1955
  892SOL    HW2 3614   2.943   4.532   1.536 -1.6601  0.4957 -0.4634
  892SOL    HW3 3615   2.910   4.460   1.407 -0.4012 -0.4558 -0.2631
  892SOL    MW4 3616   2.926   4.459   1.493 -0.4690  0.0777 -0.2397
  893SOL     OW 3617   3.389   4.664   1.636  0.1346  0.0527  0.3655
  893SOL    HW2 3618   3.459   4.703   1.584  0.4049 -0.1625  0.5690
  893SOL    HW3 3619   3.387   4.573   1.608 -1.9421  0.6775 -1.7033
  893SOL    MW4 3620   3.398   4.657   1.626 -0.1037  0.1073  0.1194
  894SOL     OW 3621   3.185   0.085   1.494 -0.7777  0.1655 -0.6520
  894SOL    HW2 3622   3.263   0.060   1.543 -0.6453  1.3566 -0.2502
  894SOL    HW3 3623   3.113   0.070   1.555 -0.7214  0.5310 -0.4955
  894SOL    MW4 3624   3.186   0.080   1.508 -0.7527  0.3709 -0.5784
  895SOL     OW 3625   3.154   0.353   1.600  0.0752  0.4421  0.1544
  895SOL    HW2 3626   3.170   0.268   1.561 -2.1985  0.2062 -0.2945
  895SOL    HW3 3627   3.063   0.374   1.579 -0.2577  1.7362  2.6111
  895SOL    MW4 3628   3.144   0.345   1.592 -0.2685  0.5817  0.4193
  896SOL     OW 3629   3.355   0.545   1.510  0.1073  0.3564  0.2484
  896SOL    HW2 3630   3.288   0.488   1.547 -0.2105  0.6531  0.1251
  896SOL    HW3 3631   3.340   0.542   1.416 -1.1165  2.1583  0.3715
  896SOL    MW4 3632   3.344   0.537   1.503 -0.0963  0.6333  0.2484
  897SOL     OW 3633   3.351   0.808   1.625  0.1545  0.0110 -0.2302
  897SOL    HW2 3634   3.375   0.796   1.717 -1.3381 -0.3710  0.1203
  897SOL    HW3 3635   3.346   0.719   1.589 -0.5935  0.0838 -0.3239
  897SOL    MW4 3636   3.353   0.795   1.632 -0.1411 -0.0297 -0.1962
  898SOL     OW 3637   3.113   0.915   1.532  0.2145  0.2265 -0.2123
  898SOL    HW2 3638   3.195   0.870   1.552 -0.3436 -0.9653 -0.5549
  898SOL    HW3 3639   3.045   0.858   1.567 -0.4957  0.9378 -0.4245
  898SOL    MW4 3640   3.115   0.901   1.539  0.0472  0.1631 -0.2854
  899SOL     OW 3641   3.127   1.171   1.639  0.0602 -0.5514 -0.4331
  899SOL    HW2 3642   3.134   1.184   1.733  0.8366 -1.2050 -0.4036
  899SOL    HW3 3643   3.128   1.076   1.627 -0.2072 -0.4780 -1.0886
  899SOL    MW4 3644   3.128   1.160   1.650  0.1276 -0.6280 -0.5156
  900SOL     OW 3645   3.352   1.296   1.546  0.0444  0.2210 -0.2353
  900SOL    HW2 3646   3.426   1.254   1.590  0.0079  0.6196  0.2030
  900SOL    HW3 3647   3.276   1.246   1.575  0.2104 -0.6522 -1.2533
  900SOL    MW4 3648   3.352   1.284   1.556  0.0613  0.1584 -0.3117
  901SOL     OW 3649   3.376   1.564   1.625 -0.2669 -0.4631  0.0644
  901SOL    HW2 3650   3.375   1.570   1.720 -0.5206  0.7976 -0.0103
  901SOL    HW3 3651   3.363   1.471   1.606  1.4988 -0.9840  1.2889
  901SOL    MW4 3652   3.374   1.553   1.635 -0.0675 -0.3655  0.2160
  902SOL     OW 3653   3.162   1.649   1.482 -0.1206 -0.1335 -0.3343
  902SOL    HW2 3654   3.242   1.619   1.525  0.0410  0.4458 -0.2250
  902SOL    HW3 3655   3.093   1.592   1.517  0.0787  0.0464  0.3672
  902SOL    MW4 3656   3.163   1.638   1.493 -0.0732 -0.0331 -0.2273
  903SOL     OW 3657   3.124   1.900   1.598 -0.0724 -0.5858 -0.2656
  903SOL    HW2 3658   3.133   1.816   1.552  0.7434  0.2962 -1.7561
  903SOL    HW3 3659   3.050   1.942   1.554  0.4863  0.1194 -0.5253
  903SOL    MW4 3660   3.115   1.894   1.586  0.1092 -0.3765 -0.4965
  904SOL     OW 3661   3.332   2.066   1.533  0.4897  0.1445 -0.4993
  904SOL    HW2 3662   3.261   2.006   1.557  0.3998  0.3080 -0.3540
  904SOL    HW3 3663   3.345   2.051   1.439  1.2171 -0.8978 -0.2358
  904SOL    MW4 3664   3.324   2.056   1.524  0.5739  0.0284 -0.4454
  905SOL     OW 3665   3.374   2.318   1.651 -0.1791 -0.2986 -0.1624
  905SOL    HW2 3666   3.446   2.365   1.609 -0.7813  0.8001  0.0060
  905SOL    HW3 3667   3.380   2.229   1.616  0.0036  0.3132 -1.7504
  905SOL    MW4 3668   3.384   2.313   1.641 -0.2346 -0.0725 -0.3498
  906SOL     OW 3669   3.193   2.456   1.525 -0.3675 -0.5176 -0.3168
  906SOL    HW2 3670   3.256   2.403   1.574 -0.6024 -0.7502 -0.2639
  906SOL    HW3 3671   3.109   2.412   1.539 -0.2888 -1.1379 -1.6937
  906SOL    MW4 3672   3.190   2.443   1.533 -0.3881 -0.6301 -0.4914
  907SOL     OW 3673   3.202   2.717   1.585 -0.2275  0.2821  0.1861
  907SOL    HW2 3674   3.281   2.757   1.547 -0.9866  1.0848 -0.5742
  907SOL    HW3 3675   3.205   2.626   1.556 -0.3528  0.6777 -1.1189
  907SOL    MW4 3676   3.213   2.711   1.576 -0.3440  0.4404 -0.0864
  908SOL     OW 3677   3.438   2.863   1.524 -0.5508 -0.2748  0.6799
  908SOL    HW2 3678   3.391   2.942   1.551 -1.3600 -0.3949 -0.3650
  908SOL    HW3 3679   3.456   2.875   1.431 -1.4129 -1.6684  0.3089
  908SOL    MW4 3680   3.434   2.875   1.516 -0.7713 -0.4745  0.4930
  909SOL     OW 3681   3.344   3.113   1.616  0.1884  0.0621 -0.3016
  909SOL    HW2 3682   3.351   3.112   1.712 -0.1159  1.1737 -0.2613
  909SOL    HW3 3683   3.423   3.158   1.587 -0.6030  1.3622 -0.4740
  909SOL    MW4 3684   3.355   3.119   1.625  0.0439  0.3803 -0.3190
  910SOL     OW 3685   3.152   3.263   1.489  0.1991 -0.1113 -0.0824
  910SOL    HW2 3686   3.229   3.224   1.529 -0.4595 -0.5672  0.7499
  910SOL    HW3 3687   3.167   3.253   1.395  0.7583 -0.9766  0.0889
  910SOL    MW4 3688   3.164   3.256   1.482  0.1860 -0.2856  0.0498
  911SOL     OW 3689   3.136   3.490   1.630  0.5873  0.0436 -0.1809
  911SOL    HW2 3690   3.133   3.409   1.579  0.3865  0.5947 -1.0485
  911SOL    HW3 3691   3.059   3.539   1.601  0.5221  0.4022  0.5863
  911SOL    MW4 3692   3.125   3.486   1.619  0.5522  0.1636 -0.1941
  912SOL     OW 3693   3.360   3.598   1.523  0.1939  0.2051  0.2736
  912SOL    HW2 3694   3.431   3.561   1.577 -0.0468  0.1121  0.5292
  912SOL    HW3 3695   3.281   3.557   1.558  0.1036 -0.3692 -0.5950
  912SOL    MW4 3696   3.359   3.588   1.535  0.1502  0.1171  0.1926
  913SOL     OW 3697   3.355   3.882   1.635 -0.0355  0.6392 -0.4909
  913SOL    HW2 3698   3.276   3.921   1.598 -0.8285 -0.2646  0.2213
  913SOL    HW3 3699   3.346   3.788   1.619 -0.4892  0.2026  2.1294
  913SOL    MW4 3700   3.344   3.875   1.628 -0.2000  0.4625 -0.0513
  914SOL     OW 3701   3.117   3.987   1.554 -0.3642  0.5660 -0.1447
  914SOL    HW2 3702   3.121   4.082   1.565  1.6160  0.6955 -1.9011
  914SOL    HW3 3703   3.032   3.963   1.592 -1.0114  3.0541  0.0785
  914SOL    MW4 3704   3.106   3.997   1.561 -0.1884  0.9112 -0.3469
  915SOL     OW 3705   3.127   4.271   1.572  0.0804  0.1609  0.7921
  915SOL    HW2 3706   3.121   4.297   1.664 -0.3988 -0.2646  0.8895
  915SOL    HW3 3707   3.047   4.305   1.533  0.1434  0.0881  0.6003
  915SOL    MW4 3708   3.115   4.279   1.579  0.0253  0.0958  0.7797
  916SOL     OW 3709   3.362   4.411   1.509 -0.4502 -0.7092 -0.3998
  916SOL    HW2 3710   3.277   4.375   1.536 -1.7433  2.0920 -0.5258
  916SOL    HW3 3711   3.350   4.430   1.416 -0.3617  1.5004  0.0242
  916SOL    MW4 3712   3.349   4.408   1.500 -0.6092 -0.0486 -0.3605
  917SOL     OW 3713   3.823   0.004   1.625 -0.0039 -0.0054  0.3011
  917SOL    HW2 3714   3.837  -0.003   1.719 -0.3312 -1.6278  0.2363
  917SOL    HW3 3715   3.892   0.063   1.595  0.2740  0.2932  1.5102
  917SOL    MW4 3716   3.834   0.011   1.633 -0.0105 -0.1801  0.4520
  918SOL     OW 3717   3.589   0.134   1.503  0.1530 -0.1217  0.5093
  918SOL    HW2 3718   3.663   0.090   1.544  1.1887  1.3475  0.2559
  918SOL    HW3 3719   3.598   0.116   1.410 -0.3837 -0.7854  0.5840
  918SOL    MW4 3720   3.600   0.126   1.496  0.2189 -0.0155  0.4855
  919SOL     OW 3721   3.558   0.385   1.634  0.2024  0.3718  0.3293
  919SOL    HW2 3722   3.578   0.310   1.578  1.5160  0.5718  0.5047
  919SOL    HW3 3723   3.492   0.434   1.585 -0.5554 -0.8098  0.1460
  919SOL    MW4 3724   3.552   0.382   1.620  0.2759  0.2423  0.3283
  920SOL     OW 3725   3.799   0.495   1.551 -0.5410 -0.3838  0.0147
  920SOL    HW2 3726   3.715   0.456   1.576 -0.7869  0.1170 -0.0056
  920SOL    HW3 3727   3.804   0.484   1.456  0.4908 -2.4776  0.3047
  920SOL    MW4 3728   3.789   0.489   1.542 -0.4373 -0.5940  0.0503
  921SOL     OW 3729   3.840   0.769   1.654 -0.2564 -0.2345  0.0009
  921SOL    HW2 3730   3.756   0.800   1.621 -0.8322 -0.0715  1.5561
  921SOL    HW3 3731   3.832   0.673   1.656 -0.7638 -0.1756  1.0409
  921SOL    MW4 3732   3.828   0.760   1.650 -0.3996 -0.2053  0.3433
  922SOL     OW 3733   3.593   0.904   1.531 -0.2642 -0.0620 -0.1577
  922SOL    HW2 3734   3.505   0.881   1.561  0.1820 -1.6452 -0.0315
  922SOL    HW3 3735   3.589   0.896   1.436 -0.1254 -0.6392 -0.1180
  922SOL    MW4 3736   3.581   0.900   1.523 -0.1869 -0.3470 -0.1358
  923SOL     OW 3737   3.616   1.164   1.639  0.0811  0.3197 -0.6401
  923SOL    HW2 3738   3.684   1.207   1.587 -0.5914  1.4548 -0.5952
  923SOL    HW3 3739   3.615   1.074   1.607  1.0740  0.4881 -1.1712
  923SOL    MW4 3740   3.625   1.158   1.628  0.1230  0.4919 -0.7043
  924SOL     OW 3741   3.816   1.311   1.514  0.1719 -0.0562  0.4705
  924SOL    HW2 3742   3.893   1.263   1.543  0.0572 -0.6641 -0.1971
  924SOL    HW3 3743   3.817   1.392   1.564  1.2760 -0.0357  0.4190
  924SOL    MW4 3744   3.826   1.315   1.524  0.3023 -0.1338  0.3757
  925SOL     OW 3745   3.834   1.564   1.634  0.3370  0.1288  0.3291
  925SOL    HW2 3746   3.832   1.570   1.730  1.4316 -0.1110  0.3797
  925SOL    HW3 3747   3.753   1.605   1.605  0.3559  0.8871  1.3308
  925SOL    MW4 3748   3.823   1.570   1.643  0.4840  0.1972  0.4680
  926SOL     OW 3749   3.607   1.684   1.529  0.3707  0.4722  0.3114
  926SOL    HW2 3750   3.529   1.639   1.564  1.6501 -1.4326  0.8166
  926SOL    HW3 3751   3.589   1.693   1.435 -0.5853  0.3182  0.4737
  926SOL    MW4 3752   3.594   1.679   1.521  0.4134  0.2006  0.3995
  927SOL     OW 3753   3.571   1.948   1.608  0.0270  0.6808  0.3440
  927SOL    HW2 3754   3.578   1.857   1.581 -0.3477  0.9974 -0.8401
  927SOL    HW3 3755   3.477   1.966   1.607  0.1021  1.0929  0.5643
  927SOL    MW4 3756   3.560   1.938   1.604 -0.0126  0.7769  0.2167
  928SOL     OW 3757   3.797   2.068   1.536  0.2285 -0.2206  0.0530
  928SOL    HW2 3758   3.782   2.156   1.570 -1.5503 -0.8406  0.9409
  928SOL    HW3 3759   3.716   2.021   1.555  0.4706 -1.5411 -2.0631
  928SOL    MW4 3760   3.784   2.073   1.543  0.0255 -0.4766 -0.1091
  929SOL     OW 3761   3.798   2.343   1.622 -0.1902 -0.0555  0.2778
  929SOL    HW2 3762   3.822   2.336   1.714  0.7145  0.1469  0.0588
  929SOL    HW3 3763   3.873   2.385   1.580 -0.2296 -0.9233 -0.7001
  929SOL    MW4 3764   3.811   2.348   1.628 -0.0763 -0.1433  0.1199
  930SOL     OW 3765   3.573   2.450   1.524  0.2984 -0.1182 -0.3168
  930SOL    HW2 3766   3.584   2.541   1.551  0.1353  0.9486 -3.6189
  930SOL    HW3 3767   3.644   2.403   1.568 -0.7719  1.2112  2.9428
  930SOL    MW4 3768   3.584   2.456   1.534  0.1357  0.1981 -0.3225
  931SOL     OW 3769   3.628   2.698   1.633  0.2903 -0.3644 -0.0110
  931SOL    HW2 3770   3.623   2.692   1.728  0.2187 -1.4554 -0.0737
  931SOL    HW3 3771   3.556   2.755   1.608  0.3973  0.0368  0.6053
  931SOL    MW4 3772   3.618   2.704   1.642  0.2952 -0.4554  0.0622
  932SOL     OW 3773   3.846   2.846   1.520 -0.1272 -0.2274 -0.5850
  932SOL    HW2 3774   3.927   2.818   1.562 -0.9413 -0.5445  0.8070
  932SOL    HW3 3775   3.778   2.795   1.563 -1.0250 -0.3208 -2.0792
  932SOL    MW4 3776   3.848   2.836   1.531 -0.3531 -0.2816 -0.5984
  933SOL     OW 3777   3.795   3.108   1.578  0.4919  0.0382  0.2223
  933SOL    HW2 3778   3.877   3.147   1.548  0.0503  0.9507  0.1784
  933SOL    HW3 3779   3.800   3.016   1.552  2.3340 -0.3723  1.9215
  933SOL    MW4 3780   3.806   3.101   1.571  0.6769  0.1047  0.4407
  934SOL     OW 3781   3.559   3.236   1.511  0.4088 -0.2332  0.0515
  934SOL    HW2 3782   3.635   3.180   1.529  1.2773  0.6195 -0.9373
  934SOL    HW3 3783   3.566   3.256   1.418 -0.4744  0.6753  0.1801
  934SOL    MW4 3784   3.570   3.231   1.501  0.4070 -0.0010 -0.0621
  935SOL     OW 3785   3.589   3.492   1.659 -0.6405 -0.3606 -0.3154
  935SOL    HW2 3786   3.655   3.545   1.613  0.4705  0.1057  1.7762
  935SOL    HW3 3787   3.594   3.406   1.616  0.3095  0.0813 -1.1162
  935SOL    MW4 3788   3.598   3.488   1.647 -0.3686 -0.2410 -0.1452
  936SOL     OW 3789   3.784   3.626   1.497  0.2122 -0.0782  0.5425
  936SOL    HW2 3790   3.866   3.588   1.528  0.7630 -0.1348 -0.9546
  936SOL    HW3 3791   3.793   3.720   1.514  0.7899 -0.0223 -0.0394
  936SOL    MW4 3792   3.796   3.633   1.503  0.3612 -0.0784  0.2681
  937SOL     OW 3793   3.822   3.880   1.577  0.2199  0.2597  0.4541
  937SOL    HW2 3794   3.908   3.908   1.545  0.2560  0.7909  1.0086
  937SOL    HW3 3795   3.763   3.951   1.552 -0.0470 -0.0838  0.1147
  937SOL    MW4 3796   3.826   3.893   1.570  0.1893  0.2844  0.4824
  938SOL     OW 3797   3.597   4.033   1.526 -0.4892  0.0229 -0.2733
  938SOL    HW2 3798   3.578   4.120   1.563  0.2601 -0.1542  0.5472
  938SOL    HW3 3799   3.524   3.978   1.556 -0.7149  0.2571 -0.3899
  938SOL    MW4 3800   3.584   4.038   1.535 -0.4201  0.0305 -0.1804
  939SOL     OW 3801   3.606   4.300   1.613 -0.1211  0.5294  0.1594
  939SOL    HW2 3802   3.585   4.303   1.706 -0.5466 -0.1695  0.0909
  939SOL    HW3 3803   3.524   4.326   1.569 -0.0691  0.3741 -0.0304
  939SOL    MW4 3804   3.592   4.304   1.619 -0.1705  0.4168  0.1252
  940SOL     OW 3805   3.833   4.410   1.537 -0.3517  0.2131 -0.0763
  940SOL    HW2 3806   3.745   4.375   1.555 -0.8992  1.0054 -1.1901
  940SOL    HW3 3807   3.828   4.502   1.563 -0.0753  0.4456 -0.8320
  940SOL    MW4 3808   3.821   4.417   1.543 -0.3874  0.3486 -0.3228
  941SOL     OW 3809   4.284   0.019   1.654 -0.0110 -0.3374 -0.4169
  941SOL    HW2 3810   4.266   0.007   1.748  0.4731 -1.5174 -0.4660
  941SOL    HW3 3811   4.267  -0.067   1.615 -1.3523  0.4426 -1.6119
  941SOL    MW4 3812   4.279   0.006   1.661 -0.1240 -0.3903 -0.5811
  942SOL     OW 3813   4.053   0.155   1.546 -0.0754  0.0441  0.3304
  942SOL    HW2 3814   4.043   0.239   1.591 -0.6679  0.6638 -0.9332
  942SOL    HW3 3815   4.133   0.118   1.582  0.3960  1.3295  0.6239
  942SOL    MW4 3816   4.062   0.161   1.556 -0.0911  0.2954  0.2024
  943SOL     OW 3817   4.060   0.409   1.644 -0.1421 -0.3361  0.3738
  943SOL    HW2 3818   4.044   0.411   1.739  0.3710  2.2637  0.4415
  943SOL    HW3 3819   3.974   0.425   1.605 -0.5223 -2.3433  0.3677
  943SOL    MW4 3820   4.046   0.411   1.652 -0.1245 -0.2579  0.3819
  944SOL     OW 3821   4.289   0.513   1.502 -0.1244  0.0023  0.3866
  944SOL    HW2 3822   4.221   0.471   1.555 -0.2993 -2.0473 -1.3443
  944SOL    HW3 3823   4.366   0.458   1.513  0.5384  0.9271  0.4143
  944SOL    MW4 3824   4.290   0.500   1.510 -0.0601 -0.1461  0.1619
  945SOL     OW 3825   4.287   0.777   1.622  0.0205  0.9422 -0.0430
  945SOL    HW2 3826   4.291   0.695   1.574  0.9896  1.0774 -0.1965
  945SOL    HW3 3827   4.367   0.823   1.599  0.3350  1.1651  1.4398
  945SOL    MW4 3828   4.298   0.772   1.612  0.1898  0.9894  0.1323
  946SOL     OW 3829   4.061   0.893   1.524 -0.0968  0.3483  0.2778
  946SOL    HW2 3830   4.146   0.871   1.562  0.1862 -1.2459 -1.1975
  946SOL    HW3 3831   3.998   0.846   1.578  0.0092  0.9400  0.9242
  946SOL    MW4 3832   4.064   0.884   1.536 -0.0458  0.2161  0.1683
  947SOL     OW 3833   4.016   1.143   1.590 -0.3536  0.1529 -0.3565
  947SOL    HW2 3834   4.010   1.147   1.685  0.3596  0.8101 -0.3395
  947SOL    HW3 3835   4.023   1.049   1.570  0.3460  0.0670  0.2857
  947SOL    MW4 3836   4.016   1.131   1.600 -0.1674  0.2283 -0.2695
  948SOL     OW 3837   4.263   1.305   1.542  0.6257  0.1584 -0.4875
  948SOL    HW2 3838   4.179   1.259   1.545 -0.8987  2.8626 -0.3416
  948SOL    HW3 3839   4.319   1.255   1.602 -1.0237 -1.3525 -0.1485
  948SOL    MW4 3840   4.260   1.292   1.551  0.2069  0.3159 -0.4236
  949SOL     OW 3841   4.256   1.561   1.640 -0.1910  0.5285  0.4541
  949SOL    HW2 3842   4.254   1.468   1.620 -1.5519  0.7250 -0.3459
  949SOL    HW3 3843   4.338   1.592   1.600 -0.0951 -0.1771  0.1022
  949SOL    MW4 3844   4.267   1.553   1.632 -0.3572  0.4612  0.3022
  950SOL     OW 3845   4.038   1.683   1.493 -0.4974 -0.1863  0.3279
  950SOL    HW2 3846   4.113   1.645   1.538 -0.1502 -0.4901 -0.5045
  950SOL    HW3 3847   3.962   1.637   1.529 -0.1715 -0.8746  0.1328
  950SOL    MW4 3848   4.038   1.672   1.504 -0.4086 -0.3173  0.1924
  951SOL     OW 3849   4.053   1.957   1.592 -0.1914  0.2551  0.5436
  951SOL    HW2 3850   4.047   1.871   1.551  1.0052  0.7899 -0.7946
  951SOL    HW3 3851   3.965   1.994   1.583 -0.2217 -0.0724 -0.5583
  951SOL    MW4 3852   4.040   1.951   1.585 -0.0377  0.2825  0.2217
  952SOL     OW 3853   4.288   2.096   1.543 -0.3043 -0.1092  0.0167
  952SOL    HW2 3854   4.216   2.037   1.564 -1.5925  0.5084 -2.5368
  952SOL    HW3 3855   4.297   2.091   1.448  0.8069  2.3778 -0.0562
  952SOL    MW4 3856   4.280   2.088   1.533 -0.3276  0.3004 -0.3297
  953SOL     OW 3857   4.226   2.366   1.635  0.7736  0.0065  0.0675
  953SOL    HW2 3858   4.231   2.358   1.730 -0.9151 -2.1852 -0.0150
  953SOL    HW3 3859   4.241   2.278   1.602  1.0028  0.6866 -1.7122
  953SOL    MW4 3860   4.229   2.354   1.643  0.5817 -0.1931 -0.1781
  954SOL     OW 3861   4.014   2.480   1.506 -0.1631  0.2606  0.3360
  954SOL    HW2 3862   4.030   2.569   1.539  1.4712  0.6589 -1.4702
  954SOL    HW3 3863   4.088   2.429   1.537  0.0213  0.0303 -0.4821
  954SOL    MW4 3864   4.026   2.485   1.514  0.0772  0.2828 -0.0101
  955SOL     OW 3865   4.077   2.755   1.619 -0.0872  0.2613 -0.4213
  955SOL    HW2 3866   4.077   2.761   1.715  0.4978 -2.0934 -0.2309
  955SOL    HW3 3867   4.161   2.795   1.593  0.1910  0.0455  0.1290
  955SOL    MW4 3868   4.088   2.761   1.628  0.0267 -0.0780 -0.3235
  956SOL     OW 3869   4.328   2.853   1.476 -0.0385 -0.5721  0.2131
  956SOL    HW2 3870   4.310   2.942   1.508  0.8343 -0.3326  0.0352
  956SOL    HW3 3871   4.294   2.853   1.387 -0.0470 -0.4180  0.2155
  956SOL    MW4 3872   4.321   2.865   1.469  0.0758 -0.5202  0.1900
  957SOL     OW 3873   4.246   3.108   1.586  0.5206  0.3501 -0.5823
  957SOL    HW2 3874   4.229   3.128   1.678  0.8044 -0.7573 -0.2846
  957SOL    HW3 3875   4.327   3.156   1.566  0.3826  0.7077 -0.3050
  957SOL    MW4 3876   4.254   3.117   1.595  0.5398  0.2513 -0.5064
  958SOL     OW 3877   4.030   3.229   1.469 -0.1382 -0.0446 -0.0431
  958SOL    HW2 3878   4.021   3.311   1.518  1.6478 -0.3778  0.9136
  958SOL    HW3 3879   4.106   3.186   1.510  1.1675 -0.5175 -2.8783
  958SOL    MW4 3880   4.039   3.234   1.481  0.2699 -0.1512 -0.2911
  959SOL     OW 3881   4.003   3.484   1.601  0.1768 -0.2371  0.3719
  959SOL    HW2 3882   4.009   3.486   1.697  0.9402 -0.5213  0.3309
  959SOL    HW3 3883   4.088   3.515   1.571 -0.1453  0.0615 -0.2166
  959SOL    MW4 3884   4.015   3.488   1.610  0.2346 -0.2353  0.2890
  960SOL     OW 3885   4.248   3.599   1.529  0.0068 -0.2327  0.1782
  960SOL    HW2 3886   4.245   3.685   1.569 -0.1224 -0.0408 -0.2381
  960SOL    HW3 3887   4.262   3.616   1.436  0.6810 -0.6852  0.1907
  960SOL    MW4 3888   4.249   3.613   1.522  0.0787 -0.2670  0.1249
  961SOL     OW 3889   4.293   3.869   1.649  0.2566 -0.1369 -0.1207
  961SOL    HW2 3890   4.228   3.921   1.600  1.4450 -0.2596 -1.8884
  961SOL    HW3 3891   4.374   3.881   1.600  0.2564 -4.9592 -1.6079
  961SOL    MW4 3892   4.295   3.877   1.636  0.4129 -0.7892 -0.5502
  962SOL     OW 3893   4.073   3.997   1.505 -0.2894 -0.0969  0.2080
  962SOL    HW2 3894   4.082   4.086   1.538  2.2274 -0.2567  0.1021
  962SOL    HW3 3895   4.083   4.005   1.410  0.1535 -0.4792  0.2137
  962SOL    MW4 3896   4.076   4.010   1.497  0.1011 -0.1683  0.1949
  963SOL     OW 3897   4.072   4.262   1.607 -0.3441  0.0137  0.2248
  963SOL    HW2 3898   4.057   4.267   1.701  2.2426  1.8737  0.5982
  963SOL    HW3 3899   3.997   4.308   1.569 -0.9526  0.0443  1.4199
  963SOL    MW4 3900   4.060   4.269   1.614 -0.0834  0.2627  0.4317
  964SOL     OW 3901   4.263   4.455   1.536 -0.1749 -0.2711 -0.1889
  964SOL    HW2 3902   4.203   4.388   1.570  0.9555 -0.9459  0.4869
  964SOL    HW3 3903   4.247   4.456   1.442 -1.1664 -0.5339 -0.0287
  964SOL    MW4 3904   4.253   4.447   1.528 -0.1574 -0.3948 -0.0786
  965SOL     OW 3905   0.196   4.641   1.912 -0.0142 -0.4364  0.0219
  965SOL    HW2 3906   0.275   4.686   1.941 -0.5663  0.3101  0.3907
  965SOL    HW3 3907   0.198   4.649   1.816  0.0240  0.1553  0.0702
  965SOL    MW4 3908   0.206   4.648   1.903 -0.0820 -0.2599  0.0769
  966SOL     OW 3909   4.479   0.127   2.013  0.3686  0.6501  0.5905
  966SOL    HW2 3910   4.482   0.204   1.956  1.6074  1.5310  1.8159
  966SOL    HW3 3911   4.546   0.068   1.978 -1.5380 -0.5235 -1.2073
  966SOL    MW4 3912   4.488   0.129   2.001  0.2804  0.6114  0.5152
  967SOL     OW 3913   4.470   0.367   1.872  0.1102  0.5936 -0.1287
  967SOL    HW2 3914   4.390   0.411   1.903  0.8902  0.0195  2.8788
  967SOL    HW3 3915   4.541   0.420   1.909  1.0704 -1.8469  1.6604
  967SOL    MW4 3916   4.469   0.380   1.881  0.3400  0.1959  0.5041
  968SOL     OW 3917   0.203   0.470   1.987  0.2572  0.0705  0.0305
  968SOL    HW2 3918   0.285   0.425   1.971 -0.3832 -1.0089 -0.2456
  968SOL    HW3 3919   0.217   0.558   1.953  1.8393  0.3907  1.4395
  968SOL    MW4 3920   0.216   0.476   1.980  0.3814 -0.0296  0.1800
  969SOL     OW 3921   0.215   0.734   1.888 -0.3031  0.4295  0.2913
  969SOL    HW2 3922   0.280   0.790   1.932 -0.7277  1.4807 -0.4020
  969SOL    HW3 3923   0.226   0.753   1.795 -0.9017 -0.1534  0.1012
  969SOL    MW4 3924   0.225   0.744   1.882 -0.4381  0.4913  0.1748
  970SOL     OW 3925   0.001   0.873   1.972 -0.0389  0.1906  0.2928
  970SOL    HW2 3926  -0.077   0.821   1.954 -0.5590  1.7687 -2.1576
  970SOL    HW3 3927   0.074   0.814   1.953 -0.6174 -0.3371 -0.3048
  970SOL    MW4 3928   0.001   0.858   1.967 -0.1838  0.3293 -0.1094
  971SOL     OW 3929   0.026   1.161   1.931  0.0900 -0.2113  0.4943
  971SOL    HW2 3930  -0.064   1.186   1.955  0.6040 -1.3356  3.8252
  971SOL    HW3 3931   0.024   1.066   1.929  1.1982 -0.2344  0.5263
  971SOL    MW4 3932   0.014   1.152   1.934  0.3037 -0.3626  0.9378
  972SOL     OW 3933   0.224   1.311   2.040  0.1956  0.0364  0.3411
  972SOL    HW2 3934   0.235   1.382   1.977 -0.1907  0.7357  1.0455
  972SOL    HW3 3935   0.153   1.257   2.004  1.9736 -1.2522 -1.3114
  972SOL    MW4 3936   0.216   1.313   2.027  0.3792 -0.0412  0.2160
  973SOL     OW 3937   0.223   1.533   1.884 -0.1586 -0.1637 -0.3008
  973SOL    HW2 3938   0.302   1.574   1.919 -0.0073 -1.0093  0.3651
  973SOL    HW3 3939   0.152   1.565   1.941 -0.0033 -1.0395  0.3782
  973SOL    MW4 3940   0.224   1.543   1.896 -0.1181 -0.3909 -0.1234
  974SOL     OW 3941   0.029   1.659   2.027 -0.0617 -0.0773  0.0282
  974SOL    HW2 3942   0.023   1.647   2.122 -0.0725  1.6215  0.2577
  974SOL    HW3 3943  -0.062   1.653   1.997  0.0807 -2.1044 -0.0932
  974SOL    MW4 3944   0.016   1.657   2.036 -0.0443 -0.1206  0.0424
  975SOL     OW 3945   0.017   1.918   1.876  0.0538  0.1618  0.0535
  975SOL    HW2 3946  -0.054   1.968   1.915 -0.4724  0.3949 -1.1724
  975SOL    HW3 3947   0.034   1.847   1.937 -0.8908  0.4045  0.5975
  975SOL    MW4 3948   0.010   1.915   1.889 -0.1402  0.2245 -0.0364
  976SOL     OW 3949   0.228   2.059   1.990 -0.1630  0.5281  0.2596
  976SOL    HW2 3950   0.211   2.147   1.956 -0.2784  0.1738 -0.6158
  976SOL    HW3 3951   0.156   2.006   1.956  0.2042 -0.0181  0.3309
  976SOL    MW4 3952   0.217   2.064   1.981 -0.1298  0.4091  0.1534
  977SOL     OW 3953   0.222   2.328   1.905  0.3015  0.3196  0.6132
  977SOL    HW2 3954   0.299   2.346   1.959 -0.9008 -0.9615  2.8299
  977SOL    HW3 3955   0.153   2.383   1.943 -0.2473  0.4029 -0.4741
  977SOL    MW4 3956   0.223   2.338   1.917  0.0705  0.1614  0.7622
  978SOL     OW 3957   4.488   2.457   1.994 -0.0022  0.1415  0.0862
  978SOL    HW2 3958   4.497   2.443   2.088 -0.2283 -0.1840  0.0608
  978SOL    HW3 3959   4.489   2.552   1.983 -1.1852  0.2184  0.5477
  978SOL    MW4 3960   4.489   2.468   2.005 -0.1881  0.1087  0.1435
  979SOL     OW 3961   0.017   2.719   1.895 -0.3709 -0.7084  0.2644
  979SOL    HW2 3962  -0.056   2.776   1.920 -0.0650 -0.6155  0.9443
  979SOL    HW3 3963   0.016   2.720   1.799  0.8889  2.0998  0.2149
  979SOL    MW4 3964   0.007   2.727   1.885 -0.1643 -0.3254  0.3477
  980SOL     OW 3965   0.230   2.836   1.997 -0.2779 -0.2803 -0.0917
  980SOL    HW2 3966   0.221   2.926   1.964  0.7561 -1.3707 -3.4600
  980SOL    HW3 3967   0.157   2.788   1.957  0.2413 -1.3610  0.2492
  980SOL    MW4 3968   0.219   2.842   1.988 -0.0730 -0.5670 -0.4911
  981SOL     OW 3969   0.217   3.094   1.901 -0.5973  0.1786  0.3287
  981SOL    HW2 3970   0.293   3.143   1.931  0.2163 -1.0132  0.2586
  981SOL    HW3 3971   0.233   3.078   1.808 -0.6017 -0.6344  0.4577
  981SOL    MW4 3972   0.229   3.098   1.893 -0.4905 -0.0861  0.3364
  982SOL     OW 3973   4.477   3.250   1.972 -0.2453  0.3004  0.5121
  982SOL    HW2 3974   4.399   3.211   1.933  0.1580  0.0826 -0.1009
  982SOL    HW3 3975   4.548   3.191   1.946 -0.0411 -0.1317  2.0393
  982SOL    MW4 3976   4.476   3.237   1.963 -0.1650  0.2146  0.6326
  983SOL     OW 3977   0.014   3.530   1.899 -0.0111 -0.7538 -0.0867
  983SOL    HW2 3978   0.072   3.586   1.950 -0.2947  0.3286 -0.9307
  983SOL    HW3 3979   0.018   3.445   1.943  0.7730 -0.1981  0.9451
  983SOL    MW4 3980   0.022   3.526   1.912  0.0549 -0.5376 -0.0620
  984SOL     OW 3981   0.222   3.675   2.032 -0.3059 -0.0766  0.1302
  984SOL    HW2 3982   0.205   3.654   2.124 -0.4714  0.3334  0.1960
  984SOL    HW3 3983   0.288   3.611   2.004  0.5325  0.4797  0.8310
  984SOL    MW4 3984   0.228   3.664   2.040 -0.2171  0.0510  0.2313
  985SOL     OW 3985   0.214   3.908   1.887 -0.2669 -0.2882  0.3550
  985SOL    HW2 3986   0.271   3.965   1.939 -0.0860  0.2329 -0.4028
  985SOL    HW3 3987   0.216   3.824   1.932  0.0145  0.1160  1.1023
  985SOL    MW4 3988   0.222   3.904   1.899 -0.2059 -0.1662  0.3536
  986SOL     OW 3989   4.490   4.073   1.994  0.1595 -0.0094  0.2033
  986SOL    HW2 3990   4.470   4.143   1.932 -2.0134 -0.2815  0.5401
  986SOL    HW3 3991   4.568   4.030   1.958 -0.2257  0.7357 -1.5698
  986SOL    MW4 3992   4.497   4.077   1.981 -0.1788  0.0534  0.0138
  987SOL     OW 3993   4.460   4.306   1.847  0.0193  0.0214  0.5636
  987SOL    HW2 3994   4.388   4.330   1.906 -0.4829  0.2294 -0.1327
  987SOL    HW3 3995   4.539   4.326   1.898 -0.3944  2.2310  0.4003
  987SOL    MW4 3996   4.461   4.312   1.862 -0.1016  0.3400  0.4501
  988SOL     OW 3997   0.209   4.378   1.974 -0.4235  0.5228  0.3289
  988SOL    HW2 3998   0.199   4.358   2.067  2.1749 -0.0137  0.5192
  988SOL    HW3 3999   0.212   4.473   1.971 -1.6146  0.5765  0.6690
  988SOL    MW4 4000   0.208   4.388   1.986 -0.2379  0.4592  0.3989
  989SOL     OW 4001   0.685   4.648   1.930  0.5984  0.0701 -0.3373
  989SOL    HW2 4002   0.681   4.556   1.957  0.9354 -0.1532 -1.0512
  989SOL    HW3 4003   0.688   4.645   1.835  0.4577  0.8294 -0.3679
  989SOL    MW4 4004   0.685   4.635   1.921  0.6243  0.1411 -0.4357
  990SOL     OW 4005   0.439   0.087   2.013 -0.7639 -0.0568 -0.7956
  990SOL    HW2 4006   0.432   0.171   1.967 -0.6321 -0.6521 -1.9309
  990SOL    HW3 4007   0.528   0.057   1.995 -0.0534  0.6189  1.4966
  990SOL    MW4 4008   0.449   0.094   2.005 -0.6528 -0.0462 -0.6433
  991SOL     OW 4009   0.437   0.334   1.913 -0.1164 -0.1633  0.0843
  991SOL    HW2 4010   0.520   0.376   1.934  0.0759 -0.0097 -0.9832
  991SOL    HW3 4011   0.417   0.362   1.824 -1.6679  0.3718  0.5800
  991SOL    MW4 4012   0.445   0.343   1.904 -0.2957 -0.0724  0.0088
  992SOL     OW 4013   0.645   0.519   1.965  0.4958  0.1648 -0.1043
  992SOL    HW2 4014   0.662   0.511   2.059  0.3535  2.6013  0.1690
  992SOL    HW3 4015   0.721   0.481   1.923  0.5353 -1.0095  0.9901
  992SOL    MW4 4016   0.657   0.513   1.972  0.4822  0.3313  0.0762
  993SOL     OW 4017   0.645   0.784   1.858  0.3684  0.4626  0.7619
  993SOL    HW2 4018   0.719   0.827   1.900  0.1741 -0.1674  1.7487
  993SOL    HW3 4019   0.647   0.694   1.889 -0.3327  0.2286  0.1625
  993SOL    MW4 4020   0.655   0.778   1.868  0.2503  0.3486  0.8130
  994SOL     OW 4021   0.462   0.894   2.030 -0.0232  0.3252  0.1327
  994SOL    HW2 4022   0.481   0.986   2.013 -0.5374  0.6258  1.1738
  994SOL    HW3 4023   0.518   0.847   1.968 -0.8717  1.3569 -1.4350
  994SOL    MW4 4024   0.472   0.900   2.020 -0.2030  0.5010  0.0634
  995SOL     OW 4025   0.460   1.179   1.944  0.6815  0.1548 -0.5699
  995SOL    HW2 4026   0.384   1.231   1.970  1.5446  0.6971  0.9661
  995SOL    HW3 4027   0.450   1.166   1.850 -1.2358  0.3261 -0.3997
  995SOL    MW4 4028   0.449   1.184   1.935  0.5424  0.2490 -0.3448
  996SOL     OW 4029   0.697   1.307   1.998 -0.2096  0.3408 -0.5246
  996SOL    HW2 4030   0.705   1.287   2.091  0.8627 -0.1571 -0.7119
  996SOL    HW3 4031   0.610   1.274   1.974 -1.2526  2.1413  0.6854
  996SOL    MW4 4032   0.687   1.300   2.007 -0.2058  0.5127 -0.3896
  997SOL     OW 4033   0.663   1.561   1.908  0.4121  0.2043 -0.1158
  997SOL    HW2 4034   0.670   1.470   1.938 -0.6933 -0.3977 -1.5867
  997SOL    HW3 4035   0.664   1.554   1.812 -0.1481  1.6971 -0.2394
  997SOL    MW4 4036   0.664   1.548   1.899  0.1923  0.3219 -0.3262
  998SOL     OW 4037   0.439   1.655   2.022  0.3310  0.1767 -0.3757
  998SOL    HW2 4038   0.442   1.649   2.118 -1.2615 -0.3621 -0.3439
  998SOL    HW3 4039   0.521   1.616   1.993  0.6901  0.0671  0.7564
  998SOL    MW4 4040   0.450   1.649   2.031  0.1683  0.0913 -0.2222
  999SOL     OW 4041   0.436   1.905   1.887 -0.3848  0.2246  0.3474
  999SOL    HW2 4042   0.432   1.818   1.927 -0.2967  0.3827  0.6983
  999SOL    HW3 4043   0.363   1.953   1.926  0.6135  0.8593  1.4549
  999SOL    MW4 4044   0.426   1.899   1.897 -0.2415  0.3291  0.5399
 1000SOL     OW 4045   0.661   2.014   2.017  0.1318 -0.1922  0.4084
 1000SOL    HW2 4046   0.666   2.024   2.112  0.8483 -0.9298  0.4564
 1000SOL    HW3 4047   0.573   1.983   2.000 -0.8489  2.3711  0.5987
 1000SOL    MW4 4048   0.650   2.011   2.027  0.0970  0.0486  0.4394
 1001SOL     OW 4049   0.650   2.274   1.915  0.0681  0.0714  0.2323
 1001SOL    HW2 4050   0.656   2.180   1.932  0.7892  0.1614  0.4892
 1001SOL    HW3 4051   0.654   2.282   1.820 -3.1275 -0.3751  0.0125
 1001SOL    MW4 4052   0.651   2.263   1.904 -0.2584  0.0241  0.2372
 1002SOL     OW 4053   0.450   2.460   1.998 -0.3318 -0.4247  0.0451
 1002SOL    HW2 4054   0.460   2.451   2.093  0.4166  1.0103  0.1158
 1002SOL    HW3 4055   0.520   2.406   1.961  0.4104  0.3150  0.3484
 1002SOL    MW4 4056   0.460   2.452   2.005 -0.1351 -0.1378  0.0944
 1003SOL     OW 4057   0.433   2.708   1.868  0.3771 -0.7027  0.1834
 1003SOL    HW2 4058   0.437   2.624   1.915 -2.1558 -0.7894  0.3274
 1003SOL    HW3 4059   0.362   2.756   1.911  1.4854  1.3511 -0.2042
 1003SOL    MW4 4060   0.424   2.703   1.880  0.1892 -0.4432  0.1513
 1004SOL     OW 4061   0.635   2.842   1.983  0.2418  0.5720 -0.2403
 1004SOL    HW2 4062   0.631   2.838   2.079  0.9004 -0.1887 -0.2397
 1004SOL    HW3 4063   0.562   2.787   1.954  0.4760  0.2282 -0.1782
 1004SOL    MW4 4064   0.625   2.834   1.992  0.3597  0.4263 -0.2320
 1005SOL     OW 4065   0.666   3.099   1.891  0.3235 -0.1944  0.4650
 1005SOL    HW2 4066   0.655   3.009   1.921 -0.4250 -0.8071 -1.5506
 1005SOL    HW3 4067   0.664   3.092   1.795 -0.8429  2.0986  0.3027
 1005SOL    MW4 4068   0.664   3.086   1.882  0.0709  0.0274  0.1777
 1006SOL     OW 4069   0.413   3.235   2.017 -0.0966  0.0045  0.1321
 1006SOL    HW2 4070   0.408   3.326   1.986 -2.0102 -0.3864 -0.7584
 1006SOL    HW3 4071   0.488   3.198   1.970  0.8514  1.1632  0.6826
 1006SOL    MW4 4072   0.422   3.242   2.007 -0.2240  0.1059  0.0870
 1007SOL     OW 4073   0.411   3.508   1.922  0.2911  0.0509  0.0559
 1007SOL    HW2 4074   0.497   3.543   1.945 -0.0892  1.9935 -1.3051
 1007SOL    HW3 4075   0.414   3.500   1.827 -0.6459 -0.9508  0.1078
 1007SOL    MW4 4076   0.423   3.512   1.912  0.1173  0.1752 -0.1169
 1008SOL     OW 4077   0.660   3.610   2.008  0.5766  0.1791  0.0782
 1008SOL    HW2 4078   0.739   3.572   1.969  1.2361  0.8311  0.7615
 1008SOL    HW3 4079   0.659   3.701   1.977  0.0396  0.1422 -0.0119
 1008SOL    MW4 4080   0.670   3.617   1.999  0.5927  0.2601  0.1568
 1009SOL     OW 4081   0.667   3.878   1.925  0.0458  0.1427 -0.1235
 1009SOL    HW2 4082   0.750   3.918   1.950 -0.4413  1.2923 -0.3092
 1009SOL    HW3 4083   0.664   3.885   1.830  0.5369 -1.5232 -0.2819
 1009SOL    MW4 4084   0.677   3.884   1.916  0.0463  0.0744 -0.1689
 1010SOL     OW 4085   0.456   4.029   2.001  0.1108 -0.2761 -0.9305
 1010SOL    HW2 4086   0.478   4.112   1.958 -0.4395 -0.1711 -1.0103
 1010SOL    HW3 4087   0.509   3.964   1.955  1.7354  0.2506  0.1722
 1010SOL    MW4 4088   0.466   4.031   1.989  0.2525 -0.1926 -0.7956
 1011SOL     OW 4089   0.464   4.302   1.892  0.3381  0.3884 -0.5628
 1011SOL    HW2 4090   0.375   4.332   1.911  0.6190  1.7792 -1.3483
 1011SOL    HW3 4091   0.464   4.288   1.797  1.1578  1.1163 -0.6757
 1011SOL    MW4 4092   0.452   4.304   1.882  0.4834  0.6676 -0.6814
 1012SOL     OW 4093   0.702   4.370   2.007 -0.1951 -0.3661 -0.1085
 1012SOL    HW2 4094   0.765   4.338   1.943  0.8656  0.1535  0.6564
 1012SOL    HW3 4095   0.616   4.350   1.969  0.4128  0.1009 -1.7564
 1012SOL    MW4 4096   0.699   4.363   1.994  0.0251 -0.2360 -0.2249
 1013SOL     OW 4097   1.071   4.662   1.874 -0.2074  0.0327  0.7610
 1013SOL    HW2 4098   1.155   4.694   1.905  0.2256 -1.0325  0.7293
 1013SOL    HW3 4099   1.067   4.571   1.905 -1.4907  0.1739  1.0513
 1013SOL    MW4 4100   1.081   4.654   1.882 -0.3197 -0.0892  0.7951
 1014SOL     OW 4101   0.883   0.137   2.009 -0.2809  0.5086 -0.7481
 1014SOL    HW2 4102   0.969   0.110   1.975 -0.3855  0.0825 -0.6822
 1014SOL    HW3 4103   0.822   0.075   1.970 -0.4222  0.1015  0.1016
 1014SOL    MW4 4104   0.887   0.125   1.999 -0.3133  0.3987 -0.6272
 1015SOL     OW 4105   0.868   0.382   1.880  0.1534  0.3515  0.2280
 1015SOL    HW2 4106   0.937   0.425   1.932  0.0733 -0.4957  1.0519
 1015SOL    HW3 4107   0.866   0.292   1.913  0.2741 -0.2740 -1.4431
 1015SOL    MW4 4108   0.877   0.376   1.891  0.1587  0.1572  0.1162
 1016SOL     OW 4109   1.091   0.504   1.995 -0.1575  0.0048  0.3102
 1016SOL    HW2 4110   1.174   0.458   1.977 -0.6198 -0.4683 -0.6500
 1016SOL    HW3 4111   1.098   0.585   1.946  0.2536  0.5415  1.2370
 1016SOL    MW4 4112   1.103   0.508   1.986 -0.1643  0.0132  0.3057
 1017SOL     OW 4113   1.074   0.756   1.899  0.4409 -0.1300  0.0117
 1017SOL    HW2 4114   1.142   0.817   1.929  1.1227 -1.4043  1.1186
 1017SOL    HW3 4115   0.992   0.802   1.914  0.9593  0.5882  0.7087
 1017SOL    MW4 4116   1.072   0.770   1.905  0.5991 -0.2033  0.2497
 1018SOL     OW 4117   0.859   0.903   1.978  0.1647  0.1572 -0.2691
 1018SOL    HW2 4118   0.870   0.890   2.072  0.0761 -0.3951 -0.3330
 1018SOL    HW3 4119   0.889   0.992   1.962 -1.1390  0.7467  0.5087
 1018SOL    MW4 4120   0.864   0.913   1.988 -0.0190  0.1621 -0.1750
 1019SOL     OW 4121   0.920   1.163   1.892 -0.8491  0.3495 -0.0935
 1019SOL    HW2 4122   0.841   1.209   1.918 -1.1560 -0.0439 -0.3334
 1019SOL    HW3 4123   0.927   1.178   1.798  0.2474  1.7513  0.2007
 1019SOL    MW4 4124   0.911   1.171   1.883 -0.7448  0.4826 -0.0864
 1020SOL     OW 4125   1.145   1.279   1.997  0.4035 -0.0465  0.6459
 1020SOL    HW2 4126   1.140   1.366   1.956  1.2207 -0.1082  0.4104
 1020SOL    HW3 4127   1.070   1.232   1.961  0.4036  0.3043  0.1689
 1020SOL    MW4 4128   1.134   1.284   1.987  0.5113 -0.0082  0.5519
 1021SOL     OW 4129   1.142   1.530   1.892  0.0642  0.3075 -0.1615
 1021SOL    HW2 4130   1.055   1.539   1.931  0.0731  1.0649 -0.3238
 1021SOL    HW3 4131   1.132   1.559   1.802  0.6869  1.2942  0.0748
 1021SOL    MW4 4132   1.129   1.535   1.885  0.1476  0.5375 -0.1518
 1022SOL     OW 4133   0.905   1.658   2.001 -0.0275  0.0216 -0.0196
 1022SOL    HW2 4134   0.934   1.743   1.969 -0.5131 -0.6104 -2.1820
 1022SOL    HW3 4135   0.820   1.644   1.958  0.0392 -1.5418  0.3399
 1022SOL    MW4 4136   0.898   1.668   1.991 -0.0827 -0.2680 -0.2575
 1023SOL     OW 4137   0.899   1.917   1.901  0.3127  0.3640  0.1931
 1023SOL    HW2 4138   0.811   1.943   1.927  0.3929 -0.6780  1.5540
 1023SOL    HW3 4139   0.901   1.929   1.806 -1.6205 -0.5711  0.0201
 1023SOL    MW4 4140   0.888   1.922   1.892  0.0682  0.1032  0.3498
 1024SOL     OW 4141   1.117   2.062   1.999  0.1717  0.4041  0.6444
 1024SOL    HW2 4142   1.096   2.151   1.973  0.6933  0.0479 -1.0712
 1024SOL    HW3 4143   1.040   2.011   1.974  0.2366  0.2177  0.8198
 1024SOL    MW4 4144   1.104   2.067   1.993  0.2493  0.3326  0.4412
 1025SOL     OW 4145   1.097   2.345   1.929  0.3671  0.2535 -0.2579
 1025SOL    HW2 4146   1.184   2.371   1.958  0.3369  0.1591 -0.0809
 1025SOL    HW3 4147   1.101   2.349   1.833  0.2924  1.1291 -0.2277
 1025SOL    MW4 4148   1.109   2.349   1.920  0.3532  0.3567 -0.2307
 1026SOL     OW 4149   0.851   2.462   1.989 -0.2021  0.1491 -0.1987
 1026SOL    HW2 4150   0.938   2.424   1.974 -0.2098  0.1766 -0.3136
 1026SOL    HW3 4151   0.790   2.389   1.979 -0.1812  0.1040  0.0129
 1026SOL    MW4 4152   0.855   2.447   1.985 -0.2003  0.1469 -0.1860
 1027SOL     OW 4153   0.884   2.719   1.891  0.2080  0.5823 -0.0755
 1027SOL    HW2 4154   0.875   2.627   1.917  0.2470  0.7571  0.5667
 1027SOL    HW3 4155   0.804   2.761   1.921  0.8273  1.0571  0.9465
 1027SOL    MW4 4156   0.873   2.713   1.898  0.2949  0.6680  0.1441
 1028SOL     OW 4157   1.151   2.819   1.988 -0.1963 -0.1720  0.5029
 1028SOL    HW2 4158   1.143   2.839   2.082 -0.5282  2.2993 -0.0142
 1028SOL    HW3 4159   1.065   2.784   1.964 -0.1355 -0.7443  1.0946
 1028SOL    MW4 4160   1.139   2.817   1.998 -0.2320  0.0787  0.5127
 1029SOL     OW 4161   1.127   3.079   1.880 -0.3904  0.2319  0.2887
 1029SOL    HW2 4162   1.043   3.114   1.911 -0.8087 -0.2212 -0.3245
 1029SOL    HW3 4163   1.133   2.992   1.919  0.1252  0.5387  0.9002
 1029SOL    MW4 4164   1.117   3.072   1.889 -0.3777  0.2124  0.2885
 1030SOL     OW 4165   0.902   3.216   1.960  0.0681 -0.3422 -0.3119
 1030SOL    HW2 4166   0.902   3.232   2.054  2.6411 -1.7153 -0.0347
 1030SOL    HW3 4167   0.822   3.166   1.943 -0.8470  0.6561  0.9795
 1030SOL    MW4 4168   0.892   3.212   1.970  0.2868 -0.3920 -0.1049
 1031SOL     OW 4169   0.883   3.488   1.878  0.2420 -0.6390  0.7834
 1031SOL    HW2 4170   0.889   3.395   1.899 -1.4131 -1.2202 -1.1093
 1031SOL    HW3 4171   0.883   3.490   1.782  0.1915  1.3153  0.8116
 1031SOL    MW4 4172   0.884   3.476   1.868  0.0170 -0.4578  0.5375
 1032SOL     OW 4173   1.141   3.609   1.940 -0.3676  0.5106 -0.5484
 1032SOL    HW2 4174   1.145   3.614   2.036 -1.4341 -0.6676 -0.4308
 1032SOL    HW3 4175   1.057   3.567   1.922  0.8488 -1.4130 -1.9276
 1032SOL    MW4 4176   1.130   3.604   1.951 -0.3477  0.1016 -0.7149
 1033SOL     OW 4177   1.106   3.867   1.876 -0.5467  0.3255 -0.3943
 1033SOL    HW2 4178   1.128   3.777   1.899  0.1821  0.8456  0.9652
 1033SOL    HW3 4179   1.100   3.866   1.780 -0.9956 -1.2614 -0.3672
 1033SOL    MW4 4180   1.108   3.855   1.866 -0.5099  0.1848 -0.2115
 1034SOL     OW 4181   0.894   4.006   1.982 -0.1000  0.1934  0.7369
 1034SOL    HW2 4182   0.891   3.999   2.077 -0.1268 -0.5480  0.6846
 1034SOL    HW3 4183   0.972   3.957   1.957 -0.1761  0.2605  0.3725
 1034SOL    MW4 4184   0.904   3.998   1.991 -0.1135  0.1047  0.6821
 1035SOL     OW 4185   0.892   4.238   1.843  0.2136 -0.2813 -0.2819
 1035SOL    HW2 4186   0.970   4.285   1.872 -0.9299  1.1317  0.5770
 1035SOL    HW3 4187   0.902   4.150   1.879  1.1043  0.0648  0.3323
 1035SOL    MW4 4188   0.904   4.232   1.851  0.1802 -0.0491 -0.0874
 1036SOL     OW 4189   1.095   4.392   1.962  0.2097  0.2950 -0.4778
 1036SOL    HW2 4190   1.098   4.379   2.057  0.2891  0.0304 -0.5154
 1036SOL    HW3 4191   1.175   4.350   1.929 -0.1890 -0.2771 -0.7350
 1036SOL    MW4 4192   1.106   4.385   1.970  0.1676  0.1850 -0.5167
 1037SOL     OW 4193   1.591   0.034   1.880  0.3993  0.7773  0.4973
 1037SOL    HW2 4194   1.682   0.053   1.902  0.7853 -0.0181 -0.3883
 1037SOL    HW3 4195   1.576  -0.055   1.912 -0.0585  0.8890  0.6046
 1037SOL    MW4 4196   1.601   0.025   1.887  0.3898  0.6872  0.3946
 1038SOL     OW 4197   1.333   0.100   1.944  0.0507 -0.0866 -0.8155
 1038SOL    HW2 4198   1.327   0.088   2.039 -0.1064 -0.1332 -0.8324
 1038SOL    HW3 4199   1.428   0.101   1.927  0.0835 -1.9844 -0.8971
 1038SOL    MW4 4200   1.345   0.099   1.955  0.0342 -0.3432 -0.8285
 1039SOL     OW 4201   1.323   0.368   1.860 -0.1171 -0.0703 -0.4473
 1039SOL    HW2 4202   1.310   0.274   1.874 -0.3624 -0.1061 -0.8840
 1039SOL    HW3 4203   1.336   0.376   1.766 -2.2065  0.5623 -0.7059
 1039SOL    MW4 4204   1.323   0.357   1.850 -0.4252  0.0085 -0.5391
 1040SOL     OW 4205   1.552   0.465   2.007 -0.1626 -0.3291  0.3614
 1040SOL    HW2 4206   1.630   0.428   1.965 -0.3737  0.8029 -1.0565
 1040SOL    HW3 4207   1.479   0.425   1.959 -0.4451 -0.7005  1.0990
 1040SOL    MW4 4208   1.553   0.455   1.995 -0.2277 -0.2288  0.2716
 1041SOL     OW 4209   1.570   0.741   1.891  0.0629 -0.5845 -0.0456
 1041SOL    HW2 4210   1.644   0.791   1.925 -0.2890 -0.7808  1.0383
 1041SOL    HW3 4211   1.576   0.657   1.937  0.8733 -1.7010 -2.1127
 1041SOL    MW4 4212   1.581   0.736   1.902  0.1235 -0.7578 -0.1752
 1042SOL     OW 4213   1.332   0.865   1.958 -0.1150 -0.3886 -0.3667
 1042SOL    HW2 4214   1.359   0.865   2.050 -0.2758  1.7160 -0.3039
 1042SOL    HW3 4215   1.410   0.838   1.910  0.9308  1.6987  0.1340
 1042SOL    MW4 4216   1.346   0.861   1.964  0.0018  0.1644 -0.2924
 1043SOL     OW 4217   1.342   1.143   1.880 -0.3489  0.1926 -0.1172
 1043SOL    HW2 4218   1.329   1.054   1.911 -1.5127  0.5786  0.5178
 1043SOL    HW3 4219   1.271   1.193   1.920  0.5416  1.4822 -0.1235
 1043SOL    MW4 4220   1.331   1.138   1.889 -0.3849  0.4137 -0.0342
 1044SOL     OW 4221   1.560   1.274   2.004  0.1257 -0.1630  0.1644
 1044SOL    HW2 4222   1.566   1.360   1.961 -0.3885 -0.5236 -0.6409
 1044SOL    HW3 4223   1.500   1.224   1.948  0.1293 -0.9229  0.8406
 1044SOL    MW4 4224   1.553   1.279   1.991  0.0583 -0.3108  0.1475
 1045SOL     OW 4225   1.595   1.548   1.879 -0.1662  0.2665 -0.0889
 1045SOL    HW2 4226   1.666   1.598   1.919  0.2167  0.3272 -0.8430
 1045SOL    HW3 4227   1.515   1.591   1.911  0.0911 -0.5624  1.7637
 1045SOL    MW4 4228   1.594   1.560   1.889 -0.0818  0.1651  0.0560
 1046SOL     OW 4229   1.359   1.684   1.984  0.0315 -0.3566  0.2571
 1046SOL    HW2 4230   1.352   1.688   2.079  0.2706  0.3862  0.2447
 1046SOL    HW3 4231   1.287   1.626   1.957 -0.4363 -0.0517  0.8373
 1046SOL    MW4 4232   1.348   1.677   1.993  0.0014 -0.2183  0.3321
 1047SOL     OW 4233   1.339   1.938   1.886 -0.3684 -0.2827 -0.2321
 1047SOL    HW2 4234   1.329   1.852   1.928  0.9566 -0.5025 -0.3128
 1047SOL    HW3 4235   1.268   1.991   1.921 -1.3762 -1.5061 -0.3984
 1047SOL    MW4 4236   1.329   1.933   1.896 -0.3268 -0.4730 -0.2648
 1048SOL     OW 4237   1.571   2.048   1.986  0.1072 -0.2227 -0.1368
 1048SOL    HW2 4238   1.565   2.137   1.950  1.0554 -0.0146  0.2254
 1048SOL    HW3 4239   1.492   2.004   1.953 -0.5264  0.8423 -0.0665
 1048SOL    MW4 4240   1.560   2.054   1.977  0.1488 -0.0551 -0.0796
 1049SOL     OW 4241   1.586   2.313   1.907 -0.2616 -0.2521  0.1106
 1049SOL    HW2 4242   1.667   2.361   1.927 -0.6582  0.0870  0.9400
 1049SOL    HW3 4243   1.582   2.312   1.811 -0.6649  2.0904  0.0715
 1049SOL    MW4 4244   1.596   2.319   1.897 -0.3672  0.1016  0.2148
 1050SOL     OW 4245   1.357   2.448   2.005 -0.3818 -0.1478  0.3556
 1050SOL    HW2 4246   1.362   2.529   1.954 -0.7498 -0.7958 -0.7281
 1050SOL    HW3 4247   1.434   2.399   1.978 -1.1242 -0.9359 -0.3492
 1050SOL    MW4 4248   1.368   2.453   1.995 -0.5285 -0.3371  0.1197
 1051SOL     OW 4249   1.384   2.707   1.866  0.2207  0.1343 -0.3049
 1051SOL    HW2 4250   1.311   2.755   1.905  0.8085 -0.3024  1.3665
 1051SOL    HW3 4251   1.366   2.709   1.772 -1.6211  0.5606  0.0313
 1051SOL    MW4 4252   1.372   2.714   1.859  0.0552  0.1330 -0.0399
 1052SOL     OW 4253   1.597   2.859   1.977 -0.2194 -0.0646 -0.1950
 1052SOL    HW2 4254   1.667   2.818   1.928  0.5026 -0.3445  1.0611
 1052SOL    HW3 4255   1.520   2.806   1.959  0.0059 -0.0660 -1.1497
 1052SOL    MW4 4256   1.596   2.847   1.968 -0.0943 -0.1018 -0.1552
 1053SOL     OW 4257   1.552   3.126   1.874 -0.0088 -0.5604  0.3327
 1053SOL    HW2 4258   1.581   3.044   1.913  1.3139 -0.0395  0.5013
 1053SOL    HW3 4259   1.553   3.109   1.780  0.2009 -0.7695  0.3707
 1053SOL    MW4 4260   1.556   3.113   1.867  0.1935 -0.5195  0.3598
 1054SOL     OW 4261   1.327   3.216   2.011  0.2945  0.2572  0.0239
 1054SOL    HW2 4262   1.410   3.186   1.974 -0.2479 -1.4604  0.1648
 1054SOL    HW3 4263   1.261   3.161   1.970 -0.4177 -1.0314  2.7629
 1054SOL    MW4 4264   1.329   3.205   2.001  0.1290 -0.1392  0.4036
 1055SOL     OW 4265   1.344   3.452   1.875 -0.0640 -0.2007  0.1553
 1055SOL    HW2 4266   1.337   3.363   1.909  0.4625  0.0090  0.8207
 1055SOL    HW3 4267   1.260   3.493   1.897 -0.4122 -0.6043 -0.3898
 1055SOL    MW4 4268   1.332   3.446   1.882 -0.0407 -0.2263  0.1712
 1056SOL     OW 4269   1.546   3.630   1.976  0.1133  0.2037  0.3217
 1056SOL    HW2 4270   1.561   3.596   2.064  0.5876 -1.8518 -0.5471
 1056SOL    HW3 4271   1.475   3.577   1.941 -0.9266  1.8218 -0.1107
 1056SOL    MW4 4272   1.538   3.619   1.983  0.0386  0.1462  0.1500
 1057SOL     OW 4273   1.551   3.900   1.948 -0.2601  0.3710 -0.2722
 1057SOL    HW2 4274   1.637   3.928   1.980 -0.7014  1.2296  0.1716
 1057SOL    HW3 4275   1.544   3.809   1.976 -0.2079  0.8054  1.1785
 1057SOL    MW4 4276   1.562   3.892   1.956 -0.3116  0.5417 -0.0222
 1058SOL     OW 4277   1.327   4.034   1.960 -0.1032 -0.7720  0.1740
 1058SOL    HW2 4278   1.409   3.985   1.949 -0.2689 -0.6059 -1.9903
 1058SOL    HW3 4279   1.259   3.976   1.926 -0.6817 -0.2358  0.4021
 1058SOL    MW4 4280   1.329   4.020   1.954 -0.2013 -0.6790 -0.0815
 1059SOL     OW 4281   1.330   4.294   1.880 -0.9757  0.2517  0.5335
 1059SOL    HW2 4282   1.309   4.206   1.913  2.1244 -0.0647  1.8075
 1059SOL    HW3 4283   1.347   4.282   1.787  0.5269 -0.7067  0.9269
 1059SOL    MW4 4284   1.329   4.281   1.872 -0.3685  0.0839  0.7535
 1060SOL     OW 4285   1.559   4.436   1.966  0.3127 -0.3827  0.0650
 1060SOL    HW2 4286   1.556   4.422   2.061 -0.3699  2.1160  0.4408
 1060SOL    HW3 4287   1.475   4.401   1.934  0.2683 -0.6345  0.4495
 1060SOL    MW4 4288   1.548   4.429   1.974  0.2168 -0.0863  0.1653
 1061SOL     OW 4289   2.049   4.618   1.889 -0.5386 -0.5277  0.2070
 1061SOL    HW2 4290   2.133   4.650   1.922  0.0495 -1.0439 -0.7328
 1061SOL    HW3 4291   2.040   4.531   1.928  0.8045 -1.7032 -1.9564
 1061SOL    MW4 4292   2.059   4.611   1.898 -0.2840 -0.7510 -0.2023
 1062SOL     OW 4293   1.843   0.111   1.980 -0.0368 -0.3838  0.3342
 1062SOL    HW2 4294   1.841   0.100   2.075  2.3048  1.8384  0.6858
 1062SOL    HW3 4295   1.921   0.063   1.952 -0.4322 -0.6030 -0.3946
 1062SOL    MW4 4296   1.853   0.103   1.989  0.2199 -0.1195  0.2846
 1063SOL     OW 4297   1.809   0.359   1.883  0.3273  0.2764  0.5764
 1063SOL    HW2 4298   1.829   0.270   1.913 -0.0662  0.4607  1.4075
 1063SOL    HW3 4299   1.811   0.353   1.788 -1.8999 -1.1652  0.5641
 1063SOL    MW4 4300   1.812   0.346   1.875 -0.0185  0.1105  0.6843
 1064SOL     OW 4301   2.002   0.511   2.005  0.3247  0.0138  0.1091
 1064SOL    HW2 4302   2.005   0.598   1.965 -0.0911 -0.2756 -0.5570
 1064SOL    HW3 4303   1.953   0.457   1.943 -1.2465 -0.1937  1.4787
 1064SOL    MW4 4304   1.996   0.515   1.992  0.0626 -0.0518  0.2021
 1065SOL     OW 4305   1.977   0.772   1.910 -0.2721  0.1491  0.2357
 1065SOL    HW2 4306   2.051   0.820   1.949 -1.0345  0.9879  0.6685
 1065SOL    HW3 4307   1.982   0.793   1.817 -0.8598  1.4485  0.4812
 1065SOL    MW4 4308   1.988   0.781   1.903 -0.4500  0.4312  0.3251
 1066SOL     OW 4309   1.769   0.903   2.013  0.1322  0.0262 -0.1013
 1066SOL    HW2 4310   1.778   0.992   1.979 -1.4108  0.9750  1.8091
 1066SOL    HW3 4311   1.835   0.852   1.967  1.7860  2.4011 -0.4193
 1066SOL    MW4 4312   1.779   0.908   2.003  0.1469  0.4647  0.1087
 1067SOL     OW 4313   1.797   1.183   1.912 -0.3572 -0.4554  0.3687
 1067SOL    HW2 4314   1.712   1.220   1.933 -0.0271  0.4937  0.0379
 1067SOL    HW3 4315   1.798   1.177   1.816  0.0826 -0.1595  0.3568
 1067SOL    MW4 4316   1.786   1.187   1.902 -0.2556 -0.2910  0.3235
 1068SOL     OW 4317   2.038   1.285   2.013  0.4861  0.3981  0.1163
 1068SOL    HW2 4318   2.106   1.239   1.963  0.2982  0.2150  0.0288
 1068SOL    HW3 4319   1.957   1.266   1.966  0.2637 -0.0431  0.6691
 1068SOL    MW4 4320   2.037   1.277   2.000  0.4320  0.3158  0.1776
 1069SOL     OW 4321   2.042   1.557   1.917 -0.0762  0.5367  0.2061
 1069SOL    HW2 4322   2.036   1.474   1.965 -1.2437  0.8072  0.5515
 1069SOL    HW3 4323   2.045   1.533   1.825  2.1994  0.0049  0.3866
 1069SOL    MW4 4324   2.042   1.543   1.911  0.0699  0.5022  0.2756
 1070SOL     OW 4325   1.824   1.685   1.999  0.6283 -0.2968 -0.1980
 1070SOL    HW2 4326   1.838   1.778   1.981  1.1951 -0.5671 -1.1895
 1070SOL    HW3 4327   1.899   1.641   1.959  0.8248 -1.1106  1.0316
 1070SOL    MW4 4328   1.835   1.692   1.991  0.7291 -0.4399 -0.1665
 1071SOL     OW 4329   1.839   1.965   1.901 -0.0976  0.1684  0.1944
 1071SOL    HW2 4330   1.763   2.006   1.942 -0.6484  0.5032 -1.1403
 1071SOL    HW3 4331   1.816   1.957   1.808  1.6366  0.6028 -0.3012
 1071SOL    MW4 4332   1.826   1.969   1.894  0.0585  0.2699 -0.0471
 1072SOL     OW 4333   2.086   2.065   1.966  0.3440 -0.6089 -0.1114
 1072SOL    HW2 4334   2.154   2.011   1.924 -0.8020 -1.4904 -0.8714
 1072SOL    HW3 4335   2.006   2.040   1.921 -0.5375  0.1780  1.0220
 1072SOL    MW4 4336   2.085   2.054   1.954  0.0763 -0.6216 -0.0622
 1073SOL     OW 4337   2.054   2.350   1.891  0.2731  0.2543 -0.2353
 1073SOL    HW2 4338   2.129   2.398   1.924 -0.7183  1.9064 -0.3436
 1073SOL    HW3 4339   2.080   2.258   1.897  3.0603  0.8596 -2.1252
 1073SOL    MW4 4340   2.067   2.344   1.896  0.5105  0.5522 -0.4989
 1074SOL     OW 4341   1.807   2.464   1.961 -0.1694 -0.0391  0.4535
 1074SOL    HW2 4342   1.803   2.462   2.057 -0.4608 -1.7017  0.4242
 1074SOL    HW3 4343   1.891   2.424   1.940 -0.5612 -0.6018 -0.0223
 1074SOL    MW4 4344   1.817   2.459   1.971 -0.2595 -0.3326  0.3868
 1075SOL     OW 4345   1.815   2.736   1.858  0.1507 -0.2882  0.3682
 1075SOL    HW2 4346   1.812   2.644   1.886 -1.0092 -0.1008  0.8550
 1075SOL    HW3 4347   1.794   2.733   1.765 -1.1601 -0.3906  0.6664
 1075SOL    MW4 4348   1.812   2.723   1.850 -0.1751 -0.2768  0.4718
 1076SOL     OW 4349   2.031   2.878   1.940  0.0016 -0.5132 -0.2545
 1076SOL    HW2 4350   2.018   2.879   2.035  0.6706 -0.5077 -0.1603
 1076SOL    HW3 4351   1.960   2.823   1.907 -0.0003 -0.8439  0.2888
 1076SOL    MW4 4352   2.020   2.871   1.949  0.0896 -0.5560 -0.1702
 1077SOL     OW 4353   2.025   3.141   1.880 -0.0409 -0.1092  0.0156
 1077SOL    HW2 4354   1.946   3.189   1.905  0.9329  1.2833  0.4381
 1077SOL    HW3 4355   2.011   3.053   1.915 -1.5731  0.0058 -0.2554
 1077SOL    MW4 4356   2.013   3.136   1.888 -0.1144  0.0899  0.0356
 1078SOL     OW 4357   1.792   3.257   1.950 -0.3793  0.3511 -0.2015
 1078SOL    HW2 4358   1.781   3.264   2.045  0.4121 -0.7102 -0.0245
 1078SOL    HW3 4359   1.712   3.214   1.919 -0.0079 -0.6038  0.1616
 1078SOL    MW4 4360   1.780   3.252   1.958 -0.2259  0.0849 -0.1302
 1079SOL     OW 4361   1.776   3.518   1.864 -0.3001  0.0389 -0.4356
 1079SOL    HW2 4362   1.782   3.428   1.895  2.4075  0.0567 -0.7821
 1079SOL    HW3 4363   1.708   3.558   1.918  0.1755 -1.5516  1.3958
 1079SOL    MW4 4364   1.768   3.512   1.875  0.1199 -0.1686 -0.2397
 1080SOL     OW 4365   1.991   3.597   2.027 -0.2018  0.2155 -0.1938
 1080SOL    HW2 4366   2.014   3.688   2.008  0.0324  0.5642  1.6287
 1080SOL    HW3 4367   1.928   3.573   1.960  0.3629  1.4544 -1.1912
 1080SOL    MW4 4368   1.986   3.606   2.015 -0.0963  0.4249 -0.0849
 1081SOL     OW 4369   2.020   3.854   1.920  0.6414  0.0395  0.0452
 1081SOL    HW2 4370   2.102   3.897   1.942  0.9635 -0.6759  0.2802
 1081SOL    HW3 4371   2.023   3.842   1.825  0.7017  0.2211  0.0241
 1081SOL    MW4 4372   2.031   3.858   1.911  0.6917 -0.0312  0.0733
 1082SOL     OW 4373   1.786   3.977   2.027 -0.4380 -0.1411  0.1994
 1082SOL    HW2 4374   1.782   4.066   1.991 -0.1096 -0.6549 -1.1150
 1082SOL    HW3 4375   1.864   3.939   1.988 -0.2085 -0.7931  1.2761
 1082SOL    MW4 4376   1.796   3.984   2.017 -0.3644 -0.2947  0.1678
 1083SOL     OW 4377   1.777   4.240   1.919 -0.2555 -0.0901  0.1630
 1083SOL    HW2 4378   1.704   4.300   1.937 -0.4750 -0.1079 -0.6742
 1083SOL    HW3 4379   1.770   4.221   1.826 -0.2602 -1.5182  0.4436
 1083SOL    MW4 4380   1.766   4.246   1.909 -0.2851 -0.2809  0.0895
 1084SOL     OW 4381   2.013   4.375   2.013  0.4967 -0.2616  0.1246
 1084SOL    HW2 4382   2.088   4.326   1.981  0.7903 -0.9262  1.7902
 1084SOL    HW3 4383   1.937   4.322   1.986  0.6963 -0.3869 -0.1944
 1084SOL    MW4 4384   2.013   4.361   2.005  0.5615 -0.3653  0.3021
 1085SOL     OW 4385   2.478   4.658   1.867 -0.2586 -0.3553  0.7054
 1085SOL    HW2 4386   2.552   4.715   1.890  0.3182 -0.9917  0.4568
 1085SOL    HW3 4387   2.493   4.578   1.918 -1.5644  0.0501  1.7756
 1085SOL    MW4 4388   2.490   4.655   1.877 -0.3550 -0.3858  0.8138
 1086SOL     OW 4389   2.240   0.126   1.976  0.1209  0.0038  0.0375
 1086SOL    HW2 4390   2.243   0.137   2.071  0.8093 -0.7536  0.1090
 1086SOL    HW3 4391   2.324   0.085   1.954 -0.6708 -1.2643 -0.7084
 1086SOL    MW4 4392   2.252   0.122   1.985  0.1073 -0.2634 -0.0515
 1087SOL     OW 4393   2.215   0.385   1.867 -0.2741  0.2637 -0.2987
 1087SOL    HW2 4394   2.211   0.292   1.887 -1.3225 -0.0496 -1.8794
 1087SOL    HW3 4395   2.146   0.424   1.921 -1.3784 -0.2177 -1.3310
 1087SOL    MW4 4396   2.205   0.378   1.877 -0.5581  0.1588 -0.6435
 1088SOL     OW 4397   2.414   0.523   1.994  0.1399  0.4149 -0.1141
 1088SOL    HW2 4398   2.499   0.488   1.967  0.4882  0.6077  0.7123
 1088SOL    HW3 4399   2.350   0.462   1.958  0.6773 -0.3405  0.1941
 1088SOL    MW4 4400   2.417   0.511   1.986  0.2565  0.3407  0.0355
 1089SOL     OW 4401   2.454   0.775   1.877 -0.0753 -0.4099 -0.5984
 1089SOL    HW2 4402   2.434   0.683   1.896  1.1620 -0.6806 -0.5511
 1089SOL    HW3 4403   2.457   0.779   1.781  1.3578 -0.7624 -0.5800
 1089SOL    MW4 4404   2.452   0.763   1.867  0.2770 -0.4922 -0.5898
 1090SOL     OW 4405   2.237   0.895   1.983  0.2997  0.0415  0.3284
 1090SOL    HW2 4406   2.257   0.903   2.077  0.2816 -1.2210  0.4439
 1090SOL    HW3 4407   2.312   0.848   1.947  0.1882  0.3042 -0.2464
 1090SOL    MW4 4408   2.250   0.890   1.991  0.2828 -0.0904  0.2677
 1091SOL     OW 4409   2.250   1.163   1.876 -0.2631  0.4323 -0.4318
 1091SOL    HW2 4410   2.313   1.194   1.942 -1.1197  0.1601  0.5141
 1091SOL    HW3 4411   2.225   1.076   1.905 -1.0060  0.5007 -0.8582
 1091SOL    MW4 4412   2.255   1.156   1.889 -0.4740  0.4055 -0.3632
 1092SOL     OW 4413   2.460   1.290   2.021  0.0413  0.1504 -1.0948
 1092SOL    HW2 4414   2.461   1.303   2.116  0.8254 -0.7284 -0.9728
 1092SOL    HW3 4415   2.491   1.373   1.985 -1.2418  0.8410 -0.6314
 1092SOL    MW4 4416   2.464   1.303   2.029 -0.0246  0.1254 -1.0173
 1093SOL     OW 4417   2.502   1.530   1.895 -0.1218 -0.1094 -0.0430
 1093SOL    HW2 4418   2.423   1.570   1.932 -0.0677 -0.6338  0.6449
 1093SOL    HW3 4419   2.492   1.541   1.800 -0.6947  0.4310  0.0705
 1093SOL    MW4 4420   2.490   1.537   1.887 -0.1903 -0.1074  0.0626
 1094SOL     OW 4421   2.274   1.682   1.989 -0.1613 -0.3257 -0.0178
 1094SOL    HW2 4422   2.277   1.684   2.084  0.3895  0.3915 -0.0382
 1094SOL    HW3 4423   2.190   1.643   1.967 -0.6442  0.2855  0.7575
 1094SOL    MW4 4424   2.264   1.677   1.998 -0.1523 -0.1504  0.0818
 1095SOL     OW 4425   2.289   1.931   1.852  0.3515 -0.6301 -0.2344
 1095SOL    HW2 4426   2.373   1.968   1.880  0.2179 -0.3055 -0.2625
 1095SOL    HW3 4427   2.287   1.844   1.892 -0.1778  0.1268  1.4059
 1095SOL    MW4 4428   2.300   1.924   1.861  0.2642 -0.4874 -0.0219
 1096SOL     OW 4429   2.504   2.068   1.937 -0.1416  0.0342  0.0181
 1096SOL    HW2 4430   2.589   2.042   1.901 -0.0452  0.2506  0.0859
 1096SOL    HW3 4431   2.489   2.156   1.902 -0.8352 -0.4260 -0.8502
 1096SOL    MW4 4432   2.513   2.076   1.928 -0.2205  0.0019 -0.0875
 1097SOL     OW 4433   2.489   2.334   1.859  0.3303  0.1483 -0.1265
 1097SOL    HW2 4434   2.576   2.355   1.893  0.4453 -0.2110 -0.2030
 1097SOL    HW3 4435   2.429   2.380   1.918  0.6021  1.2504 -0.6865
 1097SOL    MW4 4436   2.492   2.343   1.872  0.3815  0.2463 -0.2105
 1098SOL     OW 4437   2.292   2.475   1.988 -0.2124  0.0496 -0.1657
 1098SOL    HW2 4438   2.296   2.486   2.084 -0.0099  0.8462 -0.2594
 1098SOL    HW3 4439   2.276   2.563   1.955 -0.1764 -0.2105 -0.8804
 1098SOL    MW4 4440   2.290   2.488   1.997 -0.1812  0.1206 -0.2724
 1099SOL     OW 4441   2.238   2.717   1.880  0.2277 -0.1095 -0.5101
 1099SOL    HW2 4442   2.160   2.770   1.898 -0.3143 -1.3588  0.9313
 1099SOL    HW3 4443   2.234   2.700   1.786 -0.5598  0.8752 -0.6736
 1099SOL    MW4 4444   2.227   2.722   1.870  0.0525 -0.1442 -0.3415
 1100SOL     OW 4445   2.518   2.802   1.955  0.1339 -0.2794  0.2664
 1100SOL    HW2 4446   2.515   2.896   1.941  0.5968  0.0010  1.9782
 1100SOL    HW3 4447   2.433   2.770   1.924  0.4257  0.5423 -1.3877
 1100SOL    MW4 4448   2.506   2.810   1.949  0.2334 -0.1338  0.2739
 1101SOL     OW 4449   2.516   3.102   1.938 -0.4494  0.2088  0.7866
 1101SOL    HW2 4450   2.451   3.169   1.962 -0.5126  0.8803 -1.2120
 1101SOL    HW3 4451   2.520   3.105   1.843  0.7565 -1.5202  0.7660
 1101SOL    MW4 4452   2.508   3.111   1.929 -0.2987  0.0694  0.5202
 1102SOL     OW 4453   2.267   3.236   1.992  0.0973  0.0572  0.1301
 1102SOL    HW2 4454   2.247   3.232   2.085 -0.4095 -0.9627 -0.0158
 1102SOL    HW3 4455   2.208   3.172   1.952  0.5451  0.2457 -0.8485
 1102SOL    MW4 4456   2.257   3.227   1.999  0.0896 -0.0525 -0.0185
 1103SOL     OW 4457   2.240   3.507   1.889 -0.2895  0.0740  0.1304
 1103SOL    HW2 4458   2.246   3.419   1.927  0.1049 -0.2917 -0.7513
 1103SOL    HW3 4459   2.155   3.540   1.918  0.7336  0.5072  2.7766
 1103SOL    MW4 4460   2.229   3.499   1.898 -0.1025  0.0830  0.3631
 1104SOL     OW 4461   2.468   3.618   1.980  0.0010  0.5823 -0.0164
 1104SOL    HW2 4462   2.480   3.604   2.074  1.7279  2.7193  0.1356
 1104SOL    HW3 4463   2.384   3.578   1.960  0.1569 -0.9541  2.2082
 1104SOL    MW4 4464   2.459   3.611   1.990  0.2494  0.6614  0.2971
 1105SOL     OW 4465   2.468   3.887   1.949  0.0404  0.2424 -0.0925
 1105SOL    HW2 4466   2.380   3.917   1.974 -0.0561  0.5891 -0.8428
 1105SOL    HW3 4467   2.466   3.792   1.965 -1.0281 -0.0222 -1.7256
 1105SOL    MW4 4468   2.456   3.878   1.955 -0.1132  0.2534 -0.4070
 1106SOL     OW 4469   2.240   3.978   2.025  0.1693  0.5495  0.0182
 1106SOL    HW2 4470   2.235   3.971   2.121  3.4685  1.7130  0.3628
 1106SOL    HW3 4471   2.237   4.072   2.008 -0.0641  0.3656 -0.9984
 1106SOL    MW4 4472   2.239   3.990   2.036  0.5736  0.6790 -0.0706
 1107SOL     OW 4473   2.241   4.239   1.925 -0.0426 -0.3643 -0.2596
 1107SOL    HW2 4474   2.315   4.294   1.951 -0.5025 -0.0951  0.4895
 1107SOL    HW3 4475   2.249   4.232   1.830  0.8998 -0.2661 -0.1903
 1107SOL    MW4 4476   2.252   4.246   1.916  0.0215 -0.3161 -0.1518
 1108SOL     OW 4477   2.492   4.392   2.000 -0.5695  0.2958  0.2216
 1108SOL    HW2 4478   2.494   4.396   2.096 -0.5230  0.5350  0.2106
 1108SOL    HW3 4479   2.577   4.357   1.975 -0.3934  0.7056  0.2444
 1108SOL    MW4 4480   2.503   4.388   2.009 -0.5405  0.3810  0.2232
 1109SOL     OW 4481   2.913   0.043   1.904 -0.5403 -0.1723  0.1024
 1109SOL    HW2 4482   2.989   0.083   1.946  0.1595  0.3954 -1.6409
 1109SOL    HW3 4483   2.924  -0.051   1.919 -0.6297  0.0486  1.6644
 1109SOL    MW4 4484   2.924   0.036   1.912 -0.4599 -0.0683  0.0784
 1110SOL     OW 4485   2.687   0.149   1.967 -0.3396 -0.1566 -0.0454
 1110SOL    HW2 4486   2.680   0.148   2.063  0.6681  0.5066  0.0422
 1110SOL    HW3 4487   2.779   0.131   1.950 -0.4391  0.1225 -0.8860
 1110SOL    MW4 4488   2.698   0.147   1.978 -0.2198 -0.0323 -0.1447
 1111SOL     OW 4489   2.639   0.418   1.893 -0.2003 -0.5966 -0.0200
 1111SOL    HW2 4490   2.721   0.462   1.915  0.0999  0.4429 -3.0248
 1111SOL    HW3 4491   2.647   0.331   1.932  1.7717 -0.0674  0.8022
 1111SOL    MW4 4492   2.651   0.412   1.901  0.0994 -0.3896 -0.3080
 1112SOL     OW 4493   2.892   0.532   1.991  0.4729  0.0688  0.2157
 1112SOL    HW2 4494   2.964   0.480   1.956  0.4655  0.9372 -1.1312
 1112SOL    HW3 4495   2.910   0.621   1.961 -0.5361  0.4965  0.8601
 1112SOL    MW4 4496   2.904   0.537   1.982  0.3388  0.2397  0.1229
 1113SOL     OW 4497   2.916   0.790   1.892 -0.5369  0.2695 -1.2101
 1113SOL    HW2 4498   2.991   0.837   1.929 -1.0117 -0.6979  1.0925
 1113SOL    HW3 4499   2.840   0.841   1.918 -0.8053  0.3439 -2.1114
 1113SOL    MW4 4500   2.916   0.803   1.900 -0.6349  0.1516 -1.0253
 1114SOL     OW 4501   2.692   0.908   1.994  0.0067 -0.4339 -0.1559
 1114SOL    HW2 4502   2.692   0.996   1.957 -0.5217 -0.2315  0.3177
 1114SOL    HW3 4503   2.612   0.868   1.962  0.0130 -0.5815  0.0106
 1114SOL    MW4 4504   2.682   0.914   1.985 -0.0625 -0.4267 -0.0713
 1115SOL     OW 4505   2.685   1.160   1.899  0.2141  0.3915 -0.0967
 1115SOL    HW2 4506   2.608   1.204   1.936 -0.1469 -0.6347  0.4052
 1115SOL    HW3 4507   2.690   1.192   1.809 -0.2415  1.1859  0.1502
 1115SOL    MW4 4508   2.676   1.170   1.892  0.1063  0.3608  0.0021
 1116SOL     OW 4509   2.927   1.297   2.022  0.3898 -0.1139  0.2497
 1116SOL    HW2 4510   2.926   1.381   1.976  1.5240 -0.2214  0.0053
 1116SOL    HW3 4511   2.865   1.242   1.974  0.3595  0.2830 -0.1655
 1116SOL    MW4 4512   2.919   1.300   2.010  0.5355 -0.0758  0.1626
 1117SOL     OW 4513   2.926   1.522   1.858 -0.0775  0.0790 -0.3369
 1117SOL    HW2 4514   2.999   1.568   1.898  0.4430  0.5459 -1.7846
 1117SOL    HW3 4515   2.941   1.530   1.764 -1.8168 -0.0824 -0.6570
 1117SOL    MW4 4516   2.937   1.529   1.851 -0.2382  0.1193 -0.5701
 1118SOL     OW 4517   2.739   1.679   1.954  0.1894  0.2461  0.1664
 1118SOL    HW2 4518   2.813   1.633   1.915  0.2201  0.5917 -0.1860
 1118SOL    HW3 4519   2.662   1.628   1.927  0.2366  0.3122 -0.0974
 1118SOL    MW4 4520   2.739   1.666   1.945  0.1996  0.3004  0.0850
 1119SOL     OW 4521   2.735   1.948   1.864  0.1976  0.0390 -0.3593
 1119SOL    HW2 4522   2.818   1.990   1.888 -1.0082  1.2349  1.8537
 1119SOL    HW3 4523   2.730   1.871   1.920 -0.6246  0.4831  0.1834
 1119SOL    MW4 4524   2.745   1.943   1.875 -0.0699  0.2553  0.0043
 1120SOL     OW 4525   2.942   2.080   1.969  0.1945  0.0877 -0.1142
 1120SOL    HW2 4526   2.930   2.067   2.063  0.2573  0.0098 -0.1170
 1120SOL    HW3 4527   3.017   2.025   1.947  0.6196  0.6497 -0.0794
 1120SOL    MW4 4528   2.950   2.071   1.979  0.2589  0.1514 -0.1100
 1121SOL     OW 4529   2.967   2.321   1.829  0.2432  0.0549 -0.0266
 1121SOL    HW2 4530   3.040   2.358   1.879  1.0394 -2.1771  0.5410
 1121SOL    HW3 4531   2.968   2.228   1.852 -2.5180 -0.0829 -0.3776
 1121SOL    MW4 4532   2.977   2.314   1.838 -0.0160 -0.2577  0.0019
 1122SOL     OW 4533   2.721   2.430   1.929 -0.5628  0.5522 -0.3442
 1122SOL    HW2 4534   2.723   2.524   1.914  1.8177  0.8268  1.2584
 1122SOL    HW3 4535   2.805   2.399   1.894 -0.8846 -0.7963  0.0522
 1122SOL    MW4 4536   2.733   2.438   1.922 -0.2916  0.4106 -0.0803
 1123SOL     OW 4537   2.763   2.700   1.867 -0.3771 -0.1700  0.0522
 1123SOL    HW2 4538   2.684   2.747   1.897  0.0365  1.1794 -0.9263
 1123SOL    HW3 4539   2.748   2.684   1.774  0.7303  0.5886 -0.2701
 1123SOL    MW4 4540   2.751   2.704   1.859 -0.1762  0.1080 -0.1193
 1124SOL     OW 4541   2.983   2.852   1.972 -0.0103 -0.0004  0.1613
 1124SOL    HW2 4542   2.966   2.939   1.937 -0.3562 -0.5396 -1.0203
 1124SOL    HW3 4543   2.907   2.799   1.945 -0.0345 -0.5609  1.2680
 1124SOL    MW4 4544   2.971   2.856   1.964 -0.0591 -0.1457  0.1514
 1125SOL     OW 4545   2.941   3.095   1.876 -0.0287 -0.0005 -0.1476
 1125SOL    HW2 4546   3.024   3.126   1.912  0.3466  0.0860 -1.0690
 1125SOL    HW3 4547   2.874   3.140   1.928  0.5028 -0.0491  0.5767
 1125SOL    MW4 4548   2.943   3.105   1.887  0.0908  0.0045 -0.1736
 1126SOL     OW 4549   2.763   3.245   2.028  0.2037  0.0159 -0.1731
 1126SOL    HW2 4550   2.748   3.329   1.984 -0.5521  0.9860  1.8787
 1126SOL    HW3 4551   2.687   3.192   2.004  0.4280  0.0851 -1.0550
 1126SOL    MW4 4552   2.751   3.249   2.019  0.1335  0.1531 -0.0188
 1127SOL     OW 4553   2.706   3.481   1.906  0.4145  0.6568  0.2151
 1127SOL    HW2 4554   2.778   3.527   1.949  1.1324  0.0639 -0.3418
 1127SOL    HW3 4555   2.627   3.524   1.938  1.0936  2.8540 -0.9373
 1127SOL    MW4 4556   2.705   3.493   1.916  0.5987  0.8683 -0.0105
 1128SOL     OW 4557   2.901   3.605   2.038  0.1518  0.1332  0.0080
 1128SOL    HW2 4558   2.900   3.603   2.134  1.0923  1.5180  0.0664
 1128SOL    HW3 4559   2.989   3.575   2.014 -0.9826 -2.9479 -0.5503
 1128SOL    MW4 4560   2.912   3.601   2.048  0.1261 -0.0906 -0.0579
 1129SOL     OW 4561   2.918   3.873   1.960  0.7579 -0.1409  0.4673
 1129SOL    HW2 4562   2.902   3.784   1.993  0.8903 -0.1259  0.5708
 1129SOL    HW3 4563   2.904   3.866   1.866  0.7624 -0.2714  0.4756
 1129SOL    MW4 4564   2.914   3.860   1.952  0.7758 -0.1562  0.4821
 1130SOL     OW 4565   2.692   4.026   2.008 -0.1134  0.1637  0.1295
 1130SOL    HW2 4566   2.761   3.962   1.997 -1.0226 -0.8427  0.2419
 1130SOL    HW3 4567   2.610   3.977   1.996 -0.7928  1.6303 -1.5473
 1130SOL    MW4 4568   2.690   4.011   2.005 -0.3231  0.2246 -0.0770
 1131SOL     OW 4569   2.727   4.288   1.921 -0.1764 -0.2814  0.4149
 1131SOL    HW2 4570   2.718   4.195   1.942 -1.2372 -0.1240  0.6932
 1131SOL    HW3 4571   2.704   4.294   1.829 -0.2995 -0.2723  0.4454
 1131SOL    MW4 4572   2.723   4.277   1.912 -0.3326 -0.2594  0.4556
 1132SOL     OW 4573   2.942   4.446   2.010 -0.0532 -0.1635 -0.0059
 1132SOL    HW2 4574   2.941   4.430   2.105 -0.0265 -0.8359 -0.1148
 1132SOL    HW3 4575   2.871   4.391   1.976  0.4737 -0.5598 -0.4724
 1132SOL    MW4 4576   2.932   4.437   2.018  0.0200 -0.3047 -0.0818
 1133SOL     OW 4577   3.378   4.665   1.897  0.4880  0.4393 -0.1520
 1133SOL    HW2 4578   3.355   4.581   1.937  1.7026 -0.6836 -1.7390
 1133SOL    HW3 4579   3.381   4.647   1.803 -1.1636  2.7472 -0.6848
 1133SOL    MW4 4580   3.376   4.652   1.890  0.4303  0.5956 -0.4317
 1134SOL     OW 4581   3.158   0.139   2.003  0.5610  0.1229 -0.3095
 1134SOL    HW2 4582   3.141   0.133   2.097 -0.5130 -1.5854 -0.5841
 1134SOL    HW3 4583   3.237   0.087   1.990  0.9612  0.7294 -0.2834
 1134SOL    MW4 4584   3.166   0.131   2.014  0.4721 -0.0225 -0.3424
 1135SOL     OW 4585   3.109   0.390   1.865  0.0872 -0.0364  0.1408
 1135SOL    HW2 4586   3.120   0.310   1.917  0.9061 -0.4752 -0.6944
 1135SOL    HW3 4587   3.120   0.361   1.774  0.0587  0.9737 -0.1887
 1135SOL    MW4 4588   3.112   0.375   1.860  0.1917  0.0390 -0.0129
 1136SOL     OW 4589   3.288   0.509   2.022 -0.0468 -0.0035 -0.3805
 1136SOL    HW2 4590   3.358   0.451   1.991 -1.0780 -1.7145  0.4068
 1136SOL    HW3 4591   3.214   0.490   1.965 -0.4054  0.5166 -0.0877
 1136SOL    MW4 4592   3.288   0.499   2.010 -0.2303 -0.1606 -0.2382
 1137SOL     OW 4593   3.372   0.764   1.901 -0.4985  0.0130 -0.2208
 1137SOL    HW2 4594   3.291   0.800   1.938 -1.1606 -1.0850 -0.5923
 1137SOL    HW3 4595   3.373   0.673   1.929  0.0377 -0.2836 -1.1814
 1137SOL    MW4 4596   3.361   0.757   1.909 -0.5150 -0.1709 -0.3965
 1138SOL     OW 4597   3.165   0.906   2.004 -0.1903  0.2269  0.0565
 1138SOL    HW2 4598   3.164   0.905   2.100 -0.6492 -0.1860  0.0518
 1138SOL    HW3 4599   3.186   0.996   1.981 -0.2758  0.3745  0.5426
 1138SOL    MW4 4600   3.168   0.918   2.014 -0.2620  0.1919  0.1202
 1139SOL     OW 4601   3.161   1.172   1.912 -0.2439 -0.0620  0.1634
 1139SOL    HW2 4602   3.239   1.211   1.952  0.9967  0.1795 -2.3657
 1139SOL    HW3 4603   3.088   1.213   1.958  1.0912  1.9813  0.5330
 1139SOL    MW4 4604   3.162   1.183   1.923  0.0958  0.2395 -0.1216
 1140SOL     OW 4605   3.400   1.262   2.003 -0.5274  0.5279 -0.1503
 1140SOL    HW2 4606   3.414   1.268   2.097 -2.3129  1.5040  0.0803
 1140SOL    HW3 4607   3.399   1.353   1.973 -0.6508  0.2492 -0.9997
 1140SOL    MW4 4608   3.402   1.275   2.011 -0.7789  0.6198 -0.2320
 1141SOL     OW 4609   3.391   1.524   1.884 -0.1771  0.4320  0.0537
 1141SOL    HW2 4610   3.457   1.580   1.924 -0.0279 -0.3736  0.9496
 1141SOL    HW3 4611   3.308   1.565   1.906 -0.0445  0.6542  0.1431
 1141SOL    MW4 4612   3.389   1.537   1.892 -0.1400  0.3549  0.1836
 1142SOL     OW 4613   3.162   1.657   1.954  0.6542  0.2451  0.0927
 1142SOL    HW2 4614   3.155   1.654   2.050  1.5116  1.2722  0.1932
 1142SOL    HW3 4615   3.144   1.749   1.932  1.5125  0.2366 -0.6467
 1142SOL    MW4 4616   3.158   1.669   1.964  0.8805  0.3796  0.0085
 1143SOL     OW 4617   3.145   1.926   1.888 -0.5298 -0.2327  0.6882
 1143SOL    HW2 4618   3.226   1.970   1.913 -0.2830 -1.3458  1.8939
 1143SOL    HW3 4619   3.154   1.910   1.794 -0.3026  1.5971  0.3857
 1143SOL    MW4 4620   3.157   1.930   1.878 -0.4673 -0.1382  0.8074
 1144SOL     OW 4621   3.375   2.035   1.993  0.2154 -0.2832  0.6219
 1144SOL    HW2 4622   3.445   1.981   1.957 -1.0958 -1.5473 -0.1172
 1144SOL    HW3 4623   3.382   2.118   1.947  1.4256 -0.2711  0.8080
 1144SOL    MW4 4624   3.385   2.039   1.982  0.2019 -0.4482  0.5490
 1145SOL     OW 4625   3.382   2.305   1.917 -0.2075  0.0148  0.4256
 1145SOL    HW2 4626   3.306   2.348   1.956 -0.6421 -0.1368 -0.2542
 1145SOL    HW3 4627   3.373   2.320   1.823  0.1872 -0.6710  0.2737
 1145SOL    MW4 4628   3.371   2.313   1.910 -0.2127 -0.0956  0.3158
 1146SOL     OW 4629   3.149   2.435   1.995  0.1743 -0.0342 -0.0102
 1146SOL    HW2 4630   3.124   2.447   2.086 -1.0257 -0.3671 -0.2849
 1146SOL    HW3 4631   3.164   2.524   1.963 -1.7295  0.2861 -0.1116
 1146SOL    MW4 4632   3.147   2.448   2.003 -0.2353 -0.0358 -0.0598
 1147SOL     OW 4633   3.179   2.680   1.874  0.4581 -0.7224  0.5006
 1147SOL    HW2 4634   3.103   2.733   1.899  1.3529  0.3491  1.0347
 1147SOL    HW3 4635   3.191   2.697   1.781  1.5418  1.0883  0.9533
 1147SOL    MW4 4636   3.170   2.689   1.865  0.7195 -0.3419  0.6307
 1148SOL     OW 4637   3.371   2.859   2.017  0.6179 -0.2659  0.3155
 1148SOL    HW2 4638   3.399   2.835   2.105  1.0854 -0.7684  0.0335
 1148SOL    HW3 4639   3.303   2.795   1.995 -1.0489  1.1814  1.1458
 1148SOL    MW4 4640   3.365   2.848   2.026  0.4597 -0.1411  0.3877
 1149SOL     OW 4641   3.381   3.113   1.883  0.1211  0.4005 -0.1513
 1149SOL    HW2 4642   3.453   3.166   1.915  0.9113 -0.4083 -0.5490
 1149SOL    HW3 4643   3.377   3.038   1.943  1.6451 -1.1468 -1.9234
 1149SOL    MW4 4644   3.390   3.110   1.895  0.4263  0.0896 -0.4376
 1150SOL     OW 4645   3.145   3.251   1.978  0.0251  0.5540  0.5240
 1150SOL    HW2 4646   3.144   3.345   1.963  0.1864  0.6436  1.0769
 1150SOL    HW3 4647   3.229   3.222   1.941  0.6330  0.8460  1.6579
 1150SOL    MW4 4648   3.156   3.259   1.971  0.1266  0.6044  0.7465
 1151SOL     OW 4649   3.131   3.510   1.941  0.1418  0.2147 -0.2386
 1151SOL    HW2 4650   3.210   3.558   1.968  0.9029 -1.1335 -0.0203
 1151SOL    HW3 4651   3.136   3.508   1.846 -0.3408  1.3085 -0.2920
 1151SOL    MW4 4652   3.142   3.516   1.932  0.1786  0.1814 -0.2168
 1152SOL     OW 4653   3.352   3.634   2.041 -0.3967 -0.3054  0.9182
 1152SOL    HW2 4654   3.425   3.584   2.004 -0.4455 -1.1231  1.8906
 1152SOL    HW3 4655   3.370   3.724   2.016 -0.8288 -0.9186 -1.7038
 1152SOL    MW4 4656   3.364   3.639   2.033 -0.4599 -0.4942  0.7005
 1153SOL     OW 4657   3.339   3.894   1.921  0.0646 -0.3072  0.6947
 1153SOL    HW2 4658   3.270   3.957   1.942  1.6117  0.9331  2.2459
 1153SOL    HW3 4659   3.345   3.896   1.826 -0.1882  1.6026  0.6983
 1153SOL    MW4 4660   3.330   3.903   1.911  0.2353  0.1082  0.8998
 1154SOL     OW 4661   3.135   4.055   2.009 -0.6526 -0.1258  0.3322
 1154SOL    HW2 4662   3.129   4.060   2.105 -0.3022  0.9130  0.3039
 1154SOL    HW3 4663   3.068   3.991   1.984 -0.3597 -0.8324  1.3166
 1154SOL    MW4 4664   3.126   4.047   2.019 -0.5679 -0.0815  0.4582
 1155SOL     OW 4665   3.130   4.302   1.857  0.1614  0.2242  0.2674
 1155SOL    HW2 4666   3.134   4.218   1.903 -0.4902  1.2377  2.2634
 1155SOL    HW3 4667   3.060   4.350   1.902  1.0796  2.1361 -0.3140
 1155SOL    MW4 4668   3.121   4.297   1.869  0.1962  0.6099  0.4541
 1156SOL     OW 4669   3.339   4.429   2.006 -0.3292 -0.0311  0.4508
 1156SOL    HW2 4670   3.415   4.383   1.972 -0.3155  0.5295 -0.3051
 1156SOL    HW3 4671   3.265   4.392   1.957 -0.1401  1.8533 -1.3519
 1156SOL    MW4 4672   3.339   4.418   1.995 -0.3026  0.2913  0.1134
 1157SOL     OW 4673   3.817   4.659   1.894  0.3349 -0.3613  0.4152
 1157SOL    HW2 4674   3.806   4.568   1.921 -0.9452 -0.4021 -0.2238
 1157SOL    HW3 4675   3.732   4.700   1.911 -0.3650 -0.2347 -2.9385
 1157SOL    MW4 4676   3.804   4.652   1.900  0.0739 -0.3500 -0.1116
 1158SOL     OW 4677   3.599   0.151   1.974 -0.1776  0.3519 -0.2703
 1158SOL    HW2 4678   3.592   0.162   2.069  0.0435  1.2208 -0.3508
 1158SOL    HW3 4679   3.523   0.096   1.951  0.0064 -0.2205  0.4565
 1158SOL    MW4 4680   3.588   0.145   1.984 -0.1242  0.3910 -0.1849
 1159SOL     OW 4681   3.530   0.415   1.904  0.0965  0.1119  0.1003
 1159SOL    HW2 4682   3.551   0.324   1.923 -0.9077  0.0703  1.0556
 1159SOL    HW3 4683   3.507   0.416   1.811  2.2939 -0.1838 -0.4889
 1159SOL    MW4 4684   3.530   0.403   1.894  0.2539  0.0674  0.1485
 1160SOL     OW 4685   3.764   0.534   2.006 -0.1765  0.3971  0.1777
 1160SOL    HW2 4686   3.775   0.618   1.961  2.2208 -1.2693 -2.5744
 1160SOL    HW3 4687   3.677   0.504   1.979 -0.0516  0.8979 -0.8275
 1160SOL    MW4 4688   3.754   0.541   1.996  0.1562  0.2432 -0.3179
 1161SOL     OW 4689   3.828   0.801   1.948  0.1833  0.1152  0.7635
 1161SOL    HW2 4690   3.749   0.838   1.989 -0.8765  1.1314 -2.0451
 1161SOL    HW3 4691   3.817   0.821   1.855  2.3289 -2.4144 -0.0718
 1161SOL    MW4 4692   3.816   0.809   1.941  0.3269 -0.0845  0.2828
 1162SOL     OW 4693   3.569   0.905   2.034 -0.0990  0.1381  0.2229
 1162SOL    HW2 4694   3.555   0.990   1.994  0.6685 -0.1251 -0.6200
 1162SOL    HW3 4695   3.504   0.848   1.993  2.1481 -0.6568 -2.3428
 1162SOL    MW4 4696   3.559   0.908   2.024  0.2985 -0.0015 -0.2270
 1163SOL     OW 4697   3.629   1.152   1.907 -0.3579  0.5286  0.2653
 1163SOL    HW2 4698   3.543   1.185   1.933 -0.6424  0.7588 -0.9373
 1163SOL    HW3 4699   3.629   1.158   1.812  0.9001  0.2921  0.2443
 1163SOL    MW4 4700   3.617   1.157   1.898 -0.2296  0.5276  0.1038
 1164SOL     OW 4701   3.835   1.313   2.000 -0.3679  0.3104 -0.0423
 1164SOL    HW2 4702   3.839   1.310   2.096  0.6094  1.4699 -0.0377
 1164SOL    HW3 4703   3.761   1.257   1.978  1.3969 -2.6806  1.2329
 1164SOL    MW4 4704   3.826   1.305   2.010 -0.0062  0.0688  0.1264
 1165SOL     OW 4705   3.830   1.579   1.901 -0.4632  0.0515 -0.0494
 1165SOL    HW2 4706   3.905   1.626   1.940  0.1028 -0.7459 -0.1556
 1165SOL    HW3 4707   3.836   1.491   1.938 -0.7301 -0.3211 -0.8880
 1165SOL    MW4 4708   3.841   1.573   1.911 -0.4237 -0.1029 -0.1742
 1166SOL     OW 4709   3.594   1.677   2.004  0.3248  0.2498 -0.5763
 1166SOL    HW2 4710   3.603   1.763   1.964  1.9703  0.5132  0.3076
 1166SOL    HW3 4711   3.670   1.628   1.974 -1.6563 -1.6054 -2.7139
 1166SOL    MW4 4712   3.605   1.682   1.995  0.2804  0.0397 -0.7416
 1167SOL     OW 4713   3.622   1.915   1.875  0.2198  0.0397 -0.1990
 1167SOL    HW2 4714   3.692   1.976   1.896  1.1910 -0.8451 -0.8550
 1167SOL    HW3 4715   3.619   1.913   1.779 -0.0477 -0.6782 -0.1776
 1167SOL    MW4 4716   3.631   1.923   1.865  0.3126 -0.1718 -0.2828
 1168SOL     OW 4717   3.832   2.062   1.971 -0.4497 -0.0512  0.0465
 1168SOL    HW2 4718   3.918   2.032   1.941 -0.2822  1.4081 -1.0413
 1168SOL    HW3 4719   3.834   2.157   1.956 -0.9164  0.5323  3.4037
 1168SOL    MW4 4720   3.844   2.071   1.965 -0.4890  0.2184  0.3458
 1169SOL     OW 4721   3.822   2.330   1.922  0.2211  0.0199 -0.0563
 1169SOL    HW2 4722   3.897   2.388   1.935 -0.4783  0.5357  1.8298
 1169SOL    HW3 4723   3.749   2.375   1.964 -0.2826 -2.3370  1.7492
 1169SOL    MW4 4724   3.823   2.343   1.929  0.0625 -0.2229  0.4307
 1170SOL     OW 4725   3.601   2.448   2.028  0.1115 -0.0062 -0.3311
 1170SOL    HW2 4726   3.607   2.529   1.977 -0.1983 -0.1259 -0.5561
 1170SOL    HW3 4727   3.527   2.400   1.989 -0.2758  0.0086  0.3744
 1170SOL    MW4 4728   3.592   2.452   2.016  0.0196 -0.0198 -0.2680
 1171SOL     OW 4729   3.582   2.703   1.905  0.5125 -0.3388  0.0545
 1171SOL    HW2 4730   3.658   2.744   1.946  0.6201  0.5909 -1.0463
 1171SOL    HW3 4731   3.508   2.758   1.930  0.1456 -1.4009  1.3539
 1171SOL    MW4 4732   3.583   2.716   1.914  0.4785 -0.3564  0.0806
 1172SOL     OW 4733   3.802   2.810   2.002 -0.3281 -0.4787 -0.2343
 1172SOL    HW2 4734   3.814   2.825   2.096  2.0251  0.3981 -0.6428
 1172SOL    HW3 4735   3.800   2.897   1.963  0.0629 -0.8803 -1.1621
 1172SOL    MW4 4736   3.803   2.823   2.010  0.0341 -0.4158 -0.4106
 1173SOL     OW 4737   3.781   3.064   1.865  0.1762  0.1607  0.1427
 1173SOL    HW2 4738   3.714   3.130   1.885  0.3236  0.5960 -0.7579
 1173SOL    HW3 4739   3.792   3.071   1.770 -0.6698 -1.9711 -0.1346
 1173SOL    MW4 4740   3.773   3.074   1.855  0.0839 -0.0632 -0.0126
 1174SOL     OW 4741   3.599   3.232   1.985 -0.1840 -0.3664  0.2307
 1174SOL    HW2 4742   3.590   3.238   2.080 -0.6712  0.3699  0.1376
 1174SOL    HW3 4743   3.609   3.322   1.955  1.3316 -0.6938 -0.2920
 1174SOL    MW4 4744   3.599   3.244   1.993 -0.0482 -0.3123  0.1494
 1175SOL     OW 4745   3.575   3.510   1.934  0.0547  0.3390 -0.2780
 1175SOL    HW2 4746   3.651   3.561   1.960 -0.1114  0.7464 -0.5860
 1175SOL    HW3 4747   3.580   3.507   1.838 -0.3697  0.4544 -0.3045
 1175SOL    MW4 4748   3.586   3.516   1.925 -0.0234  0.4079 -0.3221
 1176SOL     OW 4749   3.803   3.646   2.002 -0.0196 -0.0998 -0.4072
 1176SOL    HW2 4750   3.880   3.593   1.982  0.2379 -0.1455  0.6926
 1176SOL    HW3 4751   3.816   3.726   1.950  1.3982  0.4307  0.7277
 1176SOL    MW4 4752   3.815   3.650   1.992  0.2015 -0.0358 -0.1123
 1177SOL     OW 4753   3.827   3.896   1.847  0.4299  0.4629  0.0505
 1177SOL    HW2 4754   3.745   3.930   1.883  0.4968  2.2240 -1.3646
 1177SOL    HW3 4755   3.814   3.896   1.753  1.7037 -0.1884 -0.1400
 1177SOL    MW4 4756   3.815   3.901   1.840  0.6068  0.6094 -0.1612
 1178SOL     OW 4757   3.585   3.986   1.944 -0.1888 -0.1521 -1.2076
 1178SOL    HW2 4758   3.605   3.991   2.037  0.6297 -1.1653 -1.3160
 1178SOL    HW3 4759   3.495   3.952   1.940  0.1862 -1.2127 -0.7986
 1178SOL    MW4 4760   3.576   3.982   1.956 -0.0315 -0.4258 -1.1679
 1179SOL     OW 4761   3.556   4.285   1.884 -0.2274 -0.1589  0.0194
 1179SOL    HW2 4762   3.636   4.317   1.925  0.5542  0.4901 -1.9793
 1179SOL    HW3 4763   3.559   4.190   1.895  1.0990 -0.1907 -0.5444
 1179SOL    MW4 4764   3.567   4.277   1.891  0.0510 -0.0777 -0.3186
 1180SOL     OW 4765   3.794   4.394   1.991 -0.2534  0.2042  0.3920
 1180SOL    HW2 4766   3.803   4.394   2.086 -0.4615 -0.2071  0.4171
 1180SOL    HW3 4767   3.868   4.342   1.960 -0.9847 -0.8846  0.4273
 1180SOL    MW4 4768   3.805   4.387   2.000 -0.3772  0.0062  0.4002
 1181SOL     OW 4769   4.245   4.665   1.932 -0.1560  0.1473 -0.2834
 1181SOL    HW2 4770   4.173   4.721   1.961 -0.4737 -0.6896  0.5625
 1181SOL    HW3 4771   4.323   4.704   1.972 -0.5011 -0.5775  1.1270
 1181SOL    MW4 4772   4.246   4.677   1.941 -0.2432 -0.0591  0.0143
 1182SOL     OW 4773   4.030   0.160   2.022  0.7068 -0.0350 -0.1178
 1182SOL    HW2 4774   4.030   0.146   2.117 -1.2018  0.0069 -0.0959
 1182SOL    HW3 4775   3.957   0.107   1.991  0.0767  1.5449 -1.3373
 1182SOL    MW4 4776   4.021   0.151   2.031  0.3719  0.1790 -0.2759
 1183SOL     OW 4777   3.993   0.419   1.922 -0.0330 -0.1253 -0.2168
 1183SOL    HW2 4778   4.010   0.330   1.951  0.7139  0.5631  1.5577
 1183SOL    HW3 4779   3.913   0.444   1.968  0.6409  0.6596  0.5470
 1183SOL    MW4 4780   3.984   0.411   1.932  0.1545  0.0690  0.1181
 1184SOL     OW 4781   4.253   0.512   2.003  0.2554  0.3482  0.2034
 1184SOL    HW2 4782   4.258   0.489   2.096 -1.9540 -0.4139  0.1396
 1184SOL    HW3 4783   4.163   0.494   1.978  1.4740 -2.0932 -2.7966
 1184SOL    MW4 4784   4.242   0.507   2.012  0.1240 -0.0744 -0.2007
 1185SOL     OW 4785   4.255   0.758   1.899 -0.5682 -0.4798  0.1718
 1185SOL    HW2 4786   4.259   0.669   1.933 -0.7850 -0.7707 -0.5487
 1185SOL    HW3 4787   4.255   0.747   1.804  1.5934  0.3793  0.0349
 1185SOL    MW4 4788   4.256   0.745   1.891 -0.3114 -0.4048  0.0585
 1186SOL     OW 4789   4.070   0.922   2.019 -0.1050 -0.1646  0.2257
 1186SOL    HW2 4790   4.141   0.881   1.971 -0.8452 -0.7026 -0.4044
 1186SOL    HW3 4791   3.995   0.866   2.004 -0.9901  1.1136 -0.1990
 1186SOL    MW4 4792   4.070   0.909   2.011 -0.3195 -0.0670  0.0865
 1187SOL     OW 4793   4.015   1.153   1.864  0.3065 -0.0753  0.3995
 1187SOL    HW2 4794   4.029   1.075   1.917  1.3582  1.1429  1.9392
 1187SOL    HW3 4795   3.938   1.195   1.903  0.2431  0.1043  0.0875
 1187SOL    MW4 4796   4.006   1.148   1.876  0.4373  0.1091  0.5615
 1188SOL     OW 4797   4.257   1.271   1.953 -0.3195  0.3108 -0.2130
 1188SOL    HW2 4798   4.249   1.257   2.048  1.5928 -0.5811 -0.1733
 1188SOL    HW3 4799   4.177   1.232   1.917 -0.5946 -0.2292  0.9472
 1188SOL    MW4 4800   4.245   1.264   1.961 -0.1035  0.1218 -0.0546
 1189SOL     OW 4801   4.280   1.569   1.923  0.4107 -0.5314 -0.1873
 1189SOL    HW2 4802   4.257   1.478   1.946 -0.7910 -0.5416 -1.3297
 1189SOL    HW3 4803   4.277   1.570   1.828 -0.4138  0.9108 -0.1579
 1189SOL    MW4 4804   4.276   1.557   1.914  0.1431 -0.3425 -0.3341
 1190SOL     OW 4805   4.068   1.689   2.014 -0.0599  0.0279  0.0340
 1190SOL    HW2 4806   4.070   1.679   2.110 -0.1667  0.4855  0.0834
 1190SOL    HW3 4807   4.149   1.648   1.984 -0.7820 -1.5590  0.1860
 1190SOL    MW4 4808   4.079   1.682   2.023 -0.1688 -0.1212  0.0608
 1191SOL     OW 4809   4.081   1.958   1.886  0.1523 -0.2467  0.1527
 1191SOL    HW2 4810   4.082   1.871   1.926  1.0259  0.5063  1.7926
 1191SOL    HW3 4811   4.061   1.941   1.793  2.5143 -2.3792 -0.0338
 1191SOL    MW4 4812   4.078   1.944   1.879  0.5784 -0.4288  0.3443
 1192SOL     OW 4813   4.314   2.049   2.002 -0.2815 -0.0923  0.4017
 1192SOL    HW2 4814   4.292   2.049   2.095 -0.8780 -0.7331  0.2682
 1192SOL    HW3 4815   4.239   2.008   1.960 -1.0812  2.3626 -0.6421
 1192SOL    MW4 4816   4.301   2.043   2.009 -0.4659  0.1471  0.2463
 1193SOL     OW 4817   4.257   2.322   1.913 -0.1893  0.0447  0.0646
 1193SOL    HW2 4818   4.271   2.236   1.951 -1.3296  0.9203  2.6093
 1193SOL    HW3 4819   4.335   2.372   1.936  0.4555 -0.2785 -1.3757
 1193SOL    MW4 4820   4.269   2.318   1.921 -0.2546  0.1175  0.2103
 1194SOL     OW 4821   4.044   2.506   1.961  0.1240  0.2191 -0.6899
 1194SOL    HW2 4822   4.049   2.500   2.057  0.0190  0.8871 -0.6391
 1194SOL    HW3 4823   4.114   2.448   1.930  0.0625 -0.1126 -0.2100
 1194SOL    MW4 4824   4.054   2.497   1.970  0.1020  0.2637 -0.6199
 1195SOL     OW 4825   4.059   2.778   1.890 -0.6775  0.0349 -0.3507
 1195SOL    HW2 4826   4.063   2.683   1.903  1.4589  0.2325  0.5493
 1195SOL    HW3 4827   3.973   2.802   1.925 -0.6103 -1.3564  0.8566
 1195SOL    MW4 4828   4.048   2.768   1.897 -0.3867 -0.1225 -0.0726
 1196SOL     OW 4829   4.292   2.887   1.980 -0.3177  0.0700  0.3749
 1196SOL    HW2 4830   4.298   2.865   2.073 -1.7090  0.6294  0.6062
 1196SOL    HW3 4831   4.201   2.866   1.956 -0.4807  1.6028 -0.4221
 1196SOL    MW4 4832   4.281   2.881   1.989 -0.5231  0.3462  0.3003
 1197SOL     OW 4833   4.237   3.158   1.862  0.2333 -0.2720 -0.1824
 1197SOL    HW2 4834   4.157   3.186   1.906  0.4285  0.2826 -0.1828
 1197SOL    HW3 4835   4.255   3.072   1.900 -0.5131 -0.5211 -0.3803
 1197SOL    MW4 4836   4.229   3.150   1.873  0.1602 -0.2317 -0.2086
 1198SOL     OW 4837   3.980   3.270   1.996 -0.1483  0.3693  0.5472
 1198SOL    HW2 4838   3.983   3.262   2.091 -1.2120  0.8058  0.6191
 1198SOL    HW3 4839   3.914   3.207   1.968  0.5582 -0.1539  0.0438
 1198SOL    MW4 4840   3.972   3.261   2.005 -0.1953  0.3579  0.4902
 1199SOL     OW 4841   4.017   3.503   1.875 -0.3777  0.2547 -0.0698
 1199SOL    HW2 4842   4.095   3.543   1.915  0.5681 -1.5108 -0.1331
 1199SOL    HW3 4843   3.998   3.427   1.930 -0.4173 -0.8993 -1.6666
 1199SOL    MW4 4844   4.025   3.499   1.888 -0.2580 -0.1304 -0.2890
 1200SOL     OW 4845   4.234   3.617   1.985 -0.2103  0.3494  0.7142
 1200SOL    HW2 4846   4.232   3.712   1.978  1.5227  0.3530  0.0469
 1200SOL    HW3 4847   4.306   3.590   1.928  0.3727 -1.2355  2.1668
 1200SOL    MW4 4848   4.243   3.626   1.976  0.0949  0.1407  0.8178
 1201SOL     OW 4849   4.279   3.909   1.917 -0.2637  0.2164  0.0556
 1201SOL    HW2 4850   4.352   3.957   1.956 -0.0437 -0.3294  0.3282
 1201SOL    HW3 4851   4.298   3.905   1.824  0.0240  0.1342  0.1186
 1201SOL    MW4 4852   4.291   3.915   1.910 -0.1969  0.1333  0.0999
 1202SOL     OW 4853   4.031   4.011   2.006 -0.7690 -0.3202  0.0389
 1202SOL    HW2 4854   4.114   3.975   1.973 -0.5392  1.2260 -1.1431
 1202SOL    HW3 4855   3.964   3.971   1.951 -0.6157  0.1537 -0.4943
 1202SOL    MW4 4856   4.033   4.001   1.995 -0.7176 -0.0539 -0.1872
 1203SOL     OW 4857   4.008   4.262   1.885 -0.3626 -0.1803 -0.3069
 1203SOL    HW2 4858   4.095   4.294   1.909 -0.9761  0.6787  0.8025
 1203SOL    HW3 4859   4.005   4.173   1.920  0.1161 -0.2578 -0.4612
 1203SOL    MW4 4860   4.019   4.254   1.893 -0.3805 -0.0768 -0.1810
 1204SOL     OW 4861   4.233   4.384   1.989  0.3015  0.1738 -0.0282
 1204SOL    HW2 4862   4.219   4.385   2.084 -2.2661  1.7416 -0.3927
 1204SOL    HW3 4863   4.237   4.476   1.964  0.8977 -0.2296 -1.4663
 1204SOL    MW4 4864   4.232   4.396   1.998  0.0415  0.3276 -0.2661
 1205SOL     OW 4865   0.191   4.622   2.359  0.2862  0.2071 -0.2327
 1205SOL    HW2 4866   0.206   4.615   2.453 -0.2428  1.9113 -0.0097
 1205SOL    HW3 4867   0.266   4.672   2.326 -0.6358  1.5002 -0.3801
 1205SOL    MW4 4868   0.203   4.627   2.367  0.0948  0.6022 -0.2227
 1206SOL     OW 4869   4.447   0.105   2.299 -0.0283 -0.0503 -0.2002
 1206SOL    HW2 4870   4.521   0.050   2.325 -0.2261 -0.8946 -1.3983
 1206SOL    HW3 4871   4.458   0.117   2.205 -0.6140  1.0443 -0.1416
 1206SOL    MW4 4872   4.459   0.100   2.290 -0.1316 -0.0173 -0.3507
 1207SOL     OW 4873   4.480   0.365   2.378  0.1450 -0.5406 -0.1562
 1207SOL    HW2 4874   4.564   0.403   2.353  0.0631  0.7261  1.3742
 1207SOL    HW3 4875   4.485   0.274   2.351  0.7446  0.2947 -2.9991
 1207SOL    MW4 4876   4.492   0.358   2.371  0.2136 -0.2633 -0.3295
 1208SOL     OW 4877   0.222   0.513   2.268 -0.0882  0.1483 -0.4110
 1208SOL    HW2 4878   0.305   0.472   2.290 -0.5063 -0.0239  0.8751
 1208SOL    HW3 4879   0.198   0.475   2.183 -0.4340 -2.2434  0.7183
 1208SOL    MW4 4880   0.230   0.503   2.259 -0.1890 -0.1899 -0.0925
 1209SOL     OW 4881   0.168   0.757   2.386 -0.4910 -0.0518  0.1008
 1209SOL    HW2 4882   0.169   0.766   2.482 -0.1373  0.9556  0.0122
 1209SOL    HW3 4883   0.195   0.667   2.370  0.5381  0.0975  0.9249
 1209SOL    MW4 4884   0.172   0.747   2.397 -0.3086  0.1008  0.1979
 1210SOL     OW 4885   4.454   0.882   2.260  0.2346 -0.5261  0.3000
 1210SOL    HW2 4886   4.534   0.844   2.296  0.9109 -0.0856 -0.7128
 1210SOL    HW3 4887   4.465   0.873   2.165 -1.4057 -1.4529  0.1861
 1210SOL    MW4 4888   4.466   0.876   2.252  0.1073 -0.5903  0.1512
 1211SOL     OW 4889   4.465   1.148   2.335 -0.1243  0.4907  0.8948
 1211SOL    HW2 4890   4.467   1.150   2.431 -0.3379  0.7102  0.8959
 1211SOL    HW3 4891   4.470   1.055   2.312 -1.6498  0.3241  1.1549
 1211SOL    MW4 4892   4.466   1.136   2.345 -0.3543  0.4977  0.9294
 1212SOL     OW 4893   0.219   1.252   2.332 -0.0692  0.1446  0.1462
 1212SOL    HW2 4894   0.133   1.212   2.340 -0.2849  0.8721  1.7120
 1212SOL    HW3 4895   0.228   1.272   2.239 -0.5093 -2.2490 -0.4476
 1212SOL    MW4 4896   0.209   1.249   2.321 -0.1557 -0.0752  0.2744
 1213SOL     OW 4897   0.243   1.519   2.407  0.5845  0.4098  0.6562
 1213SOL    HW2 4898   0.248   1.533   2.501 -1.1746  0.3767  0.7695
 1213SOL    HW3 4899   0.238   1.424   2.397 -0.8921  0.4742  0.6403
 1213SOL    MW4 4900   0.243   1.508   2.418  0.1576  0.4139  0.6690
 1214SOL     OW 4901   0.000   1.654   2.303  0.0566  0.2134 -0.8069
 1214SOL    HW2 4902  -0.000   1.745   2.332 -1.0355  0.3760 -1.3232
 1214SOL    HW3 4903   0.074   1.614   2.350 -0.1483  1.0903  0.2774
 1214SOL    MW4 4904   0.010   1.660   2.313 -0.1144  0.3507 -0.7319
 1215SOL     OW 4905   4.470   1.914   2.404  0.1701  0.4485  0.1314
 1215SOL    HW2 4906   4.402   1.964   2.357  0.1739  0.3934  0.0663
 1215SOL    HW3 4907   4.552   1.952   2.373  0.1470  1.3783  1.1749
 1215SOL    MW4 4908   4.472   1.926   2.394  0.1674  0.5637  0.2604
 1216SOL     OW 4909   0.205   2.034   2.294 -0.2495  0.4778 -0.2024
 1216SOL    HW2 4910   0.286   2.004   2.335 -0.5557 -0.4154 -0.2456
 1216SOL    HW3 4911   0.227   2.042   2.201 -0.9983 -2.6116 -0.6900
 1216SOL    MW4 4912   0.219   2.031   2.287 -0.3887 -0.0482 -0.2725
 1217SOL     OW 4913   0.227   2.299   2.364 -0.8628 -0.0725  0.1464
 1217SOL    HW2 4914   0.211   2.299   2.458  1.4897 -1.4725  0.5955
 1217SOL    HW3 4915   0.221   2.206   2.339  1.6525 -0.1066 -0.4641
 1217SOL    MW4 4916   0.224   2.286   2.373 -0.2206 -0.2618  0.1252
 1218SOL     OW 4917   0.009   2.432   2.279 -0.2303  0.1731  0.4947
 1218SOL    HW2 4918   0.009   2.523   2.307 -1.9519 -0.0633  1.3509
 1218SOL    HW3 4919   0.088   2.395   2.317  0.8474  1.4717 -0.4566
 1218SOL    MW4 4920   0.019   2.439   2.288 -0.3152  0.3135  0.4821
 1219SOL     OW 4921   0.028   2.689   2.361  0.1830 -0.0901 -0.0395
 1219SOL    HW2 4922   0.022   2.697   2.456  0.7449  0.9200 -0.0784
 1219SOL    HW3 4923   0.113   2.728   2.339 -0.0174 -0.1678 -0.9700
 1219SOL    MW4 4924   0.039   2.695   2.371  0.2307  0.0329 -0.1674
 1220SOL     OW 4925   0.239   2.844   2.292  0.0463  0.2765 -0.0969
 1220SOL    HW2 4926   0.324   2.803   2.312 -0.5894 -0.8882  0.2858
 1220SOL    HW3 4927   0.232   2.840   2.197 -0.4981 -1.5293  0.0059
 1220SOL    MW4 4928   0.249   2.838   2.282 -0.1094 -0.1154 -0.0327
 1221SOL     OW 4929   0.152   3.093   2.370  0.2795 -0.2448  0.3470
 1221SOL    HW2 4930   0.073   3.115   2.320  0.3306 -0.9459 -0.0480
 1221SOL    HW3 4931   0.170   3.002   2.347  2.0686  0.3551 -0.7130
 1221SOL    MW4 4932   0.144   3.084   2.360  0.5223 -0.2582  0.1552
 1222SOL     OW 4933   4.433   3.226   2.233  0.2069  0.2701  0.3903
 1222SOL    HW2 4934   4.438   3.309   2.279  0.2394  0.1625  0.5818
 1222SOL    HW3 4935   4.447   3.249   2.141 -0.7424  0.5946  0.3230
 1222SOL    MW4 4936   4.436   3.240   2.227  0.0858  0.2987  0.4067
 1223SOL     OW 4937   4.460   3.464   2.370  0.4037 -0.5328  0.0601
 1223SOL    HW2 4938   4.471   3.455   2.464  0.4070 -0.8824  0.0288
 1223SOL    HW3 4939   4.391   3.529   2.359 -0.8813 -1.8166  0.3328
 1223SOL    MW4 4940   4.452   3.471   2.381  0.2341 -0.7482  0.0920
 1224SOL     OW 4941   0.199   3.607   2.304 -0.2921  0.0636  0.1534
 1224SOL    HW2 4942   0.274   3.548   2.313 -0.2411 -0.0869 -1.1876
 1224SOL    HW3 4943   0.123   3.554   2.330 -0.0219  0.0224  0.8846
 1224SOL    MW4 4944   0.199   3.592   2.309 -0.2497  0.0384  0.0727
 1225SOL     OW 4945   0.216   3.874   2.337  0.3482 -0.4393  0.0184
 1225SOL    HW2 4946   0.133   3.912   2.309  0.9708  0.2906 -0.8627
 1225SOL    HW3 4947   0.203   3.779   2.326 -0.1943 -0.3028 -0.6156
 1225SOL    MW4 4948   0.203   3.866   2.332  0.3587 -0.3250 -0.1814
 1226SOL     OW 4949   4.464   3.992   2.264  0.2970 -0.2153 -0.2946
 1226SOL    HW2 4950   4.450   4.070   2.318  1.2819 -0.0353 -0.2945
 1226SOL    HW3 4951   4.490   4.027   2.179 -1.1131 -0.5023 -0.8640
 1226SOL    MW4 4952   4.466   4.007   2.260  0.2408 -0.2294 -0.3695
 1227SOL     OW 4953   4.460   4.250   2.373  0.1294  0.4768 -0.0137
 1227SOL    HW2 4954   4.487   4.247   2.465 -0.0417  2.6877  0.1328
 1227SOL    HW3 4955   4.536   4.285   2.327 -0.2973  0.7887 -0.4904
 1227SOL    MW4 4956   4.474   4.254   2.379  0.0510  0.8097 -0.0575
 1228SOL     OW 4957   0.198   4.352   2.263 -0.4951  0.1288  0.0545
 1228SOL    HW2 4958   0.264   4.303   2.311 -1.4029 -1.1818  0.0191
 1228SOL    HW3 4959   0.207   4.442   2.294  2.7673  0.4366 -1.5901
 1228SOL    MW4 4960   0.208   4.357   2.274 -0.1845 -0.0033 -0.1671
 1229SOL     OW 4961   0.687   4.648   2.359 -0.0901  0.1666  0.1412
 1229SOL    HW2 4962   0.686   4.634   2.454 -2.5922  0.7310  0.2193
 1229SOL    HW3 4963   0.777   4.676   2.341  0.6139 -0.6087  2.2324
 1229SOL    MW4 4964   0.699   4.650   2.369 -0.3273  0.1383  0.4277
 1230SOL     OW 4965   0.431   0.093   2.289 -0.0115  0.0759  0.1692
 1230SOL    HW2 4966   0.517   0.072   2.326 -0.1416 -0.3428  0.2379
 1230SOL    HW3 4967   0.441   0.078   2.195 -0.2939 -0.9562  0.2963
 1230SOL    MW4 4968   0.444   0.088   2.282 -0.0659 -0.1156  0.1950
 1231SOL     OW 4969   0.438   0.374   2.347  0.2946 -0.2674 -0.3170
 1231SOL    HW2 4970   0.447   0.375   2.442  2.1857 -0.3719 -0.4891
 1231SOL    HW3 4971   0.425   0.281   2.326  1.0750 -0.3916 -0.2648
 1231SOL    MW4 4972   0.437   0.362   2.357  0.6471 -0.2976 -0.3328
 1232SOL     OW 4973   0.664   0.488   2.243  0.1746 -0.3499  0.7011
 1232SOL    HW2 4974   0.659   0.577   2.276  0.2970  0.2193 -0.7541
 1232SOL    HW3 4975   0.585   0.445   2.275  0.4106  0.0961  1.9023
 1232SOL    MW4 4976   0.653   0.494   2.251  0.2218 -0.2159  0.6678
 1233SOL     OW 4977   0.641   0.738   2.353  0.1188  0.0497 -0.5605
 1233SOL    HW2 4978   0.669   0.753   2.443 -0.0516  0.7291 -0.6173
 1233SOL    HW3 4979   0.563   0.792   2.342 -0.1115 -0.3644 -0.9835
 1233SOL    MW4 4980   0.635   0.747   2.363  0.0659  0.0847 -0.6239
 1234SOL     OW 4981   0.402   0.887   2.302  0.2369  0.2414 -0.2452
 1234SOL    HW2 4982   0.315   0.852   2.324  0.0994  0.6420 -0.1422
 1234SOL    HW3 4983   0.410   0.875   2.207  0.3790 -0.4879 -0.1402
 1234SOL    MW4 4984   0.391   0.881   2.292  0.2376  0.1980 -0.2177
 1235SOL     OW 4985   0.449   1.139   2.427 -0.1482 -0.7441 -0.1334
 1235SOL    HW2 4986   0.439   1.054   2.385 -0.8349 -1.2507  1.0211
 1235SOL    HW3 4987   0.367   1.185   2.410  0.3374 -0.1972 -1.0053
 1235SOL    MW4 4988   0.437   1.134   2.419 -0.1747 -0.7387 -0.0958
 1236SOL     OW 4989   0.676   1.262   2.275  0.0724  0.3126  0.3038
 1236SOL    HW2 4990   0.697   1.347   2.314  0.1266 -0.1490  1.2811
 1236SOL    HW3 4991   0.605   1.228   2.328 -0.2519 -0.0608 -0.3626
 1236SOL    MW4 4992   0.670   1.269   2.287  0.0368  0.2024  0.3448
 1237SOL     OW 4993   0.667   1.521   2.392  0.1582  0.0112 -0.2822
 1237SOL    HW2 4994   0.658   1.528   2.487 -0.5680  2.5509 -0.5038
 1237SOL    HW3 4995   0.750   1.565   2.372  0.3174 -0.5256 -0.8290
 1237SOL    MW4 4996   0.677   1.527   2.402  0.0834  0.2755 -0.3839
 1238SOL     OW 4997   0.444   1.658   2.297  0.3591 -0.3774  0.1755
 1238SOL    HW2 4998   0.523   1.613   2.327  0.7436  0.7809  0.9230
 1238SOL    HW3 4999   0.372   1.607   2.334  0.7979 -0.1620  1.3539
 1238SOL    MW4 5000   0.445   1.645   2.306  0.4677 -0.1962  0.4294
 1239SOL     OW 5001   0.437   1.936   2.408 -0.7165 -0.2260  0.1177
 1239SOL    HW2 5002   0.513   1.975   2.366 -0.3925  1.3584  2.1312
 1239SOL    HW3 5003   0.433   1.847   2.372  1.1018  0.2105 -1.2273
 1239SOL    MW4 5004   0.446   1.929   2.398 -0.4338  0.0407  0.2058
 1240SOL     OW 5005   0.669   2.036   2.286  0.0841 -0.4297  0.3952
 1240SOL    HW2 5006   0.745   1.993   2.326 -0.0534  0.3469  1.5462
 1240SOL    HW3 5007   0.678   2.128   2.312 -1.9031 -0.5516  1.5991
 1240SOL    MW4 5008   0.681   2.042   2.295 -0.1962 -0.3436  0.7060
 1241SOL     OW 5009   0.674   2.297   2.358 -0.2627 -0.1629 -0.2886
 1241SOL    HW2 5010   0.675   2.295   2.454 -1.8889 -0.3186 -0.2690
 1241SOL    HW3 5011   0.743   2.359   2.335 -0.5867  0.7022  1.0072
 1241SOL    MW4 5012   0.684   2.305   2.368 -0.5200 -0.0691 -0.1149
 1242SOL     OW 5013   0.438   2.447   2.279 -0.2436 -0.0416  0.0712
 1242SOL    HW2 5014   0.510   2.388   2.302 -1.0380 -1.3923 -0.8442
 1242SOL    HW3 5015   0.361   2.406   2.317 -0.9648 -0.1854 -1.5138
 1242SOL    MW4 5016   0.437   2.434   2.287 -0.4436 -0.2387 -0.2587
 1243SOL     OW 5017   0.447   2.706   2.392  0.0363 -0.0405 -0.6103
 1243SOL    HW2 5018   0.452   2.700   2.488  0.6144  0.8904 -0.5744
 1243SOL    HW3 5019   0.435   2.616   2.363 -0.8286 -0.2543  0.3795
 1243SOL    MW4 5020   0.446   2.693   2.401 -0.0015  0.0541 -0.4749
 1244SOL     OW 5021   0.646   2.861   2.270  0.1030 -0.2359 -0.5828
 1244SOL    HW2 5022   0.731   2.826   2.296 -0.3311 -1.6050 -0.9810
 1244SOL    HW3 5023   0.582   2.804   2.314 -0.6087  0.7884 -0.2730
 1244SOL    MW4 5024   0.648   2.849   2.279 -0.0482 -0.2813 -0.5944
 1245SOL     OW 5025   0.678   3.120   2.356 -0.0144 -0.2541 -0.3350
 1245SOL    HW2 5026   0.598   3.171   2.344 -0.5128 -1.1343 -0.7668
 1245SOL    HW3 5027   0.652   3.029   2.339  0.8696 -0.6590  0.4142
 1245SOL    MW4 5028   0.664   3.115   2.352  0.0365 -0.4237 -0.2933
 1246SOL     OW 5029   0.415   3.199   2.300  0.3909 -0.0663  0.3571
 1246SOL    HW2 5030   0.329   3.162   2.321  0.0617  0.1029 -0.7057
 1246SOL    HW3 5031   0.421   3.194   2.205  1.2862  0.5319  0.3809
 1246SOL    MW4 5032   0.404   3.194   2.291  0.4655  0.0350  0.2198
 1247SOL     OW 5033   0.425   3.467   2.395 -0.1110  0.4994  0.0929
 1247SOL    HW2 5034   0.504   3.512   2.364 -0.8469  1.9300  0.2678
 1247SOL    HW3 5035   0.436   3.377   2.365  1.1790  0.8855 -0.6525
 1247SOL    MW4 5036   0.437   3.461   2.387 -0.0379  0.7391  0.0179
 1248SOL     OW 5037   0.664   3.590   2.289 -0.7171 -0.2533 -0.3719
 1248SOL    HW2 5038   0.671   3.681   2.315 -1.8805 -0.4571  0.6974
 1248SOL    HW3 5039   0.664   3.591   2.193  0.6514  0.7435 -0.3752
 1248SOL    MW4 5040   0.665   3.602   2.280 -0.6899 -0.1485 -0.2313
 1249SOL     OW 5041   0.676   3.861   2.356 -0.4614 -0.0320 -0.4044
 1249SOL    HW2 5042   0.678   3.858   2.452 -0.0111 -1.7263 -0.4465
 1249SOL    HW3 5043   0.597   3.911   2.335  0.3050  1.7337  0.8492
 1249SOL    MW4 5044   0.666   3.867   2.366 -0.3008 -0.0224 -0.2446
 1250SOL     OW 5045   0.445   4.009   2.274  0.8521  0.1095 -0.0617
 1250SOL    HW2 5046   0.358   3.969   2.276  0.5641  0.6968 -0.5377
 1250SOL    HW3 5047   0.463   4.022   2.180  1.0274  0.9053  0.0833
 1250SOL    MW4 5048   0.436   4.005   2.262  0.8372  0.2923 -0.1054
 1251SOL     OW 5049   0.438   4.252   2.402 -0.4488  0.2978 -0.7542
 1251SOL    HW2 5050   0.520   4.293   2.373 -0.2603 -0.0766 -0.7507
 1251SOL    HW3 5051   0.430   4.174   2.347  1.1004 -1.6903  1.7596
 1251SOL    MW4 5052   0.448   4.247   2.391 -0.2196 -0.0138 -0.4220
 1252SOL     OW 5053   0.667   4.380   2.304  0.0816  0.1389  0.3165
 1252SOL    HW2 5054   0.678   4.474   2.316 -0.3691  0.2751 -0.3383
 1252SOL    HW3 5055   0.679   4.366   2.210  0.6940 -0.5314  0.4879
 1252SOL    MW4 5056   0.670   4.391   2.294  0.1030  0.0687  0.2530
 1253SOL     OW 5057   1.129   4.618   2.359  0.2864 -0.0161  0.7119
 1253SOL    HW2 5058   1.137   4.631   2.454  0.5818 -0.1467  0.7072
 1253SOL    HW3 5059   1.051   4.667   2.334  0.1506 -0.0626  1.0405
 1253SOL    MW4 5060   1.120   4.626   2.368  0.3074 -0.0396  0.7546
 1254SOL     OW 5061   0.934   0.114   2.268  0.3045 -0.5528 -0.3149
 1254SOL    HW2 5062   0.910   0.199   2.305  0.2947 -0.7326  0.1016
 1254SOL    HW3 5063   0.904   0.118   2.177  0.9028  0.1318 -0.4884
 1254SOL    MW4 5064   0.927   0.126   2.261  0.3821 -0.4862 -0.2830
 1255SOL     OW 5065   0.878   0.365   2.355 -0.1665 -0.1525 -0.1271
 1255SOL    HW2 5066   0.951   0.425   2.338 -0.2544  0.1744  0.6580
 1255SOL    HW3 5067   0.801   0.410   2.321 -0.2307  0.1640  0.4504
 1255SOL    MW4 5068   0.878   0.379   2.348 -0.1866 -0.0676  0.0522
 1256SOL     OW 5069   1.119   0.497   2.267  0.3222 -0.2027 -0.1383
 1256SOL    HW2 5070   1.203   0.452   2.275 -0.2725 -1.0672  1.5651
 1256SOL    HW3 5071   1.104   0.505   2.173  0.5975 -3.3215 -0.5062
 1256SOL    MW4 5072   1.128   0.492   2.256  0.2800 -0.7282  0.0379
 1257SOL     OW 5073   1.135   0.763   2.354  0.0798  0.1992  0.2421
 1257SOL    HW2 5074   1.045   0.785   2.329  0.3138  0.5895 -0.2420
 1257SOL    HW3 5075   1.141   0.668   2.340 -1.1334 -0.3424  2.9719
 1257SOL    MW4 5076   1.124   0.753   2.349 -0.0492  0.1792  0.5386
 1258SOL     OW 5077   0.883   0.853   2.247  0.0618 -0.0187 -0.5923
 1258SOL    HW2 5078   0.896   0.931   2.300  0.9826 -0.9847  0.6515
 1258SOL    HW3 5079   0.794   0.824   2.266 -0.2437  0.6712 -0.9816
 1258SOL    MW4 5080   0.873   0.859   2.257  0.1429 -0.0551 -0.4795
 1259SOL     OW 5081   0.899   1.115   2.365 -0.4545  0.3949 -0.3974
 1259SOL    HW2 5082   0.969   1.173   2.334 -0.8323  1.6851  1.1177
 1259SOL    HW3 5083   0.818   1.157   2.336 -0.6892 -0.0023 -0.3261
 1259SOL    MW4 5084   0.898   1.128   2.357 -0.5353  0.5128 -0.1881
 1260SOL     OW 5085   1.109   1.287   2.286  0.0548  0.0314  0.5463
 1260SOL    HW2 5086   1.185   1.245   2.328 -0.3270 -1.3212 -0.0854
 1260SOL    HW3 5087   1.131   1.289   2.193 -1.5591 -2.3674  0.0502
 1260SOL    MW4 5088   1.122   1.282   2.279 -0.2086 -0.4636  0.3974
 1261SOL     OW 5089   1.107   1.550   2.390 -0.1333  0.0367 -0.3118
 1261SOL    HW2 5090   1.029   1.580   2.342  1.2771  1.0732 -2.0104
 1261SOL    HW3 5091   1.113   1.457   2.369 -0.4214  0.1426 -0.8849
 1261SOL    MW4 5092   1.097   1.542   2.381  0.0148  0.1875 -0.6115
 1262SOL     OW 5093   0.881   1.659   2.280 -0.0570 -0.5485  0.7856
 1262SOL    HW2 5094   0.872   1.749   2.312 -0.1695 -0.7679  1.3755
 1262SOL    HW3 5095   0.879   1.667   2.185 -0.3670  0.0465  0.8398
 1262SOL    MW4 5096   0.879   1.672   2.272 -0.1127 -0.4989  0.8705
 1263SOL     OW 5097   0.891   1.907   2.387 -0.5540 -0.2548 -0.7569
 1263SOL    HW2 5098   0.899   1.907   2.482 -0.9132  0.3491 -0.7284
 1263SOL    HW3 5099   0.964   1.961   2.357 -0.7414 -0.0276 -0.8014
 1263SOL    MW4 5100   0.902   1.914   2.396 -0.6261 -0.1452 -0.7586
 1264SOL     OW 5101   1.106   2.056   2.290  0.5402  0.6272  0.2440
 1264SOL    HW2 5102   1.184   2.015   2.327  1.0469  2.2195  0.9791
 1264SOL    HW3 5103   1.118   2.052   2.196 -0.1195 -2.2358  0.2239
 1264SOL    MW4 5104   1.118   2.050   2.283  0.5201  0.4597  0.3383
 1265SOL     OW 5105   1.092   2.327   2.383 -0.4225  0.0702  0.2911
 1265SOL    HW2 5106   1.168   2.365   2.339 -0.3872 -0.7261 -0.3462
 1265SOL    HW3 5107   1.093   2.235   2.358 -0.3938 -0.4098  1.9975
 1265SOL    MW4 5108   1.102   2.320   2.374 -0.4139 -0.0982  0.4320
 1266SOL     OW 5109   0.876   2.468   2.259 -0.0510  0.1039 -0.0110
 1266SOL    HW2 5110   0.958   2.419   2.268 -1.0252 -1.4464  0.5100
 1266SOL    HW3 5111   0.859   2.468   2.165  0.2388 -0.0948 -0.0666
 1266SOL    MW4 5112   0.885   2.461   2.247 -0.1413 -0.1266  0.0503
 1267SOL     OW 5113   0.880   2.732   2.343 -0.0185  0.1484  0.0868
 1267SOL    HW2 5114   0.870   2.720   2.438  3.0268 -0.0794  0.4408
 1267SOL    HW3 5115   0.889   2.643   2.309 -1.7645  0.1983 -0.5050
 1267SOL    MW4 5116   0.880   2.718   2.351  0.1529  0.1249  0.0556
 1268SOL     OW 5117   1.118   2.853   2.270  0.2798 -0.0746  0.6550
 1268SOL    HW2 5118   1.184   2.790   2.299 -0.3088 -1.7866 -1.5066
 1268SOL    HW3 5119   1.035   2.813   2.295 -0.1447 -0.6974 -1.6241
 1268SOL    MW4 5120   1.116   2.839   2.277  0.1460 -0.3827  0.0691
 1269SOL     OW 5121   1.107   3.109   2.360 -0.1214 -0.7515 -0.1356
 1269SOL    HW2 5122   1.029   3.144   2.317 -0.8058 -1.1452  0.7776
 1269SOL    HW3 5123   1.105   3.015   2.339 -0.2272 -0.8688  0.3933
 1269SOL    MW4 5124   1.096   3.101   2.351 -0.2257 -0.8185  0.0548
 1270SOL     OW 5125   0.899   3.228   2.237 -0.0690  0.1481 -0.1228
 1270SOL    HW2 5126   0.903   3.313   2.281 -0.7721  0.1276 -0.0155
 1270SOL    HW3 5127   0.825   3.184   2.277  1.6022 -1.3768  1.3269
 1270SOL    MW4 5128   0.890   3.234   2.248  0.0587 -0.0558  0.0825
 1271SOL     OW 5129   0.901   3.481   2.363 -0.0128  0.1167 -0.4713
 1271SOL    HW2 5130   0.897   3.479   2.458  0.2435  1.4752 -0.4275
 1271SOL    HW3 5131   0.813   3.509   2.336  0.4927  1.7053 -0.5436
 1271SOL    MW4 5132   0.889   3.484   2.372  0.0877  0.5054 -0.4752
 1272SOL     OW 5133   1.116   3.599   2.241 -0.1442 -0.7915  0.2420
 1272SOL    HW2 5134   1.190   3.549   2.275 -0.1551 -0.6020  0.5499
 1272SOL    HW3 5135   1.040   3.562   2.286 -0.2024 -0.7810  0.1526
 1272SOL    MW4 5136   1.116   3.587   2.251 -0.1533 -0.7653  0.2708
 1273SOL     OW 5137   1.130   3.858   2.381  0.1742 -0.2179 -0.4646
 1273SOL    HW2 5138   1.200   3.900   2.330  0.1486 -0.6030 -0.8194
 1273SOL    HW3 5139   1.121   3.771   2.342  0.1832 -0.5331  0.2230
 1273SOL    MW4 5140   1.138   3.852   2.369  0.1719 -0.3102 -0.4208
 1274SOL     OW 5141   0.903   3.974   2.259  0.5868 -0.0807 -0.7134
 1274SOL    HW2 5142   0.973   3.936   2.312  1.4564  1.7933 -0.4588
 1274SOL    HW3 5143   0.824   3.929   2.287  1.4627 -1.1358  0.1059
 1274SOL    MW4 5144   0.902   3.963   2.270  0.8171  0.0272 -0.5720
 1275SOL     OW 5145   0.904   4.241   2.381 -0.0390  0.5722 -0.3008
 1275SOL    HW2 5146   0.900   4.154   2.341 -1.6321 -0.3894  1.8563
 1275SOL    HW3 5147   0.825   4.285   2.350  0.1407  0.8225 -0.4066
 1275SOL    MW4 5148   0.893   4.235   2.372 -0.2254  0.4783 -0.0298
 1276SOL     OW 5149   1.101   4.373   2.244  0.1240 -0.5793 -0.7285
 1276SOL    HW2 5150   1.032   4.330   2.293  0.9479 -0.9584  0.1170
 1276SOL    HW3 5151   1.111   4.459   2.286  0.0726 -0.4668 -0.9420
 1276SOL    MW4 5152   1.093   4.379   2.256  0.2258 -0.6146 -0.6454
 1277SOL     OW 5153   1.545   4.643   2.359  0.1464  0.2132 -0.3118
 1277SOL    HW2 5154   1.625   4.672   2.317  0.0623  1.7549  0.5639
 1277SOL    HW3 5155   1.475   4.691   2.315 -0.1873 -0.1676 -0.2085
 1277SOL    MW4 5156   1.546   4.653   2.348  0.0912  0.3667 -0.1829
 1278SOL     OW 5157   1.319   0.106   2.219 -0.2719  0.2160 -0.4122
 1278SOL    HW2 5158   1.329   0.189   2.266  0.2378 -0.5564  0.8729
 1278SOL    HW3 5159   1.257   0.056   2.272  1.0555 -1.0476  0.0010
 1278SOL    MW4 5160   1.312   0.110   2.233 -0.0296 -0.0526 -0.1881
 1279SOL     OW 5161   1.344   0.344   2.342 -0.1631  0.1177 -0.4657
 1279SOL    HW2 5162   1.349   0.333   2.437 -0.2464  0.2566 -0.4453
 1279SOL    HW3 5163   1.427   0.386   2.319 -0.1134  0.0209 -0.4622
 1279SOL    MW4 5164   1.356   0.348   2.352 -0.1675  0.1233 -0.4625
 1280SOL     OW 5165   1.584   0.490   2.275  0.1426  0.2576  0.2613
 1280SOL    HW2 5166   1.666   0.453   2.308  1.8598  2.3711 -1.4010
 1280SOL    HW3 5167   1.578   0.457   2.185 -0.8442  0.1152  0.3759
 1280SOL    MW4 5168   1.594   0.481   2.267  0.2389  0.5176  0.0570
 1281SOL     OW 5169   1.576   0.751   2.373 -0.1196 -0.1221 -0.6754
 1281SOL    HW2 5170   1.662   0.785   2.346  0.5055 -0.2724  1.0590
 1281SOL    HW3 5171   1.570   0.665   2.332  1.4077 -0.9294  0.7531
 1281SOL    MW4 5172   1.587   0.744   2.364  0.1644 -0.2485 -0.2587
 1282SOL     OW 5173   1.362   0.858   2.222  0.1712 -0.1201  0.3621
 1282SOL    HW2 5174   1.438   0.819   2.265  1.1022  1.4922  0.2248
 1282SOL    HW3 5175   1.286   0.820   2.267  1.0539 -1.8180  0.4306
 1282SOL    MW4 5176   1.362   0.848   2.233  0.4106 -0.1314  0.3529
 1283SOL     OW 5177   1.315   1.154   2.385  0.2617  0.1557  0.9346
 1283SOL    HW2 5178   1.337   1.150   2.479 -0.5265 -0.9276  1.0728
 1283SOL    HW3 5179   1.310   1.063   2.358  2.6225  0.4663 -0.6843
 1283SOL    MW4 5180   1.318   1.142   2.394  0.4692  0.0538  0.7393
 1284SOL     OW 5181   1.542   1.285   2.276 -0.0404  0.1154  0.4947
 1284SOL    HW2 5182   1.466   1.235   2.304 -0.7148  0.3117 -0.9163
 1284SOL    HW3 5183   1.541   1.277   2.180  2.2696 -0.6810  0.5191
 1284SOL    MW4 5184   1.532   1.277   2.267  0.1752  0.0364  0.3116
 1285SOL     OW 5185   1.528   1.551   2.363  0.5182 -0.5507  0.0378
 1285SOL    HW2 5186   1.605   1.590   2.322  0.2501 -0.3043 -0.2354
 1285SOL    HW3 5187   1.522   1.464   2.324 -0.5195  0.1771 -1.4715
 1285SOL    MW4 5188   1.537   1.545   2.352  0.3459 -0.4220 -0.1976
 1286SOL     OW 5189   1.298   1.664   2.255  0.0085 -0.0289 -0.1501
 1286SOL    HW2 5190   1.385   1.644   2.290 -0.6747 -0.0143  1.6124
 1286SOL    HW3 5191   1.238   1.618   2.313 -1.2582  1.3911 -0.2991
 1286SOL    MW4 5192   1.302   1.655   2.267 -0.2487  0.1605  0.0632
 1287SOL     OW 5193   1.344   1.924   2.344  0.2184  0.4110 -0.0107
 1287SOL    HW2 5194   1.426   1.951   2.302  0.2166  0.1703 -0.1706
 1287SOL    HW3 5195   1.330   1.834   2.313 -0.8961  0.9655 -1.1954
 1287SOL    MW4 5196   1.353   1.916   2.334  0.0710  0.4525 -0.1881
 1288SOL     OW 5197   1.588   2.016   2.258  0.1714  0.1827 -0.0663
 1288SOL    HW2 5198   1.667   1.972   2.287  0.2452  0.5335  0.2681
 1288SOL    HW3 5199   1.602   2.033   2.165 -0.1323 -1.0830 -0.3432
 1288SOL    MW4 5200   1.600   2.013   2.249  0.1410  0.0620 -0.0587
 1289SOL     OW 5201   1.569   2.297   2.352  0.2654 -0.2766 -0.5573
 1289SOL    HW2 5202   1.577   2.314   2.446  1.0831 -2.0465 -0.2754
 1289SOL    HW3 5203   1.582   2.202   2.344 -0.7335 -0.2791 -2.3590
 1289SOL    MW4 5204   1.572   2.287   2.363  0.2414 -0.5100 -0.7579
 1290SOL     OW 5205   1.329   2.421   2.286 -0.5020 -0.1416 -0.1078
 1290SOL    HW2 5206   1.417   2.388   2.307 -1.0603 -1.0223  0.8364
 1290SOL    HW3 5207   1.333   2.438   2.192  1.1183  1.1544  0.1609
 1290SOL    MW4 5208   1.341   2.419   2.276 -0.3619 -0.0868  0.0522
 1291SOL     OW 5209   1.320   2.692   2.360 -0.4731  0.1790 -0.0915
 1291SOL    HW2 5210   1.394   2.734   2.316 -0.4585  0.0411 -0.1969
 1291SOL    HW3 5211   1.324   2.601   2.333 -1.6570  0.5039 -1.4134
 1291SOL    MW4 5212   1.330   2.686   2.351 -0.6274  0.2038 -0.2799
 1292SOL     OW 5213   1.547   2.807   2.238  0.5920 -0.1947 -0.4283
 1292SOL    HW2 5214   1.548   2.894   2.278  0.1138  0.0401 -0.9338
 1292SOL    HW3 5215   1.569   2.822   2.146  2.5128 -0.8252 -0.1010
 1292SOL    MW4 5216   1.550   2.821   2.231  0.7824 -0.2470 -0.4518
 1293SOL     OW 5217   1.565   3.074   2.360 -0.3221 -0.1474  0.1569
 1293SOL    HW2 5218   1.578   3.080   2.455 -0.3536 -0.2203  0.1660
 1293SOL    HW3 5219   1.485   3.124   2.344 -0.0965  0.1975  0.1181
 1293SOL    MW4 5220   1.556   3.081   2.371 -0.2965 -0.1113  0.1531
 1294SOL     OW 5221   1.344   3.215   2.279  0.1307  0.1585  0.6794
 1294SOL    HW2 5222   1.265   3.171   2.308  0.4886 -0.1756  1.1522
 1294SOL    HW3 5223   1.334   3.224   2.184  0.5374 -1.8955  0.4310
 1294SOL    MW4 5224   1.332   3.210   2.270  0.2316 -0.1564  0.7091
 1295SOL     OW 5225   1.319   3.476   2.372 -0.4265 -0.5677 -0.1429
 1295SOL    HW2 5226   1.315   3.469   2.467 -0.6627 -1.5755 -0.2189
 1295SOL    HW3 5227   1.335   3.386   2.342 -3.2133 -0.7667 -1.1947
 1295SOL    MW4 5228   1.321   3.463   2.381 -0.8255 -0.7272 -0.2916
 1296SOL     OW 5229   1.562   3.594   2.246  0.3883 -0.3780  0.3012
 1296SOL    HW2 5230   1.567   3.679   2.289 -1.1647 -0.1344  0.0410
 1296SOL    HW3 5231   1.479   3.557   2.276 -1.0597  0.0647 -2.9116
 1296SOL    MW4 5232   1.552   3.600   2.256 -0.0076 -0.2873 -0.1571
 1297SOL     OW 5233   1.564   3.837   2.378 -0.6140 -0.5477 -0.0374
 1297SOL    HW2 5234   1.540   3.855   2.468 -0.9514 -3.3039  0.4752
 1297SOL    HW3 5235   1.638   3.896   2.360 -1.1404  0.6666  1.7052
 1297SOL    MW4 5236   1.571   3.847   2.387 -0.7280 -0.7515  0.2604
 1298SOL     OW 5237   1.341   3.995   2.235 -0.1496  0.2507  0.1160
 1298SOL    HW2 5238   1.421   3.952   2.266 -0.6845 -0.8382  0.0106
 1298SOL    HW3 5239   1.355   4.006   2.141 -0.1509 -0.0135  0.0838
 1298SOL    MW4 5240   1.353   3.991   2.226 -0.2203  0.0722  0.0980
 1299SOL     OW 5241   1.300   4.235   2.355 -1.0375  0.3604  0.2234
 1299SOL    HW2 5242   1.300   4.156   2.301 -2.0388 -0.0471  0.8042
 1299SOL    HW3 5243   1.226   4.287   2.323  0.3583  1.6571 -0.9863
 1299SOL    MW4 5244   1.290   4.232   2.344 -0.9854  0.4783  0.1404
 1300SOL     OW 5245   1.525   4.377   2.254  0.0079 -0.2971  0.7499
 1300SOL    HW2 5246   1.453   4.328   2.292 -0.6830  1.0801  1.2506
 1300SOL    HW3 5247   1.520   4.463   2.295  1.8009 -0.1169  0.6267
 1300SOL    MW4 5248   1.515   4.382   2.264  0.1532 -0.0920  0.7997
 1301SOL     OW 5249   2.033   4.653   2.380  0.1289 -0.1971  0.2722
 1301SOL    HW2 5250   2.104   4.689   2.326 -0.3566  0.4776  0.0924
 1301SOL    HW3 5251   2.027   4.561   2.352  0.0200  0.0960 -0.6739
 1301SOL    MW4 5252   2.042   4.646   2.369  0.0503 -0.0691  0.1233
 1302SOL     OW 5253   1.806   0.085   2.257  0.2085 -0.3347 -0.1589
 1302SOL    HW2 5254   1.783   0.164   2.307 -0.5701 -0.0723 -0.9062
 1302SOL    HW3 5255   1.875   0.043   2.308 -0.2185  0.1932  0.8756
 1302SOL    MW4 5256   1.812   0.090   2.270  0.0496 -0.2304 -0.1211
 1303SOL     OW 5257   1.797   0.330   2.400  0.9796  0.2277  0.1553
 1303SOL    HW2 5258   1.798   0.341   2.495  1.2238 -0.6486  0.2569
 1303SOL    HW3 5259   1.872   0.380   2.370  1.4875 -0.3189  0.5148
 1303SOL    MW4 5260   1.807   0.338   2.409  1.0790  0.0400  0.2165
 1304SOL     OW 5261   2.000   0.496   2.283 -0.1558 -0.2393 -0.0272
 1304SOL    HW2 5262   2.024   0.585   2.311  1.1711 -0.2938 -0.9362
 1304SOL    HW3 5263   1.999   0.501   2.188 -0.2134 -1.1729 -0.0786
 1304SOL    MW4 5264   2.003   0.509   2.274  0.0117 -0.3697 -0.1543
 1305SOL     OW 5265   2.052   0.759   2.387 -0.3697  0.0406  0.1202
 1305SOL    HW2 5266   2.123   0.814   2.356  0.1004 -0.5863  0.0656
 1305SOL    HW3 5267   1.973   0.797   2.348 -0.0341  0.5595 -0.0591
 1305SOL    MW4 5268   2.051   0.771   2.378 -0.2632  0.0263  0.0894
 1306SOL     OW 5269   1.827   0.890   2.303 -0.4028  0.0013 -0.1418
 1306SOL    HW2 5270   1.817   0.975   2.347 -1.5493  0.0116 -0.3928
 1306SOL    HW3 5271   1.796   0.906   2.214  1.5650 -0.1083 -0.8680
 1306SOL    MW4 5272   1.821   0.904   2.297 -0.2943 -0.0119 -0.2706
 1307SOL     OW 5273   1.770   1.128   2.384  0.2578  0.1279 -0.0575
 1307SOL    HW2 5274   1.846   1.157   2.334  0.6909  1.0468  1.0921
 1307SOL    HW3 5275   1.698   1.183   2.354  0.4371  0.4295  0.0621
 1307SOL    MW4 5276   1.770   1.139   2.374  0.3387  0.2890  0.1099
 1308SOL     OW 5277   1.991   1.278   2.279 -0.5370 -0.0497 -0.1343
 1308SOL    HW2 5278   1.999   1.371   2.300 -0.3107  0.0008 -0.4432
 1308SOL    HW3 5279   2.004   1.273   2.185 -0.7611 -0.3708 -0.1478
 1308SOL    MW4 5280   1.994   1.290   2.270 -0.5367 -0.0856 -0.1769
 1309SOL     OW 5281   2.021   1.543   2.354 -0.4293  0.3431  0.3296
 1309SOL    HW2 5282   2.023   1.533   2.449 -1.5231 -2.1105  0.1393
 1309SOL    HW3 5283   1.933   1.576   2.336 -0.7124 -0.5295  0.0796
 1309SOL    MW4 5284   2.009   1.546   2.365 -0.6108 -0.0960  0.2713
 1310SOL     OW 5285   1.779   1.636   2.270 -0.0795 -0.3856 -0.1744
 1310SOL    HW2 5286   1.801   1.726   2.292  1.0778 -1.0847  1.6560
 1310SOL    HW3 5287   1.809   1.624   2.180  1.6327  0.4530  0.2689
 1310SOL    MW4 5288   1.786   1.646   2.261  0.2990 -0.3672  0.1256
 1311SOL     OW 5289   1.830   1.898   2.358  0.3673  0.7868  0.1584
 1311SOL    HW2 5290   1.823   1.897   2.454  1.1094  1.1396  0.2196
 1311SOL    HW3 5291   1.896   1.964   2.340  0.6630  0.2913 -0.5735
 1311SOL    MW4 5292   1.838   1.907   2.368  0.5043  0.7681  0.0699
 1312SOL     OW 5293   2.056   2.063   2.251  0.0331 -0.2187  0.0624
 1312SOL    HW2 5294   2.132   2.027   2.295  0.1836  0.7106  0.5691
 1312SOL    HW3 5295   2.076   2.055   2.157  0.5209 -0.4525  0.1862
 1312SOL    MW4 5296   2.068   2.057   2.244  0.1171 -0.1268  0.1454
 1313SOL     OW 5297   2.031   2.330   2.349 -0.1610  0.3980 -0.0760
 1313SOL    HW2 5298   2.113   2.372   2.324  0.7795 -0.2269  1.9551
 1313SOL    HW3 5299   2.034   2.244   2.307  0.2380  0.3385  0.0820
 1313SOL    MW4 5300   2.042   2.324   2.340  0.0160  0.3078  0.2131
 1314SOL     OW 5301   1.798   2.415   2.238 -0.1803  0.3463  0.6564
 1314SOL    HW2 5302   1.871   2.370   2.280 -1.0989 -1.5911  0.2528
 1314SOL    HW3 5303   1.720   2.369   2.270 -1.1376  1.4663 -0.0094
 1314SOL    MW4 5304   1.797   2.403   2.248 -0.4278  0.2384  0.5155
 1315SOL     OW 5305   1.787   2.674   2.329  0.2656  0.0022  0.1547
 1315SOL    HW2 5306   1.777   2.584   2.300  1.6766 -0.0947 -0.0460
 1315SOL    HW3 5307   1.709   2.718   2.296  0.2350 -0.8446 -0.9274
 1315SOL    MW4 5308   1.775   2.668   2.321  0.4478 -0.1223 -0.0145
 1316SOL     OW 5309   2.030   2.835   2.226  0.2994  0.0648 -0.0078
 1316SOL    HW2 5310   2.107   2.806   2.276  0.9392  0.7481 -0.5951
 1316SOL    HW3 5311   1.957   2.788   2.266  0.8650  0.2765  1.3025
 1316SOL    MW4 5312   2.031   2.825   2.238  0.4585  0.1829  0.0877
 1317SOL     OW 5313   2.014   3.101   2.333  0.2188  0.1927  0.0824
 1317SOL    HW2 5314   2.101   3.137   2.316  0.6179 -0.7014  0.1847
 1317SOL    HW3 5315   2.018   3.011   2.299 -0.6994  0.1818 -0.0188
 1317SOL    MW4 5316   2.026   3.094   2.326  0.1504  0.0732  0.0825
 1318SOL     OW 5317   1.764   3.238   2.234 -0.0928 -0.3764  0.0736
 1318SOL    HW2 5318   1.843   3.197   2.270  0.4621  0.8156  0.2363
 1318SOL    HW3 5319   1.693   3.178   2.257  0.5368 -0.6355  1.3785
 1318SOL    MW4 5320   1.765   3.225   2.242  0.0635 -0.2537  0.2670
 1319SOL     OW 5321   1.770   3.477   2.395 -0.3021  0.5357  0.2096
 1319SOL    HW2 5322   1.774   3.395   2.345 -1.0728  0.1792  0.7274
 1319SOL    HW3 5323   1.703   3.529   2.352  0.2066  0.9098 -0.1351
 1319SOL    MW4 5324   1.762   3.473   2.383 -0.3366  0.5379  0.2325
 1320SOL     OW 5325   2.002   3.602   2.308  0.4371  0.3505 -0.3700
 1320SOL    HW2 5326   1.922   3.560   2.337  1.5020 -1.5724 -0.1517
 1320SOL    HW3 5327   2.008   3.581   2.215  0.5500  0.7087 -0.4452
 1320SOL    MW4 5328   1.993   3.594   2.300  0.5927  0.1438 -0.3512
 1321SOL     OW 5329   1.989   3.875   2.422 -0.3398  0.3355 -0.1003
 1321SOL    HW2 5330   1.999   3.863   2.516  1.8562 -0.1124 -0.3719
 1321SOL    HW3 5331   1.995   3.786   2.385  0.7986  0.7099 -0.8297
 1321SOL    MW4 5332   1.991   3.862   2.429  0.1001  0.3259 -0.2320
 1322SOL     OW 5333   1.773   4.012   2.305  0.2194 -0.0511 -0.5818
 1322SOL    HW2 5334   1.849   3.971   2.347 -0.2978 -1.2984 -0.8424
 1322SOL    HW3 5335   1.787   3.998   2.211 -0.2056 -0.0609 -0.6449
 1322SOL    MW4 5336   1.785   4.005   2.298  0.0950 -0.2174 -0.6244
 1323SOL     OW 5337   1.748   4.257   2.391 -0.4888  0.0964  0.5764
 1323SOL    HW2 5338   1.754   4.172   2.348 -0.9083 -0.3416  1.3768
 1323SOL    HW3 5339   1.675   4.301   2.348 -0.6097 -0.1562  0.5252
 1323SOL    MW4 5340   1.739   4.252   2.380 -0.5602  0.0052  0.6752
 1324SOL     OW 5341   1.987   4.375   2.305  0.2403 -0.1827  0.6013
 1324SOL    HW2 5342   1.903   4.332   2.321  1.1718 -1.8176  1.2274
 1324SOL    HW3 5343   1.999   4.369   2.210 -0.6269  0.5970  0.4385
 1324SOL    MW4 5344   1.978   4.368   2.294  0.2488 -0.2956  0.6621
 1325SOL     OW 5345   2.453   0.005   2.371  0.0544  0.0905  0.0243
 1325SOL    HW2 5346   2.526   0.053   2.330  0.1627  0.4271  0.6091
 1325SOL    HW3 5347   2.460  -0.084   2.335 -0.7239  0.7362 -1.8130
 1325SOL    MW4 5348   2.464  -0.000   2.361 -0.0339  0.2203 -0.1411
 1326SOL     OW 5349   2.249   0.133   2.243  0.2826 -0.6361  0.4680
 1326SOL    HW2 5350   2.243   0.219   2.284 -0.6358 -0.9327  0.9460
 1326SOL    HW3 5351   2.329   0.094   2.280  1.5346  0.5899 -0.8703
 1326SOL    MW4 5352   2.259   0.139   2.253  0.3264 -0.5135  0.3543
 1327SOL     OW 5353   2.230   0.397   2.377 -0.1386 -0.3798  0.4917
 1327SOL    HW2 5354   2.301   0.448   2.339  0.7657 -1.7630  0.2966
 1327SOL    HW3 5355   2.151   0.434   2.337  0.3855  1.6301  1.2446
 1327SOL    MW4 5356   2.229   0.408   2.367  0.0498 -0.2971  0.5653
 1328SOL     OW 5357   2.436   0.544   2.270 -0.3084  0.5255 -0.1857
 1328SOL    HW2 5358   2.520   0.507   2.297 -1.6067 -3.1543 -0.9108
 1328SOL    HW3 5359   2.437   0.537   2.174 -0.6491  2.2653 -0.3179
 1328SOL    MW4 5360   2.448   0.538   2.261 -0.5248  0.2696 -0.2990
 1329SOL     OW 5361   2.466   0.777   2.414 -0.2121  0.0713 -0.0398
 1329SOL    HW2 5362   2.542   0.824   2.381  0.0504 -0.3734 -0.0733
 1329SOL    HW3 5363   2.461   0.698   2.361 -0.5122 -0.0531  0.1700
 1329SOL    MW4 5364   2.476   0.773   2.403 -0.2172 -0.0039 -0.0167
 1330SOL     OW 5365   2.262   0.913   2.266  0.1515 -0.2152  0.0745
 1330SOL    HW2 5366   2.238   0.991   2.315  0.0560 -0.1830 -0.0248
 1330SOL    HW3 5367   2.330   0.871   2.319  1.2102  0.6732 -0.5632
 1330SOL    MW4 5368   2.268   0.918   2.279  0.2787 -0.0937 -0.0229
 1331SOL     OW 5369   2.218   1.167   2.401  0.1418  0.0391 -0.1029
 1331SOL    HW2 5370   2.292   1.225   2.378  0.2049  0.1816  0.4515
 1331SOL    HW3 5371   2.142   1.208   2.360  0.6027 -0.9500 -2.0084
 1331SOL    MW4 5372   2.218   1.180   2.393  0.2110 -0.0725 -0.2813
 1332SOL     OW 5373   2.450   1.298   2.297 -0.3211  0.4098  0.3653
 1332SOL    HW2 5374   2.529   1.257   2.333 -0.4631  0.2302  0.4780
 1332SOL    HW3 5375   2.462   1.392   2.313 -0.3607  0.3377  0.8515
 1332SOL    MW4 5376   2.462   1.305   2.304 -0.3450  0.3766  0.4444
 1333SOL     OW 5377   2.468   1.566   2.349  0.1584 -0.4425 -0.0874
 1333SOL    HW2 5378   2.472   1.546   2.443  0.4255 -0.3311 -0.0748
 1333SOL    HW3 5379   2.557   1.593   2.326  0.5330 -2.1714 -0.7668
 1333SOL    MW4 5380   2.480   1.567   2.358  0.2432 -0.6559 -0.1752
 1334SOL     OW 5381   2.231   1.705   2.272  0.3093 -0.3165  0.2462
 1334SOL    HW2 5382   2.311   1.669   2.311  0.0088 -2.1747 -0.7806
 1334SOL    HW3 5383   2.162   1.644   2.297 -0.7859  1.1744  0.9708
 1334SOL    MW4 5384   2.232   1.692   2.280  0.1249 -0.3650  0.2065
 1335SOL     OW 5385   2.255   1.957   2.381  0.1730  0.7570 -0.2373
 1335SOL    HW2 5386   2.335   1.992   2.341 -0.9472  2.6671 -0.8826
 1335SOL    HW3 5387   2.246   1.870   2.343  1.9914  0.4862 -0.0944
 1335SOL    MW4 5388   2.264   1.951   2.370  0.2651  0.9733 -0.3037
 1336SOL     OW 5389   2.475   2.067   2.225  0.0732 -0.0627 -0.1941
 1336SOL    HW2 5390   2.554   2.019   2.247  0.4651  0.6267 -0.0686
 1336SOL    HW3 5391   2.472   2.066   2.129  0.5490  0.4152 -0.2128
 1336SOL    MW4 5392   2.485   2.061   2.215  0.1876  0.0911 -0.1800
 1337SOL     OW 5393   2.484   2.305   2.378  0.3405  0.1056  0.0692
 1337SOL    HW2 5394   2.553   2.352   2.331  0.2327 -0.5143 -0.7223
 1337SOL    HW3 5395   2.475   2.222   2.331 -2.0682  0.8315 -0.8289
 1337SOL    MW4 5396   2.492   2.300   2.366  0.0086  0.1194 -0.1538
 1338SOL     OW 5397   2.264   2.465   2.257  0.0794 -0.7653  0.2763
 1338SOL    HW2 5398   2.268   2.553   2.295  0.0291  0.1372 -1.7242
 1338SOL    HW3 5399   2.335   2.417   2.300 -0.9050 -0.2499  2.5472
 1338SOL    MW4 5400   2.274   2.470   2.268 -0.0572 -0.5782  0.3119
 1339SOL     OW 5401   2.262   2.728   2.351  0.6477 -0.4439 -0.1061
 1339SOL    HW2 5402   2.279   2.739   2.444  1.4395 -0.1762 -0.2819
 1339SOL    HW3 5403   2.344   2.751   2.308 -0.3184  1.5432 -0.9973
 1339SOL    MW4 5404   2.275   2.733   2.357  0.6244 -0.1464 -0.2470
 1340SOL     OW 5405   2.521   2.789   2.232 -0.1540 -0.2901  0.6931
 1340SOL    HW2 5406   2.602   2.743   2.256 -0.5384 -0.6018  1.4029
 1340SOL    HW3 5407   2.525   2.796   2.137  0.6777 -0.3676  0.7159
 1340SOL    MW4 5408   2.532   2.784   2.223 -0.0951 -0.3414  0.7896
 1341SOL     OW 5409   2.472   3.052   2.353  0.0839  0.1856  0.3635
 1341SOL    HW2 5410   2.541   3.103   2.310  0.2484 -0.4006 -0.0738
 1341SOL    HW3 5411   2.493   2.961   2.333 -0.8905  0.0025  0.1121
 1341SOL    MW4 5412   2.484   3.047   2.344 -0.0229  0.0839  0.2725
 1342SOL     OW 5413   2.259   3.216   2.266 -0.0274  0.1210 -0.0154
 1342SOL    HW2 5414   2.266   3.304   2.303  1.0725  0.6031 -1.3492
 1342SOL    HW3 5415   2.337   3.170   2.297 -0.3366 -0.2217  0.2546
 1342SOL    MW4 5416   2.270   3.222   2.275  0.0772  0.1392 -0.1554
 1343SOL     OW 5417   2.249   3.454   2.374 -0.1097  0.3720  0.1993
 1343SOL    HW2 5418   2.254   3.462   2.469  0.0668 -1.1060  0.3342
 1343SOL    HW3 5419   2.169   3.502   2.350 -0.1879  0.6946  1.0947
 1343SOL    MW4 5420   2.239   3.461   2.383 -0.0970  0.2196  0.3355
 1344SOL     OW 5421   2.462   3.591   2.249  0.0069  0.4765 -0.3098
 1344SOL    HW2 5422   2.459   3.679   2.286  1.6291  0.4050  0.0290
 1344SOL    HW3 5423   2.386   3.547   2.287 -0.0138  1.3085  0.6399
 1344SOL    MW4 5424   2.452   3.597   2.259  0.2179  0.5767 -0.1395
 1345SOL     OW 5425   2.453   3.843   2.341 -0.1363  0.0631  0.0776
 1345SOL    HW2 5426   2.459   3.850   2.436 -2.1698 -0.4251  0.2868
 1345SOL    HW3 5427   2.384   3.905   2.316  0.8027  0.6462 -1.1649
 1345SOL    MW4 5428   2.444   3.852   2.350 -0.2809  0.0756 -0.0584
 1346SOL     OW 5429   2.228   3.994   2.312  0.6004  0.0013  0.0681
 1346SOL    HW2 5430   2.231   4.088   2.333 -0.1865  0.3985 -1.5420
 1346SOL    HW3 5431   2.151   3.962   2.359  0.1657  0.4198 -0.3530
 1346SOL    MW4 5432   2.218   4.002   2.321  0.4392  0.1092 -0.2000
 1347SOL     OW 5433   2.245   4.249   2.382 -0.3321  0.1565  0.0846
 1347SOL    HW2 5434   2.253   4.245   2.477 -0.1965 -0.8216  0.0364
 1347SOL    HW3 5435   2.159   4.288   2.367  0.3398  1.8392  0.5997
 1347SOL    MW4 5436   2.235   4.253   2.393 -0.2253  0.2494  0.1459
 1348SOL     OW 5437   2.471   4.406   2.273  0.3496  0.1489  0.2109
 1348SOL    HW2 5438   2.543   4.363   2.318  0.9615  1.2726  0.3213
 1348SOL    HW3 5439   2.395   4.350   2.290  0.9766 -0.4680  1.0015
 1348SOL    MW4 5440   2.470   4.393   2.281  0.5131  0.2160  0.3295
 1349SOL     OW 5441   2.867   0.028   2.368  0.3541  0.2806  0.1053
 1349SOL    HW2 5442   2.947   0.074   2.343 -0.2408  0.5924 -1.2487
 1349SOL    HW3 5443   2.879  -0.060   2.335  0.5330  0.0637  0.7361
 1349SOL    MW4 5444   2.879   0.023   2.360  0.2990  0.2932  0.0100
 1350SOL     OW 5445   2.655   0.143   2.248  0.4094 -0.4404 -0.1282
 1350SOL    HW2 5446   2.647   0.226   2.295 -1.4026 -0.1438 -0.8851
 1350SOL    HW3 5447   2.720   0.093   2.297 -0.8398  0.1690  2.2607
 1350SOL    MW4 5448   2.662   0.147   2.261  0.0055 -0.3209  0.0873
 1351SOL     OW 5449   2.652   0.400   2.375 -0.3105  0.4662 -0.3232
 1351SOL    HW2 5450   2.650   0.393   2.470 -0.9180 -0.2450 -0.3842
 1351SOL    HW3 5451   2.739   0.437   2.355  0.5417 -1.1096  0.3969
 1351SOL    MW4 5452   2.663   0.404   2.385 -0.2780  0.1644 -0.2360
 1352SOL     OW 5453   2.882   0.549   2.267 -0.3350 -0.5659  0.4940
 1352SOL    HW2 5454   2.910   0.639   2.283 -0.4279 -0.5596  0.6260
 1352SOL    HW3 5455   2.871   0.543   2.173 -1.0760 -0.2184  0.5589
 1352SOL    MW4 5456   2.885   0.560   2.257 -0.4454 -0.5192  0.5200
 1353SOL     OW 5457   2.923   0.804   2.378  0.3992 -0.0801  0.8289
 1353SOL    HW2 5458   2.916   0.791   2.473 -2.6903  0.3512  0.7216
 1353SOL    HW3 5459   2.839   0.844   2.353  1.0980 -0.3286 -2.1163
 1353SOL    MW4 5460   2.911   0.808   2.387  0.0837 -0.0560  0.4261
 1354SOL     OW 5461   2.675   0.921   2.299 -0.1251 -0.0642  0.3099
 1354SOL    HW2 5462   2.684   1.013   2.325 -0.8217  0.2561 -0.5433
 1354SOL    HW3 5463   2.690   0.923   2.204 -0.7528 -0.7408  0.1967
 1354SOL    MW4 5464   2.678   0.934   2.290 -0.2999 -0.1113  0.1822
 1355SOL     OW 5465   2.667   1.179   2.386  0.4294 -0.1572 -0.1032
 1355SOL    HW2 5466   2.664   1.172   2.482 -1.4816  1.7670  0.0248
 1355SOL    HW3 5467   2.755   1.212   2.368  0.5242  0.2731  1.0656
 1355SOL    MW4 5468   2.679   1.183   2.396  0.1900  0.1534  0.0679
 1356SOL     OW 5469   2.916   1.272   2.300 -0.4454  0.1926  0.0752
 1356SOL    HW2 5470   3.002   1.237   2.322 -0.4662 -0.8869 -1.4971
 1356SOL    HW3 5471   2.917   1.279   2.205 -1.7504  1.1180  0.1191
 1356SOL    MW4 5472   2.928   1.268   2.290 -0.6204  0.1723 -0.1266
 1357SOL     OW 5473   2.947   1.543   2.355  0.1862 -0.3655 -0.0110
 1357SOL    HW2 5474   2.939   1.546   2.451  2.0626  0.1211  0.1476
 1357SOL    HW3 5475   2.949   1.449   2.335 -0.4506 -0.4724  0.3932
 1357SOL    MW4 5476   2.946   1.531   2.365  0.3498 -0.3154  0.0632
 1358SOL     OW 5477   2.719   1.616   2.230 -0.1211  0.3413  0.5341
 1358SOL    HW2 5478   2.801   1.590   2.273  0.4283  1.0492 -0.0720
 1358SOL    HW3 5479   2.739   1.614   2.136 -1.2648 -1.0284  0.3115
 1358SOL    MW4 5480   2.732   1.613   2.223 -0.1993  0.2539  0.4249
 1359SOL     OW 5481   2.677   1.891   2.306 -1.0185 -0.2208 -0.2011
 1359SOL    HW2 5482   2.667   1.884   2.401 -0.1309 -1.0854 -0.1626
 1359SOL    HW3 5483   2.690   1.800   2.276 -0.6699  0.1070 -1.0688
 1359SOL    MW4 5484   2.678   1.878   2.314 -0.8554 -0.2917 -0.3102
 1360SOL     OW 5485   2.921   2.009   2.231 -0.3065  0.0933 -0.0201
 1360SOL    HW2 5486   2.993   1.961   2.271 -0.0305  0.1392 -0.4521
 1360SOL    HW3 5487   2.844   1.954   2.247  0.0068 -0.5090 -0.5205
 1360SOL    MW4 5488   2.920   1.995   2.238 -0.2289  0.0200 -0.1431
 1361SOL     OW 5489   2.887   2.275   2.375 -0.2843  0.2642 -0.7935
 1361SOL    HW2 5490   2.880   2.301   2.467 -1.4909  1.7226 -1.2643
 1361SOL    HW3 5491   2.915   2.184   2.378  1.2131  0.7309  0.9936
 1361SOL    MW4 5492   2.890   2.267   2.388 -0.2463  0.5181 -0.6199
 1362SOL     OW 5493   2.692   2.435   2.218  0.3584 -0.1695  0.2832
 1362SOL    HW2 5494   2.762   2.376   2.248  1.2586  1.3597  1.2695
 1362SOL    HW3 5495   2.708   2.445   2.124  0.4092 -1.2084  0.1740
 1362SOL    MW4 5496   2.703   2.428   2.210  0.4838 -0.1047  0.3989
 1363SOL     OW 5497   2.785   2.652   2.369  0.1941  0.1980  0.0180
 1363SOL    HW2 5498   2.854   2.703   2.327  0.4072  0.8925  1.1828
 1363SOL    HW3 5499   2.771   2.577   2.311  0.6095  1.0376 -1.1756
 1363SOL    MW4 5500   2.792   2.648   2.356  0.2770  0.4005  0.0143
 1364SOL     OW 5501   2.971   2.828   2.264 -0.2098  0.1444 -0.1763
 1364SOL    HW2 5502   2.928   2.901   2.309 -0.3821  0.1378 -0.3276
 1364SOL    HW3 5503   2.970   2.853   2.172 -0.6212 -0.2295 -0.2724
 1364SOL    MW4 5504   2.965   2.841   2.258 -0.2868  0.0942 -0.2089
 1365SOL     OW 5505   2.911   3.056   2.400 -0.1067  0.1027 -0.4643
 1365SOL    HW2 5506   2.988   3.099   2.362  1.2002 -0.2229  1.7061
 1365SOL    HW3 5507   2.837   3.110   2.373  1.2668  2.4783  0.3345
 1365SOL    MW4 5508   2.911   3.069   2.392  0.2468  0.3734 -0.0727
 1366SOL     OW 5509   2.694   3.205   2.302 -0.1010  0.0631  0.0554
 1366SOL    HW2 5510   2.685   3.297   2.329 -1.4108 -0.3119  0.9303
 1366SOL    HW3 5511   2.730   3.210   2.213 -0.7076  1.4420 -0.1313
 1366SOL    MW4 5512   2.698   3.218   2.294 -0.3538  0.1957  0.1462
 1367SOL     OW 5513   2.694   3.475   2.348  0.0180  0.3685  0.0354
 1367SOL    HW2 5514   2.767   3.538   2.344 -0.1106  0.6279  1.6152
 1367SOL    HW3 5515   2.623   3.519   2.301  0.9282  0.0059 -1.7484
 1367SOL    MW4 5516   2.694   3.489   2.341  0.1214  0.3550  0.0086
 1368SOL     OW 5517   2.934   3.626   2.311  0.1399 -0.0125  0.4722
 1368SOL    HW2 5518   2.996   3.583   2.369 -0.2192  0.3788  1.1539
 1368SOL    HW3 5519   2.943   3.719   2.330  0.4672  0.1677 -0.5486
 1368SOL    MW4 5520   2.943   3.632   2.321  0.1357  0.0629  0.4272
 1369SOL     OW 5521   2.922   3.927   2.359 -0.2776  0.1995  0.3984
 1369SOL    HW2 5522   2.904   3.908   2.451 -0.5858 -0.0536  0.2856
 1369SOL    HW3 5523   2.839   3.960   2.325 -0.6294 -1.3013 -0.2099
 1369SOL    MW4 5524   2.909   3.929   2.367 -0.3648 -0.0317  0.3028
 1370SOL     OW 5525   2.654   4.045   2.275 -0.1892 -0.3308  0.1525
 1370SOL    HW2 5526   2.575   3.993   2.291 -0.7751  0.3034 -0.5970
 1370SOL    HW3 5527   2.669   4.037   2.181 -0.5179  1.1414 -0.0396
 1370SOL    MW4 5528   2.645   4.037   2.265 -0.3097 -0.0520  0.0286
 1371SOL     OW 5529   2.694   4.292   2.396  0.5764 -0.5795 -0.3825
 1371SOL    HW2 5530   2.675   4.281   2.489 -0.1423  1.3731 -0.2658
 1371SOL    HW3 5531   2.678   4.206   2.358 -1.7246 -0.7694  0.8777
 1371SOL    MW4 5532   2.689   4.280   2.404  0.1783 -0.3467 -0.2010
 1372SOL     OW 5533   2.916   4.426   2.281  0.0249  0.1529  0.1246
 1372SOL    HW2 5534   2.987   4.390   2.334  1.5153 -0.0086 -1.9133
 1372SOL    HW3 5535   2.838   4.379   2.310  1.0028 -0.7886  1.3057
 1372SOL    MW4 5536   2.915   4.415   2.292  0.3505  0.0072  0.0117
 1373SOL     OW 5537   3.320   0.023   2.367 -0.2600  0.1451 -0.1734
 1373SOL    HW2 5538   3.330   0.043   2.461  2.1712  0.7042 -0.5187
 1373SOL    HW3 5539   3.407   0.038   2.330 -0.8755 -1.3411 -2.3065
 1373SOL    MW4 5540   3.333   0.028   2.375 -0.0205  0.0224 -0.5004
 1374SOL     OW 5541   3.100   0.163   2.274  0.3644 -0.2269  0.1889
 1374SOL    HW2 5542   3.100   0.250   2.313  0.0111 -0.1844  0.0949
 1374SOL    HW3 5543   3.171   0.116   2.319 -0.5609 -0.4361  1.4482
 1374SOL    MW4 5544   3.110   0.168   2.285  0.1955 -0.2489  0.3426
 1375SOL     OW 5545   3.089   0.430   2.393 -0.1601 -0.2544 -0.6619
 1375SOL    HW2 5546   3.165   0.474   2.355 -0.9980  0.3907 -1.6233
 1375SOL    HW3 5547   3.014   0.469   2.348 -0.9735 -1.9130 -0.7861
 1375SOL    MW4 5548   3.089   0.441   2.382 -0.3779 -0.3881 -0.8049
 1376SOL     OW 5549   3.316   0.539   2.304 -0.2764 -0.0576 -0.1990
 1376SOL    HW2 5550   3.390   0.484   2.330  0.1650  0.8832  0.5860
 1376SOL    HW3 5551   3.298   0.515   2.213  0.7612 -0.5494 -0.2811
 1376SOL    MW4 5552   3.323   0.529   2.296 -0.0813  0.0016 -0.1063
 1377SOL     OW 5553   3.379   0.768   2.429  0.4957 -0.5704 -0.7500
 1377SOL    HW2 5554   3.463   0.806   2.404  1.5506 -2.3022  0.1055
 1377SOL    HW3 5555   3.370   0.690   2.374 -0.6859 -0.2603 -1.0221
 1377SOL    MW4 5556   3.389   0.763   2.419  0.4787 -0.7580 -0.6731
 1378SOL     OW 5557   3.164   0.902   2.312 -0.2458  0.0847  0.5330
 1378SOL    HW2 5558   3.234   0.846   2.347  0.6010  0.1084 -1.0649
 1378SOL    HW3 5559   3.085   0.871   2.355  0.4935 -1.1295  1.0560
 1378SOL    MW4 5560   3.163   0.890   2.322 -0.0367 -0.0724  0.3910
 1379SOL     OW 5561   3.168   1.171   2.379  0.2443  0.0829 -0.2959
 1379SOL    HW2 5562   3.252   1.188   2.336  0.1969 -0.8922 -0.7855
 1379SOL    HW3 5563   3.148   1.080   2.357 -1.7969  0.8316 -1.6196
 1379SOL    MW4 5564   3.176   1.161   2.370 -0.0312  0.0530 -0.5350
 1380SOL     OW 5565   3.420   1.264   2.274  0.1942  0.2980  0.1934
 1380SOL    HW2 5566   3.498   1.222   2.309 -0.4958  0.1382  1.5851
 1380SOL    HW3 5567   3.425   1.354   2.306  0.3846  0.6105 -0.6824
 1380SOL    MW4 5568   3.431   1.271   2.283  0.1283  0.3182  0.2615
 1381SOL     OW 5569   3.379   1.546   2.345 -0.6177  0.0100 -0.0068
 1381SOL    HW2 5570   3.359   1.571   2.435 -1.8142  0.7567 -0.4696
 1381SOL    HW3 5571   3.306   1.581   2.293 -0.9268 -2.0450 -1.0360
 1381SOL    MW4 5572   3.367   1.554   2.350 -0.8163 -0.1627 -0.2036
 1382SOL     OW 5573   3.156   1.650   2.223  0.2423  0.4478  0.3160
 1382SOL    HW2 5574   3.171   1.724   2.282 -0.8887  1.1509 -0.2647
 1382SOL    HW3 5575   3.073   1.613   2.252 -0.2661  0.7259 -0.7459
 1382SOL    MW4 5576   3.147   1.655   2.235  0.0257  0.5773  0.0992
 1383SOL     OW 5577   3.158   1.877   2.380  0.3941 -0.1570  0.7616
 1383SOL    HW2 5578   3.165   1.883   2.475 -0.2889  0.6937  0.7666
 1383SOL    HW3 5579   3.232   1.929   2.347  0.2625  0.0731  0.8287
 1383SOL    MW4 5580   3.169   1.885   2.388  0.2866 -0.0144  0.7710
 1384SOL     OW 5581   3.362   2.037   2.275  0.2030  0.0678  0.4301
 1384SOL    HW2 5582   3.455   2.022   2.295  0.1284 -1.6192 -0.3604
 1384SOL    HW3 5583   3.359   2.047   2.180 -0.5048 -0.6628  0.3658
 1384SOL    MW4 5584   3.374   2.036   2.265  0.0997 -0.2511  0.3171
 1385SOL     OW 5585   3.335   2.303   2.359  0.0016 -0.2149  0.0932
 1385SOL    HW2 5586   3.246   2.324   2.331  0.4525  0.0502 -1.1654
 1385SOL    HW3 5587   3.340   2.207   2.351  0.2940 -0.0942 -1.2558
 1385SOL    MW4 5588   3.324   2.293   2.354  0.0999 -0.1640 -0.2511
 1386SOL     OW 5589   3.097   2.412   2.269  0.2644  0.4040 -0.5931
 1386SOL    HW2 5590   3.107   2.492   2.321  0.8006 -0.0930  0.0789
 1386SOL    HW3 5591   3.031   2.361   2.316  1.6091 -0.5755  0.2843
 1386SOL    MW4 5592   3.090   2.416   2.282  0.5126  0.2093 -0.3886
 1387SOL     OW 5593   3.196   2.707   2.370 -0.2993 -0.3528  0.2322
 1387SOL    HW2 5594   3.178   2.731   2.461 -1.7301 -3.0499  0.7376
 1387SOL    HW3 5595   3.124   2.745   2.320 -0.1724  0.0965  0.3891
 1387SOL    MW4 5596   3.184   2.715   2.375 -0.4714 -0.6492  0.3192
 1388SOL     OW 5597   3.427   2.828   2.287 -0.2931 -0.1199  0.3439
 1388SOL    HW2 5598   3.412   2.916   2.321  0.2628 -0.2667  0.9812
 1388SOL    HW3 5599   3.358   2.774   2.326 -0.7900  0.0815 -0.2520
 1388SOL    MW4 5600   3.416   2.832   2.297 -0.2851 -0.1123  0.3493
 1389SOL     OW 5601   3.367   3.093   2.357 -0.1982 -0.0281 -0.1151
 1389SOL    HW2 5602   3.431   3.159   2.334  0.1200 -0.6718 -1.0930
 1389SOL    HW3 5603   3.284   3.127   2.324  0.1873 -0.7550 -1.9064
 1389SOL    MW4 5604   3.364   3.106   2.350 -0.1054 -0.2089 -0.4804
 1390SOL     OW 5605   3.132   3.207   2.258  0.0524  0.0881 -0.1787
 1390SOL    HW2 5606   3.115   3.296   2.290 -1.4720 -0.1313 -0.3165
 1390SOL    HW3 5607   3.128   3.214   2.163 -0.0494 -0.1216 -0.1901
 1390SOL    MW4 5608   3.129   3.220   2.250 -0.1621  0.0315 -0.1984
 1391SOL     OW 5609   3.139   3.462   2.397 -0.1638 -0.2979 -0.3207
 1391SOL    HW2 5610   3.157   3.456   2.491 -1.9113  0.9981  0.1222
 1391SOL    HW3 5611   3.205   3.522   2.363  0.6440 -0.9844  0.0235
 1391SOL    MW4 5612   3.150   3.469   2.405 -0.2878 -0.2174 -0.2170
 1392SOL     OW 5613   3.344   3.608   2.310  0.0522 -0.2182 -0.0106
 1392SOL    HW2 5614   3.429   3.573   2.334  0.8053  1.6486  0.1292
 1392SOL    HW3 5615   3.341   3.602   2.214  0.1491 -0.6601  0.0108
 1392SOL    MW4 5616   3.355   3.602   2.300  0.1640 -0.0300  0.0103
 1393SOL     OW 5617   3.360   3.881   2.351 -0.1635 -0.4677 -0.3826
 1393SOL    HW2 5618   3.429   3.917   2.295 -0.8635 -1.1585 -1.7077
 1393SOL    HW3 5619   3.359   3.787   2.332 -1.4453 -0.4708 -0.3428
 1393SOL    MW4 5620   3.369   3.873   2.341 -0.4253 -0.5593 -0.5524
 1394SOL     OW 5621   3.161   4.041   2.288  0.4974  0.2403 -0.1572
 1394SOL    HW2 5622   3.226   3.974   2.309  0.1694 -0.0515 -0.0632
 1394SOL    HW3 5623   3.077   3.999   2.307  0.1986  0.0779 -1.7657
 1394SOL    MW4 5624   3.158   4.027   2.294  0.4144  0.1802 -0.3572
 1395SOL     OW 5625   3.135   4.291   2.409  0.1323  0.4009  0.0720
 1395SOL    HW2 5626   3.204   4.338   2.361 -0.0519 -0.7883 -1.3940
 1395SOL    HW3 5627   3.142   4.201   2.380 -1.2083  0.0132  0.8922
 1395SOL    MW4 5628   3.145   4.286   2.399 -0.0689  0.1926 -0.0131
 1396SOL     OW 5629   3.349   4.429   2.283  0.1271  0.7000  0.2394
 1396SOL    HW2 5630   3.329   4.521   2.303  2.0549  1.1300  0.3488
 1396SOL    HW3 5631   3.345   4.424   2.188  1.0312  1.1642  0.1697
 1396SOL    MW4 5632   3.346   4.441   2.273  0.5007  0.8178  0.2446
 1397SOL     OW 5633   3.780   4.660   2.375  0.1507 -0.2011  0.0274
 1397SOL    HW2 5634   3.786   4.663   2.471 -1.2248  0.1748  0.1152
 1397SOL    HW3 5635   3.847   4.721   2.345  0.0176  0.3321  0.7810
 1397SOL    MW4 5636   3.790   4.668   2.384 -0.0484 -0.0811  0.1385
 1398SOL     OW 5637   3.547   0.115   2.260  0.1806  0.1859 -0.2343
 1398SOL    HW2 5638   3.547   0.201   2.302  0.7929  1.2627 -2.4024
 1398SOL    HW3 5639   3.618   0.067   2.304  1.6206  1.7139 -0.8518
 1398SOL    MW4 5640   3.557   0.120   2.272  0.4513  0.5296 -0.6018
 1399SOL     OW 5641   3.553   0.381   2.350 -0.2576 -0.6237  0.0377
 1399SOL    HW2 5642   3.558   0.380   2.445 -2.1359 -1.1397  0.1668
 1399SOL    HW3 5643   3.636   0.420   2.321 -0.6632  1.7939  1.9481
 1399SOL    MW4 5644   3.564   0.386   2.358 -0.5589 -0.3728  0.3066
 1400SOL     OW 5645   3.810   0.455   2.253  0.4814  0.0851  0.7868
 1400SOL    HW2 5646   3.820   0.543   2.290 -0.8363 -0.0679  1.5293
 1400SOL    HW3 5647   3.792   0.470   2.160  1.9877  0.5291  0.5440
 1400SOL    MW4 5648   3.809   0.469   2.246  0.5062  0.1234  0.8531
 1401SOL     OW 5649   3.835   0.702   2.376  0.3240  0.4176 -0.3869
 1401SOL    HW2 5650   3.827   0.735   2.465 -0.1909  1.2189 -0.7243
 1401SOL    HW3 5651   3.902   0.758   2.336  0.0342  0.5304 -0.7178
 1401SOL    MW4 5652   3.843   0.714   2.382  0.2179  0.5382 -0.4752
 1402SOL     OW 5653   3.627   0.860   2.319  0.1077 -0.5396  0.1954
 1402SOL    HW2 5654   3.697   0.796   2.329  2.6519  2.1209  0.2383
 1402SOL    HW3 5655   3.604   0.857   2.226  0.3265 -1.3932  0.1679
 1402SOL    MW4 5656   3.633   0.851   2.308  0.4723 -0.3012  0.1972
 1403SOL     OW 5657   3.628   1.140   2.389 -0.5315  0.3863  0.4148
 1403SOL    HW2 5658   3.625   1.145   2.485 -0.9723 -0.0297  0.4285
 1403SOL    HW3 5659   3.637   1.046   2.371  3.1751  0.7223  0.1223
 1403SOL    MW4 5660   3.629   1.128   2.399 -0.1006  0.3757  0.3779
 1404SOL     OW 5661   3.855   1.276   2.290  0.1760 -0.1576 -0.1734
 1404SOL    HW2 5662   3.867   1.360   2.335  1.1643 -0.7053  0.5991
 1404SOL    HW3 5663   3.769   1.246   2.317  0.0515  0.3355 -0.0149
 1404SOL    MW4 5664   3.845   1.283   2.299  0.2899 -0.1647 -0.0505
 1405SOL     OW 5665   3.826   1.517   2.396 -0.1774 -0.2310 -0.0195
 1405SOL    HW2 5666   3.827   1.521   2.492 -0.0736 -0.8580  0.0098
 1405SOL    HW3 5667   3.757   1.578   2.370  0.7521  1.0304  0.4001
 1405SOL    MW4 5668   3.817   1.525   2.405 -0.0412 -0.1473  0.0398
 1406SOL     OW 5669   3.625   1.677   2.295  0.2326 -0.4732 -0.3151
 1406SOL    HW2 5670   3.545   1.634   2.326 -0.2680  0.6943  0.0364
 1406SOL    HW3 5671   3.614   1.682   2.200 -0.5543  0.5460 -0.1800
 1406SOL    MW4 5672   3.613   1.672   2.287  0.0629 -0.1847 -0.2508
 1407SOL     OW 5673   3.618   1.936   2.379 -0.4943  0.0219 -0.4823
 1407SOL    HW2 5674   3.695   1.975   2.338 -0.0053  0.9988  1.3009
 1407SOL    HW3 5675   3.614   1.847   2.345  2.7843 -0.7991  1.1244
 1407SOL    MW4 5676   3.627   1.929   2.369  0.0029  0.0426 -0.0353
 1408SOL     OW 5677   3.827   2.078   2.273 -0.2569  0.7013  0.0388
 1408SOL    HW2 5678   3.899   2.028   2.312  0.8192  2.5097  0.4216
 1408SOL    HW3 5679   3.849   2.084   2.180  0.1192  1.2925  0.1636
 1408SOL    MW4 5680   3.839   2.072   2.266 -0.0656  1.0178  0.1059
 1409SOL     OW 5681   3.838   2.335   2.364 -0.4428 -0.4677  0.0243
 1409SOL    HW2 5682   3.750   2.370   2.347 -0.0959  0.4186  0.0445
 1409SOL    HW3 5683   3.833   2.244   2.334 -1.4003 -0.4602  0.1254
 1409SOL    MW4 5684   3.825   2.328   2.358 -0.5233 -0.3498  0.0403
 1410SOL     OW 5685   3.583   2.419   2.294 -0.6212  0.0761 -0.1315
 1410SOL    HW2 5686   3.502   2.371   2.314 -0.3104 -0.6147 -0.5089
 1410SOL    HW3 5687   3.580   2.433   2.200  0.0683 -0.6581 -0.2732
 1410SOL    MW4 5688   3.572   2.414   2.285 -0.4892 -0.1118 -0.1998
 1411SOL     OW 5689   3.646   2.682   2.358 -0.5267 -0.1365 -0.0287
 1411SOL    HW2 5690   3.632   2.588   2.345  0.2276 -0.2186 -0.2881
 1411SOL    HW3 5691   3.571   2.724   2.317  0.0130 -0.5537 -1.4770
 1411SOL    MW4 5692   3.634   2.675   2.351 -0.3560 -0.2024 -0.2539
 1412SOL     OW 5693   3.824   2.862   2.275 -0.1768 -0.2657  0.8411
 1412SOL    HW2 5694   3.788   2.940   2.317 -0.7776  0.8138 -1.5630
 1412SOL    HW3 5695   3.759   2.794   2.289 -1.5426  0.7476 -0.4407
 1412SOL    MW4 5696   3.811   2.863   2.282 -0.4363  0.0103  0.3550
 1413SOL     OW 5697   3.740   3.100   2.374 -0.4117 -0.5955  0.0737
 1413SOL    HW2 5698   3.743   3.103   2.470  0.3911 -0.9516  0.0686
 1413SOL    HW3 5699   3.819   3.146   2.346 -1.4781  0.9619 -0.4608
 1413SOL    MW4 5700   3.751   3.107   2.383 -0.4463 -0.4373  0.0024
 1414SOL     OW 5701   3.568   3.260   2.253  0.3941  0.2101 -0.6251
 1414SOL    HW2 5702   3.573   3.347   2.291  0.4534  1.0599 -2.5098
 1414SOL    HW3 5703   3.632   3.209   2.302  0.2084  1.1737  0.6311
 1414SOL    MW4 5704   3.577   3.265   2.264  0.3774  0.4497 -0.7079
 1415SOL     OW 5705   3.591   3.509   2.378 -0.0708  0.0598 -0.4221
 1415SOL    HW2 5706   3.595   3.499   2.473 -1.3908  1.2152 -0.2239
 1415SOL    HW3 5707   3.678   3.540   2.353  0.2884 -0.2721  0.4054
 1415SOL    MW4 5708   3.603   3.512   2.387 -0.1979  0.1683 -0.2868
 1416SOL     OW 5709   3.821   3.629   2.293 -0.2811  0.0829 -0.1206
 1416SOL    HW2 5710   3.809   3.714   2.335  2.3180 -0.0549  0.9843
 1416SOL    HW3 5711   3.822   3.649   2.199  1.0214  1.4081  0.1456
 1416SOL    MW4 5712   3.820   3.643   2.286  0.2334  0.2391  0.0603
 1417SOL     OW 5713   3.780   3.883   2.385 -0.1223  0.2028 -0.0964
 1417SOL    HW2 5714   3.786   3.878   2.480  0.2170 -0.1546 -0.1308
 1417SOL    HW3 5715   3.862   3.925   2.358  0.6365 -1.3620 -0.3403
 1417SOL    MW4 5716   3.792   3.888   2.394  0.0229 -0.0508 -0.1330
 1418SOL     OW 5717   3.591   3.997   2.214 -0.1617 -0.5383 -0.3550
 1418SOL    HW2 5718   3.579   4.082   2.256 -0.6370 -1.0258  0.5288
 1418SOL    HW3 5719   3.654   3.952   2.270 -0.3773 -0.9926 -0.4732
 1418SOL    MW4 5720   3.597   4.002   2.227 -0.2532 -0.6628 -0.2539
 1419SOL     OW 5721   3.579   4.258   2.358 -0.3809 -0.1050 -0.2893
 1419SOL    HW2 5722   3.646   4.299   2.303 -0.0986  0.8513  0.7617
 1419SOL    HW3 5723   3.498   4.302   2.335 -0.4060 -0.2730 -0.5252
 1419SOL    MW4 5724   3.577   4.269   2.348 -0.3471 -0.0014 -0.1819
 1420SOL     OW 5725   3.809   4.395   2.254 -0.3953  0.3426  0.0757
 1420SOL    HW2 5726   3.869   4.349   2.313 -0.3764  1.6561  1.0851
 1420SOL    HW3 5727   3.803   4.483   2.289 -0.3341  1.1665 -1.9444
 1420SOL    MW4 5728   3.816   4.400   2.266 -0.3848  0.6247 -0.0577
 1421SOL     OW 5729   4.226   4.639   2.407  0.3516 -0.1441  0.2378
 1421SOL    HW2 5730   4.241   4.625   2.500  0.9616 -0.8071  0.0434
 1421SOL    HW3 5731   4.301   4.692   2.378  0.6469 -0.7219 -0.0648
 1421SOL    MW4 5732   4.238   4.644   2.415  0.4706 -0.3076  0.1721
 1422SOL     OW 5733   4.027   0.100   2.292  0.4440 -0.3453 -0.0629
 1422SOL    HW2 5734   4.037   0.191   2.322  1.1033 -0.4818  0.1405
 1422SOL    HW3 5735   4.089   0.051   2.346 -0.8035 -1.1113  0.7130
 1422SOL    MW4 5736   4.036   0.106   2.303  0.3672 -0.4644  0.0665
 1423SOL     OW 5737   4.045   0.364   2.374  0.6396  0.1920 -0.0829
 1423SOL    HW2 5738   4.121   0.414   2.344  0.3053  0.1136 -1.0939
 1423SOL    HW3 5739   3.973   0.394   2.318  0.3377 -1.0964 -0.4049
 1423SOL    MW4 5740   4.045   0.375   2.362  0.5555  0.0117 -0.2589
 1424SOL     OW 5741   4.263   0.496   2.282  0.2739  0.3077 -0.4706
 1424SOL    HW2 5742   4.269   0.579   2.329 -1.9389  1.5066 -2.2597
 1424SOL    HW3 5743   4.342   0.448   2.309  0.8810  2.4130  1.6316
 1424SOL    MW4 5744   4.274   0.500   2.292  0.0620  0.7436 -0.4294
 1425SOL     OW 5745   4.279   0.728   2.417  0.2563  0.2660 -0.0101
 1425SOL    HW2 5746   4.197   0.775   2.398  0.3554  0.4858  0.0994
 1425SOL    HW3 5747   4.347   0.785   2.382  0.3696  0.1401  0.0091
 1425SOL    MW4 5748   4.277   0.742   2.410  0.2847  0.2784  0.0072
 1426SOL     OW 5749   4.056   0.859   2.284  0.0592 -0.2797  0.4455
 1426SOL    HW2 5750   4.080   0.941   2.326 -2.1918  0.8376 -0.3303
 1426SOL    HW3 5751   4.059   0.878   2.190  2.3420 -1.9434  0.1388
 1426SOL    MW4 5752   4.059   0.872   2.277  0.0634 -0.3518  0.3023
 1427SOL     OW 5753   4.072   1.104   2.385  0.3105 -0.2389 -0.0993
 1427SOL    HW2 5754   4.060   1.117   2.480 -0.2450  3.0845 -0.5688
 1427SOL    HW3 5755   3.992   1.140   2.346  1.5962  0.6408 -1.9731
 1427SOL    MW4 5756   4.060   1.110   2.393  0.4072  0.3155 -0.4084
 1428SOL     OW 5757   4.238   1.259   2.242  0.1863 -0.5032  0.2930
 1428SOL    HW2 5758   4.175   1.208   2.293 -0.4260  1.3580  1.4251
 1428SOL    HW3 5759   4.324   1.223   2.267 -0.2089 -0.6992  1.4037
 1428SOL    MW4 5760   4.241   1.247   2.252  0.0534 -0.2835  0.5889
 1429SOL     OW 5761   4.261   1.509   2.370  0.1942 -0.1312 -0.2197
 1429SOL    HW2 5762   4.269   1.422   2.332 -0.9858 -0.7427  0.9069
 1429SOL    HW3 5763   4.343   1.553   2.347  0.9532 -1.6491 -0.4617
 1429SOL    MW4 5764   4.273   1.504   2.362  0.1383 -0.4121 -0.1028
 1430SOL     OW 5765   4.048   1.667   2.297  0.2349  0.6162 -0.1512
 1430SOL    HW2 5766   4.126   1.612   2.302 -0.0321  0.2426 -0.1430
 1430SOL    HW3 5767   3.976   1.610   2.323  0.0971  1.2561  0.9050
 1430SOL    MW4 5768   4.049   1.652   2.301  0.1817  0.6514 -0.0105
 1431SOL     OW 5769   4.031   1.947   2.386 -0.0787 -0.2642 -0.2396
 1431SOL    HW2 5770   4.028   1.962   2.480 -2.5638  0.3592 -0.3868
 1431SOL    HW3 5771   4.016   1.853   2.376 -1.0445 -0.1319 -0.0597
 1431SOL    MW4 5772   4.028   1.936   2.397 -0.5336 -0.1646 -0.2353
 1432SOL     OW 5773   4.256   2.064   2.277 -0.2077  0.3816  0.1693
 1432SOL    HW2 5774   4.258   2.155   2.308 -1.5932  0.2103  0.7854
 1432SOL    HW3 5775   4.179   2.026   2.318  0.3618 -1.0887 -0.0767
 1432SOL    MW4 5776   4.246   2.071   2.287 -0.3152  0.1650  0.2182
 1433SOL     OW 5777   4.263   2.329   2.369 -0.4213 -0.4461 -0.2903
 1433SOL    HW2 5778   4.187   2.378   2.337  0.1660  0.5412 -0.1753
 1433SOL    HW3 5779   4.338   2.368   2.324  0.0346 -1.3911 -0.3721
 1433SOL    MW4 5780   4.263   2.340   2.359 -0.2837 -0.4406 -0.2859
 1434SOL     OW 5781   4.062   2.488   2.253  0.8677 -0.0717  0.6609
 1434SOL    HW2 5782   4.058   2.575   2.292 -0.7145  1.1283 -2.0312
 1434SOL    HW3 5783   3.985   2.443   2.287 -0.3375  0.8627 -0.7788
 1434SOL    MW4 5784   4.051   2.493   2.262  0.5002  0.2100  0.1156
 1435SOL     OW 5785   4.071   2.748   2.377 -0.2597  0.0598  0.3923
 1435SOL    HW2 5786   4.080   2.746   2.472 -0.6266  2.7017  0.5207
 1435SOL    HW3 5787   3.988   2.793   2.361  1.5853  3.1246 -1.1642
 1435SOL    MW4 5788   4.062   2.754   2.387 -0.0644  0.8128  0.2038
 1436SOL     OW 5789   4.299   2.812   2.237 -0.3206  0.0328  0.0352
 1436SOL    HW2 5790   4.216   2.776   2.269 -0.1986  0.0145  0.3312
 1436SOL    HW3 5791   4.365   2.780   2.298  0.3912 -2.6754 -2.0787
 1436SOL    MW4 5792   4.297   2.803   2.249 -0.2112 -0.3269 -0.2046
 1437SOL     OW 5793   4.231   3.056   2.378  0.4689  0.3160 -0.5545
 1437SOL    HW2 5794   4.232   2.968   2.339  0.2867  0.0828 -0.0383
 1437SOL    HW3 5795   4.300   3.103   2.331  0.3958 -0.0230 -1.0118
 1437SOL    MW4 5796   4.241   3.051   2.366  0.4349  0.2406 -0.5469
 1438SOL     OW 5797   3.997   3.214   2.298 -0.2544  0.3013  0.4344
 1438SOL    HW2 5798   4.009   3.304   2.328 -0.1853  1.0296 -1.7328
 1438SOL    HW3 5799   4.072   3.167   2.334  0.0705  1.2366  1.0101
 1438SOL    MW4 5800   4.008   3.220   2.307 -0.2027  0.5209  0.2246
 1439SOL     OW 5801   4.015   3.472   2.410 -0.1627 -0.1498  0.6151
 1439SOL    HW2 5802   4.096   3.513   2.378  0.2625 -2.7238 -1.8463
 1439SOL    HW3 5803   3.946   3.531   2.381  0.6495  0.5464  0.0562
 1439SOL    MW4 5804   4.017   3.485   2.402  0.0010 -0.3974  0.2165
 1440SOL     OW 5805   4.219   3.601   2.292 -0.2303  0.4893  0.5610
 1440SOL    HW2 5806   4.234   3.692   2.316  1.9426  0.2616  0.1755
 1440SOL    HW3 5807   4.235   3.598   2.198 -0.0232 -0.3389  0.6200
 1440SOL    MW4 5808   4.223   3.613   2.283  0.0834  0.3500  0.5181
 1441SOL     OW 5809   4.227   3.869   2.354  0.1537  0.0700  0.0371
 1441SOL    HW2 5810   4.225   3.883   2.448  0.1053 -0.3434  0.0986
 1441SOL    HW3 5811   4.308   3.910   2.325  0.0219  0.4597  0.2150
 1441SOL    MW4 5812   4.237   3.876   2.362  0.1302  0.0670  0.0687
 1442SOL     OW 5813   4.004   4.012   2.292  0.2582  0.2349  0.0653
 1442SOL    HW2 5814   4.082   3.958   2.306  0.5296  0.5688 -0.1143
 1442SOL    HW3 5815   4.008   4.036   2.200 -0.3958 -0.2520 -0.0904
 1442SOL    MW4 5816   4.015   4.008   2.282  0.2074  0.2151  0.0210
 1443SOL     OW 5817   4.012   4.268   2.406  0.0921 -0.7300 -0.4802
 1443SOL    HW2 5818   4.091   4.302   2.365  0.9871 -0.6794  1.2143
 1443SOL    HW3 5819   4.014   4.174   2.390 -0.2929 -0.5361 -1.7148
 1443SOL    MW4 5820   4.022   4.260   2.399  0.1597 -0.6976 -0.4196
 1444SOL     OW 5821   4.236   4.388   2.283 -0.4209  0.1904  0.5222
 1444SOL    HW2 5822   4.236   4.467   2.336  0.9998  0.2725  0.4124
 1444SOL    HW3 5823   4.309   4.336   2.317 -1.4026 -1.1236  0.6685
 1444SOL    MW4 5824   4.246   4.391   2.295 -0.3633  0.0272  0.5271
 1445SOL     OW 5825   0.234   4.613   2.634  0.0566  0.3493  0.3272
 1445SOL    HW2 5826   0.246   4.530   2.680  0.9535  0.4091  0.2251
 1445SOL    HW3 5827   0.164   4.657   2.682  1.0549  0.4619  1.7494
 1445SOL    MW4 5828   0.227   4.608   2.647  0.3066  0.3719  0.5012
 1446SOL     OW 5829   0.020   0.081   2.767 -0.0443  0.0808  0.1418
 1446SOL    HW2 5830  -0.012   0.083   2.857 -0.3080 -0.8091  0.0810
 1446SOL    HW3 5831   0.000   0.168   2.732 -0.3227  0.2902  0.8118
 1446SOL    MW4 5832   0.013   0.092   2.774 -0.1159 -0.0090  0.2220
 1447SOL     OW 5833   0.006   0.337   2.672 -0.1894  0.4764 -0.0010
 1447SOL    HW2 5834   0.075   0.402   2.669 -0.4305  0.6479 -3.6334
 1447SOL    HW3 5835  -0.016   0.321   2.581 -2.5530 -2.1340  0.9576
 1447SOL    MW4 5836   0.012   0.343   2.660 -0.5331  0.1546 -0.3538
 1448SOL     OW 5837   0.191   0.546   2.716  0.0658  0.2132  0.1248
 1448SOL    HW2 5838   0.199   0.549   2.812 -1.0288  0.4889  0.2107
 1448SOL    HW3 5839   0.267   0.496   2.688 -0.1761 -0.7954  1.2196
 1448SOL    MW4 5840   0.202   0.540   2.725 -0.1106  0.1166  0.2806
 1449SOL     OW 5841   0.186   0.813   2.649 -0.0025  0.0378 -0.2171
 1449SOL    HW2 5842   0.274   0.845   2.665 -0.0062 -0.2229  0.3564
 1449SOL    HW3 5843   0.188   0.722   2.680 -0.5998  0.1764  0.2529
 1449SOL    MW4 5844   0.198   0.805   2.656 -0.0818  0.0217 -0.0796
 1450SOL     OW 5845   4.458   0.933   2.767 -0.0703  0.0218  0.1677
 1450SOL    HW2 5846   4.385   0.881   2.735  0.3934  1.2097 -2.9453
 1450SOL    HW3 5847   4.536   0.889   2.733  0.5865 -0.0307  1.6910
 1450SOL    MW4 5848   4.459   0.921   2.758  0.0777  0.1716 -0.0422
 1451SOL     OW 5849   4.467   1.158   2.611 -0.2604  0.4228 -0.0108
 1451SOL    HW2 5850   4.543   1.214   2.627 -0.1071  0.1546  0.2037
 1451SOL    HW3 5851   4.477   1.085   2.672 -0.3704  0.0724 -0.4101
 1451SOL    MW4 5852   4.478   1.156   2.621 -0.2547  0.3412 -0.0355
 1452SOL     OW 5853   0.202   1.285   2.732 -0.6094 -0.2716 -0.5024
 1452SOL    HW2 5854   0.288   1.247   2.713 -0.7770  0.3275 -2.5399
 1452SOL    HW3 5855   0.219   1.379   2.738 -1.0052 -0.2230 -0.1223
 1452SOL    MW4 5856   0.216   1.293   2.730 -0.6838 -0.1861 -0.7210
 1453SOL     OW 5857   0.237   1.564   2.682  0.1294 -0.2414  0.4019
 1453SOL    HW2 5858   0.310   1.603   2.729  0.0403  0.7922 -0.3064
 1453SOL    HW3 5859   0.159   1.594   2.729  0.0269  1.0006 -0.5334
 1453SOL    MW4 5860   0.236   1.573   2.695  0.1042  0.0588  0.1853
 1454SOL     OW 5861   4.485   1.663   2.794 -0.1922  0.1666  0.3123
 1454SOL    HW2 5862   4.477   1.672   2.889  1.9162  0.9833  0.4267
 1454SOL    HW3 5863   4.455   1.747   2.759 -0.1569  0.1733  0.2985
 1454SOL    MW4 5864   4.480   1.675   2.802  0.0906  0.2754  0.3254
 1455SOL     OW 5865   4.444   1.911   2.684 -0.5640  0.4927 -0.1268
 1455SOL    HW2 5866   4.524   1.954   2.716  0.0435 -0.3624 -0.4548
 1455SOL    HW3 5867   4.458   1.902   2.590 -0.8705 -0.0292 -0.1238
 1455SOL    MW4 5868   4.457   1.915   2.676 -0.5245  0.3110 -0.1695
 1456SOL     OW 5869   0.190   2.037   2.763 -0.0407 -0.5299  0.1569
 1456SOL    HW2 5870   0.277   2.003   2.743  0.3136 -0.5455  1.7180
 1456SOL    HW3 5871   0.194   2.130   2.739 -0.2062 -0.9535 -1.6059
 1456SOL    MW4 5872   0.202   2.045   2.757 -0.0158 -0.5877  0.1304
 1457SOL     OW 5873   0.207   2.301   2.658  0.0843 -0.3655 -0.0156
 1457SOL    HW2 5874   0.293   2.340   2.675 -0.3553  0.4315  0.4129
 1457SOL    HW3 5875   0.145   2.367   2.688 -0.6802 -0.8408 -0.5476
 1457SOL    MW4 5876   0.211   2.315   2.664 -0.0746 -0.3231 -0.0291
 1458SOL     OW 5877   0.020   2.477   2.761  0.3295  0.1817 -0.0241
 1458SOL    HW2 5878   0.010   2.476   2.856 -0.9230 -1.5967 -0.1649
 1458SOL    HW3 5879  -0.065   2.449   2.727  1.1155 -0.2991 -1.6440
 1458SOL    MW4 5880   0.008   2.473   2.769  0.2685 -0.1163 -0.2561
 1459SOL     OW 5881   0.046   2.721   2.629  0.0217  0.4077  0.2824
 1459SOL    HW2 5882  -0.002   2.788   2.678 -2.0170 -0.3830 -0.5759
 1459SOL    HW3 5883   0.039   2.643   2.684  2.9139  0.9792  1.5759
 1459SOL    MW4 5884   0.039   2.720   2.643  0.1343  0.3784  0.3397
 1460SOL     OW 5885   0.249   2.872   2.769  0.0654 -0.5110 -0.3718
 1460SOL    HW2 5886   0.232   2.961   2.738 -0.7490 -0.7792 -0.6968
 1460SOL    HW3 5887   0.203   2.816   2.707 -1.8577 -1.0614  1.5033
 1460SOL    MW4 5888   0.241   2.876   2.757 -0.2958 -0.6192 -0.1674
 1461SOL     OW 5889   0.204   3.118   2.648 -0.0557 -0.8951 -0.2402
 1461SOL    HW2 5890   0.293   3.152   2.649  0.1521 -1.4578  0.8471
 1461SOL    HW3 5891   0.182   3.113   2.555  1.4506 -1.7940 -0.5719
 1461SOL    MW4 5892   0.213   3.122   2.636  0.1704 -1.0879 -0.1404
 1462SOL     OW 5893   4.483   3.239   2.781  0.2628  0.0481  0.2976
 1462SOL    HW2 5894   4.417   3.190   2.732  0.9146 -0.7429  0.2076
 1462SOL    HW3 5895   4.567   3.207   2.747  0.7034  0.5070  0.9390
 1462SOL    MW4 5896   4.486   3.228   2.770  0.4072  0.0043  0.3707
 1463SOL     OW 5897   0.003   3.474   2.628  0.0044  0.1309 -0.0234
 1463SOL    HW2 5898   0.060   3.536   2.674 -0.1076 -0.2115  0.5878
 1463SOL    HW3 5899   0.003   3.396   2.684 -0.3436 -0.1990 -0.4785
 1463SOL    MW4 5900   0.011   3.472   2.642 -0.0563  0.0424 -0.0026
 1464SOL     OW 5901   0.204   3.626   2.771  0.2841  0.2115  0.2219
 1464SOL    HW2 5902   0.203   3.622   2.866  1.6214 -0.2724  0.2252
 1464SOL    HW3 5903   0.280   3.573   2.745 -0.4178 -0.1726 -1.1344
 1464SOL    MW4 5904   0.214   3.618   2.780  0.3679  0.0970  0.0434
 1465SOL     OW 5905   0.238   3.896   2.617  0.0509 -0.1130  0.3995
 1465SOL    HW2 5906   0.206   3.808   2.636  2.3226 -1.0581  0.0396
 1465SOL    HW3 5907   0.257   3.896   2.523  1.1878  0.3608  0.6153
 1465SOL    MW4 5908   0.236   3.884   2.607  0.5006 -0.1752  0.3808
 1466SOL     OW 5909   0.019   4.018   2.730 -0.3231 -0.0292 -0.0131
 1466SOL    HW2 5910   0.026   4.112   2.719  0.0486 -0.1176 -0.5537
 1466SOL    HW3 5911   0.090   3.982   2.677  1.7109 -0.4674  2.9238
 1466SOL    MW4 5912   0.029   4.025   2.721 -0.0052 -0.0987  0.3030
 1467SOL     OW 5913   0.017   4.285   2.653  0.3911 -0.6913  0.1718
 1467SOL    HW2 5914  -0.057   4.309   2.708  0.4601  0.2347 -0.1248
 1467SOL    HW3 5915   0.090   4.337   2.686  0.7473 -1.1011  0.0397
 1467SOL    MW4 5916   0.017   4.295   2.665  0.4472 -0.6227  0.1152
 1468SOL     OW 5917   0.219   4.392   2.814 -0.2015 -1.0136 -0.3811
 1468SOL    HW2 5918   0.202   4.379   2.907 -0.4895  0.1467 -0.2610
 1468SOL    HW3 5919   0.296   4.337   2.796  0.4251 -0.5359  0.7554
 1468SOL    MW4 5920   0.227   4.383   2.824 -0.1569 -0.7973 -0.2155
 1469SOL     OW 5921   0.678   4.646   2.629 -0.1166  0.0845  0.2943
 1469SOL    HW2 5922   0.760   4.688   2.654  0.2693  0.3115 -1.2879
 1469SOL    HW3 5923   0.610   4.699   2.672  0.5847 -0.6754  2.3820
 1469SOL    MW4 5924   0.680   4.659   2.638  0.0269  0.0138  0.3612
 1470SOL     OW 5925   0.448   0.109   2.724  0.1633  0.1730  0.6089
 1470SOL    HW2 5926   0.440   0.099   2.819 -1.1871  0.5659  0.5366
 1470SOL    HW3 5927   0.378   0.055   2.688  0.4255  0.3437 -0.1682
 1470SOL    MW4 5928   0.438   0.100   2.732  0.0198  0.2474  0.4971
 1471SOL     OW 5929   0.431   0.402   2.630 -0.2979  0.1116  0.6331
 1471SOL    HW2 5930   0.508   0.443   2.669  0.3189 -0.2992 -0.1270
 1471SOL    HW3 5931   0.432   0.312   2.663  0.7148 -0.4944 -0.9590
 1471SOL    MW4 5932   0.441   0.395   2.640 -0.0829 -0.0226  0.3226
 1472SOL     OW 5933   0.663   0.518   2.713  0.1750  0.0594 -0.0292
 1472SOL    HW2 5934   0.665   0.510   2.809 -0.5239  1.1593  0.0895
 1472SOL    HW3 5935   0.741   0.471   2.684  1.1017  0.7948  1.1765
 1472SOL    MW4 5936   0.674   0.511   2.722  0.2051  0.3015  0.1454
 1473SOL     OW 5937   0.709   0.773   2.633  0.1120  0.4124 -0.6262
 1473SOL    HW2 5938   0.787   0.801   2.680  1.2396 -0.8248 -1.7208
 1473SOL    HW3 5939   0.691   0.684   2.666 -1.6291  1.1706  0.5793
 1473SOL    MW4 5940   0.717   0.765   2.643  0.0310  0.3492 -0.6113
 1474SOL     OW 5941   0.438   0.884   2.709 -0.3711 -0.2332 -0.1439
 1474SOL    HW2 5942   0.437   0.979   2.698 -0.9711 -0.3111 -0.8611
 1474SOL    HW3 5943   0.527   0.858   2.685 -0.0487  0.1955  0.5635
 1474SOL    MW4 5944   0.450   0.893   2.704 -0.4077 -0.1869 -0.1450
 1475SOL     OW 5945   0.440   1.169   2.708 -0.2546  0.0696 -0.3747
 1475SOL    HW2 5946   0.522   1.199   2.746 -0.2654 -1.2630  0.7634
 1475SOL    HW3 5947   0.458   1.160   2.614  0.3559  1.5096 -0.3994
 1475SOL    MW4 5948   0.453   1.172   2.701 -0.1755  0.0838 -0.2279
 1476SOL     OW 5949   0.700   1.269   2.787 -0.1680 -0.1791 -0.0885
 1476SOL    HW2 5950   0.709   1.251   2.881 -0.4293 -0.5098 -0.1248
 1476SOL    HW3 5951   0.784   1.242   2.750  0.0273  0.1915  0.0871
 1476SOL    MW4 5952   0.712   1.263   2.794 -0.1767 -0.1738 -0.0701
 1477SOL     OW 5953   0.677   1.527   2.675  0.0137  0.0123  0.2196
 1477SOL    HW2 5954   0.605   1.572   2.719  0.8038  1.2146  0.2988
 1477SOL    HW3 5955   0.691   1.448   2.727 -1.2961 -0.2832  0.1569
 1477SOL    MW4 5956   0.669   1.523   2.687 -0.0548  0.1321  0.2217
 1478SOL     OW 5957   0.478   1.664   2.810  0.1304 -0.5109  0.6938
 1478SOL    HW2 5958   0.472   1.665   2.906 -1.3876  1.0498  0.6132
 1478SOL    HW3 5959   0.483   1.756   2.786  0.2056 -0.8886 -0.7464
 1478SOL    MW4 5960   0.478   1.676   2.820 -0.0600 -0.3546  0.4930
 1479SOL     OW 5961   0.428   1.907   2.677  0.3207  0.2981  0.3213
 1479SOL    HW2 5962   0.508   1.955   2.701 -0.2572  0.8071  1.2578
 1479SOL    HW3 5963   0.431   1.901   2.582  1.2734  0.6816  0.3248
 1479SOL    MW4 5964   0.439   1.913   2.668  0.3702  0.4159  0.4451
 1480SOL     OW 5965   0.657   2.038   2.728 -0.1905  0.0631  0.2887
 1480SOL    HW2 5966   0.669   2.038   2.823 -0.2442 -1.9298  0.2991
 1480SOL    HW3 5967   0.741   2.010   2.693 -0.7717 -1.1396 -0.1627
 1480SOL    MW4 5968   0.670   2.035   2.736 -0.2743 -0.3586  0.2306
 1481SOL     OW 5969   0.655   2.308   2.648  0.6327  0.6350  0.2686
 1481SOL    HW2 5970   0.725   2.348   2.699  1.5997  0.1890 -0.6770
 1481SOL    HW3 5971   0.645   2.220   2.685  1.4176  0.2676 -0.3651
 1481SOL    MW4 5972   0.663   2.302   2.659  0.8639  0.5279  0.0606
 1482SOL     OW 5973   0.432   2.450   2.718  0.4186  0.3189  0.7080
 1482SOL    HW2 5974   0.445   2.544   2.704  1.0063  0.0256 -0.7422
 1482SOL    HW3 5975   0.511   2.409   2.683  0.0432 -0.7455  1.0833
 1482SOL    MW4 5976   0.444   2.457   2.712  0.4466  0.1400  0.5660
 1483SOL     OW 5977   0.463   2.714   2.665 -0.0435 -0.0797  0.2913
 1483SOL    HW2 5978   0.546   2.754   2.690  0.1274 -1.4583  1.9550
 1483SOL    HW3 5979   0.397   2.757   2.720 -0.5387  1.4021 -1.4055
 1483SOL    MW4 5980   0.465   2.725   2.675 -0.0863 -0.0660  0.2871
 1484SOL     OW 5981   0.686   2.859   2.765 -0.1744 -0.0347  0.1757
 1484SOL    HW2 5982   0.699   2.868   2.859  0.9331  1.1234 -0.0792
 1484SOL    HW3 5983   0.696   2.948   2.731  2.1023 -0.8597 -1.3640
 1484SOL    MW4 5984   0.689   2.872   2.773  0.2722  0.0093 -0.0610
 1485SOL     OW 5985   0.682   3.106   2.639 -0.0558  0.4917 -0.0471
 1485SOL    HW2 5986   0.770   3.138   2.661 -0.2590  1.5757 -0.7901
 1485SOL    HW3 5987   0.677   3.114   2.544 -0.7034 -0.2481 -0.0752
 1485SOL    MW4 5988   0.693   3.111   2.629 -0.1680  0.5369 -0.1490
 1486SOL     OW 5989   0.459   3.243   2.756 -0.8759 -0.1932  0.1171
 1486SOL    HW2 5990   0.467   3.224   2.850 -0.2219 -0.4880  0.0010
 1486SOL    HW3 5991   0.526   3.188   2.715 -0.2229  0.9814 -0.4005
 1486SOL    MW4 5992   0.469   3.233   2.763 -0.7034 -0.0772  0.0336
 1487SOL     OW 5993   0.429   3.490   2.660  0.3476  0.0013  0.7719
 1487SOL    HW2 5994   0.454   3.408   2.701 -0.5234 -0.8313 -0.3347
 1487SOL    HW3 5995   0.425   3.470   2.567  1.0485  1.5359  0.4036
 1487SOL    MW4 5996   0.432   3.477   2.653  0.3251  0.0939  0.5772
 1488SOL     OW 5997   0.678   3.611   2.716 -0.3409  0.1410 -0.0223
 1488SOL    HW2 5998   0.682   3.616   2.811 -0.5414  2.4823 -0.1190
 1488SOL    HW3 5999   0.595   3.566   2.698 -0.1266 -0.6413  0.9075
 1488SOL    MW4 6000   0.667   3.605   2.726 -0.3391  0.3467  0.0880
 1489SOL     OW 6001   0.694   3.866   2.646  0.1584 -0.3738  0.2966
 1489SOL    HW2 6002   0.621   3.899   2.698  0.0566  0.3222 -0.2770
 1489SOL    HW3 6003   0.696   3.772   2.664  0.4287 -0.0753  1.9220
 1489SOL    MW4 6004   0.685   3.858   2.655  0.1806 -0.2425  0.4356
 1490SOL     OW 6005   0.467   3.980   2.751 -0.2789 -0.0633  0.1189
 1490SOL    HW2 6006   0.449   4.074   2.749 -0.4697 -0.1265 -2.0034
 1490SOL    HW3 6007   0.389   3.940   2.712  0.0684 -1.0478  0.4363
 1490SOL    MW4 6008   0.454   3.987   2.745 -0.2582 -0.2015 -0.1190
 1491SOL     OW 6009   0.432   4.247   2.692  0.1308  0.0925 -0.1524
 1491SOL    HW2 6010   0.513   4.289   2.720  0.2254  1.2181 -1.9928
 1491SOL    HW3 6011   0.441   4.240   2.597 -1.4646 -0.7506 -0.2507
 1491SOL    MW4 6012   0.444   4.252   2.683 -0.0672  0.1302 -0.4084
 1492SOL     OW 6013   0.643   4.400   2.763  0.0755  0.0206  0.4402
 1492SOL    HW2 6014   0.716   4.342   2.738 -0.2964 -0.6342  0.8559
 1492SOL    HW3 6015   0.647   4.471   2.700 -0.0711 -0.9761 -0.7145
 1492SOL    MW4 6016   0.653   4.402   2.751  0.0072 -0.1974  0.3428
 1493SOL     OW 6017   1.125   4.606   2.644  0.2284 -0.2612 -0.4225
 1493SOL    HW2 6018   1.199   4.661   2.673 -1.1092  0.7356  1.1911
 1493SOL    HW3 6019   1.144   4.520   2.682  0.0856  0.2455  0.8316
 1493SOL    MW4 6020   1.138   4.602   2.653  0.0330 -0.0629 -0.0439
 1494SOL     OW 6021   0.918   0.104   2.714 -0.2179 -0.0326 -0.1859
 1494SOL    HW2 6022   0.894   0.094   2.806 -0.8582 -2.3812 -0.5744
 1494SOL    HW3 6023   0.991   0.043   2.703 -2.0674 -2.0096 -1.9138
 1494SOL    MW4 6024   0.925   0.095   2.725 -0.5464 -0.6033 -0.4649
 1495SOL     OW 6025   0.880   0.367   2.628  0.2984  0.4350 -0.2303
 1495SOL    HW2 6026   0.884   0.275   2.657 -0.0964  0.2493 -0.7497
 1495SOL    HW3 6027   0.885   0.361   2.533 -2.1855  0.7879 -0.4248
 1495SOL    MW4 6028   0.881   0.354   2.619 -0.0814  0.4570 -0.3245
 1496SOL     OW 6029   1.141   0.455   2.703 -0.2217 -0.0396  0.1584
 1496SOL    HW2 6030   1.138   0.550   2.703  0.6704 -0.0004 -1.2405
 1496SOL    HW3 6031   1.053   0.428   2.674 -0.5651  0.3315  0.8333
 1496SOL    MW4 6032   1.129   0.464   2.699 -0.1493  0.0146  0.0629
 1497SOL     OW 6033   1.112   0.749   2.640  0.2720  0.4849  0.0234
 1497SOL    HW2 6034   1.192   0.781   2.682  0.7763  0.8761 -1.1928
 1497SOL    HW3 6035   1.134   0.747   2.546 -0.8297 -0.3270 -0.2282
 1497SOL    MW4 6036   1.126   0.753   2.633  0.1932  0.4294 -0.1702
 1498SOL     OW 6037   0.925   0.900   2.762  0.6697 -0.1513  0.0578
 1498SOL    HW2 6038   0.906   0.876   2.853 -0.0370 -0.6773 -0.2184
 1498SOL    HW3 6039   0.992   0.837   2.734  0.3298 -0.4804 -0.0202
 1498SOL    MW4 6040   0.932   0.888   2.770  0.5317 -0.2641  0.0107
 1499SOL     OW 6041   0.937   1.149   2.646 -0.0655  0.0384  0.0315
 1499SOL    HW2 6042   0.930   1.062   2.685  1.3084  0.2615  0.8185
 1499SOL    HW3 6043   0.926   1.134   2.552  1.5150 -1.1858  0.0135
 1499SOL    MW4 6044   0.935   1.136   2.638  0.3244 -0.0936  0.1330
 1500SOL     OW 6045   1.144   1.264   2.779  0.0189  0.0529 -0.2151
 1500SOL    HW2 6046   1.166   1.350   2.744 -0.4920  0.7210  1.0622
 1500SOL    HW3 6047   1.070   1.234   2.726  0.5480  0.1525 -1.0124
 1500SOL    MW4 6048   1.137   1.271   2.768  0.0213  0.1543 -0.1519
 1501SOL     OW 6049   1.136   1.521   2.667 -0.1321 -0.1168  0.0235
 1501SOL    HW2 6050   1.049   1.545   2.699  0.1927  2.3956 -0.8739
 1501SOL    HW3 6051   1.127   1.521   2.571  0.7148 -0.3460 -0.0592
 1501SOL    MW4 6052   1.123   1.524   2.658  0.0224  0.1844 -0.1059
 1502SOL     OW 6053   0.900   1.664   2.768  0.3450  0.0550  0.1611
 1502SOL    HW2 6054   0.893   1.670   2.864 -0.7358 -0.0177  0.0886
 1502SOL    HW3 6055   0.821   1.619   2.741  0.2051  0.9025 -0.8618
 1502SOL    MW4 6056   0.889   1.659   2.777  0.1839  0.1572  0.0165
 1503SOL     OW 6057   0.915   1.921   2.667 -0.1599  0.2739 -0.0210
 1503SOL    HW2 6058   0.992   1.972   2.693 -0.8890  0.6914  1.3599
 1503SOL    HW3 6059   0.933   1.833   2.702 -0.1641  0.2902  0.0224
 1503SOL    MW4 6060   0.928   1.916   2.675 -0.2567  0.3312  0.1671
 1504SOL     OW 6061   1.131   2.082   2.732 -0.0669 -0.2579 -0.0956
 1504SOL    HW2 6062   1.207   2.038   2.696 -0.3124 -0.1811 -0.7039
 1504SOL    HW3 6063   1.146   2.175   2.714  0.7664 -0.0045  1.7583
 1504SOL    MW4 6064   1.143   2.089   2.725  0.0107 -0.2146  0.0689
 1505SOL     OW 6065   1.093   2.349   2.676  0.1786 -0.5786  0.0625
 1505SOL    HW2 6066   1.180   2.380   2.699  1.3109 -2.9337 -0.8949
 1505SOL    HW3 6067   1.094   2.344   2.580 -1.0053 -0.6473  0.0434
 1505SOL    MW4 6068   1.105   2.352   2.666  0.1718 -0.8984 -0.0665
 1506SOL     OW 6069   0.856   2.455   2.777 -0.0230 -0.6062  0.0918
 1506SOL    HW2 6070   0.848   2.534   2.724  1.4400 -0.8980 -0.5893
 1506SOL    HW3 6071   0.940   2.418   2.751 -0.0333 -1.6025  1.4749
 1506SOL    MW4 6072   0.866   2.461   2.766  0.1687 -0.7761  0.1843
 1507SOL     OW 6073   0.870   2.690   2.636  0.1637  0.1485  0.2860
 1507SOL    HW2 6074   0.948   2.737   2.666  0.5317 -1.3578  1.7553
 1507SOL    HW3 6075   0.797   2.745   2.662  0.6659  0.8095  0.3082
 1507SOL    MW4 6076   0.870   2.703   2.643  0.2785  0.0372  0.4828
 1508SOL     OW 6077   1.106   2.808   2.707  0.5329  0.1483 -0.1337
 1508SOL    HW2 6078   1.104   2.822   2.802  1.6384  2.4036 -0.4257
 1508SOL    HW3 6079   1.187   2.760   2.692  0.8893  0.7426 -0.0774
 1508SOL    MW4 6080   1.116   2.803   2.718  0.7260  0.5243 -0.1650
 1509SOL     OW 6081   1.148   3.096   2.636  0.0000  0.0000 -0.3449
 1509SOL    HW2 6082   1.122   3.007   2.659  0.0000  0.0000 -0.3516
 1509SOL    HW3 6083   1.136   3.101   2.542  0.0000  0.0000 -0.3445
 1509SOL    MW4 6084   1.143   3.085   2.627  0.0000  0.0000 -0.3457
 1510SOL     OW 6085   0.919   3.208   2.753  0.0000  0.0000  0.2905
 1510SOL    HW2 6086   0.903   3.287   2.701  0.0000  0.0000  0.2862
 1510SOL    HW3 6087   1.006   3.179   2.725  0.0000  0.0000  0.3030
 1510SOL    MW4 6088   0.928   3.215   2.742  0.0000  0.0000  0.2916
 1511SOL     OW 6089   0.887   3.462   2.641  0.0000  0.0000 -0.1329
 1511SOL    HW2 6090   0.961   3.509   2.682  0.0000  0.0000 -0.1349
 1511SOL    HW3 6091   0.810   3.512   2.669  0.0000  0.0000 -0.1113
 1511SOL    MW4 6092   0.887   3.475   2.651  0.0000  0.0000 -0.1304
 1512SOL     OW 6093   1.102   3.599   2.760  0.0000  0.0000  0.3086
 1512SOL    HW2 6094   1.101   3.626   2.852  0.0000  0.0000  0.3090
 1512SOL    HW3 6095   1.100   3.681   2.711  0.0000  0.0000  0.3100
 1512SOL    MW4 6096   1.102   3.613   2.765  0.0000  0.0000  0.3088
 1513SOL     OW 6097   1.098   3.851   2.651  0.0000  0.0000  0.1882
 1513SOL    HW2 6098   1.178   3.889   2.689  0.0000  0.0000  0.1870
 1513SOL    HW3 6099   1.110   3.859   2.556  0.0000  0.0000  0.1880
 1513SOL    MW4 6100   1.110   3.857   2.643  0.0000  0.0000  0.1879
 1514SOL     OW 6101   0.893   4.008   2.756  0.0000  0.0000  0.0973
 1514SOL    HW2 6102   0.957   3.963   2.702  0.0000  0.0000  0.0960
 1514SOL    HW3 6103   0.809   3.969   2.730  0.0000  0.0000  0.1094
 1514SOL    MW4 6104   0.890   3.997   2.746  0.0000  0.0000  0.0989
 1515SOL     OW 6105   0.888   4.266   2.666  0.0000  0.0000 -0.5123
 1515SOL    HW2 6106   0.892   4.173   2.690  0.0000  0.0000 -0.5063
 1515SOL    HW3 6107   0.884   4.265   2.570  0.0000  0.0000 -0.5124
 1515SOL    MW4 6108   0.888   4.254   2.656  0.0000  0.0000 -0.5114
 1516SOL     OW 6109   1.144   4.351   2.732  0.0000  0.0000 -0.6872
 1516SOL    HW2 6110   1.137   4.378   2.823  0.0000  0.0000 -0.6875
 1516SOL    HW3 6111   1.055   4.327   2.707  0.0000  0.0000 -0.6942
 1516SOL    MW4 6112   1.131   4.351   2.741  0.0000  0.0000 -0.6881
 1517SOL     OW 6113   1.593   4.643   2.644  0.0000  0.0000 -0.4029
 1517SOL    HW2 6114   1.588   4.549   2.661  0.0000  0.0000 -0.4015
 1517SOL    HW3 6115   1.581   4.652   2.550  0.0000  0.0000 -0.4027
 1517SOL    MW4 6116   1.591   4.632   2.634  0.0000  0.0000 -0.4027
 1518SOL     OW 6117   1.366   0.108   2.698 -0.1889 -0.4196  0.3180
 1518SOL    HW2 6118   1.385   0.200   2.680 -1.1568 -0.0131  1.2985
 1518SOL    HW3 6119   1.445   0.061   2.672  0.0548  0.6124 -0.8293
 1518SOL    MW4 6120   1.379   0.114   2.692 -0.2843 -0.2298  0.2961
 1519SOL     OW 6121   1.392   0.370   2.619 -0.0801  0.5578  0.2844
 1519SOL    HW2 6122   1.453   0.436   2.652  0.5720 -0.4093  1.0832
 1519SOL    HW3 6123   1.307   0.397   2.651  0.1207  1.2248  0.2632
 1519SOL    MW4 6124   1.389   0.382   2.627  0.0324  0.5182  0.3870
 1520SOL     OW 6125   1.583   0.523   2.750 -0.4939  0.5253 -0.4257
 1520SOL    HW2 6126   1.660   0.470   2.728 -0.5310  0.2337  0.1463
 1520SOL    HW3 6127   1.598   0.606   2.705 -0.2040  0.2057 -0.9347
 1520SOL    MW4 6128   1.595   0.527   2.741 -0.4606  0.4447 -0.4177
 1521SOL     OW 6129   1.590   0.784   2.661  0.6619 -0.2043  0.6111
 1521SOL    HW2 6130   1.509   0.825   2.690  1.0772 -0.5654  2.3956
 1521SOL    HW3 6131   1.587   0.787   2.566 -1.6229 -0.5846  0.6592
 1521SOL    MW4 6132   1.579   0.790   2.652  0.4152 -0.3021  0.8528
 1522SOL     OW 6133   1.323   0.837   2.767 -0.0504 -0.1798 -0.2519
 1522SOL    HW2 6134   1.340   0.833   2.861  1.1527 -0.5306 -0.4757
 1522SOL    HW3 6135   1.323   0.930   2.747  0.0306 -0.1174  0.0352
 1522SOL    MW4 6136   1.326   0.849   2.776  0.1190 -0.2178 -0.2437
 1523SOL     OW 6137   1.340   1.104   2.667 -0.2245  0.2566 -0.1378
 1523SOL    HW2 6138   1.413   1.151   2.708 -0.2325  1.5448 -1.5334
 1523SOL    HW3 6139   1.262   1.146   2.701 -0.2512  0.6165 -0.6334
 1523SOL    MW4 6140   1.340   1.116   2.677 -0.2291  0.4741 -0.3872
 1524SOL     OW 6141   1.575   1.252   2.725  0.1960 -0.1078 -0.3139
 1524SOL    HW2 6142   1.582   1.272   2.818  2.0005  1.4208 -0.7362
 1524SOL    HW3 6143   1.657   1.208   2.703  0.3333  0.6870 -1.4413
 1524SOL    MW4 6144   1.587   1.249   2.734  0.4522  0.1988 -0.5181
 1525SOL     OW 6145   1.577   1.527   2.646  0.3771 -0.0425  0.0246
 1525SOL    HW2 6146   1.567   1.434   2.665 -0.0516  0.1444  0.7316
 1525SOL    HW3 6147   1.561   1.534   2.552  0.0350 -0.6346  0.0352
 1525SOL    MW4 6148   1.573   1.516   2.636  0.2754 -0.0960  0.1192
 1526SOL     OW 6149   1.355   1.678   2.745 -0.0779  0.1821  0.0281
 1526SOL    HW2 6150   1.442   1.641   2.727 -0.0033  0.4252 -0.1101
 1526SOL    HW3 6151   1.294   1.612   2.711  0.0537  0.0981 -0.0469
 1526SOL    MW4 6152   1.358   1.664   2.738 -0.0508  0.2031  0.0000
 1527SOL     OW 6153   1.355   1.929   2.616 -0.1934  0.1865  0.2098
 1527SOL    HW2 6154   1.339   1.837   2.639  0.8520 -0.1223 -0.2442
 1527SOL    HW3 6155   1.354   1.930   2.521 -0.6886  0.7393  0.2226
 1527SOL    MW4 6156   1.353   1.917   2.607 -0.1208  0.2187  0.1514
 1528SOL     OW 6157   1.581   2.061   2.694 -0.0852 -0.2740  0.0332
 1528SOL    HW2 6158   1.658   2.012   2.665 -0.1677 -1.2366  1.3752
 1528SOL    HW3 6159   1.507   2.008   2.666 -0.2005 -0.3831  0.5383
 1528SOL    MW4 6160   1.582   2.047   2.687 -0.1112 -0.4153  0.2768
 1529SOL     OW 6161   1.581   2.339   2.628 -0.0877  0.1030 -0.1970
 1529SOL    HW2 6162   1.661   2.379   2.661 -1.2100  2.1080  0.1403
 1529SOL    HW3 6163   1.584   2.249   2.661  1.3292  0.5684  0.9849
 1529SOL    MW4 6164   1.592   2.332   2.636 -0.0489  0.4289  0.0036
 1530SOL     OW 6165   1.342   2.450   2.753  0.9239  0.1051  0.0654
 1530SOL    HW2 6166   1.345   2.543   2.728  1.4494  0.2297  0.5784
 1530SOL    HW3 6167   1.405   2.407   2.696 -0.5597 -0.2378 -1.3673
 1530SOL    MW4 6168   1.350   2.457   2.742  0.7976  0.0763 -0.0560
 1531SOL     OW 6169   1.358   2.688   2.639  0.7729 -0.0270  0.1475
 1531SOL    HW2 6170   1.445   2.723   2.660  0.0783  1.8400 -0.0306
 1531SOL    HW3 6171   1.359   2.674   2.545  0.5721  0.8762  0.0088
 1531SOL    MW4 6172   1.370   2.690   2.630  0.6547  0.3386  0.1059
 1532SOL     OW 6173   1.585   2.819   2.715  0.3813 -0.6292 -0.1903
 1532SOL    HW2 6174   1.595   2.807   2.809  1.6501  0.7875 -0.1274
 1532SOL    HW3 6175   1.651   2.761   2.676  1.4374  0.5021 -0.1184
 1532SOL    MW4 6176   1.595   2.810   2.722  0.6880 -0.2933 -0.1729
 1533SOL     OW 6177   1.574   3.067   2.625 -0.0419  0.1407  0.1594
 1533SOL    HW2 6178   1.651   3.093   2.674  1.0689 -0.4443 -1.2442
 1533SOL    HW3 6179   1.561   2.975   2.648  0.0238  0.0805 -0.0388
 1533SOL    MW4 6180   1.582   3.058   2.634  0.1134  0.0553 -0.0517
 1534SOL     OW 6181   1.373   3.221   2.727 -0.1532 -0.3132  0.3643
 1534SOL    HW2 6182   1.448   3.165   2.706  0.1580  0.4588 -0.6397
 1534SOL    HW3 6183   1.301   3.182   2.677  0.3400  0.8763 -1.3230
 1534SOL    MW4 6184   1.374   3.208   2.717 -0.0471 -0.0546  0.0095
 1535SOL     OW 6185   1.332   3.492   2.638 -0.0288 -0.1978  0.2430
 1535SOL    HW2 6186   1.350   3.406   2.675  2.0057  0.3088  0.5002
 1535SOL    HW3 6187   1.263   3.529   2.693 -0.0818 -1.1914  0.8447
 1535SOL    MW4 6188   1.325   3.486   2.650  0.2326 -0.2618  0.3564
 1536SOL     OW 6189   1.533   3.589   2.772 -0.2752  0.3324 -0.1166
 1536SOL    HW2 6190   1.606   3.531   2.751  0.0209  0.8534 -0.5249
 1536SOL    HW3 6191   1.458   3.551   2.725 -0.1777  0.0426 -0.0408
 1536SOL    MW4 6192   1.533   3.576   2.763 -0.2234  0.3633 -0.1605
 1537SOL     OW 6193   1.564   3.836   2.671  0.4147 -0.5379 -0.4531
 1537SOL    HW2 6194   1.478   3.876   2.682 -0.2122 -1.9537 -0.0185
 1537SOL    HW3 6195   1.552   3.746   2.700  1.7640 -1.0700 -1.4735
 1537SOL    MW4 6196   1.551   3.829   2.676  0.5101 -0.7949 -0.5300
 1538SOL     OW 6197   1.322   3.971   2.740  0.0552 -0.0295 -0.3860
 1538SOL    HW2 6198   1.338   3.977   2.834 -1.2165  0.9212 -0.2063
 1538SOL    HW3 6199   1.341   4.059   2.706 -0.0022 -0.2186 -0.9248
 1538SOL    MW4 6200   1.326   3.984   2.748 -0.1200  0.0710 -0.4334
 1539SOL     OW 6201   1.363   4.218   2.624 -0.4636  0.1688  0.0385
 1539SOL    HW2 6202   1.303   4.284   2.660 -0.1053  0.4497  0.1267
 1539SOL    HW3 6203   1.335   4.208   2.533 -0.3628  0.6294 -0.0464
 1539SOL    MW4 6204   1.351   4.225   2.617 -0.4030  0.2670  0.0391
 1540SOL     OW 6205   1.574   4.377   2.737  0.0732  0.3359 -0.3090
 1540SOL    HW2 6206   1.561   4.356   2.830  0.6226 -0.5161 -0.4154
 1540SOL    HW3 6207   1.498   4.339   2.693 -0.2887  0.9159 -0.1824
 1540SOL    MW4 6208   1.563   4.369   2.744  0.0978  0.2999 -0.3064
 1541SOL     OW 6209   1.996   4.634   2.659 -0.2363  0.3438  0.3172
 1541SOL    HW2 6210   2.066   4.682   2.704  0.5386 -0.5860  0.1108
 1541SOL    HW3 6211   2.017   4.642   2.566 -2.5615  3.4024 -0.0412
 1541SOL    MW4 6212   2.008   4.642   2.653 -0.4411  0.6247  0.2427
 1542SOL     OW 6213   1.792   0.101   2.772 -0.0106  0.1553 -0.2207
 1542SOL    HW2 6214   1.860   0.056   2.722  0.2198  0.2606 -0.0013
 1542SOL    HW3 6215   1.710   0.066   2.737  0.1910 -1.6386  1.0289
 1542SOL    MW4 6216   1.790   0.090   2.761  0.0465 -0.0675 -0.0269
 1543SOL     OW 6217   1.810   0.363   2.668 -0.0667  0.3387 -0.3046
 1543SOL    HW2 6218   1.881   0.409   2.713  0.3711 -0.5472 -0.0635
 1543SOL    HW3 6219   1.803   0.280   2.714  1.9129 -1.5583 -3.2398
 1543SOL    MW4 6220   1.819   0.358   2.680  0.2522 -0.0285 -0.6602
 1544SOL     OW 6221   2.015   0.480   2.798  0.6850 -0.2387  0.2916
 1544SOL    HW2 6222   2.085   0.426   2.759  0.0786 -0.4533 -0.5161
 1544SOL    HW3 6223   2.012   0.558   2.743 -1.9407 -1.6954 -1.7646
 1544SOL    MW4 6224   2.024   0.483   2.786  0.2587 -0.4593 -0.0863
 1545SOL     OW 6225   2.035   0.706   2.665 -0.2129  0.0686  0.1909
 1545SOL    HW2 6226   1.970   0.771   2.692 -0.1435 -0.3917  1.5214
 1545SOL    HW3 6227   2.046   0.721   2.571 -1.2100  1.0671  0.2133
 1545SOL    MW4 6228   2.028   0.717   2.656 -0.3352  0.1395  0.3695
 1546SOL     OW 6229   1.826   0.874   2.751 -0.2422 -0.3133 -0.6262
 1546SOL    HW2 6230   1.825   0.961   2.712  0.1003 -0.1699 -0.3261
 1546SOL    HW3 6231   1.742   0.835   2.727  0.1866 -0.4291 -1.9428
 1546SOL    MW4 6232   1.815   0.880   2.743 -0.1405 -0.3097 -0.7603
 1547SOL     OW 6233   1.818   1.144   2.654 -0.1205 -0.1637 -0.2944
 1547SOL    HW2 6234   1.897   1.198   2.667  0.2192 -0.8273  0.3832
 1547SOL    HW3 6235   1.805   1.145   2.559  0.4586  0.2923 -0.3773
 1547SOL    MW4 6236   1.827   1.151   2.643  0.0007 -0.1910 -0.2160
 1548SOL     OW 6237   2.046   1.284   2.733 -0.1090 -0.7705  0.2141
 1548SOL    HW2 6238   2.036   1.273   2.827 -0.8989 -0.7630  0.1362
 1548SOL    HW3 6239   2.117   1.224   2.709  1.5341  0.7417  1.1261
 1548SOL    MW4 6240   2.054   1.275   2.742  0.0038 -0.5701  0.3245
 1549SOL     OW 6241   2.055   1.528   2.646  0.2449  0.0715 -0.2543
 1549SOL    HW2 6242   1.979   1.568   2.687  0.4410  1.0842 -0.8640
 1549SOL    HW3 6243   2.061   1.441   2.686 -0.9416  0.1658  0.1369
 1549SOL    MW4 6244   2.046   1.522   2.657  0.1144  0.2177 -0.2830
 1550SOL     OW 6245   1.806   1.665   2.714  0.1033  0.1764 -0.0084
 1550SOL    HW2 6246   1.786   1.676   2.807 -2.2417 -0.1307 -0.4356
 1550SOL    HW3 6247   1.727   1.626   2.677  0.5180  1.4278 -2.3627
 1550SOL    MW4 6248   1.793   1.662   2.721 -0.1514  0.3010 -0.3753
 1551SOL     OW 6249   1.799   1.917   2.634 -0.6466 -0.0073 -0.1536
 1551SOL    HW2 6250   1.880   1.955   2.668 -1.0031  0.0318  0.6793
 1551SOL    HW3 6251   1.799   1.827   2.666 -2.3536  0.8365  2.4457
 1551SOL    MW4 6252   1.809   1.910   2.643 -0.9190  0.1092  0.2995
 1552SOL     OW 6253   2.044   2.000   2.737  0.2013  0.3161  0.1580
 1552SOL    HW2 6254   2.046   1.994   2.833 -0.1234 -0.3632  0.1254
 1552SOL    HW3 6255   2.049   2.094   2.719 -1.1914  0.5447  0.8801
 1552SOL    MW4 6256   2.045   2.012   2.748 -0.0255  0.2565  0.2491
 1553SOL     OW 6257   2.063   2.260   2.630  0.2275 -0.6247  0.4151
 1553SOL    HW2 6258   2.129   2.314   2.673  0.2544 -0.3850  0.0740
 1553SOL    HW3 6259   2.063   2.289   2.539  0.8463 -1.7875  0.0355
 1553SOL    MW4 6260   2.072   2.271   2.624  0.3126 -0.7467  0.3202
 1554SOL     OW 6261   1.847   2.433   2.699 -0.1461 -0.1044  0.3204
 1554SOL    HW2 6262   1.857   2.451   2.792 -2.3745 -0.9798  0.7683
 1554SOL    HW3 6263   1.907   2.361   2.681 -0.8411 -0.9629  1.4303
 1554SOL    MW4 6264   1.856   2.426   2.709 -0.5318 -0.3331  0.5257
 1555SOL     OW 6265   1.833   2.697   2.618 -0.2810  0.1240  0.3573
 1555SOL    HW2 6266   1.847   2.606   2.645 -0.6358  0.0025  0.1444
 1555SOL    HW3 6267   1.813   2.691   2.524 -2.3210  0.2167  0.7582
 1555SOL    MW4 6268   1.832   2.684   2.609 -0.5968  0.1199  0.3822
 1556SOL     OW 6269   2.028   2.871   2.715 -0.5091  0.3326  0.1673
 1556SOL    HW2 6270   2.106   2.826   2.683 -0.4651  0.0636  0.6493
 1556SOL    HW3 6271   1.955   2.825   2.673 -0.3516  1.9452 -2.0011
 1556SOL    MW4 6272   2.029   2.859   2.705 -0.4826  0.5100 -0.0553
 1557SOL     OW 6273   2.021   3.134   2.618 -0.4830 -0.3684  0.1311
 1557SOL    HW2 6274   2.019   3.042   2.642 -2.0111 -0.3226  0.1710
 1557SOL    HW3 6275   2.034   3.134   2.523 -0.0077 -0.6079  0.1936
 1557SOL    MW4 6276   2.023   3.122   2.609 -0.6220 -0.3939  0.1445
 1558SOL     OW 6277   1.790   3.189   2.753 -0.3329 -0.1426  0.6480
 1558SOL    HW2 6278   1.768   3.282   2.748 -0.3839 -0.1226  1.2250
 1558SOL    HW3 6279   1.864   3.179   2.693  1.0754  0.6948  2.1875
 1558SOL    MW4 6280   1.797   3.200   2.744 -0.1538 -0.0293  0.9274
 1559SOL     OW 6281   1.762   3.451   2.698  0.5582 -0.2094  0.4886
 1559SOL    HW2 6282   1.853   3.472   2.718  0.6282 -1.0935  1.1061
 1559SOL    HW3 6283   1.759   3.448   2.602  0.6378  2.1407  0.3657
 1559SOL    MW4 6284   1.773   3.454   2.688  0.5779 -0.0160  0.5538
 1560SOL     OW 6285   2.039   3.557   2.749 -0.3414  0.5532 -0.1558
 1560SOL    HW2 6286   2.053   3.559   2.843 -0.9467  0.4265 -0.0574
 1560SOL    HW3 6287   2.121   3.524   2.712 -0.1070  0.5951  0.3243
 1560SOL    MW4 6288   2.051   3.553   2.756 -0.3903  0.5419 -0.0794
 1561SOL     OW 6289   2.015   3.829   2.703  0.2195  0.5861 -0.7065
 1561SOL    HW2 6290   1.936   3.872   2.736 -0.0203  0.3659 -1.0027
 1561SOL    HW3 6291   1.998   3.735   2.714  0.0506  0.5007 -1.6654
 1561SOL    MW4 6292   2.002   3.822   2.709  0.1657  0.5457 -0.8719
 1562SOL     OW 6293   1.795   3.948   2.761 -0.0442  0.4878  0.7855
 1562SOL    HW2 6294   1.799   4.034   2.719  0.3399 -0.2886 -0.8280
 1562SOL    HW3 6295   1.708   3.915   2.739  0.2640 -0.0416  0.3345
 1562SOL    MW4 6296   1.784   3.955   2.752  0.0472  0.3154  0.5131
 1563SOL     OW 6297   1.794   4.204   2.659  0.4953 -0.3429 -0.1816
 1563SOL    HW2 6298   1.725   4.252   2.705  2.0020  1.7108  0.0179
 1563SOL    HW3 6299   1.779   4.223   2.567  0.2780 -0.6144 -0.2027
 1563SOL    MW4 6300   1.783   4.213   2.653  0.6653 -0.1082 -0.1581
 1564SOL     OW 6301   2.008   4.361   2.702 -0.1238  0.2167  0.0982
 1564SOL    HW2 6302   1.927   4.311   2.692 -0.4304  0.3245  1.8701
 1564SOL    HW3 6303   1.984   4.450   2.678  0.2554 -0.3101 -2.3898
 1564SOL    MW4 6304   1.994   4.366   2.697 -0.1142  0.1612  0.0036
 1565SOL     OW 6305   2.445   4.628   2.652 -0.6418  0.3706 -0.2665
 1565SOL    HW2 6306   2.519   4.679   2.685  0.3305 -1.3419  0.2639
 1565SOL    HW3 6307   2.450   4.636   2.557  0.3152  0.1384 -0.2333
 1565SOL    MW4 6308   2.455   4.636   2.644 -0.3874  0.1140 -0.1922
 1566SOL     OW 6309   2.219   0.070   2.776  0.2142 -0.2887  0.1551
 1566SOL    HW2 6310   2.243   0.062   2.869  1.8186 -1.1231 -0.3068
 1566SOL    HW3 6311   2.291   0.027   2.730 -1.5021 -1.5292 -1.3874
 1566SOL    MW4 6312   2.232   0.063   2.782  0.1996 -0.5624 -0.1094
 1567SOL     OW 6313   2.217   0.344   2.657  0.2168  0.3603 -0.5017
 1567SOL    HW2 6314   2.213   0.255   2.692 -0.3047  0.8168  0.6209
 1567SOL    HW3 6315   2.234   0.333   2.564 -1.4870 -0.9637 -0.6688
 1567SOL    MW4 6316   2.219   0.331   2.650 -0.0768  0.2459 -0.3757
 1568SOL     OW 6317   2.427   0.480   2.774 -0.1572 -0.1949  0.0485
 1568SOL    HW2 6318   2.443   0.565   2.734 -0.9046  0.3377  0.8615
 1568SOL    HW3 6319   2.345   0.450   2.736  0.2159 -0.6561 -0.4000
 1568SOL    MW4 6320   2.419   0.487   2.764 -0.2067 -0.1855  0.0968
 1569SOL     OW 6321   2.486   0.741   2.685  0.2019  0.5074 -0.0269
 1569SOL    HW2 6322   2.410   0.779   2.730  0.1561  0.8970 -0.4374
 1569SOL    HW3 6323   2.469   0.756   2.592  0.0943 -0.6752 -0.2039
 1569SOL    MW4 6324   2.474   0.748   2.679  0.1817  0.4027 -0.1044
 1570SOL     OW 6325   2.253   0.867   2.775  0.1101 -0.4830 -0.0278
 1570SOL    HW2 6326   2.257   0.845   2.868  0.6093  0.8569  0.2768
 1570SOL    HW3 6327   2.197   0.799   2.737  1.1450 -1.9202  0.9736
 1570SOL    MW4 6328   2.246   0.856   2.783  0.3123 -0.4958  0.1447
 1571SOL     OW 6329   2.248   1.116   2.668 -0.0074  0.7834  0.0145
 1571SOL    HW2 6330   2.247   1.021   2.678 -0.6182  0.7294 -0.4983
 1571SOL    HW3 6331   2.234   1.130   2.574  0.2050  1.3776  0.0696
 1571SOL    MW4 6332   2.246   1.105   2.657 -0.0601  0.8548 -0.0455
 1572SOL     OW 6333   2.454   1.293   2.784  0.2263 -0.4607  0.1680
 1572SOL    HW2 6334   2.534   1.261   2.742 -0.2655  0.6730 -1.7082
 1572SOL    HW3 6335   2.384   1.239   2.748  0.0534 -0.9253  1.2003
 1572SOL    MW4 6336   2.456   1.282   2.773  0.1383 -0.3724  0.0565
 1573SOL     OW 6337   2.451   1.522   2.637 -0.1613  0.2243  0.0660
 1573SOL    HW2 6338   2.379   1.579   2.665 -0.3357 -0.0722  0.2221
 1573SOL    HW3 6339   2.440   1.442   2.688 -0.4072 -0.2711 -0.7538
 1573SOL    MW4 6340   2.440   1.519   2.647 -0.2170  0.1197 -0.0215
 1574SOL     OW 6341   2.265   1.674   2.764  0.3803 -0.0537 -0.5175
 1574SOL    HW2 6342   2.272   1.759   2.721  0.1988 -1.0387 -2.6011
 1574SOL    HW3 6343   2.191   1.631   2.720  0.9908 -1.5945 -0.0889
 1574SOL    MW4 6344   2.256   1.679   2.752  0.4370 -0.3870 -0.7358
 1575SOL     OW 6345   2.271   1.899   2.634 -0.2039 -0.0979  0.6020
 1575SOL    HW2 6346   2.188   1.930   2.671 -0.5438 -0.8035  0.4385
 1575SOL    HW3 6347   2.268   1.926   2.542 -0.0757  0.2265  0.6927
 1575SOL    MW4 6348   2.259   1.907   2.627 -0.2317 -0.1482  0.5922
 1576SOL     OW 6349   2.475   2.047   2.735  0.0436  0.1033 -0.1902
 1576SOL    HW2 6350   2.468   2.132   2.691  1.1654  0.0806 -0.4362
 1576SOL    HW3 6351   2.394   2.001   2.712 -1.0962  1.5258  0.8656
 1576SOL    MW4 6352   2.463   2.052   2.726  0.0410  0.2880 -0.0834
 1577SOL     OW 6353   2.494   2.298   2.645 -0.3746  0.2172 -0.0442
 1577SOL    HW2 6354   2.569   2.350   2.673 -0.2585 -0.6434  1.2538
 1577SOL    HW3 6355   2.501   2.297   2.549  0.8819  0.7001  0.0283
 1577SOL    MW4 6356   2.505   2.305   2.636 -0.1934  0.1671  0.1364
 1578SOL     OW 6357   2.264   2.432   2.704 -0.3057 -0.6404 -0.3906
 1578SOL    HW2 6358   2.258   2.425   2.799 -1.9761 -1.0255 -0.5056
 1578SOL    HW3 6359   2.350   2.395   2.683 -0.1230 -1.0016  0.9240
 1578SOL    MW4 6360   2.274   2.426   2.714 -0.5019 -0.7389 -0.2325
 1579SOL     OW 6361   2.254   2.728   2.638 -0.0655 -0.0318  0.1845
 1579SOL    HW2 6362   2.339   2.751   2.675 -0.1298 -0.8801  0.8621
 1579SOL    HW3 6363   2.244   2.634   2.657 -0.4795 -0.2794 -1.2069
 1579SOL    MW4 6364   2.264   2.718   2.645 -0.1287 -0.1764  0.0904
 1580SOL     OW 6365   2.483   2.806   2.753 -0.2203 -0.4730  0.6379
 1580SOL    HW2 6366   2.565   2.771   2.718  0.3342  0.5493  0.9030
 1580SOL    HW3 6367   2.473   2.891   2.710 -1.7038 -1.0552 -0.2229
 1580SOL    MW4 6368   2.492   2.813   2.743 -0.3428 -0.4151  0.5593
 1581SOL     OW 6369   2.490   3.071   2.630  0.4540 -0.0039  0.5626
 1581SOL    HW2 6370   2.405   3.108   2.656  0.9850  0.5818  1.4927
 1581SOL    HW3 6371   2.490   3.074   2.535 -1.0398 -1.0533  0.5029
 1581SOL    MW4 6372   2.479   3.076   2.621  0.3269 -0.0651  0.6776
 1582SOL     OW 6373   2.260   3.203   2.735 -0.6662 -0.1084  0.3275
 1582SOL    HW2 6374   2.256   3.205   2.831 -1.2072 -1.5035  0.3557
 1582SOL    HW3 6375   2.169   3.191   2.708 -0.3404 -1.3238 -0.2873
 1582SOL    MW4 6376   2.247   3.201   2.744 -0.6948 -0.4530  0.2501
 1583SOL     OW 6377   2.277   3.468   2.639 -0.3089 -0.0566 -0.1614
 1583SOL    HW2 6378   2.363   3.507   2.647 -0.0701 -0.2874 -1.5345
 1583SOL    HW3 6379   2.287   3.380   2.676 -0.5535  0.7324  1.8301
 1583SOL    MW4 6380   2.289   3.462   2.645 -0.3095  0.0169 -0.0799
 1584SOL     OW 6381   2.501   3.611   2.702 -0.0413 -0.3017 -0.3948
 1584SOL    HW2 6382   2.502   3.618   2.797 -0.6943 -0.4593 -0.3707
 1584SOL    HW3 6383   2.483   3.700   2.671  0.2182 -0.2414 -0.3733
 1584SOL    MW4 6384   2.498   3.624   2.710 -0.0932 -0.3145 -0.3889
 1585SOL     OW 6385   2.484   3.869   2.617 -0.4050 -0.0153  0.2859
 1585SOL    HW2 6386   2.557   3.917   2.658  0.5426 -1.1423 -0.0679
 1585SOL    HW3 6387   2.406   3.900   2.664  0.5303 -0.3281  2.0772
 1585SOL    MW4 6388   2.483   3.880   2.629 -0.1564 -0.2053  0.4759
 1586SOL     OW 6389   2.257   3.950   2.738  0.1280  0.1658  0.1142
 1586SOL    HW2 6390   2.271   3.970   2.830  0.0777 -0.9442  0.3681
 1586SOL    HW3 6391   2.181   3.892   2.737  0.0953  0.2124 -0.6308
 1586SOL    MW4 6392   2.249   3.945   2.750  0.1171  0.0255  0.0496
 1587SOL     OW 6393   2.250   4.244   2.659  0.0827  0.0822 -0.8815
 1587SOL    HW2 6394   2.255   4.149   2.674 -2.5972 -0.4272 -2.8512
 1587SOL    HW3 6395   2.158   4.265   2.668  0.4823  2.2838 -1.6765
 1587SOL    MW4 6396   2.239   4.234   2.662 -0.2182  0.3057 -1.2462
 1588SOL     OW 6397   2.462   4.381   2.793  0.1744  0.4521  0.3646
 1588SOL    HW2 6398   2.387   4.338   2.751  1.3344 -1.8416  0.5966
 1588SOL    HW3 6399   2.462   4.469   2.755 -2.2094  0.2718 -0.1700
 1588SOL    MW4 6400   2.452   4.387   2.782  0.0126  0.1254  0.3247
 1589SOL     OW 6401   2.910   0.005   2.645  0.1887 -0.4448  0.0409
 1589SOL    HW2 6402   2.981   0.060   2.679  1.5165 -1.4121 -1.0765
 1589SOL    HW3 6403   2.899   0.034   2.554 -0.1524 -0.9912 -0.0944
 1589SOL    MW4 6404   2.918   0.017   2.637  0.3188 -0.6447 -0.1242
 1590SOL     OW 6405   2.679   0.100   2.746 -0.2986  0.4595  0.1690
 1590SOL    HW2 6406   2.687   0.123   2.839 -0.7286  0.3858  0.2260
 1590SOL    HW3 6407   2.767   0.073   2.720  0.1534  1.8499  0.1917
 1590SOL    MW4 6408   2.691   0.100   2.755 -0.2956  0.6333  0.1798
 1591SOL     OW 6409   2.657   0.357   2.664 -0.1500  0.6038  0.0174
 1591SOL    HW2 6410   2.669   0.265   2.689  1.4959  0.5655 -0.8426
 1591SOL    HW3 6411   2.565   0.374   2.681 -0.4573 -1.1884  0.2912
 1591SOL    MW4 6412   2.647   0.347   2.669  0.0267  0.3623 -0.0601
 1592SOL     OW 6413   2.871   0.521   2.788 -0.8013  0.0813  0.3519
 1592SOL    HW2 6414   2.860   0.608   2.750  0.7534 -0.6833 -1.9671
 1592SOL    HW3 6415   2.799   0.470   2.752 -1.0218  0.0945  0.7695
 1592SOL    MW4 6416   2.860   0.526   2.778 -0.6254 -0.0179  0.1011
 1593SOL     OW 6417   2.909   0.760   2.665 -0.0722 -0.2523  0.3794
 1593SOL    HW2 6418   2.997   0.788   2.690 -0.2938  2.2481 -1.3924
 1593SOL    HW3 6419   2.850   0.820   2.710 -0.8531 -1.4271  0.9507
 1593SOL    MW4 6420   2.913   0.771   2.674 -0.2046 -0.0775  0.2213
 1594SOL     OW 6421   2.690   0.894   2.787 -0.4654  0.0742 -0.1531
 1594SOL    HW2 6422   2.680   0.901   2.882  1.1155 -1.0738  0.1189
 1594SOL    HW3 6423   2.623   0.831   2.761 -0.6079  0.0510  0.2584
 1594SOL    MW4 6424   2.680   0.887   2.796 -0.2756 -0.0803 -0.0627
 1595SOL     OW 6425   2.687   1.156   2.664 -0.2570  0.1113  0.1074
 1595SOL    HW2 6426   2.771   1.195   2.688 -0.0688 -0.6124  0.6502
 1595SOL    HW3 6427   2.692   1.066   2.697 -1.4268  0.2028  0.5669
 1595SOL    MW4 6428   2.698   1.149   2.671 -0.3870  0.0278  0.2396
 1596SOL     OW 6429   2.934   1.263   2.740  0.2642  0.3036 -0.0105
 1596SOL    HW2 6430   2.915   1.230   2.828  0.9506  1.3926  0.5733
 1596SOL    HW3 6431   3.019   1.224   2.718 -0.2885 -0.5971 -0.5141
 1596SOL    MW4 6432   2.943   1.254   2.749  0.2818  0.3284  0.0000
 1597SOL     OW 6433   2.917   1.536   2.632 -0.0327  0.0886  0.0539
 1597SOL    HW2 6434   2.844   1.576   2.679  1.3431 -0.3717  2.6981
 1597SOL    HW3 6435   2.919   1.445   2.664  0.8221 -0.2945 -1.0516
 1597SOL    MW4 6436   2.907   1.529   2.642  0.2613 -0.0228  0.2570
 1598SOL     OW 6437   2.692   1.660   2.708 -0.2489 -0.0445  0.1899
 1598SOL    HW2 6438   2.695   1.667   2.804  1.0055 -0.2422  0.1724
 1598SOL    HW3 6439   2.608   1.619   2.690  0.3805 -1.9435  1.3468
 1598SOL    MW4 6440   2.682   1.655   2.718 -0.0005 -0.3211  0.3400
 1599SOL     OW 6441   2.709   1.932   2.615  0.4559 -0.2740 -0.5749
 1599SOL    HW2 6442   2.710   1.839   2.638 -0.9055 -0.6146 -1.7865
 1599SOL    HW3 6443   2.626   1.964   2.653  0.8516  0.4172 -0.2857
 1599SOL    MW4 6444   2.698   1.924   2.623  0.3283 -0.2278 -0.6967
 1600SOL     OW 6445   2.914   2.066   2.731  0.0634  0.0820 -0.3208
 1600SOL    HW2 6446   2.936   2.155   2.703 -1.1369  0.8066  0.9752
 1600SOL    HW3 6447   2.839   2.042   2.677 -0.8072  0.5948  0.6527
 1600SOL    MW4 6448   2.907   2.075   2.720 -0.2098  0.2451 -0.0215
 1601SOL     OW 6449   2.936   2.336   2.650 -0.5338 -0.3930 -0.6085
 1601SOL    HW2 6450   3.009   2.386   2.687 -0.3793  0.8489 -2.5074
 1601SOL    HW3 6451   2.858   2.382   2.681 -0.4041  0.6186 -1.7101
 1601SOL    MW4 6452   2.935   2.349   2.659 -0.4964 -0.0956 -1.0047
 1602SOL     OW 6453   2.713   2.448   2.748 -0.1352 -0.3688 -0.2223
 1602SOL    HW2 6454   2.708   2.458   2.843  1.4752  0.0871 -0.1827
 1602SOL    HW3 6455   2.702   2.537   2.714 -0.0074 -0.4351 -0.4376
 1602SOL    MW4 6456   2.711   2.461   2.756  0.0942 -0.3173 -0.2456
 1603SOL     OW 6457   2.708   2.728   2.652 -0.6143 -0.2142 -0.3169
 1603SOL    HW2 6458   2.784   2.756   2.702 -1.8809  1.6409  0.6251
 1603SOL    HW3 6459   2.739   2.726   2.561  0.7366 -0.1230  0.1329
 1603SOL    MW4 6460   2.722   2.732   2.646 -0.6030  0.0422 -0.1330
 1604SOL     OW 6461   2.935   2.835   2.770 -0.1074 -0.1008  0.5192
 1604SOL    HW2 6462   2.970   2.830   2.858  3.1808 -1.6425 -0.7943
 1604SOL    HW3 6463   2.942   2.928   2.746  2.8357 -0.3213  0.4258
 1604SOL    MW4 6464   2.940   2.847   2.778  0.7148 -0.3333  0.3338
 1605SOL     OW 6465   2.944   3.104   2.691 -0.2782  0.1284 -0.1432
 1605SOL    HW2 6466   2.864   3.147   2.720  0.5842  0.7238  1.4662
 1605SOL    HW3 6467   2.939   3.103   2.595 -2.0551  0.4077 -0.0567
 1605SOL    MW4 6468   2.933   3.110   2.682 -0.3989  0.2439  0.0806
 1606SOL     OW 6469   2.700   3.213   2.759  0.0638  0.2261 -0.0001
 1606SOL    HW2 6470   2.690   3.288   2.700 -1.9865 -0.5868 -0.7453
 1606SOL    HW3 6471   2.641   3.146   2.724 -0.2653 -0.7350  2.2491
 1606SOL    MW4 6472   2.691   3.214   2.747 -0.2503 -0.0081  0.1984
 1607SOL     OW 6473   2.712   3.478   2.625 -0.1512  0.2165  0.0781
 1607SOL    HW2 6474   2.632   3.522   2.653 -0.3726  0.0807 -0.3328
 1607SOL    HW3 6475   2.702   3.469   2.530 -0.1491 -0.7733  0.1669
 1607SOL    MW4 6476   2.700   3.482   2.616 -0.1800  0.0679  0.0355
 1608SOL     OW 6477   2.917   3.614   2.755  0.2251 -0.3764 -0.3202
 1608SOL    HW2 6478   2.905   3.596   2.849 -0.5022 -1.7010 -0.6517
 1608SOL    HW3 6479   2.843   3.570   2.713  0.4249  0.4053 -1.4987
 1608SOL    MW4 6480   2.906   3.606   2.762  0.1557 -0.4480 -0.5193
 1609SOL     OW 6481   2.895   3.867   2.642  0.3690  0.5139  0.1304
 1609SOL    HW2 6482   2.967   3.925   2.666  1.0482 -0.2957  0.0983
 1609SOL    HW3 6483   2.916   3.784   2.685 -0.7235  0.3691  0.3952
 1609SOL    MW4 6484   2.907   3.864   2.651  0.3145  0.3881  0.1609
 1610SOL     OW 6485   2.684   3.996   2.778  0.4899  0.0555  0.4282
 1610SOL    HW2 6486   2.693   4.090   2.762  0.1212 -0.0516 -0.4124
 1610SOL    HW3 6487   2.763   3.957   2.740 -0.0050 -0.1138 -0.4335
 1610SOL    MW4 6488   2.696   4.003   2.771  0.3757  0.0191  0.2036
 1611SOL     OW 6489   2.683   4.256   2.688  0.4758 -0.2226 -0.0914
 1611SOL    HW2 6490   2.756   4.313   2.709 -0.2342  1.3535 -1.7641
 1611SOL    HW3 6491   2.608   4.296   2.731 -0.1793  0.6302 -1.9541
 1611SOL    MW4 6492   2.683   4.269   2.696  0.2959  0.0978 -0.5579
 1612SOL     OW 6493   2.876   4.431   2.765 -0.4100  0.2084  0.0875
 1612SOL    HW2 6494   2.874   4.445   2.860 -4.5337  0.6258  0.0256
 1612SOL    HW3 6495   2.879   4.518   2.727  0.1467  0.0686 -0.2040
 1612SOL    MW4 6496   2.876   4.444   2.773 -0.8805  0.2456  0.0410
 1613SOL     OW 6497   3.356   0.049   2.653  0.0598  0.1686  0.2902
 1613SOL    HW2 6498   3.356  -0.044   2.675 -0.6798  0.5500  1.9950
 1613SOL    HW3 6499   3.273   0.082   2.690  0.6468  1.6368  0.3216
 1613SOL    MW4 6500   3.345   0.041   2.661  0.0398  0.4127  0.5193
 1614SOL     OW 6501   3.120   0.159   2.753  1.0735  0.3163 -0.2333
 1614SOL    HW2 6502   3.110   0.149   2.848  0.7751 -0.3142 -0.3269
 1614SOL    HW3 6503   3.120   0.253   2.739 -1.5913  0.4203  0.1232
 1614SOL    MW4 6504   3.119   0.170   2.764  0.6824  0.2468 -0.1986
 1615SOL     OW 6505   3.119   0.423   2.673  0.1099  0.4899  0.5058
 1615SOL    HW2 6506   3.036   0.457   2.707 -0.0082  0.1686  0.5403
 1615SOL    HW3 6507   3.110   0.429   2.578  0.7458  2.1199  0.5426
 1615SOL    MW4 6508   3.107   0.428   2.665  0.1783  0.6626  0.5155
 1616SOL     OW 6509   3.358   0.510   2.774  0.3014  0.2029 -0.0044
 1616SOL    HW2 6510   3.368   0.599   2.738 -1.3141  0.0223 -0.9289
 1616SOL    HW3 6511   3.268   0.486   2.755  0.3794 -1.1962  1.3018
 1616SOL    MW4 6512   3.348   0.519   2.767  0.0985 -0.0055  0.0460
 1617SOL     OW 6513   3.397   0.777   2.704 -0.2741  0.0590  0.1922
 1617SOL    HW2 6514   3.476   0.817   2.739 -1.4550  2.7469 -0.0822
 1617SOL    HW3 6515   3.398   0.798   2.610 -1.4718  0.4586  0.2488
 1617SOL    MW4 6516   3.407   0.785   2.696 -0.5879  0.4663  0.1633
 1618SOL     OW 6517   3.133   0.890   2.742 -0.0822  0.0780  0.0510
 1618SOL    HW2 6518   3.124   0.893   2.837  0.0098 -1.1880  0.1079
 1618SOL    HW3 6519   3.226   0.880   2.726 -0.2555 -1.5422 -0.0976
 1618SOL    MW4 6520   3.144   0.889   2.752 -0.0930 -0.3029  0.0386
 1619SOL     OW 6521   3.186   1.144   2.657  0.1504  0.1503 -0.0096
 1619SOL    HW2 6522   3.183   1.052   2.683 -0.2568  0.1193 -0.1608
 1619SOL    HW3 6523   3.172   1.143   2.563  2.2115  0.2269 -0.3385
 1619SOL    MW4 6524   3.183   1.132   2.648  0.3686  0.1563 -0.0730
 1620SOL     OW 6525   3.375   1.292   2.765  0.3377  0.0648  0.2739
 1620SOL    HW2 6526   3.378   1.287   2.861  0.2208  0.1232  0.2802
 1620SOL    HW3 6527   3.304   1.232   2.740 -1.4314  2.0760  0.3839
 1620SOL    MW4 6528   3.366   1.283   2.774  0.0889  0.3380  0.2894
 1621SOL     OW 6529   3.388   1.548   2.641 -0.1173  0.1059 -0.0855
 1621SOL    HW2 6530   3.308   1.576   2.685  0.7284 -0.2060  1.7099
 1621SOL    HW3 6531   3.404   1.459   2.673  0.9741  0.1837 -0.3684
 1621SOL    MW4 6532   3.380   1.540   2.651  0.1383  0.0750  0.1142
 1622SOL     OW 6533   3.141   1.627   2.755  0.4214  0.0032 -0.0170
 1622SOL    HW2 6534   3.132   1.721   2.739  0.9319  0.0366 -0.1080
 1622SOL    HW3 6535   3.056   1.591   2.732  0.0488  0.5194  0.5371
 1622SOL    MW4 6536   3.129   1.635   2.750  0.4399  0.0758  0.0439
 1623SOL     OW 6537   3.140   1.915   2.671 -0.0773 -0.2337 -0.1619
 1623SOL    HW2 6538   3.213   1.961   2.713  0.1419  0.1447 -0.9624
 1623SOL    HW3 6539   3.063   1.965   2.698 -0.1536 -1.1978  1.4785
 1623SOL    MW4 6540   3.140   1.928   2.680 -0.0584 -0.3110 -0.0510
 1624SOL     OW 6541   3.356   2.050   2.766  0.5922 -0.1431 -0.0106
 1624SOL    HW2 6542   3.352   2.062   2.861  0.2413 -1.2976  0.1296
 1624SOL    HW3 6543   3.366   2.139   2.731 -0.0523  0.3599  1.0590
 1624SOL    MW4 6544   3.357   2.063   2.774  0.4609 -0.2289  0.1493
 1625SOL     OW 6545   3.364   2.303   2.630 -0.0850  0.0781  0.0085
 1625SOL    HW2 6546   3.429   2.370   2.650 -0.6198  0.5379  0.2078
 1625SOL    HW3 6547   3.363   2.298   2.534 -1.0142  1.3082 -0.0501
 1625SOL    MW4 6548   3.373   2.311   2.620 -0.2782  0.3011  0.0267
 1626SOL     OW 6549   3.167   2.433   2.761  0.0895 -0.0900  0.1056
 1626SOL    HW2 6550   3.164   2.525   2.735  0.0790  0.4174  1.8481
 1626SOL    HW3 6551   3.240   2.396   2.711  0.6785  1.0764  0.0897
 1626SOL    MW4 6552   3.176   2.440   2.751  0.1659  0.1309  0.3338
 1627SOL     OW 6553   3.137   2.694   2.656  0.8128  0.1594 -0.4675
 1627SOL    HW2 6554   3.209   2.742   2.697  0.1681  1.6240 -0.9918
 1627SOL    HW3 6555   3.058   2.736   2.691  0.2427  0.4932 -2.1171
 1627SOL    MW4 6556   3.136   2.706   2.666  0.6521  0.3967 -0.7544
 1628SOL     OW 6557   3.367   2.813   2.748 -0.2295  0.6421 -0.1236
 1628SOL    HW2 6558   3.382   2.816   2.843 -1.5705  1.2395  0.0757
 1628SOL    HW3 6559   3.441   2.763   2.714 -0.1463 -0.2577  1.3332
 1628SOL    MW4 6560   3.379   2.807   2.756 -0.3953  0.6022  0.0949
 1629SOL     OW 6561   3.354   3.098   2.641 -0.3051 -0.1813  0.0585
 1629SOL    HW2 6562   3.362   3.008   2.671 -0.3232 -0.5247 -0.9483
 1629SOL    HW3 6563   3.345   3.091   2.546  0.6276  0.9238 -0.1272
 1629SOL    MW4 6564   3.354   3.085   2.632 -0.1845 -0.0811 -0.0989
 1630SOL     OW 6565   3.173   3.238   2.793 -0.2984 -0.1755  0.4983
 1630SOL    HW2 6566   3.233   3.190   2.737 -1.4696 -0.1860 -0.7712
 1630SOL    HW3 6567   3.086   3.204   2.770 -1.0465  1.7960  0.3136
 1630SOL    MW4 6568   3.170   3.227   2.783 -0.5517  0.0832  0.3064
 1631SOL     OW 6569   3.154   3.483   2.690 -0.4475 -0.1910 -0.3199
 1631SOL    HW2 6570   3.147   3.397   2.732 -0.5101  0.9348  2.0248
 1631SOL    HW3 6571   3.073   3.528   2.712  0.0503  0.8794 -0.6436
 1631SOL    MW4 6572   3.143   3.478   2.698 -0.3898  0.0989 -0.0532
 1632SOL     OW 6573   3.376   3.632   2.753 -0.1508 -0.0725 -0.0836
 1632SOL    HW2 6574   3.389   3.638   2.847  0.1219  0.1393 -0.1325
 1632SOL    HW3 6575   3.297   3.579   2.742  0.2446 -0.7281  0.2401
 1632SOL    MW4 6576   3.367   3.626   2.764 -0.0627 -0.1309 -0.0474
 1633SOL     OW 6577   3.400   3.895   2.638  0.2499 -0.0141  0.0569
 1633SOL    HW2 6578   3.391   3.804   2.667  1.6797 -0.4555 -0.8049
 1633SOL    HW3 6579   3.411   3.888   2.543  0.9167  1.0116  0.0527
 1633SOL    MW4 6580   3.400   3.882   2.629  0.5267  0.0629 -0.0575
 1634SOL     OW 6581   3.146   3.995   2.726 -0.0800 -0.2209 -0.3713
 1634SOL    HW2 6582   3.143   4.086   2.695  0.8285 -0.0882 -0.0875
 1634SOL    HW3 6583   3.232   3.963   2.697  0.5101 -0.3059  1.3956
 1634SOL    MW4 6584   3.157   4.003   2.718  0.1175 -0.2146 -0.1006
 1635SOL     OW 6585   3.099   4.262   2.677 -0.2354 -0.4452  0.1489
 1635SOL    HW2 6586   3.026   4.322   2.692  0.5777  0.9638 -1.3382
 1635SOL    HW3 6587   3.122   4.276   2.585  1.5387 -1.2842  0.4613
 1635SOL    MW4 6588   3.092   4.272   2.666  0.1059 -0.3700 -0.0062
 1636SOL     OW 6589   3.338   4.435   2.730 -0.9947  0.2200  0.2806
 1636SOL    HW2 6590   3.365   4.425   2.821 -0.5267 -0.5594  0.0589
 1636SOL    HW3 6591   3.244   4.419   2.730 -1.2807  1.8097  0.8768
 1636SOL    MW4 6592   3.329   4.432   2.742 -0.9708  0.3276  0.3302
 1637SOL     OW 6593   3.799   0.004   2.663 -0.2186  0.3425  0.2710
 1637SOL    HW2 6594   3.798  -0.079   2.711  1.1363  0.1553 -0.0031
 1637SOL    HW3 6595   3.724   0.053   2.697 -1.2053 -1.1128  0.2246
 1637SOL    MW4 6596   3.789  -0.000   2.674 -0.1698  0.1259  0.2284
 1638SOL     OW 6597   3.588   0.162   2.783 -0.0795  0.7467  0.6265
 1638SOL    HW2 6598   3.593   0.235   2.721  1.4783 -0.6256 -0.9183
 1638SOL    HW3 6599   3.521   0.104   2.746 -0.1863  0.6189  1.0155
 1638SOL    MW4 6600   3.580   0.164   2.770  0.1118  0.5488  0.4737
 1639SOL     OW 6601   3.549   0.393   2.627 -0.1057  0.0865  0.2682
 1639SOL    HW2 6602   3.626   0.441   2.657  0.1783 -0.1599 -0.0692
 1639SOL    HW3 6603   3.477   0.428   2.680  0.1337  0.7412  0.1658
 1639SOL    MW4 6604   3.549   0.404   2.638 -0.0370  0.1403  0.2100
 1640SOL     OW 6605   3.802   0.508   2.748  0.1084 -0.3207 -0.0805
 1640SOL    HW2 6606   3.797   0.494   2.843  1.5367  0.2117  0.0740
 1640SOL    HW3 6607   3.891   0.485   2.725  0.5182  1.9535 -0.8986
 1640SOL    MW4 6608   3.813   0.503   2.758  0.3512  0.0496 -0.1681
 1641SOL     OW 6609   3.784   0.762   2.636 -0.3220 -0.0376 -0.1419
 1641SOL    HW2 6610   3.711   0.802   2.684 -0.8159 -1.9525  0.7811
 1641SOL    HW3 6611   3.796   0.677   2.678  0.2602 -1.1352 -2.4197
 1641SOL    MW4 6612   3.776   0.756   2.648 -0.3104 -0.4351 -0.3207
 1642SOL     OW 6613   3.614   0.911   2.813 -0.5167 -0.4483 -0.2950
 1642SOL    HW2 6614   3.610   0.921   2.908 -1.2180  0.3798 -0.3993
 1642SOL    HW3 6615   3.603   1.000   2.780 -0.3753 -0.7479 -1.1525
 1642SOL    MW4 6616   3.612   0.924   2.821 -0.5906 -0.3785 -0.4220
 1643SOL     OW 6617   3.593   1.151   2.674  0.3025 -0.7782  0.1234
 1643SOL    HW2 6618   3.664   1.204   2.710 -0.1046  1.4925 -2.2531
 1643SOL    HW3 6619   3.513   1.194   2.705 -0.0268 -0.5361 -1.0245
 1643SOL    MW4 6620   3.592   1.164   2.683  0.2053 -0.4467 -0.3417
 1644SOL     OW 6621   3.817   1.277   2.751  0.4809  0.6310 -0.1451
 1644SOL    HW2 6622   3.888   1.229   2.708 -0.0465 -0.2062 -0.1015
 1644SOL    HW3 6623   3.821   1.365   2.714 -0.7128 -0.3698 -2.8654
 1644SOL    MW4 6624   3.827   1.282   2.740  0.2542  0.3884 -0.4983
 1645SOL     OW 6625   3.834   1.540   2.666  0.0745 -0.1012 -0.2658
 1645SOL    HW2 6626   3.912   1.590   2.692  0.8984 -0.6343 -1.6393
 1645SOL    HW3 6627   3.762   1.581   2.712  1.2080  0.2972  1.1664
 1645SOL    MW4 6628   3.835   1.552   2.675  0.3326 -0.1191 -0.2582
 1646SOL     OW 6629   3.605   1.676   2.756 -0.0474  0.1259  0.0293
 1646SOL    HW2 6630   3.609   1.764   2.718  0.1326  0.8004  1.5784
 1646SOL    HW3 6631   3.523   1.640   2.722  0.7624  0.1858 -2.0712
 1646SOL    MW4 6632   3.595   1.683   2.747  0.0830  0.2227 -0.0434
 1647SOL     OW 6633   3.578   1.929   2.661  0.1333 -0.6830 -0.3196
 1647SOL    HW2 6634   3.502   1.969   2.702  1.6000  1.0181  0.8546
 1647SOL    HW3 6635   3.566   1.945   2.567 -0.7105  0.0238 -0.0971
 1647SOL    MW4 6636   3.567   1.936   2.654  0.2153 -0.3653 -0.1357
 1648SOL     OW 6637   3.792   2.078   2.765 -0.3141 -0.2434 -0.4266
 1648SOL    HW2 6638   3.862   2.025   2.727 -0.4935 -2.0419  1.6398
 1648SOL    HW3 6639   3.711   2.039   2.730 -0.4114 -0.8388  0.4301
 1648SOL    MW4 6640   3.790   2.066   2.755 -0.3507 -0.5596 -0.0410
 1649SOL     OW 6641   3.818   2.343   2.642 -0.4981  0.4788 -0.0072
 1649SOL    HW2 6642   3.802   2.253   2.671  0.5796 -0.3615 -1.9225
 1649SOL    HW3 6643   3.851   2.334   2.553  0.1272  2.7573 -0.0438
 1649SOL    MW4 6644   3.820   2.330   2.634 -0.2735  0.6685 -0.2646
 1650SOL     OW 6645   3.574   2.463   2.715  0.2370  0.4554 -0.0921
 1650SOL    HW2 6646   3.561   2.472   2.809  0.4778  2.8514 -0.2630
 1650SOL    HW3 6647   3.656   2.415   2.707  0.2052  0.2225  0.9130
 1650SOL    MW4 6648   3.583   2.458   2.726  0.2644  0.7408  0.0176
 1651SOL     OW 6649   3.589   2.707   2.609  0.4210 -0.1537  0.2800
 1651SOL    HW2 6650   3.585   2.618   2.642 -0.5686 -0.8490 -1.6785
 1651SOL    HW3 6651   3.597   2.698   2.514  0.5590  1.8374  0.0744
 1651SOL    MW4 6652   3.590   2.694   2.601  0.3085  0.0172 -0.0055
 1652SOL     OW 6653   3.809   2.830   2.730 -0.5620 -0.2940 -0.3337
 1652SOL    HW2 6654   3.895   2.791   2.712  0.4223  0.6883  2.1081
 1652SOL    HW3 6655   3.748   2.774   2.682  1.4064 -1.0046 -2.1406
 1652SOL    MW4 6656   3.812   2.817   2.721 -0.1724 -0.2582 -0.2499
 1653SOL     OW 6657   3.793   3.093   2.655  0.0006  0.1241  0.0507
 1653SOL    HW2 6658   3.722   3.133   2.705  0.1380 -1.0883  1.2577
 1653SOL    HW3 6659   3.789   3.000   2.678  0.5867 -0.3181 -1.5937
 1653SOL    MW4 6660   3.783   3.086   2.665  0.0961 -0.0944 -0.0069
 1654SOL     OW 6661   3.569   3.222   2.792 -0.4695  0.1867 -0.1627
 1654SOL    HW2 6662   3.573   3.307   2.749  0.4347 -0.1595 -0.7595
 1654SOL    HW3 6663   3.498   3.175   2.748 -1.3057  0.8086  0.5025
 1654SOL    MW4 6664   3.560   3.227   2.781 -0.4606  0.2232 -0.1538
 1655SOL     OW 6665   3.574   3.469   2.659 -0.3661 -0.1919  0.2746
 1655SOL    HW2 6666   3.652   3.513   2.690 -0.0015  0.4152 -1.4338
 1655SOL    HW3 6667   3.501   3.521   2.692  0.0332  1.0164 -0.7002
 1655SOL    MW4 6668   3.574   3.481   2.667 -0.2654  0.0479 -0.0794
 1656SOL     OW 6669   3.795   3.598   2.754 -0.3206  0.0605 -0.4057
 1656SOL    HW2 6670   3.881   3.568   2.725 -0.1727 -1.4491  1.4961
 1656SOL    HW3 6671   3.792   3.690   2.729  0.9175 -0.4599 -2.5640
 1656SOL    MW4 6672   3.806   3.606   2.747 -0.1378 -0.2074 -0.4396
 1657SOL     OW 6673   3.804   3.874   2.674 -0.0822  0.0431  0.0193
 1657SOL    HW2 6674   3.884   3.916   2.708 -0.1592 -0.3926  0.7452
 1657SOL    HW3 6675   3.733   3.927   2.709 -0.1387 -0.0356  0.0234
 1657SOL    MW4 6676   3.805   3.887   2.683 -0.0999 -0.0246  0.1154
 1658SOL     OW 6677   3.608   4.045   2.755  0.1887  0.3362  0.4681
 1658SOL    HW2 6678   3.600   4.130   2.712  0.6150  0.7952  1.2769
 1658SOL    HW3 6679   3.530   3.997   2.728  0.0897  0.8794 -0.2267
 1658SOL    MW4 6680   3.597   4.050   2.746  0.2317  0.4687  0.4828
 1659SOL     OW 6681   3.573   4.280   2.629  0.4558  0.1898 -0.5010
 1659SOL    HW2 6682   3.491   4.326   2.642  1.2493  1.5066 -0.0420
 1659SOL    HW3 6683   3.579   4.266   2.534  0.7863  2.1579 -0.7878
 1659SOL    MW4 6684   3.563   4.284   2.618  0.6042  0.6223 -0.4783
 1660SOL     OW 6685   3.799   4.417   2.753  0.0805 -0.0729 -0.3843
 1660SOL    HW2 6686   3.887   4.385   2.733  0.0461  0.1291 -0.8493
 1660SOL    HW3 6687   3.740   4.359   2.704 -0.0232  0.1306 -0.5008
 1660SOL    MW4 6688   3.803   4.405   2.744  0.0622 -0.0196 -0.4609
 1661SOL     OW 6689   4.274   4.609   2.664  0.1199 -0.0439 -0.5138
 1661SOL    HW2 6690   4.199   4.659   2.693 -0.2133 -0.1304 -1.2191
 1661SOL    HW3 6691   4.350   4.654   2.703 -0.3548 -0.5785  1.0699
 1661SOL    MW4 6692   4.274   4.621   2.673  0.0129 -0.1254 -0.3979
 1662SOL     OW 6693   4.044   0.091   2.744 -0.2529 -0.0152 -0.4495
 1662SOL    HW2 6694   4.041   0.091   2.840  0.1615 -1.8926 -0.4196
 1662SOL    HW3 6695   3.955   0.069   2.717 -0.4198  0.7152 -0.5088
 1662SOL    MW4 6696   4.032   0.088   2.753 -0.2203 -0.1665 -0.4532
 1663SOL     OW 6697   4.055   0.380   2.669 -0.1173 -0.2112  0.1926
 1663SOL    HW2 6698   4.046   0.291   2.704  0.6851 -0.5104 -0.3724
 1663SOL    HW3 6699   4.049   0.370   2.574 -0.8286  0.4347  0.1664
 1663SOL    MW4 6700   4.053   0.367   2.661 -0.1049 -0.1654  0.1147
 1664SOL     OW 6701   4.268   0.492   2.798 -0.1295  0.3762 -0.2464
 1664SOL    HW2 6702   4.189   0.446   2.768 -0.7060 -0.7571  2.8301
 1664SOL    HW3 6703   4.340   0.444   2.759 -0.8828  0.0271 -1.2348
 1664SOL    MW4 6704   4.267   0.480   2.789 -0.3052  0.1807  0.0288
 1665SOL     OW 6705   4.256   0.757   2.684 -0.3985 -0.0315  0.6773
 1665SOL    HW2 6706   4.266   0.673   2.729  1.4058  0.3714  1.0636
 1665SOL    HW3 6707   4.253   0.735   2.591 -1.1359 -0.6190  0.8408
 1665SOL    MW4 6708   4.257   0.743   2.678 -0.2580 -0.0559  0.7501
 1666SOL     OW 6709   4.009   0.886   2.752  0.2816  0.1699 -0.2632
 1666SOL    HW2 6710   4.095   0.850   2.728  0.2994 -1.2257  1.7813
 1666SOL    HW3 6711   3.946   0.828   2.710  0.3215  0.9741 -1.4538
 1666SOL    MW4 6712   4.012   0.874   2.743  0.2894  0.0919 -0.1504
 1667SOL     OW 6713   4.042   1.153   2.664  0.0888  0.5458 -0.8833
 1667SOL    HW2 6714   4.128   1.175   2.700  0.1786 -0.9692 -0.1249
 1667SOL    HW3 6715   4.022   1.066   2.701 -1.1289  0.2622 -2.1734
 1667SOL    MW4 6716   4.051   1.144   2.674 -0.0601  0.3085 -0.9534
 1668SOL     OW 6717   4.270   1.257   2.798  0.2528  0.1292  0.3800
 1668SOL    HW2 6718   4.254   1.339   2.751 -0.9758  0.2321  0.9666
 1668SOL    HW3 6719   4.333   1.211   2.743  0.4883  1.1949 -0.2741
 1668SOL    MW4 6720   4.276   1.262   2.784  0.1216  0.2832  0.3707
 1669SOL     OW 6721   4.290   1.513   2.665 -0.0212 -0.0342 -0.5273
 1669SOL    HW2 6722   4.381   1.529   2.689 -0.2081  0.8653 -0.4302
 1669SOL    HW3 6723   4.287   1.528   2.570 -0.1955  0.5049 -0.4364
 1669SOL    MW4 6724   4.302   1.517   2.655 -0.0696  0.1554 -0.5023
 1670SOL     OW 6725   4.055   1.687   2.768 -0.3553  0.3796 -0.2043
 1670SOL    HW2 6726   4.084   1.688   2.859 -1.1124  1.1402  0.0308
 1670SOL    HW3 6727   4.127   1.645   2.721  1.2544  2.4450  0.3460
 1670SOL    MW4 6728   4.069   1.681   2.774 -0.2432  0.7524 -0.1004
 1671SOL     OW 6729   4.008   1.937   2.653 -0.2184  0.0488 -0.0601
 1671SOL    HW2 6730   4.077   1.992   2.690 -0.6871 -0.7899  2.1971
 1671SOL    HW3 6731   4.014   1.855   2.702 -1.9687 -0.5090 -0.7286
 1671SOL    MW4 6732   4.018   1.933   2.665 -0.5112 -0.1354  0.1495
 1672SOL     OW 6733   4.248   2.105   2.781  0.1706 -0.4026 -0.3018
 1672SOL    HW2 6734   4.276   2.190   2.748 -0.4286  0.1934  0.6918
 1672SOL    HW3 6735   4.311   2.043   2.744  0.4963  0.4449 -1.1886
 1672SOL    MW4 6736   4.260   2.108   2.772  0.1345 -0.2122 -0.2878
 1673SOL     OW 6737   4.278   2.360   2.651  0.1683 -0.0721 -0.1239
 1673SOL    HW2 6738   4.195   2.401   2.673 -0.0643 -0.5613 -0.0907
 1673SOL    HW3 6739   4.270   2.337   2.558 -0.4979 -1.9110  0.3607
 1673SOL    MW4 6740   4.266   2.362   2.641  0.0501 -0.3791 -0.0553
 1674SOL     OW 6741   4.042   2.479   2.724 -0.0950  0.1658  0.0021
 1674SOL    HW2 6742   4.035   2.484   2.820  0.1843 -0.2739  0.0452
 1674SOL    HW3 6743   3.971   2.419   2.698 -0.1093  0.2090 -0.0594
 1674SOL    MW4 6744   4.032   2.472   2.733 -0.0601  0.1135 -0.0002
 1675SOL     OW 6745   4.088   2.744   2.648 -0.0447  0.1411 -0.0466
 1675SOL    HW2 6746   4.167   2.778   2.691  0.2036  0.1058 -0.4821
 1675SOL    HW3 6747   4.080   2.654   2.680  0.8516 -0.3005 -1.0673
 1675SOL    MW4 6748   4.097   2.737   2.658  0.1059  0.0782 -0.2389
 1676SOL     OW 6749   4.328   2.852   2.762  0.1914 -0.1917 -0.5194
 1676SOL    HW2 6750   4.315   2.864   2.856  0.5206 -0.4741 -0.4362
 1676SOL    HW3 6751   4.308   2.938   2.724 -1.1476 -0.4051 -0.3243
 1676SOL    MW4 6752   4.324   2.865   2.770  0.0582 -0.2570 -0.4828
 1677SOL     OW 6753   4.274   3.102   2.658  0.0233 -0.0900  0.1038
 1677SOL    HW2 6754   4.196   3.154   2.678 -0.3161 -0.7865  0.5944
 1677SOL    HW3 6755   4.265   3.080   2.565 -0.8637 -1.0235  0.4169
 1677SOL    MW4 6756   4.263   3.106   2.648 -0.1388 -0.3052  0.2100
 1678SOL     OW 6757   4.033   3.235   2.689  0.0562  0.2695  0.0562
 1678SOL    HW2 6758   4.016   3.329   2.693 -0.4899  0.1476  0.6823
 1678SOL    HW3 6759   3.949   3.197   2.664 -0.0516 -0.1577  1.0508
 1678SOL    MW4 6760   4.020   3.242   2.686 -0.0296  0.1969  0.2701
 1679SOL     OW 6761   4.033   3.499   2.681 -0.3357 -0.1272 -0.5077
 1679SOL    HW2 6762   4.120   3.534   2.700 -0.1849 -0.2219 -1.0161
 1679SOL    HW3 6763   4.036   3.477   2.588 -1.1810  0.6493 -0.7197
 1679SOL    MW4 6764   4.045   3.501   2.671 -0.4268 -0.0370 -0.6025
 1680SOL     OW 6765   4.288   3.628   2.720  0.4800 -0.0257  0.1072
 1680SOL    HW2 6766   4.289   3.612   2.814  0.7529  0.2576  0.1530
 1680SOL    HW3 6767   4.358   3.572   2.685  1.0530  0.6266  0.1978
 1680SOL    MW4 6768   4.297   3.619   2.728  0.5918  0.0978  0.1252
 1681SOL     OW 6769   4.256   3.911   2.654  0.9384 -0.1423 -0.3092
 1681SOL    HW2 6770   4.285   3.822   2.674  0.3886 -0.3295 -0.3448
 1681SOL    HW3 6771   4.324   3.967   2.691  1.7072 -0.6006 -1.0067
 1681SOL    MW4 6772   4.269   3.907   2.662  0.9675 -0.2272 -0.4058
 1682SOL     OW 6773   4.028   4.002   2.784 -0.2857 -0.3034  0.1359
 1682SOL    HW2 6774   4.025   4.001   2.880  2.0351  0.3965  0.2652
 1682SOL    HW3 6775   4.111   3.959   2.763  0.4814  1.8834 -1.4553
 1682SOL    MW4 6776   4.039   3.996   2.794  0.1216  0.0772 -0.0572
 1683SOL     OW 6777   4.020   4.269   2.684  0.5619 -0.2216 -0.1356
 1683SOL    HW2 6778   4.014   4.177   2.711 -2.3126  0.0275  0.2662
 1683SOL    HW3 6779   4.020   4.265   2.588 -0.5411 -0.6237 -0.1311
 1683SOL    MW4 6780   4.019   4.256   2.675  0.0377 -0.2418 -0.0823
 1684SOL     OW 6781   4.268   4.349   2.782 -0.1876 -0.2388  0.4517
 1684SOL    HW2 6782   4.186   4.303   2.765 -0.0913 -0.1735 -0.1723
 1684SOL    HW3 6783   4.259   4.433   2.739  0.5842 -0.5978 -0.4269
 1684SOL    MW4 6784   4.256   4.354   2.774 -0.0730 -0.2775  0.2537
 1685SOL     OW 6785   0.205   4.618   3.081 -0.3332 -0.0159  0.2495
 1685SOL    HW2 6786   0.224   4.650   3.169 -1.0319  0.7983  0.1159
 1685SOL    HW3 6787   0.122   4.660   3.058  0.2146  0.3623 -1.0785
 1685SOL    MW4 6788   0.196   4.628   3.090 -0.3531  0.1421  0.0567
 1686SOL     OW 6789   4.453   0.092   3.054 -0.4232  0.0110  0.3452
 1686SOL    HW2 6790   4.375   0.063   3.102 -0.0245  1.5785  1.9857
 1686SOL    HW3 6791   4.462   0.184   3.077 -0.1223  0.7839 -2.6512
 1686SOL    MW4 6792   4.444   0.100   3.063 -0.3309  0.3198  0.1664
 1687SOL     OW 6793   4.484   0.378   3.133 -0.1073  0.5201 -0.1364
 1687SOL    HW2 6794   4.499   0.376   3.227  0.2738  1.1192 -0.1798
 1687SOL    HW3 6795   4.400   0.425   3.124 -1.2459 -1.4286  0.0152
 1687SOL    MW4 6796   4.475   0.384   3.144 -0.2074  0.3420 -0.1221
 1688SOL     OW 6797   0.197   0.540   3.004  0.3976 -0.0606  0.2004
 1688SOL    HW2 6798   0.257   0.474   3.039 -1.1846 -1.1103  1.0456
 1688SOL    HW3 6799   0.112   0.515   3.040 -0.7792  0.6090 -2.0129
 1688SOL    MW4 6800   0.193   0.528   3.013  0.0336 -0.1107  0.0200
 1689SOL     OW 6801   0.232   0.786   3.112  0.0549  0.5255  0.4729
 1689SOL    HW2 6802   0.237   0.785   3.208  0.7975 -0.0637  0.4325
 1689SOL    HW3 6803   0.218   0.695   3.088 -1.4658  0.8433  0.0741
 1689SOL    MW4 6804   0.231   0.774   3.122 -0.0477  0.4898  0.4148
 1690SOL     OW 6805   0.007   0.942   3.049 -0.0485  0.1582 -0.5660
 1690SOL    HW2 6806   0.083   0.889   3.070 -1.2593 -1.2951  0.2271
 1690SOL    HW3 6807  -0.007   0.929   2.956  0.7732  0.5773 -0.7523
 1690SOL    MW4 6808   0.015   0.933   3.040 -0.1001  0.0218 -0.4861
 1691SOL     OW 6809   0.045   1.210   3.170 -0.1278  0.2984 -0.3935
 1691SOL    HW2 6810  -0.036   1.256   3.146 -0.7397 -0.2361  0.5804
 1691SOL    HW3 6811   0.030   1.120   3.139 -0.1120  0.0804  0.2354
 1691SOL    MW4 6812   0.032   1.204   3.162 -0.2065  0.1990 -0.1822
 1692SOL     OW 6813   0.266   1.242   3.008  1.0900 -0.0639  0.0588
 1692SOL    HW2 6814   0.185   1.229   3.058  0.7635 -3.0742 -1.1353
 1692SOL    HW3 6815   0.237   1.245   2.917  2.1259  0.9089 -0.2454
 1692SOL    MW4 6816   0.251   1.240   3.002  1.1836 -0.3327 -0.1388
 1693SOL     OW 6817   0.246   1.499   3.159  0.3193  0.1242  0.1173
 1693SOL    HW2 6818   0.175   1.547   3.115  1.2283  0.7416 -0.6753
 1693SOL    HW3 6819   0.264   1.424   3.102  0.1577 -0.1639  0.4378
 1693SOL    MW4 6820   0.239   1.495   3.146  0.4179  0.1676  0.0553
 1694SOL     OW 6821   0.027   1.649   3.075 -0.1346  0.4264 -0.3893
 1694SOL    HW2 6822  -0.049   1.613   3.120  0.0318 -0.1789 -0.5851
 1694SOL    HW3 6823   0.034   1.739   3.108 -0.2226  0.1031  0.5328
 1694SOL    MW4 6824   0.018   1.656   3.085 -0.1243  0.3040 -0.2933
 1695SOL     OW 6825   0.035   1.906   3.152  0.2669  0.1205  0.3600
 1695SOL    HW2 6826  -0.046   1.942   3.118  0.5902 -1.1508 -1.8054
 1695SOL    HW3 6827   0.102   1.971   3.129  0.1724  0.2416  0.4274
 1695SOL    MW4 6828   0.033   1.920   3.145  0.2970 -0.0314  0.0832
 1696SOL     OW 6829   0.247   2.042   3.035 -0.3903  0.6191 -0.0391
 1696SOL    HW2 6830   0.245   2.131   3.070  0.8674  0.6060  0.1032
 1696SOL    HW3 6831   0.211   2.050   2.947 -1.3627  1.0711  0.3992
 1696SOL    MW4 6832   0.242   2.055   3.028 -0.3526  0.6771  0.0377
 1697SOL     OW 6833   0.228   2.310   3.119 -0.1260  0.2118 -0.0972
 1697SOL    HW2 6834   0.245   2.300   3.212  0.7790 -2.6400 -0.5021
 1697SOL    HW3 6835   0.295   2.372   3.089  0.7632 -0.2898  0.8175
 1697SOL    MW4 6836   0.239   2.317   3.127  0.1107 -0.2308 -0.0300
 1698SOL     OW 6837   4.477   2.415   3.065 -0.2771 -0.5790  0.1111
 1698SOL    HW2 6838   4.497   2.502   3.102  0.0973 -0.1687 -1.0551
 1698SOL    HW3 6839   4.554   2.362   3.085  0.6496  0.1187 -1.5834
 1698SOL    MW4 6840   4.490   2.420   3.073 -0.1054 -0.4327 -0.2663
 1699SOL     OW 6841   0.007   2.675   3.192  0.3107 -0.6932 -0.1200
 1699SOL    HW2 6842   0.015   2.678   3.288 -1.1418 -0.0722 -0.0086
 1699SOL    HW3 6843   0.079   2.730   3.161  0.2297 -0.1458  0.6435
 1699SOL    MW4 6844   0.017   2.683   3.201  0.1084 -0.5391 -0.0048
 1700SOL     OW 6845   0.212   2.847   3.054  0.5713  0.2666  0.2532
 1700SOL    HW2 6846   0.289   2.796   3.078  0.1567 -0.2156  0.5769
 1700SOL    HW3 6847   0.221   2.863   2.960  0.4701 -0.8017  0.0621
 1700SOL    MW4 6848   0.223   2.843   3.045  0.5033  0.0622  0.2708
 1701SOL     OW 6849   0.213   3.086   3.182 -0.3229 -0.2802  0.1651
 1701SOL    HW2 6850   0.137   3.127   3.140 -0.8050 -0.4096  0.9108
 1701SOL    HW3 6851   0.215   2.997   3.148 -0.0193 -0.0329 -0.4817
 1701SOL    MW4 6852   0.203   3.080   3.172 -0.3465 -0.2649  0.1781
 1702SOL     OW 6853   4.477   3.216   3.075  0.2650  0.5822  0.2157
 1702SOL    HW2 6854   4.400   3.165   3.100 -1.0018  1.5475 -1.6127
 1702SOL    HW3 6855   4.470   3.225   2.980  1.7242  2.1416  0.2318
 1702SOL    MW4 6856   4.466   3.210   3.065  0.2904  0.9153 -0.0234
 1703SOL     OW 6857   4.458   3.475   3.166  0.4880 -0.2519 -0.2465
 1703SOL    HW2 6858   4.402   3.520   3.102  1.6074  1.8828  0.2304
 1703SOL    HW3 6859   4.470   3.387   3.130  0.8821  0.8203 -2.8498
 1703SOL    MW4 6860   4.452   3.469   3.153  0.6876  0.1709 -0.5269
 1704SOL     OW 6861   0.201   3.599   3.053  0.0016  0.1910 -0.2420
 1704SOL    HW2 6862   0.212   3.689   3.082  0.2913  0.7188 -1.9504
 1704SOL    HW3 6863   0.124   3.568   3.101  0.0218  1.2684  0.5010
 1704SOL    MW4 6864   0.192   3.607   3.063  0.0424  0.4025 -0.3693
 1705SOL     OW 6865   0.233   3.891   3.145 -0.4651  0.3709  0.1121
 1705SOL    HW2 6866   0.239   3.877   3.239 -0.2837 -3.3814 -0.3788
 1705SOL    HW3 6867   0.314   3.936   3.122  0.7071 -1.0083  1.4179
 1705SOL    MW4 6868   0.244   3.895   3.154 -0.2865 -0.3061  0.2196
 1706SOL     OW 6869   0.007   3.995   3.025 -0.0434 -0.2430 -0.4180
 1706SOL    HW2 6870   0.096   3.970   3.053 -0.1723 -0.6483 -0.3690
 1706SOL    HW3 6871   0.013   4.004   2.930 -0.0002 -0.4742 -0.4369
 1706SOL    MW4 6872   0.020   3.993   3.017 -0.0547 -0.3271 -0.4141
 1707SOL     OW 6873   4.445   4.241   3.166  0.2925  0.0374  0.1704
 1707SOL    HW2 6874   4.436   4.235   3.261 -0.5160 -1.2000  0.0306
 1707SOL    HW3 6875   4.438   4.151   3.136 -0.3817  0.5146 -1.1387
 1707SOL    MW4 6876   4.443   4.228   3.175  0.0968 -0.0625 -0.0210
 1708SOL     OW 6877   0.204   4.340   3.102  0.1139  0.1283  0.1705
 1708SOL    HW2 6878   0.121   4.294   3.113 -0.3506  0.9683  0.2140
 1708SOL    HW3 6879   0.185   4.430   3.128  1.1041  0.2632  0.4328
 1708SOL    MW4 6880   0.191   4.346   3.107  0.1832  0.2570  0.2108
 1709SOL     OW 6881   0.671   0.029   3.122  0.0712  0.1446 -0.3901
 1709SOL    HW2 6882   0.670  -0.067   3.121  0.0714  0.1325  0.4477
 1709SOL    HW3 6883   0.581   0.055   3.104 -0.1482 -0.0317  0.4142
 1709SOL    MW4 6884   0.659   0.020   3.120  0.0423  0.1197 -0.1733
 1710SOL     OW 6885   0.421   0.093   2.996 -0.1449 -0.3186  0.0822
 1710SOL    HW2 6886   0.399   0.176   3.037 -0.2595  0.7123 -2.0101
 1710SOL    HW3 6887   0.344   0.037   3.011 -0.7366  0.4873  0.0591
 1710SOL    MW4 6888   0.408   0.097   3.003 -0.2381 -0.0763 -0.1967
 1711SOL     OW 6889   0.385   0.356   3.099 -0.9032  0.1924  0.2388
 1711SOL    HW2 6890   0.422   0.364   3.187 -1.3508  0.6820  0.3840
 1711SOL    HW3 6891   0.457   0.380   3.041 -0.8762  0.7792  0.5061
 1711SOL    MW4 6892   0.400   0.360   3.103 -0.9587  0.3344  0.2933
 1712SOL     OW 6893   0.647   0.463   2.979 -0.1685 -0.0685  0.2036
 1712SOL    HW2 6894   0.715   0.409   3.019  0.4057  0.4233 -0.1095
 1712SOL    HW3 6895   0.658   0.549   3.020 -0.4293  0.0857 -0.0530
 1712SOL    MW4 6896   0.658   0.467   2.990 -0.1271  0.0167  0.1285
 1713SOL     OW 6897   0.675   0.732   3.091 -0.1775 -0.6610  0.1550
 1713SOL    HW2 6898   0.663   0.733   3.186  1.0588  0.6601  0.3141
 1713SOL    HW3 6899   0.599   0.780   3.057  0.7721  1.3012  0.6826
 1713SOL    MW4 6900   0.663   0.739   3.099  0.1109 -0.2279  0.2456
 1714SOL     OW 6901   0.472   0.870   2.981  0.6740  0.3949  0.0856
 1714SOL    HW2 6902   0.389   0.841   3.019 -0.1305  0.5961 -1.4889
 1714SOL    HW3 6903   0.457   0.871   2.887  2.8737 -0.7726 -0.3052
 1714SOL    MW4 6904   0.459   0.867   2.974  0.8581  0.2674 -0.1740
 1715SOL     OW 6905   0.493   1.121   3.097 -0.2153  0.2798 -0.0396
 1715SOL    HW2 6906   0.486   1.031   3.066 -0.9868 -0.1830  1.4052
 1715SOL    HW3 6907   0.412   1.162   3.068  0.0920  0.4719 -0.6140
 1715SOL    MW4 6908   0.481   1.115   3.089 -0.2765  0.2441  0.0753
 1716SOL     OW 6909   0.720   1.272   3.073 -0.5026 -0.2484  0.1432
 1716SOL    HW2 6910   0.795   1.218   3.099 -0.6845 -0.2770  0.6229
 1716SOL    HW3 6911   0.644   1.216   3.088 -0.6440 -0.0940  0.0002
 1716SOL    MW4 6912   0.720   1.257   3.078 -0.5453 -0.2317  0.1876
 1717SOL     OW 6913   0.708   1.531   3.164  0.5032  0.2186 -0.5994
 1717SOL    HW2 6914   0.701   1.519   3.259 -0.9718  0.5953 -0.6507
 1717SOL    HW3 6915   0.727   1.444   3.130 -1.2959 -0.3493 -0.1632
 1717SOL    MW4 6916   0.710   1.518   3.172  0.0712  0.1935 -0.5486
 1718SOL     OW 6917   0.469   1.646   3.080 -0.1738 -0.6848 -0.3393
 1718SOL    HW2 6918   0.547   1.601   3.112  0.3412  0.0239 -0.5879
 1718SOL    HW3 6919   0.396   1.591   3.108  0.2638 -0.1559  1.9430
 1718SOL    MW4 6920   0.469   1.633   3.088 -0.0481 -0.5217 -0.0710
 1719SOL     OW 6921   0.465   1.920   3.127 -0.0281  0.5955  0.3347
 1719SOL    HW2 6922   0.450   1.828   3.103  0.5035  0.6715 -0.2748
 1719SOL    HW3 6923   0.382   1.963   3.105  0.0153  0.4250 -0.1665
 1719SOL    MW4 6924   0.452   1.913   3.121  0.0478  0.5831  0.1881
 1720SOL     OW 6925   0.659   2.070   3.005  0.5145 -0.0051 -0.2293
 1720SOL    HW2 6926   0.733   2.020   3.037  0.1505  0.6708  1.7753
 1720SOL    HW3 6927   0.582   2.018   3.028  0.2924  0.0185 -0.9070
 1720SOL    MW4 6928   0.658   2.057   3.012  0.4371  0.0873 -0.0544
 1721SOL     OW 6929   0.627   2.322   3.129 -0.6892 -1.0838 -0.1284
 1721SOL    HW2 6930   0.643   2.323   3.224 -0.4263 -0.2592 -0.1709
 1721SOL    HW3 6931   0.647   2.233   3.102 -0.2271 -1.1808  0.5137
 1721SOL    MW4 6932   0.632   2.311   3.138 -0.5935 -0.9880 -0.0491
 1722SOL     OW 6933   0.440   2.471   2.994 -0.2081 -0.4794  0.4427
 1722SOL    HW2 6934   0.509   2.413   3.025 -0.9093 -1.3185  0.4570
 1722SOL    HW3 6935   0.442   2.462   2.899 -1.1047 -1.4557  0.5080
 1722SOL    MW4 6936   0.449   2.462   2.985 -0.4189 -0.7188  0.4532
 1723SOL     OW 6937   0.462   2.712   3.119 -0.0525  0.0314  0.1320
 1723SOL    HW2 6938   0.542   2.758   3.092 -1.3015  1.4164 -1.3630
 1723SOL    HW3 6939   0.465   2.629   3.073  0.4399  0.1608 -0.0733
 1723SOL    MW4 6940   0.473   2.707   3.109 -0.1523  0.2313 -0.0923
 1724SOL     OW 6941   0.681   2.862   3.045  0.0083  0.6532 -0.1133
 1724SOL    HW2 6942   0.770   2.833   3.065 -0.0933  0.6388  0.3179
 1724SOL    HW3 6943   0.673   2.947   3.088 -0.6399  0.0442  1.0062
 1724SOL    MW4 6944   0.692   2.869   3.053 -0.0907  0.5710  0.0913
 1725SOL     OW 6945   0.684   3.114   3.133  0.2037  0.0619  0.1114
 1725SOL    HW2 6946   0.678   3.120   3.228 -0.2147 -1.1024  0.1627
 1725SOL    HW3 6947   0.603   3.153   3.101  0.3382  0.4397  0.2283
 1725SOL    MW4 6948   0.672   3.120   3.141  0.1663 -0.0420  0.1335
 1726SOL     OW 6949   0.438   3.215   3.053  0.3060 -0.3283  0.2130
 1726SOL    HW2 6950   0.433   3.307   3.075  0.2821 -0.1517 -0.5151
 1726SOL    HW3 6951   0.358   3.177   3.090  0.0668  0.0355  0.0718
 1726SOL    MW4 6952   0.427   3.222   3.061  0.2713 -0.2573  0.0985
 1727SOL     OW 6953   0.461   3.492   3.125 -0.3207  0.0569  0.1652
 1727SOL    HW2 6954   0.454   3.502   3.220  1.1465 -0.0072  0.2825
 1727SOL    HW3 6955   0.379   3.529   3.092 -0.3569  1.1025  1.3817
 1727SOL    MW4 6956   0.449   3.498   3.133 -0.1319  0.1864  0.3412
 1728SOL     OW 6957   0.699   3.581   3.013 -0.4237 -0.2526  0.2192
 1728SOL    HW2 6958   0.759   3.526   3.063 -0.4847 -0.7310 -0.2305
 1728SOL    HW3 6959   0.613   3.567   3.053 -0.2092  0.5677  0.9747
 1728SOL    MW4 6960   0.695   3.572   3.025 -0.4034 -0.2074  0.2594
 1729SOL     OW 6961   0.693   3.849   3.115  0.4024  0.1811  0.0896
 1729SOL    HW2 6962   0.698   3.840   3.210 -1.0405 -1.2546  0.0570
 1729SOL    HW3 6963   0.697   3.759   3.082 -1.7293  0.4435 -1.0273
 1729SOL    MW4 6964   0.694   3.836   3.123 -0.0693  0.0265 -0.0622
 1730SOL     OW 6965   0.454   4.011   3.034  0.5801 -0.0162  0.5903
 1730SOL    HW2 6966   0.525   3.962   3.075  0.6201 -0.8903 -0.5074
 1730SOL    HW3 6967   0.461   3.991   2.941 -0.0646  1.2338  0.2609
 1730SOL    MW4 6968   0.464   4.002   3.027  0.5003  0.0334  0.4017
 1731SOL     OW 6969   0.457   4.260   3.157  0.2029 -0.0381  0.4012
 1731SOL    HW2 6970   0.449   4.177   3.110  2.4647  0.3978 -0.8496
 1731SOL    HW3 6971   0.375   4.306   3.139 -0.3418 -1.2888 -0.3398
 1731SOL    MW4 6972   0.445   4.255   3.148  0.4294 -0.1454  0.1385
 1732SOL     OW 6973   0.679   4.423   3.059  0.2466 -0.0558 -0.4383
 1732SOL    HW2 6974   0.605   4.368   3.083 -0.2588  0.1606 -1.4835
 1732SOL    HW3 6975   0.680   4.423   2.964 -0.1668  2.2665 -0.4773
 1732SOL    MW4 6976   0.669   4.416   3.050  0.1253  0.2794 -0.5813
 1733SOL     OW 6977   1.156   4.660   3.133  0.2833 -0.0827  0.3371
 1733SOL    HW2 6978   1.229   4.694   3.081 -0.5883  0.0099 -0.8387
 1733SOL    HW3 6979   1.079   4.705   3.099 -0.4772 -0.9775  0.8415
 1733SOL    MW4 6980   1.155   4.671   3.122  0.0681 -0.1879  0.2482
 1734SOL     OW 6981   0.903   0.080   2.998 -0.0744 -0.0857 -0.1754
 1734SOL    HW2 6982   0.893   0.175   3.003 -0.5153 -0.1357 -0.0561
 1734SOL    HW3 6983   0.826   0.046   3.043  0.7669 -0.4871  0.9919
 1734SOL    MW4 6984   0.892   0.088   3.005 -0.0216 -0.1453 -0.0057
 1735SOL     OW 6985   0.874   0.337   3.090 -0.0647  0.2359  0.0650
 1735SOL    HW2 6986   0.875   0.327   3.186  1.7370 -5.1022 -0.3192
 1735SOL    HW3 6987   0.962   0.368   3.069 -0.3975  1.2199  0.1195
 1735SOL    MW4 6988   0.886   0.340   3.100  0.1292 -0.3386  0.0215
 1736SOL     OW 6989   1.107   0.458   2.991  0.5349 -0.5464 -0.1417
 1736SOL    HW2 6990   1.181   0.421   3.039 -0.1970 -1.6611  0.1437
 1736SOL    HW3 6991   1.125   0.436   2.900  2.5185  2.5740 -0.6062
 1736SOL    MW4 6992   1.119   0.450   2.985  0.7000 -0.2818 -0.1652
 1737SOL     OW 6993   1.125   0.687   3.149 -0.3371 -0.3450 -0.2291
 1737SOL    HW2 6994   1.098   0.684   3.241 -0.0645 -2.1056 -0.1911
 1737SOL    HW3 6995   1.095   0.603   3.113 -1.4090  0.7812 -2.0171
 1737SOL    MW4 6996   1.117   0.675   3.157 -0.4426 -0.4287 -0.4599
 1738SOL     OW 6997   0.923   0.854   3.033  0.0070  0.2672  0.2142
 1738SOL    HW2 6998   0.986   0.790   3.065  0.5963  0.4446 -0.5833
 1738SOL    HW3 6999   0.846   0.843   3.090  1.0248  0.5760  1.6723
 1738SOL    MW4 7000   0.921   0.844   3.045  0.2190  0.3313  0.3014
 1739SOL     OW 7001   0.951   1.132   3.113  0.4269  0.1108  0.4328
 1739SOL    HW2 7002   1.030   1.184   3.097 -0.1660  0.3896 -1.7790
 1739SOL    HW3 7003   0.970   1.048   3.071 -0.5300  0.2566 -0.3040
 1739SOL    MW4 7004   0.964   1.128   3.105  0.2223  0.1668  0.0439
 1740SOL     OW 7005   1.176   1.278   3.055 -0.0475 -0.0587  0.1790
 1740SOL    HW2 7006   1.249   1.216   3.067 -1.0451 -1.1120  0.9056
 1740SOL    HW3 7007   1.158   1.277   2.961 -0.0510 -0.8750  0.1848
 1740SOL    MW4 7008   1.183   1.270   3.044 -0.1795 -0.3054  0.2756
 1741SOL     OW 7009   1.144   1.536   3.129  0.0218  0.2583  0.6592
 1741SOL    HW2 7010   1.223   1.586   3.108 -0.3879  0.6075 -0.0764
 1741SOL    HW3 7011   1.167   1.445   3.110  0.0025  0.4516 -0.3101
 1741SOL    MW4 7012   1.157   1.530   3.123 -0.0348  0.3297  0.4342
 1742SOL     OW 7013   0.920   1.678   3.044  0.2867 -0.1879  0.1287
 1742SOL    HW2 7014   0.993   1.621   3.069 -1.4237 -1.9791  1.0926
 1742SOL    HW3 7015   0.843   1.637   3.081 -1.2077  1.8866 -0.5814
 1742SOL    MW4 7016   0.920   1.665   3.052 -0.1361 -0.1506  0.1624
 1743SOL     OW 7017   0.878   1.945   3.096  0.3265 -0.0731 -0.6311
 1743SOL    HW2 7018   0.867   1.953   3.191 -0.7448 -1.0097 -0.6755
 1743SOL    HW3 7019   0.902   1.853   3.082  2.9187  0.6150 -1.0542
 1743SOL    MW4 7020   0.880   1.934   3.107  0.5271 -0.1061 -0.6928
 1744SOL     OW 7021   1.111   2.086   3.017  0.1540 -0.4005 -0.0615
 1744SOL    HW2 7022   1.032   2.039   3.042 -0.4195  1.2069  1.2185
 1744SOL    HW3 7023   1.109   2.089   2.921 -1.8830  0.5663 -0.0000
 1744SOL    MW4 7024   1.101   2.080   3.007 -0.1904 -0.0606  0.1156
 1745SOL     OW 7025   1.129   2.345   3.110 -0.3662  0.0914 -0.2497
 1745SOL    HW2 7026   1.060   2.399   3.071 -1.4575 -0.3001  1.1154
 1745SOL    HW3 7027   1.110   2.256   3.080 -1.8746 -0.3992  2.0008
 1745SOL    MW4 7028   1.117   2.340   3.101 -0.7093 -0.0248  0.2275
 1746SOL     OW 7029   0.896   2.459   3.046  0.2087 -0.1952  0.3264
 1746SOL    HW2 7030   0.812   2.424   3.076  0.4145 -0.5032  0.5484
 1746SOL    HW3 7031   0.886   2.466   2.951  0.5794 -2.0004  0.1449
 1746SOL    MW4 7032   0.884   2.455   3.037  0.2848 -0.4737  0.3316
 1747SOL     OW 7033   0.939   2.739   3.123 -0.2170  0.0302 -0.2637
 1747SOL    HW2 7034   0.936   2.743   3.219  0.6952 -1.2247 -0.1729
 1747SOL    HW3 7035   0.924   2.647   3.103  0.0433  0.2170 -1.3088
 1747SOL    MW4 7036   0.937   2.727   3.133 -0.0623 -0.1106 -0.3898
 1748SOL     OW 7037   1.145   2.844   2.984 -0.2971  0.6390  0.4692
 1748SOL    HW2 7038   1.159   2.933   3.014  0.6311  0.2521  1.2380
 1748SOL    HW3 7039   1.067   2.815   3.031 -1.0459  1.2972 -0.3628
 1748SOL    MW4 7040   1.136   2.852   2.994 -0.2736  0.6747  0.4609
 1749SOL     OW 7041   1.156   3.092   3.089  0.7734  0.0537  0.0938
 1749SOL    HW2 7042   1.234   3.145   3.070  0.4810  0.7152  0.6880
 1749SOL    HW3 7043   1.083   3.151   3.070  0.4096 -0.6151 -0.6022
 1749SOL    MW4 7044   1.157   3.107   3.084  0.6869  0.0527  0.0803
 1750SOL     OW 7045   0.923   3.249   3.039  0.1629  0.3793 -0.3162
 1750SOL    HW2 7046   0.842   3.207   3.068  0.6524 -0.2600  0.1460
 1750SOL    HW3 7047   0.923   3.237   2.944 -0.6150  0.9842 -0.3980
 1750SOL    MW4 7048   0.912   3.242   3.031  0.1248  0.3748 -0.2663
 1751SOL     OW 7049   0.890   3.479   3.177 -0.6675  0.1732  0.6356
 1751SOL    HW2 7050   0.964   3.526   3.140 -1.1464  0.9330  0.6440
 1751SOL    HW3 7051   0.910   3.386   3.162 -0.4740  0.4459 -0.8021
 1751SOL    MW4 7052   0.902   3.473   3.170 -0.7051  0.3097  0.4473
 1752SOL     OW 7053   1.112   3.627   3.046  0.1665  0.1003  0.0034
 1752SOL    HW2 7054   1.181   3.563   3.064 -0.4914 -0.5437  0.2448
 1752SOL    HW3 7055   1.136   3.704   3.098  1.5293  0.4506 -1.1031
 1752SOL    MW4 7056   1.124   3.629   3.055  0.2595  0.0615 -0.1111
 1753SOL     OW 7057   1.143   3.909   3.128  0.9244 -0.0604 -0.0831
 1753SOL    HW2 7058   1.124   3.886   3.219  0.3178  0.5489 -0.0490
 1753SOL    HW3 7059   1.057   3.925   3.089  1.3011  1.6474 -0.2319
 1753SOL    MW4 7060   1.129   3.908   3.134  0.8942  0.2451 -0.0985
 1754SOL     OW 7061   0.897   3.991   3.030 -0.5390  0.1979 -0.0967
 1754SOL    HW2 7062   0.819   3.941   3.054 -0.3593 -0.0333  0.0107
 1754SOL    HW3 7063   0.914   3.967   2.939 -0.1731 -0.3097  0.1019
 1754SOL    MW4 7064   0.889   3.981   3.021 -0.4669  0.1004 -0.0563
 1755SOL     OW 7065   0.919   4.255   3.116  0.0543  0.5098  0.4865
 1755SOL    HW2 7066   0.909   4.163   3.091  0.6167 -0.1037  2.4524
 1755SOL    HW3 7067   0.839   4.297   3.085 -0.7633 -0.8790  0.6913
 1755SOL    MW4 7068   0.907   4.249   3.108  0.0207  0.2456  0.7727
 1756SOL     OW 7069   1.129   4.405   3.001  0.5501 -0.2344 -0.4074
 1756SOL    HW2 7070   1.060   4.356   3.047 -0.2158  0.0462 -1.2341
 1756SOL    HW3 7071   1.138   4.486   3.051  0.4266 -0.3619 -0.1741
 1756SOL    MW4 7072   1.121   4.409   3.014  0.4327 -0.2136 -0.4859
 1757SOL     OW 7073   1.556   4.602   3.122  0.5812 -0.9134  0.2268
 1757SOL    HW2 7074   1.543   4.609   3.217  1.2357 -0.9420  0.3232
 1757SOL    HW3 7075   1.490   4.660   3.085 -0.9251 -2.3675  0.6205
 1757SOL    MW4 7076   1.546   4.611   3.130  0.4689 -1.1086  0.2916
 1758SOL     OW 7077   1.360   0.077   2.976  0.6784  0.1234  0.3168
 1758SOL    HW2 7078   1.356   0.169   3.001 -1.0278  0.7140 -1.8750
 1758SOL    HW3 7079   1.381   0.079   2.882  2.8626 -1.8053  0.7286
 1758SOL    MW4 7080   1.362   0.090   2.967  0.7415 -0.0531  0.0820
 1759SOL     OW 7081   1.331   0.327   3.098  0.3768 -0.1851 -0.2381
 1759SOL    HW2 7082   1.347   0.326   3.192  0.3188  0.0323 -0.2261
 1759SOL    HW3 7083   1.389   0.395   3.064 -1.6324  1.7605  0.0154
 1759SOL    MW4 7084   1.340   0.336   3.106  0.1040  0.1003 -0.2031
 1760SOL     OW 7085   1.548   0.484   3.027 -0.0845 -0.2864  0.0095
 1760SOL    HW2 7086   1.559   0.573   3.060 -2.4208 -0.3905  1.2113
 1760SOL    HW3 7087   1.566   0.490   2.933  1.2417  1.1354  0.3450
 1760SOL    MW4 7088   1.551   0.496   3.019 -0.2179 -0.1125  0.2124
 1761SOL     OW 7089   1.590   0.747   3.122 -0.6300 -0.0634 -0.6201
 1761SOL    HW2 7090   1.575   0.731   3.215 -0.4291  0.3293 -0.5214
 1761SOL    HW3 7091   1.504   0.766   3.086 -0.9134 -1.5315 -0.7739
 1761SOL    MW4 7092   1.577   0.747   3.129 -0.6409 -0.2054 -0.6273
 1762SOL     OW 7093   1.331   0.815   3.032 -0.3444  0.9025 -0.4695
 1762SOL    HW2 7094   1.314   0.895   3.082  0.6856  0.5915  0.4268
 1762SOL    HW3 7095   1.265   0.753   3.063  1.8815 -0.1169  2.5290
 1762SOL    MW4 7096   1.320   0.817   3.043  0.0851  0.7269  0.0443
 1763SOL     OW 7097   1.386   1.082   3.114  0.1226  0.6488 -0.1617
 1763SOL    HW2 7098   1.391   1.100   3.208  0.0301 -0.1805  0.0008
 1763SOL    HW3 7099   1.449   1.144   3.075 -0.4272  1.5501  0.3601
 1763SOL    MW4 7100   1.395   1.093   3.121  0.0377  0.6583 -0.0715
 1764SOL     OW 7101   1.584   1.268   3.011 -0.6280 -0.0263 -0.3468
 1764SOL    HW2 7102   1.656   1.224   3.058 -1.0187 -0.9868 -0.6311
 1764SOL    HW3 7103   1.582   1.356   3.049 -1.1502 -0.8744  1.7043
 1764SOL    MW4 7104   1.594   1.274   3.023 -0.7484 -0.2650 -0.1137
 1765SOL     OW 7105   1.552   1.528   3.117 -0.1091  0.1943 -0.1417
 1765SOL    HW2 7106   1.630   1.582   3.109 -0.1640  0.2691 -0.1713
 1765SOL    HW3 7107   1.480   1.584   3.088 -0.2808  0.3929  0.6589
 1765SOL    MW4 7108   1.553   1.542   3.112 -0.1389  0.2304 -0.0398
 1766SOL     OW 7109   1.344   1.697   3.035  0.5868  0.2839  0.2891
 1766SOL    HW2 7110   1.357   1.791   3.048  1.2831  0.2474 -0.0793
 1766SOL    HW3 7111   1.333   1.688   2.940 -0.2342  0.0770  0.4013
 1766SOL    MW4 7112   1.344   1.708   3.024  0.5702  0.2518  0.2553
 1767SOL     OW 7113   1.371   1.968   3.071 -0.0116 -0.4497  0.4682
 1767SOL    HW2 7114   1.376   1.971   3.167 -0.0015 -0.9781  0.4893
 1767SOL    HW3 7115   1.285   2.004   3.050 -0.1523 -0.6473  0.6962
 1767SOL    MW4 7116   1.361   1.973   3.081 -0.0290 -0.5455  0.5009
 1768SOL     OW 7117   1.604   2.070   2.951 -0.0119 -0.4363  0.2452
 1768SOL    HW2 7118   1.516   2.047   2.982 -0.5812  0.7237 -0.4643
 1768SOL    HW3 7119   1.601   2.054   2.856  0.4733 -0.2015  0.1888
 1768SOL    MW4 7120   1.592   2.065   2.942 -0.0230 -0.2525  0.1445
 1769SOL     OW 7121   1.653   2.289   3.106 -0.1081 -0.2271 -0.2945
 1769SOL    HW2 7122   1.572   2.338   3.091 -0.7332 -0.6708  1.5044
 1769SOL    HW3 7123   1.653   2.222   3.037 -1.0761  0.0105 -0.5402
 1769SOL    MW4 7124   1.642   2.286   3.095 -0.3185 -0.2546 -0.0896
 1770SOL     OW 7125   1.403   2.416   3.031 -0.3272  0.1478  0.4696
 1770SOL    HW2 7126   1.315   2.386   3.054 -0.1948 -0.9540 -0.4233
 1770SOL    HW3 7127   1.401   2.425   2.935  0.4584  0.3578  0.4719
 1770SOL    MW4 7128   1.391   2.413   3.021 -0.2062  0.0300  0.3524
 1771SOL     OW 7129   1.367   2.692   3.097 -0.8441 -0.2772 -0.7535
 1771SOL    HW2 7130   1.370   2.597   3.084  0.0492  0.0392 -3.2009
 1771SOL    HW3 7131   1.300   2.722   3.037 -0.4343  0.7511 -0.7046
 1771SOL    MW4 7132   1.359   2.683   3.087 -0.6722 -0.0999 -1.0698
 1772SOL     OW 7133   1.587   2.842   2.993  0.0805  0.3649 -0.5762
 1772SOL    HW2 7134   1.663   2.821   3.047  0.0337  0.6701 -0.3881
 1772SOL    HW3 7135   1.515   2.792   3.032  0.3499 -0.5305 -1.2289
 1772SOL    MW4 7136   1.587   2.833   3.005  0.1100  0.2868 -0.6375
 1773SOL     OW 7137   1.528   3.071   3.127 -0.3060 -0.1180  0.0334
 1773SOL    HW2 7138   1.531   3.061   3.222 -0.4983 -0.9551 -0.0456
 1773SOL    HW3 7139   1.563   2.989   3.093 -1.2402 -0.2496 -0.6299
 1773SOL    MW4 7140   1.533   3.059   3.135 -0.4547 -0.2458 -0.0646
 1774SOL     OW 7141   1.362   3.251   2.999 -0.2356  0.4637 -0.0361
 1774SOL    HW2 7142   1.432   3.195   3.032 -1.0719 -0.8757 -0.4853
 1774SOL    HW3 7143   1.356   3.231   2.906 -1.9292 -0.2521  0.2039
 1774SOL    MW4 7144   1.370   3.241   2.991 -0.5696  0.1924 -0.0637
 1775SOL     OW 7145   1.349   3.482   3.132  0.2673  0.2044  0.6239
 1775SOL    HW2 7146   1.354   3.462   3.225 -3.0983 -0.3186  0.7634
 1775SOL    HW3 7147   1.354   3.397   3.088  2.8351  0.5252  0.2308
 1775SOL    MW4 7148   1.350   3.468   3.139  0.1621  0.1781  0.5906
 1776SOL     OW 7149   1.580   3.606   3.047  0.0649  0.2274  0.3501
 1776SOL    HW2 7150   1.504   3.563   3.085  0.3623 -0.3528  0.3071
 1776SOL    HW3 7151   1.566   3.600   2.952  0.0655  0.3018  0.3455
 1776SOL    MW4 7152   1.569   3.599   3.039  0.1043  0.1607  0.3438
 1777SOL     OW 7153   1.563   3.873   3.164  0.0269 -0.5337  0.4658
 1777SOL    HW2 7154   1.642   3.918   3.133 -0.8257  0.2097 -0.6852
 1777SOL    HW3 7155   1.563   3.790   3.117 -0.5680  0.0328 -0.5499
 1777SOL    MW4 7156   1.574   3.868   3.154 -0.1642 -0.3610  0.1800
 1778SOL     OW 7157   1.371   4.002   3.019 -0.5297 -0.0533  0.2893
 1778SOL    HW2 7158   1.444   3.962   3.068 -1.6980  0.0802  2.1815
 1778SOL    HW3 7159   1.293   3.977   3.068 -1.6482  0.9741 -0.9497
 1778SOL    MW4 7160   1.371   3.993   3.032 -0.8314  0.0999  0.3753
 1779SOL     OW 7161   1.339   4.271   3.129 -0.1017 -0.3897 -0.2325
 1779SOL    HW2 7162   1.340   4.193   3.075 -3.1448 -1.0645  0.5889
 1779SOL    HW3 7163   1.267   4.324   3.094  1.0697  1.4462  0.0531
 1779SOL    MW4 7164   1.330   4.268   3.118 -0.3486 -0.2365 -0.0863
 1780SOL     OW 7165   1.578   4.356   3.017  0.2666 -0.0402  0.0845
 1780SOL    HW2 7166   1.503   4.314   3.057  0.7414 -0.3129  0.6891
 1780SOL    HW3 7167   1.571   4.448   3.044  0.6728 -0.2530  0.9364
 1780SOL    MW4 7168   1.567   4.363   3.026  0.3830 -0.1049  0.2766
 1781SOL     OW 7169   2.019   4.628   3.114 -0.3606 -0.1600  0.0567
 1781SOL    HW2 7170   2.031   4.615   3.208 -0.4690  2.1020  0.3892
 1781SOL    HW3 7171   1.933   4.669   3.105 -0.3924 -0.4380 -1.0486
 1781SOL    MW4 7172   2.009   4.631   3.125 -0.3793  0.1020 -0.0451
 1782SOL     OW 7173   1.790   0.089   3.055  0.3609 -0.0728  0.1219
 1782SOL    HW2 7174   1.706   0.045   3.069  0.7638 -0.7256  0.5062
 1782SOL    HW3 7175   1.796   0.098   2.959 -0.1380 -0.0360  0.0931
 1782SOL    MW4 7176   1.780   0.084   3.044  0.3483 -0.1541  0.1688
 1783SOL     OW 7177   1.752   0.354   3.164  0.5949  0.2963  0.0317
 1783SOL    HW2 7178   1.753   0.265   3.129  0.7970  0.3555 -0.1148
 1783SOL    HW3 7179   1.672   0.393   3.129 -0.0256 -0.1599  0.9323
 1783SOL    MW4 7180   1.741   0.348   3.154  0.5398  0.2440  0.1314
 1784SOL     OW 7181   1.972   0.497   3.096 -0.5044 -0.0965 -0.0957
 1784SOL    HW2 7182   1.896   0.448   3.128 -0.0700  0.0602  1.1803
 1784SOL    HW3 7183   1.961   0.496   3.001 -1.4472 -1.1493 -0.0007
 1784SOL    MW4 7184   1.960   0.490   3.087 -0.5715 -0.2147  0.0854
 1785SOL     OW 7185   2.024   0.761   3.153  0.3981 -0.4623  0.1017
 1785SOL    HW2 7186   1.946   0.802   3.116  0.2001 -0.4654  0.5129
 1785SOL    HW3 7187   2.016   0.669   3.129  1.0173 -0.2113 -1.1197
 1785SOL    MW4 7188   2.013   0.754   3.145  0.4539 -0.4295 -0.0050
 1786SOL     OW 7189   1.817   0.890   3.041  0.3339  0.2387  0.2703
 1786SOL    HW2 7190   1.737   0.852   3.075 -1.0016  1.8516 -0.9805
 1786SOL    HW3 7191   1.806   0.889   2.946  1.5346  1.0198  0.1015
 1786SOL    MW4 7192   1.805   0.885   3.033  0.3161  0.5546  0.0827
 1787SOL     OW 7193   1.803   1.144   3.133  0.1658  0.1523  0.0707
 1787SOL    HW2 7194   1.797   1.143   3.229  1.9077  0.2162  0.2004
 1787SOL    HW3 7195   1.803   1.052   3.107  0.8805  0.1082  0.2229
 1787SOL    MW4 7196   1.802   1.132   3.142  0.4900  0.1551  0.1078
 1788SOL     OW 7197   2.035   1.263   2.998 -0.2883 -0.1106  0.2293
 1788SOL    HW2 7198   2.111   1.213   3.028  0.2048  0.7785  0.5005
 1788SOL    HW3 7199   1.961   1.227   3.047  0.2328  0.1332  1.2045
 1788SOL    MW4 7200   2.035   1.252   3.008 -0.1545  0.0389  0.3939
 1789SOL     OW 7201   2.007   1.534   3.105 -0.2884 -0.4239  0.0467
 1789SOL    HW2 7202   1.986   1.534   3.198 -1.3480 -1.7220 -0.1741
 1789SOL    HW3 7203   2.017   1.442   3.082 -0.4647 -0.1432 -1.2135
 1789SOL    MW4 7204   2.005   1.522   3.114 -0.4511 -0.5581 -0.1488
 1790SOL     OW 7205   1.760   1.653   2.995  0.1867 -0.2376 -0.5103
 1790SOL    HW2 7206   1.775   1.738   3.038  0.4126  0.2355 -1.5079
 1790SOL    HW3 7207   1.838   1.602   3.016  0.2469 -0.0495 -0.2652
 1790SOL    MW4 7208   1.772   1.658   3.003  0.2244 -0.1506 -0.6096
 1791SOL     OW 7209   1.785   1.900   3.072  0.2113 -0.0343 -0.0462
 1791SOL    HW2 7210   1.860   1.944   3.034 -0.3314  1.6517  0.7864
 1791SOL    HW3 7211   1.709   1.950   3.040 -0.3999 -0.2492  1.0441
 1791SOL    MW4 7212   1.785   1.912   3.063  0.0591  0.1597  0.2079
 1792SOL     OW 7213   2.040   2.005   3.019  0.2164 -0.2335 -0.0289
 1792SOL    HW2 7214   2.093   1.952   3.079 -0.2028 -0.0777  0.4882
 1792SOL    HW3 7215   2.043   2.093   3.056  1.3079  0.2022 -1.1598
 1792SOL    MW4 7216   2.047   2.010   3.032  0.3052 -0.1554 -0.1097
 1793SOL     OW 7217   2.052   2.297   3.052 -0.0794 -0.0814  0.2035
 1793SOL    HW2 7218   2.131   2.340   3.021  0.0842 -0.6527 -0.1835
 1793SOL    HW3 7219   1.982   2.360   3.036  0.1608  0.0495 -0.3225
 1793SOL    MW4 7220   2.053   2.311   3.046 -0.0262 -0.1397  0.0832
 1794SOL     OW 7221   1.838   2.475   3.000 -0.6252  0.3442  0.2104
 1794SOL    HW2 7222   1.820   2.560   3.041  0.1304  0.3279  0.5789
 1794SOL    HW3 7223   1.783   2.414   3.049 -0.6383  0.5099  0.4056
 1794SOL    MW4 7224   1.828   2.478   3.012 -0.5273  0.3641  0.2851
 1795SOL     OW 7225   1.807   2.725   3.130 -0.0274  0.0573 -0.1623
 1795SOL    HW2 7226   1.822   2.722   3.225  1.4080 -1.9360 -0.4187
 1795SOL    HW3 7227   1.886   2.767   3.095 -0.4625  0.5928 -0.5134
 1795SOL    MW4 7228   1.820   2.730   3.138  0.1047 -0.1352 -0.2425
 1796SOL     OW 7229   2.040   2.857   3.022  0.4719 -0.1506  0.5840
 1796SOL    HW2 7230   2.024   2.947   3.052 -1.0877 -0.3863  0.5232
 1796SOL    HW3 7231   2.016   2.858   2.930  1.1499 -0.4672  0.4014
 1796SOL    MW4 7232   2.035   2.869   3.014  0.3555 -0.2236  0.5519
 1797SOL     OW 7233   2.040   3.119   3.102  0.4999 -0.0163 -0.0170
 1797SOL    HW2 7234   2.063   3.113   3.195  0.3594  0.6005  0.0586
 1797SOL    HW3 7235   1.948   3.143   3.101  0.2985 -0.7842 -0.3215
 1797SOL    MW4 7236   2.031   3.121   3.114  0.4547 -0.0362 -0.0472
 1798SOL     OW 7237   1.782   3.183   3.037 -0.1371  0.1857 -0.3094
 1798SOL    HW2 7238   1.697   3.141   3.051  1.3805 -2.8467  0.0977
 1798SOL    HW3 7239   1.796   3.178   2.943  0.8538 -1.8845 -0.0627
 1798SOL    MW4 7240   1.773   3.177   3.027  0.1938 -0.4876 -0.2232
 1799SOL     OW 7241   1.809   3.451   3.129  0.1323  0.2494 -0.6170
 1799SOL    HW2 7242   1.789   3.360   3.108 -1.0372  0.1649  0.8825
 1799SOL    HW3 7243   1.732   3.500   3.102 -0.0378  0.5544  0.4177
 1799SOL    MW4 7244   1.796   3.445   3.122 -0.0443  0.2785 -0.2828
 1800SOL     OW 7245   2.042   3.557   3.031  0.5793 -0.2950 -0.1542
 1800SOL    HW2 7246   2.031   3.652   3.039  1.0167 -0.3587  1.5826
 1800SOL    HW3 7247   1.967   3.521   3.077  0.5965 -0.7861 -0.5127
 1800SOL    MW4 7248   2.031   3.565   3.038  0.6392 -0.3684  0.0277
 1801SOL     OW 7249   2.025   3.830   3.093  0.0437 -0.3609 -0.2929
 1801SOL    HW2 7250   2.022   3.852   3.186  0.3915  2.0868 -0.8309
 1801SOL    HW3 7251   1.939   3.856   3.060  0.6392  0.6559 -1.0479
 1801SOL    MW4 7252   2.013   3.836   3.101  0.1683  0.0961 -0.4637
 1802SOL     OW 7253   1.787   3.986   3.043 -0.1665 -0.1366  0.0790
 1802SOL    HW2 7254   1.790   4.079   3.066  2.0573  0.0613 -0.8348
 1802SOL    HW3 7255   1.759   3.984   2.951 -1.0263 -0.4219  0.3453
 1802SOL    MW4 7256   1.784   3.998   3.034  0.0136 -0.1481 -0.0064
 1803SOL     OW 7257   1.795   4.245   3.136 -0.3002 -0.2604  0.0638
 1803SOL    HW2 7258   1.872   4.281   3.090  0.9060 -1.4171  1.1265
 1803SOL    HW3 7259   1.721   4.291   3.097  0.9578  1.1905 -0.7203
 1803SOL    MW4 7260   1.796   4.256   3.125  0.0249 -0.2217  0.1004
 1804SOL     OW 7261   2.003   4.361   2.992 -0.0533  0.2150  0.3361
 1804SOL    HW2 7262   2.016   4.451   3.022  1.8361  0.2120 -0.3652
 1804SOL    HW3 7263   2.003   4.368   2.896 -1.4790 -0.3449  0.2860
 1804SOL    MW4 7264   2.005   4.374   2.983  0.0076  0.1407  0.2370
 1805SOL     OW 7265   2.478   0.017   3.170  0.4382 -0.8254 -0.3180
 1805SOL    HW2 7266   2.467  -0.074   3.141  0.2664 -0.0742 -2.7534
 1805SOL    HW3 7267   2.399   0.061   3.139 -0.0806 -0.0853  1.9705
 1805SOL    MW4 7268   2.466   0.011   3.162  0.3471 -0.6286 -0.3374
 1806SOL     OW 7269   2.244   0.113   3.063  0.2658  0.3695  0.1308
 1806SOL    HW2 7270   2.215   0.199   3.094 -0.6040 -0.6248  2.1527
 1806SOL    HW3 7271   2.164   0.060   3.061  1.0929 -0.9240  0.6894
 1806SOL    MW4 7272   2.230   0.117   3.067  0.2604  0.0676  0.4714
 1807SOL     OW 7273   2.203   0.370   3.170  0.1842 -0.0068 -0.0447
 1807SOL    HW2 7274   2.210   0.367   3.265  0.0940  0.5657 -0.0148
 1807SOL    HW3 7275   2.113   0.399   3.154  0.1526 -0.2459 -0.3062
 1807SOL    MW4 7276   2.192   0.373   3.181  0.1683  0.0372 -0.0751
 1808SOL     OW 7277   2.440   0.465   3.063  0.1896  0.7271  0.4380
 1808SOL    HW2 7278   2.358   0.435   3.103  0.2705 -0.0853 -0.0114
 1808SOL    HW3 7279   2.425   0.460   2.969 -0.3229  3.5195  0.3063
 1808SOL    MW4 7280   2.427   0.461   3.056  0.1328  0.9884  0.3612
 1809SOL     OW 7281   2.450   0.716   3.176 -0.0007 -0.1612  0.0836
 1809SOL    HW2 7282   2.529   0.756   3.140  0.2066 -1.0380 -0.4654
 1809SOL    HW3 7283   2.455   0.625   3.146 -0.9020 -0.3675  0.5731
 1809SOL    MW4 7284   2.461   0.709   3.167 -0.0923 -0.3040  0.0761
 1810SOL     OW 7285   2.259   0.855   3.049  0.2663 -0.0124 -0.1827
 1810SOL    HW2 7286   2.327   0.809   3.098  0.4323  0.4289  0.0041
 1810SOL    HW3 7287   2.177   0.816   3.079  0.4112 -0.2671 -0.1124
 1810SOL    MW4 7288   2.257   0.844   3.059  0.3073  0.0122 -0.1490
 1811SOL     OW 7289   2.256   1.134   3.094 -0.0548 -0.3296  0.9577
 1811SOL    HW2 7290   2.219   1.133   3.182  0.5603 -0.0802  1.2259
 1811SOL    HW3 7291   2.268   1.042   3.072  0.3358 -0.3877  1.3792
 1811SOL    MW4 7292   2.253   1.122   3.103  0.0780 -0.3043  1.0488
 1812SOL     OW 7293   2.501   1.267   3.063 -0.1440 -0.2815 -0.1509
 1812SOL    HW2 7294   2.413   1.234   3.083 -1.0421  2.2107  0.2730
 1812SOL    HW3 7295   2.502   1.275   2.967 -0.9586  1.1179 -0.0604
 1812SOL    MW4 7296   2.489   1.264   3.053 -0.3700  0.2319 -0.0827
 1813SOL     OW 7297   2.474   1.549   3.141 -0.1308  0.3144  0.1148
 1813SOL    HW2 7298   2.387   1.586   3.127 -1.0240 -1.3437  1.1052
 1813SOL    HW3 7299   2.468   1.459   3.107  1.4789  0.4718 -0.6722
 1813SOL    MW4 7300   2.462   1.542   3.135 -0.0362  0.1163  0.1416
 1814SOL     OW 7301   2.244   1.663   3.040  0.5391 -0.0282 -0.1181
 1814SOL    HW2 7302   2.157   1.624   3.045  0.0997  0.8304 -0.9644
 1814SOL    HW3 7303   2.262   1.670   2.946  1.6263 -0.4409  0.0543
 1814SOL    MW4 7304   2.235   1.659   3.028  0.6244  0.0306 -0.2067
 1815SOL     OW 7305   2.285   1.912   3.183  0.0208 -0.0814 -0.0228
 1815SOL    HW2 7306   2.351   1.963   3.137 -0.1360 -0.1780 -0.3597
 1815SOL    HW3 7307   2.264   1.840   3.123 -0.7577  0.2309 -0.1396
 1815SOL    MW4 7308   2.291   1.909   3.169 -0.1028 -0.0529 -0.0825
 1816SOL     OW 7309   2.451   2.035   3.011 -0.2445 -0.0860  0.1770
 1816SOL    HW2 7310   2.526   1.983   3.039 -1.2110 -1.8761 -0.4093
 1816SOL    HW3 7311   2.458   2.039   2.915 -0.9765 -0.4223  0.1034
 1816SOL    MW4 7312   2.461   2.028   3.002 -0.4685 -0.3664  0.0901
 1817SOL     OW 7313   2.462   2.295   3.090  0.2236 -0.0460  0.2365
 1817SOL    HW2 7314   2.471   2.300   3.185  1.3847  1.1435  0.0689
 1817SOL    HW3 7315   2.446   2.202   3.072 -0.8762 -0.1426  1.6544
 1817SOL    MW4 7316   2.461   2.283   3.100  0.2317  0.0980  0.4015
 1818SOL     OW 7317   2.255   2.465   2.974 -0.0036  0.1046 -0.0391
 1818SOL    HW2 7318   2.241   2.546   3.022 -1.1143 -0.2701  0.2797
 1818SOL    HW3 7319   2.333   2.427   3.013  0.1780  0.7285  0.2051
 1818SOL    MW4 7320   2.263   2.470   2.985 -0.1264  0.1376  0.0350
 1819SOL     OW 7321   2.249   2.696   3.113 -0.2806 -0.2680  0.6462
 1819SOL    HW2 7322   2.335   2.731   3.090 -0.2894 -2.7481 -3.5051
 1819SOL    HW3 7323   2.188   2.761   3.080 -0.1213 -1.0233 -1.1611
 1819SOL    MW4 7324   2.252   2.709   3.106 -0.2608 -0.6948 -0.1397
 1820SOL     OW 7325   2.482   2.824   3.030 -0.0072  0.3810 -0.1193
 1820SOL    HW2 7326   2.478   2.916   3.054  0.9686  0.7729 -1.4106
 1820SOL    HW3 7327   2.479   2.824   2.934  0.1421 -0.9216 -0.1327
 1820SOL    MW4 7328   2.481   2.836   3.020  0.1411  0.2608 -0.2913
 1821SOL     OW 7329   2.520   3.090   3.100 -0.1967 -0.0163  0.1777
 1821SOL    HW2 7330   2.589   3.139   3.054 -0.9340  0.6828 -0.1931
 1821SOL    HW3 7331   2.440   3.140   3.083 -0.5675 -0.0256  1.7791
 1821SOL    MW4 7332   2.519   3.103   3.092 -0.3426  0.0746  0.3402
 1822SOL     OW 7333   2.280   3.205   3.008 -0.1804 -0.0627  0.9099
 1822SOL    HW2 7334   2.273   3.299   3.028 -0.3136  0.3544 -1.0431
 1822SOL    HW3 7335   2.192   3.171   3.026 -0.2251  0.2456  1.2942
 1822SOL    MW4 7336   2.267   3.213   3.013 -0.2038  0.0329  0.7029
 1823SOL     OW 7337   2.289   3.464   3.059  0.5469  0.0700 -0.3048
 1823SOL    HW2 7338   2.355   3.513   3.009  0.2686 -0.0582 -0.8056
 1823SOL    HW3 7339   2.207   3.509   3.040  0.5308  0.3997  0.5466
 1823SOL    MW4 7340   2.287   3.476   3.050  0.5078  0.0963 -0.2587
 1824SOL     OW 7341   2.502   3.625   2.969  0.0696  0.8987  0.2801
 1824SOL    HW2 7342   2.570   3.579   3.019 -1.1646  0.7271  1.8333
 1824SOL    HW3 7343   2.478   3.699   3.024 -1.6309  0.4489  0.1551
 1824SOL    MW4 7344   2.508   3.629   2.983 -0.3176  0.8168  0.4687
 1825SOL     OW 7345   2.479   3.859   3.106  0.1331 -0.3074 -0.3000
 1825SOL    HW2 7346   2.480   3.843   3.200 -0.5372 -0.5026 -0.3188
 1825SOL    HW3 7347   2.558   3.911   3.089 -0.7498  1.3995  0.6713
 1825SOL    MW4 7348   2.489   3.864   3.116 -0.0720 -0.1080 -0.1745
 1826SOL     OW 7349   2.263   3.974   3.009 -0.2302  0.0863  0.1400
 1826SOL    HW2 7350   2.337   3.921   3.039 -0.4433  0.5789  1.5412
 1826SOL    HW3 7351   2.185   3.925   3.035 -0.4262 -0.5320 -1.5185
 1826SOL    MW4 7352   2.263   3.961   3.016 -0.2840  0.0699  0.1061
 1827SOL     OW 7353   2.205   4.227   3.128  0.0268  0.1030  0.3458
 1827SOL    HW2 7354   2.224   4.137   3.102 -1.8951  0.0115 -0.8121
 1827SOL    HW3 7355   2.125   4.250   3.081  0.4704  2.4159  0.6423
 1827SOL    MW4 7356   2.197   4.218   3.119 -0.1683  0.3958  0.2325
 1828SOL     OW 7357   2.451   4.412   3.068 -0.2742  0.0107  0.2250
 1828SOL    HW2 7358   2.364   4.372   3.077 -0.5970  0.2703 -1.5639
 1828SOL    HW3 7359   2.469   4.409   2.975  0.7004  1.9800  0.3302
 1828SOL    MW4 7360   2.442   4.406   3.057 -0.1881  0.3047  0.0029
 1829SOL     OW 7361   2.899   4.661   3.175 -0.5428  0.0294 -0.2093
 1829SOL    HW2 7362   2.976   4.704   3.136  0.2442 -1.3585 -0.2386
 1829SOL    HW3 7363   2.900   4.573   3.138 -0.7889 -0.7612  1.6035
 1829SOL    MW4 7364   2.910   4.655   3.165 -0.4714 -0.2580  0.0260
 1830SOL     OW 7365   2.696   0.116   3.041 -0.1966 -0.6200  0.1884
 1830SOL    HW2 7366   2.772   0.075   3.082 -1.1524  0.0867  2.7886
 1830SOL    HW3 7367   2.621   0.082   3.090 -1.4164  0.0202 -1.2031
 1830SOL    MW4 7368   2.696   0.106   3.053 -0.4838 -0.4423  0.3481
 1831SOL     OW 7369   2.678   0.363   3.159  0.3104 -0.4804  0.0301
 1831SOL    HW2 7370   2.681   0.278   3.116  0.0746 -1.3453  1.6865
 1831SOL    HW3 7371   2.602   0.407   3.120  0.2517 -1.1442 -0.6147
 1831SOL    MW4 7372   2.668   0.358   3.148  0.2716 -0.6821  0.1636
 1832SOL     OW 7373   2.937   0.485   3.053  0.3361  0.2809  0.1544
 1832SOL    HW2 7374   2.859   0.443   3.088  0.0468  2.3098  2.0470
 1832SOL    HW3 7375   2.913   0.508   2.963 -0.7633 -0.2965  0.2919
 1832SOL    MW4 7376   2.924   0.483   3.046  0.1528  0.4724  0.4225
 1833SOL     OW 7377   2.923   0.748   3.156 -0.0273  0.0754  0.0152
 1833SOL    HW2 7378   2.908   0.749   3.250  1.4667  1.3255  0.2363
 1833SOL    HW3 7379   2.907   0.656   3.131  0.1044 -0.3778  1.5453
 1833SOL    MW4 7380   2.919   0.736   3.165  0.1874  0.1806  0.2463
 1834SOL     OW 7381   2.671   0.853   3.061  0.0010 -0.4663 -0.3602
 1834SOL    HW2 7382   2.673   0.942   3.095 -0.7290 -0.6552  0.1775
 1834SOL    HW3 7383   2.763   0.826   3.060  0.0792 -0.2911  1.0264
 1834SOL    MW4 7384   2.683   0.861   3.065 -0.0851 -0.4680 -0.1061
 1835SOL     OW 7385   2.716   1.123   3.170  0.1142 -0.1376 -0.1215
 1835SOL    HW2 7386   2.797   1.151   3.127  0.3129  1.3357  1.1484
 1835SOL    HW3 7387   2.649   1.182   3.136 -0.0296 -0.0099  0.3792
 1835SOL    MW4 7388   2.718   1.135   3.160  0.1214  0.0737  0.1121
 1836SOL     OW 7389   2.923   1.206   3.010  0.2958 -0.4083  0.0429
 1836SOL    HW2 7390   3.000   1.186   3.064 -0.6794  0.1680  1.6906
 1836SOL    HW3 7391   2.905   1.298   3.028 -1.6500 -0.9191  0.8039
 1836SOL    MW4 7392   2.931   1.216   3.020 -0.0899 -0.3996  0.3605
 1837SOL     OW 7393   2.912   1.493   3.066 -0.1415  0.5084  0.0330
 1837SOL    HW2 7394   2.898   1.510   3.159  1.3738 -2.5624  0.8982
 1837SOL    HW3 7395   2.988   1.546   3.043 -0.3813  1.0977  0.5697
 1837SOL    MW4 7396   2.920   1.502   3.075  0.0269  0.1808  0.2179
 1838SOL     OW 7397   2.696   1.631   2.990  0.3176  0.1727 -0.3851
 1838SOL    HW2 7398   2.757   1.560   3.009 -0.2376 -0.5679 -1.3340
 1838SOL    HW3 7399   2.613   1.603   3.030 -0.0085  0.0949 -1.1088
 1838SOL    MW4 7400   2.693   1.618   2.998  0.2012  0.0647 -0.6056
 1839SOL     OW 7401   2.667   1.886   3.103 -0.1760  0.1196 -0.1791
 1839SOL    HW2 7402   2.742   1.938   3.077 -0.4134  0.4319 -0.2340
 1839SOL    HW3 7403   2.693   1.795   3.086  0.5957  0.1451  0.8076
 1839SOL    MW4 7404   2.680   1.881   3.098 -0.1054  0.1642 -0.0563
 1840SOL     OW 7405   2.856   2.073   3.002 -0.0248 -0.0205 -0.5348
 1840SOL    HW2 7406   2.883   2.164   3.018 -1.7785  0.3878  0.1434
 1840SOL    HW3 7407   2.877   2.059   2.909  1.2103  0.7256 -0.3935
 1840SOL    MW4 7408   2.862   2.084   2.992 -0.0930  0.1318 -0.4268
 1841SOL     OW 7409   2.939   2.324   3.126 -0.0923 -0.3265  0.2426
 1841SOL    HW2 7410   3.017   2.368   3.093 -0.4398  0.3579  0.3173
 1841SOL    HW3 7411   2.866   2.378   3.094 -0.4194  0.8089  2.7588
 1841SOL    MW4 7412   2.940   2.337   3.117 -0.1812 -0.0863  0.5846
 1842SOL     OW 7413   2.714   2.431   3.016  0.6369 -0.5765 -0.3898
 1842SOL    HW2 7414   2.699   2.517   3.055 -2.0801 -0.2710 -2.0043
 1842SOL    HW3 7415   2.638   2.379   3.042 -0.1258 -1.0224 -3.3251
 1842SOL    MW4 7416   2.702   2.435   3.024  0.1776 -0.5951 -0.9902
 1843SOL     OW 7417   2.728   2.686   3.119 -0.0767  0.2656  0.0630
 1843SOL    HW2 7418   2.719   2.697   3.214  0.8405  1.2579  0.0384
 1843SOL    HW3 7419   2.655   2.736   3.083  0.3078  0.9305  0.2004
 1843SOL    MW4 7420   2.717   2.694   3.127  0.0951  0.4842  0.0782
 1844SOL     OW 7421   2.952   2.831   3.044  0.4018 -0.1055  0.2842
 1844SOL    HW2 7422   3.031   2.786   3.077  0.9424  1.6660  1.4455
 1844SOL    HW3 7423   2.881   2.769   3.061  1.2912 -1.0138  0.7976
 1844SOL    MW4 7424   2.953   2.817   3.051  0.5906  0.0083  0.5054
 1845SOL     OW 7425   2.978   3.081   3.157 -0.0676 -0.1343 -0.0788
 1845SOL    HW2 7426   2.905   3.128   3.116  0.5071  0.7140 -0.1491
 1845SOL    HW3 7427   2.960   2.989   3.139 -1.1035  0.0653 -0.1215
 1845SOL    MW4 7428   2.966   3.075   3.149 -0.1287  0.0041 -0.0939
 1846SOL     OW 7429   2.752   3.217   3.036  0.2040  0.1332  0.2194
 1846SOL    HW2 7430   2.730   3.308   3.059  1.4357  0.1073  1.5850
 1846SOL    HW3 7431   2.730   3.210   2.943 -0.4211  1.6696  0.2296
 1846SOL    MW4 7432   2.746   3.228   3.027  0.2840  0.3321  0.4010
 1847SOL     OW 7433   2.690   3.473   3.127  0.1420  1.0884  0.1045
 1847SOL    HW2 7434   2.689   3.486   3.222 -0.8855  2.1997 -0.0499
 1847SOL    HW3 7435   2.773   3.509   3.098  0.8089  0.0252  0.6772
 1847SOL    MW4 7436   2.700   3.479   3.135  0.0944  1.0948  0.1595
 1848SOL     OW 7437   2.936   3.588   3.028 -0.4220  0.0106  0.1051
 1848SOL    HW2 7438   3.026   3.556   3.034 -1.1299 -2.0688  0.0516
 1848SOL    HW3 7439   2.940   3.678   3.061  1.7830  0.1741 -0.5278
 1848SOL    MW4 7440   2.948   3.596   3.033 -0.2244 -0.2420  0.0145
 1849SOL     OW 7441   2.967   3.856   3.080  0.1304  0.0301 -0.3450
 1849SOL    HW2 7442   2.981   3.845   3.174 -0.5378 -1.0464 -0.3596
 1849SOL    HW3 7443   2.880   3.896   3.073  0.6004  1.0371 -0.4694
 1849SOL    MW4 7444   2.957   3.860   3.091  0.1042  0.0207 -0.3633
 1850SOL     OW 7445   2.717   3.982   3.056 -0.5577  0.0590  0.3958
 1850SOL    HW2 7446   2.704   4.074   3.080 -0.3107  0.4275 -0.8524
 1850SOL    HW3 7447   2.714   3.982   2.961 -0.5035 -1.2299  0.3907
 1850SOL    MW4 7448   2.715   3.994   3.047 -0.5178 -0.0625  0.2306
 1851SOL     OW 7449   2.679   4.242   3.131 -0.1313 -0.2127 -0.4055
 1851SOL    HW2 7450   2.702   4.242   3.224 -1.1309  0.0873 -0.1530
 1851SOL    HW3 7451   2.613   4.310   3.123 -1.1189 -1.2454 -1.0608
 1851SOL    MW4 7452   2.674   4.251   3.142 -0.3934 -0.3095 -0.4587
 1852SOL     OW 7453   2.872   4.423   3.035 -0.0878 -0.3336 -0.3372
 1852SOL    HW2 7454   2.960   4.389   3.053 -0.1735 -0.1007  0.5843
 1852SOL    HW3 7455   2.814   4.355   3.069 -0.2591  0.4833  1.0692
 1852SOL    MW4 7456   2.876   4.410   3.042 -0.1216 -0.1955 -0.0300
 1853SOL     OW 7457   3.314   4.643   3.088  0.2797  0.1383 -0.9046
 1853SOL    HW2 7458   3.390   4.690   3.052  0.8266  0.7297  0.9853
 1853SOL    HW3 7459   3.332   4.551   3.067  1.7520  0.2189 -0.0928
 1853SOL    MW4 7460   3.327   4.637   3.080  0.5462  0.2275 -0.5479
 1854SOL     OW 7461   3.102   0.121   3.041 -0.2007 -0.0360 -0.1321
 1854SOL    HW2 7462   3.119   0.202   3.089 -0.8423  0.3505 -0.5393
 1854SOL    HW3 7463   3.175   0.064   3.064  0.4004  0.7492 -0.0365
 1854SOL    MW4 7464   3.114   0.124   3.050 -0.2060  0.1186 -0.1731
 1855SOL     OW 7465   3.129   0.354   3.186 -0.4161  0.0106 -0.1110
 1855SOL    HW2 7466   3.203   0.381   3.132 -0.9912  0.6872 -0.5677
 1855SOL    HW3 7467   3.054   0.401   3.150 -1.2198 -1.2627 -0.1364
 1855SOL    MW4 7468   3.129   0.364   3.174 -0.5980 -0.0681 -0.1748
 1856SOL     OW 7469   3.347   0.480   3.047  0.0404 -0.2001 -0.6760
 1856SOL    HW2 7470   3.426   0.441   3.085 -0.3392 -0.8137 -0.5063
 1856SOL    HW3 7471   3.366   0.488   2.954  0.0117 -1.0973 -0.7706
 1856SOL    MW4 7472   3.360   0.476   3.040 -0.0131 -0.3994 -0.6664
 1857SOL     OW 7473   3.348   0.754   3.092 -0.1002 -0.1368  0.1289
 1857SOL    HW2 7474   3.343   0.745   3.187  0.3746 -1.1903  0.0605
 1857SOL    HW3 7475   3.348   0.664   3.059 -0.5859  0.2250 -0.8861
 1857SOL    MW4 7476   3.347   0.741   3.100 -0.1016 -0.2280 -0.0141
 1858SOL     OW 7477   3.128   0.893   3.037  0.2430  0.1937  0.5839
 1858SOL    HW2 7478   3.208   0.840   3.048 -0.3598 -0.7590  0.4588
 1858SOL    HW3 7479   3.058   0.838   3.073 -0.6900  0.0456 -1.3588
 1858SOL    MW4 7480   3.130   0.878   3.043  0.0403  0.0485  0.3111
 1859SOL     OW 7481   3.147   1.139   3.149 -0.4397 -0.0536  0.1606
 1859SOL    HW2 7482   3.222   1.172   3.100 -1.0692 -0.6782 -1.2448
 1859SOL    HW3 7483   3.132   1.052   3.114 -1.3227 -0.2485  1.0098
 1859SOL    MW4 7484   3.155   1.132   3.138 -0.6394 -0.1616  0.0873
 1860SOL     OW 7485   3.377   1.284   3.033 -0.1757 -0.0459 -0.0063
 1860SOL    HW2 7486   3.441   1.248   3.094  1.0785  1.6280 -0.3049
 1860SOL    HW3 7487   3.377   1.378   3.050 -1.9671  0.0849 -0.5845
 1860SOL    MW4 7488   3.386   1.292   3.043 -0.2468  0.1922 -0.1218
 1861SOL     OW 7489   3.353   1.568   3.113 -0.2294  0.5778  0.1191
 1861SOL    HW2 7490   3.353   1.564   3.208 -0.7272  1.3294  0.1566
 1861SOL    HW3 7491   3.442   1.597   3.091  1.1234 -3.3115  0.1492
 1861SOL    MW4 7492   3.365   1.572   3.122 -0.1166  0.1637  0.1280
 1862SOL     OW 7493   3.116   1.687   3.030  0.6345  0.1677  0.3552
 1862SOL    HW2 7494   3.186   1.642   3.078 -0.8008 -3.1753 -0.5312
 1862SOL    HW3 7495   3.130   1.662   2.939 -1.4943 -0.2643  0.1227
 1862SOL    MW4 7496   3.127   1.678   3.024  0.1643 -0.3303  0.2074
 1863SOL     OW 7497   3.120   1.951   3.078 -0.3610 -0.0609 -0.2939
 1863SOL    HW2 7498   3.106   1.858   3.059 -0.8425 -0.3466  1.3829
 1863SOL    HW3 7499   3.033   1.990   3.068 -0.5699 -0.1672  0.9442
 1863SOL    MW4 7500   3.106   1.944   3.074 -0.4523 -0.1125  0.0908
 1864SOL     OW 7501   3.363   2.096   3.055  0.0126 -0.3221 -0.4421
 1864SOL    HW2 7502   3.434   2.039   3.084  0.4362 -0.1440 -1.0946
 1864SOL    HW3 7503   3.283   2.050   3.079  0.3501 -0.8140 -0.2501
 1864SOL    MW4 7504   3.362   2.083   3.062  0.1130 -0.3636 -0.5028
 1865SOL     OW 7505   3.430   2.333   3.161 -0.0878 -0.5747  0.1106
 1865SOL    HW2 7506   3.405   2.322   3.253 -0.5958  0.1083  0.0528
 1865SOL    HW3 7507   3.403   2.251   3.120  0.9866 -1.2671  0.7483
 1865SOL    MW4 7508   3.424   2.320   3.168 -0.0131 -0.5758  0.1872
 1866SOL     OW 7509   3.185   2.422   3.052  0.1889  0.6663 -0.0357
 1866SOL    HW2 7510   3.265   2.384   3.090  0.8819  0.5907 -1.5475
 1866SOL    HW3 7511   3.193   2.407   2.958 -1.9076  0.1031 -0.1578
 1866SOL    MW4 7512   3.196   2.415   3.045  0.0041  0.5820 -0.2513
 1867SOL     OW 7513   3.170   2.674   3.137  0.4506 -0.0949 -0.3656
 1867SOL    HW2 7514   3.180   2.669   3.232  0.1303 -0.3822 -0.3456
 1867SOL    HW3 7515   3.175   2.584   3.107  0.9443  0.0304 -0.6665
 1867SOL    MW4 7516   3.172   2.662   3.145  0.4735 -0.1163 -0.4027
 1868SOL     OW 7517   3.386   2.810   3.025 -0.2503 -0.2119  0.0390
 1868SOL    HW2 7518   3.382   2.887   3.082  1.1503 -1.0628  1.3186
 1868SOL    HW3 7519   3.315   2.754   3.056 -1.8381  0.9008 -1.4595
 1868SOL    MW4 7520   3.376   2.813   3.037 -0.2751 -0.1774  0.0100
 1869SOL     OW 7521   3.399   3.048   3.183  0.3035 -0.2074  0.0799
 1869SOL    HW2 7522   3.412   3.062   3.277  2.6611  1.9263 -0.5283
 1869SOL    HW3 7523   3.333   3.113   3.159 -0.4350 -0.8760  0.2761
 1869SOL    MW4 7524   3.392   3.058   3.192  0.5169 -0.0138  0.0257
 1870SOL     OW 7525   3.218   3.221   3.072 -0.6102  0.4679 -0.5288
 1870SOL    HW2 7526   3.140   3.174   3.101  0.1807 -1.2017 -1.0275
 1870SOL    HW3 7527   3.209   3.227   2.977 -0.5702  1.1105 -0.4987
 1870SOL    MW4 7528   3.206   3.216   3.064 -0.5004  0.3324 -0.5906
 1871SOL     OW 7529   3.180   3.494   3.112  0.3464  0.1213  0.0660
 1871SOL    HW2 7530   3.255   3.536   3.072  0.7425  0.0500  0.7297
 1871SOL    HW3 7531   3.194   3.401   3.099  0.0868  0.1323 -0.3099
 1871SOL    MW4 7532   3.191   3.487   3.105  0.3645  0.1135  0.1042
 1872SOL     OW 7533   3.420   3.614   3.037  0.3978 -0.1843  0.6641
 1872SOL    HW2 7534   3.469   3.555   3.093  0.6824  0.8811  1.5584
 1872SOL    HW3 7535   3.419   3.697   3.085 -0.0852  0.5015 -0.5150
 1872SOL    MW4 7536   3.426   3.617   3.051  0.3717  0.0467  0.6268
 1873SOL     OW 7537   3.362   3.893   3.128  0.2529  0.2914 -0.2749
 1873SOL    HW2 7538   3.341   3.872   3.219  0.3154 -0.1585 -0.3624
 1873SOL    HW3 7539   3.288   3.946   3.098 -0.6911 -1.1442 -0.5338
 1873SOL    MW4 7540   3.350   3.897   3.136  0.1364  0.0427 -0.3207
 1874SOL     OW 7541   3.157   4.030   3.008  0.3458  0.1077 -0.1086
 1874SOL    HW2 7542   3.092   3.963   3.030 -0.6631  1.5871  1.5251
 1874SOL    HW3 7543   3.153   4.036   2.912 -1.8022  0.0406 -0.0508
 1874SOL    MW4 7544   3.148   4.022   2.998 -0.0708  0.2942  0.1144
 1875SOL     OW 7545   3.122   4.289   3.100  0.3804  0.5000  0.1333
 1875SOL    HW2 7546   3.127   4.277   3.195 -0.6432 -1.2661 -0.0301
 1875SOL    HW3 7547   3.135   4.202   3.063  1.6904  1.3041 -1.4050
 1875SOL    MW4 7548   3.125   4.276   3.108  0.4182  0.3729 -0.0916
 1876SOL     OW 7549   3.358   4.393   2.995  0.1815  0.3325  0.3548
 1876SOL    HW2 7550   3.430   4.360   3.050 -0.2041 -0.4269  0.4097
 1876SOL    HW3 7551   3.279   4.355   3.034 -0.1463  0.2628 -0.3763
 1876SOL    MW4 7552   3.357   4.383   3.007  0.0873  0.2227  0.2654
 1877SOL     OW 7553   3.811   0.012   3.112  0.4837  0.6082 -0.0350
 1877SOL    HW2 7554   3.812  -0.080   3.085  0.2577  0.4900  0.3649
 1877SOL    HW3 7555   3.723   0.042   3.089  0.5979  0.7588 -0.2774
 1877SOL    MW4 7556   3.800   0.004   3.105  0.4690  0.6124 -0.0143
 1878SOL     OW 7557   3.546   0.134   3.047 -0.0369 -0.3117  0.2000
 1878SOL    HW2 7558   3.553   0.224   3.078 -0.8176 -0.4860  0.8985
 1878SOL    HW3 7559   3.569   0.139   2.954 -2.4036  1.0087 -0.3744
 1878SOL    MW4 7560   3.550   0.147   3.039 -0.4520 -0.1605  0.2162
 1879SOL     OW 7561   3.584   0.377   3.155  0.0395 -0.8321  0.0491
 1879SOL    HW2 7562   3.596   0.377   3.250 -0.9816  1.1770  0.2059
 1879SOL    HW3 7563   3.671   0.400   3.121  0.1572 -0.5294  0.5430
 1879SOL    MW4 7564   3.597   0.380   3.163 -0.0796 -0.5271  0.1349
 1880SOL     OW 7565   3.814   0.475   3.033 -0.3552 -0.0225  0.3664
 1880SOL    HW2 7566   3.879   0.439   3.094 -0.9464  0.1564  1.1082
 1880SOL    HW3 7567   3.813   0.569   3.051  0.3750  0.2226 -0.7948
 1880SOL    MW4 7568   3.823   0.483   3.043 -0.3369  0.0334  0.3109
 1881SOL     OW 7569   3.823   0.744   3.111  0.4606 -0.0300  0.0280
 1881SOL    HW2 7570   3.823   0.753   3.207 -0.4610  0.4029 -0.0090
 1881SOL    HW3 7571   3.901   0.791   3.082  0.9463 -0.4757  0.5921
 1881SOL    MW4 7572   3.833   0.751   3.120  0.4032 -0.0317  0.0978
 1882SOL     OW 7573   3.592   0.902   3.105  0.0508 -0.0734  0.5896
 1882SOL    HW2 7574   3.670   0.847   3.098 -1.0782 -1.4286 -2.2200
 1882SOL    HW3 7575   3.519   0.841   3.102 -1.1873  1.4125 -0.3827
 1882SOL    MW4 7576   3.593   0.887   3.104 -0.2615 -0.0561  0.0908
 1883SOL     OW 7577   3.598   1.185   3.159 -0.2545 -0.4226  0.0208
 1883SOL    HW2 7578   3.659   1.231   3.101  1.3338 -0.3992  1.6589
 1883SOL    HW3 7579   3.612   1.092   3.140  0.2693 -0.4148  0.3436
 1883SOL    MW4 7580   3.608   1.179   3.149  0.0243 -0.4185  0.2797
 1884SOL     OW 7581   3.824   1.247   3.024  0.1860  0.5337 -0.0830
 1884SOL    HW2 7582   3.825   1.338   3.054 -2.3012  1.0398 -1.4342
 1884SOL    HW3 7583   3.852   1.251   2.933  0.9784 -0.1869  0.1185
 1884SOL    MW4 7584   3.828   1.260   3.016 -0.0372  0.5053 -0.2348
 1885SOL     OW 7585   3.823   1.528   3.112 -0.0938  0.0614 -0.1139
 1885SOL    HW2 7586   3.808   1.533   3.206 -0.0928 -0.7415 -0.0679
 1885SOL    HW3 7587   3.751   1.579   3.074 -0.5800 -0.3160  0.2856
 1885SOL    MW4 7588   3.811   1.536   3.119 -0.1578 -0.0943 -0.0553
 1886SOL     OW 7589   3.588   1.669   3.035 -0.1932  0.1417  0.3924
 1886SOL    HW2 7590   3.591   1.762   3.060  0.6855  0.4760 -0.8983
 1886SOL    HW3 7591   3.587   1.671   2.939 -0.3237 -1.1882  0.3638
 1886SOL    MW4 7592   3.588   1.682   3.026 -0.0947  0.0104  0.2186
 1887SOL     OW 7593   3.596   1.966   3.116 -0.7262  0.1650  0.1623
 1887SOL    HW2 7594   3.604   1.965   3.211 -1.2980 -0.5340  0.2100
 1887SOL    HW3 7595   3.686   1.978   3.085 -0.4181 -0.4652  0.7812
 1887SOL    MW4 7596   3.609   1.967   3.124 -0.7610 -0.0105  0.2506
 1888SOL     OW 7597   3.859   2.075   3.048 -0.3222 -0.0810 -0.1867
 1888SOL    HW2 7598   3.842   2.166   3.073  1.0936 -0.1690  1.1940
 1888SOL    HW3 7599   3.843   2.072   2.954 -1.4282  1.3448 -0.0625
 1888SOL    MW4 7600   3.855   2.086   3.039 -0.2813  0.0956  0.0122
 1889SOL     OW 7601   3.808   2.334   3.125 -0.0046 -0.3652  0.4887
 1889SOL    HW2 7602   3.795   2.358   3.217  0.4465 -0.7470  0.6539
 1889SOL    HW3 7603   3.731   2.369   3.080  0.6204  1.3642  0.7235
 1889SOL    MW4 7604   3.796   2.342   3.131  0.1376 -0.1872  0.5412
 1890SOL     OW 7605   3.600   2.480   2.987  0.4445 -0.2975 -0.0003
 1890SOL    HW2 7606   3.630   2.562   3.028  1.8252  0.4327 -2.4102
 1890SOL    HW3 7607   3.544   2.441   3.053  1.5076  1.5273  2.0790
 1890SOL    MW4 7608   3.597   2.486   3.001  0.7668  0.0396 -0.0436
 1891SOL     OW 7609   3.614   2.706   3.128  0.0363 -0.0605  0.5340
 1891SOL    HW2 7610   3.687   2.765   3.108 -0.9215  1.4175  1.2954
 1891SOL    HW3 7611   3.537   2.751   3.093 -0.8260 -0.4340  1.9389
 1891SOL    MW4 7612   3.614   2.719   3.121 -0.2038  0.0851  0.8197
 1892SOL     OW 7613   3.844   2.827   3.027 -0.2156 -0.4516  0.0699
 1892SOL    HW2 7614   3.850   2.922   3.034 -0.5990 -0.4519  0.4560
 1892SOL    HW3 7615   3.822   2.810   2.936  2.5191 -0.3040 -0.6595
 1892SOL    MW4 7616   3.842   2.837   3.016  0.0944 -0.4320  0.0248
 1893SOL     OW 7617   3.880   3.104   3.107  0.6320 -0.1171  0.1565
 1893SOL    HW2 7618   3.945   3.145   3.051  2.1615  0.4166  2.2393
 1893SOL    HW3 7619   3.798   3.149   3.087  0.9135 -0.6491 -2.3482
 1893SOL    MW4 7620   3.878   3.115   3.097  0.8709 -0.1166  0.1011
 1894SOL     OW 7621   3.613   3.183   3.060 -0.2312  0.2972  0.0384
 1894SOL    HW2 7622   3.540   3.133   3.096  0.5728 -1.8499 -1.2575
 1894SOL    HW3 7623   3.595   3.188   2.966  0.6568  0.8527 -0.1099
 1894SOL    MW4 7624   3.601   3.177   3.052 -0.0081  0.0873 -0.1523
 1895SOL     OW 7625   3.606   3.448   3.163 -0.4408 -0.5424  0.0853
 1895SOL    HW2 7626   3.683   3.497   3.133  0.5203 -1.5444  0.8965
 1895SOL    HW3 7627   3.605   3.369   3.109 -1.5682 -0.0159 -0.7059
 1895SOL    MW4 7628   3.616   3.444   3.152 -0.4628 -0.6051  0.0880
 1896SOL     OW 7629   3.820   3.577   3.025 -0.1056  0.5263 -0.2513
 1896SOL    HW2 7630   3.813   3.668   3.054 -1.2925  0.0114  1.1532
 1896SOL    HW3 7631   3.811   3.582   2.930  1.0661  1.9860 -0.3138
 1896SOL    MW4 7632   3.818   3.590   3.017 -0.1080  0.6509 -0.0744
 1897SOL     OW 7633   3.791   3.833   3.134 -0.2061 -0.2843  0.4770
 1897SOL    HW2 7634   3.799   3.847   3.229 -0.4295 -1.4578  0.6740
 1897SOL    HW3 7635   3.726   3.898   3.106 -1.0206 -0.7099  1.3256
 1897SOL    MW4 7636   3.783   3.843   3.143 -0.3428 -0.4952  0.6149
 1898SOL     OW 7637   3.610   4.017   3.048 -0.1429  0.7931  0.1477
 1898SOL    HW2 7638   3.529   3.968   3.061  0.3395 -0.0538  0.0861
 1898SOL    HW3 7639   3.609   4.042   2.955  0.3757 -0.5632 -0.2420
 1898SOL    MW4 7640   3.599   4.014   3.037 -0.0110  0.5031  0.0882
 1899SOL     OW 7641   3.571   4.275   3.141 -0.0664 -0.0489 -0.8130
 1899SOL    HW2 7642   3.640   4.328   3.101  1.7638 -0.7433  1.3176
 1899SOL    HW3 7643   3.589   4.186   3.110 -0.5289 -0.0901 -0.9560
 1899SOL    MW4 7644   3.583   4.270   3.132  0.1140 -0.1459 -0.5507
 1900SOL     OW 7645   3.797   4.405   3.030 -0.5064 -0.3097 -0.0630
 1900SOL    HW2 7646   3.865   4.352   3.071  1.2787  1.4722 -0.6812
 1900SOL    HW3 7647   3.816   4.400   2.936 -0.9937  0.5157 -0.2066
 1900SOL    MW4 7648   3.808   4.397   3.023 -0.3350  0.0343 -0.1636
 1901SOL     OW 7649   4.224   4.646   3.172  0.0625 -0.3353  0.3747
 1901SOL    HW2 7650   4.250   4.644   3.265  1.1106 -1.3073  0.0698
 1901SOL    HW3 7651   4.212   4.555   3.148  2.3055 -0.2964 -1.1150
 1901SOL    MW4 7652   4.226   4.634   3.181  0.4969 -0.4587  0.1380
 1902SOL     OW 7653   4.048   0.138   3.031  0.0070 -0.1199 -0.2927
 1902SOL    HW2 7654   4.107   0.082   3.081  0.5919  1.8537  1.3207
 1902SOL    HW3 7655   3.961   0.101   3.048  0.3752 -0.5517  0.7319
 1902SOL    MW4 7656   4.044   0.126   3.040  0.1326  0.0836  0.0556
 1903SOL     OW 7657   4.021   0.382   3.174  0.4610  0.0396  0.0379
 1903SOL    HW2 7658   4.092   0.444   3.156 -0.1417  0.4338 -1.0564
 1903SOL    HW3 7659   4.047   0.302   3.129  0.1351  0.2424 -0.5206
 1903SOL    MW4 7660   4.034   0.379   3.166  0.3386  0.1183 -0.1800
 1904SOL     OW 7661   4.255   0.520   3.074 -0.1955  0.6872  0.3442
 1904SOL    HW2 7662   4.257   0.615   3.083 -0.0309  0.5682  1.8486
 1904SOL    HW3 7663   4.263   0.503   2.980  2.0587  2.1131  0.2377
 1904SOL    MW4 7664   4.256   0.530   3.063  0.1235  0.8597  0.5283
 1905SOL     OW 7665   4.298   0.783   3.130 -0.0500 -0.0961 -0.3820
 1905SOL    HW2 7666   4.216   0.824   3.105 -1.3199 -1.7061  1.0268
 1905SOL    HW3 7667   4.366   0.844   3.099 -1.7147  0.9037 -2.1936
 1905SOL    MW4 7668   4.296   0.796   3.122 -0.4373 -0.1765 -0.4354
 1906SOL     OW 7669   4.051   0.866   3.030  0.1993  0.1974 -0.1691
 1906SOL    HW2 7670   4.044   0.953   3.069  0.0663  0.5813 -1.0512
 1906SOL    HW3 7671   4.032   0.879   2.937  0.5038 -0.7161 -0.3666
 1906SOL    MW4 7672   4.048   0.879   3.023  0.2213  0.1275 -0.3119
 1907SOL     OW 7673   4.034   1.107   3.147  0.6135  0.4033  0.7339
 1907SOL    HW2 7674   4.034   1.122   3.242  1.2701 -0.0061  0.8009
 1907SOL    HW3 7675   3.953   1.147   3.117  0.1525  0.0899  1.5447
 1907SOL    MW4 7676   4.023   1.114   3.156  0.6394  0.3078  0.8497
 1908SOL     OW 7677   4.258   1.278   3.074 -0.1786  0.2174  0.3115
 1908SOL    HW2 7678   4.185   1.230   3.113  0.1651 -0.3732  0.2452
 1908SOL    HW3 7679   4.259   1.251   2.982 -0.8707  1.4679 -0.0688
 1908SOL    MW4 7680   4.249   1.268   3.067 -0.2241  0.3043  0.2527
 1909SOL     OW 7681   4.271   1.538   3.164  0.4018 -0.6856  0.3452
 1909SOL    HW2 7682   4.206   1.593   3.121 -0.4344 -0.2996  2.0780
 1909SOL    HW3 7683   4.260   1.452   3.123 -0.8306 -0.4931  0.2461
 1909SOL    MW4 7684   4.261   1.534   3.153  0.1287 -0.6092  0.5605
 1910SOL     OW 7685   4.080   1.680   3.037  0.3233  0.3951 -0.2224
 1910SOL    HW2 7686   4.060   1.764   3.078  1.8423 -0.4944  2.4960
 1910SOL    HW3 7687   3.998   1.630   3.044  0.8756 -0.1735  2.9610
 1910SOL    MW4 7688   4.066   1.684   3.043  0.5965  0.2028  0.5565
 1911SOL     OW 7689   4.055   1.916   3.171  0.1558 -0.1476  0.1489
 1911SOL    HW2 7690   4.136   1.952   3.135 -0.4316 -0.5892 -1.7118
 1911SOL    HW3 7691   3.986   1.973   3.136 -0.6480 -2.0966 -1.5674
 1911SOL    MW4 7692   4.056   1.929   3.161 -0.0277 -0.4630 -0.3233
 1912SOL     OW 7693   4.289   2.032   3.047 -0.3866  0.5426  0.1200
 1912SOL    HW2 7694   4.287   2.111   3.102 -2.0275  0.4593  0.2143
 1912SOL    HW3 7695   4.263   2.063   2.960  2.6230  0.7525 -0.7613
 1912SOL    MW4 7696   4.285   2.047   3.043 -0.2065  0.5593  0.0160
 1913SOL     OW 7697   4.237   2.315   3.140  0.2710  0.1452  0.3948
 1913SOL    HW2 7698   4.167   2.372   3.107 -0.1832 -0.5012  0.2378
 1913SOL    HW3 7699   4.316   2.346   3.095 -0.1769 -0.1049 -0.5764
 1913SOL    MW4 7700   4.239   2.327   3.129  0.1521  0.0269  0.2460
 1914SOL     OW 7701   4.031   2.460   2.993  0.7611  0.2657  0.0023
 1914SOL    HW2 7702   4.040   2.543   3.039 -0.5709  1.0385 -1.1021
 1914SOL    HW3 7703   3.950   2.422   3.029  0.7866 -0.0501 -0.2698
 1914SOL    MW4 7704   4.021   2.466   3.004  0.5894  0.3259 -0.1791
 1915SOL     OW 7705   4.062   2.690   3.151  0.0814 -0.0228 -0.0132
 1915SOL    HW2 7706   4.053   2.690   3.247  2.0375  1.2158  0.2165
 1915SOL    HW3 7707   3.988   2.741   3.120 -0.1467  0.2257  0.9065
 1915SOL    MW4 7708   4.051   2.696   3.160  0.3090  0.1736  0.1385
 1916SOL     OW 7709   4.293   2.792   3.037 -0.0132 -0.0411 -0.6580
 1916SOL    HW2 7710   4.215   2.760   3.083  0.2306  0.6988  0.2954
 1916SOL    HW3 7711   4.366   2.751   3.082  0.2377  0.8232 -0.2563
 1916SOL    MW4 7712   4.292   2.783   3.049  0.0525  0.1705 -0.4790
 1917SOL     OW 7713   4.260   3.059   3.147 -0.3632  0.0465  0.2941
 1917SOL    HW2 7714   4.188   3.100   3.098  1.3727  1.7999 -0.8639
 1917SOL    HW3 7715   4.265   2.970   3.112 -1.0583  0.3588 -0.6202
 1917SOL    MW4 7716   4.251   3.052   3.136 -0.2265  0.3192  0.0207
 1918SOL     OW 7717   4.101   3.226   2.984 -0.2688 -0.2131  0.1176
 1918SOL    HW2 7718   4.089   3.317   3.012  0.9293 -0.1924  0.5975
 1918SOL    HW3 7719   4.112   3.232   2.889 -1.5756 -0.0009 -0.0200
 1918SOL    MW4 7720   4.101   3.239   2.975 -0.2832 -0.1824  0.1631
 1919SOL     OW 7721   4.060   3.470   3.109  0.2410  0.3585  0.6378
 1919SOL    HW2 7722   4.070   3.472   3.204  1.2615 -0.3657  0.5496
 1919SOL    HW3 7723   3.974   3.510   3.093  0.2604  0.8842  1.8282
 1919SOL    MW4 7724   4.050   3.476   3.120  0.3786  0.3324  0.7832
 1920SOL     OW 7725   4.271   3.598   2.993 -0.0514 -0.2871 -0.4105
 1920SOL    HW2 7726   4.271   3.680   3.042 -0.2138 -0.8224  0.4993
 1920SOL    HW3 7727   4.194   3.550   3.025  1.8895 -2.2253  1.5547
 1920SOL    MW4 7728   4.261   3.602   3.004  0.1826 -0.6132 -0.0312
 1921SOL     OW 7729   4.279   3.861   3.139 -0.6422 -0.1947 -0.0289
 1921SOL    HW2 7730   4.207   3.913   3.102 -1.2093  0.4254  1.9083
 1921SOL    HW3 7731   4.358   3.904   3.107 -1.1085  1.5943  1.1085
 1921SOL    MW4 7732   4.280   3.874   3.130 -0.7787  0.1233  0.3772
 1922SOL     OW 7733   4.037   3.974   3.073  0.0134 -0.4254 -0.4121
 1922SOL    HW2 7734   4.014   4.061   3.107  0.1504 -0.4540 -0.2425
 1922SOL    HW3 7735   3.971   3.916   3.109  0.1380 -0.4501 -0.2226
 1922SOL    MW4 7736   4.025   3.978   3.082  0.0482 -0.4325 -0.3648
 1923SOL     OW 7737   3.996   4.246   3.151  0.0847  0.0688  0.1774
 1923SOL    HW2 7738   3.994   4.245   3.247  0.5620 -0.8159  0.1888
 1923SOL    HW3 7739   4.078   4.289   3.129  1.6634 -2.7808  0.2262
 1923SOL    MW4 7740   4.007   4.251   3.161  0.3557 -0.4234  0.1853
 1924SOL     OW 7741   4.231   4.383   3.069 -0.3390  0.2258 -0.4007
 1924SOL    HW2 7742   4.297   4.323   3.104  0.5973  2.6852  2.2911
 1924SOL    HW3 7743   4.248   4.384   2.974  2.5960 -0.2894  0.0557
 1924SOL    MW4 7744   4.242   4.375   3.061  0.1717  0.4816  0.0148
 1925SOL     OW 7745   0.219   4.641   3.354  0.0358 -0.0574  0.1038
 1925SOL    HW2 7746   0.293   4.687   3.394 -0.7313 -0.3984  1.9222
 1925SOL    HW3 7747   0.227   4.551   3.385 -0.1857 -0.4888 -1.0586
 1925SOL    MW4 7748   0.230   4.635   3.363 -0.0946 -0.1593  0.1900
 1926SOL     OW 7749   0.035   0.120   3.528 -0.1605  0.5186 -0.3356
 1926SOL    HW2 7750   0.023   0.206   3.489 -0.9806 -0.7185 -2.9129
 1926SOL    HW3 7751   0.102   0.077   3.474 -0.6293 -0.8931  0.1630
 1926SOL    MW4 7752   0.042   0.125   3.516 -0.3306  0.1691 -0.6101
 1927SOL     OW 7753   0.020   0.361   3.410 -0.2784 -0.0777 -0.4546
 1927SOL    HW2 7754  -0.054   0.414   3.439 -0.0993  1.5106 -2.7437
 1927SOL    HW3 7755   0.098   0.406   3.444 -0.2548 -0.4503 -0.0130
 1927SOL    MW4 7756   0.021   0.374   3.418 -0.2517  0.0827 -0.6981
 1928SOL     OW 7757   0.246   0.543   3.453  0.1500 -0.5871 -0.0472
 1928SOL    HW2 7758   0.329   0.511   3.418  1.9461  0.6958  2.8569
 1928SOL    HW3 7759   0.237   0.631   3.418  0.6503 -0.2625  0.6349
 1928SOL    MW4 7760   0.255   0.550   3.444  0.4530 -0.3750  0.4261
 1929SOL     OW 7761   0.219   0.829   3.379  0.4710 -0.2174 -0.0458
 1929SOL    HW2 7762   0.295   0.853   3.433  0.1129  1.7764 -0.4019
 1929SOL    HW3 7763   0.143   0.860   3.428  0.0824  0.6895 -1.1943
 1929SOL    MW4 7764   0.219   0.836   3.392  0.3725  0.1653 -0.2444
 1930SOL     OW 7765   4.479   0.917   3.510 -0.1020  0.2521 -0.5437
 1930SOL    HW2 7766   4.502   0.922   3.603 -1.0092  0.1639 -0.3179
 1930SOL    HW3 7767   4.478   1.008   3.480 -0.2241  0.3066 -0.3706
 1930SOL    MW4 7768   4.482   0.930   3.518 -0.2375  0.2477 -0.4911
 1931SOL     OW 7769   0.018   1.177   3.447  0.3455 -0.6926  0.2648
 1931SOL    HW2 7770   0.099   1.201   3.491 -0.1818  0.1354  0.8024
 1931SOL    HW3 7771   0.033   1.199   3.355  0.4331  0.2440  0.4969
 1931SOL    MW4 7772   0.031   1.183   3.440  0.2875 -0.4598  0.3667
 1932SOL     OW 7773   0.290   1.239   3.536  0.3944  0.2885 -0.2342
 1932SOL    HW2 7774   0.355   1.210   3.472  0.5211  0.4375 -0.1740
 1932SOL    HW3 7775   0.266   1.327   3.507  1.3820  0.8566  0.6327
 1932SOL    MW4 7776   0.296   1.247   3.523  0.5414  0.3831 -0.1118
 1933SOL     OW 7777   0.212   1.487   3.440 -0.1963 -0.5975  0.1882
 1933SOL    HW2 7778   0.284   1.548   3.455  2.5171 -3.4807 -0.6484
 1933SOL    HW3 7779   0.207   1.479   3.345 -1.5413 -0.5749  0.2433
 1933SOL    MW4 7780   0.221   1.494   3.429 -0.0157 -0.9749  0.0851
 1934SOL     OW 7781   4.481   1.647   3.564 -0.2791 -0.5157 -0.2134
 1934SOL    HW2 7782   4.398   1.615   3.527  0.9556 -0.6933 -2.9457
 1934SOL    HW3 7783   4.548   1.593   3.522  1.4642  1.9471 -0.7324
 1934SOL    MW4 7784   4.479   1.635   3.553  0.1139 -0.2142 -0.6423
 1935SOL     OW 7785   0.027   1.903   3.431  0.1930  0.3213 -0.0968
 1935SOL    HW2 7786   0.016   1.812   3.459  0.9766 -0.5151 -2.3261
 1935SOL    HW3 7787   0.030   1.898   3.335  0.7130  2.6418 -0.2333
 1935SOL    MW4 7788   0.026   1.890   3.422  0.3650  0.5170 -0.4086
 1936SOL     OW 7789   0.245   2.052   3.485 -0.2414  0.6469  0.4067
 1936SOL    HW2 7790   0.269   2.046   3.577  0.5177  3.1357  0.3957
 1936SOL    HW3 7791   0.170   1.994   3.476  0.8980 -1.1790  2.1438
 1936SOL    MW4 7792   0.238   2.043   3.496  0.0090  0.7341  0.6347
 1937SOL     OW 7793   0.270   2.307   3.408  0.0136 -0.4020  0.0712
 1937SOL    HW2 7794   0.195   2.354   3.445  0.1793 -1.0853  1.3026
 1937SOL    HW3 7795   0.258   2.217   3.437  0.2569 -0.9246 -1.4085
 1937SOL    MW4 7796   0.258   2.301   3.417  0.0676 -0.5610  0.0384
 1938SOL     OW 7797   0.030   2.399   3.499  0.6352 -0.1592 -0.3616
 1938SOL    HW2 7798   0.037   2.403   3.595 -0.3907  0.4905 -0.3110
 1938SOL    HW3 7799  -0.060   2.373   3.483  0.4242  1.0728 -1.1827
 1938SOL    MW4 7800   0.019   2.396   3.510  0.4720  0.0889 -0.4632
 1939SOL     OW 7801   0.008   2.672   3.482  0.2081 -0.4430 -0.2497
 1939SOL    HW2 7802   0.083   2.715   3.523  0.8544 -0.5506 -1.2901
 1939SOL    HW3 7803   0.027   2.578   3.491 -0.9814 -0.5282  1.6233
 1939SOL    MW4 7804   0.020   2.665   3.488  0.1364 -0.4685 -0.1397
 1940SOL     OW 7805   0.233   2.845   3.544 -0.3936  0.2701 -0.1177
 1940SOL    HW2 7806   0.306   2.794   3.510 -0.1705 -0.0185  0.7659
 1940SOL    HW3 7807   0.236   2.928   3.496 -0.7931 -0.5638 -1.6019
 1940SOL    MW4 7808   0.243   2.849   3.533 -0.4169  0.1221 -0.1969
 1941SOL     OW 7809   0.197   3.095   3.461  0.3834  0.1967 -0.4978
 1941SOL    HW2 7810   0.114   3.140   3.474  0.2141 -0.3423  0.3390
 1941SOL    HW3 7811   0.212   3.099   3.367 -0.6598  0.1741 -0.6683
 1941SOL    MW4 7812   0.188   3.101   3.450  0.2234  0.1228 -0.4101
 1942SOL     OW 7813   4.449   3.230   3.542 -0.0114 -0.0687 -0.6419
 1942SOL    HW2 7814   4.377   3.176   3.510 -0.1515 -1.0378  1.2641
 1942SOL    HW3 7815   4.432   3.316   3.504 -1.9079 -0.4156 -0.6465
 1942SOL    MW4 7816   4.437   3.235   3.533 -0.2804 -0.2422 -0.3910
 1943SOL     OW 7817   4.477   3.492   3.440  0.1554  0.1996 -0.0537
 1943SOL    HW2 7818   4.393   3.524   3.473  1.1744  2.5933  0.3297
 1943SOL    HW3 7819   4.460   3.473   3.348 -0.6967  1.1473 -0.1116
 1943SOL    MW4 7820   4.464   3.494   3.432  0.1774  0.6404 -0.0107
 1944SOL     OW 7821   0.233   3.601   3.511 -0.3711 -0.0351 -0.5923
 1944SOL    HW2 7822   0.253   3.578   3.602  1.8343  1.9650 -0.5548
 1944SOL    HW3 7823   0.137   3.594   3.506 -0.4361 -1.3023  1.5376
 1944SOL    MW4 7824   0.223   3.597   3.522 -0.0887  0.0618 -0.3066
 1945SOL     OW 7825   0.249   3.861   3.417  0.2823  0.0948 -0.0439
 1945SOL    HW2 7826   0.161   3.880   3.451 -0.2867 -0.7256 -1.0228
 1945SOL    HW3 7827   0.261   3.767   3.431  1.2235  0.3050  0.5797
 1945SOL    MW4 7828   0.239   3.851   3.423  0.3314  0.0141 -0.0908
 1946SOL     OW 7829   4.487   3.958   3.516 -0.6665 -0.5462  0.3571
 1946SOL    HW2 7830   4.494   3.971   3.610 -0.5283 -0.4349  0.3326
 1946SOL    HW3 7831   4.485   4.046   3.479 -0.3881 -0.5891  0.2345
 1946SOL    MW4 7832   4.488   3.971   3.523 -0.6115 -0.5374  0.3378
 1947SOL     OW 7833   4.487   4.229   3.450 -0.1236 -0.0848 -0.6536
 1947SOL    HW2 7834   4.409   4.282   3.470  0.0837 -0.4688  1.3167
 1947SOL    HW3 7835   4.560   4.284   3.478  0.1245 -1.0869  0.7497
 1947SOL    MW4 7836   4.486   4.243   3.457 -0.0639 -0.2680 -0.2084
 1948SOL     OW 7837   0.197   4.403   3.508  0.3113  0.0830  0.2097
 1948SOL    HW2 7838   0.210   4.407   3.603  1.0810  2.0396  0.0372
 1948SOL    HW3 7839   0.264   4.342   3.478  0.4908 -0.0396  0.8516
 1948SOL    MW4 7840   0.208   4.395   3.517  0.4365  0.3247  0.2716
 1949SOL     OW 7841   0.641   4.657   3.398  0.3943  0.7563 -0.0860
 1949SOL    HW2 7842   0.722   4.682   3.443  0.4826  1.2850 -0.5388
 1949SOL    HW3 7843   0.659   4.674   3.306  0.4780 -1.0372 -0.4257
 1949SOL    MW4 7844   0.654   4.662   3.392  0.4170  0.5898 -0.1905
 1950SOL     OW 7845   0.441   0.164   3.470  0.0231 -0.0110  0.1128
 1950SOL    HW2 7846   0.423   0.142   3.561  1.5033 -1.4630  0.0888
 1950SOL    HW3 7847   0.507   0.100   3.443  0.3409  1.0410 -1.6732
 1950SOL    MW4 7848   0.448   0.152   3.478  0.2603 -0.0638 -0.1259
 1951SOL     OW 7849   0.469   0.410   3.359  0.3302  0.1109 -0.2260
 1951SOL    HW2 7850   0.558   0.429   3.389 -0.0210 -0.2407  1.0762
 1951SOL    HW3 7851   0.449   0.324   3.396 -0.5428  0.1841 -0.5192
 1951SOL    MW4 7852   0.478   0.401   3.368  0.1687  0.0741 -0.0930
 1952SOL     OW 7853   0.712   0.492   3.453  0.6064 -0.2914 -0.4495
 1952SOL    HW2 7854   0.706   0.503   3.547  2.9483  0.4282 -0.3625
 1952SOL    HW3 7855   0.794   0.445   3.439 -0.7763 -2.3879 -2.0024
 1952SOL    MW4 7856   0.722   0.487   3.463  0.7330 -0.4731 -0.6428
 1953SOL     OW 7857   0.649   0.748   3.373  0.3386  0.1208 -0.0305
 1953SOL    HW2 7858   0.582   0.784   3.432  1.1165  1.8052 -0.1546
 1953SOL    HW3 7859   0.667   0.661   3.408 -1.9947 -0.4007 -0.0646
 1953SOL    MW4 7860   0.643   0.741   3.386  0.1333  0.2742 -0.0515
 1954SOL     OW 7861   0.462   0.899   3.523  0.0225 -0.4691  0.1382
 1954SOL    HW2 7862   0.441   0.937   3.608 -0.4550 -0.0770 -0.1504
 1954SOL    HW3 7863   0.459   0.972   3.462  0.1452 -0.7841 -0.2504
 1954SOL    MW4 7864   0.459   0.913   3.526 -0.0243 -0.4590  0.0491
 1955SOL     OW 7865   0.470   1.126   3.379 -0.4680 -0.1481  0.5287
 1955SOL    HW2 7866   0.553   1.161   3.410 -0.4537  1.1759 -0.9024
 1955SOL    HW3 7867   0.480   1.122   3.284 -1.3591 -1.7986  0.4856
 1955SOL    MW4 7868   0.482   1.130   3.370 -0.5837 -0.1910  0.3340
 1956SOL     OW 7869   0.703   1.211   3.515  0.3568  0.1901  0.2014
 1956SOL    HW2 7870   0.775   1.165   3.471  2.0934  0.7084  2.4028
 1956SOL    HW3 7871   0.715   1.303   3.490 -0.9094 -0.0080 -1.2199
 1956SOL    MW4 7872   0.714   1.217   3.506  0.4188  0.2325  0.3047
 1957SOL     OW 7873   0.684   1.479   3.436  0.1627 -0.3598 -0.0514
 1957SOL    HW2 7874   0.753   1.537   3.468  0.7539 -0.5944 -0.8545
 1957SOL    HW3 7875   0.603   1.526   3.453  0.5644  0.2155  0.3079
 1957SOL    MW4 7876   0.683   1.493   3.442  0.2937 -0.3147 -0.1099
 1958SOL     OW 7877   0.439   1.632   3.499  0.4903 -0.1813 -0.0183
 1958SOL    HW2 7878   0.440   1.638   3.594 -1.8078  0.7952 -0.0279
 1958SOL    HW3 7879   0.456   1.721   3.469 -1.5757  0.0984 -0.4648
 1958SOL    MW4 7880   0.441   1.645   3.507 -0.0854 -0.0156 -0.0787
 1959SOL     OW 7881   0.470   1.904   3.400 -0.4929  0.0835  0.3894
 1959SOL    HW2 7882   0.383   1.941   3.414 -0.8164 -0.1339 -0.9925
 1959SOL    HW3 7883   0.482   1.906   3.305  1.0147  0.1141  0.5647
 1959SOL    MW4 7884   0.460   1.910   3.390 -0.3367  0.0590  0.2306
 1960SOL     OW 7885   0.641   2.085   3.532 -0.1675  0.6318  0.3312
 1960SOL    HW2 7886   0.646   2.062   3.625 -1.2666  1.0508  0.4912
 1960SOL    HW3 7887   0.572   2.029   3.497 -0.1717  0.9161 -0.1144
 1960SOL    MW4 7888   0.633   2.074   3.540 -0.3131  0.7248  0.2935
 1961SOL     OW 7889   0.723   2.321   3.383 -0.2194  0.0085  0.4452
 1961SOL    HW2 7890   0.800   2.362   3.423  0.0389  0.3813 -0.4305
 1961SOL    HW3 7891   0.712   2.239   3.432  0.4056  0.2098  0.9303
 1961SOL    MW4 7892   0.732   2.315   3.395 -0.1029  0.0844  0.3939
 1962SOL     OW 7893   0.492   2.465   3.506 -0.1829 -0.3660  0.0138
 1962SOL    HW2 7894   0.562   2.436   3.449  0.8805  1.0327  0.5778
 1962SOL    HW3 7895   0.415   2.416   3.477  0.6252 -0.6018 -1.7666
 1962SOL    MW4 7896   0.491   2.455   3.495  0.0641 -0.2129 -0.1469
 1963SOL     OW 7897   0.438   2.713   3.399 -0.1066 -0.1237 -0.0954
 1963SOL    HW2 7898   0.462   2.628   3.435 -0.2740 -0.3348 -0.4784
 1963SOL    HW3 7899   0.433   2.698   3.304 -1.0265  0.0981 -0.0836
 1963SOL    MW4 7900   0.441   2.700   3.391 -0.2500 -0.1221 -0.1440
 1964SOL     OW 7901   0.669   2.836   3.486 -0.0450 -0.1086  0.4384
 1964SOL    HW2 7902   0.739   2.791   3.438  0.3051  0.2869  0.5728
 1964SOL    HW3 7903   0.588   2.796   3.453  0.1282  0.9184 -1.3276
 1964SOL    MW4 7904   0.668   2.825   3.475  0.0241  0.0794  0.2232
 1965SOL     OW 7905   0.676   3.111   3.424  0.3413  0.3510 -0.3903
 1965SOL    HW2 7906   0.588   3.140   3.448  0.8786  1.2374  0.5477
 1965SOL    HW3 7907   0.680   3.019   3.451 -0.4630  0.1659 -0.8985
 1965SOL    MW4 7908   0.665   3.103   3.431  0.3061  0.4435 -0.3338
 1966SOL     OW 7909   0.425   3.237   3.498  0.1311 -0.1764 -0.1721
 1966SOL    HW2 7910   0.443   3.233   3.592 -0.4837 -1.9037 -0.1046
 1966SOL    HW3 7911   0.334   3.208   3.490  0.9478 -2.5176 -1.4974
 1966SOL    MW4 7912   0.415   3.232   3.510  0.1577 -0.7129 -0.3376
 1967SOL     OW 7913   0.478   3.511   3.409 -0.7818  0.0535 -0.0511
 1967SOL    HW2 7914   0.489   3.419   3.436  1.9347  0.3662 -0.0509
 1967SOL    HW3 7915   0.388   3.532   3.436 -0.1284 -1.3979  3.5386
 1967SOL    MW4 7916   0.467   3.501   3.416 -0.3372 -0.0968  0.4225
 1968SOL     OW 7917   0.689   3.626   3.539 -0.3718 -0.3964 -0.0941
 1968SOL    HW2 7918   0.753   3.562   3.509 -0.2347  0.1522 -0.9762
 1968SOL    HW3 7919   0.604   3.587   3.517 -0.4642 -1.9748  2.7238
 1968SOL    MW4 7920   0.686   3.613   3.532 -0.3659 -0.5322  0.1614
 1969SOL     OW 7921   0.708   3.861   3.390  0.5522  0.1967 -0.4453
 1969SOL    HW2 7922   0.636   3.916   3.419 -0.8141 -1.3069 -0.8974
 1969SOL    HW3 7923   0.717   3.795   3.459  1.5568  0.4250 -0.3508
 1969SOL    MW4 7924   0.699   3.860   3.403  0.5045  0.0286 -0.4926
 1970SOL     OW 7925   0.504   4.005   3.513 -0.1937 -0.2330 -0.2154
 1970SOL    HW2 7926   0.477   4.095   3.491  1.3283 -0.3793 -2.8619
 1970SOL    HW3 7927   0.428   3.951   3.491 -0.5219  0.2232 -0.2085
 1970SOL    MW4 7928   0.490   4.010   3.507 -0.0362 -0.1922 -0.5636
 1971SOL     OW 7929   0.411   4.247   3.420 -0.0073  0.2118 -0.2358
 1971SOL    HW2 7930   0.482   4.292   3.466  0.3868  0.1197 -0.7489
 1971SOL    HW3 7931   0.436   4.251   3.328 -1.4819  1.6266 -0.5903
 1971SOL    MW4 7932   0.424   4.254   3.414 -0.1498  0.3862 -0.3500
 1972SOL     OW 7933   0.645   4.386   3.494 -0.3149 -0.5636 -0.0091
 1972SOL    HW2 7934   0.726   4.352   3.457 -0.4635 -1.1902  0.2468
 1972SOL    HW3 7935   0.634   4.472   3.452  0.0014 -0.8693 -0.7137
 1972SOL    MW4 7936   0.654   4.393   3.484 -0.2928 -0.6871 -0.0682
 1973SOL     OW 7937   1.108   4.638   3.401 -0.6578 -0.0497  0.2795
 1973SOL    HW2 7938   1.181   4.688   3.436 -0.9301  0.0417  0.7220
 1973SOL    HW3 7939   1.117   4.644   3.306  0.7839 -1.3197  0.3231
 1973SOL    MW4 7940   1.119   4.646   3.393 -0.5035 -0.2055  0.3438
 1974SOL     OW 7941   0.875   0.106   3.493  0.2321  0.1593  0.3340
 1974SOL    HW2 7942   0.878   0.099   3.589  1.9306 -1.1944  0.2028
 1974SOL    HW3 7943   0.947   0.052   3.463 -0.0845  0.8427 -1.7226
 1974SOL    MW4 7944   0.885   0.098   3.502  0.4145  0.0709  0.0455
 1975SOL     OW 7945   0.941   0.358   3.373 -0.1402  0.7207 -0.1101
 1975SOL    HW2 7946   1.016   0.402   3.412 -0.2264  0.6122  0.1743
 1975SOL    HW3 7947   0.933   0.276   3.421 -0.4453  0.7354 -0.1347
 1975SOL    MW4 7948   0.950   0.353   3.384 -0.1918  0.7083 -0.0756
 1976SOL     OW 7949   1.136   0.469   3.521 -0.1759  0.2494 -0.2138
 1976SOL    HW2 7950   1.140   0.466   3.616  0.4971  0.2921 -0.2356
 1976SOL    HW3 7951   1.110   0.559   3.501 -0.6759  0.1399 -0.0636
 1976SOL    MW4 7952   1.133   0.480   3.531 -0.1532  0.2406 -0.1967
 1977SOL     OW 7953   1.067   0.725   3.428 -0.0875  0.3501  0.2297
 1977SOL    HW2 7954   1.149   0.766   3.457  0.1816 -0.1287  0.1631
 1977SOL    HW3 7955   0.998   0.776   3.469  0.2295  1.3645 -0.5023
 1977SOL    MW4 7956   1.069   0.737   3.437 -0.0103  0.4207  0.1242
 1978SOL     OW 7957   0.868   0.873   3.523  0.2324 -0.2168 -0.0079
 1978SOL    HW2 7958   0.892   0.954   3.478  0.7068  0.8741  2.1703
 1978SOL    HW3 7959   0.787   0.845   3.480  0.0307  1.4403 -0.7440
 1978SOL    MW4 7960   0.860   0.880   3.511  0.2684  0.1457  0.1824
 1979SOL     OW 7961   0.927   1.104   3.377 -0.1325 -0.0437  0.4256
 1979SOL    HW2 7962   1.008   1.144   3.409 -0.0142 -0.0993  0.1940
 1979SOL    HW3 7963   0.926   1.122   3.283 -1.2271  1.4292  0.6985
 1979SOL    MW4 7964   0.938   1.112   3.369 -0.2613  0.1434  0.4311
 1980SOL     OW 7965   1.146   1.235   3.479 -0.1576 -0.1514 -0.3019
 1980SOL    HW2 7966   1.129   1.246   3.573 -0.6735  0.4155 -0.4569
 1980SOL    HW3 7967   1.152   1.324   3.445  1.1303 -0.3516 -0.6210
 1980SOL    MW4 7968   1.144   1.248   3.487 -0.0557 -0.1031 -0.3645
 1981SOL     OW 7969   1.156   1.530   3.404  0.0254  0.3321 -0.1488
 1981SOL    HW2 7970   1.239   1.574   3.425  0.1781  0.1323 -0.3278
 1981SOL    HW3 7971   1.160   1.517   3.309 -0.5396  0.9930 -0.2679
 1981SOL    MW4 7972   1.168   1.534   3.394 -0.0290  0.3929 -0.1881
 1982SOL     OW 7973   0.913   1.678   3.472 -0.2783 -0.3512  0.1310
 1982SOL    HW2 7974   0.901   1.765   3.435  0.3373  0.0132  0.7833
 1982SOL    HW3 7975   0.999   1.650   3.441 -0.0925 -0.3574  0.6418
 1982SOL    MW4 7976   0.922   1.686   3.463 -0.1726 -0.3040  0.2844
 1983SOL     OW 7977   0.840   1.956   3.380  0.0873 -0.0089 -0.0451
 1983SOL    HW2 7978   0.917   1.999   3.416 -0.4839  1.2988 -0.3704
 1983SOL    HW3 7979   0.765   2.002   3.420 -0.5312 -0.4546 -0.6721
 1983SOL    MW4 7980   0.840   1.968   3.390 -0.0696  0.1048 -0.1707
 1984SOL     OW 7981   1.106   2.063   3.487 -0.1907  0.0708 -0.5885
 1984SOL    HW2 7982   1.177   2.014   3.448 -0.0178  1.7669 -2.4760
 1984SOL    HW3 7983   1.116   2.152   3.453 -3.4136  0.2706 -1.2233
 1984SOL    MW4 7984   1.116   2.068   3.478 -0.5931  0.3209 -0.9212
 1985SOL     OW 7985   1.123   2.339   3.370 -0.0364 -0.1033  0.2217
 1985SOL    HW2 7986   1.216   2.359   3.379 -0.4057  2.5943 -1.3276
 1985SOL    HW3 7987   1.102   2.360   3.279 -2.1551 -0.6524  0.5438
 1985SOL    MW4 7988   1.132   2.344   3.359 -0.3648  0.1800  0.0596
 1986SOL     OW 7989   0.922   2.492   3.482 -0.2665  0.1959  0.0141
 1986SOL    HW2 7990   0.913   2.476   3.576 -1.0756 -2.1908 -0.4110
 1986SOL    HW3 7991   0.996   2.437   3.455  0.3628  1.3518 -0.6432
 1986SOL    MW4 7992   0.930   2.482   3.490 -0.2902  0.0334 -0.1287
 1987SOL     OW 7993   0.924   2.755   3.400  0.4546  0.2823 -0.3756
 1987SOL    HW2 7994   0.998   2.790   3.450  0.2045  1.1347 -0.5942
 1987SOL    HW3 7995   0.917   2.664   3.429  0.6020  0.6389  0.8100
 1987SOL    MW4 7996   0.933   2.748   3.411  0.4411  0.4420 -0.2480
 1988SOL     OW 7997   1.158   2.868   3.504  0.2895  0.4292  0.0831
 1988SOL    HW2 7998   1.166   2.845   3.597 -2.3266 -2.1662 -0.2318
 1988SOL    HW3 7999   1.220   2.810   3.460 -1.1728 -1.0412 -0.0836
 1988SOL    MW4 8000   1.167   2.857   3.511 -0.2486 -0.1075  0.0196
 1989SOL     OW 8001   1.126   3.107   3.381 -0.5712 -0.1706  0.3239
 1989SOL    HW2 8002   1.148   3.022   3.419  0.0808  0.1029  0.5564
 1989SOL    HW3 8003   1.141   3.095   3.287  3.0480  0.7347  0.6984
 1989SOL    MW4 8004   1.131   3.094   3.374 -0.0076 -0.0148  0.4041
 1990SOL     OW 8005   0.919   3.195   3.543  0.1822 -0.0419  0.3017
 1990SOL    HW2 8006   0.984   3.150   3.489  0.3390  0.1358  0.3416
 1990SOL    HW3 8007   0.835   3.166   3.508  0.2819 -0.6541  0.5727
 1990SOL    MW4 8008   0.917   3.185   3.531  0.2161 -0.0994  0.3426
 1991SOL     OW 8009   0.883   3.453   3.454 -0.2312  0.0342 -0.1620
 1991SOL    HW2 8010   0.891   3.360   3.475 -1.6474  0.1862  1.1944
 1991SOL    HW3 8011   0.881   3.456   3.359  1.5562 -1.1567 -0.2521
 1991SOL    MW4 8012   0.883   3.441   3.444 -0.1822 -0.1028  0.0048
 1992SOL     OW 8013   1.113   3.595   3.484 -0.3571 -0.0633  0.7848
 1992SOL    HW2 8014   1.119   3.595   3.580  0.8741 -1.6976  0.7305
 1992SOL    HW3 8015   1.034   3.545   3.465 -0.2466 -0.3040  0.9462
 1992SOL    MW4 8016   1.104   3.588   3.494 -0.1802 -0.3107  0.7989
 1993SOL     OW 8017   1.121   3.859   3.398 -0.3202  0.1393  0.1690
 1993SOL    HW2 8018   1.201   3.890   3.440  0.7225 -0.7957 -1.0672
 1993SOL    HW3 8019   1.108   3.771   3.434 -0.3972  0.0214 -0.1456
 1993SOL    MW4 8020   1.130   3.851   3.408 -0.1929  0.0007 -0.0355
 1994SOL     OW 8021   0.933   4.043   3.489 -0.3400 -0.2536 -0.0595
 1994SOL    HW2 8022   1.011   3.996   3.462 -0.3971 -0.9039  0.8928
 1994SOL    HW3 8023   0.862   4.003   3.439 -0.4266 -1.3729  0.9314
 1994SOL    MW4 8024   0.934   4.032   3.479 -0.3589 -0.4873  0.1969
 1995SOL     OW 8025   0.887   4.292   3.384  0.4223 -0.3975 -0.1133
 1995SOL    HW2 8026   0.906   4.213   3.435  0.7826  0.6674  1.4364
 1995SOL    HW3 8027   0.905   4.267   3.294  1.6395 -1.7572  0.4838
 1995SOL    MW4 8028   0.892   4.278   3.379  0.6304 -0.4363  0.1698
 1996SOL     OW 8029   1.134   4.384   3.475  0.1331 -0.1016 -0.1008
 1996SOL    HW2 8030   1.052   4.343   3.447  0.9299 -1.4087 -0.5845
 1996SOL    HW3 8031   1.132   4.471   3.436 -1.4006  0.1927  0.5846
 1996SOL    MW4 8032   1.123   4.390   3.467  0.0360 -0.2351 -0.0744
 1997SOL     OW 8033   1.571   4.627   3.414  0.1019  0.6208  0.2099
 1997SOL    HW2 8034   1.564   4.536   3.443  0.7660 -0.3874 -2.5728
 1997SOL    HW3 8035   1.490   4.668   3.442  0.3718 -0.4432  2.7107
 1997SOL    MW4 8036   1.560   4.620   3.421  0.2251  0.3476  0.1726
 1998SOL     OW 8037   1.340   0.104   3.498  0.4449  0.0618  0.4326
 1998SOL    HW2 8038   1.337   0.118   3.593  0.7250 -0.9340  0.5924
 1998SOL    HW3 8039   1.364   0.189   3.462 -1.4966  0.9328  1.1150
 1998SOL    MW4 8040   1.343   0.117   3.506  0.2257  0.0453  0.5441
 1999SOL     OW 8041   1.356   0.360   3.387  0.4684 -0.4461 -0.1124
 1999SOL    HW2 8042   1.428   0.406   3.429  0.0567 -0.7723  0.9618
 1999SOL    HW3 8043   1.277   0.398   3.426  0.0089  0.8149 -2.2052
 1999SOL    MW4 8044   1.355   0.371   3.398  0.3535 -0.3228 -0.2465
 2000SOL     OW 8045   1.541   0.492   3.546 -0.5316 -0.3197  0.1926
 2000SOL    HW2 8046   1.556   0.496   3.640  1.6306  0.5400 -0.1552
 2000SOL    HW3 8047   1.624   0.463   3.509 -1.1901 -0.1463 -1.4918
 2000SOL    MW4 8048   1.554   0.489   3.553 -0.3332 -0.1833 -0.0753
 2001SOL     OW 8049   1.564   0.721   3.397 -0.1237  0.4321  0.8364
 2001SOL    HW2 8050   1.477   0.757   3.416 -0.1657 -0.3595  2.1813
 2001SOL    HW3 8051   1.559   0.630   3.427  0.4796 -0.2666 -1.0897
 2001SOL    MW4 8052   1.552   0.714   3.403 -0.0495  0.2355  0.7598
 2002SOL     OW 8053   1.316   0.846   3.491 -0.2225  0.5598 -0.0588
 2002SOL    HW2 8054   1.307   0.866   3.584  0.6523  0.7059 -0.0078
 2002SOL    HW3 8055   1.335   0.930   3.450  0.5515  0.3091 -0.2189
 2002SOL    MW4 8056   1.317   0.860   3.498 -0.0049  0.5461 -0.0732
 2003SOL     OW 8057   1.371   1.105   3.395  0.2887 -0.1942 -0.4723
 2003SOL    HW2 8058   1.442   1.144   3.446  0.4284 -1.9172  0.7070
 2003SOL    HW3 8059   1.293   1.153   3.422  0.6236  0.0107  0.1420
 2003SOL    MW4 8060   1.370   1.117   3.405  0.3514 -0.3945 -0.2360
 2004SOL     OW 8061   1.562   1.252   3.499  0.2009  0.5412  0.3633
 2004SOL    HW2 8062   1.566   1.258   3.594  0.1880 -0.1034  0.4035
 2004SOL    HW3 8063   1.648   1.221   3.473 -0.9492 -3.0487  0.4666
 2004SOL    MW4 8064   1.574   1.249   3.508  0.0474 -0.0174  0.3822
 2005SOL     OW 8065   1.593   1.512   3.384  0.3185  0.0947  0.5767
 2005SOL    HW2 8066   1.593   1.425   3.425 -0.5526  0.3685  1.1736
 2005SOL    HW3 8067   1.568   1.496   3.294 -0.8232 -0.1669  0.9377
 2005SOL    MW4 8068   1.590   1.498   3.378  0.0530  0.0963  0.7029
 2006SOL     OW 8069   1.384   1.689   3.462  0.4129 -0.4709  0.2661
 2006SOL    HW2 8070   1.370   1.674   3.555  0.6531 -0.4727  0.3004
 2006SOL    HW3 8071   1.461   1.637   3.440  0.5039 -0.2744  0.1194
 2006SOL    MW4 8072   1.392   1.680   3.471  0.4566 -0.4451  0.2513
 2007SOL     OW 8073   1.341   1.964   3.351 -0.2244 -0.1078 -0.2532
 2007SOL    HW2 8074   1.420   1.999   3.391  0.8093 -0.6291 -1.8299
 2007SOL    HW3 8075   1.346   1.870   3.367  0.2101 -0.3210 -1.6378
 2007SOL    MW4 8076   1.352   1.956   3.358 -0.0305 -0.2047 -0.6437
 2008SOL     OW 8077   1.567   2.060   3.477 -0.5094 -0.2333 -0.0452
 2008SOL    HW2 8078   1.648   2.023   3.441 -1.3887 -1.6590 -0.6152
 2008SOL    HW3 8079   1.571   2.153   3.454  1.3188 -0.1197  0.6170
 2008SOL    MW4 8080   1.578   2.068   3.469 -0.3841 -0.4065 -0.0331
 2009SOL     OW 8081   1.632   2.305   3.380 -0.2022  0.1201  0.0862
 2009SOL    HW2 8082   1.544   2.340   3.394 -1.1379 -1.5081 -1.5500
 2009SOL    HW3 8083   1.637   2.288   3.286  1.5806 -0.5526  0.2812
 2009SOL    MW4 8084   1.621   2.308   3.370 -0.0904 -0.1831 -0.1040
 2010SOL     OW 8085   1.388   2.433   3.426  0.2080 -0.1362 -0.3873
 2010SOL    HW2 8086   1.376   2.423   3.520 -1.1491 -0.7194 -0.6188
 2010SOL    HW3 8087   1.387   2.527   3.411  1.7760  0.0165  0.3404
 2010SOL    MW4 8088   1.386   2.444   3.436  0.2359 -0.1931 -0.3219
 2011SOL     OW 8089   1.359   2.703   3.372  0.4049  0.2256 -0.5146
 2011SOL    HW2 8090   1.435   2.739   3.417 -1.1575  1.4574  1.2296
 2011SOL    HW3 8091   1.377   2.714   3.279  2.2062  0.7631 -0.1029
 2011SOL    MW4 8092   1.371   2.709   3.365  0.4364  0.4592 -0.2303
 2012SOL     OW 8093   1.583   2.821   3.479  0.0087 -0.4877  0.0713
 2012SOL    HW2 8094   1.664   2.774   3.458  0.2812 -0.0701  0.1892
 2012SOL    HW3 8095   1.597   2.909   3.444 -0.1240 -0.2133  0.7104
 2012SOL    MW4 8096   1.596   2.826   3.471  0.0272 -0.3963  0.1712
 2013SOL     OW 8097   1.598   3.085   3.407 -0.0457 -0.4214  0.3884
 2013SOL    HW2 8098   1.679   3.126   3.438  0.0597  1.2655 -2.0250
 2013SOL    HW3 8099   1.528   3.137   3.446 -0.0011 -1.4983  1.9647
 2013SOL    MW4 8100   1.600   3.097   3.416 -0.0260 -0.3407  0.2780
 2014SOL     OW 8101   1.347   3.205   3.499 -0.0621 -0.1967  0.2553
 2014SOL    HW2 8102   1.342   3.220   3.593 -0.9757  0.1499  0.1522
 2014SOL    HW3 8103   1.273   3.147   3.479 -1.0971  1.3689 -0.5591
 2014SOL    MW4 8104   1.337   3.199   3.508 -0.3191  0.0553  0.1342
 2015SOL     OW 8105   1.358   3.472   3.410  0.1864  0.2090 -0.2867
 2015SOL    HW2 8106   1.346   3.383   3.442 -0.1913  0.5978  0.7131
 2015SOL    HW3 8107   1.273   3.514   3.425  0.2284  0.6167 -1.1503
 2015SOL    MW4 8108   1.345   3.466   3.416  0.1420  0.3142 -0.2689
 2016SOL     OW 8109   1.599   3.587   3.497  0.3748  0.2836 -0.2868
 2016SOL    HW2 8110   1.582   3.588   3.591  1.5770  2.2845 -0.0647
 2016SOL    HW3 8111   1.514   3.568   3.457 -0.5880  1.5803  1.1207
 2016SOL    MW4 8112   1.586   3.584   3.504  0.4063  0.7186 -0.0718
 2017SOL     OW 8113   1.606   3.872   3.444 -0.2736 -0.2129  0.2478
 2017SOL    HW2 8114   1.603   3.780   3.471  1.0075 -0.0833  0.8621
 2017SOL    HW3 8115   1.600   3.869   3.349 -0.2104 -0.9309  0.2632
 2017SOL    MW4 8116   1.605   3.859   3.435 -0.0962 -0.2909  0.3307
 2018SOL     OW 8117   1.356   3.966   3.507 -0.3741  0.1395 -0.1295
 2018SOL    HW2 8118   1.350   4.055   3.472 -1.2590  0.6143  1.2056
 2018SOL    HW3 8119   1.446   3.940   3.491  0.0064  1.4421 -0.1618
 2018SOL    MW4 8120   1.367   3.974   3.500 -0.4407  0.3741  0.0422
 2019SOL     OW 8121   1.334   4.225   3.405 -0.4822 -0.0407  0.1367
 2019SOL    HW2 8122   1.273   4.296   3.424 -2.2624 -1.5500  0.1817
 2019SOL    HW3 8123   1.337   4.221   3.309  0.2971  0.6582  0.1291
 2019SOL    MW4 8124   1.326   4.234   3.395 -0.6142 -0.1483  0.1416
 2020SOL     OW 8125   1.559   4.380   3.513 -0.4385 -0.4954 -0.3344
 2020SOL    HW2 8126   1.648   4.350   3.495 -0.4676 -0.7788 -0.0218
 2020SOL    HW3 8127   1.503   4.307   3.483 -0.4766 -1.0600  1.0859
 2020SOL    MW4 8128   1.563   4.366   3.507 -0.4472 -0.6080 -0.1056
 2021SOL     OW 8129   2.035   4.666   3.389  0.2217 -0.6393 -0.3495
 2021SOL    HW2 8130   2.110   4.704   3.435  0.3431 -1.7493  0.4073
 2021SOL    HW3 8131   1.960   4.718   3.419  0.6760  0.4637 -1.0979
 2021SOL    MW4 8132   2.035   4.678   3.399  0.2975 -0.6404 -0.3483
 2022SOL     OW 8133   1.797   0.099   3.492 -0.3158  0.0052 -0.4582
 2022SOL    HW2 8134   1.796   0.099   3.588 -0.4305  0.5170 -0.4574
 2022SOL    HW3 8135   1.729   0.037   3.467 -0.9255  0.5747 -0.2099
 2022SOL    MW4 8136   1.788   0.091   3.501 -0.4114  0.1479 -0.4253
 2023SOL     OW 8137   1.780   0.397   3.425  0.2772 -0.4527 -0.0754
 2023SOL    HW2 8138   1.777   0.306   3.456  1.2117 -0.2754  0.5816
 2023SOL    HW3 8139   1.770   0.390   3.330 -0.9169 -1.1427  0.0866
 2023SOL    MW4 8140   1.779   0.384   3.417  0.2429 -0.5204  0.0329
 2024SOL     OW 8141   2.032   0.477   3.544 -0.4295  0.4496 -0.9601
 2024SOL    HW2 8142   2.046   0.570   3.526  0.3282  0.7004  0.8204
 2024SOL    HW3 8143   1.948   0.457   3.502 -0.5511  1.9108 -1.4507
 2024SOL    MW4 8144   2.023   0.487   3.536 -0.3457  0.6754 -0.7899
 2025SOL     OW 8145   2.037   0.745   3.438  0.0899  0.4640  0.5854
 2025SOL    HW2 8146   2.104   0.811   3.456 -0.7579  1.3859  0.3917
 2025SOL    HW3 8147   2.027   0.746   3.343  0.1699 -0.0394  0.5719
 2025SOL    MW4 8148   2.045   0.754   3.428 -0.0114  0.5192  0.5581
 2026SOL     OW 8149   1.784   0.874   3.517 -0.5119  0.2606  0.1763
 2026SOL    HW2 8150   1.855   0.826   3.474 -0.3337 -0.5355  1.3380
 2026SOL    HW3 8151   1.704   0.835   3.482 -0.3708 -0.9809  1.1985
 2026SOL    MW4 8152   1.783   0.862   3.507 -0.4698 -0.0082  0.4644
 2027SOL     OW 8153   1.790   1.136   3.415 -0.2433 -0.0904 -0.3709
 2027SOL    HW2 8154   1.873   1.172   3.447  0.9812 -1.1121 -2.3500
 2027SOL    HW3 8155   1.790   1.045   3.446 -0.7768 -0.0044 -0.1155
 2027SOL    MW4 8156   1.801   1.129   3.423 -0.1521 -0.2139 -0.5984
 2028SOL     OW 8157   2.004   1.259   3.502 -0.3773 -0.1610  0.2382
 2028SOL    HW2 8158   1.986   1.272   3.595 -1.5048 -1.3609  0.2025
 2028SOL    HW3 8159   1.990   1.346   3.463  0.7837  0.4948  1.2834
 2028SOL    MW4 8160   2.000   1.272   3.509 -0.3728 -0.2327  0.3719
 2029SOL     OW 8161   1.981   1.500   3.372 -0.0972 -0.1174 -0.2499
 2029SOL    HW2 8162   2.061   1.525   3.420 -0.4767  1.5732 -0.4692
 2029SOL    HW3 8163   1.919   1.570   3.393 -1.5988 -1.5563  0.1101
 2029SOL    MW4 8164   1.984   1.513   3.381 -0.3453 -0.0840 -0.2315
 2030SOL     OW 8165   1.797   1.695   3.461 -0.1144 -0.0406 -0.5842
 2030SOL    HW2 8166   1.778   1.784   3.431  0.8308  0.3303 -0.0986
 2030SOL    HW3 8167   1.723   1.643   3.430 -1.5174  1.2205  0.5786
 2030SOL    MW4 8168   1.785   1.700   3.453 -0.1748  0.1746 -0.3667
 2031SOL     OW 8169   1.772   1.962   3.342 -0.0632 -0.0899  0.3718
 2031SOL    HW2 8170   1.856   1.995   3.374  0.9285 -2.7340  0.6104
 2031SOL    HW3 8171   1.788   1.940   3.250 -0.6516 -0.1491  0.2788
 2031SOL    MW4 8172   1.785   1.963   3.334 -0.0101 -0.4467  0.3910
 2032SOL     OW 8173   2.007   2.037   3.481  0.5422  0.1334 -0.0830
 2032SOL    HW2 8174   2.084   1.986   3.455  0.3703  0.6727 -1.6522
 2032SOL    HW3 8175   2.020   2.123   3.443 -0.8463  0.2299 -0.3662
 2032SOL    MW4 8176   2.019   2.041   3.473  0.3364  0.2174 -0.3273
 2033SOL     OW 8177   2.052   2.311   3.339 -0.0277 -0.4454 -0.3423
 2033SOL    HW2 8178   2.135   2.342   3.374  0.1298 -0.8130 -0.3835
 2033SOL    HW3 8179   2.060   2.321   3.244 -0.1036 -0.2974 -0.3322
 2033SOL    MW4 8180   2.064   2.316   3.331 -0.0167 -0.4745 -0.3462
 2034SOL     OW 8181   1.840   2.430   3.482  0.3621  0.4521 -0.2581
 2034SOL    HW2 8182   1.920   2.399   3.439  0.6488  1.2402 -0.2982
 2034SOL    HW3 8183   1.771   2.371   3.449  1.1072 -0.9871  0.6824
 2034SOL    MW4 8184   1.841   2.418   3.472  0.4983  0.3664 -0.1392
 2035SOL     OW 8185   1.819   2.708   3.413  0.4205  0.1627  0.1361
 2035SOL    HW2 8186   1.901   2.731   3.456  1.0344 -1.3071 -0.2438
 2035SOL    HW3 8187   1.813   2.613   3.420 -0.7482  0.1552 -0.7441
 2035SOL    MW4 8188   1.829   2.699   3.420  0.3474 -0.0319 -0.0303
 2036SOL     OW 8189   2.045   2.829   3.513  0.0486 -0.1065 -0.2758
 2036SOL    HW2 8190   2.052   2.841   3.608  1.2707 -0.1779 -0.3543
 2036SOL    HW3 8191   2.044   2.918   3.478 -2.8711  0.0110 -0.0560
 2036SOL    MW4 8192   2.046   2.842   3.521 -0.1750 -0.1004 -0.2573
 2037SOL     OW 8193   2.092   3.079   3.388  0.0036 -0.0441  0.2143
 2037SOL    HW2 8194   2.163   3.141   3.409  0.1129 -0.3608  0.7832
 2037SOL    HW3 8195   2.013   3.122   3.418  0.1360 -0.4023  1.0903
 2037SOL    MW4 8196   2.091   3.093   3.395  0.0353 -0.1330  0.4046
 2038SOL     OW 8197   1.853   3.198   3.483 -0.1662  0.6992 -0.2338
 2038SOL    HW2 8198   1.844   3.197   3.578 -1.4268  0.0355 -0.3508
 2038SOL    HW3 8199   1.840   3.289   3.458 -0.3125  0.7945  0.1901
 2038SOL    MW4 8200   1.850   3.209   3.492 -0.3518  0.6244 -0.1934
 2039SOL     OW 8201   1.813   3.448   3.399 -0.3570  0.0500 -0.1099
 2039SOL    HW2 8202   1.740   3.497   3.437  1.4071  2.1661  0.6778
 2039SOL    HW3 8203   1.800   3.454   3.305 -0.9958  0.7587  0.0184
 2039SOL    MW4 8204   1.802   3.455   3.392 -0.2085  0.4227  0.0110
 2040SOL     OW 8205   2.049   3.586   3.467 -0.0776 -0.7196 -0.3256
 2040SOL    HW2 8206   2.125   3.540   3.431  0.1856  0.7865 -1.7386
 2040SOL    HW3 8207   1.974   3.533   3.442  0.2866 -0.7680 -1.3366
 2040SOL    MW4 8208   2.049   3.573   3.459  0.0052 -0.5274 -0.6454
 2041SOL     OW 8209   2.035   3.866   3.375 -0.1752 -0.4004 -0.0333
 2041SOL    HW2 8210   1.959   3.908   3.416  0.0932  0.2900 -0.2270
 2041SOL    HW3 8211   2.038   3.779   3.414 -0.3233  0.0069  0.9230
 2041SOL    MW4 8212   2.025   3.860   3.386 -0.1593 -0.2556  0.0675
 2042SOL     OW 8213   1.831   4.015   3.499 -0.0224  0.2767 -0.1508
 2042SOL    HW2 8214   1.849   4.007   3.593 -1.0648  0.4169  0.0585
 2042SOL    HW3 8215   1.762   3.951   3.482 -0.3067  0.7282 -0.6939
 2042SOL    MW4 8216   1.824   4.005   3.510 -0.1975  0.3548 -0.1945
 2043SOL     OW 8217   1.804   4.266   3.417  0.2288  0.2342 -0.0419
 2043SOL    HW2 8218   1.803   4.174   3.443 -2.9920 -0.3525 -2.0050
 2043SOL    HW3 8219   1.804   4.265   3.322 -0.1838  2.2779 -0.0982
 2043SOL    MW4 8220   1.804   4.254   3.408 -0.2507  0.4263 -0.3083
 2044SOL     OW 8221   2.039   4.393   3.482 -0.0811 -0.3125 -0.2075
 2044SOL    HW2 8222   1.954   4.355   3.462  0.8552 -1.8557 -1.3503
 2044SOL    HW3 8223   2.035   4.482   3.447 -2.1432  0.5768  2.1133
 2044SOL    MW4 8224   2.027   4.400   3.475 -0.2296 -0.3982 -0.0520
 2045SOL     OW 8225   2.479   4.637   3.431  0.1194 -0.7239  0.4409
 2045SOL    HW2 8226   2.494   4.544   3.447  1.9834 -0.8902 -2.0189
 2045SOL    HW3 8227   2.480   4.645   3.336 -1.5082  1.5907  0.5891
 2045SOL    MW4 8228   2.481   4.626   3.421  0.1504 -0.4406  0.1357
 2046SOL     OW 8229   2.236   0.090   3.539  0.0225 -0.4716  0.0348
 2046SOL    HW2 8230   2.249   0.181   3.513 -0.6729 -0.1345  0.8643
 2046SOL    HW3 8231   2.309   0.043   3.498  0.0833  0.3676 -0.8378
 2046SOL    MW4 8232   2.247   0.095   3.530 -0.0613 -0.3164  0.0291
 2047SOL     OW 8233   2.261   0.344   3.447  0.0315  0.3167 -0.2234
 2047SOL    HW2 8234   2.339   0.396   3.463 -0.4527  1.3800 -1.2118
 2047SOL    HW3 8235   2.189   0.395   3.484 -0.4533  0.3864 -1.2277
 2047SOL    MW4 8236   2.262   0.357   3.454 -0.0966  0.4662 -0.4864
 2048SOL     OW 8237   2.465   0.491   3.558 -0.0176 -0.3170  0.0308
 2048SOL    HW2 8238   2.536   0.448   3.511  1.3233  0.1980  1.5289
 2048SOL    HW3 8239   2.464   0.581   3.525  0.4563 -0.1494  0.4692
 2048SOL    MW4 8240   2.474   0.497   3.548  0.2222 -0.2269  0.2866
 2049SOL     OW 8241   2.470   0.755   3.468 -0.1302  0.2807  0.2846
 2049SOL    HW2 8242   2.548   0.807   3.488  0.7289 -0.9377  0.1779
 2049SOL    HW3 8243   2.465   0.755   3.373  0.7615 -1.0750  0.2160
 2049SOL    MW4 8244   2.480   0.762   3.458  0.1009 -0.0589  0.2615
 2050SOL     OW 8245   2.236   0.907   3.519 -0.2577 -0.1887  0.2713
 2050SOL    HW2 8246   2.250   0.994   3.481  0.7451 -0.0135  1.0102
 2050SOL    HW3 8247   2.313   0.857   3.492 -0.5128 -0.6510  0.4008
 2050SOL    MW4 8248   2.248   0.912   3.511 -0.1593 -0.2266  0.3858
 2051SOL     OW 8249   2.220   1.143   3.367  0.3907  0.4550  0.2574
 2051SOL    HW2 8250   2.285   1.204   3.400  0.0088  0.6149  0.7169
 2051SOL    HW3 8251   2.140   1.164   3.415  0.3305 -0.5994  0.6415
 2051SOL    MW4 8252   2.218   1.154   3.378  0.3321  0.3371  0.3688
 2052SOL     OW 8253   2.439   1.267   3.487  0.4197 -0.4262  0.0057
 2052SOL    HW2 8254   2.433   1.267   3.582 -0.8672  1.6875 -0.0395
 2052SOL    HW3 8255   2.524   1.227   3.468  0.6156 -1.0016  2.0199
 2052SOL    MW4 8256   2.450   1.262   3.497  0.2756 -0.2233  0.2656
 2053SOL     OW 8257   2.466   1.525   3.418  0.1664  0.1457 -0.6027
 2053SOL    HW2 8258   2.455   1.433   3.443 -1.2785  0.4401 -0.1093
 2053SOL    HW3 8259   2.480   1.522   3.324 -0.0270 -0.5710 -0.6170
 2053SOL    MW4 8260   2.466   1.512   3.409 -0.0496  0.0900 -0.5395
 2054SOL     OW 8261   2.204   1.605   3.494 -0.0560  0.4329  0.1535
 2054SOL    HW2 8262   2.196   1.600   3.589 -0.6286  1.0448  0.1423
 2054SOL    HW3 8263   2.295   1.581   3.476  0.0478  0.2915  0.8538
 2054SOL    MW4 8264   2.215   1.601   3.504 -0.1180  0.4948  0.2444
 2055SOL     OW 8265   2.256   1.882   3.450  0.1103 -0.1550 -0.4524
 2055SOL    HW2 8266   2.235   1.791   3.473  0.2556 -0.0752  0.0136
 2055SOL    HW3 8267   2.268   1.881   3.355 -0.8974 -0.4184 -0.5827
 2055SOL    MW4 8268   2.255   1.870   3.441 -0.0038 -0.1792 -0.4082
 2056SOL     OW 8269   2.441   2.059   3.495  0.1182  0.0988  0.0152
 2056SOL    HW2 8270   2.443   2.055   3.591 -1.4825 -0.9228  0.0281
 2056SOL    HW3 8271   2.367   2.002   3.470  1.7802 -1.2806 -1.9264
 2056SOL    MW4 8272   2.431   2.051   3.504  0.1261 -0.2182 -0.2391
 2057SOL     OW 8273   2.488   2.294   3.363  0.2377  0.5294  0.4542
 2057SOL    HW2 8274   2.556   2.339   3.415  0.9603  0.1649 -0.1702
 2057SOL    HW3 8275   2.462   2.219   3.418 -0.9614  1.6793  1.4928
 2057SOL    MW4 8276   2.494   2.290   3.377  0.1750  0.6330  0.5088
 2058SOL     OW 8277   2.267   2.423   3.482 -0.3608  0.1748  0.1494
 2058SOL    HW2 8278   2.272   2.517   3.470  0.0541  0.1344  0.0073
 2058SOL    HW3 8279   2.344   2.388   3.437 -0.2359 -0.1860  0.6326
 2058SOL    MW4 8280   2.278   2.431   3.475 -0.2894  0.1221  0.1945
 2059SOL     OW 8281   2.245   2.706   3.384  0.9150 -0.2284  0.0040
 2059SOL    HW2 8282   2.167   2.747   3.421  0.8255 -0.0941 -0.3376
 2059SOL    HW3 8283   2.232   2.708   3.290  1.0665 -0.7349 -0.0333
 2059SOL    MW4 8284   2.233   2.712   3.377  0.9232 -0.2775 -0.0460
 2060SOL     OW 8285   2.479   2.822   3.492 -0.3993 -0.1163  0.1496
 2060SOL    HW2 8286   2.497   2.905   3.447  0.9937 -0.6916 -0.4087
 2060SOL    HW3 8287   2.398   2.790   3.452  0.3761 -0.2121 -1.4088
 2060SOL    MW4 8288   2.471   2.828   3.481 -0.1135 -0.2048 -0.1295
 2061SOL     OW 8289   2.516   3.070   3.382 -0.4916 -0.1184 -0.4239
 2061SOL    HW2 8290   2.586   3.133   3.403 -1.1974  0.6300 -0.2763
 2061SOL    HW3 8291   2.522   3.059   3.287  1.1136 -1.6041 -0.1650
 2061SOL    MW4 8292   2.526   3.077   3.372 -0.3731 -0.2158 -0.3703
 2062SOL     OW 8293   2.303   3.238   3.464  0.3122  0.0740  0.4534
 2062SOL    HW2 8294   2.307   3.249   3.559  2.0389  0.2810  0.3776
 2062SOL    HW3 8295   2.367   3.170   3.445 -0.9491 -0.8716 -0.4394
 2062SOL    MW4 8296   2.312   3.231   3.474  0.3736 -0.0234  0.3257
 2063SOL     OW 8297   2.274   3.478   3.337 -0.3588  0.2150  0.2183
 2063SOL    HW2 8298   2.278   3.389   3.371  0.7738  0.5038  0.8784
 2063SOL    HW3 8299   2.278   3.468   3.242 -0.9530 -0.4678  0.2655
 2063SOL    MW4 8300   2.275   3.465   3.329 -0.2875  0.1631  0.3116
 2064SOL     OW 8301   2.473   3.620   3.481 -0.0741 -0.0427 -0.4630
 2064SOL    HW2 8302   2.502   3.705   3.449 -0.4692  0.4352  0.4174
 2064SOL    HW3 8303   2.398   3.598   3.427 -0.6456  0.6846  0.0323
 2064SOL    MW4 8304   2.467   3.628   3.470 -0.2015  0.1159 -0.2816
 2065SOL     OW 8305   2.494   3.874   3.390 -0.0764  0.1525  0.0600
 2065SOL    HW2 8306   2.559   3.935   3.423  0.4863 -0.2931 -0.2196
 2065SOL    HW3 8307   2.411   3.907   3.423  0.0075  2.0783 -1.5353
 2065SOL    MW4 8308   2.492   3.886   3.398  0.0088  0.3479 -0.1869
 2066SOL     OW 8309   2.266   3.974   3.496 -0.0661 -0.4307  0.3848
 2066SOL    HW2 8310   2.268   4.067   3.473  1.4477 -0.8637 -1.3274
 2066SOL    HW3 8311   2.188   3.941   3.451 -0.1642 -0.1454  0.3430
 2066SOL    MW4 8312   2.256   3.982   3.487  0.1206 -0.4504  0.1533
 2067SOL     OW 8313   2.275   4.238   3.408 -0.2855  0.4222  0.1048
 2067SOL    HW2 8314   2.191   4.277   3.432 -0.1921  0.4085  0.4501
 2067SOL    HW3 8315   2.276   4.241   3.312  0.1178  2.1129  0.1494
 2067SOL    MW4 8316   2.264   4.244   3.398 -0.2198  0.6433  0.1564
 2068SOL     OW 8317   2.498   4.373   3.498  0.0679  0.0720  0.2667
 2068SOL    HW2 8318   2.495   4.374   3.594  0.3270 -0.3197  0.2780
 2068SOL    HW3 8319   2.420   4.325   3.472  0.5199 -0.6928  0.3075
 2068SOL    MW4 8320   2.488   4.367   3.507  0.1619 -0.0811  0.2739
 2069SOL     OW 8321   2.917   0.005   3.441 -0.0133  0.0161  0.1742
 2069SOL    HW2 8322   2.842   0.047   3.483 -1.6385 -1.8287 -0.7901
 2069SOL    HW3 8323   2.901   0.013   3.347 -0.2021 -2.3779 -0.0394
 2069SOL    MW4 8324   2.905   0.012   3.434 -0.2525 -0.5432  0.0186
 2070SOL     OW 8325   2.684   0.106   3.555  0.1893  0.1593 -0.1305
 2070SOL    HW2 8326   2.678   0.196   3.523 -1.1182  0.7701  1.7012
 2070SOL    HW3 8327   2.611   0.060   3.512  1.7181 -0.4320 -2.1817
 2070SOL    MW4 8328   2.674   0.111   3.545  0.2184  0.1618 -0.1597
 2071SOL     OW 8329   2.683   0.363   3.429 -0.0775  0.1281 -0.0643
 2071SOL    HW2 8330   2.771   0.376   3.466 -0.0180 -2.9021  1.0332
 2071SOL    HW3 8331   2.695   0.370   3.335  1.4625 -0.7593  0.0472
 2071SOL    MW4 8332   2.696   0.366   3.422  0.1335 -0.3888  0.0951
 2072SOL     OW 8333   2.914   0.484   3.560 -0.0575  0.1453 -0.5987
 2072SOL    HW2 8334   2.920   0.497   3.655 -0.3885  1.3690 -0.7338
 2072SOL    HW3 8335   2.912   0.573   3.524 -1.7768 -0.2902 -1.6338
 2072SOL    MW4 8336   2.915   0.498   3.568 -0.3278  0.2493 -0.7532
 2073SOL     OW 8337   2.907   0.728   3.443  0.2655 -0.4065  0.1019
 2073SOL    HW2 8338   2.990   0.771   3.466  0.3401  0.1775 -1.2425
 2073SOL    HW3 8339   2.841   0.784   3.484  0.4235  0.3685 -0.6860
 2073SOL    MW4 8340   2.909   0.741   3.452  0.2961 -0.2272 -0.1795
 2074SOL     OW 8341   2.686   0.887   3.543 -0.2969  0.0005  0.0773
 2074SOL    HW2 8342   2.676   0.889   3.638  1.8167 -0.2692  0.3428
 2074SOL    HW3 8343   2.664   0.975   3.514 -1.2122  0.0076  0.7848
 2074SOL    MW4 8344   2.682   0.899   3.552 -0.1388 -0.0341  0.2055
 2075SOL     OW 8345   2.667   1.133   3.437  0.0654  0.0059 -0.0260
 2075SOL    HW2 8346   2.743   1.177   3.476 -0.2570  0.5552 -0.0134
 2075SOL    HW3 8347   2.688   1.129   3.343  0.3441 -0.3193  0.0476
 2075SOL    MW4 8348   2.680   1.139   3.430  0.0596  0.0355 -0.0148
 2076SOL     OW 8349   2.912   1.293   3.499 -0.0015  0.3911 -0.2137
 2076SOL    HW2 8350   2.905   1.287   3.594 -0.1309  0.9169 -0.1891
 2076SOL    HW3 8351   2.988   1.239   3.477  0.8505  1.3550  0.3260
 2076SOL    MW4 8352   2.921   1.286   3.509  0.0937  0.5876 -0.1392
 2077SOL     OW 8353   2.911   1.527   3.334 -0.1138 -0.5501  0.0553
 2077SOL    HW2 8354   2.847   1.594   3.359  0.5420  0.0045  0.3001
 2077SOL    HW3 8355   2.907   1.462   3.404  0.6273  0.2271  0.8366
 2077SOL    MW4 8356   2.902   1.528   3.347  0.0708 -0.3744  0.1905
 2078SOL     OW 8357   2.696   1.675   3.486 -0.1824 -0.0647  0.6716
 2078SOL    HW2 8358   2.670   1.767   3.476 -0.6143 -0.3154 -0.6054
 2078SOL    HW3 8359   2.614   1.626   3.475  0.3757 -0.7136 -0.6788
 2078SOL    MW4 8360   2.681   1.681   3.484 -0.1657 -0.1833  0.3250
 2079SOL     OW 8361   2.677   1.943   3.407  0.3091 -0.5437  0.3106
 2079SOL    HW2 8362   2.598   1.993   3.428  1.8570  2.2932 -0.4267
 2079SOL    HW3 8363   2.670   1.926   3.313  0.9261  0.3542  0.0995
 2079SOL    MW4 8364   2.666   1.947   3.397  0.5949 -0.0509  0.1853
 2080SOL     OW 8365   2.937   2.027   3.484 -0.7609  0.0525 -0.4558
 2080SOL    HW2 8366   2.939   2.040   3.579 -1.4014 -0.1070 -0.4144
 2080SOL    HW3 8367   2.849   1.994   3.467 -1.3876  2.0710 -1.3376
 2080SOL    MW4 8368   2.925   2.025   3.494 -0.9282  0.2978 -0.5667
 2081SOL     OW 8369   2.912   2.284   3.401  0.0499  0.2144 -0.4822
 2081SOL    HW2 8370   2.911   2.191   3.424 -0.7080  0.2389 -0.4123
 2081SOL    HW3 8371   2.911   2.285   3.305  0.8419  0.1460 -0.4972
 2081SOL    MW4 8372   2.912   2.272   3.392  0.0544  0.2089 -0.4749
 2082SOL     OW 8373   2.693   2.415   3.495 -0.3035  1.1320 -0.1101
 2082SOL    HW2 8374   2.728   2.436   3.582 -0.5349  0.5886  0.1183
 2082SOL    HW3 8375   2.764   2.369   3.451 -0.7854 -0.1411  0.4222
 2082SOL    MW4 8376   2.707   2.412   3.501 -0.3977  0.8924 -0.0095
 2083SOL     OW 8377   2.727   2.679   3.408  0.0505  0.3130 -0.2652
 2083SOL    HW2 8378   2.710   2.588   3.432 -2.7978  0.8045 -0.2416
 2083SOL    HW3 8379   2.653   2.727   3.446  1.8153  2.7210  0.2075
 2083SOL    MW4 8380   2.715   2.673   3.416 -0.0925  0.6957 -0.1998
 2084SOL     OW 8381   2.940   2.817   3.495 -0.2787 -0.1891 -0.4951
 2084SOL    HW2 8382   2.938   2.826   3.591 -2.3288  2.1955 -0.6994
 2084SOL    HW3 8383   2.860   2.768   3.475 -0.7874  0.8736 -1.0955
 2084SOL    MW4 8384   2.929   2.811   3.505 -0.6161  0.2658 -0.6013
 2085SOL     OW 8385   2.968   3.097   3.433  0.1367 -0.3321 -0.0437
 2085SOL    HW2 8386   2.942   3.007   3.451 -1.9994  0.3177  0.2152
 2085SOL    HW3 8387   2.982   3.100   3.338 -1.2757 -0.5685 -0.2656
 2085SOL    MW4 8388   2.966   3.086   3.423 -0.3314 -0.2775 -0.0391
 2086SOL     OW 8389   2.718   3.233   3.472 -0.0959 -0.6644  0.1736
 2086SOL    HW2 8390   2.723   3.224   3.567  0.9251 -0.8156  0.1120
 2086SOL    HW3 8391   2.795   3.186   3.439 -0.1176 -0.1065 -0.6908
 2086SOL    MW4 8392   2.729   3.226   3.480  0.0360 -0.6108  0.0513
 2087SOL     OW 8393   2.700   3.491   3.393 -0.4945 -0.3319  0.2014
 2087SOL    HW2 8394   2.694   3.400   3.423 -0.6175 -0.1479  0.7324
 2087SOL    HW3 8395   2.621   3.532   3.427  0.3208  0.3652  1.2903
 2087SOL    MW4 8396   2.689   3.484   3.401 -0.4032 -0.2155  0.4153
 2088SOL     OW 8397   2.933   3.610   3.481 -0.2378  0.0506  0.0428
 2088SOL    HW2 8398   2.933   3.698   3.446  0.7835 -0.5909 -1.6194
 2088SOL    HW3 8399   2.849   3.573   3.456 -0.3096  0.2494 -0.0061
 2088SOL    MW4 8400   2.922   3.616   3.473 -0.1123 -0.0076 -0.1831
 2089SOL     OW 8401   2.947   3.854   3.363  0.1559 -0.0590 -0.0808
 2089SOL    HW2 8402   3.016   3.915   3.388  0.6804 -0.5646 -0.2859
 2089SOL    HW3 8403   2.867   3.892   3.399  0.3923  1.0311 -0.6656
 2089SOL    MW4 8404   2.945   3.867   3.371  0.2563  0.0179 -0.1850
 2090SOL     OW 8405   2.733   3.990   3.488 -0.1709  0.1153  0.5347
 2090SOL    HW2 8406   2.732   3.993   3.584 -0.1499  1.7609  0.5069
 2090SOL    HW3 8407   2.766   4.076   3.463  0.2586 -0.4758 -0.9483
 2090SOL    MW4 8408   2.737   4.002   3.498 -0.1113  0.2542  0.3352
 2091SOL     OW 8409   2.753   4.250   3.388  0.3115 -0.2693 -0.0643
 2091SOL    HW2 8410   2.817   4.310   3.428  0.4365 -0.5248  0.1207
 2091SOL    HW3 8411   2.669   4.274   3.429  0.5905 -1.1440  1.0479
 2091SOL    MW4 8412   2.750   4.261   3.399  0.3650 -0.4187  0.1068
 2092SOL     OW 8413   2.950   4.392   3.511  0.3449 -0.2057 -0.4630
 2092SOL    HW2 8414   2.940   4.377   3.605  1.0966 -1.2252 -0.5391
 2092SOL    HW3 8415   2.936   4.486   3.500 -1.1609 -0.3003  0.4713
 2092SOL    MW4 8416   2.946   4.402   3.522  0.2453 -0.3529 -0.3498
 2093SOL     OW 8417   3.376   4.631   3.373  0.0458  0.2407  0.0650
 2093SOL    HW2 8418   3.306   4.662   3.431 -0.1014 -0.4103  0.2307
 2093SOL    HW3 8419   3.336   4.629   3.287 -0.0226  0.2490  0.0963
 2093SOL    MW4 8420   3.362   4.635   3.370  0.0174  0.1559  0.0906
 2094SOL     OW 8421   3.167   0.099   3.519 -1.1783  0.0525  0.4042
 2094SOL    HW2 8422   3.184   0.192   3.506  0.8401 -0.3410 -0.0609
 2094SOL    HW3 8423   3.073   0.089   3.506 -1.3427  1.9441 -0.0098
 2094SOL    MW4 8424   3.157   0.110   3.516 -0.9336  0.2502  0.2882
 2095SOL     OW 8425   3.150   0.387   3.468  0.3862 -0.0915  0.3263
 2095SOL    HW2 8426   3.061   0.414   3.492  1.0410  1.7461  0.7352
 2095SOL    HW3 8427   3.148   0.382   3.372 -0.5290 -1.4195  0.3986
 2095SOL    MW4 8428   3.138   0.390   3.458  0.3517 -0.0242  0.3898
 2096SOL     OW 8429   3.388   0.514   3.533 -0.6780 -0.0471 -0.6861
 2096SOL    HW2 8430   3.387   0.513   3.628 -0.3748 -0.7082 -0.6853
 2096SOL    HW3 8431   3.309   0.468   3.507  1.4078 -3.7897 -0.7281
 2096SOL    MW4 8432   3.377   0.508   3.542 -0.3629 -0.6281 -0.6914
 2097SOL     OW 8433   3.357   0.750   3.395 -0.5526 -0.1430 -0.1423
 2097SOL    HW2 8434   3.417   0.819   3.423  0.9668 -0.5994 -2.1619
 2097SOL    HW3 8435   3.381   0.673   3.448 -0.2733  0.0498  0.0073
 2097SOL    MW4 8436   3.368   0.749   3.406 -0.3152 -0.1777 -0.3891
 2098SOL     OW 8437   3.136   0.866   3.536  0.0274 -0.1054  0.0881
 2098SOL    HW2 8438   3.134   0.949   3.489 -1.4366 -0.2825 -0.2020
 2098SOL    HW3 8439   3.198   0.812   3.488 -0.4944  0.1495 -0.8754
 2098SOL    MW4 8440   3.144   0.870   3.524 -0.2346 -0.0951 -0.0772
 2099SOL     OW 8441   3.124   1.117   3.419 -0.5039 -0.1296 -0.2221
 2099SOL    HW2 8442   3.202   1.164   3.448 -0.6043  0.6022 -1.1231
 2099SOL    HW3 8443   3.134   1.108   3.325 -1.5505  0.0479 -0.3638
 2099SOL    MW4 8444   3.135   1.122   3.411 -0.6554 -0.0095 -0.3595
 2100SOL     OW 8445   3.322   1.284   3.509 -0.4628 -0.0161  0.1879
 2100SOL    HW2 8446   3.406   1.243   3.489 -0.7657 -1.3826  1.5247
 2100SOL    HW3 8447   3.333   1.376   3.486  0.7924 -0.5354 -1.3627
 2100SOL    MW4 8448   3.334   1.290   3.504 -0.3374 -0.2650  0.1597
 2101SOL     OW 8449   3.349   1.544   3.400  0.1182  0.0524 -0.9413
 2101SOL    HW2 8450   3.416   1.592   3.449  0.9412  0.5422 -2.4946
 2101SOL    HW3 8451   3.267   1.564   3.445  0.9338 -0.1547  0.6895
 2101SOL    MW4 8452   3.347   1.553   3.412  0.3345  0.0898 -0.9313
 2102SOL     OW 8453   3.109   1.643   3.503  0.1840  0.0784  0.1534
 2102SOL    HW2 8454   3.139   1.726   3.467 -0.4103 -0.2191 -1.0881
 2102SOL    HW3 8455   3.050   1.608   3.435 -0.8631 -0.5689  1.3747
 2102SOL    MW4 8456   3.105   1.649   3.489 -0.0327 -0.0463  0.1507
 2103SOL     OW 8457   3.146   1.888   3.375 -0.2506 -0.0646  0.1602
 2103SOL    HW2 8458   3.064   1.930   3.401 -0.3637 -0.5188  0.5469
 2103SOL    HW3 8459   3.142   1.885   3.279 -0.7480 -0.2128  0.1854
 2103SOL    MW4 8460   3.135   1.893   3.366 -0.3312 -0.1441  0.2148
 2104SOL     OW 8461   3.334   2.028   3.494 -0.0626  0.2572  0.1927
 2104SOL    HW2 8462   3.328   2.118   3.462 -1.5110  0.2254  0.3114
 2104SOL    HW3 8463   3.270   1.980   3.441  0.1595 -0.5391  0.6378
 2104SOL    MW4 8464   3.325   2.034   3.483 -0.2244  0.1478  0.2670
 2105SOL     OW 8465   3.330   2.292   3.410  0.0899  0.2000  0.1810
 2105SOL    HW2 8466   3.408   2.326   3.455 -0.7594  0.6543  1.3438
 2105SOL    HW3 8467   3.259   2.347   3.442 -0.4887  0.7835 -2.0644
 2105SOL    MW4 8468   3.331   2.304   3.420 -0.0985  0.3369  0.0381
 2106SOL     OW 8469   3.116   2.433   3.512 -0.2973  0.2117 -0.0711
 2106SOL    HW2 8470   3.098   2.522   3.483  0.7778  0.5502  0.2701
 2106SOL    HW3 8471   3.049   2.379   3.469 -1.5236  1.2918  0.4596
 2106SOL    MW4 8472   3.105   2.438   3.502 -0.3173  0.3989  0.0436
 2107SOL     OW 8473   3.164   2.701   3.402  0.0268  0.0631  0.2929
 2107SOL    HW2 8474   3.232   2.754   3.444 -0.4159  0.9192 -0.0593
 2107SOL    HW3 8475   3.082   2.745   3.423 -0.6732 -2.2630  2.6864
 2107SOL    MW4 8476   3.162   2.714   3.410 -0.1242 -0.1307  0.5622
 2108SOL     OW 8477   3.357   2.840   3.541 -0.1667 -0.6895 -0.4813
 2108SOL    HW2 8478   3.415   2.791   3.483  0.5130 -1.5009  0.8796
 2108SOL    HW3 8479   3.349   2.926   3.499 -0.5288 -1.5858 -2.3366
 2108SOL    MW4 8480   3.363   2.845   3.528 -0.1249 -0.9148 -0.5467
 2109SOL     OW 8481   3.379   3.098   3.469 -0.1023 -0.0454 -0.2707
 2109SOL    HW2 8482   3.462   3.123   3.509 -0.5151  0.5765  0.1923
 2109SOL    HW3 8483   3.317   3.165   3.497 -0.9234 -0.8935 -0.0564
 2109SOL    MW4 8484   3.382   3.110   3.478 -0.2654 -0.0751 -0.1812
 2110SOL     OW 8485   3.166   3.259   3.549  0.3972  0.7337  0.1553
 2110SOL    HW2 8486   3.153   3.337   3.496 -0.3345  0.8041  0.4372
 2110SOL    HW3 8487   3.109   3.193   3.509  0.6704  0.4698  0.1936
 2110SOL    MW4 8488   3.157   3.260   3.536  0.3369  0.7079  0.1976
 2111SOL     OW 8489   3.178   3.478   3.382  0.3829  0.0064  0.1680
 2111SOL    HW2 8490   3.090   3.513   3.394 -0.6204 -1.8150 -1.5156
 2111SOL    HW3 8491   3.190   3.475   3.287  1.3030 -2.0039  0.3109
 2111SOL    MW4 8492   3.168   3.482   3.371  0.3722 -0.4990 -0.0353
 2112SOL     OW 8493   3.398   3.588   3.512  0.1000  0.0205 -0.7971
 2112SOL    HW2 8494   3.403   3.676   3.476  0.3403  0.5857  0.5608
 2112SOL    HW3 8495   3.315   3.553   3.480  0.3692  0.4589 -1.9681
 2112SOL    MW4 8496   3.387   3.595   3.503  0.1674  0.1526 -0.7722
 2113SOL     OW 8497   3.377   3.852   3.401 -0.1104  0.6471 -0.0133
 2113SOL    HW2 8498   3.452   3.908   3.422  0.0850  0.2927  0.2374
 2113SOL    HW3 8499   3.301   3.901   3.434  0.0901  0.6101  0.5077
 2113SOL    MW4 8500   3.377   3.866   3.408 -0.0582  0.5956  0.0885
 2114SOL     OW 8501   3.147   3.995   3.472  0.3896 -0.0455  0.2132
 2114SOL    HW2 8502   3.149   3.988   3.568  0.9064  0.9047  0.2841
 2114SOL    HW3 8503   3.135   4.089   3.456  1.3397 -0.0667 -0.6577
 2114SOL    MW4 8504   3.145   4.007   3.483  0.5832  0.0772  0.1078
 2115SOL     OW 8505   3.154   4.261   3.379  0.3097  0.4716  0.6382
 2115SOL    HW2 8506   3.243   4.287   3.402 -0.2032  1.3586  1.6398
 2115SOL    HW3 8507   3.098   4.311   3.439 -0.9878  1.9581 -1.7389
 2115SOL    MW4 8508   3.158   4.271   3.390  0.0708  0.7844  0.4566
 2116SOL     OW 8509   3.387   4.362   3.459  0.0477 -0.1346 -0.3809
 2116SOL    HW2 8510   3.387   4.370   3.554 -0.2650 -0.7585 -0.3211
 2116SOL    HW3 8511   3.373   4.451   3.427 -0.8402 -0.0714  0.1685
 2116SOL    MW4 8512   3.385   4.375   3.467 -0.1106 -0.2084 -0.3004
 2117SOL     OW 8513   3.812   4.653   3.400 -0.4687 -0.2672  0.0383
 2117SOL    HW2 8514   3.730   4.694   3.428  0.4276  0.9263  0.9894
 2117SOL    HW3 8515   3.817   4.671   3.306  0.3680  2.7202  0.6005
 2117SOL    MW4 8516   3.802   4.661   3.391 -0.2401  0.2842  0.2382
 2118SOL     OW 8517   3.574   0.094   3.478 -0.3656 -0.3073 -0.3014
 2118SOL    HW2 8518   3.568   0.181   3.440 -1.8650 -0.0482  0.4649
 2118SOL    HW3 8519   3.499   0.046   3.441  0.3133 -1.1983 -0.5416
 2118SOL    MW4 8520   3.563   0.099   3.468 -0.4740 -0.3907 -0.2320
 2119SOL     OW 8521   3.579   0.355   3.432 -0.3509  0.2274 -0.5812
 2119SOL    HW2 8522   3.655   0.411   3.447  0.6484 -1.2296 -0.0890
 2119SOL    HW3 8523   3.504   0.408   3.462  0.6244  1.0852  0.4001
 2119SOL    MW4 8524   3.579   0.370   3.438 -0.0904  0.1484 -0.3867
 2120SOL     OW 8525   3.818   0.494   3.499  0.1671  0.1216  0.3375
 2120SOL    HW2 8526   3.813   0.492   3.594  0.7904 -2.2265  0.3514
 2120SOL    HW3 8527   3.901   0.451   3.478 -1.1218 -1.6310 -1.3432
 2120SOL    MW4 8528   3.828   0.488   3.509  0.0794 -0.4194  0.1175
 2121SOL     OW 8529   3.809   0.761   3.409  0.1105 -0.5345  0.0816
 2121SOL    HW2 8530   3.885   0.802   3.451 -0.4379  1.8645 -1.1986
 2121SOL    HW3 8531   3.814   0.669   3.436  2.5078 -0.0703  1.3879
 2121SOL    MW4 8532   3.820   0.754   3.418  0.3545 -0.1567  0.0851
 2122SOL     OW 8533   3.580   0.896   3.470  0.2322  0.3184 -0.2766
 2122SOL    HW2 8534   3.584   0.889   3.565 -1.6513  0.1906 -0.1955
 2122SOL    HW3 8535   3.660   0.853   3.439  0.6013 -0.0902  1.2200
 2122SOL    MW4 8536   3.591   0.890   3.478  0.0324  0.2476 -0.0684
 2123SOL     OW 8537   3.565   1.160   3.429  0.2149  0.1202  0.3972
 2123SOL    HW2 8538   3.574   1.065   3.444  2.2843  0.3221  0.5398
 2123SOL    HW3 8539   3.574   1.170   3.335 -0.7613  0.1062  0.2983
 2123SOL    MW4 8540   3.568   1.149   3.419  0.3593  0.1450  0.4032
 2124SOL     OW 8541   3.817   1.276   3.482 -0.1366 -0.3384  0.1328
 2124SOL    HW2 8542   3.821   1.286   3.577 -1.9521  2.7187 -0.0482
 2124SOL    HW3 8543   3.725   1.256   3.464  0.0410 -0.1033 -1.0370
 2124SOL    MW4 8544   3.806   1.275   3.492 -0.3526  0.0960 -0.0453
 2125SOL     OW 8545   3.818   1.533   3.401  0.0003 -0.1490 -0.0746
 2125SOL    HW2 8546   3.893   1.580   3.438  0.2467 -0.9256  0.4558
 2125SOL    HW3 8547   3.827   1.444   3.437  0.8078 -1.2207 -2.8124
 2125SOL    MW4 8548   3.829   1.527   3.411  0.1392 -0.3929 -0.3660
 2126SOL     OW 8549   3.575   1.661   3.512  0.1499  0.4094 -0.3295
 2126SOL    HW2 8550   3.590   1.751   3.483 -0.1375  0.3865 -0.5523
 2126SOL    HW3 8551   3.651   1.612   3.478  0.5836  0.6673  0.2609
 2126SOL    MW4 8552   3.587   1.666   3.503  0.1693  0.4405 -0.2811
 2127SOL     OW 8553   3.585   1.906   3.390 -0.0459 -0.2409 -0.6501
 2127SOL    HW2 8554   3.645   1.964   3.436 -1.2076  0.3603  0.1396
 2127SOL    HW3 8555   3.498   1.941   3.409 -0.7227 -1.7844 -0.7989
 2127SOL    MW4 8556   3.581   1.918   3.398 -0.2885 -0.3653 -0.5655
 2128SOL     OW 8557   3.780   2.061   3.522 -0.0331  0.1244 -0.5951
 2128SOL    HW2 8558   3.802   2.053   3.615  0.3439  0.4200 -0.6564
 2128SOL    HW3 8559   3.860   2.036   3.476 -0.5088 -0.9542 -0.8594
 2128SOL    MW4 8560   3.793   2.057   3.528 -0.0467  0.0210 -0.6380
 2129SOL     OW 8561   3.777   2.337   3.407  0.5593  0.1427  0.0445
 2129SOL    HW2 8562   3.860   2.361   3.449 -0.0966 -0.7643  1.9313
 2129SOL    HW3 8563   3.760   2.248   3.438 -0.3645 -0.2506 -1.5386
 2129SOL    MW4 8564   3.786   2.328   3.417  0.3505 -0.0286  0.0844
 2130SOL     OW 8565   3.545   2.434   3.515 -0.2282 -0.6061  0.1634
 2130SOL    HW2 8566   3.533   2.521   3.477  0.2099 -0.6391 -0.0515
 2130SOL    HW3 8567   3.621   2.398   3.470 -0.7559 -1.3329 -0.1494
 2130SOL    MW4 8568   3.553   2.441   3.504 -0.2398 -0.7062  0.0937
 2131SOL     OW 8569   3.570   2.694   3.428  0.1260  0.3740  0.4825
 2131SOL    HW2 8570   3.646   2.714   3.483 -0.0840 -0.1388  0.9522
 2131SOL    HW3 8571   3.604   2.701   3.338  0.9468 -0.7335  0.7018
 2131SOL    MW4 8572   3.584   2.698   3.423  0.2069  0.1605  0.5736
 2132SOL     OW 8573   3.813   2.791   3.544  0.2638 -0.2773  0.2126
 2132SOL    HW2 8574   3.820   2.822   3.634  3.4643 -0.6720  0.1572
 2132SOL    HW3 8575   3.825   2.870   3.491  1.8877 -0.5583  0.1327
 2132SOL    MW4 8576   3.816   2.806   3.549  0.9003 -0.3667  0.1945
 2133SOL     OW 8577   3.844   3.048   3.409 -0.0090 -0.1502 -0.6404
 2133SOL    HW2 8578   3.913   3.093   3.457 -0.7962 -0.2453  0.5904
 2133SOL    HW3 8579   3.875   3.048   3.318  2.0276 -0.9810  0.0106
 2133SOL    MW4 8580   3.857   3.054   3.403  0.1557 -0.2725 -0.3920
 2134SOL     OW 8581   3.639   3.165   3.549  0.4423 -0.6857  0.4577
 2134SOL    HW2 8582   3.626   3.257   3.526 -1.0340 -0.6384  1.4033
 2134SOL    HW3 8583   3.698   3.131   3.481 -0.3400  0.5269 -0.8507
 2134SOL    MW4 8584   3.645   3.172   3.537  0.1442 -0.5195  0.4096
 2135SOL     OW 8585   3.597   3.403   3.432 -0.1041  0.1107 -0.0780
 2135SOL    HW2 8586   3.520   3.454   3.455  0.2722  0.5688  0.1798
 2135SOL    HW3 8587   3.606   3.413   3.337  0.4910  1.2794  0.0879
 2135SOL    MW4 8588   3.588   3.411   3.422  0.0238  0.3252 -0.0219
 2136SOL     OW 8589   3.807   3.597   3.493 -0.3751 -0.2270  0.1993
 2136SOL    HW2 8590   3.812   3.585   3.588 -1.4023  0.2944  0.3231
 2136SOL    HW3 8591   3.736   3.540   3.465  0.8108 -1.4363 -0.4566
 2136SOL    MW4 8592   3.799   3.588   3.502 -0.3545 -0.3176  0.1290
 2137SOL     OW 8593   3.814   3.862   3.414  0.2154  0.0892  0.1120
 2137SOL    HW2 8594   3.731   3.906   3.430 -0.0568  0.3505 -1.9430
 2137SOL    HW3 8595   3.806   3.778   3.460 -1.0409  0.2607  0.2134
 2137SOL    MW4 8596   3.802   3.857   3.422  0.0141  0.1462 -0.1459
 2138SOL     OW 8597   3.601   4.016   3.498  0.1844  0.1179 -0.1159
 2138SOL    HW2 8598   3.588   4.006   3.592 -0.6617  0.2715 -0.2179
 2138SOL    HW3 8599   3.612   4.111   3.485 -0.6370  0.1854 -0.2963
 2138SOL    MW4 8600   3.601   4.028   3.508 -0.0355  0.1473 -0.1533
 2139SOL     OW 8601   3.646   4.280   3.434 -0.0114  0.0375 -0.0294
 2139SOL    HW2 8602   3.558   4.317   3.439 -0.1645 -0.1319 -1.1875
 2139SOL    HW3 8603   3.660   4.266   3.340  1.6798  1.0924  0.0553
 2139SOL    MW4 8604   3.636   4.283   3.422  0.1915  0.1545 -0.1712
 2140SOL     OW 8605   3.859   4.421   3.538 -0.0334 -0.3081 -0.1800
 2140SOL    HW2 8606   3.787   4.359   3.524  0.2460 -0.6994  0.1074
 2140SOL    HW3 8607   3.835   4.498   3.486 -1.2311  0.0093  0.8181
 2140SOL    MW4 8608   3.846   4.423   3.530 -0.1547 -0.3176 -0.0103
 2141SOL     OW 8609   4.310   4.656   3.454 -0.3072 -0.6592 -0.2434
 2141SOL    HW2 8610   4.315   4.569   3.493  1.0670 -0.9556 -1.0307
 2141SOL    HW3 8611   4.385   4.703   3.491  0.5947 -0.7129 -1.9376
 2141SOL    MW4 8612   4.321   4.651   3.464 -0.0062 -0.7057 -0.5713
 2142SOL     OW 8613   4.052   0.097   3.512  0.0432 -0.1801 -0.2231
 2142SOL    HW2 8614   4.127   0.044   3.485 -0.1126 -1.0212  0.9603
 2142SOL    HW3 8615   3.978   0.060   3.463  0.0064 -0.7980  0.2976
 2142SOL    MW4 8616   4.052   0.085   3.502  0.0176 -0.3726  0.0017
 2143SOL     OW 8617   4.065   0.365   3.447 -0.0890 -0.1074  0.4634
 2143SOL    HW2 8618   4.052   0.273   3.467 -0.8454 -0.0043  0.4488
 2143SOL    HW3 8619   4.061   0.370   3.351 -0.3542 -0.0127  0.4791
 2143SOL    MW4 8620   4.063   0.354   3.437 -0.2236 -0.0813  0.4635
 2144SOL     OW 8621   4.287   0.506   3.509  0.3174  0.0395 -0.0412
 2144SOL    HW2 8622   4.279   0.592   3.467  1.4211 -0.0421 -0.4134
 2144SOL    HW3 8623   4.205   0.462   3.487 -1.1202  1.7175  1.7962
 2144SOL    MW4 8624   4.275   0.512   3.500  0.2732  0.2501  0.1523
 2145SOL     OW 8625   4.272   0.757   3.404 -0.3699  0.4977 -0.1417
 2145SOL    HW2 8626   4.356   0.783   3.443  0.5571 -2.1761 -0.2514
 2145SOL    HW3 8627   4.287   0.763   3.309 -0.4116  0.4147 -0.1540
 2145SOL    MW4 8628   4.285   0.761   3.396 -0.2527  0.1340 -0.1578
 2146SOL     OW 8629   4.059   0.880   3.515 -0.2401  0.0439  0.1101
 2146SOL    HW2 8630   4.065   0.969   3.480 -1.0168 -0.5620 -1.6135
 2146SOL    HW3 8631   4.145   0.842   3.499 -0.5404 -0.1756 -1.0331
 2146SOL    MW4 8632   4.071   0.887   3.509 -0.3819 -0.0650 -0.2682
 2147SOL     OW 8633   4.056   1.145   3.418  0.1509 -0.4326  0.1485
 2147SOL    HW2 8634   4.126   1.192   3.463 -0.5130  0.5181  0.2082
 2147SOL    HW3 8635   3.976   1.190   3.445 -0.4891 -1.5519  0.1381
 2147SOL    MW4 8636   4.054   1.157   3.427 -0.0215 -0.4549  0.1552
 2148SOL     OW 8637   4.266   1.310   3.536 -0.7872  0.0052  0.3970
 2148SOL    HW2 8638   4.260   1.400   3.504 -0.7386  0.4024  1.4864
 2148SOL    HW3 8639   4.354   1.282   3.511 -0.6235  0.4250  0.4940
 2148SOL    MW4 8640   4.277   1.319   3.528 -0.7586  0.1131  0.5536
 2149SOL     OW 8641   4.258   1.564   3.443  0.0611  0.3465 -0.3795
 2149SOL    HW2 8642   4.169   1.594   3.464 -0.2518 -0.8333 -0.0022
 2149SOL    HW3 8643   4.260   1.558   3.348 -0.6476 -0.7660 -0.3318
 2149SOL    MW4 8644   4.246   1.567   3.433 -0.0739  0.0442 -0.3233
 2150SOL     OW 8645   4.009   1.679   3.523  0.1853  0.1268  0.0196
 2150SOL    HW2 8646   4.019   1.675   3.618 -2.9702 -0.6964  0.3702
 2150SOL    HW3 8647   4.010   1.773   3.503  0.4395  0.3196  0.9090
 2150SOL    MW4 8648   4.010   1.691   3.533 -0.1974  0.0436  0.1831
 2151SOL     OW 8649   4.039   1.949   3.451 -0.2348 -0.1512 -0.0500
 2151SOL    HW2 8650   4.115   1.982   3.499 -0.3031 -0.2463  0.1249
 2151SOL    HW3 8651   4.062   1.959   3.359 -0.4433  0.8378 -0.0004
 2151SOL    MW4 8652   4.052   1.955   3.445 -0.2713 -0.0333 -0.0205
 2152SOL     OW 8653   4.290   2.032   3.531 -0.5175  0.3180 -0.2123
 2152SOL    HW2 8654   4.298   2.118   3.488  0.6585 -0.2506 -1.1631
 2152SOL    HW3 8655   4.370   1.986   3.507  0.0445 -0.1185  2.4359
 2152SOL    MW4 8656   4.301   2.038   3.522 -0.2885  0.1855  0.0117
 2153SOL     OW 8657   4.286   2.283   3.433 -0.3883 -0.5758  0.2435
 2153SOL    HW2 8658   4.204   2.299   3.481 -0.5375 -0.4988 -0.0387
 2153SOL    HW3 8659   4.259   2.277   3.341 -0.2259 -1.6414  0.2602
 2153SOL    MW4 8660   4.272   2.284   3.427 -0.3862 -0.7062  0.2084
 2154SOL     OW 8661   4.033   2.394   3.521 -0.5657  0.0782 -0.3314
 2154SOL    HW2 8662   4.040   2.405   3.616 -0.9354 -0.7892 -0.2011
 2154SOL    HW3 8663   4.040   2.483   3.486 -1.6754  0.5284  0.5795
 2154SOL    MW4 8664   4.035   2.407   3.529 -0.7610  0.0231 -0.1941
 2155SOL     OW 8665   4.047   2.659   3.441  0.1263 -0.1330 -0.3319
 2155SOL    HW2 8666   4.117   2.720   3.465 -0.6421 -0.0731  1.8438
 2155SOL    HW3 8667   3.966   2.707   3.457 -0.4417 -0.5971 -1.7505
 2155SOL    MW4 8668   4.046   2.673   3.446 -0.0501 -0.1867 -0.2320
 2156SOL     OW 8669   4.258   2.813   3.534 -0.3835 -0.5663  0.2382
 2156SOL    HW2 8670   4.266   2.821   3.629 -1.0194  0.8272  0.1764
 2156SOL    HW3 8671   4.340   2.772   3.507 -0.1142 -0.7996  1.3621
 2156SOL    MW4 8672   4.269   2.808   3.543 -0.4325 -0.4132  0.3784
 2157SOL     OW 8673   4.253   3.066   3.432  0.7380  0.0406  0.3720
 2157SOL    HW2 8674   4.234   2.983   3.476  0.8467  0.9632  2.2142
 2157SOL    HW3 8675   4.246   3.046   3.339  1.2820 -2.1644  0.7770
 2157SOL    MW4 8676   4.250   3.052   3.426  0.8245 -0.1283  0.6680
 2158SOL     OW 8677   4.035   3.193   3.521  0.0686  0.2833 -0.0256
 2158SOL    HW2 8678   4.013   3.280   3.487 -0.0096  0.3338  0.1518
 2158SOL    HW3 8679   4.112   3.167   3.471  0.6118  0.8228  0.5169
 2158SOL    MW4 8680   4.042   3.201   3.510  0.1297  0.3610  0.0694
 2159SOL     OW 8681   4.026   3.455   3.395 -0.6466  0.4920  0.1563
 2159SOL    HW2 8682   4.093   3.504   3.442  0.2827 -0.6432  0.0449
 2159SOL    HW3 8683   3.944   3.501   3.415 -0.0206  1.1231  1.3408
 2159SOL    MW4 8684   4.024   3.468   3.404 -0.4416  0.4253  0.2975
 2160SOL     OW 8685   4.235   3.588   3.490 -0.2987 -0.1547  0.7924
 2160SOL    HW2 8686   4.233   3.603   3.585 -1.0433 -0.5812  0.8518
 2160SOL    HW3 8687   4.231   3.676   3.452  2.5601  0.1693  1.1546
 2160SOL    MW4 8688   4.234   3.602   3.498 -0.0196 -0.1683  0.8476
 2161SOL     OW 8689   4.236   3.854   3.412 -0.2418  0.1667  0.1317
 2161SOL    HW2 8690   4.321   3.869   3.454  0.7033 -0.4307 -1.5081
 2161SOL    HW3 8691   4.256   3.853   3.318 -2.1942  0.8230 -0.3165
 2161SOL    MW4 8692   4.250   3.856   3.405 -0.3748  0.1748 -0.1438
 2162SOL     OW 8693   4.020   3.990   3.555  0.3393 -0.0033  0.4674
 2162SOL    HW2 8694   4.089   3.948   3.503 -0.1792  1.6844 -1.6680
 2162SOL    HW3 8695   3.938   3.959   3.517 -0.0602  0.5083  0.8977
 2162SOL    MW4 8696   4.019   3.980   3.543  0.2179  0.2868  0.2425
 2163SOL     OW 8697   4.066   4.238   3.417  0.3567  0.5806 -0.2352
 2163SOL    HW2 8698   4.064   4.156   3.466  0.0081  0.1372 -0.9684
 2163SOL    HW3 8699   3.998   4.292   3.457  0.0856  0.2281 -0.2087
 2163SOL    MW4 8700   4.057   4.234   3.429  0.2747  0.4754 -0.3283
 2164SOL     OW 8701   4.271   4.387   3.516  0.5178 -0.0578  0.1534
 2164SOL    HW2 8702   4.270   4.396   3.612  0.8393  0.6382  0.0926
 2164SOL    HW3 8703   4.185   4.352   3.495 -0.0005  0.9474  0.5833
 2164SOL    MW4 8704   4.260   4.383   3.526  0.4921  0.1664  0.2022
 2165SOL     OW 8705   0.227   0.031   3.916  0.0070 -0.1298 -0.4284
 2165SOL    HW2 8706   0.191   0.009   4.002  0.5625  1.6833  0.2743
 2165SOL    HW3 8707   0.152   0.068   3.868 -0.0553 -0.1769 -0.3681
 2165SOL    MW4 8708   0.212   0.033   3.921  0.0720  0.1030 -0.3276
 2166SOL     OW 8709   4.482   0.128   3.795  0.0508  0.3247  0.2284
 2166SOL    HW2 8710   4.499   0.221   3.812  0.0722  0.4782 -0.5913
 2166SOL    HW3 8711   4.509   0.115   3.704  0.8780 -0.6986  0.6187
 2166SOL    MW4 8712   4.488   0.139   3.785  0.1626  0.2100  0.1717
 2167SOL     OW 8713   0.015   0.385   3.874  0.1877 -0.3398 -0.1559
 2167SOL    HW2 8714  -0.067   0.427   3.847  1.3762  1.4711 -0.9833
 2167SOL    HW3 8715   0.083   0.426   3.821  1.7277 -1.4552  0.8901
 2167SOL    MW4 8716   0.013   0.396   3.864  0.5477 -0.2480 -0.1271
 2168SOL     OW 8717   0.241   0.515   3.761 -0.2421 -0.2554  0.1162
 2168SOL    HW2 8718   0.236   0.599   3.807  1.2765 -0.2080  0.2043
 2168SOL    HW3 8719   0.263   0.539   3.671 -0.2260 -0.5438  0.0452
 2168SOL    MW4 8720   0.243   0.529   3.755 -0.0396 -0.2871  0.1183
 2169SOL     OW 8721   0.216   0.767   3.852  0.5679 -0.3993 -0.5046
 2169SOL    HW2 8722   0.212   0.758   3.947 -1.6133 -2.8375 -0.7784
 2169SOL    HW3 8723   0.145   0.828   3.830  1.7054  0.9544 -0.5229
 2169SOL    MW4 8724   0.206   0.774   3.861  0.4302 -0.5423 -0.5431
 2170SOL     OW 8725   0.004   0.910   3.772  0.0632  0.5318 -0.0363
 2170SOL    HW2 8726  -0.065   0.849   3.798 -0.1353  1.0776  0.7244
 2170SOL    HW3 8727  -0.019   0.993   3.813 -0.5186  1.5655 -2.3270
 2170SOL    MW4 8728  -0.008   0.913   3.781 -0.0401  0.7402 -0.2382
 2171SOL     OW 8729   4.469   1.147   3.915  0.1910  0.5084  0.2125
 2171SOL    HW2 8730   4.395   1.201   3.885  0.1696 -0.4397 -1.4927
 2171SOL    HW3 8731   4.545   1.185   3.872  0.3169 -0.2209 -0.2070
 2171SOL    MW4 8732   4.469   1.159   3.906  0.2050  0.2872 -0.0679
 2172SOL     OW 8733   0.227   1.220   3.810  0.1802  0.1163  0.3498
 2172SOL    HW2 8734   0.216   1.315   3.807 -0.9132 -0.0289 -1.0382
 2172SOL    HW3 8735   0.257   1.197   3.722 -0.2032 -0.9016  0.4808
 2172SOL    MW4 8736   0.230   1.230   3.798 -0.0146 -0.0372  0.1841
 2173SOL     OW 8737   0.207   1.502   3.902 -0.0074 -0.5477  0.1014
 2173SOL    HW2 8738   0.203   1.510   3.997  0.9017 -0.3589  0.1253
 2173SOL    HW3 8739   0.137   1.558   3.870  0.5418  0.4324  0.6098
 2173SOL    MW4 8740   0.197   1.510   3.910  0.1850 -0.3935  0.1714
 2174SOL     OW 8741   4.487   1.671   3.843  0.0382  0.5334 -0.0280
 2174SOL    HW2 8742   4.486   1.761   3.876  1.1120  0.8256 -0.7795
 2174SOL    HW3 8743   4.477   1.680   3.749 -1.9471 -0.2499  0.0875
 2174SOL    MW4 8744   4.485   1.684   3.835 -0.0821  0.4686 -0.1121
 2175SOL     OW 8745   0.053   1.952   3.912 -0.3402 -0.4887 -0.1681
 2175SOL    HW2 8746   0.042   1.930   4.005  0.5577  2.4034  0.6716
 2175SOL    HW3 8747  -0.031   1.991   3.887 -0.9364 -2.1812 -0.8770
 2175SOL    MW4 8748   0.040   1.954   3.921 -0.3004 -0.3303 -0.1507
 2176SOL     OW 8749   0.245   2.073   3.767  0.4094 -0.0698  0.3110
 2176SOL    HW2 8750   0.232   2.167   3.782 -0.6227 -0.2782  0.7711
 2176SOL    HW3 8751   0.175   2.031   3.817  1.2871 -1.1204  0.6731
 2176SOL    MW4 8752   0.234   2.080   3.776  0.3891 -0.2358  0.4196
 2177SOL     OW 8753   0.255   2.340   3.900  0.2833 -0.1388  0.3907
 2177SOL    HW2 8754   0.253   2.325   3.994  1.6456 -1.1649  0.2676
 2177SOL    HW3 8755   0.167   2.372   3.879 -0.3395 -0.8555  1.8451
 2177SOL    MW4 8756   0.243   2.342   3.910  0.3809 -0.3686  0.5662
 2178SOL     OW 8757   0.038   2.453   3.780 -0.2392  0.3852  0.4364
 2178SOL    HW2 8758  -0.036   2.415   3.828 -0.2560  0.6368  0.6116
 2178SOL    HW3 8759   0.040   2.545   3.808  0.3336  0.3023  0.6823
 2178SOL    MW4 8760   0.028   2.460   3.790 -0.1658  0.4072  0.4919
 2179SOL     OW 8761   0.001   2.709   3.892  0.5869  0.4008  0.0306
 2179SOL    HW2 8762   0.006   2.689   3.985  0.6308  0.7325  0.0997
 2179SOL    HW3 8763   0.083   2.756   3.873  0.6533  0.1897 -0.2093
 2179SOL    MW4 8764   0.013   2.713   3.901  0.6013  0.4168  0.0083
 2180SOL     OW 8765   0.220   2.854   3.817  0.0977  0.1810  0.1406
 2180SOL    HW2 8766   0.301   2.813   3.850  0.6495  1.3750  0.3044
 2180SOL    HW3 8767   0.235   2.862   3.723 -0.4262 -0.8953 -0.0426
 2180SOL    MW4 8768   0.233   2.850   3.809  0.1013  0.1965  0.1380
 2181SOL     OW 8769   0.234   3.123   3.895  0.5131 -0.2219  0.0624
 2181SOL    HW2 8770   0.252   3.130   3.989 -0.5863  0.2505  0.2535
 2181SOL    HW3 8771   0.224   3.029   3.879  2.8730 -0.4910 -0.0226
 2181SOL    MW4 8772   0.235   3.112   3.905  0.6794 -0.1953  0.0763
 2182SOL     OW 8773   4.486   3.232   3.812 -0.1600  1.0422  0.0253
 2182SOL    HW2 8774   4.563   3.185   3.844 -1.4274 -0.6763  0.6213
 2182SOL    HW3 8775   4.489   3.222   3.717  0.7971  1.6975 -0.0168
 2182SOL    MW4 8776   4.497   3.225   3.804 -0.2012  0.9019  0.0980
 2183SOL     OW 8777   4.482   3.514   3.890 -0.9232  0.2092 -0.1148
 2183SOL    HW2 8778   4.562   3.547   3.849 -0.8317 -0.3856 -0.4271
 2183SOL    HW3 8779   4.475   3.423   3.859 -1.8541  0.3362 -0.2788
 2183SOL    MW4 8780   4.492   3.506   3.881 -1.0340  0.1476 -0.1774
 2184SOL     OW 8781   0.252   3.577   3.802 -0.3412 -0.5612 -0.0361
 2184SOL    HW2 8782   0.326   3.522   3.827 -1.3547 -1.6769  0.5705
 2184SOL    HW3 8783   0.279   3.665   3.827  1.0707 -0.8481 -0.5008
 2184SOL    MW4 8784   0.266   3.581   3.809 -0.2886 -0.7463 -0.0174
 2185SOL     OW 8785   0.272   3.861   3.889  0.1302 -0.1104 -0.0973
 2185SOL    HW2 8786   0.267   3.869   3.985  0.9833 -1.9204  0.1190
 2185SOL    HW3 8787   0.353   3.905   3.866 -0.6437  1.3239 -0.1227
 2185SOL    MW4 8788   0.282   3.868   3.899  0.1407 -0.1600 -0.0722
 2186SOL     OW 8789   0.053   3.975   3.781 -0.1435 -0.0582  0.0327
 2186SOL    HW2 8790  -0.028   3.933   3.813  0.3729  0.3052  1.9092
 2186SOL    HW3 8791   0.123   3.921   3.817  0.4760  0.4789 -0.3654
 2186SOL    MW4 8792   0.052   3.962   3.790  0.0064  0.0608  0.2277
 2187SOL     OW 8793   4.470   4.221   3.898 -0.0674  0.2483 -0.0869
 2187SOL    HW2 8794   4.527   4.291   3.866  0.5546 -0.5799 -0.8125
 2187SOL    HW3 8795   4.512   4.141   3.867 -0.0434 -0.5190  1.8462
 2187SOL    MW4 8796   4.483   4.220   3.890  0.0172  0.0377  0.0727
 2188SOL     OW 8797   0.164   4.421   3.812  0.3378 -0.0363 -0.3319
 2188SOL    HW2 8798   0.234   4.368   3.851 -1.1363 -1.5029  0.3949
 2188SOL    HW3 8799   0.178   4.509   3.846  0.5895 -0.7680  1.4890
 2188SOL    MW4 8800   0.175   4.425   3.821  0.1765 -0.3262  0.0043
 2189SOL     OW 8801   0.659   0.026   3.830 -0.3938 -0.2648  0.9377
 2189SOL    HW2 8802   0.632  -0.064   3.816 -1.3832  0.0870  0.5677
 2189SOL    HW3 8803   0.582   0.079   3.807 -0.4504  0.5724  2.9462
 2189SOL    MW4 8804   0.645   0.021   3.825 -0.5317 -0.1078  1.1539
 2190SOL     OW 8805   0.422   0.140   3.749  0.1518  0.2763 -0.5275
 2190SOL    HW2 8806   0.442   0.229   3.779  0.7325  0.0149 -0.1426
 2190SOL    HW3 8807   0.354   0.109   3.808  0.1517  0.3552 -0.4868
 2190SOL    MW4 8808   0.416   0.148   3.760  0.2284  0.2522 -0.4716
 2191SOL     OW 8809   0.469   0.400   3.867 -0.0648  0.2497 -0.3709
 2191SOL    HW2 8810   0.538   0.446   3.820  0.2177 -0.1036 -0.3003
 2191SOL    HW3 8811   0.388   0.442   3.837  0.1969  0.8570 -0.2353
 2191SOL    MW4 8812   0.467   0.412   3.857  0.0070  0.2833 -0.3436
 2192SOL     OW 8813   0.664   0.507   3.727  0.0551  0.3326 -0.1681
 2192SOL    HW2 8814   0.743   0.468   3.764  0.9797 -0.0156 -2.4241
 2192SOL    HW3 8815   0.657   0.593   3.769  1.4491  0.2294  0.2771
 2192SOL    MW4 8816   0.673   0.513   3.737  0.3610  0.2731 -0.4070
 2193SOL     OW 8817   0.625   0.750   3.878  0.2460 -0.4668 -0.5675
 2193SOL    HW2 8818   0.714   0.783   3.864 -0.1080  1.2951  1.0167
 2193SOL    HW3 8819   0.569   0.826   3.861 -0.8097 -0.9763  0.5767
 2193SOL    MW4 8820   0.629   0.765   3.874  0.0601 -0.3015 -0.2077
 2194SOL     OW 8821   0.441   0.934   3.809 -0.2287  0.0703  0.1130
 2194SOL    HW2 8822   0.421   1.014   3.859  0.3063 -0.8771  1.8781
 2194SOL    HW3 8823   0.364   0.878   3.822  0.6376 -0.8622  1.3072
 2194SOL    MW4 8824   0.428   0.937   3.818 -0.0438 -0.1777  0.5033
 2195SOL     OW 8825   0.455   1.164   3.956 -0.0632  0.4230  0.1438
 2195SOL    HW2 8826   0.521   1.181   3.889 -0.8354  2.7721 -0.0803
 2195SOL    HW3 8827   0.373   1.195   3.916 -0.7589  0.5158  1.6295
 2195SOL    MW4 8828   0.453   1.170   3.942 -0.2569  0.7453  0.3099
 2196SOL     OW 8829   0.660   1.228   3.788  0.3924  0.0742  0.4050
 2196SOL    HW2 8830   0.745   1.202   3.825  0.0029 -0.4975  0.8937
 2196SOL    HW3 8831   0.672   1.222   3.694  0.3289 -1.7889  0.5111
 2196SOL    MW4 8832   0.673   1.224   3.781  0.3327 -0.2471  0.4830
 2197SOL     OW 8833   0.667   1.503   3.856  0.2732  0.1323 -0.2099
 2197SOL    HW2 8834   0.748   1.533   3.814  0.3665 -1.5364 -1.2464
 2197SOL    HW3 8835   0.675   1.408   3.859 -1.1009  0.0357  0.8400
 2197SOL    MW4 8836   0.679   1.495   3.851  0.1042 -0.1006 -0.2081
 2198SOL     OW 8837   0.437   1.646   3.803  0.2381 -0.0540 -0.4431
 2198SOL    HW2 8838   0.504   1.582   3.825 -0.5463 -0.6320  0.2859
 2198SOL    HW3 8839   0.355   1.607   3.833 -0.4028  0.7487 -1.1093
 2198SOL    MW4 8840   0.435   1.633   3.810  0.0501 -0.0244 -0.4349
 2199SOL     OW 8841   0.423   1.927   3.900 -0.3063 -0.0128  0.7458
 2199SOL    HW2 8842   0.431   1.848   3.846  0.5338  1.1327 -0.8393
 2199SOL    HW3 8843   0.352   1.976   3.858  0.9814  1.3212  0.1188
 2199SOL    MW4 8844   0.415   1.923   3.887 -0.0256  0.3142  0.4537
 2200SOL     OW 8845   0.649   2.031   3.791  0.4065 -0.0687 -0.1035
 2200SOL    HW2 8846   0.653   2.126   3.807 -0.3511  0.0723 -0.7213
 2200SOL    HW3 8847   0.572   2.002   3.840  0.4195 -0.3029 -0.2225
 2200SOL    MW4 8848   0.640   2.040   3.800  0.3083 -0.0811 -0.2007
 2201SOL     OW 8849   0.704   2.325   3.915 -0.4916  0.0151 -1.1387
 2201SOL    HW2 8850   0.771   2.365   3.859 -1.2999 -0.6222 -2.6104
 2201SOL    HW3 8851   0.630   2.384   3.908 -0.4808  0.1053 -0.4606
 2201SOL    MW4 8852   0.703   2.338   3.906 -0.5968 -0.0570 -1.2434
 2202SOL     OW 8853   0.469   2.472   3.802 -0.1841  0.1896 -0.1323
 2202SOL    HW2 8854   0.394   2.424   3.838  0.3298  0.0549  0.7701
 2202SOL    HW3 8855   0.474   2.443   3.711 -0.9876 -0.1062 -0.0881
 2202SOL    MW4 8856   0.460   2.462   3.795 -0.2223  0.1328 -0.0074
 2203SOL     OW 8857   0.476   2.738   3.879 -0.0893  0.2523 -0.3128
 2203SOL    HW2 8858   0.554   2.786   3.853 -0.6880  0.9429 -0.8585
 2203SOL    HW3 8859   0.481   2.655   3.832  0.3614  0.2499 -0.2619
 2203SOL    MW4 8860   0.487   2.733   3.870 -0.1087  0.3431 -0.3781
 2204SOL     OW 8861   0.713   2.842   3.785 -0.0576  0.2058  0.0864
 2204SOL    HW2 8862   0.788   2.786   3.804  0.1213  0.0532 -1.0653
 2204SOL    HW3 8863   0.696   2.830   3.692 -2.0096 -0.3853  0.4840
 2204SOL    MW4 8864   0.721   2.833   3.775 -0.2915  0.1080 -0.0129
 2205SOL     OW 8865   0.704   3.095   3.904 -0.0304 -0.6540 -0.1468
 2205SOL    HW2 8866   0.695   3.087   3.999  1.5911 -0.7652  0.0064
 2205SOL    HW3 8867   0.705   3.004   3.872  0.9249 -0.6548 -0.1201
 2205SOL    MW4 8868   0.703   3.082   3.912  0.3096 -0.6685 -0.1228
 2206SOL     OW 8869   0.470   3.218   3.800  0.0631 -0.2706  0.2590
 2206SOL    HW2 8870   0.543   3.159   3.821 -0.0554  0.2476  2.2573
 2206SOL    HW3 8871   0.394   3.176   3.840 -0.6381 -0.5093 -1.3147
 2206SOL    MW4 8872   0.470   3.205   3.808 -0.0450 -0.2339  0.3150
 2207SOL     OW 8873   0.526   3.485   3.890 -0.3054  0.1167  0.4140
 2207SOL    HW2 8874   0.614   3.502   3.856 -0.8483 -1.1442 -1.7478
 2207SOL    HW3 8875   0.508   3.395   3.863 -2.0031  0.1407  1.4445
 2207SOL    MW4 8876   0.536   3.475   3.882 -0.6011 -0.0463  0.2646
 2208SOL     OW 8877   0.767   3.628   3.794 -0.0151  0.2027 -0.2254
 2208SOL    HW2 8878   0.721   3.708   3.821  0.7025  0.7545 -0.6227
 2208SOL    HW3 8879   0.754   3.623   3.700 -0.0198 -0.1293 -0.2088
 2208SOL    MW4 8880   0.760   3.638   3.785  0.0790  0.2315 -0.2756
 2209SOL     OW 8881   0.659   3.851   3.895  0.1481  0.0075 -0.1153
 2209SOL    HW2 8882   0.681   3.851   3.989 -0.7509  2.6001  0.1426
 2209SOL    HW3 8883   0.735   3.892   3.853  0.0587 -0.1157 -0.3976
 2209SOL    MW4 8884   0.672   3.857   3.902  0.0177  0.3333 -0.1183
 2210SOL     OW 8885   0.477   4.031   3.802  0.1434  0.0721 -0.4176
 2210SOL    HW2 8886   0.549   3.979   3.839  0.9567  0.5665 -1.2984
 2210SOL    HW3 8887   0.496   4.035   3.708 -2.2142 -1.6637 -1.0062
 2210SOL    MW4 8888   0.489   4.024   3.795 -0.0603 -0.0916 -0.6111
 2211SOL     OW 8889   0.410   4.264   3.933  0.0953  0.1641 -0.1058
 2211SOL    HW2 8890   0.479   4.315   3.891  0.8555 -0.2711  0.6004
 2211SOL    HW3 8891   0.421   4.175   3.900  1.2478 -0.3714  1.6437
 2211SOL    MW4 8892   0.421   4.259   3.923  0.3477  0.0358  0.2182
 2212SOL     OW 8893   0.613   4.411   3.782  0.2737  0.0358 -0.4075
 2212SOL    HW2 8894   0.687   4.359   3.813 -0.3974 -1.6617 -1.6421
 2212SOL    HW3 8895   0.624   4.414   3.687 -1.4030 -0.4563 -0.6223
 2212SOL    MW4 8896   0.624   4.405   3.774 -0.0361 -0.2532 -0.5989
 2213SOL     OW 8897   1.092   4.641   3.880 -0.6272 -0.1211  0.0269
 2213SOL    HW2 8898   1.168   4.675   3.833 -0.2068 -0.4789  0.4452
 2213SOL    HW3 8899   1.074   4.557   3.838  0.4703 -0.9819  1.2767
 2213SOL    MW4 8900   1.100   4.634   3.868 -0.4270 -0.2818  0.2470
 2214SOL     OW 8901   0.899   0.126   3.771 -0.0864 -0.1463 -0.2059
 2214SOL    HW2 8902   0.959   0.058   3.803  0.0808 -0.1002 -0.4258
 2214SOL    HW3 8903   0.812   0.089   3.787  0.0067 -0.6334 -0.7990
 2214SOL    MW4 8904   0.895   0.112   3.778 -0.0520 -0.2045 -0.3133
 2215SOL     OW 8905   0.868   0.387   3.876  0.1021  0.1806  0.9079
 2215SOL    HW2 8906   0.870   0.392   3.971  0.5305 -0.6094  0.9409
 2215SOL    HW3 8907   0.878   0.294   3.856 -0.1053  0.3249  0.0933
 2215SOL    MW4 8908   0.869   0.376   3.886  0.1312  0.0954  0.8049
 2216SOL     OW 8909   1.110   0.482   3.800  0.0284  0.6176 -0.3067
 2216SOL    HW2 8910   1.171   0.432   3.854  0.4688  1.6231  0.1323
 2216SOL    HW3 8911   1.023   0.449   3.826  0.3078  0.1003 -0.0104
 2216SOL    MW4 8912   1.106   0.471   3.811  0.1234  0.6821 -0.2096
 2217SOL     OW 8913   1.110   0.753   3.902  0.1061 -0.0604  0.2399
 2217SOL    HW2 8914   1.113   0.737   3.996  0.5870 -1.4496 -0.0075
 2217SOL    HW3 8915   1.121   0.667   3.862  2.9494  0.8723 -1.1203
 2217SOL    MW4 8916   1.112   0.740   3.909  0.5445 -0.1206  0.0281
 2218SOL     OW 8917   0.875   0.869   3.817 -0.3666 -0.3141  0.2281
 2218SOL    HW2 8918   0.960   0.836   3.845 -1.1314 -1.4726  1.2906
 2218SOL    HW3 8919   0.882   0.876   3.722  0.8646 -0.5215  0.2913
 2218SOL    MW4 8920   0.887   0.865   3.808 -0.3051 -0.4943  0.3767
 2219SOL     OW 8921   0.878   1.136   3.905 -0.9185 -0.0876  0.2327
 2219SOL    HW2 8922   0.906   1.150   3.996  1.5917  0.0921 -0.5391
 2219SOL    HW3 8923   0.882   1.041   3.894 -1.1424 -0.1031  0.2847
 2219SOL    MW4 8924   0.883   1.125   3.916 -0.6168 -0.0660  0.1378
 2220SOL     OW 8925   1.083   1.222   3.726 -0.3547  0.3141 -0.2696
 2220SOL    HW2 8926   1.100   1.312   3.754 -0.6975  1.0171 -2.2643
 2220SOL    HW3 8927   1.013   1.191   3.784  0.3906  1.0073  1.0135
 2220SOL    MW4 8928   1.076   1.230   3.738 -0.3017  0.4983 -0.3636
 2221SOL     OW 8929   1.127   1.487   3.799  0.3707 -0.0702  0.6661
 2221SOL    HW2 8930   1.130   1.487   3.895  2.1036 -0.2604  0.6358
 2221SOL    HW3 8931   1.198   1.547   3.774  0.9200 -1.2039 -0.5144
 2221SOL    MW4 8932   1.137   1.495   3.808  0.6720 -0.2450  0.5064
 2222SOL     OW 8933   0.895   1.623   3.739  0.6430  0.3081 -0.1453
 2222SOL    HW2 8934   0.970   1.566   3.759  0.1422 -0.2514  0.1561
 2222SOL    HW3 8935   0.905   1.644   3.646  0.7386 -0.4163 -0.3010
 2222SOL    MW4 8936   0.906   1.618   3.729  0.5896  0.1388 -0.1261
 2223SOL     OW 8937   0.866   1.873   3.860 -0.2608  0.5615 -0.1912
 2223SOL    HW2 8938   0.854   1.783   3.829  0.2629 -0.0394  1.3385
 2223SOL    HW3 8939   0.786   1.919   3.832 -1.0542 -0.6574  0.0540
 2223SOL    MW4 8940   0.854   1.867   3.852 -0.2964  0.3214  0.0429
 2224SOL     OW 8941   1.086   2.012   3.774 -0.2497 -0.1549  0.6532
 2224SOL    HW2 8942   1.013   1.955   3.796 -1.3111  0.1766 -1.7720
 2224SOL    HW3 8943   1.088   2.011   3.678  1.4159  1.7184  0.6462
 2224SOL    MW4 8944   1.076   2.005   3.764 -0.1700  0.1361  0.3324
 2225SOL     OW 8945   1.096   2.303   3.823  0.2973  0.0675 -0.5156
 2225SOL    HW2 8946   1.121   2.319   3.914  0.7740 -0.4131 -0.5611
 2225SOL    HW3 8947   1.093   2.207   3.815 -0.4096  0.1146 -0.8222
 2225SOL    MW4 8948   1.099   2.292   3.834  0.2669  0.0103 -0.5620
 2226SOL     OW 8949   0.884   2.440   3.747  0.1048 -0.3971 -0.1072
 2226SOL    HW2 8950   0.904   2.523   3.790 -1.1065 -0.5865  0.8355
 2226SOL    HW3 8951   0.960   2.384   3.766  0.7708  0.3806 -0.4688
 2226SOL    MW4 8952   0.897   2.443   3.755  0.0328 -0.3195 -0.0305
 2227SOL     OW 8953   0.947   2.695   3.878  0.0594 -0.0982 -0.4554
 2227SOL    HW2 8954   0.965   2.689   3.972 -0.8360 -1.7230 -0.3835
 2227SOL    HW3 8955   1.028   2.733   3.842  0.7025 -0.1606  0.8561
 2227SOL    MW4 8956   0.960   2.699   3.886  0.0261 -0.3207 -0.2730
 2228SOL     OW 8957   1.193   2.801   3.764 -0.4986  0.6512  0.0771
 2228SOL    HW2 8958   1.275   2.753   3.782  0.1202  1.3183 -0.9152
 2228SOL    HW3 8959   1.194   2.874   3.825  0.6636  1.8286 -1.3281
 2228SOL    MW4 8960   1.204   2.804   3.774 -0.2636  0.8945 -0.2391
 2229SOL     OW 8961   1.172   3.053   3.907 -0.0539  0.2878  0.3206
 2229SOL    HW2 8962   1.238   3.116   3.876 -0.3598  0.6977  0.4896
 2229SOL    HW3 8963   1.090   3.087   3.873 -0.0188 -0.9946 -1.0893
 2229SOL    MW4 8964   1.170   3.066   3.898 -0.0896  0.1729  0.1569
 2230SOL     OW 8965   0.956   3.218   3.806  0.0841 -0.0294 -0.2338
 2230SOL    HW2 8966   0.882   3.178   3.851  0.8666 -2.0493 -0.6715
 2230SOL    HW3 8967   0.938   3.207   3.713 -0.4544  2.1297 -0.4169
 2230SOL    MW4 8968   0.944   3.211   3.800  0.1163 -0.0110 -0.3157
 2231SOL     OW 8969   0.971   3.462   3.903  0.1843 -0.7905  0.1729
 2231SOL    HW2 8970   0.973   3.375   3.865 -0.7459 -0.2808 -1.0618
 2231SOL    HW3 8971   0.886   3.498   3.877  0.1733  0.1485  1.4337
 2231SOL    MW4 8972   0.960   3.456   3.895  0.0601 -0.5991  0.1764
 2232SOL     OW 8973   1.150   3.615   3.765  0.5697  0.4179 -0.1067
 2232SOL    HW2 8974   1.124   3.703   3.793  0.6022  0.3253  0.2265
 2232SOL    HW3 8975   1.093   3.557   3.816  1.8140  0.1899  1.0486
 2232SOL    MW4 8976   1.139   3.619   3.776  0.7381  0.3757  0.0899
 2233SOL     OW 8977   1.098   3.871   3.866 -0.4774  0.3449 -0.0192
 2233SOL    HW2 8978   1.079   3.879   3.959 -0.2246  2.2245 -0.1257
 2233SOL    HW3 8979   1.187   3.903   3.856  0.0011 -1.1632 -0.7046
 2233SOL    MW4 8980   1.107   3.876   3.877 -0.3810  0.3941 -0.1237
 2234SOL     OW 8981   0.860   3.992   3.743  0.1420  0.1312 -0.0307
 2234SOL    HW2 8982   0.939   3.955   3.782 -0.1213 -0.6068 -0.1976
 2234SOL    HW3 8983   0.885   4.014   3.654  0.8129  2.0320  0.5958
 2234SOL    MW4 8984   0.874   3.990   3.737  0.1958  0.2842  0.0300
 2235SOL     OW 8985   0.843   4.255   3.835  0.6989  0.3158 -0.4341
 2235SOL    HW2 8986   0.869   4.248   3.927 -0.9918  0.0141  0.0387
 2235SOL    HW3 8987   0.847   4.165   3.802 -0.7737  0.0939 -0.0526
 2235SOL    MW4 8988   0.847   4.242   3.843  0.2815  0.2470 -0.3211
 2236SOL     OW 8989   1.104   4.354   3.780 -0.0294  0.4233  0.2217
 2236SOL    HW2 8990   1.021   4.308   3.793 -0.2119  0.6873  0.0132
 2236SOL    HW3 8991   1.114   4.356   3.684 -0.6985  2.0008  0.1631
 2236SOL    MW4 8992   1.094   4.348   3.769 -0.1417  0.6661  0.1862
 2237SOL     OW 8993   1.552   4.663   3.886 -0.2237 -0.1535  0.3693
 2237SOL    HW2 8994   1.555   4.651   3.981 -2.3292 -1.1825  0.3422
 2237SOL    HW3 8995   1.558   4.574   3.851  0.2957  0.2025 -0.4652
 2237SOL    MW4 8996   1.553   4.649   3.894 -0.4331 -0.2427  0.2558
 2238SOL     OW 8997   1.332   0.121   3.785 -0.2554  0.2206 -0.7461
 2238SOL    HW2 8998   1.337   0.203   3.834  1.7732 -0.1172 -0.3298
 2238SOL    HW3 8999   1.412   0.073   3.809 -1.5728 -2.0355 -0.7267
 2238SOL    MW4 9000   1.343   0.125   3.794 -0.1615 -0.1217 -0.6886
 2239SOL     OW 9001   1.320   0.366   3.922 -0.0335  0.0721  0.1666
 2239SOL    HW2 9002   1.323   0.381   4.017 -0.6243 -1.2804  0.4088
 2239SOL    HW3 9003   1.396   0.414   3.889 -0.1112  0.9915  1.2562
 2239SOL    MW4 9004   1.330   0.375   3.930 -0.1217  0.0150  0.3421
 2240SOL     OW 9005   1.570   0.512   3.827 -0.4569  0.4209  0.2049
 2240SOL    HW2 9006   1.642   0.463   3.867  0.0219  0.5873 -0.4377
 2240SOL    HW3 9007   1.553   0.584   3.888  0.8012  1.1343 -0.2612
 2240SOL    MW4 9008   1.577   0.515   3.840 -0.2278  0.5370  0.0587
 2241SOL     OW 9009   1.565   0.787   3.945 -0.1805  0.1181  0.3266
 2241SOL    HW2 9010   1.645   0.828   3.913 -0.4739  0.7454  0.3985
 2241SOL    HW3 9011   1.496   0.819   3.886 -0.5557  0.4607  0.9549
 2241SOL    MW4 9012   1.566   0.796   3.933 -0.2687  0.2460  0.4191
 2242SOL     OW 9013   1.349   0.875   3.808  0.2202 -0.2715 -0.2324
 2242SOL    HW2 9014   1.353   0.963   3.847  0.6321 -0.8958  1.1663
 2242SOL    HW3 9015   1.277   0.832   3.854 -1.3225 -0.0211 -2.3344
 2242SOL    MW4 9016   1.340   0.881   3.819  0.0709 -0.3209 -0.3252
 2243SOL     OW 9017   1.303   1.164   3.921 -0.1402 -0.0739 -0.0790
 2243SOL    HW2 9018   1.375   1.197   3.867 -0.9704  1.8393 -0.0590
 2243SOL    HW3 9019   1.224   1.193   3.874 -0.8774 -0.7364  0.7525
 2243SOL    MW4 9020   1.302   1.172   3.908 -0.3469  0.0911  0.0334
 2244SOL     OW 9021   1.519   1.256   3.778  0.1865  0.0419 -0.3793
 2244SOL    HW2 9022   1.597   1.206   3.805 -0.1129 -0.4807 -0.4857
 2244SOL    HW3 9023   1.539   1.346   3.805  1.4544  0.1862 -1.7110
 2244SOL    MW4 9024   1.532   1.262   3.785  0.3144 -0.0080 -0.5689
 2245SOL     OW 9025   1.573   1.535   3.818 -0.0155  0.0197  0.0623
 2245SOL    HW2 9026   1.582   1.520   3.912 -0.0160 -1.6251 -0.1768
 2245SOL    HW3 9027   1.655   1.576   3.792  0.1124  0.1878  0.7188
 2245SOL    MW4 9028   1.585   1.538   3.827  0.0014 -0.1751  0.1173
 2246SOL     OW 9029   1.335   1.658   3.739  0.5155 -0.4175 -0.8178
 2246SOL    HW2 9030   1.339   1.748   3.770  0.8259 -0.8762  0.4873
 2246SOL    HW3 9031   1.412   1.616   3.776 -0.7762 -1.7824  0.3949
 2246SOL    MW4 9032   1.345   1.664   3.748  0.3861 -0.6580 -0.4854
 2247SOL     OW 9033   1.347   1.925   3.858 -0.0718  1.0514  0.5310
 2247SOL    HW2 9034   1.329   1.911   3.950 -0.6843 -0.2376  0.2257
 2247SOL    HW3 9035   1.279   1.987   3.829 -1.1868 -0.1949  0.4549
 2247SOL    MW4 9036   1.336   1.932   3.866 -0.2998  0.7169  0.4809
 2248SOL     OW 9037   1.596   2.043   3.771 -0.0526  0.0386 -0.3222
 2248SOL    HW2 9038   1.512   2.014   3.808  0.0843 -0.3657 -0.3268
 2248SOL    HW3 9039   1.583   2.036   3.676 -0.6651  1.7997 -0.3961
 2248SOL    MW4 9040   1.583   2.038   3.763 -0.1154  0.2174 -0.3324
 2249SOL     OW 9041   1.567   2.317   3.817  0.1429  0.0823  0.2219
 2249SOL    HW2 9042   1.650   2.360   3.793  0.4072  0.3014  1.4850
 2249SOL    HW3 9043   1.582   2.224   3.800 -0.6536  0.5182 -3.1709
 2249SOL    MW4 9044   1.580   2.311   3.812  0.0726  0.1693 -0.0594
 2250SOL     OW 9045   1.352   2.426   3.697 -0.0524  0.6032  0.9315
 2250SOL    HW2 9046   1.423   2.378   3.738 -0.3146 -0.7171 -0.1170
 2250SOL    HW3 9047   1.273   2.398   3.743 -0.2134 -0.0222  0.2798
 2250SOL    MW4 9048   1.351   2.416   3.708 -0.1081  0.3464  0.7071
 2251SOL     OW 9049   1.423   2.668   3.839  0.4638  0.2982 -0.3502
 2251SOL    HW2 9050   1.445   2.659   3.932  1.1636 -1.5964 -0.6776
 2251SOL    HW3 9051   1.393   2.581   3.813 -3.3398  1.7290 -0.9992
 2251SOL    MW4 9052   1.422   2.655   3.848  0.0544  0.2372 -0.4790
 2252SOL     OW 9053   1.613   2.858   3.752  0.1120 -0.2259  0.3061
 2252SOL    HW2 9054   1.550   2.797   3.791 -0.6263  0.3679  0.0693
 2252SOL    HW3 9055   1.600   2.848   3.657 -0.0635  0.3508  0.2694
 2252SOL    MW4 9056   1.603   2.849   3.744 -0.0087 -0.0715  0.2699
 2253SOL     OW 9057   1.599   3.130   3.840  0.0546  0.3830  0.6686
 2253SOL    HW2 9058   1.590   3.128   3.935 -2.5668  0.3164  0.4548
 2253SOL    HW3 9059   1.594   3.038   3.814  1.8536  0.2995  0.5094
 2253SOL    MW4 9060   1.597   3.118   3.849 -0.0539  0.3631  0.6196
 2254SOL     OW 9061   1.346   3.223   3.774  0.1481 -0.4407 -0.1493
 2254SOL    HW2 9062   1.349   3.309   3.817 -0.0271 -0.3189 -0.3841
 2254SOL    HW3 9063   1.428   3.181   3.800  0.2793 -0.1634 -0.1155
 2254SOL    MW4 9064   1.357   3.229   3.783  0.1423 -0.3881 -0.1757
 2255SOL     OW 9065   1.372   3.481   3.892 -0.0240 -0.1511 -0.1801
 2255SOL    HW2 9066   1.454   3.509   3.852 -0.2851 -0.9858 -1.3110
 2255SOL    HW3 9067   1.304   3.532   3.848 -0.0965  0.8959  1.0910
 2255SOL    MW4 9068   1.374   3.491   3.881 -0.0679 -0.1230 -0.1619
 2256SOL     OW 9069   1.592   3.584   3.765  0.1472  0.6037 -0.0911
 2256SOL    HW2 9070   1.677   3.548   3.792  0.0339 -0.5739 -1.2096
 2256SOL    HW3 9071   1.587   3.669   3.807  0.8855 -0.2777  1.8404
 2256SOL    MW4 9072   1.603   3.590   3.774  0.2297  0.3319  0.0162
 2257SOL     OW 9073   1.601   3.839   3.885 -0.2753  0.1810  0.2747
 2257SOL    HW2 9074   1.598   3.846   3.980 -2.0863 -0.5721  0.2868
 2257SOL    HW3 9075   1.524   3.887   3.855 -0.1880 -0.3151 -0.7669
 2257SOL    MW4 9076   1.590   3.847   3.894 -0.5026  0.0165  0.1390
 2258SOL     OW 9077   1.371   3.979   3.801 -0.4501  0.2718  0.2172
 2258SOL    HW2 9078   1.370   4.070   3.831  0.8935  0.5514 -0.5864
 2258SOL    HW3 9079   1.369   3.984   3.706  0.1658 -0.5226  0.1522
 2258SOL    MW4 9080   1.370   3.991   3.793 -0.1915  0.2038  0.1025
 2259SOL     OW 9081   1.363   4.246   3.893  0.2611 -0.0350  0.0121
 2259SOL    HW2 9082   1.435   4.286   3.845 -0.2854  0.5511 -0.3282
 2259SOL    HW3 9083   1.284   4.284   3.854 -0.2467 -1.1030  0.0008
 2259SOL    MW4 9084   1.362   4.256   3.882  0.1220 -0.0987 -0.0343
 2260SOL     OW 9085   1.560   4.402   3.787  0.0468  0.5071 -0.3902
 2260SOL    HW2 9086   1.649   4.371   3.803 -0.4118 -0.9898 -0.7209
 2260SOL    HW3 9087   1.552   4.403   3.691 -0.6900 -0.5172 -0.3453
 2260SOL    MW4 9088   1.571   4.398   3.776 -0.1110  0.1740 -0.4280
 2261SOL     OW 9089   2.014   4.652   3.895  0.2869  0.1096 -0.0818
 2261SOL    HW2 9090   2.087   4.708   3.868  0.6219 -0.2775  0.0153
 2261SOL    HW3 9091   2.029   4.570   3.848  0.6391 -0.4243  0.9536
 2261SOL    MW4 9092   2.026   4.648   3.885  0.3777 -0.0124  0.0675
 2262SOL     OW 9093   1.784   0.098   3.768 -0.1366 -0.0570  0.2392
 2262SOL    HW2 9094   1.859   0.072   3.821  0.2171 -0.2911 -0.3660
 2262SOL    HW3 9095   1.707   0.077   3.821  0.2031 -0.6111  0.5094
 2262SOL    MW4 9096   1.784   0.092   3.782 -0.0449 -0.1610  0.1953
 2263SOL     OW 9097   1.767   0.345   3.898 -0.2096 -0.4574 -0.2600
 2263SOL    HW2 9098   1.756   0.327   3.992 -2.1292 -0.2392 -0.4226
 2263SOL    HW3 9099   1.773   0.259   3.858 -2.4565 -0.6530 -0.2547
 2263SOL    MW4 9100   1.766   0.331   3.905 -0.7594 -0.4544 -0.2806
 2264SOL     OW 9101   2.019   0.443   3.829 -0.6440  0.3270 -0.3797
 2264SOL    HW2 9102   1.935   0.409   3.860 -0.0601 -0.9655 -0.1687
 2264SOL    HW3 9103   2.022   0.420   3.736  0.3701 -1.5305  0.0811
 2264SOL    MW4 9104   2.009   0.435   3.821 -0.4330 -0.0886 -0.2911
 2265SOL     OW 9105   2.033   0.728   3.875  0.0676  0.1121  0.1505
 2265SOL    HW2 9106   2.052   0.724   3.969 -1.0497 -0.3187  0.3702
 2265SOL    HW3 9107   2.045   0.638   3.844 -1.5716 -0.1747  0.2998
 2265SOL    MW4 9108   2.037   0.716   3.883 -0.2961  0.0174  0.1993
 2266SOL     OW 9109   1.807   0.875   3.798 -0.2448 -0.1751  0.2149
 2266SOL    HW2 9110   1.885   0.826   3.826 -1.0195 -1.7036 -0.2435
 2266SOL    HW3 9111   1.810   0.871   3.702 -0.7541 -0.0183  0.1921
 2266SOL    MW4 9112   1.818   0.868   3.789 -0.4141 -0.3561  0.1512
 2267SOL     OW 9113   1.753   1.134   3.895 -0.3163 -0.2887 -0.5467
 2267SOL    HW2 9114   1.766   1.134   3.990  0.6767 -0.6305 -0.6782
 2267SOL    HW3 9115   1.780   1.047   3.867 -1.8813 -0.6567 -0.9880
 2267SOL    MW4 9116   1.758   1.123   3.904 -0.3918 -0.3822 -0.6223
 2268SOL     OW 9117   1.969   1.261   3.788 -0.4077  0.0737  0.1583
 2268SOL    HW2 9118   2.035   1.207   3.832  0.6279  0.1989 -1.1976
 2268SOL    HW3 9119   1.885   1.228   3.821  0.2838 -0.9782  0.9011
 2268SOL    MW4 9120   1.966   1.250   3.798 -0.1798 -0.0484  0.0772
 2269SOL     OW 9121   1.999   1.513   3.883 -0.2379  0.4024  0.0541
 2269SOL    HW2 9122   1.948   1.567   3.822 -1.3328 -0.4804  0.1629
 2269SOL    HW3 9123   1.990   1.424   3.849 -0.0959  0.0282  0.9907
 2269SOL    MW4 9124   1.991   1.508   3.870 -0.3636  0.2366  0.1919
 2270SOL     OW 9125   1.830   1.673   3.740  0.1095  0.0732 -0.5679
 2270SOL    HW2 9126   1.858   1.749   3.791  0.5402 -0.7196  0.3906
 2270SOL    HW3 9127   1.824   1.705   3.650 -0.4802  1.4396 -0.0545
 2270SOL    MW4 9128   1.833   1.687   3.735  0.0885  0.1488 -0.3736
 2271SOL     OW 9129   1.830   1.904   3.902  0.4153 -0.0680  0.1252
 2271SOL    HW2 9130   1.815   1.916   3.996 -0.9199 -1.8185  0.1641
 2271SOL    HW3 9131   1.753   1.942   3.860 -0.3648 -1.7946 -0.0847
 2271SOL    MW4 9132   1.818   1.910   3.909  0.1363 -0.5267  0.1028
 2272SOL     OW 9133   2.037   2.009   3.744  0.7564  0.0607 -0.1122
 2272SOL    HW2 9134   1.960   1.969   3.783  0.7361 -0.2322 -0.4520
 2272SOL    HW3 9135   2.018   2.013   3.651  0.6306  1.1391 -0.0477
 2272SOL    MW4 9136   2.025   2.005   3.737  0.7370  0.1643 -0.1485
 2273SOL     OW 9137   2.036   2.271   3.858 -0.5704 -0.0894 -0.0343
 2273SOL    HW2 9138   1.961   2.314   3.816 -0.0839  0.8144  0.0187
 2273SOL    HW3 9139   2.040   2.184   3.817 -1.2516  0.0947 -0.4987
 2273SOL    MW4 9140   2.027   2.265   3.847 -0.5963  0.0541 -0.0887
 2274SOL     OW 9141   1.832   2.413   3.761  0.9015 -0.2502 -0.0903
 2274SOL    HW2 9142   1.852   2.503   3.786  0.7102 -0.4250  0.7031
 2274SOL    HW3 9143   1.831   2.414   3.666  0.1053  0.7577 -0.0737
 2274SOL    MW4 9144   1.835   2.425   3.752  0.7714 -0.1402  0.0165
 2275SOL     OW 9145   1.824   2.681   3.851 -0.0097 -0.3692  0.2535
 2275SOL    HW2 9146   1.842   2.695   3.944 -1.1208 -0.0483  0.4335
 2275SOL    HW3 9147   1.766   2.754   3.827  0.2656 -0.4524 -0.6893
 2275SOL    MW4 9148   1.819   2.693   3.860 -0.1199 -0.3378  0.1531
 2276SOL     OW 9149   2.053   2.826   3.781 -0.1385 -0.4629  0.4143
 2276SOL    HW2 9150   2.128   2.772   3.808  0.5032 -0.4422 -1.2856
 2276SOL    HW3 9151   1.976   2.773   3.802  0.4842 -2.1533 -1.4227
 2276SOL    MW4 9152   2.053   2.812   3.787  0.0281 -0.6833 -0.0522
 2277SOL     OW 9153   2.069   3.103   3.819 -0.0496  0.3808 -0.5126
 2277SOL    HW2 9154   2.143   3.139   3.771  0.8637 -0.7512  0.0398
 2277SOL    HW3 9155   2.071   3.009   3.801 -0.3391  0.1000  0.8437
 2277SOL    MW4 9156   2.079   3.095   3.810  0.0329  0.1943 -0.2606
 2278SOL     OW 9157   1.833   3.248   3.752  0.0457  0.0677 -0.1637
 2278SOL    HW2 9158   1.909   3.208   3.792  0.8735 -0.0984 -1.8505
 2278SOL    HW3 9159   1.759   3.195   3.783  0.9961 -2.0977 -1.4502
 2278SOL    MW4 9160   1.833   3.236   3.761  0.2803 -0.2401 -0.5562
 2279SOL     OW 9161   1.841   3.486   3.883 -0.1431 -0.4446 -0.2537
 2279SOL    HW2 9162   1.911   3.527   3.833 -1.5152 -0.1001 -1.9629
 2279SOL    HW3 9163   1.836   3.397   3.849 -0.9131 -0.2916 -0.5447
 2279SOL    MW4 9164   1.849   3.480   3.872 -0.4257 -0.3788 -0.5176
 2280SOL     OW 9165   2.046   3.606   3.752  0.1903 -0.0367 -0.1158
 2280SOL    HW2 9166   2.124   3.564   3.788  1.4843  2.1173 -0.3248
 2280SOL    HW3 9167   2.057   3.601   3.657 -0.2500 -0.2748 -0.1596
 2280SOL    MW4 9168   2.058   3.600   3.744  0.3028  0.2160 -0.1490
 2281SOL     OW 9169   2.051   3.869   3.866 -0.3994  0.2023  0.3424
 2281SOL    HW2 9170   2.144   3.892   3.867 -0.3588  0.0109  0.8392
 2281SOL    HW3 9171   2.048   3.779   3.833 -0.3958  0.1500  0.4844
 2281SOL    MW4 9172   2.063   3.860   3.861 -0.3936  0.1702  0.4265
 2282SOL     OW 9173   1.820   4.001   3.782  0.2099  0.1049 -0.2971
 2282SOL    HW2 9174   1.905   3.961   3.804  0.5356  0.5125 -0.7879
 2282SOL    HW3 9175   1.756   3.947   3.828  0.8034  0.3768  0.8630
 2282SOL    MW4 9176   1.823   3.988   3.791  0.3310  0.1945 -0.2089
 2283SOL     OW 9177   1.804   4.272   3.865 -0.2264 -0.1962  0.3539
 2283SOL    HW2 9178   1.878   4.326   3.839 -0.6490  0.5056  0.5840
 2283SOL    HW3 9179   1.827   4.184   3.836  1.7586 -0.4546  2.5822
 2283SOL    MW4 9180   1.816   4.267   3.858 -0.0203 -0.1373  0.6785
 2284SOL     OW 9181   2.045   4.391   3.765 -0.4804 -0.1786 -0.0054
 2284SOL    HW2 9182   2.124   4.349   3.799 -0.7770 -0.3089  0.5280
 2284SOL    HW3 9183   2.058   4.394   3.671  0.6083  0.7043  0.1530
 2284SOL    MW4 9184   2.057   4.386   3.757 -0.3757 -0.0792  0.0858
 2285SOL     OW 9185   2.470   4.599   3.901 -0.5406 -0.1670 -0.4154
 2285SOL    HW2 9186   2.468   4.605   3.996  3.8165 -2.5278 -0.0516
 2285SOL    HW3 9187   2.529   4.668   3.874  0.4352 -1.2736 -1.1591
 2285SOL    MW4 9188   2.477   4.609   3.910  0.1628 -0.6247 -0.4656
 2286SOL     OW 9189   2.251   0.110   3.818 -0.3381  0.3960 -0.2906
 2286SOL    HW2 9190   2.319   0.046   3.842  0.6911  1.9569  1.0168
 2286SOL    HW3 9191   2.248   0.105   3.722  0.1683 -1.1568 -0.2538
 2286SOL    MW4 9192   2.260   0.101   3.809 -0.1354  0.3971 -0.1135
 2287SOL     OW 9193   2.255   0.335   3.943 -0.4961  0.1786 -0.1720
 2287SOL    HW2 9194   2.247   0.250   3.900 -2.1474 -0.3780  1.1665
 2287SOL    HW3 9195   2.180   0.386   3.911 -0.6322  0.4373  0.5436
 2287SOL    MW4 9196   2.244   0.331   3.933 -0.7319  0.1393  0.0989
 2288SOL     OW 9197   2.452   0.506   3.838 -0.3864  0.1791  0.2866
 2288SOL    HW2 9198   2.378   0.448   3.855  0.1328 -0.7964 -0.7251
 2288SOL    HW3 9199   2.456   0.513   3.742  0.1460  1.1196  0.3627
 2288SOL    MW4 9200   2.443   0.500   3.827 -0.2477  0.1745  0.1631
 2289SOL     OW 9201   2.450   0.768   3.934  0.1694  0.1697 -0.3932
 2289SOL    HW2 9202   2.383   0.820   3.889 -0.7086  0.7498  1.5517
 2289SOL    HW3 9203   2.434   0.678   3.905 -1.9346  0.1941  0.5911
 2289SOL    MW4 9204   2.439   0.763   3.924 -0.2244  0.2495 -0.0067
 2290SOL     OW 9205   2.240   0.895   3.818 -0.0097 -0.2815  0.0899
 2290SOL    HW2 9206   2.174   0.832   3.845 -0.4086  0.4638  0.8821
 2290SOL    HW3 9207   2.249   0.882   3.723 -0.2943 -1.3135  0.1988
 2290SOL    MW4 9208   2.233   0.885   3.809 -0.1001 -0.3193  0.2089
 2291SOL     OW 9209   2.201   1.144   3.910  0.2978 -0.1615  0.2689
 2291SOL    HW2 9210   2.199   1.131   4.005  1.1660  1.2286  0.4948
 2291SOL    HW3 9211   2.211   1.056   3.874  0.7306 -0.6322  1.5067
 2291SOL    MW4 9212   2.202   1.130   3.918  0.4694 -0.0401  0.4623
 2292SOL     OW 9213   2.430   1.248   3.774  0.0893 -0.4342 -0.0329
 2292SOL    HW2 9214   2.430   1.338   3.806 -0.3360 -0.3293 -0.3158
 2292SOL    HW3 9215   2.352   1.208   3.813 -0.8450 -0.0884 -1.4997
 2292SOL    MW4 9216   2.419   1.255   3.783 -0.0901 -0.3747 -0.2635
 2293SOL     OW 9217   2.484   1.501   3.843 -0.1144  0.1883  0.0746
 2293SOL    HW2 9218   2.571   1.534   3.820  0.1569 -1.1704 -0.9201
 2293SOL    HW3 9219   2.424   1.565   3.806  0.4436  0.5598 -0.1927
 2293SOL    MW4 9220   2.488   1.514   3.835 -0.0050  0.0579 -0.0918
 2294SOL     OW 9221   2.233   1.645   3.766  0.4021  0.3257 -0.5546
 2294SOL    HW2 9222   2.230   1.732   3.806  1.8179  0.2265 -0.2214
 2294SOL    HW3 9223   2.168   1.595   3.815  1.1326  0.5928  0.7155
 2294SOL    MW4 9224   2.224   1.650   3.777  0.6855  0.3479 -0.3431
 2295SOL     OW 9225   2.253   1.888   3.874 -0.3200  0.1666  0.3789
 2295SOL    HW2 9226   2.247   1.892   3.969 -0.4542  0.4432  0.3583
 2295SOL    HW3 9227   2.185   1.948   3.843  0.3205  0.7643  0.1185
 2295SOL    MW4 9228   2.244   1.896   3.882 -0.2532  0.2819  0.3419
 2296SOL     OW 9229   2.474   2.040   3.766 -0.6161 -0.1609  0.6444
 2296SOL    HW2 9230   2.496   2.119   3.815 -0.6085  1.0634 -1.2701
 2296SOL    HW3 9231   2.394   2.007   3.807  0.8086 -0.6812  3.1422
 2296SOL    MW4 9232   2.466   2.046   3.778 -0.4270 -0.0684  0.7212
 2297SOL     OW 9233   2.525   2.286   3.876  0.4622  0.0801 -1.1824
 2297SOL    HW2 9234   2.582   2.352   3.837  0.9580  0.4871  0.2154
 2297SOL    HW3 9235   2.437   2.310   3.845  0.6564  1.2984 -0.8130
 2297SOL    MW4 9236   2.521   2.298   3.866  0.5531  0.2944 -0.9491
 2298SOL     OW 9237   2.272   2.396   3.759  0.0586 -0.3104  0.3774
 2298SOL    HW2 9238   2.189   2.352   3.779  0.8688 -1.9820  0.2191
 2298SOL    HW3 9239   2.278   2.393   3.663 -1.8094  3.8568  0.0749
 2298SOL    MW4 9240   2.262   2.390   3.749 -0.0808  0.0188  0.3164
 2299SOL     OW 9241   2.273   2.675   3.839 -0.0018 -0.2046 -0.4846
 2299SOL    HW2 9242   2.290   2.673   3.933  1.8367  2.1628 -0.7129
 2299SOL    HW3 9243   2.286   2.585   3.810  0.6083 -0.7180  1.3161
 2299SOL    MW4 9244   2.277   2.663   3.848  0.3216  0.0398 -0.2770
 2300SOL     OW 9245   2.476   2.837   3.772 -0.4743  0.4293  0.1450
 2300SOL    HW2 9246   2.393   2.795   3.792  0.7271 -1.7439  0.7215
 2300SOL    HW3 9247   2.484   2.831   3.677 -0.7421  0.1792  0.1393
 2300SOL    MW4 9248   2.466   2.831   3.762 -0.3510  0.1094  0.2203
 2301SOL     OW 9249   2.494   3.110   3.855  0.2703 -0.1363  0.4835
 2301SOL    HW2 9250   2.501   3.117   3.950  2.9098 -0.3762  0.3387
 2301SOL    HW3 9251   2.498   3.015   3.838  0.6709 -0.0482  0.0849
 2301SOL    MW4 9252   2.496   3.098   3.865  0.6714 -0.1562  0.4117
 2302SOL     OW 9253   2.284   3.238   3.733 -0.3650  0.0710 -0.4564
 2302SOL    HW2 9254   2.263   3.318   3.781  2.3042  0.8035 -0.4365
 2302SOL    HW3 9255   2.361   3.203   3.776 -0.8688 -1.9698 -1.1400
 2302SOL    MW4 9256   2.291   3.244   3.745 -0.0794 -0.1016 -0.5441
 2303SOL     OW 9257   2.258   3.486   3.872 -0.2719  0.2634 -0.5130
 2303SOL    HW2 9258   2.263   3.480   3.968  0.0808  0.6308 -0.5089
 2303SOL    HW3 9259   2.342   3.522   3.846 -1.3597  2.7971 -0.7299
 2303SOL    MW4 9260   2.270   3.490   3.881 -0.3691  0.6459 -0.5412
 2304SOL     OW 9261   2.488   3.601   3.763  0.4151 -0.0519  0.5449
 2304SOL    HW2 9262   2.572   3.559   3.775  1.2087  1.3642  0.0922
 2304SOL    HW3 9263   2.478   3.610   3.669  1.0536  2.2548  0.6472
 2304SOL    MW4 9264   2.497   3.597   3.753  0.6042  0.4392  0.4988
 2305SOL     OW 9265   2.519   3.855   3.914 -0.5774 -0.3038  0.1071
 2305SOL    HW2 9266   2.573   3.911   3.859 -1.6623  0.0971 -0.5583
 2305SOL    HW3 9267   2.522   3.769   3.871  0.4113 -0.5715  0.6773
 2305SOL    MW4 9268   2.527   3.851   3.901 -0.5903 -0.2861  0.0942
 2306SOL     OW 9269   2.301   3.967   3.796 -0.0158 -0.0146  0.0021
 2306SOL    HW2 9270   2.376   3.919   3.832  0.5378  0.1619 -0.8926
 2306SOL    HW3 9271   2.300   3.944   3.703 -0.9641  0.1267 -0.0247
 2306SOL    MW4 9272   2.311   3.958   3.789 -0.0679  0.0274 -0.1194
 2307SOL     OW 9273   2.271   4.246   3.863 -0.1681 -0.2972 -0.5960
 2307SOL    HW2 9274   2.283   4.243   3.958 -0.5097  0.6999 -0.5163
 2307SOL    HW3 9275   2.270   4.154   3.836 -0.8301 -0.6153  0.4625
 2307SOL    MW4 9276   2.272   4.233   3.872 -0.3004 -0.2079 -0.4458
 2308SOL     OW 9277   2.502   4.378   3.760  0.3505 -0.1805 -0.0671
 2308SOL    HW2 9278   2.426   4.328   3.790 -0.5620  0.8734 -0.6116
 2308SOL    HW3 9279   2.498   4.460   3.808  1.3959 -0.2832  0.2163
 2308SOL    MW4 9280   2.491   4.382   3.770  0.3681 -0.0548 -0.1016
 2309SOL     OW 9281   2.957   4.617   3.861  0.3110  0.4134  0.6123
 2309SOL    HW2 9282   2.950   4.606   3.956 -0.0275  1.2396  0.6931
 2309SOL    HW3 9283   3.017   4.691   3.850  0.6051  0.1092  0.1736
 2309SOL    MW4 9284   2.964   4.625   3.872  0.3049  0.4826  0.5651
 2310SOL     OW 9285   2.676   0.090   3.827  0.0140 -0.0557  0.5661
 2310SOL    HW2 9286   2.766   0.063   3.849  0.7037  1.6788 -0.0456
 2310SOL    HW3 9287   2.674   0.089   3.731 -0.1033  1.4864  0.5368
 2310SOL    MW4 9288   2.688   0.086   3.817  0.0894  0.3766  0.4818
 2311SOL     OW 9289   2.684   0.355   3.912  0.1240 -0.2571  0.0234
 2311SOL    HW2 9290   2.668   0.269   3.873 -0.1587 -0.5894  0.8515
 2311SOL    HW3 9291   2.609   0.408   3.885  0.3670 -0.2257 -0.5998
 2311SOL    MW4 9292   2.672   0.351   3.903  0.1187 -0.2968  0.0505
 2312SOL     OW 9293   2.919   0.505   3.826  0.1951  0.3770 -0.0222
 2312SOL    HW2 9294   2.992   0.456   3.864 -0.5181 -0.6298  0.0410
 2312SOL    HW3 9295   2.840   0.463   3.859 -0.4466  2.4265  1.1539
 2312SOL    MW4 9296   2.918   0.493   3.835  0.0162  0.5146  0.1411
 2313SOL     OW 9297   2.907   0.775   3.880  0.6209  0.5484  0.0547
 2313SOL    HW2 9298   2.993   0.807   3.854  0.5309 -0.8145 -1.9819
 2313SOL    HW3 9299   2.909   0.681   3.861 -0.1585 -0.1685  3.1262
 2313SOL    MW4 9300   2.919   0.767   3.874  0.5064  0.2740  0.1912
 2314SOL     OW 9301   2.662   0.912   3.816  0.0075  1.2421  0.1644
 2314SOL    HW2 9302   2.747   0.872   3.836 -0.7247 -0.2952  0.2444
 2314SOL    HW3 9303   2.598   0.851   3.852 -1.1331  2.6654  0.5784
 2314SOL    MW4 9304   2.665   0.899   3.824 -0.2394  1.2270  0.2296
 2315SOL     OW 9305   2.644   1.158   3.924 -0.1712  0.3605  0.0307
 2315SOL    HW2 9306   2.657   1.072   3.884 -0.8293  0.2755 -0.0024
 2315SOL    HW3 9307   2.566   1.193   3.880  0.1120  0.9873  0.0200
 2315SOL    MW4 9308   2.635   1.151   3.913 -0.2208  0.4320  0.0253
 2316SOL     OW 9309   2.859   1.273   3.773 -0.4096 -0.4625 -0.5989
 2316SOL    HW2 9310   2.877   1.362   3.803  1.5975 -1.0516  0.0660
 2316SOL    HW3 9311   2.786   1.243   3.828 -1.8286  1.1414 -1.5838
 2316SOL    MW4 9312   2.852   1.281   3.785 -0.3321 -0.3285 -0.6411
 2317SOL     OW 9313   2.937   1.519   3.857 -0.4152  0.1341  0.5301
 2317SOL    HW2 9314   2.950   1.503   3.950  0.4344  0.2085  0.4253
 2317SOL    HW3 9315   3.012   1.571   3.830 -0.1641 -0.6976 -0.4075
 2317SOL    MW4 9316   2.948   1.524   3.865 -0.2699  0.0343  0.3927
 2318SOL     OW 9317   2.715   1.640   3.750  0.1699  0.3076 -0.4319
 2318SOL    HW2 9318   2.806   1.611   3.762  1.3750  3.7158 -0.9863
 2318SOL    HW3 9319   2.701   1.639   3.656 -0.4706 -0.4746 -0.3326
 2318SOL    MW4 9320   2.725   1.636   3.739  0.2444  0.6541 -0.4919
 2319SOL     OW 9321   2.707   1.898   3.859 -0.1255  0.4479 -0.4374
 2319SOL    HW2 9322   2.709   1.809   3.824  0.4210  0.2480  0.0998
 2319SOL    HW3 9323   2.621   1.931   3.834 -0.7125 -0.5721  0.1923
 2319SOL    MW4 9324   2.696   1.890   3.851 -0.1309  0.2871 -0.2837
 2320SOL     OW 9325   2.918   2.047   3.766 -0.5897 -0.4093  0.1256
 2320SOL    HW2 9326   2.912   2.134   3.806 -1.6760  0.1035 -1.1091
 2320SOL    HW3 9327   2.838   2.002   3.794  0.0882 -1.0937  0.9558
 2320SOL    MW4 9328   2.906   2.052   3.775 -0.6433 -0.4318  0.0722
 2321SOL     OW 9329   2.941   2.307   3.876 -0.1348  0.1859 -0.3238
 2321SOL    HW2 9330   2.931   2.288   3.969 -1.5399 -0.1747 -0.5413
 2321SOL    HW3 9331   3.017   2.366   3.871 -0.4477  0.7161  1.0982
 2321SOL    MW4 9332   2.950   2.312   3.887 -0.3614  0.2084 -0.1652
 2322SOL     OW 9333   2.728   2.446   3.777 -0.1966 -0.6750  0.1851
 2322SOL    HW2 9334   2.729   2.528   3.827 -0.6153 -0.5073 -0.0781
 2322SOL    HW3 9335   2.796   2.393   3.817 -0.5300 -0.5431  0.9415
 2322SOL    MW4 9336   2.737   2.450   3.789 -0.2959 -0.6354  0.2503
 2323SOL     OW 9337   2.698   2.704   3.891 -0.0849  0.0223  0.5122
 2323SOL    HW2 9338   2.691   2.701   3.987  0.2825 -0.3734  0.5278
 2323SOL    HW3 9339   2.625   2.759   3.864 -0.3685 -0.1039  1.0051
 2323SOL    MW4 9340   2.687   2.711   3.900 -0.0739 -0.0467  0.5794
 2324SOL     OW 9341   2.931   2.801   3.772  0.3115 -0.1460 -0.2083
 2324SOL    HW2 9342   2.941   2.886   3.814  1.5669 -0.2275 -0.3161
 2324SOL    HW3 9343   2.862   2.758   3.821  0.2567  0.6073  0.3852
 2324SOL    MW4 9344   2.924   2.806   3.784  0.4697 -0.0572 -0.1445
 2325SOL     OW 9345   2.913   3.071   3.894  0.4656 -0.2483 -0.7298
 2325SOL    HW2 9346   2.987   3.129   3.877 -0.9057  1.8920  0.5084
 2325SOL    HW3 9347   2.839   3.113   3.851 -1.1018  0.3545  2.4928
 2325SOL    MW4 9348   2.913   3.084   3.886  0.0777  0.1137 -0.1414
 2326SOL     OW 9349   2.713   3.218   3.750  0.1525  0.0738 -0.3652
 2326SOL    HW2 9350   2.725   3.306   3.787  1.0754 -0.4089  0.5090
 2326SOL    HW3 9351   2.634   3.185   3.793 -0.0267  0.3666 -0.4698
 2326SOL    MW4 9352   2.704   3.226   3.761  0.2506  0.0486 -0.2637
 2327SOL     OW 9353   2.709   3.476   3.872  0.7335 -0.6211 -0.1668
 2327SOL    HW2 9354   2.713   3.481   3.967  1.4337  0.2152 -0.2346
 2327SOL    HW3 9355   2.780   3.533   3.841 -0.6027  0.5314 -1.2075
 2327SOL    MW4 9356   2.719   3.484   3.880  0.6497 -0.3588 -0.3130
 2328SOL     OW 9357   2.921   3.609   3.772 -0.4010 -0.3875  0.3056
 2328SOL    HW2 9358   2.991   3.562   3.818  0.1147  1.4948  1.5095
 2328SOL    HW3 9359   2.932   3.585   3.680  1.4162 -0.6220  0.5723
 2328SOL    MW4 9360   2.932   3.599   3.766 -0.0932 -0.1702  0.4995
 2329SOL     OW 9361   2.917   3.874   3.868  0.0258 -0.1745 -0.2926
 2329SOL    HW2 9362   2.902   3.868   3.963  1.1958  1.1678  0.0085
 2329SOL    HW3 9363   2.936   3.784   3.841 -0.1316 -0.5440  0.7808
 2329SOL    MW4 9364   2.918   3.861   3.877  0.1593 -0.0463 -0.1116
 2330SOL     OW 9365   2.707   4.012   3.769  0.0157  0.4517 -0.3141
 2330SOL    HW2 9366   2.719   4.099   3.808 -1.9658  0.4990  0.2611
 2330SOL    HW3 9367   2.785   3.963   3.794  0.6658  1.7508  0.2451
 2330SOL    MW4 9368   2.719   4.017   3.778 -0.1600  0.6294 -0.1645
 2331SOL     OW 9369   2.732   4.266   3.894  0.1801  0.2165  0.4877
 2331SOL    HW2 9370   2.814   4.301   3.858  0.0830 -1.1561 -1.1464
 2331SOL    HW3 9371   2.664   4.310   3.843  0.0095 -1.0324 -0.3813
 2331SOL    MW4 9372   2.734   4.276   3.882  0.1447 -0.1297  0.1574
 2332SOL     OW 9373   2.966   4.347   3.778 -0.4555  0.1298 -0.3354
 2332SOL    HW2 9374   3.042   4.301   3.813 -1.5182 -1.2388  0.2337
 2332SOL    HW3 9375   2.973   4.436   3.814  0.6138 -0.1197  0.0794
 2332SOL    MW4 9376   2.977   4.353   3.788 -0.4544 -0.0844 -0.2055
 2333SOL     OW 9377   3.375   4.654   3.880 -0.2804 -0.0483 -0.1037
 2333SOL    HW2 9378   3.395   4.627   3.969 -1.2629  0.5515  0.3088
 2333SOL    HW3 9379   3.457   4.688   3.845  0.0613 -0.1152  0.6400
 2333SOL    MW4 9380   3.388   4.655   3.887 -0.3648  0.0224  0.0489
 2334SOL     OW 9381   3.165   0.123   3.792 -0.3511  0.6583 -0.4929
 2334SOL    HW2 9382   3.243   0.075   3.820  0.1452  1.6832 -0.0756
 2334SOL    HW3 9383   3.168   0.120   3.696 -0.0583  0.2984 -0.4751
 2334SOL    MW4 9384   3.176   0.116   3.783 -0.2470  0.7460 -0.4354
 2335SOL     OW 9385   3.147   0.373   3.914 -0.0467 -0.7055  0.1585
 2335SOL    HW2 9386   3.161   0.383   4.008  3.5278  1.2422 -0.4623
 2335SOL    HW3 9387   3.161   0.280   3.897  1.9533 -0.6456  1.2474
 2335SOL    MW4 9388   3.151   0.362   3.924  0.6888 -0.4406  0.2203
 2336SOL     OW 9389   3.365   0.517   3.804  0.3175 -0.5349  0.1923
 2336SOL    HW2 9390   3.442   0.468   3.833 -0.0011 -1.7911 -1.0121
 2336SOL    HW3 9391   3.291   0.465   3.835 -0.0253 -0.4325 -0.4475
 2336SOL    MW4 9392   3.365   0.504   3.812  0.2303 -0.6871 -0.0510
 2337SOL     OW 9393   3.364   0.755   3.900 -0.0075  0.0437  0.3795
 2337SOL    HW2 9394   3.362   0.742   3.995 -1.8722 -0.3518  0.2981
 2337SOL    HW3 9395   3.362   0.667   3.864  2.0865  0.1342 -0.0465
 2337SOL    MW4 9396   3.364   0.742   3.908  0.0229  0.0034  0.3123
 2338SOL     OW 9397   3.140   0.905   3.805  0.2552  0.2071 -0.2658
 2338SOL    HW2 9398   3.218   0.867   3.846  0.4871  1.2933  0.3130
 2338SOL    HW3 9399   3.158   0.903   3.712  0.9282  0.3399 -0.1402
 2338SOL    MW4 9400   3.152   0.899   3.798  0.3748  0.3679 -0.1729
 2339SOL     OW 9401   3.080   1.145   3.889 -0.0453  0.0502  0.1784
 2339SOL    HW2 9402   3.078   1.058   3.848  1.5545  0.1453 -0.1500
 2339SOL    HW3 9403   3.002   1.189   3.855 -0.3192 -0.8975 -0.4551
 2339SOL    MW4 9404   3.069   1.139   3.879  0.1297 -0.0623  0.0515
 2340SOL     OW 9405   3.313   1.257   3.795  0.0897  0.4195  0.3903
 2340SOL    HW2 9406   3.230   1.225   3.829  0.2134 -0.3679 -0.0221
 2340SOL    HW3 9407   3.303   1.255   3.699  1.0006 -0.8978  0.2972
 2340SOL    MW4 9408   3.301   1.253   3.786  0.2263  0.1417  0.3235
 2341SOL     OW 9409   3.389   1.508   3.870 -0.1700  0.1887 -0.1918
 2341SOL    HW2 9410   3.316   1.563   3.843 -0.1521 -0.0730 -0.7841
 2341SOL    HW3 9411   3.360   1.419   3.851  0.1452  0.0598 -0.0620
 2341SOL    MW4 9412   3.376   1.504   3.864 -0.1261  0.1372 -0.2527
 2342SOL     OW 9413   3.176   1.658   3.766  0.1446  0.2154 -0.2084
 2342SOL    HW2 9414   3.168   1.753   3.777  1.0011  0.1837  0.8050
 2342SOL    HW3 9415   3.158   1.643   3.673 -1.8184  1.1586 -0.0191
 2342SOL    MW4 9416   3.172   1.668   3.755 -0.0012  0.3356 -0.0496
 2343SOL     OW 9417   3.167   1.940   3.841 -0.2721 -0.5295 -0.1525
 2343SOL    HW2 9418   3.157   1.939   3.936  1.2318  0.0640  0.0335
 2343SOL    HW3 9419   3.081   1.964   3.808 -0.8403 -0.8593  1.0501
 2343SOL    MW4 9420   3.155   1.943   3.849 -0.1485 -0.4947  0.0308
 2344SOL     OW 9421   3.415   2.036   3.775  0.4785  0.1239 -0.0870
 2344SOL    HW2 9422   3.326   2.006   3.795 -0.0611  2.6962  1.5688
 2344SOL    HW3 9423   3.410   2.063   3.683 -0.3199 -0.1843 -0.1407
 2344SOL    MW4 9424   3.403   2.036   3.765  0.3021  0.4225  0.1245
 2345SOL     OW 9425   3.397   2.294   3.858 -0.1180  0.4609 -0.4557
 2345SOL    HW2 9426   3.313   2.329   3.831 -0.9555  0.7089  2.3518
 2345SOL    HW3 9427   3.399   2.205   3.821 -0.4033  1.3743 -2.7707
 2345SOL    MW4 9428   3.386   2.287   3.849 -0.2661  0.6142 -0.3905
 2346SOL     OW 9429   3.168   2.426   3.790 -0.1776  0.5014  0.1207
 2346SOL    HW2 9430   3.179   2.517   3.816  0.4698  0.6633 -0.7078
 2346SOL    HW3 9431   3.152   2.429   3.696 -0.6619 -0.2080  0.1744
 2346SOL    MW4 9432   3.167   2.438   3.781 -0.1559  0.4292  0.0186
 2347SOL     OW 9433   3.152   2.679   3.864 -0.4401 -0.3748 -0.0285
 2347SOL    HW2 9434   3.149   2.689   3.959  2.3091  0.2078  0.0464
 2347SOL    HW3 9435   3.071   2.720   3.833 -1.2117 -0.2868  2.0344
 2347SOL    MW4 9436   3.141   2.686   3.872 -0.1788 -0.2863  0.2539
 2348SOL     OW 9437   3.377   2.840   3.810 -0.1089  0.0302  0.5239
 2348SOL    HW2 9438   3.310   2.776   3.833 -0.8081  0.9001  0.9118
 2348SOL    HW3 9439   3.374   2.843   3.714 -0.3365 -0.2311  0.5200
 2348SOL    MW4 9440   3.368   2.832   3.800 -0.2313  0.1104  0.5748
 2349SOL     OW 9441   3.341   3.089   3.936 -0.2192 -0.0609 -0.3864
 2349SOL    HW2 9442   3.427   3.126   3.913 -0.0761  0.3741  0.7878
 2349SOL    HW3 9443   3.341   3.002   3.897  0.5551  0.1354 -0.8439
 2349SOL    MW4 9444   3.352   3.083   3.928 -0.0980  0.0224 -0.2916
 2350SOL     OW 9445   3.136   3.246   3.838 -0.3353 -0.2143  0.3784
 2350SOL    HW2 9446   3.215   3.202   3.872 -0.1757  0.6056  1.0831
 2350SOL    HW3 9447   3.154   3.258   3.745 -0.2293 -1.3218  0.2458
 2350SOL    MW4 9448   3.149   3.241   3.830 -0.2999 -0.2522  0.4539
 2351SOL     OW 9449   3.147   3.506   3.919  0.0528  0.1540  0.2572
 2351SOL    HW2 9450   3.227   3.543   3.882  1.4147 -0.8176  2.1742
 2351SOL    HW3 9451   3.150   3.414   3.896 -0.2640  0.0074  0.7894
 2351SOL    MW4 9452   3.158   3.499   3.911  0.1905  0.0064  0.5803
 2352SOL     OW 9453   3.385   3.586   3.796 -0.2425 -0.0397  0.5012
 2352SOL    HW2 9454   3.365   3.678   3.816  0.3350  0.5175 -1.4092
 2352SOL    HW3 9455   3.395   3.584   3.701  1.3068 -1.7911  0.6839
 2352SOL    MW4 9456   3.383   3.598   3.786  0.0379 -0.1972  0.2735
 2353SOL     OW 9457   3.347   3.858   3.866 -0.0062  0.0432 -0.4462
 2353SOL    HW2 9458   3.422   3.908   3.833 -1.4312  2.6908  0.1474
 2353SOL    HW3 9459   3.271   3.899   3.825 -1.4455  0.4141  2.4508
 2353SOL    MW4 9460   3.347   3.870   3.856 -0.3839  0.4418  0.0143
 2354SOL     OW 9461   3.139   3.997   3.747 -0.8035  0.1516  0.3663
 2354SOL    HW2 9462   3.164   4.076   3.794  0.2092 -1.2278  2.1918
 2354SOL    HW3 9463   3.068   3.959   3.799  1.4556 -2.2779  1.8010
 2354SOL    MW4 9464   3.133   4.002   3.760 -0.3719 -0.3514  0.7963
 2355SOL     OW 9465   3.189   4.235   3.885 -0.4992  0.1001 -0.6240
 2355SOL    HW2 9466   3.196   4.235   3.981 -0.1759 -2.5862 -0.6292
 2355SOL    HW3 9467   3.273   4.267   3.854  0.1115 -0.9245 -0.0368
 2355SOL    MW4 9468   3.201   4.240   3.894 -0.3760 -0.3901 -0.5474
 2356SOL     OW 9469   3.393   4.396   3.752 -0.2131  0.3931 -0.7991
 2356SOL    HW2 9470   3.467   4.353   3.795  1.1936  2.0719 -1.4656
 2356SOL    HW3 9471   3.384   4.479   3.798 -2.0228 -0.0048 -0.4125
 2356SOL    MW4 9472   3.402   4.401   3.763 -0.2661  0.5622 -0.8359
 2357SOL     OW 9473   3.802   4.648   3.925  0.3872 -0.1434  0.4446
 2357SOL    HW2 9474   3.882   4.691   3.895 -0.3111  0.1117 -1.1315
 2357SOL    HW3 9475   3.809   4.559   3.890 -0.5661  0.2369 -0.7803
 2357SOL    MW4 9476   3.813   4.642   3.916  0.1693 -0.0596  0.0749
 2358SOL     OW 9477   3.613   0.090   3.763 -0.0368  0.0349 -0.4053
 2358SOL    HW2 9478   3.694   0.057   3.802 -0.1443 -0.7462 -0.8309
 2358SOL    HW3 9479   3.628   0.082   3.668  0.5316  2.6214 -0.5831
 2358SOL    MW4 9480   3.626   0.084   3.755  0.0238  0.2731 -0.4849
 2359SOL     OW 9481   3.580   0.356   3.868  0.1202  0.0087 -0.5238
 2359SOL    HW2 9482   3.660   0.397   3.836  0.8798 -0.3275  0.8703
 2359SOL    HW3 9483   3.579   0.269   3.827  0.8606 -0.2610  0.0214
 2359SOL    MW4 9484   3.590   0.350   3.858  0.3181 -0.0713 -0.2682
 2360SOL     OW 9485   3.826   0.487   3.784 -0.5772  0.6807  0.2422
 2360SOL    HW2 9486   3.910   0.452   3.815 -1.2158 -2.4039 -1.2988
 2360SOL    HW3 9487   3.818   0.572   3.827  3.5198  1.2292  0.1164
 2360SOL    MW4 9488   3.836   0.494   3.794 -0.1209  0.3461  0.0219
 2361SOL     OW 9489   3.795   0.743   3.878 -0.5528  0.0674  0.4684
 2361SOL    HW2 9490   3.879   0.782   3.854 -0.8223  0.6208  0.4267
 2361SOL    HW3 9491   3.729   0.797   3.833 -0.8287 -1.7962 -1.4730
 2361SOL    MW4 9492   3.797   0.755   3.869 -0.6249 -0.1054  0.2067
 2362SOL     OW 9493   3.578   0.874   3.773 -0.5999  0.2059 -0.0972
 2362SOL    HW2 9494   3.577   0.965   3.804  0.9812  0.5993 -1.1419
 2362SOL    HW3 9495   3.523   0.827   3.835  0.0969  1.5145  1.5588
 2362SOL    MW4 9496   3.570   0.880   3.785 -0.2995  0.4304 -0.0165
 2363SOL     OW 9497   3.580   1.152   3.874 -0.4440 -0.0766  0.3041
 2363SOL    HW2 9498   3.657   1.190   3.830  0.1793 -1.0147  0.5690
 2363SOL    HW3 9499   3.505   1.188   3.827  0.1676  0.6008 -0.1619
 2363SOL    MW4 9500   3.581   1.162   3.862 -0.2811 -0.1109  0.2773
 2364SOL     OW 9501   3.792   1.265   3.752  0.1866 -1.1360 -0.6240
 2364SOL    HW2 9502   3.866   1.208   3.773  1.3149 -0.3820 -2.4503
 2364SOL    HW3 9503   3.803   1.340   3.811  1.3082 -0.7043 -1.3429
 2364SOL    MW4 9504   3.804   1.268   3.763  0.4838 -0.9794 -0.9601
 2365SOL     OW 9505   3.832   1.504   3.893  0.1333 -0.1191  0.2006
 2365SOL    HW2 9506   3.837   1.525   3.986 -0.9198  1.4219 -0.0860
 2365SOL    HW3 9507   3.756   1.551   3.861 -0.9427 -2.5683 -0.9644
 2365SOL    MW4 9508   3.823   1.513   3.901 -0.1476 -0.2388  0.0091
 2366SOL     OW 9509   3.611   1.643   3.785 -0.0568 -0.2466 -0.1950
 2366SOL    HW2 9510   3.535   1.596   3.821 -0.8304  0.7988 -0.4467
 2366SOL    HW3 9511   3.593   1.648   3.691  0.5520 -0.3869 -0.3225
 2366SOL    MW4 9512   3.599   1.637   3.777 -0.0787 -0.1272 -0.2451
 2367SOL     OW 9513   3.647   1.899   3.894  0.1378 -0.2480  0.7436
 2367SOL    HW2 9514   3.642   1.815   3.848  0.1945 -0.6359  1.4356
 2367SOL    HW3 9515   3.563   1.941   3.874 -0.3380 -0.9278  1.2637
 2367SOL    MW4 9516   3.635   1.893   3.885  0.0823 -0.3890  0.9036
 2368SOL     OW 9517   3.847   2.034   3.777  0.4174  0.1165 -0.0835
 2368SOL    HW2 9518   3.925   1.989   3.810 -0.1551 -0.0734  1.0380
 2368SOL    HW3 9519   3.774   1.987   3.818 -0.2810  0.3891 -1.0147
 2368SOL    MW4 9520   3.848   2.022   3.787  0.2494  0.1276 -0.0584
 2369SOL     OW 9521   3.853   2.291   3.889 -0.3672  0.0928  0.4141
 2369SOL    HW2 9522   3.776   2.337   3.854 -1.2079 -1.8364 -0.4138
 2369SOL    HW3 9523   3.848   2.204   3.848  0.5114 -1.1169  2.8058
 2369SOL    MW4 9524   3.842   2.286   3.879 -0.3624 -0.3214  0.6206
 2370SOL     OW 9525   3.622   2.429   3.776 -0.4651  0.1296 -0.4809
 2370SOL    HW2 9526   3.549   2.374   3.803 -0.2972 -0.2723 -0.8445
 2370SOL    HW3 9527   3.614   2.436   3.681  0.3705 -0.4901 -0.6012
 2370SOL    MW4 9528   3.611   2.423   3.767 -0.3326 -0.0052 -0.5450
 2371SOL     OW 9529   3.607   2.691   3.876 -0.1282  0.2637  0.3487
 2371SOL    HW2 9530   3.614   2.603   3.838 -0.6456  0.0374  0.7886
 2371SOL    HW3 9531   3.527   2.727   3.838  0.6759  0.9672 -0.7080
 2371SOL    MW4 9532   3.598   2.684   3.866 -0.0904  0.3266  0.2670
 2372SOL     OW 9533   3.827   2.840   3.800  0.2302  0.0080  0.4290
 2372SOL    HW2 9534   3.902   2.796   3.841 -0.3180 -1.8455 -0.4761
 2372SOL    HW3 9535   3.752   2.784   3.823 -0.3044 -0.2378 -1.8132
 2372SOL    MW4 9536   3.827   2.827   3.808  0.0873 -0.2689  0.0141
 2373SOL     OW 9537   3.851   3.087   3.924  0.3288  0.4598  0.1669
 2373SOL    HW2 9538   3.768   3.131   3.907  1.7690  2.3605 -2.2105
 2373SOL    HW3 9539   3.842   3.002   3.879  0.0383  1.0610 -0.9229
 2373SOL    MW4 9540   3.839   3.081   3.916  0.4807  0.7901 -0.2904
 2374SOL     OW 9541   3.588   3.166   3.835  0.0425 -0.1637  0.5119
 2374SOL    HW2 9542   3.577   3.260   3.850  1.9771 -0.0832  1.6348
 2374SOL    HW3 9543   3.614   3.159   3.743  1.7056  0.6011  0.8891
 2374SOL    MW4 9544   3.590   3.178   3.825  0.5169 -0.0520  0.7100
 2375SOL     OW 9545   3.603   3.449   3.893 -0.6357  0.0988  0.0218
 2375SOL    HW2 9546   3.581   3.467   3.984  0.5695  0.2714  0.2902
 2375SOL    HW3 9547   3.533   3.490   3.842  0.0615  2.2704  0.7738
 2375SOL    MW4 9548   3.591   3.456   3.898 -0.3848  0.4079  0.1562
 2376SOL     OW 9549   3.818   3.594   3.764 -0.7410  0.5525  0.1973
 2376SOL    HW2 9550   3.801   3.684   3.794 -0.2911  0.3865  0.9527
 2376SOL    HW3 9551   3.771   3.539   3.826 -0.5439  0.2366  0.0650
 2376SOL    MW4 9552   3.809   3.599   3.776 -0.6554  0.4890  0.2794
 2377SOL     OW 9553   3.813   3.847   3.900 -0.1999 -0.2020 -0.1403
 2377SOL    HW2 9554   3.809   3.847   3.996  1.4462  0.4654 -0.0528
 2377SOL    HW3 9555   3.891   3.898   3.880 -0.2655 -0.7495 -1.8364
 2377SOL    MW4 9556   3.823   3.854   3.910  0.0088 -0.1862 -0.3521
 2378SOL     OW 9557   3.577   3.971   3.777 -0.6306  0.1039 -0.4143
 2378SOL    HW2 9558   3.580   4.056   3.821 -0.2645  0.7073 -1.5649
 2378SOL    HW3 9559   3.659   3.928   3.802  0.1332  0.9352 -1.4531
 2378SOL    MW4 9560   3.588   3.977   3.786 -0.4818  0.2933 -0.7033
 2379SOL     OW 9561   3.594   4.238   3.857 -0.3711 -0.4327 -0.3262
 2379SOL    HW2 9562   3.601   4.248   3.952  0.2042 -0.0086 -0.4102
 2379SOL    HW3 9563   3.668   4.289   3.822 -0.9304 -0.0926 -1.0249
 2379SOL    MW4 9564   3.605   4.246   3.865 -0.3688 -0.3324 -0.4292
 2380SOL     OW 9565   3.821   4.401   3.827  0.4241  0.0519 -0.4702
 2380SOL    HW2 9566   3.897   4.352   3.859  0.1290 -0.2085 -0.1638
 2380SOL    HW3 9567   3.838   4.413   3.734 -0.1716 -1.9222 -0.8674
 2380SOL    MW4 9568   3.833   4.396   3.819  0.3068 -0.2432 -0.4821
 2381SOL     OW 9569   4.278   4.638   3.900 -0.1110  0.2785 -0.0671
 2381SOL    HW2 9570   4.282   4.619   3.994 -0.0782  1.4144  0.1606
 2381SOL    HW3 9571   4.352   4.696   3.884  0.9951 -1.3669 -1.1579
 2381SOL    MW4 9572   4.289   4.643   3.910  0.0396  0.2117 -0.1812
 2382SOL     OW 9573   4.032   0.100   3.797 -0.0156  0.0739 -0.2159
 2382SOL    HW2 9574   4.119   0.073   3.828 -0.8658 -0.3710  1.8613
 2382SOL    HW3 9575   4.032   0.078   3.704  2.7462  1.7223 -0.6790
 2382SOL    MW4 9576   4.044   0.094   3.789  0.2365  0.2327 -0.0029
 2383SOL     OW 9577   4.059   0.366   3.870  0.3991  0.3388  0.0766
 2383SOL    HW2 9578   4.060   0.350   3.964 -0.0835 -1.3785 -0.1818
 2383SOL    HW3 9579   4.059   0.278   3.831 -1.8044  0.9754 -1.4717
 2383SOL    MW4 9580   4.059   0.352   3.877  0.0453  0.1962 -0.1619
 2384SOL     OW 9581   4.284   0.499   3.781  0.3968  0.0088 -0.4044
 2384SOL    HW2 9582   4.203   0.450   3.799  1.3278 -1.5240 -0.2934
 2384SOL    HW3 9583   4.283   0.514   3.687  0.3674 -0.7148 -0.5230
 2384SOL    MW4 9584   4.273   0.495   3.771  0.5155 -0.2889 -0.4053
 2385SOL     OW 9585   4.271   0.764   3.868  0.0332  0.4336  0.2235
 2385SOL    HW2 9586   4.186   0.800   3.841  1.2549  0.5040 -3.9724
 2385SOL    HW3 9587   4.264   0.671   3.848  0.8071  0.3737  0.2510
 2385SOL    MW4 9588   4.259   0.756   3.862  0.2966  0.4349 -0.3264
 2386SOL     OW 9589   4.033   0.871   3.796  0.1968 -0.4419 -0.0411
 2386SOL    HW2 9590   4.020   0.957   3.836  1.0529 -0.3257 -0.0048
 2386SOL    HW3 9591   4.045   0.888   3.703  1.2415 -0.4425  0.0913
 2386SOL    MW4 9592   4.033   0.884   3.789  0.4478 -0.4266 -0.0186
 2387SOL     OW 9593   4.014   1.142   3.875 -0.4055 -0.2002 -0.3948
 2387SOL    HW2 9594   4.024   1.117   3.966  0.2386 -2.6560 -1.1148
 2387SOL    HW3 9595   4.094   1.191   3.854  0.3689 -1.3624 -0.1915
 2387SOL    MW4 9596   4.026   1.145   3.884 -0.2184 -0.6777 -0.4628
 2388SOL     OW 9597   4.256   1.298   3.811  0.4944 -0.5827  0.2001
 2388SOL    HW2 9598   4.264   1.384   3.852  2.3670 -0.3440 -0.6203
 2388SOL    HW3 9599   4.245   1.316   3.718 -0.7046 -1.2124  0.1974
 2388SOL    MW4 9600   4.255   1.311   3.804  0.5836 -0.6342  0.0913
 2389SOL     OW 9601   4.262   1.542   3.929 -0.1253 -0.1913  0.4316
 2389SOL    HW2 9602   4.192   1.590   3.884  0.9269 -0.2130 -1.2768
 2389SOL    HW3 9603   4.342   1.590   3.905  0.6432 -1.2710  0.8344
 2389SOL    MW4 9604   4.264   1.555   3.920  0.1149 -0.3365  0.2594
 2390SOL     OW 9605   4.046   1.649   3.796  0.4228  0.0151 -0.6891
 2390SOL    HW2 9606   4.021   1.729   3.843 -1.0803  0.5700 -2.4103
 2390SOL    HW3 9607   3.982   1.584   3.826 -0.2842  0.2661 -1.6337
 2390SOL    MW4 9608   4.034   1.651   3.806  0.1316  0.1215 -1.0407
 2391SOL     OW 9609   4.076   1.916   3.904  0.9951 -0.3039 -0.5759
 2391SOL    HW2 9610   4.074   1.922   3.999  1.7113 -1.0059 -0.5147
 2391SOL    HW3 9611   4.160   1.955   3.878  1.2916 -1.0987 -0.8387
 2391SOL    MW4 9612   4.087   1.922   3.913  1.1287 -0.5013 -0.6022
 2392SOL     OW 9613   4.297   2.059   3.824 -0.5324 -0.3137  0.1976
 2392SOL    HW2 9614   4.302   2.152   3.844 -3.0087 -0.0809 -0.1390
 2392SOL    HW3 9615   4.312   2.054   3.729  1.6635 -0.4890  0.5274
 2392SOL    MW4 9616   4.300   2.071   3.814 -0.5693 -0.3059  0.1965
 2393SOL     OW 9617   4.302   2.323   3.891  0.1369 -0.0940 -0.7183
 2393SOL    HW2 9618   4.298   2.330   3.987  0.2611 -1.1452 -0.6373
 2393SOL    HW3 9619   4.226   2.372   3.861 -0.4272 -0.5536 -0.0463
 2393SOL    MW4 9620   4.292   2.330   3.900  0.0787 -0.2933 -0.6189
 2394SOL     OW 9621   4.077   2.439   3.787  0.4793 -0.3568  0.2985
 2394SOL    HW2 9622   4.073   2.525   3.829  1.7441 -0.8279  1.4219
 2394SOL    HW3 9623   3.999   2.393   3.819 -0.3445  0.4547 -0.5185
 2394SOL    MW4 9624   4.066   2.444   3.797  0.5374 -0.3119  0.3388
 2395SOL     OW 9625   4.057   2.714   3.900 -0.1904  0.5228  0.3433
 2395SOL    HW2 9626   4.067   2.723   3.994 -0.3735  0.8270  0.3373
 2395SOL    HW3 9627   4.132   2.760   3.863 -0.7814  1.5006  0.3239
 2395SOL    MW4 9628   4.068   2.722   3.907 -0.2928  0.6919  0.3400
 2396SOL     OW 9629   4.276   2.857   3.802  0.1386 -0.2015 -0.0814
 2396SOL    HW2 9630   4.262   2.946   3.835 -1.7765 -0.2974 -0.5489
 2396SOL    HW3 9631   4.354   2.827   3.847 -0.8519  0.6547  2.3342
 2396SOL    MW4 9632   4.284   2.865   3.812 -0.2451 -0.1011  0.1757
 2397SOL     OW 9633   4.264   3.094   3.942  0.6031  0.2942 -0.1254
 2397SOL    HW2 9634   4.182   3.131   3.908  0.0907 -1.0502 -0.3798
 2397SOL    HW3 9635   4.332   3.150   3.906 -0.2341  1.8306  0.6204
 2397SOL    MW4 9636   4.262   3.106   3.933  0.4249  0.3195 -0.0606
 2398SOL     OW 9637   4.050   3.228   3.801 -0.2179 -0.3999 -0.0579
 2398SOL    HW2 9638   3.976   3.172   3.826  0.1508 -0.6534  0.4645
 2398SOL    HW3 9639   4.060   3.213   3.707 -1.2017  0.0746 -0.2425
 2398SOL    MW4 9640   4.042   3.219   3.792 -0.2990 -0.3705 -0.0134
 2399SOL     OW 9641   4.040   3.484   3.896 -0.0987  0.0130  0.6127
 2399SOL    HW2 9642   4.048   3.389   3.882 -0.6106 -0.1715  1.5514
 2399SOL    HW3 9643   3.955   3.507   3.857  0.4440  0.2552 -0.4512
 2399SOL    MW4 9644   4.030   3.474   3.889 -0.0954  0.0205  0.5958
 2400SOL     OW 9645   4.259   3.603   3.760  0.0677  0.1475  0.1609
 2400SOL    HW2 9646   4.195   3.547   3.805  1.1966 -0.8832  0.5013
 2400SOL    HW3 9647   4.344   3.576   3.795  0.7201  1.3429 -0.4679
 2400SOL    MW4 9648   4.262   3.592   3.771  0.3028  0.1688  0.1228
 2401SOL     OW 9649   4.280   3.860   3.857  0.3831  0.1281  0.1881
 2401SOL    HW2 9650   4.202   3.913   3.837  0.4751  0.2710  0.2028
 2401SOL    HW3 9651   4.258   3.772   3.826 -0.6577 -0.3617  2.1947
 2401SOL    MW4 9652   4.266   3.856   3.850  0.2584  0.0825  0.4549
 2402SOL     OW 9653   4.050   4.005   3.836  0.7610  0.1872  0.0257
 2402SOL    HW2 9654   4.046   4.096   3.864  0.6479 -0.1353  1.0611
 2402SOL    HW3 9655   4.037   4.008   3.741  0.2808  1.1996  0.1268
 2402SOL    MW4 9656   4.048   4.017   3.827  0.6828  0.2785  0.1757
 2403SOL     OW 9657   4.037   4.262   3.906 -0.0410 -0.0286 -0.0079
 2403SOL    HW2 9658   4.061   4.259   3.999  1.1470  1.0046 -0.2652
 2403SOL    HW3 9659   4.116   4.295   3.863 -0.5122 -0.7346 -1.4199
 2403SOL    MW4 9660   4.051   4.266   3.913  0.0534  0.0148 -0.2284
 2404SOL     OW 9661   4.245   4.378   3.784 -0.1287 -0.1510 -0.2527
 2404SOL    HW2 9662   4.268   4.463   3.822  0.7016 -0.0701 -0.9282
 2404SOL    HW3 9663   4.313   4.319   3.814  0.6534 -0.0446 -1.7575
 2404SOL    MW4 9664   4.257   4.382   3.793  0.0839 -0.1264 -0.5403
 2405SOL     OW 9665   0.200   4.634   4.185 -0.4033 -0.2564 -0.8231
 2405SOL    HW2 9666   0.289   4.663   4.207 -0.2617 -1.3047 -0.0008
 2405SOL    HW3 9667   0.200   4.540   4.204 -1.9035 -0.1278 -0.1565
 2405SOL    MW4 9668   0.212   4.626   4.190 -0.5826 -0.3777 -0.6266
 2406SOL     OW 9669   4.487   0.117   4.261 -0.2895  0.1647  0.9271
 2406SOL    HW2 9670   4.479   0.102   4.355 -0.4330 -1.6641  0.6328
 2406SOL    HW3 9671   4.563   0.067   4.234 -1.4409 -0.9887 -0.2825
 2406SOL    MW4 9672   4.496   0.109   4.270 -0.4604 -0.2288  0.7291
 2407SOL     OW 9673   0.033   0.360   4.152  0.0720 -1.0179  0.0692
 2407SOL    HW2 9674   0.038   0.267   4.174  3.3309 -0.9244  0.0402
 2407SOL    HW3 9675   0.042   0.363   4.057 -0.4499 -0.6890  0.0286
 2407SOL    MW4 9676   0.035   0.348   4.142  0.4331 -0.9622  0.0596
 2408SOL     OW 9677   0.239   0.509   4.256 -0.0700  0.0014  0.1695
 2408SOL    HW2 9678   0.312   0.485   4.198  0.2069  0.2952  0.3928
 2408SOL    HW3 9679   0.169   0.448   4.233  0.2172 -0.2258 -0.1110
 2408SOL    MW4 9680   0.240   0.498   4.245  0.0044  0.0101  0.1616
 2409SOL     OW 9681   0.254   0.763   4.131 -0.0545 -0.2780 -0.3505
 2409SOL    HW2 9682   0.171   0.799   4.160 -0.6815 -1.2309 -0.9177
 2409SOL    HW3 9683   0.259   0.676   4.171  1.1162  0.1554  0.4565
 2409SOL    MW4 9684   0.244   0.756   4.140  0.0173 -0.3465 -0.3190
 2410SOL     OW 9685   0.012   0.850   4.238 -0.0037  0.4906 -0.1645
 2410SOL    HW2 9686  -0.076   0.817   4.221 -0.2565  0.3171  1.4761
 2410SOL    HW3 9687   0.002   0.945   4.242 -0.1342  0.4659  0.1039
 2410SOL    MW4 9688  -0.001   0.858   4.236 -0.0544  0.4645  0.0873
 2411SOL     OW 9689   4.462   1.139   4.207  0.0482  0.1181  0.0112
 2411SOL    HW2 9690   4.547   1.178   4.227  0.3116  0.1511 -1.1788
 2411SOL    HW3 9691   4.459   1.134   4.112 -1.0965 -0.3073  0.0621
 2411SOL    MW4 9692   4.473   1.143   4.197 -0.0680  0.0664 -0.1388
 2412SOL     OW 9693   0.223   1.216   4.274  0.1912 -0.0942  0.1793
 2412SOL    HW2 9694   0.226   1.242   4.366 -0.0923  0.0403  0.1527
 2412SOL    HW3 9695   0.315   1.206   4.248  0.2873  0.3475  0.3408
 2412SOL    MW4 9696   0.235   1.218   4.283  0.1664 -0.0181  0.1965
 2413SOL     OW 9697   0.186   1.293   4.543 -0.2731  0.0997 -0.1309
 2413SOL    HW2 9698   0.129   1.370   4.542 -0.7936 -0.2756  0.1200
 2413SOL    HW3 9699   0.138   1.229   4.596  0.4670 -0.1626  0.2238
 2413SOL    MW4 9700   0.172   1.295   4.550 -0.2442  0.0155 -0.0510
 2414SOL     OW 9701   0.017   1.627   4.270 -0.2834  0.0033  0.3647
 2414SOL    HW2 9702  -0.070   1.612   4.234 -0.2089 -0.0096  0.1906
 2414SOL    HW3 9703   0.035   1.719   4.252  0.0913 -0.2102 -0.3613
 2414SOL    MW4 9704   0.008   1.637   4.263 -0.2241 -0.0266  0.2460
 2415SOL     OW 9705   0.252   2.030   4.260  0.0669  0.3250 -0.6485
 2415SOL    HW2 9706   0.269   2.013   4.353  0.5143  2.4001 -0.3225
 2415SOL    HW3 9707   0.298   1.960   4.214 -0.2626 -0.7951  0.7000
 2415SOL    MW4 9708   0.260   2.018   4.266  0.0825  0.4508 -0.4277
 2416SOL     OW 9709   4.308   1.029   4.864 -0.5091 -0.1240 -0.3947
 2416SOL    HW2 9710   4.259   1.105   4.895  0.5154  0.2373  0.3476
 2416SOL    HW3 9711   4.242   0.960   4.854 -1.1263  0.2808  0.8576
 2416SOL    MW4 9712   4.293   1.030   4.867 -0.4554 -0.0230 -0.1311
 2417SOL     OW 9713   0.270   2.282   4.177 -0.1660 -0.3117  0.3038
 2417SOL    HW2 9714   0.356   2.307   4.211 -0.6382  0.8901  0.6513
 2417SOL    HW3 9715   0.254   2.195   4.214  0.4116 -0.0641  1.1600
 2417SOL    MW4 9716   0.279   2.274   4.186 -0.1521 -0.1204  0.4621
 2418SOL     OW 9717   0.044   2.446   4.294  0.2176  0.3628 -0.0758
 2418SOL    HW2 9718  -0.032   2.395   4.264  0.8326 -1.1374  0.8318
 2418SOL    HW3 9719   0.120   2.398   4.258  0.8353  0.2379  1.3621
 2418SOL    MW4 9720   0.044   2.433   4.285  0.3803  0.1485  0.2341
 2419SOL     OW 9721   0.035   2.693   4.171  0.3659 -0.1565 -0.3536
 2419SOL    HW2 9722   0.111   2.740   4.205  0.0010  0.2294 -0.0764
 2419SOL    HW3 9723   0.036   2.609   4.217 -0.6346  0.7078  1.2646
 2419SOL    MW4 9724   0.045   2.688   4.181  0.1857  0.0086 -0.1035
 2420SOL     OW 9725   0.294   2.824   4.274  0.5589 -0.7445 -0.3124
 2420SOL    HW2 9726   0.351   2.783   4.210  0.8941  0.0200 -0.5053
 2420SOL    HW3 9727   0.286   2.914   4.245  1.1813 -0.2383  1.0425
 2420SOL    MW4 9728   0.300   2.830   4.262  0.6852 -0.5767 -0.1588
 2421SOL     OW 9729   0.274   3.098   4.167 -0.0958  0.5841  0.0322
 2421SOL    HW2 9730   0.350   3.140   4.207  1.2417 -2.6655  1.1071
 2421SOL    HW3 9731   0.199   3.144   4.203  1.2520  1.1101  2.2307
 2421SOL    MW4 9732   0.275   3.109   4.177  0.2585  0.2248  0.4640
 2422SOL     OW 9733   0.063   3.231   4.291 -0.4509 -0.3473 -0.1079
 2422SOL    HW2 9734  -0.023   3.193   4.272 -0.7407  0.1942  0.1123
 2422SOL    HW3 9735   0.060   3.319   4.253 -0.1893 -0.1311  0.3661
 2422SOL    MW4 9736   0.051   3.238   4.284 -0.4546 -0.2472 -0.0157
 2423SOL     OW 9737   0.042   3.473   4.165  0.4738 -0.2180 -0.4895
 2423SOL    HW2 9738  -0.018   3.537   4.203 -0.1953 -1.0626 -0.1129
 2423SOL    HW3 9739   0.034   3.487   4.070  0.2849  0.2096 -0.4136
 2423SOL    MW4 9740   0.033   3.483   4.157  0.3606 -0.2732 -0.4296
 2424SOL     OW 9741   0.261   3.585   4.305 -0.0072 -0.4056  0.3920
 2424SOL    HW2 9742   0.338   3.541   4.270  0.8388  1.9663 -0.7948
 2424SOL    HW3 9743   0.187   3.545   4.259  0.8080 -0.0827 -1.2218
 2424SOL    MW4 9744   0.261   3.574   4.295  0.2119 -0.0503  0.0229
 2425SOL     OW 9745   0.262   3.872   4.163 -0.1966 -0.6791  0.4991
 2425SOL    HW2 9746   0.186   3.909   4.208  0.2191  0.0724  0.5934
 2425SOL    HW3 9747   0.256   3.778   4.179 -0.9580 -0.5931  0.7354
 2425SOL    MW4 9748   0.251   3.864   4.171 -0.2422 -0.5686  0.5426
 2426SOL     OW 9749   0.018   3.965   4.271  0.0272  0.0756 -0.0864
 2426SOL    HW2 9750   0.008   3.914   4.352  0.9031 -0.5803 -0.3819
 2426SOL    HW3 9751  -0.052   3.935   4.214  0.6807 -0.9731 -0.3441
 2426SOL    MW4 9752   0.007   3.954   4.274  0.2294 -0.1493 -0.1597
 2427SOL     OW 9753   4.453   4.219   4.178  0.4861  0.0394 -0.2187
 2427SOL    HW2 9754   4.483   4.133   4.206  0.7333  0.2319  0.1207
 2427SOL    HW3 9755   4.467   4.220   4.083  0.5728 -0.2565 -0.2097
 2427SOL    MW4 9756   4.459   4.208   4.169  0.5302  0.0257 -0.1726
 2428SOL     OW 9757   0.176   4.361   4.280  0.0183  0.1056 -0.0545
 2428SOL    HW2 9758   0.136   4.394   4.359 -0.7613 -2.1129  0.5105
 2428SOL    HW3 9759   0.111   4.301   4.242  1.0693 -0.2201 -1.4208
 2428SOL    MW4 9760   0.162   4.357   4.285  0.0541 -0.2303 -0.1602
 2429SOL     OW 9761   0.503   3.785   4.649 -0.4427 -0.0077 -0.2531
 2429SOL    HW2 9762   0.411   3.783   4.623 -0.5621 -0.2396  0.1818
 2429SOL    HW3 9763   0.533   3.873   4.624 -0.8420  0.1484 -0.1856
 2429SOL    MW4 9764   0.495   3.796   4.642 -0.5111 -0.0176 -0.1864
 2430SOL     OW 9765   0.439   0.091   4.227  0.2782 -0.1578 -0.0061
 2430SOL    HW2 9766   0.459   0.100   4.321 -0.8024 -0.3571  0.2524
 2430SOL    HW3 9767   0.432   0.180   4.195  0.1190 -0.0878  0.2243
 2430SOL    MW4 9768   0.441   0.104   4.235  0.1146 -0.1748  0.0582
 2431SOL     OW 9769   0.466   0.367   4.140 -0.0556  0.3104  0.3190
 2431SOL    HW2 9770   0.535   0.417   4.183 -1.2010  1.5157  0.8055
 2431SOL    HW3 9771   0.491   0.364   4.048  1.2706 -0.3585  0.6894
 2431SOL    MW4 9772   0.478   0.373   4.134 -0.0317  0.3811  0.4315
 2432SOL     OW 9773   0.672   0.517   4.255  0.2394 -0.3437  0.2237
 2432SOL    HW2 9774   0.743   0.478   4.204  0.0908  0.8433 -0.9111
 2432SOL    HW3 9775   0.659   0.603   4.216 -0.6221  0.1533  1.5779
 2432SOL    MW4 9776   0.680   0.523   4.243  0.1061 -0.1215  0.2527
 2433SOL     OW 9777   0.659   0.777   4.150  0.4328 -0.0208 -0.0866
 2433SOL    HW2 9778   0.582   0.814   4.192  0.3297 -0.7538  0.3923
 2433SOL    HW3 9779   0.627   0.742   4.066  0.1579 -0.6793  0.2882
 2433SOL    MW4 9780   0.645   0.777   4.144  0.3830 -0.2043  0.0257
 2434SOL     OW 9781   0.426   0.874   4.326  0.0284  0.4255 -0.2533
 2434SOL    HW2 9782   0.453   0.962   4.302 -0.2455  0.3978 -0.6866
 2434SOL    HW3 9783   0.370   0.846   4.253 -1.5768  0.6777  0.8480
 2434SOL    MW4 9784   0.422   0.882   4.313 -0.2196  0.4552 -0.1655
 2435SOL     OW 9785   0.503   1.132   4.239 -0.0943 -0.5894  0.0891
 2435SOL    HW2 9786   0.570   1.196   4.264 -1.4356  0.3816  1.3112
 2435SOL    HW3 9787   0.484   1.152   4.147 -1.4423  1.7095  0.8088
 2435SOL    MW4 9788   0.509   1.143   4.230 -0.4491 -0.1580  0.3457
 2436SOL     OW 9789   0.703   1.298   4.256 -0.3144 -0.6689 -0.0119
 2436SOL    HW2 9790   0.727   1.317   4.347  0.9442 -1.6278 -0.1285
 2436SOL    HW3 9791   0.713   1.382   4.211  0.9150 -0.6124  0.3541
 2436SOL    MW4 9792   0.707   1.312   4.262  0.0139 -0.7880  0.0210
 2437SOL     OW 9793   0.695   1.541   4.133  0.0737 -0.0921 -0.6729
 2437SOL    HW2 9794   0.782   1.581   4.139 -0.5087  1.2585 -0.9701
 2437SOL    HW3 9795   0.688   1.512   4.042  0.5305 -0.9643 -0.4354
 2437SOL    MW4 9796   0.706   1.542   4.122  0.0571 -0.0288 -0.6804
 2438SOL     OW 9797   0.236   1.479   4.186 -0.3478 -0.2603  0.5560
 2438SOL    HW2 9798   0.218   1.387   4.203 -0.5582 -0.3875 -0.3706
 2438SOL    HW3 9799   0.162   1.525   4.227 -1.7820 -0.6708 -1.4747
 2438SOL    MW4 9800   0.224   1.473   4.194 -0.5648 -0.3313  0.1655
 2439SOL     OW 9801   0.416   1.845   4.170 -0.4011 -0.5476  0.7664
 2439SOL    HW2 9802   0.422   1.751   4.185 -1.7583 -0.8242 -0.2332
 2439SOL    HW3 9803   0.418   1.854   4.074  1.5026  0.5956  0.8821
 2439SOL    MW4 9804   0.417   1.834   4.159 -0.3290 -0.4332  0.6499
 2440SOL     OW 9805   0.637   2.001   4.252  0.0355 -0.2708 -0.1323
 2440SOL    HW2 9806   0.624   1.995   4.346 -0.5873  0.6945 -0.1579
 2440SOL    HW3 9807   0.569   1.944   4.215 -0.3414  0.1158 -0.0359
 2440SOL    MW4 9808   0.627   1.993   4.259 -0.0964 -0.0921 -0.1230
 2441SOL     OW 9809   0.736   2.269   4.193  0.1845  0.1776 -0.0932
 2441SOL    HW2 9810   0.715   2.176   4.201  4.9464 -0.9397  0.5589
 2441SOL    HW3 9811   0.740   2.284   4.098  1.0728 -0.7211 -0.2108
 2441SOL    MW4 9812   0.734   2.259   4.181  0.9300 -0.0885 -0.0219
 2442SOL     OW 9813   0.500   2.393   4.264 -0.0675  0.4107 -0.1348
 2442SOL    HW2 9814   0.487   2.481   4.227  0.7386  0.1209 -1.1111
 2442SOL    HW3 9815   0.584   2.364   4.229 -0.6040 -0.9952 -0.2716
 2442SOL    MW4 9816   0.509   2.401   4.255 -0.0319  0.1869 -0.2818
 2443SOL     OW 9817   0.488   2.643   4.130 -0.3424  0.0871 -0.0791
 2443SOL    HW2 9818   0.568   2.685   4.163 -1.1892  1.2831  0.4758
 2443SOL    HW3 9819   0.485   2.667   4.037  0.3663 -0.6377 -0.2965
 2443SOL    MW4 9820   0.498   2.652   4.122 -0.3606  0.1493 -0.0348
 2444SOL     OW 9821   0.728   2.761   4.216  0.5340 -0.4731 -0.0022
 2444SOL    HW2 9822   0.710   2.721   4.301  0.4966 -0.2808  0.0812
 2444SOL    HW3 9823   0.723   2.855   4.232  1.9760 -0.3982  0.1049
 2444SOL    MW4 9824   0.725   2.768   4.229  0.7193 -0.4377  0.0229
 2445SOL     OW 9825   0.715   3.052   4.184 -0.0549  0.3526  0.8201
 2445SOL    HW2 9826   0.784   3.109   4.218 -1.3881  1.6859  1.3153
 2445SOL    HW3 9827   0.634   3.095   4.208 -1.0632 -0.0136 -1.8044
 2445SOL    MW4 9828   0.714   3.065   4.192 -0.3638  0.4804  0.5393
 2446SOL     OW 9829   0.504   3.237   4.251 -0.5851 -0.4090 -0.1682
 2446SOL    HW2 9830   0.496   3.252   4.345 -0.0013 -0.8550 -0.0433
 2446SOL    HW3 9831   0.515   3.324   4.213  0.4813 -0.3268  0.3179
 2446SOL    MW4 9832   0.505   3.250   4.258 -0.3673 -0.4570 -0.0873
 2447SOL     OW 9833   0.518   3.496   4.167  0.1951 -0.0688 -0.4931
 2447SOL    HW2 9834   0.597   3.539   4.198 -0.1379 -0.7439  1.3341
 2447SOL    HW3 9835   0.518   3.512   4.072  1.2120  2.0227 -0.1668
 2447SOL    MW4 9836   0.529   3.503   4.158  0.2853  0.1180 -0.2089
 2448SOL     OW 9837   0.724   3.642   4.241 -0.5518 -0.0704  0.3580
 2448SOL    HW2 9838   0.756   3.658   4.330 -0.3274 -0.7841  0.4083
 2448SOL    HW3 9839   0.794   3.590   4.200 -1.9363 -2.2288  0.6733
 2448SOL    MW4 9840   0.738   3.637   4.247 -0.7049 -0.4494  0.4063
 2449SOL     OW 9841   0.706   3.904   4.176 -0.0543  0.5724  0.2370
 2449SOL    HW2 9842   0.626   3.947   4.205 -0.4334 -0.1486  0.2548
 2449SOL    HW3 9843   0.702   3.817   4.216  0.5811  0.4224 -0.0263
 2449SOL    MW4 9844   0.695   3.898   4.185 -0.0204  0.4575  0.2050
 2450SOL     OW 9845   0.456   4.007   4.300 -0.1252  0.0589  0.7464
 2450SOL    HW2 9846   0.436   4.101   4.301 -0.6326 -0.0474  0.5634
 2450SOL    HW3 9847   0.374   3.965   4.277 -0.2213 -0.5205  2.0665
 2450SOL    MW4 9848   0.443   4.014   4.297 -0.2048 -0.0319  0.8965
 2451SOL     OW 9849   0.432   4.284   4.244 -0.3986  0.6037 -0.2431
 2451SOL    HW2 9850   0.346   4.318   4.271 -0.9477  0.4532 -1.7414
 2451SOL    HW3 9851   0.428   4.285   4.148  1.1174  0.1754 -0.3084
 2451SOL    MW4 9852   0.420   4.289   4.235 -0.2710  0.5274 -0.4492
 2452SOL     OW 9853   0.649   4.619   4.108  0.3005  0.3449 -0.7227
 2452SOL    HW2 9854   0.571   4.661   4.143 -1.2730 -1.2925 -2.1346
 2452SOL    HW3 9855   0.651   4.646   4.016  1.1201 -0.0153 -0.8140
 2452SOL    MW4 9856   0.639   4.628   4.100  0.2010  0.0815 -0.9208
 2453SOL     OW 9857   1.122   4.661   4.166 -0.3290 -0.0938  0.1101
 2453SOL    HW2 9858   1.115   4.566   4.174  0.6625 -0.2899 -1.1019
 2453SOL    HW3 9859   1.115   4.677   4.072  0.0246  0.9866  0.2625
 2453SOL    MW4 9860   1.120   4.650   4.154 -0.1514  0.0229 -0.0300
 2454SOL     OW 9861   0.840   0.103   4.236  0.4911 -0.3461  0.4523
 2454SOL    HW2 9862   0.923   0.055   4.230  0.2011 -0.8655  0.5090
 2454SOL    HW3 9863   0.780   0.054   4.180  0.8071  1.2919 -1.3616
 2454SOL    MW4 9864   0.843   0.090   4.228  0.4945 -0.1986  0.2208
 2455SOL     OW 9865   0.886   0.371   4.167 -0.3765  0.0645  0.6258
 2455SOL    HW2 9866   0.963   0.401   4.216  0.6907  0.7485 -1.4173
 2455SOL    HW3 9867   0.877   0.279   4.192  1.7423 -0.3044  0.1231
 2455SOL    MW4 9868   0.895   0.363   4.177  0.0438  0.1061  0.2899
 2456SOL     OW 9869   1.131   0.477   4.296 -0.8557 -0.0805  0.1437
 2456SOL    HW2 9870   1.097   0.447   4.380  0.4119  0.0191  0.7036
 2456SOL    HW3 9871   1.206   0.420   4.278 -0.5269  0.5246 -0.4450
 2456SOL    MW4 9872   1.136   0.466   4.304 -0.6450  0.0125  0.1402
 2457SOL     OW 9873   1.113   0.729   4.176  0.1181  0.6905  0.0038
 2457SOL    HW2 9874   1.190   0.765   4.219 -0.6947  0.6715  1.5077
 2457SOL    HW3 9875   1.108   0.638   4.207  0.2794  0.2601 -1.1878
 2457SOL    MW4 9876   1.122   0.722   4.185  0.0322  0.6312  0.0448
 2458SOL     OW 9877   0.887   0.897   4.244  0.2514  0.0045 -0.0668
 2458SOL    HW2 9878   0.959   0.841   4.217  0.1273 -0.5858  0.7897
 2458SOL    HW3 9879   0.814   0.871   4.188  0.7096  0.6345 -0.9660
 2458SOL    MW4 9880   0.887   0.886   4.233  0.2955  0.0098 -0.0725
 2459SOL     OW 9881   0.933   1.155   4.182 -0.3868 -0.1202  0.4436
 2459SOL    HW2 9882   0.925   1.062   4.205  1.0787 -0.6678 -1.1204
 2459SOL    HW3 9883   0.848   1.193   4.205  0.3027 -0.9779  4.8299
 2459SOL    MW4 9884   0.921   1.148   4.188 -0.1025 -0.3055  0.8163
 2460SOL     OW 9885   1.118   1.310   4.314 -0.0260 -0.0064 -0.1072
 2460SOL    HW2 9886   1.100   1.324   4.407  0.2104  0.8330 -0.1836
 2460SOL    HW3 9887   1.044   1.257   4.283 -1.3656  1.7399  0.0196
 2460SOL    MW4 9888   1.106   1.305   4.323 -0.1715  0.3346 -0.1006
 2461SOL     OW 9889   1.169   1.482   4.103 -0.1026 -0.1483 -0.5227
 2461SOL    HW2 9890   1.083   1.520   4.126  0.2489  0.0200  0.5508
 2461SOL    HW3 9891   1.176   1.404   4.158  1.1574  0.7689  0.6560
 2461SOL    MW4 9892   1.158   1.477   4.113  0.1101 -0.0050 -0.2260
 2462SOL     OW 9893   0.944   1.637   4.184 -0.0450  0.1616  0.3010
 2462SOL    HW2 9894   0.952   1.627   4.279  0.0547 -2.5437  0.0592
 2462SOL    HW3 9895   0.932   1.731   4.170  0.2619  0.6282  2.9596
 2462SOL    MW4 9896   0.944   1.648   4.195  0.0087 -0.1339  0.6194
 2463SOL     OW 9897   0.893   1.909   4.147  0.3271  0.1388 -0.3314
 2463SOL    HW2 9898   0.808   1.928   4.184 -0.4199 -2.2514 -0.7190
 2463SOL    HW3 9899   0.878   1.906   4.052  0.7442 -0.6176 -0.3835
 2463SOL    MW4 9900   0.880   1.911   4.139  0.2837 -0.2763 -0.3896
 2464SOL     OW 9901   1.118   2.071   4.191 -0.0151 -0.3396 -0.7934
 2464SOL    HW2 9902   1.115   2.056   4.286 -0.2290 -0.2980 -0.7919
 2464SOL    HW3 9903   1.035   2.034   4.159 -1.3073  2.2274 -0.5826
 2464SOL    MW4 9904   1.106   2.064   4.200 -0.2139  0.0043 -0.7653
 2465SOL     OW 9905   1.183   2.334   4.087  0.1349 -0.5845 -0.1704
 2465SOL    HW2 9906   1.254   2.374   4.137 -0.3199  0.5840 -0.4519
 2465SOL    HW3 9907   1.177   2.244   4.121  1.9024 -0.7643 -0.3178
 2465SOL    MW4 9908   1.191   2.327   4.098  0.3082 -0.4539 -0.2270
 2466SOL     OW 9909   0.963   2.439   4.232 -0.1499 -0.1850  0.1875
 2466SOL    HW2 9910   1.033   2.399   4.180  0.6658  0.4679  0.7756
 2466SOL    HW3 9911   0.885   2.388   4.209  0.7127 -1.6131  0.3176
 2466SOL    MW4 9912   0.962   2.427   4.222  0.0715 -0.2875  0.2823
 2467SOL     OW 9913   0.968   2.695   4.159 -0.0338  0.3419  0.3080
 2467SOL    HW2 9914   0.969   2.607   4.196  1.1710  0.4013  0.4527
 2467SOL    HW3 9915   0.880   2.728   4.176 -0.0262 -0.2819  1.5689
 2467SOL    MW4 9916   0.957   2.687   4.166  0.1262  0.2675  0.4930
 2468SOL     OW 9917   1.172   2.838   4.241  0.3106  0.2292 -0.2013
 2468SOL    HW2 9918   1.163   2.930   4.217 -0.8746  0.2832  0.4221
 2468SOL    HW3 9919   1.091   2.797   4.209  1.0875 -0.7115 -0.9911
 2468SOL    MW4 9920   1.160   2.845   4.234  0.2568  0.1123 -0.2236
 2469SOL     OW 9921   1.135   3.096   4.178 -0.7181  0.3240  0.4210
 2469SOL    HW2 9922   1.206   3.150   4.213 -0.2139 -0.1629  0.1516
 2469SOL    HW3 9923   1.155   3.088   4.085  0.2183 -1.8613  0.7855
 2469SOL    MW4 9924   1.147   3.102   4.171 -0.5280 -0.0284  0.4339
 2470SOL     OW 9925   0.921   3.212   4.290  0.4744 -0.4951 -0.0699
 2470SOL    HW2 9926   0.936   3.214   4.384  2.2575 -0.3203 -0.3304
 2470SOL    HW3 9927   0.997   3.165   4.254 -0.1553 -0.5245 -1.4037
 2470SOL    MW4 9928   0.933   3.206   4.297  0.6266 -0.4759 -0.2799
 2471SOL     OW 9929   0.939   3.471   4.180 -0.1204  0.2718  0.0417
 2471SOL    HW2 9930   0.939   3.388   4.227 -1.0052  0.5544  0.5589
 2471SOL    HW3 9931   0.955   3.448   4.089 -1.3375 -0.5626  0.0284
 2471SOL    MW4 9932   0.941   3.457   4.174 -0.3978  0.1991  0.1078
 2472SOL     OW 9933   1.164   3.651   4.225  0.1933 -0.2073 -0.7365
 2472SOL    HW2 9934   1.151   3.740   4.192 -2.5335  0.5463  2.1404
 2472SOL    HW3 9935   1.085   3.604   4.197  0.1500 -0.8645  0.4841
 2472SOL    MW4 9936   1.152   3.656   4.217 -0.1723 -0.1945 -0.1965
 2473SOL     OW 9937   1.115   3.924   4.138 -0.6003 -0.2702 -0.2553
 2473SOL    HW2 9938   1.202   3.959   4.159 -0.7327 -0.1679  0.1233
 2473SOL    HW3 9939   1.057   3.964   4.203 -0.7623 -1.1447  0.1446
 2473SOL    MW4 9940   1.119   3.934   4.149 -0.6392 -0.3719 -0.1526
 2474SOL     OW 9941   0.919   4.039   4.288 -0.3302  0.0845  0.3238
 2474SOL    HW2 9942   0.917   4.123   4.241 -0.4104  0.9672  1.8797
 2474SOL    HW3 9943   0.844   3.991   4.252  1.0329 -0.2413 -2.2019
 2474SOL    MW4 9944   0.909   4.044   4.277 -0.1609  0.1583  0.1960
 2475SOL     OW 9945   0.900   4.253   4.103  0.7807  0.1346  0.4716
 2475SOL    HW2 9946   0.971   4.307   4.137  0.7227  1.0288 -0.7968
 2475SOL    HW3 9947   0.821   4.291   4.141  0.7116  1.1721 -0.6806
 2475SOL    MW4 9948   0.899   4.265   4.112  0.7640  0.3901  0.1521
 2476SOL     OW 9949   1.117   4.385   4.234  0.2001 -0.0461 -0.3878
 2476SOL    HW2 9950   1.102   4.380   4.328 -2.0014 -3.8638 -0.8329
 2476SOL    HW3 9951   1.200   4.341   4.220  0.2692  0.0526 -0.2837
 2476SOL    MW4 9952   1.126   4.378   4.244 -0.0812 -0.5364 -0.4325
 2477SOL     OW 9953   1.564   4.636   4.148  0.0267 -0.0721  0.1818
 2477SOL    HW2 9954   1.637   4.665   4.202  0.6459 -0.1530 -0.6061
 2477SOL    HW3 9955   1.486   4.667   4.195  0.5919  0.8419  0.5296
 2477SOL    MW4 9956   1.563   4.644   4.162  0.1829  0.0377  0.1240
 2478SOL     OW 9957   1.339   0.081   4.303 -0.1324 -0.1170  0.3889
 2478SOL    HW2 9958   1.313   0.049   4.389  1.2450  0.7003  1.1322
 2478SOL    HW3 9959   1.271   0.049   4.244 -0.8023 -1.1567  1.6874
 2478SOL    MW4 9960   1.327   0.072   4.306 -0.0390 -0.1463  0.6590
 2479SOL     OW 9961   1.356   0.335   4.207  0.2542 -0.4756 -0.0843
 2479SOL    HW2 9962   1.435   0.380   4.236  0.1599 -0.4923  0.1988
 2479SOL    HW3 9963   1.360   0.249   4.250 -0.5661 -0.0076  0.9705
 2479SOL    MW4 9964   1.367   0.329   4.217  0.1335 -0.4160  0.0925
 2480SOL     OW 9965   1.551   0.507   4.301  0.0176  0.5257  0.4480
 2480SOL    HW2 9966   1.566   0.517   4.395  2.0131 -0.9386  0.3016
 2480SOL    HW3 9967   1.568   0.595   4.265  0.7338  0.7268  1.2643
 2480SOL    MW4 9968   1.555   0.520   4.309  0.3755  0.3591  0.5360
 2481SOL     OW 9969   1.618   0.765   4.205 -0.2178 -0.4259  0.0685
 2481SOL    HW2 9970   1.702   0.795   4.241 -0.4395  1.0768 -0.6009
 2481SOL    HW3 9971   1.627   0.776   4.110 -1.2979  0.1022  0.0179
 2481SOL    MW4 9972   1.630   0.771   4.197 -0.3896 -0.1580 -0.0262
 2482SOL     OW 9973   1.356   0.866   4.281 -0.4337  0.0676  0.6075
 2482SOL    HW2 9974   1.368   0.961   4.274 -2.4450  0.2508 -0.7341
 2482SOL    HW3 9975   1.442   0.829   4.260 -0.4308  1.5053 -2.0617
 2482SOL    MW4 9976   1.369   0.873   4.277 -0.6987  0.2815  0.0782
 2483SOL     OW 9977   1.319   1.144   4.201  0.1557 -0.1965  0.4040
 2483SOL    HW2 9978   1.253   1.193   4.250 -0.5626 -1.7568  1.0248
 2483SOL    HW3 9979   1.296   1.159   4.109 -1.2384 -0.9462  0.6164
 2483SOL    MW4 9980   1.307   1.152   4.196 -0.1230 -0.5013  0.5136
 2484SOL     OW 9981   1.589   1.206   4.226 -0.4173  0.0005  0.6083
 2484SOL    HW2 9982   1.592   1.194   4.320 -0.8457  0.1360  0.6380
 2484SOL    HW3 9983   1.497   1.195   4.203 -0.3748  0.3628  0.2575
 2484SOL    MW4 9984   1.578   1.203   4.235 -0.4683  0.0662  0.5655
 2485SOL     OW 9985   1.612   1.498   4.108 -0.2668 -0.1983  0.2338
 2485SOL    HW2 9986   1.525   1.535   4.120  0.3679  1.5469 -0.4641
 2485SOL    HW3 9987   1.606   1.409   4.144 -2.0900  0.2120  0.9494
 2485SOL    MW4 9988   1.600   1.491   4.114 -0.4237  0.0859  0.2365
 2486SOL     OW 9989   1.398   1.631   4.175  0.8594  0.6288  0.0285
 2486SOL    HW2 9990   1.381   1.726   4.175  0.6655  0.6233  2.0524
 2486SOL    HW3 9991   1.321   1.593   4.134  0.2181  1.2444  0.6515
 2486SOL    MW4 9992   1.386   1.639   4.169  0.7492  0.7093  0.3777
 2487SOL     OW 9993   1.327   1.905   4.131 -0.4685  0.1494  0.0573
 2487SOL    HW2 9994   1.396   1.959   4.169 -0.5812  0.4143 -0.1098
 2487SOL    HW3 9995   1.245   1.949   4.155 -0.5018  0.8823 -1.3334
 2487SOL    MW4 9996   1.325   1.918   4.139 -0.4878  0.2812 -0.1483
 2488SOL     OW 9997   1.555   2.033   4.233 -0.2952 -0.2057  0.5198
 2488SOL    HW2 9998   1.543   2.056   4.325 -0.3024 -1.0028  0.7243
 2488SOL    HW3 9999   1.541   2.115   4.186 -1.8293 -0.0977  1.1074
 2488SOL    MW410000   1.551   2.047   4.239 -0.4985 -0.2966  0.6242
 2489SOL     OW10001   1.605   2.286   4.089  0.0994  0.2583 -0.2787
 2489SOL    HW210002   1.690   2.316   4.121 -0.8886  1.5775  1.1879
 2489SOL    HW310003   1.606   2.310   3.996  1.4323  0.0143 -0.3440
 2489SOL    MW410004   1.617   2.293   4.081  0.1451  0.4001 -0.0939
 2490SOL     OW10005   1.405   2.441   4.242  0.2477  0.1579  0.3318
 2490SOL    HW210006   1.419   2.535   4.231 -0.0724  0.3090  1.2163
 2490SOL    HW310007   1.472   2.401   4.187  0.2996  0.9017 -0.1592
 2490SOL    MW410008   1.416   2.448   4.233  0.2122  0.2759  0.3839
 2491SOL     OW10009   1.413   2.695   4.111 -0.2745  0.8400  0.2283
 2491SOL    HW210010   1.482   2.760   4.126  0.1556  0.8625 -1.7008
 2491SOL    HW310011   1.331   2.743   4.124  0.0600  1.4264  0.2023
 2491SOL    MW410012   1.412   2.710   4.114 -0.1737  0.9203 -0.0305
 2492SOL     OW10013   1.638   2.832   4.212  0.7947 -0.4528 -0.6872
 2492SOL    HW210014   1.615   2.856   4.302 -1.6400 -1.1058 -1.1084
 2492SOL    HW310015   1.642   2.916   4.165  2.3885 -0.0829  0.0820
 2492SOL    MW410016   1.636   2.847   4.218  0.6837 -0.4902 -0.6409
 2493SOL     OW10017   1.605   3.093   4.113  0.2913 -0.4592  0.2052
 2493SOL    HW210018   1.680   3.143   4.146  1.2958 -0.3421 -2.1673
 2493SOL    HW310019   1.528   3.143   4.142  1.1838  0.4986  0.9358
 2493SOL    MW410020   1.604   3.106   4.121  0.5417 -0.3173 -0.0114
 2494SOL     OW10021   1.391   3.240   4.237  0.3032 -0.1927 -0.2772
 2494SOL    HW210022   1.429   3.222   4.322  1.7915  0.3523 -0.8143
 2494SOL    HW310023   1.383   3.336   4.234 -2.0174 -0.3389  0.2056
 2494SOL    MW410024   1.395   3.250   4.248  0.1935 -0.1397 -0.2851
 2495SOL     OW10025   1.402   3.507   4.157  0.6426  0.2690 -0.2898
 2495SOL    HW210026   1.319   3.552   4.176 -0.4119 -1.8969  0.3691
 2495SOL    HW310027   1.405   3.503   4.062  1.3827  2.8224 -0.4215
 2495SOL    MW410028   1.391   3.513   4.147  0.6012  0.3202 -0.2208
 2496SOL     OW10029   1.625   3.634   4.277  0.0582 -0.1644  0.0062
 2496SOL    HW210030   1.637   3.607   4.368 -0.5358  1.2167  0.5101
 2496SOL    HW310031   1.542   3.596   4.251  0.1061 -0.3452  0.1142
 2496SOL    MW410032   1.616   3.625   4.285 -0.0138 -0.0060  0.0873
 2497SOL     OW10033   1.606   3.893   4.172  0.4543  0.1959  0.4438
 2497SOL    HW210034   1.518   3.923   4.193  0.5415  1.4281 -0.8678
 2497SOL    HW310035   1.615   3.810   4.218 -1.5763 -0.1943  0.1711
 2497SOL    MW410036   1.596   3.886   4.180  0.1978  0.3068  0.2351
 2498SOL     OW10037   1.354   3.990   4.231 -0.5198  0.0019 -0.4007
 2498SOL    HW210038   1.322   3.978   4.321  0.2971 -0.8874 -0.2198
 2498SOL    HW310039   1.354   4.084   4.218  0.3310  0.2006  0.9105
 2498SOL    MW410040   1.350   4.000   4.241 -0.2997 -0.0892 -0.2041
 2499SOL     OW10041   1.344   4.262   4.167 -0.4613 -0.2651  0.3642
 2499SOL    HW210042   1.428   4.295   4.200 -1.1821  2.0181 -0.0066
 2499SOL    HW310043   1.354   4.260   4.072 -0.8831  0.1581  0.3102
 2499SOL    MW410044   1.357   4.266   4.159 -0.6120  0.0925  0.3085
 2500SOL     OW10045   1.575   4.376   4.238  0.1657 -0.5196 -0.0854
 2500SOL    HW210046   1.581   4.465   4.204  0.3332 -0.5490 -0.1305
 2500SOL    HW310047   1.643   4.327   4.192 -1.5328 -1.2528 -1.8726
 2500SOL    MW410048   1.585   4.381   4.228 -0.0361 -0.6208 -0.3276
 2501SOL     OW10049   2.035   4.617   4.159 -0.2798  0.1559  0.1273
 2501SOL    HW210050   1.944   4.635   4.181 -0.7521 -2.6258  0.6766
 2501SOL    HW310051   2.038   4.617   4.063 -1.4245 -2.0319  0.0446
 2501SOL    MW410052   2.023   4.619   4.149 -0.4928 -0.4997  0.1888
 2502SOL     OW10053   1.807   0.080   4.256  0.1125  0.3760  0.3485
 2502SOL    HW210054   1.812   0.066   4.350 -1.7926 -0.1530  0.3776
 2502SOL    HW310055   1.801   0.175   4.246  1.1042  0.4821  0.7049
 2502SOL    MW410056   1.807   0.091   4.267 -0.0080  0.3202  0.3991
 2503SOL     OW10057   1.763   0.353   4.176  0.0872 -0.3095 -0.0645
 2503SOL    HW210058   1.839   0.393   4.217  1.1411  0.5973 -2.7568
 2503SOL    HW310059   1.687   0.397   4.214  1.1085  1.9613 -0.6089
 2503SOL    MW410060   1.763   0.364   4.186  0.3610  0.1098 -0.4916
 2504SOL     OW10061   2.009   0.463   4.271  0.0692  0.2605 -0.3979
 2504SOL    HW210062   2.002   0.455   4.366 -0.7696  0.6888 -0.4231
 2504SOL    HW310063   2.080   0.403   4.247 -0.2447 -0.4318  0.4061
 2504SOL    MW410064   2.018   0.454   4.281 -0.0827  0.2257 -0.2952
 2505SOL     OW10065   2.105   0.710   4.152 -0.3169  0.0155 -0.1601
 2505SOL    HW210066   2.170   0.762   4.199  0.1745  0.0677 -0.8797
 2505SOL    HW310067   2.091   0.633   4.207  0.1028  0.1713  0.1642
 2505SOL    MW410068   2.112   0.707   4.165 -0.1967  0.0430 -0.2122
 2506SOL     OW10069   1.879   0.844   4.279 -0.5148  0.0672 -0.7721
 2506SOL    HW210070   1.859   0.937   4.267 -1.0633 -0.0843 -1.0185
 2506SOL    HW310071   1.956   0.829   4.224  0.1688  0.5988  0.0215
 2506SOL    MW410072   1.887   0.854   4.270 -0.4969  0.1174 -0.7000
 2507SOL     OW10073   1.824   1.080   4.161  0.3644  0.4919  0.0191
 2507SOL    HW210074   1.885   1.148   4.189 -0.7527  1.7851 -0.6181
 2507SOL    HW310075   1.738   1.110   4.191  0.0248 -1.3044  0.9010
 2507SOL    MW410076   1.820   1.093   4.168  0.1721  0.4255  0.0515
 2508SOL     OW10077   1.998   1.274   4.255  0.5580 -0.0981 -0.0023
 2508SOL    HW210078   2.075   1.225   4.228 -0.2959 -1.1782 -0.5177
 2508SOL    HW310079   2.020   1.366   4.236  1.8462 -0.3561  0.2070
 2508SOL    MW410080   2.011   1.280   4.249  0.6154 -0.2747 -0.0424
 2509SOL     OW10081   2.056   1.530   4.158  0.3614  0.0415  0.1859
 2509SOL    HW210082   2.137   1.578   4.178  1.4417 -1.0305 -1.4797
 2509SOL    HW310083   2.054   1.526   4.062 -0.6375 -1.6847  0.2566
 2509SOL    MW410084   2.067   1.536   4.148  0.3722 -0.3276 -0.0243
 2510SOL     OW10085   1.823   1.673   4.228  0.1168  0.1293 -0.1960
 2510SOL    HW210086   1.902   1.619   4.220 -0.3734 -0.6359  0.0316
 2510SOL    HW310087   1.757   1.626   4.177 -0.7412 -0.3392  1.3008
 2510SOL    MW410088   1.825   1.659   4.221 -0.0610 -0.0334  0.0315
 2511SOL     OW10089   1.811   1.946   4.169  0.7515 -0.2781  0.0569
 2511SOL    HW210090   1.821   1.856   4.201  2.0753  0.0920  0.7037
 2511SOL    HW310091   1.724   1.973   4.200  0.6289 -1.1067  0.4387
 2511SOL    MW410092   1.801   1.938   4.177  0.9100 -0.3386  0.1922
 2512SOL     OW10093   2.040   2.076   4.248 -0.1545 -0.1515 -0.6587
 2512SOL    HW210094   2.115   2.017   4.240 -0.8135 -1.1146  0.0944
 2512SOL    HW310095   1.966   2.025   4.216 -0.8572 -0.0219  0.7022
 2512SOL    MW410096   2.040   2.061   4.243 -0.3340 -0.2613 -0.3800
 2513SOL     OW10097   2.030   2.313   4.136 -0.3865  0.0621  0.5162
 2513SOL    HW210098   2.030   2.227   4.178  0.8105 -0.2645 -0.1384
 2513SOL    HW310099   2.013   2.295   4.043  0.7639  0.4418  0.2237
 2513SOL    MW410100   2.028   2.299   4.129 -0.0768  0.0689  0.3905
 2514SOL     OW10101   1.803   2.433   4.215 -0.2539 -0.1762  0.6522
 2514SOL    HW210102   1.793   2.415   4.308  0.2474  0.1564  0.7688
 2514SOL    HW310103   1.885   2.388   4.191 -1.1331 -1.4917  0.0597
 2514SOL    MW410104   1.813   2.424   4.224 -0.3037 -0.3061  0.5894
 2515SOL     OW10105   1.860   2.692   4.139  0.0074  0.1261  0.3458
 2515SOL    HW210106   1.844   2.603   4.169 -0.8758 -0.0543 -0.6235
 2515SOL    HW310107   1.783   2.741   4.169 -0.5404  0.0951 -0.9589
 2515SOL    MW410108   1.847   2.687   4.147 -0.1814  0.0982  0.0458
 2516SOL     OW10109   2.094   2.838   4.202 -0.5853  0.1701  0.1865
 2516SOL    HW210110   2.015   2.783   4.200  0.3172 -1.1187 -0.6801
 2516SOL    HW310111   2.101   2.866   4.293 -0.7497 -1.6298  0.7788
 2516SOL    MW410112   2.084   2.834   4.214 -0.4878 -0.2375  0.1502
 2517SOL     OW10113   2.058   3.107   4.092 -0.4674  0.1394 -0.1022
 2517SOL    HW210114   2.053   3.014   4.114 -1.4388  0.2037 -0.0474
 2517SOL    HW310115   2.063   3.108   3.996  1.2208 -0.0288 -0.0392
 2517SOL    MW410116   2.058   3.095   4.082 -0.3726  0.1256 -0.0863
 2518SOL     OW10117   1.839   3.194   4.212 -0.2578  0.4400  0.3824
 2518SOL    HW210118   1.828   3.288   4.199 -0.0619  0.6050  1.4349
 2518SOL    HW310119   1.924   3.174   4.171  0.1451  0.8849  0.9952
 2518SOL    MW410120   1.849   3.204   4.205 -0.1788  0.5207  0.6022
 2519SOL     OW10121   1.811   3.471   4.162 -0.4334  0.1006  0.0058
 2519SOL    HW210122   1.763   3.546   4.197  0.3784 -0.3063  2.0539
 2519SOL    HW310123   1.812   3.485   4.067 -1.3918  1.9980  0.2553
 2519SOL    MW410124   1.805   3.483   4.154 -0.4526  0.2973  0.3090
 2520SOL     OW10125   2.057   3.598   4.288  0.3789 -0.0407 -0.7040
 2520SOL    HW210126   2.032   3.676   4.239  1.2712 -0.3858 -1.7127
 2520SOL    HW310127   1.980   3.541   4.283 -0.1078  0.5732 -0.3492
 2520SOL    MW410128   2.044   3.601   4.281  0.4323 -0.0052 -0.7901
 2521SOL     OW10129   2.002   3.835   4.140  0.2501 -0.7212  0.4713
 2521SOL    HW210130   1.955   3.915   4.163 -0.0367 -0.6735 -0.2935
 2521SOL    HW310131   2.017   3.842   4.046  0.3364 -1.5094  0.4270
 2521SOL    MW410132   1.998   3.846   4.131  0.2236 -0.8194  0.3638
 2522SOL     OW10133   1.831   4.018   4.276  0.1217  0.2500  0.0258
 2522SOL    HW210134   1.821   4.101   4.229 -0.0417  0.4494  0.4088
 2522SOL    HW310135   1.747   3.973   4.262 -0.4118  0.8648  1.1961
 2522SOL    MW410136   1.819   4.023   4.268  0.0297  0.3576  0.2308
 2523SOL     OW10137   1.797   4.255   4.134  0.1758  0.7509 -0.1779
 2523SOL    HW210138   1.879   4.299   4.158  0.6298 -0.1638 -0.0443
 2523SOL    HW310139   1.800   4.250   4.039  0.8857 -0.4378 -0.1030
 2523SOL    MW410140   1.808   4.261   4.125  0.3293  0.4735 -0.1507
 2524SOL     OW10141   2.040   4.347   4.215 -0.4131  0.0995 -0.4711
 2524SOL    HW210142   2.014   4.336   4.306 -0.8401  0.0966 -0.5877
 2524SOL    HW310143   2.056   4.440   4.205 -0.8922  0.1777 -0.5258
 2524SOL    MW410144   2.038   4.358   4.225 -0.5326  0.1097 -0.4935
 2525SOL     OW10145   2.487   4.603   4.178  0.4674 -0.1645 -0.3388
 2525SOL    HW210146   2.575   4.638   4.192  0.2651 -0.0210  0.6361
 2525SOL    HW310147   2.490   4.516   4.218  0.2920 -0.3271 -0.6835
 2525SOL    MW410148   2.499   4.596   4.185  0.4175 -0.1669 -0.2556
 2526SOL     OW10149   2.256   0.083   4.265  0.1719  0.0966 -0.2426
 2526SOL    HW210150   2.335   0.032   4.249  0.3634  0.0112  0.9021
 2526SOL    HW310151   2.184   0.026   4.236  0.3805 -0.8789  1.1333
 2526SOL    MW410152   2.257   0.069   4.259  0.2246 -0.0433  0.0896
 2527SOL     OW10153   2.273   0.347   4.207  0.1172  0.2126 -0.4073
 2527SOL    HW210154   2.260   0.260   4.247  2.1762  0.0498 -0.0495
 2527SOL    HW310155   2.279   0.329   4.113 -0.1645  0.0450 -0.3933
 2527SOL    MW410156   2.272   0.333   4.200  0.3519  0.1690 -0.3576
 2528SOL     OW10157   2.495   0.505   4.286  0.7549 -0.3228  0.2902
 2528SOL    HW210158   2.491   0.495   4.381 -0.6031 -0.7037  0.2055
 2528SOL    HW310159   2.422   0.452   4.254  1.1228 -0.0764 -0.9596
 2528SOL    MW410160   2.485   0.496   4.294  0.6244 -0.3406  0.1140
 2529SOL     OW10161   2.476   0.774   4.207 -0.0134  0.0784  0.1733
 2529SOL    HW210162   2.477   0.686   4.244 -0.3571  0.0804  0.1921
 2529SOL    HW310163   2.483   0.760   4.112  2.0252  0.1245  0.3069
 2529SOL    MW410164   2.477   0.761   4.199  0.2103  0.0847  0.1936
 2530SOL     OW10165   2.258   0.895   4.285 -0.0380 -0.3629  0.1820
 2530SOL    HW210166   2.244   0.886   4.379  1.2964 -0.8213  0.3451
 2530SOL    HW310167   2.331   0.836   4.266 -0.1249 -0.0712 -1.0990
 2530SOL    MW410168   2.266   0.886   4.295  0.1264 -0.3849  0.0348
 2531SOL     OW10169   2.210   1.135   4.181 -0.1712  0.1034  0.0412
 2531SOL    HW210170   2.285   1.186   4.211 -0.9135 -0.0062  2.2209
 2531SOL    HW310171   2.227   1.047   4.215 -1.2656  0.0784  0.5321
 2531SOL    MW410172   2.222   1.130   4.190 -0.4137  0.0856  0.3939
 2532SOL     OW10173   2.453   1.267   4.278 -0.0201  0.2588 -0.0386
 2532SOL    HW210174   2.470   1.328   4.350 -0.6389  0.6959 -0.2605
 2532SOL    HW310175   2.539   1.230   4.257  0.2774  0.6843  0.4331
 2532SOL    MW410176   2.467   1.271   4.284 -0.0627  0.3726 -0.0057
 2533SOL     OW10177   2.466   1.502   4.138  0.2320  0.4503  0.5430
 2533SOL    HW210178   2.447   1.413   4.169 -1.3207  0.4276 -0.4332
 2533SOL    HW310179   2.461   1.496   4.043  0.1969  1.5688  0.4694
 2533SOL    MW410180   2.463   1.489   4.129  0.0226  0.5950  0.4044
 2534SOL     OW10181   2.274   1.654   4.279  0.3589  0.1146 -0.1969
 2534SOL    HW210182   2.237   1.586   4.334 -0.1968 -1.2974 -2.2573
 2534SOL    HW310183   2.340   1.609   4.226 -1.3124  0.7116 -2.9093
 2534SOL    MW410184   2.278   1.639   4.279  0.0653  0.0069 -0.8268
 2535SOL     OW10185   2.247   1.905   4.168 -0.4988 -0.0965 -0.1857
 2535SOL    HW210186   2.333   1.943   4.185 -0.9156  0.6896  0.2259
 2535SOL    HW310187   2.248   1.822   4.215 -0.7374  0.9125  1.6386
 2535SOL    MW410188   2.258   1.899   4.177 -0.5851  0.1404  0.1092
 2536SOL     OW10189   2.477   2.044   4.232 -0.0358 -0.0940  0.0990
 2536SOL    HW210190   2.511   2.085   4.311  3.4253 -1.2567 -0.6521
 2536SOL    HW310191   2.552   1.994   4.197 -1.6331 -0.1643 -3.5043
 2536SOL    MW410192   2.492   2.042   4.238  0.2098 -0.2565 -0.4749
 2537SOL     OW10193   2.488   2.313   4.146 -0.4376 -0.0440 -0.0444
 2537SOL    HW210194   2.497   2.223   4.175 -0.9810  0.1844  0.8376
 2537SOL    HW310195   2.512   2.310   4.053  0.8544 -0.8415  0.3027
 2537SOL    MW410196   2.492   2.301   4.137 -0.3388 -0.1194  0.1178
 2538SOL     OW10197   2.263   2.453   4.205 -0.4261  0.3345 -0.2883
 2538SOL    HW210198   2.344   2.409   4.180 -0.2716  0.6304 -0.3159
 2538SOL    HW310199   2.193   2.397   4.171 -0.2981 -1.4659  2.2891
 2538SOL    MW410200   2.265   2.440   4.198 -0.3889  0.1359  0.0482
 2539SOL     OW10201   2.321   2.704   4.130 -0.3113 -0.1019  0.0470
 2539SOL    HW210202   2.303   2.612   4.148 -0.0996 -0.2502 -0.4921
 2539SOL    HW310203   2.237   2.748   4.142 -0.1133 -0.1403  1.7233
 2539SOL    MW410204   2.308   2.698   4.134 -0.2570 -0.1266  0.1969
 2540SOL     OW10205   2.503   2.886   4.222 -0.5291  0.4046  0.4294
 2540SOL    HW210206   2.508   2.864   4.315 -1.1788  0.4686  0.4803
 2540SOL    HW310207   2.438   2.826   4.186 -0.9799  1.0231  0.2056
 2540SOL    MW410208   2.495   2.875   4.229 -0.6742  0.4950  0.4067
 2541SOL     OW10209   2.495   3.141   4.142  0.4150  0.0918 -0.1063
 2541SOL    HW210210   2.414   3.184   4.169 -0.2774  0.0647 -2.0578
 2541SOL    HW310211   2.490   3.054   4.182 -0.7825 -0.1010 -0.6583
 2541SOL    MW410212   2.484   3.135   4.151  0.1657  0.0627 -0.4368
 2542SOL     OW10213   2.258   3.211   4.252  0.0633  0.1337 -0.1053
 2542SOL    HW210214   2.257   3.303   4.223 -0.5781  0.3375  0.5675
 2542SOL    HW310215   2.212   3.164   4.183 -0.2191  0.4181 -0.1139
 2542SOL    MW410216   2.252   3.217   4.239 -0.0584  0.1981 -0.0172
 2543SOL     OW10217   2.269   3.474   4.158 -0.0174 -0.2840 -0.0407
 2543SOL    HW210218   2.347   3.500   4.208 -0.0997 -0.1366  0.0116
 2543SOL    HW310219   2.196   3.515   4.204 -0.3783 -2.3049  1.2582
 2543SOL    MW410220   2.270   3.483   4.171 -0.0758 -0.5310  0.1378
 2544SOL     OW10221   2.509   3.555   4.288  0.1149  0.0489  0.2634
 2544SOL    HW210222   2.550   3.524   4.368  1.0234  0.4251 -0.0496
 2544SOL    HW310223   2.517   3.650   4.291  3.3532 -0.0634 -1.9070
 2544SOL    MW410224   2.515   3.563   4.299  0.6621  0.0834 -0.0639
 2545SOL     OW10225   2.524   3.817   4.202 -0.2520 -0.2904 -0.2065
 2545SOL    HW210226   2.590   3.875   4.240 -1.7938  1.0640  0.4674
 2545SOL    HW310227   2.530   3.831   4.108  1.9152 -1.8282 -0.3205
 2545SOL    MW410228   2.533   3.827   4.195 -0.1695 -0.3147 -0.1326
 2546SOL     OW10229   2.275   3.986   4.244 -0.0492 -0.1071 -0.0097
 2546SOL    HW210230   2.351   3.928   4.253  0.6852  0.5532 -1.6488
 2546SOL    HW310231   2.202   3.926   4.230  0.4042 -0.7176  0.1906
 2546SOL    MW410232   2.276   3.970   4.243  0.1078 -0.1004 -0.1998
 2547SOL     OW10233   2.292   4.246   4.147 -0.2883  0.0558 -0.6908
 2547SOL    HW210234   2.269   4.153   4.154  0.9024 -0.1580  0.5020
 2547SOL    HW310235   2.208   4.292   4.156 -0.8585 -0.8877 -1.0837
 2547SOL    MW410236   2.278   4.240   4.149 -0.2062 -0.0968 -0.5851
 2548SOL     OW10237   2.512   4.341   4.292 -0.5438  0.2294  0.3195
 2548SOL    HW210238   2.597   4.331   4.249 -0.0080  0.5808  1.2700
 2548SOL    HW310239   2.452   4.288   4.240  0.2174  0.1316 -0.4757
 2548SOL    MW410240   2.515   4.333   4.279 -0.3726  0.2623  0.3400
 2549SOL     OW10241   2.990   4.616   4.171  0.1862 -0.1711 -0.3879
 2549SOL    HW210242   3.060   4.668   4.211  0.3275  0.7227 -1.7718
 2549SOL    HW310243   2.988   4.536   4.223  1.2093  0.4344  0.6241
 2549SOL    MW410244   2.999   4.612   4.183  0.3400  0.0267 -0.4373
 2550SOL     OW10245   2.733   0.056   4.192  0.1880 -0.1674  0.5326
 2550SOL    HW210246   2.736   0.151   4.176 -2.4579  0.0095  0.7733
 2550SOL    HW310247   2.822   0.026   4.178  0.6247  2.0262 -1.7518
 2550SOL    MW410248   2.745   0.065   4.188 -0.1037  0.1453  0.2632
 2551SOL     OW10249   2.723   0.343   4.175 -0.4602  0.2620  0.4419
 2551SOL    HW210250   2.639   0.364   4.217 -1.0246 -1.1226  0.0301
 2551SOL    HW310251   2.711   0.369   4.084 -0.6719 -0.5261  0.2416
 2551SOL    MW410252   2.710   0.349   4.169 -0.5627 -0.0247  0.3610
 2552SOL     OW10253   2.941   0.486   4.275  0.3299  0.2605 -0.5289
 2552SOL    HW210254   2.936   0.567   4.224 -0.7083  1.4489  1.3883
 2552SOL    HW310255   2.869   0.432   4.243  1.8691 -0.5447 -2.7945
 2552SOL    MW410256   2.931   0.490   4.264  0.3958  0.3111 -0.5755
 2553SOL     OW10257   2.904   0.723   4.156  0.4602 -0.3487 -0.2128
 2553SOL    HW210258   2.981   0.755   4.202  0.2381  0.2303 -0.2361
 2553SOL    HW310259   2.923   0.737   4.063  0.0601  0.4023 -0.1838
 2553SOL    MW410260   2.916   0.729   4.150  0.3784 -0.1732 -0.2117
 2554SOL     OW10261   2.710   0.870   4.278  0.1840  0.1643  0.2530
 2554SOL    HW210262   2.774   0.824   4.223  0.4435  0.8921 -0.0720
 2554SOL    HW310263   2.627   0.826   4.260  0.2741  0.3600 -0.7059
 2554SOL    MW410264   2.708   0.858   4.268  0.2301  0.2861  0.0839
 2555SOL     OW10265   2.694   1.158   4.209 -0.0938 -0.9048 -0.0345
 2555SOL    HW210266   2.703   1.064   4.224 -1.9811 -1.2228 -0.7089
 2555SOL    HW310267   2.684   1.166   4.114  1.0154  0.0778 -0.0816
 2555SOL    MW410268   2.694   1.146   4.198 -0.1962 -0.8173 -0.1292
 2556SOL     OW10269   2.945   1.262   4.292 -0.1982 -0.0135 -0.0057
 2556SOL    HW210270   3.011   1.222   4.235 -0.1697 -0.0034  0.0200
 2556SOL    HW310271   2.861   1.227   4.261 -0.1240 -0.5497  0.3982
 2556SOL    MW410272   2.943   1.252   4.280 -0.1845 -0.0830  0.0510
 2557SOL     OW10273   2.975   1.496   4.142  0.0996 -0.2500 -0.1955
 2557SOL    HW210274   3.043   1.550   4.184 -0.6261  0.5511 -0.0425
 2557SOL    HW310275   2.965   1.421   4.201  0.3031  0.0185  0.1847
 2557SOL    MW410276   2.983   1.493   4.155  0.0305 -0.1090 -0.1249
 2558SOL     OW10277   2.726   1.628   4.172 -0.0424 -0.2135 -0.4509
 2558SOL    HW210278   2.795   1.565   4.148 -0.3967 -1.1936  1.0533
 2558SOL    HW310279   2.645   1.576   4.169 -0.5881  0.6736 -1.1685
 2558SOL    MW410280   2.725   1.613   4.168 -0.1612 -0.2258 -0.3471
 2559SOL     OW10281   2.702   1.928   4.149  0.4434  0.0979  0.1002
 2559SOL    HW210282   2.717   1.837   4.172  0.8375  0.1243 -0.0343
 2559SOL    HW310283   2.708   1.930   4.053 -0.9717  0.0209  0.0036
 2559SOL    MW410284   2.705   1.916   4.139  0.3088  0.0912  0.0691
 2560SOL     OW10285   2.928   2.036   4.237 -0.1058 -0.6191  0.4572
 2560SOL    HW210286   2.916   2.130   4.232  1.7968 -0.3715 -0.1325
 2560SOL    HW310287   2.843   1.999   4.213 -0.9412  0.9375  0.9640
 2560SOL    MW410288   2.915   2.043   4.233  0.0350 -0.3812  0.4463
 2561SOL     OW10289   2.897   2.313   4.181 -0.2251 -0.4940  0.1390
 2561SOL    HW210290   2.972   2.367   4.204 -0.9435  0.7952 -0.4753
 2561SOL    HW310291   2.821   2.362   4.212 -0.9133 -0.9350 -0.8176
 2561SOL    MW410292   2.897   2.327   4.188 -0.4106 -0.3822 -0.0687
 2562SOL     OW10293   2.682   2.482   4.258 -0.2481  0.0103 -0.1774
 2562SOL    HW210294   2.680   2.487   4.353 -0.5903  0.4437 -0.2037
 2562SOL    HW310295   2.611   2.422   4.235  0.2358 -0.5789 -0.1294
 2562SOL    MW410296   2.672   2.475   4.267 -0.2294 -0.0103 -0.1740
 2563SOL     OW10297   2.721   2.735   4.154 -0.6320  0.4158  0.4011
 2563SOL    HW210298   2.717   2.649   4.197  0.8487 -0.1867 -0.6367
 2563SOL    HW310299   2.636   2.775   4.173 -1.6088 -1.5547  0.3316
 2563SOL    MW410300   2.709   2.729   4.162 -0.5660  0.0765  0.2546
 2564SOL     OW10301   2.931   2.868   4.282  0.1081  0.1125  0.2244
 2564SOL    HW210302   2.905   2.895   4.370 -0.4274  0.5534 -0.0602
 2564SOL    HW310303   2.855   2.820   4.248 -0.7401  2.2146 -0.9636
 2564SOL    MW410304   2.917   2.865   4.289 -0.0744  0.4480  0.0305
 2565SOL     OW10305   2.971   3.120   4.168 -0.1245 -0.1959  0.0535
 2565SOL    HW210306   2.953   3.112   4.074  0.8346  1.4173 -0.2819
 2565SOL    HW310307   2.968   3.030   4.201  0.5756 -0.8852 -1.7181
 2565SOL    MW410308   2.968   3.107   4.160  0.0944 -0.0739 -0.2241
 2566SOL     OW10309   2.739   3.263   4.273  0.5006  0.2006 -0.4455
 2566SOL    HW210310   2.811   3.212   4.237  0.0590 -0.6448 -0.1569
 2566SOL    HW310311   2.663   3.238   4.220  0.1317  0.0080  0.1640
 2566SOL    MW410312   2.738   3.253   4.261  0.3939  0.0639 -0.3266
 2567SOL     OW10313   2.730   3.520   4.140 -0.1986 -0.0037  0.2267
 2567SOL    HW210314   2.753   3.436   4.179  1.0754  0.4184  0.4284
 2567SOL    HW310315   2.646   3.543   4.179  0.1359 -0.5083  1.2623
 2567SOL    MW410316   2.722   3.512   4.150  0.0138 -0.0148  0.3896
 2568SOL     OW10317   2.942   3.634   4.290 -0.2249  0.0370 -0.1241
 2568SOL    HW210318   2.896   3.665   4.368 -0.0870 -0.5884  0.2096
 2568SOL    HW310319   2.873   3.594   4.237 -0.1610 -0.3820  0.1100
 2568SOL    MW410320   2.926   3.633   4.293 -0.1984 -0.1009 -0.0496
 2569SOL     OW10321   2.965   3.868   4.157 -0.1668  0.1579  0.2933
 2569SOL    HW210322   3.055   3.898   4.173 -0.4147  1.2006 -0.2817
 2569SOL    HW310323   2.960   3.784   4.203  1.5647 -0.6363 -0.8911
 2569SOL    MW410324   2.976   3.861   4.165  0.0291  0.1907  0.0610
 2570SOL     OW10325   2.749   3.986   4.285 -0.2459 -0.1605 -0.2720
 2570SOL    HW210326   2.748   4.078   4.258  2.1873  0.4523  1.5775
 2570SOL    HW310327   2.827   3.950   4.245  0.1418 -0.7673  0.9874
 2570SOL    MW410328   2.759   3.993   4.276  0.1264 -0.1597  0.1388
 2571SOL     OW10329   2.761   4.267   4.172  0.0037  0.2652  0.2279
 2571SOL    HW210330   2.828   4.327   4.204  0.4166 -0.5392  0.8715
 2571SOL    HW310331   2.769   4.272   4.077  0.1198  1.1350  0.2794
 2571SOL    MW410332   2.771   4.276   4.164  0.0739  0.2742  0.3200
 2572SOL     OW10333   2.987   4.360   4.287  0.2792  0.1268  0.5477
 2572SOL    HW210334   2.996   4.345   4.381 -0.5488 -1.6020  0.3682
 2572SOL    HW310335   3.056   4.307   4.247  0.1467  0.2567  0.1417
 2572SOL    MW410336   2.997   4.351   4.294  0.1526 -0.0834  0.4711
 2573SOL     OW10337   3.418   4.635   4.195  0.4729  0.0809  0.1277
 2573SOL    HW210338   3.484   4.669   4.255 -0.1393 -0.5123  1.1604
 2573SOL    HW310339   3.410   4.542   4.218 -1.8902  0.4921  1.1837
 2573SOL    MW410340   3.425   4.627   4.206  0.0806  0.0567  0.4029
 2574SOL     OW10341   3.198   0.121   4.285  0.6756  0.3414 -0.4606
 2574SOL    HW210342   3.220   0.100   4.376 -0.0437 -3.2185 -1.0218
 2574SOL    HW310343   3.261   0.070   4.234 -0.3308  0.5866 -1.9569
 2574SOL    MW410344   3.209   0.111   4.291  0.4480 -0.0959 -0.7319
 2575SOL     OW10345   3.212   0.387   4.189  0.3997 -0.2590 -0.2090
 2575SOL    HW210346   3.235   0.301   4.225 -0.0616  0.5639  2.1546
 2575SOL    HW310347   3.122   0.401   4.217  0.3119  0.8040 -0.9941
 2575SOL    MW410348   3.203   0.377   4.198  0.3276 -0.0102 -0.0010
 2576SOL     OW10349   3.434   0.506   4.310 -0.3814 -0.3820  0.1896
 2576SOL    HW210350   3.488   0.444   4.262 -1.0973 -0.8049 -0.0855
 2576SOL    HW310351   3.344   0.487   4.282 -0.5801  1.0301 -0.1905
 2576SOL    MW410352   3.429   0.495   4.300 -0.5019 -0.2515  0.1030
 2577SOL     OW10353   3.394   0.744   4.194 -0.0224  0.2429 -0.3249
 2577SOL    HW210354   3.308   0.770   4.227  0.4102  2.0162 -0.4994
 2577SOL    HW310355   3.412   0.660   4.235 -2.4787 -0.8840 -1.4405
 2577SOL    MW410356   3.385   0.736   4.203 -0.2894  0.3282 -0.4945
 2578SOL     OW10357   3.136   0.825   4.282  0.0385 -0.2033 -0.0030
 2578SOL    HW210358   3.139   0.849   4.374 -1.0533  1.0078 -0.2639
 2578SOL    HW310359   3.155   0.907   4.236 -1.5455 -0.3227 -0.8872
 2578SOL    MW410360   3.139   0.839   4.288 -0.3145 -0.0592 -0.1540
 2579SOL     OW10361   3.125   1.091   4.158 -0.6907 -0.4654 -0.0913
 2579SOL    HW210362   3.208   1.129   4.187 -0.7545 -0.5300  0.1819
 2579SOL    HW310363   3.115   1.121   4.068 -0.0674 -0.9817 -0.3280
 2579SOL    MW410364   3.134   1.100   4.150 -0.6166 -0.5422 -0.0863
 2580SOL     OW10365   3.371   1.223   4.254  0.3090 -0.2239  0.1628
 2580SOL    HW210366   3.348   1.228   4.346 -0.8523  1.1326 -0.2002
 2580SOL    HW310367   3.372   1.313   4.223  0.3070 -0.6863 -1.2533
 2580SOL    MW410368   3.368   1.235   4.262  0.1554 -0.1060 -0.0725
 2581SOL     OW10369   3.399   1.478   4.158 -0.3356  0.2139  0.0652
 2581SOL    HW210370   3.317   1.520   4.184  0.1919  1.9213 -0.8995
 2581SOL    HW310371   3.400   1.485   4.062 -0.8755 -3.3139 -0.2469
 2581SOL    MW410372   3.388   1.484   4.149 -0.3371 -0.0262 -0.1040
 2582SOL     OW10373   3.180   1.666   4.240 -0.3344  0.0518 -0.1767
 2582SOL    HW210374   3.189   1.692   4.332  3.0396 -0.6279 -0.2691
 2582SOL    HW310375   3.165   1.748   4.193  1.7423  0.8597  0.5327
 2582SOL    MW410376   3.179   1.680   4.246  0.3850  0.0688 -0.0949
 2583SOL     OW10377   3.120   1.914   4.116  0.3939 -0.3313  0.1733
 2583SOL    HW210378   3.180   1.970   4.165  0.9929 -1.9899  1.3831
 2583SOL    HW310379   3.033   1.949   4.135  0.7763  0.2962  0.7692
 2583SOL    MW410380   3.116   1.926   4.125  0.5233 -0.4673  0.4115
 2584SOL     OW10381   3.356   2.044   4.230  0.3860 -0.3628 -0.1730
 2584SOL    HW210382   3.436   1.997   4.207  1.6195  1.5120  0.2288
 2584SOL    HW310383   3.367   2.131   4.193 -0.2176  0.8126  2.3006
 2584SOL    MW410384   3.368   2.049   4.222  0.4692  0.0396  0.2065
 2585SOL     OW10385   3.356   2.323   4.118  0.0728 -0.0518 -0.0668
 2585SOL    HW210386   3.436   2.363   4.151  0.6131 -0.2622 -1.1158
 2585SOL    HW310387   3.371   2.312   4.024 -1.6779  1.0700 -0.5033
 2585SOL    MW410388   3.369   2.327   4.110 -0.0870  0.0684 -0.2627
 2586SOL     OW10389   3.128   2.461   4.192  0.7749 -0.5786  0.1417
 2586SOL    HW210390   3.137   2.556   4.183 -0.6270 -0.4607 -0.2024
 2586SOL    HW310391   3.210   2.426   4.157  0.6693  0.4473 -1.1811
 2586SOL    MW410392   3.140   2.469   4.186  0.5758 -0.4277 -0.0787
 2587SOL     OW10393   3.129   2.731   4.142  0.5603 -0.3469  0.3693
 2587SOL    HW210394   3.212   2.772   4.168 -0.2272  2.0171 -0.7013
 2587SOL    HW310395   3.064   2.768   4.202 -0.0759 -0.4793 -0.2314
 2587SOL    MW410396   3.131   2.742   4.154  0.3724 -0.0527  0.1488
 2588SOL     OW10397   3.374   2.795   4.274  0.1101  0.0447  0.1020
 2588SOL    HW210398   3.455   2.753   4.244 -0.4792 -0.4882 -0.7563
 2588SOL    HW310399   3.393   2.888   4.270  1.2154 -0.0953  1.4217
 2588SOL    MW410400   3.387   2.802   4.270  0.1783 -0.0441  0.1626
 2589SOL     OW10401   3.404   3.071   4.209 -0.1396  0.2225 -0.1824
 2589SOL    HW210402   3.331   3.108   4.258 -0.6234 -0.8362 -0.0806
 2589SOL    HW310403   3.372   3.064   4.119 -0.6940 -1.5975  0.1425
 2589SOL    MW410404   3.391   3.075   4.204 -0.2766 -0.1574 -0.1259
 2590SOL     OW10405   3.184   3.208   4.334  0.1398 -0.4055  0.2989
 2590SOL    HW210406   3.230   3.284   4.297  1.4650 -1.2104  0.2985
 2590SOL    HW310407   3.110   3.194   4.274 -0.3097  1.0701  0.4704
 2590SOL    MW410408   3.180   3.216   4.322  0.2553 -0.3171  0.3214
 2591SOL     OW10409   3.250   3.440   4.199 -0.1098 -0.1700  0.0142
 2591SOL    HW210410   3.236   3.518   4.252  1.3775  1.0243 -1.2967
 2591SOL    HW310411   3.212   3.462   4.114  0.6906 -0.6947 -0.4898
 2591SOL    MW410412   3.243   3.453   4.194  0.1922 -0.0818 -0.2255
 2592SOL     OW10413   3.208   3.654   4.375 -0.8335 -0.8929  0.4679
 2592SOL    HW210414   3.213   3.603   4.456 -0.0059 -1.9562 -0.2412
 2592SOL    HW310415   3.118   3.641   4.344 -1.3768  0.1107  1.5874
 2592SOL    MW410416   3.197   3.645   4.382 -0.7961 -0.9007  0.5226
 2593SOL     OW10417   3.433   3.816   4.132  0.0281  0.1944  0.5253
 2593SOL    HW210418   3.456   3.724   4.141  0.1117  0.0801 -0.6942
 2593SOL    HW310419   3.425   3.829   4.037 -2.3338  0.8475  0.7820
 2593SOL    MW410420   3.435   3.805   4.121 -0.2728  0.2658  0.3982
 2594SOL     OW10421   3.218   3.964   4.263 -0.4506 -0.1808 -0.0048
 2594SOL    HW210422   3.196   3.931   4.350 -1.1498 -3.9384 -1.5131
 2594SOL    HW310423   3.277   3.898   4.226  0.3812  1.6798 -2.1132
 2594SOL    MW410424   3.223   3.951   4.269 -0.4327 -0.4308 -0.4811
 2595SOL     OW10425   3.200   4.218   4.171  0.1264  0.2494 -0.0314
 2595SOL    HW210426   3.272   4.260   4.218 -0.5982 -0.9440  2.2317
 2595SOL    HW310427   3.209   4.125   4.191 -2.3073  0.1377  0.7032
 2595SOL    MW410428   3.210   4.212   4.180 -0.2904  0.0777  0.3638
 2596SOL     OW10429   3.416   4.381   4.296  0.0543 -0.2384 -0.2555
 2596SOL    HW210430   3.472   4.412   4.367  0.1167 -0.2570 -0.2967
 2596SOL    HW310431   3.476   4.339   4.235  0.0932  0.4808 -0.7093
 2596SOL    MW410432   3.431   4.379   4.298  0.0675 -0.1459 -0.3204
 2597SOL     OW10433   3.823   4.662   4.211  0.0017 -0.3420 -0.1218
 2597SOL    HW210434   3.907   4.702   4.235  0.0546 -0.5595  0.0601
 2597SOL    HW310435   3.822   4.663   4.115  0.7609 -1.4667 -0.1473
 2597SOL    MW410436   3.834   4.667   4.202  0.1087 -0.5191 -0.1016
 2598SOL     OW10437   3.601   0.116   4.332 -0.2142 -0.1801 -0.6427
 2598SOL    HW210438   3.607   0.202   4.291 -1.0761  0.6459  0.9055
 2598SOL    HW310439   3.663   0.062   4.284  0.1904  1.2554 -1.7709
 2598SOL    MW410440   3.610   0.120   4.320 -0.2747  0.1182 -0.5870
 2599SOL     OW10441   3.606   0.349   4.162 -0.4462 -0.0749 -0.1384
 2599SOL    HW210442   3.693   0.385   4.180 -1.2418  1.8743 -0.0713
 2599SOL    HW310443   3.605   0.334   4.068  0.2067 -0.7915 -0.0353
 2599SOL    MW410444   3.617   0.351   4.152 -0.4654  0.0877 -0.1163
 2600SOL     OW10445   3.861   0.478   4.246  0.0832  0.3967 -0.2141
 2600SOL    HW210446   3.857   0.461   4.340  0.3579 -0.4510 -0.3525
 2600SOL    HW310447   3.851   0.573   4.238  0.8472  0.5637  0.7178
 2600SOL    MW410448   3.859   0.489   4.257  0.2203  0.3069 -0.1092
 2601SOL     OW10449   3.816   0.755   4.153 -0.5500 -0.3599  0.2530
 2601SOL    HW210450   3.741   0.787   4.203  0.4874  3.1225 -0.3270
 2601SOL    HW310451   3.789   0.763   4.062 -0.4400 -1.6965  0.0849
 2601SOL    MW410452   3.803   0.760   4.148 -0.3986 -0.0768  0.1540
 2602SOL     OW10453   3.609   0.914   4.280  0.0068 -0.4027  0.3964
 2602SOL    HW210454   3.624   0.990   4.224 -0.2326  0.3828  1.3965
 2602SOL    HW310455   3.527   0.876   4.247 -0.7879  0.7690  0.9858
 2602SOL    MW410456   3.600   0.919   4.268 -0.1297 -0.1444  0.6065
 2603SOL     OW10457   3.628   1.149   4.147  0.1081 -0.0799 -0.0461
 2603SOL    HW210458   3.547   1.184   4.184 -0.2234 -0.2268 -0.6187
 2603SOL    HW310459   3.615   1.153   4.052  0.2182 -1.3787 -0.1360
 2603SOL    MW410460   3.616   1.154   4.139  0.0789 -0.2706 -0.1335
 2604SOL     OW10461   3.858   1.261   4.248 -0.2530 -0.3936 -0.0929
 2604SOL    HW210462   3.779   1.216   4.219  0.7437 -0.5966 -2.6626
 2604SOL    HW310463   3.842   1.353   4.230 -0.2117 -0.3488  0.0999
 2604SOL    MW410464   3.846   1.267   4.242 -0.1163 -0.4145 -0.4067
 2605SOL     OW10465   3.834   1.531   4.169 -0.5363  0.1533  0.1074
 2605SOL    HW210466   3.896   1.581   4.222  0.7637 -0.5782 -0.6989
 2605SOL    HW310467   3.749   1.566   4.192  0.1361  0.7847  1.6593
 2605SOL    MW410468   3.831   1.542   4.179 -0.2761  0.1401  0.2055
 2606SOL     OW10469   3.594   1.667   4.234  0.0849 -0.1932 -0.4621
 2606SOL    HW210470   3.520   1.608   4.222  1.4437 -1.8381 -0.8865
 2606SOL    HW310471   3.617   1.658   4.327 -0.2231  0.2962 -0.3362
 2606SOL    MW410472   3.587   1.658   4.245  0.2234 -0.3456 -0.5016
 2607SOL     OW10473   3.603   1.925   4.151  0.5097  0.2720  0.1558
 2607SOL    HW210474   3.593   1.833   4.176 -0.3178  0.5250  0.7961
 2607SOL    HW310475   3.619   1.922   4.056 -2.2458 -0.4264 -0.3568
 2607SOL    MW410476   3.604   1.912   4.141  0.0370  0.2133  0.1726
 2608SOL     OW10477   3.826   2.033   4.247 -0.0204  0.3681 -0.8624
 2608SOL    HW210478   3.839   2.000   4.336  1.6789 -1.7475 -1.8546
 2608SOL    HW310479   3.746   1.989   4.217 -0.7426  1.2824 -0.3296
 2608SOL    MW410480   3.817   2.023   4.255  0.1087  0.2096 -0.9236
 2609SOL     OW10481   3.846   2.308   4.191  0.1188 -0.0966  0.5730
 2609SOL    HW210482   3.834   2.217   4.216  0.3189  0.0936  1.3599
 2609SOL    HW310483   3.848   2.306   4.095 -1.2079 -0.7506  0.5509
 2609SOL    MW410484   3.845   2.296   4.181 -0.0298 -0.1578  0.6738
 2610SOL     OW10485   3.597   2.408   4.249  0.1886  0.1016  0.0219
 2610SOL    HW210486   3.573   2.375   4.336  1.2040 -1.8418 -0.3965
 2610SOL    HW310487   3.684   2.371   4.233  0.0286  0.4790 -1.8080
 2610SOL    MW410488   3.605   2.399   4.259  0.3018 -0.1051 -0.2747
 2611SOL     OW10489   3.617   2.700   4.176  0.5072 -0.2509 -0.8801
 2611SOL    HW210490   3.601   2.623   4.230 -0.2685 -0.8923 -2.0069
 2611SOL    HW310491   3.616   2.667   4.086 -0.9229  1.2402 -1.4405
 2611SOL    MW410492   3.615   2.686   4.171  0.2160 -0.1388 -1.1029
 2612SOL     OW10493   3.849   2.819   4.287  0.1657 -0.5118 -0.0041
 2612SOL    HW210494   3.848   2.818   4.382 -0.0545 -1.8034 -0.0152
 2612SOL    HW310495   3.771   2.769   4.261 -0.5435  0.9974 -0.8676
 2612SOL    MW410496   3.839   2.812   4.296  0.0432 -0.4826 -0.1192
 2613SOL     OW10497   3.843   3.079   4.206  0.3463  0.1670 -0.0964
 2613SOL    HW210498   3.838   2.986   4.226 -0.7901  0.4902  1.2515
 2613SOL    HW310499   3.855   3.083   4.111 -1.0735 -1.3273 -0.3641
 2613SOL    MW410500   3.844   3.067   4.196  0.0091  0.0124  0.0463
 2614SOL     OW10501   3.620   3.184   4.321  0.3198 -0.1403  0.0201
 2614SOL    HW210502   3.698   3.158   4.271  0.8991  0.1467  0.7713
 2614SOL    HW310503   3.547   3.148   4.270  0.9500 -0.6638 -0.5403
 2614SOL    MW410504   3.621   3.176   4.308  0.4795 -0.1714  0.0453
 2615SOL     OW10505   3.511   3.542   4.163 -0.1564 -0.0867 -0.0737
 2615SOL    HW210506   3.578   3.519   4.227 -0.3302  0.9741  0.5071
 2615SOL    HW310507   3.433   3.493   4.190  0.2922 -1.0930 -0.5801
 2615SOL    MW410508   3.510   3.533   4.175 -0.1199 -0.0796 -0.0639
 2616SOL     OW10509   3.926   3.618   4.336 -0.0146  0.4536 -0.1277
 2616SOL    HW210510   3.993   3.561   4.297  0.3798  0.2385  0.8448
 2616SOL    HW310511   3.848   3.563   4.340  0.4856 -0.1812  1.2226
 2616SOL    MW410512   3.925   3.603   4.332  0.1032  0.3417  0.1793
 2617SOL     OW10513   3.844   3.845   4.179 -0.5469  0.2064 -0.4881
 2617SOL    HW210514   3.764   3.877   4.220 -0.8957 -0.8703 -0.3126
 2617SOL    HW310515   3.876   3.777   4.238  0.0000 -0.0022 -1.0188
 2617SOL    MW410516   3.837   3.841   4.192 -0.5205  0.0365 -0.5350
 2618SOL     OW10517   3.609   3.960   4.291  0.1228 -0.3456 -0.2089
 2618SOL    HW210518   3.576   3.967   4.380 -0.0979  1.9360 -0.4548
 2618SOL    HW310519   3.539   3.915   4.243 -0.2297 -0.5597  0.5006
 2618SOL    MW410520   3.596   3.955   4.296  0.0472 -0.0727 -0.1478
 2619SOL     OW10521   3.602   4.221   4.144 -0.1418 -0.2511 -0.1601
 2619SOL    HW210522   3.675   4.270   4.182 -0.8972 -0.1124  1.1452
 2619SOL    HW310523   3.593   4.144   4.201  0.3039 -1.3394 -1.5295
 2619SOL    MW410524   3.611   4.217   4.157 -0.1826 -0.3762 -0.1683
 2620SOL     OW10525   3.804   4.377   4.246 -0.4740 -0.4845  0.2660
 2620SOL    HW210526   3.889   4.336   4.230  0.2275 -0.2269  3.1008
 2620SOL    HW310527   3.816   4.468   4.220 -0.1694 -0.6537 -0.1982
 2620SOL    MW410528   3.817   4.383   4.240 -0.3412 -0.4730  0.5789
 2621SOL     OW10529   4.281   4.623   4.171 -0.3632  0.4244 -0.3688
 2621SOL    HW210530   4.290   4.542   4.221 -1.0290  0.8643  0.4735
 2621SOL    HW310531   4.348   4.681   4.208  0.4882  0.0797 -1.3461
 2621SOL    MW410532   4.291   4.620   4.183 -0.3390  0.4373 -0.3867
 2622SOL     OW10533   4.075   0.101   4.278 -0.1333 -0.1026 -0.3767
 2622SOL    HW210534   4.079   0.185   4.231  0.6845  0.8455  1.3269
 2622SOL    HW310535   4.133   0.043   4.229 -0.5359  0.3836 -1.4502
 2622SOL    MW410536   4.083   0.105   4.265 -0.0787  0.0866 -0.2937
 2623SOL     OW10537   4.062   0.325   4.137 -0.1394 -0.3746 -0.5522
 2623SOL    HW210538   4.145   0.355   4.174  0.2094 -1.0025 -0.8123
 2623SOL    HW310539   3.997   0.386   4.171  0.2834 -0.4998  0.4910
 2623SOL    MW410540   4.064   0.337   4.146 -0.0372 -0.4739 -0.4492
 2624SOL     OW10541   4.281   0.475   4.231 -0.3327  0.0008  0.1782
 2624SOL    HW210542   4.276   0.569   4.210 -0.3879 -0.2142 -0.7790
 2624SOL    HW310543   4.364   0.446   4.193 -2.2863 -1.2635 -3.3394
 2624SOL    MW410544   4.291   0.484   4.223 -0.5975 -0.1944 -0.4120
 2625SOL     OW10545   4.280   0.731   4.147  0.2850 -0.6638  0.5208
 2625SOL    HW210546   4.198   0.771   4.176  1.0598  0.2924  1.4153
 2625SOL    HW310547   4.280   0.743   4.052  0.9722  2.4121  0.8656
 2625SOL    MW410548   4.269   0.738   4.138  0.4783 -0.1318  0.6843
 2626SOL     OW10549   4.055   0.854   4.251  0.0030  0.5210 -0.2296
 2626SOL    HW210550   4.061   0.942   4.213 -0.6426  0.0913 -1.3567
 2626SOL    HW310551   3.969   0.822   4.224 -0.0711 -0.1715  0.8071
 2626SOL    MW410552   4.044   0.861   4.243 -0.0920  0.3729 -0.2413
 2627SOL     OW10553   4.067   1.105   4.144 -0.4819 -0.4357  0.3003
 2627SOL    HW210554   4.146   1.155   4.164 -0.2151 -0.1682 -1.3193
 2627SOL    HW310555   3.996   1.153   4.185 -0.1333  0.8910 -0.6129
 2627SOL    MW410556   4.068   1.118   4.152 -0.4005 -0.2253 -0.0339
 2628SOL     OW10557   4.250   1.304   4.238  0.1512  0.3656 -0.0975
 2628SOL    HW210558   4.217   1.290   4.326 -1.7226 -0.8969 -0.9858
 2628SOL    HW310559   4.328   1.249   4.233 -0.4302 -0.5049  0.3618
 2628SOL    MW410560   4.256   1.295   4.249 -0.1726  0.0843 -0.1545
 2629SOL     OW10561   4.257   1.579   4.194 -0.3030  0.4631 -0.6869
 2629SOL    HW210562   4.243   1.488   4.221  0.4268  0.4841 -0.2320
 2629SOL    HW310563   4.253   1.576   4.098 -1.2172  0.1144 -0.6476
 2629SOL    MW410564   4.254   1.567   4.185 -0.3276  0.4197 -0.6213
 2630SOL     OW10565   4.028   1.675   4.294 -0.2356  0.0575  0.1515
 2630SOL    HW210566   4.045   1.702   4.384  0.1092  0.5746 -0.0691
 2630SOL    HW310567   4.104   1.623   4.269  0.3688  1.1666 -0.3458
 2630SOL    MW410568   4.040   1.672   4.302 -0.1101  0.2722  0.0572
 2631SOL     OW10569   4.067   1.925   4.178  0.5387  0.2134  0.1645
 2631SOL    HW210570   4.061   1.837   4.216  0.3559  0.3314  0.4072
 2631SOL    HW310571   3.981   1.964   4.194  0.3634  0.1550 -0.6338
 2631SOL    MW410572   4.055   1.918   4.185  0.4916  0.2214  0.0911
 2632SOL     OW10573   0.019   1.917   4.194 -0.3516  0.4195  0.4130
 2632SOL    HW210574   0.096   1.955   4.236  0.2792 -0.0559 -0.2949
 2632SOL    HW310575  -0.054   1.973   4.222  0.3159  1.1392  0.7286
 2632SOL    MW410576   0.020   1.930   4.203 -0.1803  0.4517  0.3610
 2633SOL     OW10577   4.305   2.329   4.185 -0.0584 -0.3850 -0.5104
 2633SOL    HW210578   4.221   2.370   4.208  0.4720  0.1866  0.4519
 2633SOL    HW310579   4.299   2.240   4.219 -0.6031 -0.6284 -1.2157
 2633SOL    MW410580   4.293   2.323   4.192 -0.0601 -0.3419 -0.4768
 2634SOL     OW10581   4.080   2.458   4.269 -0.0021 -0.0157 -0.3026
 2634SOL    HW210582   4.084   2.459   4.365 -2.0276 -1.2145 -0.1896
 2634SOL    HW310583   3.995   2.419   4.248  0.5583 -0.0934 -2.5975
 2634SOL    MW410584   4.070   2.453   4.279 -0.1960 -0.1841 -0.5908
 2635SOL     OW10585   4.083   2.712   4.169 -0.2269 -0.0926 -0.2711
 2635SOL    HW210586   4.095   2.620   4.194 -0.7282  0.3692  1.7506
 2635SOL    HW310587   3.992   2.731   4.193  0.0916  1.1267 -0.0152
 2635SOL    MW410588   4.072   2.703   4.175 -0.2513  0.1290  0.0296
 2636SOL     OW10589   4.319   2.821   4.292  0.4281  0.5136  0.0425
 2636SOL    HW210590   4.229   2.804   4.263  0.5653  0.2103 -0.2156
 2636SOL    HW310591   4.373   2.780   4.225  0.7530 -0.0097  0.6154
 2636SOL    MW410592   4.314   2.813   4.280  0.4888  0.4046  0.0834
 2637SOL     OW10593   4.325   3.080   4.220 -0.3814  0.0827 -0.4488
 2637SOL    HW210594   4.335   2.986   4.235 -0.3405  0.2583  0.6733
 2637SOL    HW310595   4.312   3.088   4.126  1.8207 -0.8553 -0.8609
 2637SOL    MW410596   4.324   3.069   4.210 -0.0858 -0.0179 -0.3557
 2638SOL     OW10597   4.082   3.206   4.286  0.4593  0.0399 -0.2023
 2638SOL    HW210598   4.161   3.152   4.277  0.2823 -0.2100 -0.2317
 2638SOL    HW310599   4.011   3.152   4.252  0.3755  0.5216 -0.8048
 2638SOL    MW410600   4.083   3.192   4.281  0.4253  0.0703 -0.2856
 2639SOL     OW10601   4.137   3.482   4.207 -0.1615  0.8292 -0.3235
 2639SOL    HW210602   4.117   3.390   4.226  1.1886  0.8591  1.3349
 2639SOL    HW310603   4.088   3.501   4.127 -1.1723 -1.0728 -0.1814
 2639SOL    MW410604   4.128   3.472   4.199 -0.1168  0.5822 -0.0858
 2640SOL     OW10605   4.347   3.660   4.275 -0.4623  0.3218  0.7477
 2640SOL    HW210606   4.328   3.733   4.216  1.2954  0.7030  0.6101
 2640SOL    HW310607   4.278   3.596   4.257 -1.5334  1.5787  0.2595
 2640SOL    MW410608   4.335   3.661   4.265 -0.3719  0.5381  0.6652
 2641SOL     OW10609   4.281   3.883   4.127  0.6363 -0.0287  0.2639
 2641SOL    HW210610   4.194   3.910   4.157  0.2479 -1.8931  0.8983
 2641SOL    HW310611   4.276   3.884   4.032 -0.4139 -1.1116  0.3025
 2641SOL    MW410612   4.269   3.887   4.118  0.4463 -0.4179  0.3529
 2642SOL     OW10613   4.075   4.009   4.259  0.0408 -0.2211 -0.4879
 2642SOL    HW210614   4.078   3.998   4.354  2.2574 -1.5420 -0.6650
 2642SOL    HW310615   3.992   3.970   4.233 -0.4310 -0.1446  0.8834
 2642SOL    MW410616   4.065   4.002   4.268  0.2713 -0.3853 -0.3304
 2643SOL     OW10617   4.065   4.273   4.199 -0.4192 -0.1526 -0.0473
 2643SOL    HW210618   4.138   4.322   4.235 -0.3321  0.0012 -0.4308
 2643SOL    HW310619   4.089   4.181   4.211  0.0775 -0.1033 -0.6561
 2643SOL    MW410620   4.078   4.267   4.205 -0.3419 -0.1264 -0.1783
 2644SOL     OW10621   3.798   4.061   4.609 -0.0629 -0.0386  0.2148
 2644SOL    HW210622   3.703   4.070   4.611 -0.1600 -1.0601  2.6360
 2644SOL    HW310623   3.830   4.151   4.620 -0.7956  0.1066  1.3313
 2644SOL    MW410624   3.790   4.074   4.611 -0.1724 -0.1540  0.6814
 2645SOL     OW10625   4.481   0.064   4.537  0.2262  0.5106  0.2518
 2645SOL    HW210626   4.501   0.154   4.564 -0.0497  0.4615  0.6212
 2645SOL    HW310627   4.386   0.058   4.541  0.3226 -0.2631  1.7678
 2645SOL    MW410628   4.471   0.076   4.541  0.2022  0.4021  0.5002
 2646SOL     OW10629   4.324   4.354   4.590 -0.3595 -0.0567  0.4500
 2646SOL    HW210630   4.314   4.260   4.602 -0.0010 -0.1858 -0.2815
 2646SOL    HW310631   4.240   4.391   4.618 -0.4405 -0.5776  0.8934
 2646SOL    MW410632   4.311   4.347   4.595 -0.3233 -0.1426  0.4125
 2647SOL     OW10633   4.068   4.494   4.628 -0.2138  0.3425  0.1185
 2647SOL    HW210634   4.014   4.515   4.704  1.3489 -0.3472  1.4478
 2647SOL    HW310635   4.120   4.573   4.612 -1.5666  0.9930 -1.1376
 2647SOL    MW410636   4.068   4.507   4.636 -0.1855  0.3371  0.1283
 2648SOL     OW10637   0.458   1.305   4.687  0.2352 -0.4364 -0.0706
 2648SOL    HW210638   0.490   1.215   4.698 -1.3565 -1.0402 -0.2026
 2648SOL    HW310639   0.375   1.294   4.640 -1.2348  0.9327  2.1507
 2648SOL    MW410640   0.451   1.292   4.682 -0.1687 -0.3355  0.2046
 2649SOL     OW10641   0.615   4.314   4.607 -0.2023  0.1991  0.4653
 2649SOL    HW210642   0.674   4.362   4.549  1.4095  0.4836  2.2909
 2649SOL    HW310643   0.537   4.370   4.613 -0.7844 -0.2719 -2.1093
 2649SOL    MW410644   0.612   4.328   4.600 -0.0665  0.1745  0.3667
 2650SOL     OW10645   0.748   1.291   4.556 -0.2032 -0.2950 -0.1808
 2650SOL    HW210646   0.755   1.200   4.586  0.6242 -0.0583  0.3738
 2650SOL    HW310647   0.675   1.327   4.606 -1.7370 -1.1606 -1.7461
 2650SOL    MW410648   0.740   1.284   4.567 -0.2964 -0.3780 -0.3142
 2651SOL     OW10649   4.289   0.803   4.655  0.2633 -0.1556 -0.3493
 2651SOL    HW210650   4.298   0.714   4.620  0.7395  0.3307 -1.5268
 2651SOL    HW310651   4.376   0.841   4.644  0.6611 -0.2598  2.2399
 2651SOL    MW410652   4.302   0.796   4.649  0.3786 -0.1051 -0.1636
 2652SOL     OW10653   0.690   1.690   4.490 -0.1417  0.4450 -0.1348
 2652SOL    HW210654   0.628   1.681   4.418  0.6058  0.3158 -0.7788
 2652SOL    HW310655   0.665   1.624   4.554 -0.2540 -0.0510 -0.6951
 2652SOL    MW410656   0.679   1.680   4.489 -0.0578  0.3626 -0.2942
 2653SOL     OW10657   0.596   1.984   4.527  0.5315 -0.0189  0.5249
 2653SOL    HW210658   0.618   1.891   4.526  1.5643  0.2264 -0.0239
 2653SOL    HW310659   0.674   2.027   4.562 -0.2376  0.5667  1.5410
 2653SOL    MW410660   0.609   1.977   4.532  0.5663  0.0907  0.5865
 2654SOL     OW10661   4.260   1.225   4.507  0.8482  0.2996  0.3076
 2654SOL    HW210662   4.181   1.186   4.543  0.1657  0.7422 -0.6823
 2654SOL    HW310663   4.331   1.170   4.538 -0.0043 -1.0954 -0.1976
 2654SOL    MW410664   4.259   1.213   4.516  0.6456  0.1738  0.1106
 2655SOL     OW10665   0.335   1.682   4.517  0.5480 -0.3287 -0.0702
 2655SOL    HW210666   0.249   1.639   4.517 -0.2068  1.0991 -1.2532
 2655SOL    HW310667   0.382   1.641   4.445 -0.2593  0.9465 -1.3548
 2655SOL    MW410668   0.330   1.671   4.508  0.3419  0.0280 -0.3958
 2656SOL     OW10669   0.466   1.585   4.304  0.2303 -0.1962 -0.3843
 2656SOL    HW210670   0.393   1.541   4.262 -0.7136  1.8742 -0.9855
 2656SOL    HW310671   0.543   1.552   4.258 -0.5189 -0.5347 -1.4189
 2656SOL    MW410672   0.467   1.575   4.293  0.0069  0.0322 -0.5999
 2657SOL     OW10673   0.314   1.962   4.520  0.5236 -0.2577 -0.2751
 2657SOL    HW210674   0.408   1.973   4.531  0.3405  0.2543  0.8219
 2657SOL    HW310675   0.299   1.868   4.532  0.7657 -0.1900  0.5473
 2657SOL    MW410676   0.324   1.951   4.523  0.5314 -0.1812 -0.0219
 2658SOL     OW10677   4.364   2.924   4.715  0.1611  0.4886 -0.0617
 2658SOL    HW210678   4.404   2.903   4.799 -0.5446  0.9065  0.3762
 2658SOL    HW310679   4.396   2.855   4.656 -0.0702 -0.3362  0.7613
 2658SOL    MW410680   4.373   2.912   4.718  0.0377  0.4349  0.1044
 2659SOL     OW10681   0.665   2.692   4.477  0.0706  0.0853 -0.4704
 2659SOL    HW210682   0.754   2.678   4.512 -0.0547  1.4903  0.4403
 2659SOL    HW310683   0.624   2.606   4.483  1.0976 -0.3978 -0.1270
 2659SOL    MW410684   0.672   2.679   4.482  0.1896  0.2072 -0.3047
 2660SOL     OW10685   0.551   2.961   4.559 -0.0791 -0.2791  0.3117
 2660SOL    HW210686   0.569   2.869   4.538  0.5383  0.1345 -1.0079
 2660SOL    HW310687   0.458   2.963   4.580  0.3481 -1.6008  2.5582
 2660SOL    MW410688   0.541   2.949   4.559  0.0587 -0.3991  0.4334
 2661SOL     OW10689   4.432   2.729   4.541 -0.1928  0.2046 -0.3339
 2661SOL    HW210690   4.396   2.751   4.455 -0.5551 -0.4266 -0.3508
 2661SOL    HW310691   4.526   2.724   4.528 -0.2866 -0.3931 -0.8122
 2661SOL    MW410692   4.439   2.731   4.528 -0.2537  0.0422 -0.3996
 2662SOL     OW10693   0.172   3.213   4.552  0.1884 -0.2171  0.0927
 2662SOL    HW210694   0.141   3.214   4.462 -0.7596  2.1534  0.4011
 2662SOL    HW310695   0.268   3.208   4.545  0.0896 -0.5378 -1.0319
 2662SOL    MW410696   0.181   3.213   4.539  0.0503  0.0532 -0.0157
 2663SOL     OW10697   0.268   2.958   4.663  0.4451  0.3071  0.1419
 2663SOL    HW210698   0.225   2.944   4.747  0.7079  1.3868  0.4671
 2663SOL    HW310699   0.220   3.030   4.622 -0.2225 -0.7750 -1.0212
 2663SOL    MW410700   0.256   2.966   4.668  0.3917  0.3068  0.0310
 2664SOL     OW10701   4.303   3.626   4.544  0.0160  0.3816  0.0908
 2664SOL    HW210702   4.321   3.641   4.451 -0.5880  3.4336  0.4002
 2664SOL    HW310703   4.209   3.638   4.553  0.2781  1.7420  1.3189
 2664SOL    MW410704   4.293   3.630   4.533 -0.0291  0.9639  0.2933
 2665SOL     OW10705   4.181   0.093   4.529  0.6560 -0.2186 -0.6439
 2665SOL    HW210706   4.156   0.164   4.589  1.5621 -0.4603  0.0433
 2665SOL    HW310707   4.126   0.106   4.452  1.3702  1.7117 -0.8572
 2665SOL    MW410708   4.171   0.104   4.527  0.8702  0.0042 -0.5813
 2666SOL     OW10709   3.840   0.414   4.503 -0.2078  0.4547 -0.2528
 2666SOL    HW210710   3.784   0.353   4.552  1.0060  1.1125  2.0395
 2666SOL    HW310711   3.820   0.500   4.541 -0.7801  1.2806 -2.3956
 2666SOL    MW410712   3.830   0.417   4.515 -0.1230  0.6505 -0.2332
 2667SOL     OW10713   4.384   3.447   4.769  0.2764  0.1553  0.1789
 2667SOL    HW210714   4.378   3.364   4.723 -1.8268 -0.5671  1.6877
 2667SOL    HW310715   4.341   3.510   4.712  0.1941 -0.1615 -0.1077
 2667SOL    MW410716   4.378   3.444   4.756 -0.0124  0.0181  0.3409
 2668SOL     OW10717   3.938   1.559   4.650  0.6393 -0.2199  0.2885
 2668SOL    HW210718   4.005   1.507   4.694  1.3366  1.2094  0.9493
 2668SOL    HW310719   3.981   1.642   4.630  0.0876 -0.5128 -2.3452
 2668SOL    MW410720   3.953   1.563   4.653  0.6583 -0.0700  0.0281
 2669SOL     OW10721   0.395   4.504   4.503 -0.3708 -0.5139  0.4974
 2669SOL    HW210722   0.383   4.454   4.423 -0.6631 -0.4922  0.5267
 2669SOL    HW310723   0.312   4.494   4.550 -0.5111  0.1808  0.4017
 2669SOL    MW410724   0.382   4.496   4.499 -0.4278 -0.4196  0.4888
 2670SOL     OW10725   0.520   0.348   4.586 -0.2272  0.3833 -0.1350
 2670SOL    HW210726   0.520   0.267   4.535  2.0031  0.3261 -0.1074
 2670SOL    HW310727   0.522   0.320   4.677  0.9124  0.4602 -0.1321
 2670SOL    MW410728   0.520   0.334   4.591  0.2174  0.3859 -0.1311
 2671SOL     OW10729   1.429   1.039   4.683 -0.1196 -0.2459  0.0292
 2671SOL    HW210730   1.396   0.952   4.659  0.0805 -0.3851  0.2597
 2671SOL    HW310731   1.435   1.036   4.778 -1.1614  0.3937  0.1231
 2671SOL    MW410732   1.426   1.027   4.692 -0.2307 -0.1799  0.0720
 2672SOL     OW10733   1.042   0.159   4.650 -0.2708  0.3961 -0.1428
 2672SOL    HW210734   1.113   0.116   4.603 -0.2532  1.0626 -0.7409
 2672SOL    HW310735   0.962   0.124   4.609 -0.2800 -0.1736  0.3678
 2672SOL    MW410736   1.041   0.149   4.638 -0.2698  0.4089 -0.1540
 2673SOL     OW10737   0.573   1.564   4.709  0.1289 -0.1888  0.2183
 2673SOL    HW210738   0.518   1.642   4.708  0.0267 -0.2637 -1.3277
 2673SOL    HW310739   0.512   1.491   4.717  0.1724 -0.1432  0.9414
 2673SOL    MW410740   0.558   1.565   4.710  0.1212 -0.1929  0.1097
 2674SOL     OW10741   0.342   0.811   4.598 -0.0499  0.2177  0.2934
 2674SOL    HW210742   0.315   0.720   4.600 -0.3032  0.2892  0.0438
 2674SOL    HW310743   0.365   0.828   4.507  0.8746  0.1430  0.5038
 2674SOL    MW410744   0.342   0.801   4.586  0.0386  0.2172  0.2880
 2675SOL     OW10745   2.150   1.095   4.687  0.1473  0.4945 -0.6372
 2675SOL    HW210746   2.102   1.144   4.620  0.4806  1.3766 -0.2442
 2675SOL    HW310747   2.111   1.124   4.770 -0.2435 -0.5676 -0.4432
 2675SOL    MW410748   2.139   1.105   4.689  0.1397  0.4708 -0.5598
 2676SOL     OW10749   1.018   1.357   4.574 -0.4092 -0.5175  0.0148
 2676SOL    HW210750   0.928   1.324   4.580 -0.0835 -1.0814  2.2551
 2676SOL    HW310751   1.072   1.283   4.600  0.5808  0.4643  0.7712
 2676SOL    MW410752   1.013   1.342   4.578 -0.2356 -0.4624  0.4106
 2677SOL     OW10753   1.187   1.167   4.674 -0.3096  0.1922 -0.3171
 2677SOL    HW210754   1.266   1.120   4.648 -0.2500  0.8441 -1.3556
 2677SOL    HW310755   1.130   1.100   4.711  0.8065 -0.2478  0.6329
 2677SOL    MW410756   1.190   1.152   4.676 -0.1545  0.2202 -0.3290
 2678SOL     OW10757   0.868   2.100   4.653  0.5566 -0.1144 -0.3870
 2678SOL    HW210758   0.892   2.060   4.737 -0.0595  1.3549  0.5022
 2678SOL    HW310759   0.943   2.081   4.596 -0.2471 -3.6444 -0.4141
 2678SOL    MW410760   0.881   2.092   4.657  0.3693 -0.3862 -0.2728
 2679SOL     OW10761   0.866   2.424   4.508 -0.2935 -0.1857  0.3452
 2679SOL    HW210762   0.914   2.426   4.425  0.0986 -0.1872  0.5694
 2679SOL    HW310763   0.909   2.355   4.559  0.1521  0.5328  0.9555
 2679SOL    MW410764   0.878   2.415   4.504 -0.1830 -0.0911  0.4549
 2680SOL     OW10765   1.079   1.939   4.841 -0.1124  0.1333 -0.3016
 2680SOL    HW210766   1.047   1.883   4.913 -0.4332 -0.3767 -0.8383
 2680SOL    HW310767   1.170   1.957   4.865  0.2798 -1.3852 -0.5678
 2680SOL    MW410768   1.087   1.934   4.854 -0.1030 -0.1342 -0.4077
 2681SOL     OW10769   0.056   2.324   4.552 -0.1519  0.0021  0.9090
 2681SOL    HW210770   0.036   2.379   4.476 -0.0900 -1.6323 -0.3201
 2681SOL    HW310771   0.147   2.345   4.573  0.0019  0.0819  0.1864
 2681SOL    MW410772   0.065   2.334   4.545 -0.1234 -0.2029  0.6514
 2682SOL     OW10773   1.213   2.692   4.485 -0.0189  0.0523  0.0316
 2682SOL    HW210774   1.199   2.740   4.403  0.4549 -0.2291 -0.2124
 2682SOL    HW310775   1.308   2.684   4.492 -0.1200 -2.1000 -0.6681
 2682SOL    MW410776   1.223   2.698   4.475  0.0303 -0.2687 -0.0925
 2683SOL     OW10777   0.558   2.429   4.533 -0.4271 -0.2444 -0.3836
 2683SOL    HW210778   0.651   2.408   4.542 -0.2681  0.4884 -0.2709
 2683SOL    HW310779   0.540   2.419   4.439  0.0524  0.7758 -0.5818
 2683SOL    MW410780   0.568   2.425   4.522 -0.3428 -0.0131 -0.3948
 2684SOL     OW10781   1.398   3.446   4.599 -0.1464 -0.5753 -0.2312
 2684SOL    HW210782   1.360   3.533   4.587  1.1310  0.1977  1.2339
 2684SOL    HW310783   1.340   3.402   4.662 -0.8138 -0.8211 -1.0020
 2684SOL    MW410784   1.385   3.451   4.606 -0.0660 -0.5057 -0.1392
 2685SOL     OW10785   0.462   3.255   4.535  0.2448  0.5493 -0.3729
 2685SOL    HW210786   0.517   3.178   4.551 -1.1938 -0.9448 -2.4333
 2685SOL    HW310787   0.511   3.328   4.574  1.5446 -1.4207  1.7461
 2685SOL    MW410788   0.476   3.255   4.542  0.2264  0.0923 -0.3648
 2686SOL     OW10789   1.442   4.357   4.624  0.4712  0.2320 -0.1843
 2686SOL    HW210790   1.442   4.261   4.625 -1.2353  0.2059 -0.1008
 2686SOL    HW310791   1.530   4.381   4.596 -0.1973 -1.4411 -4.1672
 2686SOL    MW410792   1.453   4.347   4.620  0.1577  0.0081 -0.6986
 2687SOL     OW10793   0.296   2.448   4.624  0.0194  0.2249  0.1704
 2687SOL    HW210794   0.384   2.448   4.587  0.5189  0.1181  1.3297
 2687SOL    HW310795   0.259   2.532   4.597  0.5697  0.3816 -0.1144
 2687SOL    MW410796   0.303   2.459   4.616  0.1579  0.2317  0.2861
 2688SOL     OW10797   0.235   3.724   4.573 -0.7406  0.4518 -0.7059
 2688SOL    HW210798   0.205   3.638   4.602 -0.1218  0.2770 -0.5871
 2688SOL    HW310799   0.266   3.709   4.483 -1.3495  0.7123 -0.9692
 2688SOL    MW410800   0.235   3.711   4.565 -0.7393  0.4630 -0.7253
 2689SOL     OW10801   0.695   4.387   4.246 -0.2098 -0.9607  0.2947
 2689SOL    HW210802   0.692   4.464   4.189  0.5407 -1.0222  0.1575
 2689SOL    HW310803   0.607   4.350   4.241 -1.0836  0.8529  1.7170
 2689SOL    MW410804   0.683   4.392   4.238 -0.2260 -0.7296  0.4640
 2690SOL     OW10805   3.747   0.506   4.815  0.0447 -0.1307 -0.2788
 2690SOL    HW210806   3.762   0.577   4.752 -0.1031 -1.0730 -1.3863
 2690SOL    HW310807   3.713   0.434   4.763  1.4018 -1.4672  0.6149
 2690SOL    MW410808   3.745   0.506   4.800  0.2043 -0.4314 -0.3071
 2691SOL     OW10809   4.289   4.079   4.604 -0.3027 -0.6618 -0.3141
 2691SOL    HW210810   4.208   4.030   4.595 -0.5990 -0.5319  1.5124
 2691SOL    HW310811   4.358   4.017   4.578 -0.9561 -0.7850 -1.8055
 2691SOL    MW410812   4.288   4.065   4.599 -0.4282 -0.6614 -0.2694
 2692SOL     OW10813   0.581   4.039   4.538 -0.2823 -0.0263 -0.1598
 2692SOL    HW210814   0.543   4.025   4.451  1.7931 -0.3219 -1.0430
 2692SOL    HW310815   0.583   4.134   4.548  0.3263  0.0289 -0.8139
 2692SOL    MW410816   0.576   4.049   4.528  0.0718 -0.0582 -0.3619
 2693SOL     OW10817   0.989   0.400   4.524  0.1697  0.0050 -0.4262
 2693SOL    HW210818   0.998   0.322   4.578  1.7000  0.8380  0.5589
 2693SOL    HW310819   0.900   0.431   4.541  0.5847  0.1888  1.5613
 2693SOL    MW410820   0.979   0.394   4.534  0.4264  0.1391 -0.0339
 2694SOL     OW10821   0.837   4.459   4.476  0.4531  0.3088  0.0215
 2694SOL    HW210822   0.798   4.431   4.393 -0.5970 -0.8068  0.8734
 2694SOL    HW310823   0.878   4.380   4.511 -1.2574  0.1372  1.7416
 2694SOL    MW410824   0.837   4.445   4.470  0.0889  0.1383  0.3610
 2695SOL     OW10825   0.543   0.087   4.494 -0.6059  0.4147 -0.5424
 2695SOL    HW210826   0.516  -0.004   4.502 -0.0173  0.1568 -1.4329
 2695SOL    HW310827   0.638   0.085   4.510 -0.5582  0.8387 -0.7571
 2695SOL    MW410828   0.552   0.075   4.497 -0.5220  0.4366 -0.6876
 2696SOL     OW10829   1.638   1.131   4.508  0.1932 -0.1522 -0.0955
 2696SOL    HW210830   1.668   1.213   4.547  0.6883 -1.1220  1.6194
 2696SOL    HW310831   1.562   1.106   4.561  0.1698 -0.8917 -0.4786
 2696SOL    MW410832   1.632   1.139   4.520  0.2555 -0.3778  0.0806
 2697SOL     OW10833   1.782   0.868   4.532 -0.4300  0.0758  0.5502
 2697SOL    HW210834   1.756   0.960   4.539 -0.5169 -0.0458  1.9309
 2697SOL    HW310835   1.819   0.861   4.444  0.2973  1.6163  0.7059
 2697SOL    MW410836   1.783   0.879   4.522 -0.3455  0.2630  0.7534
 2698SOL     OW10837   0.067   0.870   4.553 -0.3948 -0.1533  0.0226
 2698SOL    HW210838   0.160   0.864   4.576 -0.6619  1.0492  1.5041
 2698SOL    HW310839   0.063   0.842   4.461  1.1877 -1.7415  0.4295
 2698SOL    MW410840   0.079   0.866   4.544 -0.2213 -0.2041  0.2718
 2699SOL     OW10841   0.968   1.634   4.466  0.0609  0.3808 -0.4953
 2699SOL    HW210842   0.982   1.556   4.520  0.9653  1.8848  1.5229
 2699SOL    HW310843   0.874   1.648   4.469 -0.1952 -1.0026 -1.4285
 2699SOL    MW410844   0.958   1.625   4.474  0.1464  0.3967 -0.3519
 2700SOL     OW10845   0.735   1.050   4.674  0.2115  0.4845 -0.1823
 2700SOL    HW210846   0.756   0.972   4.624 -1.0325  0.6637 -0.9858
 2700SOL    HW310847   0.646   1.036   4.705 -0.0198  1.5824 -0.3325
 2700SOL    MW410848   0.726   1.038   4.672  0.0169  0.6529 -0.3076
 2701SOL     OW10849   1.593   0.662   4.564  0.1793  0.1451 -0.0301
 2701SOL    HW210850   1.663   0.727   4.557  0.1398  0.2345  0.4320
 2701SOL    HW310851   1.512   0.713   4.567  0.2786  0.1962  2.8210
 2701SOL    MW410852   1.591   0.677   4.563  0.1873  0.1637  0.4072
 2702SOL     OW10853   0.868   0.820   4.524  0.1733 -0.0632 -0.0331
 2702SOL    HW210854   0.825   0.736   4.535 -0.4299  0.0238 -1.5326
 2702SOL    HW310855   0.859   0.840   4.430  0.0286  1.8067  0.3483
 2702SOL    MW410856   0.861   0.812   4.513  0.0746  0.1950 -0.1802
 2703SOL     OW10857   1.303   2.188   4.585  0.3625  0.0451 -0.1531
 2703SOL    HW210858   1.372   2.139   4.540 -0.5870  0.8578 -2.6204
 2703SOL    HW310859   1.331   2.279   4.581 -0.2847  0.2476 -0.1024
 2703SOL    MW410860   1.315   2.193   4.578  0.1519  0.1788 -0.4721
 2704SOL     OW10861   1.510   2.669   4.576 -0.0051 -0.2590 -0.0490
 2704SOL    HW210862   1.565   2.671   4.654  0.8502 -2.0630 -0.5769
 2704SOL    HW310863   1.505   2.760   4.548  0.1437  0.3371  1.7766
 2704SOL    MW410864   1.517   2.682   4.583  0.1273 -0.4184  0.1221
 2705SOL     OW10865   1.525   3.219   4.479  0.0887  0.4317  0.1297
 2705SOL    HW210866   1.621   3.220   4.479  0.1131 -0.9126  0.7788
 2705SOL    HW310867   1.500   3.288   4.540  0.6281  1.1008 -0.3901
 2705SOL    MW410868   1.535   3.228   4.487  0.1632  0.3426  0.1473
 2706SOL     OW10869   0.942   3.560   4.618 -0.1453  0.1472 -0.3586
 2706SOL    HW210870   0.897   3.479   4.644 -0.5567  0.7647  0.8752
 2706SOL    HW310871   0.872   3.621   4.597  0.1716  0.0468 -1.7486
 2706SOL    MW410872   0.927   3.557   4.619 -0.1578  0.2153 -0.3791
 2707SOL     OW10873   0.834   2.927   4.674 -0.7580  0.3319  0.1814
 2707SOL    HW210874   0.738   2.931   4.668 -0.8539 -0.4603  0.9498
 2707SOL    HW310875   0.855   2.834   4.663 -0.1002  0.4661  0.2639
 2707SOL    MW410876   0.824   2.915   4.672 -0.6839  0.2451  0.2937
 2708SOL     OW10877   0.750   3.729   4.502  0.0275  0.4950  0.4871
 2708SOL    HW210878   0.790   3.813   4.524  0.0110  0.4001  0.8729
 2708SOL    HW310879   0.665   3.731   4.544  1.3613 -1.1078  3.4099
 2708SOL    MW410880   0.744   3.741   4.510  0.2013  0.2711  0.9236
 2709SOL     OW10881   1.176   3.320   4.706  0.4960  0.7127  0.3691
 2709SOL    HW210882   1.137   3.237   4.733  1.1312  0.7768  1.5324
 2709SOL    HW310883   1.114   3.356   4.643  1.2975 -1.6724 -1.8497
 2709SOL    MW410884   1.162   3.314   4.701  0.6856  0.4065  0.2298
 2710SOL     OW10885   0.918   3.191   4.591 -0.2784 -0.5260 -0.0924
 2710SOL    HW210886   0.855   3.247   4.637 -0.3148 -0.0893 -0.6654
 2710SOL    HW310887   0.891   3.102   4.613 -1.0724 -0.3388 -0.2970
 2710SOL    MW410888   0.906   3.187   4.600 -0.3880 -0.4437 -0.1945
 2711SOL     OW10889   2.385   3.531   4.695 -0.4302  0.1356  0.0071
 2711SOL    HW210890   2.446   3.489   4.633  0.6761  0.9353  0.5419
 2711SOL    HW310891   2.408   3.624   4.692  0.5185  0.0107  2.5793
 2711SOL    MW410892   2.396   3.537   4.686 -0.1593  0.2244  0.4172
 2712SOL     OW10893   0.725   3.353   4.724  0.2940 -0.4130 -0.0382
 2712SOL    HW210894   0.737   3.334   4.817  0.0069 -2.1939 -0.3311
 2712SOL    HW310895   0.641   3.399   4.719  0.7354  0.4761  0.6651
 2712SOL    MW410896   0.716   3.356   4.736  0.3144 -0.5310  0.0162
 2713SOL     OW10897   0.173   3.470   4.684 -0.2990 -0.4105  0.2513
 2713SOL    HW210898   0.169   3.388   4.634  0.7370 -1.1128  1.3081
 2713SOL    HW310899   0.086   3.480   4.722 -0.7281 -0.4962 -0.6916
 2713SOL    MW410900   0.161   3.461   4.682 -0.2190 -0.5143  0.2661
 2714SOL     OW10901   0.896   4.228   4.625 -0.4039  0.0035 -0.0794
 2714SOL    HW210902   0.901   4.134   4.605 -0.0329  0.1187 -0.5424
 2714SOL    HW310903   0.819   4.236   4.681  0.4521 -0.8009  1.2542
 2714SOL    MW410904   0.887   4.216   4.629 -0.2421 -0.0877  0.0358
 2715SOL     OW10905   0.805   0.061   4.503 -0.7647 -0.2925 -0.2079
 2715SOL    HW210906   0.816   0.085   4.411  1.3937  0.8998  0.3060
 2715SOL    HW310907   0.820  -0.034   4.505 -0.7822 -0.3177 -1.0782
 2715SOL    MW410908   0.809   0.052   4.491 -0.4823 -0.1385 -0.2556
 2716SOL     OW10909   1.211   3.658   4.519  0.0392  0.5594 -0.0555
 2716SOL    HW210910   1.134   3.626   4.565 -0.2842  1.1326 -0.1934
 2716SOL    HW310911   1.185   3.662   4.427 -0.2983  2.2391  0.0831
 2716SOL    MW410912   1.198   3.655   4.513 -0.0478  0.8566 -0.0553
 2717SOL     OW10913   1.688   4.397   4.478  0.2032  0.5463 -0.0065
 2717SOL    HW210914   1.662   4.392   4.386  0.8225  0.4429 -0.1804
 2717SOL    HW310915   1.716   4.488   4.490  0.7808  0.3873 -0.1081
 2717SOL    MW410916   1.688   4.408   4.467  0.3611  0.5116 -0.0429
 2718SOL     OW10917   1.152   4.391   4.537 -0.5065  0.5989  0.1552
 2718SOL    HW210918   1.098   4.332   4.590 -0.2329  0.0462 -0.1807
 2718SOL    HW310919   1.242   4.372   4.563 -0.4640  1.4361  0.6279
 2718SOL    MW410920   1.157   4.381   4.547 -0.4649  0.6366  0.1731
 2719SOL     OW10921   1.116   0.680   4.607  0.0606  0.5520  0.0366
 2719SOL    HW210922   1.083   0.594   4.582  0.3812  0.6478 -0.7658
 2719SOL    HW310923   1.057   0.742   4.563 -1.5892  0.7735  2.5191
 2719SOL    MW410924   1.104   0.677   4.598 -0.1148  0.5938  0.2584
 2720SOL     OW10925   1.784   0.249   4.564 -0.0074 -0.5577  0.4414
 2720SOL    HW210926   1.699   0.287   4.586 -0.1365  0.0727 -1.1222
 2720SOL    HW310927   1.843   0.324   4.558  0.4462 -0.9057  0.5447
 2720SOL    MW410928   1.780   0.264   4.566  0.0353 -0.5205  0.2480
 2721SOL     OW10929   1.364   0.820   4.563 -0.2280  0.3226 -0.0219
 2721SOL    HW210930   1.286   0.766   4.575 -1.9828  2.3673 -1.8047
 2721SOL    HW310931   1.363   0.844   4.470  1.9249  1.2989  0.1698
 2721SOL    MW410932   1.354   0.816   4.552 -0.1755  0.7212 -0.2313
 2722SOL     OW10933   2.106   1.230   4.933  0.3744  0.5269 -0.3330
 2722SOL    HW210934   2.187   1.264   4.896  0.2988  0.2555 -0.7480
 2722SOL    HW310935   2.047   1.306   4.935  0.1677  0.3959 -1.3671
 2722SOL    MW410936   2.109   1.245   4.929  0.3371  0.4739 -0.5236
 2723SOL     OW10937   0.722   0.539   4.527  0.2344  0.6034  0.2431
 2723SOL    HW210938   0.717   0.524   4.432  2.7947  0.9631  0.0015
 2723SOL    HW310939   0.657   0.480   4.564  0.4031 -0.8252 -1.6447
 2723SOL    MW410940   0.713   0.529   4.519  0.5944  0.4623 -0.0377
 2724SOL     OW10941   1.987   0.463   4.543  0.1606 -0.1149 -0.5534
 2724SOL    HW210942   2.076   0.435   4.565 -0.2456 -0.7685  0.2562
 2724SOL    HW310943   1.977   0.547   4.588  0.3020 -0.1304 -0.4918
 2724SOL    MW410944   1.998   0.470   4.552  0.1258 -0.2032 -0.4382
 2725SOL     OW10945   1.424   1.734   4.420 -0.1155 -0.2003 -0.2584
 2725SOL    HW210946   1.410   1.670   4.351  0.2119 -0.7957  0.2234
 2725SOL    HW310947   1.337   1.750   4.456 -0.3182  0.2709 -0.9439
 2725SOL    MW410948   1.411   1.728   4.416 -0.0991 -0.2167 -0.2856
 2726SOL     OW10949   1.674   1.595   4.449 -0.2167  0.0600 -0.2900
 2726SOL    HW210950   1.591   1.643   4.448 -0.3520 -0.1804 -0.6597
 2726SOL    HW310951   1.718   1.622   4.369  1.0762  1.9386  1.0027
 2726SOL    MW410952   1.668   1.605   4.439 -0.0640  0.2761 -0.1688
 2727SOL     OW10953   1.943   2.526   4.613 -0.1141  0.7454 -0.0984
 2727SOL    HW210954   1.876   2.484   4.559  0.0589 -2.3640  1.9916
 2727SOL    HW310955   2.021   2.526   4.558 -0.3858 -0.7829 -0.5004
 2727SOL    MW410956   1.944   2.521   4.599 -0.1273  0.1333  0.1245
 2728SOL     OW10957   1.772   2.350   4.478  0.0602 -0.0035 -0.0373
 2728SOL    HW210958   1.799   2.284   4.541 -0.0607  0.4654  0.5077
 2728SOL    HW310959   1.685   2.378   4.508 -0.0199  0.1791 -0.4378
 2728SOL    MW410960   1.764   2.345   4.490  0.0337  0.0823 -0.0181
 2729SOL     OW10961   0.911   2.675   4.593  0.2303  0.3688  0.2409
 2729SOL    HW210962   0.915   2.580   4.603 -1.3184  0.2388 -0.3751
 2729SOL    HW310963   0.998   2.699   4.560  0.1223 -1.0047 -1.0678
 2729SOL    MW410964   0.923   2.665   4.590  0.0117  0.1705 -0.0134
 2730SOL     OW10965   1.653   3.879   4.601  0.3710  0.6893 -0.2636
 2730SOL    HW210966   1.652   3.783   4.598  0.7895  0.6134  1.4588
 2730SOL    HW310967   1.743   3.902   4.581  0.5106  0.6726  0.3359
 2730SOL    MW410968   1.665   3.869   4.598  0.4445  0.6771  0.0429
 2731SOL     OW10969   1.502   2.409   4.515 -0.0101  0.6930  0.5084
 2731SOL    HW210970   1.460   2.413   4.429 -0.3292  1.0925  0.6819
 2731SOL    HW310971   1.498   2.498   4.548  0.8191  0.6998  0.6062
 2731SOL    MW410972   1.496   2.421   4.508  0.0571  0.7467  0.5445
 2732SOL     OW10973   1.585   2.929   4.485 -0.2670 -0.3233 -0.6437
 2732SOL    HW210974   1.547   3.016   4.496 -0.5157 -0.8097  2.7042
 2732SOL    HW310975   1.678   2.940   4.505 -0.4496 -0.9620  0.6220
 2732SOL    MW410976   1.592   2.942   4.489 -0.3239 -0.4716 -0.0348
 2733SOL     OW10977   1.875   3.433   4.631  0.2228 -0.1190  0.1496
 2733SOL    HW210978   1.969   3.447   4.618  0.5025 -1.5896  0.5671
 2733SOL    HW310979   1.859   3.346   4.596 -0.6172 -0.6780  1.8790
 2733SOL    MW410980   1.885   3.424   4.624  0.1489 -0.3867  0.4325
 2734SOL     OW10981   1.655   3.584   4.558 -0.3560  0.3714 -0.2539
 2734SOL    HW210982   1.597   3.524   4.606  0.0067  1.0016  0.9807
 2734SOL    HW310983   1.743   3.558   4.584 -0.2203  1.9799  0.9370
 2734SOL    MW410984   1.659   3.572   4.568 -0.2903  0.6666  0.0653
 2735SOL     OW10985   4.479   3.855   4.536 -0.1540  0.1320  0.1285
 2735SOL    HW210986   4.428   3.774   4.535 -0.4203  0.2921 -1.1825
 2735SOL    HW310987   4.565   3.829   4.567  0.1539 -0.9159 -1.5398
 2735SOL    MW410988   4.483   3.841   4.540 -0.1478  0.0150 -0.2646
 2736SOL     OW10989   2.235   3.198   4.526 -0.3024 -0.1780 -0.1708
 2736SOL    HW210990   2.200   3.286   4.536  1.0803  0.3584  0.1097
 2736SOL    HW310991   2.241   3.184   4.431 -1.3066 -0.3055 -0.2227
 2736SOL    MW410992   2.231   3.207   4.515 -0.2525 -0.1242 -0.1407
 2737SOL     OW10993   1.801   3.198   4.480  0.7411  0.1784  0.1276
 2737SOL    HW210994   1.807   3.193   4.384  0.6304  0.7384  0.0872
 2737SOL    HW310995   1.835   3.114   4.511  0.0514 -0.3151 -0.4346
 2737SOL    MW410996   1.806   3.187   4.471  0.6355  0.1874  0.0486
 2738SOL     OW10997   3.649   3.288   4.724  0.1711 -0.2774 -0.2571
 2738SOL    HW210998   3.635   3.212   4.668  0.3774 -0.7243  0.2907
 2738SOL    HW310999   3.637   3.255   4.813 -0.6850  0.5437 -0.0544
 2738SOL    MW411000   3.646   3.273   4.728  0.0856 -0.2282 -0.1574
 2739SOL     OW11001   1.236   3.948   4.557 -0.4684  0.1629  0.1041
 2739SOL    HW211002   1.261   3.856   4.567 -0.1519  0.1829 -0.4654
 2739SOL    HW311003   1.316   3.997   4.574 -0.7451  0.3578  0.8515
 2739SOL    MW411004   1.250   3.943   4.560 -0.4631  0.1915  0.1278
 2740SOL     OW11005   2.105   4.504   4.620  0.3909 -0.0067  0.1130
 2740SOL    HW211006   2.167   4.439   4.653  0.2755  0.0329  0.4052
 2740SOL    HW311007   2.159   4.581   4.601  0.7677 -0.6716 -1.6445
 2740SOL    MW411008   2.120   4.505   4.621  0.4256 -0.0887 -0.0801
 2741SOL     OW11009   2.551   4.611   4.590 -0.1556 -0.2316  0.5092
 2741SOL    HW211010   2.546   4.518   4.614 -1.9671 -0.4807 -0.7183
 2741SOL    HW311011   2.632   4.619   4.541 -0.0526 -1.1981  0.5158
 2741SOL    MW411012   2.561   4.600   4.587 -0.3812 -0.3920  0.3481
 2742SOL     OW11013   1.236   4.650   4.544  0.0751 -0.8834  0.1883
 2742SOL    HW211014   1.304   4.632   4.609  0.5439 -1.0036 -0.3302
 2742SOL    HW311015   1.186   4.569   4.538  0.6765 -1.2191 -0.3586
 2742SOL    MW411016   1.238   4.637   4.551  0.2164 -0.9432  0.0486
 2743SOL     OW11017   2.240   0.337   4.608 -0.3573 -0.3756  0.3997
 2743SOL    HW211018   2.255   0.242   4.607  1.0254 -0.1693  0.0283
 2743SOL    HW311019   2.325   0.374   4.586 -1.2139  0.9274 -0.7699
 2743SOL    MW411020   2.253   0.329   4.605 -0.2880 -0.1765  0.1965
 2744SOL     OW11021   2.294   0.053   4.588  0.3259 -0.0972  0.0480
 2744SOL    HW211022   2.283   0.071   4.494 -1.1809 -1.6066 -0.0995
 2744SOL    HW311023   2.383   0.020   4.595  0.5693  0.3423 -0.8029
 2744SOL    MW411024   2.304   0.051   4.576  0.1593 -0.2384 -0.0834
 2745SOL     OW11025   1.993   0.715   4.655  0.0182 -0.1605  0.0066
 2745SOL    HW211026   1.919   0.767   4.623  0.6059  1.2289  0.8548
 2745SOL    HW311027   2.004   0.744   4.746  1.2121 -0.7967  0.0694
 2745SOL    MW411028   1.985   0.726   4.663  0.2532 -0.0612  0.1268
 2746SOL     OW11029   1.552   0.418   4.684  0.4915 -0.0456 -0.3630
 2746SOL    HW211030   1.462   0.434   4.714  0.0116 -1.2762 -1.1060
 2746SOL    HW311031   1.583   0.504   4.653  0.3756  0.8754  1.9376
 2746SOL    MW411032   1.544   0.432   4.684  0.4128 -0.0865 -0.1578
 2747SOL     OW11033   2.168   1.975   4.645  0.2126 -0.2338 -0.1673
 2747SOL    HW211034   2.148   2.055   4.597  0.4472 -0.0185  0.0966
 2747SOL    HW311035   2.082   1.943   4.674  0.1670  0.2340  0.2287
 2747SOL    MW411036   2.154   1.981   4.643  0.2377 -0.1436 -0.0801
 2748SOL     OW11037   1.075   2.070   4.471  0.2177  0.0629 -0.2614
 2748SOL    HW211038   1.093   1.977   4.488  0.8231  0.0552 -0.9317
 2748SOL    HW311039   1.148   2.116   4.512  0.7560  0.1461 -1.2958
 2748SOL    MW411040   1.087   2.064   4.479  0.3687  0.0730 -0.4869
 2749SOL     OW11041   1.742   1.374   4.617 -0.1632 -0.0774  0.0768
 2749SOL    HW211042   1.697   1.442   4.567  1.4246  1.6426  0.9281
 2749SOL    HW311043   1.756   1.413   4.703 -1.0131 -2.2351  1.2208
 2749SOL    MW411044   1.738   1.388   4.622 -0.0657 -0.1351  0.3400
 2750SOL     OW11045   1.172   1.814   4.542  0.3211  0.3991  0.0205
 2750SOL    HW211046   1.088   1.772   4.521  0.7345 -1.1963  1.4428
 2750SOL    HW311047   1.164   1.839   4.634  1.3363  0.4099  0.1079
 2750SOL    MW411048   1.160   1.812   4.551  0.5096  0.1900  0.2198
 2751SOL     OW11049   1.986   1.269   4.537 -0.3032 -0.5522  0.0165
 2751SOL    HW211050   1.981   1.268   4.441 -1.0912 -0.2072  0.0511
 2751SOL    HW311051   1.902   1.305   4.565  0.2521  0.1584  0.8065
 2751SOL    MW411052   1.974   1.274   4.528 -0.3340 -0.4129  0.1249
 2752SOL     OW11053   1.517   2.012   4.510  0.3253  0.2872 -0.3013
 2752SOL    HW211054   1.499   1.918   4.508 -1.5332  0.6301 -0.9504
 2752SOL    HW311055   1.577   2.024   4.583  0.4915 -1.3828 -0.1480
 2752SOL    MW411056   1.523   2.001   4.519  0.1020  0.1123 -0.3662
 2753SOL     OW11057   1.591   1.822   4.890 -0.3184 -0.3615 -0.1171
 2753SOL    HW211058   1.495   1.829   4.892 -0.3641 -0.5741 -1.2924
 2753SOL    HW311059   1.619   1.899   4.840 -0.0086 -1.3858 -1.5457
 2753SOL    MW411060   1.582   1.833   4.883 -0.2835 -0.5246 -0.4601
 2754SOL     OW11061   1.808   2.723   4.752  0.0653 -0.3528  0.0271
 2754SOL    HW211062   1.849   2.655   4.698 -0.0993 -0.3573 -0.0900
 2754SOL    HW311063   1.841   2.705   4.840  0.9041  0.0887 -0.1899
 2754SOL    MW411064   1.818   2.711   4.756  0.1543 -0.2952 -0.0167
 2755SOL     OW11065   2.723   3.220   4.546 -0.1085  0.4679  0.2308
 2755SOL    HW211066   2.646   3.169   4.568  0.6609 -0.3068  1.1956
 2755SOL    HW311067   2.720   3.230   4.451 -1.6067  0.8071  0.3100
 2755SOL    MW411068   2.713   3.215   4.537 -0.2048  0.4106  0.3686
 2756SOL     OW11069   1.455   4.091   4.683  0.2428 -0.2919  0.0279
 2756SOL    HW211070   1.461   4.085   4.778  0.6007  0.6398  0.0616
 2756SOL    HW311071   1.510   4.019   4.651  0.4289 -0.3616  0.5085
 2756SOL    MW411072   1.463   4.080   4.691  0.3146 -0.1779  0.0954
 2757SOL     OW11073   2.107   2.895   4.468  0.3203 -0.8886 -0.5816
 2757SOL    HW211074   2.154   2.974   4.496 -0.4706 -0.9711  0.9811
 2757SOL    HW311075   2.147   2.824   4.518  0.9722 -1.4979 -1.9249
 2757SOL    MW411076   2.119   2.896   4.478  0.3016 -0.9799 -0.5531
 2758SOL     OW11077   2.148   3.473   4.554  0.4996  0.3229 -0.3921
 2758SOL    HW211078   2.220   3.498   4.611 -0.1983  1.4311  0.0200
 2758SOL    HW311079   2.160   3.526   4.475  0.5056  0.0224 -0.5965
 2758SOL    MW411080   2.159   3.483   4.551  0.4082  0.4296 -0.3648
 2759SOL     OW11081   2.618   3.490   4.525  0.1575  0.1829 -0.5971
 2759SOL    HW211082   2.639   3.397   4.538 -1.1217 -0.0037  0.1578
 2759SOL    HW311083   2.703   3.534   4.531  0.4650 -0.6450  1.7781
 2759SOL    MW411084   2.632   3.484   4.528  0.0293  0.0494 -0.1841
 2760SOL     OW11085   1.967   4.321   4.488 -0.1404 -0.1997 -0.1241
 2760SOL    HW211086   2.015   4.392   4.531  1.1126 -0.3660 -1.2085
 2760SOL    HW311087   1.876   4.334   4.513  0.0448  1.9272 -0.4874
 2760SOL    MW411088   1.962   4.332   4.497  0.0495  0.0591 -0.3152
 2761SOL     OW11089   2.218   3.977   4.541  0.3804  0.0873 -0.2840
 2761SOL    HW211090   2.243   3.977   4.449 -0.2133  0.6823 -0.4527
 2761SOL    HW311091   2.129   3.942   4.542 -0.3378  1.8418 -0.1599
 2761SOL    MW411092   2.209   3.972   4.529  0.2074  0.3972 -0.2904
 2762SOL     OW11093   1.935   3.967   4.536  0.4900  0.6701  0.0400
 2762SOL    HW211094   1.907   3.972   4.445 -0.6121  0.3474  0.3517
 2762SOL    HW311095   1.951   4.057   4.562  0.3078  0.8059 -0.3190
 2762SOL    MW411096   1.933   3.979   4.527  0.3206  0.6456  0.0339
 2763SOL     OW11097   2.422   3.805   4.648  0.1071 -0.1152 -0.4044
 2763SOL    HW211098   2.355   3.874   4.649 -0.0940 -0.3172  1.4829
 2763SOL    HW311099   2.504   3.853   4.635 -0.2622  0.2640 -1.3753
 2763SOL    MW411100   2.424   3.821   4.647  0.0322 -0.0918 -0.2837
 2764SOL     OW11101   1.840   4.643   4.527  0.0933 -0.4708  0.3552
 2764SOL    HW211102   1.810   4.728   4.560  0.0620 -0.3352 -0.0284
 2764SOL    HW311103   1.917   4.623   4.580 -0.4833 -0.6747  1.1363
 2764SOL    MW411104   1.846   4.652   4.538  0.0130 -0.4797  0.4077
 2765SOL     OW11105   3.042   4.325   4.562  0.1206 -0.1412  0.2222
 2765SOL    HW211106   3.031   4.416   4.591 -0.0860  0.3445 -1.3646
 2765SOL    HW311107   2.961   4.282   4.590  0.4236  0.0401  1.4086
 2765SOL    MW411108   3.030   4.331   4.570  0.1333 -0.0529  0.1693
 2766SOL     OW11109   2.555   4.335   4.566 -0.1748 -0.4223 -0.3733
 2766SOL    HW211110   2.464   4.308   4.579 -0.0363 -0.3035  0.8839
 2766SOL    HW311111   2.563   4.348   4.472 -0.8928 -2.4565 -0.7336
 2766SOL    MW411112   2.544   4.333   4.555 -0.2513 -0.6752 -0.2551
 2767SOL     OW11113   1.353   2.032   4.833 -0.0080  0.3200  0.3877
 2767SOL    HW211114   1.317   2.081   4.759  0.4492 -0.3497 -0.2860
 2767SOL    HW311115   1.447   2.050   4.829  0.2071 -0.9202 -0.0863
 2767SOL    MW411116   1.361   2.041   4.823  0.0808  0.0679  0.2365
 2768SOL     OW11117   3.015   4.595   4.616  0.1224 -0.3059 -0.0240
 2768SOL    HW211118   3.087   4.655   4.595  0.1364  0.0650  1.0882
 2768SOL    HW311119   2.936   4.641   4.587  0.0270  0.7592  1.8755
 2768SOL    MW411120   3.014   4.609   4.609  0.1118 -0.1163  0.3738
 2769SOL     OW11121   2.483   0.734   4.638  0.6044  0.1242 -0.1226
 2769SOL    HW211122   2.482   0.707   4.730  0.9814  0.5576  0.0157
 2769SOL    HW311123   2.391   0.749   4.616  0.5840  0.8804  0.4492
 2769SOL    MW411124   2.471   0.733   4.647  0.6516  0.2810 -0.0291
 2770SOL     OW11125   2.953   0.499   4.550  0.2944  0.2577  0.4049
 2770SOL    HW211126   2.934   0.588   4.581  0.8059 -0.1429  1.8661
 2770SOL    HW311127   2.964   0.509   4.455  1.1030  1.8749  0.6558
 2770SOL    MW411128   2.952   0.512   4.542  0.4687  0.4182  0.6304
 2771SOL     OW11129   2.225   1.433   4.475  0.1767 -0.0835  0.8070
 2771SOL    HW211130   2.296   1.423   4.538  1.1176  0.9475 -0.0682
 2771SOL    HW311131   2.165   1.362   4.496  0.2179  0.5283  3.1640
 2771SOL    MW411132   2.226   1.422   4.486  0.3061  0.1332  1.0023
 2772SOL     OW11133   2.547   1.465   4.460 -0.2995 -0.0129 -0.3080
 2772SOL    HW211134   2.635   1.456   4.496 -0.9339  0.2887  1.3416
 2772SOL    HW311135   2.538   1.559   4.443 -0.9670  0.2349  1.2975
 2772SOL    MW411136   2.557   1.476   4.463 -0.4714  0.0596  0.1211
 2773SOL     OW11137   2.846   1.780   4.903  0.3564  0.2922 -0.2522
 2773SOL    HW211138   2.798   1.700   4.882  0.6068 -0.2189  1.0286
 2773SOL    HW311139   2.879   1.765   4.992  0.0119  2.0101  0.1858
 2773SOL    MW411140   2.844   1.767   4.912  0.3438  0.4513 -0.0248
 2774SOL     OW11141   2.211   2.432   4.472  0.2455 -0.4182 -0.3752
 2774SOL    HW211142   2.218   2.437   4.376  0.9832 -0.6774 -0.3382
 2774SOL    HW311143   2.169   2.347   4.488 -3.2662  1.1840 -0.5979
 2774SOL    MW411144   2.206   2.421   4.461 -0.1204 -0.2410 -0.3996
 2775SOL     OW11145   2.094   2.185   4.491  0.0976 -0.0039  0.0714
 2775SOL    HW211146   2.055   2.140   4.416  0.0479 -0.0883  0.1478
 2775SOL    HW311147   2.021   2.199   4.551  0.3029 -0.7152  0.4869
 2775SOL    MW411148   2.080   2.181   4.489  0.1180 -0.1090  0.1364
 2776SOL     OW11149   2.459   1.934   4.626  0.2840  0.2192  0.1759
 2776SOL    HW211150   2.475   1.860   4.685 -0.3951  0.0063  0.0960
 2776SOL    HW311151   2.364   1.947   4.629  0.1660 -0.1706 -1.3260
 2776SOL    MW411152   2.448   1.926   4.634  0.1788  0.1395 -0.0334
 2777SOL     OW11153   2.705   2.480   4.540 -0.3018 -0.1769  0.1780
 2777SOL    HW211154   2.742   2.396   4.564 -0.1699 -0.0815  0.3124
 2777SOL    HW311155   2.616   2.480   4.576 -0.1964 -0.1382  0.4427
 2777SOL    MW411156   2.698   2.469   4.548 -0.2704 -0.1590  0.2303
 2778SOL     OW11157   2.009   2.582   4.893 -0.2222  0.0074  0.0969
 2778SOL    HW211158   1.983   2.499   4.934 -1.9391  0.1355 -0.7111
 2778SOL    HW311159   1.996   2.568   4.800  1.7779  0.3991 -0.2608
 2778SOL    MW411160   2.004   2.569   4.886 -0.1848  0.0761 -0.0567
 2779SOL     OW11161   1.854   2.929   4.561  0.4298  0.1090 -0.0119
 2779SOL    HW211162   1.836   2.876   4.638 -0.0570  0.2629 -0.0171
 2779SOL    HW311163   1.944   2.906   4.535  0.2087 -0.7195 -0.0263
 2779SOL    MW411164   1.864   2.919   4.568  0.3363  0.0200 -0.0148
 2780SOL     OW11165   2.309   2.600   4.842 -0.1427 -0.3080  0.7982
 2780SOL    HW211166   2.342   2.510   4.842  0.8129  0.0299  1.6240
 2780SOL    HW311167   2.215   2.591   4.858 -0.0676 -1.1677  0.7938
 2780SOL    MW411168   2.301   2.587   4.844 -0.0069 -0.3769  0.9065
 2781SOL     OW11169   3.000   3.342   4.639 -0.0738 -0.2622  0.1429
 2781SOL    HW211170   3.035   3.253   4.641 -0.7870 -0.5386  0.7378
 2781SOL    HW311171   2.922   3.336   4.585 -0.0603  0.0277  0.0897
 2781SOL    MW411172   2.994   3.329   4.632 -0.1664 -0.2601  0.2146
 2782SOL     OW11173   0.925   3.960   4.558  0.9946  0.1623  0.4253
 2782SOL    HW211174   0.923   3.981   4.465 -1.1893  0.0995  0.4296
 2782SOL    HW311175   1.017   3.969   4.583  1.9744 -1.9249 -2.2167
 2782SOL    MW411176   0.937   3.964   4.549  0.8357 -0.1214  0.0772
 2783SOL     OW11177   2.834   3.547   4.795 -0.0050  0.1186  0.0010
 2783SOL    HW211178   2.746   3.515   4.817  1.1146 -0.6764  3.6941
 2783SOL    HW311179   2.889   3.469   4.795  0.9633  0.7852 -0.9368
 2783SOL    MW411180   2.829   3.533   4.798  0.2704  0.1018  0.3643
 2784SOL     OW11181   2.581   3.503   4.879  0.0354 -0.1171  0.1546
 2784SOL    HW211182   2.548   3.485   4.967 -0.1034 -1.5240 -0.1785
 2784SOL    HW311183   2.502   3.512   4.826  0.1286  0.3419  0.0902
 2784SOL    MW411184   2.566   3.502   4.884  0.0293 -0.2422  0.1025
 2785SOL     OW11185   3.097   3.725   4.747 -0.8803 -0.4280 -0.2560
 2785SOL    HW211186   3.146   3.652   4.710 -0.2582 -0.6240  0.9508
 2785SOL    HW311187   3.029   3.684   4.801  0.1294 -0.1138  1.2719
 2785SOL    MW411188   3.094   3.710   4.749 -0.6647 -0.4125  0.1054
 2786SOL     OW11189   3.222   3.511   4.601  0.1217  0.2770  0.0361
 2786SOL    HW211190   3.161   3.438   4.607 -0.2895  0.6992  1.1555
 2786SOL    HW311191   3.309   3.470   4.605 -0.0771 -0.2976 -1.2445
 2786SOL    MW411192   3.226   3.496   4.602  0.0412  0.2570  0.0153
 2787SOL     OW11193   2.290   4.260   4.547  0.1041 -0.1302 -0.1633
 2787SOL    HW211194   2.275   4.267   4.452  1.5304  0.7574 -0.3414
 2787SOL    HW311195   2.268   4.170   4.568 -2.4334  0.2715 -0.9274
 2787SOL    MW411196   2.285   4.249   4.537 -0.0424  0.0405 -0.2875
 2788SOL     OW11197   2.791   3.982   4.561 -0.7966 -0.4270 -0.4193
 2788SOL    HW211198   2.887   3.985   4.562 -0.8379  1.0217 -0.7898
 2788SOL    HW311199   2.767   3.986   4.469 -1.2193 -0.9711 -0.3387
 2788SOL    MW411200   2.801   3.983   4.549 -0.8581 -0.3076 -0.4578
 2789SOL     OW11201   2.915   0.170   4.774  0.0817  0.0688  0.1841
 2789SOL    HW211202   2.995   0.223   4.766  0.7306 -0.8186  0.7109
 2789SOL    HW311203   2.946   0.086   4.806 -0.8915 -0.7683 -1.0188
 2789SOL    MW411204   2.930   0.166   4.777  0.0389 -0.1587  0.0949
 2790SOL     OW11205   2.815   0.059   4.477 -0.0925  0.3188 -0.2724
 2790SOL    HW211206   2.792   0.145   4.512  0.5229  0.4229 -0.1249
 2790SOL    HW311207   2.794   0.065   4.383 -0.4756  0.4781 -0.1774
 2790SOL    MW411208   2.809   0.071   4.469 -0.0620  0.3536 -0.2398
 2791SOL     OW11209   3.241   0.085   4.569  0.0547 -0.0618  0.3570
 2791SOL    HW211210   3.205   0.167   4.604  0.8111  0.4526 -0.0459
 2791SOL    HW311211   3.329   0.081   4.606 -0.1655 -0.9504  0.7761
 2791SOL    MW411212   3.248   0.095   4.578  0.1252 -0.1112  0.3586
 2792SOL     OW11213   2.686   0.923   4.577  0.4318  0.4317  0.0857
 2792SOL    HW211214   2.608   0.870   4.593 -0.3218  1.7258  0.9056
 2792SOL    HW311215   2.698   0.922   4.482 -0.7141  0.3813 -0.0601
 2792SOL    MW411216   2.677   0.916   4.567  0.1814  0.5959  0.1750
 2793SOL     OW11217   3.500   0.591   4.906  0.2626  0.1939  0.0487
 2793SOL    HW211218   3.475   0.513   4.955  0.7209  0.2083  0.3067
 2793SOL    HW311219   3.590   0.575   4.880  0.2139  0.4476 -0.2792
 2793SOL    MW411220   3.508   0.579   4.909  0.3166  0.2292  0.0396
 2794SOL     OW11221   2.229   0.844   4.565  0.2750  0.0171  0.2016
 2794SOL    HW211222   2.213   0.927   4.610 -0.9056  0.8961 -1.7845
 2794SOL    HW311223   2.148   0.794   4.577 -0.0002  0.2041 -0.7877
 2794SOL    MW411224   2.216   0.849   4.572  0.0827  0.1577 -0.1912
 2795SOL     OW11225   2.947   0.783   4.667 -0.3725 -0.3676  0.0792
 2795SOL    HW211226   2.950   0.751   4.757  1.1091  0.4978  0.3487
 2795SOL    HW311227   2.877   0.848   4.667  1.1270  1.2712  1.1692
 2795SOL    MW411228   2.938   0.787   4.679  0.0207 -0.0373  0.2589
 2796SOL     OW11229   3.013   1.257   4.574  0.3842  0.1651  0.2175
 2796SOL    HW211230   2.961   1.335   4.597 -0.2761 -0.0831 -0.4204
 2796SOL    HW311231   2.995   1.242   4.482  0.5465 -0.7262  0.3250
 2796SOL    MW411232   3.004   1.266   4.565  0.3188  0.0147  0.1469
 2797SOL     OW11233   2.795   1.496   4.571 -0.1508 -0.2179 -0.2007
 2797SOL    HW211234   2.798   1.585   4.536 -0.7914  0.1944  0.7448
 2797SOL    HW311235   2.774   1.508   4.664 -2.1314 -1.4375 -0.4537
 2797SOL    MW411236   2.793   1.510   4.579 -0.4966 -0.3245 -0.1092
 2798SOL     OW11237   2.537   1.743   4.442 -0.0695 -0.1160  0.5279
 2798SOL    HW211238   2.504   1.811   4.501  0.0755 -0.0991  0.5898
 2798SOL    HW311239   2.463   1.722   4.386 -0.6437 -1.1560  1.6549
 2798SOL    MW411240   2.523   1.749   4.443 -0.1264 -0.2509  0.6852
 2799SOL     OW11241   2.561   2.149   4.462  0.4757  0.3577  0.0642
 2799SOL    HW211242   2.519   2.230   4.490 -0.6602 -0.0257 -0.5222
 2799SOL    HW311243   2.521   2.081   4.515 -0.8838 -0.2282 -1.6711
 2799SOL    MW411244   2.550   2.151   4.473  0.1466  0.2301 -0.2422
 2800SOL     OW11245   2.815   1.754   4.459  0.3511  0.0961 -0.1374
 2800SOL    HW211246   2.724   1.776   4.480  0.5148 -0.8317  1.6922
 2800SOL    HW311247   2.811   1.711   4.374 -0.6905  1.7268 -0.9150
 2800SOL    MW411248   2.803   1.751   4.451  0.2348  0.1888  0.0019
 2801SOL     OW11249   2.820   2.200   4.603  0.3060 -0.0043 -0.1164
 2801SOL    HW211250   2.753   2.176   4.539  0.9569  1.9151 -1.5723
 2801SOL    HW311251   2.901   2.161   4.568  0.0503 -2.0411  1.4683
 2801SOL    MW411252   2.822   2.192   4.590  0.3583 -0.0196 -0.0987
 2802SOL     OW11253   2.233   2.692   4.610  0.1807  0.0991 -0.0155
 2802SOL    HW211254   2.234   2.604   4.572  0.2385 -0.3088  0.9253
 2802SOL    HW311255   2.261   2.680   4.700  0.6086  1.1453  0.0046
 2802SOL    MW411256   2.237   2.679   4.617  0.2449  0.1836  0.1116
 2803SOL     OW11257   2.461   2.380   4.591  0.1613  0.2976  0.2286
 2803SOL    HW211258   2.434   2.361   4.681  0.2888 -0.1641  0.1697
 2803SOL    HW311259   2.381   2.409   4.547  0.0520  0.2961  0.4292
 2803SOL    MW411260   2.447   2.381   4.597  0.1640  0.2365  0.2475
 2804SOL     OW11261   2.510   3.075   4.652 -0.0956  0.1410  0.4270
 2804SOL    HW211262   2.503   3.019   4.730 -0.1809  0.5573  0.7209
 2804SOL    HW311263   2.421   3.109   4.639 -0.5230 -1.4519 -0.9982
 2804SOL    MW411264   2.497   3.072   4.661 -0.1631 -0.0143  0.2780
 2805SOL     OW11265   2.466   2.819   4.501  0.2905 -0.0328  0.1291
 2805SOL    HW211266   2.453   2.905   4.540 -1.6583  0.2405 -1.0917
 2805SOL    HW311267   2.389   2.768   4.527  0.1945 -0.6204 -1.2297
 2805SOL    MW411268   2.454   2.824   4.510  0.0205 -0.0741 -0.2112
 2806SOL     OW11269   2.699   2.752   4.621  0.2157 -0.6017  0.2205
 2806SOL    HW211270   2.612   2.756   4.582  1.1101 -1.1683 -1.8945
 2806SOL    HW311271   2.736   2.670   4.590  1.8516  0.0551  0.3701
 2806SOL    MW411272   2.692   2.742   4.612  0.5496 -0.5898 -0.0386
 2807SOL     OW11273   3.137   3.074   4.572  0.2545  0.0572  0.1872
 2807SOL    HW211274   3.159   3.099   4.482 -0.8435 -0.0946 -0.1231
 2807SOL    HW311275   3.055   3.027   4.564  1.0557 -1.5056  1.0755
 2807SOL    MW411276   3.129   3.071   4.559  0.2155 -0.1690  0.2637
 2808SOL     OW11277   3.554   3.520   4.608  0.0029 -0.2067  0.2838
 2808SOL    HW211278   3.575   3.434   4.643 -1.7232 -0.1414  1.5346
 2808SOL    HW311279   3.608   3.581   4.660 -0.2423 -0.3681  0.7265
 2808SOL    MW411280   3.564   3.517   4.620 -0.2570 -0.2193  0.5069
 2809SOL     OW11281   3.513   4.067   4.587 -0.3303 -0.4124 -0.0189
 2809SOL    HW211282   3.474   3.981   4.604 -0.9804  0.1445  1.3934
 2809SOL    HW311283   3.443   4.130   4.606  0.5059  0.4851  0.1677
 2809SOL    MW411284   3.499   4.064   4.592 -0.3057 -0.2203  0.1922
 2810SOL     OW11285   3.377   2.946   4.652  0.2632  0.1811  0.0001
 2810SOL    HW211286   3.288   2.978   4.636 -0.2664 -0.8467  0.8217
 2810SOL    HW311287   3.373   2.853   4.630  1.3626  0.3021 -0.7697
 2810SOL    MW411288   3.364   2.938   4.647  0.3383  0.0615  0.0067
 2811SOL     OW11289   2.819   3.711   4.554 -0.1425 -0.0380 -0.0441
 2811SOL    HW211290   2.848   3.689   4.642 -0.6150  0.0197  0.1302
 2811SOL    HW311291   2.799   3.805   4.557 -0.4320 -0.0943 -0.1320
 2811SOL    MW411292   2.820   3.720   4.566 -0.2429 -0.0379 -0.0324
 2812SOL     OW11293   3.079   3.951   4.563 -0.6350  0.1910  0.2682
 2812SOL    HW211294   3.133   4.015   4.610 -0.2220 -0.5289  0.7658
 2812SOL    HW311295   3.081   3.872   4.616  1.0111 -1.1135 -1.6544
 2812SOL    MW411296   3.086   3.949   4.576 -0.3633 -0.0763  0.0801
 2813SOL     OW11297   3.390   0.449   4.593 -0.3798  0.1566  0.5082
 2813SOL    HW211298   3.415   0.457   4.501  1.2844 -1.7187  0.7522
 2813SOL    HW311299   3.393   0.538   4.627  0.2014  0.7179 -0.9668
 2813SOL    MW411300   3.394   0.462   4.585 -0.0837 -0.0167  0.3457
 2814SOL     OW11301   2.487   0.446   4.544  0.0581 -0.0304  0.5155
 2814SOL    HW211302   2.574   0.414   4.567 -0.6841 -0.6731  2.5291
 2814SOL    HW311303   2.478   0.529   4.591  0.0123  0.6179 -0.6137
 2814SOL    MW411304   2.497   0.453   4.553 -0.0458 -0.0296  0.6313
 2815SOL     OW11305   2.761   1.151   4.715  0.0796 -0.3895 -0.1851
 2815SOL    HW211306   2.738   1.075   4.662  0.5035 -1.0360  0.5481
 2815SOL    HW311307   2.842   1.184   4.676 -0.3912  0.0160 -0.8336
 2815SOL    MW411308   2.769   1.146   4.703  0.0732 -0.4213 -0.1740
 2816SOL     OW11309   2.751   0.312   4.588  0.0487  0.0081 -0.0298
 2816SOL    HW211310   2.782   0.268   4.666 -1.7237  0.0712  0.7433
 2816SOL    HW311311   2.819   0.376   4.567  0.3870  0.2152  1.6433
 2816SOL    MW411312   2.764   0.314   4.595 -0.1407  0.0437  0.2928
 2817SOL     OW11313   3.389   0.727   4.700  0.1525  0.4824  0.6725
 2817SOL    HW211314   3.465   0.755   4.648 -0.1954 -0.8892 -0.6136
 2817SOL    HW311315   3.426   0.705   4.786  1.2229 -0.1508  0.0640
 2817SOL    MW411316   3.404   0.728   4.705  0.2477  0.2179  0.4225
 2818SOL     OW11317   3.401   1.496   4.536  0.2259  0.2457  0.2099
 2818SOL    HW211318   3.365   1.408   4.530  1.2957 -0.0919 -1.9318
 2818SOL    HW311319   3.325   1.554   4.530 -0.2408 -0.4980 -1.2039
 2818SOL    MW411320   3.387   1.492   4.534  0.3057  0.1030 -0.2594
 2819SOL     OW11321   2.996   1.822   4.661 -0.6218  0.8014 -0.2570
 2819SOL    HW211322   2.933   1.795   4.595 -1.0006 -0.8173  0.7451
 2819SOL    HW311323   2.954   1.802   4.745  0.8475  0.5434  0.4409
 2819SOL    MW411324   2.982   1.816   4.664 -0.4778  0.5537 -0.0324
 2820SOL     OW11325   4.248   1.432   4.698  0.0628 -0.2185 -0.1711
 2820SOL    HW211326   4.258   1.387   4.781  0.5212  0.1169 -0.0409
 2820SOL    HW311327   4.263   1.364   4.632  0.0093 -0.4168  0.0201
 2820SOL    MW411328   4.251   1.417   4.700  0.1159 -0.2004 -0.1287
 2821SOL     OW11329   3.651   1.607   4.512  0.0365  0.2901  0.4852
 2821SOL    HW211330   3.568   1.568   4.541 -0.6800  0.3005 -1.5100
 2821SOL    HW311331   3.715   1.578   4.577 -1.5177  0.2456  2.0349
 2821SOL    MW411332   3.648   1.598   4.525 -0.2632  0.2856  0.4258
 2822SOL     OW11333   3.208   1.741   4.504  0.1428 -0.0744 -0.0508
 2822SOL    HW211334   3.235   1.833   4.507 -3.1821  0.9879 -1.1997
 2822SOL    HW311335   3.138   1.735   4.569  0.7986 -1.9943  0.5096
 2822SOL    MW411336   3.203   1.752   4.513 -0.2091 -0.1875 -0.1287
 2823SOL     OW11337   3.307   1.989   4.484  0.5029  0.1591 -0.2551
 2823SOL    HW211338   3.336   2.003   4.394  1.4535  0.3609  0.0743
 2823SOL    HW311339   3.217   2.023   4.486  0.3956 -0.0489 -1.1734
 2823SOL    MW411340   3.299   1.995   4.472  0.6142  0.1582 -0.3328
 2824SOL     OW11341   4.056   1.790   4.548 -0.0194 -0.4950 -0.1245
 2824SOL    HW211342   4.136   1.839   4.532  0.0657 -0.9919 -1.2327
 2824SOL    HW311343   3.986   1.852   4.530  0.1076 -0.3176 -0.0053
 2824SOL    MW411344   4.057   1.804   4.543  0.0086 -0.5370 -0.2551
 2825SOL     OW11345   2.535   2.870   4.851  0.0439 -0.2053  0.0935
 2825SOL    HW211346   2.487   2.797   4.889 -2.2586  0.4759 -1.4057
 2825SOL    HW311347   2.616   2.831   4.818 -0.9260 -1.9768 -0.2424
 2825SOL    MW411348   2.539   2.855   4.852 -0.3879 -0.3490 -0.1483
 2826SOL     OW11349   3.502   2.374   4.496 -0.4456 -0.3481  0.1261
 2826SOL    HW211350   3.537   2.454   4.535  0.1539 -0.7435  0.4016
 2826SOL    HW311351   3.410   2.394   4.480 -0.0315  0.8007 -0.8854
 2826SOL    MW411352   3.494   2.387   4.499 -0.3119 -0.2489  0.0296
 2827SOL     OW11353   3.230   2.378   4.451 -0.1591  0.1535 -0.1112
 2827SOL    HW211354   3.196   2.410   4.367 -0.7325 -0.1936 -0.0062
 2827SOL    HW311355   3.185   2.296   4.466  1.4162 -0.7871 -0.4296
 2827SOL    MW411356   3.220   2.372   4.442 -0.0269 -0.0165 -0.1392
 2828SOL     OW11357   3.868   2.478   4.693  0.0793  0.1308 -0.1119
 2828SOL    HW211358   3.882   2.559   4.742 -1.1452  0.3668 -0.1242
 2828SOL    HW311359   3.794   2.498   4.635 -0.0850 -0.9222 -0.2748
 2828SOL    MW411360   3.860   2.491   4.692 -0.1040  0.0231 -0.1349
 2829SOL     OW11361   2.879   2.989   4.532  0.3037  0.4945  0.5458
 2829SOL    HW211362   2.835   2.922   4.585 -0.1434  0.0596 -0.3543
 2829SOL    HW311363   2.820   3.064   4.533 -1.5130 -0.7806 -2.3214
 2829SOL    MW411364   2.865   2.990   4.539  0.0052  0.2687  0.0486
 2830SOL     OW11365   3.637   2.637   4.558 -0.2495  0.1927 -0.0483
 2830SOL    HW211366   3.697   2.711   4.561 -0.2103  0.1878 -0.7145
 2830SOL    HW311367   3.550   2.676   4.547 -0.2254  0.1387 -0.4320
 2830SOL    MW411368   3.633   2.652   4.557 -0.2410  0.1850 -0.1874
 2831SOL     OW11369   4.282   1.954   4.536  0.1160 -0.1409  0.0500
 2831SOL    HW211370   4.231   2.020   4.582  0.9669 -0.2715  1.2073
 2831SOL    HW311371   4.373   1.980   4.550  0.3962  0.9444 -3.2448
 2831SOL    MW411372   4.287   1.966   4.544  0.2656 -0.0150 -0.2322
 2832SOL     OW11373   3.919   3.388   4.695  0.2611 -0.4763 -0.4336
 2832SOL    HW211374   3.957   3.311   4.653  1.2275 -1.1854  1.6900
 2832SOL    HW311375   3.828   3.364   4.713  0.1953 -0.6275 -0.9465
 2832SOL    MW411376   3.912   3.375   4.692  0.3800 -0.5898 -0.2208
 2833SOL     OW11377   3.392   3.783   4.577 -0.5883 -0.4077 -0.3369
 2833SOL    HW211378   3.328   3.752   4.512 -0.6141  0.2164 -0.6130
 2833SOL    HW311379   3.437   3.703   4.605 -0.8801 -0.7425 -0.7932
 2833SOL    MW411380   3.389   3.768   4.572 -0.6301 -0.3693 -0.4334
 2834SOL     OW11381   2.803   4.232   4.654  0.0610  0.3393  0.1174
 2834SOL    HW211382   2.779   4.141   4.638  0.1447  0.4696 -0.8008
 2834SOL    HW311383   2.723   4.281   4.633  0.0752  0.4938  0.4262
 2834SOL    MW411384   2.789   4.226   4.649  0.0739  0.3767  0.0372
 2835SOL     OW11385   3.305   4.246   4.633 -0.0482 -0.3333 -0.1246
 2835SOL    HW211386   3.290   4.276   4.723 -0.3133 -1.4345  0.2138
 2835SOL    HW311387   3.221   4.261   4.589  0.3715  1.1050 -0.4615
 2835SOL    MW411388   3.292   4.252   4.639 -0.0281 -0.2894 -0.1245
 2836SOL     OW11389   3.529   4.434   4.551 -0.0306 -0.2926 -0.4567
 2836SOL    HW211390   3.464   4.371   4.582 -0.4823  1.1554  1.6832
 2836SOL    HW311391   3.611   4.385   4.549 -0.3159 -0.9060  1.4949
 2836SOL    MW411392   3.531   4.419   4.555 -0.1278 -0.1826  0.0834
 2837SOL     OW11393   3.748   3.729   4.692  0.4483 -0.2252  0.1893
 2837SOL    HW211394   3.759   3.824   4.698  1.9703 -0.3400 -0.6662
 2837SOL    HW311395   3.837   3.695   4.683 -0.1045 -1.7266  0.2832
 2837SOL    MW411396   3.761   3.737   4.692  0.5760 -0.4385  0.0892
 2838SOL     OW11397   3.531   0.056   4.594  0.1826  0.1850 -0.2229
 2838SOL    HW211398   3.538  -0.039   4.596  1.4603  0.2794 -0.2956
 2838SOL    HW311399   3.563   0.080   4.507 -2.6921  0.4769 -1.2542
 2838SOL    MW411400   3.536   0.047   4.583 -0.0284  0.2360 -0.3686
 2839SOL     OW11401   3.191   0.889   4.559 -0.1270  0.1250  0.3461
 2839SOL    HW211402   3.112   0.868   4.608 -0.9824 -1.3439 -1.6048
 2839SOL    HW311403   3.261   0.844   4.607 -1.2018 -2.7896 -0.7705
 2839SOL    MW411404   3.190   0.881   4.572 -0.3817 -0.4534 -0.0587
 2840SOL     OW11405   3.297   1.223   4.525  0.4336  0.3600  0.4215
 2840SOL    HW211406   3.326   1.135   4.548  1.5190  0.0937 -1.8488
 2840SOL    HW311407   3.203   1.223   4.543  0.4446 -1.2295  0.5271
 2840SOL    MW411408   3.288   1.212   4.531  0.5782  0.1150  0.1359
 2841SOL     OW11409   4.010   1.124   4.603  0.1008  0.5590  0.2316
 2841SOL    HW211410   4.006   1.028   4.598  0.9643  0.5648 -0.6467
 2841SOL    HW311411   3.924   1.153   4.571 -0.3745  0.0775  1.0342
 2841SOL    MW411412   3.998   1.115   4.598  0.1519  0.4961  0.2217
 2842SOL     OW11413   3.592   1.122   4.651  0.2769  0.1295 -0.0581
 2842SOL    HW211414   3.536   1.183   4.699  0.9942 -0.0862  1.0601
 2842SOL    HW311415   3.657   1.179   4.608  1.1186  0.1363  1.2173
 2842SOL    MW411416   3.593   1.138   4.651  0.4826  0.1019  0.2575
 2843SOL     OW11417   4.023   0.849   4.544  0.2032  0.1455  0.5679
 2843SOL    HW211418   4.107   0.836   4.587 -0.5192 -1.2566  1.5936
 2843SOL    HW311419   4.040   0.829   4.452  0.9441 -0.3839  0.8145
 2843SOL    MW411420   4.036   0.845   4.537  0.2055 -0.1094  0.7362
 2844SOL     OW11421   4.299   0.500   4.544 -0.1344 -0.2021  0.0050
 2844SOL    HW211422   4.230   0.443   4.576  0.3273 -1.3064 -0.9608
 2844SOL    HW311423   4.295   0.493   4.449  0.2424  1.0022 -0.1082
 2844SOL    MW411424   4.290   0.492   4.536 -0.0238 -0.1889 -0.1373
 2845SOL     OW11425   4.147   2.182   4.621 -0.2496  0.0596  0.0763
 2845SOL    HW211426   4.158   2.269   4.584  1.6823  0.2661  1.0706
 2845SOL    HW311427   4.069   2.188   4.676 -0.9535  0.7658 -1.0088
 2845SOL    MW411428   4.138   2.194   4.624 -0.0877  0.1798  0.0648
 2846SOL     OW11429   3.838   1.976   4.545  0.0406  0.6517 -0.0447
 2846SOL    HW211430   3.749   1.946   4.561 -0.5060  1.1813 -1.9676
 2846SOL    HW311431   3.843   2.061   4.590 -0.5364  0.7897 -0.2450
 2846SOL    MW411432   3.827   1.984   4.553 -0.1075  0.7398 -0.3247
 2847SOL     OW11433   3.597   2.145   4.667 -0.9416  0.3556 -0.5135
 2847SOL    HW211434   3.548   2.067   4.642 -0.7680  0.5357 -1.4327
 2847SOL    HW311435   3.543   2.219   4.639 -1.5820  0.5978  1.2667
 2847SOL    MW411436   3.584   2.145   4.660 -1.0030  0.4115 -0.3996
 2848SOL     OW11437   4.095   1.236   4.859  0.7151  1.0709 -0.9204
 2848SOL    HW211438   4.021   1.277   4.903  0.1434 -1.5092  0.5994
 2848SOL    HW311439   4.056   1.188   4.786  0.9806  0.3810 -0.6084
 2848SOL    MW411440   4.080   1.235   4.855  0.6747  0.6393 -0.6790
 2849SOL     OW11441   0.079   1.550   4.516  0.0634 -0.7521 -0.2338
 2849SOL    HW211442   0.030   1.596   4.585  0.1912 -1.1311  0.1094
 2849SOL    HW311443   0.031   1.571   4.436  0.1903  0.0863 -0.0979
 2849SOL    MW411444   0.066   1.559   4.515  0.0970 -0.6915 -0.1702
 2850SOL     OW11445   4.135   2.446   4.541  0.6325  0.0748 -0.5592
 2850SOL    HW211446   4.059   2.476   4.591  0.7462  2.4473 -1.7623
 2850SOL    HW311447   4.210   2.464   4.599  0.4697 -0.4237 -0.1877
 2850SOL    MW411448   4.135   2.452   4.555  0.6256  0.3221 -0.6685
 2851SOL     OW11449   3.859   2.208   4.713  0.5463 -0.0020 -0.0696
 2851SOL    HW211450   3.862   2.303   4.707 -2.2954  0.2727  2.0100
 2851SOL    HW311451   3.766   2.186   4.710  1.1169 -2.6757  0.0741
 2851SOL    MW411452   3.848   2.218   4.712  0.2468 -0.3188  0.2232
 2852SOL     OW11453   3.808   2.832   4.567  0.4112 -0.3155 -0.0903
 2852SOL    HW211454   3.743   2.901   4.581 -0.1404 -0.7367 -0.5435
 2852SOL    HW311455   3.892   2.874   4.585 -0.0221  0.1042  0.9589
 2852SOL    MW411456   3.811   2.846   4.571  0.2816 -0.3157 -0.0124
 2853SOL     OW11457   0.128   2.571   4.812 -0.7157  0.0805 -0.3812
 2853SOL    HW211458   0.197   2.517   4.772 -0.5391 -0.1001  0.1623
 2853SOL    HW311459   0.046   2.533   4.779 -0.5750 -0.1610 -0.4576
 2853SOL    MW411460   0.126   2.559   4.803 -0.6739  0.0248 -0.3195
 2854SOL     OW11461   3.631   3.032   4.571 -0.1187  0.0960 -0.5077
 2854SOL    HW211462   3.620   3.081   4.489  0.1087 -1.5106 -1.5126
 2854SOL    HW311463   3.542   3.008   4.596 -0.2349  1.0247  0.0078
 2854SOL    MW411464   3.618   3.036   4.563 -0.1037  0.0064 -0.5722
 2855SOL     OW11465   4.075   3.206   4.556  0.6144  0.1093 -0.0578
 2855SOL    HW211466   4.167   3.212   4.581  0.5191 -0.8490  0.5558
 2855SOL    HW311467   4.075   3.214   4.461  1.3978 -0.5270 -0.1124
 2855SOL    MW411468   4.087   3.208   4.547  0.7057 -0.1011  0.0162
 2856SOL     OW11469   3.702   3.459   4.360  0.4771 -0.6239  0.0550
 2856SOL    HW211470   3.662   3.475   4.446 -0.8030  1.7138 -0.9407
 2856SOL    HW311471   3.691   3.365   4.346  0.6048 -1.0298  2.3830
 2856SOL    MW411472   3.695   3.449   4.369  0.3252 -0.3691  0.2313
 2857SOL     OW11473   4.008   3.619   4.609 -0.6626 -0.0311 -0.1163
 2857SOL    HW211474   3.992   3.535   4.653 -1.8061 -0.5909 -1.5616
 2857SOL    HW311475   3.987   3.602   4.517  2.4145  0.9098 -1.0616
 2857SOL    MW411476   4.003   3.606   4.602 -0.4072  0.0196 -0.4315
 2858SOL     OW11477   0.207   2.715   4.516  0.2351 -0.0370 -0.5024
 2858SOL    HW211478   0.232   2.753   4.432  2.3590 -0.5790 -0.1585
 2858SOL    HW311479   0.244   2.774   4.582 -0.6619 -0.0902  0.0677
 2858SOL    MW411480   0.215   2.728   4.514  0.3969 -0.1159 -0.3824
 2859SOL     OW11481   4.056   3.936   4.526  0.2606  0.2111  0.0419
 2859SOL    HW211482   4.051   3.841   4.532 -1.4165  0.2630 -0.2734
 2859SOL    HW311483   3.975   3.967   4.567 -0.1735  1.4320 -1.6727
 2859SOL    MW411484   4.045   3.928   4.533 -0.0181  0.3791 -0.2255
 2860SOL     OW11485   3.836   4.357   4.523  0.0201 -0.0475 -0.1639
 2860SOL    HW211486   3.917   4.407   4.530 -0.3450  0.4757  0.3080
 2860SOL    HW311487   3.815   4.358   4.430 -0.1247  0.8796 -0.1186
 2860SOL    MW411488   3.844   4.363   4.512 -0.0472  0.1440 -0.0958
 2861SOL     OW11489   3.149   0.331   4.667  0.3391 -0.2353 -0.3952
 2861SOL    HW211490   3.102   0.402   4.623 -0.3326 -0.1781  0.4140
 2861SOL    HW311491   3.240   0.362   4.670 -0.0756  0.9117  0.5857
 2861SOL    MW411492   3.155   0.345   4.662  0.1957 -0.0764 -0.1593
 2862SOL     OW11493   3.592   0.873   4.551  0.1984  0.3324  0.1773
 2862SOL    HW211494   3.595   0.964   4.581 -0.7696  0.3030  0.3886
 2862SOL    HW311495   3.580   0.879   4.456  1.1260  0.4212  0.0612
 2862SOL    MW411496   3.591   0.886   4.543  0.1931  0.3403  0.1893
 2863SOL     OW11497   3.804   0.694   4.600 -0.3212 -0.2439 -0.3288
 2863SOL    HW211498   3.880   0.751   4.588  1.1171 -1.2606  3.1748
 2863SOL    HW311499   3.729   0.750   4.582  1.1899  1.4743 -1.4577
 2863SOL    MW411500   3.804   0.709   4.596  0.0682 -0.1514 -0.0157
 2864SOL     OW11501   0.050   0.336   4.558  0.2646 -0.3778  0.2995
 2864SOL    HW211502  -0.022   0.396   4.540 -0.0086 -0.8961 -0.3462
 2864SOL    HW311503   0.123   0.393   4.581  0.1247  0.2283 -0.7080
 2864SOL    MW411504   0.050   0.351   4.559  0.2101 -0.3663  0.0815
 2865SOL     OW11505   0.296   0.542   4.544  0.2214 -0.6228  0.4639
 2865SOL    HW211506   0.380   0.497   4.546  0.3759 -0.3893 -0.6967
 2865SOL    HW311507   0.267   0.536   4.453 -1.2367 -1.1012  0.9317
 2865SOL    MW411508   0.303   0.535   4.533  0.0494 -0.6551  0.3729
 2866SOL     OW11509   4.081   0.342   4.635 -0.3852  0.0290  0.5911
 2866SOL    HW211510   4.059   0.351   4.727 -0.7464 -0.1654  0.5251
 2866SOL    HW311511   3.999   0.363   4.589  0.1550  1.4911  0.2659
 2866SOL    MW411512   4.067   0.346   4.641 -0.3610  0.1963  0.5398
 2867SOL     OW11513   3.793   1.286   4.532  0.1237 -0.1705  0.3445
 2867SOL    HW211514   3.801   1.270   4.438 -1.1119 -2.0760  0.5398
 2867SOL    HW311515   3.828   1.374   4.545  1.7995 -0.5101 -1.6686
 2867SOL    MW411516   3.799   1.295   4.522  0.1819 -0.4667  0.1044
 2868SOL     OW11517   4.479   1.120   4.650  0.0440  0.0078  0.0319
 2868SOL    HW211518   4.431   1.087   4.726 -0.0678  1.1321  0.4599
 2868SOL    HW311519   4.517   1.042   4.610 -0.4474 -0.6667  0.8596
 2868SOL    MW411520   4.477   1.105   4.655 -0.0353  0.0672  0.1979
 2869SOL     OW11521   0.466   1.010   4.755 -0.0435 -0.0566  0.2326
 2869SOL    HW211522   0.440   0.933   4.705  2.9745 -0.5175 -0.7208
 2869SOL    HW311523   0.436   0.992   4.844 -2.2934 -0.8279 -0.6439
 2869SOL    MW411524   0.459   0.997   4.760  0.0578 -0.2192 -0.0091
 2870SOL     OW11525   4.399   1.683   4.716  0.0177  0.2301  0.3512
 2870SOL    HW211526   4.339   1.610   4.726  0.7836 -0.3411  0.7831
 2870SOL    HW311527   4.344   1.761   4.726 -0.8047 -0.2749 -0.1713
 2870SOL    MW411528   4.384   1.684   4.719  0.0100  0.0882  0.3386
 2871SOL     OW11529   3.365   2.677   4.523 -0.2026 -0.1719 -0.1066
 2871SOL    HW211530   3.304   2.603   4.529 -0.9169  0.3016 -1.4057
 2871SOL    HW311531   3.352   2.712   4.435  0.8635  0.8822  0.1431
 2871SOL    MW411532   3.356   2.672   4.512 -0.1564  0.0296 -0.2446
 2872SOL     OW11533   4.265   2.067   4.281 -0.4838  0.6154 -0.3106
 2872SOL    HW211534   4.190   2.017   4.249  0.1822 -0.0127 -0.9070
 2872SOL    HW311535   4.277   2.037   4.371 -1.1568  0.9761 -0.0931
 2872SOL    MW411536   4.256   2.057   4.289 -0.4849  0.5803 -0.3605
 2873SOL     OW11537   0.063   2.041   4.571  0.3855  0.2999  0.3121
 2873SOL    HW211538   0.151   2.019   4.540 -0.3054 -0.2736 -1.2996
 2873SOL    HW311539   0.059   2.137   4.567  0.2708  0.2369 -1.5670
 2873SOL    MW411540   0.074   2.051   4.566  0.2792  0.2158 -0.1483
 2874SOL     OW11541   3.030   2.041   4.500  0.4349 -0.0478 -0.0164
 2874SOL    HW211542   3.020   1.953   4.538  2.4079 -0.9379 -1.4772
 2874SOL    HW311543   2.990   2.034   4.413  1.7455  0.1133 -0.6433
 2874SOL    MW411544   3.023   2.028   4.493  0.8681 -0.1440 -0.2913
 2875SOL     OW11545   3.587   1.874   4.539  0.2000  0.1105  0.4218
 2875SOL    HW211546   3.618   1.784   4.542 -0.0343 -0.0395 -1.1478
 2875SOL    HW311547   3.498   1.868   4.504  0.3024  0.9692 -0.0180
 2875SOL    MW411548   3.579   1.861   4.535  0.1826  0.2041  0.1574
 2876SOL     OW11549   4.366   2.502   4.676  0.3868  0.0696 -0.3913
 2876SOL    HW211550   4.413   2.438   4.623 -0.8417 -0.3543 -0.9892
 2876SOL    HW311551   4.379   2.586   4.630  0.6795 -0.0258 -0.4788
 2876SOL    MW411552   4.374   2.505   4.663  0.2637  0.0014 -0.4821
 2877SOL     OW11553   0.108   2.838   4.901  0.1723 -0.5432 -0.3276
 2877SOL    HW211554   0.140   2.819   4.989  2.3440 -0.2254 -1.0297
 2877SOL    HW311555   0.116   2.755   4.854 -1.8810 -0.9572  0.0190
 2877SOL    MW411556   0.113   2.825   4.907  0.1879 -0.5558 -0.3748
 2878SOL     OW11557   4.086   2.925   4.592  0.1943  0.0036  0.1125
 2878SOL    HW211558   4.176   2.916   4.622  0.4741 -0.8402 -0.9554
 2878SOL    HW311559   4.074   3.018   4.577  1.3801 -0.0455 -1.2373
 2878SOL    MW411560   4.096   2.936   4.594  0.3877 -0.1142 -0.2069
 2879SOL     OW11561   0.476   3.495   4.690 -0.0470  0.0742 -0.1899
 2879SOL    HW211562   0.384   3.488   4.714 -0.2640 -0.6173 -1.2091
 2879SOL    HW311563   0.493   3.589   4.688 -0.1283  0.1648  2.2409
 2879SOL    MW411564   0.466   3.506   4.693 -0.0864 -0.0050 -0.0043
 2880SOL     OW11565   0.085   4.453   4.548 -0.1254 -0.1415  0.2033
 2880SOL    HW211566   0.007   4.408   4.582 -0.1357  0.2164  0.6633
 2880SOL    HW311567   0.054   4.540   4.523 -0.3837 -0.8217 -1.9413
 2880SOL    MW411568   0.071   4.459   4.549 -0.1608 -0.1841 -0.0186
 2881SOL     OW11569   4.004   0.390   4.893 -0.0335  0.2890  0.2968
 2881SOL    HW211570   4.029   0.420   4.980 -1.2585 -0.2912  0.8553
 2881SOL    HW311571   3.921   0.434   4.875  0.2534  0.4753 -0.6284
 2881SOL    MW411572   3.997   0.400   4.902 -0.1574  0.2370  0.2480
 2882SOL     OW11573   4.379   3.184   4.627 -0.0715  0.2756  0.0473
 2882SOL    HW211574   4.366   3.095   4.659 -1.1820  0.2862 -0.3506
 2882SOL    HW311575   4.470   3.185   4.597 -0.3160 -1.0182 -0.8128
 2882SOL    MW411576   4.390   3.173   4.627 -0.2499  0.1063 -0.1187
 2883SOL     OW11577   3.622   0.328   4.669  0.0525  0.3148  0.0747
 2883SOL    HW211578   3.536   0.368   4.655 -0.2378  1.0658  3.5544
 2883SOL    HW311579   3.606   0.234   4.660 -0.7983  0.5146 -0.7029
 2883SOL    MW411580   3.608   0.321   4.666 -0.0980  0.4403  0.4311
 2884SOL     OW11581   4.285   4.394   4.315  0.1162 -0.5394  0.0621
 2884SOL    HW211582   4.343   4.331   4.274  1.4122 -0.2274  1.3680
 2884SOL    HW311583   4.293   4.376   4.409 -0.6051  0.6138  0.3564
 2884SOL    MW411584   4.293   4.384   4.322  0.1922 -0.3457  0.2737
 2885NA      NA11585   0.884   0.089   0.501 -0.2039 -0.5303 -0.4439
   4.49070   4.66690  10.00000
