Gromacs Runs On Most of All Computer Systems in water
11558
    1RG35     P    1   2.211   2.755   4.484 -0.2472  0.1944  0.0980
    1RG35   O1P    2   2.296   2.654   4.414  0.1255 -0.6430  0.2622
    1RG35   O2P    3   2.143   2.848   4.396 -0.2386 -0.5425 -0.1103
    1RG35   O5'    4   2.094   2.669   4.539 -0.5886 -0.0743 -0.3548
    1RG35   C5'    5   1.970   2.728   4.584 -0.1173 -0.5790  0.3659
    1RG35  H5'1    6   1.924   2.794   4.511 -1.5143 -2.7265 -0.7534
    1RG35  H5'2    7   2.002   2.788   4.669 -0.0597 -1.6836  1.1359
    1RG35   C4'    8   1.862   2.630   4.641 -0.1473 -0.3195 -0.3079
    1RG35   H4'    9   1.766   2.681   4.642  0.6295  1.1701 -0.2243
    1RG35   O4'   10   1.850   2.520   4.548  0.1286  0.3989  0.4348
    1RG35   C1'   11   1.823   2.405   4.627  0.2102  0.2072  0.2709
    1RG35   H1'   12   1.735   2.350   4.592  0.7918 -1.4063  1.2757
    1RG35    N9   13   1.937   2.316   4.614  0.0843 -0.4082  0.0500
    1RG35    C8   14   2.048   2.330   4.529  0.0900 -0.1376  0.3772
    1RG35    H8   15   2.071   2.419   4.473 -1.2889 -0.5100 -0.8220
    1RG35    N7   16   2.118   2.223   4.526  0.3044 -0.0467 -0.2658
    1RG35    C5   17   2.053   2.125   4.601  0.0858  0.3757 -0.3006
    1RG35    C6   18   2.078   1.986   4.630  0.0650  0.6442  0.3347
    1RG35    O6   19   2.166   1.914   4.605  0.0676 -0.1204  0.1956
    1RG35    N1   20   1.981   1.932   4.708  0.1731  0.2511  0.4863
    1RG35    H1   21   1.985   1.832   4.721 -1.8250 -0.0098 -0.6482
    1RG35    C2   22   1.867   1.999   4.750  0.3857 -0.4679  0.3620
    1RG35    N2   23   1.771   1.930   4.808 -0.1577 -0.1890 -0.6394
    1RG35   H21   24   1.794   1.840   4.847 -0.3381 -0.5639 -1.3947
    1RG35   H22   25   1.687   1.978   4.839  1.3953  1.7653  0.7226
    1RG35    N3   26   1.839   2.126   4.718  0.2161 -0.3918 -0.5246
    1RG35    C4   27   1.937   2.184   4.649 -0.7327 -0.0419  0.5169
    1RG35   C3'   28   1.887   2.576   4.780  0.1247 -0.0731 -0.0286
    1RG35   H3'   29   1.993   2.555   4.795  0.3743 -0.9976 -2.8487
    1RG35   C2'   30   1.799   2.453   4.774  0.1183  0.6138 -0.2927
    1RG35  H2'1   31   1.829   2.376   4.846 -1.9378  0.6657  0.6424
    1RG35   O2'   32   1.657   2.482   4.805 -0.6081 -0.2589  0.1263
    1RG35  HO'2   33   1.610   2.402   4.780 -0.6612  0.1738 -1.1926
    1RG35   O3'   34   1.838   2.661   4.879  0.2802 -0.2428  0.0935
    1RG35   H3T   35   1.743   2.648   4.878  0.3256 -0.6237 -1.7483
    1RG35   O3P   36   2.264   2.811   4.605 -0.4447  0.3701 -0.0126
    1SOL     OW   37   0.448   0.059   0.484  0.0318 -0.1669  0.2775
    1SOL    HW2   38   0.539   0.078   0.464 -0.2596  0.0599 -0.8510
    1SOL    HW3   39   0.436  -0.032   0.459  0.0649 -0.3327  0.8531
    1SOL    MW4   40   0.458   0.050   0.478 -0.0023 -0.1589  0.2046
    1SOL     OW   41   3.988   0.169   0.507  0.4598  0.3388  0.4211
    1SOL    HW2   42   4.073   0.182   0.465 -0.0612  1.4857 -0.3326
    1SOL    HW3   43   3.950   0.257   0.511 -0.9500 -0.2416  0.1649
    1SOL    MW4   44   3.994   0.183   0.502  0.2053  0.4135  0.2878
    1SOL     OW   45   3.853   0.419   0.552 -0.2014 -0.0997 -0.3390
    1SOL    HW2   46   3.776   0.405   0.497 -0.5698  0.4523  0.0395
    1SOL    HW3   47   3.820   0.463   0.630  0.7924  1.9449 -1.0421
    1SOL    MW4   48   3.839   0.423   0.555 -0.1187  0.2429 -0.3818
    1SOL     OW   49   0.053   1.571   0.535 -0.0278 -0.4896  0.2648
    1SOL    HW2   50   0.018   1.604   0.618 -0.2643  0.2767 -0.1313
    1SOL    HW3   51   0.006   1.489   0.519  0.5229 -1.0052  1.2395
    1SOL    MW4   52   0.042   1.565   0.544  0.0136 -0.4566  0.3411
    1SOL     OW   53   1.445   0.911   0.430  0.5430  0.4649  0.2293
    1SOL    HW2   54   1.431   0.889   0.522 -0.7393  0.0320 -0.0667
    1SOL    HW3   55   1.366   0.958   0.403  1.2650  1.3501 -0.4309
    1SOL    MW4   56   1.433   0.915   0.438  0.4691  0.5246  0.1031
    1SOL     OW   57   0.203   0.506   0.498  0.3094 -0.1150 -0.4632
    1SOL    HW2   58   0.183   0.496   0.591 -0.4340  0.4293 -0.5618
    1SOL    HW3   59   0.227   0.418   0.469 -0.4394 -0.4873  0.0250
    1SOL    MW4   60   0.203   0.493   0.506  0.1125 -0.0923 -0.4119
    1SOL     OW   61   0.388   0.949   0.461 -0.1791 -0.1724 -0.4190
    1SOL    HW2   62   0.408   0.929   0.552  0.4663  0.5559 -0.4016
    1SOL    HW3   63   0.394   0.864   0.416  1.9210 -0.1571 -0.2223
    1SOL    MW4   64   0.392   0.935   0.467  0.1831 -0.0743 -0.3908
    1SOL     OW   65   0.962   0.916   0.460 -0.3957 -0.1239  0.4549
    1SOL    HW2   66   0.936   0.898   0.550 -0.5299  1.3097  0.7033
    1SOL    HW3   67   0.882   0.946   0.417  0.0515  0.8893  0.3150
    1SOL    MW4   68   0.948   0.917   0.466 -0.3545  0.1988  0.4692
    1SOL     OW   69   0.680   0.995   0.393 -0.0349 -0.4040  0.2273
    1SOL    HW2   70   0.594   0.979   0.432 -1.0763 -0.3916 -1.9728
    1SOL    HW3   71   0.662   1.002   0.299  2.2415  0.5734 -0.1580
    1SOL    MW4   72   0.666   0.994   0.385  0.1280 -0.2734 -0.1138
    1SOL     OW   73   0.540   1.624   0.248 -0.4725  0.1131  0.0565
    1SOL    HW2   74   0.508   1.560   0.312 -1.1650 -0.1684 -0.5693
    1SOL    HW3   75   0.564   1.571   0.171  0.5097  0.4293  0.1393
    1SOL    MW4   76   0.539   1.608   0.246 -0.4343  0.1175 -0.0152
    1SOL     OW   77   4.073   1.597   0.526 -0.0382 -0.6533 -0.2727
    1SOL    HW2   78   4.122   1.522   0.492  2.1991  0.8442 -0.4607
    1SOL    HW3   79   4.000   1.606   0.465  1.5058 -0.6688 -2.2136
    1SOL    MW4   80   4.070   1.588   0.513  0.4606 -0.4576 -0.5535
    1SOL     OW   81   0.063   1.843   0.443  0.2197 -0.1019 -0.1403
    1SOL    HW2   82  -0.025   1.876   0.424 -0.0294 -0.5822  0.1923
    1SOL    HW3   83   0.053   1.748   0.450  0.8217 -0.1918 -0.4191
    1SOL    MW4   84   0.050   1.835   0.441  0.2662 -0.1770 -0.1332
    1SOL     OW   85   0.204   2.327   0.408 -0.0021  0.0516 -0.3226
    1SOL    HW2   86   0.274   2.358   0.350 -0.2094  0.2682 -0.4567
    1SOL    HW3   87   0.231   2.239   0.433 -0.1488 -0.2171 -1.1238
    1SOL    MW4   88   0.217   2.320   0.404 -0.0488  0.0446 -0.4460
    1SOL     OW   89   0.405   2.453   0.256 -0.5262  0.3904  0.3318
    1SOL    HW2   90   0.383   2.543   0.280 -3.0582  0.1953 -1.1373
    1SOL    HW3   91   0.444   2.459   0.169  2.1804  0.3362  1.4694
    1SOL    MW4   92   0.407   2.465   0.248 -0.5032  0.3576  0.2881
    1SOL     OW   93   0.015   3.186   0.557 -0.1340 -0.1999  0.1039
    1SOL    HW2   94   0.081   3.146   0.501  1.1988  0.2727  1.3047
    1SOL    HW3   95  -0.067   3.147   0.528  0.4605  0.3261 -2.4404
    1SOL    MW4   96   0.013   3.176   0.546  0.1202 -0.0682 -0.0733
    1SOL     OW   97   0.541   2.890   0.210  0.5436 -0.3744 -0.1906
    1SOL    HW2   98   0.464   2.850   0.250  1.2484 -1.1392  0.4318
    1SOL    HW3   99   0.506   2.961   0.156 -0.5278 -0.1259  0.7988
    1SOL    MW4  100   0.526   2.894   0.208  0.4951 -0.4425  0.0221
    1SOL     OW  101   0.529   3.425   0.350 -0.1851  0.0095 -0.8725
    1SOL    HW2  102   0.582   3.492   0.393 -1.8845  0.1292  1.0958
    1SOL    HW3  103   0.529   3.450   0.257  0.9928  1.4711 -0.4936
    1SOL    MW4  104   0.536   3.437   0.343 -0.2539  0.2182 -0.5628
    1SOL     OW  105   0.881   3.808   0.437 -0.2430 -0.4233 -0.1465
    1SOL    HW2  106   0.919   3.805   0.349 -1.3555 -0.9549 -0.6173
    1SOL    HW3  107   0.897   3.897   0.467  0.7481 -0.4343 -0.6114
    1SOL    MW4  108   0.888   3.819   0.430 -0.2590 -0.4947 -0.2700
    1SOL     OW  109   3.829   3.282   0.552 -0.0145 -0.5396  0.0149
    1SOL    HW2  110   3.895   3.248   0.612 -0.2909 -0.5069  0.3385
    1SOL    HW3  111   3.858   3.371   0.533  0.1400 -0.5926  0.0009
    1SOL    MW4  112   3.842   3.289   0.558 -0.0308 -0.5422  0.0558
    1SOL     OW  113   0.066   3.883   0.564  0.4609 -0.2464 -0.2135
    1SOL    HW2  114   0.001   3.813   0.562  0.3250 -0.1211 -0.1715
    1SOL    HW3  115   0.067   3.912   0.656 -0.2109  0.4927 -0.4321
    1SOL    MW4  116   0.058   3.878   0.576  0.3544 -0.1323 -0.2368
    1SOL     OW  117   4.463   4.522   0.421 -0.3693  0.3646  0.1903
    1SOL    HW2  118   4.421   4.530   0.336 -1.4903 -0.1579  0.6780
    1SOL    HW3  119   4.396   4.483   0.477  0.3764  0.6339  1.2914
    1SOL    MW4  120   4.449   4.518   0.418 -0.4191  0.3309  0.3999
    1SOL     OW  121   4.290   4.364   0.570  0.0755 -0.5237 -0.0922
    1SOL    HW2  122   4.259   4.383   0.659  0.3908  0.5772 -0.2035
    1SOL    HW3  123   4.332   4.278   0.577 -0.9687 -0.9896  0.5578
    1SOL    MW4  124   4.291   4.355   0.583 -0.0210 -0.4396 -0.0212
    1SOL     OW  125   4.398   4.104   0.520  0.3735  0.0448  0.3365
    1SOL    HW2  126   4.455   4.029   0.539  0.8247  0.1551 -0.5343
    1SOL    HW3  127   4.314   4.065   0.495  0.7378 -0.1894 -0.5409
    1SOL    MW4  128   4.395   4.089   0.519  0.4811  0.0281  0.1058
    1SOL     OW  129   0.516   3.165   0.437  0.5455  0.3713 -0.2009
    1SOL    HW2  130   0.490   3.189   0.526  1.4336  1.2047 -0.1534
    1SOL    HW3  131   0.541   3.249   0.397  0.2985 -0.0213 -1.1778
    1SOL    MW4  132   0.516   3.179   0.443  0.6300  0.4292 -0.3235
    1SOL     OW  133   0.372   4.464   0.458 -0.2490  0.1030 -0.5342
    1SOL    HW2  134   0.279   4.449   0.474 -0.3561  0.4313 -0.8213
    1SOL    HW3  135   0.409   4.377   0.446 -0.1283 -0.1727  1.6061
    1SOL    MW4  136   0.365   4.451   0.459 -0.2472  0.1101 -0.2897
    1SOL     OW  137   0.251   0.239   0.392  0.0276  0.1135  0.5152
    1SOL    HW2  138   0.175   0.200   0.435  0.0536  1.9839  2.3330
    1SOL    HW3  139   0.323   0.181   0.413 -0.2231  0.2914  1.9083
    1SOL    MW4  140   0.251   0.227   0.400 -0.0020  0.3838  0.9388
    1SOL     OW  141   4.474   0.617   0.342 -0.5673 -0.1243 -0.6998
    1SOL    HW2  142   4.550   0.578   0.384  0.4083  1.3981 -1.0248
    1SOL    HW3  143   4.509   0.659   0.263 -1.6327  1.0868 -0.5465
    1SOL    MW4  144   4.489   0.618   0.337 -0.5794  0.2363 -0.7224
    1SOL     OW  145   0.959   4.512   0.468 -0.5828 -0.0992  0.2575
    1SOL    HW2  146   1.042   4.465   0.478 -0.1877  0.5847  0.2674
    1SOL    HW3  147   0.892   4.449   0.492 -0.0326 -0.5285  0.6636
    1SOL    MW4  148   0.961   4.497   0.472 -0.4580 -0.0653  0.3124
    1SOL     OW  149   1.209   1.014   0.334  0.2323  0.4165  0.2156
    1SOL    HW2  150   1.127   0.974   0.365  0.5021 -1.2043 -1.0709
    1SOL    HW3  151   1.203   1.009   0.238  2.0332 -0.1785  0.1163
    1SOL    MW4  152   1.197   1.008   0.325  0.5054  0.1241  0.0328
    1SOL     OW  153   0.693   0.505   0.425  0.3119 -0.0800  0.0412
    1SOL    HW2  154   0.778   0.546   0.407  0.7410 -0.3126  1.4963
    1SOL    HW3  155   0.714   0.412   0.433 -0.0462 -0.1162  0.5826
    1SOL    MW4  156   0.707   0.498   0.424  0.3213 -0.1155  0.3047
    1SOL     OW  157   0.240   1.208   0.427  0.4927 -0.6553  0.4473
    1SOL    HW2  158   0.148   1.195   0.404  0.8822 -1.6654 -0.5982
    1SOL    HW3  159   0.280   1.122   0.413  1.8555  0.0868 -0.3302
    1SOL    MW4  160   0.233   1.195   0.422  0.7239 -0.6906  0.2068
    1SOL     OW  161   0.455   1.847   0.407  0.1411 -0.1420  0.3032
    1SOL    HW2  162   0.486   1.783   0.343 -1.5985 -1.0474  0.3268
    1SOL    HW3  163   0.404   1.795   0.470 -1.7323  1.3310  0.0295
    1SOL    MW4  164   0.452   1.831   0.407 -0.3356 -0.0672  0.2702
    1SOL     OW  165   0.259   2.042   0.457 -0.4427  0.0221  0.1798
    1SOL    HW2  166   0.337   1.990   0.439 -0.3015 -0.6092  2.5054
    1SOL    HW3  167   0.186   1.985   0.432 -0.2361 -0.4587  0.6766
    1SOL    MW4  168   0.260   2.028   0.451 -0.3969 -0.1245  0.5522
    1SOL     OW  169   0.590   2.352   0.434 -0.2158  0.9713 -0.3617
    1SOL    HW2  170   0.526   2.356   0.363 -0.5996 -1.1199 -0.1766
    1SOL    HW3  171   0.585   2.262   0.465  2.3884  0.9387  0.0800
    1SOL    MW4  172   0.581   2.341   0.429  0.0772  0.6914 -0.2790
    1SOL     OW  173   0.898   2.372   0.271 -0.1194  0.3863 -0.0517
    1SOL    HW2  174   0.878   2.279   0.263  0.8475  0.2741 -1.4928
    1SOL    HW3  175   0.982   2.375   0.316 -1.0585  0.6620  1.7321
    1SOL    MW4  176   0.907   2.360   0.276 -0.1158  0.4082 -0.0065
    1SOL     OW  177   3.840   2.782   0.459 -0.0014 -0.1183  0.0881
    1SOL    HW2  178   3.818   2.706   0.405  0.3431 -0.3503  0.2727
    1SOL    HW3  179   3.785   2.852   0.424 -0.9259 -0.6499  0.4620
    1SOL    MW4  180   3.830   2.781   0.447 -0.0780 -0.2193  0.1618
    1SOL     OW  181   0.785   2.766   0.278  0.1557  0.1837  0.2616
    1SOL    HW2  182   0.699   2.798   0.252 -0.4234 -0.3750  1.4136
    1SOL    HW3  183   0.813   2.826   0.348  0.0552 -0.4767  0.8791
    1SOL    MW4  184   0.778   2.778   0.284  0.0661  0.0226  0.4950
    1SOL     OW  185   0.595   2.675   0.534 -0.1383  0.0363  0.2469
    1SOL    HW2  186   0.615   2.767   0.516  0.0927  0.0650  0.6484
    1SOL    HW3  187   0.589   2.670   0.629  1.1924 -0.6336  0.3017
    1SOL    MW4  188   0.597   2.686   0.544  0.0678 -0.0482  0.3071
    1SOL     OW  189   0.239   3.072   0.433 -0.5149 -0.4259 -0.1788
    1SOL    HW2  190   0.331   3.099   0.438 -0.7614  0.4851 -0.4072
    1SOL    HW3  191   0.240   2.979   0.452  0.2818 -0.0932  1.5487
    1SOL    MW4  192   0.251   3.064   0.436 -0.4423 -0.2615  0.0190
    1SOL     OW  193   0.376   2.705   0.357  0.3432  0.0974 -0.4883
    1SOL    HW2  194   0.447   2.706   0.421  1.4012  1.2202 -1.6639
    1SOL    HW3  195   0.298   2.731   0.406  0.9766  0.1096  0.5151
    1SOL    MW4  196   0.375   2.708   0.372  0.5664  0.2470 -0.5110
    1SOL     OW  197   1.604   4.602   0.190  0.1167 -0.1452  0.0678
    1SOL    HW2  198   1.554   4.645   0.121  0.1487 -0.8359 -0.3981
    1SOL    HW3  199   1.537   4.571   0.251  0.0708  0.2477  0.2159
    1SOL    MW4  200   1.589   4.603   0.189  0.1149 -0.1845  0.0258
    1SOL     OW  201   0.299   3.531   0.489 -0.1960 -0.0497 -0.1581
    1SOL    HW2  202   0.311   3.618   0.453  2.0156 -0.2913 -0.0518
    1SOL    HW3  203   0.368   3.478   0.449 -0.7891 -1.4813  0.6581
    1SOL    MW4  204   0.310   3.535   0.479  0.0176 -0.2701 -0.0364
    1SOL     OW  205   0.749   3.569   0.491 -0.1992  0.0622  0.2478
    1SOL    HW2  206   0.780   3.657   0.470  2.2714 -0.5676  1.1222
    1SOL    HW3  207   0.702   3.579   0.574  2.0195  0.2022  1.5138
    1SOL    MW4  208   0.747   3.582   0.500  0.4194 -0.0021  0.5302
    1SOL     OW  209   1.299   3.669   0.376 -0.0653 -0.1608 -0.3135
    1SOL    HW2  210   1.220   3.689   0.327 -0.5479 -0.7288  0.2337
    1SOL    HW3  211   1.278   3.591   0.426  1.1175 -0.8369 -0.8241
    1SOL    MW4  212   1.286   3.661   0.376  0.0271 -0.3247 -0.3087
    1SOL     OW  213   0.525   4.225   0.394 -0.5167  0.1758  0.0265
    1SOL    HW2  214   0.508   4.141   0.437 -0.7311 -0.9307 -2.1671
    1SOL    HW3  215   0.563   4.202   0.309  0.9201  2.3506  0.0435
    1SOL    MW4  216   0.527   4.210   0.389 -0.3554  0.3161 -0.2607
    1SOL     OW  217   1.084   3.823   0.222 -0.1875 -0.2205 -0.2239
    1SOL    HW2  218   1.128   3.835   0.138 -0.9567 -0.1454 -0.6165
    1SOL    HW3  219   1.097   3.905   0.269 -0.2162 -0.0683 -0.4840
    1SOL    MW4  220   1.091   3.835   0.217 -0.2927 -0.1907 -0.3100
    1SOL     OW  221   0.754   4.302   0.554 -0.3933  0.5488  0.0167
    1SOL    HW2  222   0.692   4.256   0.497  1.5042  0.1218 -1.7348
    1SOL    HW3  223   0.719   4.289   0.642 -1.1739 -2.2545 -0.6549
    1SOL    MW4  224   0.741   4.294   0.558 -0.2460  0.1225 -0.3030
    1SOL     OW  225   0.717   0.160   0.415  0.1975  0.0986 -0.2741
    1SOL    HW2  226   0.719   0.109   0.334  0.9322  0.7393 -0.6768
    1SOL    HW3  227   0.806   0.152   0.451 -0.6027 -1.5982  1.3814
    1SOL    MW4  228   0.729   0.152   0.409  0.1889 -0.0407 -0.1088
    1SOL     OW  229   0.928   0.646   0.385 -0.0211  0.8598 -0.4526
    1SOL    HW2  230   0.954   0.737   0.395  0.6178  0.5225  1.1872
    1SOL    HW3  231   0.991   0.597   0.438 -1.5118 -0.3586  0.2334
    1SOL    MW4  232   0.940   0.651   0.393 -0.1336  0.6546 -0.1458
    1SOL     OW  233   0.411   0.682   0.380 -0.1719  0.1645  0.0463
    1SOL    HW2  234   0.353   0.621   0.425  0.4806 -0.3277  0.2343
    1SOL    HW3  235   0.494   0.636   0.374  0.3369  1.0467  0.2047
    1SOL    MW4  236   0.414   0.668   0.385 -0.0187  0.2159  0.0920
    1SOL     OW  237   1.357   0.651   0.345 -0.0461  0.0282  0.1532
    1SOL    HW2  238   1.368   0.745   0.361  2.1701  0.0889 -1.4754
    1SOL    HW3  239   1.438   0.612   0.380  1.0842 -0.7337 -3.1575
    1SOL    MW4  240   1.369   0.658   0.352  0.3954 -0.0643 -0.4985
    1SOL     OW  241   1.843   0.768   0.479 -0.0258 -0.1071 -0.1488
    1SOL    HW2  242   1.812   0.808   0.561  1.6901 -0.2710  0.6065
    1SOL    HW3  243   1.772   0.709   0.454  0.2436 -1.5767  2.3291
    1SOL    MW4  244   1.830   0.765   0.487  0.2362 -0.3226  0.2778
    1SOL     OW  245   1.706   1.001   0.412  0.1097  0.5964 -0.4254
    1SOL    HW2  246   1.614   0.973   0.405  0.5553 -0.7694 -0.8697
    1SOL    HW3  247   1.756   0.927   0.378  1.5220  0.3296  2.1693
    1SOL    MW4  248   1.700   0.988   0.407  0.3549  0.3809 -0.1417
    1SOL     OW  249   0.422   1.417   0.397  0.0543 -0.3167 -0.1920
    1SOL    HW2  250   0.489   1.352   0.420  0.6059  1.0715  2.3557
    1SOL    HW3  251   0.339   1.370   0.405  0.4138 -0.5998  2.1588
    1SOL    MW4  252   0.420   1.402   0.401  0.1745 -0.1709  0.4543
    1SOL     OW  253   0.651   1.264   0.458  0.7637  0.1642  0.2981
    1SOL    HW2  254   0.660   1.175   0.425 -0.5652  0.0680  0.1721
    1SOL    HW3  255   0.731   1.308   0.429  0.1678 -0.2354 -2.0572
    1SOL    MW4  256   0.663   1.258   0.449  0.5097  0.0988 -0.0293
    1SOL     OW  257   1.356   1.422   0.292 -0.0104 -0.0314 -0.1969
    1SOL    HW2  258   1.323   1.512   0.301 -1.2050 -0.5342  0.5303
    1SOL    HW3  259   1.434   1.420   0.348 -0.3092  0.3836  0.2391
    1SOL    MW4  260   1.362   1.434   0.301 -0.2075 -0.0428 -0.0434
    1SOL     OW  261   0.889   1.396   0.437  0.3536 -0.3776 -0.3218
    1SOL    HW2  262   0.968   1.343   0.431  1.2437  0.5941  2.0612
    1SOL    HW3  263   0.919   1.485   0.416 -0.1094 -0.0174  0.5298
    1SOL    MW4  264   0.904   1.401   0.434  0.4099 -0.2018  0.1050
    1SOL     OW  265   0.970   1.690   0.422 -0.1843 -0.6020  0.4248
    1SOL    HW2  266   1.060   1.722   0.415 -0.0092 -1.3446 -0.7739
    1SOL    HW3  267   0.952   1.692   0.516  1.1194 -0.5659  0.6924
    1SOL    MW4  268   0.980   1.695   0.434  0.0108 -0.6951  0.3019
    1SOL     OW  269   0.199   2.529   0.604  0.5958 -0.2226 -0.1611
    1SOL    HW2  270   0.190   2.466   0.532 -1.5523  0.1478 -0.2666
    1SOL    HW3  271   0.143   2.494   0.673  0.9881  0.5187  0.5359
    1SOL    MW4  272   0.190   2.516   0.604  0.3641 -0.0761 -0.0831
    1SOL     OW  273   0.762   1.824   0.278  0.2654  0.2857  0.0134
    1SOL    HW2  274   0.697   1.754   0.273  0.2170  0.1964  1.7552
    1SOL    HW3  275   0.840   1.781   0.312  0.1950  1.1164  1.2202
    1SOL    MW4  276   0.764   1.809   0.282  0.2497  0.3836  0.4024
    1SOL     OW  277   0.947   2.575   0.499 -0.4616  0.3255 -0.1913
    1SOL    HW2  278   1.019   2.515   0.478 -1.6244 -1.3262  0.4838
    1SOL    HW3  279   0.932   2.564   0.592 -2.0796  0.1174 -0.4656
    1SOL    MW4  280   0.955   2.566   0.508 -0.8284  0.0801 -0.1385
    1SOL     OW  281   0.611   2.080   0.477  0.0308  0.1036  0.1044
    1SOL    HW2  282   0.693   2.079   0.427  0.1975  0.0958  0.3801
    1SOL    HW3  283   0.573   1.993   0.461 -0.1448  0.2687 -0.3884
    1SOL    MW4  284   0.617   2.068   0.468  0.0296  0.1245  0.0758
    1SOL     OW  285   1.093   2.822   0.523  0.1516 -0.0787 -0.5209
    1SOL    HW2  286   1.038   2.746   0.504 -1.7345  0.8870  0.8636
    1SOL    HW3  287   1.034   2.897   0.512  1.0229  0.9551  1.5737
    1SOL    MW4  288   1.078   2.822   0.519  0.0178  0.1853 -0.0619
    1SOL     OW  289   0.683   2.540   0.123 -0.3745  0.0273 -0.1763
    1SOL    HW2  290   0.719   2.628   0.121 -1.4802  0.4850 -0.1722
    1SOL    HW3  291   0.760   2.483   0.122  0.3498  0.9846 -0.0475
    1SOL    MW4  292   0.698   2.544   0.123 -0.4249  0.2139 -0.1588
    1SOL     OW  293   0.664   2.950   0.549 -0.1409  0.2079  0.3825
    1SOL    HW2  294   0.634   2.949   0.641  0.8992  1.7860  0.7561
    1SOL    HW3  295   0.606   3.012   0.506 -0.0631  0.1293  0.1639
    1SOL    MW4  296   0.652   2.958   0.556  0.0066  0.4055  0.4030
    1SOL     OW  297   0.929   3.322   0.517 -0.2154  0.1404  0.9729
    1SOL    HW2  298   0.916   3.291   0.607 -0.2004  1.1523  1.3280
    1SOL    HW3  299   0.871   3.398   0.510 -1.8842 -1.2353 -0.5644
    1SOL    MW4  300   0.919   3.328   0.528 -0.4336  0.0927  0.8169
    1SOL     OW  301   1.561   3.564   0.473 -0.3856 -0.0828  0.3096
    1SOL    HW2  302   1.636   3.616   0.445 -0.4884 -0.7676 -1.2861
    1SOL    HW3  303   1.485   3.612   0.438 -0.6544  0.2128  1.2825
    1SOL    MW4  304   1.561   3.577   0.465 -0.4348 -0.1340  0.2274
    1SOL     OW  305   1.140   4.090   0.363  0.7099 -0.2651  0.4063
    1SOL    HW2  306   1.176   4.178   0.368  1.2481 -0.3637 -1.2857
    1SOL    HW3  307   1.065   4.091   0.423  1.8816  0.7349  1.8947
    1SOL    MW4  308   1.135   4.102   0.371  0.9356 -0.1464  0.3794
    1SOL     OW  309   0.504   3.971   0.508  0.0935 -0.3846 -0.0681
    1SOL    HW2  310   0.469   3.982   0.597 -0.8395  0.1963 -0.5014
    1SOL    HW3  311   0.584   3.920   0.520  0.2216  0.0862  1.1599
    1SOL    MW4  312   0.510   3.966   0.521 -0.0127 -0.2458  0.0368
    1SOL     OW  313   1.429   4.488   0.410 -0.2573  0.0751  0.4920
    1SOL    HW2  314   1.427   4.579   0.440 -0.9052 -0.0426  0.8226
    1SOL    HW3  315   1.509   4.452   0.449 -0.7873  0.0893  1.6280
    1SOL    MW4  316   1.439   4.495   0.419 -0.4127  0.0615  0.6855
    1SOL     OW  317   1.156   0.529   0.485  0.2739 -0.0871  0.4191
    1SOL    HW2  318   1.179   0.436   0.478  0.4107 -0.0862  0.8334
    1SOL    HW3  319   1.220   0.574   0.430  1.5069 -0.0460  1.8657
    1SOL    MW4  320   1.167   0.523   0.477  0.4547 -0.0815  0.6646
    1SOL     OW  321   0.986   0.106   0.499  0.4719 -0.1723 -0.4405
    1SOL    HW2  322   0.980   0.018   0.461 -3.0562  0.2162 -0.9830
    1SOL    HW3  323   0.957   0.094   0.590  2.0343  0.0971  0.1051
    1SOL    MW4  324   0.981   0.093   0.506  0.2126 -0.0855 -0.4401
    1SOL     OW  325   1.445   0.076   0.492 -0.8991 -0.5312  0.0042
    1SOL    HW2  326   1.380   0.146   0.484 -1.2342 -0.9281 -0.7767
    1SOL    HW3  327   1.523   0.119   0.527 -1.1667  0.1970 -0.2890
    1SOL    MW4  328   1.447   0.091   0.496 -0.9787 -0.4875 -0.1375
    1SOL     OW  329   1.614   0.574   0.467 -0.1736  0.2246  0.6110
    1SOL    HW2  330   1.645   0.491   0.429  0.8655  1.2271 -0.7794
    1SOL    HW3  331   1.601   0.554   0.559  1.5938 -1.0890  0.6141
    1SOL    MW4  332   1.617   0.560   0.474  0.1967  0.1836  0.4280
    1SOL     OW  333   1.243   0.258   0.545 -0.1755 -0.1902  0.1083
    1SOL    HW2  334   1.262   0.251   0.639 -0.3078  1.2497  0.2570
    1SOL    HW3  335   1.168   0.200   0.532  0.6765 -1.4396  0.6230
    1SOL    MW4  336   1.235   0.249   0.556 -0.0806 -0.1651  0.1958
    1SOL     OW  337   2.103   0.675   0.462  0.0055 -0.0745 -0.3134
    1SOL    HW2  338   2.157   0.748   0.431  0.9663 -0.9146 -0.6676
    1SOL    HW3  339   2.015   0.711   0.468  0.6978  1.4803  0.8176
    1SOL    MW4  340   2.099   0.689   0.459  0.2239  0.0198 -0.2109
    1SOL     OW  341   2.504   0.753   0.449  0.0605  0.3061  0.1335
    1SOL    HW2  342   2.489   0.659   0.449  0.4948  0.2366  0.5588
    1SOL    HW3  343   2.599   0.763   0.452  0.0560  0.7570 -0.8567
    1SOL    MW4  344   2.515   0.742   0.449  0.1171  0.3564  0.0589
    1SOL     OW  345   1.580   1.379   0.448 -0.4106  0.5443  0.0230
    1SOL    HW2  346   1.607   1.459   0.495  0.5590  1.1498 -1.5398
    1SOL    HW3  347   1.661   1.343   0.413 -1.0765 -0.1282 -0.8415
    1SOL    MW4  348   1.595   1.385   0.450 -0.3705  0.5355 -0.2973
    1SOL     OW  349   1.792   1.252   0.342  0.0136  0.1563 -0.6143
    1SOL    HW2  350   1.775   1.162   0.372  1.4054 -0.0138 -0.2775
    1SOL    HW3  351   1.805   1.244   0.248 -1.6156  0.2775 -0.8628
    1SOL    MW4  352   1.792   1.239   0.334 -0.0179  0.1498 -0.6027
    1SOL     OW  353   1.141   1.279   0.422 -0.4344  0.1481 -0.5537
    1SOL    HW2  354   1.210   1.334   0.383  0.4674 -0.3104  0.3660
    1SOL    HW3  355   1.161   1.191   0.393 -0.1069 -0.1121  0.4339
    1SOL    MW4  356   1.153   1.275   0.413 -0.2722  0.0533 -0.3020
    1SOL     OW  357   1.272   1.716   0.412 -0.1060  0.2204  0.0841
    1SOL    HW2  358   1.286   1.680   0.500  2.4190  0.9726  0.0436
    1SOL    HW3  359   1.323   1.797   0.412 -0.9319  0.7521 -1.7466
    1SOL    MW4  360   1.280   1.722   0.424  0.1181  0.3898 -0.1628
    1SOL     OW  361   1.145   2.388   0.404  0.0195 -0.3094 -0.0353
    1SOL    HW2  362   1.235   2.420   0.417 -0.0946 -0.4567  1.1712
    1SOL    HW3  363   1.148   2.296   0.431 -0.8020  0.0506  1.3143
    1SOL    MW4  364   1.158   2.380   0.409 -0.1041 -0.2813  0.3020
    1SOL     OW  365   1.554   2.783   0.509  0.2327 -0.0256  0.1586
    1SOL    HW2  366   1.478   2.839   0.491  0.0799  0.0377  0.9777
    1SOL    HW3  367   1.577   2.803   0.600  0.7535 -0.6110  0.1547
    1SOL    MW4  368   1.547   2.793   0.519  0.2812 -0.0944  0.2661
    1SOL     OW  369   1.873   2.318   0.173  0.4621 -0.3302 -0.8163
    1SOL    HW2  370   1.957   2.338   0.216 -0.3346  0.3836  0.4144
    1SOL    HW3  371   1.897   2.260   0.101  1.9573 -0.6334 -0.0981
    1SOL    MW4  372   1.888   2.313   0.170  0.5543 -0.2761 -0.5591
    1SOL     OW  373   1.605   2.096   0.460 -0.0676  0.1728 -0.4578
    1SOL    HW2  374   1.615   2.187   0.432  0.3097  0.2121 -0.2012
    1SOL    HW3  375   1.689   2.055   0.439  0.0339  0.0740  0.1256
    1SOL    MW4  376   1.618   2.103   0.454 -0.0045  0.1650 -0.3470
    1SOL     OW  377   0.874   2.108   0.332 -0.0895 -0.2901 -0.2296
    1SOL    HW2  378   0.959   2.103   0.376  0.2388 -2.1661 -0.9830
    1SOL    HW3  379   0.860   2.019   0.299 -2.0755  0.1542 -0.6311
    1SOL    MW4  380   0.884   2.095   0.333 -0.3082 -0.4787 -0.3820
    1SOL     OW  381   0.901   3.017   0.443 -0.0300  0.3073  0.2036
    1SOL    HW2  382   0.815   3.011   0.485  0.8482  0.5738  2.0972
    1SOL    HW3  383   0.915   3.111   0.433  0.1811  0.2776  0.2219
    1SOL    MW4  384   0.891   3.029   0.447  0.1137  0.3383  0.4559
    1SOL     OW  385   2.068   2.377   0.382  0.1474 -0.0580  0.5390
    1SOL    HW2  386   2.082   2.284   0.403 -0.0933 -0.1733  0.2132
    1SOL    HW3  387   2.149   2.420   0.407  0.5692 -0.4924 -0.0612
    1SOL    MW4  388   2.080   2.370   0.388  0.1712 -0.1304  0.4169
    1SOL     OW  389   1.755   4.606   0.417 -0.4514 -0.1350  0.1386
    1SOL    HW2  390   1.705   4.617   0.336  0.4613 -0.8920 -0.5421
    1SOL    HW3  391   1.733   4.518   0.446  0.2155 -0.3432  0.0179
    1SOL    MW4  392   1.746   4.596   0.410 -0.2431 -0.2623  0.0329
    1SOL     OW  393   1.315   3.916   0.485 -0.1287  0.3882 -0.3009
    1SOL    HW2  394   1.317   3.829   0.447  0.4394 -0.1991  1.0377
    1SOL    HW3  395   1.236   3.956   0.450 -1.1960 -1.2127  0.2484
    1SOL    MW4  396   1.305   3.910   0.476 -0.1945  0.0997 -0.0518
    1SOL     OW  397   1.782   2.744   0.370  0.3298 -0.8257 -0.4298
    1SOL    HW2  398   1.696   2.777   0.393  0.2766 -1.9042  1.0316
    1SOL    HW3  399   1.786   2.750   0.274 -1.0652 -0.0814 -0.4510
    1SOL    MW4  400   1.771   2.749   0.360  0.1388 -0.8698 -0.2398
    1SOL     OW  401   1.948   3.771   0.181 -0.0326 -1.1023  0.3136
    1SOL    HW2  402   2.040   3.769   0.209  0.0318 -0.6460  0.1462
    1SOL    HW3  403   1.953   3.777   0.085 -0.2263 -0.1954  0.3522
    1SOL    MW4  404   1.961   3.772   0.172 -0.0498 -0.9224  0.2966
    1SOL     OW  405   1.209   3.434   0.515 -0.4545  0.5446  0.2671
    1SOL    HW2  406   1.123   3.393   0.501 -0.9950  1.3904  0.9928
    1SOL    HW3  407   1.266   3.362   0.541 -1.1413  0.0776  0.5235
    1SOL    MW4  408   1.205   3.419   0.517 -0.6164  0.5946  0.3967
    1SOL     OW  409   2.197   3.759   0.315 -0.7047  0.0541  0.2203
    1SOL    HW2  410   2.172   3.687   0.374  1.0670 -0.5983  0.1854
    1SOL    HW3  411   2.283   3.734   0.281 -0.4353  1.8054 -0.4277
    1SOL    MW4  412   2.205   3.746   0.318 -0.4354  0.1991  0.1302
    1SOL     OW  413   0.933   4.077   0.532  0.5192  0.1112 -0.1910
    1SOL    HW2  414   0.931   4.040   0.620  2.3093  1.7221  0.5677
    1SOL    HW3  415   0.865   4.144   0.532  0.3781 -0.0324 -0.1024
    1SOL    MW4  416   0.924   4.081   0.543  0.7368  0.3047 -0.0792
    1SOL     OW  417   2.068   4.368   0.231 -0.1568 -0.1222  0.9029
    1SOL    HW2  418   2.016   4.375   0.152  0.2226  1.7868  0.7908
    1SOL    HW3  419   2.033   4.435   0.289  1.0514  0.0470  1.4685
    1SOL    MW4  420   2.057   4.378   0.228  0.0525  0.1512  0.9627
    1SOL     OW  421   2.038   4.572   0.422 -0.0032 -0.5121 -0.2774
    1SOL    HW2  422   2.046   4.517   0.500  0.7576 -0.7409 -0.5134
    1SOL    HW3  423   1.944   4.586   0.413 -0.1560 -1.1600  0.2150
    1SOL    MW4  424   2.027   4.566   0.432  0.0770 -0.6280 -0.2436
    1SOL     OW  425   2.163   0.155   0.472  0.8741 -0.2365  0.9784
    1SOL    HW2  426   2.083   0.208   0.477  0.3382 -0.5788 -2.6166
    1SOL    HW3  427   2.133   0.069   0.442  2.4203 -0.8455  1.1206
    1SOL    MW4  428   2.149   0.151   0.469  1.0078 -0.3620  0.5228
    1SOL     OW  429   1.178   4.342   0.464 -0.7759  0.2949 -0.2549
    1SOL    HW2  430   1.186   4.326   0.558 -0.2303 -1.1669 -0.5399
    1SOL    HW3  431   1.267   4.362   0.436 -0.6308 -1.0269 -0.7667
    1SOL    MW4  432   1.191   4.343   0.473 -0.6847 -0.0730 -0.3600
    1SOL     OW  433   2.375   0.498   0.513 -0.1510  0.1170 -0.0268
    1SOL    HW2  434   2.293   0.520   0.468 -0.1807  0.4440  0.1885
    1SOL    HW3  435   2.389   0.405   0.493 -1.0829 -0.1910  0.7357
    1SOL    MW4  436   2.366   0.488   0.504 -0.2782  0.1194  0.1022
    1SOL     OW  437   2.118   1.595   0.550  0.6605 -0.0541 -0.6522
    1SOL    HW2  438   2.093   1.507   0.520 -0.9804  0.6057 -1.2500
    1SOL    HW3  439   2.036   1.643   0.557  1.4731  1.2462  0.3622
    1SOL    MW4  440   2.104   1.590   0.547  0.5515  0.2046 -0.5972
    1SOL     OW  441   2.271   0.919   0.443  0.6857 -0.1343  0.2861
    1SOL    HW2  442   2.287   1.013   0.432 -1.0016 -0.1507 -2.6965
    1SOL    HW3  443   2.357   0.878   0.428  1.7617  0.9537  3.0536
    1SOL    MW4  444   2.285   0.926   0.440  0.6051  0.0070  0.2577
    1SOL     OW  445   2.021   1.336   0.497  0.1578  0.0541 -0.4133
    1SOL    HW2  446   1.945   1.302   0.448 -0.2505  1.8284 -1.0693
    1SOL    HW3  447   2.094   1.283   0.466 -0.8318 -1.8632  0.4088
    1SOL    MW4  448   2.020   1.324   0.486 -0.0267  0.0353 -0.3914
    1SOL     OW  449   2.388   1.440   0.526  0.1229 -0.0430 -0.4323
    1SOL    HW2  450   2.479   1.470   0.523 -0.1171  0.8962  0.9825
    1SOL    HW3  451   2.336   1.521   0.524 -0.6344 -0.5081  0.1000
    1SOL    MW4  452   2.393   1.455   0.525 -0.0088  0.0194 -0.1754
    1SOL     OW  453   1.859   1.954   0.381 -0.1814  0.1758 -0.0966
    1SOL    HW2  454   1.951   1.969   0.361 -0.4524  0.4825 -1.1618
    1SOL    HW3  455   1.859   1.888   0.450  0.8449  0.5155  0.2374
    1SOL    MW4  456   1.871   1.948   0.387 -0.0818  0.2612 -0.1931
    1SOL     OW  457   1.355   1.986   0.334 -0.1499  0.2431 -0.0117
    1SOL    HW2  458   1.438   2.032   0.344 -0.0731 -0.2178  1.5823
    1SOL    HW3  459   1.344   1.976   0.239  1.0817  1.2508 -0.2621
    1SOL    MW4  460   1.365   1.990   0.323  0.0226  0.3153  0.1656
    1SOL     OW  461   2.365   2.415   0.479  0.2826  0.4557  0.2068
    1SOL    HW2  462   2.446   2.466   0.465  0.4147  0.4232  0.8401
    1SOL    HW3  463   2.341   2.434   0.569  1.8449 -2.7489  1.3662
    1SOL    MW4  464   2.373   2.424   0.489  0.5064  0.0286  0.4433
    1SOL     OW  465   1.872   3.229   0.496  0.1018 -0.1053  0.3698
    1SOL    HW2  466   1.900   3.137   0.501  0.7357 -0.2294 -3.6447
    1SOL    HW3  467   1.954   3.279   0.497 -0.1143  0.2526  0.1510
    1SOL    MW4  468   1.887   3.223   0.497  0.1568 -0.0744 -0.1887
    1SOL     OW  469   1.334   2.938   0.405  0.1969  0.3262 -0.1006
    1SOL    HW2  470   1.332   2.957   0.311 -0.0334  0.8916  0.0186
    1SOL    HW3  471   1.256   2.885   0.421  0.7827 -0.6633 -0.4124
    1SOL    MW4  472   1.324   2.933   0.395  0.2437  0.2701 -0.1260
    1SOL     OW  473   1.603   3.289   0.484 -0.4276 -0.1018  0.3741
    1SOL    HW2  474   1.693   3.264   0.464 -0.3839 -0.5793  1.1551
    1SOL    HW3  475   1.605   3.385   0.486  0.1284 -0.1178  0.6882
    1SOL    MW4  476   1.615   3.299   0.481 -0.3484 -0.1669  0.5186
    1SOL     OW  477   1.132   2.094   0.460  0.3771  0.2767 -0.6199
    1SOL    HW2  478   1.139   2.069   0.552 -0.7995  0.8708 -0.3612
    1SOL    HW3  479   1.211   2.056   0.419 -0.1199 -1.7603  0.2173
    1SOL    MW4  480   1.144   2.085   0.467  0.1564  0.0863 -0.4753
    1SOL     OW  481   3.126   2.672   0.190  0.3024 -0.0726 -0.3917
    1SOL    HW2  482   3.079   2.628   0.261  0.2361 -0.2501 -0.5456
    1SOL    HW3  483   3.087   2.637   0.110 -1.3247  1.9486 -0.5173
    1SOL    MW4  484   3.115   2.661   0.189  0.0792  0.1705 -0.4286
    1SOL     OW  485   1.847   2.510   0.505 -0.3343 -0.0526 -0.5551
    1SOL    HW2  486   1.928   2.473   0.470  0.1703  0.1977  0.3198
    1SOL    HW3  487   1.843   2.598   0.468  0.1835  0.2017 -0.0278
    1SOL    MW4  488   1.857   2.517   0.496 -0.1996  0.0138 -0.3701
    1SOL     OW  489   1.418   2.503   0.469  0.3879 -0.0771  0.3957
    1SOL    HW2  490   1.492   2.445   0.452  0.4793  0.1816 -0.0987
    1SOL    HW3  491   1.456   2.590   0.471  0.0415  0.1009 -0.2862
    1SOL    MW4  492   1.433   2.507   0.467  0.3542 -0.0193  0.2405
    1SOL     OW  493   1.356   3.178   0.567  0.0698  0.4844 -0.8548
    1SOL    HW2  494   1.333   3.093   0.530  0.2648 -0.2921  0.7684
    1SOL    HW3  495   1.446   3.192   0.538  0.5803 -0.5968  0.1800
    1SOL    MW4  496   1.365   3.168   0.558  0.1628  0.2391 -0.5041
    1SOL     OW  497   2.137   3.292   0.519  0.1192  0.4050  0.3787
    1SOL    HW2  498   2.200   3.239   0.471  0.4176 -0.0078  1.2196
    1SOL    HW3  499   2.140   3.259   0.608 -0.6309  0.9842  0.6308
    1SOL    MW4  500   2.146   3.281   0.524  0.0596  0.4272  0.5230
    1SOL     OW  501   1.755   3.984   0.489 -0.1253 -0.0355 -0.3533
    1SOL    HW2  502   1.774   3.891   0.479  0.5808  0.0185  0.4119
    1SOL    HW3  503   1.837   4.028   0.467  0.1454  0.2962  1.2342
    1SOL    MW4  504   1.769   3.978   0.485  0.0036  0.0153 -0.0429
    1SOL     OW  505   1.534   4.121   0.380 -0.0112  0.0982  0.2531
    1SOL    HW2  506   1.457   4.063   0.382  0.6268 -0.8063 -1.0188
    1SOL    HW3  507   1.604   4.069   0.419  0.1003  0.7105  0.8647
    1SOL    MW4  508   1.533   4.106   0.385  0.0876  0.0601  0.1660
    1SOL     OW  509   1.650   4.361   0.509 -0.8366  0.1200 -0.4582
    1SOL    HW2  510   1.618   4.356   0.599  1.7929 -1.9489  0.4129
    1SOL    HW3  511   1.628   4.276   0.471  1.0979 -0.2805 -0.7063
    1SOL    MW4  512   1.643   4.349   0.516 -0.2345 -0.2060 -0.3760
    1SOL     OW  513   1.720   0.151   0.579  0.2549 -0.3173 -0.3364
    1SOL    HW2  514   1.735   0.083   0.515  1.2241  0.3664 -0.8556
    1SOL    HW3  515   1.776   0.127   0.653 -1.2840 -1.4053  0.4979
    1SOL    MW4  516   1.729   0.139   0.581  0.1796 -0.3706 -0.2949
    1SOL     OW  517   2.497   4.627   0.385 -0.1552  0.0161 -0.3108
    1SOL    HW2  518   2.590   4.638   0.368 -0.0621  0.7510  0.6725
    1SOL    HW3  519   2.468   4.565   0.318  1.2712 -1.1396  0.1180
    1SOL    MW4  520   2.505   4.620   0.374  0.0453 -0.0396 -0.1245
    1SOL     OW  521   2.428   0.234   0.444 -0.4556 -0.2662  0.3398
    1SOL    HW2  522   2.463   0.146   0.431 -0.2789  0.1034 -1.8999
    1SOL    HW3  523   2.333   0.224   0.434 -0.3765 -0.0984 -0.6438
    1SOL    MW4  524   2.420   0.221   0.441 -0.4218 -0.1953 -0.0854
    1SOL     OW  525   2.910   1.391   0.525  0.0564  0.2225 -0.0933
    1SOL    HW2  526   2.941   1.308   0.489  0.1190  0.1534  0.1175
    1SOL    HW3  527   2.897   1.373   0.618 -2.3028 -0.2461 -0.4801
    1SOL    MW4  528   2.912   1.378   0.533 -0.2468  0.1514 -0.1165
    1SOL     OW  529   2.795   0.793   0.489  0.4227 -0.5583  0.1226
    1SOL    HW2  530   2.860   0.825   0.426  1.3748 -1.2901  0.7152
    1SOL    HW3  531   2.824   0.704   0.509  0.1072 -0.3386  1.5682
    1SOL    MW4  532   2.808   0.785   0.483  0.5066 -0.6258  0.3915
    1SOL     OW  533   3.008   0.864   0.341  0.0172  0.2539  0.0512
    1SOL    HW2  534   3.009   0.872   0.245 -0.9955 -0.1791 -0.0015
    1SOL    HW3  535   3.096   0.833   0.363 -0.1614 -0.9784 -0.8677
    1SOL    MW4  536   3.020   0.861   0.331 -0.1400  0.0342 -0.0770
    1SOL     OW  537   3.024   1.133   0.494  0.2691 -0.0311 -0.3252
    1SOL    HW2  538   3.008   1.056   0.439  0.7714  0.4378 -1.1400
    1SOL    HW3  539   3.053   1.097   0.578 -2.8748 -0.8570  0.4845
    1SOL    MW4  540   3.025   1.118   0.498 -0.0792 -0.0781 -0.3259
    1SOL     OW  541   2.644   1.535   0.522  0.4841  0.0636 -0.2952
    1SOL    HW2  542   2.729   1.491   0.513  0.2789 -0.8217  1.7256
    1SOL    HW3  543   2.658   1.600   0.591 -0.1714  0.7207 -0.7783
    1SOL    MW4  544   2.657   1.538   0.530  0.3707  0.0335 -0.0923
    1SOL     OW  545   2.986   1.888   0.422  0.1709 -0.5996 -0.2003
    1SOL    HW2  546   2.935   1.924   0.494 -1.0232 -0.4705 -1.0922
    1SOL    HW3  547   3.056   1.952   0.407 -0.8241  0.4059 -0.5337
    1SOL    MW4  548   2.989   1.901   0.429 -0.1178 -0.4499 -0.3620
    1SOL     OW  549   3.089   4.395   0.512  0.6053  0.1980 -0.0137
    1SOL    HW2  550   3.083   4.474   0.459  1.4456  0.2202 -0.0833
    1SOL    HW3  551   3.051   4.419   0.596 -0.4807  0.2423 -0.4987
    1SOL    MW4  552   3.083   4.409   0.516  0.5729  0.2069 -0.0869
    1SOL     OW  553   2.116   2.082   0.439 -0.3924 -0.4735  0.2780
    1SOL    HW2  554   2.075   2.071   0.525 -0.3836 -1.0612  0.2119
    1SOL    HW3  555   2.210   2.080   0.457 -0.3540  1.8971  0.5592
    1SOL    MW4  556   2.123   2.080   0.453 -0.3860 -0.2384  0.3064
    1SOL     OW  557   1.599   1.613   0.594 -0.0467  0.7798 -0.4764
    1SOL    HW2  558   1.629   1.596   0.683 -0.0310  1.5997 -0.3161
    1SOL    HW3  559   1.509   1.646   0.605  0.2127  1.5781 -0.7024
    1SOL    MW4  560   1.591   1.615   0.607 -0.0104  0.9934 -0.4851
    1SOL     OW  561   2.404   2.135   0.494  0.0600  0.1449 -0.7439
    1SOL    HW2  562   2.388   2.229   0.489 -0.0686  0.0893 -1.3832
    1SOL    HW3  563   2.499   2.126   0.492  0.0448  0.1965 -1.8544
    1SOL    MW4  564   2.414   2.146   0.493  0.0410  0.1445 -0.9748
    1SOL     OW  565   2.687   2.155   0.452  0.6688 -0.1295  0.3800
    1SOL    HW2  566   2.715   2.152   0.360 -0.5323  1.0605 -0.0354
    1SOL    HW3  567   2.757   2.111   0.499  1.4202 -0.5471 -1.0836
    1SOL    MW4  568   2.700   2.149   0.446  0.6092 -0.0277  0.1320
    1SOL     OW  569   2.480   2.964   0.473  0.1485  0.0393  0.4077
    1SOL    HW2  570   2.568   3.000   0.478 -0.6040  2.1136 -0.3572
    1SOL    HW3  571   2.465   2.923   0.558  1.9902 -0.7174  0.3845
    1SOL    MW4  572   2.489   2.963   0.485  0.2921  0.2131  0.3037
    1SOL     OW  573   1.657   2.355   0.382  0.2972  0.2409  0.3094
    1SOL    HW2  574   1.695   2.334   0.296  0.9116  0.1664  0.5980
    1SOL    HW3  575   1.729   2.397   0.430 -0.7200  2.5035 -0.0637
    1SOL    MW4  576   1.671   2.358   0.377  0.2440  0.5300  0.2983
    1SOL     OW  577   1.953   2.957   0.491 -0.1158 -0.1223  0.1877
    1SOL    HW2  578   2.000   2.923   0.567  2.2662  1.1527 -0.6470
    1SOL    HW3  579   1.908   2.881   0.454  1.9192 -1.5672  0.6055
    1SOL    MW4  580   1.953   2.943   0.496  0.4669 -0.1445  0.1326
    1SOL     OW  581   2.255   3.983   0.456  0.0864  0.3649  0.2595
    1SOL    HW2  582   2.342   3.990   0.416 -0.4961  0.4540 -0.9986
    1SOL    HW3  583   2.220   3.901   0.422 -0.3837  0.3893  0.6808
    1SOL    MW4  584   2.262   3.973   0.447 -0.0525  0.3796  0.1491
    1SOL     OW  585   2.523   3.966   0.301  0.1306  0.0160  0.1303
    1SOL    HW2  586   2.610   3.932   0.322  0.4503  0.4195 -0.5183
    1SOL    HW3  587   2.489   3.906   0.234 -0.2547 -0.3656  0.6582
    1SOL    MW4  588   2.530   3.954   0.295  0.1218  0.0186  0.1144
    1SOL     OW  589   1.816   3.706   0.433  0.0823  0.1630 -0.1054
    1SOL    HW2  590   1.852   3.710   0.344  0.4015  1.3704  0.0563
    1SOL    HW3  591   1.888   3.675   0.487  0.0939  0.0754 -0.1716
    1SOL    MW4  592   1.830   3.703   0.428  0.1260  0.3104 -0.0928
    1SOL     OW  593   2.085   3.588   0.503 -0.1616  0.7742  0.0485
    1SOL    HW2  594   2.114   3.499   0.484  0.9687  1.3964 -1.2289
    1SOL    HW3  595   2.089   3.594   0.599  0.6644 -0.2545  0.0935
    1SOL    MW4  596   2.090   3.577   0.513  0.0966  0.7205 -0.1141
    1SOL     OW  597   2.336   4.411   0.290 -0.0545  0.0262  0.2959
    1SOL    HW2  598   2.310   4.436   0.379  0.2363  0.1445  0.3476
    1SOL    HW3  599   2.253   4.405   0.242 -0.1051  1.5273  0.1661
    1SOL    MW4  600   2.322   4.414   0.296 -0.0229  0.2408  0.2856
    1SOL     OW  601   2.030   4.156   0.425 -0.0793  0.2252  0.1485
    1SOL    HW2  602   2.107   4.100   0.418 -0.1895  0.0849  0.0470
    1SOL    HW3  603   2.047   4.228   0.364 -0.1698  0.0244 -0.1197
    1SOL    MW4  604   2.042   4.158   0.416 -0.1059  0.1802  0.0997
    1SOL     OW  605   3.124   4.629   0.373 -0.1653 -0.2786 -0.5383
    1SOL    HW2  606   3.204   4.611   0.323  0.0805 -0.2558 -0.1514
    1SOL    HW3  607   3.141   4.713   0.417 -0.0618 -0.7048  0.2447
    1SOL    MW4  608   3.137   4.638   0.372 -0.1192 -0.3319 -0.3840
    1SOL     OW  609   2.438   3.677   0.232 -0.0093  0.1338  0.0726
    1SOL    HW2  610   2.442   3.640   0.320  0.7847 -0.5564 -0.2506
    1SOL    HW3  611   2.478   3.611   0.176 -1.8789 -0.0882 -1.0285
    1SOL    MW4  612   2.444   3.664   0.236 -0.1509  0.0134 -0.1153
    1SOL     OW  613   2.534   4.250   0.401  0.0760 -0.3222  0.2463
    1SOL    HW2  614   2.467   4.304   0.359 -0.0753  0.1463  1.0637
    1SOL    HW3  615   2.532   4.167   0.353 -0.2975  0.0913 -0.4663
    1SOL    MW4  616   2.525   4.246   0.389  0.0069 -0.2055  0.2601
    1SOL     OW  617   2.720   0.294   0.466 -0.2153  0.4394 -0.3614
    1SOL    HW2  618   2.637   0.310   0.420 -0.4539  2.7430  0.8099
    1SOL    HW3  619   2.695   0.243   0.543 -0.2838 -0.4264 -0.9487
    1SOL    MW4  620   2.706   0.289   0.470 -0.2558  0.6291 -0.2844
    1SOL     OW  621   1.953   0.336   0.512 -0.3225 -0.0731  0.3467
    1SOL    HW2  622   1.880   0.279   0.537 -0.3058  0.3961  1.4915
    1SOL    HW3  623   1.967   0.391   0.588  1.1819 -0.1045  0.1027
    1SOL    MW4  624   1.945   0.336   0.525 -0.1217 -0.0153  0.4655
    1SOL     OW  625   3.134   0.451   0.355 -0.0300  0.1141  0.3022
    1SOL    HW2  626   3.137   0.359   0.383 -2.5261  0.4783  1.8804
    1SOL    HW3  627   3.174   0.499   0.427 -2.5301  0.6371  1.3816
    1SOL    MW4  628   3.140   0.445   0.368 -0.6897  0.2312  0.6528
    1SOL     OW  629   2.285   1.192   0.532 -0.3660  0.2928  0.1398
    1SOL    HW2  630   2.278   1.191   0.628  1.1926  1.1244  0.2844
    1SOL    HW3  631   2.323   1.278   0.512  1.6992 -0.8457 -1.0219
    1SOL    MW4  632   2.289   1.203   0.542  0.1123  0.2524  0.0057
    1SOL     OW  633   3.281   0.855   0.488  0.1264  0.4157  0.5680
    1SOL    HW2  634   3.324   0.936   0.459 -0.0942  0.4506  0.3365
    1SOL    HW3  635   3.216   0.885   0.552  0.7175  0.3242  1.2229
    1SOL    MW4  636   3.279   0.870   0.493  0.1752  0.4082  0.6239
    1SOL     OW  637   3.093   1.625   0.503  0.1690  0.0309 -0.5212
    1SOL    HW2  638   3.024   1.559   0.510  0.2219 -0.0804 -1.0153
    1SOL    HW3  639   3.050   1.701   0.464 -0.4597  1.1426  2.2242
    1SOL    MW4  640   3.078   1.626   0.499  0.0930  0.1628 -0.2242
    1SOL     OW  641   3.120   2.157   0.465 -0.9645  0.6102  0.6485
    1SOL    HW2  642   3.211   2.138   0.486 -0.7231 -0.0534 -0.8973
    1SOL    HW3  643   3.075   2.155   0.550  0.0921 -1.1329  1.2094
    1SOL    MW4  644   3.126   2.154   0.479 -0.7932  0.2925  0.5186
    1SOL     OW  645   3.582   1.673   0.469 -0.0469 -0.2943  0.1734
    1SOL    HW2  646   3.504   1.640   0.424  0.5860 -3.0741  1.0170
    1SOL    HW3  647   3.556   1.678   0.561  0.1549  0.7511  0.1795
    1SOL    MW4  648   3.568   1.670   0.475  0.0632 -0.5232  0.2855
    1SOL     OW  649   2.692   0.183   0.706  0.3206 -0.4350  0.2518
    1SOL    HW2  650   2.686   0.271   0.743  1.1207 -0.6426  0.8923
    1SOL    HW3  651   2.775   0.149   0.740  0.0690 -1.3882 -0.0914
    1SOL    MW4  652   2.702   0.190   0.716  0.3929 -0.5881  0.2909
    1SOL     OW  653   3.099   2.142   0.737 -0.0222  0.0966 -0.0794
    1SOL    HW2  654   3.064   2.204   0.801 -1.6512 -1.6293  0.7067
    1SOL    HW3  655   3.160   2.087   0.786 -0.2370 -0.3487 -0.3071
    1SOL    MW4  656   3.102   2.143   0.752 -0.2651 -0.1898 -0.0058
    1SOL     OW  657   3.008   2.307   0.269  0.1738 -0.1850 -0.4738
    1SOL    HW2  658   2.999   2.254   0.190 -0.7703  0.0674 -0.5503
    1SOL    HW3  659   3.040   2.246   0.336  0.5782 -0.4910 -0.9502
    1SOL    MW4  660   3.011   2.292   0.268  0.1028 -0.1922 -0.5468
    1SOL     OW  661   2.829   2.005   0.222 -0.4358 -0.1082  0.5224
    1SOL    HW2  662   2.889   1.951   0.274 -0.5993  0.0120  0.8355
    1SOL    HW3  663   2.760   1.945   0.195 -1.0435  0.1259  1.5520
    1SOL    MW4  664   2.828   1.990   0.225 -0.5376 -0.0615  0.6995
    1SOL     OW  665   2.679   2.459   0.476  0.0528 -0.2235 -0.5129
    1SOL    HW2  666   2.741   2.518   0.433  0.7473 -1.3333 -1.0697
    1SOL    HW3  667   2.697   2.373   0.437 -1.7739 -0.5880 -0.6125
    1SOL    MW4  668   2.690   2.455   0.465 -0.0966 -0.4182 -0.5994
    1SOL     OW  669   2.719   3.087   0.500  0.5388  0.1711 -0.2310
    1SOL    HW2  670   2.790   3.131   0.454  0.6438 -0.3620 -0.5897
    1SOL    HW3  671   2.706   3.137   0.580  0.6733  0.8306 -0.6226
    1SOL    MW4  672   2.726   3.099   0.504  0.5701  0.1879 -0.3299
    1SOL     OW  673   2.903   3.249   0.373 -0.1444  0.2033  0.0545
    1SOL    HW2  674   2.972   3.246   0.439 -1.3067  0.5971  1.3174
    1SOL    HW3  675   2.895   3.342   0.352  0.9659 -0.0262 -1.4668
    1SOL    MW4  676   2.911   3.261   0.379 -0.1516  0.2248  0.0204
    1SOL     OW  677   3.112   3.188   0.549 -0.1335  0.5885 -0.7652
    1SOL    HW2  678   3.151   3.101   0.541 -1.1701  0.1681 -1.3851
    1SOL    HW3  679   3.125   3.212   0.641 -0.8231 -0.7063 -0.3168
    1SOL    MW4  680   3.119   3.180   0.560 -0.3610  0.3624 -0.7878
    1SOL     OW  681   2.532   3.280   0.409  0.5983 -0.3455 -0.4964
    1SOL    HW2  682   2.600   3.220   0.441  0.8992  0.2926  0.0953
    1SOL    HW3  683   2.454   3.226   0.399  0.7746 -0.7670  0.3626
    1SOL    MW4  684   2.531   3.265   0.412  0.6614 -0.3169 -0.3050
    1SOL     OW  685   2.608   3.440   0.172  0.2069  0.1632  0.5316
    1SOL    HW2  686   2.578   3.369   0.229  3.4781 -0.9179  1.0365
    1SOL    HW3  687   2.675   3.399   0.116 -0.3981  2.0366 -1.6315
    1SOL    MW4  688   2.613   3.425   0.172  0.5586  0.2677  0.3128
    1SOL     OW  689   3.402   3.608   0.298 -0.0914 -0.3312 -0.1919
    1SOL    HW2  690   3.381   3.528   0.347 -0.5642 -0.4189 -0.5376
    1SOL    HW3  691   3.409   3.580   0.207  0.9762 -0.1988 -0.1599
    1SOL    MW4  692   3.400   3.594   0.293 -0.0129 -0.3254 -0.2333
    1SOL     OW  693   2.731   3.624   0.381  0.3055 -0.5498 -0.0163
    1SOL    HW2  694   2.723   3.566   0.306  0.1934  0.0856 -0.4955
    1SOL    HW3  695   2.646   3.620   0.424 -0.5480  1.2707 -1.5173
    1SOL    MW4  696   2.719   3.615   0.377  0.1783 -0.2260 -0.2775
    1SOL     OW  697   2.472   3.552   0.482 -0.1116  0.0781  0.2280
    1SOL    HW2  698   2.459   3.566   0.576 -1.9073  0.7686 -0.0900
    1SOL    HW3  699   2.491   3.458   0.474  1.3623  0.2580  1.3865
    1SOL    MW4  700   2.473   3.541   0.493 -0.1543  0.1931  0.3389
    1SOL     OW  701   3.702   3.931   0.491 -0.1276 -0.0427 -0.2126
    1SOL    HW2  702   3.620   3.980   0.485 -0.0522 -0.1780 -2.9092
    1SOL    HW3  703   3.682   3.846   0.452  1.1935 -0.1870 -0.6101
    1SOL    MW4  704   3.688   3.926   0.485  0.0565 -0.0796 -0.6208
    1SOL     OW  705   3.338   4.298   0.426 -0.1714 -0.2615 -0.0957
    1SOL    HW2  706   3.363   4.368   0.366  0.9302 -0.7848 -0.2745
    1SOL    HW3  707   3.248   4.317   0.450  0.7475  2.4128  1.5044
    1SOL    MW4  708   3.330   4.310   0.421  0.0951  0.0224  0.0919
    1SOL     OW  709   3.451   0.223   0.521  0.1763 -0.0333 -0.0005
    1SOL    HW2  710   3.492   0.145   0.483 -0.7868  0.2003 -1.5659
    1SOL    HW3  711   3.481   0.295   0.465 -0.5536  0.4480  0.2266
    1SOL    MW4  712   3.460   0.223   0.508 -0.0470  0.0610 -0.1770
    1SOL     OW  713   3.397   4.521   0.239 -0.2346 -0.0453  0.1617
    1SOL    HW2  714   3.461   4.561   0.298 -0.1614 -1.7488  1.2563
    1SOL    HW3  715   3.449   4.482   0.169 -0.2828  1.3696 -0.6840
    1SOL    MW4  716   3.412   4.521   0.238 -0.2315 -0.0830  0.1945
    1SOL     OW  717   2.879   4.218   0.459  0.2672  0.2067 -0.3660
    1SOL    HW2  718   2.946   4.284   0.474  1.1754 -0.7773  0.0366
    1SOL    HW3  719   2.927   4.135   0.457 -0.9349 -0.5207 -0.0736
    1SOL    MW4  720   2.894   4.215   0.461  0.2282 -0.0191 -0.2743
    1SOL     OW  721   2.319   4.509   0.578  0.2995  0.4052 -0.0337
    1SOL    HW2  722   2.375   4.461   0.638  0.1930  1.0017  0.5557
    1SOL    HW3  723   2.377   4.573   0.537  0.2816  0.2995 -0.2203
    1SOL    MW4  724   2.334   4.511   0.581  0.2830  0.4697  0.0194
    1SOL     OW  725   3.326   0.577   0.530  0.1104 -0.2100 -0.3295
    1SOL    HW2  726   3.405   0.546   0.484  1.7096  1.6217  1.1035
    1SOL    HW3  727   3.321   0.670   0.507 -1.7284 -0.3418 -0.4944
    1SOL    MW4  728   3.336   0.585   0.521  0.0787  0.0142 -0.1622
    1SOL     OW  729   2.876   0.512   0.482 -0.0224  0.6051 -0.3458
    1SOL    HW2  730   2.824   0.431   0.483  1.9172 -0.6629  0.9508
    1SOL    HW3  731   2.959   0.486   0.443  1.4029  1.4359  2.0481
    1SOL    MW4  732   2.880   0.498   0.477  0.4215  0.5474  0.1411
    1SOL     OW  733   3.688   0.948   0.478  0.2502  0.4966  0.0723
    1SOL    HW2  734   3.630   0.931   0.553 -1.6440 -0.8506 -1.6289
    1SOL    HW3  735   3.649   1.023   0.435  0.2873  0.1464 -0.5747
    1SOL    MW4  736   3.675   0.955   0.483  0.0050  0.2726 -0.2375
    1SOL     OW  737   2.790   0.014   0.390  0.6206  0.1028 -0.1620
    1SOL    HW2  738   2.792   0.109   0.401  0.3323  0.1100 -0.1823
    1SOL    HW3  739   2.880  -0.009   0.367  1.0031  0.2040  1.2189
    1SOL    MW4  740   2.802   0.023   0.388  0.6332  0.1168  0.0175
    1SOL     OW  741   3.387   2.078   0.523 -0.0618  0.1829  0.5840
    1SOL    HW2  742   3.470   2.123   0.507 -0.1587  0.0259 -0.3845
    1SOL    HW3  743   3.411   1.988   0.542 -0.0723 -0.1791 -1.0156
    1SOL    MW4  744   3.401   2.072   0.523 -0.0758  0.1144  0.2451
    1SOL     OW  745   3.735   1.986   0.241  0.1404  0.2981  0.1496
    1SOL    HW2  746   3.752   1.896   0.267 -0.6778  0.0523 -0.1700
    1SOL    HW3  747   3.822   2.023   0.224  0.4350 -0.6266 -0.3736
    1SOL    MW4  748   3.749   1.979   0.242  0.0713  0.1436  0.0384
    1SOL     OW  749   3.577   1.207   0.366 -0.0493  0.6775 -0.0906
    1SOL    HW2  750   3.484   1.210   0.389  0.0913  0.8528  0.4728
    1SOL    HW3  751   3.616   1.279   0.415  0.3667  0.6647 -0.4050
    1SOL    MW4  752   3.570   1.217   0.376  0.0238  0.6989 -0.0578
    1SOL     OW  753   3.845   1.747   0.390 -0.0311 -0.0120 -0.1454
    1SOL    HW2  754   3.764   1.718   0.431  0.9078 -0.6977  1.2847
    1SOL    HW3  755   3.871   1.675   0.332  0.3024 -0.4153  0.4989
    1SOL    MW4  756   3.838   1.734   0.388  0.1369 -0.1558  0.1283
    1SOL     OW  757   3.329   2.396   0.618  0.2496  0.1327  0.0098
    1SOL    HW2  758   3.264   2.325   0.620  0.0828  0.2985  0.5904
    1SOL    HW3  759   3.378   2.385   0.699  0.8157  0.1331 -0.3352
    1SOL    MW4  760   3.327   2.385   0.629  0.3026  0.1547  0.0408
    1SOL     OW  761   3.552   2.726   0.618  0.4386  0.4406  0.4333
    1SOL    HW2  762   3.588   2.709   0.705 -1.6454 -0.1420  1.2308
    1SOL    HW3  763   3.546   2.639   0.578 -0.5421  0.4656  0.5190
    1SOL    MW4  764   3.556   2.712   0.624  0.0346  0.3669  0.5498
    1SOL     OW  765   2.287   3.119   0.368  0.0720 -0.1971 -0.3738
    1SOL    HW2  766   2.222   3.062   0.326 -1.9123  0.4747  1.6722
    1SOL    HW3  767   2.350   3.058   0.407 -1.3012 -0.9832  0.6588
    1SOL    MW4  768   2.287   3.103   0.367 -0.3710 -0.2120  0.0324
    1SOL     OW  769   3.372   2.764   0.329  0.0457  0.1715  0.9093
    1SOL    HW2  770   3.406   2.684   0.368 -1.4596 -0.2906  1.3173
    1SOL    HW3  771   3.298   2.735   0.275 -1.3459  1.3978  2.1083
    1SOL    MW4  772   3.367   2.750   0.327 -0.3366  0.2723  1.1214
    1SOL     OW  773   2.889   2.841   0.743  0.0288  0.3442  0.6261
    1SOL    HW2  774   2.887   2.846   0.648  0.0310  1.1494  0.6584
    1SOL    HW3  775   2.970   2.796   0.764 -0.5342 -0.8791  0.2173
    1SOL    MW4  776   2.899   2.836   0.733 -0.0453  0.2892  0.5764
    1SOL     OW  777   3.171   0.221   0.500 -0.4006  0.0828  0.2874
    1SOL    HW2  778   3.135   0.185   0.581 -0.2104 -0.6364  0.0506
    1SOL    HW3  779   3.263   0.237   0.520 -0.3706 -0.0267  0.2353
    1SOL    MW4  780   3.178   0.219   0.513 -0.3715 -0.0265  0.2493
    1SOL     OW  781   3.011   3.970   0.456 -0.1502 -0.3467  0.3116
    1SOL    HW2  782   3.061   3.896   0.423 -0.7234  0.1360 -1.7347
    1SOL    HW3  783   3.052   3.992   0.540  0.8002 -2.1773  0.3449
    1SOL    MW4  784   3.023   3.963   0.463 -0.1004 -0.5245  0.0460
    1SOL     OW  785   3.606   3.678   0.472  0.2066  0.2411 -0.5369
    1SOL    HW2  786   3.542   3.669   0.401  0.7064 -1.0383 -0.8232
    1SOL    HW3  787   3.558   3.651   0.550  0.0129  0.5330 -0.5504
    1SOL    MW4  788   3.591   3.674   0.473  0.2472  0.1111 -0.5765
    1SOL     OW  789   3.559   3.204   0.482 -0.6068  0.6263 -0.8479
    1SOL    HW2  790   3.653   3.223   0.487 -0.4592 -0.0012 -1.1749
    1SOL    HW3  791   3.554   3.113   0.453 -1.2989  0.1085  0.8352
    1SOL    MW4  792   3.571   3.195   0.479 -0.6785  0.4749 -0.6689
    1SOL     OW  793   3.311   3.366   0.436 -0.0377  0.3496  0.2090
    1SOL    HW2  794   3.243   3.303   0.459 -0.1529  0.2414 -0.4305
    1SOL    HW3  795   3.392   3.327   0.469 -0.4065  0.9274  1.8276
    1SOL    MW4  796   3.313   3.352   0.443 -0.1018  0.4115  0.3382
    1SOL     OW  797   2.759   3.895   0.429  0.0594  0.3371  0.1243
    1SOL    HW2  798   2.851   3.921   0.423  0.0445  0.1089 -1.4080
    1SOL    HW3  799   2.758   3.805   0.397 -0.6780  0.3020  0.2469
    1SOL    MW4  800   2.771   3.887   0.424 -0.0401  0.3026 -0.0617
    1SOL     OW  801   2.840   3.285   0.087  0.4135 -0.2268  0.2706
    1SOL    HW2  802   2.888   3.239   0.156  0.0416  0.7443  1.1852
    1SOL    HW3  803   2.870   3.244   0.006 -0.2163 -2.3748  1.0817
    1SOL    MW4  804   2.851   3.274   0.085  0.2813 -0.3819  0.4983
    1SOL     OW  805   4.242   0.193   0.412 -0.3839  0.6884  0.0724
    1SOL    HW2  806   4.327   0.183   0.456  0.0601  1.2027 -0.6398
    1SOL    HW3  807   4.240   0.123   0.347 -1.2878 -0.4261  1.2817
    1SOL    MW4  808   4.253   0.182   0.409 -0.4444  0.6092  0.1380
    1SOL     OW  809   3.839   4.608   0.411  1.1992  0.1512 -0.8247
    1SOL    HW2  810   3.895   4.534   0.434 -1.2728 -1.3832  0.4185
    1SOL    HW3  811   3.884   4.684   0.447  0.6586 -1.4672  3.5407
    1SOL    MW4  812   3.852   4.608   0.418  0.8016 -0.2646 -0.0847
    1SOL     OW  813   3.555   0.463   0.410 -0.0602 -0.1711 -0.1012
    1SOL    HW2  814   3.607   0.543   0.410 -1.4233  0.7341  0.4939
    1SOL    HW3  815   3.529   0.450   0.319 -0.0199  0.1805 -0.1612
    1SOL    MW4  816   3.559   0.472   0.398 -0.2346 -0.0052 -0.0306
    1SOL     OW  817   3.718   0.683   0.403 -0.3676  0.4131  0.3268
    1SOL    HW2  818   3.811   0.667   0.387 -0.1082  0.2112  1.8985
    1SOL    HW3  819   3.714   0.775   0.430 -1.0230  1.2731 -2.5035
    1SOL    MW4  820   3.730   0.693   0.405 -0.4199  0.5000  0.1607
    1SOL     OW  821   4.001   0.619   0.427 -0.1363 -0.1433  0.2534
    1SOL    HW2  822   3.972   0.552   0.489 -0.9702 -0.5841 -0.5951
    1SOL    HW3  823   4.081   0.582   0.388 -0.6532 -0.6958 -0.2894
    1SOL    MW4  824   4.008   0.605   0.430 -0.3147 -0.2744  0.0699
    1SOL     OW  825   4.399   0.831   0.495  0.1456  0.3680  0.1244
    1SOL    HW2  826   4.304   0.820   0.499 -0.1756  2.3165 -1.3436
    1SOL    HW3  827   4.428   0.760   0.438 -0.4861  0.0281  0.2152
    1SOL    MW4  828   4.390   0.820   0.488  0.0200  0.5803 -0.0573
    1SOL     OW  829   3.650   1.376   0.128  0.3054 -0.3781  0.2707
    1SOL    HW2  830   3.620   1.294   0.169 -0.4247 -1.2780 -2.0018
    1SOL    HW3  831   3.576   1.435   0.137  0.3057 -0.4305  0.6324
    1SOL    MW4  832   3.636   1.373   0.135  0.2093 -0.5038  0.0186
    1SOL     OW  833   3.868   1.483   0.273 -0.2231 -0.3367  0.0134
    1SOL    HW2  834   3.816   1.437   0.208  1.1214 -0.5685 -0.9322
    1SOL    HW3  835   3.933   1.419   0.301  0.0240  0.1717  0.6111
    1SOL    MW4  836   3.870   1.468   0.268 -0.0129 -0.3002 -0.0325
    1SOL     OW  837   3.699   1.426   0.507  0.1793  0.1105  0.5376
    1SOL    HW2  838   3.752   1.440   0.429 -0.0389 -0.4610  0.2784
    1SOL    HW3  839   3.659   1.511   0.525  0.3646  0.2875  0.1265
    1SOL    MW4  840   3.700   1.439   0.499  0.1750  0.0585  0.4492
    1SOL     OW  841   3.301   1.219   0.436 -0.3220 -0.2695 -0.2151
    1SOL    HW2  842   3.317   1.216   0.530 -0.3450 -0.2214 -0.2099
    1SOL    HW3  843   3.206   1.228   0.428 -0.2576  0.3545 -0.2381
    1SOL    MW4  844   3.291   1.219   0.447 -0.3164 -0.1808 -0.2174
    1SOL     OW  845   3.351   1.519   0.416  0.1925 -0.1602  0.2875
    1SOL    HW2  846   3.325   1.428   0.402  0.3059 -0.2202  0.4674
    1SOL    HW3  847   3.271   1.563   0.444  0.0519 -0.1232 -0.1597
    1SOL    MW4  848   3.337   1.513   0.418  0.1893 -0.1633  0.2522
    1SOL     OW  849   3.906   2.330   0.644  0.3890  0.1854 -0.4338
    1SOL    HW2  850   3.846   2.339   0.571  0.6750  1.6389 -0.4951
    1SOL    HW3  851   3.861   2.370   0.718  0.6432 -0.0931 -0.1240
    1SOL    MW4  852   3.892   2.336   0.645  0.4599  0.3402 -0.4010
    1SOL     OW  853   4.390   2.789   0.486 -0.3716  0.0289 -0.2312
    1SOL    HW2  854   4.374   2.695   0.476 -0.9633  0.2190 -1.1198
    1SOL    HW3  855   4.309   2.830   0.456 -0.0571  0.8305  0.0116
    1SOL    MW4  856   4.377   2.782   0.481 -0.4082  0.1602 -0.3164
    1SOL     OW  857   2.967   2.557   0.389 -0.0719  0.0146  0.3785
    1SOL    HW2  858   2.981   2.468   0.356 -2.3065 -0.6009  1.0050
    1SOL    HW3  859   3.009   2.557   0.475  0.1833 -0.3369  0.2548
    1SOL    MW4  860   2.974   2.545   0.396 -0.3331 -0.1128  0.4448
    1SOL     OW  861   2.977   3.548   0.516 -0.2163  0.0779  0.1488
    1SOL    HW2  862   3.043   3.611   0.485 -0.4538  0.7274  0.9579
    1SOL    HW3  863   2.894   3.581   0.481 -0.4584  0.6979  1.2780
    1SOL    MW4  864   2.975   3.561   0.507 -0.2797  0.2456  0.4045
    1SOL     OW  865   3.212   2.944   0.473 -0.4534  0.5815 -0.0754
    1SOL    HW2  866   3.273   2.885   0.430  0.5056  0.5511  1.3108
    1SOL    HW3  867   3.126   2.910   0.449  0.0608  0.1800 -1.4249
    1SOL    MW4  868   3.209   2.932   0.464 -0.2589  0.5245 -0.0705
    1SOL     OW  869   4.141   2.908   0.417 -0.3050 -0.3806 -0.2477
    1SOL    HW2  870   4.112   2.924   0.327 -1.1555 -0.3294  0.0387
    1SOL    HW3  871   4.074   2.851   0.454 -0.1229 -0.1294  0.4663
    1SOL    MW4  872   4.128   2.902   0.410 -0.3934 -0.3407 -0.1157
    1SOL     OW  873   3.597   2.932   0.406 -0.0121  0.0293  0.4166
    1SOL    HW2  874   3.585   2.883   0.487 -0.1980  1.3103  1.1830
    1SOL    HW3  875   3.528   2.900   0.348 -0.2730 -0.4455  0.9811
    1SOL    MW4  876   3.587   2.921   0.409 -0.0708  0.1354  0.5922
    1SOL     OW  877   4.131   3.713   0.442 -0.0172  0.1448 -0.0060
    1SOL    HW2  878   4.061   3.652   0.462 -0.2882  0.1320 -0.9442
    1SOL    HW3  879   4.167   3.683   0.359  1.2800  0.0017  0.5870
    1SOL    MW4  880   4.127   3.701   0.434  0.1178  0.1242 -0.0516
    1SOL     OW  881   3.485   2.517   0.437 -0.7409 -0.7402 -0.0323
    1SOL    HW2  882   3.436   2.459   0.494 -0.9131 -1.9110 -1.3479
    1SOL    HW3  883   3.559   2.465   0.407 -0.0631  0.2111 -0.0360
    1SOL    MW4  884   3.489   2.503   0.440 -0.6742 -0.7691 -0.2063
    1SOL     OW  885   3.170   3.736   0.430 -0.3499 -0.3788  0.4540
    1SOL    HW2  886   3.228   3.699   0.364 -0.1902 -0.0767  0.4282
    1SOL    HW3  887   3.228   3.761   0.502 -0.4322  0.0828  0.3559
    1SOL    MW4  888   3.185   3.734   0.431 -0.3397 -0.2782  0.4376
    1SOL     OW  889   4.379   3.680   0.569 -0.0792  0.5317  0.2160
    1SOL    HW2  890   4.289   3.683   0.536 -0.3656 -2.0335  0.6504
    1SOL    HW3  891   4.414   3.597   0.536  2.4222  1.8393 -0.6011
    1SOL    MW4  892   4.372   3.670   0.560  0.2127  0.3655  0.1655
    1SOL     OW  893   3.489   4.091   0.520  0.1734 -0.1857 -0.7999
    1SOL    HW2  894   3.433   4.150   0.471  0.2212 -0.1104 -0.7649
    1SOL    HW3  895   3.496   4.131   0.607  1.3841  0.5271 -1.2036
    1SOL    MW4  896   3.483   4.104   0.525  0.3390 -0.0815 -0.8485
    1SOL     OW  897   4.026   4.406   0.468 -0.2141 -0.0074  0.1308
    1SOL    HW2  898   3.987   4.319   0.480  0.0076 -0.2354 -0.7614
    1SOL    HW3  899   4.113   4.398   0.507 -0.1027 -0.2605 -0.1661
    1SOL    MW4  900   4.032   4.393   0.475 -0.1702 -0.0710 -0.0260
    1SOL     OW  901   0.018   0.109   0.488  0.6092  0.1987 -0.0582
    1SOL    HW2  902   0.006   0.021   0.453  0.5990 -0.1208  0.7452
    1SOL    HW3  903   0.026   0.097   0.583 -1.7817  1.2804  0.3272
    1SOL    MW4  904   0.017   0.096   0.496  0.2924  0.2993  0.0987
    1SOL     OW  905   4.119   0.829   0.537  0.1795  0.2678 -0.7995
    1SOL    HW2  906   4.073   0.909   0.511 -0.4626  1.4171  3.5398
    1SOL    HW3  907   4.066   0.758   0.501 -1.2370  1.7172 -1.6405
    1SOL    MW4  908   4.106   0.830   0.529 -0.0925  0.6107 -0.3380
    1SOL     OW  909   0.327   1.643   0.534 -0.2501  0.3440 -0.2221
    1SOL    HW2  910   0.347   1.567   0.479 -1.6575 -0.8107  0.8269
    1SOL    HW3  911   0.233   1.636   0.550  0.0869  0.8216  2.0938
    1SOL    MW4  912   0.317   1.632   0.529 -0.3913  0.2548  0.2218
    1SOL     OW  913   4.243   0.467   0.384  0.1692  0.4564  0.3285
    1SOL    HW2  914   4.257   0.373   0.378  1.5958  0.6110  1.0842
    1SOL    HW3  915   4.330   0.505   0.372 -0.0731  1.5841  2.0248
    1SOL    MW4  916   4.256   0.460   0.382  0.3257  0.6256  0.6520
    1SOL     OW  917   4.460   1.109   0.513  0.2296 -0.0459  0.6098
    1SOL    HW2  918   4.443   1.017   0.491  0.8786  0.2382 -1.1684
    1SOL    HW3  919   4.498   1.106   0.601 -0.3597 -1.4205  0.8297
    1SOL    MW4  920   4.463   1.096   0.522  0.2370 -0.1898  0.4042
    1SOL     OW  921   3.557   4.643   0.458  0.7889 -0.1553  0.5863
    1SOL    HW2  922   3.539   4.582   0.530 -0.8591 -1.2402 -0.6980
    1SOL    HW3  923   3.650   4.632   0.439  1.0000 -0.6311  1.8542
    1SOL    MW4  924   3.567   4.634   0.465  0.5994 -0.3610  0.5841
    1SOL     OW  925   3.938   1.054   0.510  0.1042 -0.0065 -0.4256
    1SOL    HW2  926   3.907   1.113   0.579 -0.7341  0.3501 -1.1021
    1SOL    HW3  927   3.862   1.001   0.487  0.3729 -0.1172 -1.0844
    1SOL    MW4  928   3.924   1.055   0.516  0.0288  0.0260 -0.6018
    1SOL     OW  929   4.309   1.352   0.494  0.5667 -0.1248 -0.0280
    1SOL    HW2  930   4.291   1.335   0.586 -0.0762 -0.3843 -0.1987
    1SOL    HW3  931   4.363   1.279   0.466  0.0498 -0.4960 -0.0701
    1SOL    MW4  932   4.314   1.340   0.502  0.4139 -0.2080 -0.0561
    1SOL     OW  933   3.717   2.366   0.421  0.0449 -0.1739 -0.5667
    1SOL    HW2  934   3.741   2.370   0.328 -0.6704 -0.3054 -0.7661
    1SOL    HW3  935   3.696   2.273   0.436 -0.4315 -0.0464 -0.4327
    1SOL    MW4  936   3.717   2.354   0.411 -0.1123 -0.1743 -0.5753
    1SOL     OW  937   4.058   1.291   0.365 -0.1858  0.1243 -0.1490
    1SOL    HW2  938   4.028   1.206   0.398 -0.0406  0.1238 -0.0146
    1SOL    HW3  939   4.137   1.309   0.416 -0.8088  0.8472  0.5840
    1SOL    MW4  940   4.064   1.282   0.376 -0.2489  0.2195 -0.0345
    1SOL     OW  941   4.279   2.035   0.438 -0.2187 -0.0964  0.0109
    1SOL    HW2  942   4.306   2.122   0.408 -1.2825  0.1706 -0.1688
    1SOL    HW3  943   4.188   2.027   0.410 -0.0251 -1.4014 -0.2442
    1SOL    MW4  944   4.271   2.046   0.431 -0.3333 -0.2332 -0.0465
    1SOL     OW  945   4.011   2.000   0.388  0.1906 -0.0264  0.1257
    1SOL    HW2  946   3.998   2.025   0.480 -1.7727  0.5211 -0.2754
    1SOL    HW3  947   3.967   1.916   0.379  1.1773 -0.5215 -0.0986
    1SOL    MW4  948   4.004   1.992   0.399  0.0615 -0.0196  0.0432
    1SOL     OW  949   4.406   2.272   0.351  0.0963 -0.0211  0.1465
    1SOL    HW2  950   4.387   2.254   0.258  1.5440 -1.3680  0.0886
    1SOL    HW3  951   4.502   2.279   0.355 -0.0778  2.2259  1.1857
    1SOL    MW4  952   4.416   2.270   0.339  0.2646  0.0978  0.2759
    1SOL     OW  953   4.240   3.646   0.202 -0.6230  0.0939 -0.1708
    1SOL    HW2  954   4.319   3.696   0.180 -1.1302  1.1430  0.3664
    1SOL    HW3  955   4.273   3.559   0.226  0.3450  0.4425 -0.1921
    1SOL    MW4  956   4.255   3.641   0.202 -0.5627  0.2785 -0.1027
    1SOL     OW  957   4.328   2.523   0.451 -0.0306  0.1146  0.0760
    1SOL    HW2  958   4.274   2.513   0.530  0.0333  0.1060  0.1183
    1SOL    HW3  959   4.363   2.435   0.435  0.6079  0.2870  0.5073
    1SOL    MW4  960   4.325   2.510   0.459  0.0620  0.1361  0.1385
    1SOL     OW  961   0.314   3.780   0.405 -0.2374 -0.1202  0.6426
    1SOL    HW2  962   0.230   3.814   0.435 -0.5579  1.4996 -1.9072
    1SOL    HW3  963   0.379   3.839   0.444 -0.3381 -0.6460  1.6306
    1SOL    MW4  964   0.312   3.793   0.414 -0.2930  0.0243  0.4365
    1SOL     OW  965   4.305   3.402   0.301  0.1657 -0.2846  0.1764
    1SOL    HW2  966   4.280   3.332   0.361  1.1698 -0.4350  0.4274
    1SOL    HW3  967   4.384   3.439   0.340  0.0318  0.5345 -0.3234
    1SOL    MW4  968   4.312   3.398   0.314  0.2804 -0.1962  0.1436
    1SOL     OW  969   0.035   3.467   0.488 -0.2711  0.3818 -0.0014
    1SOL    HW2  970   0.035   3.375   0.515 -0.1530  0.2994 -0.2861
    1SOL    HW3  971   0.127   3.489   0.476 -0.2097  0.8855  1.2440
    1SOL    MW4  972   0.047   3.458   0.490 -0.2474  0.4370  0.1254
    1SOL     OW  973   3.885   3.557   0.519  0.0788  0.6003 -0.2147
    1SOL    HW2  974   3.808   3.586   0.470 -0.5595 -0.6783  0.0059
    1SOL    HW3  975   3.864   3.574   0.610  0.6308  1.5326 -0.2567
    1SOL    MW4  976   3.872   3.563   0.524  0.0670  0.5546 -0.1911
    1SOL     OW  977   4.192   3.184   0.474 -0.4290  0.4814 -0.6010
    1SOL    HW2  978   4.166   3.094   0.458  1.3701 -0.1730  0.0128
    1SOL    HW3  979   4.137   3.213   0.546  0.0365 -0.6381  0.2186
    1SOL    MW4  980   4.181   3.176   0.482 -0.1302  0.2470 -0.4119
    1SOL     OW  981   0.132   4.298   0.496 -0.3061 -0.0725 -0.6783
    1SOL    HW2  982   0.081   4.218   0.505 -0.2161 -0.2076 -1.2933
    1SOL    HW3  983   0.078   4.354   0.439 -0.5738  0.4797  0.1174
    1SOL    MW4  984   0.118   4.295   0.489 -0.3295 -0.0176 -0.6545
    1SOL     OW  985   4.140   3.991   0.519  0.2051 -0.0284 -0.1250
    1SOL    HW2  986   4.130   3.900   0.492  0.4140  0.1825 -0.9126
    1SOL    HW3  987   4.062   4.035   0.485  0.6447  0.3111 -0.6955
    1SOL    MW4  988   4.128   3.985   0.511  0.2904  0.0439 -0.3042
    1SOL     OW  989   3.900   4.149   0.531  0.4793  0.0748  0.3892
    1SOL    HW2  990   3.897   4.163   0.625  2.8954 -2.0051  0.8448
    1SOL    HW3  991   3.820   4.099   0.511  0.9324 -1.1990  1.6829
    1SOL    MW4  992   3.889   4.144   0.541  0.8578 -0.3676  0.6199
    1SOL     OW  993   4.166   4.614   0.303 -0.2393 -0.0511  0.3326
    1SOL    HW2  994   4.131   4.548   0.363  1.1166 -1.2887 -0.2014
    1SOL    HW3  995   4.112   4.607   0.225  0.0925 -0.7961  0.1531
    1SOL    MW4  996   4.155   4.604   0.301 -0.0162 -0.3133  0.2384
    1SOL     OW  997   0.204   4.663   0.858  0.5825 -0.2275 -0.4146
    1SOL    HW2  998   0.169   4.578   0.830  0.5553 -0.1280 -0.6819
    1SOL    HW3  999   0.136   4.726   0.835  0.9814 -0.0165 -1.0548
    1SOL    MW4 1000   0.191   4.660   0.851  0.6315 -0.1865 -0.5344
    1SOL     OW 1001   4.478   0.141   0.773 -0.0122 -0.1895  0.0323
    1SOL    HW2 1002   4.401   0.092   0.802 -0.0564  0.9944  2.0165
    1SOL    HW3 1003   4.451   0.233   0.777  1.1979  0.1904 -0.1949
    1SOL    MW4 1004   4.464   0.147   0.777  0.1421  0.0169  0.2641
    1SOL     OW 1005   4.411   0.410   0.823  0.1007  0.5009  0.3588
    1SOL    HW2 1006   4.414   0.379   0.914  0.8851 -0.3378  0.0660
    1SOL    HW3 1007   4.499   0.446   0.807  0.7498 -1.4815 -0.7633
    1SOL    MW4 1008   4.423   0.410   0.833  0.2899  0.1287  0.1721
    1SOL     OW 1009   0.190   0.509   0.781  0.0659 -0.3358  0.2718
    1SOL    HW2 1010   0.268   0.465   0.814 -0.4742 -1.0507  0.6240
    1SOL    HW3 1011   0.191   0.596   0.821 -0.5975 -1.2025  2.2197
    1SOL    MW4 1012   0.200   0.515   0.791 -0.0928 -0.5445  0.5753
    1SOL     OW 1013   0.217   0.766   0.863  0.2592  0.5688 -0.1159
    1SOL    HW2 1014   0.225   0.766   0.959  0.6465  1.8287 -0.1288
    1SOL    HW3 1015   0.133   0.808   0.847 -0.0278 -0.0838 -0.3213
    1SOL    MW4 1016   0.207   0.772   0.874  0.2724  0.6489 -0.1448
    1SOL     OW 1017   4.460   0.854   0.756  0.4953 -0.3936 -0.3878
    1SOL    HW2 1018   4.386   0.810   0.800  0.4459  0.2501  0.1761
    1SOL    HW3 1019   4.431   0.864   0.665  0.6927 -1.9493 -0.6446
    1SOL    MW4 1020   4.446   0.849   0.750  0.5145 -0.5140 -0.3472
    1SOL     OW 1021   0.017   1.116   0.816 -0.3294  0.1532  0.4789
    1SOL    HW2 1022   0.019   1.131   0.911  0.6342 -0.2924  0.5407
    1SOL    HW3 1023   0.001   1.022   0.807 -2.6173  0.5480  0.1529
    1SOL    MW4 1024   0.016   1.106   0.827 -0.5041  0.1466  0.4441
    1SOL     OW 1025   0.253   1.224   0.740 -0.3589 -0.0868 -0.1066
    1SOL    HW2 1026   0.171   1.179   0.761 -0.1890  0.1100  1.0402
    1SOL    HW3 1027   0.256   1.226   0.645 -1.0043 -1.3544 -0.1720
    1SOL    MW4 1028   0.243   1.218   0.731 -0.4217 -0.2280  0.0361
    1SOL     OW 1029   0.213   1.480   0.891 -0.2766  0.1136  0.0288
    1SOL    HW2 1030   0.293   1.519   0.858 -0.1663 -0.3720 -0.2774
    1SOL    HW3 1031   0.201   1.400   0.840  0.4070 -1.1524  1.7778
    1SOL    MW4 1032   0.222   1.474   0.880 -0.1718 -0.1175  0.2192
    1SOL     OW 1033   0.029   1.658   0.795  0.0116  0.3441  0.1279
    1SOL    HW2 1034  -0.054   1.628   0.833 -0.8173 -0.8130 -2.4935
    1SOL    HW3 1035   0.093   1.593   0.823 -0.8730 -1.3115 -1.5687
    1SOL    MW4 1036   0.026   1.646   0.804 -0.2145 -0.0271 -0.4417
    1SOL     OW 1037   0.026   1.936   0.839  0.2736  0.1010 -0.0894
    1SOL    HW2 1038   0.116   1.950   0.808 -0.1625  0.0313 -1.3853
    1SOL    HW3 1039   0.014   1.841   0.835  0.2777  0.0692  0.5009
    1SOL    MW4 1040   0.037   1.925   0.835  0.2166  0.0876 -0.1825
    1SOL     OW 1041   0.272   2.009   0.729  0.3262  0.3350  0.0742
    1SOL    HW2 1042   0.272   2.098   0.766  0.6006  0.3353  0.0807
    1SOL    HW3 1043   0.268   2.023   0.634  0.1567  0.3502  0.0848
    1SOL    MW4 1044   0.272   2.023   0.721  0.3400  0.3369  0.0765
    1SOL     OW 1045   0.286   2.251   0.876 -0.0216 -0.0322 -0.1965
    1SOL    HW2 1046   0.269   2.258   0.970 -0.3799  0.5376 -0.2979
    1SOL    HW3 1047   0.347   2.323   0.858 -1.1983  0.8666 -0.6821
    1SOL    MW4 1048   0.291   2.262   0.886 -0.2241  0.1614 -0.2739
    1SOL     OW 1049   0.046   2.438   0.815 -0.2241 -0.4204  0.0711
    1SOL    HW2 1050  -0.041   2.398   0.818  0.5924 -2.1976  0.3979
    1SOL    HW3 1051   0.104   2.373   0.854  1.0989  1.2050  0.8893
    1SOL    MW4 1052   0.042   2.424   0.820  0.0582 -0.4401  0.2221
    1SOL     OW 1053   0.097   2.688   0.908  0.2340 -0.0622 -0.7514
    1SOL    HW2 1054   0.074   2.701   1.000  0.5849  0.4816 -0.7407
    1SOL    HW3 1055   0.065   2.600   0.888  1.2669 -0.6793  0.2348
    1SOL    MW4 1056   0.090   2.678   0.917  0.4165 -0.0720 -0.6199
    1SOL     OW 1057   0.180   2.793   0.515 -0.0285  0.6213  0.1254
    1SOL    HW2 1058   0.178   2.712   0.566 -0.0291  0.8335  0.4613
    1SOL    HW3 1059   0.088   2.815   0.501 -0.0263  0.2080 -0.5280
    1SOL    MW4 1060   0.167   2.785   0.520 -0.0283  0.5949  0.0836
    1SOL     OW 1061   0.298   3.015   0.846  0.0881 -0.3064  0.1414
    1SOL    HW2 1062   0.300   3.025   0.941 -1.4294 -0.9038  0.2368
    1SOL    HW3 1063   0.311   2.921   0.832  1.6491 -0.0413 -0.3035
    1SOL    MW4 1064   0.300   3.004   0.857  0.0938 -0.3502  0.0953
    1SOL     OW 1065   0.060   3.200   0.823 -0.1485 -0.5237  0.2334
    1SOL    HW2 1066   0.142   3.156   0.844  1.0632  1.3328 -0.5618
    1SOL    HW3 1067   0.047   3.184   0.729 -0.6010 -0.6147  0.3068
    1SOL    MW4 1068   0.069   3.192   0.813 -0.0483 -0.2906  0.1382
    1SOL     OW 1069   0.018   3.475   0.890 -0.3211 -0.5043  0.2717
    1SOL    HW2 1070  -0.071   3.507   0.872 -0.3308 -1.1601 -0.8767
    1SOL    HW3 1071   0.019   3.387   0.853  0.6486 -0.6969  0.7583
    1SOL    MW4 1072   0.006   3.468   0.883 -0.1944 -0.6161  0.1844
    1SOL     OW 1073   0.230   3.588   0.766 -0.1293  0.0802  0.0839
    1SOL    HW2 1074   0.150   3.547   0.800  0.5805 -1.2673  0.1700
    1SOL    HW3 1075   0.229   3.568   0.672 -0.2114  0.6211 -0.0342
    1SOL    MW4 1076   0.219   3.580   0.758 -0.0464 -0.0260  0.0798
    1SOL     OW 1077   0.227   3.841   0.857 -0.4145 -0.0781 -0.0860
    1SOL    HW2 1078   0.242   3.818   0.949 -0.1340 -0.9250 -0.3423
    1SOL    HW3 1079   0.225   3.758   0.811  0.7439  0.4038 -1.0388
    1SOL    MW4 1080   0.229   3.827   0.863 -0.2247 -0.1264 -0.2455
    1SOL     OW 1081   0.020   4.020   0.801  0.0928 -0.6710 -0.0895
    1SOL    HW2 1082  -0.062   3.980   0.831  0.2389 -1.8393 -1.2080
    1SOL    HW3 1083   0.089   3.962   0.833  0.4397 -0.1712  0.0878
    1SOL    MW4 1084   0.018   4.007   0.809  0.1579 -0.7591 -0.2136
    1SOL     OW 1085   4.447   4.289   0.859 -0.3425  0.1382  0.3944
    1SOL    HW2 1086   4.454   4.280   0.954  0.1091  0.5767  0.4067
    1SOL    HW3 1087   4.465   4.201   0.825 -1.5355 -0.2486  0.7596
    1SOL    MW4 1088   4.451   4.276   0.867 -0.4406  0.1450  0.4441
    1SOL     OW 1089   0.170   4.406   0.740  0.0361 -0.1225 -0.2522
    1SOL    HW2 1090   0.097   4.359   0.782 -1.9274  1.3003 -1.9515
    1SOL    HW3 1091   0.175   4.367   0.652  0.5346  0.6080 -0.5475
    1SOL    MW4 1092   0.161   4.394   0.734 -0.1572  0.1612 -0.5153
    1SOL     OW 1093   0.672   4.654   0.824 -0.2542  0.6975 -0.3334
    1SOL    HW2 1094   0.661   4.648   0.919 -3.2453 -1.1378 -0.7449
    1SOL    HW3 1095   0.586   4.680   0.792 -0.2023 -2.0113 -2.8278
    1SOL    MW4 1096   0.659   4.657   0.833 -0.6420  0.0982 -0.7167
    1SOL     OW 1097   0.433   0.083   0.747 -0.0372  0.3864 -0.4104
    1SOL    HW2 1098   0.350   0.051   0.783  1.6710 -3.0545  0.6796
    1SOL    HW3 1099   0.426   0.066   0.653  0.3351 -2.2002 -0.0152
    1SOL    MW4 1100   0.421   0.077   0.739  0.2373 -0.4089 -0.2144
    1SOL     OW 1101   0.426   0.352   0.825  0.4332  0.6876 -0.0070
    1SOL    HW2 1102   0.484   0.398   0.765  1.0579 -0.3578 -0.2154
    1SOL    HW3 1103   0.431   0.260   0.798 -1.6463  0.6398 -0.3133
    1SOL    MW4 1104   0.434   0.346   0.813  0.2413  0.5434 -0.0749
    1SOL     OW 1105   0.652   0.467   0.701 -0.1057 -0.0972  0.2795
    1SOL    HW2 1106   0.737   0.441   0.735  0.3284  0.0219 -0.6970
    1SOL    HW3 1107   0.669   0.489   0.609 -0.9611  1.0539  0.3897
    1SOL    MW4 1108   0.665   0.467   0.693 -0.1613  0.0703  0.1652
    1SOL     OW 1109   0.640   0.739   0.802 -0.4526  0.1989  0.2708
    1SOL    HW2 1110   0.565   0.774   0.754 -0.8236 -0.0917  0.6412
    1SOL    HW3 1111   0.647   0.648   0.771  0.3414  0.5097 -0.4878
    1SOL    MW4 1112   0.631   0.731   0.791 -0.3969  0.2016  0.2195
    1SOL     OW 1113   0.436   0.903   0.715  0.4242 -0.4531  0.1028
    1SOL    HW2 1114   0.454   0.970   0.781 -1.2460  0.5193 -0.3902
    1SOL    HW3 1115   0.357   0.859   0.747 -0.5786  0.2216 -1.3442
    1SOL    MW4 1116   0.428   0.906   0.728  0.0716 -0.2358 -0.1531
    1SOL     OW 1117   0.495   1.144   0.871  0.0483  0.5589  0.3219
    1SOL    HW2 1118   0.566   1.180   0.817 -0.0542 -1.4550 -1.2102
    1SOL    HW3 1119   0.415   1.178   0.831 -0.0275 -0.9310 -0.8275
    1SOL    MW4 1120   0.494   1.153   0.858  0.0248  0.0967 -0.0319
    1SOL     OW 1121   0.697   1.274   0.732  0.0874 -0.0058 -0.1846
    1SOL    HW2 1122   0.707   1.369   0.740 -0.4865 -0.0255  0.8257
    1SOL    HW3 1123   0.677   1.260   0.640  0.0292  0.8649 -0.3084
    1SOL    MW4 1124   0.696   1.285   0.721  0.0040  0.1063 -0.0677
    1SOL     OW 1125   0.682   1.545   0.831 -0.6414 -0.3299 -0.1415
    1SOL    HW2 1126   0.695   1.524   0.924  0.6735 -0.0399 -0.2514
    1SOL    HW3 1127   0.588   1.563   0.823 -0.4721  1.3735  1.4856
    1SOL    MW4 1128   0.671   1.544   0.842 -0.4456 -0.0669  0.0587
    1SOL     OW 1129   0.413   1.635   0.792  0.4064 -0.1144  0.0813
    1SOL    HW2 1130   0.441   1.723   0.816  2.1395 -0.7015  0.2952
    1SOL    HW3 1131   0.388   1.642   0.700  0.4260  0.6295  0.1314
    1SOL    MW4 1132   0.413   1.647   0.783  0.6377 -0.0938  0.1161
    1SOL     OW 1133   0.492   1.899   0.853  0.0570  0.0952 -0.0341
    1SOL    HW2 1134   0.501   1.923   0.946  1.7403 -0.1123 -0.1295
    1SOL    HW3 1135   0.409   1.939   0.826  0.0520  1.0178  1.2876
    1SOL    MW4 1136   0.482   1.907   0.862  0.2784  0.1895  0.1277
    1SOL     OW 1137   0.643   2.099   0.748 -0.2362  0.3165  0.0935
    1SOL    HW2 1138   0.600   2.024   0.788  1.9565 -0.7092  0.5946
    1SOL    HW3 1139   0.627   2.089   0.654 -0.8960 -0.1651  0.2562
    1SOL    MW4 1140   0.635   2.088   0.741 -0.0339  0.1178  0.1811
    1SOL     OW 1141   0.690   2.362   0.835  0.0890 -0.2779  0.2459
    1SOL    HW2 1142   0.679   2.355   0.930 -0.1478 -1.4532  0.1321
    1SOL    HW3 1143   0.696   2.272   0.804 -1.9718  0.0280 -1.1080
    1SOL    MW4 1144   0.690   2.349   0.843 -0.2141 -0.3927  0.0523
    1SOL     OW 1145   0.429   2.469   0.781  0.1585 -0.7150 -0.2109
    1SOL    HW2 1146   0.518   2.438   0.769  0.8458  1.2780 -0.5926
    1SOL    HW3 1147   0.391   2.466   0.693  0.3481 -0.1434 -0.3147
    1SOL    MW4 1148   0.436   2.465   0.768  0.2742 -0.3767 -0.2750
    1SOL     OW 1149   0.365   2.721   0.862 -0.1824  0.6119 -0.1825
    1SOL    HW2 1150   0.385   2.632   0.833  2.5865  0.7276  1.2723
    1SOL    HW3 1151   0.270   2.720   0.876 -0.9657 -0.7445 -4.6067
    1SOL    MW4 1152   0.355   2.709   0.860  0.0796  0.4480 -0.5744
    1SOL     OW 1153   0.592   2.862   0.810  0.1331 -0.4947 -0.0129
    1SOL    HW2 1154   0.673   2.813   0.826  0.1878  0.3077  2.4137
    1SOL    HW3 1155   0.523   2.803   0.840  0.0138 -0.1544  0.3886
    1SOL    MW4 1156   0.593   2.848   0.816  0.1246 -0.3440  0.3602
    1SOL     OW 1157   0.662   3.117   0.853  0.0424 -0.1203  0.4534
    1SOL    HW2 1158   0.591   3.175   0.827  0.2557 -0.1953 -0.2916
    1SOL    HW3 1159   0.623   3.030   0.853  0.1357 -0.1599  0.0578
    1SOL    MW4 1160   0.648   3.113   0.850  0.0828 -0.1354  0.3029
    1SOL     OW 1161   0.441   3.219   0.700  0.2312 -0.1803 -0.5171
    1SOL    HW2 1162   0.429   3.293   0.759  0.3105 -0.5247 -0.0644
    1SOL    HW3 1163   0.399   3.146   0.745 -0.8672 -0.1586 -1.5006
    1SOL    MW4 1164   0.434   3.219   0.714  0.0968 -0.2229 -0.5871
    1SOL     OW 1165   0.442   3.459   0.859 -0.1413 -0.5218 -0.2196
    1SOL    HW2 1166   0.442   3.473   0.953 -0.3165 -1.5318 -0.0597
    1SOL    HW3 1167   0.363   3.502   0.827  0.7054  1.1481 -0.1238
    1SOL    MW4 1168   0.432   3.466   0.867 -0.0527 -0.4349 -0.1859
    1SOL     OW 1169   0.587   3.620   0.705 -0.0698  0.1466 -0.2833
    1SOL    HW2 1170   0.538   3.553   0.752  0.6298  0.4017  0.8076
    1SOL    HW3 1171   0.585   3.697   0.762  1.7534  0.1074 -0.1291
    1SOL    MW4 1172   0.581   3.622   0.718  0.2630  0.1752 -0.1190
    1SOL     OW 1173   0.635   3.831   0.898 -0.2344  0.1094  0.0949
    1SOL    HW2 1174   0.708   3.874   0.852 -0.6275  0.4671 -0.2074
    1SOL    HW3 1175   0.561   3.890   0.884 -0.1705  0.6483  1.9107
    1SOL    MW4 1176   0.635   3.844   0.890 -0.2778  0.2277  0.2946
    1SOL     OW 1177   0.443   4.004   0.788 -0.2258  0.0706  0.1725
    1SOL    HW2 1178   0.414   4.095   0.800 -1.2977  0.0297 -1.9712
    1SOL    HW3 1179   0.371   3.952   0.822  0.1036 -0.0151  0.7653
    1SOL    MW4 1180   0.430   4.009   0.794 -0.3238  0.0544 -0.0321
    1SOL     OW 1181   0.407   4.292   0.859  0.0590  0.3929 -0.2896
    1SOL    HW2 1182   0.402   4.279   0.954  0.3474 -0.5587 -0.3957
    1SOL    HW3 1183   0.334   4.351   0.839 -1.1478 -0.8778  0.2863
    1SOL    MW4 1184   0.396   4.298   0.869 -0.0622  0.0997 -0.2276
    1SOL     OW 1185   0.685   4.368   0.862  0.3929 -0.4536  0.1330
    1SOL    HW2 1186   0.596   4.337   0.876  0.3711 -0.3018  0.3384
    1SOL    HW3 1187   0.675   4.460   0.836  0.4327 -0.7508 -0.9410
    1SOL    MW4 1188   0.672   4.376   0.860  0.3954 -0.4725  0.0184
    1SOL     OW 1189   1.128   4.607   0.839  0.1811  0.2960 -0.0848
    1SOL    HW2 1190   1.211   4.653   0.828 -0.0526  1.0029  0.9420
    1SOL    HW3 1191   1.062   4.670   0.810  0.0190 -0.3833 -1.2025
    1SOL    MW4 1192   1.130   4.622   0.834  0.1289  0.2990 -0.0968
    1SOL     OW 1193   0.922   0.096   0.768 -0.4198 -0.0621  0.3901
    1SOL    HW2 1194   0.910   0.189   0.785  0.5175 -0.0553  1.0504
    1SOL    HW3 1195   0.838   0.057   0.792 -0.9021  0.6367 -0.1369
    1SOL    MW4 1196   0.909   0.103   0.774 -0.3599  0.0310  0.4077
    1SOL     OW 1197   0.908   0.407   0.840 -0.3775 -0.5319  0.4827
    1SOL    HW2 1198   0.896   0.412   0.934  0.0680  1.6669  0.4557
    1SOL    HW3 1199   0.997   0.439   0.826 -1.1389  1.0876 -0.8323
    1SOL    MW4 1200   0.918   0.412   0.850 -0.4192 -0.0281  0.3057
    1SOL     OW 1201   1.172   0.497   0.783 -0.8245  0.0193 -0.1349
    1SOL    HW2 1202   1.255   0.454   0.801 -0.6737  0.4828  0.2657
    1SOL    HW3 1203   1.177   0.522   0.690  0.2334  1.7045  0.3577
    1SOL    MW4 1204   1.183   0.495   0.773 -0.6651  0.3028 -0.0170
    1SOL     OW 1205   1.122   0.778   0.819 -0.0933 -0.2891  0.0664
    1SOL    HW2 1206   1.126   0.802   0.912 -2.0901 -1.4182  0.4709
    1SOL    HW3 1207   1.116   0.683   0.819  0.2098 -0.3169 -1.2365
    1SOL    MW4 1208   1.122   0.769   0.831 -0.3167 -0.4417 -0.0521
    1SOL     OW 1209   0.872   0.887   0.724  0.3375  0.0247 -0.3219
    1SOL    HW2 1210   0.954   0.861   0.765 -0.3584  0.2937  1.2655
    1SOL    HW3 1211   0.807   0.825   0.757 -0.0794 -0.3433 -1.7538
    1SOL    MW4 1212   0.874   0.876   0.733  0.1906  0.0116 -0.3014
    1SOL     OW 1213   0.931   1.147   0.787  0.3117  0.1185 -0.1748
    1SOL    HW2 1214   0.910   1.060   0.754 -1.8116  0.3324  0.4798
    1SOL    HW3 1215   0.849   1.196   0.778  0.3691  0.9175  2.9451
    1SOL    MW4 1216   0.917   1.142   0.782  0.0392  0.2521  0.3232
    1SOL     OW 1217   1.155   1.290   0.702  0.2297  0.0262  0.0094
    1SOL    HW2 1218   1.081   1.239   0.735 -0.8561  1.4208 -0.1843
    1SOL    HW3 1219   1.145   1.288   0.607  1.5596 -1.3776 -0.1180
    1SOL    MW4 1220   1.144   1.283   0.694  0.2620  0.0250 -0.0330
    1SOL     OW 1221   1.104   1.539   0.842 -0.4324  0.0670  0.0454
    1SOL    HW2 1222   1.029   1.581   0.799 -2.3363 -2.6519  0.6292
    1SOL    HW3 1223   1.117   1.458   0.793  0.9683 -0.3814  1.1386
    1SOL    MW4 1224   1.096   1.534   0.830 -0.4989 -0.3508  0.2666
    1SOL     OW 1225   0.904   1.672   0.704 -0.5054 -0.1983  0.1311
    1SOL    HW2 1226   0.916   1.751   0.757 -1.5053 -0.1127  0.2254
    1SOL    HW3 1227   0.822   1.634   0.735 -0.3874 -0.9003 -0.4040
    1SOL    MW4 1228   0.895   1.677   0.715 -0.6217 -0.2798  0.0730
    1SOL     OW 1229   0.880   1.933   0.819 -0.2109 -0.0000  0.0441
    1SOL    HW2 1230   0.859   1.941   0.912 -0.6563  0.3788 -0.0827
    1SOL    HW3 1231   0.821   1.996   0.776  0.5289  0.3857 -0.4181
    1SOL    MW4 1232   0.869   1.942   0.826 -0.1720  0.1009 -0.0336
    1SOL     OW 1233   1.128   2.052   0.753 -0.2575 -0.1087 -0.0703
    1SOL    HW2 1234   1.108   2.135   0.797  0.7999 -0.2590  0.7389
    1SOL    HW3 1235   1.056   1.994   0.776 -0.9688  0.5629 -0.5830
    1SOL    MW4 1236   1.116   2.056   0.762 -0.2118 -0.0398 -0.0312
    1SOL     OW 1237   1.108   2.339   0.862 -0.2769  0.0405  0.2871
    1SOL    HW2 1238   1.126   2.328   0.956  0.8863  0.1025  0.0800
    1SOL    HW3 1239   1.191   2.368   0.825 -0.6096 -0.4458 -0.8531
    1SOL    MW4 1240   1.121   2.342   0.870 -0.1673 -0.0153  0.1094
    1SOL     OW 1241   0.905   2.497   0.759  0.2187  0.1879  0.3326
    1SOL    HW2 1242   0.976   2.447   0.799 -0.1039  1.4475  2.5898
    1SOL    HW3 1243   0.826   2.450   0.784  0.1245 -0.0324 -0.3827
    1SOL    MW4 1244   0.904   2.484   0.768  0.1636  0.3250  0.5361
    1SOL     OW 1245   0.829   2.743   0.880  0.1890  0.0948 -0.3363
    1SOL    HW2 1246   0.857   2.739   0.971  0.4183 -2.0581 -0.4834
    1SOL    HW3 1247   0.849   2.656   0.844 -0.2801  0.7725 -2.3216
    1SOL    MW4 1248   0.835   2.731   0.887  0.1574 -0.0999 -0.6177
    1SOL     OW 1249   1.098   2.870   0.784 -0.0339  0.5168  0.0328
    1SOL    HW2 1250   1.015   2.832   0.812 -0.0113  0.5059  0.0846
    1SOL    HW3 1251   1.097   2.859   0.688 -0.2557  0.8487 -0.0038
    1SOL    MW4 1252   1.087   2.863   0.775 -0.0601  0.5593  0.0348
    1SOL     OW 1253   1.099   3.140   0.875 -0.2939 -0.2940 -0.1198
    1SOL    HW2 1254   1.025   3.186   0.835  0.2130 -0.9311 -1.8307
    1SOL    HW3 1255   1.095   3.052   0.839  0.9302 -0.5192  0.2782
    1SOL    MW4 1256   1.088   3.134   0.865 -0.0656 -0.4077 -0.2930
    1SOL     OW 1257   0.863   3.283   0.789 -0.0080  0.2083 -0.0395
    1SOL    HW2 1258   0.856   3.375   0.813 -0.5693  0.6475 -1.7641
    1SOL    HW3 1259   0.787   3.242   0.829 -0.9231  0.9165 -1.0171
    1SOL    MW4 1260   0.852   3.290   0.797 -0.2028  0.3595 -0.3961
    1SOL     OW 1261   0.843   3.542   0.847 -0.3846  0.1033  0.2300
    1SOL    HW2 1262   0.910   3.584   0.792 -0.3164  0.5002  0.6169
    1SOL    HW3 1263   0.763   3.590   0.826 -0.8475 -1.2649 -1.2710
    1SOL    MW4 1264   0.842   3.554   0.837 -0.4366 -0.0248  0.0830
    1SOL     OW 1265   1.113   3.579   0.751 -0.6335 -0.1643  0.0530
    1SOL    HW2 1266   1.173   3.557   0.822 -0.6714  0.5879  0.3169
    1SOL    HW3 1267   1.152   3.537   0.674 -0.9485 -1.5418  0.6307
    1SOL    MW4 1268   1.126   3.571   0.750 -0.6800 -0.2468  0.1641
    1SOL     OW 1269   1.103   3.881   0.843  0.4392  0.1177 -0.1245
    1SOL    HW2 1270   1.112   3.887   0.938  0.0764 -0.0657 -0.0770
    1SOL    HW3 1271   1.116   3.788   0.823  1.6369  0.3359 -0.3769
    1SOL    MW4 1272   1.106   3.869   0.853  0.5494  0.1225 -0.1516
    1SOL     OW 1273   0.841   3.960   0.768 -0.2562 -0.4006 -0.0402
    1SOL    HW2 1274   0.863   4.049   0.796  0.3155 -0.2914 -0.8199
    1SOL    HW3 1275   0.907   3.904   0.809  0.9502 -0.1756 -1.6147
    1SOL    MW4 1276   0.852   3.964   0.777 -0.0216 -0.3562 -0.3509
    1SOL     OW 1277   0.911   4.201   0.864  0.0323 -0.0745 -0.4739
    1SOL    HW2 1278   0.970   4.255   0.811  1.3384 -0.3481  0.6769
    1SOL    HW3 1279   0.831   4.252   0.869  1.3951  2.0028  0.9505
    1SOL    MW4 1280   0.908   4.215   0.857  0.3845  0.1631 -0.1341
    1SOL     OW 1281   1.129   4.343   0.738  0.6003  0.4008 -0.3446
    1SOL    HW2 1282   1.202   4.312   0.791 -1.1613 -0.6607  1.5271
    1SOL    HW3 1283   1.114   4.433   0.768 -0.5252 -0.2660  1.1604
    1SOL    MW4 1284   1.137   4.351   0.749  0.2195  0.1726  0.1009
    1SOL     OW 1285   1.604   4.633   0.894  0.2233  0.0549 -0.4179
    1SOL    HW2 1286   1.587   4.613   0.987  1.4142  0.7220 -0.0532
    1SOL    HW3 1287   1.526   4.682   0.866  0.1131  0.3422  0.3772
    1SOL    MW4 1288   1.591   4.637   0.903  0.3659  0.1802 -0.2649
    1SOL     OW 1289   1.382   0.087   0.797 -0.1406  0.6709 -0.1646
    1SOL    HW2 1290   1.361   0.177   0.819  0.8227  0.8335  0.1467
    1SOL    HW3 1291   1.410   0.089   0.706  0.8780  0.8721  0.1408
    1SOL    MW4 1292   1.383   0.099   0.788  0.1209  0.7189 -0.0833
    1SOL     OW 1293   1.406   0.358   0.832  0.0430  0.4095 -0.9035
    1SOL    HW2 1294   1.401   0.367   0.927  0.4476 -2.1083 -0.5977
    1SOL    HW3 1295   1.487   0.404   0.808 -0.5901  1.9253 -0.1650
    1SOL    MW4 1296   1.416   0.365   0.841  0.0130  0.2773 -0.7657
    1SOL     OW 1297   1.604   0.527   0.766  0.0301 -0.3219 -0.3758
    1SOL    HW2 1298   1.601   0.619   0.791  1.1076 -0.4252  0.1703
    1SOL    HW3 1299   1.664   0.487   0.828 -2.0570 -1.8341  0.7343
    1SOL    MW4 1300   1.612   0.534   0.777 -0.1031 -0.5351 -0.1573
    1SOL     OW 1301   1.608   0.798   0.862 -0.0780  0.1027  0.5564
    1SOL    HW2 1302   1.671   0.840   0.803  0.5351 -1.5389 -0.0063
    1SOL    HW3 1303   1.524   0.838   0.839  0.4115  0.6788 -0.2867
    1SOL    MW4 1304   1.605   0.808   0.851  0.0676 -0.0378  0.3709
    1SOL     OW 1305   1.357   0.887   0.703  0.2018  0.0923  0.0917
    1SOL    HW2 1306   1.352   0.971   0.749  1.8500  0.1278  0.2125
    1SOL    HW3 1307   1.278   0.840   0.731 -0.6541  1.5358  0.1408
    1SOL    MW4 1308   1.346   0.892   0.713  0.3062  0.2875  0.1141
    1SOL     OW 1309   1.370   1.129   0.818 -0.1246 -0.2253  0.1122
    1SOL    HW2 1310   1.452   1.153   0.774 -0.7055  0.0823 -0.8247
    1SOL    HW3 1311   1.305   1.190   0.782 -1.1620 -1.7445 -0.6296
    1SOL    MW4 1312   1.372   1.141   0.807 -0.3382 -0.3853 -0.1093
    1SOL     OW 1313   1.578   1.165   0.635  0.2522 -0.1232 -0.0146
    1SOL    HW2 1314   1.524   1.232   0.594 -0.7919 -0.7279  0.3593
    1SOL    HW3 1315   1.609   1.111   0.563  2.2032  1.5460 -0.4622
    1SOL    MW4 1316   1.575   1.167   0.620  0.3718  0.0174 -0.0244
    1SOL     OW 1317   1.706   1.625   0.856 -0.1982  0.3544  0.1809
    1SOL    HW2 1318   1.649   1.598   0.927  0.2425  2.4554  1.3751
    1SOL    HW3 1319   1.789   1.579   0.872 -0.5826 -0.3467  0.1595
    1SOL    MW4 1320   1.710   1.615   0.867 -0.1907  0.5391  0.3356
    1SOL     OW 1321   1.310   1.685   0.684 -0.7654  0.1343  0.0060
    1SOL    HW2 1322   1.324   1.768   0.730 -1.3997  0.7457 -0.8854
    1SOL    HW3 1323   1.236   1.644   0.728  0.1048 -0.3776  1.0096
    1SOL    MW4 1324   1.302   1.690   0.696 -0.7343  0.1472  0.0208
    1SOL     OW 1325   1.394   1.936   0.804  0.1186 -0.0106  0.0157
    1SOL    HW2 1326   1.377   1.911   0.895  1.4885  1.2056  0.6152
    1SOL    HW3 1327   1.315   1.982   0.776 -0.4229 -0.6438  0.4817
    1SOL    MW4 1328   1.381   1.939   0.812  0.2278  0.0664  0.1563
    1SOL     OW 1329   1.608   2.085   0.738  0.0200 -0.0328 -0.4490
    1SOL    HW2 1330   1.536   2.022   0.749  1.4458 -1.7751 -0.8788
    1SOL    HW3 1331   1.615   2.097   0.644  0.1312  0.3455 -0.3923
    1SOL    MW4 1332   1.599   2.078   0.727  0.2228 -0.2129 -0.4982
    1SOL     OW 1333   1.598   2.349   0.839  0.5099 -0.6417  0.1049
    1SOL    HW2 1334   1.517   2.393   0.814  1.3135  0.8191 -0.0258
    1SOL    HW3 1335   1.593   2.264   0.796  0.0968  0.3321 -1.8620
    1SOL    MW4 1336   1.587   2.344   0.830  0.5614 -0.3204 -0.1718
    1SOL     OW 1337   1.359   2.461   0.747  0.1758  0.3927 -0.6094
    1SOL    HW2 1338   1.352   2.549   0.784 -2.0945  0.3921 -1.0067
    1SOL    HW3 1339   1.359   2.475   0.653  0.9489  0.0361 -0.6644
    1SOL    MW4 1340   1.358   2.475   0.740 -0.0217  0.3455 -0.6690
    1SOL     OW 1341   1.335   2.721   0.837 -0.1215 -0.3312  0.4850
    1SOL    HW2 1342   1.333   2.711   0.932 -2.3654  0.3736  0.5228
    1SOL    HW3 1343   1.257   2.771   0.816  0.1583 -0.7917 -1.7810
    1SOL    MW4 1344   1.325   2.726   0.847 -0.3804 -0.2990  0.1911
    1SOL     OW 1345   1.608   2.839   0.798 -0.5967  0.5769 -0.3449
    1SOL    HW2 1346   1.625   2.930   0.818  1.1307 -0.4414  3.1350
    1SOL    HW3 1347   1.517   2.824   0.826 -0.8097  1.1422 -0.7302
    1SOL    MW4 1348   1.598   2.849   0.804 -0.3970  0.5171  0.0634
    1SOL     OW 1349   1.604   3.092   0.890  0.4820  0.1725  0.0854
    1SOL    HW2 1350   1.616   3.096   0.985  1.6509 -1.8661  0.0672
    1SOL    HW3 1351   1.525   3.143   0.873 -0.0323  0.1323  2.2177
    1SOL    MW4 1352   1.595   3.099   0.901  0.5684 -0.1018  0.3643
    1SOL     OW 1353   1.368   3.213   0.838  0.5280  0.4965  0.1073
    1SOL    HW2 1354   1.280   3.193   0.870  0.0979 -0.1405 -1.4740
    1SOL    HW3 1355   1.364   3.199   0.744  1.6680  2.8544 -0.3311
    1SOL    MW4 1356   1.356   3.208   0.830  0.6217  0.7236 -0.1593
    1SOL     OW 1357   1.353   3.479   0.894  0.0030  0.3175 -0.5548
    1SOL    HW2 1358   1.412   3.537   0.845  0.7837 -0.2457 -0.2696
    1SOL    HW3 1359   1.379   3.391   0.869 -0.7818  0.0645 -0.4975
    1SOL    MW4 1360   1.364   3.475   0.884  0.0025  0.2096 -0.5096
    1SOL     OW 1361   1.529   3.624   0.757  0.1701 -0.2719  0.1979
    1SOL    HW2 1362   1.615   3.602   0.794 -0.0923 -1.2599  0.2318
    1SOL    HW3 1363   1.537   3.603   0.664 -0.2291 -0.9682  0.3167
    1SOL    MW4 1364   1.541   3.619   0.750  0.0829 -0.4942  0.2182
    1SOL     OW 1365   1.534   3.884   0.858 -0.4689  0.5679 -0.4762
    1SOL    HW2 1366   1.458   3.937   0.835  0.4528  1.2795 -1.9768
    1SOL    HW3 1367   1.521   3.801   0.813 -0.5523  0.5306 -0.3846
    1SOL    MW4 1368   1.522   3.880   0.849 -0.3585  0.6571 -0.6621
    1SOL     OW 1369   1.330   4.017   0.741 -0.4056 -0.0885 -0.2110
    1SOL    HW2 1370   1.253   3.979   0.784 -0.4778 -0.0961 -0.3481
    1SOL    HW3 1371   1.322   3.991   0.649  1.1437 -2.3607  0.2540
    1SOL    MW4 1372   1.319   4.008   0.735 -0.2108 -0.3891 -0.1677
    1SOL     OW 1373   1.357   4.250   0.864 -0.2950 -0.0328  0.5740
    1SOL    HW2 1374   1.434   4.297   0.833 -0.8285  0.8954  0.6385
    1SOL    HW3 1375   1.360   4.166   0.817 -0.3203  0.7789 -0.8975
    1SOL    MW4 1376   1.368   4.245   0.853 -0.3687  0.1969  0.3884
    1SOL     OW 1377   1.598   4.382   0.786  0.3612 -0.5909  0.6259
    1SOL    HW2 1378   1.671   4.326   0.812  1.2214  0.7799  1.1744
    1SOL    HW3 1379   1.612   4.464   0.832 -1.3312 -0.1724  0.4475
    1SOL    MW4 1380   1.609   4.385   0.795  0.2515 -0.3552  0.6747
    1SOL     OW 1381   2.070   4.615   0.800 -0.1586 -0.1285 -0.0521
    1SOL    HW2 1382   2.136   4.677   0.771  0.9958 -1.1662  0.3086
    1SOL    HW3 1383   2.067   4.549   0.731 -1.1742  0.1653 -0.3004
    1SOL    MW4 1384   2.078   4.614   0.787 -0.1402 -0.2265 -0.0372
    1SOL     OW 1385   1.837   0.113   0.837 -0.0009  0.0422  0.0302
    1SOL    HW2 1386   1.914   0.056   0.837 -0.4088 -0.5058  0.1548
    1SOL    HW3 1387   1.764   0.055   0.857 -0.6319  0.3251 -1.3800
    1SOL    MW4 1388   1.837   0.098   0.839 -0.1380  0.0072 -0.1394
    1SOL     OW 1389   1.825   0.420   0.874  0.0949 -0.1401 -0.4199
    1SOL    HW2 1390   1.812   0.326   0.859 -2.2404  0.3355 -1.7151
    1SOL    HW3 1391   1.897   0.444   0.815  0.4641 -1.0511 -0.3520
    1SOL    MW4 1392   1.833   0.410   0.864 -0.1645 -0.1976 -0.5817
    1SOL     OW 1393   2.039   0.514   0.715 -0.1475 -0.0190 -0.1318
    1SOL    HW2 1394   2.110   0.461   0.752 -0.4675 -0.3084  0.0654
    1SOL    HW3 1395   2.084   0.575   0.656  0.4188  0.7513  1.0645
    1SOL    MW4 1396   2.055   0.515   0.712 -0.1152  0.0445  0.0520
    1SOL     OW 1397   2.018   0.755   0.848  0.5835 -0.1918  0.1925
    1SOL    HW2 1398   2.093   0.796   0.806  0.8765 -0.9623 -0.0371
    1SOL    HW3 1399   2.015   0.666   0.813 -0.8563  0.0494 -0.3327
    1SOL    MW4 1400   2.027   0.748   0.838  0.4325 -0.2616  0.0929
    1SOL     OW 1401   1.813   0.902   0.735 -0.5215 -0.0292 -0.2490
    1SOL    HW2 1402   1.796   0.982   0.786  0.3619 -0.7100  1.1389
    1SOL    HW3 1403   1.880   0.856   0.785 -0.5001 -1.2937 -1.4324
    1SOL    MW4 1404   1.820   0.907   0.748 -0.4020 -0.2859 -0.2221
    1SOL     OW 1405   1.768   1.143   0.843 -0.0411  0.1483  0.3041
    1SOL    HW2 1406   1.852   1.180   0.817 -0.5895  2.3017  1.5108
    1SOL    HW3 1407   1.710   1.161   0.769 -0.1146  1.0480  0.5785
    1SOL    MW4 1408   1.771   1.150   0.830 -0.1231  0.5511  0.4995
    1SOL     OW 1409   1.995   1.279   0.774 -0.1142  0.1562  0.1143
    1SOL    HW2 1410   2.085   1.248   0.787 -0.2884 -0.1868  0.5033
    1SOL    HW3 1411   1.990   1.297   0.680  0.7839  1.5122  0.3070
    1SOL    MW4 1412   2.006   1.278   0.764 -0.0188  0.2898  0.1910
    1SOL     OW 1413   1.962   1.526   0.887  0.7353 -0.3214 -0.1498
    1SOL    HW2 1414   2.041   1.572   0.860  1.0453 -1.1387 -0.6698
    1SOL    HW3 1415   1.977   1.436   0.859  0.8098 -1.0839  2.2418
    1SOL    MW4 1416   1.974   1.520   0.880  0.7859 -0.5299  0.0971
    1SOL     OW 1417   1.860   1.743   0.571  0.4632  0.1222 -0.1659
    1SOL    HW2 1418   1.775   1.703   0.554 -0.3579  2.1972 -1.0815
    1SOL    HW3 1419   1.856   1.771   0.662  0.5458 -0.6366  0.0792
    1SOL    MW4 1420   1.848   1.741   0.581  0.3657  0.2956 -0.2543
    1SOL     OW 1421   1.773   1.884   0.833 -0.5181 -0.4264  0.1219
    1SOL    HW2 1422   1.741   1.794   0.844 -1.2297 -0.2516 -0.4312
    1SOL    HW3 1423   1.698   1.931   0.796  0.1681  0.1590 -0.5332
    1SOL    MW4 1424   1.759   1.878   0.829 -0.5214 -0.3260 -0.0375
    1SOL     OW 1425   2.000   2.057   0.744 -0.2240 -0.0704 -0.5191
    1SOL    HW2 1426   2.006   2.145   0.779  0.1554 -0.3761  0.1988
    1SOL    HW3 1427   1.916   2.023   0.775  0.2211 -0.4296  0.3296
    1SOL    MW4 1428   1.990   2.064   0.753 -0.1153 -0.1581 -0.3124
    1SOL     OW 1429   2.055   2.304   0.830  0.2223 -0.1539  0.5182
    1SOL    HW2 1430   2.058   2.326   0.924  1.3017 -0.0284  0.4631
    1SOL    HW3 1431   1.994   2.367   0.793  0.5246  0.4166  0.9802
    1SOL    MW4 1432   2.047   2.315   0.838  0.4048 -0.0620  0.5719
    1SOL     OW 1433   1.838   2.466   0.776  0.0269 -0.7524 -0.0180
    1SOL    HW2 1434   1.758   2.422   0.803 -0.3622  0.5161  0.9694
    1SOL    HW3 1435   1.823   2.489   0.684 -0.6587 -0.7127  0.1024
    1SOL    MW4 1436   1.825   2.463   0.767 -0.1150 -0.5798  0.1282
    1SOL     OW 1437   1.824   2.719   0.893 -0.0640  0.0349 -0.6346
    1SOL    HW2 1438   1.816   2.628   0.867 -0.3724  0.0752 -0.6786
    1SOL    HW3 1439   1.741   2.759   0.869 -0.7602 -0.1484  1.3511
    1SOL    MW4 1440   1.812   2.713   0.886 -0.1965  0.0160 -0.3784
    1SOL     OW 1441   2.015   2.869   0.738  0.3683  0.5634  0.0237
    1SOL    HW2 1442   2.097   2.823   0.758  0.1994  0.5725  0.7483
    1SOL    HW3 1443   1.947   2.815   0.779 -0.1981 -0.6137 -2.4159
    1SOL    MW4 1444   2.017   2.856   0.746  0.2713  0.4094 -0.2026
    1SOL     OW 1445   1.980   3.120   0.862 -0.5013  0.0396 -0.6606
    1SOL    HW2 1446   1.912   3.177   0.827  0.3596  1.2872 -0.3545
    1SOL    HW3 1447   1.974   3.040   0.811 -0.7525  0.9685 -2.0958
    1SOL    MW4 1448   1.970   3.117   0.851 -0.4208  0.3269 -0.8095
    1SOL     OW 1449   1.752   3.289   0.767  0.1241 -0.1134  0.2493
    1SOL    HW2 1450   1.704   3.216   0.805 -1.3136 -0.0043 -1.2980
    1SOL    HW3 1451   1.745   3.276   0.673  0.4081  1.6635 -0.0313
    1SOL    MW4 1452   1.745   3.278   0.760 -0.0281  0.1352  0.0082
    1SOL     OW 1453   1.774   3.547   0.870  0.1604 -0.0170  0.1338
    1SOL    HW2 1454   1.780   3.531   0.964 -1.5853  0.6430  0.3704
    1SOL    HW3 1455   1.755   3.461   0.833  1.1224 -0.3269  0.3566
    1SOL    MW4 1456   1.772   3.533   0.878  0.0571  0.0293  0.1944
    1SOL     OW 1457   2.013   3.619   0.766 -0.0817  0.5973  0.6077
    1SOL    HW2 1458   2.024   3.711   0.789  0.9593  0.3371  1.1708
    1SOL    HW3 1459   1.927   3.596   0.803  0.3147  0.9512  1.7945
    1SOL    MW4 1460   2.003   3.628   0.774  0.1080  0.6096  0.8385
    1SOL     OW 1461   2.008   3.871   0.858 -0.6532  0.0761 -0.2684
    1SOL    HW2 1462   2.020   3.858   0.952 -0.0826 -0.3529 -0.3987
    1SOL    HW3 1463   1.945   3.943   0.852 -0.4537  0.3180  0.4412
    1SOL    MW4 1464   2.002   3.879   0.869 -0.5517  0.0515 -0.1920
    1SOL     OW 1465   1.736   4.025   0.758 -0.2505  0.1792  0.0805
    1SOL    HW2 1466   1.669   3.962   0.786 -0.7549  0.4692 -0.4657
    1SOL    HW3 1467   1.739   4.016   0.663  1.9433 -1.3014  0.2437
    1SOL    MW4 1468   1.728   4.015   0.749 -0.0275  0.0224  0.0300
    1SOL     OW 1469   1.855   4.277   0.813 -0.1185 -0.4707  0.0077
    1SOL    HW2 1470   1.859   4.289   0.908 -2.3135  0.1004  0.0735
    1SOL    HW3 1471   1.836   4.184   0.802  1.1258 -0.7357  0.0916
    1SOL    MW4 1472   1.853   4.266   0.824 -0.2439 -0.4306  0.0274
    1SOL     OW 1473   2.041   4.352   0.657  0.5841  0.3321  0.1853
    1SOL    HW2 1474   1.966   4.321   0.708  0.0820  0.8936 -0.2058
    1SOL    HW3 1475   2.040   4.298   0.577  1.0649 -0.1908  0.5217
    1SOL    MW4 1476   2.031   4.340   0.653  0.5815  0.3371  0.1781
    1SOL     OW 1477   2.543   4.621   0.847  0.3784 -0.0762 -0.1813
    1SOL    HW2 1478   2.579   4.705   0.819 -0.7794  0.3877 -0.3006
    1SOL    HW3 1479   2.513   4.637   0.937  1.7325 -0.8474  0.4213
    1SOL    MW4 1480   2.543   4.635   0.855  0.4044 -0.1163 -0.1176
    1SOL     OW 1481   2.266   0.124   0.719 -0.0733  0.4564 -0.1752
    1SOL    HW2 1482   2.309   0.038   0.725 -1.5411 -0.2392  0.5929
    1SOL    HW3 1483   2.224   0.124   0.633 -0.7114  0.0943  0.1335
    1SOL    MW4 1484   2.266   0.113   0.709 -0.3512  0.3169 -0.0331
    1SOL     OW 1485   2.230   0.370   0.844 -0.4394 -0.0212  0.0105
    1SOL    HW2 1486   2.306   0.428   0.841 -0.1942 -0.3062  0.5994
    1SOL    HW3 1487   2.256   0.293   0.794 -0.5149  0.0844 -0.1916
    1SOL    MW4 1488   2.243   0.367   0.837 -0.4168 -0.0449  0.0615
    1SOL     OW 1489   2.446   0.518   0.785 -0.1902 -0.0962  0.1439
    1SOL    HW2 1490   2.418   0.522   0.694 -0.2769 -3.1027  0.0079
    1SOL    HW3 1491   2.538   0.491   0.782 -0.3021 -0.5923  0.9632
    1SOL    MW4 1492   2.454   0.515   0.773 -0.2165 -0.5583  0.2341
    1SOL     OW 1493   2.462   0.787   0.881  0.0463  0.3616  0.5585
    1SOL    HW2 1494   2.535   0.827   0.834 -0.0040  0.5094  0.6060
    1SOL    HW3 1495   2.459   0.697   0.848  0.2520  0.3537  0.5608
    1SOL    MW4 1496   2.471   0.780   0.870  0.0668  0.3800  0.5651
    1SOL     OW 1497   2.244   0.885   0.730  0.2130 -0.4203 -0.1335
    1SOL    HW2 1498   2.331   0.862   0.762  0.4579 -1.4758 -1.5474
    1SOL    HW3 1499   2.252   0.883   0.635 -1.3688 -0.5690 -0.2692
    1SOL    MW4 1500   2.257   0.882   0.722  0.0367 -0.5792 -0.3379
    1SOL     OW 1501   2.232   1.161   0.814  0.1972 -0.0480 -0.0439
    1SOL    HW2 1502   2.210   1.167   0.907  1.3819 -0.7645  0.2929
    1SOL    HW3 1503   2.235   1.068   0.796  0.3614  0.0841 -0.6984
    1SOL    MW4 1504   2.230   1.150   0.824  0.3750 -0.1252 -0.0857
    1SOL     OW 1505   2.456   1.316   0.780 -0.3263 -0.1576  0.3686
    1SOL    HW2 1506   2.377   1.265   0.797  0.3287 -1.8415 -1.4014
    1SOL    HW3 1507   2.441   1.357   0.695  0.2249  0.4289  0.5512
    1SOL    MW4 1508   2.444   1.314   0.771 -0.1674 -0.3024  0.1593
    1SOL     OW 1509   2.471   1.598   0.838 -0.3983 -0.0954 -0.1246
    1SOL    HW2 1510   2.553   1.637   0.809  0.2966 -0.7220  0.9958
    1SOL    HW3 1511   2.476   1.507   0.809 -0.4213 -0.2981  0.5035
    1SOL    MW4 1512   2.482   1.591   0.830 -0.3097 -0.2048  0.1060
    1SOL     OW 1513   2.194   1.652   0.813 -0.7014 -0.3614  0.5246
    1SOL    HW2 1514   2.289   1.645   0.804 -0.7734  0.5722 -1.3970
    1SOL    HW3 1515   2.161   1.640   0.723 -2.3943 -0.5999  1.1540
    1SOL    MW4 1516   2.202   1.650   0.800 -0.9344 -0.2698  0.3541
    1SOL     OW 1517   2.205   1.923   0.900  0.9543  0.5269  0.3549
    1SOL    HW2 1518   2.203   1.833   0.868  0.1569  0.9734 -0.8942
    1SOL    HW3 1519   2.128   1.964   0.860  0.3869  1.3275  2.2291
    1SOL    MW4 1520   2.194   1.917   0.891  0.7744  0.6914  0.4373
    1SOL     OW 1521   2.439   2.043   0.751  0.2316  0.6304 -0.8054
    1SOL    HW2 1522   2.364   2.019   0.805  0.3845  2.2190  0.1311
    1SOL    HW3 1523   2.400   2.076   0.670 -0.0416  0.3168 -0.8031
    1SOL    MW4 1524   2.424   2.044   0.747  0.2158  0.7985 -0.6815
    1SOL     OW 1525   2.488   2.305   0.859  0.4579  0.5033 -0.4090
    1SOL    HW2 1526   2.578   2.335   0.845  0.7114  0.9160  1.9002
    1SOL    HW3 1527   2.487   2.216   0.824  0.8241  1.6288 -3.5002
    1SOL    MW4 1528   2.500   2.297   0.852  0.5393  0.7062 -0.5122
    1SOL     OW 1529   2.277   2.439   0.740  0.0906  0.6557 -0.3157
    1SOL    HW2 1530   2.351   2.407   0.792  0.4048 -3.2986 -3.0091
    1SOL    HW3 1531   2.201   2.395   0.777  0.2490 -1.7731 -2.7679
    1SOL    MW4 1532   2.277   2.429   0.752  0.1528 -0.1864 -0.9946
    1SOL     OW 1533   2.229   2.701   0.837  0.0039  0.4161  0.2785
    1SOL    HW2 1534   2.210   2.693   0.931  1.3751  0.7328  0.5874
    1SOL    HW3 1535   2.249   2.612   0.809 -0.8248  0.2518  0.1807
    1SOL    MW4 1536   2.229   2.688   0.846  0.0756  0.4361  0.3064
    1SOL     OW 1537   2.472   2.830   0.741  0.1851 -0.7779  0.3497
    1SOL    HW2 1538   2.550   2.778   0.760 -0.3894 -1.6722  0.2882
    1SOL    HW3 1539   2.399   2.771   0.761 -0.4626 -0.3189 -0.6453
    1SOL    MW4 1540   2.473   2.815   0.746  0.0241 -0.8352  0.2104
    1SOL     OW 1541   2.451   3.077   0.843 -0.0169  0.2080 -0.6712
    1SOL    HW2 1542   2.460   3.057   0.936  0.4397  2.3799 -0.2357
    1SOL    HW3 1543   2.431   2.992   0.802 -0.8229 -0.6512  1.4692
    1SOL    MW4 1544   2.450   3.063   0.850 -0.0632  0.3815 -0.3314
    1SOL     OW 1545   2.224   3.211   0.771 -0.3136 -0.4249  0.0052
    1SOL    HW2 1546   2.149   3.182   0.823 -0.0116 -0.8626  0.1946
    1SOL    HW3 1547   2.300   3.171   0.814  0.0845  0.4805  0.1626
    1SOL    MW4 1548   2.224   3.202   0.784 -0.2213 -0.3631  0.0509
    1SOL     OW 1549   2.250   3.478   0.814  0.1206  0.3301 -0.2981
    1SOL    HW2 1550   2.238   3.384   0.799 -1.5568  0.8221 -2.2520
    1SOL    HW3 1551   2.164   3.516   0.799  0.8174  2.2092  0.3578
    1SOL    MW4 1552   2.237   3.470   0.810 -0.0088  0.6430 -0.4694
    1SOL     OW 1553   2.484   3.628   0.740 -0.4395  0.1416 -0.2576
    1SOL    HW2 1554   2.563   3.581   0.769 -0.8524 -0.8587 -0.7286
    1SOL    HW3 1555   2.411   3.577   0.775 -0.8902  0.8180 -0.2006
    1SOL    MW4 1556   2.485   3.615   0.748 -0.5534  0.0989 -0.3122
    1SOL     OW 1557   2.501   3.890   0.824 -0.0460 -0.2098 -0.0183
    1SOL    HW2 1558   2.416   3.917   0.789 -0.4612 -2.4917 -0.8701
    1SOL    HW3 1559   2.507   3.797   0.803  2.4458 -0.2035  0.5135
    1SOL    MW4 1560   2.490   3.881   0.817  0.2279 -0.5100 -0.0605
    1SOL     OW 1561   2.241   3.974   0.752 -0.4108  0.4118  0.1861
    1SOL    HW2 1562   2.162   3.927   0.775  0.0008  0.0447  0.8413
    1SOL    HW3 1563   2.242   3.974   0.656 -0.6207 -0.5514  0.1856
    1SOL    MW4 1564   2.231   3.968   0.742 -0.3843  0.2363  0.2725
    1SOL     OW 1565   2.231   4.236   0.819 -0.1980 -0.0974  0.2643
    1SOL    HW2 1566   2.225   4.143   0.795  0.2023  0.3074 -1.4890
    1SOL    HW3 1567   2.162   4.279   0.768 -0.4997  0.5578  1.2031
    1SOL    MW4 1568   2.221   4.229   0.809 -0.1850  0.0429  0.1568
    1SOL     OW 1569   2.486   4.342   0.723  0.4101 -0.1548  0.2036
    1SOL    HW2 1570   2.503   4.407   0.792 -0.5025 -1.4350  1.6638
    1SOL    HW3 1571   2.399   4.310   0.742  0.2126 -0.6389 -1.4954
    1SOL    MW4 1572   2.477   4.347   0.735  0.2637 -0.3881  0.1721
    1SOL     OW 1573   2.846   4.665   0.847  0.1683  0.2182 -0.1269
    1SOL    HW2 1574   2.892   4.588   0.812 -1.9892 -0.6352 -1.1465
    1SOL    HW3 1575   2.758   4.633   0.868 -0.8698  2.4903 -0.8870
    1SOL    MW4 1576   2.841   4.651   0.845 -0.2530  0.4058 -0.3617
    1SOL     OW 1577   2.719   4.494   0.602  0.6334  0.0182  0.2256
    1SOL    HW2 1578   2.632   4.527   0.625 -0.1373 -1.1536 -1.0049
    1SOL    HW3 1579   2.744   4.544   0.525 -0.0420 -1.4170 -0.9431
    1SOL    MW4 1580   2.711   4.505   0.595  0.4430 -0.3257 -0.0910
    1SOL     OW 1581   2.710   0.431   0.820  0.0417 -0.1104  0.0575
    1SOL    HW2 1582   2.704   0.424   0.915  1.4019  0.3330  0.1811
    1SOL    HW3 1583   2.798   0.464   0.803  0.1878 -1.1579 -1.4074
    1SOL    MW4 1584   2.721   0.434   0.830  0.2406 -0.1901 -0.1194
    1SOL     OW 1585   2.951   0.549   0.755  0.3316 -0.0006  0.0796
    1SOL    HW2 1586   3.003   0.479   0.794  0.3894  0.6265  1.1501
    1SOL    HW3 1587   2.950   0.529   0.661  0.6576 -1.2192  0.3309
    1SOL    MW4 1588   2.958   0.537   0.747  0.3822 -0.0786  0.2540
    1SOL     OW 1589   2.934   0.796   0.852 -0.6154  0.5374  0.2636
    1SOL    HW2 1590   2.910   0.800   0.944 -0.5508  1.1252  0.2545
    1SOL    HW3 1591   2.940   0.702   0.833 -3.3011  0.3387  0.1726
    1SOL    MW4 1592   2.932   0.784   0.862 -0.9613  0.5887  0.2503
    1SOL     OW 1593   2.685   0.920   0.756  0.2105 -0.6213 -0.3417
    1SOL    HW2 1594   2.763   0.886   0.800  0.6210  0.7154 -0.0028
    1SOL    HW3 1595   2.702   0.905   0.663  1.5538  1.0030 -0.3766
    1SOL    MW4 1596   2.698   0.913   0.749  0.4420 -0.2306 -0.3015
    1SOL     OW 1597   2.688   1.186   0.829  0.0442 -0.0016 -0.3640
    1SOL    HW2 1598   2.681   1.107   0.776 -0.0817  0.1248 -0.5349
    1SOL    HW3 1599   2.606   1.233   0.814 -0.9344 -1.0032  1.6083
    1SOL    MW4 1600   2.676   1.182   0.820 -0.1018 -0.1172 -0.1262
    1SOL     OW 1601   2.909   1.339   0.789  0.5666 -0.2912  0.2882
    1SOL    HW2 1602   2.983   1.280   0.807 -0.4903 -1.6870  0.1426
    1SOL    HW3 1603   2.832   1.285   0.804 -0.4193  0.5388 -1.6833
    1SOL    MW4 1604   2.909   1.324   0.794  0.2973 -0.3660  0.0088
    1SOL     OW 1605   2.953   1.604   0.854  0.6513  0.0119 -0.3065
    1SOL    HW2 1606   3.043   1.635   0.848  0.6559 -0.0815 -0.7158
    1SOL    HW3 1607   2.960   1.508   0.850  0.4795  0.0241 -1.0907
    1SOL    MW4 1608   2.966   1.595   0.853  0.6294  0.0012 -0.4640
    1SOL     OW 1609   2.711   1.699   0.747  0.2962 -0.0924 -0.2602
    1SOL    HW2 1610   2.723   1.792   0.766  0.6372  0.1506 -1.5737
    1SOL    HW3 1611   2.788   1.657   0.785 -0.1295  0.0912  0.8135
    1SOL    MW4 1612   2.722   1.706   0.754  0.2854 -0.0361 -0.2918
    1SOL     OW 1613   2.686   1.942   0.859  0.2351 -0.5620 -0.0041
    1SOL    HW2 1614   2.685   1.947   0.955  2.4697  1.6635 -0.0487
    1SOL    HW3 1615   2.600   1.976   0.833  0.8005  1.8459  1.1435
    1SOL    MW4 1616   2.674   1.947   0.868  0.6046  0.0492  0.1414
    1SOL     OW 1617   2.866   2.037   0.638  0.3193 -0.3712 -0.2989
    1SOL    HW2 1618   2.936   2.079   0.687 -1.1646  0.7815  0.8688
    1SOL    HW3 1619   2.801   2.014   0.704 -0.5983 -1.0517 -1.4193
    1SOL    MW4 1620   2.867   2.039   0.653  0.0024 -0.3090 -0.2927
    1SOL     OW 1621   2.982   2.381   0.833 -0.4918  0.8471  0.3684
    1SOL    HW2 1622   2.973   2.373   0.928 -0.4708 -0.2040  0.2837
    1SOL    HW3 1623   2.892   2.397   0.803 -0.8615 -1.1320  0.3516
    1SOL    MW4 1624   2.969   2.382   0.842 -0.5379  0.4473  0.3550
    1SOL     OW 1625   2.717   2.430   0.762  0.1872  0.1616  0.3226
    1SOL    HW2 1626   2.709   2.445   0.668  0.6552 -0.4074  0.1855
    1SOL    HW3 1627   2.704   2.516   0.802  1.5324  0.7001 -0.3565
    1SOL    MW4 1628   2.714   2.443   0.755  0.4263  0.1576  0.2150
    1SOL     OW 1629   2.693   2.694   0.842 -0.2750  0.2169 -0.0979
    1SOL    HW2 1630   2.694   2.699   0.937 -0.5251 -0.9577 -0.0229
    1SOL    HW3 1631   2.763   2.753   0.814  1.8852 -1.7641  0.9261
    1SOL    MW4 1632   2.702   2.703   0.851 -0.0229 -0.1996  0.0470
    1SOL     OW 1633   2.933   2.853   0.476 -0.1522 -0.2874  0.4691
    1SOL    HW2 1634   2.932   2.779   0.414  0.5746 -0.9094  1.1780
    1SOL    HW3 1635   2.855   2.904   0.454 -0.0775 -0.6721 -0.7482
    1SOL    MW4 1636   2.923   2.850   0.465 -0.0465 -0.4201  0.4020
    1SOL     OW 1637   2.895   3.083   0.862  0.1035 -0.0242 -0.4030
    1SOL    HW2 1638   2.824   3.142   0.836  0.9927  1.9075  1.4145
    1SOL    HW3 1639   2.882   3.005   0.808 -2.9806  0.5658 -0.6002
    1SOL    MW4 1640   2.884   3.080   0.852 -0.1860  0.3085 -0.1892
    1SOL     OW 1641   2.667   3.210   0.746 -0.0915 -0.4459 -0.6469
    1SOL    HW2 1642   2.674   3.302   0.774 -0.3080 -0.5854 -0.1181
    1SOL    HW3 1643   2.584   3.180   0.784  0.1887 -0.9818 -0.4507
    1SOL    MW4 1644   2.657   3.218   0.755 -0.0832 -0.5355 -0.5513
    1SOL     OW 1645   2.697   3.484   0.835 -0.1209 -0.1032  0.4610
    1SOL    HW2 1646   2.687   3.495   0.929  1.7556 -1.0281  0.7688
    1SOL    HW3 1647   2.790   3.499   0.818 -0.7575  1.9550 -1.5134
    1SOL    MW4 1648   2.708   3.488   0.845  0.0427  0.0465  0.2412
    1SOL     OW 1649   2.972   3.591   0.801  0.1612 -0.6442 -0.3913
    1SOL    HW2 1650   2.958   3.685   0.807  0.9035 -0.5309 -0.3386
    1SOL    HW3 1651   2.975   3.572   0.707 -0.0249 -0.6194 -0.4015
    1SOL    MW4 1652   2.971   3.601   0.789  0.2346 -0.6261 -0.3857
    1SOL     OW 1653   2.934   3.875   0.840 -0.2444  0.3617 -0.3216
    1SOL    HW2 1654   2.944   3.885   0.935 -0.9680 -1.4825 -0.0264
    1SOL    HW3 1655   2.843   3.901   0.823 -0.7576 -1.3092 -0.1939
    1SOL    MW4 1656   2.923   3.880   0.850 -0.4077 -0.1020 -0.2658
    1SOL     OW 1657   2.674   4.020   0.673 -0.1080  0.0582  0.0073
    1SOL    HW2 1658   2.604   3.973   0.719 -0.8033  0.8064 -0.2625
    1SOL    HW3 1659   2.689   3.969   0.593 -0.8202  0.2546 -0.2575
    1SOL    MW4 1660   2.666   4.008   0.668 -0.2940  0.1826 -0.0632
    1SOL     OW 1661   2.820   4.223   0.795  0.2393 -0.3646 -0.1767
    1SOL    HW2 1662   2.782   4.244   0.880  1.4131 -0.6757  0.4214
    1SOL    HW3 1663   2.787   4.135   0.775  0.5704 -0.5967  0.3000
    1SOL    MW4 1664   2.810   4.214   0.804  0.4377 -0.4363 -0.0349
    1SOL     OW 1665   2.989   4.449   0.765  0.0991  0.3500  0.2618
    1SOL    HW2 1666   3.074   4.432   0.806 -0.0364  0.5297  0.6222
    1SOL    HW3 1667   2.940   4.368   0.775 -0.4061  0.8191  1.6286
    1SOL    MW4 1668   2.993   4.436   0.772  0.0148  0.4354  0.4897
    1SOL     OW 1669   3.353   4.625   0.812 -0.0164 -0.1752  0.3818
    1SOL    HW2 1670   3.355   4.627   0.908 -1.1979  2.0595  0.3786
    1SOL    HW3 1671   3.288   4.691   0.788  1.3320  0.3215 -2.0188
    1SOL    MW4 1672   3.345   4.634   0.821  0.0057  0.1850  0.0647
    1SOL     OW 1673   3.112   0.115   0.754 -0.5683 -0.2801  0.9365
    1SOL    HW2 1674   3.118   0.206   0.782 -0.2678  0.5435 -1.6525
    1SOL    HW3 1675   3.023   0.088   0.776 -1.1621  1.1361  0.2584
    1SOL    MW4 1676   3.101   0.123   0.761 -0.6070  0.0154  0.5054
    1SOL     OW 1677   3.107   0.358   0.872  0.3620  0.3617  0.1488
    1SOL    HW2 1678   3.094   0.353   0.967  1.2478  0.3190  0.2742
    1SOL    HW3 1679   3.189   0.407   0.862  0.5000 -0.0099 -0.5798
    1SOL    MW4 1680   3.116   0.364   0.883  0.4971  0.3071  0.0691
    1SOL     OW 1681   3.339   0.482   0.801 -0.1606  0.6656  0.0154
    1SOL    HW2 1682   3.429   0.452   0.813  0.4930  2.8861  0.7729
    1SOL    HW3 1683   3.336   0.513   0.710  0.1197  1.5184  0.2947
    1SOL    MW4 1684   3.350   0.482   0.790 -0.0374  1.0711  0.1522
    1SOL     OW 1685   3.339   0.746   0.886 -0.0119 -0.4626 -0.2866
    1SOL    HW2 1686   3.258   0.764   0.837  0.2570  0.9674 -0.2475
    1SOL    HW3 1687   3.350   0.651   0.881 -2.6222 -0.8806  1.1657
    1SOL    MW4 1688   3.329   0.736   0.879 -0.3209 -0.3290 -0.0898
    1SOL     OW 1689   3.123   0.932   0.705 -0.1755  0.4598 -0.3927
    1SOL    HW2 1690   3.129   1.002   0.769 -1.0957  0.4288 -0.2689
    1SOL    HW3 1691   3.054   0.874   0.738  2.2900 -1.8804  0.8264
    1SOL    MW4 1692   3.115   0.933   0.718  0.0284  0.1469 -0.2155
    1SOL     OW 1693   3.138   1.164   0.847  0.4069  0.1713  0.4023
    1SOL    HW2 1694   3.151   1.162   0.942 -0.4383  0.3880  0.5234
    1SOL    HW3 1695   3.212   1.214   0.813  1.4483 -1.0365  0.8192
    1SOL    MW4 1696   3.150   1.170   0.855  0.4327  0.0404  0.4733
    1SOL     OW 1697   3.374   1.276   0.710 -0.2186  0.1434  0.3151
    1SOL    HW2 1698   3.436   1.222   0.760  0.2077  0.1586 -0.1944
    1SOL    HW3 1699   3.382   1.363   0.748  0.9098  0.4015 -0.4968
    1SOL    MW4 1700   3.383   1.280   0.722 -0.0136  0.1795  0.1408
    1SOL     OW 1701   3.383   1.526   0.839 -0.4220 -0.1036  0.7066
    1SOL    HW2 1702   3.379   1.537   0.934  1.8328  0.3488  0.7717
    1SOL    HW3 1703   3.448   1.590   0.810 -0.8473 -0.4679 -1.1010
    1SOL    MW4 1704   3.391   1.536   0.848 -0.1805 -0.0920  0.4767
    1SOL     OW 1705   3.190   1.709   0.772  0.2881  0.2331  0.1367
    1SOL    HW2 1706   3.252   1.638   0.790  1.4563  0.8813 -1.2692
    1SOL    HW3 1707   3.161   1.693   0.683 -0.8202  0.5144  0.4429
    1SOL    MW4 1708   3.195   1.697   0.763  0.2959  0.3557 -0.0083
    1SOL     OW 1709   3.259   1.947   0.863  0.2595 -0.0767  0.6578
    1SOL    HW2 1710   3.223   1.956   0.952 -0.0437  1.3248  0.4003
    1SOL    HW3 1711   3.232   1.859   0.836  0.5176 -0.5975  2.0282
    1SOL    MW4 1712   3.250   1.937   0.871  0.2534  0.0396  0.8046
    1SOL     OW 1713   3.500   2.064   0.867  0.2436  0.4582 -0.0895
    1SOL    HW2 1714   3.474   2.154   0.887  0.9820  0.4722  0.8944
    1SOL    HW3 1715   3.419   2.014   0.868 -0.0516  0.9402  0.4289
    1SOL    MW4 1716   3.486   2.069   0.870  0.3018  0.5236  0.1087
    1SOL     OW 1717   3.453   2.344   0.870  0.5166 -0.3725 -0.5325
    1SOL    HW2 1718   3.426   2.352   0.961 -0.4392  0.3483 -0.8687
    1SOL    HW3 1719   3.540   2.384   0.868  0.0861  0.6065 -0.1421
    1SOL    MW4 1720   3.461   2.351   0.882  0.3338 -0.1481 -0.5254
    1SOL     OW 1721   3.094   2.519   0.633 -0.2345  0.6877 -0.1874
    1SOL    HW2 1722   3.182   2.489   0.614 -1.0180 -0.7356 -1.7141
    1SOL    HW3 1723   3.064   2.462   0.704  0.4847  1.9788  1.1898
    1SOL    MW4 1724   3.101   2.507   0.640 -0.2432  0.6704 -0.2072
    1SOL     OW 1725   3.108   2.711   0.835 -0.4164 -0.1785  0.0311
    1SOL    HW2 1726   3.097   2.636   0.776  0.2139  0.3309 -0.7405
    1SOL    HW3 1727   3.162   2.772   0.786 -0.4960  0.5655  0.8651
    1SOL    MW4 1728   3.114   2.709   0.821 -0.3436 -0.0134  0.0393
    1SOL     OW 1729   3.308   2.852   0.708  0.2992  0.6630 -0.3087
    1SOL    HW2 1730   3.292   2.885   0.620  1.5967  0.0359 -0.7981
    1SOL    HW3 1731   3.385   2.795   0.699  0.6794  0.8788  1.2878
    1SOL    MW4 1732   3.316   2.849   0.696  0.5205  0.6089 -0.1626
    1SOL     OW 1733   3.377   3.072   0.870  0.6775  0.1220  0.1613
    1SOL    HW2 1734   3.352   3.056   0.961  2.5964 -0.0059  0.6746
    1SOL    HW3 1735   3.346   2.995   0.823  0.4764 -0.2146  0.8394
    1SOL    MW4 1736   3.369   3.060   0.876  0.9038  0.0606  0.3185
    1SOL     OW 1737   3.157   3.232   0.822  0.1126 -0.0449  0.2431
    1SOL    HW2 1738   3.234   3.178   0.837  0.1068 -0.4953 -1.2988
    1SOL    HW3 1739   3.083   3.174   0.837  0.1082 -0.5575 -1.6814
    1SOL    MW4 1740   3.158   3.218   0.826  0.1113 -0.1719 -0.2142
    1SOL     OW 1741   3.229   3.508   0.826 -0.6943 -0.2438  0.0200
    1SOL    HW2 1742   3.216   3.413   0.834 -1.8978 -0.2292 -1.6425
    1SOL    HW3 1743   3.142   3.543   0.809 -0.3388  1.2350  1.1568
    1SOL    MW4 1744   3.216   3.500   0.825 -0.8063 -0.0467 -0.0494
    1SOL     OW 1745   3.461   3.625   0.708 -0.0121  0.1416  0.0642
    1SOL    HW2 1746   3.479   3.705   0.757 -0.9192  0.2702  0.2039
    1SOL    HW3 1747   3.375   3.596   0.740  0.9022 -1.6504  1.0230
    1SOL    MW4 1748   3.452   3.631   0.719 -0.0110 -0.0780  0.2091
    1SOL     OW 1749   3.498   3.855   0.839  0.9048  0.4399  0.0693
    1SOL    HW2 1750   3.586   3.891   0.838  1.1614 -0.1443  1.1329
    1SOL    HW3 1751   3.466   3.871   0.928 -0.2222  1.0263 -0.4203
    1SOL    MW4 1752   3.505   3.862   0.850  0.7899  0.4401  0.1450
    1SOL     OW 1753   3.107   4.062   0.713  0.4015  0.9435  0.0813
    1SOL    HW2 1754   3.181   4.004   0.696 -0.1958  0.6651 -1.6149
    1SOL    HW3 1755   3.050   4.011   0.771 -0.1841 -0.2444 -1.5065
    1SOL    MW4 1756   3.109   4.048   0.719  0.2456  0.7505 -0.3519
    1SOL     OW 1757   3.228   4.275   0.847  0.5162 -0.4542  0.6064
    1SOL    HW2 1758   3.320   4.279   0.821  0.0265  0.8023 -1.0408
    1SOL    HW3 1759   3.195   4.196   0.804  0.7697 -0.7741  0.9999
    1SOL    MW4 1760   3.236   4.265   0.838  0.4852 -0.3309  0.4410
    1SOL     OW 1761   3.472   4.451   0.622 -0.2235 -0.4196 -0.2175
    1SOL    HW2 1762   3.424   4.488   0.696 -0.8722  1.5129 -1.5719
    1SOL    HW3 1763   3.406   4.405   0.571  0.2340 -1.7955  0.4119
    1SOL    MW4 1764   3.457   4.450   0.625 -0.2487 -0.3462 -0.3132
    1SOL     OW 1765   3.752   4.667   0.837  0.2137  0.0463  0.1424
    1SOL    HW2 1766   3.831   4.713   0.811  1.3423 -2.3234 -0.8089
    1SOL    HW3 1767   3.681   4.728   0.818  1.7608  2.0515  0.6150
    1SOL    MW4 1768   3.753   4.681   0.831  0.5670 -0.0019  0.0793
    1SOL     OW 1769   3.536   0.165   0.776  0.1067 -0.3965  0.6212
    1SOL    HW2 1770   3.469   0.103   0.804  0.1823 -1.6926 -1.8870
    1SOL    HW3 1771   3.517   0.180   0.683  1.2735  1.8456  0.7189
    1SOL    MW4 1772   3.525   0.159   0.767  0.2706 -0.2717  0.3032
    1SOL     OW 1773   3.579   0.407   0.907  0.3801 -0.3172 -0.0663
    1SOL    HW2 1774   3.605   0.409   0.999 -1.7674 -0.5473  0.5792
    1SOL    HW3 1775   3.560   0.315   0.890  2.7638 -0.5980 -1.3524
    1SOL    MW4 1776   3.580   0.395   0.917  0.4110 -0.3846 -0.1509
    1SOL     OW 1777   3.790   0.541   0.803 -0.6580  0.2858  0.5321
    1SOL    HW2 1778   3.778   0.633   0.827 -0.3342  0.0636  1.5802
    1SOL    HW3 1779   3.714   0.497   0.843  1.1129 -0.4443  3.2659
    1SOL    MW4 1780   3.778   0.547   0.812 -0.3817  0.1602  1.0312
    1SOL     OW 1781   3.756   0.796   0.891  0.2882 -0.2848 -0.3856
    1SOL    HW2 1782   3.751   0.794   0.986 -2.3435 -1.8789 -0.5138
    1SOL    HW3 1783   3.846   0.824   0.872  1.2823 -1.3254  2.5430
    1SOL    MW4 1784   3.767   0.799   0.901  0.0722 -0.6325 -0.0161
    1SOL     OW 1785   3.539   0.863   0.716 -0.1132  0.0833 -0.2554
    1SOL    HW2 1786   3.610   0.840   0.776  0.0452 -1.4570 -0.9929
    1SOL    HW3 1787   3.459   0.841   0.764 -0.0134 -0.3384 -0.2800
    1SOL    MW4 1788   3.538   0.857   0.731 -0.0792 -0.1756 -0.3560
    1SOL     OW 1789   3.563   1.118   0.813  0.3514 -0.0152 -0.3088
    1SOL    HW2 1790   3.578   1.098   0.906  0.2226  1.0377 -0.0576
    1SOL    HW3 1791   3.568   1.033   0.769 -0.0942 -0.5819  0.7302
    1SOL    MW4 1792   3.566   1.104   0.820  0.2759  0.0489 -0.1385
    1SOL     OW 1793   3.803   1.229   0.690  0.4060 -0.3110 -0.0478
    1SOL    HW2 1794   3.724   1.209   0.739  0.6833  0.1495  0.5902
    1SOL    HW3 1795   3.773   1.282   0.616  0.0038 -0.9266 -0.3272
    1SOL    MW4 1796   3.789   1.234   0.687  0.3896 -0.3314 -0.0004
    1SOL     OW 1797   3.837   1.529   0.847  0.3779 -0.7108  0.6037
    1SOL    HW2 1798   3.910   1.586   0.825 -0.0203 -0.0675  0.9021
    1SOL    HW3 1799   3.838   1.460   0.781  0.4223  0.0608 -0.2108
    1SOL    MW4 1800   3.847   1.528   0.835  0.3309 -0.5242  0.5357
    1SOL     OW 1801   3.575   1.710   0.759 -0.2495  0.0465  0.1213
    1SOL    HW2 1802   3.604   1.800   0.740 -0.2014 -0.0730 -0.3689
    1SOL    HW3 1803   3.654   1.664   0.783 -0.3739  0.3097  1.0397
    1SOL    MW4 1804   3.589   1.716   0.759 -0.2594  0.0656  0.1778
    1SOL     OW 1805   3.690   1.943   0.709 -0.5130  0.3146  0.4002
    1SOL    HW2 1806   3.781   1.972   0.705 -0.8045  1.2312  0.3015
    1SOL    HW3 1807   3.647   2.005   0.768 -1.0203 -0.2508  0.6250
    1SOL    MW4 1808   3.696   1.955   0.716 -0.6187  0.3608  0.4168
    1SOL     OW 1809   3.944   2.039   0.649 -0.1517  0.2487 -0.0078
    1SOL    HW2 1810   3.941   2.135   0.657 -0.4646  0.3175 -0.8242
    1SOL    HW3 1811   3.999   2.010   0.721 -1.8242  0.8690  1.5641
    1SOL    MW4 1812   3.951   2.048   0.659 -0.4139  0.3397  0.0919
    1SOL     OW 1813   3.669   2.108   0.484 -0.1882 -0.2496  0.5449
    1SOL    HW2 1814   3.680   2.061   0.566  0.0514  0.5340  0.9728
    1SOL    HW3 1815   3.714   2.055   0.419 -1.0090 -1.2509  0.7848
    1SOL    MW4 1816   3.676   2.095   0.486 -0.2649 -0.2782  0.6330
    1SOL     OW 1817   3.733   2.406   0.873 -0.0010 -0.0793 -0.0381
    1SOL    HW2 1818   3.739   2.501   0.873  1.6332 -0.1582 -1.6142
    1SOL    HW3 1819   3.773   2.378   0.956  0.1343  0.5589  0.1083
    1SOL    MW4 1820   3.739   2.415   0.884  0.2322 -0.0055 -0.2267
    1SOL     OW 1821   3.684   2.694   0.862  0.0665 -0.1861  0.5000
    1SOL    HW2 1822   3.642   2.732   0.939  0.2883  1.3331 -0.1073
    1SOL    HW3 1823   3.761   2.750   0.847 -0.1540 -0.2687 -0.9977
    1SOL    MW4 1824   3.689   2.707   0.870  0.0668  0.0036  0.2222
    1SOL     OW 1825   3.907   2.805   0.742  0.0413 -0.1526  0.5578
    1SOL    HW2 1826   3.887   2.896   0.766  1.6551  0.1129  0.9696
    1SOL    HW3 1827   3.876   2.797   0.651 -1.2397  0.4300  0.9353
    1SOL    MW4 1828   3.901   2.816   0.733  0.0851 -0.0410  0.6618
    1SOL     OW 1829   3.853   3.068   0.846 -0.1138 -0.0770  0.0348
    1SOL    HW2 1830   3.920   3.135   0.830 -0.4090  0.5727  1.4742
    1SOL    HW3 1831   3.770   3.112   0.829 -0.2389 -0.6205 -0.8228
    1SOL    MW4 1832   3.851   3.083   0.841 -0.1693 -0.0632  0.1116
    1SOL     OW 1833   3.598   3.194   0.752  0.8121  0.5155  0.0750
    1SOL    HW2 1834   3.522   3.147   0.785 -0.0549  2.4178  0.8922
    1SOL    HW3 1835   3.590   3.189   0.657  0.1304 -0.0316  0.1585
    1SOL    MW4 1836   3.587   3.187   0.744  0.6077  0.6940  0.1939
    1SOL     OW 1837   3.608   3.460   0.879  0.0986  0.2786  0.2509
    1SOL    HW2 1838   3.616   3.376   0.834 -0.8951  0.9672 -1.2319
    1SOL    HW3 1839   3.552   3.513   0.822  1.2841  2.1904  0.8189
    1SOL    MW4 1840   3.602   3.456   0.866  0.1237  0.6218  0.1302
    1SOL     OW 1841   3.835   3.593   0.798 -0.2145 -0.0969 -0.5168
    1SOL    HW2 1842   3.903   3.557   0.855 -0.5893 -0.1538 -0.1054
    1SOL    HW3 1843   3.754   3.554   0.830 -0.6375  1.1973  0.0148
    1SOL    MW4 1844   3.833   3.583   0.810 -0.3200  0.0665 -0.3924
    1SOL     OW 1845   3.779   3.858   0.791 -0.2391  0.1676  0.2618
    1SOL    HW2 1846   3.750   3.866   0.700 -1.1235  1.2294  0.6208
    1SOL    HW3 1847   3.785   3.764   0.806  1.7661 -0.0095 -1.4529
    1SOL    MW4 1848   3.776   3.847   0.781 -0.0913  0.2844  0.0829
    1SOL     OW 1849   3.318   3.908   0.625  0.6770  0.4143 -0.1247
    1SOL    HW2 1850   3.387   3.956   0.579  1.4596 -0.8199 -0.2389
    1SOL    HW3 1851   3.359   3.878   0.706 -0.2688  1.2743  0.6841
    1SOL    MW4 1852   3.332   3.911   0.630  0.6552  0.3648 -0.0330
    1SOL     OW 1853   3.492   4.218   0.770  0.0887 -0.1183 -0.3377
    1SOL    HW2 1854   3.574   4.228   0.817  0.2203 -0.6256 -0.4556
    1SOL    HW3 1855   3.489   4.292   0.709  0.0048  0.4338  0.3377
    1SOL    MW4 1856   3.502   4.229   0.768  0.0954 -0.1125 -0.2642
    1SOL     OW 1857   3.700   4.377   0.893  0.2106  0.2325  0.2096
    1SOL    HW2 1858   3.779   4.348   0.848  0.5107 -0.0336  0.9038
    1SOL    HW3 1859   3.687   4.467   0.862 -0.0966 -0.2506 -1.0940
    1SOL    MW4 1860   3.709   4.385   0.883  0.2093  0.1340  0.1292
    1SOL     OW 1861   4.227   0.017   0.841 -0.5929  0.4284 -0.0162
    1SOL    HW2 1862   4.224   0.020   0.936  0.7510  0.0903  0.0436
    1SOL    HW3 1863   4.144   0.057   0.813 -1.4057 -0.3013  1.2912
    1SOL    MW4 1864   4.216   0.022   0.850 -0.5231  0.2871  0.1643
    1SOL     OW 1865   3.980   0.160   0.783 -0.6022  0.9620  0.5206
    1SOL    HW2 1866   3.993   0.249   0.817  0.9343  1.0794 -0.3148
    1SOL    HW3 1867   3.967   0.173   0.689  1.2141  0.1910  0.1474
    1SOL    MW4 1868   3.980   0.174   0.775 -0.1597  0.8758  0.3612
    1SOL     OW 1869   4.041   0.426   0.856 -0.2200  0.1866  0.7638
    1SOL    HW2 1870   4.089   0.453   0.778 -0.7812 -1.5397 -0.2089
    1SOL    HW3 1871   3.952   0.458   0.843  0.0324  1.1905  1.4064
    1SOL    MW4 1872   4.036   0.434   0.844 -0.2608  0.0913  0.7203
    1SOL     OW 1873   4.224   0.529   0.663 -0.5538  0.4201  0.1824
    1SOL    HW2 1874   4.301   0.485   0.698 -1.8144 -1.0728  1.1568
    1SOL    HW3 1875   4.217   0.499   0.573 -0.3158  0.1248  0.2622
    1SOL    MW4 1876   4.233   0.519   0.656 -0.6890  0.1842  0.3215
    1SOL     OW 1877   4.231   0.735   0.857  0.3304 -0.2579  0.0418
    1SOL    HW2 1878   4.147   0.777   0.840  1.4094  2.2420  0.6100
    1SOL    HW3 1879   4.243   0.674   0.784 -0.8468  1.1726 -1.3806
    1SOL    MW4 1880   4.222   0.733   0.845  0.3176  0.2607 -0.0709
    1SOL     OW 1881   4.012   0.886   0.788  0.7122  0.1027  0.1359
    1SOL    HW2 1882   4.046   0.973   0.806  1.2812 -0.3514  1.3292
    1SOL    HW3 1883   4.043   0.865   0.700 -0.9475  1.8258 -0.8752
    1SOL    MW4 1884   4.021   0.895   0.779  0.5679  0.2701  0.1599
    1SOL     OW 1885   4.061   1.166   0.836  0.2644  0.3540  0.4427
    1SOL    HW2 1886   4.049   1.154   0.930  0.9462  0.7693  0.5855
    1SOL    HW3 1887   3.977   1.199   0.805 -0.3002 -0.7855  0.7291
    1SOL    MW4 1888   4.048   1.168   0.844  0.2799  0.2584  0.4994
    1SOL     OW 1889   4.294   1.315   0.786 -0.3391  0.3189 -0.2118
    1SOL    HW2 1890   4.209   1.274   0.803 -0.6851 -0.2937 -3.0887
    1SOL    HW3 1891   4.358   1.248   0.809 -0.7249  0.0832  0.1659
    1SOL    MW4 1892   4.292   1.301   0.791 -0.4358  0.2068 -0.5415
    1SOL     OW 1893   4.265   1.562   0.873 -0.2080  0.2114 -0.0620
    1SOL    HW2 1894   4.240   1.547   0.964 -0.1394  0.6955  0.0400
    1SOL    HW3 1895   4.282   1.475   0.838  2.7778  0.2109  1.2639
    1SOL    MW4 1896   4.264   1.549   0.880  0.1945  0.2751  0.1264
    1SOL     OW 1897   4.048   1.691   0.785  0.0739 -0.2485 -0.2792
    1SOL    HW2 1898   4.120   1.641   0.824 -1.4594 -1.9574  0.4542
    1SOL    HW3 1899   4.053   1.672   0.692  0.9816  0.1973 -0.3283
    1SOL    MW4 1900   4.058   1.682   0.778 -0.0086 -0.4151 -0.1889
    1SOL     OW 1901   4.100   1.954   0.848 -0.3396  0.2823 -0.3496
    1SOL    HW2 1902   4.098   1.861   0.825 -0.5778  0.1782  0.0941
    1SOL    HW3 1903   4.187   1.984   0.819  1.3701 -1.0132  3.1445
    1SOL    MW4 1904   4.112   1.946   0.841 -0.1450  0.0978  0.1699
    1SOL     OW 1905   4.296   2.072   0.698  0.0177 -0.1539 -0.1763
    1SOL    HW2 1906   4.379   2.031   0.723 -0.0034 -0.3091 -0.3567
    1SOL    HW3 1907   4.286   2.050   0.605  0.5530  1.2012 -0.5672
    1SOL    MW4 1908   4.306   2.064   0.689  0.0854  0.0045 -0.2517
    1SOL     OW 1909   4.300   2.318   0.832  0.1637  0.4659  0.1550
    1SOL    HW2 1910   4.253   2.370   0.767 -0.9411 -0.5761  0.1058
    1SOL    HW3 1911   4.291   2.228   0.802 -0.1540 -0.0061  1.6007
    1SOL    MW4 1912   4.292   2.313   0.820 -0.0243  0.2663  0.3392
    1SOL     OW 1913   4.142   2.493   0.662 -0.0541 -0.0727 -0.5922
    1SOL    HW2 1914   4.118   2.551   0.735  2.2441 -0.2606  0.3490
    1SOL    HW3 1915   4.064   2.440   0.647 -1.1226  1.1091  0.6386
    1SOL    MW4 1916   4.128   2.494   0.670  0.1082  0.0584 -0.3057
    1SOL     OW 1917   4.125   2.690   0.870  0.2794  0.1557 -0.0845
    1SOL    HW2 1918   4.203   2.743   0.852  0.4656  0.3444  1.2670
    1SOL    HW3 1919   4.055   2.734   0.822  1.0416 -0.1449 -1.5011
    1SOL    MW4 1920   4.126   2.703   0.861  0.4048  0.1411 -0.0930
    1SOL     OW 1921   4.352   2.813   0.790 -0.1203 -0.4276  0.1292
    1SOL    HW2 1922   4.440   2.787   0.820 -0.1388  0.3398  0.8814
    1SOL    HW3 1923   4.352   2.794   0.697 -0.0161 -2.8083  0.5911
    1SOL    MW4 1924   4.364   2.807   0.782 -0.1087 -0.6404  0.2894
    1SOL     OW 1925   4.281   3.087   0.841  0.4952 -0.1841  0.9019
    1SOL    HW2 1926   4.297   2.993   0.834 -0.3360 -0.1620 -1.8763
    1SOL    HW3 1927   4.364   3.128   0.818  0.2770 -0.2428 -0.0316
    1SOL    MW4 1928   4.294   3.080   0.837  0.3567 -0.1888  0.4122
    1SOL     OW 1929   4.059   3.226   0.732 -0.1599  0.4594 -0.2641
    1SOL    HW2 1930   4.071   3.312   0.772 -0.1900 -0.0274  0.8033
    1SOL    HW3 1931   4.134   3.175   0.762 -0.8302 -0.2798  0.1815
    1SOL    MW4 1932   4.070   3.230   0.741 -0.2518  0.2975 -0.0645
    1SOL     OW 1933   4.087   3.456   0.901  0.1080 -0.4988  0.1409
    1SOL    HW2 1934   4.074   3.457   0.996 -0.6984  2.2647  0.0204
    1SOL    HW3 1935   4.150   3.525   0.884 -0.5125 -0.3045 -1.4545
    1SOL    MW4 1936   4.094   3.465   0.911 -0.0801 -0.1082 -0.0855
    1SOL     OW 1937   4.285   3.638   0.825  0.1060  0.0452 -0.3350
    1SOL    HW2 1938   4.294   3.731   0.848  0.3480  0.1644 -0.9027
    1SOL    HW3 1939   4.307   3.635   0.732 -0.1602 -0.5431 -0.3755
    1SOL    MW4 1940   4.289   3.650   0.816  0.1025 -0.0167 -0.4153
    1SOL     OW 1941   4.271   3.917   0.905 -0.3436 -0.5542  0.6251
    1SOL    HW2 1942   4.267   3.907   1.001 -1.0452 -0.3394  0.6242
    1SOL    HW3 1943   4.183   3.947   0.881  0.0578  0.1257 -0.0037
    1SOL    MW4 1944   4.259   3.920   0.915 -0.3829 -0.4363  0.5420
    1SOL     OW 1945   4.029   3.969   0.779 -0.1986 -0.3505  0.1963
    1SOL    HW2 1946   3.944   3.925   0.783  0.4619 -1.4949  2.1552
    1SOL    HW3 1947   4.051   3.969   0.686 -2.2187 -0.2523 -0.3153
    1SOL    MW4 1948   4.021   3.964   0.767 -0.3781 -0.4885  0.3873
    1SOL     OW 1949   3.976   4.232   0.813  0.4616  0.1143 -0.0277
    1SOL    HW2 1950   4.053   4.289   0.807  0.4447  0.3151  1.5038
    1SOL    HW3 1951   4.010   4.144   0.799  1.0160  0.1768  0.9265
    1SOL    MW4 1952   3.991   4.228   0.810  0.5324  0.1488  0.3003
    1SOL     OW 1953   4.203   4.410   0.826  0.1611  0.0733  0.0689
    1SOL    HW2 1954   4.203   4.505   0.828 -0.9862  0.0719  0.1710
    1SOL    HW3 1955   4.288   4.385   0.864  1.6620  1.0877 -2.4460
    1SOL    MW4 1956   4.215   4.419   0.831  0.2084  0.2065 -0.2495
    1SOL     OW 1957   0.212   4.654   1.172 -0.3472 -0.1932  0.3106
    1SOL    HW2 1958   0.288   4.697   1.210 -0.1125 -0.9296  0.6860
    1SOL    HW3 1959   0.220   4.667   1.078  1.3248 -1.9906  0.1672
    1SOL    MW4 1960   0.223   4.661   1.165 -0.0957 -0.5275  0.3411
    1SOL     OW 1961   4.473   0.108   1.218 -0.1885  0.3138 -0.6038
    1SOL    HW2 1962   4.401   0.049   1.194 -0.2116  0.9873 -2.2386
    1SOL    HW3 1963   4.552   0.058   1.198 -0.1963  0.2064 -0.3755
    1SOL    MW4 1964   4.474   0.093   1.212 -0.1926  0.3885 -0.7894
    1SOL     OW 1965   4.481   0.356   1.096 -0.0604  0.2175 -0.4549
    1SOL    HW2 1966   4.429   0.408   1.157  0.4128 -0.9946  1.0285
    1SOL    HW3 1967   4.487   0.269   1.137  0.7636 -0.4656 -1.9451
    1SOL    MW4 1968   4.475   0.351   1.109  0.1106 -0.0325 -0.4560
    1SOL     OW 1969   0.221   0.472   1.211  0.0283 -0.5280 -0.0041
    1SOL    HW2 1970   0.228   0.561   1.177  1.1575 -0.1309  1.1859
    1SOL    HW3 1971   0.154   0.429   1.157 -1.9023  1.6106  0.6433
    1SOL    MW4 1972   0.213   0.478   1.200 -0.0774 -0.1935  0.2383
    1SOL     OW 1973   0.218   0.740   1.136 -0.1814 -0.4489  0.2206
    1SOL    HW2 1974   0.296   0.788   1.163  0.8250 -2.4889  1.0402
    1SOL    HW3 1975   0.146   0.799   1.156  0.9363  0.2865  2.2358
    1SOL    MW4 1976   0.219   0.754   1.142  0.0988 -0.6210  0.5946
    1SOL     OW 1977   0.011   0.901   1.228 -0.1377 -0.1400  0.4602
    1SOL    HW2 1978   0.011   0.895   1.324 -0.8969 -0.7661  0.4287
    1SOL    HW3 1979  -0.060   0.842   1.201  0.7048 -0.6930 -0.5375
    1SOL    MW4 1980   0.001   0.892   1.237 -0.1268 -0.2956  0.3244
    1SOL     OW 1981   0.019   1.138   1.082  0.3457  0.0724 -0.2505
    1SOL    HW2 1982  -0.059   1.186   1.112 -0.1552  0.3386 -1.9649
    1SOL    HW3 1983   0.021   1.060   1.138 -0.2831  0.8111  0.8275
    1SOL    MW4 1984   0.009   1.134   1.094  0.1965  0.2049 -0.3344
    1SOL     OW 1985   0.239   1.262   1.243  0.3844  0.3631 -0.3653
    1SOL    HW2 1986   0.317   1.209   1.224  0.9348  1.6825 -1.8539
    1SOL    HW3 1987   0.168   1.216   1.198  0.3521 -0.5997  0.6311
    1SOL    MW4 1988   0.240   1.249   1.235  0.4528  0.4102 -0.4302
    1SOL     OW 1989   0.218   1.518   1.156 -0.0004 -0.0083 -0.1510
    1SOL    HW2 1990   0.208   1.430   1.191 -0.3998  0.1443  0.1230
    1SOL    HW3 1991   0.191   1.510   1.064 -1.2352  0.0800  0.1922
    1SOL    MW4 1992   0.213   1.505   1.148 -0.2160  0.0235 -0.0696
    1SOL     OW 1993   4.487   1.677   1.215  0.3836 -0.5890  0.6588
    1SOL    HW2 1994   4.484   1.768   1.184  0.6369 -0.7531  0.1491
    1SOL    HW3 1995   4.574   1.646   1.189 -0.1876 -1.3769 -0.3020
    1SOL    MW4 1996   4.498   1.685   1.207  0.3414 -0.7148  0.4648
    1SOL     OW 1997   0.011   1.938   1.126  0.6254 -0.0843  0.0671
    1SOL    HW2 1998  -0.068   1.986   1.151  0.0770 -0.5802 -0.7253
    1SOL    HW3 1999   0.011   1.939   1.031  1.3917 -0.3906  0.0614
    1SOL    MW4 2000   0.000   1.945   1.117  0.6542 -0.1901 -0.0383
    1SOL     OW 2001   0.236   2.056   1.238  0.7022  0.4352  0.6810
    1SOL    HW2 2002   0.227   2.149   1.217  1.7416  0.2048 -0.8901
    1SOL    HW3 2003   0.152   2.017   1.215  0.3515  0.9334  1.1079
    1SOL    MW4 2004   0.224   2.063   1.232  0.7931  0.4702  0.5301
    1SOL     OW 2005   0.210   2.333   1.145 -0.5725 -0.0679 -0.1277
    1SOL    HW2 2006   0.278   2.388   1.185 -0.1714 -2.2357  2.2938
    1SOL    HW3 2007   0.129   2.362   1.185 -0.5830 -0.0782 -0.1416
    1SOL    MW4 2008   0.208   2.344   1.155 -0.5209 -0.3552  0.1900
    1SOL     OW 2009   4.460   2.417   1.243 -0.4006  0.4677 -0.3762
    1SOL    HW2 2010   4.458   2.432   1.338  0.5950  0.6521 -0.3846
    1SOL    HW3 2011   4.396   2.347   1.229  0.7676 -0.8321  0.6562
    1SOL    MW4 2012   4.451   2.410   1.254 -0.1154  0.3204 -0.2412
    1SOL     OW 2013   0.034   2.678   1.186  0.3570 -0.3053 -0.3388
    1SOL    HW2 2014  -0.030   2.735   1.229  0.6938 -0.0225 -0.2139
    1SOL    HW3 2015  -0.003   2.590   1.194 -0.8534  0.0483 -1.7581
    1SOL    MW4 2016   0.020   2.674   1.193  0.2418 -0.2215 -0.5096
    1SOL     OW 2017   0.275   2.806   1.269  0.2030  0.1739  0.3238
    1SOL    HW2 2018   0.246   2.813   1.360  0.1272 -0.7201  0.3766
    1SOL    HW3 2019   0.218   2.739   1.231  0.8966 -0.1710 -0.1159
    1SOL    MW4 2020   0.264   2.798   1.276  0.2846  0.0105  0.2726
    1SOL     OW 2021   0.254   3.057   1.126  0.5013 -0.0845 -0.0277
    1SOL    HW2 2022   0.314   3.122   1.163 -1.7824  1.8023  0.4734
    1SOL    HW3 2023   0.267   2.979   1.180  1.0082  0.9761  1.4100
    1SOL    MW4 2024   0.263   3.055   1.138  0.2669  0.3045  0.2282
    1SOL     OW 2025   0.063   3.213   1.255  0.3697  0.5985 -0.6636
    1SOL    HW2 2026  -0.021   3.182   1.223  0.2599 -0.8111  0.9152
    1SOL    HW3 2027   0.127   3.155   1.214  0.1629 -1.8494  2.3126
    1SOL    MW4 2028   0.060   3.202   1.245  0.3279  0.0894 -0.0626
    1SOL     OW 2029   0.007   3.493   1.163 -0.3881  0.2342 -0.5678
    1SOL    HW2 2030   0.035   3.416   1.211 -1.5108 -0.3613 -0.8400
    1SOL    HW3 2031   0.016   3.469   1.071  0.1962  0.7767 -0.6511
    1SOL    MW4 2032   0.012   3.480   1.157 -0.4591  0.2270 -0.6148
    1SOL     OW 2033   0.245   3.635   1.229 -0.0312  0.3005 -0.0066
    1SOL    HW2 2034   0.249   3.652   1.324 -0.0501 -0.5737  0.1545
    1SOL    HW3 2035   0.157   3.603   1.214  0.2043 -0.2621 -0.2010
    1SOL    MW4 2036   0.234   3.633   1.240 -0.0026  0.1109 -0.0110
    1SOL     OW 2037   0.206   3.882   1.133  0.5163 -0.3553  0.3735
    1SOL    HW2 2038   0.142   3.927   1.189  0.5999  0.0420  0.1492
    1SOL    HW3 2039   0.227   3.802   1.181  0.8092  0.1242  1.0466
    1SOL    MW4 2040   0.200   3.877   1.147  0.5660 -0.2396  0.4326
    1SOL     OW 2041   0.014   4.009   1.273  0.0401 -0.0314 -0.0808
    1SOL    HW2 2042   0.011   4.010   1.368 -1.4018  0.4698 -0.1148
    1SOL    HW3 2043  -0.063   3.957   1.247 -0.7479  1.5320 -0.9806
    1SOL    MW4 2044   0.003   4.002   1.282 -0.2542  0.2408 -0.2041
    1SOL     OW 2045   4.476   4.263   1.147  0.0562 -0.0572  0.8567
    1SOL    HW2 2046   4.543   4.320   1.184  0.7153 -0.3649  0.1621
    1SOL    HW3 2047   4.485   4.180   1.195  0.1391 -0.0837  0.7940
    1SOL    MW4 2048   4.486   4.259   1.158  0.1540 -0.1011  0.7567
    1SOL     OW 2049   0.219   4.380   1.238 -0.4462  0.0653  0.3533
    1SOL    HW2 2050   0.242   4.401   1.329 -0.1394 -2.0168  0.7708
    1SOL    HW3 2051   0.226   4.464   1.192 -1.0237  1.2403  2.3283
    1SOL    MW4 2052   0.223   4.394   1.244 -0.4819 -0.0539  0.6690
    1SOL     OW 2053   0.651   4.646   1.097 -0.2460 -0.2849 -0.0617
    1SOL    HW2 2054   0.726   4.682   1.144 -1.6716  0.0838  1.9809
    1SOL    HW3 2055   0.638   4.559   1.136 -0.4682 -0.6332 -0.8941
    1SOL    MW4 2056   0.659   4.639   1.108 -0.4634 -0.2828  0.0979
    1SOL     OW 2057   0.452   0.110   1.248 -0.3287  0.2557  0.6319
    1SOL    HW2 2058   0.457   0.204   1.230  2.1804  0.1121  0.3843
    1SOL    HW3 2059   0.516   0.070   1.188 -2.7066 -1.8418 -0.6067
    1SOL    MW4 2060   0.461   0.117   1.238 -0.3114 -0.0400  0.4358
    1SOL     OW 2061   0.461   0.356   1.122  0.0586  0.1065 -0.1479
    1SOL    HW2 2062   0.384   0.410   1.139 -0.2233 -0.3206 -0.0646
    1SOL    HW3 2063   0.449   0.326   1.032 -0.5376 -1.0331  0.2964
    1SOL    MW4 2064   0.449   0.359   1.112 -0.0573 -0.1003 -0.0782
    1SOL     OW 2065   0.690   0.495   1.203 -0.4542  0.1692  0.0033
    1SOL    HW2 2066   0.685   0.571   1.145 -0.2801  1.0959  1.1894
    1SOL    HW3 2067   0.618   0.438   1.175  0.5992 -0.1328 -2.1502
    1SOL    MW4 2068   0.680   0.497   1.192 -0.2922  0.2515 -0.1243
    1SOL     OW 2069   0.669   0.745   1.082  0.5031 -0.0450 -0.1990
    1SOL    HW2 2070   0.594   0.796   1.114  1.0246  0.0301  0.8975
    1SOL    HW3 2071   0.671   0.764   0.988 -0.1470  0.8714 -0.0434
    1SOL    MW4 2072   0.659   0.754   1.074  0.4861  0.0858 -0.0339
    1SOL     OW 2073   0.450   0.872   1.190 -0.3583 -0.1754  0.5409
    1SOL    HW2 2074   0.472   0.865   1.283  0.7105 -0.7723  0.2541
    1SOL    HW3 2075   0.450   0.966   1.172 -0.1831 -0.0784  1.0521
    1SOL    MW4 2076   0.453   0.883   1.200 -0.1942 -0.2414  0.5705
    1SOL     OW 2077   0.481   1.131   1.144  0.7056  0.1663  0.4321
    1SOL    HW2 2078   0.548   1.183   1.189  1.1417  0.7977 -0.9149
    1SOL    HW3 2079   0.494   1.151   1.051 -0.4896 -0.7438  0.0604
    1SOL    MW4 2080   0.492   1.141   1.137  0.6054  0.1297  0.2053
    1SOL     OW 2081   0.694   1.266   1.220 -0.2552  0.3756  0.3638
    1SOL    HW2 2082   0.745   1.207   1.163 -1.1033  0.5526 -0.5959
    1SOL    HW3 2083   0.710   1.353   1.184 -0.9312  0.4723  0.2957
    1SOL    MW4 2084   0.703   1.270   1.207 -0.4562  0.4117  0.2282
    1SOL     OW 2085   0.687   1.508   1.097  0.8834 -0.5395 -0.0452
    1SOL    HW2 2086   0.752   1.564   1.138  0.5620 -0.0754 -0.1714
    1SOL    HW3 2087   0.603   1.549   1.117  0.7201 -0.3331 -1.1234
    1SOL    MW4 2088   0.684   1.521   1.105  0.8194 -0.4510 -0.2041
    1SOL     OW 2089   0.461   1.634   1.194 -0.4283 -0.4430  0.2543
    1SOL    HW2 2090   0.462   1.643   1.289 -1.4156  1.0874  0.1445
    1SOL    HW3 2091   0.389   1.573   1.176 -1.2157  0.4173  0.4263
    1SOL    MW4 2092   0.451   1.627   1.204 -0.6624 -0.1276  0.2626
    1SOL     OW 2093   0.466   1.918   1.140  0.0820 -0.4023 -0.4858
    1SOL    HW2 2094   0.463   1.822   1.144  0.3699 -0.3918  0.0457
    1SOL    HW3 2095   0.383   1.946   1.179 -0.1087 -0.4424 -0.8661
    1SOL    MW4 2096   0.454   1.909   1.146  0.0949 -0.4061 -0.4658
    1SOL     OW 2097   0.666   2.080   1.227  0.2605  0.3197  0.0199
    1SOL    HW2 2098   0.689   2.070   1.320 -2.5516  1.8816  0.9495
    1SOL    HW3 2099   0.597   2.016   1.213  0.9133 -0.1488 -1.1104
    1SOL    MW4 2100   0.660   2.070   1.238 -0.0244  0.4642 -0.0066
    1SOL     OW 2101   0.662   2.352   1.123 -0.2069 -0.2117  0.0032
    1SOL    HW2 2102   0.585   2.395   1.159 -0.6696 -0.3547 -0.7822
    1SOL    HW3 2103   0.648   2.259   1.141 -1.4000 -0.5029 -2.2274
    1SOL    MW4 2104   0.650   2.345   1.130 -0.4253 -0.2689 -0.3948
    1SOL     OW 2105   0.428   2.462   1.254  0.0560 -0.1591 -0.2155
    1SOL    HW2 2106   0.434   2.468   1.349  0.0254  0.3956 -0.2481
    1SOL    HW3 2107   0.445   2.551   1.223 -1.1977 -0.0669 -0.6705
    1SOL    MW4 2108   0.431   2.475   1.262 -0.1134 -0.0737 -0.2797
    1SOL     OW 2109   0.481   2.701   1.121 -0.4339 -0.2368  0.1646
    1SOL    HW2 2110   0.415   2.741   1.177 -0.8672  0.3558 -0.7456
    1SOL    HW3 2111   0.443   2.703   1.033  1.0190  0.6248 -0.4748
    1SOL    MW4 2112   0.468   2.706   1.117 -0.2994 -0.0448 -0.0398
    1SOL     OW 2113   0.693   2.863   1.241 -0.4913 -0.0472  0.0554
    1SOL    HW2 2114   0.691   2.950   1.200  0.3930  0.2746  0.6909
    1SOL    HW3 2115   0.623   2.815   1.197 -3.5335  2.1428  2.3023
    1SOL    MW4 2116   0.684   2.868   1.230 -0.7761  0.2844  0.4357
    1SOL     OW 2117   0.673   3.113   1.122 -0.2026  0.1401 -0.2985
    1SOL    HW2 2118   0.741   3.176   1.143  0.9070 -0.9557 -0.5734
    1SOL    HW3 2119   0.676   3.105   1.027 -1.4488  0.8973 -0.4135
    1SOL    MW4 2120   0.682   3.120   1.112 -0.2206  0.0954 -0.3499
    1SOL     OW 2121   0.449   3.223   1.241 -0.2270  0.0099 -0.8482
    1SOL    HW2 2122   0.466   3.312   1.210 -1.4760 -0.4258 -2.8508
    1SOL    HW3 2123   0.518   3.170   1.202  0.9883  0.1931  0.9851
    1SOL    MW4 2124   0.460   3.228   1.232 -0.2314 -0.0236 -0.8705
    1SOL     OW 2125   0.470   3.486   1.134  0.1476 -0.3747  0.1001
    1SOL    HW2 2126   0.546   3.525   1.178 -0.3981 -1.2878  1.9342
    1SOL    HW3 2127   0.396   3.540   1.163 -0.2365 -1.0654  0.4343
    1SOL    MW4 2128   0.470   3.499   1.144  0.0249 -0.5863  0.3861
    1SOL     OW 2129   0.686   3.601   1.276 -0.5230  0.2580  0.2526
    1SOL    HW2 2130   0.671   3.610   1.370  0.4229  0.7042  0.3646
    1SOL    HW3 2131   0.687   3.691   1.243  0.4810  0.1737  0.0366
    1SOL    MW4 2132   0.684   3.614   1.284 -0.2657  0.3059  0.2389
    1SOL     OW 2133   0.688   3.847   1.170 -0.2082  0.3929  0.1381
    1SOL    HW2 2134   0.607   3.895   1.185 -0.5929 -0.0766 -0.3729
    1SOL    HW3 2135   0.696   3.844   1.074 -0.2096 -0.5634  0.1574
    1SOL    MW4 2136   0.678   3.853   1.159 -0.2591  0.2048  0.0732
    1SOL     OW 2137   0.452   3.987   1.208 -0.3945  0.3734  0.2433
    1SOL    HW2 2138   0.452   4.079   1.183 -2.0394  0.1328 -0.7309
    1SOL    HW3 2139   0.365   3.955   1.183  0.4470 -1.6570 -0.2135
    1SOL    MW4 2140   0.440   3.995   1.202 -0.5005  0.0739  0.0544
    1SOL     OW 2141   0.438   4.244   1.138  0.0761  0.2534  0.2911
    1SOL    HW2 2142   0.512   4.302   1.158 -0.3254  0.9057 -0.1123
    1SOL    HW3 2143   0.363   4.287   1.178 -0.2649  0.1163 -0.2061
    1SOL    MW4 2144   0.438   4.257   1.146 -0.0219  0.3209  0.1721
    1SOL     OW 2145   0.651   4.401   1.225  0.1896  0.3287  0.3115
    1SOL    HW2 2146   0.658   4.392   1.320 -0.5486  1.8468  0.5227
    1SOL    HW3 2147   0.732   4.363   1.192  1.3876  1.6288  1.6724
    1SOL    MW4 2148   0.663   4.395   1.233  0.2502  0.7010  0.5189
    1SOL     OW 2149   1.101   4.613   1.135  0.5860 -0.3699  0.1963
    1SOL    HW2 2150   1.109   4.519   1.151 -2.0188 -0.4854  1.0062
    1SOL    HW3 2151   1.102   4.622   1.039 -0.3342 -1.3595  0.0863
    1SOL    MW4 2152   1.102   4.602   1.124  0.1210 -0.5155  0.2885
    1SOL     OW 2153   0.870   0.081   1.220  0.4593  0.1046 -0.3080
    1SOL    HW2 2154   0.865   0.063   1.314 -0.9619  0.2775 -0.3269
    1SOL    HW3 2155   0.950   0.037   1.191  0.4510 -0.6863  0.8258
    1SOL    MW4 2156   0.880   0.073   1.228  0.2707  0.0231 -0.1608
    1SOL     OW 2157   0.914   0.376   1.120 -0.2472 -0.0050  0.2639
    1SOL    HW2 2158   0.906   0.284   1.143 -1.0367  0.0256  0.1215
    1SOL    HW3 2159   0.833   0.416   1.152 -0.0499  0.5777  0.0425
    1SOL    MW4 2160   0.902   0.369   1.127 -0.3253  0.0759  0.2160
    1SOL     OW 2161   1.156   0.489   1.181  0.2884 -0.0595 -0.5745
    1SOL    HW2 2162   1.165   0.466   1.273 -0.5335 -0.7664 -0.6600
    1SOL    HW3 2163   1.074   0.446   1.153 -0.5504  1.8411 -1.1044
    1SOL    MW4 2164   1.146   0.480   1.189  0.0694  0.0980 -0.6558
    1SOL     OW 2165   1.129   0.774   1.092 -0.1386 -0.4999 -0.1844
    1SOL    HW2 2166   1.044   0.808   1.119  0.1684 -0.4733  0.7650
    1SOL    HW3 2167   1.127   0.682   1.119  0.3358 -0.3627  0.3508
    1SOL    MW4 2168   1.117   0.766   1.099 -0.0355 -0.4783  0.0114
    1SOL     OW 2169   0.895   0.878   1.204 -0.0556 -0.6082 -0.1072
    1SOL    HW2 2170   0.891   0.959   1.154  0.2564 -0.3557  0.2700
    1SOL    HW3 2171   0.821   0.826   1.172 -0.2124 -0.2073 -0.4031
    1SOL    MW4 2172   0.885   0.882   1.193 -0.0350 -0.5220 -0.0963
    1SOL     OW 2173   0.896   1.125   1.069 -0.2714 -0.1487 -0.1735
    1SOL    HW2 2174   0.970   1.171   1.109 -1.2415  0.9527  0.3857
    1SOL    HW3 2175   0.905   1.144   0.975 -1.1129  1.8983  0.1308
    1SOL    MW4 2176   0.907   1.134   1.062 -0.5104  0.2668 -0.0595
    1SOL     OW 2177   1.102   1.242   1.208 -0.2309  0.2205  0.4411
    1SOL    HW2 2178   1.108   1.243   1.303 -0.0411  0.1162  0.4307
    1SOL    HW3 2179   1.181   1.195   1.179 -0.8561 -0.7440  0.2745
    1SOL    MW4 2180   1.113   1.236   1.216 -0.2884  0.0795  0.4178
    1SOL     OW 2181   1.139   1.520   1.115  0.5916  0.1679 -0.2108
    1SOL    HW2 2182   1.137   1.426   1.134 -0.1997  0.3699  0.7728
    1SOL    HW3 2183   1.131   1.526   1.020  1.6206 -0.7885 -0.3691
    1SOL    MW4 2184   1.138   1.508   1.105  0.6230  0.0683 -0.1019
    1SOL     OW 2185   0.903   1.665   1.205  0.6174 -0.4459 -0.0568
    1SOL    HW2 2186   0.899   1.754   1.172  0.8744 -0.6484 -0.6334
    1SOL    HW3 2187   0.982   1.627   1.165  0.5923 -0.8842  0.2950
    1SOL    MW4 2188   0.913   1.671   1.196  0.6479 -0.5304 -0.0863
    1SOL     OW 2189   0.880   1.919   1.121 -0.3097  0.4409 -0.2921
    1SOL    HW2 2190   0.957   1.954   1.165 -1.0679 -0.2556  1.6350
    1SOL    HW3 2191   0.806   1.968   1.157 -1.1619 -1.6324  0.9010
    1SOL    MW4 2192   0.880   1.930   1.131 -0.5221  0.0756  0.1194
    1SOL     OW 2193   1.124   2.024   1.217  0.3769  0.1798  0.2541
    1SOL    HW2 2194   1.118   2.031   1.312  0.6914 -0.0837  0.2954
    1SOL    HW3 2195   1.125   2.114   1.186 -1.3335  0.2528  0.3993
    1SOL    MW4 2196   1.124   2.037   1.225  0.1926  0.1547  0.2787
    1SOL     OW 2197   1.109   2.301   1.146 -0.1015  0.0258  0.3146
    1SOL    HW2 2198   1.189   2.345   1.175 -0.4640  0.9637 -0.1131
    1SOL    HW3 2199   1.038   2.349   1.189 -0.4149 -1.1307  1.1090
    1SOL    MW4 2200   1.110   2.313   1.155 -0.1907 -0.0031  0.3631
    1SOL     OW 2201   0.889   2.458   1.258 -0.3200 -0.4332  0.1236
    1SOL    HW2 2202   0.878   2.449   1.353 -2.4318 -1.8677 -0.2070
    1SOL    HW3 2203   0.813   2.412   1.222  0.8012 -0.4284 -2.2761
    1SOL    MW4 2204   0.877   2.450   1.266 -0.4507 -0.6220 -0.2366
    1SOL     OW 2205   0.926   2.707   1.151  0.4936 -0.3689 -0.1955
    1SOL    HW2 2206   0.924   2.619   1.188 -0.5472 -0.3800 -0.2631
    1SOL    HW3 2207   0.854   2.753   1.195 -0.5471 -0.2830 -1.9496
    1SOL    MW4 2208   0.916   2.701   1.162  0.2190 -0.3588 -0.4358
    1SOL     OW 2209   1.144   2.813   1.267  0.0096 -0.2020 -0.0965
    1SOL    HW2 2210   1.137   2.823   1.362  0.5864  1.3082 -0.2062
    1SOL    HW3 2211   1.061   2.773   1.241 -1.2223  1.7298  0.7246
    1SOL    MW4 2212   1.132   2.809   1.276 -0.0768  0.2520 -0.0026
    1SOL     OW 2213   1.113   3.073   1.159 -0.6398  0.2312  0.2288
    1SOL    HW2 2214   1.119   2.979   1.174  3.4381  0.4334  0.4401
    1SOL    HW3 2215   1.101   3.082   1.065  2.6670 -0.4812 -0.3088
    1SOL    MW4 2216   1.112   3.062   1.149  0.3345  0.1638  0.1857
    1SOL     OW 2217   0.895   3.229   1.255 -0.5258 -0.0048  0.6698
    1SOL    HW2 2218   0.926   3.317   1.234  1.1224 -0.6654  0.1858
    1SOL    HW3 2219   0.971   3.173   1.239 -1.6260 -1.5469  0.7294
    1SOL    MW4 2220   0.909   3.233   1.250 -0.4535 -0.2952  0.6137
    1SOL     OW 2221   0.893   3.481   1.138 -0.3477 -0.4641 -0.0359
    1SOL    HW2 2222   0.817   3.524   1.176  0.2897 -0.2340  0.9909
    1SOL    HW3 2223   0.887   3.499   1.044 -1.0603  0.3171  0.1593
    1SOL    MW4 2224   0.882   3.489   1.131 -0.3576 -0.3307  0.1253
    1SOL     OW 2225   1.121   3.603   1.222  0.0699  0.3262 -0.1479
    1SOL    HW2 2226   1.193   3.546   1.194 -0.6473 -0.8323  0.3191
    1SOL    HW3 2227   1.042   3.559   1.189 -0.4879  1.0511  0.2181
    1SOL    MW4 2228   1.120   3.589   1.214 -0.0982  0.2692 -0.0380
    1SOL     OW 2229   1.143   3.880   1.136 -0.1110  0.1968  0.5650
    1SOL    HW2 2230   1.061   3.919   1.166 -2.1056 -0.9838 -3.0581
    1SOL    HW3 2231   1.137   3.788   1.162 -0.0558  0.0556  0.0814
    1SOL    MW4 2232   1.131   3.873   1.144 -0.3669  0.0224  0.0230
    1SOL     OW 2233   0.909   3.978   1.244  0.1152  0.5823  0.1715
    1SOL    HW2 2234   0.926   3.983   1.338 -0.2138 -0.7599  0.3181
    1SOL    HW3 2235   0.821   3.942   1.237  0.9338 -1.3598 -0.6539
    1SOL    MW4 2236   0.900   3.974   1.255  0.1798  0.1490  0.0821
    1SOL     OW 2237   0.891   4.240   1.141  0.3073 -0.5687 -0.0042
    1SOL    HW2 2238   0.878   4.151   1.175 -1.6922 -0.3796 -0.2146
    1SOL    HW3 2239   0.909   4.228   1.048 -0.7741 -0.7159 -0.1979
    1SOL    MW4 2240   0.892   4.227   1.133 -0.0992 -0.5631 -0.0575
    1SOL     OW 2241   1.133   4.333   1.227  0.1208  0.0339  0.1331
    1SOL    HW2 2242   1.136   4.340   1.323  0.8960  0.4706  0.0876
    1SOL    HW3 2243   1.053   4.285   1.209 -0.9569  1.4991  0.9183
    1SOL    MW4 2244   1.123   4.328   1.237  0.0808  0.2847  0.2307
    1SOL     OW 2245   1.573   4.636   1.184  0.2076  0.1621 -0.3841
    1SOL    HW2 2246   1.658   4.679   1.195  0.0269  0.2398  0.7150
    1SOL    HW3 2247   1.591   4.543   1.199  0.2737  0.0543 -1.0980
    1SOL    MW4 2248   1.587   4.629   1.187  0.1925  0.1578 -0.3333
    1SOL     OW 2249   1.329   0.111   1.185 -0.1067  0.1182  0.0473
    1SOL    HW2 2250   1.387   0.035   1.177  0.5498  0.4793  1.2020
    1SOL    HW3 2251   1.243   0.079   1.159  0.5288 -0.5264 -1.3400
    1SOL    MW4 2252   1.326   0.097   1.180  0.0638  0.0808  0.0166
    1SOL     OW 2253   1.395   0.369   1.116  0.2546  0.1744 -0.1990
    1SOL    HW2 2254   1.382   0.276   1.133  0.2773  0.1556 -0.2858
    1SOL    HW3 2255   1.313   0.410   1.146 -0.0723  0.0349 -0.8880
    1SOL    MW4 2256   1.382   0.363   1.122  0.2145  0.1535 -0.3015
    1SOL     OW 2257   1.615   0.475   1.232  0.3886  0.1666  0.0722
    1SOL    HW2 2258   1.603   0.559   1.188 -1.4700  0.3657  0.9314
    1SOL    HW3 2259   1.538   0.423   1.208  0.9669 -0.8848  0.4462
    1SOL    MW4 2260   1.603   0.479   1.223  0.2197  0.0541  0.2350
    1SOL     OW 2261   1.584   0.739   1.124 -0.1976 -0.5264 -0.2809
    1SOL    HW2 2262   1.634   0.809   1.166  0.3798 -2.4351  2.3157
    1SOL    HW3 2263   1.594   0.755   1.031  1.4142  1.7983  0.2506
    1SOL    MW4 2264   1.592   0.751   1.118  0.0913 -0.4715  0.1317
    1SOL     OW 2265   1.363   0.848   1.239  0.4053 -0.0823 -0.1390
    1SOL    HW2 2266   1.429   0.794   1.196 -0.0936 -2.1373  1.5986
    1SOL    HW3 2267   1.280   0.815   1.206  0.1055 -0.1514  0.6751
    1SOL    MW4 2268   1.361   0.837   1.229  0.2999 -0.3625  0.1978
    1SOL     OW 2269   1.339   1.097   1.113  0.2253  0.3836  0.3268
    1SOL    HW2 2270   1.344   1.004   1.132 -2.0010  0.1807  0.1071
    1SOL    HW3 2271   1.359   1.103   1.019 -0.0013  0.0795  0.2581
    1SOL    MW4 2272   1.342   1.086   1.103 -0.0982  0.3167  0.2887
    1SOL     OW 2273   1.532   1.304   1.206  0.1524  0.6938 -0.2702
    1SOL    HW2 2274   1.614   1.256   1.193  0.7190  1.5488  0.1103
    1SOL    HW3 2275   1.464   1.244   1.174  0.9329  0.0402 -0.7286
    1SOL    MW4 2276   1.534   1.290   1.200  0.3301  0.7204 -0.2804
    1SOL     OW 2277   1.571   1.562   1.093  0.2733  0.6693 -0.4854
    1SOL    HW2 2278   1.642   1.588   1.153  1.2827  1.8217 -2.1480
    1SOL    HW3 2279   1.552   1.471   1.118  1.3589  0.7991  0.9137
    1SOL    MW4 2280   1.578   1.553   1.104  0.5498  0.8385 -0.5202
    1SOL     OW 2281   1.344   1.659   1.208 -0.0365  0.1576  0.4119
    1SOL    HW2 2282   1.424   1.621   1.170 -0.4892  1.2185 -1.6450
    1SOL    HW3 2283   1.273   1.605   1.174 -0.4080  0.7809  0.1933
    1SOL    MW4 2284   1.345   1.647   1.198 -0.1454  0.3799  0.1116
    1SOL     OW 2285   1.333   1.890   1.077 -0.7001  0.1341 -0.0017
    1SOL    HW2 2286   1.339   1.806   1.124 -1.3361  0.4364  0.6097
    1SOL    HW3 2287   1.263   1.938   1.121 -0.6744  0.7924 -0.6724
    1SOL    MW4 2288   1.325   1.885   1.089 -0.7807  0.2609 -0.0097
    1SOL     OW 2289   1.534   2.071   1.189  0.1839 -0.1768 -0.7153
    1SOL    HW2 2290   1.524   2.160   1.155 -1.5246  0.2815  0.8872
    1SOL    HW3 2291   1.470   2.020   1.140 -0.2876 -0.0948 -0.1867
    1SOL    MW4 2292   1.524   2.076   1.178 -0.1037 -0.1056 -0.4342
    1SOL     OW 2293   1.593   2.343   1.122  0.0136 -0.0627 -0.3672
    1SOL    HW2 2294   1.510   2.387   1.139 -0.9737 -1.7088 -0.8163
    1SOL    HW3 2295   1.591   2.323   1.028  0.4610 -1.0140 -0.1862
    1SOL    MW4 2296   1.582   2.346   1.112 -0.0577 -0.4053 -0.4026
    1SOL     OW 2297   1.347   2.451   1.195 -0.0915  0.1321 -0.1565
    1SOL    HW2 2298   1.372   2.434   1.287  0.2094  0.7014 -0.1333
    1SOL    HW3 2299   1.345   2.546   1.188 -0.5987  0.0851 -0.6171
    1SOL    MW4 2300   1.350   2.461   1.206 -0.1189  0.2010 -0.2142
    1SOL     OW 2301   1.340   2.729   1.114 -0.4054 -0.0868  0.0806
    1SOL    HW2 2302   1.414   2.777   1.150 -0.8599  1.1993 -0.6763
    1SOL    HW3 2303   1.266   2.754   1.169 -0.5270 -0.4237  0.0729
    1SOL    MW4 2304   1.340   2.738   1.126 -0.4812  0.0384 -0.0204
    1SOL     OW 2305   1.559   2.831   1.245 -0.0565 -0.5300 -0.1641
    1SOL    HW2 2306   1.627   2.770   1.216  1.9212  0.5359  2.0184
    1SOL    HW3 2307   1.592   2.917   1.220 -0.4401  0.0159  1.1705
    1SOL    MW4 2308   1.573   2.834   1.238  0.1539 -0.3173  0.2998
    1SOL     OW 2309   1.608   3.078   1.160  0.0409  0.4323  0.0692
    1SOL    HW2 2310   1.673   3.135   1.200  0.4030  0.1151 -0.0646
    1SOL    HW3 2311   1.524   3.115   1.187  0.2753 -0.2532  1.7817
    1SOL    MW4 2312   1.605   3.091   1.168  0.1197  0.2999  0.2774
    1SOL     OW 2313   1.361   3.192   1.243 -0.2177 -0.6638 -0.5688
    1SOL    HW2 2314   1.350   3.217   1.335  1.0247 -2.4970  0.1253
    1SOL    HW3 2315   1.279   3.149   1.219 -0.5598 -0.1410 -0.3208
    1SOL    MW4 2316   1.349   3.189   1.252 -0.0988 -0.8368 -0.4444
    1SOL     OW 2317   1.371   3.467   1.157 -0.2776 -0.5675  0.4458
    1SOL    HW2 2318   1.388   3.375   1.174  1.8537 -0.1291  0.7757
    1SOL    HW3 2319   1.361   3.473   1.062  1.7872 -0.7928  0.2110
    1SOL    MW4 2320   1.372   3.456   1.147  0.2761 -0.5393  0.4582
    1SOL     OW 2321   1.585   3.614   1.273 -0.0118 -0.4202 -0.2726
    1SOL    HW2 2322   1.590   3.697   1.226 -0.1475 -0.7522 -0.8768
    1SOL    HW3 2323   1.512   3.567   1.232  0.8572 -1.3539 -0.7752
    1SOL    MW4 2324   1.576   3.619   1.261  0.0850 -0.5870 -0.4185
    1SOL     OW 2325   1.605   3.849   1.130 -0.0350  0.2237  0.4565
    1SOL    HW2 2326   1.522   3.878   1.166  0.2272  0.2859  1.0238
    1SOL    HW3 2327   1.597   3.861   1.035 -0.6892  0.1693  0.5076
    1SOL    MW4 2328   1.593   3.854   1.122 -0.0867  0.2246  0.5381
    1SOL     OW 2329   1.382   3.981   1.250 -0.0425 -0.4677  0.4859
    1SOL    HW2 2330   1.391   4.069   1.214  0.7553 -0.8770 -0.3253
    1SOL    HW3 2331   1.300   3.948   1.215  0.1939 -0.4501 -0.0908
    1SOL    MW4 2332   1.373   3.988   1.241  0.0941 -0.5193  0.3028
    1SOL     OW 2333   1.386   4.235   1.149  0.8899 -0.6132  0.5193
    1SOL    HW2 2334   1.309   4.282   1.181  2.1230  0.9412  1.2528
    1SOL    HW3 2335   1.368   4.220   1.056 -0.0106  0.3314  0.5333
    1SOL    MW4 2336   1.374   4.239   1.141  0.9338 -0.2837  0.6180
    1SOL     OW 2337   1.640   4.365   1.225  0.2309  0.9434 -0.2216
    1SOL    HW2 2338   1.632   4.355   1.320  0.7734 -2.8061 -0.4665
    1SOL    HW3 2339   1.560   4.324   1.191  2.3730 -2.4108 -1.4614
    1SOL    MW4 2340   1.628   4.358   1.233  0.5851  0.0062 -0.4176
    1SOL     OW 2341   2.056   4.623   1.092  0.5364 -0.1326  0.0842
    1SOL    HW2 2342   2.053   4.531   1.119 -1.3101 -0.5370 -1.3869
    1SOL    HW3 2343   2.063   4.619   0.997  1.4634  1.2717  0.0852
    1SOL    MW4 2344   2.056   4.610   1.083  0.4148 -0.0010 -0.1098
    1SOL     OW 2345   1.828   0.083   1.186 -0.1373  0.1633  0.1196
    1SOL    HW2 2346   1.827   0.174   1.157  0.0637 -0.1605 -0.9156
    1SOL    HW3 2347   1.895   0.042   1.133  0.4588 -0.3727  1.2767
    1SOL    MW4 2348   1.836   0.090   1.175 -0.0321  0.0499  0.1357
    1SOL     OW 2349   1.844   0.346   1.143  0.2310 -0.1521  0.3835
    1SOL    HW2 2350   1.761   0.377   1.178  0.7084  1.1671  0.4059
    1SOL    HW3 2351   1.844   0.376   1.051  1.2210  1.0120  0.7427
    1SOL    MW4 2352   1.833   0.354   1.135  0.4246  0.1755  0.4338
    1SOL     OW 2353   2.042   0.517   1.234 -0.5936 -0.4353  0.4090
    1SOL    HW2 2354   2.027   0.522   1.328 -1.9631  1.1539  0.1221
    1SOL    HW3 2355   1.974   0.458   1.202 -0.8873 -0.0001  0.2405
    1SOL    MW4 2356   2.031   0.510   1.242 -0.8135 -0.1681  0.3488
    1SOL     OW 2357   2.002   0.788   1.131 -0.2875  0.5466  0.0516
    1SOL    HW2 2358   2.007   0.695   1.152 -0.0761  0.7817  1.0842
    1SOL    HW3 2359   2.013   0.792   1.036  0.4596 -0.4227  0.0859
    1SOL    MW4 2360   2.004   0.776   1.122 -0.1609  0.4497  0.1924
    1SOL     OW 2361   1.773   0.913   1.234 -0.2612 -1.0251 -0.5087
    1SOL    HW2 2362   1.791   0.903   1.328 -0.5031  1.2837 -0.1908
    1SOL    HW3 2363   1.848   0.872   1.191  0.4680 -0.9849  0.6931
    1SOL    MW4 2364   1.785   0.906   1.241 -0.1968 -0.7153 -0.3082
    1SOL     OW 2365   1.756   1.166   1.131  0.2942  0.0459  0.1127
    1SOL    HW2 2366   1.759   1.077   1.167  0.6806 -0.1011 -0.2714
    1SOL    HW3 2367   1.772   1.154   1.037  1.8755  0.6557  0.2897
    1SOL    MW4 2368   1.759   1.152   1.123  0.5538  0.1069  0.0854
    1SOL     OW 2369   1.981   1.304   1.208  0.3036 -0.3010 -0.7030
    1SOL    HW2 2370   2.047   1.251   1.162  0.9706 -0.9118  0.9243
    1SOL    HW3 2371   1.898   1.268   1.179  0.7558 -3.1023  1.3117
    1SOL    MW4 2372   1.979   1.292   1.198  0.4513 -0.7511 -0.2227
    1SOL     OW 2373   2.000   1.578   1.169 -0.2486 -0.1963  0.0713
    1SOL    HW2 2374   2.005   1.491   1.207  0.9824  0.5240  1.6326
    1SOL    HW3 2375   1.990   1.563   1.075 -0.1295 -2.0127  0.3367
    1SOL    MW4 2376   1.999   1.565   1.161 -0.0706 -0.3411  0.3121
    1SOL     OW 2377   1.761   1.685   1.241 -0.3307 -0.3657  0.2844
    1SOL    HW2 2378   1.760   1.776   1.210 -1.1896 -0.4804 -0.0391
    1SOL    HW3 2379   1.845   1.650   1.211  0.2372  0.4853  0.8767
    1SOL    MW4 2380   1.772   1.692   1.233 -0.3690 -0.2685  0.3198
    1SOL     OW 2381   1.775   1.947   1.127 -0.4472  0.0118  0.0610
    1SOL    HW2 2382   1.696   1.996   1.151  0.3357  1.7855 -0.8650
    1SOL    HW3 2383   1.771   1.942   1.031  0.3653 -0.2303  0.0363
    1SOL    MW4 2384   1.764   1.953   1.117 -0.2366  0.2139 -0.0644
    1SOL     OW 2385   1.987   2.109   1.205  0.1028 -0.2900 -0.1266
    1SOL    HW2 2386   1.982   2.104   1.301  1.1024 -1.9146 -0.1329
    1SOL    HW3 2387   1.914   2.056   1.174 -1.7117  2.2370 -0.2986
    1SOL    MW4 2388   1.977   2.102   1.214 -0.0046 -0.1712 -0.1501
    1SOL     OW 2389   2.058   2.348   1.102 -0.1115 -0.8381 -0.2587
    1SOL    HW2 2390   2.125   2.378   1.164 -0.7639 -0.0629  0.0859
    1SOL    HW3 2391   2.038   2.259   1.130 -0.9748 -0.2190  1.1677
    1SOL    MW4 2392   2.064   2.340   1.114 -0.3114 -0.6540 -0.0250
    1SOL     OW 2393   1.832   2.439   1.270 -0.4445 -0.3576  0.1290
    1SOL    HW2 2394   1.920   2.420   1.236 -0.1475  0.4112  0.4585
    1SOL    HW3 2395   1.775   2.380   1.222  0.1471 -0.2421 -0.7370
    1SOL    MW4 2396   1.836   2.429   1.259 -0.3271 -0.2410  0.0584
    1SOL     OW 2397   1.790   2.701   1.164  0.2962  0.0801 -0.0114
    1SOL    HW2 2398   1.794   2.609   1.190  1.6146 -0.0045 -0.5053
    1SOL    HW3 2399   1.813   2.701   1.071  1.7245  1.0555  0.3272
    1SOL    MW4 2400   1.794   2.689   1.155  0.6586  0.1976 -0.0318
    1SOL     OW 2401   2.016   2.822   1.230  0.0628  0.2120 -0.2348
    1SOL    HW2 2402   2.010   2.908   1.189  0.2262 -0.3587 -1.4590
    1SOL    HW3 2403   1.938   2.775   1.201 -0.1737  0.0353  0.6605
    1SOL    MW4 2404   2.005   2.827   1.221  0.0529  0.1135 -0.2782
    1SOL     OW 2405   2.033   3.140   1.147  0.1000 -0.3992 -0.2603
    1SOL    HW2 2406   1.944   3.143   1.182  0.0155 -0.2138 -0.4933
    1SOL    HW3 2407   2.022   3.143   1.052  0.4048  1.0861 -0.2759
    1SOL    MW4 2408   2.020   3.141   1.139  0.1292 -0.1786 -0.2930
    1SOL     OW 2409   1.804   3.243   1.259 -0.0095 -0.3346 -0.0740
    1SOL    HW2 2410   1.758   3.260   1.342  1.3710  0.2323  0.5890
    1SOL    HW3 2411   1.819   3.330   1.222  1.1850 -0.4664  0.0867
    1SOL    MW4 2412   1.800   3.257   1.265  0.3302 -0.2770  0.0347
    1SOL     OW 2413   1.811   3.497   1.139 -0.0760 -0.0357 -0.2324
    1SOL    HW2 2414   1.886   3.545   1.174 -0.8496  0.7261  0.3984
    1SOL    HW3 2415   1.736   3.532   1.187 -0.7437 -1.3376 -0.3059
    1SOL    MW4 2416   1.811   3.508   1.150 -0.2661 -0.1070 -0.1588
    1SOL     OW 2417   2.043   3.639   1.225 -0.2394  0.2758  0.0384
    1SOL    HW2 2418   2.047   3.617   1.318 -1.5368 -0.9351 -0.1764
    1SOL    HW3 2419   2.112   3.586   1.185 -0.5915 -0.2464  0.1183
    1SOL    MW4 2420   2.053   3.630   1.232 -0.4568  0.0470  0.0206
    1SOL     OW 2421   2.052   3.897   1.119 -0.5575 -0.2471  0.2333
    1SOL    HW2 2422   1.979   3.921   1.177  0.1982  0.3455  0.9458
    1SOL    HW3 2423   2.075   3.807   1.145 -1.2834 -0.5802 -0.2577
    1SOL    MW4 2424   2.045   3.888   1.130 -0.5536 -0.2129  0.2625
    1SOL     OW 2425   1.830   3.982   1.249  0.9375  0.1656 -0.0637
    1SOL    HW2 2426   1.828   3.959   1.342  0.5720  0.0594 -0.1000
    1SOL    HW3 2427   1.748   3.950   1.214 -0.0112  2.3329  0.0773
    1SOL    MW4 2428   1.819   3.975   1.257  0.7643  0.4375 -0.0499
    1SOL     OW 2429   1.857   4.219   1.124 -0.6728  0.7692 -0.0163
    1SOL    HW2 2430   1.862   4.134   1.168  0.7970  1.2801  0.8239
    1SOL    HW3 2431   1.786   4.266   1.169 -2.1219 -0.3264 -1.0906
    1SOL    MW4 2432   1.848   4.214   1.136 -0.6700  0.6919 -0.0473
    1SOL     OW 2433   2.081   4.369   1.217  0.4870 -0.7105 -0.0532
    1SOL    HW2 2434   2.084   4.376   1.312  0.7722  2.4667 -0.2586
    1SOL    HW3 2435   2.007   4.311   1.199 -0.4052 -0.2342  2.0503
    1SOL    MW4 2436   2.072   4.362   1.227  0.4070 -0.2289  0.1972
    1SOL     OW 2437   2.478   0.007   1.117  0.0793 -0.1302 -0.2467
    1SOL    HW2 2438   2.548   0.065   1.150 -0.1335  0.8629 -1.4588
    1SOL    HW3 2439   2.400   0.033   1.165 -0.0127  0.6076 -0.7800
    1SOL    MW4 2440   2.477   0.018   1.128  0.0389  0.0982 -0.4768
    1SOL     OW 2441   2.251   0.094   1.247 -0.6712  0.4426 -0.5712
    1SOL    HW2 2442   2.246   0.178   1.202 -0.7281  0.5131 -0.4335
    1SOL    HW3 2443   2.178   0.043   1.211 -0.6582  0.4653 -0.6291
    1SOL    MW4 2444   2.241   0.098   1.236 -0.6771  0.4549 -0.5606
    1SOL     OW 2445   2.253   0.347   1.161 -0.1620 -0.4030 -0.2183
    1SOL    HW2 2446   2.175   0.397   1.185 -0.1786 -1.0453  1.1045
    1SOL    HW3 2447   2.254   0.348   1.065 -0.9137  0.9580 -0.2129
    1SOL    MW4 2448   2.243   0.353   1.151 -0.2632 -0.3082 -0.0430
    1SOL     OW 2449   2.463   0.491   1.203 -0.2552 -0.2895 -0.1428
    1SOL    HW2 2450   2.481   0.511   1.295  0.3353 -0.6946 -0.1684
    1SOL    HW3 2451   2.381   0.443   1.204 -1.2103  1.3027  0.0093
    1SOL    MW4 2452   2.455   0.487   1.215 -0.3033 -0.1329 -0.1261
    1SOL     OW 2453   2.449   0.774   1.154  0.0634 -0.5702 -0.0780
    1SOL    HW2 2454   2.437   0.682   1.177 -1.6996 -0.5115 -0.7085
    1SOL    HW3 2455   2.450   0.774   1.058 -1.9066  0.2887 -0.1185
    1SOL    MW4 2456   2.448   0.762   1.144 -0.4292 -0.4492 -0.1664
    1SOL     OW 2457   2.228   0.924   1.242  0.3093  0.3192  0.0289
    1SOL    HW2 2458   2.297   0.866   1.210  1.7584  1.7153  0.5451
    1SOL    HW3 2459   2.146   0.879   1.220  1.3442 -0.6889 -1.8889
    1SOL    MW4 2460   2.226   0.910   1.235  0.6368  0.3704 -0.1562
    1SOL     OW 2461   2.208   1.167   1.110 -0.2063  0.4068  0.0115
    1SOL    HW2 2462   2.286   1.218   1.128  0.4970  0.3321 -2.6243
    1SOL    HW3 2463   2.225   1.082   1.151  1.7998 -0.1429 -1.8975
    1SOL    MW4 2464   2.220   1.162   1.118  0.1512  0.3245 -0.5879
    1SOL     OW 2465   2.446   1.292   1.196  0.3475 -0.6164  0.0420
    1SOL    HW2 2466   2.524   1.246   1.163 -0.0548 -0.6677 -0.8443
    1SOL    HW3 2467   2.450   1.379   1.157 -0.1295 -0.6763 -0.1479
    1SOL    MW4 2468   2.457   1.297   1.186  0.2315 -0.6309 -0.1000
    1SOL     OW 2469   2.470   1.551   1.120 -0.2387  0.4957  0.5306
    1SOL    HW2 2470   2.395   1.603   1.152 -0.4536  0.2795  0.3783
    1SOL    HW3 2471   2.472   1.567   1.026 -0.0739  0.5276  0.5405
    1SOL    MW4 2472   2.460   1.560   1.112 -0.2451  0.4714  0.5118
    1SOL     OW 2473   2.251   1.671   1.221  0.1599  0.2951 -0.0907
    1SOL    HW2 2474   2.244   1.766   1.220  0.7678  0.3413 -2.3766
    1SOL    HW3 2475   2.163   1.640   1.198 -0.0004  0.3052  0.5066
    1SOL    MW4 2476   2.239   1.679   1.218  0.2193  0.3026 -0.3135
    1SOL     OW 2477   2.193   1.932   1.189 -0.4917  0.1500  0.1295
    1SOL    HW2 2478   2.114   1.972   1.227 -0.1712 -1.0872  2.1996
    1SOL    HW3 2479   2.185   1.948   1.095 -3.3246 -0.1159  0.2729
    1SOL    MW4 2480   2.181   1.939   1.182 -0.8233 -0.0484  0.4215
    1SOL     OW 2481   2.432   2.052   1.254  0.3466  0.3612  0.7163
    1SOL    HW2 2482   2.504   2.002   1.216  0.2239  0.7224  0.0070
    1SOL    HW3 2483   2.353   2.005   1.226  0.3005 -0.0111  1.4579
    1SOL    MW4 2484   2.431   2.039   1.246  0.3245  0.3595  0.7205
    1SOL     OW 2485   2.508   2.284   1.134  0.3604 -0.1569 -0.3280
    1SOL    HW2 2486   2.471   2.204   1.172 -0.1720 -0.0420 -0.5940
    1SOL    HW3 2487   2.497   2.273   1.039 -3.7106  2.0722 -0.2494
    1SOL    MW4 2488   2.502   2.272   1.126 -0.2468  0.1523 -0.3526
    1SOL     OW 2489   2.281   2.436   1.235  0.4162 -0.4317  0.3528
    1SOL    HW2 2490   2.272   2.417   1.329  0.2941 -0.2127  0.3887
    1SOL    HW3 2491   2.366   2.401   1.211  0.5509 -0.2798  0.6015
    1SOL    MW4 2492   2.291   2.429   1.244  0.4179 -0.3824  0.3904
    1SOL     OW 2493   2.231   2.698   1.117 -0.1530 -0.2323 -0.6383
    1SOL    HW2 2494   2.246   2.618   1.167 -1.0997 -0.5893 -0.9173
    1SOL    HW3 2495   2.157   2.740   1.161 -0.2979 -0.0121 -1.0935
    1SOL    MW4 2496   2.223   2.693   1.130 -0.2973 -0.2503 -0.7352
    1SOL     OW 2497   2.467   2.831   1.225 -0.5280  0.5906 -0.0644
    1SOL    HW2 2498   2.457   2.820   1.320  0.4895 -0.4666 -0.0662
    1SOL    HW3 2499   2.395   2.780   1.188 -0.2633  0.0667  0.1261
    1SOL    MW4 2500   2.456   2.823   1.233 -0.3591  0.3822 -0.0395
    1SOL     OW 2501   2.499   3.081   1.115 -0.1119 -0.5765  0.1721
    1SOL    HW2 2502   2.425   3.132   1.149  1.3569  0.9498  1.1398
    1SOL    HW3 2503   2.493   2.997   1.160 -1.3436 -0.5380  0.1119
    1SOL    MW4 2504   2.488   3.077   1.125 -0.0808 -0.3698  0.2918
    1SOL     OW 2505   2.290   3.229   1.213 -0.2891  0.2775 -0.0009
    1SOL    HW2 2506   2.276   3.319   1.184 -0.2799  0.9659  2.0308
    1SOL    HW3 2507   2.209   3.183   1.189 -0.7283  1.0857 -0.0887
    1SOL    MW4 2508   2.277   3.235   1.206 -0.3457  0.4752  0.2557
    1SOL     OW 2509   2.253   3.482   1.110 -0.0532 -0.3173  0.3412
    1SOL    HW2 2510   2.331   3.525   1.144 -0.1703  0.8751 -0.8290
    1SOL    HW3 2511   2.261   3.491   1.015 -0.6353 -1.9379  0.1260
    1SOL    MW4 2512   2.265   3.489   1.102 -0.1454 -0.3738  0.1583
    1SOL     OW 2513   2.465   3.625   1.199 -0.3638  0.1593 -0.2015
    1SOL    HW2 2514   2.481   3.643   1.292 -0.0296  1.2432 -0.4695
    1SOL    HW3 2515   2.474   3.709   1.156  0.6501 -0.5405 -1.3868
    1SOL    MW4 2516   2.469   3.638   1.206 -0.1860  0.2098 -0.3932
    1SOL     OW 2517   2.480   3.884   1.120 -0.0735  0.0585  0.2332
    1SOL    HW2 2518   2.409   3.938   1.154  0.0390 -0.6545  1.6206
    1SOL    HW3 2519   2.478   3.899   1.026 -4.5531 -2.9210 -0.3108
    1SOL    MW4 2520   2.470   3.893   1.112 -0.6497 -0.4289  0.3445
    1SOL     OW 2521   2.263   4.022   1.234  0.0296 -0.0459  0.1220
    1SOL    HW2 2522   2.269   4.110   1.197 -1.0153 -0.0875 -0.1487
    1SOL    HW3 2523   2.187   3.983   1.192 -0.3916 -0.5648  1.3469
    1SOL    MW4 2524   2.254   4.028   1.224 -0.1638 -0.1197  0.2480
    1SOL     OW 2525   2.292   4.264   1.087 -0.2713 -0.4166  0.2519
    1SOL    HW2 2526   2.215   4.304   1.126 -0.0877  1.2839 -1.1086
    1SOL    HW3 2527   2.263   4.234   1.001  0.2398 -0.9705  0.2687
    1SOL    MW4 2528   2.278   4.265   1.081 -0.1798 -0.2651  0.0746
    1SOL     OW 2529   2.512   4.408   1.185  0.0126 -0.3719  0.0783
    1SOL    HW2 2530   2.443   4.361   1.139 -0.8739  0.0728  0.9169
    1SOL    HW3 2531   2.492   4.500   1.170  0.7970 -0.2432 -0.2031
    1SOL    MW4 2532   2.500   4.414   1.177 -0.0010 -0.2956  0.1518
    1SOL     OW 2533   2.928   0.001   1.119  0.8822  0.2468  0.4386
    1SOL    HW2 2534   2.930  -0.091   1.145 -0.1985  0.3554  0.9450
    1SOL    HW3 2535   2.898  -0.000   1.029 -0.8396  0.1923  0.9945
    1SOL    MW4 2536   2.924  -0.011   1.111  0.5124  0.2542  0.5786
    1SOL     OW 2537   2.694   0.141   1.225  0.5726  0.0031 -0.2497
    1SOL    HW2 2538   2.689   0.133   1.320 -0.8194  0.7121 -0.2590
    1SOL    HW3 2539   2.778   0.101   1.203  0.4224 -1.1436  1.1609
    1SOL    MW4 2540   2.705   0.135   1.235  0.3691 -0.0546 -0.0647
    1SOL     OW 2541   2.708   0.391   1.103  0.0152  0.1768 -0.1759
    1SOL    HW2 2542   2.693   0.304   1.141 -0.2219 -0.7822 -2.4100
    1SOL    HW3 2543   2.643   0.447   1.146  0.0930 -0.7644  1.2068
    1SOL    MW4 2544   2.697   0.387   1.114 -0.0055 -0.0739 -0.2884
    1SOL     OW 2545   2.905   0.503   1.255  0.3958 -0.1871 -0.0802
    1SOL    HW2 2546   2.915   0.586   1.208 -1.1985  0.5024  0.7389
    1SOL    HW3 2547   2.836   0.457   1.206 -0.4320  0.0287  0.8574
    1SOL    MW4 2548   2.897   0.508   1.242  0.0763 -0.0677  0.1516
    1SOL     OW 2549   2.917   0.766   1.128  0.2063 -0.3827 -0.1417
    1SOL    HW2 2550   2.991   0.812   1.169  0.3210 -1.6506  1.1307
    1SOL    HW3 2551   2.842   0.791   1.182  0.1966 -1.3381  0.2855
    1SOL    MW4 2552   2.917   0.776   1.141  0.2201 -0.6760  0.0825
    1SOL     OW 2553   2.690   0.883   1.228 -0.0964 -0.2669 -0.3903
    1SOL    HW2 2554   2.663   0.969   1.197 -1.4979 -0.9956 -1.2647
    1SOL    HW3 2555   2.616   0.826   1.208  0.3245 -1.4397  1.2763
    1SOL    MW4 2556   2.677   0.887   1.221 -0.2260 -0.5178 -0.2857
    1SOL     OW 2557   2.660   1.149   1.130  0.2764 -0.6077 -0.0907
    1SOL    HW2 2558   2.743   1.172   1.172  0.8118 -2.7258  0.0589
    1SOL    HW3 2559   2.679   1.152   1.037  0.4100 -0.7222 -0.0668
    1SOL    MW4 2560   2.673   1.153   1.124  0.3648 -0.9022 -0.0678
    1SOL     OW 2561   2.898   1.250   1.238  0.2067  0.2121  0.1382
    1SOL    HW2 2562   2.915   1.270   1.330 -2.7812  0.6870  0.6381
    1SOL    HW3 2563   2.891   1.336   1.196 -0.5904  0.0492 -0.0820
    1SOL    MW4 2564   2.899   1.264   1.245 -0.2928  0.2533  0.1752
    1SOL     OW 2565   2.882   1.533   1.127 -0.0564  0.1208 -0.1460
    1SOL    HW2 2566   2.962   1.560   1.172 -0.1150  1.0955 -0.6115
    1SOL    HW3 2567   2.889   1.574   1.041  0.1661 -1.8973 -1.1154
    1SOL    MW4 2568   2.894   1.542   1.121 -0.0346 -0.0168 -0.3351
    1SOL     OW 2569   2.676   1.690   1.230 -0.6602 -0.2222  0.4855
    1SOL    HW2 2570   2.753   1.638   1.209 -0.3411  0.2158  0.5655
    1SOL    HW3 2571   2.602   1.634   1.205 -0.3295 -0.8241  0.8215
    1SOL    MW4 2572   2.676   1.676   1.224 -0.5746 -0.2438  0.5404
    1SOL     OW 2573   2.673   1.952   1.141  0.3553 -0.2322  0.2185
    1SOL    HW2 2574   2.745   2.008   1.168  1.9800 -1.8375 -0.6655
    1SOL    HW3 2575   2.695   1.866   1.177 -0.9720 -0.8001 -0.2998
    1SOL    MW4 2576   2.685   1.948   1.149  0.3946 -0.5190  0.0334
    1SOL     OW 2577   2.909   2.094   1.214  0.3234 -0.0442 -0.0277
    1SOL    HW2 2578   2.908   2.094   1.309 -0.9487  0.1620 -0.0293
    1SOL    HW3 2579   2.904   2.187   1.190 -0.4817 -0.1458 -0.2855
    1SOL    MW4 2580   2.908   2.106   1.223  0.0496 -0.0303 -0.0619
    1SOL     OW 2581   2.942   2.351   1.126 -0.1390  0.2997  0.2329
    1SOL    HW2 2582   3.015   2.375   1.182  0.2045  2.9431 -1.2792
    1SOL    HW3 2583   2.867   2.398   1.163  0.2204  2.5840 -1.8477
    1SOL    MW4 2584   2.942   2.360   1.138 -0.0460  0.9496 -0.2413
    1SOL     OW 2585   2.711   2.458   1.233  0.2319  0.0418  0.0710
    1SOL    HW2 2586   2.707   2.435   1.326 -1.1360  0.2271  0.0653
    1SOL    HW3 2587   2.650   2.398   1.190 -1.2338  1.7638 -0.3220
    1SOL    MW4 2588   2.703   2.447   1.240 -0.1416  0.2933  0.0185
    1SOL     OW 2589   2.708   2.713   1.124  0.3839  0.1182 -0.2526
    1SOL    HW2 2590   2.699   2.628   1.168  1.2531  0.7256  1.1170
    1SOL    HW3 2591   2.627   2.759   1.146  0.1250 -0.1664 -0.5979
    1SOL    MW4 2592   2.696   2.708   1.132  0.4642  0.1605 -0.1174
    1SOL     OW 2593   2.931   2.830   1.225 -0.4902 -0.1500 -0.0084
    1SOL    HW2 2594   2.924   2.824   1.320 -0.1617 -0.7946 -0.0231
    1SOL    HW3 2595   2.853   2.785   1.193 -0.7972  0.3986 -0.0437
    1SOL    MW4 2596   2.920   2.823   1.233 -0.4873 -0.1624 -0.0149
    1SOL     OW 2597   2.932   3.091   1.122  0.1961  0.6414  0.1197
    1SOL    HW2 2598   2.938   2.999   1.146 -0.3990  0.7836  0.8292
    1SOL    HW3 2599   2.916   3.090   1.027 -0.9599 -0.0057  0.3202
    1SOL    MW4 2600   2.931   3.079   1.112 -0.0353  0.5748  0.2397
    1SOL     OW 2601   2.712   3.211   1.215 -0.0193 -0.5279  0.0724
    1SOL    HW2 2602   2.789   3.168   1.178  0.5582 -0.5730  1.3087
    1SOL    HW3 2603   2.638   3.159   1.184  0.5190 -1.0651 -0.3155
    1SOL    MW4 2604   2.712   3.199   1.206  0.1280 -0.6044  0.1844
    1SOL     OW 2605   2.689   3.475   1.110 -0.4509  0.4988  0.2613
    1SOL    HW2 2606   2.694   3.384   1.142 -0.2372  0.3934 -0.0702
    1SOL    HW3 2607   2.611   3.510   1.152  0.2766  0.6181  1.5511
    1SOL    MW4 2608   2.680   3.467   1.120 -0.3266  0.5007  0.3878
    1SOL     OW 2609   2.939   3.615   1.199  0.0249 -0.2870 -0.1810
    1SOL    HW2 2610   3.010   3.555   1.177  0.5559  0.0331  0.6290
    1SOL    HW3 2611   2.859   3.568   1.176  0.5365 -0.1678 -2.2801
    1SOL    MW4 2612   2.938   3.601   1.193  0.1624 -0.2291 -0.3512
    1SOL     OW 2613   2.918   3.875   1.122 -0.4281 -0.1075 -0.6769
    1SOL    HW2 2614   3.002   3.910   1.153 -1.1054  1.3668 -0.4373
    1SOL    HW3 2615   2.926   3.780   1.131  0.1786  0.1670  2.0171
    1SOL    MW4 2616   2.930   3.867   1.127 -0.4375  0.1233 -0.2898
    1SOL     OW 2617   2.700   4.020   1.213  0.0319 -0.0595 -0.7322
    1SOL    HW2 2618   2.777   3.969   1.187 -0.1210 -0.8966  0.3941
    1SOL    HW3 2619   2.626   3.963   1.192 -0.0227 -1.5903  3.1539
    1SOL    MW4 2620   2.701   4.006   1.207  0.0045 -0.3724 -0.0707
    1SOL     OW 2621   2.731   4.258   1.073  0.1832  0.0546 -0.0602
    1SOL    HW2 2622   2.727   4.169   1.108 -0.9356  0.6024  1.2392
    1SOL    HW3 2623   2.672   4.309   1.128 -0.0357  1.3872 -1.4711
    1SOL    MW4 2624   2.723   4.253   1.085  0.0069  0.3028 -0.0749
    1SOL     OW 2625   2.917   4.419   1.216  0.0708  0.2550 -0.0438
    1SOL    HW2 2626   2.992   4.369   1.182  0.4965  0.7679  0.1314
    1SOL    HW3 2627   2.841   4.374   1.180  0.5104  0.8749 -1.8210
    1SOL    MW4 2628   2.917   4.406   1.207  0.1848  0.4048 -0.2551
    1SOL     OW 2629   3.364   0.001   1.094  0.4918 -0.3859 -0.7183
    1SOL    HW2 2630   3.446   0.034   1.131 -0.1724  0.5384 -0.0712
    1SOL    HW3 2631   3.296   0.053   1.136 -0.3281  0.1253 -2.6330
    1SOL    MW4 2632   3.366   0.012   1.104  0.2961 -0.1960 -0.8855
    1SOL     OW 2633   3.146   0.120   1.266  0.0927  0.0912 -0.2737
    1SOL    HW2 2634   3.136   0.117   1.361  0.5251  0.4085 -0.2127
    1SOL    HW3 2635   3.070   0.074   1.232 -2.4512  3.7976  0.0953
    1SOL    MW4 2636   3.135   0.114   1.274 -0.1860  0.6221 -0.2171
    1SOL     OW 2637   3.142   0.369   1.155 -0.5250  0.6106  0.2335
    1SOL    HW2 2638   3.139   0.284   1.198 -1.0560 -0.1459 -1.2394
    1SOL    HW3 2639   3.075   0.421   1.198  0.7305  0.7406  2.0595
    1SOL    MW4 2640   3.133   0.365   1.166 -0.4294  0.5279  0.2800
    1SOL     OW 2641   3.387   0.488   1.253  0.1008 -0.3150 -0.6759
    1SOL    HW2 2642   3.397   0.577   1.219 -2.3782  0.7606  1.2725
    1SOL    HW3 2643   3.319   0.449   1.199  1.2172 -1.0597 -1.5558
    1SOL    MW4 2644   3.379   0.495   1.241 -0.0789 -0.2714 -0.5349
    1SOL     OW 2645   3.395   0.745   1.170  0.3656  0.4363  0.4054
    1SOL    HW2 2646   3.325   0.790   1.218 -0.7394 -0.9094  0.0773
    1SOL    HW3 2647   3.370   0.754   1.078  0.2045 -0.7256  0.3311
    1SOL    MW4 2648   3.383   0.752   1.165  0.1986  0.1054  0.3523
    1SOL     OW 2649   3.146   0.887   1.225  0.4321  0.1740  0.3312
    1SOL    HW2 2650   3.124   0.902   1.317  0.6557 -0.4604  0.4891
    1SOL    HW3 2651   3.163   0.974   1.190  1.0676  0.3484  1.0693
    1SOL    MW4 2652   3.145   0.900   1.232  0.5453  0.1133  0.4494
    1SOL     OW 2653   3.141   1.145   1.123 -0.2844  0.3851 -0.0047
    1SOL    HW2 2654   3.219   1.197   1.142 -0.3947  0.5405  0.0218
    1SOL    HW3 2655   3.068   1.201   1.149 -0.3548 -0.4459  1.6381
    1SOL    MW4 2656   3.142   1.160   1.129 -0.3083  0.2961  0.2156
    1SOL     OW 2657   3.366   1.271   1.213 -0.1944  0.0808  0.3820
    1SOL    HW2 2658   3.372   1.271   1.308  1.1191  0.7442  0.3162
    1SOL    HW3 2659   3.360   1.363   1.189 -1.0889 -0.1094 -0.1551
    1SOL    MW4 2660   3.366   1.283   1.222 -0.1392  0.1433  0.3024
    1SOL     OW 2661   3.334   1.533   1.120 -0.0054  0.2443  0.1965
    1SOL    HW2 2662   3.403   1.577   1.171 -0.8804  0.5364  1.1410
    1SOL    HW3 2663   3.253   1.559   1.162 -0.6270 -1.1288 -0.1317
    1SOL    MW4 2664   3.333   1.542   1.132 -0.2029  0.1017  0.2778
    1SOL     OW 2665   3.110   1.679   1.203 -0.2456  0.2384  0.1393
    1SOL    HW2 2666   3.115   1.694   1.298  2.4259  1.2936 -0.0880
    1SOL    HW3 2667   3.125   1.766   1.165 -0.1167 -0.3764 -1.2502
    1SOL    MW4 2668   3.113   1.693   1.211  0.1240  0.2965 -0.0740
    1SOL     OW 2669   3.162   1.956   1.137 -0.0582  0.0358 -0.4867
    1SOL    HW2 2670   3.240   1.993   1.177 -0.4815  0.5411 -0.1206
    1SOL    HW3 2671   3.089   2.003   1.178 -0.6615 -2.0391  0.9017
    1SOL    MW4 2672   3.163   1.967   1.148 -0.1938 -0.1712 -0.2552
    1SOL     OW 2673   3.357   2.098   1.256  0.2007 -0.0681  0.0238
    1SOL    HW2 2674   3.443   2.075   1.222  0.3265  0.7445 -0.2152
    1SOL    HW3 2675   3.345   2.190   1.231 -0.2085  0.1852  1.1385
    1SOL    MW4 2676   3.367   2.107   1.248  0.1633  0.0725  0.1395
    1SOL     OW 2677   3.369   2.346   1.136 -0.0637 -0.1441 -0.3710
    1SOL    HW2 2678   3.447   2.385   1.175 -0.0831 -1.3422  0.9123
    1SOL    HW3 2679   3.296   2.388   1.182 -0.1228 -0.3129 -0.3083
    1SOL    MW4 2680   3.369   2.356   1.147 -0.0741 -0.3242 -0.1934
    1SOL     OW 2681   3.157   2.445   1.268  0.7419  0.3009  0.1405
    1SOL    HW2 2682   3.143   2.464   1.361 -2.8596 -0.7606 -0.0811
    1SOL    HW3 2683   3.154   2.530   1.225  0.2505  0.6122  0.7851
    1SOL    MW4 2684   3.154   2.458   1.274  0.2019  0.2019  0.1962
    1SOL     OW 2685   3.138   2.676   1.126 -0.3483 -0.3052 -0.1457
    1SOL    HW2 2686   3.057   2.715   1.161 -1.6637 -1.9898 -1.2784
    1SOL    HW3 2687   3.134   2.694   1.032  1.3031  0.8124 -0.0264
    1SOL    MW4 2688   3.127   2.684   1.118 -0.3040 -0.3800 -0.2794
    1SOL     OW 2689   3.358   2.812   1.243 -0.0360  0.2035 -0.6128
    1SOL    HW2 2690   3.358   2.901   1.207 -0.7341  0.0576 -0.9864
    1SOL    HW3 2691   3.303   2.762   1.182 -1.7753  0.0915  1.0388
    1SOL    MW4 2692   3.351   2.817   1.230 -0.3574  0.1695 -0.4442
    1SOL     OW 2693   3.363   3.070   1.142  0.2682  0.2342  0.1420
    1SOL    HW2 2694   3.439   3.125   1.164 -0.6503  1.1382  1.1142
    1SOL    HW3 2695   3.288   3.120   1.175 -0.5450 -1.9081  1.5954
    1SOL    MW4 2696   3.363   3.084   1.149  0.0396  0.0710  0.4621
    1SOL     OW 2697   3.129   3.240   1.249  0.0665  0.0175 -0.1921
    1SOL    HW2 2698   3.148   3.321   1.201  2.1681 -0.2136  0.2060
    1SOL    HW3 2699   3.067   3.194   1.194  1.5641  0.2842 -2.1656
    1SOL    MW4 2700   3.123   3.245   1.235  0.5414  0.0219 -0.4001
    1SOL     OW 2701   3.162   3.479   1.117 -0.1019 -0.3371 -0.0068
    1SOL    HW2 2702   3.219   3.534   1.170 -0.4654 -0.9702  1.0457
    1SOL    HW3 2703   3.175   3.510   1.027  1.4686 -0.1157  0.2941
    1SOL    MW4 2704   3.171   3.490   1.112  0.0575 -0.3917  0.1718
    1SOL     OW 2705   3.345   3.644   1.249  0.3540  0.3773  0.3323
    1SOL    HW2 2706   3.342   3.640   1.344 -0.2907 -0.4709  0.2879
    1SOL    HW3 2707   3.418   3.587   1.225 -0.0990 -0.1909  0.2843
    1SOL    MW4 2708   3.354   3.636   1.258  0.2093  0.1903  0.3201
    1SOL     OW 2709   3.396   3.885   1.093  0.1932 -0.4047  0.0892
    1SOL    HW2 2710   3.323   3.944   1.112  0.7924  0.4104 -0.0642
    1SOL    HW3 2711   3.390   3.817   1.159 -0.0272  0.2841  0.7924
    1SOL    MW4 2712   3.386   3.884   1.104  0.2432 -0.2065  0.1616
    1SOL     OW 2713   3.167   4.012   1.202  0.0434 -0.3622  0.1848
    1SOL    HW2 2714   3.165   4.025   1.297 -1.7543 -1.4323  0.3057
    1SOL    HW3 2715   3.150   4.099   1.166  0.4034 -0.0170  0.8241
    1SOL    MW4 2716   3.165   4.025   1.210 -0.1466 -0.4578  0.2851
    1SOL     OW 2717   3.134   4.277   1.092  0.1616 -0.0336 -0.0878
    1SOL    HW2 2718   3.195   4.319   1.152 -0.6200  1.0526 -0.0472
    1SOL    HW3 2719   3.177   4.279   1.007  0.3536  0.3429  0.0218
    1SOL    MW4 2720   3.148   4.283   1.089  0.0842  0.1593 -0.0678
    1SOL     OW 2721   3.339   4.412   1.219  0.5101  0.1446  0.3268
    1SOL    HW2 2722   3.406   4.353   1.185 -0.5429 -0.4802 -0.7303
    1SOL    HW3 2723   3.352   4.493   1.171  0.4976  0.0090  0.0914
    1SOL    MW4 2724   3.349   4.415   1.208  0.3695  0.0439  0.1562
    1SOL     OW 2725   3.804   0.003   1.121 -0.0726 -0.2161  0.1570
    1SOL    HW2 2726   3.805  -0.084   1.161 -2.4870 -0.3511  0.0024
    1SOL    HW3 2727   3.793  -0.014   1.027  1.5751  0.2161 -0.1347
    1SOL    MW4 2728   3.803  -0.011   1.114 -0.1736 -0.1769  0.0981
    1SOL     OW 2729   3.573   0.115   1.212 -0.4522  0.3127 -0.0767
    1SOL    HW2 2730   3.576   0.210   1.202  1.6744  0.1976 -0.8791
    1SOL    HW3 2731   3.659   0.086   1.182 -1.1124 -1.8727  0.1068
    1SOL    MW4 2732   3.585   0.124   1.207 -0.2584  0.0092 -0.1584
    1SOL     OW 2733   3.616   0.376   1.170  0.5421 -0.0474 -0.7644
    1SOL    HW2 2734   3.687   0.436   1.193  1.1362 -0.8221 -0.6008
    1SOL    HW3 2735   3.539   0.414   1.214  1.2736 -0.4131  0.8613
    1SOL    MW4 2736   3.615   0.389   1.179  0.7169 -0.1978 -0.5283
    1SOL     OW 2737   3.829   0.552   1.240  0.4878 -0.2384  0.3937
    1SOL    HW2 2738   3.917   0.525   1.215  0.6572  0.0826  0.6247
    1SOL    HW3 2739   3.825   0.645   1.215 -0.0105 -0.4219 -0.2064
    1SOL    MW4 2740   3.840   0.561   1.234  0.4444 -0.2202  0.3450
    1SOL     OW 2741   3.803   0.807   1.163 -0.0877 -0.8464 -0.2325
    1SOL    HW2 2742   3.888   0.844   1.187  1.0128 -3.0972 -0.4250
    1SOL    HW3 2743   3.739   0.855   1.215  1.4057  0.2270  0.6325
    1SOL    MW4 2744   3.806   0.818   1.173  0.2546 -1.0018 -0.1438
    1SOL     OW 2745   3.595   0.928   1.280 -0.1438 -0.1481 -0.0684
    1SOL    HW2 2746   3.571   0.989   1.210 -0.8476  0.5121  0.7262
    1SOL    HW3 2747   3.537   0.853   1.267 -0.2734 -0.0243 -0.2121
    1SOL    MW4 2748   3.584   0.926   1.269 -0.2537 -0.0447  0.0175
    1SOL     OW 2749   3.574   1.133   1.107  0.0854 -0.1102  0.1762
    1SOL    HW2 2750   3.656   1.179   1.125  0.4063  0.1325 -1.7993
    1SOL    HW3 2751   3.508   1.180   1.158  0.5675  1.9526 -1.0508
    1SOL    MW4 2752   3.577   1.145   1.116  0.1912  0.1940 -0.2463
    1SOL     OW 2753   3.807   1.264   1.212 -0.5632  0.0349  0.5580
    1SOL    HW2 2754   3.807   1.265   1.307  0.5569  0.5201  0.5576
    1SOL    HW3 2755   3.802   1.356   1.187  1.3870  0.0475  0.1604
    1SOL    MW4 2756   3.806   1.276   1.221 -0.1578  0.1005  0.5056
    1SOL     OW 2757   3.748   1.525   1.111 -0.4526 -0.0257 -0.0931
    1SOL    HW2 2758   3.828   1.558   1.152 -1.4011  0.1395  1.6445
    1SOL    HW3 2759   3.771   1.518   1.018  1.9758 -1.1170  0.5330
    1SOL    MW4 2760   3.762   1.528   1.104 -0.2573 -0.1479  0.2187
    1SOL     OW 2761   3.532   1.701   1.228  0.2503  0.4395 -0.3199
    1SOL    HW2 2762   3.543   1.790   1.195  0.4647 -0.0320 -1.5540
    1SOL    HW3 2763   3.591   1.648   1.174 -1.3903 -0.7588 -0.9602
    1SOL    MW4 2764   3.542   1.706   1.217  0.0620  0.2192 -0.5672
    1SOL     OW 2765   3.573   1.965   1.132 -0.6221 -0.2719  0.6570
    1SOL    HW2 2766   3.665   1.989   1.142 -0.3898 -0.2138 -1.3426
    1SOL    HW3 2767   3.550   1.996   1.044 -2.1499 -1.5328  0.5904
    1SOL    MW4 2768   3.582   1.972   1.121 -0.7935 -0.4307  0.3844
    1SOL     OW 2769   3.820   2.032   1.239 -0.0017 -0.1045 -0.1399
    1SOL    HW2 2770   3.828   2.039   1.334 -2.1212 -1.8669  0.2018
    1SOL    HW3 2771   3.897   1.982   1.212 -0.0951 -0.7707  0.8026
    1SOL    MW4 2772   3.831   2.026   1.248 -0.2940 -0.4251  0.0294
    1SOL     OW 2773   3.811   2.298   1.136  0.3572 -0.0949 -0.4717
    1SOL    HW2 2774   3.881   2.358   1.165 -1.0176  1.7852 -0.9541
    1SOL    HW3 2775   3.837   2.213   1.171  2.4927  0.7233  0.0278
    1SOL    MW4 2776   3.824   2.295   1.145  0.4575  0.2611 -0.4694
    1SOL     OW 2777   3.607   2.466   1.250  0.1076  0.3606  0.4578
    1SOL    HW2 2778   3.600   2.462   1.346  0.6018 -0.1924  0.4735
    1SOL    HW3 2779   3.670   2.398   1.228 -0.4052  0.1322 -0.3113
    1SOL    MW4 2780   3.615   2.457   1.260  0.1049  0.2575  0.3586
    1SOL     OW 2781   3.603   2.734   1.137 -0.0412 -0.4013 -0.2102
    1SOL    HW2 2782   3.608   2.642   1.162 -0.8360 -0.1615  0.8823
    1SOL    HW3 2783   3.524   2.766   1.182  0.6738  0.9961  0.0539
    1SOL    MW4 2784   3.593   2.726   1.146 -0.0517 -0.1853 -0.0311
    1SOL     OW 2785   3.841   2.836   1.221 -0.3134 -0.3271 -0.2932
    1SOL    HW2 2786   3.829   2.836   1.316 -1.4910  0.0717 -0.4305
    1SOL    HW3 2787   3.758   2.802   1.187 -0.4604  0.9626 -1.2416
    1SOL    MW4 2788   3.828   2.831   1.229 -0.4878 -0.1044 -0.4365
    1SOL     OW 2789   3.843   3.103   1.126  0.0706 -0.1472 -0.1278
    1SOL    HW2 2790   3.841   3.010   1.146  1.8814 -0.2026 -0.1068
    1SOL    HW3 2791   3.853   3.107   1.030 -0.6322  0.0318 -0.1946
    1SOL    MW4 2792   3.844   3.091   1.116  0.2167 -0.1309 -0.1336
    1SOL     OW 2793   3.598   3.233   1.212  0.3037 -0.1735 -0.1132
    1SOL    HW2 2794   3.595   3.323   1.181 -0.0647 -0.2789 -0.3969
    1SOL    HW3 2795   3.680   3.198   1.179 -0.1679 -0.3360 -1.1219
    1SOL    MW4 2796   3.608   3.240   1.204  0.1929 -0.2091 -0.2838
    1SOL     OW 2797   3.573   3.510   1.153 -0.1539 -0.0927 -0.2948
    1SOL    HW2 2798   3.656   3.551   1.177 -0.2815  0.2996 -0.5217
    1SOL    HW3 2799   3.570   3.516   1.057 -1.0165  1.0020 -0.2040
    1SOL    MW4 2800   3.584   3.516   1.143 -0.2847  0.1035 -0.3127
    1SOL     OW 2801   3.822   3.603   1.251  0.0277  0.1151  0.3744
    1SOL    HW2 2802   3.833   3.609   1.346 -1.1115  0.5698  0.4926
    1SOL    HW3 2803   3.822   3.694   1.222  0.2997 -0.0213 -0.0580
    1SOL    MW4 2804   3.823   3.616   1.260 -0.0868  0.1571  0.3330
    1SOL     OW 2805   3.821   3.860   1.133  0.1383  0.5976  0.6429
    1SOL    HW2 2806   3.740   3.911   1.141  0.2259  0.8488  0.0044
    1SOL    HW3 2807   3.837   3.856   1.039  0.4476 -0.1267  0.7221
    1SOL    MW4 2808   3.812   3.866   1.121  0.1905  0.5350  0.5690
    1SOL     OW 2809   3.617   4.032   1.204  0.2988  0.1179  0.1047
    1SOL    HW2 2810   3.612   4.043   1.299  0.0359  2.4740 -0.1662
    1SOL    HW3 2811   3.534   3.990   1.181 -0.5556  1.4531  0.6844
    1SOL    MW4 2812   3.605   4.028   1.213  0.1514  0.6046  0.1454
    1SOL     OW 2813   3.592   4.299   1.145  0.4621  0.5173  0.0061
    1SOL    HW2 2814   3.593   4.204   1.148  1.8183  0.5550  1.1432
    1SOL    HW3 2815   3.630   4.322   1.061  0.0894  0.0656 -0.2861
    1SOL    MW4 2816   3.597   4.290   1.135  0.5920  0.4630  0.1175
    1SOL     OW 2817   3.843   4.418   1.246  0.6802  0.3912  0.0814
    1SOL    HW2 2818   3.847   4.420   1.341  0.4992  2.4726  0.0830
    1SOL    HW3 2819   3.764   4.367   1.226  0.9717 -0.4383  1.0245
    1SOL    MW4 2820   3.833   4.412   1.256  0.6948  0.5560  0.2061
    1SOL     OW 2821   4.242   4.647   1.120 -0.2090 -0.0066 -0.0375
    1SOL    HW2 2822   4.233   4.560   1.160  2.3144  0.0953  0.8304
    1SOL    HW3 2823   4.187   4.704   1.173  2.5129 -0.0052  2.9690
    1SOL    MW4 2824   4.234   4.643   1.132  0.4826  0.0072  0.4737
    1SOL     OW 2825   4.035   0.095   1.238  0.0532 -0.0233 -0.2767
    1SOL    HW2 2826   4.014   0.100   1.331 -0.1461  0.1802 -0.3308
    1SOL    HW3 2827   3.957   0.054   1.199 -0.4734  1.2078 -0.5540
    1SOL    MW4 2828   4.022   0.090   1.245 -0.0420  0.1660 -0.3204
    1SOL     OW 2829   4.051   0.413   1.142  0.2933 -0.6239 -0.0127
    1SOL    HW2 2830   4.047   0.317   1.137 -0.9785 -0.5440 -0.9802
    1SOL    HW3 2831   4.047   0.441   1.050 -0.5332  0.3834  0.3219
    1SOL    MW4 2832   4.050   0.404   1.129  0.0162 -0.4805 -0.0963
    1SOL     OW 2833   4.314   0.512   1.240  0.4474  0.0370  0.2142
    1SOL    HW2 2834   4.327   0.495   1.333 -1.5237  0.6638  0.6298
    1SOL    HW3 2835   4.233   0.465   1.218 -0.1707  1.4866 -0.7126
    1SOL    MW4 2836   4.305   0.504   1.249  0.1059  0.3110  0.1469
    1SOL     OW 2837   4.280   0.760   1.127 -0.1511 -0.0487  0.1829
    1SOL    HW2 2838   4.303   0.673   1.158  0.0594 -0.2561 -0.5433
    1SOL    HW3 2839   4.278   0.751   1.032 -1.1776  0.4752  0.1541
    1SOL    MW4 2840   4.283   0.747   1.119 -0.2584 -0.0069  0.0832
    1SOL     OW 2841   4.059   0.902   1.241  0.5429  0.2330 -0.1140
    1SOL    HW2 2842   4.057   0.881   1.335 -0.7309 -0.7730 -0.3474
    1SOL    HW3 2843   4.140   0.861   1.210  0.8499  0.3605  0.4869
    1SOL    MW4 2844   4.070   0.894   1.250  0.4148  0.1171 -0.0656
    1SOL     OW 2845   4.049   1.152   1.111 -0.1410  0.3788  0.0120
    1SOL    HW2 2846   4.061   1.071   1.160 -2.1670 -0.7963 -1.3576
    1SOL    HW3 2847   3.970   1.191   1.148  0.6472  1.5685  0.4519
    1SOL    MW4 2848   4.040   1.147   1.122 -0.3042  0.3808 -0.1107
    1SOL     OW 2849   4.279   1.274   1.200  0.5331 -0.2152 -0.3320
    1SOL    HW2 2850   4.262   1.250   1.291 -1.0986  2.0082  0.0131
    1SOL    HW3 2851   4.200   1.245   1.153  1.6675 -1.9844 -1.1784
    1SOL    MW4 2852   4.266   1.267   1.206  0.4673 -0.1553 -0.3982
    1SOL     OW 2853   4.250   1.540   1.145  0.1742  0.0896 -0.5278
    1SOL    HW2 2854   4.259   1.452   1.181 -1.1857  0.3138  0.3993
    1SOL    HW3 2855   4.332   1.584   1.168  0.1343 -0.3864  0.5840
    1SOL    MW4 2856   4.262   1.534   1.153 -0.0100  0.0565 -0.2587
    1SOL     OW 2857   3.989   1.643   1.204 -0.0336  0.0123 -0.2206
    1SOL    HW2 2858   4.001   1.647   1.299 -0.3768 -0.1451 -0.1680
    1SOL    HW3 2859   4.067   1.599   1.171 -1.3224 -2.8058  0.3176
    1SOL    MW4 2860   4.001   1.638   1.212 -0.2494 -0.3804 -0.1427
    1SOL     OW 2861   4.055   1.909   1.140  0.2724 -0.0507 -0.3827
    1SOL    HW2 2862   4.029   1.820   1.162 -1.1111  0.6613  0.9034
    1SOL    HW3 2863   4.054   1.912   1.044 -1.6008 -0.8442 -0.3910
    1SOL    MW4 2864   4.052   1.898   1.130 -0.1569 -0.0615 -0.2142
    1SOL     OW 2865   4.268   2.050   1.253 -0.0519 -0.2316  0.4492
    1SOL    HW2 2866   4.258   2.139   1.217  0.2375 -0.5227 -0.3679
    1SOL    HW3 2867   4.202   1.999   1.207  2.1313 -1.2067 -1.7352
    1SOL    MW4 2868   4.258   2.055   1.242  0.2747 -0.3986  0.0530
    1SOL     OW 2869   4.233   2.310   1.106 -0.2413 -0.4563 -0.0648
    1SOL    HW2 2870   4.174   2.381   1.131 -1.8339 -1.7239 -0.0922
    1SOL    HW3 2871   4.259   2.332   1.016  1.7241  1.6502  0.9964
    1SOL    MW4 2872   4.228   2.322   1.097 -0.1922 -0.3459  0.0715
    1SOL     OW 2873   4.013   2.472   1.218 -0.0700 -0.0900  0.2426
    1SOL    HW2 2874   4.004   2.466   1.313 -0.1161  0.2775  0.2593
    1SOL    HW3 2875   4.045   2.561   1.201 -0.2555 -0.0866 -0.1017
    1SOL    MW4 2876   4.016   2.483   1.228 -0.1006 -0.0410  0.1994
    1SOL     OW 2877   4.091   2.722   1.159 -0.3059 -0.2995  0.0640
    1SOL    HW2 2878   4.011   2.770   1.178  0.9985  2.3007 -0.7076
    1SOL    HW3 2879   4.102   2.730   1.064  1.0069 -0.3813  0.1974
    1SOL    MW4 2880   4.082   2.729   1.149  0.0391  0.0327 -0.0201
    1SOL     OW 2881   4.321   2.845   1.271 -0.2828  0.0117 -0.1067
    1SOL    HW2 2882   4.324   2.936   1.243 -2.6837  0.2025  0.1381
    1SOL    HW3 2883   4.240   2.811   1.234 -0.0358 -1.6715  0.8400
    1SOL    MW4 2884   4.311   2.852   1.263 -0.5670 -0.1855  0.0505
    1SOL     OW 2885   4.313   3.112   1.165 -0.1916  0.0365 -0.6892
    1SOL    HW2 2886   4.224   3.113   1.200  0.5673 -3.1212  1.5428
    1SOL    HW3 2887   4.301   3.117   1.070 -2.8765 -2.1008 -0.5424
    1SOL    MW4 2888   4.300   3.113   1.157 -0.4454 -0.6623 -0.3754
    1SOL     OW 2889   4.065   3.195   1.255 -0.2544  0.1232 -0.1251
    1SOL    HW2 2890   4.053   3.225   1.345  0.0829 -3.2732  1.1221
    1SOL    HW3 2891   3.983   3.150   1.233  0.1252 -0.1315 -1.0732
    1SOL    MW4 2892   4.052   3.193   1.264 -0.1593 -0.3586 -0.0857
    1SOL     OW 2893   4.062   3.474   1.191 -0.5065  0.2824  0.0803
    1SOL    HW2 2894   4.043   3.383   1.213 -0.3452 -0.0409 -1.0355
    1SOL    HW3 2895   3.978   3.518   1.195 -1.1106 -0.5561 -2.1885
    1SOL    MW4 2896   4.049   3.467   1.194 -0.5646  0.1292 -0.3662
    1SOL     OW 2897   4.270   3.609   1.301  0.2386 -0.3179 -0.0053
    1SOL    HW2 2898   4.193   3.560   1.273  0.6584 -1.7351  1.2081
    1SOL    HW3 2899   4.343   3.567   1.254  0.4591 -0.0417  0.0891
    1SOL    MW4 2900   4.270   3.597   1.291  0.3233 -0.4683  0.1671
    1SOL     OW 2901   4.270   3.875   1.196 -0.2763 -0.2303 -0.0356
    1SOL    HW2 2902   4.188   3.916   1.224 -0.5877 -1.6866  1.2911
    1SOL    HW3 2903   4.258   3.782   1.216  1.4054 -0.5868 -0.5718
    1SOL    MW4 2904   4.257   3.868   1.202 -0.0954 -0.4692  0.0685
    1SOL     OW 2905   4.025   4.030   1.276  0.3110  0.1667  0.4825
    1SOL    HW2 2906   4.023   4.114   1.229  0.9772 -0.5651 -0.8684
    1SOL    HW3 2907   3.944   3.986   1.250  0.4446 -0.0352  0.4129
    1SOL    MW4 2908   4.014   4.035   1.266  0.4168  0.0429  0.2952
    1SOL     OW 2909   3.997   4.248   1.097 -0.0722 -0.3659 -0.4521
    1SOL    HW2 2910   3.944   4.317   1.138 -1.2764 -0.5920 -1.5796
    1SOL    HW3 2911   3.983   4.261   1.003  0.5286 -1.5010 -0.7032
    1SOL    MW4 2912   3.988   4.259   1.090 -0.1519 -0.5455 -0.6341
    1SOL     OW 2913   4.231   4.389   1.216  0.1533  0.2005  0.1922
    1SOL    HW2 2914   4.170   4.365   1.146  1.1467 -1.7152 -0.0475
    1SOL    HW3 2915   4.315   4.352   1.188  0.9250  0.8793  1.5937
    1SOL    MW4 2916   4.234   4.381   1.203  0.3862  0.0372  0.3453
    1SOL     OW 2917   0.237   4.663   1.653 -0.3288  0.0373  0.1523
    1SOL    HW2 2918   0.318   4.709   1.634 -1.0080  1.9027  1.5794
    1SOL    HW3 2919   0.175   4.694   1.587 -0.5644  0.6046  0.6275
    1SOL    MW4 2920   0.239   4.673   1.642 -0.4495  0.3583  0.4034
    1SOL     OW 2921   0.031   0.110   1.501 -0.1936 -0.3514 -0.1331
    1SOL    HW2 2922  -0.050   0.079   1.542 -0.9555  1.0528 -0.5134
    1SOL    HW3 2923   0.013   0.106   1.407  0.2320 -0.1738 -0.2235
    1SOL    MW4 2924   0.018   0.105   1.494 -0.2379 -0.1427 -0.1951
    1SOL     OW 2925   0.029   0.368   1.606  0.0263  0.3796 -0.4450
    1SOL    HW2 2926   0.014   0.360   1.700  0.3601  0.4264 -0.3880
    1SOL    HW3 2927   0.044   0.278   1.576 -1.3232  0.2161 -0.6665
    1SOL    MW4 2928   0.029   0.355   1.614 -0.1077  0.3642 -0.4667
    1SOL     OW 2929   0.243   0.472   1.486  0.2317 -0.0856  0.7895
    1SOL    HW2 2930   0.163   0.438   1.528  0.1969 -0.6038  0.3098
    1SOL    HW3 2931   0.231   0.453   1.393  0.6626  0.3516  0.6438
    1SOL    MW4 2932   0.231   0.465   1.479  0.2840 -0.0963  0.7069
    1SOL     OW 2933   0.244   0.761   1.577  0.6767 -0.3367 -0.0266
    1SOL    HW2 2934   0.326   0.806   1.555  0.4498  0.2636  0.3610
    1SOL    HW3 2935   0.254   0.674   1.538  0.7270  0.3514 -1.5890
    1SOL    MW4 2936   0.256   0.755   1.569  0.6534 -0.1667 -0.1816
    1SOL     OW 2937   0.012   0.877   1.500 -0.3198 -0.6032  0.1478
    1SOL    HW2 2938   0.015   0.971   1.520 -2.5216 -0.5206  0.1766
    1SOL    HW3 2939   0.098   0.845   1.526  0.2677  1.3052  0.6663
    1SOL    MW4 2940   0.024   0.885   1.506 -0.5328 -0.3406  0.2199
    1SOL     OW 2941   0.005   1.159   1.561  0.4756  0.1726 -0.2978
    1SOL    HW2 2942  -0.000   1.165   1.656 -1.0749  0.5534 -0.3981
    1SOL    HW3 2943   0.083   1.209   1.538  1.3083 -0.5859  0.8312
    1SOL    MW4 2944   0.015   1.166   1.570  0.3809  0.1227 -0.1621
    1SOL     OW 2945   0.240   1.278   1.509 -0.3919 -0.0850  0.2026
    1SOL    HW2 2946   0.225   1.365   1.546  1.0826 -0.1317  0.9532
    1SOL    HW3 2947   0.239   1.292   1.414 -0.5619  0.6823  0.3113
    1SOL    MW4 2948   0.238   1.292   1.501 -0.2198  0.0100  0.3160
    1SOL     OW 2949   0.221   1.530   1.616  0.0749 -0.1519 -0.2727
    1SOL    HW2 2950   0.218   1.520   1.711 -0.7142 -2.6134 -0.5169
    1SOL    HW3 2951   0.144   1.583   1.595 -1.2280 -1.8191  0.2344
    1SOL    MW4 2952   0.210   1.536   1.626 -0.2011 -0.6964 -0.2381
    1SOL     OW 2953   4.475   1.670   1.490  0.1540 -0.1412  0.4596
    1SOL    HW2 2954   4.477   1.759   1.526 -3.9753  0.2117  0.0411
    1SOL    HW3 2955   4.465   1.682   1.396  1.1197 -1.0783  0.2268
    1SOL    MW4 2956   4.474   1.683   1.482 -0.2632 -0.2183  0.3737
    1SOL     OW 2957   0.016   1.920   1.591 -0.1956  0.0730  0.2252
    1SOL    HW2 2958   0.030   1.937   1.684 -0.3167 -1.2831  0.5108
    1SOL    HW3 2959  -0.063   1.970   1.569  0.2413  0.9640  0.6681
    1SOL    MW4 2960   0.007   1.928   1.600 -0.1539  0.0117  0.3213
    1SOL     OW 2961   0.269   2.032   1.521  0.3279  0.3924  0.3694
    1SOL    HW2 2962   0.182   1.998   1.540  0.3671  0.1819  0.1682
    1SOL    HW3 2963   0.272   2.041   1.426  0.6370  0.1058  0.3509
    1SOL    MW4 2964   0.258   2.029   1.511  0.3739  0.3269  0.3405
    1SOL     OW 2965   0.233   2.302   1.584  0.2369 -0.1058 -0.3384
    1SOL    HW2 2966   0.234   2.311   1.679 -2.7711  0.3986 -0.3107
    1SOL    HW3 2967   0.238   2.207   1.569 -0.4511 -0.2628  0.3781
    1SOL    MW4 2968   0.234   2.291   1.595 -0.2507 -0.0601 -0.2403
    1SOL     OW 2969   0.001   2.440   1.519  0.4175  0.1655 -0.1142
    1SOL    HW2 2970  -0.058   2.380   1.565  0.1693 -0.4461 -1.2231
    1SOL    HW3 2971   0.088   2.409   1.542  0.2897 -0.9381 -1.0760
    1SOL    MW4 2972   0.004   2.428   1.528  0.3681 -0.0608 -0.3875
    1SOL     OW 2973   0.008   2.691   1.641  0.0382 -0.3893  0.4307
    1SOL    HW2 2974  -0.066   2.740   1.605  0.3854 -0.5648 -0.5353
    1SOL    HW3 2975  -0.003   2.602   1.608  0.1152 -0.6620  1.1343
    1SOL    MW4 2976  -0.003   2.686   1.632  0.0941 -0.4485  0.3961
    1SOL     OW 2977   0.228   2.843   1.538  0.1636 -0.1765  0.3874
    1SOL    HW2 2978   0.300   2.793   1.576  0.2063 -0.4574 -0.0531
    1SOL    HW3 2979   0.150   2.808   1.580  0.2275 -0.3460  0.3681
    1SOL    MW4 2980   0.227   2.832   1.549  0.1777 -0.2358  0.3268
    1SOL     OW 2981   0.256   3.109   1.672 -0.1311 -0.6359 -0.1243
    1SOL    HW2 2982   0.171   3.146   1.647 -0.8851 -1.1951  1.5605
    1SOL    HW3 2983   0.263   3.029   1.620  0.6383  0.8042 -2.3385
    1SOL    MW4 2984   0.246   3.104   1.662 -0.1290 -0.5195 -0.1943
    1SOL     OW 2985   0.028   3.201   1.527  0.3740  0.0403  0.0904
    1SOL    HW2 2986   0.011   3.294   1.545 -2.8321 -0.3695 -0.5309
    1SOL    HW3 2987   0.048   3.198   1.433 -0.9246 -0.0761 -0.1812
    1SOL    MW4 2988   0.029   3.213   1.517 -0.2204 -0.0291 -0.0274
    1SOL     OW 2989   4.476   3.470   1.605  0.2957  0.0335 -0.2110
    1SOL    HW2 2990   4.486   3.489   1.698 -0.2952 -2.8773  0.4956
    1SOL    HW3 2991   4.399   3.520   1.578  1.4454  2.2191  0.4141
    1SOL    MW4 2992   4.467   3.479   1.614  0.3700 -0.0622 -0.0352
    1SOL     OW 2993   0.222   3.632   1.512  0.4017  0.0347  0.5942
    1SOL    HW2 2994   0.224   3.721   1.546  0.9032 -0.3424  1.5816
    1SOL    HW3 2995   0.149   3.590   1.557  0.7382 -0.3191  0.8157
    1SOL    MW4 2996   0.213   3.638   1.522  0.5123 -0.0615  0.7538
    1SOL     OW 2997   0.224   3.915   1.590  0.3339 -0.0219 -0.4880
    1SOL    HW2 2998   0.222   3.913   1.685 -1.7325 -1.0380 -0.5208
    1SOL    HW3 2999   0.300   3.969   1.568  1.1340 -0.2222  1.7154
    1SOL    MW4 3000   0.233   3.922   1.599  0.1668 -0.1826 -0.2018
    1SOL     OW 3001   4.468   4.015   1.533  0.0379  0.0588  0.3621
    1SOL    HW2 3002   4.496   4.106   1.548  1.5660 -0.1555 -1.0552
    1SOL    HW3 3003   4.545   3.962   1.552 -0.2140 -0.7770 -0.8588
    1SOL    MW4 3004   4.482   4.020   1.537  0.2060 -0.0796  0.0141
    1SOL     OW 3005   0.030   4.287   1.563 -0.2921 -0.4938  0.4155
    1SOL    HW2 3006   0.041   4.314   1.654  1.0709  0.2675  0.0348
    1SOL    HW3 3007  -0.056   4.321   1.538  0.1293  0.9143  0.8593
    1SOL    MW4 3008   0.020   4.295   1.571 -0.0567 -0.2074  0.4238
    1SOL     OW 3009   0.249   4.435   1.503 -0.1764 -0.2650  0.3845
    1SOL    HW2 3010   0.176   4.374   1.516 -0.3286 -0.2614 -0.4042
    1SOL    HW3 3011   0.233   4.505   1.567 -1.2665  0.0927 -0.2620
    1SOL    MW4 3012   0.237   4.436   1.513 -0.3403 -0.2174  0.1951
    1SOL     OW 3013   0.657   4.620   1.637  0.2182  0.1606 -0.1110
    1SOL    HW2 3014   0.738   4.642   1.590  0.5168 -0.6967 -0.0106
    1SOL    HW3 3015   0.591   4.677   1.599  0.7149  0.3287 -0.7305
    1SOL    MW4 3016   0.659   4.631   1.626  0.3231  0.0701 -0.1796
    1SOL     OW 3017   0.461   0.123   1.547 -0.1958 -0.0122 -0.1186
    1SOL    HW2 3018   0.464   0.218   1.559 -1.7939 -0.1627  1.6431
    1SOL    HW3 3019   0.452   0.111   1.453 -2.1730  1.6559 -0.1641
    1SOL    MW4 3020   0.460   0.134   1.536 -0.6675  0.1881  0.1079
    1SOL     OW 3021   0.477   0.389   1.603 -0.0632 -0.3328 -0.4079
    1SOL    HW2 3022   0.543   0.425   1.543 -0.2143 -1.2198 -1.1129
    1SOL    HW3 3023   0.393   0.414   1.564 -0.1633  0.9469  0.5812
    1SOL    MW4 3024   0.475   0.397   1.590 -0.0964 -0.2810 -0.3705
    1SOL     OW 3025   0.694   0.495   1.475 -0.1292  0.4782  0.1053
    1SOL    HW2 3026   0.690   0.589   1.494  0.9766  0.6339 -0.3894
    1SOL    HW3 3027   0.682   0.490   1.380  0.5419  0.1805  0.0356
    1SOL    MW4 3028   0.692   0.507   1.465  0.1052  0.4594  0.0309
    1SOL     OW 3029   0.710   0.776   1.573  0.0073 -0.3696 -0.2523
    1SOL    HW2 3030   0.711   0.788   1.668  0.5309 -0.5448 -0.2317
    1SOL    HW3 3031   0.801   0.788   1.547 -0.2483  0.3756 -0.8235
    1SOL    MW4 3032   0.722   0.779   1.582  0.0426 -0.2943 -0.3251
    1SOL     OW 3033   0.469   0.876   1.468 -0.4009  0.3652  0.2105
    1SOL    HW2 3034   0.486   0.969   1.483  1.8588 -0.1947  1.1580
    1SOL    HW3 3035   0.543   0.830   1.507  0.2156 -1.6811 -3.1574
    1SOL    MW4 3036   0.481   0.882   1.475 -0.0214  0.0214 -0.1087
    1SOL     OW 3037   0.498   1.140   1.588  0.3265 -0.2073 -0.3647
    1SOL    HW2 3038   0.575   1.191   1.566  0.7806  0.1046  1.8658
    1SOL    HW3 3039   0.429   1.175   1.531  1.5559  0.2420 -1.5918
    1SOL    MW4 3040   0.499   1.151   1.578  0.5486 -0.1068 -0.2325
    1SOL     OW 3041   0.708   1.278   1.513  0.1670  0.1685  0.0524
    1SOL    HW2 3042   0.710   1.366   1.550  1.4742 -0.0067  0.4186
    1SOL    HW3 3043   0.712   1.292   1.419 -1.4145  0.5534  0.0240
    1SOL    MW4 3044   0.709   1.292   1.506  0.1308  0.1962  0.0969
    1SOL     OW 3045   0.692   1.528   1.602 -0.1594  0.1516  0.2643
    1SOL    HW2 3046   0.761   1.582   1.565 -0.0386 -0.7270 -0.7977
    1SOL    HW3 3047   0.612   1.556   1.557 -0.4344  0.8142  1.1320
    1SOL    MW4 3048   0.691   1.539   1.591 -0.1798  0.1233  0.2387
    1SOL     OW 3049   0.458   1.632   1.488 -0.3746  0.4992  0.4449
    1SOL    HW2 3050   0.477   1.712   1.537 -0.8666  0.6363  0.4116
    1SOL    HW3 3051   0.379   1.597   1.529 -1.1616  0.9596 -0.6762
    1SOL    MW4 3052   0.450   1.638   1.500 -0.5434  0.5780  0.2925
    1SOL     OW 3053   0.508   1.896   1.629  0.6680  0.4535  0.6588
    1SOL    HW2 3054   0.511   1.924   1.721 -0.7682  0.7837  0.6148
    1SOL    HW3 3055   0.419   1.915   1.601  0.4951 -1.4909 -0.2291
    1SOL    MW4 3056   0.497   1.902   1.638  0.4557  0.2406  0.5360
    1SOL     OW 3057   0.714   2.027   1.490  0.3791 -0.1770 -0.0027
    1SOL    HW2 3058   0.798   1.987   1.514  0.5784 -1.1396 -2.1869
    1SOL    HW3 3059   0.648   1.967   1.526  0.6764 -2.9134 -3.7599
    1SOL    MW4 3060   0.716   2.014   1.498  0.4447 -0.6649 -0.7865
    1SOL     OW 3061   0.708   2.261   1.619  0.0323 -0.0034 -0.3480
    1SOL    HW2 3062   0.631   2.309   1.589 -0.5415  0.2304  1.4702
    1SOL    HW3 3063   0.715   2.187   1.558 -0.0134  1.4512 -2.1859
    1SOL    MW4 3064   0.699   2.257   1.607 -0.0494  0.2193 -0.3505
    1SOL     OW 3065   0.491   2.429   1.524 -0.3046 -0.6307  0.4148
    1SOL    HW2 3066   0.498   2.511   1.572 -1.3006 -0.8012  0.8818
    1SOL    HW3 3067   0.402   2.398   1.544  0.2026 -2.0043  0.5416
    1SOL    MW4 3068   0.480   2.436   1.533 -0.3691 -0.8342  0.4932
    1SOL     OW 3069   0.453   2.712   1.620 -0.1062  0.1708 -0.0574
    1SOL    HW2 3070   0.459   2.704   1.715 -2.5127  0.6985  0.1649
    1SOL    HW3 3071   0.532   2.759   1.595 -0.3338  1.6491  1.9001
    1SOL    MW4 3072   0.464   2.717   1.629 -0.4538  0.4354  0.2302
    1SOL     OW 3073   0.674   2.849   1.543 -0.1606 -0.1117  0.2782
    1SOL    HW2 3074   0.658   2.939   1.572 -0.9596 -0.3947  0.7112
    1SOL    HW3 3075   0.669   2.853   1.447 -0.6700  0.2061  0.3224
    1SOL    MW4 3076   0.671   2.861   1.534 -0.3332 -0.1068  0.3412
    1SOL     OW 3077   0.641   3.126   1.633  0.2828  0.0054 -0.1990
    1SOL    HW2 3078   0.717   3.181   1.614 -0.8147  2.4827  2.2309
    1SOL    HW3 3079   0.568   3.173   1.593 -0.2601 -1.3767 -0.8503
    1SOL    MW4 3080   0.642   3.140   1.625  0.0663  0.1497  0.0356
    1SOL     OW 3081   0.409   3.270   1.525  0.2944  0.0440 -0.1374
    1SOL    HW2 3082   0.354   3.209   1.574  0.4450 -0.7485 -0.9404
    1SOL    HW3 3083   0.397   3.244   1.433 -1.2743  2.5204 -0.6843
    1SOL    MW4 3084   0.400   3.259   1.519  0.1073  0.2666 -0.3154
    1SOL     OW 3085   0.433   3.502   1.684  0.2434 -0.1184  0.5312
    1SOL    HW2 3086   0.427   3.418   1.638  0.8380 -0.6673  1.4484
    1SOL    HW3 3087   0.362   3.555   1.647 -0.9079 -1.4471  0.7901
    1SOL    MW4 3088   0.423   3.498   1.673  0.1700 -0.3662  0.6864
    1SOL     OW 3089   0.663   3.603   1.553 -0.0127  0.2906 -0.0898
    1SOL    HW2 3090   0.746   3.558   1.573  1.0678  1.6081 -1.4749
    1SOL    HW3 3091   0.598   3.556   1.604  1.6925 -0.3944  1.5312
    1SOL    MW4 3092   0.666   3.591   1.562  0.3549  0.3741 -0.0588
    1SOL     OW 3093   0.709   3.901   1.562 -0.0464 -0.1668  0.0930
    1SOL    HW2 3094   0.799   3.930   1.548 -0.1961 -0.6555 -2.0358
    1SOL    HW3 3095   0.712   3.806   1.551 -0.8130 -0.2001  0.1312
    1SOL    MW4 3096   0.721   3.892   1.559 -0.1673 -0.2356 -0.1829
    1SOL     OW 3097   0.460   4.016   1.476 -0.1041 -0.2963 -0.0038
    1SOL    HW2 3098   0.544   3.990   1.514  0.2740 -0.0695 -0.6816
    1SOL    HW3 3099   0.472   4.008   1.382 -1.0023 -0.7337 -0.0902
    1SOL    MW4 3100   0.473   4.011   1.469 -0.1728 -0.3238 -0.1045
    1SOL     OW 3101   0.430   4.265   1.599  0.1256 -0.3344 -0.1786
    1SOL    HW2 3102   0.443   4.186   1.547  0.9006 -0.3987  0.1019
    1SOL    HW3 3103   0.368   4.317   1.549  1.3473 -0.1087 -1.4899
    1SOL    MW4 3104   0.423   4.261   1.586  0.3891 -0.3123 -0.3146
    1SOL     OW 3105   0.674   4.372   1.507  0.1349 -0.4430 -0.2948
    1SOL    HW2 3106   0.598   4.323   1.537  0.9733 -0.6116  1.6060
    1SOL    HW3 3107   0.659   4.461   1.540  1.7556 -0.9606  1.9208
    1SOL    MW4 3108   0.662   4.378   1.515  0.4594 -0.5331  0.2482
    1SOL     OW 3109   1.173   4.632   1.555 -0.3023  0.7869 -0.3963
    1SOL    HW2 3110   1.171   4.645   1.650 -0.1501  1.1316 -0.4371
    1SOL    HW3 3111   1.262   4.658   1.530 -0.3749  0.7934 -0.6448
    1SOL    MW4 3112   1.185   4.637   1.564 -0.2919  0.8335 -0.4344
    1SOL     OW 3113   0.885   0.026   1.508 -0.2179 -0.5354 -0.0570
    1SOL    HW2 3114   0.882   0.121   1.513 -1.2559 -0.6365  1.6461
    1SOL    HW3 3115   0.976   0.004   1.526 -0.0397  0.1215 -0.1425
    1SOL    MW4 3116   0.896   0.035   1.511 -0.3314 -0.4621  0.1565
    1SOL     OW 3117   0.867   0.315   1.583 -0.2830 -0.3986 -0.0028
    1SOL    HW2 3118   0.875   0.320   1.679  1.1555 -1.1626 -0.0646
    1SOL    HW3 3119   0.807   0.386   1.560 -0.1987  0.1542  1.4180
    1SOL    MW4 3120   0.860   0.325   1.593 -0.0821 -0.4264  0.1767
    1SOL     OW 3121   1.118   0.432   1.464  0.6983 -0.2018  0.0835
    1SOL    HW2 3122   1.115   0.514   1.513  0.3352 -0.0230 -0.2324
    1SOL    HW3 3123   1.035   0.388   1.485  0.8402 -0.4318  0.1615
    1SOL    MW4 3124   1.107   0.437   1.473  0.6691 -0.2086  0.0523
    1SOL     OW 3125   1.138   0.692   1.593  0.4706 -0.5082 -0.8188
    1SOL    HW2 3126   1.141   0.714   1.686 -0.9443  1.4764 -1.2083
    1SOL    HW3 3127   1.218   0.730   1.556 -0.3107  1.1361 -0.8761
    1SOL    MW4 3128   1.149   0.700   1.600  0.1808 -0.0294 -0.8777
    1SOL     OW 3129   0.957   0.880   1.482  0.1639 -0.6298  0.0177
    1SOL    HW2 3130   1.026   0.818   1.508  0.6570  0.0739  0.4045
    1SOL    HW3 3131   0.964   0.884   1.387  0.4544 -0.8035  0.0295
    1SOL    MW4 3132   0.967   0.872   1.473  0.2673 -0.5599  0.0702
    1SOL     OW 3133   0.920   1.112   1.630 -0.0761 -0.3613 -0.3276
    1SOL    HW2 3134   0.920   1.024   1.592 -0.4662 -0.4477 -0.1379
    1SOL    HW3 3135   0.833   1.146   1.611 -0.2637 -0.3877  0.4288
    1SOL    MW4 3136   0.909   1.105   1.623 -0.1523 -0.3762 -0.2028
    1SOL     OW 3137   1.139   1.258   1.496 -0.2640 -0.0651  0.1519
    1SOL    HW2 3138   1.213   1.211   1.533 -0.6657  0.7219  2.0325
    1SOL    HW3 3139   1.062   1.210   1.527 -0.5917  0.2390 -0.1863
    1SOL    MW4 3140   1.138   1.245   1.505 -0.3603  0.0789  0.3552
    1SOL     OW 3141   1.097   1.503   1.622 -0.1558  0.2343  0.4252
    1SOL    HW2 3142   1.172   1.540   1.574  0.5556 -0.6700  0.8321
    1SOL    HW3 3143   1.095   1.411   1.596 -0.5533  0.0395  1.1440
    1SOL    MW4 3144   1.107   1.496   1.612 -0.1143  0.0893  0.5736
    1SOL     OW 3145   0.899   1.679   1.485  0.0243 -0.2968 -0.5105
    1SOL    HW2 3146   0.967   1.625   1.527  0.3229  0.3167 -0.2020
    1SOL    HW3 3147   0.907   1.660   1.392 -0.0103 -0.9443 -0.3872
    1SOL    MW4 3148   0.909   1.669   1.478  0.0591 -0.3014 -0.4536
    1SOL     OW 3149   0.949   1.930   1.609 -0.4077 -0.2086 -0.0852
    1SOL    HW2 3150   1.026   1.978   1.579 -0.2389 -0.3563  0.1127
    1SOL    HW3 3151   0.950   1.848   1.559 -1.0124  0.2335 -0.8440
    1SOL    MW4 3152   0.959   1.925   1.598 -0.4652 -0.1696 -0.1591
    1SOL     OW 3153   1.149   2.073   1.482  0.0733 -0.1421  0.3085
    1SOL    HW2 3154   1.221   2.019   1.514  0.2358 -0.2541 -0.2336
    1SOL    HW3 3155   1.159   2.157   1.527  1.5809  0.4421 -1.0717
    1SOL    MW4 3156   1.160   2.077   1.492  0.2937 -0.0799  0.0550
    1SOL     OW 3157   1.151   2.307   1.610 -0.4013  0.3795  0.2434
    1SOL    HW2 3158   1.210   2.371   1.571 -0.4344  1.0114  1.2207
    1SOL    HW3 3159   1.064   2.334   1.583 -0.3337  0.1164 -0.2413
    1SOL    MW4 3160   1.147   2.319   1.601 -0.3966  0.4282  0.3085
    1SOL     OW 3161   0.911   2.407   1.540 -0.2021  0.1666  0.2547
    1SOL    HW2 3162   0.899   2.495   1.575 -1.0665  0.4470 -0.7304
    1SOL    HW3 3163   0.835   2.358   1.571 -0.7085  0.2795 -0.8059
    1SOL    MW4 3164   0.900   2.412   1.549 -0.3830  0.2186 -0.0151
    1SOL     OW 3165   0.911   2.684   1.613 -1.0900  0.0784 -0.2156
    1SOL    HW2 3166   0.916   2.703   1.707 -0.6798  0.8880 -0.3975
    1SOL    HW3 3167   0.825   2.716   1.587 -0.9112  0.5443 -0.2564
    1SOL    MW4 3168   0.901   2.691   1.622 -1.0123  0.2468 -0.2451
    1SOL     OW 3169   1.129   2.827   1.535 -0.1688 -0.0342  0.0446
    1SOL    HW2 3170   1.110   2.917   1.560  0.3350  0.1312 -0.1734
    1SOL    HW3 3171   1.059   2.776   1.575 -1.3699  0.6357 -1.1771
    1SOL    MW4 3172   1.117   2.832   1.544 -0.2607  0.0761 -0.1454
    1SOL     OW 3173   1.100   3.103   1.609 -0.3437  0.4178  0.1074
    1SOL    HW2 3174   1.107   3.109   1.704 -0.5618  0.4477  0.1230
    1SOL    HW3 3175   1.182   3.139   1.576 -0.1868  0.2261  0.2895
    1SOL    MW4 3176   1.111   3.109   1.617 -0.3518  0.3967  0.1334
    1SOL     OW 3177   0.877   3.246   1.539 -0.0775 -0.1943  0.2616
    1SOL    HW2 3178   0.945   3.187   1.572 -0.0875 -0.4302 -0.1235
    1SOL    HW3 3179   0.878   3.231   1.444 -0.2050  0.2980  0.1836
    1SOL    MW4 3180   0.886   3.236   1.531 -0.0956 -0.1605  0.2004
    1SOL     OW 3181   0.904   3.500   1.615  0.4588  0.0607 -0.3258
    1SOL    HW2 3182   0.981   3.533   1.568  1.1407 -1.1181 -0.0561
    1SOL    HW3 3183   0.900   3.408   1.591 -0.5338 -0.0134  0.1304
    1SOL    MW4 3184   0.914   3.493   1.605  0.4178 -0.1047 -0.2301
    1SOL     OW 3185   1.133   3.607   1.504  0.1873 -0.4031 -0.3645
    1SOL    HW2 3186   1.210   3.568   1.547 -0.8130 -1.0926  0.8430
    1SOL    HW3 3187   1.153   3.604   1.411  0.3107 -3.4978 -0.2998
    1SOL    MW4 3188   1.146   3.601   1.498  0.0718 -0.9024 -0.1966
    1SOL     OW 3189   1.174   3.862   1.641  0.0515 -0.1510 -0.1096
    1SOL    HW2 3190   1.255   3.886   1.598  0.3574 -1.7139 -0.4365
    1SOL    HW3 3191   1.156   3.773   1.610 -1.3926 -0.0902  0.5241
    1SOL    MW4 3192   1.182   3.854   1.631 -0.0987 -0.3490 -0.0691
    1SOL     OW 3193   0.950   4.023   1.515 -0.1103  0.0751  0.1635
    1SOL    HW2 3194   0.945   4.112   1.550 -0.5022 -0.0734  0.4912
    1SOL    HW3 3195   1.023   3.983   1.563  0.6923  0.5121 -0.6650
    1SOL    MW4 3196   0.959   4.029   1.526 -0.0560  0.1135  0.0974
    1SOL     OW 3197   0.915   4.280   1.618  0.2658 -0.3390 -0.1306
    1SOL    HW2 3198   0.911   4.296   1.712 -1.5813  0.9663 -0.3922
    1SOL    HW3 3199   0.832   4.316   1.584  1.3569  0.1737 -2.3725
    1SOL    MW4 3200   0.903   4.287   1.626  0.1661 -0.0992 -0.4609
    1SOL     OW 3201   1.170   4.356   1.501 -0.3747  0.4555  0.0549
    1SOL    HW2 3202   1.084   4.320   1.522 -0.4908  0.3715 -0.5394
    1SOL    HW3 3203   1.159   4.451   1.509 -0.6301  0.4683 -0.3917
    1SOL    MW4 3204   1.157   4.364   1.505 -0.4237  0.4463 -0.0825
    1SOL     OW 3205   1.625   4.616   1.561  0.3834 -0.3594 -0.3451
    1SOL    HW2 3206   1.606   4.615   1.655 -0.5989 -1.1257 -0.5361
    1SOL    HW3 3207   1.550   4.661   1.522  0.1902 -1.1087 -0.8699
    1SOL    MW4 3208   1.612   4.621   1.568  0.2283 -0.5598 -0.4395
    1SOL     OW 3209   1.401   0.090   1.455  0.2489  0.3086  0.2110
    1SOL    HW2 3210   1.404   0.174   1.500  0.6069  0.5823 -0.3203
    1SOL    HW3 3211   1.377   0.111   1.365 -0.0016 -0.1887  0.1590
    1SOL    MW4 3212   1.398   0.104   1.449  0.2630  0.2791  0.1341
    1SOL     OW 3213   1.337   0.341   1.616 -0.2978 -0.4474  0.0751
    1SOL    HW2 3214   1.397   0.409   1.585  0.6293 -1.0303  0.5626
    1SOL    HW3 3215   1.254   0.360   1.573 -0.5101  1.9904  1.5039
    1SOL    MW4 3216   1.334   0.352   1.607 -0.2034 -0.2027  0.3279
    1SOL     OW 3217   1.577   0.481   1.524 -0.1498  0.6122 -0.5767
    1SOL    HW2 3218   1.653   0.434   1.559 -0.6416 -1.3855 -2.0904
    1SOL    HW3 3219   1.582   0.467   1.429  0.1753  4.4175 -1.2037
    1SOL    MW4 3220   1.587   0.473   1.516 -0.1718  0.8507 -0.8590
    1SOL     OW 3221   1.596   0.746   1.603 -0.0009  0.0438 -0.2627
    1SOL    HW2 3222   1.586   0.748   1.699 -1.5520  0.3924 -0.4103
    1SOL    HW3 3223   1.584   0.655   1.579  1.7122 -0.2632 -0.0129
    1SOL    MW4 3224   1.593   0.735   1.613  0.0206  0.0493 -0.2493
    1SOL     OW 3225   1.356   0.839   1.501  0.4112  0.1986  0.2500
    1SOL    HW2 3226   1.443   0.808   1.527  0.6220  0.6471  0.0876
    1SOL    HW3 3227   1.362   0.852   1.407  0.1426  0.1535  0.2256
    1SOL    MW4 3228   1.368   0.837   1.492  0.4036  0.2518  0.2255
    1SOL     OW 3229   1.364   1.119   1.595 -0.1175  0.0170 -0.3099
    1SOL    HW2 3230   1.353   1.138   1.689  1.4730  0.5624 -0.2330
    1SOL    HW3 3231   1.382   1.025   1.591  1.0688  0.2304  0.0303
    1SOL    MW4 3232   1.365   1.109   1.607  0.2489  0.1171 -0.2548
    1SOL     OW 3233   1.574   1.268   1.467  0.1822  0.2589 -0.2061
    1SOL    HW2 3234   1.505   1.214   1.505 -0.0116  0.2679 -0.5513
    1SOL    HW3 3235   1.542   1.292   1.380  0.3174  0.8247 -0.1066
    1SOL    MW4 3236   1.561   1.264   1.461  0.1745  0.3347 -0.2385
    1SOL     OW 3237   1.543   1.533   1.550  0.4208  0.2114 -0.5114
    1SOL    HW2 3238   1.544   1.522   1.645  1.2275 -0.8382 -0.6326
    1SOL    HW3 3239   1.573   1.449   1.516 -0.7938  0.2405 -1.7294
    1SOL    MW4 3240   1.547   1.520   1.558  0.3670  0.0768 -0.6882
    1SOL     OW 3241   1.294   1.643   1.490 -0.0573 -0.1437 -0.6743
    1SOL    HW2 3242   1.382   1.609   1.506  0.1496  0.2143 -1.0577
    1SOL    HW3 3243   1.287   1.650   1.395 -1.3199 -2.3410 -0.7875
    1SOL    MW4 3244   1.304   1.639   1.480 -0.1966 -0.3864 -0.7399
    1SOL     OW 3245   1.347   1.915   1.571  0.0789  0.5170  0.4771
    1SOL    HW2 3246   1.358   1.922   1.666  2.1641  1.5114  0.2064
    1SOL    HW3 3247   1.323   1.824   1.556 -0.2870  0.3554  1.9658
    1SOL    MW4 3248   1.346   1.904   1.582  0.3058  0.6269  0.6379
    1SOL     OW 3249   1.574   2.036   1.466 -0.1406  0.0046  0.5070
    1SOL    HW2 3250   1.511   1.968   1.490  0.9701 -1.2279 -0.0150
    1SOL    HW3 3251   1.555   2.057   1.375  0.8515 -1.1207  0.0228
    1SOL    MW4 3252   1.563   2.030   1.457  0.1370 -0.3064  0.3743
    1SOL     OW 3253   1.535   2.279   1.595  0.1966  0.3261  0.0410
    1SOL    HW2 3254   1.618   2.326   1.586  0.9757 -0.7772  1.2117
    1SOL    HW3 3255   1.547   2.200   1.542 -0.1906  0.2770  0.0318
    1SOL    MW4 3256   1.548   2.275   1.587  0.2483  0.1740  0.1943
    1SOL     OW 3257   1.349   2.437   1.467 -0.0704  0.7326 -0.0494
    1SOL    HW2 3258   1.357   2.529   1.492  0.5930  0.7927 -0.4669
    1SOL    HW3 3259   1.412   2.392   1.523  0.0485  0.6189 -0.2744
    1SOL    MW4 3260   1.358   2.444   1.478  0.0327  0.7257 -0.1341
    1SOL     OW 3261   1.364   2.685   1.608 -0.2319 -0.0105  0.1837
    1SOL    HW2 3262   1.435   2.747   1.589 -0.1737 -0.2335 -0.3302
    1SOL    HW3 3263   1.284   2.734   1.585 -0.1890 -0.1080 -0.1715
    1SOL    MW4 3264   1.363   2.700   1.602 -0.2185 -0.0529  0.0691
    1SOL     OW 3265   1.556   2.847   1.524  0.1007  0.1734 -0.2806
    1SOL    HW2 3266   1.632   2.792   1.542  0.5756  1.0333  0.3480
    1SOL    HW3 3267   1.556   2.857   1.429  0.2736 -0.5286 -0.3592
    1SOL    MW4 3268   1.566   2.841   1.514  0.1861  0.1943 -0.2080
    1SOL     OW 3269   1.557   3.095   1.656  0.2598 -0.2216  0.0279
    1SOL    HW2 3270   1.643   3.127   1.628  0.2614 -0.9013 -0.7448
    1SOL    HW3 3271   1.552   3.006   1.623  0.1589 -0.9662  2.0030
    1SOL    MW4 3272   1.567   3.088   1.648  0.2466 -0.4096  0.1863
    1SOL     OW 3273   1.334   3.224   1.523 -0.0210 -0.2378  0.2001
    1SOL    HW2 3274   1.357   3.308   1.562  1.1015  0.6757 -2.2606
    1SOL    HW3 3275   1.403   3.164   1.552  0.2809  0.2002  0.3865
    1SOL    MW4 3276   1.346   3.227   1.532  0.1669 -0.0596 -0.0999
    1SOL     OW 3277   1.374   3.491   1.607 -0.3123  0.5866 -0.3332
    1SOL    HW2 3278   1.356   3.505   1.700 -0.0903  0.5610 -0.2855
    1SOL    HW3 3279   1.466   3.518   1.597 -0.4918  1.0873 -0.6479
    1SOL    MW4 3280   1.384   3.497   1.618 -0.3067  0.6492 -0.3685
    1SOL     OW 3281   1.618   3.617   1.536  0.7434 -0.0133 -0.4787
    1SOL    HW2 3282   1.610   3.705   1.572 -0.2879 -0.3303  0.0988
    1SOL    HW3 3283   1.616   3.629   1.442 -0.1582  0.5140 -0.3908
    1SOL    MW4 3284   1.617   3.630   1.529  0.4884  0.0148 -0.3908
    1SOL     OW 3285   1.619   3.873   1.661  0.2320 -0.2747 -0.5776
    1SOL    HW2 3286   1.598   3.879   1.754  0.1333  0.4648 -0.6490
    1SOL    HW3 3287   1.548   3.921   1.617  0.1054 -0.8863 -1.0543
    1SOL    MW4 3288   1.607   3.880   1.667  0.2023 -0.2580 -0.6500
    1SOL     OW 3289   1.382   3.986   1.530  0.2247  0.0351 -0.0758
    1SOL    HW2 3290   1.375   4.076   1.562  0.5944  0.0617 -0.0647
    1SOL    HW3 3291   1.374   3.994   1.435 -1.9782 -0.1563  0.0534
    1SOL    MW4 3292   1.380   3.999   1.521 -0.0170  0.0136 -0.0573
    1SOL     OW 3293   1.397   4.251   1.621 -0.3297  0.3779  0.1399
    1SOL    HW2 3294   1.479   4.276   1.579 -0.1645 -1.6683 -0.7988
    1SOL    HW3 3295   1.329   4.291   1.566 -0.0207  0.6104 -0.0732
    1SOL    MW4 3296   1.399   4.259   1.608 -0.2671  0.1388 -0.0120
    1SOL     OW 3297   1.629   4.341   1.492  0.3000  0.1687 -0.0144
    1SOL    HW2 3298   1.714   4.310   1.522  2.6807  3.7785 -2.5860
    1SOL    HW3 3299   1.631   4.436   1.508 -2.1223  0.7277 -2.5786
    1SOL    MW4 3300   1.641   4.350   1.498  0.2944  0.7191 -0.6919
    1SOL     OW 3301   2.073   4.650   1.612 -0.2360 -0.3467 -0.0436
    1SOL    HW2 3302   2.038   4.649   1.701 -1.6343  0.3249 -0.5571
    1SOL    HW3 3303   2.005   4.694   1.560  0.9046  0.0023 -1.2929
    1SOL    MW4 3304   2.059   4.656   1.617 -0.2701 -0.2122 -0.2762
    1SOL     OW 3305   1.838   0.093   1.475 -0.3433 -0.0235  0.1280
    1SOL    HW2 3306   1.757   0.049   1.502 -0.4903  1.2548  1.8308
    1SOL    HW3 3307   1.831   0.099   1.380 -0.9961 -2.3613 -0.0115
    1SOL    MW4 3308   1.826   0.088   1.466 -0.4488 -0.1633  0.3343
    1SOL     OW 3309   1.801   0.344   1.627  0.9610 -0.2916  0.0940
    1SOL    HW2 3310   1.867   0.405   1.592  0.4546  0.6565  0.7538
    1SOL    HW3 3311   1.831   0.258   1.601  2.0777  0.1960 -0.2490
    1SOL    MW4 3312   1.813   0.341   1.619  1.0415 -0.1022  0.1359
    1SOL     OW 3313   1.980   0.521   1.505  0.5540  0.3136  0.3472
    1SOL    HW2 3314   2.054   0.478   1.548 -0.2961 -1.6216 -0.0691
    1SOL    HW3 3315   1.983   0.612   1.536  3.6094  0.5179 -0.3439
    1SOL    MW4 3316   1.990   0.528   1.514  0.8450  0.0852  0.2011
    1SOL     OW 3317   2.015   0.777   1.602  0.3952 -0.4039 -0.1921
    1SOL    HW2 3318   2.089   0.836   1.585 -0.4871  1.3691  1.9278
    1SOL    HW3 3319   1.938   0.833   1.594 -0.4654 -1.2865  1.6954
    1SOL    MW4 3320   2.015   0.792   1.599  0.1652 -0.2864  0.3365
    1SOL     OW 3321   1.793   0.907   1.511  0.3454 -0.2653  0.4527
    1SOL    HW2 3322   1.785   0.989   1.558 -0.8713 -0.4377  0.5635
    1SOL    HW3 3323   1.717   0.855   1.539 -1.2533  0.1897 -2.7840
    1SOL    MW4 3324   1.782   0.911   1.520 -0.0259 -0.2279  0.0404
    1SOL     OW 3325   1.785   1.166   1.625  0.1747 -0.1078 -0.8860
    1SOL    HW2 3326   1.865   1.185   1.575  0.3358 -0.8158 -0.9067
    1SOL    HW3 3327   1.714   1.192   1.567  0.3929  1.3176 -0.5448
    1SOL    MW4 3328   1.786   1.172   1.611  0.2247 -0.0131 -0.8438
    1SOL     OW 3329   2.021   1.285   1.498  0.3946  0.2087 -0.1676
    1SOL    HW2 3330   2.006   1.372   1.537 -0.6308 -0.3255  0.6569
    1SOL    HW3 3331   1.999   1.297   1.406 -2.2403  0.2309  0.4173
    1SOL    MW4 3332   2.016   1.298   1.491 -0.0885  0.1411  0.0182
    1SOL     OW 3333   2.024   1.528   1.620  0.3869  0.2343  0.1600
    1SOL    HW2 3334   2.100   1.572   1.582  0.5765 -1.5413 -1.6558
    1SOL    HW3 3335   1.948   1.575   1.584  0.6069  1.5860  1.4435
    1SOL    MW4 3336   2.024   1.540   1.610  0.4408  0.1783  0.0899
    1SOL     OW 3337   1.793   1.637   1.525  0.1980  0.1151  0.2566
    1SOL    HW2 3338   1.718   1.584   1.553  1.4342 -1.9190 -0.1928
    1SOL    HW3 3339   1.784   1.642   1.429  2.3224 -2.8166 -0.1433
    1SOL    MW4 3340   1.782   1.631   1.516  0.6413 -0.5401  0.1447
    1SOL     OW 3341   1.785   1.918   1.601  0.3303 -0.1294  0.1921
    1SOL    HW2 3342   1.773   1.824   1.591  0.5811  0.0455 -2.0628
    1SOL    HW3 3343   1.711   1.957   1.555 -0.8123  0.8001  2.7099
    1SOL    MW4 3344   1.774   1.911   1.594  0.2124  0.0163  0.2267
    1SOL     OW 3345   1.999   2.071   1.475 -0.7506  0.5111 -0.3906
    1SOL    HW2 3346   2.080   2.028   1.501  0.1819  3.2533  1.4501
    1SOL    HW3 3347   1.930   2.021   1.520  0.1343 -0.2549  0.1221
    1SOL    MW4 3348   2.000   2.058   1.485 -0.5107  0.7720 -0.0801
    1SOL     OW 3349   2.031   2.308   1.643  0.6290  0.1804  0.1132
    1SOL    HW2 3350   2.031   2.300   1.738  0.5230 -0.8867  0.0232
    1SOL    HW3 3351   2.041   2.219   1.611  0.6290  0.5319 -0.8796
    1SOL    MW4 3352   2.032   2.295   1.651  0.6151  0.0856 -0.0297
    1SOL     OW 3353   1.783   2.426   1.552  0.2766 -0.3343 -0.4407
    1SOL    HW2 3354   1.858   2.376   1.584  0.2599 -0.3727 -0.4611
    1SOL    HW3 3355   1.792   2.426   1.457  1.9920  2.4125 -0.3135
    1SOL    MW4 3356   1.794   2.419   1.544  0.5006  0.0229 -0.4265
    1SOL     OW 3357   1.782   2.700   1.564 -0.0750 -0.2386  0.2261
    1SOL    HW2 3358   1.865   2.739   1.539 -0.8113  1.1086 -0.1514
    1SOL    HW3 3359   1.795   2.606   1.552  1.1441  0.0193 -0.5518
    1SOL    MW4 3360   1.795   2.692   1.559 -0.0113 -0.0269  0.0737
    1SOL     OW 3361   2.011   2.824   1.518  0.1842  0.1206 -0.5042
    1SOL    HW2 3362   2.012   2.916   1.544 -1.7728  0.2087 -0.6500
    1SOL    HW3 3363   2.014   2.827   1.422 -1.4785  0.1168 -0.5781
    1SOL    MW4 3364   2.012   2.836   1.508 -0.2935  0.1314 -0.5333
    1SOL     OW 3365   2.026   3.086   1.595  0.3055 -0.1097 -0.4691
    1SOL    HW2 3366   2.021   3.097   1.690 -0.4262  0.4955 -0.5709
    1SOL    HW3 3367   2.092   3.150   1.567  0.6830 -0.4450 -0.3423
    1SOL    MW4 3368   2.034   3.096   1.604  0.2589 -0.0739 -0.4658
    1SOL     OW 3369   1.772   3.211   1.543  0.1885  0.0921 -0.2086
    1SOL    HW2 3370   1.798   3.291   1.589 -1.3386  0.3165  0.2727
    1SOL    HW3 3371   1.853   3.161   1.536  0.8222  0.9133  1.0234
    1SOL    MW4 3372   1.786   3.215   1.548  0.0707  0.2298  0.0175
    1SOL     OW 3373   1.837   3.480   1.636  0.4077  0.5997  0.4265
    1SOL    HW2 3374   1.837   3.498   1.730  0.0298 -0.7867  0.7040
    1SOL    HW3 3375   1.756   3.518   1.604  0.3423  0.7186  0.7381
    1SOL    MW4 3376   1.826   3.487   1.644  0.3493  0.4325  0.5043
    1SOL     OW 3377   2.052   3.574   1.489  0.3154  0.0762 -0.1417
    1SOL    HW2 3378   2.134   3.539   1.524 -0.1238 -0.6214  0.2123
    1SOL    HW3 3379   1.985   3.540   1.548 -0.4148 -0.9246 -1.5172
    1SOL    MW4 3380   2.054   3.565   1.502  0.1609 -0.1478 -0.2764
    1SOL     OW 3381   2.074   3.834   1.573 -0.3812 -0.1068 -0.1380
    1SOL    HW2 3382   2.147   3.878   1.530  0.2398 -1.3897 -0.4208
    1SOL    HW3 3383   2.077   3.744   1.540 -1.5811 -0.3886  0.4838
    1SOL    MW4 3384   2.084   3.828   1.563 -0.4575 -0.3133 -0.0933
    1SOL     OW 3385   1.845   3.957   1.530  0.1354 -0.1088 -1.0056
    1SOL    HW2 3386   1.925   3.914   1.561 -0.3643 -0.0959  0.3338
    1SOL    HW3 3387   1.777   3.924   1.588 -0.3925  1.8892 -0.4686
    1SOL    MW4 3388   1.847   3.947   1.541 -0.0002  0.1564 -0.7579
    1SOL     OW 3389   1.857   4.228   1.595  0.2624 -0.2552  0.5927
    1SOL    HW2 3390   1.938   4.266   1.559 -0.7294 -1.2889 -3.0105
    1SOL    HW3 3391   1.857   4.138   1.562 -1.3456 -0.9022  2.3130
    1SOL    MW4 3392   1.868   4.221   1.586 -0.0806 -0.4773  0.3443
    1SOL     OW 3393   2.078   4.393   1.493  0.0665 -0.0981  0.2273
    1SOL    HW2 3394   2.151   4.339   1.525  0.4829 -0.3817 -1.1379
    1SOL    HW3 3395   2.077   4.469   1.551  1.3875 -0.1430  0.3334
    1SOL    MW4 3396   2.087   4.396   1.505  0.2956 -0.1416  0.0612
    1SOL     OW 3397   2.458   4.656   1.572 -0.2534  0.8161 -0.3903
    1SOL    HW2 3398   2.463   4.673   1.666  1.2425  1.6871 -0.5969
    1SOL    HW3 3399   2.386   4.712   1.541  1.0694  2.7101 -0.1746
    1SOL    MW4 3400   2.449   4.666   1.580  0.1185  1.1806 -0.3891
    1SOL     OW 3401   2.251   0.165   1.523  0.5823  0.3984  0.3326
    1SOL    HW2 3402   2.190   0.099   1.557  1.0087  0.1606  0.6487
    1SOL    HW3 3403   2.259   0.145   1.430  1.4130 -0.5680  0.6021
    1SOL    MW4 3404   2.244   0.154   1.515  0.7484  0.2396  0.4098
    1SOL     OW 3405   2.219   0.416   1.619 -0.3902  0.5313  0.2943
    1SOL    HW2 3406   2.230   0.414   1.714 -2.4613  0.1115  0.5505
    1SOL    HW3 3407   2.234   0.326   1.591 -0.6206  0.4854  0.3210
    1SOL    MW4 3408   2.223   0.404   1.628 -0.6938  0.4698  0.3316
    1SOL     OW 3409   2.450   0.547   1.484 -0.0395 -0.2259  0.3826
    1SOL    HW2 3410   2.527   0.517   1.534  1.2108 -0.9260 -1.9000
    1SOL    HW3 3411   2.378   0.495   1.518  0.7829 -0.6977  1.4620
    1SOL    MW4 3412   2.451   0.536   1.495  0.2339 -0.3806  0.2238
    1SOL     OW 3413   2.482   0.796   1.618  0.4169  0.1417  0.1541
    1SOL    HW2 3414   2.407   0.850   1.595  0.6380  1.4768  2.3961
    1SOL    HW3 3415   2.463   0.710   1.580 -2.3780  0.3766  0.9009
    1SOL    MW4 3416   2.470   0.792   1.610  0.0772  0.3488  0.5485
    1SOL     OW 3417   2.238   0.934   1.529  0.1013 -0.0302 -0.1767
    1SOL    HW2 3418   2.240   1.027   1.555 -1.4375 -0.0700  0.1389
    1SOL    HW3 3419   2.236   0.936   1.434  0.9602  0.2277 -0.1999
    1SOL    MW4 3420   2.238   0.947   1.520  0.0117 -0.0015 -0.1382
    1SOL     OW 3421   2.250   1.195   1.609  0.0906  0.0459  0.1432
    1SOL    HW2 3422   2.240   1.196   1.704 -0.0000 -2.0310  0.1856
    1SOL    HW3 3423   2.170   1.236   1.575 -0.0414  0.4572  0.9414
    1SOL    MW4 3424   2.238   1.201   1.617  0.0610 -0.1739  0.2539
    1SOL     OW 3425   2.471   1.290   1.476  0.2261  0.5321  0.3085
    1SOL    HW2 3426   2.390   1.251   1.507  1.2652 -1.3764  0.7293
    1SOL    HW3 3427   2.466   1.283   1.381  0.0139  0.1636  0.3454
    1SOL    MW4 3428   2.460   1.284   1.467  0.3350  0.2317  0.3690
    1SOL     OW 3429   2.446   1.550   1.613  0.5369 -0.5030 -0.0346
    1SOL    HW2 3430   2.521   1.587   1.567 -0.2951 -0.9696 -1.8173
    1SOL    HW3 3431   2.448   1.457   1.593 -0.3311 -0.5753  0.1735
    1SOL    MW4 3432   2.456   1.543   1.605  0.3126 -0.5740 -0.2424
    1SOL     OW 3433   2.220   1.656   1.501  0.0866  0.9014 -0.0203
    1SOL    HW2 3434   2.300   1.627   1.544 -1.0127 -0.8932  0.8771
    1SOL    HW3 3435   2.243   1.659   1.408  1.1888  0.4213  0.2278
    1SOL    MW4 3436   2.233   1.652   1.494  0.0870  0.6013  0.1307
    1SOL     OW 3437   2.221   1.917   1.571 -0.2529 -0.6569  0.3068
    1SOL    HW2 3438   2.220   1.919   1.666 -4.7115 -2.8696  0.4402
    1SOL    HW3 3439   2.227   1.824   1.548 -0.4523 -0.2415 -1.5564
    1SOL    MW4 3440   2.222   1.905   1.580 -0.8676 -0.8940  0.0786
    1SOL     OW 3441   2.476   1.991   1.517 -0.0790 -0.5603 -0.4848
    1SOL    HW2 3442   2.400   1.942   1.549  0.3367 -1.4587 -0.8331
    1SOL    HW3 3443   2.450   2.020   1.429  0.0336 -1.0058 -0.6685
    1SOL    MW4 3444   2.462   1.988   1.509 -0.0093 -0.7374 -0.5550
    1SOL     OW 3445   2.473   2.271   1.574 -0.3530 -0.5999  0.2712
    1SOL    HW2 3446   2.495   2.283   1.667 -0.8967 -0.0650  0.3401
    1SOL    HW3 3447   2.464   2.176   1.564  1.7898 -0.8247  0.2646
    1SOL    MW4 3448   2.475   2.260   1.585 -0.1421 -0.5589  0.2793
    1SOL     OW 3449   2.254   2.440   1.553 -0.2752 -0.0971 -0.2611
    1SOL    HW2 3450   2.319   2.375   1.582 -0.3610 -0.3286 -0.5861
    1SOL    HW3 3451   2.170   2.405   1.584 -0.1733  0.5486  0.7649
    1SOL    MW4 3452   2.252   2.427   1.561 -0.2732 -0.0422 -0.1684
    1SOL     OW 3453   2.240   2.703   1.626  0.4721  0.1039 -0.0347
    1SOL    HW2 3454   2.242   2.609   1.610 -0.0812 -0.0002  0.5150
    1SOL    HW3 3455   2.161   2.734   1.581  0.4110  0.2403  0.1687
    1SOL    MW4 3456   2.230   2.695   1.618  0.3910  0.1087  0.0647
    1SOL     OW 3457   2.464   2.816   1.502  0.5498  0.1643  0.4923
    1SOL    HW2 3458   2.459   2.895   1.556  0.2518  0.3098  0.2611
    1SOL    HW3 3459   2.389   2.763   1.531  1.0684 -0.2775  1.0232
    1SOL    MW4 3460   2.453   2.819   1.513  0.5789  0.1252  0.5320
    1SOL     OW 3461   2.429   3.092   1.597 -0.1546  0.3244 -0.2296
    1SOL    HW2 3462   2.504   3.143   1.566 -0.7276  1.3436  0.0263
    1SOL    HW3 3463   2.353   3.141   1.566 -0.7168 -1.1932 -1.2751
    1SOL    MW4 3464   2.429   3.106   1.589 -0.3045  0.2587 -0.3338
    1SOL     OW 3465   2.222   3.240   1.482  0.0552  0.0866  0.2085
    1SOL    HW2 3466   2.253   3.329   1.499 -2.3299  0.7583  1.1186
    1SOL    HW3 3467   2.243   3.225   1.389  1.4128  1.1942  0.3229
    1SOL    MW4 3468   2.229   3.250   1.472 -0.0806  0.3214  0.3436
    1SOL     OW 3469   2.304   3.482   1.577  0.0165 -0.3020  0.2703
    1SOL    HW2 3470   2.312   3.486   1.672  0.8007  1.5438  0.1418
    1SOL    HW3 3471   2.386   3.520   1.545 -0.1439 -1.1293 -1.1470
    1SOL    MW4 3472   2.316   3.487   1.585  0.0989 -0.1676  0.0664
    1SOL     OW 3473   2.523   3.640   1.487  0.1441 -0.4389 -0.3538
    1SOL    HW2 3474   2.588   3.590   1.537 -0.4557 -1.0404 -0.1720
    1SOL    HW3 3475   2.513   3.722   1.537 -0.0299 -0.7989  0.2099
    1SOL    MW4 3476   2.530   3.644   1.500  0.0422 -0.5660 -0.2555
    1SOL     OW 3477   2.507   3.886   1.607  0.1445 -0.2584  0.1673
    1SOL    HW2 3478   2.499   3.900   1.702 -1.0626  1.1496 -0.1299
    1SOL    HW3 3479   2.591   3.926   1.584 -0.5501  1.2905  0.2992
    1SOL    MW4 3480   2.517   3.893   1.617 -0.1063  0.1316  0.1456
    1SOL     OW 3481   2.284   3.994   1.505 -0.2699 -0.0495 -0.1895
    1SOL    HW2 3482   2.369   3.956   1.528 -0.3923 -1.2623 -1.6877
    1SOL    HW3 3483   2.285   3.998   1.409 -1.7303  0.3317 -0.1866
    1SOL    MW4 3484   2.296   3.989   1.495 -0.4785 -0.1593 -0.3870
    1SOL     OW 3485   2.291   4.242   1.617 -0.0953 -0.0504 -0.1378
    1SOL    HW2 3486   2.372   4.282   1.585 -0.0269 -0.1549 -0.0930
    1SOL    HW3 3487   2.292   4.153   1.580 -0.2348 -0.0211 -0.2154
    1SOL    MW4 3488   2.302   4.236   1.608 -0.1049 -0.0606 -0.1420
    1SOL     OW 3489   2.522   4.382   1.491 -0.4251 -0.0846 -0.0175
    1SOL    HW2 3490   2.510   4.472   1.521  1.0828 -0.1237  0.7399
    1SOL    HW3 3491   2.495   4.384   1.399  1.5846  1.6423 -0.6135
    1SOL    MW4 3492   2.517   4.394   1.483  0.0389  0.1378  0.0038
    1SOL     OW 3493   2.880   4.644   1.604 -0.2788  0.0986  0.6033
    1SOL    HW2 3494   2.908   4.661   1.694 -1.4744  1.6007  0.7199
    1SOL    HW3 3495   2.816   4.713   1.586 -2.1708 -1.8698 -0.4332
    1SOL    MW4 3496   2.876   4.656   1.613 -0.6862  0.0367  0.4818
    1SOL     OW 3497   2.691   0.165   1.512 -0.1054 -0.0653  0.3091
    1SOL    HW2 3498   2.701   0.256   1.541  0.8250 -0.4486  1.2112
    1SOL    HW3 3499   2.600   0.143   1.534  0.2647  0.0069  1.9284
    1SOL    MW4 3500   2.680   0.174   1.519  0.0660 -0.1063  0.6417
    1SOL     OW 3501   2.659   0.432   1.610 -0.2693 -0.1227 -0.1206
    1SOL    HW2 3502   2.644   0.429   1.704  2.4103 -1.1694  0.3104
    1SOL    HW3 3503   2.744   0.474   1.600 -0.2822 -0.5022 -2.0435
    1SOL    MW4 3504   2.668   0.437   1.621  0.0827 -0.3109 -0.3175
    1SOL     OW 3505   2.903   0.543   1.531  0.0593  0.3964 -0.1497
    1SOL    HW2 3506   2.915   0.637   1.545  0.1083  0.4149 -0.3206
    1SOL    HW3 3507   2.904   0.532   1.436 -0.9160  0.3544 -0.1592
    1SOL    MW4 3508   2.905   0.554   1.521 -0.0629  0.3933 -0.1736
    1SOL     OW 3509   2.932   0.806   1.599 -0.5547 -0.3081 -0.0242
    1SOL    HW2 3510   2.930   0.797   1.694 -0.0776  1.2870  0.1444
    1SOL    HW3 3511   2.849   0.848   1.577 -0.7937 -0.9372 -0.3560
    1SOL    MW4 3512   2.921   0.810   1.609 -0.5231 -0.1807 -0.0458
    1SOL     OW 3513   2.703   0.921   1.498 -0.0795  0.2675 -0.0717
    1SOL    HW2 3514   2.623   0.878   1.527  0.4380 -0.1344  0.7953
    1SOL    HW3 3515   2.700   0.917   1.402 -0.9524  0.0043 -0.0334
    1SOL    MW4 3516   2.692   0.915   1.489 -0.1264  0.1798  0.0478
    1SOL     OW 3517   2.717   1.187   1.584  0.4226  0.5267 -0.1359
    1SOL    HW2 3518   2.728   1.093   1.576  0.0962  0.1740  2.9598
    1SOL    HW3 3519   2.628   1.204   1.553  0.3336 -0.2485 -0.2921
    1SOL    MW4 3520   2.707   1.177   1.579  0.3679  0.3780  0.2519
    1SOL     OW 3521   2.953   1.311   1.499 -0.5817 -0.1560 -0.1165
    1SOL    HW2 3522   3.033   1.268   1.528  0.5276  0.3597 -2.3178
    1SOL    HW3 3523   2.882   1.259   1.537  0.7204 -3.4521 -2.0190
    1SOL    MW4 3524   2.954   1.299   1.508 -0.2639 -0.5230 -0.6580
    1SOL     OW 3525   2.907   1.556   1.636 -0.5981 -0.1200 -0.4276
    1SOL    HW2 3526   2.824   1.594   1.607 -2.0036 -0.7597  2.5637
    1SOL    HW3 3527   2.918   1.477   1.582 -1.7809  0.1439 -1.0520
    1SOL    MW4 3528   2.898   1.550   1.625 -0.9396 -0.1696 -0.1153
    1SOL     OW 3529   2.670   1.664   1.506  0.3474 -0.0830 -0.4104
    1SOL    HW2 3530   2.680   1.752   1.541  2.3570 -0.6131  0.4154
    1SOL    HW3 3531   2.671   1.675   1.411  0.5255  0.7826 -0.3052
    1SOL    MW4 3532   2.672   1.677   1.498  0.6359 -0.0387 -0.2874
    1SOL     OW 3533   2.717   1.917   1.618 -0.3674  0.7613 -0.3205
    1SOL    HW2 3534   2.710   1.918   1.713  0.9287  1.2880 -0.2169
    1SOL    HW3 3535   2.636   1.959   1.588 -1.3620 -0.5378  0.4896
    1SOL    MW4 3536   2.705   1.923   1.626 -0.3278  0.6593 -0.1998
    1SOL     OW 3537   2.933   2.024   1.498 -0.1486 -0.2691  0.2836
    1SOL    HW2 3538   2.926   2.113   1.533  0.6058  0.8137 -2.1992
    1SOL    HW3 3539   2.857   1.979   1.534 -0.9438  1.5871  1.0161
    1SOL    MW4 3540   2.922   2.030   1.507 -0.1540  0.1185  0.0526
    1SOL     OW 3541   2.923   2.293   1.604  0.2987  0.6759 -0.1034
    1SOL    HW2 3542   2.928   2.299   1.699 -0.9574  1.7954 -0.0956
    1SOL    HW3 3543   2.839   2.333   1.581  0.4501  0.1481 -1.6613
    1SOL    MW4 3544   2.913   2.299   1.613  0.1528  0.7536 -0.3079
    1SOL     OW 3545   2.702   2.397   1.516 -0.6291  0.0203  0.2509
    1SOL    HW2 3546   2.681   2.487   1.539 -0.6273  0.4456 -1.3536
    1SOL    HW3 3547   2.618   2.350   1.525 -0.7455  0.2855  0.5568
    1SOL    MW4 3548   2.688   2.403   1.520 -0.6444  0.1116  0.0796
    1SOL     OW 3549   2.675   2.658   1.616 -0.4371 -0.2735 -0.1479
    1SOL    HW2 3550   2.743   2.713   1.575 -0.4763  0.6072  0.9404
    1SOL    HW3 3551   2.593   2.703   1.595 -0.5351 -0.3596  0.0551
    1SOL    MW4 3552   2.673   2.671   1.607 -0.4554 -0.1688  0.0226
    1SOL     OW 3553   2.898   2.798   1.491 -0.0906 -0.2163  0.2900
    1SOL    HW2 3554   2.974   2.769   1.540  0.3100  0.9243  0.3621
    1SOL    HW3 3555   2.887   2.889   1.516 -1.3756 -0.3263  0.1400
    1SOL    MW4 3556   2.907   2.806   1.501 -0.2072 -0.0803  0.2797
    1SOL     OW 3557   2.875   3.071   1.557  0.1706  0.0452  0.0539
    1SOL    HW2 3558   2.891   3.091   1.649 -0.2801  1.7539 -0.2202
    1SOL    HW3 3559   2.941   3.121   1.509  1.2056 -1.8138 -0.5142
    1SOL    MW4 3560   2.886   3.080   1.563  0.2477  0.0255 -0.0572
    1SOL     OW 3561   2.653   3.229   1.511  0.0414 -0.1144  0.1900
    1SOL    HW2 3562   2.719   3.167   1.544  0.3471 -0.0793 -0.3530
    1SOL    HW3 3563   2.658   3.220   1.416 -1.1828 -0.5800  0.1695
    1SOL    MW4 3564   2.663   3.219   1.503 -0.0801 -0.1709  0.1156
    1SOL     OW 3565   2.738   3.507   1.600 -0.2174 -0.0804  0.3081
    1SOL    HW2 3566   2.711   3.505   1.692  2.2468 -1.0946  1.0664
    1SOL    HW3 3567   2.728   3.417   1.571  0.7449 -0.1364  0.1368
    1SOL    MW4 3568   2.733   3.495   1.608  0.2351 -0.2217  0.3856
    1SOL     OW 3569   2.942   3.633   1.469  0.4372 -0.0887 -0.1944
    1SOL    HW2 3570   2.871   3.584   1.512  0.1072  0.0890 -0.5309
    1SOL    HW3 3571   2.925   3.621   1.376 -1.3911  3.0927 -0.3555
    1SOL    MW4 3572   2.930   3.625   1.462  0.1523  0.3543 -0.2601
    1SOL     OW 3573   2.970   3.888   1.584 -0.0460 -0.2006  0.4920
    1SOL    HW2 3574   2.890   3.915   1.539 -0.8318 -1.3000  1.1950
    1SOL    HW3 3575   2.989   3.801   1.549  1.9868  0.8522 -1.1406
    1SOL    MW4 3576   2.962   3.880   1.573  0.1185 -0.2067  0.3693
    1SOL     OW 3577   2.733   4.000   1.485  0.4146  0.4890 -0.2242
    1SOL    HW2 3578   2.743   4.081   1.535  1.1933 -0.1574  0.6754
    1SOL    HW3 3579   2.724   4.029   1.394  0.9759  1.5665  0.0535
    1SOL    MW4 3580   2.733   4.015   1.480  0.5915  0.5455 -0.0690
    1SOL     OW 3581   2.724   4.245   1.626 -0.7670  0.4033  0.2001
    1SOL    HW2 3582   2.802   4.298   1.607 -0.1453 -0.4436  0.3385
    1SOL    HW3 3583   2.654   4.286   1.576 -0.5133  1.9468  1.0800
    1SOL    MW4 3584   2.725   4.257   1.617 -0.6518  0.4954  0.3344
    1SOL     OW 3585   2.939   4.394   1.517 -0.2864  0.0947  0.1934
    1SOL    HW2 3586   2.919   4.482   1.548 -1.1573 -0.4040  1.0612
    1SOL    HW3 3587   2.925   4.399   1.422  0.3660  1.0669  0.1336
    1SOL    MW4 3588   2.935   4.406   1.508 -0.3152  0.1574  0.3000
    1SOL     OW 3589   3.296   0.015   1.597 -0.2246 -0.2862 -0.1928
    1SOL    HW2 3590   3.380   0.049   1.569  0.3785 -1.0467  0.6628
    1SOL    HW3 3591   3.299  -0.078   1.576 -1.5851  0.0157 -1.8667
    1SOL    MW4 3592   3.307   0.007   1.591 -0.3242 -0.3467 -0.3009
    1SOL     OW 3593   3.080   0.174   1.530  0.0270  0.3263  0.0886
    1SOL    HW2 3594   3.160   0.130   1.562  1.0635  1.1240 -1.3581
    1SOL    HW3 3595   3.009   0.115   1.555  1.2442 -1.3672 -0.3312
    1SOL    MW4 3596   3.082   0.161   1.538  0.3245  0.2081 -0.1577
    1SOL     OW 3597   3.114   0.427   1.642 -0.3160 -0.2172 -0.0124
    1SOL    HW2 3598   3.119   0.336   1.614 -0.9584  0.0348 -0.9540
    1SOL    HW3 3599   3.040   0.464   1.594  0.5473  1.0634 -0.3952
    1SOL    MW4 3600   3.105   0.420   1.632 -0.2873 -0.0150 -0.1872
    1SOL     OW 3601   3.359   0.519   1.539  0.0600 -0.6027 -0.4313
    1SOL    HW2 3602   3.283   0.471   1.574  0.4840 -0.8213  0.1997
    1SOL    HW3 3603   3.351   0.509   1.444 -1.2515  0.2240 -0.4183
    1SOL    MW4 3604   3.348   0.511   1.531 -0.0572 -0.5225 -0.3464
    1SOL     OW 3605   3.384   0.790   1.662  0.1103  0.0045  0.2946
    1SOL    HW2 3606   3.387   0.793   1.757  0.2139 -0.5027  0.3048
    1SOL    HW3 3607   3.365   0.699   1.641  0.3916  0.0530 -0.1781
    1SOL    MW4 3608   3.382   0.779   1.672  0.1612 -0.0561  0.2335
    1SOL     OW 3609   3.179   0.917   1.500  0.1187  0.0208 -0.0787
    1SOL    HW2 3610   3.252   0.893   1.558 -0.5306  1.4727  1.3961
    1SOL    HW3 3611   3.102   0.881   1.543 -0.2909  0.5477 -0.3683
    1SOL    MW4 3612   3.179   0.909   1.513 -0.0210  0.2819  0.0776
    1SOL     OW 3613   3.184   1.180   1.609  0.1196  0.4355  0.5042
    1SOL    HW2 3614   3.159   1.178   1.702 -1.3851  1.5423  0.1387
    1SOL    HW3 3615   3.183   1.088   1.582  1.0282  0.0571  1.6906
    1SOL    MW4 3616   3.181   1.168   1.618  0.0410  0.5316  0.6125
    1SOL     OW 3617   3.401   1.279   1.488 -0.2082 -0.1007  0.0455
    1SOL    HW2 3618   3.481   1.248   1.532  0.1563 -0.6461 -1.0013
    1SOL    HW3 3619   3.331   1.229   1.530  0.2247 -1.2442 -0.5494
    1SOL    MW4 3620   3.402   1.268   1.500 -0.1030 -0.3237 -0.1709
    1SOL     OW 3621   3.400   1.543   1.581 -0.3246 -0.0332 -0.3271
    1SOL    HW2 3622   3.389   1.541   1.676  0.5026  0.3202 -0.2261
    1SOL    HW3 3623   3.393   1.451   1.555  1.9420 -0.4180  0.3629
    1SOL    MW4 3624   3.397   1.530   1.590  0.0834 -0.0373 -0.2227
    1SOL     OW 3625   3.142   1.649   1.504  0.4696  0.6499 -0.1752
    1SOL    HW2 3626   3.223   1.614   1.542 -0.5784 -1.5847  0.0357
    1SOL    HW3 3627   3.072   1.615   1.560 -0.5664  3.6079  0.4108
    1SOL    MW4 3628   3.144   1.640   1.517  0.1943  0.7454 -0.0700
    1SOL     OW 3629   3.171   1.923   1.600  0.1619  0.1318 -0.0419
    1SOL    HW2 3630   3.173   1.829   1.581 -0.5926 -0.2534  1.6973
    1SOL    HW3 3631   3.087   1.953   1.565 -0.9612 -0.4600  2.0658
    1SOL    MW4 3632   3.161   1.915   1.593 -0.0856  0.0030  0.4658
    1SOL     OW 3633   3.371   2.087   1.535  0.5187  0.4863  0.2230
    1SOL    HW2 3634   3.295   2.036   1.563  0.1528  0.9565  0.1044
    1SOL    HW3 3635   3.367   2.085   1.440  0.9557  0.0725  0.2139
    1SOL    MW4 3636   3.360   2.080   1.526  0.5279  0.4935  0.2062
    1SOL     OW 3637   3.367   2.346   1.645 -0.4539  0.3963  0.3992
    1SOL    HW2 3638   3.430   2.401   1.599 -0.2179  0.5343  0.8955
    1SOL    HW3 3639   3.377   2.260   1.605 -0.2879  0.5281  0.1540
    1SOL    MW4 3640   3.376   2.342   1.633 -0.4008  0.4320  0.4324
    1SOL     OW 3641   3.127   2.458   1.536  0.0947 -0.3291 -0.2946
    1SOL    HW2 3642   3.203   2.413   1.573  0.2441 -2.3915 -2.9596
    1SOL    HW3 3643   3.052   2.406   1.564 -0.1229  0.1951  0.1156
    1SOL    MW4 3644   3.127   2.445   1.544  0.0854 -0.5322 -0.5921
    1SOL     OW 3645   3.141   2.703   1.634  0.1815 -0.3808  0.2505
    1SOL    HW2 3646   3.227   2.737   1.608 -0.5597  0.1406 -1.5796
    1SOL    HW3 3647   3.136   2.617   1.593  0.0052 -0.5942  0.7184
    1SOL    MW4 3648   3.152   2.696   1.625  0.0603 -0.3400  0.0708
    1SOL     OW 3649   3.366   2.841   1.531  0.2896  0.2630  0.9874
    1SOL    HW2 3650   3.382   2.934   1.548  0.5975  0.2291  0.8798
    1SOL    HW3 3651   3.346   2.837   1.438  3.2049 -0.1613  0.3325
    1SOL    MW4 3652   3.365   2.853   1.521  0.7150  0.2027  0.8867
    1SOL     OW 3653   3.370   3.105   1.583  0.0511 -0.4288  0.0684
    1SOL    HW2 3654   3.354   3.121   1.676  1.0612  3.1007 -0.2777
    1SOL    HW3 3655   3.447   3.159   1.563 -1.1090  0.1275 -3.1281
    1SOL    MW4 3656   3.378   3.115   1.593  0.0312  0.1104 -0.3990
    1SOL     OW 3657   3.121   3.243   1.510 -0.5865 -0.4216 -0.2807
    1SOL    HW2 3658   3.193   3.183   1.529 -0.8886 -0.4482  0.8300
    1SOL    HW3 3659   3.120   3.251   1.415  0.2233 -1.2329 -0.3580
    1SOL    MW4 3660   3.130   3.236   1.500 -0.5195 -0.5322 -0.1442
    1SOL     OW 3661   3.117   3.495   1.631 -0.4750 -0.2854 -0.6660
    1SOL    HW2 3662   3.130   3.405   1.599  1.2938  0.1493 -1.1857
    1SOL    HW3 3663   3.052   3.532   1.571 -1.8061 -1.4563  0.0198
    1SOL    MW4 3664   3.110   3.488   1.619 -0.4172 -0.3824 -0.6440
    1SOL     OW 3665   3.362   3.623   1.530 -0.0972 -0.4563 -0.1616
    1SOL    HW2 3666   3.445   3.594   1.566  0.4505 -0.3162 -1.2900
    1SOL    HW3 3667   3.297   3.597   1.595  0.8246 -0.5834  0.7101
    1SOL    MW4 3668   3.364   3.616   1.543  0.0968 -0.4542 -0.1955
    1SOL     OW 3669   3.361   3.879   1.593  0.3051  0.0843 -0.7918
    1SOL    HW2 3670   3.297   3.930   1.544 -0.1431  0.4666  0.1814
    1SOL    HW3 3671   3.359   3.792   1.553 -1.3908 -0.1277 -0.2745
    1SOL    MW4 3672   3.352   3.874   1.581  0.0224  0.1068 -0.5951
    1SOL     OW 3673   3.162   4.043   1.475 -0.4695  0.2366 -0.4692
    1SOL    HW2 3674   3.155   4.129   1.517  0.2310  0.2285 -0.3141
    1SOL    HW3 3675   3.094   3.990   1.516 -0.1831  0.4040  0.2373
    1SOL    MW4 3676   3.152   4.048   1.486 -0.3393  0.2575 -0.3556
    1SOL     OW 3677   3.166   4.279   1.629 -0.3345 -0.1099 -0.3437
    1SOL    HW2 3678   3.164   4.264   1.723 -0.2824 -1.9051 -0.6193
    1SOL    HW3 3679   3.078   4.312   1.608 -0.0777  1.1021  0.4450
    1SOL    MW4 3680   3.154   4.281   1.638 -0.2937 -0.1869 -0.2760
    1SOL     OW 3681   3.369   4.414   1.498  0.2133  0.2066 -0.0078
    1SOL    HW2 3682   3.291   4.368   1.531  0.2011 -0.0284 -0.3630
    1SOL    HW3 3683   3.358   4.414   1.403  0.0439  1.2523  0.0117
    1SOL    MW4 3684   3.357   4.408   1.490  0.1893  0.3138 -0.0521
    1SOL     OW 3685   3.771   0.018   1.604  0.0374  0.0646 -0.1302
    1SOL    HW2 3686   3.767   0.013   1.699  0.8711 -0.6832 -0.1268
    1SOL    HW3 3687   3.856   0.060   1.585 -0.0038 -0.0342 -0.5486
    1SOL    MW4 3688   3.782   0.023   1.614  0.1419 -0.0477 -0.1849
    1SOL     OW 3689   3.551   0.126   1.497  0.1582  0.2946  0.0144
    1SOL    HW2 3690   3.629   0.083   1.533 -0.4038 -0.8267 -0.0870
    1SOL    HW3 3691   3.563   0.120   1.402 -0.2622 -0.2778 -0.0041
    1SOL    MW4 3692   3.563   0.119   1.490  0.0286  0.0711 -0.0014
    1SOL     OW 3693   3.596   0.389   1.620  0.6579 -0.4598  0.6457
    1SOL    HW2 3694   3.571   0.301   1.591  1.0653 -0.2075 -0.4634
    1SOL    HW3 3695   3.526   0.445   1.587  1.6486 -0.0303 -0.7568
    1SOL    MW4 3696   3.583   0.384   1.612  0.8423 -0.3698  0.3142
    1SOL     OW 3697   3.800   0.538   1.524  0.1111 -0.1441 -0.2187
    1SOL    HW2 3698   3.737   0.469   1.548  1.0218 -0.7494  0.4587
    1SOL    HW3 3699   3.804   0.534   1.429  0.1195 -1.0043 -0.1872
    1SOL    MW4 3700   3.792   0.528   1.515  0.2325 -0.3374 -0.1252
    1SOL     OW 3701   3.865   0.791   1.650 -0.0332  0.0707 -0.2544
    1SOL    HW2 3702   3.792   0.844   1.616 -0.3149 -0.9806 -1.3341
    1SOL    HW3 3703   3.850   0.704   1.613 -0.0110 -0.9866  2.1025
    1SOL    MW4 3704   3.853   0.786   1.641 -0.0677 -0.2075 -0.0858
    1SOL     OW 3705   3.633   0.903   1.564  0.1696  0.1653  0.2006
    1SOL    HW2 3706   3.558   0.852   1.594 -0.2683 -0.1964 -1.4869
    1SOL    HW3 3707   3.623   0.907   1.469  1.1182  1.9600  0.1636
    1SOL    MW4 3708   3.622   0.897   1.556  0.2372  0.3543 -0.0268
    1SOL     OW 3709   3.619   1.172   1.612 -0.0533  0.3868 -0.2007
    1SOL    HW2 3710   3.693   1.210   1.566  0.1395  0.7935  0.4367
    1SOL    HW3 3711   3.631   1.078   1.604 -0.5142  0.4491 -1.7652
    1SOL    MW4 3712   3.630   1.165   1.605 -0.0887  0.4486 -0.3229
    1SOL     OW 3713   3.849   1.286   1.475 -0.3921 -0.7001 -0.1465
    1SOL    HW2 3714   3.917   1.226   1.507 -1.1465 -0.6481  1.6371
    1SOL    HW3 3715   3.862   1.366   1.526 -0.6222 -0.0449 -1.1211
    1SOL    MW4 3716   3.860   1.289   1.486 -0.5219 -0.6069 -0.0398
    1SOL     OW 3717   3.827   1.562   1.553  0.0470  0.0628  0.3083
    1SOL    HW2 3718   3.810   1.564   1.647  0.9159  1.6006  0.4597
    1SOL    HW3 3719   3.752   1.607   1.514 -0.0657 -0.1249  0.3093
    1SOL    MW4 3720   3.815   1.568   1.560  0.1466  0.2408  0.3283
    1SOL     OW 3721   3.594   1.705   1.492 -0.1986 -0.0161  0.5293
    1SOL    HW2 3722   3.525   1.653   1.533 -0.6943  0.6467  0.5619
    1SOL    HW3 3723   3.569   1.711   1.400  0.4333 -0.7464  0.3112
    1SOL    MW4 3724   3.582   1.699   1.485 -0.1805 -0.0250  0.5047
    1SOL     OW 3725   3.609   1.948   1.617  0.3979  0.2274  0.0290
    1SOL    HW2 3726   3.605   1.863   1.573 -0.1837  1.0513 -1.5503
    1SOL    HW3 3727   3.531   1.994   1.587  0.8171  1.3994  0.7128
    1SOL    MW4 3728   3.599   1.943   1.607  0.3765  0.4908 -0.0890
    1SOL     OW 3729   3.844   2.047   1.523 -0.0719 -0.4965  0.1533
    1SOL    HW2 3730   3.851   2.137   1.556  1.0804 -1.1298  1.6870
    1SOL    HW3 3731   3.759   2.017   1.554  0.5048 -0.6867  1.5936
    1SOL    MW4 3732   3.834   2.055   1.531  0.1562 -0.6049  0.5457
    1SOL     OW 3733   3.809   2.318   1.621 -0.1613  0.2284 -0.3603
    1SOL    HW2 3734   3.807   2.334   1.715  0.0237  0.1509 -0.3444
    1SOL    HW3 3735   3.889   2.362   1.591  0.6450 -1.1431 -0.2368
    1SOL    MW4 3736   3.819   2.326   1.629 -0.0305  0.0372 -0.3418
    1SOL     OW 3737   3.596   2.447   1.515 -0.3420  0.0445 -0.2429
    1SOL    HW2 3738   3.613   2.540   1.531 -0.2228  0.1613 -1.0084
    1SOL    HW3 3739   3.671   2.401   1.553  1.2330  0.4870 -2.7276
    1SOL    MW4 3740   3.608   2.453   1.522 -0.1185  0.1185 -0.6717
    1SOL     OW 3741   3.602   2.711   1.605 -0.0490  0.2243 -0.2069
    1SOL    HW2 3742   3.602   2.725   1.700 -0.5334 -0.3176 -0.1290
    1SOL    HW3 3743   3.529   2.764   1.573 -0.2567 -0.0664 -0.2108
    1SOL    MW4 3744   3.593   2.720   1.614 -0.1404  0.1144 -0.1973
    1SOL     OW 3745   3.827   2.844   1.496  0.0261 -0.3353 -0.1269
    1SOL    HW2 3746   3.908   2.809   1.532 -0.0403 -1.8173 -1.3554
    1SOL    HW3 3747   3.758   2.798   1.544 -0.0610 -1.9244 -1.7019
    1SOL    MW4 3748   3.829   2.833   1.507  0.0055 -0.7405 -0.4969
    1SOL     OW 3749   3.842   3.119   1.611  0.6821 -0.5998  0.8232
    1SOL    HW2 3750   3.916   3.174   1.585  0.9654 -1.3699 -0.0082
    1SOL    HW3 3751   3.851   3.040   1.559 -1.5327 -0.1273 -0.3201
    1SOL    MW4 3752   3.853   3.116   1.601  0.4277 -0.6392  0.5627
    1SOL     OW 3753   3.606   3.221   1.520 -0.4712 -0.5704 -0.1348
    1SOL    HW2 3754   3.690   3.186   1.550  0.3536  0.7638 -0.8492
    1SOL    HW3 3755   3.609   3.211   1.425 -0.5213  0.7741 -0.2789
    1SOL    MW4 3756   3.618   3.215   1.512 -0.3691 -0.2170 -0.2481
    1SOL     OW 3757   3.610   3.517   1.621 -0.1073 -0.2221 -0.2466
    1SOL    HW2 3758   3.687   3.560   1.583 -0.5384 -0.1517 -1.0688
    1SOL    HW3 3759   3.618   3.426   1.593 -0.4995 -0.1421 -0.6185
    1SOL    MW4 3760   3.621   3.511   1.612 -0.2158 -0.2024 -0.4041
    1SOL     OW 3761   3.851   3.622   1.524  0.4719  0.0294 -0.7477
    1SOL    HW2 3762   3.922   3.581   1.574 -0.0200 -0.8799 -0.7727
    1SOL    HW3 3763   3.838   3.707   1.565  0.8173 -0.2626 -0.0232
    1SOL    MW4 3764   3.859   3.628   1.536  0.4525 -0.1290 -0.6554
    1SOL     OW 3765   3.813   3.905   1.629 -0.2424  0.0741  0.6639
    1SOL    HW2 3766   3.882   3.967   1.606  0.9368 -0.4380  2.7161
    1SOL    HW3 3767   3.733   3.945   1.595  0.7785  1.6978  0.0988
    1SOL    MW4 3768   3.812   3.919   1.621  0.0482  0.2208  0.8601
    1SOL     OW 3769   3.595   4.024   1.483 -0.0303 -0.1256  0.1103
    1SOL    HW2 3770   3.584   4.115   1.509 -1.7273 -0.7503  1.6913
    1SOL    HW3 3771   3.510   3.983   1.501  1.1057 -2.3150  0.6993
    1SOL    MW4 3772   3.583   4.030   1.489 -0.1042 -0.4973  0.3966
    1SOL     OW 3773   3.581   4.286   1.604  0.5516  0.2717 -0.1056
    1SOL    HW2 3774   3.580   4.269   1.698 -0.0013  0.0925 -0.1451
    1SOL    HW3 3775   3.499   4.331   1.586 -0.0195 -1.0020 -0.7360
    1SOL    MW4 3776   3.570   4.289   1.614  0.4034  0.0806 -0.1938
    1SOL     OW 3777   3.828   4.402   1.536 -0.0201 -0.0588  0.5844
    1SOL    HW2 3778   3.740   4.374   1.559 -0.2791  0.5499  0.3290
    1SOL    HW3 3779   3.826   4.497   1.541  0.0751  0.0758 -1.3541
    1SOL    MW4 3780   3.816   4.411   1.540 -0.0417  0.0396  0.2949
    1SOL     OW 3781   4.283   0.002   1.598  0.6092 -0.3561  0.0037
    1SOL    HW2 3782   4.279  -0.011   1.693  0.0597 -1.3684 -0.1592
    1SOL    HW3 3783   4.294  -0.085   1.562  1.0883  0.0543 -0.8630
    1SOL    MW4 3784   4.284  -0.011   1.606  0.5999 -0.4355 -0.1320
    1SOL     OW 3785   4.025   0.115   1.520  0.0714 -0.4737 -0.1270
    1SOL    HW2 3786   4.030   0.207   1.547  0.9142 -0.5073 -0.1416
    1SOL    HW3 3787   4.110   0.078   1.546  0.2006 -0.9480 -1.1917
    1SOL    MW4 3788   4.037   0.123   1.527  0.1998 -0.5407 -0.2694
    1SOL     OW 3789   4.008   0.373   1.608 -0.1931 -0.1442 -0.9109
    1SOL    HW2 3790   3.998   0.371   1.703  0.0358 -1.9795 -0.8927
    1SOL    HW3 3791   3.939   0.431   1.577 -0.4657  0.2217  0.3573
    1SOL    MW4 3792   3.998   0.380   1.617 -0.1991 -0.3380 -0.7414
    1SOL     OW 3793   4.265   0.471   1.529  0.0338  0.0979 -0.2974
    1SOL    HW2 3794   4.196   0.420   1.572  0.2049 -0.1040 -0.2615
    1SOL    HW3 3795   4.344   0.419   1.541  0.3480  0.7180  0.3752
    1SOL    MW4 3796   4.266   0.457   1.537  0.0978  0.1530 -0.2038
    1SOL     OW 3797   4.291   0.736   1.606 -0.1973  0.1906 -0.2054
    1SOL    HW2 3798   4.298   0.641   1.600 -2.6786  0.1101 -2.9324
    1SOL    HW3 3799   4.368   0.768   1.560  0.0994 -0.4867 -0.1883
    1SOL    MW4 3800   4.302   0.728   1.599 -0.4854  0.0906 -0.5630
    1SOL     OW 3801   4.086   0.870   1.509 -0.0351 -0.1346  0.2835
    1SOL    HW2 3802   4.160   0.814   1.533 -0.9221 -0.7494  1.7177
    1SOL    HW3 3803   4.011   0.828   1.552 -1.0739  0.9226 -0.4824
    1SOL    MW4 3804   4.086   0.857   1.518 -0.2890 -0.0762  0.3717
    1SOL     OW 3805   4.039   1.130   1.617 -0.2286 -0.2336 -0.1732
    1SOL    HW2 3806   4.016   1.132   1.710  2.5897  1.2660  0.5312
    1SOL    HW3 3807   4.071   1.041   1.602 -0.9455 -0.5586  0.2156
    1SOL    MW4 3808   4.040   1.118   1.627  0.0491 -0.0787 -0.0288
    1SOL     OW 3809   4.250   1.231   1.475 -0.3452  0.2669 -0.3792
    1SOL    HW2 3810   4.186   1.207   1.543 -0.9822  2.1186 -0.3122
    1SOL    HW3 3811   4.335   1.206   1.513 -0.8442 -0.3511  0.3600
    1SOL    MW4 3812   4.253   1.224   1.489 -0.4954  0.4296 -0.2728
    1SOL     OW 3813   4.260   1.510   1.589  0.5109 -0.0629  0.1583
    1SOL    HW2 3814   4.259   1.423   1.548  1.6205 -0.3516  0.7083
    1SOL    HW3 3815   4.334   1.554   1.550  0.0929  0.5543  0.0619
    1SOL    MW4 3816   4.270   1.504   1.579  0.6022 -0.0196  0.2182
    1SOL     OW 3817   4.057   1.673   1.476 -0.0512 -0.4208 -0.0036
    1SOL    HW2 3818   4.127   1.622   1.517 -0.0277 -1.2000 -0.9893
    1SOL    HW3 3819   3.977   1.635   1.512 -0.0646 -1.7716 -1.3918
    1SOL    MW4 3820   4.056   1.661   1.486 -0.0501 -0.7018 -0.3169
    1SOL     OW 3821   4.068   1.905   1.617  0.2672  0.4264 -0.3407
    1SOL    HW2 3822   4.064   1.819   1.576  1.0488  0.2979 -0.1595
    1SOL    HW3 3823   3.988   1.949   1.589 -0.4803 -0.6116  0.1505
    1SOL    MW4 3824   4.057   1.900   1.608  0.2718  0.2723 -0.2519
    1SOL     OW 3825   4.282   2.042   1.527 -0.8425 -0.2164 -0.2057
    1SOL    HW2 3826   4.203   1.992   1.543 -0.8680 -0.5339 -1.2754
    1SOL    HW3 3827   4.300   2.030   1.434 -0.2629  0.9073 -0.2541
    1SOL    MW4 3828   4.274   2.034   1.517 -0.7696 -0.1099 -0.3533
    1SOL     OW 3829   4.259   2.329   1.620  0.3420  0.1145  0.1818
    1SOL    HW2 3830   4.266   2.326   1.715 -2.1849 -1.5898  0.3825
    1SOL    HW3 3831   4.256   2.237   1.593  0.4559  0.5788 -1.4849
    1SOL    MW4 3832   4.259   2.317   1.629  0.0238 -0.0491 -0.0116
    1SOL     OW 3833   4.025   2.459   1.528 -0.0805 -0.1763  0.0797
    1SOL    HW2 3834   4.036   2.552   1.548  1.0113  0.1260 -1.8034
    1SOL    HW3 3835   4.110   2.420   1.549  0.1013 -0.3854 -1.0177
    1SOL    MW4 3836   4.038   2.466   1.533  0.0873 -0.1640 -0.3134
    1SOL     OW 3837   4.046   2.731   1.613 -0.0129  0.7488 -0.0482
    1SOL    HW2 3838   4.039   2.724   1.709  1.0784 -0.6966 -0.0677
    1SOL    HW3 3839   4.137   2.756   1.597  0.0566  0.0365 -0.7611
    1SOL    MW4 3840   4.057   2.733   1.624  0.1402  0.4642 -0.1447
    1SOL     OW 3841   4.287   2.836   1.536 -0.2328  0.4512  0.1369
    1SOL    HW2 3842   4.289   2.929   1.558 -2.2108  0.4654  0.3717
    1SOL    HW3 3843   4.285   2.833   1.440 -0.4643  0.6640  0.1357
    1SOL    MW4 3844   4.287   2.848   1.526 -0.5245  0.4814  0.1678
    1SOL     OW 3845   4.267   3.103   1.608 -0.1555  0.3250  0.4730
    1SOL    HW2 3846   4.259   3.118   1.703  0.8585  0.5263  0.5335
    1SOL    HW3 3847   4.354   3.135   1.587 -0.6501  0.9357 -0.6710
    1SOL    MW4 3848   4.277   3.109   1.618 -0.0868  0.4320  0.3300
    1SOL     OW 3849   4.068   3.273   1.522 -0.1125  0.1708  0.6343
    1SOL    HW2 3850   4.067   3.349   1.579 -1.3149 -0.3877  1.3863
    1SOL    HW3 3851   4.140   3.219   1.555 -1.1303 -0.3998  2.0046
    1SOL    MW4 3852   4.077   3.276   1.534 -0.4058  0.0217  0.9142
    1SOL     OW 3853   4.043   3.500   1.687  0.0649  0.1245  0.5594
    1SOL    HW2 3854   4.035   3.510   1.782  0.3554 -0.3669  0.6359
    1SOL    HW3 3855   4.122   3.549   1.665  0.9920 -1.2102  0.8164
    1SOL    MW4 3856   4.052   3.508   1.697  0.2255 -0.1161  0.6033
    1SOL     OW 3857   4.255   3.623   1.573  0.1808 -0.0078  0.0043
    1SOL    HW2 3858   4.241   3.709   1.612 -0.8713 -0.1081 -0.1428
    1SOL    HW3 3859   4.256   3.639   1.479  0.1925 -0.1228 -0.0156
    1SOL    MW4 3860   4.253   3.636   1.566  0.0434 -0.0360 -0.0179
    1SOL     OW 3861   4.258   3.897   1.666 -0.0478 -0.3843  0.3934
    1SOL    HW2 3862   4.191   3.954   1.628  1.1825  1.2278  0.5665
    1SOL    HW3 3863   4.341   3.936   1.639  0.8394 -1.9669  0.7313
    1SOL    MW4 3864   4.260   3.910   1.658  0.2313 -0.3803  0.4609
    1SOL     OW 3865   4.049   4.036   1.558 -0.0042 -0.4282  0.1083
    1SOL    HW2 3866   4.063   4.128   1.578  0.3313 -0.7648  1.5069
    1SOL    HW3 3867   4.032   4.033   1.464  0.8016  0.9647 -0.0852
    1SOL    MW4 3868   4.048   4.047   1.548  0.1469 -0.2890  0.2673
    1SOL     OW 3869   4.075   4.290   1.641 -0.2011 -0.1339 -0.4673
    1SOL    HW2 3870   4.069   4.292   1.737 -0.1331 -0.4272 -0.4557
    1SOL    HW3 3871   3.998   4.338   1.612 -0.6118 -0.6611 -0.2691
    1SOL    MW4 3872   4.064   4.296   1.650 -0.2465 -0.2422 -0.4395
    1SOL     OW 3873   4.280   4.406   1.508  0.1084 -0.3598  0.1374
    1SOL    HW2 3874   4.225   4.349   1.562 -0.1039 -0.4811 -0.2055
    1SOL    HW3 3875   4.247   4.394   1.419 -0.5129  0.9581  0.1727
    1SOL    MW4 3876   4.268   4.397   1.503 -0.0014 -0.2027  0.0969
    1SOL     OW 3877   0.254   4.630   1.928  0.2227  0.3216  0.6593
    1SOL    HW2 3878   0.336   4.674   1.950  0.7466 -0.4510  0.2870
    1SOL    HW3 3879   0.233   4.662   1.840 -0.2939  1.1240  1.0734
    1SOL    MW4 3880   0.262   4.640   1.919  0.2237  0.3257  0.6648
    1SOL     OW 3881   4.483   0.077   1.973  0.4720  0.4618  0.2815
    1SOL    HW2 3882   4.493   0.162   1.931 -1.1573 -0.1433 -1.4002
    1SOL    HW3 3883   4.569   0.036   1.965  0.9552  1.4912  0.1016
    1SOL    MW4 3884   4.496   0.083   1.967  0.3204  0.5178  0.0359
    1SOL     OW 3885   0.009   0.338   1.883  0.2337  0.1648  0.0285
    1SOL    HW2 3886  -0.071   0.375   1.919 -0.3139 -1.5104  0.5897
    1SOL    HW3 3887   0.079   0.375   1.936 -0.2241  1.0857 -0.0028
    1SOL    MW4 3888   0.007   0.347   1.895  0.1006  0.0653  0.0983
    1SOL     OW 3889   0.229   0.452   2.008 -0.1197  0.1397  0.0903
    1SOL    HW2 3890   0.317   0.427   1.979 -0.7758 -0.6754 -1.2111
    1SOL    HW3 3891   0.218   0.542   1.977  0.2332  0.2348  0.2324
    1SOL    MW4 3892   0.239   0.461   2.000 -0.1597  0.0447 -0.0625
    1SOL     OW 3893   0.229   0.705   1.866  0.2178 -0.3927 -0.2683
    1SOL    HW2 3894   0.299   0.762   1.896  0.2402  0.4833 -1.8996
    1SOL    HW3 3895   0.218   0.727   1.773 -1.6393 -1.0993 -0.2522
    1SOL    MW4 3896   0.237   0.716   1.857 -0.0243 -0.3703 -0.4816
    1SOL     OW 3897   0.019   0.874   1.952 -0.4101  0.1579 -0.0308
    1SOL    HW2 3898  -0.057   0.817   1.958 -0.2093 -0.1599 -0.4358
    1SOL    HW3 3899   0.093   0.814   1.940 -0.2980  0.5217 -1.2875
    1SOL    MW4 3900   0.019   0.859   1.951 -0.3688  0.1640 -0.2500
    1SOL     OW 3901   0.014   1.155   1.848  0.6875  0.2469  0.1486
    1SOL    HW2 3902  -0.065   1.193   1.885  0.2048  1.2352 -1.8858
    1SOL    HW3 3903   0.011   1.063   1.874 -0.4593  0.5715  1.1767
    1SOL    MW4 3904   0.003   1.147   1.856  0.4721  0.4200  0.0159
    1SOL     OW 3905   0.238   1.245   1.959  0.2330  0.2064 -0.3071
    1SOL    HW2 3906   0.236   1.340   1.947  1.0292  0.2170 -0.3913
    1SOL    HW3 3907   0.156   1.215   1.921  0.4726  0.7551 -1.3009
    1SOL    MW4 3908   0.227   1.254   1.952  0.3697  0.2801 -0.4493
    1SOL     OW 3909   0.197   1.544   1.893  0.0319  0.3097  0.3054
    1SOL    HW2 3910   0.281   1.580   1.920  0.3250 -0.1801  0.0647
    1SOL    HW3 3911   0.132   1.601   1.933  0.4972  1.7410 -0.9487
    1SOL    MW4 3912   0.200   1.556   1.902  0.1320  0.4339  0.1081
    1SOL     OW 3913   4.483   1.696   1.985 -0.2638 -0.1938  0.1453
    1SOL    HW2 3914   4.469   1.674   2.077 -0.0252 -0.4241  0.1245
    1SOL    HW3 3915   4.419   1.643   1.937 -1.6945  1.3264  0.3208
    1SOL    MW4 3916   4.473   1.686   1.991 -0.4210 -0.0236  0.1657
    1SOL     OW 3917   4.487   1.953   1.884  0.2628 -0.2294 -0.6100
    1SOL    HW2 3918   4.409   1.994   1.923 -0.4671 -0.5892 -1.6684
    1SOL    HW3 3919   4.491   1.866   1.924  0.4618  0.0073 -0.1142
    1SOL    MW4 3920   4.477   1.947   1.895  0.1926 -0.2456 -0.6844
    1SOL     OW 3921   0.227   2.054   1.959 -0.1040  0.0426  0.1406
    1SOL    HW2 3922   0.219   2.148   1.943  0.6154 -0.0352 -0.7337
    1SOL    HW3 3923   0.149   2.016   1.917  0.3923  0.1075 -0.8591
    1SOL    MW4 3924   0.216   2.061   1.951  0.0564  0.0410 -0.1066
    1SOL     OW 3925   0.216   2.322   1.858  0.5727 -0.1768  0.1275
    1SOL    HW2 3926   0.291   2.379   1.875  0.3327 -0.1126  1.0239
    1SOL    HW3 3927   0.142   2.369   1.897 -0.0183  0.0072 -1.2017
    1SOL    MW4 3928   0.216   2.336   1.865  0.4631 -0.1440  0.0706
    1SOL     OW 3929   0.017   2.441   1.985 -0.2936  0.1992  0.4231
    1SOL    HW2 3930   0.029   2.451   2.079  0.2780 -1.5786  0.5650
    1SOL    HW3 3931   0.024   2.529   1.950 -0.6529  0.8854  2.0700
    1SOL    MW4 3932   0.020   2.454   1.993 -0.2656  0.0556  0.6592
    1SOL     OW 3933   0.051   2.720   1.912  0.4651  0.1389 -0.0107
    1SOL    HW2 3934  -0.023   2.777   1.935  0.2532  0.1980 -0.8064
    1SOL    HW3 3935   0.042   2.707   1.817  0.0777 -1.8314  0.2713
    1SOL    MW4 3936   0.040   2.726   1.902  0.3858 -0.1135 -0.0784
    1SOL     OW 3937   0.279   2.867   1.962  0.1240  0.2573 -0.0933
    1SOL    HW2 3938   0.242   2.956   1.959 -0.3683  0.0343 -0.8120
    1SOL    HW3 3939   0.206   2.811   1.936  0.8083 -0.2373 -0.9837
    1SOL    MW4 3940   0.265   2.872   1.958  0.1493  0.1626 -0.3058
    1SOL     OW 3941   0.203   3.138   1.947  0.1742  0.4346 -0.0421
    1SOL    HW2 3942   0.272   3.191   1.985 -0.0630  1.1493 -0.5993
    1SOL    HW3 3943   0.228   3.126   1.856 -0.9127  1.5025 -0.4895
    1SOL    MW4 3944   0.215   3.143   1.940 -0.0005  0.6697 -0.1746
    1SOL     OW 3945   4.466   3.263   2.013  0.0139  0.0071  0.1004
    1SOL    HW2 3946   4.392   3.209   1.985  0.3637 -1.6638  2.2822
    1SOL    HW3 3947   4.542   3.226   1.969 -0.0616  0.0894 -0.0997
    1SOL    MW4 3948   4.466   3.251   2.004  0.0505 -0.2024  0.3617
    1SOL     OW 3949   0.017   3.517   1.888 -0.1363  0.1862  0.1259
    1SOL    HW2 3950   0.102   3.539   1.927 -0.3703 -1.0508  1.3806
    1SOL    HW3 3951  -0.001   3.428   1.919 -1.8288  0.3952 -0.2280
    1SOL    MW4 3952   0.026   3.508   1.898 -0.3905  0.0503  0.2447
    1SOL     OW 3953   0.252   3.654   1.995 -0.2633 -0.1546  0.2543
    1SOL    HW2 3954   0.235   3.643   2.089  0.8309  0.6525  0.5512
    1SOL    HW3 3955   0.343   3.628   1.984 -0.1314  0.5879 -0.4473
    1SOL    MW4 3956   0.261   3.649   2.006 -0.1015  0.0498  0.2010
    1SOL     OW 3957   0.245   3.918   1.864 -0.3602 -0.3302 -0.4263
    1SOL    HW2 3958   0.322   3.967   1.893 -0.0799  0.3217 -2.2002
    1SOL    HW3 3959   0.260   3.829   1.896  0.3580  0.1565  0.6240
    1SOL    MW4 3960   0.257   3.913   1.872 -0.2284 -0.1802 -0.5218
    1SOL     OW 3961   0.039   4.061   1.970  0.0448 -0.1904  0.1443
    1SOL    HW2 3962   0.052   4.142   1.921 -1.3332 -0.8602 -1.3797
    1SOL    HW3 3963   0.115   4.007   1.947 -0.1189 -0.1407 -0.5320
    1SOL    MW4 3964   0.051   4.064   1.960 -0.1586 -0.2718 -0.1462
    1SOL     OW 3965   0.060   4.327   1.839  0.1192 -0.2235 -0.2221
    1SOL    HW2 3966  -0.024   4.350   1.878 -0.6075 -0.1448 -1.7658
    1SOL    HW3 3967   0.125   4.352   1.904 -0.9907  0.8901  0.4766
    1SOL    MW4 3968   0.057   4.334   1.852 -0.1231 -0.0663 -0.3337
    1SOL     OW 3969   0.247   4.365   2.034 -0.6222 -0.2897  0.3197
    1SOL    HW2 3970   0.236   4.345   2.127 -0.3028 -0.0515  0.4115
    1SOL    HW3 3971   0.259   4.460   2.031 -0.1654 -0.3518  0.0832
    1SOL    MW4 3972   0.247   4.375   2.046 -0.5198 -0.2666  0.3006
    1SOL     OW 3973   0.704   4.647   1.918 -0.0787  0.2097  0.1461
    1SOL    HW2 3974   0.705   4.562   1.962 -0.1402  0.0564 -0.1537
    1SOL    HW3 3975   0.695   4.627   1.825  1.3179  0.4904 -0.0608
    1SOL    MW4 3976   0.703   4.633   1.912  0.0975  0.2260  0.0793
    1SOL     OW 3977   0.478   0.099   2.006  0.0847  0.8314  0.2216
    1SOL    HW2 3978   0.486   0.186   1.967  0.9853  0.6330 -0.0550
    1SOL    HW3 3979   0.558   0.053   1.979 -0.4515 -0.1315  0.2402
    1SOL    MW4 3980   0.490   0.104   1.998  0.1328  0.6781  0.1878
    1SOL     OW 3981   0.477   0.367   1.885  0.1406  0.2030  0.1971
    1SOL    HW2 3982   0.549   0.429   1.897  1.0263 -0.8493  0.3907
    1SOL    HW3 3983   0.463   0.365   1.791 -0.2994  1.1588  0.2409
    1SOL    MW4 3984   0.485   0.375   1.874  0.1994  0.1903  0.2284
    1SOL     OW 3985   0.682   0.530   1.929  0.3664  0.2404 -0.0775
    1SOL    HW2 3986   0.683   0.520   2.024  0.1798 -1.5014 -0.2493
    1SOL    HW3 3987   0.761   0.485   1.899  0.7560  1.3071 -0.7103
    1SOL    MW4 3988   0.693   0.523   1.937  0.3931  0.1513 -0.1836
    1SOL     OW 3989   0.698   0.789   1.855 -0.2011  0.2855 -0.8024
    1SOL    HW2 3990   0.771   0.827   1.902 -1.7176  0.7549  1.2445
    1SOL    HW3 3991   0.706   0.695   1.869  1.3770  0.1218 -2.6530
    1SOL    MW4 3992   0.709   0.782   1.863 -0.1930  0.3257 -0.7764
    1SOL     OW 3993   0.453   0.861   1.944 -0.2143  0.1217 -0.6720
    1SOL    HW2 3994   0.435   0.950   1.915  0.7106 -0.3247 -2.7094
    1SOL    HW3 3995   0.537   0.838   1.903 -0.5612 -1.7538 -0.4056
    1SOL    MW4 3996   0.462   0.869   1.934 -0.1380 -0.1847 -0.9058
    1SOL     OW 3997   0.463   1.132   1.851 -0.3000  0.0790 -0.2764
    1SOL    HW2 3998   0.376   1.172   1.860 -0.2767  0.2901 -0.9904
    1SOL    HW3 3999   0.475   1.122   1.757  0.3881 -0.0988 -0.1686
    1SOL    MW4 4000   0.453   1.136   1.840 -0.2061  0.0833 -0.3564
    1SOL     OW 4001   0.644   1.287   1.959  0.1961 -0.2013  0.5450
    1SOL    HW2 4002   0.635   1.271   2.053 -2.0734  0.2577  0.4249
    1SOL    HW3 4003   0.587   1.222   1.918  0.2943  0.3431 -0.4628
    1SOL    MW4 4004   0.635   1.276   1.966 -0.0903 -0.0689  0.3961
    1SOL     OW 4005   0.737   1.540   1.894 -0.1949  0.0558 -0.0253
    1SOL    HW2 4006   0.703   1.451   1.904 -0.2875  0.0056 -0.7074
    1SOL    HW3 4007   0.736   1.555   1.799  0.0645  0.6883  0.0681
    1SOL    MW4 4008   0.732   1.530   1.883 -0.1729  0.1327 -0.1030
    1SOL     OW 4009   0.464   1.619   1.952 -0.1441  0.2292  0.2232
    1SOL    HW2 4010   0.450   1.616   2.047  0.5655 -0.2221  0.3191
    1SOL    HW3 4011   0.556   1.593   1.941 -0.5285 -0.7993 -0.6582
    1SOL    MW4 4012   0.475   1.615   1.963 -0.1012  0.0339  0.1196
    1SOL     OW 4013   0.462   1.902   1.908 -0.5435 -0.1005 -0.2404
    1SOL    HW2 4014   0.449   1.809   1.928  0.9725  0.0105  1.3878
    1SOL    HW3 4015   0.380   1.944   1.935 -1.3862 -1.0189 -1.3576
    1SOL    MW4 4016   0.450   1.895   1.914 -0.4547 -0.2071 -0.1729
    1SOL     OW 4017   0.710   2.014   1.984 -0.2549  0.1868 -0.1023
    1SOL    HW2 4018   0.685   2.041   2.072 -0.4955  2.8859 -0.9521
    1SOL    HW3 4019   0.630   1.978   1.946 -0.7635  1.1867 -0.0024
    1SOL    MW4 4020   0.696   2.013   1.990 -0.3538  0.6747 -0.2012
    1SOL     OW 4021   0.677   2.278   1.913  0.3828 -0.0322 -0.0870
    1SOL    HW2 4022   0.687   2.186   1.936 -0.8798 -0.2038 -0.2057
    1SOL    HW3 4023   0.679   2.280   1.818  0.2420  0.0451 -0.0887
    1SOL    MW4 4024   0.679   2.266   1.904  0.1976 -0.0448 -0.1030
    1SOL     OW 4025   0.446   2.432   1.939  0.1772  0.0805 -0.3253
    1SOL    HW2 4026   0.435   2.433   2.034 -0.4936 -0.7823 -0.3926
    1SOL    HW3 4027   0.527   2.384   1.924  0.3411  0.3127 -0.1889
    1SOL    MW4 4028   0.455   2.426   1.949  0.1103 -0.0029 -0.3163
    1SOL     OW 4029   0.492   2.703   1.901  0.0280  0.0473  0.3576
    1SOL    HW2 4030   0.474   2.611   1.922  0.7352 -0.2989 -0.5355
    1SOL    HW3 4031   0.422   2.752   1.944 -0.4526 -0.9288  0.6823
    1SOL    MW4 4032   0.480   2.697   1.909  0.0578 -0.1271  0.2826
    1SOL     OW 4033   0.703   2.850   2.013  0.0293  0.4401  0.3325
    1SOL    HW2 4034   0.707   2.836   2.107  0.1346  0.3525  0.3154
    1SOL    HW3 4035   0.628   2.799   1.983  0.1621  0.2464  0.3291
    1SOL    MW4 4036   0.694   2.841   2.021  0.0607  0.4032  0.3297
    1SOL     OW 4037   0.656   3.110   1.924 -0.4572 -0.2305 -0.1731
    1SOL    HW2 4038   0.662   3.023   1.963  0.3662  0.3699  1.0620
    1SOL    HW3 4039   0.654   3.093   1.829 -0.6205 -1.5977  0.0547
    1SOL    MW4 4040   0.657   3.096   1.917 -0.3700 -0.3316  0.0199
    1SOL     OW 4041   0.447   3.249   2.054  0.5603  0.1061  0.5423
    1SOL    HW2 4042   0.470   3.340   2.033 -0.3170  0.0395 -0.7732
    1SOL    HW3 4043   0.522   3.198   2.023  0.9349  0.3537  1.0351
    1SOL    MW4 4044   0.460   3.254   2.047  0.4940  0.1302  0.4339
    1SOL     OW 4045   0.481   3.515   1.974  0.0332 -0.1145  0.3189
    1SOL    HW2 4046   0.563   3.562   1.985  1.1456 -2.2569  1.6186
    1SOL    HW3 4047   0.467   3.510   1.880  0.7057  1.4040  0.1349
    1SOL    MW4 4048   0.490   3.521   1.963  0.2687 -0.1969  0.4662
    1SOL     OW 4049   0.705   3.654   1.995 -0.2235 -0.0736  0.3441
    1SOL    HW2 4050   0.775   3.602   1.956  0.3306  0.1050  1.0850
    1SOL    HW3 4051   0.697   3.730   1.937  0.4551  0.0892  0.4562
    1SOL    MW4 4052   0.714   3.657   1.982 -0.0609 -0.0286  0.4566
    1SOL     OW 4053   0.683   3.888   1.844 -0.0090 -0.3008  0.5288
    1SOL    HW2 4054   0.753   3.927   1.896 -0.6227  1.7297 -0.1176
    1SOL    HW3 4055   0.714   3.894   1.753 -0.8254  0.2114  0.2809
    1SOL    MW4 4056   0.696   3.894   1.839 -0.1977  0.0348  0.4109
    1SOL     OW 4057   0.466   4.030   1.955  0.0184 -0.0074  0.1179
    1SOL    HW2 4058   0.476   4.122   1.930 -1.3475 -0.0474 -0.5858
    1SOL    HW3 4059   0.531   3.984   1.903 -2.3421 -0.0161 -2.9699
    1SOL    MW4 4060   0.476   4.036   1.945 -0.4732 -0.0138 -0.3824
    1SOL     OW 4061   0.464   4.308   1.868  0.1162 -0.3993 -0.0459
    1SOL    HW2 4062   0.379   4.317   1.911  0.2703  0.1148  0.1465
    1SOL    HW3 4063   0.442   4.292   1.776 -0.1623  1.7055 -0.3623
    1SOL    MW4 4064   0.450   4.307   1.862  0.0998 -0.0544 -0.0623
    1SOL     OW 4065   0.674   4.394   2.042 -0.0824  0.1205 -0.3678
    1SOL    HW2 4066   0.749   4.361   1.992 -1.2387  0.3049 -2.2977
    1SOL    HW3 4067   0.598   4.361   1.993 -1.2547  0.1508  1.4120
    1SOL    MW4 4068   0.674   4.385   2.029 -0.3896  0.1488 -0.3874
    1SOL     OW 4069   1.120   4.646   1.817  0.1229  0.4187 -0.2389
    1SOL    HW2 4070   1.185   4.694   1.866  0.0680 -0.0207  0.2707
    1SOL    HW3 4071   1.106   4.565   1.867 -0.4764  0.3044 -0.5762
    1SOL    MW4 4072   1.126   4.641   1.830  0.0365  0.3462 -0.2162
    1SOL     OW 4073   0.942   0.111   1.993 -0.3525  0.0879 -0.0618
    1SOL    HW2 4074   1.003   0.065   1.934 -0.3237 -0.9303  0.7431
    1SOL    HW3 4075   0.859   0.064   1.982 -0.0842 -0.7965  1.4773
    1SOL    MW4 4076   0.939   0.099   1.984 -0.3133 -0.1631  0.2474
    1SOL     OW 4077   0.898   0.388   1.848  0.6938 -0.4627  0.2783
    1SOL    HW2 4078   0.968   0.435   1.893  0.8832 -0.7854  0.3197
    1SOL    HW3 4079   0.884   0.309   1.901 -0.4529  0.1400  0.8845
    1SOL    MW4 4080   0.905   0.384   1.861  0.5676 -0.4257  0.3637
    1SOL     OW 4081   1.116   0.509   1.982 -0.3148 -0.2053  0.2432
    1SOL    HW2 4082   1.188   0.450   1.960 -0.8732 -0.6055 -0.5718
    1SOL    HW3 4083   1.143   0.594   1.947 -0.0817 -0.2788  0.2477
    1SOL    MW4 4084   1.129   0.513   1.974 -0.3577 -0.2677  0.1361
    1SOL     OW 4085   1.149   0.747   1.863  0.1162  0.1445  0.0845
    1SOL    HW2 4086   1.222   0.799   1.898  0.4232  0.5014 -1.0527
    1SOL    HW3 4087   1.071   0.793   1.892  0.3559  0.3076  0.4870
    1SOL    MW4 4088   1.149   0.760   1.872  0.1885  0.2131 -0.0123
    1SOL     OW 4089   0.942   0.889   1.967  0.0918 -0.0524 -0.6129
    1SOL    HW2 4090   0.919   0.871   2.059  1.3407 -0.3171 -0.3390
    1SOL    HW3 4091   0.934   0.984   1.959 -1.2202 -0.1550 -0.5658
    1SOL    MW4 4092   0.938   0.899   1.978  0.0835 -0.1009 -0.5707
    1SOL     OW 4093   0.902   1.158   1.918  0.3079 -0.1015 -0.2482
    1SOL    HW2 4094   0.815   1.194   1.937 -0.1426 -1.1684 -0.2481
    1SOL    HW3 4095   0.907   1.154   1.823  0.9026  1.2282 -0.2956
    1SOL    MW4 4096   0.891   1.163   1.908  0.3270 -0.0666 -0.2544
    1SOL     OW 4097   1.114   1.291   2.024 -0.2346 -0.1469 -0.2592
    1SOL    HW2 4098   1.118   1.376   1.982  1.2543  0.1215  0.3752
    1SOL    HW3 4099   1.036   1.249   1.987 -0.6901  1.2785 -0.9480
    1SOL    MW4 4100   1.104   1.296   2.013 -0.0982  0.0765 -0.2663
    1SOL     OW 4101   1.153   1.526   1.890  0.6124 -0.0269  0.3016
    1SOL    HW2 4102   1.074   1.571   1.921  0.1024 -0.2915 -0.6031
    1SOL    HW3 4103   1.141   1.520   1.795  1.2172 -1.0440  0.2932
    1SOL    MW4 4104   1.141   1.531   1.882  0.6249 -0.1960  0.1811
    1SOL     OW 4105   0.954   1.660   2.014 -0.1556 -0.5183  0.2924
    1SOL    HW2 4106   0.959   1.751   1.983 -0.6865 -0.5516  0.1217
    1SOL    HW3 4107   0.881   1.621   1.967 -2.2405 -0.0123  2.9426
    1SOL    MW4 4108   0.945   1.667   2.004 -0.5007 -0.4559  0.6194
    1SOL     OW 4109   0.948   1.919   1.903 -0.1164  0.4467  0.2780
    1SOL    HW2 4110   0.864   1.947   1.940 -0.6426 -0.8210  0.0585
    1SOL    HW3 4111   0.932   1.915   1.809  0.2637  0.4393  0.2166
    1SOL    MW4 4112   0.934   1.922   1.896 -0.1358  0.2786  0.2409
    1SOL     OW 4113   1.154   2.071   2.001 -0.2740  0.0575  0.0845
    1SOL    HW2 4114   1.160   2.156   1.958  0.1798 -0.0819 -0.1242
    1SOL    HW3 4115   1.078   2.029   1.960 -0.6532  0.4613  0.3662
    1SOL    MW4 4116   1.145   2.077   1.990 -0.2642  0.0923  0.0939
    1SOL     OW 4117   1.135   2.328   1.889  0.6461 -0.2585  0.2424
    1SOL    HW2 4118   1.212   2.380   1.914  1.1993  0.4989 -2.8880
    1SOL    HW3 4119   1.143   2.316   1.795 -1.9111 -2.1358  0.2080
    1SOL    MW4 4120   1.146   2.333   1.880  0.3817 -0.4063 -0.1752
    1SOL     OW 4121   0.886   2.471   1.953 -0.2003  0.4280 -0.1448
    1SOL    HW2 4122   0.972   2.430   1.949  0.4014  1.3812  1.9775
    1SOL    HW3 4123   0.824   2.400   1.942  0.8613 -0.2200 -2.0532
    1SOL    MW4 4124   0.889   2.456   1.951  0.0193  0.4683 -0.1166
    1SOL     OW 4125   0.919   2.732   1.891 -0.2549  0.1648  1.0368
    1SOL    HW2 4126   0.912   2.639   1.912 -2.1455 -0.2091 -0.9962
    1SOL    HW3 4127   0.841   2.771   1.931 -1.5460  0.1680 -1.3677
    1SOL    MW4 4128   0.908   2.725   1.899 -0.6747  0.1161  0.4513
    1SOL     OW 4129   1.144   2.841   2.002  0.4589  0.2069  0.2978
    1SOL    HW2 4130   1.133   2.856   2.096  1.7225  0.7540  0.3655
    1SOL    HW3 4131   1.059   2.807   1.973  0.1842 -0.3296  1.7027
    1SOL    MW4 4132   1.131   2.839   2.011  0.5894  0.2081  0.4919
    1SOL     OW 4133   1.112   3.087   1.896  0.1315 -0.2383 -0.6449
    1SOL    HW2 4134   1.030   3.129   1.922 -0.0644  0.0354 -1.6860
    1SOL    HW3 4135   1.109   3.000   1.936  0.2036  0.4474  0.9240
    1SOL    MW4 4136   1.101   3.081   1.905  0.1152 -0.1118 -0.5753
    1SOL     OW 4137   0.892   3.222   1.982  0.2887 -0.0435 -0.1954
    1SOL    HW2 4138   0.891   3.230   2.077  1.3222 -2.9820  0.0999
    1SOL    HW3 4139   0.807   3.184   1.959  0.1933  0.2979 -0.4168
    1SOL    MW4 4140   0.881   3.218   1.991  0.4125 -0.3862 -0.1856
    1SOL     OW 4141   0.917   3.488   1.885 -0.1700 -0.1163  0.5058
    1SOL    HW2 4142   0.890   3.399   1.908 -0.5637  0.6388  3.1316
    1SOL    HW3 4143   0.924   3.487   1.790 -1.6051 -2.5575  0.3869
    1SOL    MW4 4144   0.914   3.477   1.876 -0.4113 -0.3388  0.8366
    1SOL     OW 4145   1.139   3.635   1.989  0.3335 -0.2776  0.0999
    1SOL    HW2 4146   1.138   3.631   2.085 -0.2533 -0.6628  0.0784
    1SOL    HW3 4147   1.066   3.580   1.962  1.4501 -1.4422 -0.6220
    1SOL    MW4 4148   1.129   3.627   1.998  0.4034 -0.4821  0.0018
    1SOL     OW 4149   1.122   3.899   1.904  0.1210  0.0918 -0.1264
    1SOL    HW2 4150   1.133   3.815   1.949  1.7269  0.2116 -0.2767
    1SOL    HW3 4151   1.133   3.878   1.811 -1.7487  0.0954 -0.3682
    1SOL    MW4 4152   1.125   3.885   1.898  0.0861  0.1078 -0.1781
    1SOL     OW 4153   0.886   4.045   1.959  0.0075 -0.2204  0.3779
    1SOL    HW2 4154   0.879   4.041   2.054  1.5718 -1.2941  0.4508
    1SOL    HW3 4155   0.968   4.001   1.938 -1.1546 -1.5253 -1.6062
    1SOL    MW4 4156   0.896   4.039   1.968  0.0606 -0.5341  0.1259
    1SOL     OW 4157   0.895   4.313   1.892 -0.2381  0.1101 -0.0093
    1SOL    HW2 4158   0.982   4.344   1.918 -0.5920 -0.5781  2.0924
    1SOL    HW3 4159   0.899   4.218   1.903 -1.5248  0.1537  1.0027
    1SOL    MW4 4160   0.907   4.304   1.897 -0.4547  0.0253  0.4015
    1SOL     OW 4161   1.117   4.418   1.979 -0.0452  0.1190 -0.1934
    1SOL    HW2 4162   1.122   4.429   2.074 -2.0748  0.3942 -0.0908
    1SOL    HW3 4163   1.199   4.375   1.955  1.0893  1.2664  1.4957
    1SOL    MW4 4164   1.128   4.414   1.988 -0.1633  0.3066  0.0429
    1SOL     OW 4165   1.570   4.624   1.829  0.0611 -0.1917  0.3813
    1SOL    HW2 4166   1.628   4.681   1.880 -1.1684  0.3834  1.1402
    1SOL    HW3 4167   1.575   4.539   1.873 -0.1332  0.0134  0.8017
    1SOL    MW4 4168   1.578   4.620   1.841 -0.1267 -0.0887  0.5368
    1SOL     OW 4169   1.326   0.097   1.954  0.2760 -0.7102  0.1470
    1SOL    HW2 4170   1.352   0.094   2.046  0.5859 -0.9580  0.0500
    1SOL    HW3 4171   1.395   0.051   1.908  0.5054  0.0735 -0.3010
    1SOL    MW4 4172   1.338   0.091   1.960  0.3473 -0.6395  0.0751
    1SOL     OW 4173   1.343   0.367   1.905 -0.2552 -0.1503  0.4183
    1SOL    HW2 4174   1.324   0.277   1.934  1.8648 -0.4280  1.0574
    1SOL    HW3 4175   1.356   0.359   1.811 -0.0566 -0.5422  0.4748
    1SOL    MW4 4176   1.342   0.354   1.897  0.0507 -0.2387  0.5100
    1SOL     OW 4177   1.567   0.513   2.016  0.0578 -0.2126  0.4786
    1SOL    HW2 4178   1.639   0.464   1.975 -1.0584 -1.3006 -0.2472
    1SOL    HW3 4179   1.490   0.459   1.999 -1.2892  1.9901 -0.6668
    1SOL    MW4 4180   1.567   0.499   2.008 -0.2673 -0.0656  0.2317
    1SOL     OW 4181   1.590   0.745   1.869 -0.2998 -0.4879 -0.3237
    1SOL    HW2 4182   1.650   0.804   1.915 -1.1167 -1.0465  1.5106
    1SOL    HW3 4183   1.572   0.675   1.932 -3.3407 -0.0382 -0.6228
    1SOL    MW4 4184   1.596   0.743   1.883 -0.8088 -0.5023 -0.1212
    1SOL     OW 4185   1.361   0.903   1.966 -0.4628 -0.1236  0.2183
    1SOL    HW2 4186   1.351   0.896   2.061  0.5966  0.4503  0.3710
    1SOL    HW3 4187   1.436   0.848   1.945 -1.5086 -1.3233 -0.4652
    1SOL    MW4 4188   1.369   0.895   1.975 -0.4611 -0.2062  0.1483
    1SOL     OW 4189   1.335   1.174   1.873 -0.3124 -0.7661 -0.0033
    1SOL    HW2 4190   1.349   1.084   1.903 -0.3760 -0.2927  1.4881
    1SOL    HW3 4191   1.262   1.206   1.926 -0.2440  0.1899 -0.4774
    1SOL    MW4 4192   1.327   1.166   1.884 -0.3119 -0.5776  0.1309
    1SOL     OW 4193   1.566   1.319   1.967  0.4891  0.1476  0.2875
    1SOL    HW2 4194   1.575   1.410   1.939 -0.9001  0.6672  1.5022
    1SOL    HW3 4195   1.482   1.291   1.932  0.9424 -0.6901 -0.1374
    1SOL    MW4 4196   1.556   1.327   1.959  0.3657  0.1057  0.3918
    1SOL     OW 4197   1.567   1.579   1.831  0.5027  0.6456 -0.4404
    1SOL    HW2 4198   1.644   1.619   1.870  0.8575 -0.4596  0.0278
    1SOL    HW3 4199   1.494   1.611   1.884  0.5702  2.1241 -1.2278
    1SOL    MW4 4200   1.567   1.588   1.843  0.5585  0.6949 -0.4826
    1SOL     OW 4201   1.362   1.685   1.966  0.0071 -0.1322  0.2005
    1SOL    HW2 4202   1.362   1.690   2.062 -1.6311  0.3782  0.1940
    1SOL    HW3 4203   1.290   1.626   1.945 -1.1488  1.5700 -0.7639
    1SOL    MW4 4204   1.353   1.678   1.976 -0.3616  0.1597  0.0724
    1SOL     OW 4205   1.355   1.944   1.849  0.2333 -0.1652 -0.4616
    1SOL    HW2 4206   1.362   1.861   1.895  1.8846  0.1897 -0.0708
    1SOL    HW3 4207   1.286   1.991   1.896  1.9664  0.2316  1.7442
    1SOL    MW4 4208   1.346   1.940   1.861  0.6797 -0.0660 -0.1190
    1SOL     OW 4209   1.563   2.070   1.998  0.2011 -0.0026 -0.2530
    1SOL    HW2 4210   1.566   2.160   1.965  1.1563  0.1839  0.3180
    1SOL    HW3 4211   1.485   2.032   1.959 -0.0006  0.9682 -0.7920
    1SOL    MW4 4212   1.553   2.077   1.989  0.3006  0.1500 -0.2489
    1SOL     OW 4213   1.575   2.306   1.867 -0.6751  0.4803 -0.1665
    1SOL    HW2 4214   1.654   2.360   1.878  1.1830 -2.5688  2.4568
    1SOL    HW3 4215   1.570   2.289   1.773  1.2180  1.5202 -0.4834
    1SOL    MW4 4216   1.585   2.311   1.856 -0.1801  0.2151  0.1378
    1SOL     OW 4217   1.370   2.471   1.951  0.1897 -0.3206  0.0535
    1SOL    HW2 4218   1.384   2.563   1.931  0.5054 -0.4013 -0.0949
    1SOL    HW3 4219   1.446   2.426   1.915 -0.5031 -0.7707 -0.8581
    1SOL    MW4 4220   1.382   2.477   1.944  0.1400 -0.3905 -0.0864
    1SOL     OW 4221   1.389   2.746   1.891  0.0153 -0.0878  0.0434
    1SOL    HW2 4222   1.312   2.792   1.926  0.1833 -1.0392  1.6764
    1SOL    HW3 4223   1.373   2.743   1.796 -1.8889 -0.1312  0.3413
    1SOL    MW4 4224   1.376   2.752   1.883 -0.2136 -0.2189  0.2983
    1SOL     OW 4225   1.604   2.853   1.996 -0.1613  0.2629 -0.2482
    1SOL    HW2 4226   1.672   2.810   1.944 -0.6348  0.2456 -0.8555
    1SOL    HW3 4227   1.521   2.822   1.959 -0.5027  1.0197 -0.1306
    1SOL    MW4 4228   1.602   2.844   1.984 -0.2689  0.3605 -0.3129
    1SOL     OW 4229   1.544   3.134   1.946 -0.3023  0.1695  0.0088
    1SOL    HW2 4230   1.564   3.045   1.977 -1.0370 -0.0409 -0.1020
    1SOL    HW3 4231   1.518   3.122   1.855 -1.3455  0.3753  0.2769
    1SOL    MW4 4232   1.543   3.121   1.938 -0.5368  0.1686  0.0296
    1SOL     OW 4233   1.287   3.252   2.014 -0.2535  0.2870 -0.4468
    1SOL    HW2 4234   1.373   3.221   1.986 -0.3044 -0.5381  0.3035
    1SOL    HW3 4235   1.225   3.193   1.972 -0.4311  0.4927 -0.4779
    1SOL    MW4 4236   1.290   3.240   2.005 -0.2836  0.2053 -0.3521
    1SOL     OW 4237   1.336   3.482   1.880 -0.1422 -0.4477 -0.3551
    1SOL    HW2 4238   1.323   3.398   1.924  0.8142  0.1212  1.0299
    1SOL    HW3 4239   1.260   3.534   1.906 -0.6382 -0.8083 -1.0617
    1SOL    MW4 4240   1.324   3.477   1.889 -0.0815 -0.4201 -0.2655
    1SOL     OW 4241   1.555   3.601   2.003  0.1326  0.2367 -0.1487
    1SOL    HW2 4242   1.539   3.592   2.097 -1.0811 -1.0472 -0.4608
    1SOL    HW3 4243   1.476   3.565   1.962  1.1813 -0.3514 -1.6759
    1SOL    MW4 4244   1.542   3.595   2.010  0.1109 -0.0103 -0.3912
    1SOL     OW 4245   1.576   3.863   1.934 -0.1048 -0.1368 -0.0001
    1SOL    HW2 4246   1.664   3.883   1.967 -0.8712 -1.1504  2.7617
    1SOL    HW3 4247   1.569   3.768   1.943 -1.3238 -0.1145 -0.6851
    1SOL    MW4 4248   1.587   3.853   1.939 -0.3667 -0.2675  0.2739
    1SOL     OW 4249   1.353   4.030   1.985  0.4130  0.2209 -0.1041
    1SOL    HW2 4250   1.416   3.958   1.973 -0.8722 -1.0395  0.5029
    1SOL    HW3 4251   1.271   3.995   1.950 -0.1591  1.5173 -0.0755
    1SOL    MW4 4252   1.351   4.016   1.979  0.1678  0.2255 -0.0204
    1SOL     OW 4253   1.327   4.286   1.873 -0.6091 -0.0901  0.0311
    1SOL    HW2 4254   1.349   4.201   1.912  1.1333  0.7340  0.8939
    1SOL    HW3 4255   1.348   4.277   1.781 -2.0317 -1.1310 -0.2087
    1SOL    MW4 4256   1.333   4.273   1.866 -0.5671 -0.1187  0.1132
    1SOL     OW 4257   1.581   4.386   1.955  0.8293 -0.2063  0.2383
    1SOL    HW2 4258   1.576   4.373   2.049  0.1424 -0.7782  0.1274
    1SOL    HW3 4259   1.497   4.355   1.922  0.8903  0.4096 -0.5133
    1SOL    MW4 4260   1.569   4.381   1.963  0.7466 -0.2003  0.1245
    1SOL     OW 4261   1.992   4.638   1.872 -0.3392  0.2470 -0.1279
    1SOL    HW2 4262   2.077   4.675   1.898 -0.0421  0.6178 -1.5884
    1SOL    HW3 4263   1.999   4.545   1.891  0.5421  0.2157 -0.5922
    1SOL    MW4 4264   2.004   4.631   1.878 -0.1836  0.2923 -0.3817
    1SOL     OW 4265   1.763   0.095   1.972  0.1808 -0.2714 -0.3801
    1SOL    HW2 4266   1.756   0.081   2.066  0.2532  0.9083 -0.1892
    1SOL    HW3 4267   1.849   0.061   1.948  0.1576 -0.5764 -0.0253
    1SOL    MW4 4268   1.773   0.088   1.981  0.1873 -0.1560 -0.3082
    1SOL     OW 4269   1.775   0.358   1.897 -0.0129  0.2555 -0.2583
    1SOL    HW2 4270   1.777   0.271   1.939 -0.4557  1.1309  1.6253
    1SOL    HW3 4271   1.787   0.339   1.804  0.1797 -1.8151  0.1443
    1SOL    MW4 4272   1.777   0.344   1.891 -0.0458  0.0978  0.0433
    1SOL     OW 4273   1.993   0.472   1.993  0.7828 -0.2124 -0.2732
    1SOL    HW2 4274   1.985   0.564   1.970 -0.5643 -0.0795  0.6306
    1SOL    HW3 4275   1.915   0.431   1.955  0.4632 -0.6389  0.8020
    1SOL    MW4 4276   1.981   0.479   1.985  0.5630 -0.2511 -0.0119
    1SOL     OW 4277   2.001   0.752   1.911 -0.3126  0.1736  0.1791
    1SOL    HW2 4278   2.081   0.805   1.914  0.6092 -1.1905  0.2012
    1SOL    HW3 4279   1.970   0.761   1.821  1.5244 -1.6559 -0.6796
    1SOL    MW4 4280   2.008   0.760   1.900  0.0513 -0.2477  0.0688
    1SOL     OW 4281   1.786   0.880   2.025  0.1967 -0.4207 -0.2041
    1SOL    HW2 4282   1.783   0.973   2.003 -0.6335 -0.0315  1.4772
    1SOL    HW3 4283   1.871   0.850   1.993 -0.5467  0.3202 -3.0414
    1SOL    MW4 4284   1.797   0.888   2.018 -0.0108 -0.2715 -0.3567
    1SOL     OW 4285   1.790   1.144   1.942  0.6165 -0.3227  0.3202
    1SOL    HW2 4286   1.724   1.210   1.961 -0.7307 -1.4951 -0.2423
    1SOL    HW3 4287   1.804   1.150   1.847  0.4418 -0.8909  0.2565
    1SOL    MW4 4288   1.783   1.154   1.932  0.4158 -0.5523  0.2375
    1SOL     OW 4289   2.023   1.328   2.005 -0.2938 -0.2165  0.0757
    1SOL    HW2 4290   2.096   1.270   1.985  0.4598  0.4250  0.9496
    1SOL    HW3 4291   1.945   1.274   1.991  0.4217 -1.7982  1.9528
    1SOL    MW4 4292   2.022   1.314   2.001 -0.1001 -0.3406  0.4387
    1SOL     OW 4293   2.022   1.578   1.879  0.2274 -0.6702  0.0315
    1SOL    HW2 4294   2.021   1.494   1.925  0.9691 -1.2313 -0.9706
    1SOL    HW3 4295   2.030   1.555   1.786  1.3599  0.5341 -0.1816
    1SOL    MW4 4296   2.023   1.564   1.873  0.4747 -0.5852 -0.1289
    1SOL     OW 4297   1.787   1.704   1.949  0.3906 -0.1661  0.0927
    1SOL    HW2 4298   1.812   1.793   1.924  0.8994 -0.1427  0.6903
    1SOL    HW3 4299   1.855   1.648   1.911  0.1773 -0.2856 -0.1155
    1SOL    MW4 4300   1.799   1.709   1.941  0.4295 -0.1789  0.1440
    1SOL     OW 4301   1.797   1.973   1.870  0.3004  0.0451  0.0243
    1SOL    HW2 4302   1.715   2.007   1.906  0.7561  0.3969  0.7438
    1SOL    HW3 4303   1.783   1.973   1.776 -0.3436  0.5881  0.1094
    1SOL    MW4 4304   1.784   1.978   1.863  0.2756  0.1631  0.1304
    1SOL     OW 4305   2.035   2.029   1.985 -0.3968  0.1955  0.3011
    1SOL    HW2 4306   2.103   1.989   1.931  0.3716 -0.5443  1.8083
    1SOL    HW3 4307   1.953   2.006   1.941  0.1951 -0.7208 -0.3387
    1SOL    MW4 4308   2.033   2.021   1.972 -0.2170 -0.0234  0.4154
    1SOL     OW 4309   2.036   2.305   1.918  0.1683 -0.6129 -0.1726
    1SOL    HW2 4310   2.120   2.342   1.945 -0.1753 -0.3568  0.5610
    1SOL    HW3 4311   2.035   2.218   1.957 -0.5011 -0.0920  0.9814
    1SOL    MW4 4312   2.047   2.298   1.927  0.0346 -0.5105  0.0764
    1SOL     OW 4313   1.792   2.467   1.959 -0.4413 -0.0422 -0.3673
    1SOL    HW2 4314   1.783   2.467   2.054  0.6785  1.0649 -0.2430
    1SOL    HW3 4315   1.867   2.410   1.942  0.5363  1.2298 -0.4343
    1SOL    MW4 4316   1.801   2.460   1.969 -0.1646  0.2718 -0.3597
    1SOL     OW 4317   1.795   2.711   1.859  0.6048 -0.4018 -0.3299
    1SOL    HW2 4318   1.801   2.624   1.898 -1.2099 -0.6478 -0.5734
    1SOL    HW3 4319   1.790   2.695   1.765  0.4260 -0.0238 -0.3837
    1SOL    MW4 4320   1.795   2.697   1.852  0.3417 -0.3843 -0.3691
    1SOL     OW 4321   2.040   2.809   1.974  0.0018 -0.0636 -0.2560
    1SOL    HW2 4322   2.018   2.819   2.066 -0.4774  1.6475 -0.5467
    1SOL    HW3 4323   1.965   2.762   1.936 -0.7393  1.0627 -0.1877
    1SOL    MW4 4324   2.027   2.804   1.981 -0.1593  0.3104 -0.2855
    1SOL     OW 4325   1.997   3.071   1.857  0.3404  0.0430 -0.0400
    1SOL    HW2 4326   1.929   3.122   1.901  0.8901  0.9963 -0.2750
    1SOL    HW3 4327   1.993   2.985   1.899 -0.7720  0.1968  0.1851
    1SOL    MW4 4328   1.988   3.066   1.868  0.2662  0.1891 -0.0414
    1SOL     OW 4329   1.791   3.239   1.986  0.9869 -0.6845 -0.0074
    1SOL    HW2 4330   1.804   3.232   2.081  2.1333 -1.0755 -0.1765
    1SOL    HW3 4331   1.700   3.215   1.972  0.3560  0.9845  1.1645
    1SOL    MW4 4332   1.781   3.235   1.997  1.0549 -0.5159  0.1248
    1SOL     OW 4333   1.814   3.521   1.902  0.2933  0.0089 -0.2173
    1SOL    HW2 4334   1.806   3.438   1.950  0.7065  1.5285  2.5456
    1SOL    HW3 4335   1.747   3.577   1.939  1.7355  1.7789 -0.2375
    1SOL    MW4 4336   1.804   3.517   1.913  0.5382  0.4427  0.1445
    1SOL     OW 4337   2.059   3.613   2.018  0.6592 -0.3367  0.0928
    1SOL    HW2 4338   2.071   3.701   1.980 -0.7325  0.0452  0.5191
    1SOL    HW3 4339   1.983   3.578   1.973 -0.2588 -0.3694  1.6520
    1SOL    MW4 4340   2.051   3.620   2.007  0.3545 -0.2904  0.3548
    1SOL     OW 4341   2.069   3.850   1.850  0.6395  0.0871  0.0301
    1SOL    HW2 4342   2.137   3.915   1.868 -0.0775  0.9525 -0.3974
    1SOL    HW3 4343   2.066   3.843   1.755 -1.1747  1.4448 -0.0280
    1SOL    MW4 4344   2.078   3.858   1.840  0.3057  0.3805 -0.0340
    1SOL     OW 4345   1.836   3.931   1.978 -0.1167  0.0989 -0.4681
    1SOL    HW2 4346   1.835   4.022   1.949  1.3707  0.3424  0.2011
    1SOL    HW3 4347   1.910   3.892   1.932  1.4352  0.1387  1.9121
    1SOL    MW4 4348   1.845   3.938   1.968  0.2842  0.1361 -0.0657
    1SOL     OW 4349   1.807   4.188   1.885  0.2027 -0.0196 -0.4606
    1SOL    HW2 4350   1.734   4.240   1.918 -1.3690 -2.3398 -0.2104
    1SOL    HW3 4351   1.802   4.197   1.790 -0.0480  0.3062 -0.4170
    1SOL    MW4 4352   1.797   4.196   1.877 -0.0379 -0.2828 -0.4218
    1SOL     OW 4353   1.998   4.367   1.990  0.1942 -0.0536 -0.1147
    1SOL    HW2 4354   2.083   4.351   1.949  0.8504 -1.5171  1.7536
    1SOL    HW3 4355   1.938   4.306   1.946  0.8018 -1.3048  0.7831
    1SOL    MW4 4356   2.001   4.357   1.979  0.3610 -0.4115  0.2502
    1SOL     OW 4357   2.464   0.006   1.867  0.1592 -0.4685  0.0762
    1SOL    HW2 4358   2.531   0.069   1.894  0.9768 -0.3805 -2.0252
    1SOL    HW3 4359   2.495  -0.078   1.899  0.6513 -0.2516  0.1775
    1SOL    MW4 4360   2.477   0.003   1.875  0.3321 -0.4283 -0.1878
    1SOL     OW 4361   2.219   0.097   1.944  0.5646  0.0971 -0.4968
    1SOL    HW2 4362   2.215   0.100   2.039 -0.1499 -1.8201 -0.4428
    1SOL    HW3 4363   2.303   0.055   1.924  0.5342  0.1283 -0.7018
    1SOL    MW4 4364   2.229   0.092   1.954  0.4666 -0.1517 -0.5165
    1SOL     OW 4365   2.234   0.372   1.893  0.0711  0.3379  0.2252
    1SOL    HW2 4366   2.236   0.279   1.915 -0.4124  0.4161  0.6067
    1SOL    HW3 4367   2.149   0.403   1.924 -0.2042  0.6823 -0.8327
    1SOL    MW4 4368   2.223   0.364   1.900 -0.0291  0.3936  0.1359
    1SOL     OW 4369   2.420   0.547   1.998  0.3567 -0.2440  0.2121
    1SOL    HW2 4370   2.507   0.532   1.960  0.0839 -0.7520 -0.2167
    1SOL    HW3 4371   2.362   0.489   1.949 -0.3629  0.6961 -0.0771
    1SOL    MW4 4372   2.424   0.538   1.986  0.2255 -0.1869  0.1173
    1SOL     OW 4373   2.435   0.799   1.890  0.6396 -0.1568  0.1483
    1SOL    HW2 4374   2.442   0.707   1.913 -0.2954 -0.5119 -0.9441
    1SOL    HW3 4375   2.465   0.804   1.799  2.7359  0.9619  0.8683
    1SOL    MW4 4376   2.440   0.788   1.881  0.7927 -0.0561  0.0992
    1SOL     OW 4377   2.207   0.919   1.982 -0.5329  0.0082 -0.2097
    1SOL    HW2 4378   2.214   0.932   2.076 -1.1990  0.5100 -0.2227
    1SOL    HW3 4379   2.292   0.884   1.955  0.1891  1.3454  0.3291
    1SOL    MW4 4380   2.219   0.916   1.991 -0.5255  0.2508 -0.1401
    1SOL     OW 4381   2.228   1.182   1.907 -0.2298  0.2884  0.0514
    1SOL    HW2 4382   2.316   1.212   1.927 -0.0074  0.3491 -0.9860
    1SOL    HW3 4383   2.226   1.091   1.936  0.3004  0.1696 -0.2756
    1SOL    MW4 4384   2.239   1.174   1.913 -0.1307  0.2809 -0.1285
    1SOL     OW 4385   2.478   1.278   1.958  0.3456 -0.4243  0.2586
    1SOL    HW2 4386   2.481   1.289   2.053  0.3580  1.2866  0.0681
    1SOL    HW3 4387   2.468   1.366   1.923 -0.7201 -1.1222 -1.2978
    1SOL    MW4 4388   2.477   1.291   1.966  0.2067 -0.2906  0.0281
    1SOL     OW 4389   2.456   1.549   1.885  0.2856  0.0909 -0.2621
    1SOL    HW2 4390   2.388   1.596   1.933 -0.6284 -1.4450 -0.0346
    1SOL    HW3 4391   2.436   1.566   1.793 -0.0495  0.1324 -0.1823
    1SOL    MW4 4392   2.445   1.558   1.879  0.1209 -0.1063 -0.2214
    1SOL     OW 4393   2.265   1.695   1.993  0.1654 -0.6318  0.0888
    1SOL    HW2 4394   2.258   1.690   2.089  0.8353 -0.8192  0.1316
    1SOL    HW3 4395   2.181   1.660   1.961  0.2548 -1.3237  0.5964
    1SOL    MW4 4396   2.253   1.690   2.002  0.2658 -0.7479  0.1614
    1SOL     OW 4397   2.269   1.922   1.865 -0.3649 -0.8309 -0.1337
    1SOL    HW2 4398   2.325   1.975   1.922 -0.2914  0.2009 -1.1273
    1SOL    HW3 4399   2.270   1.835   1.904  2.4694 -1.0086 -0.4494
    1SOL    MW4 4400   2.277   1.918   1.877  0.0191 -0.7182 -0.3064
    1SOL     OW 4401   2.459   2.043   1.996  0.4092  0.7286 -1.0186
    1SOL    HW2 4402   2.533   1.990   1.969  0.5813  1.2450 -1.5793
    1SOL    HW3 4403   2.462   2.120   1.939 -0.7703  0.5801 -1.3076
    1SOL    MW4 4404   2.469   2.046   1.985  0.2763  0.7772 -1.1307
    1SOL     OW 4405   2.496   2.290   1.861 -0.0722 -0.6896  0.1955
    1SOL    HW2 4406   2.576   2.337   1.885 -0.3885  0.2415 -0.5520
    1SOL    HW3 4407   2.425   2.340   1.902 -0.3178 -1.2431  0.4625
    1SOL    MW4 4408   2.497   2.302   1.870 -0.1464 -0.6399  0.1322
    1SOL     OW 4409   2.276   2.423   1.960  0.6053  0.1252 -0.5245
    1SOL    HW2 4410   2.261   2.426   2.054  1.0177  0.2864 -0.4624
    1SOL    HW3 4411   2.283   2.514   1.933 -0.2709  0.0976 -0.8358
    1SOL    MW4 4412   2.275   2.435   1.969  0.5443  0.1428 -0.5573
    1SOL     OW 4413   2.285   2.687   1.900 -0.0608  0.3385  0.1254
    1SOL    HW2 4414   2.212   2.737   1.936  0.1398  0.7422 -0.0241
    1SOL    HW3 4415   2.260   2.670   1.809 -0.1005  0.2184  0.1583
    1SOL    MW4 4416   2.272   2.691   1.893 -0.0398  0.3762  0.1100
    1SOL     OW 4417   2.523   2.847   1.971 -0.3616 -0.3917  0.8405
    1SOL    HW2 4418   2.501   2.933   1.936  0.9526  0.1199  1.2866
    1SOL    HW3 4419   2.463   2.787   1.925 -0.8177  0.6634  0.0498
    1SOL    MW4 4420   2.512   2.850   1.960 -0.2482 -0.1850  0.7950
    1SOL     OW 4421   2.486   3.113   1.872  0.0208  0.0633  0.3783
    1SOL    HW2 4422   2.401   3.134   1.912  0.0455  0.5656  0.1754
    1SOL    HW3 4423   2.474   3.130   1.779  0.6800  1.2570  0.4996
    1SOL    MW4 4424   2.473   3.118   1.865  0.1113  0.2871  0.3674
    1SOL     OW 4425   2.232   3.196   1.941 -0.2157  0.2079  0.3879
    1SOL    HW2 4426   2.218   3.204   2.035  0.7636  0.6520  0.5040
    1SOL    HW3 4427   2.155   3.149   1.909  0.0900 -1.1475  1.5935
    1SOL    MW4 4428   2.220   3.191   1.949 -0.0460  0.0875  0.5622
    1SOL     OW 4429   2.265   3.476   1.862  0.1883 -0.1524  0.5180
    1SOL    HW2 4430   2.267   3.382   1.880 -0.8709 -0.5292 -1.1541
    1SOL    HW3 4431   2.190   3.509   1.912 -0.0068 -0.3874  0.3841
    1SOL    MW4 4432   2.255   3.468   1.871  0.0229 -0.2332  0.2798
    1SOL     OW 4433   2.478   3.617   1.998  0.1053 -0.1170 -0.1789
    1SOL    HW2 4434   2.467   3.601   2.092  0.3626 -1.2684 -0.3384
    1SOL    HW3 4435   2.398   3.584   1.959  0.5864 -0.9057 -0.5027
    1SOL    MW4 4436   2.466   3.611   2.006  0.2029 -0.3729 -0.2427
    1SOL     OW 4437   2.480   3.879   1.891  0.3117  0.1072 -0.0823
    1SOL    HW2 4438   2.397   3.923   1.908 -0.3756 -0.7855 -1.0211
    1SOL    HW3 4439   2.465   3.789   1.920  1.2941  0.1863  0.6809
    1SOL    MW4 4440   2.467   3.873   1.897  0.3505 -0.0002 -0.1054
    1SOL     OW 4441   2.246   4.041   1.959 -0.0772 -0.2958  0.2657
    1SOL    HW2 4442   2.243   4.032   2.054  1.3456 -0.7739  0.2796
    1SOL    HW3 4443   2.246   4.135   1.943  2.9589 -0.1539  0.8888
    1SOL    MW4 4444   2.245   4.052   1.969  0.5114 -0.3405  0.3496
    1SOL     OW 4445   2.253   4.318   1.877 -0.0196 -0.1604 -0.3015
    1SOL    HW2 4446   2.338   4.336   1.918 -0.6740  1.4168  0.3998
    1SOL    HW3 4447   2.274   4.298   1.786  1.0103  1.6620 -0.4987
    1SOL    MW4 4448   2.267   4.318   1.870  0.0300  0.2875 -0.2350
    1SOL     OW 4449   2.497   4.416   1.978 -0.2522 -0.4629  0.5564
    1SOL    HW2 4450   2.488   4.401   2.072  1.0170  0.9000  0.9069
    1SOL    HW3 4451   2.573   4.364   1.953  1.0741  1.2938  0.8233
    1SOL    MW4 4452   2.506   4.407   1.987  0.0901 -0.0515  0.6379
    1SOL     OW 4453   2.921   0.034   1.883 -0.0130 -0.2004  0.1662
    1SOL    HW2 4454   2.979   0.079   1.944 -0.9862 -0.3514  1.2273
    1SOL    HW3 4455   2.912  -0.055   1.918  1.4891 -1.1042 -1.6384
    1SOL    MW4 4456   2.927   0.028   1.896  0.0565 -0.3396  0.0679
    1SOL     OW 4457   2.681   0.149   1.981  0.0724  0.6995  0.5751
    1SOL    HW2 4458   2.693   0.144   2.076  0.6065  1.9751  0.5784
    1SOL    HW3 4459   2.765   0.121   1.945 -0.3205 -0.3660  0.4563
    1SOL    MW4 4460   2.693   0.145   1.989  0.0913  0.7272  0.5598
    1SOL     OW 4461   2.657   0.434   1.893  0.2433  0.1398 -0.1446
    1SOL    HW2 4462   2.737   0.470   1.931  0.0222  2.4558 -1.7511
    1SOL    HW3 4463   2.661   0.340   1.911  2.8573  0.3786  0.6153
    1SOL    MW4 4464   2.668   0.426   1.900  0.5593  0.4769 -0.2564
    1SOL     OW 4465   2.892   0.549   1.989 -0.0164  0.3467  0.2344
    1SOL    HW2 4466   2.967   0.501   1.955  0.3150  0.3182  0.9878
    1SOL    HW3 4467   2.909   0.640   1.965  0.0847  0.2900  0.0897
    1SOL    MW4 4468   2.904   0.555   1.982  0.0408  0.3353  0.3148
    1SOL     OW 4469   2.889   0.802   1.872 -0.0094  0.3212 -0.7045
    1SOL    HW2 4470   2.941   0.861   1.927  0.2063 -0.8171  0.3165
    1SOL    HW3 4471   2.799   0.811   1.904  0.4326 -1.9339  1.2826
    1SOL    MW4 4472   2.884   0.811   1.883  0.0772 -0.1265 -0.3076
    1SOL     OW 4473   2.662   0.894   1.994 -0.7063  0.0667 -0.0471
    1SOL    HW2 4474   2.676   0.978   1.951  0.6723  0.0201  0.2875
    1SOL    HW3 4475   2.576   0.866   1.964 -1.4711  1.9141  0.3812
    1SOL    MW4 4476   2.653   0.901   1.984 -0.6251  0.3043  0.0535
    1SOL     OW 4477   2.711   1.147   1.872  0.3513 -0.0588  0.0688
    1SOL    HW2 4478   2.638   1.196   1.910  0.5120  0.4677 -0.2993
    1SOL    HW3 4479   2.706   1.166   1.778 -0.8473 -2.3969 -0.3620
    1SOL    MW4 4480   2.701   1.156   1.865  0.2143 -0.2978 -0.0367
    1SOL     OW 4481   2.917   1.288   2.014  0.2619 -0.0931  0.9352
    1SOL    HW2 4482   2.920   1.378   1.980  0.5572 -0.1656  0.7684
    1SOL    HW3 4483   2.845   1.247   1.966  0.2384  0.0021  0.8887
    1SOL    MW4 4484   2.908   1.295   2.003  0.2978 -0.0902  0.9072
    1SOL     OW 4485   2.903   1.545   1.915  0.0967 -0.1841  0.4319
    1SOL    HW2 4486   2.983   1.591   1.940 -0.2992  0.2122  0.9935
    1SOL    HW3 4487   2.900   1.551   1.820  0.0691  0.9232  0.5013
    1SOL    MW4 4488   2.913   1.552   1.906  0.0410  0.0143  0.5150
    1SOL     OW 4489   2.672   1.659   2.018 -0.4563  0.2649 -0.2725
    1SOL    HW2 4490   2.751   1.620   1.979 -0.4228  0.2942 -0.2323
    1SOL    HW3 4491   2.600   1.620   1.968 -0.3823  0.8183 -0.8168
    1SOL    MW4 4492   2.673   1.648   2.006 -0.4420  0.3418 -0.3390
    1SOL     OW 4493   2.690   1.907   1.899 -0.6804  0.1147 -0.3397
    1SOL    HW2 4494   2.776   1.946   1.910 -0.2382 -0.6959 -0.9050
    1SOL    HW3 4495   2.694   1.825   1.947 -1.1728  0.1210 -0.2825
    1SOL    MW4 4496   2.702   1.902   1.907 -0.6869  0.0085 -0.4067
    1SOL     OW 4497   2.922   2.029   1.945  0.1140  0.3908  0.2288
    1SOL    HW2 4498   2.917   2.031   2.041 -0.6082 -0.3906  0.2181
    1SOL    HW3 4499   3.010   1.996   1.926  0.4283  1.0110  0.6206
    1SOL    MW4 4500   2.933   2.025   1.955  0.0601  0.3695  0.2792
    1SOL     OW 4501   2.976   2.325   1.901 -0.3422 -0.0746 -0.1769
    1SOL    HW2 4502   3.045   2.364   1.954  0.3908 -0.8574 -0.5430
    1SOL    HW3 4503   2.985   2.230   1.916 -0.5637 -0.2577 -1.1736
    1SOL    MW4 4504   2.986   2.317   1.910 -0.2747 -0.2022 -0.3568
    1SOL     OW 4505   2.718   2.423   1.933 -0.5377 -0.1667 -0.3984
    1SOL    HW2 4506   2.725   2.514   1.904 -0.8139 -0.1719 -0.4845
    1SOL    HW3 4507   2.803   2.385   1.913  0.3784  0.7000  1.8146
    1SOL    MW4 4508   2.730   2.430   1.926 -0.4532 -0.0529 -0.1178
    1SOL     OW 4509   2.758   2.682   1.871 -0.2129  0.4518 -0.0900
    1SOL    HW2 4510   2.700   2.746   1.911  0.0893  0.5945  0.1184
    1SOL    HW3 4511   2.725   2.672   1.782 -1.3090 -0.3777  0.3987
    1SOL    MW4 4512   2.746   2.689   1.865 -0.3176  0.3612  0.0020
    1SOL     OW 4513   2.910   2.859   2.004  0.1313  0.2017 -0.2478
    1SOL    HW2 4514   2.914   2.943   1.959 -0.4489 -0.9251 -2.4877
    1SOL    HW3 4515   2.864   2.802   1.943  1.0622 -1.9140  0.9813
    1SOL    MW4 4516   2.904   2.863   1.990  0.1776 -0.2263 -0.3814
    1SOL     OW 4517   2.900   3.093   1.834 -0.0633  0.1191 -0.1776
    1SOL    HW2 4518   2.977   3.141   1.865  0.3722 -0.0475 -0.9958
    1SOL    HW3 4519   2.826   3.135   1.879  0.5797 -0.3117  1.3050
    1SOL    MW4 4520   2.900   3.105   1.844  0.0789  0.0401 -0.0898
    1SOL     OW 4521   2.706   3.235   1.976 -0.4772 -0.2990 -0.0697
    1SOL    HW2 4522   2.704   3.324   1.939  1.7516 -0.9506 -1.9232
    1SOL    HW3 4523   2.625   3.195   1.946 -1.4595  1.0467  0.6920
    1SOL    MW4 4524   2.695   3.242   1.967 -0.3130 -0.2079 -0.2137
    1SOL     OW 4525   2.698   3.490   1.877  0.1478 -0.2064  0.2110
    1SOL    HW2 4526   2.777   3.531   1.912  0.4103 -0.6521  0.1455
    1SOL    HW3 4527   2.625   3.537   1.918  0.4479 -0.4181  0.9922
    1SOL    MW4 4528   2.699   3.501   1.887  0.2220 -0.2930  0.3055
    1SOL     OW 4529   2.943   3.625   1.959 -0.5325 -0.1192 -0.1764
    1SOL    HW2 4530   2.935   3.636   2.053 -0.1640 -0.8823 -0.0518
    1SOL    HW3 4531   3.003   3.551   1.948 -0.6879 -0.1302 -1.0036
    1SOL    MW4 4532   2.950   3.617   1.970 -0.5045 -0.2215 -0.2691
    1SOL     OW 4533   2.869   3.879   1.852 -0.2567 -0.0833 -0.0124
    1SOL    HW2 4534   2.894   3.788   1.865 -2.1138 -0.6105 -0.0668
    1SOL    HW3 4535   2.885   3.896   1.759  0.2714 -0.2762  0.0395
    1SOL    MW4 4536   2.875   3.869   1.841 -0.4320 -0.1781 -0.0129
    1SOL     OW 4537   2.700   3.980   2.036  0.3595  0.0422  0.4607
    1SOL    HW2 4538   2.766   3.942   1.979  0.2841 -1.2315  1.2047
    1SOL    HW3 4539   2.618   3.939   2.009  0.2045  0.0288  0.9460
    1SOL    MW4 4540   2.698   3.970   2.025  0.3290 -0.1276  0.6227
    1SOL     OW 4541   2.709   4.241   1.908  0.0447 -0.2573 -0.6094
    1SOL    HW2 4542   2.715   4.154   1.948 -0.7627 -0.1487 -0.2449
    1SOL    HW3 4543   2.707   4.224   1.814 -1.9338 -0.7583 -0.5066
    1SOL    MW4 4544   2.710   4.227   1.901 -0.3231 -0.3090 -0.5476
    1SOL     OW 4545   2.919   4.435   1.994 -0.2911  0.0684 -0.0454
    1SOL    HW2 4546   2.918   4.433   2.090 -1.4672 -0.0894 -0.0634
    1SOL    HW3 4547   2.848   4.378   1.967 -0.4895  0.7504 -1.0069
    1SOL    MW4 4548   2.910   4.427   2.003 -0.4723  0.1378 -0.1745
    1SOL     OW 4549   3.351   0.013   1.891  0.7236  0.2989  0.3030
    1SOL    HW2 4550   3.366  -0.075   1.925  0.4306  0.5304  1.0283
    1SOL    HW3 4551   3.339   0.001   1.797  0.3927 -0.4660  0.4462
    1SOL    MW4 4552   3.351   0.000   1.883  0.6413  0.2284  0.4176
    1SOL     OW 4553   3.136   0.181   2.000  0.1032  0.3360 -0.3617
    1SOL    HW2 4554   3.125   0.184   2.095  0.3968  0.6679 -0.3397
    1SOL    HW3 4555   3.197   0.109   1.985 -0.0541  0.1911 -0.3098
    1SOL    MW4 4556   3.143   0.172   2.010  0.1214  0.3607 -0.3519
    1SOL     OW 4557   3.153   0.440   1.925 -0.1280  0.0545  0.1574
    1SOL    HW2 4558   3.167   0.347   1.943 -0.5004 -0.2057 -0.8416
    1SOL    HW3 4559   3.160   0.447   1.830 -0.7919  0.9285  0.1641
    1SOL    MW4 4560   3.155   0.429   1.915 -0.2646  0.1355  0.0266
    1SOL     OW 4561   3.368   0.548   2.031 -0.1406  0.2468  0.3204
    1SOL    HW2 4562   3.441   0.505   1.987 -0.1548  0.3590  0.1861
    1SOL    HW3 4563   3.290   0.502   1.999 -0.2562  1.2004 -0.8093
    1SOL    MW4 4564   3.367   0.536   2.021 -0.1578  0.3874  0.1535
    1SOL     OW 4565   3.358   0.809   1.948 -0.0616 -0.3761 -0.0935
    1SOL    HW2 4566   3.275   0.833   1.991  1.1303 -0.2493  2.2573
    1SOL    HW3 4567   3.376   0.720   1.980  2.2632  0.7701  2.0278
    1SOL    MW4 4568   3.349   0.800   1.958  0.4020 -0.2081  0.4966
    1SOL     OW 4569   3.107   0.936   2.034 -0.2201 -0.0103 -0.5392
    1SOL    HW2 4570   3.115   0.951   2.128 -0.4580  1.0695 -0.6852
    1SOL    HW3 4571   3.122   1.022   1.994 -1.7134 -0.1181 -1.3974
    1SOL    MW4 4572   3.110   0.950   2.041 -0.4482  0.1179 -0.6716
    1SOL     OW 4573   3.121   1.165   1.873  0.0702 -0.3069  0.4596
    1SOL    HW2 4574   3.201   1.203   1.910  0.5915 -1.4675  0.5604
    1SOL    HW3 4575   3.050   1.212   1.916  0.6978  1.4972 -0.4250
    1SOL    MW4 4576   3.122   1.177   1.884  0.2220 -0.2221  0.3562
    1SOL     OW 4577   3.328   1.302   1.982  0.3324  0.0677  0.2366
    1SOL    HW2 4578   3.323   1.319   2.076  0.1063 -0.5054  0.3306
    1SOL    HW3 4579   3.329   1.389   1.942  3.2953  0.3865  0.9056
    1SOL    MW4 4580   3.327   1.316   1.990  0.6933  0.0342  0.3371
    1SOL     OW 4581   3.372   1.550   1.842 -0.2597  0.3160 -0.3180
    1SOL    HW2 4582   3.449   1.591   1.882  0.6203  1.1362 -2.7589
    1SOL    HW3 4583   3.297   1.592   1.885  0.6470  2.0212 -0.3585
    1SOL    MW4 4584   3.372   1.561   1.853 -0.0238  0.6493 -0.6455
    1SOL     OW 4585   3.151   1.653   2.008  0.0247 -0.6326 -0.1670
    1SOL    HW2 4586   3.139   1.669   2.102  0.8933 -1.3888  0.0806
    1SOL    HW3 4587   3.166   1.740   1.971  0.9399 -0.4558  0.5962
    1SOL    MW4 4588   3.151   1.667   2.015  0.2596 -0.7091 -0.0339
    1SOL     OW 4589   3.164   1.892   1.878 -0.2094 -0.1079  0.4174
    1SOL    HW2 4590   3.245   1.937   1.902  0.0652  0.1124 -0.8765
    1SOL    HW3 4591   3.164   1.891   1.782 -0.4349 -2.4807  0.4108
    1SOL    MW4 4592   3.175   1.898   1.868 -0.2029 -0.3918  0.2458
    1SOL     OW 4593   3.371   2.043   1.973  0.2789 -0.1949 -0.3406
    1SOL    HW2 4594   3.458   2.008   1.956  0.4838  0.3056 -0.3374
    1SOL    HW3 4595   3.377   2.135   1.948 -0.0114  0.0444  0.4408
    1SOL    MW4 4596   3.383   2.050   1.968  0.2675 -0.0970 -0.2370
    1SOL     OW 4597   3.415   2.318   1.912 -0.2532  0.6109  0.1474
    1SOL    HW2 4598   3.337   2.356   1.953 -1.2058  0.9806 -1.9363
    1SOL    HW3 4599   3.396   2.319   1.819  1.3798 -1.3245 -0.2359
    1SOL    MW4 4600   3.402   2.323   1.905 -0.1633  0.4044 -0.1781
    1SOL     OW 4601   3.212   2.461   2.005  0.2783 -0.3555  0.2997
    1SOL    HW2 4602   3.199   2.476   2.098  0.2760  0.3102  0.1973
    1SOL    HW3 4603   3.192   2.545   1.964 -0.7282 -0.9162 -0.3981
    1SOL    MW4 4604   3.207   2.474   2.012  0.1450 -0.3419  0.1941
    1SOL     OW 4605   3.141   2.720   1.913  0.1558  0.0549 -0.0479
    1SOL    HW2 4606   3.070   2.777   1.945  1.1325  0.4057  1.5430
    1SOL    HW3 4607   3.128   2.717   1.818 -1.5821  0.6690  0.1478
    1SOL    MW4 4608   3.130   2.727   1.905  0.0551  0.1822  0.1879
    1SOL     OW 4609   3.351   2.880   1.967 -0.2232 -0.1256 -0.1228
    1SOL    HW2 4610   3.371   2.886   2.060  0.8333 -1.0111 -0.2747
    1SOL    HW3 4611   3.286   2.810   1.961  1.2944 -1.5474 -0.2565
    1SOL    MW4 4612   3.345   2.871   1.979  0.1166 -0.4301 -0.1605
    1SOL     OW 4613   3.345   3.141   1.855 -0.0139  0.2406  0.3420
    1SOL    HW2 4614   3.428   3.178   1.884  1.1190 -0.6696 -1.6433
    1SOL    HW3 4615   3.349   3.049   1.882  0.6905 -0.4011 -1.8627
    1SOL    MW4 4616   3.356   3.133   1.862  0.2284  0.0358 -0.2109
    1SOL     OW 4617   3.110   3.189   1.985  0.0126 -0.2884 -0.3039
    1SOL    HW2 4618   3.102   3.280   1.957 -0.8247 -1.0302 -2.5988
    1SOL    HW3 4619   3.193   3.160   1.948  0.3419 -0.4242  0.5392
    1SOL    MW4 4620   3.120   3.197   1.977 -0.0544 -0.4044 -0.4954
    1SOL     OW 4621   3.144   3.442   1.900 -0.2187 -0.4001 -1.0216
    1SOL    HW2 4622   3.217   3.493   1.935 -1.2217  0.8392 -0.7161
    1SOL    HW3 4623   3.144   3.463   1.806 -1.1332  0.8338 -0.7644
    1SOL    MW4 4624   3.154   3.452   1.892 -0.4716 -0.0739 -0.9474
    1SOL     OW 4625   3.320   3.637   1.985  0.0520  0.0846 -0.0212
    1SOL    HW2 4626   3.407   3.606   1.961  0.7271  0.2331  2.1597
    1SOL    HW3 4627   3.311   3.721   1.940  0.3216 -0.7324 -1.6442
    1SOL    MW4 4628   3.330   3.644   1.976  0.1764 -0.0036  0.0525
    1SOL     OW 4629   3.330   3.883   1.870  0.3562 -0.3717  0.1764
    1SOL    HW2 4630   3.256   3.933   1.905 -0.1219 -1.2451  0.4072
    1SOL    HW3 4631   3.323   3.894   1.775  1.5021  1.7791  0.3074
    1SOL    MW4 4632   3.320   3.891   1.862  0.4442 -0.2029  0.2241
    1SOL     OW 4633   3.088   3.983   1.995 -0.1313  0.0521 -0.3055
    1SOL    HW2 4634   3.095   3.985   2.091  0.7073 -0.3769 -0.3482
    1SOL    HW3 4635   3.005   3.939   1.978  0.7727 -1.9720  0.2365
    1SOL    MW4 4636   3.078   3.977   2.006  0.0987 -0.2713 -0.2396
    1SOL     OW 4637   3.126   4.269   1.921 -0.2543 -0.3279 -0.4519
    1SOL    HW2 4638   3.104   4.180   1.950  0.9917 -0.2838  0.6534
    1SOL    HW3 4639   3.050   4.322   1.948 -0.4083 -0.8181  0.0910
    1SOL    MW4 4640   3.113   4.264   1.929 -0.1099 -0.3862 -0.2344
    1SOL     OW 4641   3.357   4.424   1.996  0.5477 -0.1289 -0.2209
    1SOL    HW2 4642   3.432   4.376   1.961  0.1588  0.0899 -1.3632
    1SOL    HW3 4643   3.281   4.376   1.965  0.1309  1.4901 -1.8132
    1SOL    MW4 4644   3.357   4.412   1.987  0.4416  0.1135 -0.5817
    1SOL     OW 4645   3.790   4.662   1.889 -0.2971  0.3471  0.1495
    1SOL    HW2 4646   3.791   4.570   1.917  1.4097  0.2288 -0.2100
    1SOL    HW3 4647   3.721   4.702   1.941  0.6161 -0.6085  2.1762
    1SOL    MW4 4648   3.781   4.655   1.900  0.0484  0.2050  0.3695
    1SOL     OW 4649   3.585   0.150   1.993  0.4280  0.4525 -0.0374
    1SOL    HW2 4650   3.601   0.143   2.087  1.5775 -1.3171 -0.3549
    1SOL    HW3 4651   3.508   0.096   1.979 -0.4863  1.6933  0.0471
    1SOL    MW4 4652   3.577   0.142   2.004  0.4590  0.3827 -0.0682
    1SOL     OW 4653   3.595   0.427   1.920 -0.0139 -0.0172  0.6806
    1SOL    HW2 4654   3.596   0.335   1.949 -2.6316 -0.1148  0.6091
    1SOL    HW3 4655   3.603   0.422   1.825  0.8058 -0.1101  0.7499
    1SOL    MW4 4656   3.596   0.414   1.911 -0.2513 -0.0423  0.6802
    1SOL     OW 4657   3.821   0.511   2.038  0.0365  0.2117 -0.3093
    1SOL    HW2 4658   3.818   0.605   2.020  0.6719  0.2834 -0.0600
    1SOL    HW3 4659   3.737   0.477   2.008  0.4362  0.6028 -1.9181
    1SOL    MW4 4660   3.810   0.519   2.032  0.1731  0.2728 -0.4888
    1SOL     OW 4661   3.838   0.766   1.916  0.0613 -0.2926 -0.4968
    1SOL    HW2 4662   3.769   0.827   1.941  0.0843 -0.8504  0.9831
    1SOL    HW3 4663   3.832   0.759   1.821 -0.9263  0.8343 -0.5136
    1SOL    MW4 4664   3.828   0.773   1.907 -0.0658 -0.2174 -0.3037
    1SOL     OW 4665   3.617   0.926   1.972  0.2091  0.2232  0.3242
    1SOL    HW2 4666   3.611   1.021   1.961  1.5033  0.1001 -1.5120
    1SOL    HW3 4667   3.528   0.894   1.958  0.5954  0.7321 -3.5606
    1SOL    MW4 4668   3.605   0.934   1.969  0.4308  0.2741 -0.4306
    1SOL     OW 4669   3.575   1.192   1.920 -0.6227  0.1985  0.0672
    1SOL    HW2 4670   3.489   1.223   1.951 -0.4886 -0.0367  0.6802
    1SOL    HW3 4671   3.566   1.189   1.825 -1.2414  0.3402  0.1155
    1SOL    MW4 4672   3.562   1.196   1.912 -0.6866  0.1862  0.1545
    1SOL     OW 4673   3.808   1.319   1.983  0.2729  0.3510  0.0869
    1SOL    HW2 4674   3.809   1.312   2.079 -0.8672 -0.5678  0.0396
    1SOL    HW3 4675   3.722   1.285   1.958 -0.0790  2.0887 -1.1489
    1SOL    MW4 4676   3.797   1.314   1.993  0.0761  0.4590 -0.0824
    1SOL     OW 4677   3.803   1.540   1.829 -0.2384 -0.1835 -0.8511
    1SOL    HW2 4678   3.885   1.585   1.852 -0.2098  0.5104 -2.2379
    1SOL    HW3 4679   3.806   1.457   1.876  1.3307 -0.2191 -1.0023
    1SOL    MW4 4680   3.814   1.535   1.838 -0.0274 -0.0967 -1.0538
    1SOL     OW 4681   3.598   1.682   1.959  0.3071 -0.4479 -0.6838
    1SOL    HW2 4682   3.588   1.773   1.930  1.9040  0.3673  1.1255
    1SOL    HW3 4683   3.674   1.650   1.911 -0.0400 -0.7159 -1.0557
    1SOL    MW4 4684   3.607   1.690   1.949  0.4718 -0.3756 -0.4941
    1SOL     OW 4685   3.623   1.949   1.890 -0.3010 -0.2297  0.4979
    1SOL    HW2 4686   3.703   1.991   1.921 -0.4270 -0.1899  0.7737
    1SOL    HW3 4687   3.624   1.962   1.795  1.5811 -2.9946  0.1011
    1SOL    MW4 4688   3.634   1.957   1.881 -0.0694 -0.5893  0.4820
    1SOL     OW 4689   3.823   2.114   1.992  0.1372 -0.4690  0.0538
    1SOL    HW2 4690   3.891   2.067   1.944  0.8783 -0.2347  0.8463
    1SOL    HW3 4691   3.820   2.200   1.952  1.2165 -0.0523  0.8209
    1SOL    MW4 4692   3.832   2.119   1.981  0.3774 -0.3829  0.2596
    1SOL     OW 4693   3.839   2.363   1.885 -0.0526  0.0933  0.2545
    1SOL    HW2 4694   3.912   2.416   1.917  0.5386 -0.6275  0.1088
    1SOL    HW3 4695   3.761   2.404   1.923  0.4839  0.4218  1.0094
    1SOL    MW4 4696   3.838   2.376   1.894  0.0961  0.0417  0.3349
    1SOL     OW 4697   3.627   2.481   1.998 -0.3338 -0.0950 -0.3769
    1SOL    HW2 4698   3.603   2.570   1.973 -1.5367 -0.4866 -0.6812
    1SOL    HW3 4699   3.547   2.429   1.982  0.1879 -1.1280  0.2705
    1SOL    MW4 4700   3.613   2.486   1.993 -0.4237 -0.2830 -0.3316
    1SOL     OW 4701   3.575   2.728   1.897  0.0458  0.1762 -0.4016
    1SOL    HW2 4702   3.649   2.776   1.934  0.1672 -0.1442 -0.2252
    1SOL    HW3 4703   3.498   2.779   1.923  0.0621 -0.4941  1.0103
    1SOL    MW4 4704   3.575   2.741   1.905  0.0639  0.0453 -0.1922
    1SOL     OW 4705   3.793   2.860   1.998  0.1941 -0.1603 -0.0868
    1SOL    HW2 4706   3.801   2.858   2.094  2.9617  1.6180 -0.1957
    1SOL    HW3 4707   3.793   2.954   1.976 -3.2553 -0.4643 -1.6995
    1SOL    MW4 4708   3.794   2.872   2.008  0.1040  0.0343 -0.3140
    1SOL     OW 4709   3.822   3.115   1.906 -0.0376  0.2364  0.4869
    1SOL    HW2 4710   3.736   3.155   1.917 -1.0910 -1.7204 -0.4097
    1SOL    HW3 4711   3.830   3.101   1.812  1.8710  1.6559  0.4019
    1SOL    MW4 4712   3.812   3.119   1.895  0.0751  0.1652  0.3574
    1SOL     OW 4713   3.584   3.251   1.936 -0.2254 -0.0681 -0.1799
    1SOL    HW2 4714   3.601   3.252   2.030  1.0837  0.4425 -0.4199
    1SOL    HW3 4715   3.570   3.343   1.914  0.8974 -0.0335 -0.7473
    1SOL    MW4 4716   3.584   3.264   1.946  0.0954  0.0036 -0.2863
    1SOL     OW 4717   3.582   3.533   1.901  0.3149 -0.1626  0.7096
    1SOL    HW2 4718   3.666   3.573   1.922  0.6259 -0.8632  0.8171
    1SOL    HW3 4719   3.575   3.538   1.806  0.6712 -0.4856  0.6671
    1SOL    MW4 4720   3.592   3.539   1.891  0.4029 -0.2973  0.7181
    1SOL     OW 4721   3.798   3.661   2.004  0.2342 -0.5763 -0.2286
    1SOL    HW2 4722   3.877   3.608   1.990  0.3386 -0.1753 -1.2042
    1SOL    HW3 4723   3.827   3.751   1.989 -0.0222 -0.2751  1.0808
    1SOL    MW4 4724   3.812   3.666   2.000  0.2141 -0.4838 -0.1847
    1SOL     OW 4725   3.819   3.934   1.912  0.2194  0.3996 -0.2422
    1SOL    HW2 4726   3.735   3.974   1.935 -0.5140 -1.2303 -0.0368
    1SOL    HW3 4727   3.821   3.936   1.816  0.1886  0.9145 -0.2340
    1SOL    MW4 4728   3.808   3.940   1.902  0.1185  0.2522 -0.2140
    1SOL     OW 4729   3.564   4.022   1.981 -0.0578  0.1401  0.7815
    1SOL    HW2 4730   3.551   4.008   2.075 -0.8210  1.6374  0.9101
    1SOL    HW3 4731   3.490   3.976   1.940 -1.3123  1.8362  1.0844
    1SOL    MW4 4732   3.552   4.014   1.988 -0.3240  0.5612  0.8383
    1SOL     OW 4733   3.570   4.289   1.883 -0.5608 -0.1678  0.2025
    1SOL    HW2 4734   3.649   4.324   1.923 -0.0426 -0.4095 -0.5972
    1SOL    HW3 4735   3.565   4.199   1.917 -0.2642 -0.2883 -0.0692
    1SOL    MW4 4736   3.580   4.282   1.893 -0.4532 -0.2160  0.0610
    1SOL     OW 4737   3.828   4.392   1.981  0.0023  0.3834  0.7100
    1SOL    HW2 4738   3.827   4.393   2.077  0.5066  0.3181  0.7165
    1SOL    HW3 4739   3.918   4.372   1.958 -0.4785 -1.2589  0.2216
    1SOL    MW4 4740   3.839   4.390   1.991  0.0052  0.1574  0.6465
    1SOL     OW 4741   4.257   4.632   1.869  0.3196 -0.0825  0.6530
    1SOL    HW2 4742   4.188   4.689   1.904  0.8659  0.7601  0.3746
    1SOL    HW3 4743   4.339   4.672   1.898  0.7692  0.2880 -1.0266
    1SOL    MW4 4744   4.258   4.645   1.877  0.4511  0.0772  0.3947
    1SOL     OW 4745   4.032   0.114   1.982 -0.0701 -0.1249  0.3319
    1SOL    HW2 4746   4.000   0.114   2.073 -0.9746 -1.5783  0.0338
    1SOL    HW3 4747   3.967   0.063   1.934  0.5946  0.3272 -1.0809
    1SOL    MW4 4748   4.019   0.108   1.988 -0.1011 -0.2570  0.1062
    1SOL     OW 4749   4.024   0.373   1.883  0.0690  0.0899  0.4243
    1SOL    HW2 4750   4.024   0.285   1.920  0.5244  0.5264  1.4744
    1SOL    HW3 4751   3.956   0.420   1.931  0.8166  0.7256  0.8702
    1SOL    MW4 4752   4.015   0.367   1.894  0.2279  0.2314  0.6217
    1SOL     OW 4753   4.278   0.473   1.957 -0.1303 -0.3164 -0.4547
    1SOL    HW2 4754   4.258   0.479   2.050  1.7038 -1.3771  0.0268
    1SOL    HW3 4755   4.197   0.440   1.918 -0.1934 -2.0517  1.0783
    1SOL    MW4 4756   4.265   0.469   1.964  0.1035 -0.6853 -0.1888
    1SOL     OW 4757   4.269   0.755   1.901 -0.1558 -0.1013  0.2267
    1SOL    HW2 4758   4.270   0.662   1.924 -0.7895 -0.1873 -0.0923
    1SOL    HW3 4759   4.272   0.757   1.805 -0.7784  0.1931  0.2110
    1SOL    MW4 4760   4.270   0.743   1.892 -0.3219 -0.0739  0.1826
    1SOL     OW 4761   4.051   0.923   1.981  0.1523  0.5939 -0.3805
    1SOL    HW2 4762   4.135   0.888   1.949  0.4904 -1.1613  2.3221
    1SOL    HW3 4763   3.988   0.854   1.960  0.0189  0.3513  0.8060
    1SOL    MW4 4764   4.054   0.909   1.974  0.1788  0.3303  0.1326
    1SOL     OW 4765   4.024   1.179   1.892 -0.1307  0.0518 -0.3601
    1SOL    HW2 4766   4.032   1.091   1.928  0.4625  0.3577  0.2462
    1SOL    HW3 4767   3.947   1.216   1.935  1.0713  0.7250  1.2385
    1SOL    MW4 4768   4.015   1.172   1.902  0.1059  0.1808 -0.0691
    1SOL     OW 4769   4.270   1.276   1.977 -0.1831 -0.0553  0.0933
    1SOL    HW2 4770   4.265   1.277   2.072 -0.1367 -2.2525  0.1397
    1SOL    HW3 4771   4.185   1.240   1.949  0.0742 -0.0815 -0.6629
    1SOL    MW4 4772   4.258   1.271   1.986 -0.1431 -0.3487 -0.0002
    1SOL     OW 4773   4.269   1.551   1.870  0.3568  0.5103  0.5326
    1SOL    HW2 4774   4.262   1.465   1.913 -3.2084 -0.1239 -1.1446
    1SOL    HW3 4775   4.268   1.532   1.777 -0.4957  2.4083  0.1357
    1SOL    MW4 4776   4.268   1.537   1.864 -0.2260  0.6771  0.2590
    1SOL     OW 4777   4.028   1.667   1.947  0.0869  0.6413 -0.1093
    1SOL    HW2 4778   4.029   1.646   2.041 -0.5912 -1.8950 -0.6339
    1SOL    HW3 4779   4.112   1.635   1.915  0.8440  2.6085 -0.1864
    1SOL    MW4 4780   4.039   1.660   1.955  0.0968  0.5662 -0.1888
    1SOL     OW 4781   4.021   1.945   1.886 -0.1013 -0.4853  0.1591
    1SOL    HW2 4782   4.015   1.856   1.922 -0.6819 -0.2120  0.7467
    1SOL    HW3 4783   4.032   1.931   1.792  0.8183 -1.1944  0.3595
    1SOL    MW4 4784   4.021   1.931   1.878 -0.0572 -0.5428  0.2631
    1SOL     OW 4785   4.252   2.062   1.985 -0.2768 -0.2947 -0.0329
    1SOL    HW2 4786   4.244   2.054   2.080  1.4635 -0.5322  0.1064
    1SOL    HW3 4787   4.174   2.019   1.950 -0.7959 -0.4328  1.2760
    1SOL    MW4 4788   4.241   2.056   1.993 -0.1149 -0.3440  0.1583
    1SOL     OW 4789   4.260   2.331   1.903 -0.0684 -0.0958 -0.0365
    1SOL    HW2 4790   4.251   2.243   1.940 -1.1041  0.1212  0.2409
    1SOL    HW3 4791   4.342   2.364   1.939  1.5932 -1.8560 -2.0444
    1SOL    MW4 4792   4.269   2.323   1.913  0.0148 -0.2995 -0.2649
    1SOL     OW 4793   4.056   2.476   1.997  0.2454 -0.0681  0.1162
    1SOL    HW2 4794   4.063   2.460   2.091  1.2400  1.2072  0.2858
    1SOL    HW3 4795   4.122   2.421   1.957 -0.1395 -0.5678  0.1665
    1SOL    MW4 4796   4.065   2.467   2.004  0.3252  0.0341  0.1454
    1SOL     OW 4797   4.037   2.716   1.876  0.2723 -0.1139 -0.2866
    1SOL    HW2 4798   4.042   2.630   1.917  0.5760 -0.3158 -0.7439
    1SOL    HW3 4799   3.972   2.764   1.928  1.1504 -0.1348  0.8330
    1SOL    MW4 4800   4.029   2.711   1.888  0.4287 -0.1435 -0.1991
    1SOL     OW 4801   4.274   2.863   1.955  0.0615  0.5484 -0.2148
    1SOL    HW2 4802   4.274   2.858   2.051  1.9094  0.8461 -0.1737
    1SOL    HW3 4803   4.200   2.809   1.928 -0.1116 -0.0256  1.3629
    1SOL    MW4 4804   4.264   2.855   1.964  0.2823  0.5121 -0.0013
    1SOL     OW 4805   4.268   3.133   1.873  0.0747  0.8352 -0.3921
    1SOL    HW2 4806   4.197   3.179   1.919 -1.8375  0.0195 -2.4401
    1SOL    HW3 4807   4.263   3.043   1.905 -0.8615  0.4080 -1.7241
    1SOL    MW4 4808   4.258   3.128   1.884 -0.3009  0.6714 -0.8382
    1SOL     OW 4809   4.039   3.257   1.966  0.2026  0.1150 -0.2212
    1SOL    HW2 4810   4.034   3.253   2.061 -0.1437 -1.9816 -0.3068
    1SOL    HW3 4811   3.960   3.212   1.936  0.4360  0.5359 -1.5050
    1SOL    MW4 4812   4.028   3.251   1.974  0.1874 -0.1063 -0.4019
    1SOL     OW 4813   4.061   3.537   1.967  0.1499 -0.1339  0.3574
    1SOL    HW2 4814   4.152   3.566   1.980  0.3020  0.0959 -1.1592
    1SOL    HW3 4815   4.065   3.442   1.977  0.5970 -0.1501  0.0458
    1SOL    MW4 4816   4.074   3.529   1.970  0.2289 -0.1056  0.1162
    1SOL     OW 4817   4.315   3.645   2.012 -0.3691  0.2045 -0.0459
    1SOL    HW2 4818   4.310   3.737   1.985 -0.6599  0.8440  2.1012
    1SOL    HW3 4819   4.389   3.610   1.962 -0.4381  1.5136 -1.1147
    1SOL    MW4 4820   4.325   3.653   2.002 -0.4168  0.4616  0.0966
    1SOL     OW 4821   4.268   3.914   1.932  0.0279  0.0179 -0.1877
    1SOL    HW2 4822   4.347   3.964   1.950  1.0621 -1.4759 -0.4282
    1SOL    HW3 4823   4.261   3.913   1.837 -0.1691  0.0005 -0.1722
    1SOL    MW4 4824   4.278   3.920   1.922  0.1388 -0.1814 -0.2174
    1SOL     OW 4825   4.041   4.044   2.034  0.3945  0.0487  0.1052
    1SOL    HW2 4826   4.111   3.994   1.992 -0.2272 -0.3354 -0.4887
    1SOL    HW3 4827   3.961   4.011   1.994 -0.1455  0.3190  0.9576
    1SOL    MW4 4828   4.040   4.033   2.023  0.2413  0.0339  0.1395
    1SOL     OW 4829   4.058   4.274   1.920 -0.4966 -0.0873 -0.2987
    1SOL    HW2 4830   4.145   4.306   1.943 -0.1867 -0.6106 -0.7289
    1SOL    HW3 4831   4.047   4.195   1.973 -0.8006  0.0939 -0.0875
    1SOL    MW4 4832   4.068   4.268   1.930 -0.4964 -0.1326 -0.3276
    1SOL     OW 4833   4.311   4.373   1.957  0.0195 -0.1244 -0.3540
    1SOL    HW2 4834   4.299   4.377   2.052 -0.6609  1.2027 -0.4904
    1SOL    HW3 4835   4.295   4.462   1.927 -0.0524 -0.6046 -1.7537
    1SOL    MW4 4836   4.307   4.385   1.966 -0.0796 -0.0119 -0.5567
    1SOL     OW 4837   0.236   4.601   2.314  0.1952  0.3042  0.1907
    1SOL    HW2 4838   0.225   4.599   2.409  0.5681  0.7791  0.2438
    1SOL    HW3 4839   0.312   4.657   2.300 -0.0441  0.4766 -0.4040
    1SOL    MW4 4840   0.245   4.608   2.325  0.2128  0.3891  0.1190
    1SOL     OW 4841   4.484   0.077   2.260 -0.2918 -0.6394  0.4480
    1SOL    HW2 4842   4.575   0.049   2.257 -0.4661 -1.2006  0.3387
    1SOL    HW3 4843   4.463   0.098   2.169 -0.1244 -0.0281  0.5481
    1SOL    MW4 4844   4.493   0.076   2.248 -0.2927 -0.6328  0.4470
    1SOL     OW 4845   4.457   0.363   2.327  0.2156 -0.2418 -0.2265
    1SOL    HW2 4846   4.545   0.397   2.311  0.7161 -0.8566  1.1305
    1SOL    HW3 4847   4.465   0.269   2.314 -0.3540 -0.2467 -0.5569
    1SOL    MW4 4848   4.469   0.355   2.323  0.2060 -0.3236 -0.0911
    1SOL     OW 4849   0.224   0.455   2.268 -0.2333  0.0667 -0.3016
    1SOL    HW2 4850   0.307   0.417   2.296  0.9403  1.9641 -1.1367
    1SOL    HW3 4851   0.229   0.455   2.172 -0.6051  1.4719 -0.3257
    1SOL    MW4 4852   0.236   0.450   2.259 -0.1276  0.5025 -0.4151
    1SOL     OW 4853   0.219   0.719   2.312 -0.0119  0.1788  0.1032
    1SOL    HW2 4854   0.203   0.725   2.406  1.4932  0.1256  0.3759
    1SOL    HW3 4855   0.213   0.626   2.292  1.7607 -0.0427  0.5459
    1SOL    MW4 4856   0.216   0.708   2.322  0.4206  0.1425  0.1974
    1SOL     OW 4857   0.002   0.867   2.229  0.4356  0.5820  0.3454
    1SOL    HW2 4858   0.080   0.814   2.243 -0.7327 -1.4277 -0.4659
    1SOL    HW3 4859  -0.006   0.874   2.134 -0.4082  0.6734  0.4127
    1SOL    MW4 4860   0.011   0.861   2.219  0.1698  0.3289  0.2472
    1SOL     OW 4861   0.012   1.115   2.351  0.1204 -0.0866 -0.5167
    1SOL    HW2 4862   0.015   1.100   2.445  1.4236  1.1299 -0.3449
    1SOL    HW3 4863   0.008   1.027   2.313  0.4959 -0.6111  0.6392
    1SOL    MW4 4864   0.012   1.101   2.358  0.3419  0.0048 -0.3417
    1SOL     OW 4865   0.224   1.249   2.233  0.2697 -0.1896 -0.2943
    1SOL    HW2 4866   0.148   1.199   2.263 -0.1609  0.6622  0.0614
    1SOL    HW3 4867   0.224   1.239   2.138  0.4625 -1.2445 -0.1891
    1SOL    MW4 4868   0.214   1.241   2.225  0.2383 -0.2162 -0.2334
    1SOL     OW 4869   0.188   1.515   2.327  0.1173  0.0410  0.2348
    1SOL    HW2 4870   0.189   1.506   2.422 -0.1259 -0.0885  0.2278
    1SOL    HW3 4871   0.176   1.425   2.295 -1.1984  0.2448  0.1242
    1SOL    MW4 4872   0.186   1.502   2.335 -0.0884  0.0507  0.2193
    1SOL     OW 4873   4.443   1.657   2.260  0.2054  0.2599 -0.3160
    1SOL    HW2 4874   4.461   1.749   2.277  0.4158 -0.2085  2.1092
    1SOL    HW3 4875   4.524   1.611   2.283  0.3712 -0.4698 -2.2498
    1SOL    MW4 4876   4.456   1.663   2.265  0.2546  0.1019 -0.2511
    1SOL     OW 4877   4.484   1.909   2.347 -0.0961 -0.3431 -0.2050
    1SOL    HW2 4878   4.407   1.964   2.331  0.4644  0.5253  0.0922
    1SOL    HW3 4879   4.556   1.956   2.307  0.4475 -0.6856  0.3605
    1SOL    MW4 4880   4.483   1.922   2.340  0.0496 -0.2737 -0.0913
    1SOL     OW 4881   0.196   2.062   2.230 -0.5050  0.6323  0.4734
    1SOL    HW2 4882   0.270   2.011   2.264 -0.4665  1.2271  1.2811
    1SOL    HW3 4883   0.206   2.057   2.135  0.7626  0.9774  0.5769
    1SOL    MW4 4884   0.207   2.055   2.222 -0.3327  0.7565  0.5937
    1SOL     OW 4885   0.240   2.342   2.329  0.1966 -0.2729 -0.3558
    1SOL    HW2 4886   0.227   2.340   2.424 -1.3495  0.3833 -0.5466
    1SOL    HW3 4887   0.226   2.251   2.301 -1.4493 -0.0834 -0.2098
    1SOL    MW4 4888   0.237   2.330   2.338 -0.2245 -0.1614 -0.3614
    1SOL     OW 4889   4.485   2.449   2.266 -0.1686 -0.0017 -0.1517
    1SOL    HW2 4890   4.482   2.543   2.286  0.8503 -0.2142  1.0998
    1SOL    HW3 4891   4.575   2.423   2.286 -0.3794 -1.1986 -0.7124
    1SOL    MW4 4892   4.497   2.458   2.271 -0.0625 -0.1879 -0.0606
    1SOL     OW 4893   0.021   2.725   2.336 -0.1359 -0.3751 -0.1947
    1SOL    HW2 4894   0.024   2.730   2.432 -0.0996  0.3881 -0.2301
    1SOL    HW3 4895   0.105   2.763   2.307 -0.7196  0.6727 -0.5566
    1SOL    MW4 4896   0.033   2.731   2.345 -0.2082 -0.1361 -0.2472
    1SOL     OW 4897   0.254   2.841   2.241 -0.2871 -0.4923  0.1711
    1SOL    HW2 4898   0.334   2.802   2.276 -0.5717 -0.4437  0.8947
    1SOL    HW3 4899   0.256   2.822   2.147  0.1742 -1.1829  0.3235
    1SOL    MW4 4900   0.265   2.833   2.233 -0.2638 -0.5770  0.2866
    1SOL     OW 4901   0.218   3.076   2.385  0.1258 -0.3834 -0.5574
    1SOL    HW2 4902   0.154   3.121   2.329 -0.5803 -0.6511  0.0340
    1SOL    HW3 4903   0.231   2.991   2.343  2.2095  0.6868 -2.2390
    1SOL    MW4 4904   0.211   3.071   2.372  0.3076 -0.2778 -0.7012
    1SOL     OW 4905   0.014   3.222   2.289 -0.3406  0.4067 -0.2415
    1SOL    HW2 4906   0.028   3.305   2.335  1.0428  0.0581  0.0063
    1SOL    HW3 4907   0.006   3.246   2.197  0.5006  0.7836 -0.2208
    1SOL    MW4 4908   0.015   3.236   2.283 -0.0471  0.4103 -0.2062
    1SOL     OW 4909   0.007   3.472   2.365  0.1106 -0.1305  0.3182
    1SOL    HW2 4910  -0.003   3.488   2.459 -0.1167 -1.2768  0.4950
    1SOL    HW3 4911  -0.068   3.517   2.325  1.7652  2.8252  0.3844
    1SOL    MW4 4912  -0.004   3.480   2.372  0.2995  0.1082  0.3502
    1SOL     OW 4913   0.217   3.629   2.281  0.0906 -0.1543 -0.3420
    1SOL    HW2 4914   0.292   3.583   2.318  0.0975 -0.2538 -0.4773
    1SOL    HW3 4915   0.142   3.574   2.303 -0.0698  0.4781  0.6947
    1SOL    MW4 4916   0.217   3.616   2.289  0.0703 -0.0839 -0.2232
    1SOL     OW 4917   0.212   3.890   2.354  0.2310 -0.3694  0.7977
    1SOL    HW2 4918   0.136   3.927   2.309  1.5906  1.0418 -0.4121
    1SOL    HW3 4919   0.208   3.797   2.335 -0.2517 -0.0522 -0.7245
    1SOL    MW4 4920   0.202   3.883   2.345  0.3467 -0.1414  0.4373
    1SOL     OW 4921   4.460   3.996   2.238 -0.0491  0.0285 -0.2829
    1SOL    HW2 4922   4.465   4.079   2.285  0.2695  0.1239 -0.4921
    1SOL    HW3 4923   4.489   4.016   2.149 -1.4103  0.0141 -0.7407
    1SOL    MW4 4924   4.464   4.010   2.232 -0.1860  0.0391 -0.3707
    1SOL     OW 4925   4.419   4.234   2.371 -0.4461 -0.4463 -0.0113
    1SOL    HW2 4926   4.429   4.213   2.464  0.0601  1.4330  0.3879
    1SOL    HW3 4927   4.501   4.278   2.348 -0.8472 -0.2936 -1.1786
    1SOL    MW4 4928   4.431   4.237   2.380 -0.4320 -0.1783 -0.1128
    1SOL     OW 4929   0.185   4.338   2.291 -0.2710  0.1135  0.0593
    1SOL    HW2 4930   0.257   4.295   2.338 -0.5906  2.2783  2.6606
    1SOL    HW3 4931   0.203   4.432   2.301 -1.7729  0.6442 -1.9830
    1SOL    MW4 4932   0.197   4.345   2.299 -0.5113  0.4692  0.1330
    1SOL     OW 4933   0.704   4.628   2.406 -0.5270  0.4918 -0.3387
    1SOL    HW2 4934   0.724   4.617   2.499 -0.3624  0.7302 -0.3444
    1SOL    HW3 4935   0.783   4.669   2.370  0.0516 -1.0669 -0.8915
    1SOL    MW4 4936   0.717   4.632   2.414 -0.4289  0.3181 -0.4125
    1SOL     OW 4937   0.482   0.075   2.286 -0.4670  0.0902 -0.4025
    1SOL    HW2 4938   0.562   0.038   2.323 -0.1183  0.6141 -0.6309
    1SOL    HW3 4939   0.501   0.084   2.193  0.1912  2.7390 -0.0590
    1SOL    MW4 4940   0.495   0.071   2.279 -0.3341  0.5088 -0.3872
    1SOL     OW 4941   0.463   0.351   2.341  0.1034 -0.1311 -0.1368
    1SOL    HW2 4942   0.465   0.358   2.436  2.6314  0.3361 -0.1764
    1SOL    HW3 4943   0.462   0.257   2.324 -0.9840 -0.2072  0.3605
    1SOL    MW4 4944   0.463   0.339   2.351  0.2934 -0.0795 -0.0761
    1SOL     OW 4945   0.653   0.507   2.198 -0.0257  0.1741 -0.2825
    1SOL    HW2 4946   0.660   0.596   2.232  0.1998  0.5879 -1.3651
    1SOL    HW3 4947   0.600   0.460   2.262  2.9653  0.0734  2.2148
    1SOL    MW4 4948   0.647   0.512   2.211  0.3986  0.2154 -0.0958
    1SOL     OW 4949   0.658   0.743   2.323  0.0053  0.1637  0.5513
    1SOL    HW2 4950   0.647   0.745   2.418  0.3321  0.2203  0.5893
    1SOL    HW3 4951   0.583   0.791   2.288 -1.6603 -2.2759  0.6501
    1SOL    MW4 4952   0.647   0.750   2.331 -0.1714 -0.1506  0.5696
    1SOL     OW 4953   0.436   0.888   2.210 -0.2699  0.6783  0.4134
    1SOL    HW2 4954   0.374   0.825   2.247  0.5899  0.0727  0.8280
    1SOL    HW3 4955   0.424   0.881   2.115 -0.3875  0.1112  0.4694
    1SOL    MW4 4956   0.426   0.879   2.202 -0.1720  0.5236  0.4754
    1SOL     OW 4957   0.436   1.127   2.353  0.1166  0.3347 -0.2949
    1SOL    HW2 4958   0.429   1.039   2.316 -0.0254  0.7844 -1.3460
    1SOL    HW3 4959   0.361   1.174   2.317  0.0403  0.8095  0.4780
    1SOL    MW4 4960   0.425   1.122   2.343  0.0877  0.4566 -0.3316
    1SOL     OW 4961   0.648   1.258   2.225 -0.2081 -0.0189 -0.4403
    1SOL    HW2 4962   0.646   1.345   2.263 -0.1237  0.8529 -2.3716
    1SOL    HW3 4963   0.579   1.210   2.271 -0.3241  1.0960  0.5632
    1SOL    MW4 4964   0.638   1.263   2.236 -0.2122  0.2432 -0.5629
    1SOL     OW 4965   0.650   1.523   2.352 -0.0256 -0.0262 -0.3359
    1SOL    HW2 4966   0.664   1.514   2.446 -0.0648 -1.9439 -0.4989
    1SOL    HW3 4967   0.731   1.563   2.320  0.8008 -1.2355  0.2268
    1SOL    MW4 4968   0.662   1.527   2.360  0.0783 -0.4387 -0.2830
    1SOL     OW 4969   0.424   1.630   2.229 -0.9005 -0.1075 -0.1501
    1SOL    HW2 4970   0.493   1.598   2.287  0.1937  1.0752 -0.7777
    1SOL    HW3 4971   0.344   1.591   2.263 -0.0894 -0.5066  1.3351
    1SOL    MW4 4972   0.423   1.620   2.241 -0.6491 -0.0042 -0.0370
    1SOL     OW 4973   0.396   1.905   2.333 -0.0579  0.3380  0.0125
    1SOL    HW2 4974   0.474   1.944   2.293 -0.9131  0.2046 -1.8219
    1SOL    HW3 4975   0.403   1.811   2.313 -0.6269  0.3130 -0.0728
    1SOL    MW4 4976   0.408   1.898   2.325 -0.2458  0.3172 -0.2410
    1SOL     OW 4977   0.612   2.065   2.241  0.5178  0.1787  0.4519
    1SOL    HW2 4978   0.683   2.028   2.294  0.4275  0.2497  0.6257
    1SOL    HW3 4979   0.611   2.158   2.265  0.3919  0.1850  0.4215
    1SOL    MW4 4980   0.621   2.072   2.251  0.4893  0.1893  0.4709
    1SOL     OW 4981   0.648   2.335   2.303 -0.2380 -0.0198 -0.2361
    1SOL    HW2 4982   0.652   2.333   2.398  0.1073 -0.2643 -0.2587
    1SOL    HW3 4983   0.733   2.369   2.276 -0.1823 -0.3543 -0.4760
    1SOL    MW4 4984   0.660   2.340   2.312 -0.1850 -0.0966 -0.2706
    1SOL     OW 4985   0.447   2.473   2.218 -0.2034 -0.0037 -0.1432
    1SOL    HW2 4986   0.530   2.436   2.249 -0.0316  0.3875 -0.1322
    1SOL    HW3 4987   0.380   2.428   2.269 -0.1082 -1.7025 -1.4979
    1SOL    MW4 4988   0.449   2.462   2.229 -0.1682 -0.1764 -0.3204
    1SOL     OW 4989   0.475   2.718   2.357 -0.1384 -0.0101  0.1365
    1SOL    HW2 4990   0.464   2.689   2.448  0.0554 -1.1455 -0.1922
    1SOL    HW3 4991   0.463   2.638   2.305  0.6564  0.4676 -0.7865
    1SOL    MW4 4992   0.472   2.704   2.362 -0.0079 -0.0970 -0.0286
    1SOL     OW 4993   0.710   2.860   2.280 -0.1182 -0.2125  0.5418
    1SOL    HW2 4994   0.785   2.807   2.310  1.2593  2.0647  1.2346
    1SOL    HW3 4995   0.633   2.808   2.304  1.1817 -1.7614  1.4820
    1SOL    MW4 4996   0.710   2.846   2.287  0.2351 -0.1163  0.7572
    1SOL     OW 4997   0.713   3.100   2.402  0.7030  0.0015  0.5950
    1SOL    HW2 4998   0.633   3.137   2.365  0.9997 -0.2519 -0.3049
    1SOL    HW3 4999   0.714   3.009   2.373  1.2909 -0.0102  0.6422
    1SOL    MW4 5000   0.702   3.093   2.393  0.8197 -0.0334  0.4826
    1SOL     OW 5001   0.454   3.215   2.329 -0.2836  0.6865 -0.0131
    1SOL    HW2 5002   0.380   3.169   2.368  0.9294 -1.0207  0.3298
    1SOL    HW3 5003   0.438   3.209   2.235 -0.8761  0.8182  0.0768
    1SOL    MW4 5004   0.442   3.208   2.322 -0.2018  0.4790  0.0441
    1SOL     OW 5005   0.447   3.490   2.380 -0.0185 -0.3299 -0.0724
    1SOL    HW2 5006   0.527   3.531   2.346 -1.4868  0.9465 -2.1531
    1SOL    HW3 5007   0.454   3.398   2.354  0.9546 -0.3070  0.1037
    1SOL    MW4 5008   0.458   3.484   2.372 -0.0838 -0.1585 -0.3238
    1SOL     OW 5009   0.670   3.619   2.263  0.0382  0.3641 -0.0081
    1SOL    HW2 5010   0.686   3.702   2.308  0.9492  0.2905 -0.1868
    1SOL    HW3 5011   0.691   3.638   2.172 -0.4521  0.1299 -0.1682
    1SOL    MW4 5012   0.675   3.633   2.257  0.0936  0.3235 -0.0529
    1SOL     OW 5013   0.684   3.894   2.364  0.0407 -0.3511 -0.1963
    1SOL    HW2 5014   0.669   3.905   2.458 -0.2866 -1.0939 -0.1524
    1SOL    HW3 5015   0.599   3.913   2.324 -0.0209 -0.7799 -0.2741
    1SOL    MW4 5016   0.670   3.898   2.371 -0.0107 -0.5057 -0.2010
    1SOL     OW 5017   0.459   3.969   2.247 -0.3407 -0.3137 -0.5184
    1SOL    HW2 5018   0.376   3.930   2.275  0.4720 -1.5143  0.3078
    1SOL    HW3 5019   0.457   3.963   2.152 -1.9116  1.1815 -0.6020
    1SOL    MW4 5020   0.448   3.963   2.238 -0.4407 -0.2749 -0.4206
    1SOL     OW 5021   0.414   4.222   2.387 -0.0421  0.2077  0.3397
    1SOL    HW2 5022   0.487   4.278   2.362  1.1875 -0.0327  3.1869
    1SOL    HW3 5023   0.436   4.136   2.353  0.1843  0.5063 -0.2699
    1SOL    MW4 5024   0.426   4.218   2.379  0.1499  0.2155  0.6349
    1SOL     OW 5025   0.647   4.366   2.303  0.0212 -0.5058 -0.1708
    1SOL    HW2 5026   0.650   4.457   2.335 -0.4997 -0.2874 -0.7208
    1SOL    HW3 5027   0.652   4.375   2.208  0.0277 -1.0639 -0.2217
    1SOL    MW4 5028   0.648   4.379   2.294 -0.0466 -0.5503 -0.2501
    1SOL     OW 5029   1.154   4.639   2.387 -0.5568 -0.2967  0.4415
    1SOL    HW2 5030   1.144   4.634   2.482 -2.4835 -2.5359  0.1883
    1SOL    HW3 5031   1.088   4.702   2.359 -0.3039  0.0211  0.5730
    1SOL    MW4 5032   1.144   4.646   2.396 -0.7776 -0.5498  0.4253
    1SOL     OW 5033   0.920   0.106   2.285 -0.3547  0.1515  0.2211
    1SOL    HW2 5034   0.908   0.192   2.324  1.3650  0.1544  0.7850
    1SOL    HW3 5035   0.941   0.124   2.193 -0.7135  0.2964  0.1663
    1SOL    MW4 5036   0.921   0.120   2.278 -0.1751  0.1710  0.2882
    1SOL     OW 5037   0.859   0.378   2.341 -0.3701 -0.1236 -0.1185
    1SOL    HW2 5038   0.947   0.410   2.319 -0.2199  0.2049  0.9176
    1SOL    HW3 5039   0.800   0.431   2.288  0.0207  0.0688 -0.3678
    1SOL    MW4 5040   0.863   0.389   2.331 -0.2987 -0.0549 -0.0148
    1SOL     OW 5041   1.130   0.446   2.243 -0.0978 -0.4481  0.3926
    1SOL    HW2 5042   1.214   0.403   2.253 -0.7653 -1.6466  0.9982
    1SOL    HW3 5043   1.125   0.470   2.150  0.5493 -1.1148  0.1883
    1SOL    MW4 5044   1.140   0.444   2.232 -0.1005 -0.6942  0.4454
    1SOL     OW 5045   1.142   0.700   2.350  0.1228 -0.0940  0.2704
    1SOL    HW2 5046   1.061   0.731   2.310  0.5378  0.1966 -0.3499
    1SOL    HW3 5047   1.144   0.606   2.328  0.7118  0.2138 -1.0251
    1SOL    MW4 5048   1.131   0.692   2.342  0.2553 -0.0150  0.0176
    1SOL     OW 5049   0.902   0.832   2.235  0.2762 -0.7814  0.6600
    1SOL    HW2 5050   0.915   0.921   2.270 -0.0757 -0.6113  0.3525
    1SOL    HW3 5051   0.813   0.809   2.262 -0.5125 -0.1108 -1.3174
    1SOL    MW4 5052   0.892   0.841   2.243  0.1258 -0.6706  0.3586
    1SOL     OW 5053   0.888   1.115   2.315 -0.4571  0.0776  0.3281
    1SOL    HW2 5054   0.964   1.174   2.316 -0.8046  0.5280  0.4628
    1SOL    HW3 5055   0.820   1.165   2.270 -0.7188 -0.2727  0.3350
    1SOL    MW4 5056   0.889   1.130   2.309 -0.5375  0.0907  0.3471
    1SOL     OW 5057   1.111   1.277   2.282  0.0138 -0.1527  0.3104
    1SOL    HW2 5058   1.194   1.235   2.303  0.1429  0.1060  0.3278
    1SOL    HW3 5059   1.109   1.281   2.186 -0.2501 -0.6934  0.2948
    1SOL    MW4 5060   1.122   1.272   2.272 -0.0041 -0.1899  0.3104
    1SOL     OW 5061   1.131   1.540   2.372  0.2318 -0.1368 -0.1710
    1SOL    HW2 5062   1.048   1.575   2.338  0.0993 -0.1257  0.1667
    1SOL    HW3 5063   1.130   1.448   2.346  0.7034  0.1639 -1.3007
    1SOL    MW4 5064   1.120   1.532   2.364  0.2764 -0.0957 -0.2754
    1SOL     OW 5065   0.890   1.665   2.284 -0.5749 -0.6078  0.3678
    1SOL    HW2 5066   0.883   1.755   2.315 -0.1581 -0.6631  0.6289
    1SOL    HW3 5067   0.903   1.674   2.189 -0.8910 -0.4062  0.3440
    1SOL    MW4 5068   0.891   1.678   2.275 -0.5616 -0.5885  0.3991
    1SOL     OW 5069   0.829   1.939   2.369  0.1804 -0.0851 -0.1026
    1SOL    HW2 5070   0.847   1.941   2.463 -2.8251  1.6657  0.4911
    1SOL    HW3 5071   0.890   2.004   2.332  0.9071 -0.2884  0.7278
    1SOL    MW4 5072   0.840   1.948   2.376 -0.1202  0.1190  0.0856
    1SOL     OW 5073   1.057   2.086   2.270 -0.0040 -0.0948  0.3782
    1SOL    HW2 5074   1.106   2.022   2.321 -0.1594  0.2107  0.9208
    1SOL    HW3 5075   1.097   2.083   2.183  1.8794  1.0803  1.1542
    1SOL    MW4 5076   1.069   2.077   2.265  0.2241  0.1001  0.5522
    1SOL     OW 5077   1.134   2.356   2.332 -0.0216 -0.0858 -0.2921
    1SOL    HW2 5078   1.218   2.373   2.290  0.9920 -1.3537  1.1900
    1SOL    HW3 5079   1.115   2.264   2.314  0.5539 -0.7234  2.1843
    1SOL    MW4 5080   1.142   2.346   2.324  0.1881 -0.3376  0.2303
    1SOL     OW 5081   0.884   2.458   2.244 -0.1213 -0.2306 -0.2818
    1SOL    HW2 5082   0.971   2.420   2.254  0.0748 -0.1132 -1.5022
    1SOL    HW3 5083   0.876   2.476   2.150 -1.5952 -0.5683 -0.2319
    1SOL    MW4 5084   0.894   2.455   2.233 -0.2899 -0.2596 -0.4365
    1SOL     OW 5085   0.933   2.695   2.360  0.0463  0.0368  0.0788
    1SOL    HW2 5086   0.897   2.682   2.448 -2.2703 -1.0808 -0.9731
    1SOL    HW3 5087   0.927   2.609   2.319  1.8008  0.3815 -0.9368
    1SOL    MW4 5088   0.927   2.682   2.367 -0.0278 -0.0651 -0.1941
    1SOL     OW 5089   1.135   2.882   2.272 -0.1995  0.0529  0.3291
    1SOL    HW2 5090   1.213   2.829   2.286  0.3634  1.1462  1.3714
    1SOL    HW3 5091   1.064   2.832   2.312 -0.1260 -1.1188 -0.9402
    1SOL    MW4 5092   1.136   2.869   2.279 -0.1155  0.0424  0.2990
    1SOL     OW 5093   1.117   3.119   2.417 -0.1933  0.0503 -0.0044
    1SOL    HW2 5094   1.055   3.166   2.361 -0.5113 -0.1267  0.2011
    1SOL    HW3 5095   1.136   3.038   2.369  0.1495  0.2582 -0.2313
    1SOL    MW4 5096   1.111   3.115   2.403 -0.1900  0.0544 -0.0074
    1SOL     OW 5097   0.912   3.234   2.256  0.3078 -0.1070 -0.1340
    1SOL    HW2 5098   0.914   3.324   2.287  0.6714  0.5530 -1.9764
    1SOL    HW3 5099   0.851   3.189   2.315  0.2671  1.3011  0.9045
    1SOL    MW4 5100   0.904   3.240   2.268  0.3504  0.1657 -0.2403
    1SOL     OW 5101   0.893   3.487   2.354 -0.6133  0.0465  0.3420
    1SOL    HW2 5102   0.884   3.490   2.449 -0.5415  1.0241  0.3315
    1SOL    HW3 5103   0.817   3.537   2.322 -0.2696  0.3065 -0.0813
    1SOL    MW4 5104   0.882   3.494   2.362 -0.5585  0.2098  0.2849
    1SOL     OW 5105   1.124   3.619   2.258 -0.0031  0.0620  0.0369
    1SOL    HW2 5106   1.198   3.581   2.306  0.1260  0.6541  0.3080
    1SOL    HW3 5107   1.050   3.563   2.279 -0.0410  0.5560  1.2490
    1SOL    MW4 5108   1.124   3.607   2.267  0.0089  0.2053  0.2325
    1SOL     OW 5109   1.108   3.881   2.346  0.0079 -0.1722  0.0430
    1SOL    HW2 5110   1.188   3.924   2.317 -1.4629  0.5771 -3.0773
    1SOL    HW3 5111   1.114   3.792   2.312  0.1352 -0.5418  1.0141
    1SOL    MW4 5112   1.119   3.875   2.338 -0.1695 -0.1221 -0.2406
    1SOL     OW 5113   0.900   4.024   2.241  0.1883  0.0987  0.3056
    1SOL    HW2 5114   0.981   3.980   2.267  1.3436  0.7680 -2.0692
    1SOL    HW3 5115   0.831   3.977   2.288  1.9408 -0.4737  2.3507
    1SOL    MW4 5116   0.902   4.012   2.250  0.5720  0.1106  0.2620
    1SOL     OW 5117   0.892   4.271   2.357 -0.1625 -0.4139  0.4283
    1SOL    HW2 5118   0.892   4.188   2.309 -0.1767 -0.4400  0.4731
    1SOL    HW3 5119   0.804   4.306   2.344  0.5724  0.7642 -1.6107
    1SOL    MW4 5120   0.881   4.264   2.349 -0.0674 -0.2623  0.1652
    1SOL     OW 5121   1.113   4.387   2.242  0.3604 -0.0761  0.0135
    1SOL    HW2 5122   1.027   4.352   2.267  0.1095 -0.3485 -1.1790
    1SOL    HW3 5123   1.117   4.473   2.285  0.1126 -0.6944  1.2778
    1SOL    MW4 5124   1.102   4.394   2.251  0.2946 -0.1936  0.0229
    1SOL     OW 5125   1.573   4.599   2.350 -0.1855  0.5967  0.6241
    1SOL    HW2 5126   1.651   4.633   2.305 -0.1892  0.5372  0.5734
    1SOL    HW3 5127   1.500   4.642   2.305 -0.2767 -0.7408 -0.5405
    1SOL    MW4 5128   1.574   4.609   2.338 -0.1979  0.4120  0.4637
    1SOL     OW 5129   1.379   0.071   2.246  0.0537 -0.1157  0.3202
    1SOL    HW2 5130   1.388   0.151   2.297  0.6861 -0.5742  0.9380
    1SOL    HW3 5131   1.308   0.023   2.288  0.3875 -0.3654  0.6002
    1SOL    MW4 5132   1.371   0.075   2.258  0.1812 -0.2091  0.4385
    1SOL     OW 5133   1.362   0.343   2.340 -0.3029 -0.6406 -0.5299
    1SOL    HW2 5134   1.354   0.355   2.435 -0.2621  1.4393 -0.7585
    1SOL    HW3 5135   1.441   0.392   2.317 -0.6922 -0.5779 -1.7460
    1SOL    MW4 5136   1.372   0.351   2.350 -0.3488 -0.3579 -0.7205
    1SOL     OW 5137   1.574   0.510   2.290  0.0778 -0.1466  0.7316
    1SOL    HW2 5138   1.642   0.446   2.311  1.3512  1.0265  0.2261
    1SOL    HW3 5139   1.575   0.516   2.194 -0.1641  0.4937  0.7674
    1SOL    MW4 5140   1.583   0.502   2.280  0.2139  0.0926  0.6695
    1SOL     OW 5141   1.553   0.788   2.345 -0.1223 -0.0020  0.0887
    1SOL    HW2 5142   1.642   0.824   2.346 -0.1953  0.1784  0.0177
    1SOL    HW3 5143   1.566   0.693   2.345  0.0691  0.0218  0.3894
    1SOL    MW4 5144   1.566   0.780   2.346 -0.1067  0.0249  0.1187
    1SOL     OW 5145   1.308   0.880   2.235  0.2958 -0.0177  0.0065
    1SOL    HW2 5146   1.394   0.847   2.261 -0.2419 -3.4707 -2.3199
    1SOL    HW3 5147   1.246   0.821   2.278 -0.8990  1.6968  0.6774
    1SOL    MW4 5148   1.311   0.868   2.244  0.0672 -0.2471 -0.2120
    1SOL     OW 5149   1.364   1.132   2.338 -0.4042  0.3607 -0.6780
    1SOL    HW2 5150   1.365   1.126   2.434  1.2247  0.0256 -0.6993
    1SOL    HW3 5151   1.329   1.047   2.309  1.0748 -0.3674 -0.4100
    1SOL    MW4 5152   1.360   1.120   2.347  0.0057  0.2207 -0.6454
    1SOL     OW 5153   1.567   1.292   2.242  0.1543  0.7281 -0.5641
    1SOL    HW2 5154   1.490   1.251   2.281  1.2955 -0.7681  0.1666
    1SOL    HW3 5155   1.545   1.302   2.150 -0.1965 -1.4311 -0.7319
    1SOL    MW4 5156   1.554   1.288   2.235  0.2586  0.2458 -0.4900
    1SOL     OW 5157   1.610   1.562   2.357  0.1193  0.0103 -0.0794
    1SOL    HW2 5158   1.685   1.600   2.311  0.8628 -0.1101  1.0209
    1SOL    HW3 5159   1.598   1.476   2.317  0.9939 -0.2435  0.1991
    1SOL    MW4 5160   1.618   1.556   2.346  0.3328 -0.0389  0.1025
    1SOL     OW 5161   1.370   1.679   2.266  0.2103  0.3272 -0.1550
    1SOL    HW2 5162   1.449   1.639   2.303  0.5670 -0.0680 -1.3167
    1SOL    HW3 5163   1.298   1.631   2.308  0.6040 -0.1124  0.0299
    1SOL    MW4 5164   1.371   1.667   2.277  0.3093  0.2170 -0.2840
    1SOL     OW 5165   1.289   1.931   2.357 -0.5080 -0.0518  0.0795
    1SOL    HW2 5166   1.354   1.997   2.332 -1.7153  0.2391 -2.4466
    1SOL    HW3 5167   1.325   1.849   2.325  0.1239 -0.3672  1.5782
    1SOL    MW4 5168   1.302   1.929   2.350 -0.5839 -0.0550 -0.0560
    1SOL     OW 5169   1.521   2.075   2.273 -0.0574 -0.1596  0.5763
    1SOL    HW2 5170   1.593   2.036   2.323 -0.1307 -1.0311  0.0223
    1SOL    HW3 5171   1.551   2.070   2.182 -0.7546 -0.3689  0.3619
    1SOL    MW4 5172   1.535   2.069   2.267 -0.1589 -0.3021  0.4747
    1SOL     OW 5173   1.558   2.342   2.371 -0.3352  0.2488  0.1127
    1SOL    HW2 5174   1.568   2.344   2.466  3.1210 -0.8778 -0.1822
    1SOL    HW3 5175   1.556   2.249   2.349 -1.2292  0.5088 -0.9380
    1SOL    MW4 5176   1.559   2.330   2.381  0.0029  0.1345 -0.0648
    1SOL     OW 5177   1.362   2.457   2.211 -0.0104  0.2804  0.0296
    1SOL    HW2 5178   1.440   2.419   2.253 -0.0778 -0.7866 -0.7751
    1SOL    HW3 5179   1.385   2.461   2.118 -0.6688  0.5777 -0.1173
    1SOL    MW4 5180   1.375   2.452   2.204 -0.1061  0.1788 -0.0958
    1SOL     OW 5181   1.350   2.720   2.337 -0.0245 -0.1857 -0.0361
    1SOL    HW2 5182   1.434   2.753   2.303  0.1305 -0.2001  0.3288
    1SOL    HW3 5183   1.346   2.630   2.307  0.1264 -0.2088  0.0131
    1SOL    MW4 5184   1.361   2.713   2.328  0.0159 -0.1905  0.0184
    1SOL     OW 5185   1.584   2.834   2.274  0.2316  0.0897  0.3572
    1SOL    HW2 5186   1.573   2.922   2.309 -0.1750 -0.0019  0.4524
    1SOL    HW3 5187   1.603   2.848   2.181 -1.7200  0.2073 -0.0507
    1SOL    MW4 5188   1.585   2.847   2.266 -0.0795  0.0930  0.3159
    1SOL     OW 5189   1.587   3.105   2.378 -0.1297 -0.5856 -0.4771
    1SOL    HW2 5190   1.578   3.094   2.472 -1.7425  0.5738 -0.4637
    1SOL    HW3 5191   1.504   3.144   2.350  1.1950  1.2929 -2.0013
    1SOL    MW4 5192   1.575   3.109   2.387 -0.1677 -0.1848 -0.6766
    1SOL     OW 5193   1.345   3.226   2.300 -0.0390 -0.1745  0.2352
    1SOL    HW2 5194   1.264   3.196   2.341 -0.2208  0.4575  0.3360
    1SOL    HW3 5195   1.326   3.226   2.206 -0.2778  0.3429  0.2844
    1SOL    MW4 5196   1.332   3.222   2.293 -0.0944 -0.0229  0.2549
    1SOL     OW 5197   1.314   3.489   2.390  0.4430  0.7181 -0.0020
    1SOL    HW2 5198   1.338   3.493   2.483  0.8205  1.6723 -0.1377
    1SOL    HW3 5199   1.333   3.399   2.365  0.3139  0.4414  0.8567
    1SOL    MW4 5200   1.319   3.478   2.399  0.4756  0.8075  0.0935
    1SOL     OW 5201   1.544   3.571   2.273 -0.4147 -0.4188  0.0269
    1SOL    HW2 5202   1.550   3.666   2.285  0.9473 -0.5929  0.8228
    1SOL    HW3 5203   1.456   3.548   2.303 -0.3411  0.4386  0.9056
    1SOL    MW4 5204   1.534   3.581   2.278 -0.2254 -0.3288  0.2482
    1SOL     OW 5205   1.577   3.841   2.316 -0.0658 -0.2770 -0.3162
    1SOL    HW2 5206   1.568   3.844   2.411 -1.2967  2.0771 -0.4686
    1SOL    HW3 5207   1.660   3.884   2.298  0.3797 -1.1166 -0.2954
    1SOL    MW4 5208   1.587   3.847   2.326 -0.1694 -0.0772 -0.3338
    1SOL     OW 5209   1.347   3.988   2.270  0.1802  0.2033 -0.3542
    1SOL    HW2 5210   1.425   3.933   2.283  0.3333  0.2420 -1.0792
    1SOL    HW3 5211   1.358   4.024   2.182  0.5516  2.1711  0.4883
    1SOL    MW4 5212   1.359   3.985   2.260  0.2495  0.4680 -0.3386
    1SOL     OW 5213   1.330   4.269   2.368 -0.3999  0.3596 -0.1004
    1SOL    HW2 5214   1.317   4.175   2.360  0.5992  0.1546  0.5751
    1SOL    HW3 5215   1.251   4.308   2.331  0.3891 -0.6828 -2.9949
    1SOL    MW4 5216   1.318   4.262   2.363 -0.1640  0.1950 -0.3932
    1SOL     OW 5217   1.564   4.347   2.248  0.4112  0.7251  0.5896
    1SOL    HW2 5218   1.483   4.313   2.287 -0.4206  0.7807 -1.0438
    1SOL    HW3 5219   1.568   4.438   2.275  1.3040  0.0496  2.8450
    1SOL    MW4 5220   1.554   4.355   2.256  0.4194  0.6433  0.6719
    1SOL     OW 5221   2.042   4.650   2.323  0.0074 -0.5178 -0.2492
    1SOL    HW2 5222   2.129   4.681   2.298 -0.0619 -0.1181 -0.0051
    1SOL    HW3 5223   2.040   4.558   2.298  1.1870 -1.0474  1.5219
    1SOL    MW4 5224   2.053   4.642   2.316  0.1543 -0.5345  0.0165
    1SOL     OW 5225   1.775   0.077   2.240  0.6256 -0.4943  0.0853
    1SOL    HW2 5226   1.757   0.155   2.292  1.1663  0.2315 -0.8020
    1SOL    HW3 5227   1.853   0.039   2.280  0.5288 -0.4181  0.3435
    1SOL    MW4 5228   1.783   0.082   2.252  0.6843 -0.3885  0.0021
    1SOL     OW 5229   1.752   0.320   2.359 -0.1666  0.5818 -0.0625
    1SOL    HW2 5230   1.765   0.345   2.450  2.4033 -0.6575 -0.0594
    1SOL    HW3 5231   1.834   0.345   2.315 -1.6032  1.7426 -2.1814
    1SOL    MW4 5232   1.765   0.327   2.365 -0.0172  0.5714 -0.3419
    1SOL     OW 5233   2.000   0.461   2.268 -0.3974  0.0214 -0.3833
    1SOL    HW2 5234   2.034   0.545   2.300 -1.8890  0.1616  0.8712
    1SOL    HW3 5235   1.993   0.472   2.173 -0.1195  1.1346 -0.2754
    1SOL    MW4 5236   2.004   0.473   2.260 -0.5574  0.1868 -0.2036
    1SOL     OW 5237   2.037   0.721   2.350 -0.2534 -0.4662  0.0970
    1SOL    HW2 5238   2.098   0.787   2.316  0.3126 -0.2011  1.5950
    1SOL    HW3 5239   1.951   0.762   2.341  0.1322  0.6890  1.4482
    1SOL    MW4 5240   2.034   0.735   2.345 -0.1278 -0.2789  0.4728
    1SOL     OW 5241   1.816   0.876   2.308  0.5832 -0.0443 -0.4794
    1SOL    HW2 5242   1.819   0.970   2.325  1.4345 -0.0393 -0.6471
    1SOL    HW3 5243   1.798   0.869   2.215 -0.3026 -0.0527 -0.3087
    1SOL    MW4 5244   1.814   0.887   2.298  0.5788 -0.0447 -0.4792
    1SOL     OW 5245   1.811   1.160   2.329  0.1319 -0.3678 -0.3249
    1SOL    HW2 5246   1.881   1.224   2.317  0.4193 -0.1430  2.2817
    1SOL    HW3 5247   1.733   1.203   2.293  0.7235  0.6262 -0.4448
    1SOL    MW4 5248   1.810   1.174   2.323  0.2480 -0.2071  0.0031
    1SOL     OW 5249   2.035   1.301   2.293  0.1813 -0.1225  0.0024
    1SOL    HW2 5250   2.027   1.387   2.334  0.8268 -0.2041  0.3006
    1SOL    HW3 5251   2.013   1.316   2.201  0.8101  0.4612 -0.0527
    1SOL    MW4 5252   2.031   1.314   2.286  0.3495 -0.0561  0.0346
    1SOL     OW 5253   2.021   1.559   2.359 -0.2401 -0.0447 -0.1734
    1SOL    HW2 5254   2.017   1.561   2.454  0.8548 -0.4012 -0.1114
    1SOL    HW3 5255   1.947   1.612   2.330 -0.2621  0.5035  0.8807
    1SOL    MW4 5256   2.011   1.566   2.368 -0.0987 -0.0193 -0.0265
    1SOL     OW 5257   1.816   1.693   2.227  0.1379 -0.1862  0.1092
    1SOL    HW2 5258   1.805   1.780   2.265 -0.6455 -0.6125  0.8888
    1SOL    HW3 5259   1.815   1.708   2.133 -0.1194  0.6423  0.2378
    1SOL    MW4 5260   1.814   1.706   2.220  0.0005 -0.1330  0.2289
    1SOL     OW 5261   1.766   1.948   2.366  0.2054 -0.0027 -0.1235
    1SOL    HW2 5262   1.780   1.928   2.459 -0.3478  0.2720  0.0208
    1SOL    HW3 5263   1.849   1.986   2.337  0.7058 -0.9675  0.0151
    1SOL    MW4 5264   1.779   1.950   2.375  0.1984 -0.0937 -0.0861
    1SOL     OW 5265   1.993   2.051   2.276  0.5797 -0.3642 -0.2739
    1SOL    HW2 5266   2.080   2.021   2.303  0.4631 -0.5205 -0.0754
    1SOL    HW3 5267   1.998   2.054   2.180  1.0999  0.5111 -0.2315
    1SOL    MW4 5268   2.005   2.047   2.267  0.6330 -0.2694 -0.2420
    1SOL     OW 5269   2.007   2.326   2.362  0.1864 -0.6378  0.6615
    1SOL    HW2 5270   2.087   2.367   2.331 -0.2297  0.3710  0.8987
    1SOL    HW3 5271   2.007   2.239   2.321 -0.4894  0.7359 -2.4356
    1SOL    MW4 5272   2.017   2.320   2.352  0.0422 -0.3235  0.2842
    1SOL     OW 5273   1.784   2.454   2.250 -0.2410  0.2322  0.4789
    1SOL    HW2 5274   1.860   2.407   2.283 -0.5914 -0.7872 -0.1489
    1SOL    HW3 5275   1.711   2.422   2.302 -0.4113  0.4006  0.3434
    1SOL    MW4 5276   1.785   2.444   2.261 -0.3097  0.1202  0.3781
    1SOL     OW 5277   1.796   2.697   2.385 -0.0915  0.2105 -0.0285
    1SOL    HW2 5278   1.793   2.613   2.338  1.4290 -0.5790  1.2386
    1SOL    HW3 5279   1.716   2.742   2.358  0.0043 -0.8471 -2.2030
    1SOL    MW4 5280   1.785   2.692   2.375  0.1217 -0.0334 -0.1483
    1SOL     OW 5281   2.007   2.832   2.249  0.1113  0.0568  0.1542
    1SOL    HW2 5282   2.084   2.796   2.293  1.3202 -0.7432 -2.5551
    1SOL    HW3 5283   1.933   2.791   2.294  1.3601 -2.2353  0.2199
    1SOL    MW4 5284   2.008   2.822   2.261  0.4354 -0.3510 -0.1945
    1SOL     OW 5285   2.034   3.080   2.349 -0.1695  0.0690 -0.0491
    1SOL    HW2 5286   2.111   3.125   2.315  0.5673  0.4342  2.0334
    1SOL    HW3 5287   2.036   2.993   2.307  1.1869  0.1960 -0.2656
    1SOL    MW4 5288   2.044   3.074   2.339  0.1068  0.1338  0.1972
    1SOL     OW 5289   1.821   3.204   2.254 -0.2565  0.3967 -0.4061
    1SOL    HW2 5290   1.897   3.158   2.288 -1.0110 -0.0482  0.7178
    1SOL    HW3 5291   1.747   3.169   2.304 -1.3096  0.2735 -1.9952
    1SOL    MW4 5292   1.821   3.194   2.265 -0.4951  0.3219 -0.4673
    1SOL     OW 5293   1.801   3.456   2.361  0.2307 -0.2972  0.3093
    1SOL    HW2 5294   1.786   3.370   2.320  0.5546  0.9131 -2.4483
    1SOL    HW3 5295   1.718   3.501   2.352  0.3561  0.0396  0.8581
    1SOL    MW4 5296   1.788   3.450   2.354  0.2899 -0.0932  0.0179
    1SOL     OW 5297   2.028   3.610   2.294 -0.1819 -0.1287 -0.2347
    1SOL    HW2 5298   1.950   3.558   2.317  0.6775 -1.3832 -0.1261
    1SOL    HW3 5299   2.034   3.601   2.199 -0.0181 -0.2349 -0.2128
    1SOL    MW4 5300   2.018   3.602   2.284 -0.0472 -0.3080 -0.2174
    1SOL     OW 5301   2.054   3.885   2.330  0.0590  0.2727  0.0329
    1SOL    HW2 5302   2.065   3.893   2.425  0.4511  2.2159 -0.1627
    1SOL    HW3 5303   2.047   3.791   2.315  2.8242 -0.2627  1.6948
    1SOL    MW4 5304   2.054   3.874   2.341  0.4756  0.4582  0.2265
    1SOL     OW 5305   1.813   3.961   2.253 -0.0727  0.2910 -0.3009
    1SOL    HW2 5306   1.898   3.945   2.292  0.9213  1.7194 -1.8181
    1SOL    HW3 5307   1.825   3.943   2.159 -1.2252  1.1908 -0.6373
    1SOL    MW4 5308   1.826   3.957   2.245 -0.0937  0.5982 -0.5453
    1SOL     OW 5309   1.779   4.219   2.354 -0.0004 -0.1073  0.0492
    1SOL    HW2 5310   1.770   4.129   2.322 -1.1422 -0.2933  0.8912
    1SOL    HW3 5311   1.703   4.265   2.318  1.7155  1.0924 -2.2176
    1SOL    MW4 5312   1.768   4.213   2.345  0.0753  0.0262 -0.1390
    1SOL     OW 5313   2.008   4.377   2.257 -0.1416 -0.2801  0.4620
    1SOL    HW2 5314   1.939   4.316   2.282 -0.2218 -0.0503  0.8122
    1SOL    HW3 5315   2.009   4.374   2.161  0.8087 -1.8667  0.5096
    1SOL    MW4 5316   1.999   4.369   2.247 -0.0269 -0.4587  0.5145
    1SOL     OW 5317   2.496   0.007   2.309  0.4012  0.2223  0.1485
    1SOL    HW2 5318   2.580   0.045   2.285  0.0307  0.4164 -0.8962
    1SOL    HW3 5319   2.500  -0.083   2.277 -0.3726  0.6966 -1.3413
    1SOL    MW4 5320   2.507   0.001   2.302  0.2506  0.3104 -0.1862
    1SOL     OW 5321   2.261   0.109   2.231 -0.2280  0.2627 -0.1612
    1SOL    HW2 5322   2.264   0.192   2.280 -1.8995 -0.3429  1.0118
    1SOL    HW3 5323   2.341   0.064   2.256 -0.4088  0.5472  0.9801
    1SOL    MW4 5324   2.272   0.114   2.241 -0.4725  0.2204  0.1440
    1SOL     OW 5325   2.234   0.338   2.386 -0.0678  0.2899  0.1799
    1SOL    HW2 5326   2.304   0.394   2.355 -0.1165  0.2490 -0.0037
    1SOL    HW3 5327   2.156   0.367   2.338  0.1258 -0.6582 -0.7234
    1SOL    MW4 5328   2.233   0.349   2.376 -0.0489  0.1594  0.0365
    1SOL     OW 5329   2.437   0.507   2.284 -0.0327 -0.3923 -0.4017
    1SOL    HW2 5330   2.524   0.467   2.286  0.4088  0.5766  0.1917
    1SOL    HW3 5331   2.421   0.527   2.192 -0.0199 -1.3982 -0.6302
    1SOL    MW4 5332   2.446   0.505   2.272  0.0274 -0.3972 -0.3538
    1SOL     OW 5333   2.441   0.776   2.363  0.5427 -0.2852 -0.2475
    1SOL    HW2 5334   2.523   0.806   2.326 -0.6551  1.3341 -1.6685
    1SOL    HW3 5335   2.440   0.682   2.348  2.0640 -0.2978 -0.3103
    1SOL    MW4 5336   2.451   0.768   2.356  0.5856 -0.0733 -0.4435
    1SOL     OW 5337   2.220   0.912   2.266  0.0628 -0.2790  0.1948
    1SOL    HW2 5338   2.230   0.997   2.307  0.8252  0.3587 -1.2676
    1SOL    HW3 5339   2.293   0.860   2.298 -0.0752 -0.1927  0.6423
    1SOL    MW4 5340   2.231   0.916   2.275  0.1450 -0.1834  0.0608
    1SOL     OW 5341   2.267   1.156   2.368 -0.3397  0.1940  0.2990
    1SOL    HW2 5342   2.343   1.191   2.321 -0.1968 -2.0744 -1.2854
    1SOL    HW3 5343   2.193   1.209   2.338 -0.0233 -0.3390 -1.4925
    1SOL    MW4 5344   2.267   1.167   2.358 -0.2792 -0.1756 -0.1464
    1SOL     OW 5345   2.494   1.287   2.252 -0.0854 -0.2581 -0.3200
    1SOL    HW2 5346   2.550   1.238   2.312  0.8479  0.1363 -0.8633
    1SOL    HW3 5347   2.494   1.376   2.286 -0.2239 -0.2157 -0.4322
    1SOL    MW4 5348   2.501   1.292   2.264  0.0193 -0.2004 -0.4065
    1SOL     OW 5349   2.475   1.547   2.366 -0.0664  0.1890  0.2446
    1SOL    HW2 5350   2.477   1.521   2.458  0.6683  0.3667  0.2845
    1SOL    HW3 5351   2.539   1.618   2.360  0.7487 -0.6136 -0.6376
    1SOL    MW4 5352   2.484   1.553   2.377  0.1380  0.1067  0.1338
    1SOL     OW 5353   2.258   1.690   2.291  0.0359  0.1505 -0.3130
    1SOL    HW2 5354   2.326   1.634   2.326 -0.3540 -0.6522 -0.8229
    1SOL    HW3 5355   2.177   1.643   2.307 -0.3482  0.8214 -0.2555
    1SOL    MW4 5356   2.256   1.677   2.297 -0.0663  0.1332 -0.3726
    1SOL     OW 5357   2.244   1.958   2.354  0.5906  0.2125  0.0998
    1SOL    HW2 5358   2.326   2.006   2.343  0.1440  0.7576 -0.8569
    1SOL    HW3 5359   2.259   1.875   2.308  0.7769  0.1076  0.3469
    1SOL    MW4 5360   2.257   1.953   2.347  0.5562  0.2705  0.0060
    1SOL     OW 5361   2.466   2.076   2.259  0.5280 -0.9639 -0.2921
    1SOL    HW2 5362   2.541   2.025   2.289  0.6762 -1.0487 -0.8011
    1SOL    HW3 5363   2.470   2.070   2.163  1.8167  1.8491 -0.4425
    1SOL    MW4 5364   2.476   2.068   2.250  0.7179 -0.6042 -0.3791
    1SOL     OW 5365   2.480   2.345   2.367  0.4562 -0.0061  0.0458
    1SOL    HW2 5366   2.541   2.396   2.314  0.5182 -0.3412 -0.2061
    1SOL    HW3 5367   2.477   2.260   2.324  0.4469 -0.2520  0.5356
    1SOL    MW4 5368   2.488   2.341   2.354  0.4630 -0.0827  0.0770
    1SOL     OW 5369   2.248   2.448   2.235  0.3233  0.3761  0.2241
    1SOL    HW2 5370   2.237   2.537   2.269 -0.4477 -0.5736  2.5449
    1SOL    HW3 5371   2.328   2.416   2.277  0.0639 -0.3566  0.1699
    1SOL    MW4 5372   2.257   2.456   2.245  0.1876  0.1543  0.5229
    1SOL     OW 5373   2.235   2.712   2.337  0.1886 -0.1155  0.0225
    1SOL    HW2 5374   2.251   2.710   2.431 -0.4653 -1.0440  0.1234
    1SOL    HW3 5375   2.311   2.758   2.300  0.5388  0.0787  0.9775
    1SOL    MW4 5376   2.247   2.718   2.344  0.1485 -0.2124  0.1619
    1SOL     OW 5377   2.445   2.857   2.241  0.5400  0.4309  0.1065
    1SOL    HW2 5378   2.521   2.806   2.271  1.5763  1.8029 -0.1507
    1SOL    HW3 5379   2.441   2.840   2.147 -0.5489 -1.0281  0.3964
    1SOL    MW4 5380   2.454   2.848   2.232  0.5329  0.4194  0.1106
    1SOL     OW 5381   2.434   3.078   2.390 -0.9316 -0.6035  0.0640
    1SOL    HW2 5382   2.513   3.132   2.382 -0.8423 -0.4114  2.0978
    1SOL    HW3 5383   2.453   3.001   2.337  0.5783 -0.4936  0.4093
    1SOL    MW4 5384   2.447   3.075   2.382 -0.7203 -0.5636  0.3779
    1SOL     OW 5385   2.248   3.231   2.230  0.7856 -0.4815 -0.0216
    1SOL    HW2 5386   2.267   3.313   2.275 -1.4659 -0.2136  0.4701
    1SOL    HW3 5387   2.323   3.175   2.251  2.0651  1.2188  0.1217
    1SOL    MW4 5388   2.261   3.234   2.238  0.6576 -0.2220  0.0622
    1SOL     OW 5389   2.257   3.473   2.368 -0.3195  0.1433 -0.3299
    1SOL    HW2 5390   2.260   3.478   2.463  2.0665  1.3309 -0.4374
    1SOL    HW3 5391   2.182   3.528   2.343  0.5073  1.7852  0.7424
    1SOL    MW4 5392   2.247   3.481   2.377  0.1042  0.5167 -0.2024
    1SOL     OW 5393   2.474   3.593   2.267 -0.2497  0.0410  0.3023
    1SOL    HW2 5394   2.481   3.680   2.307 -0.9620  0.5894 -0.7335
    1SOL    HW3 5395   2.402   3.551   2.315  0.5133 -0.2264  1.2335
    1SOL    MW4 5396   2.465   3.599   2.279 -0.2429  0.0780  0.2887
    1SOL     OW 5397   2.497   3.846   2.389  0.1854 -0.1633  0.2910
    1SOL    HW2 5398   2.494   3.852   2.485 -1.4612 -1.1614  0.3123
    1SOL    HW3 5399   2.426   3.903   2.360  0.5106 -0.0788 -0.3443
    1SOL    MW4 5400   2.487   3.855   2.398  0.0110 -0.2835  0.2100
    1SOL     OW 5401   2.301   4.019   2.243  0.5675 -0.0606 -0.4604
    1SOL    HW2 5402   2.292   4.113   2.260  0.4754 -0.0226 -0.7081
    1SOL    HW3 5403   2.217   3.982   2.269  0.8397 -0.1746  0.2782
    1SOL    MW4 5404   2.289   4.026   2.249  0.5913 -0.0706 -0.3955
    1SOL     OW 5405   2.269   4.292   2.322  0.0416  0.1245 -0.5822
    1SOL    HW2 5406   2.265   4.271   2.416  1.2808  2.1634 -0.0508
    1SOL    HW3 5407   2.185   4.334   2.304 -0.2049 -0.2828 -0.3950
    1SOL    MW4 5408   2.257   4.294   2.332  0.1726  0.3395 -0.4873
    1SOL     OW 5409   2.508   4.403   2.247 -0.0355 -0.0831 -0.0228
    1SOL    HW2 5410   2.578   4.356   2.293  0.1390  0.9702  0.8075
    1SOL    HW3 5411   2.427   4.362   2.276  0.1126  0.1847  0.7864
    1SOL    MW4 5412   2.507   4.392   2.257  0.0074  0.0911  0.1938
    1SOL     OW 5413   2.947   4.647   2.401 -0.6486  0.1588  0.2115
    1SOL    HW2 5414   3.021   4.681   2.351 -1.0310  1.4044  0.4842
    1SOL    HW3 5415   2.943   4.554   2.377  2.2679 -0.4125  1.8016
    1SOL    MW4 5416   2.956   4.639   2.391 -0.3145  0.2480  0.4573
    1SOL     OW 5417   2.754   0.123   2.277  0.1346 -0.1201  0.1676
    1SOL    HW2 5418   2.744   0.210   2.316  1.4688  0.2349 -0.2545
    1SOL    HW3 5419   2.828   0.084   2.324  0.7341 -0.3036 -0.8990
    1SOL    MW4 5420   2.763   0.129   2.288  0.3898 -0.0974 -0.0286
    1SOL     OW 5421   2.665   0.374   2.352  0.0003 -0.2505  0.5607
    1SOL    HW2 5422   2.659   0.387   2.447  1.5749  0.2581  0.5918
    1SOL    HW3 5423   2.749   0.412   2.327  0.0475 -1.2560 -0.8938
    1SOL    MW4 5424   2.675   0.380   2.361  0.2143 -0.3160  0.3729
    1SOL     OW 5425   2.904   0.492   2.254 -0.2459  0.1307 -0.3620
    1SOL    HW2 5426   2.925   0.580   2.286 -0.7882 -0.0113  0.3747
    1SOL    HW3 5427   2.890   0.504   2.160 -2.9146  1.3168  0.1373
    1SOL    MW4 5428   2.905   0.505   2.246 -0.6697  0.2684 -0.1988
    1SOL     OW 5429   2.924   0.745   2.347 -0.5072  0.5655 -0.0873
    1SOL    HW2 5430   2.924   0.745   2.443 -0.7051  0.5450 -0.0867
    1SOL    HW3 5431   2.838   0.781   2.324 -1.1967 -1.1730 -0.2574
    1SOL    MW4 5432   2.913   0.750   2.357 -0.6242  0.3334 -0.1097
    1SOL     OW 5433   2.682   0.874   2.285  0.1642  0.2214  0.0155
    1SOL    HW2 5434   2.692   0.962   2.323  1.8503  0.1286 -0.1715
    1SOL    HW3 5435   2.699   0.887   2.192  0.8137 -0.3681  0.0515
    1SOL    MW4 5436   2.685   0.887   2.278  0.4725  0.1314 -0.0043
    1SOL     OW 5437   2.699   1.126   2.391 -0.6099  0.0357 -0.2430
    1SOL    HW2 5438   2.695   1.129   2.487  1.3131 -1.6316 -0.0956
    1SOL    HW3 5439   2.762   1.194   2.368 -1.3934  0.7302 -0.3704
    1SOL    MW4 5440   2.707   1.135   2.401 -0.4594 -0.0927 -0.2403
    1SOL     OW 5441   2.881   1.290   2.278 -0.4797 -0.1421 -0.5312
    1SOL    HW2 5442   2.959   1.259   2.325 -0.0868  0.3919 -0.8327
    1SOL    HW3 5443   2.909   1.299   2.187 -1.3366 -1.5116 -0.9424
    1SOL    MW4 5444   2.895   1.287   2.272 -0.5405 -0.2524 -0.6249
    1SOL     OW 5445   2.908   1.558   2.372 -0.3149 -0.6810 -0.0861
    1SOL    HW2 5446   2.892   1.555   2.466  2.9541  0.2704  0.5588
    1SOL    HW3 5447   2.896   1.467   2.343 -2.3654 -0.7924  1.0399
    1SOL    MW4 5448   2.904   1.545   2.380 -0.1543 -0.5702  0.1476
    1SOL     OW 5449   2.687   1.719   2.294 -0.2291  0.3527  0.3388
    1SOL    HW2 5450   2.756   1.656   2.314  0.7252  1.7063  1.4097
    1SOL    HW3 5451   2.670   1.707   2.201  0.0773 -1.3427  0.4838
    1SOL    MW4 5452   2.694   1.709   2.284 -0.0627  0.3076  0.4992
    1SOL     OW 5453   2.705   1.992   2.362  0.0804  0.6727 -0.3372
    1SOL    HW2 5454   2.702   2.006   2.457  0.3474  0.6314 -0.3217
    1SOL    HW3 5455   2.710   1.897   2.351 -0.0380  0.6732 -0.3942
    1SOL    MW4 5456   2.705   1.981   2.373  0.0999  0.6673 -0.3426
    1SOL     OW 5457   2.901   2.098   2.229 -0.1740 -0.1934  0.1020
    1SOL    HW2 5458   2.978   2.058   2.268  0.0274  1.5255  1.5298
    1SOL    HW3 5459   2.827   2.056   2.271 -0.0330 -1.4529 -0.8722
    1SOL    MW4 5460   2.902   2.087   2.240 -0.1290 -0.1330  0.1616
    1SOL     OW 5461   2.897   2.378   2.369  0.6712  0.5925 -0.8139
    1SOL    HW2 5462   2.919   2.367   2.461 -0.5035  0.5445 -0.5332
    1SOL    HW3 5463   2.919   2.294   2.328 -1.6944 -0.4931  0.0128
    1SOL    MW4 5464   2.903   2.365   2.376  0.2041  0.4432 -0.6680
    1SOL     OW 5465   2.664   2.478   2.211  0.2269  0.1650  0.0679
    1SOL    HW2 5466   2.746   2.449   2.250 -1.0437 -0.6853  2.1648
    1SOL    HW3 5467   2.676   2.462   2.117  1.6322 -1.9827  0.5792
    1SOL    MW4 5468   2.677   2.472   2.203  0.2449 -0.2306  0.4120
    1SOL     OW 5469   2.669   2.730   2.332  0.4302 -0.1175 -0.6211
    1SOL    HW2 5470   2.757   2.766   2.340  0.6768 -0.5617 -1.3006
    1SOL    HW3 5471   2.681   2.645   2.289 -0.1939 -0.7917  0.4906
    1SOL    MW4 5472   2.682   2.723   2.327  0.3803 -0.2651 -0.5639
    1SOL     OW 5473   2.928   2.814   2.284 -0.3249 -0.3704 -0.4807
    1SOL    HW2 5474   2.904   2.901   2.315  0.4685 -0.5368  0.6451
    1SOL    HW3 5475   2.914   2.817   2.189 -1.0944  0.7144 -0.3398
    1SOL    MW4 5476   2.923   2.826   2.276 -0.3219 -0.2496 -0.3135
    1SOL     OW 5477   2.861   3.050   2.386 -0.2851 -0.1820  0.2952
    1SOL    HW2 5478   2.943   3.086   2.351 -0.4616 -0.2188 -0.1628
    1SOL    HW3 5479   2.794   3.080   2.325 -0.4530 -1.1813 -0.0185
    1SOL    MW4 5480   2.863   3.058   2.373 -0.3307 -0.3183  0.1934
    1SOL     OW 5481   2.644   3.224   2.268 -0.1148  0.0506 -0.5744
    1SOL    HW2 5482   2.671   3.312   2.295  2.7390 -1.0798  0.4691
    1SOL    HW3 5483   2.654   3.225   2.173 -0.3753  0.9403 -0.6019
    1SOL    MW4 5484   2.649   3.236   2.259  0.2272  0.0188 -0.4406
    1SOL     OW 5485   2.690   3.481   2.375  0.1846 -0.7653 -0.1318
    1SOL    HW2 5486   2.759   3.517   2.319 -0.4125 -0.5049 -0.6999
    1SOL    HW3 5487   2.610   3.522   2.344 -0.2393 -1.1215  0.4855
    1SOL    MW4 5488   2.689   3.491   2.363  0.0498 -0.7780 -0.1254
    1SOL     OW 5489   2.916   3.604   2.228  0.0144 -0.0764 -0.4082
    1SOL    HW2 5490   2.985   3.554   2.272 -0.7137 -1.2107 -0.5275
    1SOL    HW3 5491   2.912   3.687   2.276  1.3296 -0.0674 -0.2879
    1SOL    MW4 5492   2.925   3.608   2.240  0.0918 -0.2248 -0.4082
    1SOL     OW 5493   2.912   3.837   2.391  0.3398 -0.0293  0.3282
    1SOL    HW2 5494   2.926   3.846   2.485 -1.2568  0.9215  0.4920
    1SOL    HW3 5495   2.835   3.891   2.373  0.2380 -0.7297 -1.4117
    1SOL    MW4 5496   2.903   3.845   2.401  0.1159  0.0036  0.1202
    1SOL     OW 5497   2.711   4.000   2.312 -0.0823  0.2912 -0.1865
    1SOL    HW2 5498   2.631   3.953   2.335  0.6288 -0.0093  1.7768
    1SOL    HW3 5499   2.716   3.994   2.216 -1.5855 -0.9954 -0.2033
    1SOL    MW4 5500   2.701   3.993   2.302 -0.1869  0.0820  0.0706
    1SOL     OW 5501   2.696   4.278   2.401 -0.0617  0.3321 -0.1315
    1SOL    HW2 5502   2.673   4.268   2.493 -0.7311  2.8536  0.0126
    1SOL    HW3 5503   2.715   4.189   2.371  1.2620 -0.4027  2.7137
    1SOL    MW4 5504   2.696   4.265   2.409  0.0248  0.5674  0.2630
    1SOL     OW 5505   2.914   4.389   2.267 -0.2874 -0.2591 -0.2966
    1SOL    HW2 5506   2.971   4.315   2.290  0.9428  1.2346  1.6993
    1SOL    HW3 5507   2.832   4.372   2.313  0.8136  0.7410  2.1372
    1SOL    MW4 5508   2.911   4.377   2.276  0.0200  0.0696  0.2878
    1SOL     OW 5509   3.359   4.658   2.387 -0.2796  0.2855  0.3394
    1SOL    HW2 5510   3.380   4.651   2.480  1.0005  0.2186  0.0523
    1SOL    HW3 5511   3.434   4.705   2.349 -0.9745  0.6622 -0.5887
    1SOL    MW4 5512   3.372   4.664   2.394 -0.2024  0.3266  0.1791
    1SOL     OW 5513   3.155   0.146   2.264  0.1379  0.1503 -0.6813
    1SOL    HW2 5514   3.149   0.228   2.313  1.5412  1.5318 -2.7807
    1SOL    HW3 5515   3.220   0.094   2.311 -1.1997 -0.0703  1.0105
    1SOL    MW4 5516   3.163   0.150   2.277  0.1466  0.3034 -0.7350
    1SOL     OW 5517   3.136   0.386   2.378 -0.2386 -0.3589  0.1795
    1SOL    HW2 5518   3.210   0.440   2.350  0.4232 -0.9475  0.7826
    1SOL    HW3 5519   3.062   0.419   2.327  0.4276  0.2624 -0.3997
    1SOL    MW4 5520   3.136   0.397   2.368 -0.0632 -0.3546  0.1829
    1SOL     OW 5521   3.366   0.525   2.307 -0.0461  0.0624  0.5636
    1SOL    HW2 5522   3.432   0.468   2.345 -1.1424 -0.9995  0.9127
    1SOL    HW3 5523   3.385   0.524   2.213  1.3857  1.0266  0.8349
    1SOL    MW4 5524   3.377   0.517   2.299 -0.0017  0.0496  0.6456
    1SOL     OW 5525   3.351   0.792   2.391  0.0737  0.0891  0.4712
    1SOL    HW2 5526   3.425   0.839   2.352 -0.8216 -0.3585 -1.8672
    1SOL    HW3 5527   3.359   0.703   2.356 -2.1432  0.3059 -0.6712
    1SOL    MW4 5528   3.362   0.786   2.381 -0.3371  0.0587  0.0119
    1SOL     OW 5529   3.139   0.937   2.314 -0.3104 -0.0661 -0.4030
    1SOL    HW2 5530   3.218   0.889   2.336  0.2439  0.7255 -0.6248
    1SOL    HW3 5531   3.069   0.872   2.316  0.2582 -0.6490  0.3588
    1SOL    MW4 5532   3.140   0.922   2.317 -0.1624 -0.0385 -0.3316
    1SOL     OW 5533   3.106   1.214   2.401  0.4196  0.4034 -0.0574
    1SOL    HW2 5534   3.185   1.262   2.375 -0.0666  1.9075  1.1336
    1SOL    HW3 5535   3.121   1.125   2.371  1.9804  0.9803 -1.0660
    1SOL    MW4 5536   3.119   1.209   2.394  0.5615  0.6779 -0.0331
    1SOL     OW 5537   3.339   1.321   2.264 -0.0201 -0.1731  0.0421
    1SOL    HW2 5538   3.416   1.266   2.280  0.8416  0.5009 -1.6736
    1SOL    HW3 5539   3.362   1.407   2.299 -0.3765 -0.2306  0.4209
    1SOL    MW4 5540   3.352   1.325   2.271  0.0467 -0.0917 -0.1345
    1SOL     OW 5541   3.379   1.563   2.386  0.1490  0.2896 -0.4043
    1SOL    HW2 5542   3.382   1.557   2.482  0.0229  0.7471 -0.3711
    1SOL    HW3 5543   3.306   1.622   2.368 -0.0856 -0.1189 -0.7975
    1SOL    MW4 5544   3.370   1.570   2.396  0.1013  0.2960 -0.4518
    1SOL     OW 5545   3.155   1.692   2.286 -0.4680  0.1041  0.1805
    1SOL    HW2 5546   3.133   1.783   2.306  1.4467  0.5379  0.3726
    1SOL    HW3 5547   3.089   1.641   2.334 -0.4193  1.3258  1.6019
    1SOL    MW4 5548   3.143   1.698   2.295 -0.2089  0.3225  0.3932
    1SOL     OW 5549   3.122   1.959   2.337 -0.2626  0.1549  0.1688
    1SOL    HW2 5550   3.120   1.975   2.431  0.2382 -0.9489  0.3678
    1SOL    HW3 5551   3.209   1.987   2.309  0.1203 -0.9112  0.2854
    1SOL    MW4 5552   3.133   1.965   2.345 -0.1459 -0.1314  0.2103
    1SOL     OW 5553   3.377   2.067   2.252 -0.6853 -0.0974 -0.2144
    1SOL    HW2 5554   3.452   2.029   2.299 -1.1699  0.7883  1.3233
    1SOL    HW3 5555   3.400   2.060   2.160  1.0271 -0.3932  0.2200
    1SOL    MW4 5556   3.390   2.061   2.246 -0.5236 -0.0196  0.0458
    1SOL     OW 5557   3.351   2.335   2.356 -0.0216 -0.7382  0.0154
    1SOL    HW2 5558   3.269   2.380   2.335  0.8638  1.0305  0.2608
    1SOL    HW3 5559   3.336   2.244   2.329 -1.5461 -0.1280 -1.2733
    1SOL    MW4 5560   3.338   2.329   2.350 -0.1061 -0.4246 -0.1221
    1SOL     OW 5561   3.143   2.482   2.274 -0.0943  0.0149 -0.0005
    1SOL    HW2 5562   3.158   2.566   2.317  0.0948 -0.2311  0.4082
    1SOL    HW3 5563   3.060   2.451   2.310 -0.4023  0.2477 -0.5010
    1SOL    MW4 5564   3.134   2.489   2.284 -0.1101  0.0129 -0.0126
    1SOL     OW 5565   3.193   2.729   2.388 -0.2867 -0.5285  0.2604
    1SOL    HW2 5566   3.176   2.700   2.478 -3.0324  0.2989  0.0327
    1SOL    HW3 5567   3.113   2.773   2.361  1.2291  0.9905 -1.9253
    1SOL    MW4 5568   3.180   2.731   2.397 -0.4489 -0.2191 -0.0582
    1SOL     OW 5569   3.408   2.857   2.275  0.2324  0.6584  0.1866
    1SOL    HW2 5570   3.416   2.947   2.306 -1.0546  1.5921 -2.1298
    1SOL    HW3 5571   3.339   2.819   2.329 -0.3647  1.5547  0.0528
    1SOL    MW4 5572   3.400   2.864   2.286 -0.0165  0.8998 -0.1369
    1SOL     OW 5573   3.371   3.126   2.357 -0.2455 -0.0227  0.1666
    1SOL    HW2 5574   3.432   3.166   2.295  0.6919 -2.1540 -0.3338
    1SOL    HW3 5575   3.285   3.141   2.320  0.3153 -1.4198 -1.7619
    1SOL    MW4 5576   3.368   3.133   2.344 -0.0479 -0.4883 -0.1535
    1SOL     OW 5577   3.090   3.161   2.256 -0.0216  0.0052 -0.0447
    1SOL    HW2 5578   3.101   3.250   2.289  1.0901 -0.4242  0.7721
    1SOL    HW3 5579   3.084   3.171   2.161 -0.8453  1.0286  0.1062
    1SOL    MW4 5580   3.090   3.174   2.248  0.0165  0.0834  0.0827
    1SOL     OW 5581   3.104   3.431   2.335  0.3660  0.3054  0.2890
    1SOL    HW2 5582   3.075   3.458   2.422 -0.9793  1.8309 -0.6170
    1SOL    HW3 5583   3.193   3.467   2.327  0.3089  0.5743  0.8517
    1SOL    MW4 5584   3.112   3.439   2.345  0.1810  0.5422  0.2439
    1SOL     OW 5585   3.330   3.587   2.262  0.2562 -0.8532  0.2376
    1SOL    HW2 5586   3.414   3.546   2.282  0.1537 -0.8697  0.6561
    1SOL    HW3 5587   3.332   3.603   2.168  1.9910  1.9618  0.6986
    1SOL    MW4 5588   3.341   3.584   2.252  0.4718 -0.4840  0.3536
    1SOL     OW 5589   3.332   3.849   2.370  0.3025 -0.3667 -0.3144
    1SOL    HW2 5590   3.409   3.887   2.329  0.2333  0.9873  0.7880
    1SOL    HW3 5591   3.326   3.761   2.333 -0.2368  1.0570 -3.8453
    1SOL    MW4 5592   3.341   3.842   2.360  0.2222 -0.0005 -0.6347
    1SOL     OW 5593   3.105   3.990   2.266  0.2062  0.2336  0.4336
    1SOL    HW2 5594   3.188   3.955   2.300  0.8143 -0.4799 -1.7209
    1SOL    HW3 5595   3.039   3.931   2.302  0.8374 -0.5513  0.3274
    1SOL    MW4 5596   3.108   3.977   2.275  0.3698  0.0358  0.1354
    1SOL     OW 5597   3.147   4.246   2.367  0.8228  0.0466 -0.0825
    1SOL    HW2 5598   3.215   4.296   2.322  1.8315 -0.8391  0.4454
    1SOL    HW3 5599   3.148   4.160   2.326 -0.9810  0.4623 -1.0498
    1SOL    MW4 5600   3.156   4.241   2.356  0.7179 -0.0153 -0.1404
    1SOL     OW 5601   3.364   4.410   2.275  0.1166 -0.2848 -0.2067
    1SOL    HW2 5602   3.367   4.498   2.313 -1.1250 -0.2681 -0.1439
    1SOL    HW3 5603   3.364   4.425   2.180  1.0709 -0.2618 -0.2089
    1SOL    MW4 5604   3.365   4.424   2.267  0.0784 -0.2789 -0.1988
    1SOL     OW 5605   3.794   4.636   2.400 -0.3176  0.1109 -0.4512
    1SOL    HW2 5606   3.793   4.637   2.496 -0.5316 -1.1995 -0.4219
    1SOL    HW3 5607   3.873   4.683   2.376 -0.5429  0.9223  0.3507
    1SOL    MW4 5608   3.804   4.642   2.410 -0.3753  0.0448 -0.3414
    1SOL     OW 5609   3.589   0.101   2.268 -0.1660 -0.7440  0.2399
    1SOL    HW2 5610   3.588   0.191   2.298 -0.7592 -0.0706 -1.7502
    1SOL    HW3 5611   3.656   0.058   2.323  0.6868  1.0753  0.6455
    1SOL    MW4 5612   3.598   0.107   2.279 -0.1318 -0.4151  0.0308
    1SOL     OW 5613   3.573   0.363   2.365  0.2685  0.6332  0.2263
    1SOL    HW2 5614   3.562   0.357   2.460  1.1205  1.8844  0.4149
    1SOL    HW3 5615   3.648   0.420   2.353 -0.0405  0.7556 -1.2201
    1SOL    MW4 5616   3.581   0.369   2.376  0.3400  0.8144  0.0603
    1SOL     OW 5617   3.794   0.506   2.317  0.5227  0.1686 -0.3508
    1SOL    HW2 5618   3.797   0.602   2.326  0.4238  0.0778  0.7282
    1SOL    HW3 5619   3.800   0.491   2.223  0.4594  1.2454 -0.5395
    1SOL    MW4 5620   3.795   0.517   2.306  0.5012  0.2987 -0.2337
    1SOL     OW 5621   3.816   0.773   2.321 -0.2129  0.8248 -0.1748
    1SOL    HW2 5622   3.805   0.770   2.416  0.7340 -1.6189 -0.1245
    1SOL    HW3 5623   3.901   0.816   2.309  0.4603 -0.4129  0.1396
    1SOL    MW4 5624   3.826   0.778   2.332  0.0010  0.3391 -0.1266
    1SOL     OW 5625   3.583   0.907   2.248  0.4209 -0.2388  0.5404
    1SOL    HW2 5626   3.668   0.879   2.281  0.6485 -1.4323 -0.9624
    1SOL    HW3 5627   3.590   0.896   2.153 -1.2525  0.0852  0.3641
    1SOL    MW4 5628   3.595   0.902   2.240  0.2303 -0.3535  0.3190
    1SOL     OW 5629   3.582   1.173   2.346  0.2971 -0.2599 -0.2094
    1SOL    HW2 5630   3.570   1.183   2.440  0.4149  1.7501 -0.3845
    1SOL    HW3 5631   3.568   1.080   2.330 -1.1224 -0.3907  1.5943
    1SOL    MW4 5632   3.579   1.162   2.356  0.1252 -0.0118  0.0055
    1SOL     OW 5633   3.813   1.286   2.263 -0.3726  0.0051  0.0849
    1SOL    HW2 5634   3.788   1.375   2.288 -1.9489 -0.3224 -0.2923
    1SOL    HW3 5635   3.740   1.231   2.293  0.6461 -1.1810  0.4372
    1SOL    MW4 5636   3.800   1.290   2.271 -0.4466 -0.1945  0.0815
    1SOL     OW 5637   3.803   1.544   2.363 -0.3204  0.2421 -0.1055
    1SOL    HW2 5638   3.807   1.534   2.458 -1.2538 -0.2989 -0.1093
    1SOL    HW3 5639   3.736   1.610   2.349  1.3343  1.8988 -0.3193
    1SOL    MW4 5640   3.795   1.551   2.373 -0.2253  0.3892 -0.1342
    1SOL     OW 5641   3.592   1.712   2.242  0.1470  0.3860  0.3875
    1SOL    HW2 5642   3.517   1.667   2.281  0.0540  0.3664  0.1828
    1SOL    HW3 5643   3.589   1.689   2.150 -0.1169  1.1166  0.2086
    1SOL    MW4 5644   3.582   1.703   2.235  0.0999  0.4799  0.3369
    1SOL     OW 5645   3.588   1.957   2.379 -0.0328 -0.4266  0.0184
    1SOL    HW2 5646   3.652   2.016   2.340 -0.2246 -0.3238 -0.1403
    1SOL    HW3 5647   3.596   1.876   2.327 -1.3901  0.2303 -1.2698
    1SOL    MW4 5648   3.598   1.954   2.367 -0.2372 -0.3265 -0.1724
    1SOL     OW 5649   3.823   2.083   2.271 -0.3139  0.3458 -0.4764
    1SOL    HW2 5650   3.885   2.012   2.289 -0.2080  0.5383 -0.0584
    1SOL    HW3 5651   3.829   2.098   2.177 -0.6430 -0.4833 -0.6299
    1SOL    MW4 5652   3.832   2.076   2.261 -0.3433  0.2615 -0.4416
    1SOL     OW 5653   3.841   2.318   2.402  0.2941  0.1780 -0.3040
    1SOL    HW2 5654   3.767   2.364   2.363  1.5149  0.6647 -2.0787
    1SOL    HW3 5655   3.844   2.233   2.357  0.3997 -0.1187  0.2498
    1SOL    MW4 5656   3.832   2.313   2.391  0.4687  0.2034 -0.4654
    1SOL     OW 5657   3.607   2.437   2.277  0.2297 -0.3112 -0.1329
    1SOL    HW2 5658   3.513   2.417   2.274  0.4625 -1.5159  0.5577
    1SOL    HW3 5659   3.631   2.449   2.185 -0.0956 -2.3730 -0.5145
    1SOL    MW4 5660   3.597   2.436   2.264  0.2174 -0.7420 -0.0925
    1SOL     OW 5661   3.604   2.683   2.382  0.3422 -0.3417 -0.6573
    1SOL    HW2 5662   3.618   2.595   2.345 -2.4455 -0.8681 -0.5301
    1SOL    HW3 5663   3.528   2.717   2.334  0.5396  1.4604  0.2825
    1SOL    MW4 5664   3.596   2.676   2.371  0.0005 -0.1733 -0.5167
    1SOL     OW 5665   3.798   2.838   2.267 -0.4721  0.0421  0.2476
    1SOL    HW2 5666   3.792   2.921   2.315 -0.8108 -0.4071  0.9922
    1SOL    HW3 5667   3.721   2.789   2.296 -0.3386 -0.4772 -0.2901
    1SOL    MW4 5668   3.787   2.843   2.277 -0.4995 -0.0858  0.2747
    1SOL     OW 5669   3.795   3.087   2.374  0.0543 -0.4518 -0.0951
    1SOL    HW2 5670   3.784   3.100   2.468 -0.9673  1.4256 -0.4464
    1SOL    HW3 5671   3.874   3.137   2.352  0.3099 -0.9143 -0.2230
    1SOL    MW4 5672   3.804   3.096   2.384 -0.0467 -0.2651 -0.1583
    1SOL     OW 5673   3.588   3.229   2.220  0.3173  0.4182  0.2319
    1SOL    HW2 5674   3.591   3.312   2.267 -0.0200 -0.1075  1.1899
    1SOL    HW3 5675   3.664   3.180   2.253 -0.2247 -0.1621  0.6441
    1SOL    MW4 5676   3.598   3.233   2.231  0.2010  0.2725  0.4125
    1SOL     OW 5677   3.574   3.476   2.332 -0.1199  0.6086 -0.1361
    1SOL    HW2 5678   3.539   3.481   2.421 -0.2328 -0.4927 -0.1163
    1SOL    HW3 5679   3.656   3.525   2.336  1.0755 -1.4794  1.1674
    1SOL    MW4 5680   3.580   3.483   2.344  0.0231  0.1881  0.0384
    1SOL     OW 5681   3.808   3.621   2.296 -0.2103 -0.1853  0.2914
    1SOL    HW2 5682   3.810   3.706   2.341 -0.3348  0.9829 -1.8555
    1SOL    HW3 5683   3.803   3.643   2.203 -1.4399 -2.5719 -0.2406
    1SOL    MW4 5684   3.808   3.635   2.290 -0.3889 -0.3457 -0.0620
    1SOL     OW 5685   3.764   3.855   2.415 -0.3315 -0.0810  0.3475
    1SOL    HW2 5686   3.760   3.864   2.510  0.1801  0.9411  0.2860
    1SOL    HW3 5687   3.844   3.900   2.390  0.1872 -1.4111 -0.4579
    1SOL    MW4 5688   3.774   3.862   2.424 -0.1957 -0.1216  0.2329
    1SOL     OW 5689   3.561   4.002   2.250  0.3313  0.2033  0.4287
    1SOL    HW2 5690   3.561   4.088   2.293 -1.3545  0.0920  0.6960
    1SOL    HW3 5691   3.632   3.954   2.292  0.5193  1.0654  1.1156
    1SOL    MW4 5692   3.570   4.007   2.261  0.1338  0.3023  0.5546
    1SOL     OW 5693   3.580   4.249   2.363 -0.0633  0.0098  0.4290
    1SOL    HW2 5694   3.651   4.287   2.311  0.5057 -0.6392  0.7290
    1SOL    HW3 5695   3.510   4.315   2.358  0.5024  0.5961  0.0259
    1SOL    MW4 5696   3.581   4.263   2.355  0.0865  0.0024  0.4156
    1SOL     OW 5697   3.800   4.389   2.259 -0.2538 -0.2720 -0.4629
    1SOL    HW2 5698   3.870   4.342   2.303  1.3983  1.4040 -1.2077
    1SOL    HW3 5699   3.793   4.472   2.307  0.6377  1.0038 -2.4303
    1SOL    MW4 5700   3.808   4.394   2.271  0.0818  0.1173 -0.8206
    1SOL     OW 5701   4.228   4.638   2.346 -0.4931 -0.4454 -0.6717
    1SOL    HW2 5702   4.228   4.644   2.442  0.6838 -3.1549 -0.4733
    1SOL    HW3 5703   4.312   4.674   2.320 -0.0780 -1.3150 -0.5531
    1SOL    MW4 5704   4.239   4.644   2.355 -0.2832 -0.9176 -0.6297
    1SOL     OW 5705   3.990   0.120   2.274  0.0791  0.3182 -0.0397
    1SOL    HW2 5706   3.998   0.214   2.286 -0.5930  0.2696  0.8285
    1SOL    HW3 5707   4.072   0.084   2.306 -0.2746  0.4882  1.0709
    1SOL    MW4 5708   4.002   0.127   2.280 -0.0563  0.3342  0.2210
    1SOL     OW 5709   4.031   0.379   2.348  0.2699  0.4694 -0.0461
    1SOL    HW2 5710   4.099   0.431   2.305 -0.6165  1.1039 -0.7101
    1SOL    HW3 5711   3.950   0.429   2.334 -0.6452 -1.2211 -0.9474
    1SOL    MW4 5712   4.029   0.392   2.340  0.0319  0.3301 -0.2527
    1SOL     OW 5713   4.238   0.508   2.234 -0.1747  0.1919 -0.1088
    1SOL    HW2 5714   4.252   0.595   2.272 -1.7407  0.2389  0.3629
    1SOL    HW3 5715   4.317   0.459   2.258 -0.5076  0.6450  2.0224
    1SOL    MW4 5716   4.251   0.513   2.243 -0.4253  0.2580  0.2346
    1SOL     OW 5717   4.282   0.740   2.361 -0.1797  0.1142  0.0945
    1SOL    HW2 5718   4.204   0.784   2.326 -0.1440 -0.3760 -0.6066
    1SOL    HW3 5719   4.354   0.773   2.308  0.3269  1.8019  1.8034
    1SOL    MW4 5720   4.281   0.750   2.349 -0.1078  0.2723  0.2272
    1SOL     OW 5721   4.063   0.893   2.247  0.1454  0.1135 -0.3245
    1SOL    HW2 5722   4.063   0.986   2.266 -0.4608  0.1320 -0.3903
    1SOL    HW3 5723   4.065   0.888   2.152  1.3324  0.0431 -0.3005
    1SOL    MW4 5724   4.063   0.904   2.237  0.2222  0.1067 -0.3300
    1SOL     OW 5725   4.050   1.162   2.344  0.2884  0.2368  0.3940
    1SOL    HW2 5726   4.047   1.161   2.440  2.7646 -0.3475  0.4898
    1SOL    HW3 5727   3.978   1.220   2.319 -1.7200 -1.2014  2.5146
    1SOL    MW4 5728   4.040   1.170   2.353  0.3500 -0.0302  0.6864
    1SOL     OW 5729   4.288   1.257   2.251  0.1877 -0.0672  0.3920
    1SOL    HW2 5730   4.206   1.225   2.288  0.4892  0.0591  1.1853
    1SOL    HW3 5731   4.355   1.199   2.287  0.2787 -1.2381 -1.6014
    1SOL    MW4 5732   4.286   1.245   2.261  0.2394 -0.2050  0.2337
    1SOL     OW 5733   4.229   1.501   2.377 -0.3370 -0.2289 -0.1740
    1SOL    HW2 5734   4.252   1.426   2.321  0.8745  0.2470 -0.3235
    1SOL    HW3 5735   4.297   1.566   2.360  0.2268 -0.1872  2.0768
    1SOL    MW4 5736   4.241   1.499   2.367 -0.1030 -0.1607  0.1032
    1SOL     OW 5737   4.034   1.631   2.233  0.2636  0.5367 -0.2624
    1SOL    HW2 5738   4.095   1.584   2.291 -0.4476  0.8186  0.7220
    1SOL    HW3 5739   3.947   1.607   2.265 -0.1835 -0.5528 -2.2064
    1SOL    MW4 5740   4.031   1.622   2.245  0.1106  0.4302 -0.3891
    1SOL     OW 5741   4.008   1.894   2.332  0.1938  0.1021 -0.4281
    1SOL    HW2 5742   4.003   1.882   2.427  0.5105 -0.5745 -0.4958
    1SOL    HW3 5743   4.016   1.806   2.297  0.3351  0.3678 -1.0706
    1SOL    MW4 5744   4.008   1.881   2.340  0.2542  0.0478 -0.5219
    1SOL     OW 5745   4.230   2.033   2.255  0.0995  0.1140  0.3407
    1SOL    HW2 5746   4.235   2.120   2.294  1.9856 -0.9010  2.5607
    1SOL    HW3 5747   4.154   1.992   2.297 -0.1511  0.3370  0.0993
    1SOL    MW4 5748   4.221   2.039   2.266  0.3147  0.0095  0.6018
    1SOL     OW 5749   4.239   2.296   2.316 -0.4171 -0.1013 -0.3522
    1SOL    HW2 5750   4.165   2.355   2.303 -0.8777 -0.9320 -1.5769
    1SOL    HW3 5751   4.316   2.350   2.296 -0.8193  0.1724 -1.1868
    1SOL    MW4 5752   4.240   2.311   2.311 -0.5307 -0.1748 -0.6239
    1SOL     OW 5753   4.033   2.477   2.279  0.0492  0.0796  0.2092
    1SOL    HW2 5754   4.043   2.567   2.308 -0.2754  0.2620 -0.2425
    1SOL    HW3 5755   3.966   2.440   2.336 -0.1278  0.2517  0.1127
    1SOL    MW4 5756   4.025   2.484   2.290 -0.0167  0.1264  0.1371
    1SOL     OW 5757   4.037   2.737   2.368  0.2169  0.5474  0.1537
    1SOL    HW2 5758   4.028   2.729   2.463  0.5280 -1.7768  0.0206
    1SOL    HW3 5759   3.958   2.782   2.340  0.0153  1.0494  1.4825
    1SOL    MW4 5760   4.026   2.742   2.377  0.2308  0.3068  0.3114
    1SOL     OW 5761   4.286   2.862   2.258 -0.2690 -0.2159 -0.4070
    1SOL    HW2 5762   4.209   2.818   2.293  0.0251 -0.2195  0.2279
    1SOL    HW3 5763   4.360   2.815   2.295  0.0442  0.2350 -0.4560
    1SOL    MW4 5764   4.285   2.850   2.267 -0.1893 -0.1566 -0.3297
    1SOL     OW 5765   4.237   3.110   2.386 -0.0667 -0.1487  0.4192
    1SOL    HW2 5766   4.252   3.021   2.354  0.3694  0.4986 -1.2106
    1SOL    HW3 5767   4.321   3.154   2.375  0.2594 -0.0608  3.0258
    1SOL    MW4 5768   4.250   3.104   2.380  0.0343 -0.0517  0.5479
    1SOL     OW 5769   4.010   3.224   2.276 -0.3021 -0.2477 -0.3327
    1SOL    HW2 5770   4.010   3.313   2.311 -0.6520 -0.2640 -0.2932
    1SOL    HW3 5771   4.090   3.185   2.311  0.7237  0.5784 -1.7130
    1SOL    MW4 5772   4.021   3.231   2.285 -0.2131 -0.1407 -0.5097
    1SOL     OW 5773   4.015   3.471   2.394  0.4337 -0.1100  0.0610
    1SOL    HW2 5774   4.088   3.511   2.348  0.5947  0.4052  0.7627
    1SOL    HW3 5775   3.937   3.514   2.359  0.4575 -0.6771 -0.7030
    1SOL    MW4 5776   4.014   3.482   2.383  0.4587 -0.1168  0.0527
    1SOL     OW 5777   4.265   3.609   2.301  0.7931 -0.2274 -0.2112
    1SOL    HW2 5778   4.248   3.692   2.345  1.1411 -1.1357  1.6776
    1SOL    HW3 5779   4.265   3.631   2.208 -0.4337  1.6378  0.2039
    1SOL    MW4 5780   4.263   3.623   2.294  0.6771 -0.1011  0.0927
    1SOL     OW 5781   4.249   3.886   2.373  0.2370  0.2849 -0.1746
    1SOL    HW2 5782   4.279   3.908   2.461  0.7626 -0.5715 -0.1297
    1SOL    HW3 5783   4.317   3.920   2.315 -0.1317  0.8876 -0.2544
    1SOL    MW4 5784   4.262   3.893   2.377  0.2580  0.2515 -0.1793
    1SOL     OW 5785   3.997   3.969   2.284 -0.8380  0.4244  0.5665
    1SOL    HW2 5786   4.075   3.922   2.314 -0.6580  1.2156  1.3773
    1SOL    HW3 5787   4.016   3.995   2.194 -0.4946 -0.0927  0.4925
    1SOL    MW4 5788   4.010   3.967   2.276 -0.7691  0.4606  0.6638
    1SOL     OW 5789   4.022   4.242   2.349  0.5548  0.0406 -0.0229
    1SOL    HW2 5790   4.086   4.294   2.301  0.4460 -0.4494 -0.6967
    1SOL    HW3 5791   4.037   4.152   2.320  0.5795 -0.2741  0.9497
    1SOL    MW4 5792   4.032   4.237   2.339  0.5436 -0.0653  0.0165
    1SOL     OW 5793   4.222   4.396   2.231  0.0583  0.0320 -0.3436
    1SOL    HW2 5794   4.230   4.481   2.274 -1.0281  0.1992 -0.4628
    1SOL    HW3 5795   4.283   4.340   2.279  1.3486  1.0489 -0.7406
    1SOL    MW4 5796   4.231   4.400   2.243  0.0854  0.1884 -0.4117
    1SOL     OW 5797   0.196   4.614   2.584  0.6712  0.1175 -0.1118
    1SOL    HW2 5798   0.191   4.524   2.614 -1.4725  0.2088 -0.1608
    1SOL    HW3 5799   0.119   4.657   2.622  0.9627  1.6076 -1.1594
    1SOL    MW4 5800   0.186   4.608   2.593  0.4268  0.3262 -0.2561
    1SOL     OW 5801   4.469   0.058   2.722 -0.1771  0.0567 -0.2878
    1SOL    HW2 5802   4.482   0.081   2.814 -2.2918 -0.0189  0.0563
    1SOL    HW3 5803   4.461   0.142   2.677 -0.5748  0.0803 -0.1751
    1SOL    MW4 5804   4.470   0.072   2.729 -0.5083  0.0498 -0.2272
    1SOL     OW 5805   4.476   0.311   2.597  0.3861 -0.5615 -0.1585
    1SOL    HW2 5806   4.546   0.370   2.627 -0.5784  0.6984 -0.3439
    1SOL    HW3 5807   4.464   0.332   2.505 -0.8210 -0.1521  0.0768
    1SOL    MW4 5808   4.483   0.322   2.589  0.0997 -0.3412 -0.1516
    1SOL     OW 5809   0.187   0.475   2.697 -0.6222  0.0400 -0.0224
    1SOL    HW2 5810   0.207   0.481   2.790 -1.0413 -0.2468  0.0842
    1SOL    HW3 5811   0.269   0.446   2.657 -1.0438 -1.9347  0.5155
    1SOL    MW4 5812   0.200   0.472   2.704 -0.7331 -0.2583  0.0625
    1SOL     OW 5813   0.146   0.723   2.579 -0.4353  0.0685  0.1191
    1SOL    HW2 5814   0.233   0.761   2.589 -0.8991  1.1536  0.1006
    1SOL    HW3 5815   0.154   0.634   2.614  1.0538 -0.3632 -1.2840
    1SOL    MW4 5816   0.158   0.716   2.585 -0.3000  0.1547 -0.0684
    1SOL     OW 5817   4.447   0.830   2.768  0.4252  0.4589  0.1734
    1SOL    HW2 5818   4.372   0.800   2.717 -0.5277 -0.0683  1.8601
    1SOL    HW3 5819   4.523   0.795   2.722 -0.5232 -1.9423  0.3831
    1SOL    MW4 5820   4.447   0.822   2.755  0.1740  0.0725  0.4234
    1SOL     OW 5821   4.481   1.090   2.642 -0.1244 -0.0886  0.4254
    1SOL    HW2 5822   4.553   1.126   2.694  0.5102 -0.8394  0.0760
    1SOL    HW3 5823   4.459   1.008   2.687 -0.8211  0.1822  0.5797
    1SOL    MW4 5824   4.488   1.084   2.655 -0.1326 -0.1519  0.3994
    1SOL     OW 5825   0.199   1.238   2.747  0.1178  0.1844  0.2071
    1SOL    HW2 5826   0.281   1.203   2.712 -0.1116  1.3331 -1.5575
    1SOL    HW3 5827   0.189   1.323   2.704 -1.2851  0.6738  1.4722
    1SOL    MW4 5828   0.208   1.244   2.736 -0.0976  0.4007  0.1414
    1SOL     OW 5829   0.226   1.475   2.604 -0.3638  0.1099 -0.1321
    1SOL    HW2 5830   0.296   1.533   2.634 -0.6842 -0.0350  0.9227
    1SOL    HW3 5831   0.147   1.513   2.642 -0.7956 -0.0346 -0.8735
    1SOL    MW4 5832   0.225   1.488   2.613 -0.4630  0.0718 -0.0906
    1SOL     OW 5833   0.032   1.628   2.727  0.1691  0.1519  0.3483
    1SOL    HW2 5834   0.025   1.629   2.823 -2.2699 -0.8350  0.2026
    1SOL    HW3 5835  -0.006   1.711   2.699 -0.5685 -0.2507  0.1520
    1SOL    MW4 5836   0.026   1.639   2.736 -0.2500 -0.0312  0.3033
    1SOL     OW 5837   4.452   1.891   2.631  0.1670 -0.1169 -0.0406
    1SOL    HW2 5838   4.514   1.950   2.675  0.2373 -0.5150  0.3942
    1SOL    HW3 5839   4.475   1.897   2.539  0.4306  0.2362  0.0454
    1SOL    MW4 5840   4.463   1.900   2.625  0.2108 -0.1229  0.0281
    1SOL     OW 5841   0.165   2.063   2.684  0.4332  0.2332 -0.4988
    1SOL    HW2 5842   0.235   2.005   2.653 -1.0999 -1.4436 -0.8648
    1SOL    HW3 5843   0.185   2.147   2.642  2.1953 -0.2262 -0.6494
    1SOL    MW4 5844   0.177   2.066   2.674  0.4634 -0.0486 -0.5670
    1SOL     OW 5845   0.205   2.322   2.592 -0.0523 -0.2281 -0.2147
    1SOL    HW2 5846   0.273   2.365   2.644 -0.3270 -1.4746  1.2274
    1SOL    HW3 5847   0.123   2.349   2.633 -0.4061  0.6341 -1.4600
    1SOL    MW4 5848   0.203   2.331   2.605 -0.1352 -0.2787 -0.1888
    1SOL     OW 5849   4.468   2.429   2.701 -0.2306 -0.0377 -0.0473
    1SOL    HW2 5850   4.452   2.444   2.795 -0.9360 -0.5780 -0.0805
    1SOL    HW3 5851   4.393   2.377   2.672 -0.5294  1.0033 -1.1514
    1SOL    MW4 5852   4.456   2.424   2.710 -0.3633  0.0281 -0.1976
    1SOL     OW 5853   4.485   2.702   2.613  0.1931  0.1101 -0.3637
    1SOL    HW2 5854   4.409   2.743   2.654  0.4580 -0.4070  0.6543
    1SOL    HW3 5855   4.488   2.615   2.652  0.7438 -0.2076 -1.1215
    1SOL    MW4 5856   4.475   2.696   2.623  0.3004  0.0000 -0.3290
    1SOL     OW 5857   0.229   2.784   2.742  0.2070  0.4166 -0.2890
    1SOL    HW2 5858   0.227   2.880   2.735 -0.3408  0.5261  1.2701
    1SOL    HW3 5859   0.148   2.756   2.700  0.0120  0.6776 -0.0883
    1SOL    MW4 5860   0.218   2.793   2.735  0.1090  0.4654 -0.0567
    1SOL     OW 5861   0.203   3.038   2.664 -0.2029  0.2859  0.5702
    1SOL    HW2 5862   0.284   3.085   2.688 -0.9943  1.6004  0.7115
    1SOL    HW3 5863   0.202   3.040   2.568 -0.2098  0.5393  0.5735
    1SOL    MW4 5864   0.214   3.045   2.655 -0.3082  0.4926  0.5894
    1SOL     OW 5865   4.480   3.211   2.750 -0.1628 -0.3061  0.0009
    1SOL    HW2 5866   4.406   3.168   2.708 -1.1111  0.1486  1.2028
    1SOL    HW3 5867   4.556   3.157   2.725 -0.9196 -0.9304 -0.9906
    1SOL    MW4 5868   4.480   3.198   2.741 -0.3878 -0.3288  0.0286
    1SOL     OW 5869   4.467   3.469   2.649  0.8061  0.3094  0.3973
    1SOL    HW2 5870   4.527   3.522   2.701  2.0500 -1.4300  0.7814
    1SOL    HW3 5871   4.486   3.379   2.675 -1.3242 -0.3276 -0.1763
    1SOL    MW4 5872   4.477   3.464   2.659  0.6890 -0.0041  0.3722
    1SOL     OW 5873   0.217   3.580   2.742  0.0501  0.2970 -0.1014
    1SOL    HW2 5874   0.230   3.615   2.830  1.4894  1.3003 -0.6983
    1SOL    HW3 5875   0.304   3.551   2.714 -0.6795 -1.4911 -0.5771
    1SOL    MW4 5876   0.231   3.581   2.750  0.1437  0.1934 -0.2427
    1SOL     OW 5877   0.206   3.838   2.619 -0.2944 -0.5794  0.0033
    1SOL    HW2 5878   0.212   3.744   2.636 -0.3001 -0.5003  0.4338
    1SOL    HW3 5879   0.221   3.846   2.524 -0.0445 -0.9864  0.0086
    1SOL    MW4 5880   0.209   3.827   2.609 -0.2622 -0.6227  0.0608
    1SOL     OW 5881   0.017   3.974   2.769  0.5694  0.1963 -0.0610
    1SOL    HW2 5882   0.001   4.057   2.723  0.5115 -0.4755 -1.2661
    1SOL    HW3 5883   0.083   3.930   2.716  1.3647 -0.0825  1.1505
    1SOL    MW4 5884   0.024   3.979   2.756  0.6666  0.0708 -0.0601
    1SOL     OW 5885   4.489   4.204   2.628  0.3074 -0.1829  0.4601
    1SOL    HW2 5886   4.426   4.255   2.679 -0.9463  0.3575 -1.5990
    1SOL    HW3 5887   4.571   4.252   2.637 -0.4454  1.2036  0.0414
    1SOL    MW4 5888   4.491   4.217   2.636  0.0429  0.0715  0.1333
    1SOL     OW 5889   0.210   4.353   2.704 -0.2850  0.0126  0.0619
    1SOL    HW2 5890   0.201   4.376   2.796 -0.8436  0.6728 -0.1572
    1SOL    HW3 5891   0.289   4.298   2.701 -0.9021 -0.9477  1.0936
    1SOL    MW4 5892   0.219   4.348   2.716 -0.4401 -0.0272  0.1688
    1SOL     OW 5893   0.657   4.610   2.668  0.3928  0.1198 -0.7077
    1SOL    HW2 5894   0.726   4.671   2.694  0.1654  0.2184 -0.3292
    1SOL    HW3 5895   0.576   4.653   2.695  0.3468 -1.3060  1.4871
    1SOL    MW4 5896   0.655   4.624   2.675  0.3567 -0.0553 -0.3684
    1SOL     OW 5897   0.403   0.088   2.736  0.3737  0.3924  0.0767
    1SOL    HW2 5898   0.395   0.091   2.831 -0.5339  0.3467  0.0071
    1SOL    HW3 5899   0.330   0.034   2.707  0.3221  0.8569 -0.6881
    1SOL    MW4 5900   0.393   0.082   2.744  0.2472  0.4476 -0.0336
    1SOL     OW 5901   0.439   0.354   2.616  0.3643  0.2058 -0.2008
    1SOL    HW2 5902   0.523   0.388   2.649 -0.0408 -0.1239  1.2263
    1SOL    HW3 5903   0.439   0.262   2.645 -0.8507  0.4304  0.5463
    1SOL    MW4 5904   0.450   0.346   2.624  0.1505  0.1920  0.0863
    1SOL     OW 5905   0.685   0.472   2.711  0.0028  0.5389  0.0764
    1SOL    HW2 5906   0.676   0.484   2.806  0.4691  0.0075  0.1837
    1SOL    HW3 5907   0.760   0.414   2.700 -0.5755 -0.0930 -0.5878
    1SOL    MW4 5908   0.694   0.466   2.722 -0.0120  0.3854  0.0031
    1SOL     OW 5909   0.635   0.727   2.603 -0.1113 -0.2587  0.0375
    1SOL    HW2 5910   0.701   0.779   2.648  0.2297 -0.1376 -0.5970
    1SOL    HW3 5911   0.651   0.637   2.632 -0.3666 -0.0845  0.7281
    1SOL    MW4 5912   0.646   0.722   2.613 -0.1000 -0.2198  0.0448
    1SOL     OW 5913   0.385   0.845   2.668 -0.2479  0.5846  0.5501
    1SOL    HW2 5914   0.389   0.936   2.640  1.0860  0.3328 -0.1155
    1SOL    HW3 5915   0.463   0.804   2.629 -0.9041 -0.8666  0.7290
    1SOL    MW4 5916   0.396   0.852   2.659 -0.1585  0.3599  0.4861
    1SOL     OW 5917   0.421   1.116   2.627 -0.1027  0.0517 -0.0650
    1SOL    HW2 5918   0.506   1.157   2.640  0.7186 -1.7989  0.6252
    1SOL    HW3 5919   0.407   1.119   2.532  0.5760  0.6709 -0.1447
    1SOL    MW4 5920   0.430   1.122   2.616  0.0952 -0.1109  0.0157
    1SOL     OW 5921   0.642   1.249   2.701  0.0876  0.2062  0.1368
    1SOL    HW2 5922   0.653   1.259   2.796 -0.3064  1.3013  0.0730
    1SOL    HW3 5923   0.720   1.202   2.672 -0.4857 -1.4690  1.2292
    1SOL    MW4 5924   0.653   1.244   2.710 -0.0401  0.1297  0.2725
    1SOL     OW 5925   0.669   1.539   2.636  0.0227 -0.7316 -0.1416
    1SOL    HW2 5926   0.581   1.570   2.660 -0.2418 -1.4412 -0.1827
    1SOL    HW3 5927   0.670   1.447   2.662  0.5219 -0.9029 -0.7585
    1SOL    MW4 5928   0.657   1.531   2.642  0.0536 -0.8477 -0.2286
    1SOL     OW 5929   0.427   1.655   2.706 -0.6967  0.1415 -0.1792
    1SOL    HW2 5930   0.412   1.664   2.801  0.4465  0.1691 -0.0005
    1SOL    HW3 5931   0.411   1.742   2.670  0.5381  0.5476  0.2226
    1SOL    MW4 5932   0.423   1.667   2.714 -0.3830  0.1988 -0.1025
    1SOL     OW 5933   0.378   1.914   2.616  0.0765 -0.2219  0.3346
    1SOL    HW2 5934   0.461   1.952   2.644  0.1087  1.5489 -2.0795
    1SOL    HW3 5935   0.385   1.906   2.521 -2.0958 -1.0564  0.2032
    1SOL    MW4 5936   0.390   1.918   2.607 -0.2058 -0.0983 -0.0012
    1SOL     OW 5937   0.627   2.022   2.679  0.2719 -0.2243  0.0980
    1SOL    HW2 5938   0.625   2.041   2.773  1.0219  0.8937 -0.1054
    1SOL    HW3 5939   0.716   1.988   2.664  0.6266  0.9352 -0.4551
    1SOL    MW4 5940   0.639   2.020   2.689  0.4176  0.0763 -0.0017
    1SOL     OW 5941   0.630   2.280   2.582  0.5279 -0.0667  0.3042
    1SOL    HW2 5942   0.706   2.321   2.623  0.6856 -0.0840  0.0364
    1SOL    HW3 5943   0.636   2.188   2.608  0.3896  0.0059  0.5899
    1SOL    MW4 5944   0.641   2.273   2.591  0.5305 -0.0596  0.3066
    1SOL     OW 5945   0.423   2.398   2.714 -0.0285 -0.3843 -0.3224
    1SOL    HW2 5946   0.443   2.488   2.690  0.1211 -0.6127 -1.0693
    1SOL    HW3 5947   0.492   2.346   2.673  0.2427 -0.7844  0.6209
    1SOL    MW4 5948   0.435   2.403   2.706  0.0270 -0.4675 -0.2964
    1SOL     OW 5949   0.454   2.663   2.624 -0.3256 -0.2462  0.4914
    1SOL    HW2 5950   0.518   2.712   2.675 -0.6360  0.9726 -0.2694
    1SOL    HW3 5951   0.371   2.705   2.643 -0.8372 -1.4661  1.0282
    1SOL    MW4 5952   0.452   2.675   2.633 -0.4340 -0.2463  0.4618
    1SOL     OW 5953   0.656   2.813   2.734  0.0392  0.5616  0.2270
    1SOL    HW2 5954   0.660   2.823   2.829 -1.5862  0.0088  0.3676
    1SOL    HW3 5955   0.662   2.903   2.700  1.8032  0.6683  0.7849
    1SOL    MW4 5956   0.657   2.826   2.742  0.0575  0.5026  0.3190
    1SOL     OW 5957   0.679   3.088   2.677 -0.2568 -0.3034  0.0526
    1SOL    HW2 5958   0.758   3.116   2.723 -0.5133 -0.0935  0.3718
    1SOL    HW3 5959   0.702   3.092   2.584  0.7672 -2.2158  0.2045
    1SOL    MW4 5960   0.692   3.092   2.671 -0.1555 -0.5279  0.1147
    1SOL     OW 5961   0.435   3.203   2.744  0.3437 -0.3772  0.1378
    1SOL    HW2 5962   0.445   3.226   2.836 -0.8973  1.1030 -0.0628
    1SOL    HW3 5963   0.516   3.159   2.721  0.5358 -1.0473  2.0201
    1SOL    MW4 5964   0.447   3.200   2.753  0.2053 -0.2704  0.3598
    1SOL     OW 5965   0.459   3.481   2.670  0.0577  0.3501 -0.4602
    1SOL    HW2 5966   0.459   3.389   2.699 -1.8674  0.4167 -0.1389
    1SOL    HW3 5967   0.479   3.477   2.577  0.3829 -0.3684 -0.3617
    1SOL    MW4 5968   0.461   3.468   2.662 -0.1534  0.2637 -0.4046
    1SOL     OW 5969   0.676   3.629   2.748  0.3374  0.4544 -0.0612
    1SOL    HW2 5970   0.674   3.636   2.843 -1.2006  0.7731 -0.1105
    1SOL    HW3 5971   0.591   3.593   2.724  0.9803 -0.3146 -1.2677
    1SOL    MW4 5972   0.665   3.625   2.757  0.2192  0.3951 -0.2267
    1SOL     OW 5973   0.659   3.890   2.627  0.2229  0.1752 -0.7388
    1SOL    HW2 5974   0.577   3.919   2.666 -0.9678 -1.4277 -2.0168
    1SOL    HW3 5975   0.677   3.806   2.668  1.6416  0.8628  0.0940
    1SOL    MW4 5976   0.651   3.883   2.638  0.2530  0.0544 -0.7973
    1SOL     OW 5977   0.422   3.958   2.769  0.1364 -0.0220 -0.3341
    1SOL    HW2 5978   0.408   4.047   2.738 -1.3197 -0.5203 -1.1893
    1SOL    HW3 5979   0.353   3.907   2.725  1.4954 -1.7077 -0.5543
    1SOL    MW4 5980   0.411   3.963   2.759  0.1236 -0.3099 -0.4759
    1SOL     OW 5981   0.436   4.204   2.663  0.0527  0.2063 -0.3734
    1SOL    HW2 5982   0.504   4.262   2.698  0.4515 -0.1635 -0.5269
    1SOL    HW3 5983   0.442   4.215   2.568 -0.3598  0.4617 -0.3688
    1SOL    MW4 5984   0.446   4.213   2.655  0.0509  0.1912 -0.3932
    1SOL     OW 5985   0.653   4.352   2.756  0.4449 -0.1409 -0.2298
    1SOL    HW2 5986   0.737   4.319   2.725  1.0200  0.3398  0.7767
    1SOL    HW3 5987   0.651   4.444   2.729  0.5568  0.0363  0.3467
    1SOL    MW4 5988   0.664   4.360   2.748  0.5354 -0.0544 -0.0207
    1SOL     OW 5989   1.147   4.620   2.657 -0.1719 -0.2768  0.1639
    1SOL    HW2 5990   1.218   4.665   2.702  1.2849 -1.2590 -1.0963
    1SOL    HW3 5991   1.154   4.529   2.686 -0.7296 -0.4366 -0.1907
    1SOL    MW4 5992   1.157   4.614   2.667 -0.0533 -0.4272 -0.0494
    1SOL     OW 5993   0.894   0.072   2.705  0.2736 -0.4106  0.0299
    1SOL    HW2 5994   0.899   0.090   2.798 -2.0600 -2.5439  0.5891
    1SOL    HW3 5995   0.977   0.028   2.685  1.1761  0.8616  0.8600
    1SOL    MW4 5996   0.906   0.068   2.714  0.0847 -0.5242  0.2131
    1SOL     OW 5997   0.916   0.318   2.618 -0.1702 -0.3177  0.0343
    1SOL    HW2 5998   0.905   0.224   2.635  0.0098 -0.3600 -0.0746
    1SOL    HW3 5999   0.894   0.328   2.525 -1.0760 -0.1009  0.2724
    1SOL    MW4 6000   0.912   0.307   2.608 -0.2659 -0.2947  0.0513
    1SOL     OW 6001   1.103   0.484   2.756 -0.5218  0.1873  0.2534
    1SOL    HW2 6002   1.109   0.564   2.704 -0.3349 -1.3898 -2.2644
    1SOL    HW3 6003   1.037   0.431   2.710  1.3602 -2.2447  0.2705
    1SOL    MW4 6004   1.095   0.487   2.743 -0.2489 -0.3417 -0.0763
    1SOL     OW 6005   1.124   0.727   2.630  0.2691  0.0718 -0.2219
    1SOL    HW2 6006   1.200   0.777   2.657  0.8588 -0.0717 -1.5910
    1SOL    HW3 6007   1.132   0.719   2.535 -0.7757 -1.0319 -0.2391
    1SOL    MW4 6008   1.135   0.732   2.621  0.2091 -0.0927 -0.4046
    1SOL     OW 6009   0.872   0.847   2.708 -0.6277  0.0617 -0.5165
    1SOL    HW2 6010   0.869   0.844   2.804 -2.4354  0.5925 -0.5388
    1SOL    HW3 6011   0.948   0.793   2.685 -1.0620 -1.3318  1.1636
    1SOL    MW4 6012   0.882   0.839   2.718 -0.9235 -0.0521 -0.2978
    1SOL     OW 6013   0.881   1.105   2.625  0.2367  0.2055 -0.2254
    1SOL    HW2 6014   0.875   1.014   2.653  0.6359  0.0645 -0.5973
    1SOL    HW3 6015   0.867   1.102   2.531 -0.8885  0.6540 -0.0825
    1SOL    MW4 6016   0.878   1.093   2.616  0.1410  0.2459 -0.2556
    1SOL     OW 6017   1.114   1.242   2.706 -0.4766 -0.1349 -0.0305
    1SOL    HW2 6018   1.110   1.338   2.700  0.0373 -0.1857 -1.3293
    1SOL    HW3 6019   1.028   1.213   2.677 -1.2017 -0.0191  1.9256
    1SOL    MW4 6020   1.102   1.251   2.702 -0.5045 -0.1264  0.0563
    1SOL     OW 6021   1.122   1.515   2.666  0.2017 -0.4035  0.2445
    1SOL    HW2 6022   1.037   1.557   2.681 -0.8067 -2.1753 -0.4086
    1SOL    HW3 6023   1.144   1.539   2.576 -0.2312 -1.0044 -0.0257
    1SOL    MW4 6024   1.113   1.524   2.656  0.0114 -0.7166  0.1225
    1SOL     OW 6025   0.909   1.677   2.711  0.0521  0.2217 -0.1920
    1SOL    HW2 6026   0.909   1.670   2.807 -0.4532  1.5562 -0.0838
    1SOL    HW3 6027   0.826   1.638   2.684  0.5208 -0.8310 -0.1549
    1SOL    MW4 6028   0.898   1.671   2.720  0.0473  0.2589 -0.1729
    1SOL     OW 6029   0.887   1.941   2.651 -0.2454  0.0261 -0.1526
    1SOL    HW2 6030   0.968   1.987   2.672 -0.0718 -0.8871  1.2414
    1SOL    HW3 6031   0.904   1.850   2.676 -0.7526 -0.7269 -2.4152
    1SOL    MW4 6032   0.900   1.935   2.657 -0.2894 -0.1937 -0.2673
    1SOL     OW 6033   1.126   2.071   2.717 -0.2958 -0.0137 -0.4490
    1SOL    HW2 6034   1.206   2.025   2.694  1.3599  1.6234  1.8889
    1SOL    HW3 6035   1.131   2.155   2.671 -1.2009 -0.3392 -1.1649
    1SOL    MW4 6036   1.137   2.076   2.708 -0.1968  0.1593 -0.2348
    1SOL     OW 6037   1.117   2.336   2.612  0.2848 -0.0434 -0.7332
    1SOL    HW2 6038   1.190   2.378   2.657  0.0969 -0.4957 -0.0040
    1SOL    HW3 6039   1.129   2.360   2.520  0.5128  1.1129 -0.4078
    1SOL    MW4 6040   1.128   2.345   2.606  0.2902  0.0496 -0.5941
    1SOL     OW 6041   0.834   2.410   2.691  0.1355  0.5951 -0.3653
    1SOL    HW2 6042   0.825   2.501   2.663 -0.1084  0.8169  0.3934
    1SOL    HW3 6043   0.925   2.388   2.672  0.4133  1.2534  0.1513
    1SOL    MW4 6044   0.845   2.419   2.685  0.1400  0.7112 -0.1972
    1SOL     OW 6045   0.851   2.678   2.624  0.2273 -0.0334  0.2559
    1SOL    HW2 6046   0.929   2.722   2.656 -0.9512  2.1509  0.2162
    1SOL    HW3 6047   0.778   2.721   2.671 -1.1906  0.3558 -2.2347
    1SOL    MW4 6048   0.852   2.690   2.635 -0.1153  0.3061 -0.0780
    1SOL     OW 6049   1.083   2.832   2.724  0.0000  0.0000 -0.0216
    1SOL    HW2 6050   1.106   2.825   2.817  0.0000  0.0000 -0.0253
    1SOL    HW3 6051   1.159   2.795   2.678  0.0000  0.0000 -0.0350
    1SOL    MW4 6052   1.096   2.826   2.730  0.0000  0.0000 -0.0241
    1SOL     OW 6053   1.148   3.096   2.692  0.0000  0.0000  0.4794
    1SOL    HW2 6054   1.122   3.007   2.714  0.0000  0.0000  0.4706
    1SOL    HW3 6055   1.136   3.101   2.597  0.0000  0.0000  0.4797
    1SOL    MW4 6056   1.143   3.085   2.682  0.0000  0.0000  0.4783
    1SOL     OW 6057   0.919   3.208   2.768  0.0000  0.0000 -0.0913
    1SOL    HW2 6058   0.903   3.286   2.715  0.0000  0.0000 -0.0796
    1SOL    HW3 6059   1.006   3.179   2.740  0.0000  0.0000 -0.1068
    1SOL    MW4 6060   0.928   3.215   2.757  0.0000  0.0000 -0.0916
    1SOL     OW 6061   0.887   3.462   2.638  0.0000  0.0000 -0.1253
    1SOL    HW2 6062   0.961   3.508   2.679  0.0000  0.0000 -0.1224
    1SOL    HW3 6063   0.810   3.512   2.667  0.0000  0.0000 -0.1149
    1SOL    MW4 6064   0.887   3.475   2.647  0.0000  0.0000 -0.1235
    1SOL     OW 6065   1.102   3.599   2.741  0.0000  0.0000  0.0602
    1SOL    HW2 6066   1.101   3.626   2.833  0.0000  0.0000  0.0618
    1SOL    HW3 6067   1.100   3.681   2.692  0.0000  0.0000  0.0657
    1SOL    MW4 6068   1.102   3.613   2.746  0.0000  0.0000  0.0610
    1SOL     OW 6069   1.098   3.851   2.617  0.0000  0.0000  0.3842
    1SOL    HW2 6070   1.178   3.889   2.655  0.0000  0.0000  0.3941
    1SOL    HW3 6071   1.110   3.859   2.522  0.0000  0.0000  0.3857
    1SOL    MW4 6072   1.110   3.857   2.609  0.0000  0.0000  0.3855
    1SOL     OW 6073   0.893   4.008   2.709  0.0000  0.0000 -0.0356
    1SOL    HW2 6074   0.958   3.963   2.655  0.0000  0.0000 -0.0125
    1SOL    HW3 6075   0.809   3.970   2.682  0.0000  0.0000 -0.0730
    1SOL    MW4 6076   0.890   3.997   2.698  0.0000  0.0000 -0.0377
    1SOL     OW 6077   0.888   4.266   2.632  0.0000  0.0000 -0.1623
    1SOL    HW2 6078   0.892   4.174   2.657  0.0000  0.0000 -0.1694
    1SOL    HW3 6079   0.884   4.265   2.537  0.0000  0.0000 -0.1623
    1SOL    MW4 6080   0.888   4.254   2.623  0.0000  0.0000 -0.1633
    1SOL     OW 6081   1.144   4.351   2.711  0.0000  0.0000  0.9722
    1SOL    HW2 6082   1.137   4.378   2.803  0.0000  0.0000  0.9740
    1SOL    HW3 6083   1.055   4.327   2.686  0.0000  0.0000  0.9671
    1SOL    MW4 6084   1.131   4.351   2.720  0.0000  0.0000  0.9716
    1SOL     OW 6085   1.568   4.622   2.641 -0.4291  0.0875 -0.4342
    1SOL    HW2 6086   1.555   4.531   2.670  1.3320  0.0482  0.2720
    1SOL    HW3 6087   1.567   4.616   2.546  1.2345 -0.9310 -0.4073
    1SOL    MW4 6088   1.566   4.609   2.632  0.0228 -0.0525 -0.3374
    1SOL     OW 6089   1.366   0.119   2.739 -0.5021 -0.2523  0.2038
    1SOL    HW2 6090   1.380   0.193   2.681 -0.3018  0.7974  1.5796
    1SOL    HW3 6091   1.443   0.063   2.726 -0.0283  0.4141  0.1316
    1SOL    MW4 6092   1.378   0.121   2.730 -0.4132 -0.0259  0.3760
    1SOL     OW 6093   1.346   0.390   2.612 -0.2731 -0.1774  0.0052
    1SOL    HW2 6094   1.416   0.420   2.670  0.4979 -2.1222  0.1044
    1SOL    HW3 6095   1.266   0.404   2.662 -0.1022  2.9727 -0.4737
    1SOL    MW4 6096   1.345   0.396   2.626 -0.1487 -0.0184 -0.0451
    1SOL     OW 6097   1.583   0.519   2.739 -0.4578  0.3633 -0.6952
    1SOL    HW2 6098   1.662   0.470   2.714 -1.6930 -0.9102 -2.1973
    1SOL    HW3 6099   1.596   0.606   2.700  0.4635  0.3601 -0.4203
    1SOL    MW4 6100   1.595   0.524   2.730 -0.4992  0.1948 -0.8571
    1SOL     OW 6101   1.583   0.777   2.619  0.0832  0.1442  0.1333
    1SOL    HW2 6102   1.514   0.801   2.680 -0.7572  0.3314 -0.8907
    1SOL    HW3 6103   1.544   0.785   2.532  1.0492 -0.8217 -0.4132
    1SOL    MW4 6104   1.569   0.781   2.616  0.0998  0.0415 -0.0739
    1SOL     OW 6105   1.361   0.867   2.760 -0.9843  0.3438 -0.1398
    1SOL    HW2 6106   1.356   0.879   2.855  0.1624  0.1707 -0.0595
    1SOL    HW3 6107   1.356   0.956   2.725  0.2326  0.5355  0.1561
    1SOL    MW4 6108   1.359   0.880   2.768 -0.6725  0.3462 -0.0901
    1SOL     OW 6109   1.373   1.087   2.616 -0.2617 -0.0111 -0.1592
    1SOL    HW2 6110   1.448   1.141   2.642 -0.2583  0.3059 -0.8251
    1SOL    HW3 6111   1.297   1.132   2.654 -0.1413 -0.2232  0.3449
    1SOL    MW4 6112   1.373   1.100   2.625 -0.2453  0.0026 -0.1807
    1SOL     OW 6113   1.565   1.270   2.698 -0.0225 -0.1394 -0.2196
    1SOL    HW2 6114   1.562   1.281   2.793  0.0070 -0.5593 -0.1699
    1SOL    HW3 6115   1.657   1.251   2.678 -0.0899 -0.3963 -0.2928
    1SOL    MW4 6116   1.577   1.269   2.708 -0.0275 -0.2286 -0.2229
    1SOL     OW 6117   1.547   1.547   2.624 -0.0622  0.0547 -0.5623
    1SOL    HW2 6118   1.543   1.452   2.632  1.2738 -0.0530 -1.0401
    1SOL    HW3 6119   1.573   1.563   2.533  0.2691  0.8628 -0.3346
    1SOL    MW4 6120   1.550   1.537   2.613  0.1577  0.1471 -0.5953
    1SOL     OW 6121   1.327   1.673   2.731 -0.2061 -0.0859  0.3386
    1SOL    HW2 6122   1.401   1.622   2.697 -1.5457 -1.4212 -0.6332
    1SOL    HW3 6123   1.252   1.615   2.721 -1.8297  2.2068 -1.0321
    1SOL    MW4 6124   1.327   1.659   2.726 -0.5970  0.0405  0.0296
    1SOL     OW 6125   1.354   1.933   2.633 -0.4016  0.7083  0.0194
    1SOL    HW2 6126   1.322   1.851   2.671 -0.0097  0.9299  0.8343
    1SOL    HW3 6127   1.327   1.929   2.541 -1.6094  0.2993  0.3823
    1SOL    MW4 6128   1.346   1.922   2.626 -0.5093  0.6837  0.1750
    1SOL     OW 6129   1.591   2.109   2.682  0.3422 -0.0571  0.0906
    1SOL    HW2 6130   1.657   2.042   2.664  0.6842  0.1512  0.5400
    1SOL    HW3 6131   1.508   2.065   2.669  0.5774 -0.1620 -1.0522
    1SOL    MW4 6132   1.589   2.094   2.678  0.4184 -0.0434 -0.0012
    1SOL     OW 6133   1.579   2.388   2.651  0.1021 -0.0146  0.3125
    1SOL    HW2 6134   1.661   2.430   2.677 -0.4587 -0.0090  2.1233
    1SOL    HW3 6135   1.586   2.298   2.681 -0.4547 -0.0841  0.2529
    1SOL    MW4 6136   1.590   2.382   2.658 -0.0454 -0.0231  0.5436
    1SOL     OW 6137   1.324   2.484   2.750 -0.3617  0.0537 -0.0942
    1SOL    HW2 6138   1.304   2.577   2.735 -0.0587  0.1166 -0.0933
    1SOL    HW3 6139   1.410   2.471   2.710 -0.4477 -0.2501 -0.1794
    1SOL    MW4 6140   1.332   2.495   2.743 -0.3332  0.0219 -0.1051
    1SOL     OW 6141   1.325   2.738   2.643 -0.1805  0.4059  0.1758
    1SOL    HW2 6142   1.410   2.762   2.681 -0.9849 -0.5956  2.6638
    1SOL    HW3 6143   1.340   2.743   2.548  2.5491  0.6318  0.5658
    1SOL    MW4 6144   1.338   2.741   2.635  0.0736  0.3035  0.5555
    1SOL     OW 6145   1.555   2.826   2.748 -0.1853 -0.3027  0.3364
    1SOL    HW2 6146   1.550   2.845   2.842 -0.6831 -1.9057  0.6517
    1SOL    HW3 6147   1.640   2.782   2.738  0.3310  0.7874 -0.1489
    1SOL    MW4 6148   1.566   2.823   2.759 -0.1829 -0.3705  0.3140
    1SOL     OW 6149   1.576   3.077   2.645  0.3112 -0.3986  0.6668
    1SOL    HW2 6150   1.668   3.100   2.660  0.6061 -1.3916  0.3763
    1SOL    HW3 6151   1.568   2.986   2.673 -1.0413  0.2642  2.5189
    1SOL    MW4 6152   1.587   3.068   2.651  0.1717 -0.4425  0.8729
    1SOL     OW 6153   1.360   3.251   2.719 -0.2887  0.2123 -0.3032
    1SOL    HW2 6154   1.433   3.191   2.705  0.5618  1.1100  0.2876
    1SOL    HW3 6155   1.282   3.197   2.703  0.4861 -0.7891 -0.7632
    1SOL    MW4 6156   1.359   3.236   2.715 -0.0744  0.1984 -0.2859
    1SOL     OW 6157   1.361   3.520   2.666 -0.4777 -0.1240  0.2163
    1SOL    HW2 6158   1.368   3.431   2.701 -0.7396  0.6235  2.2441
    1SOL    HW3 6159   1.279   3.553   2.701 -0.8806  0.5875 -1.3613
    1SOL    MW4 6160   1.351   3.512   2.675 -0.5654  0.0687  0.2759
    1SOL     OW 6161   1.593   3.634   2.811  0.2053 -0.4381 -0.1332
    1SOL    HW2 6162   1.674   3.590   2.783 -0.5173 -0.2201 -2.7343
    1SOL    HW3 6163   1.523   3.578   2.777 -0.7454  0.2621  0.6460
    1SOL    MW4 6164   1.595   3.621   2.803 -0.0155 -0.3171 -0.3738
    1SOL     OW 6165   1.580   3.883   2.633  0.4919  0.2802 -0.0026
    1SOL    HW2 6166   1.497   3.920   2.660  0.1510 -0.5032  0.0385
    1SOL    HW3 6167   1.588   3.802   2.684  1.5001  0.5963  0.3505
    1SOL    MW4 6168   1.570   3.877   2.643  0.5800  0.2189  0.0494
    1SOL     OW 6169   1.325   3.964   2.720 -0.4106  0.0369  0.0187
    1SOL    HW2 6170   1.341   3.974   2.814  0.5662  2.6495 -0.3608
    1SOL    HW3 6171   1.330   4.054   2.686 -0.3602 -0.9122 -2.5772
    1SOL    MW4 6172   1.328   3.977   2.728 -0.2751  0.2565 -0.3736
    1SOL     OW 6173   1.368   4.226   2.650  0.1323 -0.2027 -0.4084
    1SOL    HW2 6174   1.288   4.269   2.681  1.4179  2.8137 -1.0368
    1SOL    HW3 6175   1.369   4.242   2.555  1.6982  0.2269 -0.3410
    1SOL    MW4 6176   1.358   4.234   2.641  0.5087  0.2518 -0.4826
    1SOL     OW 6177   1.590   4.360   2.728 -0.3100  0.1032 -0.1410
    1SOL    HW2 6178   1.598   4.376   2.822  1.1123 -0.1510 -0.2064
    1SOL    HW3 6179   1.505   4.317   2.718 -0.1360 -0.5577  1.1238
    1SOL    MW4 6180   1.580   4.356   2.739 -0.0992 -0.0176  0.0172
    1SOL     OW 6181   2.015   4.655   2.598  0.3433  0.3470 -0.3803
    1SOL    HW2 6182   2.086   4.703   2.640  0.5033 -0.2882  0.1001
    1SOL    HW3 6183   2.036   4.656   2.505 -0.9905  3.3957 -0.6890
    1SOL    MW4 6184   2.027   4.661   2.591  0.1886  0.6657 -0.3576
    1SOL     OW 6185   1.811   0.093   2.741 -0.3357 -0.0108  0.2942
    1SOL    HW2 6186   1.892   0.058   2.703 -0.9117 -0.8897 -0.1384
    1SOL    HW3 6187   1.746   0.025   2.725 -0.6826 -0.2601  2.5336
    1SOL    MW4 6188   1.813   0.079   2.734 -0.4575 -0.1597  0.5324
    1SOL     OW 6189   1.790   0.370   2.639 -0.1527  0.5694  0.2057
    1SOL    HW2 6190   1.853   0.424   2.687  1.2253 -1.2045  0.4124
    1SOL    HW3 6191   1.795   0.284   2.680 -1.3624 -0.1024 -1.0056
    1SOL    MW4 6192   1.799   0.366   2.651 -0.1304  0.2468  0.0732
    1SOL     OW 6193   1.982   0.533   2.762 -0.1013  0.3066 -0.2110
    1SOL    HW2 6194   2.052   0.473   2.737 -0.2521  0.5114 -1.1492
    1SOL    HW3 6195   2.005   0.616   2.719 -0.5179  0.5859  0.1026
    1SOL    MW4 6196   1.994   0.536   2.753 -0.1762  0.3704 -0.2935
    1SOL     OW 6197   2.057   0.764   2.635 -0.3438  0.1581  0.0572
    1SOL    HW2 6198   1.971   0.803   2.648 -1.6589 -2.3779 -0.8071
    1SOL    HW3 6199   2.052   0.718   2.552  2.4128  1.3744 -0.8647
    1SOL    MW4 6200   2.045   0.763   2.626 -0.1533 -0.0161 -0.1783
    1SOL     OW 6201   1.812   0.900   2.725 -0.2441 -0.3431  0.6280
    1SOL    HW2 6202   1.823   0.984   2.681  1.0540 -1.2247 -0.8111
    1SOL    HW3 6203   1.735   0.861   2.683  1.5632 -1.6083 -1.6824
    1SOL    MW4 6204   1.803   0.906   2.713  0.1656 -0.6263  0.1330
    1SOL     OW 6205   1.821   1.163   2.611  0.0221  0.1211 -0.3065
    1SOL    HW2 6206   1.885   1.225   2.645 -0.1051  0.6487 -1.0381
    1SOL    HW3 6207   1.820   1.177   2.516 -0.7695 -0.2666 -0.3665
    1SOL    MW4 6208   1.829   1.173   2.603 -0.0991  0.1396 -0.4110
    1SOL     OW 6209   2.010   1.328   2.738 -0.1246  0.1358 -0.0290
    1SOL    HW2 6210   2.022   1.330   2.833 -1.0508  0.0275  0.0987
    1SOL    HW3 6211   2.086   1.281   2.705  0.2619  0.2783  0.6514
    1SOL    MW4 6212   2.022   1.322   2.746 -0.1960  0.1403  0.0777
    1SOL     OW 6213   1.968   1.564   2.617  0.5340  0.5202 -0.1476
    1SOL    HW2 6214   1.901   1.615   2.663  2.1120  1.4660  1.1531
    1SOL    HW3 6215   1.967   1.479   2.661  1.0907  0.9643  0.7160
    1SOL    MW4 6216   1.959   1.559   2.629  0.8156  0.7037  0.1378
    1SOL     OW 6217   1.763   1.694   2.768  0.0095  0.0482  0.0086
    1SOL    HW2 6218   1.764   1.703   2.863  1.9549 -1.8279  0.1851
    1SOL    HW3 6219   1.683   1.645   2.749 -0.1449  0.0351  0.7007
    1SOL    MW4 6220   1.752   1.689   2.778  0.2459 -0.2011  0.1233
    1SOL     OW 6221   1.788   1.926   2.632 -0.0213  0.3095  0.2598
    1SOL    HW2 6222   1.865   1.973   2.667  0.7724 -0.5421 -0.3215
    1SOL    HW3 6223   1.798   1.837   2.666  0.3903 -0.3558 -1.5434
    1SOL    MW4 6224   1.800   1.920   2.641  0.1379  0.1094 -0.0548
    1SOL     OW 6225   2.019   2.034   2.727  0.0308  0.4432  0.1524
    1SOL    HW2 6226   2.018   2.053   2.821 -1.1641  0.7735  0.0850
    1SOL    HW3 6227   2.011   2.119   2.685  0.7113  0.3088 -0.2544
    1SOL    MW4 6228   2.018   2.048   2.734 -0.0370  0.4687  0.0896
    1SOL     OW 6229   2.014   2.292   2.632 -0.0580 -0.1446 -0.4274
    1SOL    HW2 6230   2.088   2.346   2.659  0.2041 -1.1067  0.7824
    1SOL    HW3 6231   2.007   2.308   2.537  1.2616  0.4668 -0.4353
    1SOL    MW4 6232   2.023   2.301   2.623  0.1507 -0.1910 -0.2689
    1SOL     OW 6233   1.829   2.469   2.724 -0.1618  0.7660  0.2391
    1SOL    HW2 6234   1.846   2.466   2.819  0.7863  2.7094  0.1664
    1SOL    HW3 6235   1.890   2.406   2.687 -0.9960 -0.4954  0.9709
    1SOL    MW4 6236   1.839   2.460   2.732 -0.1467  0.8557  0.3262
    1SOL     OW 6237   1.825   2.739   2.681  0.2618 -0.1476  0.0128
    1SOL    HW2 6238   1.835   2.645   2.699 -1.3022 -0.5754 -1.2637
    1SOL    HW3 6239   1.827   2.744   2.585 -1.4790  0.9154  0.0333
    1SOL    MW4 6240   1.827   2.727   2.670 -0.1743 -0.0639 -0.1531
    1SOL     OW 6241   2.068   2.854   2.740 -0.3831 -0.1551  0.1655
    1SOL    HW2 6242   2.125   2.788   2.700 -0.3990  0.4589 -0.8769
    1SOL    HW3 6243   1.981   2.815   2.737 -0.4713  0.1331 -0.9158
    1SOL    MW4 6244   2.064   2.840   2.734 -0.3967 -0.0362 -0.1147
    1SOL     OW 6245   2.033   3.115   2.629  0.2018 -0.2533  0.1793
    1SOL    HW2 6246   2.051   3.024   2.655 -2.3722 -0.9637 -0.3898
    1SOL    HW3 6247   2.032   3.113   2.534 -0.5803  0.1964  0.1717
    1SOL    MW4 6248   2.035   3.103   2.620 -0.2408 -0.2878  0.1030
    1SOL     OW 6249   1.801   3.234   2.744  0.4090  0.0301 -0.1027
    1SOL    HW2 6250   1.799   3.328   2.727  0.7901 -0.0802 -0.7797
    1SOL    HW3 6251   1.879   3.203   2.700 -0.0578 -0.7093 -0.4278
    1SOL    MW4 6252   1.811   3.243   2.736  0.3977 -0.0818 -0.2348
    1SOL     OW 6253   1.807   3.492   2.677 -0.2637  0.4492  0.2360
    1SOL    HW2 6254   1.892   3.534   2.689 -0.3796  0.7947 -0.1286
    1SOL    HW3 6255   1.796   3.486   2.582 -0.1350 -0.6522  0.2780
    1SOL    MW4 6256   1.816   3.497   2.666 -0.2619  0.3495  0.1934
    1SOL     OW 6257   2.045   3.593   2.725 -0.0456 -0.0088 -0.1916
    1SOL    HW2 6258   2.040   3.588   2.820 -0.5341 -0.9602 -0.2613
    1SOL    HW3 6259   2.123   3.544   2.702 -0.1784 -0.1663 -0.3100
    1SOL    MW4 6260   2.054   3.586   2.734 -0.1278 -0.1552 -0.2162
    1SOL     OW 6261   2.049   3.864   2.641  0.0421  0.3722  0.3451
    1SOL    HW2 6262   1.970   3.902   2.679 -0.5813  0.8243 -1.3783
    1SOL    HW3 6263   2.049   3.773   2.671 -1.4346  0.2263 -0.0881
    1SOL    MW4 6264   2.039   3.857   2.650 -0.2348  0.4127  0.0608
    1SOL     OW 6265   1.820   3.985   2.729  0.0739  0.0538 -0.0944
    1SOL    HW2 6266   1.830   4.072   2.691  2.3740 -1.0515 -2.1427
    1SOL    HW3 6267   1.741   3.949   2.687 -0.3495  0.7867  0.0656
    1SOL    MW4 6268   1.811   3.992   2.718  0.3215  0.0048 -0.3431
    1SOL     OW 6269   1.821   4.271   2.641 -0.0834  0.2715 -0.3611
    1SOL    HW2 6270   1.742   4.309   2.678 -0.6689 -2.0068  0.8102
    1SOL    HW3 6271   1.795   4.244   2.552 -0.1761  0.9649 -0.5424
    1SOL    MW4 6272   1.807   4.272   2.634 -0.1729  0.0620 -0.2306
    1SOL     OW 6273   2.046   4.414   2.743  0.3684 -0.0371  0.0909
    1SOL    HW2 6274   1.967   4.371   2.710 -0.8516  1.0930  1.4799
    1SOL    HW3 6275   2.052   4.495   2.692  0.7098 -0.1818 -0.0996
    1SOL    MW4 6276   2.036   4.419   2.732  0.2527  0.0930  0.2487
    1SOL     OW 6277   2.447   0.021   2.612 -0.4153 -0.0097 -0.2429
    1SOL    HW2 6278   2.536   0.035   2.643  0.1909 -1.5475 -1.2013
    1SOL    HW3 6279   2.451   0.040   2.518 -0.9816 -0.5300 -0.3769
    1SOL    MW4 6280   2.459   0.025   2.603 -0.4101 -0.2813 -0.3870
    1SOL     OW 6281   2.221   0.111   2.708 -0.1525 -0.4265  0.0417
    1SOL    HW2 6282   2.229   0.096   2.802  0.2291 -1.5018 -0.1651
    1SOL    HW3 6283   2.305   0.084   2.672  0.0527  0.8800 -0.5058
    1SOL    MW4 6284   2.233   0.106   2.716 -0.0749 -0.3960 -0.0579
    1SOL     OW 6285   2.188   0.370   2.666 -0.4949  0.0970  0.1349
    1SOL    HW2 6286   2.216   0.280   2.684 -3.6089 -1.0391 -0.2575
    1SOL    HW3 6287   2.190   0.377   2.570  0.9318  0.8934  0.2066
    1SOL    MW4 6288   2.192   0.359   2.656 -0.7176  0.0522  0.0925
    1SOL     OW 6289   2.446   0.460   2.751 -0.0978  0.3363  0.3511
    1SOL    HW2 6290   2.463   0.549   2.719  1.6412 -0.7433 -1.8090
    1SOL    HW3 6291   2.362   0.436   2.712  1.1394 -0.2911 -1.9768
    1SOL    MW4 6292   2.437   0.469   2.742  0.2947  0.1110 -0.2408
    1SOL     OW 6293   2.458   0.737   2.663 -0.4049  0.1606  0.3549
    1SOL    HW2 6294   2.397   0.794   2.709  0.1874  0.3558  0.9029
    1SOL    HW3 6295   2.451   0.763   2.571 -2.3524 -0.9252  0.1560
    1SOL    MW4 6296   2.449   0.748   2.657 -0.5836  0.0432  0.4010
    1SOL     OW 6297   2.262   0.910   2.747 -0.6315 -0.2038  0.0899
    1SOL    HW2 6298   2.239   0.915   2.840 -2.5708 -0.8692 -0.3167
    1SOL    HW3 6299   2.196   0.851   2.710  0.6844 -0.6825 -1.5399
    1SOL    MW4 6300   2.250   0.903   2.755 -0.7138 -0.3548 -0.1788
    1SOL     OW 6301   2.207   1.160   2.647  0.3629 -0.0717  0.2093
    1SOL    HW2 6302   2.204   1.076   2.693  1.3120  0.2004  0.7655
    1SOL    HW3 6303   2.235   1.137   2.558 -1.4213 -0.5865 -0.2554
    1SOL    MW4 6304   2.210   1.146   2.641  0.2527 -0.1036  0.2215
    1SOL     OW 6305   2.444   1.253   2.761 -0.4732 -0.0333  0.3811
    1SOL    HW2 6306   2.513   1.201   2.719 -0.5930  0.4385 -0.4053
    1SOL    HW3 6307   2.362   1.212   2.733 -0.5402  0.0737  0.4182
    1SOL    MW4 6308   2.442   1.241   2.752 -0.4978  0.0430  0.2820
    1SOL     OW 6309   2.449   1.490   2.623 -0.0389  0.3038  0.2220
    1SOL    HW2 6310   2.369   1.529   2.659 -0.6539 -0.5385 -0.2163
    1SOL    HW3 6311   2.447   1.399   2.654  0.2406  0.0123 -0.6200
    1SOL    MW4 6312   2.438   1.483   2.632 -0.0834  0.1541  0.0529
    1SOL     OW 6313   2.216   1.639   2.715 -0.3016 -0.0788  0.2164
    1SOL    HW2 6314   2.236   1.728   2.687  0.1185  0.3620  1.8786
    1SOL    HW3 6315   2.124   1.627   2.691 -0.2084  0.6028 -0.5136
    1SOL    MW4 6316   2.207   1.649   2.708 -0.2339  0.0694  0.3395
    1SOL     OW 6317   2.239   1.887   2.615  0.3160  0.6120 -0.1280
    1SOL    HW2 6318   2.159   1.932   2.642 -0.2945 -1.2340  1.2246
    1SOL    HW3 6319   2.248   1.907   2.522 -1.4252  1.2400 -0.1790
    1SOL    MW4 6320   2.230   1.896   2.607  0.0057  0.4513  0.0439
    1SOL     OW 6321   2.460   2.047   2.733 -0.0401  0.0758 -0.6237
    1SOL    HW2 6322   2.463   2.139   2.706  0.1653  0.2529 -0.0001
    1SOL    HW3 6323   2.375   2.016   2.700  0.1410  0.3304 -1.3322
    1SOL    MW4 6324   2.449   2.055   2.725  0.0107  0.1328 -0.6349
    1SOL     OW 6325   2.474   2.313   2.646  0.8077 -0.3236 -0.0436
    1SOL    HW2 6326   2.539   2.380   2.671  0.3512  0.2845 -0.4800
    1SOL    HW3 6327   2.473   2.316   2.550  0.2934 -0.4874 -0.0408
    1SOL    MW4 6328   2.483   2.322   2.637  0.6795 -0.2651 -0.1006
    1SOL     OW 6329   2.238   2.433   2.721  0.7124  0.3542  0.3093
    1SOL    HW2 6330   2.251   2.433   2.816  0.3609 -0.4888  0.3568
    1SOL    HW3 6331   2.312   2.383   2.687 -0.6250 -1.7245  0.3523
    1SOL    MW4 6332   2.249   2.427   2.729  0.4895 -0.0312  0.3211
    1SOL     OW 6333   2.264   2.690   2.638  0.2380 -0.2310 -0.2402
    1SOL    HW2 6334   2.341   2.725   2.682 -0.8406  1.2249  0.5362
    1SOL    HW3 6335   2.262   2.598   2.663  2.1086 -0.4657 -0.8508
    1SOL    MW4 6336   2.274   2.683   2.647  0.3424 -0.0699 -0.2184
    1SOL     OW 6337   2.490   2.803   2.772 -0.0088 -0.2459  0.6882
    1SOL    HW2 6338   2.565   2.772   2.720  0.3342 -0.3736  1.2511
    1SOL    HW3 6339   2.482   2.896   2.750 -0.8114 -0.6494 -0.7343
    1SOL    MW4 6340   2.499   2.811   2.763 -0.0694 -0.3159  0.5748
    1SOL     OW 6341   2.489   3.058   2.668 -0.2531  0.5070 -0.0067
    1SOL    HW2 6342   2.405   3.100   2.686 -1.0739 -1.1513  0.0887
    1SOL    HW3 6343   2.490   3.044   2.574  0.6135  1.9442 -0.2307
    1SOL    MW4 6344   2.478   3.062   2.658 -0.2472  0.4780 -0.0236
    1SOL     OW 6345   2.272   3.215   2.760  0.2584 -0.2827  0.3436
    1SOL    HW2 6346   2.265   3.231   2.855  0.1614 -0.2864  0.3377
    1SOL    HW3 6347   2.188   3.176   2.737  0.5784 -1.0148  0.3968
    1SOL    MW4 6348   2.260   3.212   2.770  0.2878 -0.3798  0.3500
    1SOL     OW 6349   2.266   3.460   2.641 -0.6160  0.0801 -0.1351
    1SOL    HW2 6350   2.337   3.482   2.701 -0.5633  0.0123 -0.1726
    1SOL    HW3 6351   2.244   3.369   2.662 -0.0438 -0.2084 -0.7800
    1SOL    MW4 6352   2.272   3.451   2.651 -0.5333  0.0331 -0.2253
    1SOL     OW 6353   2.478   3.567   2.774  0.4029  0.2213  0.5160
    1SOL    HW2 6354   2.469   3.579   2.869 -0.4814 -2.0476  0.7334
    1SOL    HW3 6355   2.498   3.655   2.741 -0.7269  1.3068  2.6348
    1SOL    MW4 6356   2.479   3.580   2.782  0.1371  0.0648  0.8240
    1SOL     OW 6357   2.494   3.835   2.665  0.2678  0.1548  0.3155
    1SOL    HW2 6358   2.565   3.894   2.691 -0.9150  1.5941  0.3391
    1SOL    HW3 6359   2.414   3.886   2.680 -0.7842 -1.5310  0.5156
    1SOL    MW4 6360   2.493   3.850   2.670 -0.0269  0.1221  0.3448
    1SOL     OW 6361   2.282   4.000   2.731  0.2994  0.3039  0.2414
    1SOL    HW2 6362   2.286   3.984   2.825 -1.1012 -0.2578  0.2148
    1SOL    HW3 6363   2.204   3.954   2.702 -0.1679  1.7831 -0.9316
    1SOL    MW4 6364   2.272   3.992   2.740  0.0529  0.4249  0.0832
    1SOL     OW 6365   2.258   4.276   2.609  0.5438  0.1327 -0.2532
    1SOL    HW2 6366   2.268   4.193   2.656 -0.5107  0.4864  0.6319
    1SOL    HW3 6367   2.175   4.312   2.642  0.5176  1.0806 -1.3310
    1SOL    MW4 6368   2.248   4.270   2.620  0.4013  0.3047 -0.2785
    1SOL     OW 6369   2.460   4.399   2.740  0.2938  0.1576  0.1867
    1SOL    HW2 6370   2.384   4.357   2.700  0.3213 -0.4289  0.7505
    1SOL    HW3 6371   2.452   4.491   2.714  0.2470 -0.1813 -1.0769
    1SOL    MW4 6372   2.449   4.406   2.731  0.2913  0.0358  0.0944
    1SOL     OW 6373   2.911   4.636   2.674  0.2271 -0.2306  0.6047
    1SOL    HW2 6374   2.993   4.668   2.711 -0.4573  1.8777  0.3495
    1SOL    HW3 6375   2.918   4.651   2.580 -1.3714  2.2906  0.8117
    1SOL    MW4 6376   2.923   4.642   2.667 -0.0739  0.3800  0.5980
    1SOL     OW 6377   2.683   0.122   2.704 -0.1485 -0.3931 -0.1316
    1SOL    HW2 6378   2.672   0.116   2.799  1.1711  1.4873  0.1635
    1SOL    HW3 6379   2.769   0.082   2.687 -0.0420 -0.0345 -0.4406
    1SOL    MW4 6380   2.693   0.116   2.714  0.0396 -0.0977 -0.1335
    1SOL     OW 6381   2.674   0.393   2.622 -0.1508 -0.2205  0.3182
    1SOL    HW2 6382   2.699   0.307   2.657 -0.2427 -0.1720  0.5012
    1SOL    HW3 6383   2.588   0.410   2.659 -0.7154 -0.6492 -0.7757
    1SOL    MW4 6384   2.666   0.384   2.631 -0.2372 -0.2706  0.1981
    1SOL     OW 6385   2.869   0.503   2.755 -0.2978  0.5151 -0.0494
    1SOL    HW2 6386   2.885   0.588   2.715 -0.4924  1.2109  1.3416
    1SOL    HW3 6387   2.796   0.466   2.705  0.1321  0.9296 -0.9897
    1SOL    MW4 6388   2.862   0.509   2.743 -0.2666  0.6617  0.0100
    1SOL     OW 6389   2.899   0.748   2.617 -0.0616 -0.1965 -0.0680
    1SOL    HW2 6390   2.974   0.791   2.659 -0.6098 -0.6308  1.4018
    1SOL    HW3 6391   2.823   0.789   2.657 -0.6023 -0.4034 -0.8842
    1SOL    MW4 6392   2.899   0.759   2.628 -0.2050 -0.2810  0.0181
    1SOL     OW 6393   2.696   0.857   2.732  0.3327 -0.0277  0.4314
    1SOL    HW2 6394   2.686   0.868   2.827 -0.3127 -1.2473  0.5102
    1SOL    HW3 6395   2.610   0.828   2.702  1.0307 -1.3975 -0.2771
    1SOL    MW4 6396   2.683   0.855   2.741  0.3397 -0.3693  0.3483
    1SOL     OW 6397   2.659   1.114   2.669 -0.6914  0.3624 -0.3406
    1SOL    HW2 6398   2.732   1.163   2.708 -1.2326  1.3648 -0.5707
    1SOL    HW3 6399   2.677   1.023   2.691  0.0229  0.7202  0.6059
    1SOL    MW4 6400   2.671   1.108   2.677 -0.6685  0.5419 -0.2460
    1SOL     OW 6401   2.876   1.271   2.742 -0.3195  0.0662  0.3922
    1SOL    HW2 6402   2.876   1.268   2.838 -0.3475 -0.9385  0.3688
    1SOL    HW3 6403   2.968   1.254   2.718 -0.4488 -0.4381  0.2329
    1SOL    MW4 6404   2.888   1.268   2.751 -0.3402 -0.1329  0.3684
    1SOL     OW 6405   2.920   1.538   2.660 -0.6937  0.5947 -0.0516
    1SOL    HW2 6406   2.839   1.581   2.688  0.6319  2.3483  1.2080
    1SOL    HW3 6407   2.905   1.445   2.678 -2.8342  0.7598 -0.8789
    1SOL    MW4 6408   2.907   1.532   2.666 -0.8013  0.8479  0.0055
    1SOL     OW 6409   2.667   1.637   2.736 -0.2777 -0.4757  0.0798
    1SOL    HW2 6410   2.648   1.663   2.826  0.0103 -1.5941  0.4784
    1SOL    HW3 6411   2.587   1.593   2.706 -0.7105  0.7158 -0.5353
    1SOL    MW4 6412   2.654   1.634   2.744 -0.2968 -0.4661  0.0515
    1SOL     OW 6413   2.683   1.898   2.646  0.0981 -0.0278 -0.0498
    1SOL    HW2 6414   2.693   1.807   2.673  1.6224  0.3619  0.7901
    1SOL    HW3 6415   2.601   1.927   2.686  1.1195 -0.1682  2.1942
    1SOL    MW4 6416   2.674   1.890   2.655  0.4339  0.0050  0.3572
    1SOL     OW 6417   2.907   2.049   2.775 -0.4084  0.5080  0.2554
    1SOL    HW2 6418   2.895   2.137   2.739 -0.1684  0.3090 -0.3273
    1SOL    HW3 6419   2.830   2.000   2.745 -0.4263  0.4570  0.3834
    1SOL    MW4 6420   2.895   2.054   2.766 -0.3791  0.4752  0.1953
    1SOL     OW 6421   2.923   2.293   2.642  0.1408 -0.5795 -0.5440
    1SOL    HW2 6422   2.985   2.344   2.692 -0.2766  0.2554 -0.8683
    1SOL    HW3 6423   2.838   2.332   2.661 -0.4474 -2.4727  0.8647
    1SOL    MW4 6424   2.920   2.305   2.651  0.0081 -0.7191 -0.4010
    1SOL     OW 6425   2.696   2.451   2.717  0.2208  0.2055  0.1300
    1SOL    HW2 6426   2.714   2.451   2.811  1.3717 -0.0763 -0.0743
    1SOL    HW3 6427   2.715   2.541   2.690  0.8587  0.0357  0.0013
    1SOL    MW4 6428   2.701   2.463   2.726  0.4566  0.1459  0.0858
    1SOL     OW 6429   2.719   2.720   2.628 -0.0748  0.5883  0.1906
    1SOL    HW2 6430   2.793   2.777   2.651  0.0739  0.5641 -0.2336
    1SOL    HW3 6431   2.718   2.719   2.532  0.1444 -0.4175  0.1933
    1SOL    MW4 6432   2.728   2.728   2.618 -0.0260  0.4525  0.1347
    1SOL     OW 6433   2.951   2.839   2.739 -0.2992  0.1213 -0.2332
    1SOL    HW2 6434   2.960   2.859   2.832  1.7563  1.7443 -0.7389
    1SOL    HW3 6435   2.934   2.924   2.698  0.1468 -0.3799 -1.4873
    1SOL    MW4 6436   2.950   2.853   2.746  0.0308  0.2692 -0.4654
    1SOL     OW 6437   2.910   3.110   2.663  0.1392 -0.1014 -0.4602
    1SOL    HW2 6438   2.835   3.151   2.706  0.3406 -0.3910  0.1629
    1SOL    HW3 6439   2.881   3.098   2.572 -0.2673  0.5434 -0.4238
    1SOL    MW4 6440   2.896   3.114   2.657  0.1123 -0.0544 -0.3731
    1SOL     OW 6441   2.681   3.226   2.780  0.0927  0.0957  0.5078
    1SOL    HW2 6442   2.682   3.306   2.727 -1.3021 -0.8594 -0.9834
    1SOL    HW3 6443   2.607   3.176   2.746  0.2627 -1.3261  2.1982
    1SOL    MW4 6444   2.672   3.230   2.769 -0.0691 -0.2179  0.5341
    1SOL     OW 6445   2.701   3.461   2.637  0.0790 -0.1103  0.0303
    1SOL    HW2 6446   2.626   3.503   2.679 -0.1198 -1.6648  1.2706
    1SOL    HW3 6447   2.680   3.463   2.544 -1.2075  0.0220  0.3084
    1SOL    MW4 6448   2.689   3.467   2.631 -0.1168 -0.2980  0.2306
    1SOL     OW 6449   2.895   3.626   2.764 -0.1827  0.0465  0.1428
    1SOL    HW2 6450   2.894   3.603   2.857  2.4882 -0.0117  0.1838
    1SOL    HW3 6451   2.821   3.577   2.727 -1.0994 -0.1480  2.1686
    1SOL    MW4 6452   2.885   3.616   2.772  0.0486  0.0134  0.4156
    1SOL     OW 6453   2.907   3.882   2.659  0.1232  0.0639  0.3551
    1SOL    HW2 6454   2.981   3.919   2.707  0.9007 -1.3903  0.3054
    1SOL    HW3 6455   2.898   3.793   2.693 -0.6866 -0.2563 -0.6668
    1SOL    MW4 6456   2.916   3.875   2.670  0.1187 -0.1702  0.2136
    1SOL     OW 6457   2.678   4.020   2.780  0.5510 -0.0693  0.2878
    1SOL    HW2 6458   2.686   4.111   2.749  1.1350 -0.4315 -0.6240
    1SOL    HW3 6459   2.749   3.973   2.737 -0.5927 -1.2567 -0.3384
    1SOL    MW4 6460   2.688   4.026   2.770  0.4771 -0.2742  0.0849
    1SOL     OW 6461   2.692   4.268   2.692 -0.2924 -0.1554  0.1294
    1SOL    HW2 6462   2.776   4.305   2.722 -0.8078 -0.3630  1.8796
    1SOL    HW3 6463   2.626   4.327   2.729 -0.9773 -0.8596  0.0247
    1SOL    MW4 6464   2.694   4.281   2.701 -0.4508 -0.2761  0.3467
    1SOL     OW 6465   2.925   4.378   2.766 -0.0544  0.2264  0.0389
    1SOL    HW2 6466   2.926   4.378   2.862 -0.1340  0.6214  0.0401
    1SOL    HW3 6467   2.904   4.468   2.742 -0.3467  0.0554 -0.3471
    1SOL    MW4 6468   2.923   4.390   2.775 -0.1035  0.2556 -0.0117
    1SOL     OW 6469   3.390   4.635   2.657  0.2330 -0.1569  0.2158
    1SOL    HW2 6470   3.379   4.542   2.676 -1.2526 -0.0942 -0.2908
    1SOL    HW3 6471   3.308   4.676   2.685  0.7459  0.9453  0.1361
    1SOL    MW4 6472   3.378   4.629   2.663  0.1047 -0.0033  0.1383
    1SOL     OW 6473   3.157   0.093   2.738  0.4016  0.3456  0.0243
    1SOL    HW2 6474   3.150   0.104   2.833  2.9198 -0.4643  0.3399
    1SOL    HW3 6475   3.152   0.182   2.703 -2.6401  0.5245  0.6913
    1SOL    MW4 6476   3.155   0.106   2.746  0.3328  0.2624  0.1540
    1SOL     OW 6477   3.119   0.375   2.666 -0.0236 -0.1270 -0.0710
    1SOL    HW2 6478   3.037   0.412   2.698 -0.8712 -1.2559 -0.8815
    1SOL    HW3 6479   3.110   0.372   2.571  1.3631  0.6407 -0.2520
    1SOL    MW4 6480   3.107   0.379   2.658  0.0472 -0.1746 -0.2017
    1SOL     OW 6481   3.354   0.497   2.758 -0.0111 -0.0160  0.0389
    1SOL    HW2 6482   3.368   0.583   2.719  1.2765 -0.6363 -0.9176
    1SOL    HW3 6483   3.271   0.467   2.720 -1.1802  1.3478  1.4301
    1SOL    MW4 6484   3.345   0.504   2.748  0.0045  0.0821  0.0963
    1SOL     OW 6485   3.348   0.754   2.668 -0.0319  0.1745 -0.0798
    1SOL    HW2 6486   3.423   0.805   2.698  0.1534  0.2211 -0.6289
    1SOL    HW3 6487   3.352   0.758   2.573  0.6623 -1.8175 -0.1729
    1SOL    MW4 6488   3.359   0.761   2.660  0.0839 -0.0822 -0.1643
    1SOL     OW 6489   3.116   0.879   2.731  0.4081 -0.1128 -0.4048
    1SOL    HW2 6490   3.117   0.891   2.826 -1.0184  0.1867 -0.4075
    1SOL    HW3 6491   3.202   0.843   2.710  0.8275  0.0603  0.9689
    1SOL    MW4 6492   3.127   0.876   2.741  0.2751 -0.0505 -0.2239
    1SOL     OW 6493   3.135   1.171   2.688  0.3677  0.3440  0.0875
    1SOL    HW2 6494   3.127   1.079   2.714 -0.8535  0.7381  1.1310
    1SOL    HW3 6495   3.122   1.171   2.593  0.4636 -0.5616  0.0695
    1SOL    MW4 6496   3.132   1.159   2.679  0.2191  0.2766  0.2232
    1SOL     OW 6497   3.376   1.294   2.728 -0.1271  0.3499 -0.5172
    1SOL    HW2 6498   3.374   1.290   2.824  0.2995 -0.0658 -0.5247
    1SOL    HW3 6499   3.296   1.250   2.700 -0.1468  0.2828 -0.3572
    1SOL    MW4 6500   3.366   1.288   2.737 -0.0734  0.2863 -0.4973
    1SOL     OW 6501   3.399   1.559   2.644  0.1183 -0.0399  0.2441
    1SOL    HW2 6502   3.317   1.606   2.660 -0.6900 -0.6911 -1.8795
    1SOL    HW3 6503   3.386   1.474   2.686 -0.2938 -0.1304 -0.0617
    1SOL    MW4 6504   3.386   1.554   2.652 -0.0427 -0.1378 -0.0763
    1SOL     OW 6505   3.149   1.687   2.710 -0.1646 -0.2900 -0.1218
    1SOL    HW2 6506   3.147   1.776   2.675 -0.4185  0.7135  2.3134
    1SOL    HW3 6507   3.065   1.649   2.686 -0.2565  0.3114 -0.7542
    1SOL    MW4 6508   3.138   1.694   2.702 -0.2103 -0.0783  0.1161
    1SOL     OW 6509   3.126   1.966   2.626 -0.0782 -0.8621  0.3546
    1SOL    HW2 6510   3.214   1.987   2.659  0.2651  2.2271 -2.2243
    1SOL    HW3 6511   3.067   2.010   2.686  0.3074 -0.2093  0.2682
    1SOL    MW4 6512   3.130   1.975   2.638  0.0176 -0.3685  0.0031
    1SOL     OW 6513   3.351   2.047   2.729  0.1306  1.2501  0.0489
    1SOL    HW2 6514   3.331   2.039   2.822  1.1249 -0.0399  0.1728
    1SOL    HW3 6515   3.369   2.140   2.716  1.7257  1.1849  1.5378
    1SOL    MW4 6516   3.351   2.058   2.740  0.4721  1.0715  0.2618
    1SOL     OW 6517   3.388   2.309   2.635 -0.5967  0.5830  0.0459
    1SOL    HW2 6518   3.458   2.358   2.676 -0.6931  0.1641  0.7181
    1SOL    HW3 6519   3.398   2.327   2.541  0.2816  0.6869  0.1521
    1SOL    MW4 6520   3.399   2.318   2.628 -0.4935  0.5410  0.1485
    1SOL     OW 6521   3.148   2.416   2.730 -0.5825 -0.0591  0.0236
    1SOL    HW2 6522   3.159   2.509   2.713  0.1013  0.0676  1.0971
    1SOL    HW3 6523   3.221   2.374   2.684  1.2603  0.2806  2.5938
    1SOL    MW4 6524   3.159   2.422   2.722 -0.2491  0.0024  0.5045
    1SOL     OW 6525   3.176   2.694   2.666  0.2002 -0.1286  0.1166
    1SOL    HW2 6526   3.251   2.739   2.705 -0.2401  2.4331 -1.8507
    1SOL    HW3 6527   3.099   2.739   2.702 -0.4277 -2.2285  1.5158
    1SOL    MW4 6528   3.176   2.706   2.676  0.0591 -0.0677  0.0417
    1SOL     OW 6529   3.378   2.874   2.760 -0.0610  0.2583  0.0555
    1SOL    HW2 6530   3.372   2.866   2.855  0.9952  3.3904  0.4310
    1SOL    HW3 6531   3.459   2.828   2.737  0.6624  1.1053  0.8966
    1SOL    MW4 6532   3.388   2.867   2.769  0.1736  0.7832  0.2160
    1SOL     OW 6533   3.321   3.123   2.647 -0.2133  0.1190 -0.4601
    1SOL    HW2 6534   3.352   3.034   2.664 -1.3638  0.1708  2.1694
    1SOL    HW3 6535   3.333   3.135   2.552  0.3243 -2.6724 -0.7917
    1SOL    MW4 6536   3.327   3.112   2.636 -0.2940 -0.2425 -0.1569
    1SOL     OW 6537   3.119   3.238   2.780 -0.3107  0.0718  0.2585
    1SOL    HW2 6538   3.188   3.180   2.747 -0.8437  0.7164 -2.0230
    1SOL    HW3 6539   3.038   3.193   2.759 -0.6628  0.4015  0.8861
    1SOL    MW4 6540   3.118   3.224   2.773 -0.4275  0.2003  0.0405
    1SOL     OW 6541   3.095   3.458   2.636  0.0284 -0.2561 -0.1120
    1SOL    HW2 6542   3.114   3.377   2.683 -0.5236  0.1986  0.8994
    1SOL    HW3 6543   3.024   3.499   2.685  0.4711  0.9641 -0.4588
    1SOL    MW4 6544   3.088   3.453   2.649  0.0138 -0.0353 -0.0243
    1SOL     OW 6545   3.325   3.640   2.777  0.1625 -0.2981  0.0901
    1SOL    HW2 6546   3.337   3.606   2.865 -0.1444 -1.8540 -0.4474
    1SOL    HW3 6547   3.257   3.584   2.739  0.6290  0.0562 -1.2964
    1SOL    MW4 6548   3.317   3.628   2.783  0.1838 -0.4566 -0.1640
    1SOL     OW 6549   3.357   3.885   2.653  0.7640 -0.2896 -0.2991
    1SOL    HW2 6550   3.360   3.799   2.695 -0.2041 -0.3822 -0.3924
    1SOL    HW3 6551   3.331   3.867   2.563  1.6734  0.0108 -0.6284
    1SOL    MW4 6552   3.354   3.871   2.647  0.7560 -0.2625 -0.3548
    1SOL     OW 6553   3.137   4.002   2.764 -0.5122  0.1313  0.3444
    1SOL    HW2 6554   3.145   4.085   2.718 -1.2180  0.3342  0.5813
    1SOL    HW3 6555   3.207   3.947   2.728 -0.8553  0.3992 -0.7229
    1SOL    MW4 6556   3.147   4.005   2.753 -0.6504  0.1936  0.2348
    1SOL     OW 6557   3.148   4.249   2.631  0.2910  0.1298 -0.0624
    1SOL    HW2 6558   3.081   4.315   2.647 -1.1112 -1.3017  0.0812
    1SOL    HW3 6559   3.156   4.246   2.536  0.2739  0.4311 -0.0733
    1SOL    MW4 6560   3.140   4.257   2.620  0.1037 -0.0196 -0.0448
    1SOL     OW 6561   3.387   4.376   2.706  0.2997  0.4207  0.5711
    1SOL    HW2 6562   3.378   4.367   2.801  0.9594  0.6290  0.6540
    1SOL    HW3 6563   3.310   4.331   2.670 -0.5021  1.2511  1.2375
    1SOL    MW4 6564   3.376   4.369   2.714  0.2809  0.5579  0.6702
    1SOL     OW 6565   3.789   0.004   2.689  0.1680 -0.0638  0.0145
    1SOL    HW2 6566   3.814  -0.081   2.726 -0.7596 -0.3493 -0.0073
    1SOL    HW3 6567   3.718   0.034   2.746  0.6623  0.8207  0.1778
    1SOL    MW4 6568   3.783  -0.003   2.702  0.1106  0.0153  0.0331
    1SOL     OW 6569   3.583   0.107   2.832  0.1114  0.5956  0.2544
    1SOL    HW2 6570   3.589   0.194   2.792  0.9253  0.8989  1.0156
    1SOL    HW3 6571   3.521   0.060   2.777  1.1077  1.0349 -1.2990
    1SOL    MW4 6572   3.576   0.112   2.820  0.3502  0.6935  0.1500
    1SOL     OW 6573   3.573   0.366   2.670  0.3700  0.3135 -0.4757
    1SOL    HW2 6574   3.649   0.417   2.699  1.0279 -1.7596  1.6151
    1SOL    HW3 6575   3.499   0.404   2.717  0.8354 -0.4677  0.9505
    1SOL    MW4 6576   3.573   0.378   2.680  0.5183 -0.0631 -0.0117
    1SOL     OW 6577   3.803   0.491   2.755 -0.3323 -0.0515  0.3232
    1SOL    HW2 6578   3.807   0.469   2.848  1.0644  0.5337  0.4123
    1SOL    HW3 6579   3.875   0.442   2.716 -1.8403 -1.4931 -0.7241
    1SOL    MW4 6580   3.813   0.481   2.762 -0.3471 -0.1644  0.1969
    1SOL     OW 6581   3.783   0.740   2.601  0.2569  0.5551 -0.5853
    1SOL    HW2 6582   3.716   0.789   2.649  0.4966  1.3478 -1.0455
    1SOL    HW3 6583   3.796   0.660   2.652 -0.4070  0.8042 -0.0200
    1SOL    MW4 6584   3.776   0.736   2.614  0.2010  0.6926 -0.5713
    1SOL     OW 6585   3.587   0.884   2.718  0.2467 -0.3103 -0.5593
    1SOL    HW2 6586   3.599   0.893   2.812  1.9619 -0.3739 -0.7663
    1SOL    HW3 6587   3.587   0.974   2.684 -2.5472 -0.1460 -0.2743
    1SOL    MW4 6588   3.588   0.897   2.726  0.1044 -0.2970 -0.5491
    1SOL     OW 6589   3.582   1.142   2.623 -0.2926  0.4092 -0.2136
    1SOL    HW2 6590   3.664   1.187   2.644  0.2369  0.1181 -1.6158
    1SOL    HW3 6591   3.514   1.201   2.656  0.4614  0.8007  0.6850
    1SOL    MW4 6592   3.584   1.156   2.630 -0.1230  0.4222 -0.2804
    1SOL     OW 6593   3.803   1.270   2.707  0.0736  0.2601 -0.1845
    1SOL    HW2 6594   3.884   1.226   2.681 -0.1077  0.8254 -1.7523
    1SOL    HW3 6595   3.814   1.361   2.678 -0.4267  0.7544  1.1286
    1SOL    MW4 6596   3.815   1.276   2.699 -0.0165  0.3999 -0.2184
    1SOL     OW 6597   3.841   1.536   2.652  0.2703 -0.0793  0.4304
    1SOL    HW2 6598   3.919   1.583   2.680 -0.3616  0.2664  1.6679
    1SOL    HW3 6599   3.769   1.583   2.694 -0.6578  0.0076 -1.2280
    1SOL    MW4 6600   3.842   1.548   2.661  0.0646 -0.0224  0.3746
    1SOL     OW 6601   3.618   1.662   2.767 -0.3198  0.7173  0.0287
    1SOL    HW2 6602   3.632   1.747   2.724 -0.6001  0.5797 -0.3353
    1SOL    HW3 6603   3.544   1.624   2.721 -0.4416  0.4419  0.4538
    1SOL    MW4 6604   3.610   1.668   2.755 -0.3729  0.6628  0.0370
    1SOL     OW 6605   3.592   1.905   2.644 -0.1858  0.1254 -0.1530
    1SOL    HW2 6606   3.516   1.952   2.680 -0.8757 -0.2777 -1.0402
    1SOL    HW3 6607   3.588   1.925   2.550  0.7114 -0.0409 -0.2236
    1SOL    MW4 6608   3.581   1.914   2.636 -0.1583  0.0503 -0.2797
    1SOL     OW 6609   3.821   2.040   2.750  0.7133 -0.1389  0.5961
    1SOL    HW2 6610   3.892   1.991   2.710  0.6149 -1.5957  2.1687
    1SOL    HW3 6611   3.742   1.994   2.722  0.4979  0.3494  0.3972
    1SOL    MW4 6612   3.820   2.027   2.741  0.6719 -0.2666  0.7775
    1SOL     OW 6613   3.782   2.304   2.673 -0.0057 -0.3596  0.5310
    1SOL    HW2 6614   3.805   2.218   2.709  1.4679 -0.0986  0.2354
    1SOL    HW3 6615   3.793   2.294   2.578 -0.1332  0.0689  0.4697
    1SOL    MW4 6616   3.786   2.291   2.665  0.1719 -0.2687  0.4840
    1SOL     OW 6617   3.594   2.466   2.761  0.3095  0.0172  0.3011
    1SOL    HW2 6618   3.603   2.443   2.853  1.0734 -1.0948 -0.0450
    1SOL    HW3 6619   3.660   2.413   2.716 -0.3118  0.2696 -0.9321
    1SOL    MW4 6620   3.604   2.456   2.767  0.3283 -0.0958  0.0927
    1SOL     OW 6621   3.568   2.719   2.648 -0.1629  0.0387  0.2447
    1SOL    HW2 6622   3.574   2.629   2.678  4.4361  0.6752  1.6119
    1SOL    HW3 6623   3.576   2.713   2.552  0.3093 -0.9623  0.3422
    1SOL    MW4 6624   3.570   2.706   2.639  0.5059 -0.0095  0.4382
    1SOL     OW 6625   3.766   2.872   2.746  0.0199 -0.2535 -0.7025
    1SOL    HW2 6626   3.850   2.836   2.716  0.6493 -0.4887  1.2692
    1SOL    HW3 6627   3.701   2.815   2.705  0.8720 -1.0986 -0.9282
    1SOL    MW4 6628   3.769   2.860   2.736  0.2153 -0.3965 -0.4723
    1SOL     OW 6629   3.762   3.122   2.644 -0.2526 -0.5043  0.0618
    1SOL    HW2 6630   3.688   3.161   2.690 -0.9969 -0.4311 -1.1714
    1SOL    HW3 6631   3.758   3.029   2.665 -0.3328 -0.4032  0.4854
    1SOL    MW4 6632   3.752   3.115   2.653 -0.3614 -0.4814 -0.0451
    1SOL     OW 6633   3.544   3.242   2.774 -0.2361  0.1874 -0.2078
    1SOL    HW2 6634   3.543   3.332   2.743  1.2713 -0.5041 -2.3413
    1SOL    HW3 6635   3.474   3.199   2.725  0.3463 -0.2716 -0.6351
    1SOL    MW4 6636   3.534   3.248   2.763  0.0396  0.0355 -0.5457
    1SOL     OW 6637   3.516   3.509   2.594 -0.4067 -0.3861 -0.0569
    1SOL    HW2 6638   3.581   3.552   2.649 -0.1232 -0.3634 -0.4085
    1SOL    HW3 6639   3.434   3.555   2.613 -0.4192 -0.7381  0.7534
    1SOL    MW4 6640   3.514   3.521   2.604 -0.3712 -0.4294  0.0033
    1SOL     OW 6641   3.727   3.602   2.762 -0.3351  0.0927 -0.0080
    1SOL    HW2 6642   3.798   3.558   2.714 -1.7456 -0.9124 -1.2238
    1SOL    HW3 6643   3.740   3.695   2.743 -0.1746 -0.1997 -1.4208
    1SOL    MW4 6644   3.738   3.608   2.753 -0.5000 -0.0784 -0.3548
    1SOL     OW 6645   3.756   3.878   2.674 -0.2474  0.4287  0.5279
    1SOL    HW2 6646   3.838   3.922   2.694 -0.1054  0.3359  0.1485
    1SOL    HW3 6647   3.689   3.934   2.713 -0.0878  1.1185 -0.1699
    1SOL    MW4 6648   3.758   3.891   2.682 -0.2074  0.5074  0.3858
    1SOL     OW 6649   3.534   4.027   2.796  0.2019 -0.0585 -0.2695
    1SOL    HW2 6650   3.566   4.101   2.744 -1.6139  0.1571 -1.0879
    1SOL    HW3 6651   3.467   3.986   2.742 -1.7894  0.2104  1.9328
    1SOL    MW4 6652   3.530   4.032   2.782 -0.3004  0.0062 -0.0870
    1SOL     OW 6653   3.642   4.245   2.648  0.3818  0.5305 -0.5463
    1SOL    HW2 6654   3.558   4.287   2.668 -0.5048 -1.5755  0.3370
    1SOL    HW3 6655   3.645   4.243   2.553 -0.6012  0.5630 -0.5854
    1SOL    MW4 6656   3.631   4.251   2.638  0.1352  0.2565 -0.4349
    1SOL     OW 6657   3.856   4.392   2.762 -0.7281  0.0696  0.1586
    1SOL    HW2 6658   3.936   4.350   2.730 -0.4508  1.1197 -0.5824
    1SOL    HW3 6659   3.785   4.347   2.716 -0.6028 -1.1591  1.1454
    1SOL    MW4 6660   3.857   4.381   2.751 -0.6750  0.0463  0.1907
    1SOL     OW 6661   4.238   4.643   2.625  0.2638 -0.5193  0.0198
    1SOL    HW2 6662   4.171   4.694   2.671 -0.4058 -0.0142 -1.4581
    1SOL    HW3 6663   4.321   4.673   2.661 -0.1557  1.1962 -0.3866
    1SOL    MW4 6664   4.240   4.654   2.636  0.1197 -0.2265 -0.2289
    1SOL     OW 6665   4.031   0.118   2.744  0.1745 -0.2144 -0.2136
    1SOL    HW2 6666   4.031   0.105   2.839  0.7561  0.6012 -0.1014
    1SOL    HW3 6667   3.954   0.070   2.714 -0.1575 -0.2671  0.6968
    1SOL    MW4 6668   4.021   0.110   2.753  0.2079 -0.1137 -0.0787
    1SOL     OW 6669   4.040   0.371   2.631  0.3639 -0.2999 -0.0777
    1SOL    HW2 6670   4.036   0.282   2.666 -1.3458 -0.1604  0.1262
    1SOL    HW3 6671   4.032   0.361   2.537 -2.1449 -0.2445  0.0971
    1SOL    MW4 6672   4.038   0.358   2.623 -0.1931 -0.2742 -0.0279
    1SOL     OW 6673   4.278   0.471   2.711 -0.5265 -0.0861 -0.2067
    1SOL    HW2 6674   4.194   0.430   2.694 -0.6624 -0.0117  0.2601
    1SOL    HW3 6675   4.342   0.419   2.662 -0.8501 -0.1222 -0.5831
    1SOL    MW4 6676   4.276   0.459   2.703 -0.5865 -0.0810 -0.1948
    1SOL     OW 6677   4.219   0.729   2.624 -0.5602 -0.1418 -0.1963
    1SOL    HW2 6678   4.230   0.636   2.645 -0.3384 -0.1722 -0.4387
    1SOL    HW3 6679   4.260   0.739   2.538 -0.4023  0.2208 -0.0806
    1SOL    MW4 6680   4.226   0.718   2.615 -0.5097 -0.0979 -0.2129
    1SOL     OW 6681   3.991   0.841   2.729  0.3436 -0.0320  0.5927
    1SOL    HW2 6682   4.063   0.812   2.673  0.1933 -1.5934  1.1691
    1SOL    HW3 6683   3.914   0.799   2.691  0.1639 -0.6560  1.6170
    1SOL    MW4 6684   3.991   0.831   2.717  0.2999 -0.3204  0.8039
    1SOL     OW 6685   4.011   1.115   2.617  0.1072  0.2103 -0.3340
    1SOL    HW2 6686   4.095   1.144   2.654  0.4282  0.0750 -0.9573
    1SOL    HW3 6687   3.994   1.031   2.660 -0.2974  0.7967  0.6741
    1SOL    MW4 6688   4.020   1.108   2.628  0.0963  0.2697 -0.2830
    1SOL     OW 6689   4.241   1.215   2.713 -0.1903 -0.0439  0.2234
    1SOL    HW2 6690   4.242   1.308   2.689 -0.0823 -0.3373 -0.9406
    1SOL    HW3 6691   4.328   1.183   2.688 -0.2079 -0.4479  0.6744
    1SOL    MW4 6692   4.253   1.223   2.707 -0.1779 -0.1359  0.1292
    1SOL     OW 6693   4.276   1.493   2.656  0.0149 -0.4707 -0.0178
    1SOL    HW2 6694   4.354   1.548   2.666  1.2692 -2.1378 -0.4227
    1SOL    HW3 6695   4.249   1.508   2.565  0.0136 -0.0906  0.0432
    1SOL    MW4 6696   4.283   1.502   2.645  0.1802 -0.6406 -0.0632
    1SOL     OW 6697   4.066   1.664   2.739  0.0305 -0.4046  0.0315
    1SOL    HW2 6698   4.039   1.652   2.830  1.6106 -1.1005  0.4215
    1SOL    HW3 6699   4.130   1.594   2.723  1.5455  1.1416 -0.8658
    1SOL    MW4 6700   4.071   1.653   2.748  0.4392 -0.2924 -0.0353
    1SOL     OW 6701   4.017   1.909   2.610  0.2324  0.0573  0.0791
    1SOL    HW2 6702   4.084   1.969   2.642  0.4155 -0.2536  0.2884
    1SOL    HW3 6703   4.025   1.832   2.667  0.1164 -0.2350 -0.2959
    1SOL    MW4 6704   4.027   1.907   2.622  0.2413 -0.0223  0.0570
    1SOL     OW 6705   4.232   2.048   2.715  0.2215  0.3865  0.6960
    1SOL    HW2 6706   4.233   2.126   2.660 -0.1339  0.0444  0.2048
    1SOL    HW3 6707   4.301   1.992   2.678 -1.3571 -0.6998 -0.6439
    1SOL    MW4 6708   4.241   2.051   2.703 -0.0339  0.1981  0.4547
    1SOL     OW 6709   4.236   2.310   2.598 -0.1926 -0.2765 -0.3256
    1SOL    HW2 6710   4.156   2.358   2.617 -0.2098 -0.4324  0.0031
    1SOL    HW3 6711   4.240   2.306   2.502 -0.1868  0.3811 -0.3548
    1SOL    MW4 6712   4.226   2.316   2.588 -0.1936 -0.2103 -0.2861
    1SOL     OW 6713   4.004   2.465   2.699  0.0176  0.1675 -0.3577
    1SOL    HW2 6714   4.030   2.441   2.787 -0.5174 -0.5512 -0.3887
    1SOL    HW3 6715   3.924   2.414   2.683 -0.0625  0.5285 -1.1347
    1SOL    MW4 6716   3.997   2.455   2.708 -0.0634  0.1204 -0.4642
    1SOL     OW 6717   4.015   2.733   2.637  0.4980 -0.2101 -0.0661
    1SOL    HW2 6718   4.096   2.760   2.680  0.4065  0.8962 -0.5836
    1SOL    HW3 6719   4.000   2.644   2.669  1.3556 -0.0384  0.8456
    1SOL    MW4 6720   4.023   2.725   2.647  0.5984 -0.0415 -0.0141
    1SOL     OW 6721   4.267   2.835   2.730  0.1627 -0.1120 -0.7352
    1SOL    HW2 6722   4.270   2.846   2.825 -2.0031  0.7017 -0.7387
    1SOL    HW3 6723   4.257   2.923   2.695 -3.2779 -0.6779 -1.4504
    1SOL    MW4 6724   4.266   2.848   2.738 -0.5770 -0.0794 -0.8302
    1SOL     OW 6725   4.228   3.093   2.654  0.0639 -0.4482  0.0114
    1SOL    HW2 6726   4.160   3.147   2.694  0.0509 -0.6045  0.2055
    1SOL    HW3 6727   4.223   3.112   2.560 -0.3787 -0.6036  0.0028
    1SOL    MW4 6728   4.219   3.103   2.647  0.0033 -0.4892  0.0358
    1SOL     OW 6729   4.007   3.219   2.760 -0.4300  0.0302 -0.1163
    1SOL    HW2 6730   3.999   3.312   2.740  0.5281  0.3274  0.8610
    1SOL    HW3 6731   3.927   3.180   2.725  0.2176  0.8586 -2.6490
    1SOL    MW4 6732   3.995   3.226   2.753 -0.2186  0.1788 -0.3219
    1SOL     OW 6733   3.960   3.503   2.652  0.4339 -0.2269  0.1737
    1SOL    HW2 6734   4.044   3.542   2.676  1.0442 -1.5491  0.2107
    1SOL    HW3 6735   3.968   3.482   2.559  0.0108 -0.0252  0.0892
    1SOL    MW4 6736   3.972   3.506   2.643  0.4582 -0.3746  0.1674
    1SOL     OW 6737   4.225   3.590   2.724  0.3289 -0.0711 -0.1820
    1SOL    HW2 6738   4.229   3.583   2.820  0.7621  0.8426 -0.1202
    1SOL    HW3 6739   4.293   3.531   2.693 -1.0101 -1.7249  0.0014
    1SOL    MW4 6740   4.235   3.582   2.733  0.2093 -0.1686 -0.1497
    1SOL     OW 6741   4.277   3.915   2.657  0.0637  0.0788  0.1712
    1SOL    HW2 6742   4.274   3.821   2.676  0.6785  0.2466  1.1399
    1SOL    HW3 6743   4.357   3.945   2.700 -0.6027  1.2130  0.6333
    1SOL    MW4 6744   4.288   3.906   2.666  0.0567  0.2506  0.3603
    1SOL     OW 6745   4.014   3.990   2.718  0.1384 -0.0423  0.0925
    1SOL    HW2 6746   4.004   3.990   2.814 -0.0801 -1.5137  0.0849
    1SOL    HW3 6747   4.106   3.971   2.704 -0.1174 -1.3106  0.0153
    1SOL    MW4 6748   4.024   3.987   2.729  0.0753 -0.4036  0.0815
    1SOL     OW 6749   4.070   4.251   2.621 -0.1751  0.0781 -0.1554
    1SOL    HW2 6750   4.051   4.163   2.651  0.6103 -0.3244 -0.8311
    1SOL    HW3 6751   4.059   4.247   2.526 -2.1064  1.1987 -0.0105
    1SOL    MW4 6752   4.066   4.239   2.612 -0.3262  0.1731 -0.2255
    1SOL     OW 6753   4.277   4.378   2.737 -0.2087  0.0713  0.3299
    1SOL    HW2 6754   4.216   4.321   2.690  0.7676  0.1352 -1.0333
    1SOL    HW3 6755   4.259   4.466   2.702 -0.1124  0.2589  0.7478
    1SOL    MW4 6756   4.267   4.382   2.726 -0.0672  0.1044  0.2053
    1SOL     OW 6757   0.183   4.644   3.119 -0.1580  0.1634  0.4271
    1SOL    HW2 6758   0.192   4.657   3.213  1.5856  0.0132  0.3040
    1SOL    HW3 6759   0.116   4.706   3.092  0.7119  1.5781  1.4594
    1SOL    MW4 6760   0.176   4.654   3.128  0.1868  0.3300  0.5469
    1SOL     OW 6761   4.481   0.148   3.013  0.0772 -0.2518 -0.1415
    1SOL    HW2 6762   4.401   0.106   3.043 -0.3820  1.2426  0.7759
    1SOL    HW3 6763   4.479   0.235   3.052  0.1552  1.2782 -3.3426
    1SOL    MW4 6764   4.470   0.154   3.022  0.0272  0.1473 -0.4430
    1SOL     OW 6765   4.476   0.393   3.130  0.3492 -0.2562  0.1279
    1SOL    HW2 6766   4.471   0.393   3.226  1.2609 -0.5604  0.1713
    1SOL    HW3 6767   4.387   0.417   3.102  0.5111  1.5744  1.0743
    1SOL    MW4 6768   4.463   0.396   3.139  0.4911 -0.0548  0.2584
    1SOL     OW 6769   0.206   0.517   2.976  0.0004  0.6616  0.3357
    1SOL    HW2 6770   0.273   0.469   3.025  0.4402 -0.3950 -1.2561
    1SOL    HW3 6771   0.126   0.506   3.028  0.7902  0.9143  1.6280
    1SOL    MW4 6772   0.204   0.509   2.989  0.1626  0.5555  0.2961
    1SOL     OW 6773   0.234   0.776   3.066  0.0822  0.3451  0.2513
    1SOL    HW2 6774   0.241   0.770   3.161  0.3752 -0.6527  0.1774
    1SOL    HW3 6775   0.216   0.686   3.038  1.5863  0.3311 -0.7549
    1SOL    MW4 6776   0.233   0.763   3.075  0.3193  0.2117  0.1090
    1SOL     OW 6777   4.459   0.904   3.039 -0.5646  0.0480  0.2244
    1SOL    HW2 6778   4.544   0.869   3.067  0.4536  0.7259 -1.9052
    1SOL    HW3 6779   4.455   0.885   2.945 -2.3238  0.9503  0.0912
    1SOL    MW4 6780   4.470   0.897   3.030 -0.6623  0.2564 -0.0741
    1SOL     OW 6781   0.007   1.176   3.123 -0.6682  0.4161  0.5263
    1SOL    HW2 6782  -0.074   1.217   3.094 -1.7874 -0.6871  1.9882
    1SOL    HW3 6783  -0.001   1.084   3.096  0.5234  0.5057 -0.1654
    1SOL    MW4 6784  -0.005   1.169   3.116 -0.6587  0.2823  0.6280
    1SOL     OW 6785   0.234   1.289   3.008 -0.5296 -0.0040 -0.0942
    1SOL    HW2 6786   0.154   1.251   3.043 -1.6772  1.2819 -1.2598
    1SOL    HW3 6787   0.230   1.272   2.914  0.8055 -0.3631 -0.0982
    1SOL    MW4 6788   0.223   1.282   3.000 -0.5049  0.1183 -0.2484
    1SOL     OW 6789   0.198   1.529   3.128 -0.3158  0.2730  0.1521
    1SOL    HW2 6790   0.109   1.546   3.096 -0.2925  1.0150  0.4757
    1SOL    HW3 6791   0.227   1.452   3.078 -1.2502 -0.1562  0.2588
    1SOL    MW4 6792   0.190   1.521   3.117 -0.4360  0.3141  0.2091
    1SOL     OW 6793   4.470   1.624   2.992  0.1653  0.1745 -0.2684
    1SOL    HW2 6794   4.388   1.595   3.031 -0.3130  0.5904 -0.9508
    1SOL    HW3 6795   4.477   1.716   3.016  1.0060 -0.1399  0.7473
    1SOL    MW4 6796   4.460   1.632   3.000  0.2131  0.1879 -0.2246
    1SOL     OW 6797   4.481   1.887   3.078  0.3288  0.4489  0.3251
    1SOL    HW2 6798   4.399   1.937   3.071 -0.6202 -1.0073  0.7031
    1SOL    HW3 6799   4.545   1.939   3.029 -1.0103  1.2095 -0.6624
    1SOL    MW4 6800   4.478   1.901   3.071  0.0267  0.3570  0.2446
    1SOL     OW 6801   0.205   2.064   2.972  0.1315  0.3954 -0.1769
    1SOL    HW2 6802   0.179   2.144   3.016  0.8893 -0.1457  1.2821
    1SOL    HW3 6803   0.185   2.080   2.880 -0.6399  1.8754  0.2307
    1SOL    MW4 6804   0.199   2.077   2.965  0.1297  0.5193  0.0691
    1SOL     OW 6805   0.187   2.330   3.095 -0.3648 -0.2066  0.8676
    1SOL    HW2 6806   0.202   2.333   3.189 -0.4148  0.1170  0.8672
    1SOL    HW3 6807   0.261   2.379   3.058 -1.9972  2.3728  0.9295
    1SOL    MW4 6808   0.199   2.337   3.102 -0.5867  0.1762  0.8759
    1SOL     OW 6809   4.473   2.473   2.978  0.5623  0.2812  0.0897
    1SOL    HW2 6810   4.467   2.559   3.019 -0.1192 -0.6156  1.9406
    1SOL    HW3 6811   4.539   2.427   3.030 -0.4055 -0.9178  0.2788
    1SOL    MW4 6812   4.481   2.478   2.991  0.3448  0.0048  0.3588
    1SOL     OW 6813   4.475   2.737   3.133 -0.0910 -0.0109 -0.2588
    1SOL    HW2 6814   4.479   2.744   3.229 -0.3937 -0.3286 -0.2227
    1SOL    HW3 6815   4.564   2.757   3.104 -0.0484  0.2881  0.0772
    1SOL    MW4 6816   4.487   2.741   3.142 -0.1259 -0.0131 -0.2096
    1SOL     OW 6817   0.229   2.822   3.010  0.4283 -0.2705 -0.3126
    1SOL    HW2 6818   0.310   2.783   3.043  0.3224 -0.2068  0.0249
    1SOL    HW3 6819   0.233   2.809   2.915  1.6377  1.2270 -0.4878
    1SOL    MW4 6820   0.240   2.815   3.001  0.5738 -0.0646 -0.2913
    1SOL     OW 6821   0.209   3.075   3.134  0.4418  0.0868  0.1329
    1SOL    HW2 6822   0.132   3.116   3.096  1.1168  0.0430 -1.3181
    1SOL    HW3 6823   0.215   2.990   3.090 -0.1272 -0.9756  2.0736
    1SOL    MW4 6824   0.200   3.069   3.123  0.4558 -0.0589  0.1976
    1SOL     OW 6825   0.008   3.245   3.037  0.4072 -0.3098 -0.5564
    1SOL    HW2 6826  -0.057   3.186   3.076 -1.3028  1.9872  0.2014
    1SOL    HW3 6827   0.002   3.229   2.943  0.4295 -1.7966 -0.3169
    1SOL    MW4 6828  -0.002   3.235   3.030  0.1845 -0.2029 -0.4249
    1SOL     OW 6829   4.477   3.498   3.120  0.4927  0.6387 -0.0992
    1SOL    HW2 6830   4.396   3.528   3.079  1.1529  1.3363 -0.9160
    1SOL    HW3 6831   4.483   3.405   3.096  0.6487  0.9341 -1.2327
    1SOL    MW4 6832   4.467   3.490   3.111  0.5999  0.7699 -0.3567
    1SOL     OW 6833   0.229   3.627   3.023 -0.0460  0.4481  0.1053
    1SOL    HW2 6834   0.230   3.709   3.072 -2.6413  0.3227  0.4095
    1SOL    HW3 6835   0.152   3.580   3.055  0.0046 -1.0435 -1.8415
    1SOL    MW4 6836   0.219   3.631   3.034 -0.3818  0.2344 -0.1116
    1SOL     OW 6837   0.211   3.866   3.155 -0.1597  0.1771 -0.2355
    1SOL    HW2 6838   0.208   3.875   3.250  2.2975 -2.5616  0.1935
    1SOL    HW3 6839   0.294   3.907   3.130  0.3558 -1.2509 -0.8903
    1SOL    MW4 6840   0.222   3.873   3.164  0.2325 -0.3726 -0.2651
    1SOL     OW 6841   4.475   3.958   3.035  0.1628  0.1423  0.1253
    1SOL    HW2 6842   4.553   3.933   3.085 -0.2306 -1.4125 -0.0183
    1SOL    HW3 6843   4.505   3.959   2.944  0.2277  0.4105  0.1483
    1SOL    MW4 6844   4.489   3.955   3.030  0.1197 -0.0272  0.1097
    1SOL     OW 6845   0.012   4.236   3.066  0.2602 -0.1306 -0.4441
    1SOL    HW2 6846   0.013   4.235   3.162  1.0062  0.6288 -0.4279
    1SOL    HW3 6847  -0.007   4.146   3.041 -0.3308 -0.2504  0.4253
    1SOL    MW4 6848   0.010   4.224   3.076  0.2806 -0.0463 -0.3273
    1SOL     OW 6849   0.224   4.394   2.991  0.2282  0.0458 -0.0563
    1SOL    HW2 6850   0.145   4.347   3.019 -0.7738  0.4343 -2.1728
    1SOL    HW3 6851   0.217   4.480   3.033 -1.3262  0.6732 -1.5592
    1SOL    MW4 6852   0.213   4.399   3.000 -0.1091  0.1798 -0.5338
    1SOL     OW 6853   0.669   4.640   3.068  0.2403  0.1024  0.2349
    1SOL    HW2 6854   0.669   4.544   3.061  0.3172  0.1602 -0.6869
    1SOL    HW3 6855   0.578   4.665   3.056  0.3130  0.1788 -0.1836
    1SOL    MW4 6856   0.657   4.630   3.065  0.2601  0.1197  0.0579
    1SOL     OW 6857   0.413   0.072   3.012  0.1427  0.3103  0.3199
    1SOL    HW2 6858   0.409   0.166   3.028 -0.1581  0.6575 -1.6723
    1SOL    HW3 6859   0.337   0.037   3.058  0.5264  0.9773  1.4735
    1SOL    MW4 6860   0.402   0.080   3.020  0.1536  0.4441  0.2091
    1SOL     OW 6861   0.425   0.352   3.075  0.3828  0.0601  0.2965
    1SOL    HW2 6862   0.423   0.369   3.169  1.4379 -0.6990  0.4714
    1SOL    HW3 6863   0.506   0.393   3.045 -0.6524  1.5579 -0.5605
    1SOL    MW4 6864   0.435   0.360   3.083  0.3854  0.1576  0.2065
    1SOL     OW 6865   0.660   0.469   2.988 -0.0465 -0.0195  0.1183
    1SOL    HW2 6866   0.742   0.424   3.009 -0.1672 -0.0367  0.5643
    1SOL    HW3 6867   0.664   0.551   3.038 -0.3249 -0.0445  0.1823
    1SOL    MW4 6868   0.671   0.474   2.997 -0.0991 -0.0251  0.1855
    1SOL     OW 6869   0.662   0.731   3.068  0.0980 -0.1782 -0.0313
    1SOL    HW2 6870   0.661   0.757   3.160  1.3954  0.2377 -0.1255
    1SOL    HW3 6871   0.582   0.768   3.031 -0.3878 -0.2840  0.9104
    1SOL    MW4 6872   0.651   0.739   3.075  0.2052 -0.1374  0.0803
    1SOL     OW 6873   0.449   0.871   2.940 -0.0778 -0.3291 -0.0128
    1SOL    HW2 6874   0.369   0.834   2.977 -0.8732  0.9759 -0.4211
    1SOL    HW3 6875   0.443   0.852   2.846  0.1802 -0.3736 -0.0219
    1SOL    MW4 6876   0.438   0.863   2.932 -0.1487 -0.1628 -0.0679
    1SOL     OW 6877   0.461   1.115   3.100 -0.4537  0.2618 -0.0127
    1SOL    HW2 6878   0.465   1.036   3.045  1.0027  0.7130 -0.5788
    1SOL    HW3 6879   0.372   1.148   3.087 -1.0292 -1.1875  0.1035
    1SOL    MW4 6880   0.450   1.109   3.091 -0.3375  0.1302 -0.0722
    1SOL     OW 6881   0.667   1.263   2.982 -0.0512 -0.2950 -0.1451
    1SOL    HW2 6882   0.744   1.214   3.011  0.6829  0.4730 -0.7976
    1SOL    HW3 6883   0.593   1.214   3.018  0.7289 -1.1608  0.2958
    1SOL    MW4 6884   0.668   1.250   2.991  0.1486 -0.3079 -0.1731
    1SOL     OW 6885   0.633   1.542   3.084 -0.0651  0.0796 -0.2607
    1SOL    HW2 6886   0.638   1.563   3.177 -1.0842  0.8869 -0.3788
    1SOL    HW3 6887   0.665   1.452   3.078 -0.5547 -0.1864  0.9499
    1SOL    MW4 6888   0.638   1.533   3.095 -0.2641  0.1510 -0.1168
    1SOL     OW 6889   0.405   1.666   2.978  0.3494  0.3529 -0.2233
    1SOL    HW2 6890   0.478   1.616   3.014  1.1847  0.7525 -1.3702
    1SOL    HW3 6891   0.329   1.634   3.027  0.9417 -1.6915 -0.5846
    1SOL    MW4 6892   0.404   1.655   2.989  0.5378  0.1359 -0.4222
    1SOL     OW 6893   0.418   1.940   3.082  0.3736 -0.5323 -0.2429
    1SOL    HW2 6894   0.398   1.857   3.040 -0.4581 -0.4451 -0.0272
    1SOL    HW3 6895   0.342   1.995   3.063  0.0853 -0.4207  1.1880
    1SOL    MW4 6896   0.406   1.937   3.074  0.2258 -0.5060 -0.0257
    1SOL     OW 6897   0.640   2.061   2.958  0.0825 -0.1509 -0.2676
    1SOL    HW2 6898   0.714   2.014   2.997  1.3513  1.3393 -0.8022
    1SOL    HW3 6899   0.564   2.031   3.006  1.3351  0.0188  1.9020
    1SOL    MW4 6900   0.640   2.051   2.969  0.4151  0.0679 -0.0520
    1SOL     OW 6901   0.635   2.305   3.073  0.5031  0.4748 -0.2103
    1SOL    HW2 6902   0.658   2.309   3.166  1.2414  1.1656 -0.4173
    1SOL    HW3 6903   0.640   2.212   3.051 -0.7971  0.1753  0.7180
    1SOL    MW4 6904   0.639   2.293   3.082  0.4290  0.5264 -0.1154
    1SOL     OW 6905   0.422   2.454   2.973 -0.1822 -0.1458  0.1053
    1SOL    HW2 6906   0.503   2.406   2.993  0.8331  1.2635 -0.5433
    1SOL    HW3 6907   0.397   2.423   2.886 -1.0946 -1.5695  0.8547
    1SOL    MW4 6908   0.429   2.444   2.964 -0.1686 -0.1478  0.1183
    1SOL     OW 6909   0.448   2.701   3.105 -0.3441 -0.0934 -0.3028
    1SOL    HW2 6910   0.528   2.735   3.066 -0.2270  1.2818  1.1040
    1SOL    HW3 6911   0.432   2.619   3.059  1.0958  0.3198 -1.5653
    1SOL    MW4 6912   0.456   2.694   3.094 -0.1387  0.1426 -0.2837
    1SOL     OW 6913   0.663   2.815   3.003  0.1295 -0.1272 -0.0502
    1SOL    HW2 6914   0.739   2.763   3.027 -0.1846 -0.2891  0.6077
    1SOL    HW3 6915   0.678   2.900   3.046 -0.9963 -0.8015  1.6949
    1SOL    MW4 6916   0.675   2.820   3.012 -0.0606 -0.2377  0.2670
    1SOL     OW 6917   0.661   3.061   3.124  0.1999 -0.1502  0.3161
    1SOL    HW2 6918   0.647   3.057   3.219 -0.4074 -1.4184  0.1838
    1SOL    HW3 6919   0.575   3.079   3.088  0.5753  1.1405  0.0438
    1SOL    MW4 6920   0.648   3.062   3.132  0.1693 -0.1473  0.2627
    1SOL     OW 6921   0.447   3.211   3.028  0.5419 -0.7987 -0.3021
    1SOL    HW2 6922   0.461   3.296   3.069  0.3905 -1.3228  0.8350
    1SOL    HW3 6923   0.358   3.186   3.053  0.3589 -1.0089 -1.1451
    1SOL    MW4 6924   0.437   3.219   3.036  0.4978 -0.8957 -0.2632
    1SOL     OW 6925   0.436   3.482   3.114 -0.2869  0.1387  0.0578
    1SOL    HW2 6926   0.439   3.488   3.209 -0.2332  0.6320  0.0292
    1SOL    HW3 6927   0.364   3.540   3.088 -0.0498  0.3114 -0.2238
    1SOL    MW4 6928   0.427   3.490   3.123 -0.2485  0.2265  0.0167
    1SOL     OW 6929   0.663   3.629   3.034 -0.2810  0.0502  0.2238
    1SOL    HW2 6930   0.735   3.576   3.067 -0.2547 -1.8907 -2.7027
    1SOL    HW3 6931   0.585   3.576   3.050 -0.7835  1.0537  1.1551
    1SOL    MW4 6932   0.662   3.615   3.040 -0.3438 -0.0737 -0.0393
    1SOL     OW 6933   0.666   3.889   3.088 -0.2099  0.2931 -0.1219
    1SOL    HW2 6934   0.678   3.887   3.183  0.0877  1.1056 -0.1335
    1SOL    HW3 6935   0.664   3.797   3.062  1.7771  0.0688  0.4186
    1SOL    MW4 6936   0.668   3.877   3.097  0.0915  0.3705 -0.0520
    1SOL     OW 6937   0.415   4.019   3.037 -0.2339 -0.6094  0.3980
    1SOL    HW2 6938   0.498   3.975   3.056  1.0410  1.7533  0.4795
    1SOL    HW3 6939   0.401   4.004   2.943 -0.0061 -1.4782  0.4949
    1SOL    MW4 6940   0.424   4.011   3.027 -0.0357 -0.4129  0.4215
    1SOL     OW 6941   0.417   4.267   3.142 -0.4733 -0.8382 -0.0065
    1SOL    HW2 6942   0.418   4.179   3.104 -0.3266 -0.9584  0.2758
    1SOL    HW3 6943   0.351   4.314   3.092 -0.3164 -1.0111 -0.3801
    1SOL    MW4 6944   0.409   4.261   3.130 -0.4333 -0.8769 -0.0186
    1SOL     OW 6945   0.679   4.348   3.051 -0.0154  0.2507  0.2178
    1SOL    HW2 6946   0.597   4.324   3.093 -0.0442  0.0293  0.0337
    1SOL    HW3 6947   0.662   4.337   2.957  0.1135  0.5414  0.1611
    1SOL    MW4 6948   0.666   4.343   3.044 -0.0022  0.2599  0.1860
    1SOL     OW 6949   1.108   4.659   3.102 -0.1215  0.1561 -0.3894
    1SOL    HW2 6950   1.177   4.704   3.053 -1.1868  2.2158 -0.0277
    1SOL    HW3 6951   1.026   4.695   3.067 -0.9828 -0.8076  0.5861
    1SOL    MW4 6952   1.106   4.669   3.091 -0.3759  0.3004 -0.2129
    1SOL     OW 6953   0.885   0.097   2.981 -0.1664 -0.1958 -0.0824
    1SOL    HW2 6954   0.860   0.184   3.011 -1.6986  0.6801 -3.6575
    1SOL    HW3 6955   0.814   0.040   3.012 -0.6712  0.3388 -0.2457
    1SOL    MW4 6956   0.872   0.101   2.989 -0.4351 -0.0097 -0.5753
    1SOL     OW 6957   0.877   0.364   3.090 -0.1830  0.4095 -0.3149
    1SOL    HW2 6958   0.868   0.385   3.183 -1.1193 -0.4600 -0.1938
    1SOL    HW3 6959   0.960   0.403   3.064  0.4868 -0.0443  1.0918
    1SOL    MW4 6960   0.887   0.372   3.099 -0.2181  0.2349 -0.1132
    1SOL     OW 6961   1.113   0.510   3.031  0.1996 -0.5366  0.1327
    1SOL    HW2 6962   1.197   0.470   3.055  0.8620  0.4278 -0.5476
    1SOL    HW3 6963   1.106   0.498   2.937  0.4872  1.0809 -0.1049
    1SOL    MW4 6964   1.123   0.503   3.022  0.3250 -0.1960  0.0114
    1SOL     OW 6965   1.094   0.766   3.119 -0.1783  0.4947 -0.4240
    1SOL    HW2 6966   1.086   0.760   3.215 -0.2259 -0.4084 -0.4853
    1SOL    HW3 6967   1.086   0.676   3.089  0.8049  0.6772 -1.2161
    1SOL    MW4 6968   1.092   0.753   3.128 -0.0550  0.3996 -0.5364
    1SOL     OW 6969   0.882   0.877   2.978 -0.2240  0.3459 -0.1352
    1SOL    HW2 6970   0.964   0.844   3.015  0.5786  0.8080 -1.4701
    1SOL    HW3 6971   0.815   0.823   3.019  0.7685 -0.3171  0.6656
    1SOL    MW4 6972   0.884   0.865   2.988  0.0129  0.3194 -0.2055
    1SOL     OW 6973   0.882   1.125   3.097 -0.0150 -0.0321 -0.0053
    1SOL    HW2 6974   0.960   1.164   3.056 -0.1150  0.6084  0.4112
    1SOL    HW3 6975   0.873   1.040   3.054  0.9816 -0.1630  0.0145
    1SOL    MW4 6976   0.891   1.119   3.086  0.1032  0.0352  0.0522
    1SOL     OW 6977   1.127   1.284   2.981 -0.0308 -0.4084  0.3854
    1SOL    HW2 6978   1.199   1.239   3.024  0.1358 -0.4401  0.0765
    1SOL    HW3 6979   1.134   1.259   2.889 -1.1830 -1.3891  0.5563
    1SOL    MW4 6980   1.138   1.275   2.974 -0.1608 -0.5419  0.3672
    1SOL     OW 6981   1.099   1.516   3.129 -0.5483 -0.6211 -0.3436
    1SOL    HW2 6982   1.167   1.569   3.090 -0.8638  0.0675  0.0370
    1SOL    HW3 6983   1.107   1.431   3.085  0.7589 -0.6545 -0.0624
    1SOL    MW4 6984   1.109   1.512   3.118 -0.4175 -0.5347 -0.2561
    1SOL     OW 6985   0.885   1.654   3.006  0.3991  0.7154  0.2414
    1SOL    HW2 6986   0.953   1.611   3.059 -0.6168  0.4347  1.3420
    1SOL    HW3 6987   0.804   1.612   3.033 -0.1236  0.4567 -1.6988
    1SOL    MW4 6988   0.884   1.643   3.017  0.1961  0.6442  0.1304
    1SOL     OW 6989   0.863   1.947   3.080  0.2030  0.0161  0.2078
    1SOL    HW2 6990   0.896   1.946   3.170  1.3057  0.4099 -0.1859
    1SOL    HW3 6991   0.865   1.855   3.052 -1.6295 -0.3265  1.1041
    1SOL    MW4 6992   0.867   1.935   3.088  0.1068  0.0226  0.2742
    1SOL     OW 6993   1.103   2.058   2.997  0.2707  0.3993  0.2259
    1SOL    HW2 6994   1.014   2.031   3.019  0.5332 -0.7566 -0.1190
    1SOL    HW3 6995   1.102   2.071   2.902  0.8178 -0.9971  0.0107
    1SOL    MW4 6996   1.091   2.056   2.987  0.3774  0.0627  0.1521
    1SOL     OW 6997   1.100   2.332   3.090  0.5993  0.4508  0.3668
    1SOL    HW2 6998   1.019   2.367   3.053 -0.8459 -1.9757  1.0860
    1SOL    HW3 6999   1.099   2.239   3.066  2.7644  0.1907  1.1348
    1SOL    MW4 7000   1.089   2.324   3.082  0.6942  0.0963  0.5629
    1SOL     OW 7001   0.868   2.426   2.974  0.0949  0.2107  0.8223
    1SOL    HW2 7002   0.788   2.380   2.999  0.6035 -0.9104  0.4191
    1SOL    HW3 7003   0.868   2.425   2.878  0.1263  1.0102  0.8148
    1SOL    MW4 7004   0.858   2.420   2.964  0.1661  0.1681  0.7684
    1SOL     OW 7005   0.900   2.694   3.085  0.2994 -0.0052  0.5839
    1SOL    HW2 7006   0.893   2.696   3.180 -1.3198  1.3474  0.4407
    1SOL    HW3 7007   0.889   2.601   3.062  1.0308 -0.3810  1.7140
    1SOL    MW4 7008   0.898   2.682   3.094  0.1823  0.1237  0.7138
    1SOL     OW 7009   1.139   2.806   2.996 -0.1136 -0.3504  0.5495
    1SOL    HW2 7010   1.116   2.891   3.034 -0.1879  0.6680 -1.6593
    1SOL    HW3 7011   1.062   2.752   3.010 -1.0094  0.7185 -0.1586
    1SOL    MW4 7012   1.126   2.810   3.002 -0.2414 -0.0749  0.1645
    1SOL     OW 7013   1.129   3.071   3.086  0.3244  0.1510  0.2035
    1SOL    HW2 7014   1.190   3.132   3.045 -0.6270  0.4785 -0.7234
    1SOL    HW3 7015   1.048   3.120   3.096 -0.4409 -0.9465 -0.5184
    1SOL    MW4 7016   1.126   3.085   3.082  0.0979  0.0496 -0.0141
    1SOL     OW 7017   0.897   3.204   3.049 -0.0177  0.0655 -0.5258
    1SOL    HW2 7018   0.822   3.148   3.068  0.2190 -0.0780 -0.0016
    1SOL    HW3 7019   0.906   3.200   2.954  0.9147 -1.9986 -0.3850
    1SOL    MW4 7020   0.889   3.196   3.039  0.1366 -0.2258 -0.4380
    1SOL     OW 7021   0.903   3.475   3.111  0.1923 -0.1051  0.4014
    1SOL    HW2 7022   0.977   3.516   3.066 -0.2669 -0.7516 -0.9628
    1SOL    HW3 7023   0.907   3.384   3.085 -0.3296 -0.4157  1.3780
    1SOL    MW4 7024   0.914   3.469   3.102  0.0628 -0.2315  0.3505
    1SOL     OW 7025   1.116   3.633   3.027  0.1652  0.0785 -0.2341
    1SOL    HW2 7026   1.194   3.594   3.066 -0.2134  0.1012  0.5593
    1SOL    HW3 7027   1.108   3.719   3.069 -0.1790  0.1543 -0.4499
    1SOL    MW4 7028   1.125   3.639   3.038  0.0699  0.0913 -0.1578
    1SOL     OW 7029   1.114   3.896   3.132 -0.4317  0.0597  0.3121
    1SOL    HW2 7030   1.124   3.898   3.227 -0.9148  1.7513  0.3403
    1SOL    HW3 7031   1.026   3.931   3.116 -0.4624 -0.4649 -0.7405
    1SOL    MW4 7032   1.103   3.901   3.142 -0.4995  0.2136  0.1771
    1SOL     OW 7033   0.887   3.993   2.987 -0.3211  0.1060 -0.3233
    1SOL    HW2 7034   0.802   3.957   3.012  0.0557 -0.2526  0.4468
    1SOL    HW3 7035   0.891   3.981   2.892 -1.2467  0.3879 -0.4065
    1SOL    MW4 7036   0.876   3.987   2.977 -0.3936  0.0958 -0.2327
    1SOL     OW 7037   0.929   4.250   3.086 -0.1503  0.4190 -0.1635
    1SOL    HW2 7038   0.918   4.160   3.057 -1.0011  0.9071 -1.4131
    1SOL    HW3 7039   0.842   4.289   3.078 -0.0859  0.9979  1.6342
    1SOL    MW4 7040   0.916   4.243   3.081 -0.2540  0.5598 -0.0911
    1SOL     OW 7041   1.130   4.409   2.980  0.2445  0.1446 -0.3463
    1SOL    HW2 7042   1.066   4.347   3.015  0.1773 -0.5816 -1.7234
    1SOL    HW3 7043   1.131   4.481   3.044 -1.3629 -0.1988  0.0906
    1SOL    MW4 7044   1.122   4.410   2.993  0.0236  0.0033 -0.4704
    1SOL     OW 7045   1.560   0.001   3.109  0.4968  0.7688 -0.1835
    1SOL    HW2 7046   1.576  -0.013   3.202 -0.7409  1.2243  0.1039
    1SOL    HW3 7047   1.478   0.050   3.106  0.4508  0.6190 -1.5238
    1SOL    MW4 7048   1.551   0.006   3.121  0.3275  0.8087 -0.3226
    1SOL     OW 7049   1.338   0.130   3.008  0.1311  0.4071 -0.3573
    1SOL    HW2 7050   1.326   0.217   3.048  0.7752  0.5954 -0.5663
    1SOL    HW3 7051   1.350   0.148   2.915 -2.1731 -0.0972 -0.7787
    1SOL    MW4 7052   1.338   0.144   3.001 -0.0879  0.3654 -0.4406
    1SOL     OW 7053   1.339   0.394   3.096 -0.1714 -0.0104 -0.1827
    1SOL    HW2 7054   1.344   0.403   3.191 -0.1035  0.5156 -0.2358
    1SOL    HW3 7055   1.414   0.444   3.064 -0.2960 -0.0443 -0.5230
    1SOL    MW4 7056   1.350   0.402   3.104 -0.1788  0.0545 -0.2348
    1SOL     OW 7057   1.594   0.511   3.033  0.1281  0.0966 -0.6112
    1SOL    HW2 7058   1.606   0.598   3.071 -2.3999  0.2562 -0.1517
    1SOL    HW3 7059   1.577   0.527   2.940  1.1066 -0.0176 -0.8230
    1SOL    MW4 7060   1.594   0.524   3.026 -0.0763  0.1025 -0.5789
    1SOL     OW 7061   1.584   0.788   3.109  0.0133 -0.1048 -0.3270
    1SOL    HW2 7062   1.591   0.786   3.204 -0.2316  0.6034 -0.2876
    1SOL    HW3 7063   1.493   0.812   3.092 -0.0122 -0.4864 -0.7439
    1SOL    MW4 7064   1.573   0.791   3.119 -0.0223 -0.0618 -0.3769
    1SOL     OW 7065   1.334   0.875   3.038 -0.3473  0.3120  0.1575
    1SOL    HW2 7066   1.349   0.960   3.080 -0.7394  0.8074 -0.6981
    1SOL    HW3 7067   1.258   0.839   3.083  0.0771  0.2213  0.8086
    1SOL    MW4 7068   1.326   0.881   3.049 -0.3431  0.3655  0.1304
    1SOL     OW 7069   1.373   1.142   3.098  0.3794  0.7797 -0.5170
    1SOL    HW2 7070   1.347   1.149   3.190  2.9414 -0.8759  0.4080
    1SOL    HW3 7071   1.448   1.201   3.090  3.4557 -2.8581 -0.1193
    1SOL    MW4 7072   1.379   1.150   3.109  1.1233  0.0812 -0.3424
    1SOL     OW 7073   1.566   1.313   2.964  0.5212  0.2358 -0.6972
    1SOL    HW2 7074   1.646   1.262   2.976  1.0176  1.1187 -0.2688
    1SOL    HW3 7075   1.575   1.388   3.022 -0.0748  0.9794 -1.5373
    1SOL    MW4 7076   1.578   1.316   2.973  0.5081  0.4504 -0.7515
    1SOL     OW 7077   1.573   1.539   3.132  0.0086 -0.1700  0.0638
    1SOL    HW2 7078   1.654   1.578   3.099 -0.3948  0.9622  0.3744
    1SOL    HW3 7079   1.503   1.597   3.100 -0.5165 -0.0264  1.4201
    1SOL    MW4 7080   1.574   1.552   3.124 -0.1140 -0.0015  0.2835
    1SOL     OW 7081   1.314   1.674   3.016  0.5667  0.1575 -0.1522
    1SOL    HW2 7082   1.318   1.766   3.041  0.7545 -0.3983  1.9755
    1SOL    HW3 7083   1.325   1.674   2.921 -1.6268  2.4861 -0.4649
    1SOL    MW4 7084   1.316   1.686   3.007  0.3021  0.3914  0.0875
    1SOL     OW 7085   1.367   1.937   3.046  0.2085 -0.1711 -0.2259
    1SOL    HW2 7086   1.389   1.950   3.138  0.3087 -0.8051 -0.1605
    1SOL    HW3 7087   1.275   1.964   3.039 -0.0813 -1.0213  0.2544
    1SOL    MW4 7088   1.358   1.942   3.057  0.1836 -0.3669 -0.1540
    1SOL     OW 7089   1.623   2.064   2.979  0.5637  0.0919  0.2151
    1SOL    HW2 7090   1.530   2.039   2.982  0.6910 -0.3872  0.2937
    1SOL    HW3 7091   1.643   2.071   2.885  0.4529  0.1801  0.1979
    1SOL    MW4 7092   1.613   2.061   2.967  0.5659  0.0403  0.2234
    1SOL     OW 7093   1.606   2.336   3.099  0.0110  0.2098  0.6710
    1SOL    HW2 7094   1.512   2.353   3.086  0.3720  1.5459 -0.2917
    1SOL    HW3 7095   1.620   2.250   3.060 -1.0483 -0.5476  1.9240
    1SOL    MW4 7096   1.595   2.327   3.092 -0.0811  0.2861  0.7095
    1SOL     OW 7097   1.359   2.422   3.030 -0.0615  0.5894  0.1498
    1SOL    HW2 7098   1.271   2.387   3.045  0.7799 -1.9610 -0.5388
    1SOL    HW3 7099   1.361   2.441   2.936  0.0390  0.8722  0.2101
    1SOL    MW4 7100   1.348   2.420   3.019  0.0628  0.2899  0.0670
    1SOL     OW 7101   1.367   2.687   3.125  0.7297  0.1432 -0.6429
    1SOL    HW2 7102   1.379   2.595   3.100  0.5145  0.0426 -0.3721
    1SOL    HW3 7103   1.280   2.710   3.093 -0.2800 -0.4961  1.5447
    1SOL    MW4 7104   1.357   2.678   3.117  0.5680  0.0453 -0.3185
    1SOL     OW 7105   1.573   2.867   3.012  0.4733  0.4366 -0.0986
    1SOL    HW2 7106   1.653   2.823   3.039 -0.0343 -0.8817 -0.6839
    1SOL    HW3 7107   1.503   2.805   3.034 -0.3412  1.3831  0.0027
    1SOL    MW4 7108   1.574   2.853   3.019  0.2990  0.3877 -0.1626
    1SOL     OW 7109   1.549   3.120   3.132  0.1691 -0.0439 -0.4001
    1SOL    HW2 7110   1.551   3.118   3.228 -0.0576  0.1097 -0.3926
    1SOL    HW3 7111   1.553   3.027   3.107 -0.3015 -0.1130 -0.2306
    1SOL    MW4 7112   1.550   3.107   3.142  0.0772 -0.0329 -0.3767
    1SOL     OW 7113   1.343   3.246   3.000 -0.4020 -0.1968  0.4787
    1SOL    HW2 7114   1.408   3.186   3.037  1.0118  1.6007  0.9846
    1SOL    HW3 7115   1.353   3.237   2.905 -1.3691 -1.9749  0.5248
    1SOL    MW4 7116   1.353   3.237   2.992 -0.3430 -0.1943  0.5515
    1SOL     OW 7117   1.314   3.487   3.150 -0.5075 -0.0931  0.1847
    1SOL    HW2 7118   1.364   3.464   3.229 -0.2064  0.5754  0.1915
    1SOL    HW3 7119   1.334   3.417   3.088  0.2156  0.0205  0.2832
    1SOL    MW4 7120   1.324   3.474   3.152 -0.3725  0.0100  0.1984
    1SOL     OW 7121   1.532   3.624   3.086  0.1752  0.0218 -0.2744
    1SOL    HW2 7122   1.451   3.574   3.098 -0.0514 -0.0621 -2.1075
    1SOL    HW3 7123   1.544   3.630   2.991  1.1326  1.9426 -0.0677
    1SOL    MW4 7124   1.523   3.618   3.075  0.2714  0.2639 -0.4888
    1SOL     OW 7125   1.545   3.897   3.131 -0.5239  0.0486  0.4382
    1SOL    HW2 7126   1.630   3.935   3.106 -0.6214  0.4678  0.7516
    1SOL    HW3 7127   1.557   3.803   3.119  0.3481  0.0073  1.5531
    1SOL    MW4 7128   1.558   3.890   3.126 -0.4218  0.0985  0.6268
    1SOL     OW 7129   1.335   4.009   3.008 -0.6646  0.4040 -0.3273
    1SOL    HW2 7130   1.403   3.959   3.054 -1.1212  0.8493  0.8479
    1SOL    HW3 7131   1.253   3.974   3.042 -1.0023  0.9290 -0.6063
    1SOL    MW4 7132   1.333   3.998   3.018 -0.7694  0.5319 -0.2089
    1SOL     OW 7133   1.353   4.285   3.078 -0.4430  0.4341  0.2029
    1SOL    HW2 7134   1.359   4.192   3.054  0.4504  0.2689  1.0096
    1SOL    HW3 7135   1.275   4.316   3.034 -1.1840 -0.8966  0.5410
    1SOL    MW4 7136   1.344   4.277   3.069 -0.4228  0.2365  0.3541
    1SOL     OW 7137   1.596   4.412   3.010 -0.0923 -0.0365  0.3763
    1SOL    HW2 7138   1.523   4.365   3.050  0.2885 -0.2643  0.8057
    1SOL    HW3 7139   1.582   4.504   3.034 -0.8455  0.0895 -0.4765
    1SOL    MW4 7140   1.584   4.418   3.018 -0.1415 -0.0496  0.3202
    1SOL     OW 7141   2.047   4.626   3.113  0.4063 -0.3303 -0.3468
    1SOL    HW2 7142   2.047   4.640   3.208  0.9147 -0.5915 -0.3062
    1SOL    HW3 7143   1.967   4.669   3.082  0.8987  0.8506  0.0357
    1SOL    MW4 7144   2.036   4.633   3.121  0.5383 -0.2089 -0.2911
    1SOL     OW 7145   1.819   0.083   3.029 -0.0317  0.0329 -0.0425
    1SOL    HW2 7146   1.732   0.057   3.059 -0.3997  1.8219  0.4725
    1SOL    HW3 7147   1.811   0.088   2.934 -0.0103 -1.4690 -0.1429
    1SOL    MW4 7148   1.807   0.080   3.021 -0.0774  0.0708  0.0122
    1SOL     OW 7149   1.806   0.346   3.128 -0.2272  0.0771  0.2568
    1SOL    HW2 7150   1.799   0.255   3.099  0.2176 -0.4562  1.8152
    1SOL    HW3 7151   1.723   0.386   3.102 -1.3583 -1.3629  1.5835
    1SOL    MW4 7152   1.794   0.339   3.121 -0.3177 -0.1833  0.6373
    1SOL     OW 7153   2.017   0.509   3.059  0.1642  0.3112 -0.5240
    1SOL    HW2 7154   1.953   0.445   3.091  0.7491 -0.2483 -0.4534
    1SOL    HW3 7155   2.004   0.511   2.964 -1.6054  2.0074 -0.2576
    1SOL    MW4 7156   2.007   0.501   3.051  0.0076  0.4612 -0.4795
    1SOL     OW 7157   1.966   0.759   3.186  0.0527 -0.3475 -0.3183
    1SOL    HW2 7158   1.899   0.809   3.140 -0.9060 -1.9780 -0.7010
    1SOL    HW3 7159   1.972   0.676   3.138  0.0000 -1.5222  1.6763
    1SOL    MW4 7160   1.958   0.755   3.173 -0.0808 -0.7176 -0.1054
    1SOL     OW 7161   1.809   0.912   3.013 -0.3318  0.6633 -0.0899
    1SOL    HW2 7162   1.729   0.872   3.045  0.8827 -1.9915 -0.2611
    1SOL    HW3 7163   1.811   0.892   2.920  0.4942  0.7768 -0.1020
    1SOL    MW4 7164   1.799   0.904   3.005 -0.0626  0.3281 -0.1140
    1SOL     OW 7165   1.765   1.160   3.084  0.3926  0.1314  0.1202
    1SOL    HW2 7166   1.755   1.153   3.178  1.5076  1.0483  0.3257
    1SOL    HW3 7167   1.783   1.071   3.055  0.3518 -0.1041  0.8115
    1SOL    MW4 7168   1.766   1.148   3.092  0.5343  0.2214  0.2384
    1SOL     OW 7169   2.014   1.303   3.017  0.3113  0.1168 -0.0219
    1SOL    HW2 7170   2.082   1.243   3.047 -1.0045 -1.9440 -0.9635
    1SOL    HW3 7171   1.933   1.253   3.027 -0.6685  1.2013 -2.2314
    1SOL    MW4 7172   2.012   1.288   3.022  0.0081 -0.0120 -0.4377
    1SOL     OW 7173   2.041   1.561   3.139  0.3037 -0.3272 -0.1151
    1SOL    HW2 7174   2.022   1.556   3.232 -1.6127  0.9316 -0.3954
    1SOL    HW3 7175   2.032   1.471   3.107 -0.2379 -0.5608  0.6968
    1SOL    MW4 7176   2.037   1.549   3.147 -0.0207 -0.1919 -0.0451
    1SOL     OW 7177   1.796   1.690   3.053 -0.0876  0.1098 -0.1833
    1SOL    HW2 7178   1.795   1.773   3.100 -0.0365  0.8058 -1.3999
    1SOL    HW3 7179   1.882   1.653   3.072  0.6859  1.2896 -1.2534
    1SOL    MW4 7180   1.807   1.696   3.061  0.0212  0.3574 -0.4852
    1SOL     OW 7181   1.813   1.948   3.149 -0.0838  0.1218 -0.4184
    1SOL    HW2 7182   1.893   1.982   3.108 -0.5315  1.5107 -0.1875
    1SOL    HW3 7183   1.742   2.000   3.110 -0.9526 -1.5872 -1.1481
    1SOL    MW4 7184   1.814   1.960   3.138 -0.2574  0.0795 -0.4842
    1SOL     OW 7185   2.019   2.081   3.001 -0.6788 -0.6955  0.1007
    1SOL    HW2 7186   2.084   2.021   3.038 -0.5166  0.0345  1.0213
    1SOL    HW3 7187   2.027   2.160   3.054 -0.6959  0.2450 -1.2793
    1SOL    MW4 7188   2.029   2.084   3.013 -0.6597 -0.4754  0.0398
    1SOL     OW 7189   2.031   2.336   3.114  0.0753 -0.3425  0.5170
    1SOL    HW2 7190   2.118   2.364   3.084  0.1949 -1.5635 -0.3142
    1SOL    HW3 7191   1.970   2.392   3.066  0.3807 -0.0731  0.4402
    1SOL    MW4 7192   2.035   2.347   3.104  0.1314 -0.4680  0.3972
    1SOL     OW 7193   1.835   2.501   3.007  0.7143 -0.1821  0.1501
    1SOL    HW2 7194   1.826   2.594   3.029 -0.1918  0.1264 -1.4635
    1SOL    HW3 7195   1.762   2.458   3.052  0.7711 -0.0294  0.3884
    1SOL    MW4 7196   1.825   2.508   3.016  0.6022 -0.1209 -0.0312
    1SOL     OW 7197   1.829   2.746   3.104  0.8915  0.5418 -0.2015
    1SOL    HW2 7198   1.843   2.715   3.194 -0.0647 -0.2694 -0.3269
    1SOL    HW3 7199   1.906   2.800   3.085  1.8582 -0.5560  0.5430
    1SOL    MW4 7200   1.841   2.749   3.114  0.8929  0.2899 -0.1197
    1SOL     OW 7201   2.082   2.848   3.023 -0.2295  0.0069 -0.4394
    1SOL    HW2 7202   2.067   2.937   3.057  0.2631 -0.0308 -0.1244
    1SOL    HW3 7203   2.069   2.856   2.929 -0.0609  0.4400 -0.4255
    1SOL    MW4 7204   2.078   2.861   3.015 -0.1426  0.0589 -0.3960
    1SOL     OW 7205   2.012   3.106   3.111  0.0299  0.0787 -0.1561
    1SOL    HW2 7206   2.012   3.114   3.207  0.3636 -2.0342  0.0537
    1SOL    HW3 7207   1.928   3.140   3.084 -0.2935  0.1950  0.9549
    1SOL    MW4 7208   2.001   3.111   3.120  0.0315 -0.1845  0.0181
    1SOL     OW 7209   1.783   3.224   3.026  0.5400 -0.0239 -0.1485
    1SOL    HW2 7210   1.702   3.189   3.063  0.7553  0.9388  1.2599
    1SOL    HW3 7211   1.769   3.221   2.931 -1.1232  0.0824  0.0799
    1SOL    MW4 7212   1.771   3.219   3.018  0.3488  0.1173  0.0675
    1SOL     OW 7213   1.801   3.480   3.132  0.0048 -0.2748  0.3880
    1SOL    HW2 7214   1.785   3.391   3.100 -0.7935  0.4561 -1.3124
    1SOL    HW3 7215   1.719   3.526   3.114  0.8616  1.1306  0.0614
    1SOL    MW4 7216   1.788   3.474   3.125  0.0126  0.0072  0.1209
    1SOL     OW 7217   2.026   3.591   2.988  0.3577 -0.1041  0.2942
    1SOL    HW2 7218   2.028   3.673   3.038 -0.6045 -0.7377  1.3678
    1SOL    HW3 7219   1.952   3.542   3.023 -1.0789 -0.0711 -2.5323
    1SOL    MW4 7220   2.017   3.596   2.999  0.0412 -0.1836  0.0627
    1SOL     OW 7221   2.022   3.846   3.114 -0.0993  0.1896  0.0916
    1SOL    HW2 7222   2.012   3.836   3.208  0.1463  0.6276  0.1661
    1SOL    HW3 7223   1.945   3.896   3.087  0.0398  0.4216  0.1231
    1SOL    MW4 7224   2.011   3.851   3.123 -0.0484  0.2782  0.1056
    1SOL     OW 7225   1.798   4.000   3.030  0.4238 -0.1509  0.0905
    1SOL    HW2 7226   1.802   4.096   3.038  1.0408 -0.1732  0.0947
    1SOL    HW3 7227   1.800   3.984   2.936 -1.4462 -0.0974  0.0244
    1SOL    MW4 7228   1.799   4.011   3.019  0.2583 -0.1469  0.0825
    1SOL     OW 7229   1.811   4.274   3.086  0.9847  0.5927  0.0686
    1SOL    HW2 7230   1.897   4.310   3.067  0.9360  0.2086 -0.9329
    1SOL    HW3 7231   1.749   4.340   3.054  0.9096  0.6864  0.4076
    1SOL    MW4 7232   1.814   4.287   3.079  0.9685  0.5536 -0.0186
    1SOL     OW 7233   2.049   4.377   3.012  0.0037 -0.1066  0.3211
    1SOL    HW2 7234   2.051   4.466   3.048  1.2416 -0.1135  0.2851
    1SOL    HW3 7235   2.059   4.390   2.917  0.8223 -0.3055  0.3728
    1SOL    MW4 7236   2.051   4.391   3.004  0.2749 -0.1340  0.3233
    1SOL     OW 7237   2.462   4.623   3.079  0.1700  0.0997 -0.4058
    1SOL    HW2 7238   2.453   4.529   3.059  1.2638 -0.1383  0.1647
    1SOL    HW3 7239   2.394   4.665   3.027 -1.1836 -1.1441  0.3297
    1SOL    MW4 7240   2.452   4.616   3.069  0.1359 -0.0958 -0.2337
    1SOL     OW 7241   2.242   0.098   2.974 -0.2278 -0.2472  0.3493
    1SOL    HW2 7242   2.255   0.182   3.019  1.4564 -1.1077  1.5279
    1SOL    HW3 7243   2.183   0.049   3.032 -0.9614 -0.0135 -0.1872
    1SOL    MW4 7244   2.236   0.102   2.988 -0.1023 -0.3299  0.4342
    1SOL     OW 7245   2.250   0.349   3.099  0.2350 -0.3856  0.0323
    1SOL    HW2 7246   2.240   0.353   3.194  0.0044 -0.2871  0.0050
    1SOL    HW3 7247   2.179   0.404   3.065 -0.6681 -1.7009 -0.2455
    1SOL    MW4 7248   2.239   0.357   3.107  0.0851 -0.5461 -0.0079
    1SOL     OW 7249   2.467   0.487   3.036 -0.0913 -0.1667  0.3297
    1SOL    HW2 7250   2.398   0.433   3.074 -0.6369  0.2954  0.0172
    1SOL    HW3 7251   2.458   0.474   2.941  0.8556 -0.8305  0.3221
    1SOL    MW4 7252   2.457   0.478   3.028 -0.0386 -0.1933  0.2875
    1SOL     OW 7253   2.430   0.757   3.092 -0.6021  0.2414  0.2398
    1SOL    HW2 7254   2.498   0.805   3.044 -0.3892  0.1312  0.4342
    1SOL    HW3 7255   2.447   0.665   3.072  1.3942 -0.0470  3.0046
    1SOL    MW4 7256   2.441   0.752   3.083 -0.3107  0.1888  0.6301
    1SOL     OW 7257   2.172   0.854   3.032  0.0054 -0.1960  0.5678
    1SOL    HW2 7258   2.243   0.792   3.048 -0.2232 -0.1366  1.8766
    1SOL    HW3 7259   2.099   0.821   3.084 -0.8656 -0.1302 -0.5915
    1SOL    MW4 7260   2.172   0.841   3.041 -0.1395 -0.1795  0.5875
    1SOL     OW 7261   2.209   1.134   3.126 -0.1584  0.1545  0.5145
    1SOL    HW2 7262   2.219   1.132   3.221 -0.0550 -1.0126  0.4840
    1SOL    HW3 7263   2.198   1.042   3.101  1.9522  0.2543 -0.8304
    1SOL    MW4 7264   2.209   1.121   3.136  0.1338  0.0137  0.3333
    1SOL     OW 7265   2.455   1.238   3.051  0.3427  0.2823  0.6383
    1SOL    HW2 7266   2.372   1.204   3.084  0.8988 -0.8172  0.9293
    1SOL    HW3 7267   2.444   1.244   2.957  0.2932 -0.8704  0.5693
    1SOL    MW4 7268   2.443   1.234   3.043  0.4091 -0.0149  0.6676
    1SOL     OW 7269   2.450   1.494   3.128  0.2949  0.0599 -0.1024
    1SOL    HW2 7270   2.374   1.518   3.074  0.1146 -1.3213 -0.4838
    1SOL    HW3 7271   2.462   1.400   3.111  0.0061 -0.4982  2.5450
    1SOL    MW4 7272   2.441   1.484   3.119  0.2329 -0.1960  0.1967
    1SOL     OW 7273   2.253   1.642   3.000 -0.1462  0.3701  0.0822
    1SOL    HW2 7274   2.177   1.607   3.047 -0.3145  0.2301 -0.2845
    1SOL    HW3 7275   2.228   1.634   2.908 -0.1361  1.3532 -0.0045
    1SOL    MW4 7276   2.239   1.636   2.994 -0.1669  0.4814  0.0222
    1SOL     OW 7277   2.232   1.917   3.090 -0.1329 -0.1319 -0.1241
    1SOL    HW2 7278   2.292   1.987   3.066  0.6661 -0.6131  0.4567
    1SOL    HW3 7279   2.252   1.845   3.030 -0.4628 -0.1183 -0.2516
    1SOL    MW4 7280   2.243   1.917   3.079 -0.0710 -0.1936 -0.0644
    1SOL     OW 7281   2.424   2.090   3.003  0.5083 -0.2203  0.1593
    1SOL    HW2 7282   2.500   2.045   3.039  1.5849  0.8645 -0.7105
    1SOL    HW3 7283   2.435   2.084   2.908  0.4974  1.5868  0.0377
    1SOL    MW4 7284   2.435   2.083   2.995  0.6487  0.1614  0.0284
    1SOL     OW 7285   2.534   2.333   3.089 -0.1196 -0.3026 -0.0354
    1SOL    HW2 7286   2.527   2.346   3.183  0.1138 -1.5944  0.1707
    1SOL    HW3 7287   2.501   2.244   3.075  0.0023 -0.1766 -1.1500
    1SOL    MW4 7288   2.529   2.323   3.100 -0.0727 -0.4563 -0.1554
    1SOL     OW 7289   2.271   2.433   3.004 -0.0058 -0.2424  0.0894
    1SOL    HW2 7290   2.262   2.521   3.041  0.7667  0.3689 -1.1497
    1SOL    HW3 7291   2.362   2.409   3.021  0.1048 -0.3254 -0.6336
    1SOL    MW4 7292   2.282   2.442   3.012  0.1106 -0.1729 -0.1695
    1SOL     OW 7293   2.267   2.679   3.146  0.1177  0.1848 -0.0832
    1SOL    HW2 7294   2.352   2.713   3.118  0.3191 -0.4870 -0.2967
    1SOL    HW3 7295   2.203   2.730   3.096  0.3939  0.6099 -0.0095
    1SOL    MW4 7296   2.269   2.691   3.136  0.1807  0.1521 -0.1013
    1SOL     OW 7297   2.499   2.798   3.061  0.5928 -0.0192  0.4023
    1SOL    HW2 7298   2.475   2.875   3.113 -0.6591 -0.1523  0.0444
    1SOL    HW3 7299   2.473   2.822   2.971 -0.9926 -1.3324  0.4815
    1SOL    MW4 7300   2.492   2.812   3.056  0.2186 -0.2100  0.3655
    1SOL     OW 7301   2.482   3.064   3.149 -0.0295  0.3278  0.1200
    1SOL    HW2 7302   2.554   3.094   3.094  0.8072 -2.8461 -0.6625
    1SOL    HW3 7303   2.404   3.108   3.115  1.1160  1.6394 -0.8309
    1SOL    MW4 7304   2.481   3.073   3.137  0.2320  0.0820 -0.1085
    1SOL     OW 7305   2.267   3.211   3.048 -0.0953  0.3859  0.2672
    1SOL    HW2 7306   2.258   3.295   3.092 -0.8220  0.0448  0.7903
    1SOL    HW3 7307   2.185   3.166   3.066 -0.6115  0.4218 -1.8655
    1SOL    MW4 7308   2.255   3.216   3.056 -0.2594  0.3457  0.0548
    1SOL     OW 7309   2.231   3.471   3.159  0.0798 -0.0899 -0.0633
    1SOL    HW2 7310   2.300   3.528   3.127 -1.2278  0.7468 -1.4906
    1SOL    HW3 7311   2.150   3.511   3.127 -1.0918 -0.9173  1.7368
    1SOL    MW4 7312   2.229   3.484   3.151 -0.2472 -0.0887 -0.0143
    1SOL     OW 7313   2.450   3.607   3.038 -0.0962 -0.3545  0.4858
    1SOL    HW2 7314   2.529   3.557   3.060 -0.9853 -1.5511  0.9833
    1SOL    HW3 7315   2.467   3.695   3.072  1.2302 -0.4661  0.1319
    1SOL    MW4 7316   2.463   3.612   3.045 -0.0386 -0.5269  0.5045
    1SOL     OW 7317   2.475   3.852   3.150  0.4253  0.7436  0.2748
    1SOL    HW2 7318   2.490   3.852   3.245 -0.1741 -0.5569  0.3869
    1SOL    HW3 7319   2.555   3.889   3.113  0.4767  1.6956  1.3155
    1SOL    MW4 7320   2.488   3.857   3.158  0.3531  0.6974  0.4268
    1SOL     OW 7321   2.245   3.979   3.008 -0.1692  0.3328 -0.1466
    1SOL    HW2 7322   2.320   3.943   3.056 -0.2788 -1.4916 -1.3164
    1SOL    HW3 7323   2.169   3.933   3.043 -0.3947 -0.0712 -1.1579
    1SOL    MW4 7324   2.245   3.968   3.019 -0.2136  0.0391 -0.4342
    1SOL     OW 7325   2.271   4.213   3.141 -0.4066 -0.1236 -0.0438
    1SOL    HW2 7326   2.265   4.131   3.093 -1.0996  0.2023 -0.5323
    1SOL    HW3 7327   2.193   4.263   3.113  0.2629  0.8880 -0.1395
    1SOL    MW4 7328   2.260   4.209   3.131 -0.4101  0.0525 -0.1209
    1SOL     OW 7329   2.469   4.350   3.007  0.1636  0.3407  0.2336
    1SOL    HW2 7330   2.388   4.314   3.044  0.3868 -0.5463 -0.1356
    1SOL    HW3 7331   2.446   4.373   2.917 -0.2941  2.2148  0.8007
    1SOL    MW4 7332   2.455   4.349   3.000  0.1326  0.4711  0.2599
    1SOL     OW 7333   2.938   4.645   3.135  0.3907  0.1695 -0.8571
    1SOL    HW2 7334   3.017   4.685   3.099  1.2517 -1.6594 -1.0794
    1SOL    HW3 7335   2.947   4.552   3.113 -1.8237 -0.0550 -0.8666
    1SOL    MW4 7336   2.950   4.638   3.127  0.2122 -0.1016 -0.8876
    1SOL     OW 7337   2.687   0.107   2.990 -0.7713 -0.4467  0.3086
    1SOL    HW2 7338   2.756   0.047   3.020 -1.0137 -0.2351  1.2892
    1SOL    HW3 7339   2.605   0.063   3.014 -0.9624 -0.0298  0.4153
    1SOL    MW4 7340   2.685   0.093   2.997 -0.8285 -0.3638  0.4520
    1SOL     OW 7341   2.703   0.380   3.114 -0.0897 -0.2171 -0.2151
    1SOL    HW2 7342   2.694   0.293   3.075 -1.4544 -0.4787  0.6374
    1SOL    HW3 7343   2.625   0.428   3.083  1.0870  0.9829 -1.3835
    1SOL    MW4 7344   2.691   0.375   3.104 -0.1144 -0.0933 -0.2570
    1SOL     OW 7345   2.935   0.470   3.005  0.3210  0.2160 -0.0176
    1SOL    HW2 7346   2.852   0.437   3.039 -0.3259  1.3939 -0.4590
    1SOL    HW3 7347   2.921   0.479   2.911  1.3323 -0.6890 -0.2698
    1SOL    MW4 7348   2.923   0.467   2.997  0.3691  0.2520 -0.1092
    1SOL     OW 7349   2.900   0.742   3.105 -0.3032 -0.0020 -0.0005
    1SOL    HW2 7350   2.929   0.730   3.196  0.3221 -0.2978 -0.2364
    1SOL    HW3 7351   2.920   0.659   3.062 -0.5331  0.1634 -0.4280
    1SOL    MW4 7352   2.907   0.730   3.111 -0.2511 -0.0192 -0.0877
    1SOL     OW 7353   2.668   0.870   3.003  0.4629  0.3232 -0.1342
    1SOL    HW2 7354   2.684   0.962   3.025 -0.1603  0.1304  1.1592
    1SOL    HW3 7355   2.739   0.822   3.046  1.0542  0.2240 -1.1901
    1SOL    MW4 7356   2.680   0.876   3.011  0.4587  0.2847 -0.1030
    1SOL     OW 7357   2.712   1.124   3.115  0.3086  0.0328  0.4153
    1SOL    HW2 7358   2.778   1.186   3.081  1.1818 -1.9739 -1.6973
    1SOL    HW3 7359   2.631   1.174   3.115  1.0227  1.2655 -1.0859
    1SOL    MW4 7360   2.710   1.139   3.110  0.5178 -0.0693 -0.0613
    1SOL     OW 7361   2.887   1.295   3.012 -0.4493  0.1121 -0.1910
    1SOL    HW2 7362   2.969   1.261   3.047 -0.1654  1.7572  0.7899
    1SOL    HW3 7363   2.887   1.388   3.036 -1.4140  0.7147 -2.3708
    1SOL    MW4 7364   2.898   1.303   3.020 -0.5391  0.4086 -0.3490
    1SOL     OW 7365   2.868   1.558   3.105  0.3185  0.0040  0.1089
    1SOL    HW2 7366   2.854   1.546   3.199 -1.3416 -0.0989 -0.1280
    1SOL    HW3 7367   2.950   1.608   3.099  0.2060  0.4087  1.6220
    1SOL    MW4 7368   2.877   1.563   3.117  0.0846  0.0439  0.2775
    1SOL     OW 7369   2.636   1.696   3.014  0.4531  0.2880  0.0981
    1SOL    HW2 7370   2.718   1.662   3.052  0.9686  1.0965 -0.2733
    1SOL    HW3 7371   2.569   1.636   3.046  1.1787 -0.3362  0.4874
    1SOL    MW4 7372   2.638   1.683   3.023  0.6168  0.3123  0.1004
    1SOL     OW 7373   2.632   1.969   3.115  0.1398 -0.2532  0.2533
    1SOL    HW2 7374   2.722   2.001   3.124  0.6773 -1.5292 -0.4042
    1SOL    HW3 7375   2.642   1.876   3.093 -1.3409 -0.4109  0.2112
    1SOL    MW4 7376   2.646   1.961   3.113  0.0153 -0.4424  0.1612
    1SOL     OW 7377   2.875   2.079   3.077 -0.5524  0.0614 -0.3422
    1SOL    HW2 7378   2.914   2.164   3.097 -0.9046  0.1034  0.1570
    1SOL    HW3 7379   2.875   2.075   2.981  0.0407  0.3554 -0.3563
    1SOL    MW4 7380   2.880   2.090   3.067 -0.5209  0.1059 -0.2780
    1SOL     OW 7381   2.953   2.326   3.141 -0.4304  0.2464 -0.3106
    1SOL    HW2 7382   3.032   2.352   3.094  0.0920 -0.6551  0.0683
    1SOL    HW3 7383   2.882   2.367   3.092  0.1014 -0.6786 -1.8878
    1SOL    MW4 7384   2.954   2.335   3.128 -0.2913  0.0055 -0.4687
    1SOL     OW 7385   2.749   2.454   2.997  0.1039  0.2617  0.4763
    1SOL    HW2 7386   2.743   2.545   3.026  0.0069  0.9772 -1.6945
    1SOL    HW3 7387   2.677   2.410   3.041 -1.7468  1.9053 -0.7789
    1SOL    MW4 7388   2.739   2.461   3.007 -0.1531  0.5729  0.0243
    1SOL     OW 7389   2.735   2.693   3.137  0.2619 -0.0836  0.3146
    1SOL    HW2 7390   2.732   2.701   3.233  0.2239 -0.6771  0.3644
    1SOL    HW3 7391   2.650   2.726   3.108  0.6185  0.9678  0.4163
    1SOL    MW4 7392   2.723   2.699   3.146  0.3040 -0.0236  0.3343
    1SOL     OW 7393   2.939   2.843   3.015 -0.3656  0.0362 -0.6955
    1SOL    HW2 7394   3.006   2.797   3.065 -0.7483 -0.6728 -0.8322
    1SOL    HW3 7395   2.856   2.803   3.043 -0.6740  0.3998 -1.0747
    1SOL    MW4 7396   2.937   2.832   3.025 -0.4568 -0.0095 -0.7637
    1SOL     OW 7397   2.913   3.084   3.151 -0.4403  0.0759  0.0236
    1SOL    HW2 7398   2.825   3.113   3.129  0.3482  0.8669 -2.1734
    1SOL    HW3 7399   2.920   2.997   3.112  0.0417  0.3830 -0.5917
    1SOL    MW4 7400   2.902   3.076   3.143 -0.2730  0.2208 -0.3476
    1SOL     OW 7401   2.694   3.201   3.051  0.1448 -0.2134  0.0292
    1SOL    HW2 7402   2.698   3.293   3.076  1.7902 -0.3721  0.4236
    1SOL    HW3 7403   2.700   3.202   2.955 -0.9668  0.1299 -0.0477
    1SOL    MW4 7404   2.695   3.213   3.042  0.2153 -0.1891  0.0710
    1SOL     OW 7405   2.683   3.473   3.137 -0.9998  0.1882  0.2281
    1SOL    HW2 7406   2.671   3.480   3.231  0.3334  0.4585  0.3864
    1SOL    HW3 7407   2.748   3.540   3.115 -0.0549 -0.9619 -0.6198
    1SOL    MW4 7408   2.690   3.483   3.146 -0.6995  0.0720  0.1373
    1SOL     OW 7409   2.923   3.606   3.041  0.2870  0.0265 -0.1972
    1SOL    HW2 7410   2.994   3.559   3.085  0.5673  0.2537 -0.4091
    1SOL    HW3 7411   2.931   3.696   3.071  1.6862  0.5971 -2.2301
    1SOL    MW4 7412   2.933   3.612   3.051  0.5088  0.1318 -0.4933
    1SOL     OW 7413   2.926   3.853   3.144  0.0490  0.0755  0.4688
    1SOL    HW2 7414   2.922   3.843   3.239 -2.7009 -1.5758  0.2180
    1SOL    HW3 7415   2.854   3.912   3.123 -0.1883 -0.6234 -0.7182
    1SOL    MW4 7416   2.916   3.859   3.154 -0.3450 -0.2344  0.2789
    1SOL     OW 7417   2.696   3.983   3.059  0.1200  0.0500  0.0799
    1SOL    HW2 7418   2.685   4.072   3.090  0.3590  0.3259 -0.6097
    1SOL    HW3 7419   2.719   3.993   2.966  2.1325 -0.6372  0.4712
    1SOL    MW4 7420   2.697   3.996   3.051  0.4172 -0.0043  0.0405
    1SOL     OW 7421   2.717   4.268   3.147 -0.8910  0.1511 -0.3246
    1SOL    HW2 7422   2.713   4.259   3.243 -0.7243 -0.6505 -0.3873
    1SOL    HW3 7423   2.632   4.305   3.123 -1.6556 -1.3869 -0.0445
    1SOL    MW4 7424   2.705   4.272   3.157 -0.9699 -0.1569 -0.2959
    1SOL     OW 7425   2.961   4.359   3.054  0.2457 -0.5475 -0.1466
    1SOL    HW2 7426   3.041   4.324   3.093  0.5081  0.0526 -0.1399
    1SOL    HW3 7427   2.890   4.312   3.098  0.4799  1.2523  2.2371
    1SOL    MW4 7428   2.962   4.349   3.065  0.3111 -0.2308  0.1688
    1SOL     OW 7429   3.320   4.585   3.157  0.5128 -0.0394  0.3938
    1SOL    HW2 7430   3.401   4.625   3.125 -0.5517  1.3780 -0.5898
    1SOL    HW3 7431   3.320   4.497   3.120  1.3023  0.1832 -0.1405
    1SOL    MW4 7432   3.330   4.579   3.148  0.4764  0.1769  0.1936
    1SOL     OW 7433   3.158   0.104   3.014 -0.0308  0.0066  0.7075
    1SOL    HW2 7434   3.181   0.189   3.052  1.2155 -0.4227  0.9525
    1SOL    HW3 7435   3.207   0.040   3.066  0.1941 -0.7466 -0.4042
    1SOL    MW4 7436   3.167   0.106   3.026  0.1633 -0.1494  0.5929
    1SOL     OW 7437   3.170   0.385   3.157 -0.6502  0.2242 -0.3291
    1SOL    HW2 7438   3.229   0.452   3.124 -0.3898  0.7960  1.2196
    1SOL    HW3 7439   3.088   0.400   3.110  0.4178 -0.5837 -2.5028
    1SOL    MW4 7440   3.167   0.396   3.147 -0.4749  0.1930 -0.4115
    1SOL     OW 7441   3.348   0.549   3.022 -0.3675 -0.1458 -0.2216
    1SOL    HW2 7442   3.423   0.501   3.056 -1.8053 -1.0067  1.8578
    1SOL    HW3 7443   3.346   0.528   2.928  2.5503  0.7248 -0.5306
    1SOL    MW4 7444   3.357   0.540   3.014 -0.1724 -0.1445  0.0119
    1SOL     OW 7445   3.357   0.804   3.127  0.5333  0.1354  0.0958
    1SOL    HW2 7446   3.338   0.791   3.220  1.0236 -1.3345 -0.0083
    1SOL    HW3 7447   3.343   0.719   3.087  0.4714  0.7293 -1.1690
    1SOL    MW4 7448   3.353   0.791   3.134  0.5898  0.0198 -0.0849
    1SOL     OW 7449   3.113   0.912   3.014 -0.1605 -0.1026 -0.0472
    1SOL    HW2 7450   3.191   0.879   3.057  0.3562  0.9449 -0.1748
    1SOL    HW3 7451   3.043   0.854   3.044  0.5918 -0.7854  0.3936
    1SOL    MW4 7452   3.114   0.900   3.024  0.0069 -0.0545 -0.0060
    1SOL     OW 7453   3.120   1.180   3.088 -0.1758 -0.4451  0.0545
    1SOL    HW2 7454   3.209   1.210   3.071  0.3280 -1.2489  1.2242
    1SOL    HW3 7455   3.116   1.092   3.052 -0.5074 -0.3979 -0.0295
    1SOL    MW4 7456   3.131   1.172   3.081 -0.1531 -0.5448  0.1976
    1SOL     OW 7457   3.363   1.281   3.011 -0.5678  0.5041 -0.1458
    1SOL    HW2 7458   3.436   1.244   3.061 -1.4722  1.3176  1.8293
    1SOL    HW3 7459   3.362   1.374   3.033 -2.4444  0.4396  0.1934
    1SOL    MW4 7460   3.372   1.288   3.021 -0.9346  0.6030  0.1597
    1SOL     OW 7461   3.315   1.525   3.112  0.3865  0.3833  0.0183
    1SOL    HW2 7462   3.311   1.519   3.208  0.5758 -0.5203 -0.0193
    1SOL    HW3 7463   3.401   1.561   3.094 -0.4940  2.6562  0.2533
    1SOL    MW4 7464   3.325   1.529   3.122  0.2954  0.5641  0.0446
    1SOL     OW 7465   3.097   1.693   3.011 -0.5013 -0.0612 -0.2371
    1SOL    HW2 7466   3.169   1.643   3.050  1.1416  1.8041 -0.8184
    1SOL    HW3 7467   3.108   1.682   2.917 -1.2208 -0.0983 -0.3192
    1SOL    MW4 7468   3.108   1.685   3.004 -0.3793  0.1800 -0.3247
    1SOL     OW 7469   3.128   1.947   3.129  0.1208 -0.2811  0.0652
    1SOL    HW2 7470   3.123   1.866   3.077 -1.7105  0.1747 -0.4977
    1SOL    HW3 7471   3.052   1.998   3.101  0.5307  1.0769  1.3760
    1SOL    MW4 7472   3.117   1.943   3.118 -0.0665 -0.0417  0.1640
    1SOL     OW 7473   3.363   2.032   3.005 -0.2442 -1.0741 -0.2751
    1SOL    HW2 7474   3.436   1.977   3.035 -1.0507 -1.1398  1.6171
    1SOL    HW3 7475   3.291   2.010   3.064 -1.2738  0.2852 -1.0153
    1SOL    MW4 7476   3.363   2.022   3.017 -0.4864 -0.9034 -0.1228
    1SOL     OW 7477   3.400   2.297   3.138  0.2881 -0.1409 -0.4856
    1SOL    HW2 7478   3.384   2.283   3.231  0.9710 -0.0793 -0.3575
    1SOL    HW3 7479   3.396   2.210   3.100 -1.0563 -0.0419 -0.5648
    1SOL    MW4 7480   3.398   2.284   3.145  0.2007 -0.1197 -0.4790
    1SOL     OW 7481   3.155   2.435   2.998  0.4445  0.3658 -0.1467
    1SOL    HW2 7482   3.244   2.405   3.017  0.5420  1.0802  0.5454
    1SOL    HW3 7483   3.146   2.423   2.903 -0.2261 -3.6750  0.3509
    1SOL    MW4 7484   3.166   2.430   2.988  0.3688 -0.0730  0.0103
    1SOL     OW 7485   3.147   2.691   3.128 -0.0483 -0.3156  0.2054
    1SOL    HW2 7486   3.148   2.671   3.221  0.0953 -0.6403  0.1343
    1SOL    HW3 7487   3.131   2.607   3.085  0.3963 -0.2539 -0.0832
    1SOL    MW4 7488   3.145   2.678   3.134  0.0293 -0.3502  0.1578
    1SOL     OW 7489   3.371   2.853   3.032  0.4040 -0.3798  0.0784
    1SOL    HW2 7490   3.360   2.937   3.078  1.5717  0.6938 -1.5544
    1SOL    HW3 7491   3.292   2.803   3.056 -1.0989  1.7803 -0.1768
    1SOL    MW4 7492   3.359   2.858   3.041  0.3600  0.0472 -0.1709
    1SOL     OW 7493   3.367   3.123   3.131 -0.0268 -0.0404  0.2797
    1SOL    HW2 7494   3.379   3.130   3.226 -0.4357  0.0660  0.3258
    1SOL    HW3 7495   3.276   3.149   3.117  0.4975  1.5061 -0.3251
    1SOL    MW4 7496   3.356   3.128   3.142 -0.0114  0.1779  0.2060
    1SOL     OW 7497   3.115   3.264   3.060  0.0573 -0.0591  0.2202
    1SOL    HW2 7498   3.050   3.202   3.095  0.0082 -0.9722 -1.4578
    1SOL    HW3 7499   3.112   3.251   2.965  1.4424  1.1522 -0.0012
    1SOL    MW4 7500   3.106   3.254   3.052  0.2339 -0.0196 -0.0305
    1SOL     OW 7501   3.128   3.506   3.180  0.1478 -0.7466  0.0158
    1SOL    HW2 7502   3.215   3.543   3.166  0.4289 -1.2559  0.4089
    1SOL    HW3 7503   3.136   3.416   3.150 -0.2670 -0.7721 -0.0151
    1SOL    MW4 7504   3.140   3.499   3.174  0.1304 -0.8171  0.0637
    1SOL     OW 7505   3.354   3.591   3.044  0.1851 -0.0721 -0.1835
    1SOL    HW2 7506   3.420   3.529   3.074 -0.5703 -0.8765 -0.1847
    1SOL    HW3 7507   3.379   3.674   3.086  2.8786  0.3417 -2.4818
    1SOL    MW4 7508   3.366   3.594   3.054  0.4408 -0.1237 -0.4871
    1SOL     OW 7509   3.373   3.858   3.143  0.5441 -0.2351  0.4047
    1SOL    HW2 7510   3.360   3.848   3.237  1.7509 -1.6679  0.4408
    1SOL    HW3 7511   3.295   3.904   3.112  0.7368  1.4033  2.2989
    1SOL    MW4 7512   3.361   3.863   3.151  0.7288 -0.2081  0.6592
    1SOL     OW 7513   3.141   3.985   3.035  0.0435  0.1394 -0.5154
    1SOL    HW2 7514   3.063   3.936   3.061 -0.0089 -0.4712 -1.7653
    1SOL    HW3 7515   3.135   3.991   2.940  1.0370  0.9176 -0.5374
    1SOL    MW4 7516   3.130   3.979   3.026  0.1676  0.1616 -0.6835
    1SOL     OW 7517   3.188   4.241   3.142 -0.3619  0.0314  0.4217
    1SOL    HW2 7518   3.160   4.228   3.232 -0.4959 -0.4003  0.3184
    1SOL    HW3 7519   3.189   4.154   3.104 -0.4169  0.2258 -0.0309
    1SOL    MW4 7520   3.185   4.228   3.149 -0.3870  0.0005  0.3486
    1SOL     OW 7521   3.401   4.364   2.993  0.1984  0.4278 -0.6609
    1SOL    HW2 7522   3.472   4.350   3.056 -0.0261 -0.5557 -0.6051
    1SOL    HW3 7523   3.329   4.311   3.028 -0.8140  2.0278 -0.2988
    1SOL    MW4 7524   3.401   4.355   3.006  0.0353  0.5088 -0.6058
    1SOL     OW 7525   3.827   0.036   3.138  0.2833 -0.5273 -0.3352
    1SOL    HW2 7526   3.808  -0.053   3.109  0.5255 -0.6395 -0.1520
    1SOL    HW3 7527   3.743   0.083   3.130 -0.1878 -1.1263  0.8497
    1SOL    MW4 7528   3.813   0.031   3.133  0.2534 -0.6212 -0.1550
    1SOL     OW 7529   3.541   0.107   3.097  0.5625 -0.2103 -0.3141
    1SOL    HW2 7530   3.530   0.199   3.118 -1.5426 -0.6375  0.5532
    1SOL    HW3 7531   3.562   0.105   3.004 -1.6738  1.0167 -0.8685
    1SOL    MW4 7532   3.542   0.119   3.088 -0.0105 -0.1048 -0.2728
    1SOL     OW 7533   3.531   0.389   3.145 -0.2584 -0.4362 -0.0647
    1SOL    HW2 7534   3.532   0.376   3.240  0.2043 -0.4349 -0.0669
    1SOL    HW3 7535   3.623   0.400   3.121 -0.4698  0.8598 -0.3384
    1SOL    MW4 7536   3.543   0.389   3.154 -0.2253 -0.2650 -0.1009
    1SOL     OW 7537   3.782   0.450   3.033  0.2357 -0.2656  0.3377
    1SOL    HW2 7538   3.863   0.415   3.070  0.5433  0.5585  0.4478
    1SOL    HW3 7539   3.787   0.544   3.050 -0.1215 -0.0303 -0.8662
    1SOL    MW4 7540   3.793   0.457   3.040  0.2291 -0.1258  0.1936
    1SOL     OW 7541   3.817   0.731   3.087 -0.3559  0.0286 -0.3718
    1SOL    HW2 7542   3.814   0.742   3.182  0.1064 -0.3213 -0.3147
    1SOL    HW3 7543   3.906   0.759   3.062 -0.3068 -0.3570 -0.6375
    1SOL    MW4 7544   3.829   0.736   3.096 -0.2885 -0.0685 -0.3994
    1SOL     OW 7545   3.613   0.910   3.002 -0.1611  0.2378 -0.6118
    1SOL    HW2 7546   3.694   0.869   3.032  0.2258  1.3960 -0.0686
    1SOL    HW3 7547   3.543   0.860   3.045  0.1495 -2.2518 -2.8805
    1SOL    MW4 7548   3.614   0.898   3.012 -0.0689  0.0621 -0.8390
    1SOL     OW 7549   3.582   1.151   3.128  0.1491 -0.3099  0.5406
    1SOL    HW2 7550   3.660   1.198   3.098 -0.5163 -0.0428 -0.7675
    1SOL    HW3 7551   3.581   1.071   3.076 -0.4968 -0.2800  0.5124
    1SOL    MW4 7552   3.592   1.147   3.117 -0.0241 -0.2706  0.3645
    1SOL     OW 7553   3.828   1.273   2.984  0.0950 -0.0959  0.1334
    1SOL    HW2 7554   3.816   1.364   3.013 -1.4509  0.1909 -1.3522
    1SOL    HW3 7555   3.830   1.278   2.889  0.2480 -1.5969  0.0440
    1SOL    MW4 7556   3.827   1.286   2.976 -0.0887 -0.2559 -0.0744
    1SOL     OW 7557   3.797   1.514   3.106  0.0341 -0.2377  0.0212
    1SOL    HW2 7558   3.791   1.512   3.201 -1.5075  0.1601 -0.0585
    1SOL    HW3 7559   3.713   1.549   3.077  0.4972 -0.3306 -1.4875
    1SOL    MW4 7560   3.785   1.518   3.115 -0.1080 -0.1974 -0.1886
    1SOL     OW 7561   3.559   1.625   3.035  0.1079 -0.1131 -0.3179
    1SOL    HW2 7562   3.566   1.712   3.074 -1.0665 -0.4587  0.6860
    1SOL    HW3 7563   3.569   1.641   2.941  0.8280  0.9842 -0.0725
    1SOL    MW4 7564   3.561   1.639   3.028  0.0477 -0.0139 -0.1533
    1SOL     OW 7565   3.583   1.883   3.113 -0.2944 -0.2818 -0.3493
    1SOL    HW2 7566   3.574   1.918   3.201  0.6406  0.1926 -0.4297
    1SOL    HW3 7567   3.667   1.918   3.082  0.2322 -1.8596 -0.7686
    1SOL    MW4 7568   3.593   1.893   3.120 -0.1016 -0.4274 -0.4153
    1SOL     OW 7569   3.831   1.995   3.022  0.2264 -0.3306  0.0653
    1SOL    HW2 7570   3.834   2.083   3.058 -0.1115 -0.6344  0.8432
    1SOL    HW3 7571   3.831   2.008   2.927 -1.4429  0.5764  0.1686
    1SOL    MW4 7572   3.831   2.008   3.014 -0.0384 -0.2508  0.1812
    1SOL     OW 7573   3.838   2.250   3.110 -0.1978  0.5623 -0.1004
    1SOL    HW2 7574   3.842   2.264   3.205  0.1338  2.4125 -0.3798
    1SOL    HW3 7575   3.766   2.305   3.080  0.2059  0.5999 -1.0272
    1SOL    MW4 7576   3.829   2.259   3.119 -0.1011  0.8116 -0.2594
    1SOL     OW 7577   3.630   2.415   3.029  0.1076  0.1772 -0.0724
    1SOL    HW2 7578   3.640   2.499   3.075 -0.4237  0.9492 -1.3272
    1SOL    HW3 7579   3.557   2.372   3.074 -0.0880  0.7053  0.1214
    1SOL    MW4 7580   3.622   2.421   3.041  0.0117  0.3490 -0.2124
    1SOL     OW 7581   3.594   2.700   3.138 -0.8492  0.0287 -0.3171
    1SOL    HW2 7582   3.669   2.732   3.089  0.3820 -0.4984  1.1732
    1SOL    HW3 7583   3.523   2.761   3.117 -0.5347 -0.5346 -3.1760
    1SOL    MW4 7584   3.594   2.712   3.129 -0.6452 -0.1149 -0.4978
    1SOL     OW 7585   3.829   2.798   3.018  0.1615 -0.3209 -0.1670
    1SOL    HW2 7586   3.842   2.866   3.084  1.2941 -0.3476 -0.3573
    1SOL    HW3 7587   3.800   2.845   2.940  0.4174 -0.1177 -0.1388
    1SOL    MW4 7588   3.826   2.813   3.016  0.3448 -0.2978 -0.1884
    1SOL     OW 7589   3.836   3.059   3.123  0.4457  0.1120 -0.2755
    1SOL    HW2 7590   3.910   3.114   3.099  0.0376  0.9675  0.4061
    1SOL    HW3 7591   3.759   3.106   3.092  0.1659 -0.7143 -0.8693
    1SOL    MW4 7592   3.836   3.072   3.116  0.3550  0.1156 -0.2642
    1SOL     OW 7593   3.618   3.200   3.046 -0.3249  0.2989  0.1305
    1SOL    HW2 7594   3.533   3.162   3.068  0.7327 -1.5396  1.1290
    1SOL    HW3 7595   3.610   3.224   2.954 -2.1967  0.9257  0.4242
    1SOL    MW4 7596   3.606   3.198   3.037 -0.4323  0.1392  0.3011
    1SOL     OW 7597   3.572   3.466   3.147 -0.1425 -0.2692  0.4203
    1SOL    HW2 7598   3.632   3.521   3.098  0.2213 -0.7144  0.3674
    1SOL    HW3 7599   3.586   3.377   3.114 -2.9742  0.0120 -1.7630
    1SOL    MW4 7600   3.582   3.461   3.136 -0.4680 -0.2909  0.1254
    1SOL     OW 7601   3.775   3.625   3.025 -0.9579  0.3137  0.1500
    1SOL    HW2 7602   3.797   3.716   3.048  0.8255  0.1305 -0.6836
    1SOL    HW3 7603   3.765   3.627   2.929 -0.7215 -0.3943  0.1079
    1SOL    MW4 7604   3.777   3.638   3.015 -0.6912  0.1960  0.0343
    1SOL     OW 7605   3.770   3.895   3.123 -0.0321  0.1292  0.7048
    1SOL    HW2 7606   3.772   3.890   3.219 -1.0765 -1.5991  0.6420
    1SOL    HW3 7607   3.692   3.947   3.104 -0.2373 -0.1486  0.7782
    1SOL    MW4 7608   3.760   3.901   3.133 -0.1972 -0.1352  0.7064
    1SOL     OW 7609   3.565   4.064   3.062 -0.4051 -0.7722 -0.1471
    1SOL    HW2 7610   3.494   4.015   3.102  0.3009 -0.8246  1.0523
    1SOL    HW3 7611   3.548   4.058   2.967 -2.4796 -0.0489  0.1513
    1SOL    MW4 7612   3.554   4.057   3.054 -0.5856 -0.6838  0.0508
    1SOL     OW 7613   3.612   4.309   3.158 -0.0757 -0.7616 -0.5462
    1SOL    HW2 7614   3.691   4.349   3.121 -0.5003 -0.7312 -1.4288
    1SOL    HW3 7615   3.606   4.224   3.115 -0.5272 -0.7641 -0.4821
    1SOL    MW4 7616   3.622   4.303   3.147 -0.1915 -0.7582 -0.6542
    1SOL     OW 7617   3.838   4.428   3.033  0.0083  0.2069  0.3682
    1SOL    HW2 7618   3.901   4.364   3.065 -1.1873 -0.8647  0.6238
    1SOL    HW3 7619   3.837   4.415   2.938  0.7365  0.7770  0.2702
    1SOL    MW4 7620   3.846   4.418   3.025 -0.0536  0.1407  0.3891
    1SOL     OW 7621   4.278   4.643   3.109  0.0191  0.1270 -0.2261
    1SOL    HW2 7622   4.287   4.640   3.204 -0.7637  0.1791 -0.1473
    1SOL    HW3 7623   4.265   4.552   3.083 -0.5389  0.2008 -0.2048
    1SOL    MW4 7624   4.277   4.630   3.118 -0.1578  0.1435 -0.2129
    1SOL     OW 7625   4.053   0.117   3.004 -0.4269  0.2640 -0.9822
    1SOL    HW2 7626   4.122   0.076   3.056 -0.1038  0.1660 -1.4869
    1SOL    HW3 7627   3.971   0.087   3.045 -0.2078 -1.4329 -1.7598
    1SOL    MW4 7628   4.051   0.107   3.017 -0.3552  0.0272 -1.1516
    1SOL     OW 7629   4.033   0.360   3.137 -0.1436  0.0885  0.3675
    1SOL    HW2 7630   4.109   0.399   3.094  0.5038 -1.8544 -0.3148
    1SOL    HW3 7631   4.026   0.273   3.098 -2.2254 -0.0555  1.0393
    1SOL    MW4 7632   4.042   0.354   3.126 -0.3328 -0.1868  0.3660
    1SOL     OW 7633   4.244   0.497   3.030  0.3721 -0.6041 -0.6111
    1SOL    HW2 7634   4.239   0.584   3.069  0.7342  0.0145 -1.9163
    1SOL    HW3 7635   4.232   0.512   2.936  0.4626 -1.9611 -0.8546
    1SOL    MW4 7636   4.241   0.510   3.023  0.4315 -0.7016 -0.8152
    1SOL     OW 7637   4.250   0.743   3.145 -0.2298 -0.1616 -0.2300
    1SOL    HW2 7638   4.175   0.794   3.113 -0.5077  0.1943  0.9752
    1SOL    HW3 7639   4.325   0.799   3.126 -0.5088  0.5972  0.8456
    1SOL    MW4 7640   4.250   0.757   3.138 -0.3028 -0.0145  0.0706
    1SOL     OW 7641   4.049   0.855   3.010  0.4157 -0.3852  0.4738
    1SOL    HW2 7642   4.055   0.948   3.036  1.4899 -0.3306  0.0447
    1SOL    HW3 7643   4.047   0.857   2.915  0.8351 -0.8298  0.4567
    1SOL    MW4 7644   4.049   0.868   3.001  0.6132 -0.4367  0.4148
    1SOL     OW 7645   4.020   1.110   3.085 -0.4273 -0.0395  0.3433
    1SOL    HW2 7646   4.033   1.125   3.179 -1.0595 -0.0234  0.4300
    1SOL    HW3 7647   3.941   1.160   3.064 -1.5610 -1.8387  0.2611
    1SOL    MW4 7648   4.011   1.119   3.095 -0.6604 -0.2747  0.3440
    1SOL     OW 7649   4.240   1.248   2.991 -0.2903 -0.2810  0.3671
    1SOL    HW2 7650   4.168   1.194   3.023  0.5665 -1.0396  1.0405
    1SOL    HW3 7651   4.231   1.245   2.896 -1.3580 -0.0788  0.4616
    1SOL    MW4 7652   4.229   1.240   2.982 -0.3181 -0.3544  0.4685
    1SOL     OW 7653   4.260   1.508   3.109  0.0056  0.1074 -0.1718
    1SOL    HW2 7654   4.182   1.550   3.073  0.4622 -0.5897 -2.0600
    1SOL    HW3 7655   4.252   1.416   3.082  0.9406 -0.1942  0.5401
    1SOL    MW4 7656   4.249   1.501   3.101  0.1893 -0.0244 -0.3269
    1SOL     OW 7657   4.034   1.654   3.016 -0.7337  0.1427 -0.6787
    1SOL    HW2 7658   4.029   1.729   3.076  0.1207 -0.1685 -0.2146
    1SOL    HW3 7659   3.954   1.604   3.033 -0.3522 -0.1117  0.4360
    1SOL    MW4 7660   4.023   1.657   3.026 -0.5708  0.0681 -0.4704
    1SOL     OW 7661   4.064   1.926   3.142 -0.4188 -0.2714 -0.2151
    1SOL    HW2 7662   4.147   1.956   3.105 -0.4743 -0.1393 -0.2311
    1SOL    HW3 7663   3.997   1.965   3.086 -0.4809 -0.7557 -0.4823
    1SOL    MW4 7664   4.066   1.935   3.130 -0.4349 -0.3178 -0.2522
    1SOL     OW 7665   4.263   2.035   3.004  0.0950  0.1630 -0.1063
    1SOL    HW2 7666   4.292   2.118   3.042  1.0524  0.3889 -1.3293
    1SOL    HW3 7667   4.247   2.054   2.912  1.1242 -1.1929 -0.5852
    1SOL    MW4 7668   4.265   2.048   2.997  0.3572  0.0141 -0.3309
    1SOL     OW 7669   4.292   2.307   3.094  0.1495 -0.5906  0.2093
    1SOL    HW2 7670   4.213   2.331   3.046 -0.3751  0.3288  1.4960
    1SOL    HW3 7671   4.359   2.367   3.062 -0.5729  1.0402  1.7038
    1SOL    MW4 7672   4.291   2.318   3.084 -0.0153 -0.2542  0.5763
    1SOL     OW 7673   4.071   2.389   2.959  0.0276 -0.2543  0.4561
    1SOL    HW2 7674   4.075   2.481   2.983  0.3714  0.1940 -1.2588
    1SOL    HW3 7675   3.985   2.359   2.989 -0.0149  0.5759  1.1614
    1SOL    MW4 7676   4.060   2.397   2.966  0.0672 -0.0856  0.3228
    1SOL     OW 7677   4.046   2.640   3.082 -0.0211  0.5559 -0.2107
    1SOL    HW2 7678   4.055   2.643   3.178  1.1933 -0.0285 -0.2964
    1SOL    HW3 7679   3.980   2.707   3.063 -0.3710  0.5943  1.0462
    1SOL    MW4 7680   4.039   2.649   3.092  0.0930  0.4840 -0.0560
    1SOL     OW 7681   4.244   2.818   3.005 -0.1702 -0.1371 -0.1774
    1SOL    HW2 7682   4.166   2.765   3.020 -0.0303 -0.0554  0.9292
    1SOL    HW3 7683   4.312   2.775   3.057 -0.1668  1.3650  1.1010
    1SOL    MW4 7684   4.243   2.805   3.014 -0.1507  0.0722  0.1376
    1SOL     OW 7685   4.289   3.075   3.125  0.5468 -0.1912 -0.0730
    1SOL    HW2 7686   4.211   3.124   3.102 -0.1237 -0.6526  1.1789
    1SOL    HW3 7687   4.277   2.989   3.084  0.8631  0.0620 -0.7063
    1SOL    MW4 7688   4.277   3.070   3.117  0.5007 -0.2186  0.0086
    1SOL     OW 7689   4.057   3.210   3.036 -0.2290  0.2264 -0.4054
    1SOL    HW2 7690   4.042   3.298   3.071 -1.1386 -0.1426  0.1600
    1SOL    HW3 7691   4.042   3.219   2.942  0.6354  0.8775 -0.4904
    1SOL    MW4 7692   4.053   3.223   3.028 -0.2351  0.2635 -0.3419
    1SOL     OW 7693   3.988   3.468   3.132  0.0848  0.3121 -0.2904
    1SOL    HW2 7694   4.007   3.494   3.222 -0.3847  0.7950 -0.3305
    1SOL    HW3 7695   3.921   3.529   3.102  0.4660  0.3631 -1.0812
    1SOL    MW4 7696   3.982   3.480   3.140  0.0732  0.3824 -0.4001
    1SOL     OW 7697   4.231   3.582   3.003 -0.2457  0.0891  0.4372
    1SOL    HW2 7698   4.230   3.672   3.033  0.8661 -0.0021  0.7365
    1SOL    HW3 7699   4.151   3.544   3.040 -0.6548  0.9103  0.4060
    1SOL    MW4 7700   4.220   3.589   3.011 -0.1531  0.1857  0.4728
    1SOL     OW 7701   4.231   3.851   3.104  0.4423 -0.1779  0.2746
    1SOL    HW2 7702   4.155   3.896   3.067  0.2225 -1.3838 -0.7637
    1SOL    HW3 7703   4.306   3.892   3.060  0.3019 -0.0788  0.1261
    1SOL    MW4 7704   4.231   3.862   3.093  0.3948 -0.3240  0.1183
    1SOL     OW 7705   4.011   3.997   2.999  0.2145  0.4439 -0.0956
    1SOL    HW2 7706   4.027   4.085   3.032 -0.4158  0.3548  0.4524
    1SOL    HW3 7707   3.930   3.969   3.042 -0.4627  0.2162 -1.5034
    1SOL    MW4 7708   4.003   4.005   3.009  0.0420  0.4020 -0.2086
    1SOL     OW 7709   4.028   4.259   3.128  0.0442 -0.0117 -0.4704
    1SOL    HW2 7710   4.040   4.268   3.222  0.2852 -1.4976 -0.3471
    1SOL    HW3 7711   4.109   4.293   3.090  0.1995  0.0214 -0.1105
    1SOL    MW4 7712   4.041   4.264   3.135  0.0963 -0.2031 -0.4067
    1SOL     OW 7713   4.256   4.378   3.024 -0.2530  0.0428 -0.1076
    1SOL    HW2 7714   4.339   4.341   3.053  0.4340  0.5262 -1.4058
    1SOL    HW3 7715   4.263   4.380   2.928 -2.3139 -1.2141 -0.3029
    1SOL    MW4 7716   4.268   4.374   3.015 -0.4344 -0.0587 -0.3045
    1SOL     OW 7717   0.182   0.024   3.392 -0.6269 -0.1513  0.0720
    1SOL    HW2 7718   0.260   0.076   3.410 -0.5522  0.0576 -0.8168
    1SOL    HW3 7719   0.186  -0.049   3.455 -0.7775  0.9471  1.3715
    1SOL    MW4 7720   0.193   0.021   3.403 -0.6369  0.0210  0.1264
    1SOL     OW 7721   4.451   0.135   3.517 -0.1189  0.4447  0.4102
    1SOL    HW2 7722   4.450   0.228   3.494 -0.1906  0.1008 -1.0079
    1SOL    HW3 7723   4.534   0.102   3.481 -0.4149 -0.1851  0.3007
    1SOL    MW4 7724   4.462   0.143   3.509 -0.1669  0.3162  0.2091
    1SOL     OW 7725   4.477   0.384   3.400 -0.4215 -0.0613  0.1984
    1SOL    HW2 7726   4.404   0.427   3.444  0.3418  0.5220  0.9057
    1SOL    HW3 7727   4.552   0.442   3.415  1.0352 -2.4318  2.6778
    1SOL    MW4 7728   4.477   0.397   3.408 -0.1283 -0.2971  0.6187
    1SOL     OW 7729   0.209   0.535   3.480  0.2225  0.2899  0.0481
    1SOL    HW2 7730   0.275   0.477   3.444 -1.1139 -0.2488 -1.6278
    1SOL    HW3 7731   0.221   0.617   3.433  1.3255  1.0175  1.5549
    1SOL    MW4 7732   0.219   0.538   3.469  0.1917  0.3148  0.0257
    1SOL     OW 7733   0.232   0.785   3.351 -0.2596  0.3273 -0.1229
    1SOL    HW2 7734   0.307   0.798   3.411 -0.0943  1.9481 -0.6446
    1SOL    HW3 7735   0.158   0.821   3.399 -0.5016 -0.2205 -0.0838
    1SOL    MW4 7736   0.232   0.792   3.365 -0.2697  0.4690 -0.1867
    1SOL     OW 7737   0.025   0.902   3.488  0.0857 -0.1413  0.1131
    1SOL    HW2 7738   0.013   0.908   3.583  1.4028  2.6632  0.1716
    1SOL    HW3 7739   0.011   0.992   3.457  0.5148 -0.8619 -2.2449
    1SOL    MW4 7740   0.022   0.915   3.496  0.3161  0.1337 -0.1903
    1SOL     OW 7741   4.473   1.159   3.410 -0.2851  0.1644  0.1132
    1SOL    HW2 7742   4.541   1.215   3.447 -1.2288  1.0542  0.5589
    1SOL    HW3 7743   4.494   1.152   3.317  0.6693  0.0429  0.3341
    1SOL    MW4 7744   4.484   1.165   3.403 -0.2837  0.2658  0.2012
    1SOL     OW 7745   0.185   1.318   3.496  0.5236 -0.0579 -0.0848
    1SOL    HW2 7746   0.258   1.279   3.446 -0.0655 -0.3910 -0.6910
    1SOL    HW3 7747   0.195   1.412   3.483  0.6532 -0.1184 -0.4405
    1SOL    MW4 7748   0.196   1.325   3.488  0.4629 -0.1098 -0.2117
    1SOL     OW 7749   0.179   1.589   3.396  0.5989 -0.1188 -0.0906
    1SOL    HW2 7750   0.255   1.647   3.408  1.8568 -1.3451 -1.8504
    1SOL    HW3 7751   0.184   1.562   3.304 -1.7193 -0.5995 -0.1074
    1SOL    MW4 7752   0.190   1.593   3.385  0.4590 -0.3440 -0.3250
    1SOL     OW 7753   4.430   1.687   3.506 -0.3139  0.3191  0.6444
    1SOL    HW2 7754   4.351   1.647   3.468  0.5882 -0.6409 -0.2636
    1SOL    HW3 7755   4.502   1.650   3.455  0.7530  0.9169  1.6973
    1SOL    MW4 7756   4.429   1.677   3.494 -0.0539  0.2713  0.6635
    1SOL     OW 7757   4.484   1.929   3.376 -0.2788  0.4412 -0.2298
    1SOL    HW2 7758   4.449   1.849   3.415 -0.1363  0.6025  0.2310
    1SOL    HW3 7759   4.507   1.904   3.286  0.4795 -0.2451  0.1507
    1SOL    MW4 7760   4.483   1.915   3.369 -0.1599  0.3718 -0.1185
    1SOL     OW 7761   0.228   2.064   3.466  0.1164  0.0613  0.5179
    1SOL    HW2 7762   0.234   2.047   3.560 -0.4648 -0.8651  0.3996
    1SOL    HW3 7763   0.157   2.007   3.436  1.0407 -0.4946 -0.6708
    1SOL    MW4 7764   0.219   2.054   3.474  0.1616 -0.1342  0.3457
    1SOL     OW 7765   0.240   2.354   3.351  0.2521 -0.3230  0.2107
    1SOL    HW2 7766   0.172   2.406   3.394  0.6890  0.2463  0.2150
    1SOL    HW3 7767   0.228   2.265   3.384  0.1318 -0.0286  0.9508
    1SOL    MW4 7768   0.229   2.349   3.361  0.2938 -0.2089  0.3090
    1SOL     OW 7769   4.483   2.483   3.484  0.3499  0.1770  0.4241
    1SOL    HW2 7770   4.506   2.468   3.576 -1.7794  0.4248  1.0223
    1SOL    HW3 7771   4.410   2.424   3.468 -0.2396  1.1862 -0.6890
    1SOL    MW4 7772   4.476   2.473   3.494 -0.0086  0.3426  0.3564
    1SOL     OW 7773   4.478   2.747   3.401  0.0106 -0.4231 -0.7541
    1SOL    HW2 7774   4.553   2.796   3.436 -0.2041  0.4270 -1.4616
    1SOL    HW3 7775   4.486   2.660   3.441 -0.0644  0.4228  1.1812
    1SOL    MW4 7776   4.489   2.742   3.411 -0.0272 -0.1993 -0.5922
    1SOL     OW 7777   0.218   2.868   3.511 -0.2721 -0.1960  0.5350
    1SOL    HW2 7778   0.284   2.810   3.473 -1.4704 -1.5282  0.3915
    1SOL    HW3 7779   0.236   2.954   3.474 -0.3786 -1.1352 -1.7575
    1SOL    MW4 7780   0.229   2.872   3.501 -0.4442 -0.4954  0.2136
    1SOL     OW 7781   0.243   3.116   3.405 -0.4506  0.6292 -0.0230
    1SOL    HW2 7782   0.163   3.164   3.427 -0.5051  0.9636 -0.9351
    1SOL    HW3 7783   0.242   3.110   3.309  0.2434 -0.0089  0.0061
    1SOL    MW4 7784   0.232   3.121   3.395 -0.3662  0.5894 -0.1397
    1SOL     OW 7785   4.486   3.208   3.486  0.2481  0.2691 -0.2790
    1SOL    HW2 7786   4.412   3.166   3.441  0.1059  0.5919 -0.3460
    1SOL    HW3 7787   4.490   3.296   3.449  0.9197  0.1179 -0.5603
    1SOL    MW4 7788   4.477   3.214   3.476  0.3181  0.2921 -0.3252
    1SOL     OW 7789   4.466   3.487   3.386  0.6518 -0.2694 -0.2461
    1SOL    HW2 7790   4.393   3.544   3.410  1.6109  0.8874  0.0069
    1SOL    HW3 7791   4.470   3.492   3.290  1.1105  0.5948 -0.1899
    1SOL    MW4 7792   4.457   3.495   3.376  0.8392 -0.0026 -0.2053
    1SOL     OW 7793   0.223   3.622   3.475 -0.0684  0.5424 -0.2370
    1SOL    HW2 7794   0.221   3.600   3.568  0.1053 -0.1900 -0.4010
    1SOL    HW3 7795   0.146   3.580   3.438  1.4805 -1.7293 -0.9637
    1SOL    MW4 7796   0.213   3.614   3.482  0.1589  0.1462 -0.3545
    1SOL     OW 7797   0.199   3.883   3.417  0.4484 -0.1000 -0.1005
    1SOL    HW2 7798   0.108   3.914   3.423  0.3060 -0.3628 -0.8278
    1SOL    HW3 7799   0.194   3.791   3.440  0.7896  0.2673  1.5124
    1SOL    MW4 7800   0.186   3.875   3.420  0.4746 -0.0861  0.0165
    1SOL     OW 7801   4.465   4.038   3.475  0.2728 -0.2285 -0.0736
    1SOL    HW2 7802   4.475   4.045   3.569  2.9088  0.2454 -0.3754
    1SOL    HW3 7803   4.481   4.126   3.441  1.2721 -0.7861 -1.1068
    1SOL    MW4 7804   4.468   4.050   3.483  0.7520 -0.2394 -0.2499
    1SOL     OW 7805   0.018   4.295   3.359  0.1016 -0.3184 -0.2758
    1SOL    HW2 7806  -0.062   4.328   3.400  0.3468 -0.5700  0.4203
    1SOL    HW3 7807   0.088   4.323   3.419  0.2740 -2.4651  0.5425
    1SOL    MW4 7808   0.017   4.303   3.372  0.1567 -0.6351 -0.0761
    1SOL     OW 7809   0.195   4.441   3.522 -0.0593 -0.2156  0.1689
    1SOL    HW2 7810   0.200   4.410   3.613 -0.2969 -1.7041 -0.2968
    1SOL    HW3 7811   0.270   4.399   3.479 -0.0572  0.3364 -0.3633
    1SOL    MW4 7812   0.206   4.431   3.529 -0.0904 -0.3386  0.0372
    1SOL     OW 7813   0.620   0.014   3.366 -0.0332  0.4440  0.0375
    1SOL    HW2 7814   0.703   0.041   3.406 -0.4960  0.3500  1.0796
    1SOL    HW3 7815   0.640   0.008   3.273  0.9775  1.0145  0.2010
    1SOL    MW4 7816   0.634   0.017   3.359  0.0391  0.5069  0.1965
    1SOL     OW 7817   0.410   0.168   3.471 -0.1422  0.2523  0.0971
    1SOL    HW2 7818   0.430   0.171   3.564 -1.1760  0.3416  0.3246
    1SOL    HW3 7819   0.480   0.116   3.433  0.2468  0.1553  0.9370
    1SOL    MW4 7820   0.422   0.162   3.478 -0.2272  0.2513  0.2379
    1SOL     OW 7821   0.424   0.423   3.342  0.0719  0.3635  0.1623
    1SOL    HW2 7822   0.501   0.467   3.377  1.1437 -0.6852 -0.8480
    1SOL    HW3 7823   0.429   0.334   3.378 -0.7509  0.3265  0.1988
    1SOL    MW4 7824   0.435   0.417   3.352  0.1048  0.2203  0.0336
    1SOL     OW 7825   0.651   0.529   3.470  0.0563 -0.0237 -0.8559
    1SOL    HW2 7826   0.637   0.514   3.563 -1.0713  0.7007 -0.8931
    1SOL    HW3 7827   0.732   0.483   3.450 -0.2651 -1.1053  0.2514
    1SOL    MW4 7828   0.660   0.521   3.479 -0.1349 -0.0709 -0.7148
    1SOL     OW 7829   0.669   0.776   3.345 -0.3065 -0.2323  0.6141
    1SOL    HW2 7830   0.595   0.821   3.385 -0.3582 -1.0910  1.5167
    1SOL    HW3 7831   0.660   0.685   3.375 -1.3373 -1.3097 -2.7741
    1SOL    MW4 7832   0.658   0.770   3.354 -0.4493 -0.4877  0.2863
    1SOL     OW 7833   0.464   0.894   3.480  0.0702  0.0047  0.1535
    1SOL    HW2 7834   0.483   0.890   3.574  1.6023  0.7012 -0.1078
    1SOL    HW3 7835   0.438   0.985   3.465 -0.8858 -0.2821  0.0136
    1SOL    MW4 7836   0.463   0.905   3.491  0.1462  0.0587  0.1004
    1SOL     OW 7837   0.399   1.168   3.375  0.0104  0.3176  0.0238
    1SOL    HW2 7838   0.465   1.230   3.406 -0.1812  1.0083 -0.9296
    1SOL    HW3 7839   0.421   1.153   3.284 -1.0407  0.4169 -0.2571
    1SOL    MW4 7840   0.410   1.175   3.367 -0.1535  0.4216 -0.1388
    1SOL     OW 7841   0.631   1.338   3.459 -0.0225  0.4442  0.0255
    1SOL    HW2 7842   0.709   1.298   3.420 -0.4382  0.6500 -1.0442
    1SOL    HW3 7843   0.634   1.429   3.429  0.1762  0.8541  1.2952
    1SOL    MW4 7844   0.642   1.345   3.450 -0.0511  0.5255  0.0520
    1SOL     OW 7845   0.659   1.607   3.352  0.0388 -0.1125 -0.2646
    1SOL    HW2 7846   0.731   1.634   3.408 -0.1870  0.4662 -0.2499
    1SOL    HW3 7847   0.580   1.636   3.397 -0.2364 -1.1367 -0.0606
    1SOL    MW4 7848   0.658   1.614   3.365 -0.0272 -0.1714 -0.2358
    1SOL     OW 7849   0.415   1.707   3.487  0.2017  0.4427  0.5339
    1SOL    HW2 7850   0.396   1.696   3.580 -3.3042  1.7824  0.0173
    1SOL    HW3 7851   0.437   1.799   3.477 -0.8762  0.6276 -0.1966
    1SOL    MW4 7852   0.416   1.718   3.498 -0.4030  0.6438  0.3693
    1SOL     OW 7853   0.468   1.960   3.361 -0.2016 -0.4909 -0.2603
    1SOL    HW2 7854   0.391   2.003   3.398  1.0927  1.4054  0.2605
    1SOL    HW3 7855   0.445   1.942   3.270 -1.7200 -1.0825  0.2307
    1SOL    MW4 7856   0.455   1.963   3.354 -0.2311 -0.3189 -0.1271
    1SOL     OW 7857   0.727   2.049   3.466 -0.2560 -0.7391  0.2587
    1SOL    HW2 7858   0.700   2.041   3.557 -0.8678 -0.8535  0.0698
    1SOL    HW3 7859   0.653   2.015   3.416 -0.0907 -0.2879 -0.2964
    1SOL    MW4 7860   0.714   2.044   3.471 -0.3150 -0.6945  0.1607
    1SOL     OW 7861   0.710   2.297   3.342 -0.0176  0.6050  0.4917
    1SOL    HW2 7862   0.793   2.335   3.372  2.0126 -2.0329 -1.5177
    1SOL    HW3 7863   0.710   2.208   3.377 -2.4122  0.8121  1.1165
    1SOL    MW4 7864   0.721   2.290   3.350 -0.0657  0.2844  0.3090
    1SOL     OW 7865   0.477   2.426   3.470  0.3767  0.2186  0.6749
    1SOL    HW2 7866   0.556   2.408   3.419 -0.5297 -1.1335 -0.3086
    1SOL    HW3 7867   0.406   2.395   3.414 -0.8995  1.9265  1.3114
    1SOL    MW4 7868   0.478   2.419   3.456  0.0887  0.2656  0.6289
    1SOL     OW 7869   0.402   2.669   3.394 -0.0976  0.3650 -0.4879
    1SOL    HW2 7870   0.415   2.578   3.421  0.6373  0.4866 -0.4327
    1SOL    HW3 7871   0.422   2.669   3.300  2.2840  0.9443 -0.0120
    1SOL    MW4 7872   0.406   2.657   3.385  0.3136  0.4575 -0.4175
    1SOL     OW 7873   0.644   2.788   3.485 -0.0726  0.1606 -0.8347
    1SOL    HW2 7874   0.713   2.738   3.443 -0.8143 -2.2142  0.6818
    1SOL    HW3 7875   0.564   2.738   3.467 -0.6122 -0.1165  2.0178
    1SOL    MW4 7876   0.642   2.775   3.477 -0.2416 -0.1893 -0.2584
    1SOL     OW 7877   0.657   3.063   3.397 -0.2693 -0.2099 -0.0755
    1SOL    HW2 7878   0.615   3.129   3.451  1.3130 -0.0901  1.0567
    1SOL    HW3 7879   0.633   2.980   3.438 -1.6065 -0.3055 -1.0305
    1SOL    MW4 7880   0.648   3.061   3.410 -0.2369 -0.2069 -0.0517
    1SOL     OW 7881   0.468   3.237   3.510  0.2622  0.3330 -0.0213
    1SOL    HW2 7882   0.437   3.243   3.601  0.1763  1.4728 -0.1237
    1SOL    HW3 7883   0.393   3.203   3.461 -0.1627  1.0996  0.0912
    1SOL    MW4 7884   0.454   3.233   3.516  0.1948  0.5844 -0.0200
    1SOL     OW 7885   0.451   3.485   3.386 -0.1744  0.4802  0.1345
    1SOL    HW2 7886   0.455   3.402   3.433 -2.1270 -1.4152 -2.8807
    1SOL    HW3 7887   0.376   3.531   3.426 -1.1205 -0.6244 -0.3344
    1SOL    MW4 7888   0.441   3.480   3.398 -0.5569  0.0844 -0.3250
    1SOL     OW 7889   0.694   3.623   3.478  0.2714  0.4602 -0.0287
    1SOL    HW2 7890   0.761   3.572   3.433  0.5905  1.2950 -0.5178
    1SOL    HW3 7891   0.612   3.579   3.456  0.4687  0.5863 -1.0459
    1SOL    MW4 7892   0.692   3.610   3.470  0.3395  0.5867 -0.2275
    1SOL     OW 7893   0.645   3.880   3.366  0.4737  0.1475 -0.0125
    1SOL    HW2 7894   0.578   3.924   3.418  0.8835  0.6336  0.1046
    1SOL    HW3 7895   0.652   3.793   3.406  1.6429  0.9255  1.5173
    1SOL    MW4 7896   0.637   3.874   3.378  0.6821  0.3145  0.2048
    1SOL     OW 7897   0.435   4.018   3.494 -0.3126  0.2139 -0.2647
    1SOL    HW2 7898   0.426   4.108   3.462 -0.7069 -0.4842 -2.1453
    1SOL    HW3 7899   0.355   3.974   3.464 -0.8005 -0.4098  1.8887
    1SOL    MW4 7900   0.423   4.024   3.486 -0.4290  0.0396 -0.2289
    1SOL     OW 7901   0.416   4.320   3.413 -0.2446  0.4208 -0.4447
    1SOL    HW2 7902   0.508   4.340   3.431  0.0456 -1.6631  0.5542
    1SOL    HW3 7903   0.409   4.323   3.317  0.7368  1.1551 -0.4938
    1SOL    MW4 7904   0.427   4.323   3.402 -0.0768  0.2427 -0.3192
    1SOL     OW 7905   0.655   4.426   3.487 -0.1839 -0.3892  0.0710
    1SOL    HW2 7906   0.727   4.405   3.427 -0.2092  0.0927 -0.1376
    1SOL    HW3 7907   0.623   4.511   3.456 -1.2874 -0.9144 -0.2611
    1SOL    MW4 7908   0.660   4.435   3.475 -0.3328 -0.3948 -0.0002
    1SOL     OW 7909   1.121   4.636   3.381 -0.3418 -0.2310  0.3166
    1SOL    HW2 7910   1.192   4.698   3.401 -0.0145 -0.8060  0.9813
    1SOL    HW3 7911   1.117   4.635   3.285 -0.1264  0.5609  0.2917
    1SOL    MW4 7912   1.130   4.644   3.371 -0.2701 -0.2024  0.4008
    1SOL     OW 7913   0.872   0.109   3.453  0.2289 -0.2635 -0.0166
    1SOL    HW2 7914   0.858   0.104   3.548 -0.6959  1.3993 -0.0465
    1SOL    HW3 7915   0.955   0.063   3.439  0.5985 -0.1562  1.6656
    1SOL    MW4 7916   0.881   0.103   3.464  0.1556 -0.0300  0.2017
    1SOL     OW 7917   0.866   0.387   3.374  0.6382 -0.1940  0.2556
    1SOL    HW2 7918   0.946   0.422   3.414  0.7991  0.8264 -0.9177
    1SOL    HW3 7919   0.865   0.295   3.400  2.1527 -0.1933  0.3909
    1SOL    MW4 7920   0.877   0.380   3.382  0.8593 -0.0592  0.1185
    1SOL     OW 7921   1.096   0.490   3.481 -0.0018  0.7623  0.5740
    1SOL    HW2 7922   1.076   0.498   3.575  0.5841  1.9161  0.6124
    1SOL    HW3 7923   1.084   0.578   3.447 -3.7324 -0.3123 -1.1737
    1SOL    MW4 7924   1.092   0.503   3.489 -0.4168  0.7728  0.3486
    1SOL     OW 7925   1.089   0.765   3.396  0.5041  0.2646 -0.0873
    1SOL    HW2 7926   1.170   0.812   3.415  0.1817  1.3291 -1.2754
    1SOL    HW3 7927   1.019   0.823   3.429  0.1040  0.6870 -1.6107
    1SOL    MW4 7928   1.090   0.779   3.403  0.4089  0.4607 -0.4449
    1SOL     OW 7929   0.864   0.906   3.480 -0.1669  0.3641 -0.0350
    1SOL    HW2 7930   0.846   0.998   3.461 -2.0119 -0.0647 -0.4732
    1SOL    HW3 7931   0.791   0.858   3.439  0.7178 -1.2820  0.2558
    1SOL    MW4 7932   0.852   0.912   3.472 -0.2936  0.0903 -0.0544
    1SOL     OW 7933   0.845   1.174   3.403  0.1692  0.2107 -0.2805
    1SOL    HW2 7934   0.923   1.220   3.433 -0.7472  0.8936  1.1140
    1SOL    HW3 7935   0.858   1.163   3.309  2.0064  0.1814 -0.0487
    1SOL    MW4 7936   0.857   1.178   3.395  0.2908  0.2970 -0.0660
    1SOL     OW 7937   1.082   1.307   3.485 -0.0218 -0.2832  0.0168
    1SOL    HW2 7938   1.081   1.295   3.580  0.4561 -0.5839 -0.0128
    1SOL    HW3 7939   1.108   1.398   3.473 -0.1252 -0.2320  0.1755
    1SOL    MW4 7940   1.085   1.317   3.496  0.0278 -0.3163  0.0336
    1SOL     OW 7941   1.150   1.558   3.415  0.2583  0.2502  0.5304
    1SOL    HW2 7942   1.231   1.608   3.421  0.2664  0.5441 -1.6150
    1SOL    HW3 7943   1.136   1.547   3.321 -1.0983 -1.5772  0.9303
    1SOL    MW4 7944   1.159   1.563   3.403  0.0803  0.0479  0.3002
    1SOL     OW 7945   0.899   1.673   3.487  0.1138  0.0384  0.0009
    1SOL    HW2 7946   0.909   1.758   3.444  0.5469 -1.1001 -2.2639
    1SOL    HW3 7947   0.984   1.630   3.475 -0.0109 -0.6037  1.3559
    1SOL    MW4 7948   0.911   1.678   3.480  0.1546 -0.1965 -0.1192
    1SOL     OW 7949   0.938   1.914   3.361  0.0425 -0.0228  0.0969
    1SOL    HW2 7950   1.017   1.938   3.410  0.2254 -1.1573  0.3740
    1SOL    HW3 7951   0.870   1.971   3.397  0.8272  1.3102 -0.4906
    1SOL    MW4 7952   0.940   1.924   3.373  0.1702  0.0033  0.0558
    1SOL     OW 7953   1.155   2.038   3.491  0.2305  0.1106  0.5319
    1SOL    HW2 7954   1.236   2.019   3.444  0.6797  1.1953  0.8565
    1SOL    HW3 7955   1.134   2.128   3.468 -1.3745 -0.4554 -0.2483
    1SOL    MW4 7956   1.163   2.047   3.482  0.0780  0.1793  0.4716
    1SOL     OW 7957   1.136   2.306   3.381 -0.2740 -0.3603  0.3518
    1SOL    HW2 7958   1.202   2.370   3.408  0.6872 -1.0469 -0.3570
    1SOL    HW3 7959   1.131   2.315   3.286 -1.2563 -0.2648  0.4050
    1SOL    MW4 7960   1.144   2.316   3.372 -0.2767 -0.4382  0.2651
    1SOL     OW 7961   0.894   2.450   3.475 -0.3189  0.0260  0.1127
    1SOL    HW2 7962   0.872   2.437   3.567 -2.4570 -0.4629 -0.4478
    1SOL    HW3 7963   0.970   2.394   3.460 -0.2290 -0.2087  1.4734
    1SOL    MW4 7964   0.901   2.441   3.485 -0.5892 -0.0696  0.2184
    1SOL     OW 7965   0.873   2.703   3.367  0.2873 -0.2020  0.2816
    1SOL    HW2 7966   0.950   2.747   3.405 -1.0951  1.0252  1.7318
    1SOL    HW3 7967   0.883   2.611   3.392  1.0195  0.0433  0.9116
    1SOL    MW4 7968   0.885   2.697   3.376  0.2015 -0.0076  0.5560
    1SOL     OW 7969   1.086   2.836   3.467  0.4654 -0.6085  0.3616
    1SOL    HW2 7970   1.076   2.865   3.558  0.6175 -0.3381  0.2927
    1SOL    HW3 7971   1.175   2.803   3.462  0.1994 -1.3483  0.5119
    1SOL    MW4 7972   1.096   2.836   3.478  0.4505 -0.6704  0.3722
    1SOL     OW 7973   1.130   3.106   3.389 -0.6178 -0.0053  0.3586
    1SOL    HW2 7974   1.127   3.013   3.409  0.1295  0.1309  1.1578
    1SOL    HW3 7975   1.143   3.110   3.295  1.2022 -0.7432  0.5653
    1SOL    MW4 7976   1.131   3.094   3.379 -0.2789 -0.0849  0.4911
    1SOL     OW 7977   0.882   3.189   3.487  0.0025  0.2358 -0.1010
    1SOL    HW2 7978   0.966   3.165   3.448  0.0766 -0.2699  0.3660
    1SOL    HW3 7979   0.818   3.131   3.446  0.0277 -0.0482  0.2567
    1SOL    MW4 7980   0.885   3.178   3.476  0.0156  0.1318  0.0076
    1SOL     OW 7981   0.905   3.447   3.401  0.1625  0.8201 -0.2978
    1SOL    HW2 7982   0.895   3.353   3.419  0.1912  0.5634 -1.5731
    1SOL    HW3 7983   0.900   3.454   3.305 -0.4461  2.1957 -0.1817
    1SOL    MW4 7984   0.903   3.435   3.391  0.0860  0.9675 -0.4508
    1SOL     OW 7985   1.136   3.590   3.504 -0.1140  0.0024  0.2163
    1SOL    HW2 7986   1.118   3.607   3.597  1.1913 -1.4196  0.7550
    1SOL    HW3 7987   1.056   3.548   3.472 -0.3543 -0.0408  0.8513
    1SOL    MW4 7988   1.123   3.587   3.512  0.0265 -0.1907  0.3712
    1SOL     OW 7989   1.103   3.850   3.412 -0.3358 -0.4761  0.0907
    1SOL    HW2 7990   1.184   3.894   3.437 -0.7417  0.7101 -0.6270
    1SOL    HW3 7991   1.116   3.759   3.439  0.5476  0.0604  1.5239
    1SOL    MW4 7992   1.116   3.844   3.419 -0.2729 -0.2489  0.1850
    1SOL     OW 7993   0.871   4.021   3.455  0.6547 -0.4832  0.8537
    1SOL    HW2 7994   0.937   3.951   3.445  1.0185  0.1634 -1.6603
    1SOL    HW3 7995   0.787   3.977   3.443  0.9531 -0.2725 -2.4850
    1SOL    MW4 7996   0.869   4.006   3.452  0.7421 -0.3700  0.0815
    1SOL     OW 7997   0.892   4.278   3.377  0.3612  0.0247 -0.4285
    1SOL    HW2 7998   0.887   4.187   3.408 -0.5189  0.2951  0.2457
    1SOL    HW3 7999   0.920   4.270   3.286 -0.8068 -0.9980 -0.7196
    1SOL    MW4 8000   0.895   4.265   3.369  0.0910 -0.0744 -0.3777
    1SOL     OW 8001   1.111   4.383   3.482 -0.1586 -0.2071  0.0475
    1SOL    HW2 8002   1.035   4.343   3.438 -1.4609  0.9154  1.2393
    1SOL    HW3 8003   1.115   4.472   3.447  0.3795 -0.1410  0.2707
    1SOL    MW4 8004   1.101   4.389   3.471 -0.2593 -0.0501  0.2344
    1SOL     OW 8005   1.575   4.639   3.379  0.6919  0.4304  0.0526
    1SOL    HW2 8006   1.562   4.549   3.408 -1.3307  0.2505 -1.3271
    1SOL    HW3 8007   1.496   4.685   3.405  1.2520  1.5676 -0.2171
    1SOL    MW4 8008   1.563   4.633   3.386  0.4989  0.5565 -0.1652
    1SOL     OW 8009   1.338   0.130   3.438 -0.6095 -0.0897  0.3752
    1SOL    HW2 8010   1.348   0.131   3.533  2.9353 -0.6694  0.0678
    1SOL    HW3 8011   1.334   0.223   3.413  0.6674  0.1351  0.9392
    1SOL    MW4 8012   1.339   0.142   3.447  0.0266 -0.1365  0.4091
    1SOL     OW 8013   1.343   0.401   3.371 -0.3497 -0.1969 -0.2192
    1SOL    HW2 8014   1.411   0.458   3.406 -0.1603 -0.7048  0.2406
    1SOL    HW3 8015   1.261   0.447   3.388 -0.1504  0.2618 -0.4818
    1SOL    MW4 8016   1.341   0.414   3.378 -0.2983 -0.2034 -0.1934
    1SOL     OW 8017   1.572   0.532   3.478  0.0241  0.1400 -0.2398
    1SOL    HW2 8018   1.566   0.522   3.573  2.0320  2.7990  0.2393
    1SOL    HW3 8019   1.645   0.476   3.452 -0.6207 -0.7029 -0.2505
    1SOL    MW4 8020   1.581   0.524   3.487  0.2040  0.3797 -0.1781
    1SOL     OW 8021   1.548   0.778   3.370 -0.2286 -0.0304  0.1264
    1SOL    HW2 8022   1.459   0.810   3.386 -0.0200  0.1593  0.9179
    1SOL    HW3 8023   1.552   0.695   3.417  0.2685  0.3450  0.7436
    1SOL    MW4 8024   1.537   0.771   3.378 -0.1353  0.0442  0.3123
    1SOL     OW 8025   1.316   0.906   3.448 -0.5609  0.0479  0.1017
    1SOL    HW2 8026   1.324   0.914   3.543 -2.2725  2.0321  0.0972
    1SOL    HW3 8027   1.333   0.994   3.415  1.6869 -0.9661 -1.5801
    1SOL    MW4 8028   1.320   0.918   3.457 -0.4901  0.1758 -0.1204
    1SOL     OW 8029   1.329   1.167   3.374 -0.0173 -0.3561  0.0494
    1SOL    HW2 8030   1.408   1.198   3.419  0.1599  0.9689 -1.1369
    1SOL    HW3 8031   1.258   1.220   3.412 -0.0236 -0.0361 -0.4012
    1SOL    MW4 8032   1.330   1.178   3.385  0.0052 -0.1391 -0.1664
    1SOL     OW 8033   1.550   1.274   3.501  0.0274  0.0387  0.0406
    1SOL    HW2 8034   1.564   1.263   3.595  1.0076 -0.9286 -0.2151
    1SOL    HW3 8035   1.627   1.235   3.460  0.3195  1.8001 -1.1259
    1SOL    MW4 8036   1.562   1.267   3.508  0.1953  0.1435 -0.1471
    1SOL     OW 8037   1.586   1.547   3.427  0.0694 -0.0496  0.2831
    1SOL    HW2 8038   1.583   1.454   3.447  1.3273 -0.6309 -2.0755
    1SOL    HW3 8039   1.588   1.551   3.331  1.8261  2.3264  0.3748
    1SOL    MW4 8040   1.586   1.536   3.417  0.4672  0.1870 -0.0160
    1SOL     OW 8041   1.376   1.717   3.456 -0.0067 -0.4783  0.7261
    1SOL    HW2 8042   1.357   1.717   3.550 -0.2506 -1.9439  0.7010
    1SOL    HW3 8043   1.446   1.652   3.447 -1.0836 -1.5392 -0.2888
    1SOL    MW4 8044   1.383   1.708   3.467 -0.1810 -0.8116  0.5887
    1SOL     OW 8045   1.370   1.971   3.321  0.1944 -0.5685  0.5064
    1SOL    HW2 8046   1.439   2.020   3.365  0.3606  0.0018 -0.3774
    1SOL    HW3 8047   1.374   1.884   3.360 -0.1431  0.1268  2.1316
    1SOL    MW4 8048   1.380   1.966   3.332  0.1718 -0.4015  0.6042
    1SOL     OW 8049   1.570   2.077   3.519 -0.1611 -0.1774  0.0027
    1SOL    HW2 8050   1.659   2.049   3.499 -0.1129  0.2928 -0.4439
    1SOL    HW3 8051   1.557   2.157   3.467 -0.4490  0.3842  0.9105
    1SOL    MW4 8052   1.580   2.084   3.510 -0.1929 -0.0415  0.0637
    1SOL     OW 8053   1.547   2.306   3.370 -0.0624  0.4424 -0.0622
    1SOL    HW2 8054   1.479   2.369   3.392 -1.7706 -0.9888 -1.1599
    1SOL    HW3 8055   1.569   2.324   3.279 -0.0033 -0.0527 -0.1490
    1SOL    MW4 8056   1.541   2.316   3.361 -0.2800  0.1881 -0.2184
    1SOL     OW 8057   1.331   2.477   3.451  0.2188 -0.2219 -0.1792
    1SOL    HW2 8058   1.337   2.473   3.546 -0.1044 -0.1824 -0.1572
    1SOL    HW3 8059   1.335   2.571   3.431 -0.0309 -0.2115 -0.1831
    1SOL    MW4 8060   1.332   2.489   3.461  0.1432 -0.2153 -0.1769
    1SOL     OW 8061   1.344   2.754   3.404  0.2938 -0.1849 -0.3146
    1SOL    HW2 8062   1.428   2.779   3.441  0.2313  0.1723 -0.4137
    1SOL    HW3 8063   1.359   2.752   3.310  0.3292 -0.6360 -0.3008
    1SOL    MW4 8064   1.357   2.757   3.397  0.2903 -0.1972 -0.3259
    1SOL     OW 8065   1.592   2.834   3.534  0.3596  0.1028 -0.4199
    1SOL    HW2 8066   1.647   2.778   3.479 -1.3527  0.1648 -2.2246
    1SOL    HW3 8067   1.587   2.917   3.488 -1.3581  0.0547 -0.3582
    1SOL    MW4 8068   1.599   2.838   3.521 -0.0929  0.1047 -0.6499
    1SOL     OW 8069   1.564   3.065   3.403 -0.3171 -0.0573 -0.1967
    1SOL    HW2 8070   1.646   3.096   3.441 -0.3167 -0.3842  0.0706
    1SOL    HW3 8071   1.496   3.097   3.462 -0.3862  0.2445 -0.4378
    1SOL    MW4 8072   1.566   3.073   3.416 -0.3263 -0.0608 -0.1931
    1SOL     OW 8073   1.340   3.203   3.535 -0.2105  0.2403 -0.0096
    1SOL    HW2 8074   1.324   3.202   3.629 -0.8057  0.8691 -0.0986
    1SOL    HW3 8075   1.257   3.176   3.495  0.0549 -0.0847 -0.3526
    1SOL    MW4 8076   1.327   3.199   3.542 -0.2540  0.2804 -0.0663
    1SOL     OW 8077   1.388   3.456   3.416 -0.6386 -0.0204  0.5155
    1SOL    HW2 8078   1.390   3.368   3.455  0.2037 -0.3160 -0.1915
    1SOL    HW3 8079   1.306   3.494   3.447 -1.6810 -1.5795 -0.3417
    1SOL    MW4 8080   1.378   3.449   3.425 -0.6649 -0.2651  0.3090
    1SOL     OW 8081   1.585   3.633   3.497 -0.0348 -0.1873  0.3746
    1SOL    HW2 8082   1.561   3.640   3.590  0.3701  0.1412  0.4578
    1SOL    HW3 8083   1.531   3.562   3.464 -0.4030 -0.1068  0.7931
    1SOL    MW4 8084   1.575   3.625   3.505 -0.0300 -0.1335  0.4408
    1SOL     OW 8085   1.541   3.890   3.403  0.1182  0.0096  0.3965
    1SOL    HW2 8086   1.531   3.798   3.427 -1.9682  0.0891 -0.0888
    1SOL    HW3 8087   1.536   3.891   3.307  2.0985  0.4214  0.2762
    1SOL    MW4 8088   1.539   3.878   3.393  0.1042  0.0746  0.3166
    1SOL     OW 8089   1.317   4.000   3.507 -0.0304  0.1754  0.0549
    1SOL    HW2 8090   1.301   4.089   3.475 -1.3507  0.3655  1.1849
    1SOL    HW3 8091   1.397   3.972   3.463 -0.4740  1.3324 -1.5194
    1SOL    MW4 8092   1.325   4.008   3.497 -0.2632  0.3529 -0.0036
    1SOL     OW 8093   1.328   4.248   3.369  0.2057  0.4421 -0.3905
    1SOL    HW2 8094   1.265   4.309   3.410 -1.2878 -0.3944 -1.3880
    1SOL    HW3 8095   1.326   4.271   3.276 -0.4157 -1.1539 -0.7856
    1SOL    MW4 8096   1.319   4.259   3.362 -0.0734  0.1211 -0.5741
    1SOL     OW 8097   1.570   4.382   3.445 -0.1196  0.1772 -0.3448
    1SOL    HW2 8098   1.645   4.334   3.410 -1.0285 -0.5920 -1.2566
    1SOL    HW3 8099   1.494   4.342   3.404 -0.9917  1.4726 -0.0383
    1SOL    MW4 8100   1.570   4.370   3.435 -0.3546  0.2465 -0.4246
    1SOL     OW 8101   2.056   4.640   3.397  0.3121  0.3517  0.1503
    1SOL    HW2 8102   2.126   4.689   3.441 -0.3352  1.6574 -0.2213
    1SOL    HW3 8103   1.976   4.685   3.425 -0.2955 -0.5047 -0.2171
    1SOL    MW4 8104   2.055   4.653   3.407  0.1464  0.4110  0.0529
    1SOL     OW 8105   1.819   0.109   3.475 -0.1525  0.4059  0.1648
    1SOL    HW2 8106   1.831   0.108   3.570  1.2439 -2.3654  0.0154
    1SOL    HW3 8107   1.753   0.041   3.459  1.3366 -0.8019 -1.0030
    1SOL    MW4 8108   1.811   0.100   3.486  0.2283 -0.1191 -0.0088
    1SOL     OW 8109   1.791   0.368   3.419 -0.4240  0.0088  0.1343
    1SOL    HW2 8110   1.809   0.277   3.438 -0.0569  0.0345 -0.0954
    1SOL    HW3 8111   1.801   0.375   3.324 -0.5391  0.2690  0.1402
    1SOL    MW4 8112   1.794   0.357   3.409 -0.3906  0.0465  0.1044
    1SOL     OW 8113   2.019   0.474   3.502  0.1169  0.4328  0.0080
    1SOL    HW2 8114   2.017   0.563   3.467 -0.3897  0.5847  0.4133
    1SOL    HW3 8115   1.936   0.436   3.474 -0.6357  0.8026  1.6773
    1SOL    MW4 8116   2.008   0.480   3.494 -0.0491  0.5016  0.2820
    1SOL     OW 8117   1.995   0.748   3.457  0.3064  0.2968 -0.0530
    1SOL    HW2 8118   2.076   0.790   3.483  1.3283 -1.5210 -0.2381
    1SOL    HW3 8119   1.984   0.773   3.365  1.2779 -0.4131 -0.3651
    1SOL    MW4 8120   2.004   0.757   3.448  0.5693 -0.0366 -0.1185
    1SOL     OW 8121   1.736   0.916   3.491  0.2271  0.1899 -0.2806
    1SOL    HW2 8122   1.808   0.856   3.471  1.0211  1.1686 -0.4273
    1SOL    HW3 8123   1.659   0.878   3.449  0.3587 -1.5900  1.0047
    1SOL    MW4 8124   1.735   0.903   3.483  0.3492  0.0842 -0.1302
    1SOL     OW 8125   1.795   1.169   3.368  0.6245  0.1030  0.3267
    1SOL    HW2 8126   1.879   1.201   3.401  1.0358 -1.0780  0.4518
    1SOL    HW3 8127   1.784   1.083   3.410 -0.1983 -0.1556 -0.4100
    1SOL    MW4 8128   1.805   1.162   3.378  0.5701 -0.0869  0.2463
    1SOL     OW 8129   2.020   1.253   3.516 -0.1959 -0.3948  0.0777
    1SOL    HW2 8130   2.028   1.260   3.611  0.0205 -0.3222  0.0533
    1SOL    HW3 8131   2.017   1.343   3.485  1.9096 -0.3875 -0.1765
    1SOL    MW4 8132   2.021   1.266   3.524  0.1104 -0.3842  0.0408
    1SOL     OW 8133   2.015   1.532   3.416 -0.2178  0.2422 -0.0429
    1SOL    HW2 8134   2.082   1.586   3.458  0.3650 -0.2222 -0.3860
    1SOL    HW3 8135   1.933   1.563   3.455  0.0959  1.4467 -0.3033
    1SOL    MW4 8136   2.013   1.543   3.427 -0.0994  0.3397 -0.1223
    1SOL     OW 8137   1.796   1.677   3.541  0.4609  0.1267  0.0018
    1SOL    HW2 8138   1.813   1.762   3.501  0.7948 -0.0774 -0.2938
    1SOL    HW3 8139   1.716   1.646   3.499  0.2571  0.3572  0.2153
    1SOL    MW4 8140   1.788   1.684   3.530  0.4781  0.1302 -0.0091
    1SOL     OW 8141   1.824   1.942   3.444  0.0467 -0.7406 -0.0270
    1SOL    HW2 8142   1.906   1.985   3.471  1.1837 -3.6666  1.4800
    1SOL    HW3 8143   1.820   1.955   3.350  1.7124  0.3641  0.0268
    1SOL    MW4 8144   1.835   1.950   3.435  0.4165 -0.9810  0.1791
    1SOL     OW 8145   2.036   2.090   3.513 -0.0368 -0.3314 -0.6253
    1SOL    HW2 8146   2.096   2.034   3.463 -0.5634 -1.0088 -0.5120
    1SOL    HW3 8147   2.042   2.176   3.471  1.3375 -0.2867 -0.3415
    1SOL    MW4 8148   2.045   2.094   3.500  0.0753 -0.4148 -0.5729
    1SOL     OW 8149   2.011   2.352   3.392 -0.0298 -0.0301  0.0201
    1SOL    HW2 8150   2.095   2.374   3.432  0.0077 -0.2200  0.0460
    1SOL    HW3 8151   2.031   2.341   3.299  0.1140 -0.8044  0.1365
    1SOL    MW4 8152   2.025   2.353   3.385 -0.0057 -0.1574  0.0389
    1SOL     OW 8153   1.769   2.438   3.460 -0.0267 -0.3373 -0.2309
    1SOL    HW2 8154   1.849   2.396   3.428 -0.5104 -0.9835 -0.6091
    1SOL    HW3 8155   1.699   2.379   3.432 -0.8221  1.3224 -1.8502
    1SOL    MW4 8156   1.770   2.425   3.452 -0.1955 -0.2036 -0.4942
    1SOL     OW 8157   1.797   2.690   3.365  0.0841 -0.0816 -0.3022
    1SOL    HW2 8158   1.860   2.738   3.419  0.4977 -0.5948 -0.3221
    1SOL    HW3 8159   1.785   2.607   3.410 -1.5331  0.4978  0.3588
    1SOL    MW4 8160   1.804   2.686   3.378 -0.0747 -0.0730 -0.2179
    1SOL     OW 8161   1.995   2.848   3.481  0.0179  0.2704  0.2461
    1SOL    HW2 8162   1.988   2.869   3.574  1.4751 -0.1022  0.4576
    1SOL    HW3 8163   1.995   2.934   3.437  0.7468  0.5091  0.7032
    1SOL    MW4 8164   1.994   2.862   3.487  0.3062  0.2527  0.3345
    1SOL     OW 8165   2.007   3.097   3.394 -0.1895  0.3061  0.3599
    1SOL    HW2 8166   2.076   3.143   3.442 -0.0358  0.3625  0.0829
    1SOL    HW3 8167   1.926   3.136   3.426 -0.0286  1.4852 -0.6033
    1SOL    MW4 8168   2.005   3.108   3.405 -0.1478  0.4692  0.1962
    1SOL     OW 8169   1.775   3.217   3.510 -0.7488 -0.6306 -0.2322
    1SOL    HW2 8170   1.746   3.220   3.601 -0.5726  1.4601 -0.2229
    1SOL    HW3 8171   1.786   3.309   3.485 -0.6374 -1.1858 -2.3145
    1SOL    MW4 8172   1.773   3.230   3.518 -0.7108 -0.4280 -0.5054
    1SOL     OW 8173   1.798   3.478   3.408  0.3958 -0.1173 -0.2097
    1SOL    HW2 8174   1.734   3.543   3.438  0.4846  0.2142 -0.7416
    1SOL    HW3 8175   1.801   3.488   3.313 -0.4742 -1.7274 -0.4246
    1SOL    MW4 8176   1.790   3.488   3.400  0.2928 -0.2861 -0.3080
    1SOL     OW 8177   2.015   3.587   3.528 -0.1566 -0.1358 -0.1745
    1SOL    HW2 8178   2.092   3.539   3.498  0.0433  0.3029 -0.3647
    1SOL    HW3 8179   1.941   3.539   3.490  0.0582 -0.0980 -0.6423
    1SOL    MW4 8180   2.015   3.574   3.519 -0.1020 -0.0730 -0.2613
    1SOL     OW 8181   2.008   3.844   3.398 -0.1820  0.3695  0.1149
    1SOL    HW2 8182   1.937   3.898   3.434 -0.5906 -0.4653  0.5822
    1SOL    HW3 8183   2.007   3.765   3.451 -0.6168 -0.7718 -1.5705
    1SOL    MW4 8184   1.998   3.841   3.409 -0.2931  0.1090 -0.0455
    1SOL     OW 8185   1.790   3.999   3.472  0.2614  0.3524 -0.1919
    1SOL    HW2 8186   1.799   4.004   3.567  0.1693 -0.7279 -0.1248
    1SOL    HW3 8187   1.703   3.962   3.458  0.9441 -1.1054 -0.6657
    1SOL    MW4 8188   1.780   3.995   3.483  0.3394  0.0179 -0.2456
    1SOL     OW 8189   1.796   4.249   3.363  0.1323 -0.0113 -0.0370
    1SOL    HW2 8190   1.788   4.157   3.388 -1.0292  0.3411  0.9380
    1SOL    HW3 8191   1.798   4.248   3.267 -2.5312 -0.8637 -0.1076
    1SOL    MW4 8192   1.796   4.237   3.353 -0.3723 -0.0772  0.0825
    1SOL     OW 8193   2.029   4.373   3.455 -0.4222  0.4194  0.0121
    1SOL    HW2 8194   1.948   4.330   3.429 -0.7295  1.1342 -0.2153
    1SOL    HW3 8195   2.022   4.462   3.420  0.5080  0.4538 -0.1121
    1SOL    MW4 8196   2.018   4.379   3.447 -0.3400  0.5178 -0.0343
    1SOL     OW 8197   2.497   4.631   3.385 -0.0453  0.1626 -0.2209
    1SOL    HW2 8198   2.478   4.544   3.419  1.1185  0.1223  0.3523
    1SOL    HW3 8199   2.500   4.619   3.290 -1.0380 -0.1822 -0.2125
    1SOL    MW4 8200   2.495   4.618   3.377 -0.0226  0.1125 -0.1442
    1SOL     OW 8201   2.256   0.119   3.511 -0.0263  0.1831  0.1032
    1SOL    HW2 8202   2.243   0.207   3.476 -1.6104 -0.1386 -0.1680
    1SOL    HW3 8203   2.315   0.077   3.448 -0.7075  0.4757 -0.7404
    1SOL    MW4 8204   2.262   0.125   3.498 -0.3252  0.1792 -0.0439
    1SOL     OW 8205   2.245   0.372   3.386 -0.2802  0.4052 -0.0059
    1SOL    HW2 8206   2.326   0.402   3.426 -0.8150  2.2112 -0.2398
    1SOL    HW3 8207   2.176   0.406   3.443 -0.9183 -0.0309 -0.5095
    1SOL    MW4 8208   2.247   0.380   3.399 -0.4351  0.5859 -0.1032
    1SOL     OW 8209   2.464   0.490   3.512  0.8133 -0.6588 -0.4098
    1SOL    HW2 8210   2.528   0.439   3.464  1.6823  0.4884 -0.4971
    1SOL    HW3 8211   2.451   0.568   3.458  1.7693  0.6270  1.1802
    1SOL    MW4 8212   2.471   0.494   3.499  1.0540 -0.3378 -0.2115
    1SOL     OW 8213   2.449   0.741   3.387 -0.1719 -0.8182  0.0022
    1SOL    HW2 8214   2.538   0.767   3.410 -1.2877  1.2221  2.2535
    1SOL    HW3 8215   2.445   0.750   3.291  0.7259  3.5636  0.2783
    1SOL    MW4 8216   2.460   0.745   3.377 -0.2005  0.0291  0.3355
    1SOL     OW 8217   2.221   0.868   3.531  0.4692  0.3367 -0.2645
    1SOL    HW2 8218   2.209   0.953   3.489  2.1176  0.5784 -0.2557
    1SOL    HW3 8219   2.297   0.830   3.488  1.5352  0.1299  1.7628
    1SOL    MW4 8220   2.229   0.874   3.520  0.8273  0.3413  0.0041
    1SOL     OW 8221   2.212   1.108   3.411 -0.3981  0.6055 -0.2747
    1SOL    HW2 8222   2.296   1.149   3.429 -0.2347 -0.4862  1.5180
    1SOL    HW3 8223   2.148   1.165   3.453 -0.1850 -0.8214  2.0637
    1SOL    MW4 8224   2.214   1.121   3.419 -0.3486  0.2731  0.2704
    1SOL     OW 8225   2.416   1.267   3.483 -0.0069  0.2022  0.2156
    1SOL    HW2 8226   2.429   1.271   3.578  1.9809  0.8413 -0.0621
    1SOL    HW3 8227   2.492   1.220   3.450 -0.7854 -0.1923 -1.0550
    1SOL    MW4 8228   2.427   1.261   3.491  0.1526  0.2345  0.0112
    1SOL     OW 8229   2.381   1.541   3.400  0.3951 -0.0067  0.2447
    1SOL    HW2 8230   2.379   1.456   3.442  2.5818  0.1555  0.7646
    1SOL    HW3 8231   2.401   1.523   3.308 -1.3782 -0.1719 -0.1245
    1SOL    MW4 8232   2.384   1.528   3.393  0.4497 -0.0072  0.2646
    1SOL     OW 8233   2.196   1.695   3.558 -0.2104 -0.0190 -0.1105
    1SOL    HW2 8234   2.195   1.682   3.652 -1.1523 -2.3162 -0.4091
    1SOL    HW3 8235   2.274   1.649   3.528 -0.4410 -0.1237 -0.5568
    1SOL    MW4 8236   2.206   1.688   3.566 -0.3653 -0.3361 -0.2089
    1SOL     OW 8237   2.235   1.922   3.374  0.1125  0.3814  0.2045
    1SOL    HW2 8238   2.226   1.835   3.412 -0.5963  0.5528  0.4468
    1SOL    HW3 8239   2.228   1.908   3.279 -1.1852  0.2983  0.2941
    1SOL    MW4 8240   2.233   1.909   3.366 -0.1523  0.3930  0.2484
    1SOL     OW 8241   2.442   2.097   3.465  0.3780  0.5280  0.0041
    1SOL    HW2 8242   2.432   2.086   3.560  0.6163  1.4690  0.1441
    1SOL    HW3 8243   2.378   2.037   3.427 -0.7604  1.2084  0.7931
    1SOL    MW4 8244   2.432   2.088   3.472  0.2592  0.7422  0.1264
    1SOL     OW 8245   2.498   2.355   3.369 -0.4168  0.6001  0.0359
    1SOL    HW2 8246   2.572   2.385   3.421 -0.7874  0.8116  0.4446
    1SOL    HW3 8247   2.484   2.264   3.397  0.1756  0.3083 -0.5999
    1SOL    MW4 8248   2.506   2.347   3.380 -0.3877  0.5896  0.0057
    1SOL     OW 8249   2.257   2.435   3.489  0.5466  0.0260 -0.1089
    1SOL    HW2 8250   2.228   2.525   3.470  1.9393  0.2739 -1.1078
    1SOL    HW3 8251   2.346   2.430   3.455  0.7326 -1.5433  0.5505
    1SOL    MW4 8252   2.265   2.446   3.482  0.7548 -0.1483 -0.1538
    1SOL     OW 8253   2.231   2.707   3.439 -0.2283  0.3690 -0.2418
    1SOL    HW2 8254   2.144   2.744   3.454 -0.5655 -0.1586 -0.8381
    1SOL    HW3 8255   2.242   2.711   3.344 -0.1747 -0.8183 -0.2956
    1SOL    MW4 8256   2.221   2.712   3.428 -0.2656  0.1428 -0.3278
    1SOL     OW 8257   2.470   2.834   3.509  0.2400 -0.3273  0.2065
    1SOL    HW2 8258   2.478   2.923   3.473  0.8276 -0.1866  0.6790
    1SOL    HW3 8259   2.386   2.803   3.476  0.8336 -0.2602 -1.3948
    1SOL    MW4 8260   2.460   2.842   3.500  0.3963 -0.2999  0.0575
    1SOL     OW 8261   2.455   3.086   3.425 -0.0955 -0.4541  0.4374
    1SOL    HW2 8262   2.528   3.138   3.459 -1.2910  0.5823  1.4388
    1SOL    HW3 8263   2.471   3.081   3.331 -0.4674  2.5716  0.1625
    1SOL    MW4 8264   2.467   3.092   3.417 -0.3023  0.0815  0.5336
    1SOL     OW 8265   2.232   3.224   3.511  0.2929  0.4152  0.4266
    1SOL    HW2 8266   2.236   3.204   3.605 -1.5383 -0.8095  0.2640
    1SOL    HW3 8267   2.307   3.179   3.473 -0.8899 -1.9391  0.8214
    1SOL    MW4 8268   2.242   3.215   3.518 -0.1049 -0.0570  0.4573
    1SOL     OW 8269   2.251   3.479   3.424  0.4648 -0.4480  0.1494
    1SOL    HW2 8270   2.240   3.390   3.457  0.4287 -0.8760 -0.9834
    1SOL    HW3 8271   2.270   3.468   3.331 -0.7285  0.7727 -0.2607
    1SOL    MW4 8272   2.252   3.466   3.416  0.3026 -0.3436 -0.0541
    1SOL     OW 8273   2.449   3.600   3.558  0.0847  0.0370 -0.5605
    1SOL    HW2 8274   2.459   3.687   3.521  0.7271 -0.0614 -0.6321
    1SOL    HW3 8275   2.377   3.560   3.509 -0.2593  0.5461 -0.4764
    1SOL    MW4 8276   2.441   3.606   3.547  0.1240  0.0908 -0.5591
    1SOL     OW 8277   2.473   3.824   3.417 -0.7219 -0.2376 -0.0051
    1SOL    HW2 8278   2.551   3.876   3.437 -0.9025 -0.4361  1.2797
    1SOL    HW3 8279   2.400   3.882   3.438 -0.9225 -0.4438 -0.1356
    1SOL    MW4 8280   2.474   3.838   3.423 -0.7720 -0.2911  0.1471
    1SOL     OW 8281   2.250   3.959   3.499 -0.0593 -0.1863 -0.3839
    1SOL    HW2 8282   2.250   4.052   3.476  0.9885 -0.3089 -0.9459
    1SOL    HW3 8283   2.163   3.928   3.475 -0.7168  0.8400  0.6197
    1SOL    MW4 8284   2.239   3.967   3.493 -0.0079 -0.0670 -0.3257
    1SOL     OW 8285   2.280   4.234   3.420  0.0277 -0.4492 -0.0049
    1SOL    HW2 8286   2.197   4.276   3.443 -0.4347 -1.0214 -0.5932
    1SOL    HW3 8287   2.278   4.229   3.324  0.5618 -0.8335  0.0040
    1SOL    MW4 8288   2.269   4.239   3.410  0.0372 -0.5760 -0.0813
    1SOL     OW 8289   2.479   4.392   3.504 -0.3133 -0.6579 -0.2495
    1SOL    HW2 8290   2.454   4.390   3.597 -0.3171  0.2359 -0.2264
    1SOL    HW3 8291   2.408   4.347   3.459 -1.4703  0.9360 -0.0664
    1SOL    MW4 8292   2.466   4.386   3.510 -0.4666 -0.3300 -0.2222
    1SOL     OW 8293   2.922   4.630   3.409  0.2197  0.0254 -0.3756
    1SOL    HW2 8294   2.837   4.661   3.442  0.1942  1.0678 -1.3890
    1SOL    HW3 8295   2.916   4.639   3.314  1.4636  0.1041 -0.4551
    1SOL    MW4 8296   2.910   4.636   3.401  0.3805  0.1731 -0.5198
    1SOL     OW 8297   2.703   0.080   3.499  0.0153  0.2102  0.5951
    1SOL    HW2 8298   2.708   0.165   3.456 -0.6033 -0.3522 -0.6337
    1SOL    HW3 8299   2.630   0.036   3.455 -0.0885 -0.6979  1.6658
    1SOL    MW4 8300   2.694   0.085   3.487 -0.0801  0.0162  0.5741
    1SOL     OW 8301   2.678   0.352   3.385  0.0581 -0.3370 -0.3895
    1SOL    HW2 8302   2.760   0.381   3.422  0.4467 -0.8092 -0.8694
    1SOL    HW3 8303   2.682   0.379   3.293 -0.8245  0.6846 -0.1444
    1SOL    MW4 8304   2.689   0.359   3.377 -0.0072 -0.2645 -0.4206
    1SOL     OW 8305   2.922   0.472   3.513  0.5746 -0.4187 -0.1258
    1SOL    HW2 8306   2.912   0.481   3.608 -0.3901 -0.6117 -0.2049
    1SOL    HW3 8307   2.952   0.559   3.484 -0.0775 -0.0752  0.2277
    1SOL    MW4 8308   2.925   0.485   3.522  0.3610 -0.3988 -0.0894
    1SOL     OW 8309   2.936   0.740   3.397  0.0927  0.0182  0.3243
    1SOL    HW2 8310   3.003   0.792   3.441  1.0298 -0.8475 -0.0402
    1SOL    HW3 8311   2.853   0.781   3.422  0.8431  2.2844 -0.7450
    1SOL    MW4 8312   2.934   0.752   3.406  0.3154  0.2030  0.1352
    1SOL     OW 8313   2.688   0.861   3.491  0.4451  0.1630  0.0847
    1SOL    HW2 8314   2.677   0.864   3.586  1.9144 -1.9375  0.3442
    1SOL    HW3 8315   2.656   0.947   3.461  2.6622  2.0136  2.7497
    1SOL    MW4 8316   2.682   0.873   3.500  0.9315  0.1299  0.4706
    1SOL     OW 8317   2.638   1.115   3.384  0.1186 -0.0020 -0.1039
    1SOL    HW2 8318   2.705   1.163   3.434 -0.7272 -0.9143  1.9597
    1SOL    HW3 8319   2.674   1.109   3.295  1.8654  1.2698  0.4967
    1SOL    MW4 8320   2.652   1.121   3.379  0.2372  0.0454  0.2475
    1SOL     OW 8321   2.870   1.254   3.510 -0.0095 -0.0510 -0.6934
    1SOL    HW2 8322   2.895   1.244   3.602 -0.1471 -0.9134 -0.7514
    1SOL    HW3 8323   2.939   1.211   3.460 -0.7096 -0.9139 -0.9275
    1SOL    MW4 8324   2.882   1.247   3.515 -0.1202 -0.2787 -0.7322
    1SOL     OW 8325   2.851   1.514   3.379 -0.1612  0.6462 -0.5900
    1SOL    HW2 8326   2.784   1.560   3.429 -1.9685 -1.0346 -1.4077
    1SOL    HW3 8327   2.862   1.431   3.425 -0.4387 -0.1170 -1.8824
    1SOL    MW4 8328   2.844   1.509   3.392 -0.4363  0.3235 -0.8686
    1SOL     OW 8329   2.632   1.640   3.481  0.2329  0.0517  0.0727
    1SOL    HW2 8330   2.637   1.730   3.447 -0.0453 -0.5545 -1.6220
    1SOL    HW3 8331   2.543   1.612   3.463  0.5480 -0.8426 -0.1274
    1SOL    MW4 8332   2.621   1.649   3.474  0.2375 -0.1464 -0.1774
    1SOL     OW 8333   2.630   1.923   3.397  0.2015 -0.1524 -0.0251
    1SOL    HW2 8334   2.568   1.988   3.430 -0.6824 -0.9780 -0.0256
    1SOL    HW3 8335   2.635   1.940   3.303  0.7987  0.5999  0.1417
    1SOL    MW4 8336   2.623   1.933   3.389  0.1638 -0.1620 -0.0031
    1SOL     OW 8337   2.863   2.065   3.490  0.2213 -0.5609  0.0747
    1SOL    HW2 8338   2.869   2.062   3.585 -0.0568  0.9087  0.1538
    1SOL    HW3 8339   2.788   2.010   3.469  0.7045 -1.4468  0.6469
    1SOL    MW4 8340   2.854   2.057   3.499  0.2482 -0.4842  0.1607
    1SOL     OW 8341   2.931   2.330   3.416 -0.0494  1.0267  0.0690
    1SOL    HW2 8342   2.905   2.239   3.432  1.2549  0.6658  0.1975
    1SOL    HW3 8343   2.935   2.338   3.321  1.0834  0.5772  0.0721
    1SOL    MW4 8344   2.928   2.319   3.406  0.2718  0.9198  0.0863
    1SOL     OW 8345   2.708   2.446   3.514  0.4957 -0.8838  0.6162
    1SOL    HW2 8346   2.702   2.443   3.609  0.1762  0.0878  0.6242
    1SOL    HW3 8347   2.791   2.402   3.494  0.0640 -2.0108  1.2755
    1SOL    MW4 8348   2.718   2.439   3.524  0.3967 -0.9043  0.7045
    1SOL     OW 8349   2.707   2.706   3.416  0.1104 -0.1986 -0.2628
    1SOL    HW2 8350   2.716   2.621   3.459 -0.9360 -0.2516 -0.1487
    1SOL    HW3 8351   2.624   2.741   3.448 -0.2581  0.1465 -1.5648
    1SOL    MW4 8352   2.697   2.700   3.426 -0.0765 -0.1600 -0.4196
    1SOL     OW 8353   2.907   2.860   3.527 -0.1369 -0.5077  0.2955
    1SOL    HW2 8354   2.917   2.846   3.621 -1.9627  0.3680  0.6538
    1SOL    HW3 8355   2.831   2.806   3.504 -0.6756  0.5370 -0.3628
    1SOL    MW4 8356   2.898   2.851   3.537 -0.4487 -0.2542  0.2561
    1SOL     OW 8357   2.948   3.120   3.432  0.2148 -0.0685 -0.4469
    1SOL    HW2 8358   2.944   3.031   3.469  0.7344 -0.2885 -0.9178
    1SOL    HW3 8359   2.962   3.106   3.339 -0.3422  0.5040 -0.6190
    1SOL    MW4 8360   2.949   3.106   3.425  0.2100 -0.0217 -0.5319
    1SOL     OW 8361   2.681   3.213   3.514 -0.0317 -0.0551 -0.1599
    1SOL    HW2 8362   2.682   3.192   3.608  1.6599  1.7754  0.2597
    1SOL    HW3 8363   2.771   3.201   3.486 -0.3550  0.2960 -1.3481
    1SOL    MW4 8364   2.693   3.209   3.523  0.1488  0.2329 -0.2613
    1SOL     OW 8365   2.674   3.486   3.406  0.3693  0.2537 -0.2156
    1SOL    HW2 8366   2.669   3.396   3.440  0.9171  0.4115  0.2809
    1SOL    HW3 8367   2.593   3.527   3.434  0.9707  0.4931  1.2282
    1SOL    MW4 8368   2.663   3.479   3.414  0.5209  0.3061  0.0405
    1SOL     OW 8369   2.859   3.591   3.567 -0.1960  0.2012 -0.0193
    1SOL    HW2 8370   2.883   3.668   3.515 -0.5807  0.5602  0.3241
    1SOL    HW3 8371   2.788   3.550   3.517  1.0614 -0.8124 -0.9901
    1SOL    MW4 8372   2.853   3.596   3.554 -0.0808  0.1149 -0.1020
    1SOL     OW 8373   2.918   3.838   3.432  0.1620  0.0651  0.1296
    1SOL    HW2 8374   3.002   3.878   3.456  0.8287 -0.0716 -1.8686
    1SOL    HW3 8375   2.852   3.900   3.461  0.9932  0.6478  0.8052
    1SOL    MW4 8376   2.921   3.851   3.439  0.3595  0.1242 -0.0451
    1SOL     OW 8377   2.694   3.974   3.509  0.1549 -0.0387  0.3811
    1SOL    HW2 8378   2.691   3.975   3.605 -0.5007 -2.1139  0.4034
    1SOL    HW3 8379   2.691   4.067   3.485 -0.0962  0.5022  2.3489
    1SOL    MW4 8380   2.693   3.987   3.519  0.0353 -0.2413  0.6437
    1SOL     OW 8381   2.681   4.235   3.415 -0.3627 -0.2332 -0.3095
    1SOL    HW2 8382   2.760   4.275   3.450 -0.4902 -0.7997  0.6678
    1SOL    HW3 8383   2.610   4.270   3.470 -0.8056  0.3693 -1.2558
    1SOL    MW4 8384   2.682   4.245   3.427 -0.4377 -0.2284 -0.3052
    1SOL     OW 8385   2.899   4.366   3.516 -0.1543 -0.1795 -0.2834
    1SOL    HW2 8386   2.907   4.381   3.611 -1.2337 -0.3285 -0.1607
    1SOL    HW3 8387   2.907   4.453   3.478  0.8624 -0.1905 -0.0960
    1SOL    MW4 8388   2.901   4.380   3.524 -0.1624 -0.2007 -0.2425
    1SOL     OW 8389   3.366   4.633   3.430 -0.3430 -0.7883 -0.0023
    1SOL    HW2 8390   3.284   4.668   3.463  0.3161  1.4595 -0.6674
    1SOL    HW3 8391   3.345   4.602   3.342 -0.6356 -0.9059  0.1073
    1SOL    MW4 8392   3.353   4.633   3.423 -0.2947 -0.5072 -0.0753
    1SOL     OW 8393   3.140   0.087   3.514 -0.0552 -0.1803  0.2638
    1SOL    HW2 8394   3.143   0.179   3.488  0.2875 -0.2524  0.0527
    1SOL    HW3 8395   3.051   0.060   3.492 -1.2838  1.0046  3.4303
    1SOL    MW4 8396   3.129   0.096   3.507 -0.1721 -0.0335  0.6535
    1SOL     OW 8397   3.175   0.363   3.425 -0.4054 -0.7403 -0.1452
    1SOL    HW2 8398   3.092   0.399   3.457  0.0773 -0.9134  1.3544
    1SOL    HW3 8399   3.165   0.362   3.330 -2.1943 -0.9309  0.0186
    1SOL    MW4 8400   3.162   0.368   3.417 -0.5779 -0.7883  0.0741
    1SOL     OW 8401   3.368   0.544   3.521  0.6321  0.0302  0.5636
    1SOL    HW2 8402   3.362   0.538   3.616  0.9163 -1.0771  0.5174
    1SOL    HW3 8403   3.293   0.493   3.489  0.7329  0.1151  0.1916
    1SOL    MW4 8404   3.357   0.536   3.529  0.6828 -0.1047  0.5085
    1SOL     OW 8405   3.380   0.802   3.412 -0.3400 -0.6307 -0.4377
    1SOL    HW2 8406   3.464   0.840   3.437 -0.8661  1.5577 -1.8275
    1SOL    HW3 8407   3.384   0.712   3.443  2.5799 -0.6178 -0.6428
    1SOL    MW4 8408   3.391   0.795   3.420 -0.0241 -0.3403 -0.6480
    1SOL     OW 8409   3.127   0.890   3.520 -0.5226 -0.0203  0.3361
    1SOL    HW2 8410   3.110   0.973   3.475  0.4990 -0.8662 -1.6685
    1SOL    HW3 8411   3.217   0.868   3.498 -0.8104 -1.7094  0.7464
    1SOL    MW4 8412   3.136   0.898   3.511 -0.4261 -0.3548  0.1259
    1SOL     OW 8413   3.075   1.132   3.380  0.2093 -0.4161  0.0115
    1SOL    HW2 8414   3.141   1.166   3.441  0.2643  0.1521 -0.3596
    1SOL    HW3 8415   3.107   1.158   3.293 -0.4125 -0.2929 -0.1822
    1SOL    MW4 8416   3.088   1.140   3.377  0.1347 -0.3250 -0.0629
    1SOL     OW 8417   3.303   1.248   3.490  0.4866  0.2141  0.3363
    1SOL    HW2 8418   3.380   1.196   3.466  1.1388  0.5370  1.6874
    1SOL    HW3 8419   3.325   1.337   3.462 -0.0090  0.0456 -0.6084
    1SOL    MW4 8420   3.316   1.253   3.483  0.5071  0.2345  0.3901
    1SOL     OW 8421   3.300   1.516   3.392  0.0225  0.8713  0.0615
    1SOL    HW2 8422   3.366   1.582   3.414  0.2578  0.5933  0.1897
    1SOL    HW3 8423   3.223   1.542   3.442  0.5097  0.3255  1.1183
    1SOL    MW4 8424   3.299   1.528   3.402  0.1178  0.7625  0.2179
    1SOL     OW 8425   3.083   1.638   3.515  0.4707  0.5479 -0.0295
    1SOL    HW2 8426   3.071   1.727   3.483  1.2775  0.6803  0.0322
    1SOL    HW3 8427   3.013   1.588   3.472  0.3569  1.0984 -0.4931
    1SOL    MW4 8428   3.072   1.643   3.505  0.5622  0.6381 -0.0827
    1SOL     OW 8429   3.078   1.899   3.392 -0.2012  0.0171  0.1286
    1SOL    HW2 8430   3.009   1.960   3.419  0.4708  1.7618 -1.8874
    1SOL    HW3 8431   3.083   1.910   3.297  1.1829 -1.8889 -0.0525
    1SOL    MW4 8432   3.069   1.909   3.383  0.0701 -0.0042 -0.1612
    1SOL     OW 8433   3.355   2.022   3.515 -0.0469  0.0022 -0.0626
    1SOL    HW2 8434   3.352   2.111   3.481  0.2628 -0.4893 -1.3951
    1SOL    HW3 8435   3.275   1.981   3.481  0.7949 -0.8060 -1.1096
    1SOL    MW4 8436   3.344   2.028   3.506  0.1051 -0.1693 -0.3767
    1SOL     OW 8437   3.349   2.290   3.429 -0.1657 -0.0370  0.3141
    1SOL    HW2 8438   3.432   2.335   3.450  0.0558 -0.8453  1.2387
    1SOL    HW3 8439   3.281   2.348   3.464  0.0307  0.4071 -0.0354
    1SOL    MW4 8440   3.351   2.304   3.437 -0.1106 -0.0851  0.3901
    1SOL     OW 8441   3.169   2.463   3.532  0.1493 -0.4929 -0.4807
    1SOL    HW2 8442   3.168   2.549   3.490  0.5030 -0.0420  0.4228
    1SOL    HW3 8443   3.083   2.426   3.510  0.3378 -0.2806 -1.6119
    1SOL    MW4 8444   3.157   2.470   3.524  0.2210 -0.4053 -0.5107
    1SOL     OW 8445   3.121   2.719   3.418  0.1037  0.1608  0.1852
    1SOL    HW2 8446   3.194   2.768   3.457  0.5379 -0.6453  0.3906
    1SOL    HW3 8447   3.043   2.760   3.455  0.4900  0.0832  1.0940
    1SOL    MW4 8448   3.120   2.731   3.428  0.2117  0.0441  0.3321
    1SOL     OW 8449   3.352   2.846   3.544 -0.2238  0.7756  0.7715
    1SOL    HW2 8450   3.414   2.786   3.501 -2.1458  0.9118 -2.3704
    1SOL    HW3 8451   3.350   2.922   3.486 -3.5154  0.6432  0.6481
    1SOL    MW4 8452   3.360   2.848   3.530 -0.9117  0.7763  0.3407
    1SOL     OW 8453   3.370   3.085   3.401  0.2334  0.3924  0.2790
    1SOL    HW2 8454   3.455   3.110   3.437 -0.3346  0.1462  1.8230
    1SOL    HW3 8455   3.307   3.138   3.449 -0.6077 -0.5691  0.2536
    1SOL    MW4 8456   3.373   3.095   3.412  0.0477  0.2332  0.4792
    1SOL     OW 8457   3.169   3.244   3.522 -0.2887 -0.1700  0.0979
    1SOL    HW2 8458   3.149   3.336   3.506 -0.1565 -0.2078 -0.3139
    1SOL    HW3 8459   3.090   3.197   3.494 -0.6475 -0.1276  1.0335
    1SOL    MW4 8460   3.156   3.250   3.516 -0.3183 -0.1690  0.1671
    1SOL     OW 8461   3.092   3.492   3.445  0.2040  0.1896  0.3796
    1SOL    HW2 8462   3.006   3.513   3.480 -0.0256  0.6326 -0.4382
    1SOL    HW3 8463   3.081   3.493   3.350  1.0150 -0.1541  0.2727
    1SOL    MW4 8464   3.079   3.495   3.438  0.2804  0.2027  0.2580
    1SOL     OW 8465   3.339   3.598   3.493  0.1898  0.1150  0.2404
    1SOL    HW2 8466   3.343   3.693   3.481 -1.2696  0.2495  0.7548
    1SOL    HW3 8467   3.245   3.577   3.489  0.4412 -1.1983  0.9581
    1SOL    MW4 8468   3.327   3.607   3.491  0.0305 -0.0405  0.4029
    1SOL     OW 8469   3.361   3.875   3.420  0.0598 -0.0602 -0.1897
    1SOL    HW2 8470   3.437   3.921   3.456 -0.3008  0.6520 -0.3185
    1SOL    HW3 8471   3.286   3.929   3.445 -0.4971 -1.2217  0.6939
    1SOL    MW4 8472   3.361   3.888   3.428 -0.0613 -0.1192 -0.0901
    1SOL     OW 8473   3.130   4.003   3.518  0.4274 -0.1371 -0.4299
    1SOL    HW2 8474   3.138   4.009   3.613 -0.3368 -1.0615 -0.2919
    1SOL    HW3 8475   3.114   4.093   3.490 -2.4620 -0.2334  0.6571
    1SOL    MW4 8476   3.129   4.015   3.527 -0.0546 -0.2718 -0.2680
    1SOL     OW 8477   3.116   4.247   3.404  0.1618  0.0454  0.7366
    1SOL    HW2 8478   3.189   4.292   3.447  0.4923 -0.9214  1.1973
    1SOL    HW3 8479   3.038   4.296   3.432  0.5184  0.3312  1.2386
    1SOL    MW4 8480   3.115   4.260   3.413  0.2527 -0.0448  0.8636
    1SOL     OW 8481   3.330   4.376   3.504 -0.6350 -0.7919 -0.3389
    1SOL    HW2 8482   3.350   4.375   3.597 -1.2268  1.6785 -0.1673
    1SOL    HW3 8483   3.328   4.468   3.480  0.1568 -1.3996 -2.9556
    1SOL    MW4 8484   3.332   4.388   3.513 -0.6087 -0.5460 -0.6614
    1SOL     OW 8485   3.818   4.655   3.405 -0.5377  0.2003 -0.1831
    1SOL    HW2 8486   3.736   4.691   3.439 -1.2777 -1.4965 -0.1358
    1SOL    HW3 8487   3.808   4.661   3.310 -1.3625 -1.3857 -0.2088
    1SOL    MW4 8488   3.806   4.661   3.397 -0.7443 -0.2328 -0.1800
    1SOL     OW 8489   3.592   0.095   3.513  0.1272 -0.1586 -0.5680
    1SOL    HW2 8490   3.579   0.189   3.502  0.0500 -0.1595 -0.4908
    1SOL    HW3 8491   3.514   0.055   3.475 -0.1417 -0.1611 -0.0288
    1SOL    MW4 8492   3.580   0.102   3.507  0.0818 -0.1591 -0.4864
    1SOL     OW 8493   3.573   0.364   3.429 -0.1579 -0.2035  0.5314
    1SOL    HW2 8494   3.648   0.415   3.457 -0.2074 -0.4429  1.1197
    1SOL    HW3 8495   3.497   0.411   3.463 -0.3191  0.4299 -0.6892
    1SOL    MW4 8496   3.573   0.377   3.437 -0.1857 -0.1515  0.4480
    1SOL     OW 8497   3.790   0.511   3.542 -0.6658 -0.2813 -0.5967
    1SOL    HW2 8498   3.784   0.490   3.635 -0.5836  0.7480 -0.3461
    1SOL    HW3 8499   3.872   0.471   3.513  1.3480  2.7333  0.7180
    1SOL    MW4 8500   3.800   0.503   3.551 -0.3893  0.2523 -0.3903
    1SOL     OW 8501   3.808   0.742   3.376 -0.3055 -0.4027 -0.0230
    1SOL    HW2 8502   3.886   0.795   3.392 -0.2787  0.0050 -1.4402
    1SOL    HW3 8503   3.824   0.662   3.426  1.0508 -0.3423 -0.3201
    1SOL    MW4 8504   3.821   0.738   3.384 -0.1228 -0.3409 -0.2491
    1SOL     OW 8505   3.629   0.900   3.506 -0.2157 -0.2837 -0.1222
    1SOL    HW2 8506   3.644   0.898   3.600 -0.3479 -0.0270 -0.0953
    1SOL    HW3 8507   3.699   0.846   3.469  0.3660  0.3440  0.0529
    1SOL    MW4 8508   3.640   0.893   3.513 -0.1564 -0.1670 -0.0956
    1SOL     OW 8509   3.555   1.145   3.413 -0.5039 -0.2452 -0.2218
    1SOL    HW2 8510   3.586   1.060   3.444 -1.1379 -0.4558 -0.1413
    1SOL    HW3 8511   3.569   1.144   3.319 -0.5477 -0.4536 -0.2254
    1SOL    MW4 8512   3.561   1.134   3.405 -0.5934 -0.3005 -0.2117
    1SOL     OW 8513   3.793   1.283   3.442 -0.1013 -0.1692 -0.1505
    1SOL    HW2 8514   3.805   1.288   3.537 -1.5655 -0.7287  0.0622
    1SOL    HW3 8515   3.707   1.243   3.430  0.7408 -1.5711 -1.7311
    1SOL    MW4 8516   3.783   1.278   3.453 -0.1833 -0.4280 -0.3312
    1SOL     OW 8517   3.772   1.541   3.384  0.0024  0.3001  0.0340
    1SOL    HW2 8518   3.846   1.582   3.429  0.7940 -0.6994 -0.3378
    1SOL    HW3 8519   3.783   1.447   3.401 -0.1204 -0.0250 -1.5973
    1SOL    MW4 8520   3.783   1.534   3.392  0.0908  0.1254 -0.2301
    1SOL     OW 8521   3.528   1.671   3.443  0.5735  0.2005  0.0007
    1SOL    HW2 8522   3.543   1.765   3.427  0.7679 -0.1021 -1.6386
    1SOL    HW3 8523   3.596   1.627   3.392 -1.3377 -0.9372 -1.5880
    1SOL    MW4 8524   3.539   1.678   3.434  0.3471  0.0106 -0.4249
    1SOL     OW 8525   3.585   1.932   3.395  0.0801 -0.1975  0.0068
    1SOL    HW2 8526   3.648   1.987   3.442  0.6262 -0.7426 -0.0873
    1SOL    HW3 8527   3.501   1.954   3.434  0.2000  1.2175 -0.4950
    1SOL    MW4 8528   3.582   1.942   3.406  0.1681 -0.0826 -0.0718
    1SOL     OW 8529   3.787   2.077   3.519  0.3967  0.5845  0.1357
    1SOL    HW2 8530   3.802   2.050   3.609 -2.2159 -0.2197  0.3674
    1SOL    HW3 8531   3.860   2.039   3.470 -0.1593 -2.1236  1.3491
    1SOL    MW4 8532   3.799   2.069   3.524 -0.0212  0.1211  0.3264
    1SOL     OW 8533   3.805   2.306   3.384  0.6207  0.0550  0.6088
    1SOL    HW2 8534   3.880   2.355   3.417  1.7870 -1.1419 -0.2577
    1SOL    HW3 8535   3.797   2.231   3.443  0.4262 -0.1079  0.3738
    1SOL    MW4 8536   3.814   2.303   3.396  0.7489 -0.1245  0.4632
    1SOL     OW 8537   3.579   2.401   3.525  0.2889  0.2738  0.1706
    1SOL    HW2 8538   3.576   2.483   3.475  0.4373  0.5783  0.6576
    1SOL    HW3 8539   3.661   2.360   3.497 -0.4498 -0.3720 -1.0992
    1SOL    MW4 8540   3.590   2.407   3.515  0.2108  0.2286  0.0675
    1SOL     OW 8541   3.562   2.691   3.423 -0.4164 -0.0380 -0.1175
    1SOL    HW2 8542   3.636   2.741   3.458 -0.7086  0.7072 -0.5533
    1SOL    HW3 8543   3.570   2.699   3.328 -0.3886 -0.9367 -0.1936
    1SOL    MW4 8544   3.573   2.699   3.415 -0.4516 -0.0584 -0.1850
    1SOL     OW 8545   3.783   2.817   3.529  0.1251  0.4649 -0.2483
    1SOL    HW2 8546   3.786   2.814   3.625 -1.4968 -0.2477 -0.2023
    1SOL    HW3 8547   3.787   2.910   3.508  0.5094  0.6249  0.5070
    1SOL    MW4 8548   3.784   2.829   3.539 -0.0379  0.3920 -0.1428
    1SOL     OW 8549   3.784   3.062   3.385  0.2690  0.3582 -0.1674
    1SOL    HW2 8550   3.856   3.113   3.423 -0.2809  2.1333 -1.4204
    1SOL    HW3 8551   3.807   3.054   3.293 -0.0915 -0.9266 -0.1446
    1SOL    MW4 8552   3.797   3.068   3.378  0.1488  0.4227 -0.3297
    1SOL     OW 8553   3.601   3.192   3.539 -0.1373 -0.1605  0.3305
    1SOL    HW2 8554   3.589   3.283   3.512 -0.7953 -0.2741  0.2320
    1SOL    HW3 8555   3.673   3.161   3.484 -1.6715 -0.4821 -1.5663
    1SOL    MW4 8556   3.609   3.200   3.528 -0.4263 -0.2179  0.0670
    1SOL     OW 8557   3.594   3.458   3.426 -0.2667 -0.9726 -0.3256
    1SOL    HW2 8558   3.506   3.493   3.441  0.0534 -0.5056  0.4657
    1SOL    HW3 8559   3.609   3.471   3.332 -0.5782  0.0038 -0.2424
    1SOL    MW4 8560   3.584   3.464   3.415 -0.2656 -0.7820 -0.2100
    1SOL     OW 8561   3.802   3.639   3.513  0.1582  0.4932  0.2716
    1SOL    HW2 8562   3.807   3.652   3.607  0.0551 -1.8288  0.6269
    1SOL    HW3 8563   3.735   3.571   3.501  0.3651  0.5557 -1.4421
    1SOL    MW4 8564   3.794   3.631   3.524  0.1719  0.1950  0.0923
    1SOL     OW 8565   3.814   3.882   3.399 -0.3291  0.1327 -0.1091
    1SOL    HW2 8566   3.732   3.920   3.432 -0.1426 -0.6718  1.3573
    1SOL    HW3 8567   3.818   3.795   3.441  1.1175  0.0443 -0.4008
    1SOL    MW4 8568   3.804   3.876   3.409 -0.1135  0.0148  0.0458
    1SOL     OW 8569   3.589   4.009   3.503 -0.3419  0.0793  0.3055
    1SOL    HW2 8570   3.585   3.992   3.597  0.6594 -0.7108  0.2102
    1SOL    HW3 8571   3.586   4.105   3.496 -0.4028  0.1473  1.1285
    1SOL    MW4 8572   3.588   4.020   3.515 -0.2177 -0.0162  0.4017
    1SOL     OW 8573   3.562   4.282   3.428 -0.1573 -0.3345  0.2761
    1SOL    HW2 8574   3.478   4.320   3.455 -1.1911 -1.7153 -0.8541
    1SOL    HW3 8575   3.567   4.301   3.334  0.1541 -1.3830  0.0678
    1SOL    MW4 8576   3.551   4.289   3.419 -0.2525 -0.6552  0.0994
    1SOL     OW 8577   3.814   4.401   3.520 -0.2557 -0.1091 -0.6068
    1SOL    HW2 8578   3.727   4.371   3.494 -0.1924  0.1370 -1.1127
    1SOL    HW3 8579   3.823   4.487   3.477  0.0934  0.0238 -0.2684
    1SOL    MW4 8580   3.804   4.409   3.511 -0.2012 -0.0587 -0.6289
    1SOL     OW 8581   4.258   4.660   3.388 -0.1275  0.4704  0.0842
    1SOL    HW2 8582   4.265   4.573   3.427 -0.2587  1.3905  2.2176
    1SOL    HW3 8583   4.319   4.714   3.438 -0.3661  1.7070 -0.9310
    1SOL    MW4 8584   4.267   4.656   3.399 -0.1764  0.7548  0.2317
    1SOL     OW 8585   4.040   0.107   3.515 -0.1953 -0.1454  0.3272
    1SOL    HW2 8586   4.112   0.069   3.464  0.8040  1.2164  0.7045
    1SOL    HW3 8587   3.961   0.080   3.468  0.6769  0.4703 -1.5369
    1SOL    MW4 8588   4.039   0.098   3.502  0.0515  0.1155  0.1311
    1SOL     OW 8589   4.016   0.370   3.429  0.1898 -0.0498  0.1138
    1SOL    HW2 8590   4.027   0.278   3.454 -1.0442 -0.4498 -0.7939
    1SOL    HW3 8591   4.016   0.369   3.334  0.7348  0.9675  0.0965
    1SOL    MW4 8592   4.018   0.358   3.420  0.0992  0.0317 -0.0083
    1SOL     OW 8593   4.252   0.492   3.498 -0.4349 -0.0776 -0.1220
    1SOL    HW2 8594   4.248   0.580   3.461 -1.0928 -0.1417 -0.2014
    1SOL    HW3 8595   4.167   0.453   3.477  0.6137 -1.4668 -1.9205
    1SOL    MW4 8596   4.240   0.499   3.491 -0.3834 -0.2694 -0.3698
    1SOL     OW 8597   4.280   0.770   3.420 -0.6383  0.3814  0.5255
    1SOL    HW2 8598   4.368   0.799   3.442 -1.1756  1.7139  1.0168
    1SOL    HW3 8599   4.282   0.756   3.326  0.3604 -0.5694  0.6817
    1SOL    MW4 8600   4.292   0.772   3.411 -0.5774  0.4318  0.6108
    1SOL     OW 8601   4.022   0.886   3.474 -0.1571  0.0311  0.0300
    1SOL    HW2 8602   4.028   0.977   3.445  0.2553  0.4695  1.4505
    1SOL    HW3 8603   4.112   0.853   3.468  0.0424  0.3071  1.3602
    1SOL    MW4 8604   4.035   0.893   3.469 -0.0763  0.1253  0.3929
    1SOL     OW 8605   4.020   1.157   3.366 -0.1787 -0.0531  0.5319
    1SOL    HW2 8606   4.096   1.192   3.412  1.1486 -0.0705 -1.5750
    1SOL    HW3 8607   3.947   1.212   3.395  0.6747  0.1976  2.2899
    1SOL    MW4 8608   4.020   1.169   3.376  0.1092 -0.0224  0.4859
    1SOL     OW 8609   4.224   1.280   3.505 -0.4338  0.2622  0.0417
    1SOL    HW2 8610   4.235   1.360   3.454 -0.1237  1.1896  1.5194
    1SOL    HW3 8611   4.297   1.225   3.479 -0.1678  0.8045 -0.3717
    1SOL    MW4 8612   4.235   1.283   3.495 -0.3581  0.4561  0.1822
    1SOL     OW 8613   4.227   1.526   3.401  0.1283 -0.2849  0.1667
    1SOL    HW2 8614   4.139   1.564   3.413 -0.4997 -1.6288 -0.0886
    1SOL    HW3 8615   4.237   1.517   3.306  0.6682  0.1452  0.1815
    1SOL    MW4 8616   4.216   1.530   3.390  0.1163 -0.4055  0.1347
    1SOL     OW 8617   4.000   1.668   3.468  0.4984  0.5074  0.2527
    1SOL    HW2 8618   3.996   1.675   3.564  0.4269 -0.6829  0.3454
    1SOL    HW3 8619   4.001   1.759   3.438  1.8215  0.9151  1.4425
    1SOL    MW4 8620   4.000   1.681   3.477  0.6633  0.4041  0.4218
    1SOL     OW 8621   4.003   1.941   3.413  0.0692  0.2389  0.2932
    1SOL    HW2 8622   4.090   1.963   3.446  0.5529  0.3304 -1.0032
    1SOL    HW3 8623   4.013   1.940   3.318 -1.2710 -0.0841  0.1418
    1SOL    MW4 8624   4.016   1.944   3.405 -0.0439  0.2084  0.1023
    1SOL     OW 8625   4.257   2.056   3.457 -0.2650 -0.2339  0.2008
    1SOL    HW2 8626   4.253   2.147   3.427 -1.5712 -0.1579  0.5654
    1SOL    HW3 8627   4.346   2.028   3.438  0.2848  1.2729  0.5158
    1SOL    MW4 8628   4.268   2.064   3.451 -0.3648 -0.0250  0.2904
    1SOL     OW 8629   4.271   2.333   3.392 -0.1905  0.1444  0.2687
    1SOL    HW2 8630   4.189   2.380   3.411 -0.3092 -0.1446  0.4745
    1SOL    HW3 8631   4.277   2.333   3.297 -0.2231  0.5226  0.2623
    1SOL    MW4 8632   4.261   2.339   3.382 -0.2103  0.1564  0.2952
    1SOL     OW 8633   4.032   2.450   3.489 -0.5675 -0.5122 -0.2421
    1SOL    HW2 8634   4.038   2.434   3.583  1.2925  0.1078 -0.2411
    1SOL    HW3 8635   4.039   2.545   3.480  0.8037 -0.6890 -1.1035
    1SOL    MW4 8636   4.033   2.460   3.500 -0.1411 -0.4537 -0.3557
    1SOL     OW 8637   4.020   2.729   3.384  0.1822 -0.2508  0.1223
    1SOL    HW2 8638   4.095   2.763   3.432  0.0705 -0.8135  0.7088
    1SOL    HW3 8639   3.944   2.762   3.432  0.0709 -1.4401  0.8099
    1SOL    MW4 8640   4.020   2.738   3.397  0.1531 -0.4821  0.2902
    1SOL     OW 8641   4.241   2.804   3.516  0.2337 -0.2629 -0.0203
    1SOL    HW2 8642   4.254   2.805   3.611 -0.8458 -0.2748  0.1325
    1SOL    HW3 8643   4.327   2.783   3.481  0.9086  0.8751  0.9023
    1SOL    MW4 8644   4.254   2.801   3.524  0.1807 -0.1142  0.1216
    1SOL     OW 8645   4.258   3.065   3.400  0.2076 -0.0275 -0.1799
    1SOL    HW2 8646   4.276   2.974   3.424  1.5100  0.4158  0.6300
    1SOL    HW3 8647   4.266   3.067   3.305  2.4070 -0.3351 -0.0412
    1SOL    MW4 8648   4.262   3.053   3.391  0.6700 -0.0095 -0.0546
    1SOL     OW 8649   4.006   3.198   3.508 -0.6945  0.3762 -0.2778
    1SOL    HW2 8650   4.003   3.288   3.474  0.4167  0.9999  1.1785
    1SOL    HW3 8651   4.091   3.164   3.479  0.7316  1.2691  2.5700
    1SOL    MW4 8652   4.017   3.206   3.500 -0.3595  0.5763  0.2902
    1SOL     OW 8653   4.018   3.478   3.425  0.0661  0.1825 -0.3404
    1SOL    HW2 8654   4.101   3.514   3.457 -1.0407  1.7285  0.8882
    1SOL    HW3 8655   3.951   3.527   3.472 -1.5477 -2.2961  0.0455
    1SOL    MW4 8656   4.020   3.489   3.436 -0.2928  0.0596 -0.1273
    1SOL     OW 8657   4.254   3.639   3.502 -0.0353  0.0188  0.1318
    1SOL    HW2 8658   4.265   3.639   3.597  2.9143  0.4804 -0.1658
    1SOL    HW3 8659   4.242   3.731   3.479 -0.0761 -0.0182  0.0073
    1SOL    MW4 8660   4.254   3.651   3.512  0.3481  0.0749  0.0761
    1SOL     OW 8661   4.252   3.887   3.382  0.3132 -0.4448 -0.4063
    1SOL    HW2 8662   4.338   3.928   3.391  0.6597 -1.1889 -0.3328
    1SOL    HW3 8663   4.246   3.865   3.289 -0.2247  0.5355 -0.6129
    1SOL    MW4 8664   4.263   3.889   3.371  0.2875 -0.4137 -0.4239
    1SOL     OW 8665   4.039   3.999   3.514 -0.6211 -0.6737  0.1167
    1SOL    HW2 8666   4.111   3.970   3.457 -0.9062 -0.2578 -0.4591
    1SOL    HW3 8667   3.960   3.971   3.469 -0.8914  0.6825 -0.2742
    1SOL    MW4 8668   4.038   3.992   3.500 -0.6943 -0.4399 -0.0107
    1SOL     OW 8669   4.042   4.265   3.432  0.5632 -0.1865  0.5659
    1SOL    HW2 8670   4.034   4.183   3.481 -0.0557 -0.4836 -0.0183
    1SOL    HW3 8671   3.963   4.314   3.455  0.6924  0.0399  0.5307
    1SOL    MW4 8672   4.030   4.261   3.441  0.4988 -0.1955  0.4840
    1SOL     OW 8673   4.279   4.397   3.496 -0.1497 -0.2322 -0.4345
    1SOL    HW2 8674   4.287   4.430   3.585  1.0507  1.3792 -1.1254
    1SOL    HW3 8675   4.192   4.358   3.493 -1.2090  1.9410  0.7407
    1SOL    MW4 8676   4.268   4.396   3.507 -0.1316  0.2675 -0.3707
    1SOL     OW 8677   0.235   4.665   3.864 -0.0638 -0.4795  0.3588
    1SOL    HW2 8678   0.208   4.689   3.952 -0.8176 -2.0630  0.5890
    1SOL    HW3 8679   0.163   4.693   3.808  0.2688  0.2284  0.2784
    1SOL    MW4 8680   0.222   4.672   3.868 -0.1194 -0.5950  0.3784
    1SOL     OW 8681   4.474   0.117   3.797  0.4218  0.2343 -0.0829
    1SOL    HW2 8682   4.476   0.208   3.826  0.5551 -0.4383  2.0979
    1SOL    HW3 8683   4.482   0.122   3.702 -0.1785  2.5212 -0.0417
    1SOL    MW4 8684   4.475   0.130   3.789  0.3595  0.4473  0.2103
    1SOL     OW 8685   0.017   0.388   3.891 -0.2219 -0.0145  0.4054
    1SOL    HW2 8686  -0.062   0.436   3.866  1.4032  2.6794  0.2570
    1SOL    HW3 8687   0.088   0.433   3.846  1.3695 -2.7149  0.1175
    1SOL    MW4 8688   0.016   0.400   3.882  0.2025 -0.0154  0.3476
    1SOL     OW 8689   0.229   0.502   3.752 -0.3493  0.0377 -0.3212
    1SOL    HW2 8690   0.246   0.589   3.789  1.2052 -0.2827 -0.2439
    1SOL    HW3 8691   0.235   0.514   3.658  0.1069 -0.0374 -0.3009
    1SOL    MW4 8692   0.232   0.515   3.745 -0.0840 -0.0145 -0.3085
    1SOL     OW 8693   0.245   0.773   3.798  0.2336  0.2837 -0.1031
    1SOL    HW2 8694   0.243   0.749   3.891 -0.2033 -1.5976 -0.5836
    1SOL    HW3 8695   0.163   0.820   3.784 -0.2248 -0.3998  0.2239
    1SOL    MW4 8696   0.234   0.776   3.808  0.1154 -0.0547 -0.1235
    1SOL     OW 8697   4.469   0.885   3.753  0.2899 -0.1603 -0.0339
    1SOL    HW2 8698   4.416   0.821   3.800 -1.8055  0.6859 -1.1996
    1SOL    HW3 8699   4.465   0.964   3.806 -1.2772  0.4996 -1.0944
    1SOL    MW4 8700   4.461   0.887   3.766 -0.1936  0.0384 -0.3276
    1SOL     OW 8701   4.460   1.137   3.867  0.2863 -0.1607  0.0127
    1SOL    HW2 8702   4.387   1.190   3.836  1.3095  0.6957 -0.9444
    1SOL    HW3 8703   4.538   1.186   3.843  1.1663 -0.5071  2.0543
    1SOL    MW4 8704   4.461   1.150   3.860  0.5374 -0.0935  0.1557
    1SOL     OW 8705   0.200   1.265   3.771  0.3001 -0.0648  0.1430
    1SOL    HW2 8706   0.198   1.360   3.786  2.4207  0.0442 -0.0207
    1SOL    HW3 8707   0.179   1.255   3.678  0.9470  0.3421 -0.0594
    1SOL    MW4 8708   0.197   1.276   3.761  0.6652  0.0033  0.0944
    1SOL     OW 8709   0.177   1.524   3.837 -0.0235 -0.3746 -0.2393
    1SOL    HW2 8710   0.186   1.547   3.929 -0.1902  0.2256 -0.3685
    1SOL    HW3 8711   0.095   1.565   3.810 -0.2793 -1.0580 -0.5009
    1SOL    MW4 8712   0.168   1.533   3.845 -0.0793 -0.3854 -0.2909
    1SOL     OW 8713   4.445   1.661   3.768  0.0366 -0.0097 -0.1625
    1SOL    HW2 8714   4.461   1.754   3.784 -0.2014  0.0790 -0.4343
    1SOL    HW3 8715   4.429   1.655   3.674 -0.5079 -0.2458 -0.0557
    1SOL    MW4 8716   4.445   1.673   3.758 -0.0663 -0.0292 -0.1841
    1SOL     OW 8717   4.490   1.924   3.816 -0.1315 -0.3493  0.2617
    1SOL    HW2 8718   4.503   1.947   3.908  2.5594  1.4458 -0.5072
    1SOL    HW3 8719   4.408   1.967   3.792 -0.4859 -0.2467  1.6156
    1SOL    MW4 8720   4.481   1.932   3.825  0.1774 -0.0989  0.3393
    1SOL     OW 8721   0.242   2.051   3.742  0.3086 -0.1311 -0.4025
    1SOL    HW2 8722   0.233   2.141   3.775 -0.2300 -0.2430 -0.2317
    1SOL    HW3 8723   0.161   2.008   3.770  0.6512 -0.7217 -0.3184
    1SOL    MW4 8724   0.230   2.057   3.750  0.2827 -0.2239 -0.3688
    1SOL     OW 8725   0.223   2.293   3.880 -0.0619  0.1868  0.5849
    1SOL    HW2 8726   0.235   2.318   3.971 -0.9955 -1.0893  1.0731
    1SOL    HW3 8727   0.137   2.329   3.856 -0.2798 -0.3620  0.5321
    1SOL    MW4 8728   0.213   2.301   3.889 -0.2139 -0.0541  0.6423
    1SOL     OW 8729   0.004   2.413   3.746  0.0565 -0.1205 -0.1673
    1SOL    HW2 8730  -0.069   2.374   3.794  0.7798 -1.3889 -0.0665
    1SOL    HW3 8731   0.017   2.499   3.786  0.3704 -0.9859  1.6290
    1SOL    MW4 8732  -0.004   2.419   3.757  0.1933 -0.4020  0.0830
    1SOL     OW 8733   4.488   2.657   3.879 -0.4625  0.4159 -0.0316
    1SOL    HW2 8734   4.480   2.660   3.974 -0.1020  1.1594 -0.0190
    1SOL    HW3 8735   4.566   2.709   3.859  0.9037 -1.7898 -0.5817
    1SOL    MW4 8736   4.497   2.664   3.889 -0.2347  0.2232 -0.1025
    1SOL     OW 8737   0.208   2.791   3.780 -0.3781  0.1852 -0.1784
    1SOL    HW2 8738   0.291   2.756   3.812  0.0970  0.8805 -0.6146
    1SOL    HW3 8739   0.219   2.793   3.685 -1.0224 -0.0200 -0.2580
    1SOL    MW4 8740   0.220   2.787   3.772 -0.4004  0.2499 -0.2460
    1SOL     OW 8741   0.221   3.052   3.854  0.4626 -0.4287 -0.0297
    1SOL    HW2 8742   0.224   3.051   3.950 -2.9767 -0.4800  0.1495
    1SOL    HW3 8743   0.209   2.961   3.829 -0.7717 -0.1837 -0.3740
    1SOL    MW4 8744   0.220   3.040   3.863 -0.1540 -0.4034 -0.0515
    1SOL     OW 8745   0.013   3.218   3.773 -0.0468  0.1290 -0.1198
    1SOL    HW2 8746   0.093   3.178   3.809  0.2772  1.5594  0.8117
    1SOL    HW3 8747   0.012   3.191   3.681  1.4468 -0.0139 -0.1120
    1SOL    MW4 8748   0.024   3.209   3.766  0.1936  0.2987  0.0041
    1SOL     OW 8749   4.490   3.469   3.860  0.1197  0.1750  0.2048
    1SOL    HW2 8750   4.556   3.515   3.808 -1.5507  0.6684 -1.5839
    1SOL    HW3 8751   4.486   3.382   3.822  1.0924 -0.4697  1.5678
    1SOL    MW4 8752   4.498   3.464   3.848  0.0277  0.1552  0.1488
    1SOL     OW 8753   0.200   3.629   3.748 -0.6757 -0.4114 -0.1571
    1SOL    HW2 8754   0.252   3.592   3.819  0.4381  0.4626 -0.5115
    1SOL    HW3 8755   0.181   3.718   3.776 -0.2284 -0.0606 -0.9649
    1SOL    MW4 8756   0.204   3.636   3.761 -0.4698 -0.2499 -0.3104
    1SOL     OW 8757   0.178   3.889   3.863  0.0609 -0.2383 -0.0209
    1SOL    HW2 8758   0.185   3.885   3.958 -0.4036 -0.7112 -0.0019
    1SOL    HW3 8759   0.259   3.932   3.834  0.1502 -0.0001  0.5915
    1SOL    MW4 8760   0.189   3.894   3.872  0.0114 -0.2692  0.0625
    1SOL     OW 8761   4.448   4.048   3.760  0.0998  0.4630  0.0854
    1SOL    HW2 8762   4.367   4.001   3.783  0.0650  0.0477 -0.8445
    1SOL    HW3 8763   4.514   4.013   3.820 -0.1346 -0.1248  0.0069
    1SOL    MW4 8764   4.446   4.037   3.771  0.0644  0.3304 -0.0474
    1SOL     OW 8765   4.462   4.276   3.922 -0.0573  0.0028 -0.2996
    1SOL    HW2 8766   4.547   4.299   3.884  0.0094 -0.3592 -0.3680
    1SOL    HW3 8767   4.432   4.201   3.871 -0.6772  0.4764 -0.6424
    1SOL    MW4 8768   4.469   4.269   3.910 -0.1297  0.0176 -0.3538
    1SOL     OW 8769   0.207   4.399   3.802 -0.3078  0.2762 -0.1838
    1SOL    HW2 8770   0.285   4.352   3.833 -0.4156 -0.3886 -0.8958
    1SOL    HW3 8771   0.219   4.488   3.834 -0.5444 -0.4281  2.0056
    1SOL    MW4 8772   0.219   4.404   3.811 -0.3532  0.0954  0.0112
    1SOL     OW 8773   0.634   4.660   3.888  0.2155  0.5954  0.3128
    1SOL    HW2 8774   0.638   4.574   3.848  0.0844  0.6340  0.2192
    1SOL    HW3 8775   0.570   4.709   3.836  1.7115  1.3661 -0.8238
    1SOL    MW4 8776   0.626   4.655   3.876  0.3956  0.7019  0.1507
    1SOL     OW 8777   0.446   0.146   3.752 -0.3067 -0.2055  0.1906
    1SOL    HW2 8778   0.425   0.232   3.790 -1.4765 -0.7601  0.8416
    1SOL    HW3 8779   0.374   0.090   3.780 -0.0184 -1.1827 -0.9903
    1SOL    MW4 8780   0.433   0.150   3.761 -0.4230 -0.4076  0.1206
    1SOL     OW 8781   0.438   0.384   3.898 -0.3737 -0.3266 -0.6982
    1SOL    HW2 8782   0.507   0.436   3.858 -0.8727  1.6940  0.9956
    1SOL    HW3 8783   0.358   0.411   3.852 -0.6336  0.4350  0.1835
    1SOL    MW4 8784   0.436   0.395   3.887 -0.4739  0.0405 -0.3586
    1SOL     OW 8785   0.625   0.530   3.753  0.2088 -0.5337 -0.0214
    1SOL    HW2 8786   0.683   0.469   3.800  0.3565 -0.8657 -0.6257
    1SOL    HW3 8787   0.649   0.616   3.788  0.0145 -0.8149  0.8218
    1SOL    MW4 8788   0.636   0.533   3.764  0.2027 -0.6146  0.0103
    1SOL     OW 8789   0.720   0.783   3.863  0.1012  0.2568  0.3095
    1SOL    HW2 8790   0.793   0.842   3.840 -0.3374  0.7454  0.1609
    1SOL    HW3 8791   0.642   0.829   3.832 -0.2312 -0.5037  0.0061
    1SOL    MW4 8792   0.720   0.797   3.855 -0.0005  0.2210  0.2499
    1SOL     OW 8793   0.487   0.903   3.757  0.2610 -0.2585  0.0149
    1SOL    HW2 8794   0.469   0.991   3.792  0.3715 -0.1970 -0.0842
    1SOL    HW3 8795   0.405   0.855   3.770  0.5953 -0.5294  1.2685
    1SOL    MW4 8796   0.474   0.908   3.764  0.3197 -0.2861  0.1671
    1SOL     OW 8797   0.436   1.156   3.867 -0.0923 -0.3857  0.3758
    1SOL    HW2 8798   0.507   1.215   3.840 -0.4930 -0.2246 -0.3419
    1SOL    HW3 8799   0.356   1.201   3.841 -0.4439 -0.7830  0.7588
    1SOL    MW4 8800   0.435   1.169   3.860 -0.1915 -0.4169  0.3316
    1SOL     OW 8801   0.642   1.339   3.741  0.3818 -0.0414 -0.7596
    1SOL    HW2 8802   0.719   1.290   3.770  0.1122  0.4644  0.9055
    1SOL    HW3 8803   0.645   1.337   3.646  3.7271  1.9184 -0.7772
    1SOL    MW4 8804   0.652   1.333   3.732  0.7876  0.2840 -0.5424
    1SOL     OW 8805   0.636   1.582   3.865  0.3112 -0.0553 -0.4301
    1SOL    HW2 8806   0.722   1.615   3.838  0.6019 -0.5435 -0.1141
    1SOL    HW3 8807   0.620   1.507   3.808 -0.3609  0.6376 -1.1639
    1SOL    MW4 8808   0.645   1.576   3.854  0.2608 -0.0283 -0.4849
    1SOL     OW 8809   0.388   1.687   3.782  0.1242  0.4042  0.4411
    1SOL    HW2 8810   0.473   1.654   3.812  0.2480  0.5837  0.2874
    1SOL    HW3 8811   0.326   1.618   3.806  0.3353  0.2055  0.4200
    1SOL    MW4 8812   0.391   1.673   3.789  0.1684  0.4016  0.4179
    1SOL     OW 8813   0.445   1.943   3.902  0.1067  0.3845  0.2318
    1SOL    HW2 8814   0.431   1.855   3.867  0.4852 -0.4002  2.0272
    1SOL    HW3 8815   0.381   1.997   3.856 -0.2739 -0.8604 -0.7303
    1SOL    MW4 8816   0.435   1.939   3.891  0.1064  0.1167  0.3417
    1SOL     OW 8817   0.653   2.044   3.736 -0.0916  0.2916 -0.0054
    1SOL    HW2 8818   0.667   2.130   3.774 -0.8713  0.0261  0.8888
    1SOL    HW3 8819   0.588   2.002   3.792  2.0669 -1.7980  1.0288
    1SOL    MW4 8820   0.646   2.050   3.748  0.0902 -0.0191  0.2491
    1SOL     OW 8821   0.663   2.287   3.859 -0.5208 -0.2171 -0.0562
    1SOL    HW2 8822   0.738   2.336   3.825 -0.3181  0.0692  0.7987
    1SOL    HW3 8823   0.587   2.339   3.831 -0.3450  0.1349  0.1106
    1SOL    MW4 8824   0.663   2.300   3.851 -0.4709 -0.1328  0.0787
    1SOL     OW 8825   0.456   2.432   3.749  0.1554 -0.5270  0.1712
    1SOL    HW2 8826   0.382   2.374   3.765  0.2761 -0.8433 -0.3886
    1SOL    HW3 8827   0.458   2.442   3.654 -0.5504  1.3160  0.3430
    1SOL    MW4 8828   0.447   2.426   3.739  0.0782 -0.3257  0.1202
    1SOL     OW 8829   0.433   2.666   3.903 -0.1910 -0.5409 -0.0606
    1SOL    HW2 8830   0.516   2.697   3.867 -1.2383  0.7152 -1.4911
    1SOL    HW3 8831   0.422   2.579   3.866  1.1287 -1.2761  1.2328
    1SOL    MW4 8832   0.443   2.659   3.893 -0.1550 -0.4723 -0.0784
    1SOL     OW 8833   0.653   2.779   3.772  0.3079  0.1081  0.5776
    1SOL    HW2 8834   0.742   2.748   3.792  0.1903 -0.6658 -0.0700
    1SOL    HW3 8835   0.647   2.775   3.677 -0.3828  0.2589  0.6119
    1SOL    MW4 8836   0.664   2.774   3.762  0.2012  0.0257  0.4966
    1SOL     OW 8837   0.629   3.057   3.825 -0.0849  0.0370 -0.6756
    1SOL    HW2 8838   0.637   3.058   3.920  1.3925 -0.3791 -0.7793
    1SOL    HW3 8839   0.628   2.964   3.802 -3.5809  0.0705 -0.8498
    1SOL    MW4 8840   0.630   3.045   3.835 -0.3511 -0.0134 -0.7122
    1SOL     OW 8841   0.423   3.230   3.778  0.2409  0.1917  0.0015
    1SOL    HW2 8842   0.499   3.171   3.782 -0.6770 -0.9414  1.0767
    1SOL    HW3 8843   0.349   3.176   3.805 -0.7239  1.6826  0.4090
    1SOL    MW4 8844   0.424   3.215   3.782 -0.0075  0.2387  0.1969
    1SOL     OW 8845   0.402   3.491   3.898  0.1510 -0.0576  0.3931
    1SOL    HW2 8846   0.472   3.533   3.850 -0.3640 -0.5834 -0.8447
    1SOL    HW3 8847   0.407   3.399   3.873  0.0839 -0.4055  1.6117
    1SOL    MW4 8848   0.412   3.484   3.889  0.0742 -0.1731  0.3908
    1SOL     OW 8849   0.620   3.588   3.753  0.4132  0.0752  0.1347
    1SOL    HW2 8850   0.628   3.680   3.780 -0.4546  0.0803  0.3695
    1SOL    HW3 8851   0.664   3.584   3.668 -0.8877  1.0229 -0.5903
    1SOL    MW4 8852   0.627   3.600   3.746  0.1271  0.2010  0.0699
    1SOL     OW 8853   0.644   3.863   3.832  0.2125  0.0907 -0.1531
    1SOL    HW2 8854   0.639   3.868   3.928 -1.9671 -0.9803 -0.2008
    1SOL    HW3 8855   0.709   3.930   3.809  0.8095  0.3271  2.0615
    1SOL    MW4 8856   0.652   3.873   3.842  0.0037 -0.0196  0.1328
    1SOL     OW 8857   0.412   4.024   3.772  0.3309  0.2729  0.2201
    1SOL    HW2 8858   0.486   3.967   3.792  1.0815  1.2099  0.1573
    1SOL    HW3 8859   0.410   4.026   3.676 -0.0759 -0.1214  0.2167
    1SOL    MW4 8860   0.422   4.016   3.762  0.3763  0.3443  0.2115
    1SOL     OW 8861   0.447   4.260   3.917 -0.2057  0.1057 -0.4881
    1SOL    HW2 8862   0.508   4.318   3.872  0.6340 -0.5982 -0.2931
    1SOL    HW3 8863   0.443   4.182   3.862 -1.4780  0.4145 -0.8498
    1SOL    MW4 8864   0.455   4.257   3.904 -0.2627  0.0534 -0.5100
    1SOL     OW 8865   0.656   4.403   3.773 -0.0084  0.2952  0.3106
    1SOL    HW2 8866   0.710   4.330   3.804 -0.8067  0.1772  1.4658
    1SOL    HW3 8867   0.676   4.409   3.680 -0.2821 -1.7204  0.0818
    1SOL    MW4 8868   0.666   4.394   3.765 -0.1498  0.0138  0.4327
    1SOL     OW 8869   1.101   0.028   3.895  0.3580 -0.2852 -0.2422
    1SOL    HW2 8870   1.174   0.066   3.846  0.8663 -0.0378  0.6997
    1SOL    HW3 8871   1.094  -0.061   3.860  1.1148 -0.3191 -0.3359
    1SOL    MW4 8872   1.110   0.021   3.884  0.5246 -0.2570 -0.1302
    1SOL     OW 8873   0.852   0.124   3.763  0.6098 -0.1510 -0.5154
    1SOL    HW2 8874   0.928   0.089   3.810  0.5813  1.1269  0.5024
    1SOL    HW3 8875   0.777   0.079   3.801  0.7528 -0.5436 -0.6943
    1SOL    MW4 8876   0.852   0.113   3.774  0.6250 -0.0342 -0.4048
    1SOL     OW 8877   0.838   0.390   3.874  0.1647  0.0310  0.2574
    1SOL    HW2 8878   0.861   0.378   3.966  0.4644 -1.8189 -0.0463
    1SOL    HW3 8879   0.838   0.302   3.837 -0.2007  0.7287 -1.4667
    1SOL    MW4 8880   0.841   0.377   3.881  0.1560 -0.1210 -0.0100
    1SOL     OW 8881   1.044   0.516   3.756 -0.0033 -0.3539  0.0021
    1SOL    HW2 8882   1.124   0.477   3.791  0.3198  0.2697 -0.0401
    1SOL    HW3 8883   0.974   0.475   3.806  0.4356  0.2166  1.0945
    1SOL    MW4 8884   1.045   0.506   3.767  0.0972 -0.1963  0.1407
    1SOL     OW 8885   1.135   0.764   3.839  0.1394 -0.1593  0.2306
    1SOL    HW2 8886   1.129   0.758   3.934  0.4188 -1.5194  0.1706
    1SOL    HW3 8887   1.085   0.689   3.807 -0.1493  0.4230 -0.7011
    1SOL    MW4 8888   1.127   0.753   3.847  0.1382 -0.2619  0.1001
    1SOL     OW 8889   0.923   0.933   3.757  0.1261 -0.6938 -0.2385
    1SOL    HW2 8890   1.002   0.882   3.774  0.0069 -1.1164 -0.9449
    1SOL    HW3 8891   0.907   0.922   3.663  0.0161  0.5133 -0.3757
    1SOL    MW4 8892   0.931   0.925   3.746  0.0959 -0.5902 -0.3500
    1SOL     OW 8893   0.869   1.185   3.844  0.2786  0.1571 -0.4082
    1SOL    HW2 8894   0.874   1.179   3.940 -2.3524  1.1966 -0.1862
    1SOL    HW3 8895   0.883   1.095   3.815  2.7144  0.0740  0.8308
    1SOL    MW4 8896   0.872   1.172   3.853  0.2528  0.2834 -0.2151
    1SOL     OW 8897   1.131   1.284   3.786  0.1311 -0.2575 -0.3087
    1SOL    HW2 8898   1.130   1.375   3.815 -1.1289  0.8428 -3.6125
    1SOL    HW3 8899   1.045   1.250   3.813  0.2044 -0.1802  0.0268
    1SOL    MW4 8900   1.119   1.291   3.793 -0.0254 -0.1022 -0.7002
    1SOL     OW 8901   1.115   1.554   3.857  0.1695 -0.1706 -0.5177
    1SOL    HW2 8902   1.127   1.559   3.952  0.7501 -1.0764 -0.5419
    1SOL    HW3 8903   1.193   1.595   3.820 -0.0723  0.2141 -0.6146
    1SOL    MW4 8904   1.127   1.560   3.865  0.2142 -0.2394 -0.5336
    1SOL     OW 8905   0.878   1.673   3.766  0.0981  0.5018  0.4630
    1SOL    HW2 8906   0.958   1.627   3.790 -0.1911 -0.2989 -0.0830
    1SOL    HW3 8907   0.887   1.692   3.673 -0.3197  0.4504  0.4093
    1SOL    MW4 8908   0.890   1.670   3.757  0.0048  0.3895  0.3839
    1SOL     OW 8909   0.870   1.922   3.865  0.0928 -0.0408 -0.5755
    1SOL    HW2 8910   0.888   1.830   3.846 -0.4055 -0.5034  1.1132
    1SOL    HW3 8911   0.805   1.948   3.800  0.0446 -0.9611 -0.8927
    1SOL    MW4 8912   0.864   1.914   3.854  0.0207 -0.2232 -0.3946
    1SOL     OW 8913   1.105   2.049   3.770  0.3316 -0.3175  0.2940
    1SOL    HW2 8914   1.028   2.000   3.798 -0.2636  0.5474  0.2190
    1SOL    HW3 8915   1.119   2.023   3.679 -0.9673  0.8537 -0.2610
    1SOL    MW4 8916   1.097   2.039   3.762  0.0818 -0.0491  0.2108
    1SOL     OW 8917   1.132   2.318   3.838  0.4327  0.1002 -0.0090
    1SOL    HW2 8918   1.129   2.325   3.933  1.3679 -0.1307  0.0371
    1SOL    HW3 8919   1.146   2.225   3.821 -0.8455 -0.0329 -0.4028
    1SOL    MW4 8920   1.133   2.307   3.848  0.3874  0.0522 -0.0551
    1SOL     OW 8921   0.893   2.419   3.745  0.3230  0.3455 -0.0166
    1SOL    HW2 8922   0.904   2.506   3.783  2.1645  0.3564 -0.5180
    1SOL    HW3 8923   0.969   2.370   3.776 -0.1450 -0.7672 -0.5960
    1SOL    MW4 8924   0.905   2.424   3.754  0.5043  0.2000 -0.1593
    1SOL     OW 8925   0.905   2.687   3.864 -0.4097  0.3739 -0.3611
    1SOL    HW2 8926   0.904   2.698   3.959  0.8703 -1.1236 -0.1397
    1SOL    HW3 8927   0.975   2.745   3.834  0.7038 -0.8005 -0.1143
    1SOL    MW4 8928   0.914   2.696   3.873 -0.0939  0.0212 -0.2992
    1SOL     OW 8929   1.066   2.878   3.752  0.2341  0.7472 -0.0726
    1SOL    HW2 8930   1.151   2.841   3.778  0.2766  1.3298  0.6348
    1SOL    HW3 8931   1.057   2.957   3.806 -1.5736 -0.2736  1.1455
    1SOL    MW4 8932   1.076   2.884   3.763  0.0012  0.6893  0.1814
    1SOL     OW 8933   1.066   3.090   3.926 -0.3361 -0.0950 -0.1634
    1SOL    HW2 8934   1.143   3.130   3.886 -0.5095  0.6898  0.2660
    1SOL    HW3 8935   0.992   3.128   3.878 -0.3890 -3.1417 -2.6507
    1SOL    MW4 8936   1.066   3.100   3.914 -0.3659 -0.3932 -0.4349
    1SOL     OW 8937   0.886   3.205   3.756  0.3763 -0.4768 -0.4013
    1SOL    HW2 8938   0.798   3.175   3.781  0.8369 -1.5473 -0.0478
    1SOL    HW3 8939   0.885   3.203   3.661  0.8115 -2.8485 -0.3719
    1SOL    MW4 8940   0.874   3.201   3.747  0.4944 -0.9310 -0.3507
    1SOL     OW 8941   0.875   3.473   3.856 -0.0036  0.1196  0.0035
    1SOL    HW2 8942   0.884   3.389   3.810  0.3802 -0.1404  0.5421
    1SOL    HW3 8943   0.791   3.508   3.827  1.7442  1.6284 -3.6599
    1SOL    MW4 8944   0.865   3.467   3.846  0.2776  0.2847 -0.4089
    1SOL     OW 8945   1.110   3.613   3.779 -0.1263  0.1279 -0.2810
    1SOL    HW2 8946   1.114   3.687   3.840 -0.7349  0.9149 -1.1738
    1SOL    HW3 8947   1.030   3.567   3.804 -0.0122  0.0570 -0.0432
    1SOL    MW4 8948   1.100   3.617   3.790 -0.1916  0.2227 -0.3672
    1SOL     OW 8949   1.102   3.871   3.886 -0.1828  0.1784  0.2270
    1SOL    HW2 8950   1.107   3.884   3.980  0.2449  0.9583  0.0954
    1SOL    HW3 8951   1.176   3.919   3.850  0.8866 -1.8235 -0.3494
    1SOL    MW4 8952   1.112   3.879   3.893  0.0148  0.0172  0.1335
    1SOL     OW 8953   0.876   3.971   3.742 -0.0424  0.0722 -0.0787
    1SOL    HW2 8954   0.951   3.929   3.785  0.0399 -1.6362 -1.8250
    1SOL    HW3 8955   0.904   3.981   3.651 -1.7841 -0.1888 -0.6571
    1SOL    MW4 8956   0.890   3.967   3.736 -0.2614 -0.1876 -0.3853
    1SOL     OW 8957   0.862   4.237   3.851  0.1371 -0.0391  0.0848
    1SOL    HW2 8958   0.880   4.226   3.944 -0.1351  0.8366  0.2440
    1SOL    HW3 8959   0.854   4.147   3.818  0.7857 -0.3657  0.7888
    1SOL    MW4 8960   0.863   4.223   3.859  0.1867  0.0329  0.1986
    1SOL     OW 8961   1.079   4.436   3.767 -0.1923  0.1103  0.0431
    1SOL    HW2 8962   1.007   4.389   3.809 -1.0483  1.8254  0.5558
    1SOL    HW3 8963   1.068   4.418   3.674 -1.9445  1.1837  0.0116
    1SOL    MW4 8964   1.068   4.428   3.760 -0.5364  0.4787  0.1066
    1SOL     OW 8965   1.555   0.037   3.838  0.3752  0.3980  0.4021
    1SOL    HW2 8966   1.554   0.022   3.933  1.0491 -0.8700  0.2125
    1SOL    HW3 8967   1.561  -0.050   3.800 -0.4130  0.8738 -0.8306
    1SOL    MW4 8968   1.556   0.024   3.845  0.3601  0.2936  0.2143
    1SOL     OW 8969   1.288   0.135   3.730  0.2235 -0.5459  0.1548
    1SOL    HW2 8970   1.264   0.225   3.749  0.1946 -0.0798 -2.0244
    1SOL    HW3 8971   1.378   0.126   3.762  0.4614  0.4562 -0.2311
    1SOL    MW4 8972   1.297   0.145   3.737  0.2509 -0.3522 -0.1836
    1SOL     OW 8973   1.273   0.388   3.833 -0.0247  0.1276  0.0264
    1SOL    HW2 8974   1.286   0.386   3.928  0.0940  0.9089  0.0242
    1SOL    HW3 8975   1.354   0.426   3.799  0.2051 -0.7632 -0.4413
    1SOL    MW4 8976   1.286   0.393   3.841  0.0213  0.1132 -0.0358
    1SOL     OW 8977   1.548   0.467   3.761 -0.7439 -0.2267  0.0958
    1SOL    HW2 8978   1.619   0.428   3.812 -1.0864 -0.9614  0.0113
    1SOL    HW3 8979   1.538   0.555   3.798  1.5318  0.6128 -1.1712
    1SOL    MW4 8980   1.556   0.474   3.773 -0.4886 -0.2129 -0.0823
    1SOL     OW 8981   1.549   0.720   3.827  0.0463  0.1930  0.1396
    1SOL    HW2 8982   1.626   0.775   3.817  0.4277 -0.2690  0.5194
    1SOL    HW3 8983   1.477   0.774   3.794  0.3224  1.1692  1.0951
    1SOL    MW4 8984   1.549   0.735   3.822  0.1332  0.2609  0.3157
    1SOL     OW 8985   1.360   0.907   3.732 -0.1275 -0.1094  0.2800
    1SOL    HW2 8986   1.362   0.984   3.789  0.5225 -0.1395  0.3079
    1SOL    HW3 8987   1.285   0.856   3.762  1.5752 -1.3328  2.7210
    1SOL    MW4 8988   1.351   0.910   3.743  0.1830 -0.2748  0.6058
    1SOL     OW 8989   1.327   1.126   3.897 -0.2970  0.0204 -0.4853
    1SOL    HW2 8990   1.413   1.163   3.875 -0.5857  1.1121  0.1983
    1SOL    HW3 8991   1.264   1.183   3.852 -0.7223  0.0331  0.1264
    1SOL    MW4 8992   1.330   1.138   3.888 -0.3911  0.1662 -0.3142
    1SOL     OW 8993   1.579   1.233   3.788  0.0119 -0.5232  0.1311
    1SOL    HW2 8994   1.659   1.214   3.836  0.6114 -1.5718 -1.2345
    1SOL    HW3 8995   1.558   1.324   3.811  1.0527 -0.5510  1.2426
    1SOL    MW4 8996   1.587   1.243   3.797  0.2283 -0.6653  0.0978
    1SOL     OW 8997   1.542   1.521   3.851 -0.1494  0.3176  0.2620
    1SOL    HW2 8998   1.551   1.524   3.947  0.2754  0.6734  0.2145
    1SOL    HW3 8999   1.626   1.553   3.819 -0.4333  0.5663 -0.2305
    1SOL    MW4 9000   1.554   1.525   3.860 -0.1309  0.3973  0.1912
    1SOL     OW 9001   1.335   1.675   3.738  0.4666 -0.0405 -0.2270
    1SOL    HW2 9002   1.355   1.750   3.793  0.2743 -0.2313  0.1045
    1SOL    HW3 9003   1.399   1.608   3.763 -1.3807 -1.1180  1.7790
    1SOL    MW4 9004   1.346   1.676   3.748  0.1975 -0.2079  0.0815
    1SOL     OW 9005   1.358   1.928   3.856 -0.1282 -0.3245 -0.2436
    1SOL    HW2 9006   1.359   1.934   3.951  1.4994  0.5101 -0.2961
    1SOL    HW3 9007   1.272   1.960   3.830 -1.6725 -3.2244  1.0889
    1SOL    MW4 9008   1.347   1.933   3.865 -0.1173 -0.5970 -0.0749
    1SOL     OW 9009   1.593   2.080   3.784 -0.4570  0.2547 -0.4925
    1SOL    HW2 9010   1.523   2.021   3.811 -0.6424 -0.3002 -2.1614
    1SOL    HW3 9011   1.583   2.088   3.690  0.9304  1.2085 -0.5721
    1SOL    MW4 9012   1.583   2.073   3.775 -0.2985  0.3073 -0.7234
    1SOL     OW 9013   1.552   2.367   3.827  0.1319 -0.7184 -0.1866
    1SOL    HW2 9014   1.626   2.411   3.786  0.3592 -0.4838  0.4648
    1SOL    HW3 9015   1.575   2.274   3.825 -0.0754 -0.7518 -1.0206
    1SOL    MW4 9016   1.565   2.361   3.822  0.1346 -0.6917 -0.2108
    1SOL     OW 9017   1.318   2.490   3.741 -0.0497  0.0252  0.1261
    1SOL    HW2 9018   1.399   2.457   3.779  1.4971  2.6077 -0.7914
    1SOL    HW3 9019   1.252   2.426   3.766  1.9185 -1.1727  2.4811
    1SOL    MW4 9020   1.320   2.478   3.750  0.4141  0.2079  0.3157
    1SOL     OW 9021   1.293   2.747   3.862  0.1455 -0.2122  0.3093
    1SOL    HW2 9022   1.300   2.738   3.957  1.4744 -0.8146  0.1644
    1SOL    HW3 9023   1.305   2.658   3.828  2.3718  0.3811 -0.5474
    1SOL    MW4 9024   1.295   2.734   3.870  0.6145 -0.2136  0.1771
    1SOL     OW 9025   1.550   2.846   3.807  0.1874  0.0645  0.2584
    1SOL    HW2 9026   1.460   2.826   3.834  0.1244 -0.1030 -0.0785
    1SOL    HW3 9027   1.551   2.830   3.713  0.2404  1.2405  0.0465
    1SOL    MW4 9028   1.538   2.841   3.799  0.1862  0.1976  0.1860
    1SOL     OW 9029   1.529   3.097   3.910  0.1726  0.7083 -0.5083
    1SOL    HW2 9030   1.552   3.086   4.002  1.4466  2.2124 -0.6229
    1SOL    HW3 9031   1.547   3.011   3.871  0.8155  0.4174  0.3922
    1SOL    MW4 9032   1.535   3.084   3.917  0.4255  0.8686 -0.4046
    1SOL     OW 9033   1.289   3.201   3.817  0.0587 -0.2620  0.0745
    1SOL    HW2 9034   1.299   3.295   3.833 -0.3399 -0.4390  1.4524
    1SOL    HW3 9035   1.375   3.164   3.838  0.6268 -0.0498 -1.7986
    1SOL    MW4 9036   1.302   3.208   3.822  0.0811 -0.2575  0.0093
    1SOL     OW 9037   1.333   3.462   3.841  0.2578  0.3906 -0.1597
    1SOL    HW2 9038   1.411   3.512   3.818  0.9375 -0.4553  0.2576
    1SOL    HW3 9039   1.260   3.514   3.809  0.9728  1.4477 -0.0748
    1SOL    MW4 9040   1.334   3.475   3.834  0.4417  0.4184 -0.0935
    1SOL     OW 9041   1.542   3.627   3.792 -0.0130 -0.1484  0.2564
    1SOL    HW2 9042   1.627   3.592   3.818  0.4576 -0.0477 -1.0754
    1SOL    HW3 9043   1.542   3.717   3.825  0.7426  0.1160 -0.4409
    1SOL    MW4 9044   1.553   3.635   3.800  0.1487 -0.0999 -0.0114
    1SOL     OW 9045   1.571   3.905   3.884  0.0733 -0.2246  0.1567
    1SOL    HW2 9046   1.564   3.882   3.977  0.2897 -1.1203 -0.0448
    1SOL    HW3 9047   1.496   3.961   3.867 -0.8109 -1.2940  0.5116
    1SOL    MW4 9048   1.560   3.909   3.894 -0.0148 -0.4838  0.1771
    1SOL     OW 9049   1.326   4.026   3.806 -0.1194  0.0408 -0.3370
    1SOL    HW2 9050   1.337   4.119   3.825 -0.0078 -0.1059  0.3189
    1SOL    HW3 9051   1.334   4.020   3.711  0.1344  0.6668 -0.3575
    1SOL    MW4 9052   1.329   4.037   3.796 -0.0712  0.1040 -0.2532
    1SOL     OW 9053   1.322   4.309   3.852  0.2569 -0.2500 -0.2164
    1SOL    HW2 9054   1.395   4.360   3.816  0.0672 -0.4233 -0.8487
    1SOL    HW3 9055   1.243   4.352   3.819  0.0183  1.0638  1.9956
    1SOL    MW4 9056   1.321   4.321   3.843  0.2004 -0.0997 -0.0081
    1SOL     OW 9057   1.554   4.430   3.734 -0.7380 -0.0572 -0.6190
    1SOL    HW2 9058   1.618   4.372   3.774 -2.5100 -1.6305 -0.0428
    1SOL    HW3 9059   1.565   4.417   3.640 -0.7443 -0.9051 -0.5016
    1SOL    MW4 9060   1.564   4.421   3.727 -0.9725 -0.3762 -0.5274
    1SOL     OW 9061   1.999   4.651   3.853 -0.1460 -0.1785  0.4516
    1SOL    HW2 9062   2.076   4.695   3.816 -0.4599 -0.9424 -1.1414
    1SOL    HW3 9063   2.002   4.563   3.816 -0.9515 -0.6796  1.5848
    1SOL    MW4 9064   2.009   4.645   3.843 -0.2937 -0.3462  0.3910
    1SOL     OW 9065   1.800   0.131   3.755  0.0934  0.1742  0.2777
    1SOL    HW2 9066   1.857   0.071   3.804  0.5651  0.9091  0.6242
    1SOL    HW3 9067   1.712   0.110   3.785  0.3155  0.1115  0.8873
    1SOL    MW4 9068   1.796   0.120   3.765  0.1849  0.2629  0.4039
    1SOL     OW 9069   1.793   0.390   3.873  0.4539  0.1308 -0.0027
    1SOL    HW2 9070   1.803   0.378   3.967 -0.0542 -0.7228 -0.0510
    1SOL    HW3 9071   1.803   0.302   3.837  1.3948  0.5619 -0.8177
    1SOL    MW4 9072   1.796   0.377   3.881  0.5109  0.0750 -0.1168
    1SOL     OW 9073   2.048   0.464   3.795 -0.0704  0.2394  0.3995
    1SOL    HW2 9074   1.958   0.449   3.824 -0.0387  1.1354  0.9678
    1SOL    HW3 9075   2.040   0.479   3.700 -0.4698 -0.0165  0.3892
    1SOL    MW4 9076   2.035   0.464   3.786 -0.1190  0.3238  0.4733
    1SOL     OW 9077   2.003   0.732   3.860 -0.2185 -0.0732  0.0227
    1SOL    HW2 9078   2.003   0.737   3.956 -1.0879 -0.2654  0.0420
    1SOL    HW3 9079   2.002   0.639   3.841 -1.6015 -0.0402 -0.1452
    1SOL    MW4 9080   2.003   0.721   3.870 -0.5157 -0.0942  0.0029
    1SOL     OW 9081   1.771   0.892   3.769 -0.1828  0.3544 -0.5790
    1SOL    HW2 9082   1.850   0.840   3.771  0.3288  1.1534  1.3457
    1SOL    HW3 9083   1.754   0.907   3.676  0.4986 -1.9116 -1.1039
    1SOL    MW4 9084   1.779   0.887   3.757 -0.0253  0.1609 -0.3941
    1SOL     OW 9085   1.803   1.136   3.911  0.3708  0.5003 -0.0746
    1SOL    HW2 9086   1.791   1.135   4.006  0.1139  0.7964 -0.1001
    1SOL    HW3 9087   1.797   1.044   3.884 -1.4379  0.5867 -0.0248
    1SOL    MW4 9088   1.801   1.124   3.920  0.0982  0.5509 -0.0715
    1SOL     OW 9089   2.022   1.251   3.804 -0.0177 -0.2529 -0.0002
    1SOL    HW2 9090   2.103   1.202   3.820 -0.1105 -0.2948  0.3384
    1SOL    HW3 9091   1.952   1.190   3.826 -0.1466 -0.2654 -0.4350
    1SOL    MW4 9092   2.024   1.237   3.809 -0.0472 -0.2600 -0.0129
    1SOL     OW 9093   1.988   1.510   3.942  0.0571  0.1537  0.8382
    1SOL    HW2 9094   1.914   1.554   3.900  0.3075 -0.4306 -0.2518
    1SOL    HW3 9095   1.999   1.429   3.891  0.4943 -0.4837  1.9212
    1SOL    MW4 9096   1.979   1.505   3.930  0.1478 -0.0076  0.8371
    1SOL     OW 9097   1.781   1.658   3.804 -0.3261  0.1112 -0.0658
    1SOL    HW2 9098   1.790   1.750   3.831  0.1109  0.1677 -0.3912
    1SOL    HW3 9099   1.794   1.660   3.709 -0.9620 -0.2055 -0.1600
    1SOL    MW4 9100   1.784   1.671   3.795 -0.3524  0.0769 -0.1211
    1SOL     OW 9101   1.801   1.927   3.866 -0.8581  0.1674 -0.5091
    1SOL    HW2 9102   1.794   1.940   3.960  0.0040 -1.5787 -0.1794
    1SOL    HW3 9103   1.731   1.981   3.829 -0.2609  2.0390  1.0157
    1SOL    MW4 9104   1.791   1.936   3.873 -0.6657  0.1841 -0.2644
    1SOL     OW 9105   2.041   2.054   3.806 -0.0175 -0.2381  0.2551
    1SOL    HW2 9106   1.961   2.002   3.811  0.7340 -1.5975 -1.2590
    1SOL    HW3 9107   2.057   2.063   3.712  1.2972  0.4894  0.5408
    1SOL    MW4 9108   2.032   2.048   3.794  0.2551 -0.3214  0.0932
    1SOL     OW 9109   2.006   2.328   3.865 -0.0292  0.2978  0.5509
    1SOL    HW2 9110   1.918   2.343   3.832 -0.6364 -0.7214  1.6546
    1SOL    HW3 9111   2.025   2.237   3.843  0.3468  0.2071  1.2437
    1SOL    MW4 9112   1.997   2.318   3.858 -0.0598  0.1514  0.7882
    1SOL     OW 9113   1.793   2.450   3.738  0.0401 -0.1725  0.0527
    1SOL    HW2 9114   1.806   2.542   3.763  0.4522 -0.5823  1.4328
    1SOL    HW3 9115   1.795   2.450   3.643  2.0151  0.9760  0.0704
    1SOL    MW4 9116   1.795   2.462   3.729  0.3550 -0.0749  0.2370
    1SOL     OW 9117   1.771   2.701   3.844  0.0254 -0.1540  0.2263
    1SOL    HW2 9118   1.768   2.661   3.931  0.8005 -0.8145 -0.0418
    1SOL    HW3 9119   1.687   2.746   3.836  0.8569  1.8620  2.2324
    1SOL    MW4 9120   1.760   2.702   3.855  0.2373  0.0248  0.4556
    1SOL     OW 9121   1.957   2.880   3.768  0.2324 -0.3847 -0.0114
    1SOL    HW2 9122   2.045   2.850   3.791  0.3302 -0.7921 -0.8783
    1SOL    HW3 9123   1.899   2.811   3.801  0.3587 -0.8719 -0.7714
    1SOL    MW4 9124   1.961   2.867   3.775  0.2618 -0.5028 -0.2260
    1SOL     OW 9125   1.988   3.116   3.888  0.2643 -0.0803  0.2876
    1SOL    HW2 9126   1.982   3.028   3.850  0.3943  0.3240 -0.6725
    1SOL    HW3 9127   2.059   3.158   3.840 -0.2565  0.7890  0.2715
    1SOL    MW4 9128   1.997   3.110   3.877  0.2127  0.0877  0.1588
    1SOL     OW 9129   1.746   3.214   3.779  0.1705 -0.0500 -0.1771
    1SOL    HW2 9130   1.819   3.172   3.825 -0.2244  1.0221  1.4728
    1SOL    HW3 9131   1.667   3.179   3.821 -0.2313 -0.1338 -0.9916
    1SOL    MW4 9132   1.745   3.204   3.791  0.0654  0.0803 -0.0670
    1SOL     OW 9133   1.759   3.473   3.879 -0.2487  0.4664  0.2521
    1SOL    HW2 9134   1.847   3.503   3.858 -0.4377  0.5807 -0.3896
    1SOL    HW3 9135   1.758   3.381   3.852 -0.1393  0.2943  0.8235
    1SOL    MW4 9136   1.770   3.465   3.873 -0.2593  0.4587  0.2429
    1SOL     OW 9137   2.017   3.586   3.824 -0.2244  0.1464 -0.4867
    1SOL    HW2 9138   2.091   3.547   3.871 -0.1525  0.4730 -0.3279
    1SOL    HW3 9139   2.041   3.577   3.731 -0.0540  0.1202 -0.4416
    1SOL    MW4 9140   2.030   3.579   3.818 -0.1926  0.1860 -0.4597
    1SOL     OW 9141   2.005   3.868   3.917 -0.3723  0.1744  0.5087
    1SOL    HW2 9142   2.080   3.911   3.876 -0.0970  0.9484  1.8048
    1SOL    HW3 9143   2.019   3.774   3.901 -0.0696  0.4293 -0.8041
    1SOL    MW4 9144   2.017   3.861   3.909 -0.2959  0.3102  0.5064
    1SOL     OW 9145   1.816   3.995   3.759  0.1187 -0.2248  0.5562
    1SOL    HW2 9146   1.886   3.952   3.809  0.7151  0.3370  0.1959
    1SOL    HW3 9147   1.736   3.960   3.798  0.5784 -0.0203  1.7256
    1SOL    MW4 9148   1.815   3.985   3.771  0.2581 -0.1237  0.6630
    1SOL     OW 9149   1.768   4.264   3.827  0.3900 -0.4579 -0.0968
    1SOL    HW2 9150   1.848   4.300   3.788  1.1643 -1.1401  0.8033
    1SOL    HW3 9151   1.770   4.171   3.803 -1.3676 -0.0008 -2.0484
    1SOL    MW4 9152   1.779   4.256   3.819  0.2602 -0.4878 -0.2356
    1SOL     OW 9153   2.020   4.396   3.744 -0.2867  0.0327  0.1438
    1SOL    HW2 9154   2.103   4.351   3.756 -1.0358 -1.2388  0.6951
    1SOL    HW3 9155   2.003   4.390   3.650  0.0616 -0.0389  0.0845
    1SOL    MW4 9156   2.029   4.389   3.733 -0.3397 -0.1445  0.2086
    1SOL     OW 9157   2.458   4.594   3.872 -0.3794 -0.0164  0.0383
    1SOL    HW2 9158   2.455   4.591   3.968  0.6338  0.1703  0.0790
    1SOL    HW3 9159   2.539   4.640   3.852 -0.6313  0.0195 -0.9141
    1SOL    MW4 9160   2.469   4.600   3.882 -0.2792  0.0124 -0.0820
    1SOL     OW 9161   2.256   0.086   3.782 -0.0453  0.2578  0.6046
    1SOL    HW2 9162   2.328   0.025   3.799 -1.8614 -1.7143  1.4454
    1SOL    HW3 9163   2.249   0.088   3.687  1.6232  1.0948  0.4810
    1SOL    MW4 9164   2.265   0.078   3.772 -0.0646  0.1081  0.6993
    1SOL     OW 9165   2.284   0.336   3.909  0.2398  0.3347  0.4700
    1SOL    HW2 9166   2.282   0.245   3.880 -1.6707 -0.5220  3.0947
    1SOL    HW3 9167   2.202   0.373   3.877 -0.0323  0.4862  1.3255
    1SOL    MW4 9168   2.273   0.329   3.901 -0.0479  0.2417  0.9291
    1SOL     OW 9169   2.495   0.489   3.798 -0.1356 -0.1919 -0.1035
    1SOL    HW2 9170   2.428   0.440   3.846 -0.2070 -0.7531 -0.7648
    1SOL    HW3 9171   2.474   0.473   3.705  1.1794 -0.7482 -0.3128
    1SOL    MW4 9172   2.483   0.480   3.792  0.0284 -0.3393 -0.2186
    1SOL     OW 9173   2.446   0.748   3.909  0.0869 -0.1586  0.1540
    1SOL    HW2 9174   2.361   0.786   3.887  0.6253 -0.4421 -2.6696
    1SOL    HW3 9175   2.448   0.665   3.861  2.2091  0.1620 -0.3829
    1SOL    MW4 9176   2.435   0.742   3.900  0.4380 -0.1537 -0.2892
    1SOL     OW 9177   2.218   0.882   3.801  0.2187  0.2084  0.5673
    1SOL    HW2 9178   2.143   0.824   3.816  1.2030 -0.9690  1.0013
    1SOL    HW3 9179   2.226   0.886   3.706  1.3747 -1.9800  0.5590
    1SOL    MW4 9180   2.209   0.875   3.791  0.5009 -0.2357  0.6232
    1SOL     OW 9181   2.273   1.147   3.871 -0.3184  0.0958 -0.5371
    1SOL    HW2 9182   2.257   1.156   3.965 -1.6260  1.2813 -0.8525
    1SOL    HW3 9183   2.250   1.056   3.851  1.4330 -0.5997  0.5525
    1SOL    MW4 9184   2.268   1.136   3.881 -0.2596  0.1605 -0.4351
    1SOL     OW 9185   2.480   1.295   3.745  0.1348  0.0124  0.1775
    1SOL    HW2 9186   2.518   1.359   3.807  0.5377 -1.2733  1.2829
    1SOL    HW3 9187   2.400   1.265   3.788 -0.8304  0.8448 -1.0141
    1SOL    MW4 9188   2.475   1.300   3.759  0.0606 -0.0473  0.1662
    1SOL     OW 9189   2.490   1.516   3.892 -0.2893 -0.1887 -0.0613
    1SOL    HW2 9190   2.555   1.569   3.846 -0.0503 -0.0597  0.4175
    1SOL    HW3 9191   2.406   1.551   3.864 -0.2033 -1.3262 -1.8423
    1SOL    MW4 9192   2.488   1.527   3.883 -0.2465 -0.3219 -0.2332
    1SOL     OW 9193   2.232   1.647   3.830 -0.3025 -0.2736 -0.3672
    1SOL    HW2 9194   2.247   1.725   3.883  1.9001 -0.9430  0.0554
    1SOL    HW3 9195   2.152   1.609   3.865 -0.5348  0.9495  0.4607
    1SOL    MW4 9196   2.224   1.652   3.842 -0.0424 -0.2005 -0.2022
    1SOL     OW 9197   2.260   1.921   3.884 -0.0915 -0.2123  0.4566
    1SOL    HW2 9198   2.251   1.940   3.978  2.5889  4.6522 -0.1574
    1SOL    HW3 9199   2.186   1.965   3.843  1.2256  1.4971 -0.1213
    1SOL    MW4 9200   2.249   1.929   3.891  0.4356  0.6549  0.2997
    1SOL     OW 9201   2.445   2.055   3.751 -0.0081 -0.1643 -0.2018
    1SOL    HW2 9202   2.452   2.143   3.788 -0.0149 -0.3799  0.3161
    1SOL    HW3 9203   2.382   2.010   3.808  0.8677 -0.8589  0.2321
    1SOL    MW4 9204   2.438   2.060   3.764  0.1066 -0.2842 -0.0758
    1SOL     OW 9205   2.443   2.299   3.877 -0.1447  0.5588  0.5571
    1SOL    HW2 9206   2.526   2.337   3.848 -0.3083 -0.1597 -0.9035
    1SOL    HW3 9207   2.376   2.352   3.834 -0.4191  0.2891  0.6494
    1SOL    MW4 9208   2.445   2.311   3.867 -0.2024  0.4284  0.3765
    1SOL     OW 9209   2.243   2.468   3.764 -0.0545 -0.0273  0.1897
    1SOL    HW2 9210   2.169   2.418   3.797  0.3456 -0.9394 -0.2890
    1SOL    HW3 9211   2.247   2.447   3.671  0.9480 -0.1639  0.2559
    1SOL    MW4 9212   2.234   2.459   3.756  0.1302 -0.1657  0.1354
    1SOL     OW 9213   2.189   2.728   3.847 -0.0272 -0.2021  0.7505
    1SOL    HW2 9214   2.171   2.715   3.940 -1.7160  0.0774  0.4827
    1SOL    HW3 9215   2.209   2.641   3.813  0.3978 -0.3312  1.3350
    1SOL    MW4 9216   2.189   2.715   3.855 -0.1938 -0.1822  0.7923
    1SOL     OW 9217   2.456   2.840   3.782  0.0127 -0.0417 -0.0153
    1SOL    HW2 9218   2.368   2.811   3.806  0.3032 -1.4169 -0.5884
    1SOL    HW3 9219   2.463   2.819   3.689  0.3906  1.5043 -0.3556
    1SOL    MW4 9220   2.445   2.834   3.773  0.1011 -0.0191 -0.1357
    1SOL     OW 9221   2.479   3.089   3.919 -0.1681  0.0002  0.0019
    1SOL    HW2 9222   2.458   3.069   4.010  0.7042 -0.8626  0.0332
    1SOL    HW3 9223   2.476   3.004   3.874  0.5021  0.2520 -0.5391
    1SOL    MW4 9224   2.476   3.075   3.925  0.0355 -0.0803 -0.0656
    1SOL     OW 9225   2.246   3.198   3.794 -0.6986  0.2853  0.2004
    1SOL    HW2 9226   2.241   3.293   3.810  1.6704  0.8755 -2.2567
    1SOL    HW3 9227   2.310   3.167   3.858 -0.2996  0.6273 -0.0250
    1SOL    MW4 9228   2.254   3.207   3.805 -0.3335  0.4084 -0.1533
    1SOL     OW 9229   2.238   3.458   3.912 -0.0439 -0.0739  0.0437
    1SOL    HW2 9230   2.239   3.457   4.008 -1.1232  1.1107  0.0727
    1SOL    HW3 9231   2.318   3.503   3.888  1.0765 -1.8340  0.3416
    1SOL    MW4 9232   2.248   3.464   3.922 -0.0384 -0.1495  0.0870
    1SOL     OW 9233   2.448   3.610   3.848 -0.9022  0.6637 -0.3138
    1SOL    HW2 9234   2.525   3.561   3.878 -0.2362  2.3918  0.8655
    1SOL    HW3 9235   2.450   3.602   3.752  1.6394  1.9436 -0.4236
    1SOL    MW4 9236   2.458   3.603   3.839 -0.4792  1.0602 -0.1729
    1SOL     OW 9237   2.497   3.887   3.914 -0.1190 -0.1295  0.0012
    1SOL    HW2 9238   2.581   3.923   3.883 -0.5508  0.2804 -0.7009
    1SOL    HW3 9239   2.492   3.801   3.872  0.2514 -0.4240  0.5574
    1SOL    MW4 9240   2.508   3.880   3.904 -0.1271 -0.1142 -0.0176
    1SOL     OW 9241   2.249   3.958   3.790  0.0125 -0.0842 -1.0062
    1SOL    HW2 9242   2.331   3.929   3.832 -0.2580  1.6995  0.8430
    1SOL    HW3 9243   2.265   3.948   3.697  1.4282 -2.1569 -0.5819
    1SOL    MW4 9244   2.262   3.953   3.783  0.1636 -0.1223 -0.7064
    1SOL     OW 9245   2.228   4.217   3.851 -0.4999  0.2082 -0.2721
    1SOL    HW2 9246   2.237   4.231   3.945 -1.4177 -1.0534  0.0066
    1SOL    HW3 9247   2.244   4.124   3.838  2.6774  0.8897 -1.7742
    1SOL    MW4 9248   2.231   4.207   3.861 -0.2017  0.1316 -0.4334
    1SOL     OW 9249   2.449   4.347   3.770 -0.6413 -0.0406 -0.5289
    1SOL    HW2 9250   2.369   4.303   3.801  0.0414 -0.3218  0.8404
    1SOL    HW3 9251   2.450   4.430   3.818 -0.5488  0.3251 -1.1687
    1SOL    MW4 9252   2.438   4.352   3.781 -0.5391 -0.0296 -0.4327
    1SOL     OW 9253   2.900   4.666   3.876  0.1332 -0.3555  0.2686
    1SOL    HW2 9254   2.899   4.664   3.972 -1.9990  1.5198  0.3009
    1SOL    HW3 9255   2.976   4.720   3.854 -0.6268  1.0090  0.9465
    1SOL    MW4 9256   2.910   4.673   3.886 -0.2484  0.0719  0.3624
    1SOL     OW 9257   2.666   0.092   3.787  0.2516 -0.2865  0.1494
    1SOL    HW2 9258   2.745   0.046   3.813 -0.0417 -1.1570 -0.4742
    1SOL    HW3 9259   2.673   0.101   3.692 -0.1499  0.0924  0.1529
    1SOL    MW4 9260   2.677   0.087   3.778  0.1600 -0.3514  0.0675
    1SOL     OW 9261   2.710   0.331   3.902 -0.0111  0.0607 -0.5016
    1SOL    HW2 9262   2.676   0.246   3.874 -0.8236  0.3345 -0.3490
    1SOL    HW3 9263   2.642   0.394   3.879  0.4338  0.6300 -0.2912
    1SOL    MW4 9264   2.697   0.328   3.895 -0.0596  0.1720 -0.4535
    1SOL     OW 9265   2.913   0.495   3.792 -0.0858 -0.6957 -0.0691
    1SOL    HW2 9266   2.998   0.461   3.820  0.2612 -0.0527 -0.3396
    1SOL    HW3 9267   2.850   0.432   3.826  0.4805 -1.0341  0.3600
    1SOL    MW4 9268   2.916   0.482   3.800  0.0346 -0.6555 -0.0484
    1SOL     OW 9269   2.871   0.769   3.878  0.0918 -0.3501 -0.3653
    1SOL    HW2 9270   2.956   0.811   3.864  0.2621 -0.8352 -0.8123
    1SOL    HW3 9271   2.886   0.678   3.855 -0.7053 -0.3184 -1.0044
    1SOL    MW4 9272   2.885   0.763   3.873  0.0088 -0.4099 -0.5085
    1SOL     OW 9273   2.650   0.878   3.768 -0.1838 -0.4072 -0.1894
    1SOL    HW2 9274   2.727   0.830   3.799 -1.0933 -0.1506  2.7055
    1SOL    HW3 9275   2.576   0.825   3.798 -1.1552  1.2451  0.3834
    1SOL    MW4 9276   2.650   0.864   3.776 -0.4320 -0.1554  0.2682
    1SOL     OW 9277   2.673   1.131   3.887  0.3065 -0.0095  0.2873
    1SOL    HW2 9278   2.668   1.041   3.854  0.7075  0.4022 -0.9268
    1SOL    HW3 9279   2.619   1.182   3.828  1.3437  0.8087  0.0197
    1SOL    MW4 9280   2.665   1.126   3.875  0.4961  0.1527  0.0920
    1SOL     OW 9281   2.919   1.258   3.776 -0.0460  0.2528 -0.3392
    1SOL    HW2 9282   2.912   1.353   3.777  1.3442  0.3605  0.8591
    1SOL    HW3 9283   2.843   1.228   3.827  0.2151  0.7779  0.3665
    1SOL    MW4 9284   2.908   1.266   3.783  0.1717  0.3363 -0.0880
    1SOL     OW 9285   2.921   1.522   3.818  0.2580  0.4767 -0.3567
    1SOL    HW2 9286   2.930   1.503   3.911 -0.6149  0.4893 -0.2631
    1SOL    HW3 9287   2.994   1.581   3.798 -1.5646  3.3569  1.1393
    1SOL    MW4 9288   2.932   1.527   3.827 -0.0978  0.8584 -0.1471
    1SOL     OW 9289   2.685   1.649   3.757  0.1829  0.1416  0.4261
    1SOL    HW2 9290   2.761   1.593   3.768 -0.6165 -1.0019  0.1959
    1SOL    HW3 9291   2.666   1.646   3.663 -0.2322  0.2911  0.5024
    1SOL    MW4 9292   2.692   1.641   3.746  0.0226  0.0105  0.4058
    1SOL     OW 9293   2.673   1.928   3.855  0.0646  0.8549  0.4355
    1SOL    HW2 9294   2.666   1.833   3.841  1.0521  0.7699  0.5013
    1SOL    HW3 9295   2.596   1.964   3.811 -0.4906 -0.0083  0.6886
    1SOL    MW4 9296   2.662   1.920   3.847  0.1214  0.7298  0.4776
    1SOL     OW 9297   2.915   2.070   3.778  0.0674 -0.2617  0.1265
    1SOL    HW2 9298   2.919   2.148   3.833 -0.7775  0.2629 -0.5543
    1SOL    HW3 9299   2.833   2.027   3.804  0.0069 -0.3717 -0.2500
    1SOL    MW4 9300   2.905   2.075   3.789 -0.0522 -0.2069 -0.0131
    1SOL     OW 9301   2.942   2.327   3.902 -0.1750  0.0298  0.2284
    1SOL    HW2 9302   2.928   2.337   3.996 -0.5912  0.6828  0.1050
    1SOL    HW3 9303   3.032   2.356   3.888 -0.6590  1.5883  0.1938
    1SOL    MW4 9304   2.952   2.332   3.913 -0.2937  0.3216  0.2074
    1SOL     OW 9305   2.685   2.415   3.785  0.4920 -0.0196  0.0541
    1SOL    HW2 9306   2.671   2.501   3.825  0.1480  0.3395 -0.8172
    1SOL    HW3 9307   2.756   2.376   3.836 -0.9027 -0.1892  1.9490
    1SOL    MW4 9308   2.692   2.421   3.797  0.2627  0.0055  0.1893
    1SOL     OW 9309   2.669   2.669   3.900  0.2683 -0.0900 -0.2257
    1SOL    HW2 9310   2.636   2.660   3.990  0.5840 -0.5096 -0.1513
    1SOL    HW3 9311   2.607   2.729   3.858  0.1311  0.1252  0.2778
    1SOL    MW4 9312   2.656   2.676   3.906  0.2918 -0.1171 -0.1495
    1SOL     OW 9313   2.901   2.822   3.816  0.4901  0.5685 -0.0318
    1SOL    HW2 9314   2.885   2.890   3.881  0.6149 -0.8160  1.4815
    1SOL    HW3 9315   2.826   2.763   3.825  0.1435  0.7437 -1.6546
    1SOL    MW4 9316   2.889   2.823   3.826  0.4609  0.4091 -0.0465
    1SOL     OW 9317   2.880   3.082   3.924  0.0843 -0.0301 -0.0346
    1SOL    HW2 9318   2.942   3.138   3.878  0.1459  0.5849  0.7796
    1SOL    HW3 9319   2.795   3.121   3.908  0.0837  0.0653  0.1971
    1SOL    MW4 9320   2.877   3.094   3.916  0.0923  0.0634  0.1037
    1SOL     OW 9321   2.674   3.237   3.805 -0.2391  0.0606 -0.0011
    1SOL    HW2 9322   2.665   3.315   3.861 -0.2225 -0.4122  0.6615
    1SOL    HW3 9323   2.608   3.177   3.837 -0.0509 -0.3130 -0.3203
    1SOL    MW4 9324   2.664   3.240   3.817 -0.2120 -0.0510  0.0441
    1SOL     OW 9325   2.671   3.465   3.960  0.6300 -0.0500 -0.2327
    1SOL    HW2 9326   2.684   3.456   4.054 -0.5533  3.3191  0.3177
    1SOL    HW3 9327   2.745   3.517   3.931  0.1719  0.2353 -0.8993
    1SOL    MW4 9328   2.682   3.470   3.969  0.4134  0.4320 -0.2480
    1SOL     OW 9329   2.888   3.601   3.842 -0.3493  0.0454 -0.0768
    1SOL    HW2 9330   2.971   3.557   3.862 -0.6944 -0.2667  0.6984
    1SOL    HW3 9331   2.871   3.580   3.751  0.3886  0.0447 -0.2181
    1SOL    MW4 9332   2.897   3.592   3.833 -0.2973  0.0038  0.0069
    1SOL     OW 9333   2.929   3.860   3.887 -0.0505 -0.0277  0.0141
    1SOL    HW2 9334   2.917   3.866   3.982 -1.4714 -2.4141  0.0332
    1SOL    HW3 9335   2.910   3.769   3.867 -0.6814  0.6722 -2.7050
    1SOL    MW4 9336   2.925   3.849   3.897 -0.3211 -0.2503 -0.3424
    1SOL     OW 9337   2.713   3.999   3.787  0.1803  0.4562  0.1209
    1SOL    HW2 9338   2.713   4.088   3.823 -0.9696 -0.0112  1.3214
    1SOL    HW3 9339   2.791   3.958   3.825  1.1317  1.1703 -1.0330
    1SOL    MW4 9340   2.723   4.005   3.797  0.1540  0.4888  0.1266
    1SOL     OW 9341   2.689   4.252   3.878 -0.4235 -0.2758  0.2429
    1SOL    HW2 9342   2.759   4.305   3.839 -0.6419 -0.5045 -0.4583
    1SOL    HW3 9343   2.608   4.297   3.853 -0.5087  0.4549  1.7417
    1SOL    MW4 9344   2.688   4.265   3.870 -0.4637 -0.2093  0.3483
    1SOL     OW 9345   2.922   4.405   3.782  0.0685  0.0451  0.1393
    1SOL    HW2 9346   2.999   4.360   3.816  0.3202 -0.4978 -1.1177
    1SOL    HW3 9347   2.933   4.495   3.811  0.6141 -0.2655  0.9175
    1SOL    MW4 9348   2.934   4.411   3.790  0.1736 -0.0677  0.0765
    1SOL     OW 9349   3.344   4.639   3.898 -0.0451  0.0697 -0.0699
    1SOL    HW2 9350   3.334   4.670   3.988 -2.1727  0.0836 -0.2988
    1SOL    HW3 9351   3.419   4.688   3.864  0.9902 -0.1885  1.7932
    1SOL    MW4 9352   3.353   4.649   3.905 -0.1893  0.0372  0.1454
    1SOL     OW 9353   3.143   0.135   3.787 -0.1855  0.6032 -0.2026
    1SOL    HW2 9354   3.207   0.066   3.808 -0.9941 -0.2228 -0.4462
    1SOL    HW3 9355   3.125   0.123   3.694  0.5570  1.8973 -0.5165
    1SOL    MW4 9356   3.149   0.124   3.778 -0.1941  0.6650 -0.2756
    1SOL     OW 9357   3.160   0.384   3.887 -0.1077 -0.3412  0.8141
    1SOL    HW2 9358   3.155   0.361   3.979 -0.9275 -1.3870  0.5221
    1SOL    HW3 9359   3.168   0.300   3.841 -1.8416  0.0121 -0.1932
    1SOL    MW4 9360   3.161   0.370   3.893 -0.4447 -0.4326  0.6425
    1SOL     OW 9361   3.390   0.527   3.791  0.0884 -0.1552 -0.8149
    1SOL    HW2 9362   3.463   0.484   3.835  0.0104 -0.8077 -1.3190
    1SOL    HW3 9363   3.316   0.467   3.801 -0.3019  0.3519 -0.5919
    1SOL    MW4 9364   3.390   0.513   3.798  0.0267 -0.1744 -0.8519
    1SOL     OW 9365   3.376   0.784   3.894 -0.0472  0.0710 -0.2816
    1SOL    HW2 9366   3.369   0.776   3.989  0.3406 -1.1858 -0.3531
    1SOL    HW3 9367   3.379   0.694   3.862 -0.3337  0.4802 -1.5035
    1SOL    MW4 9368   3.375   0.771   3.903 -0.0339 -0.0408 -0.4525
    1SOL     OW 9369   3.137   0.907   3.795  0.0245 -0.6079 -0.4770
    1SOL    HW2 9370   3.215   0.866   3.833 -0.2526 -1.5483 -0.9219
    1SOL    HW3 9371   3.146   0.894   3.701  0.1528  0.7481 -0.6632
    1SOL    MW4 9372   3.149   0.900   3.788  0.0050 -0.5531 -0.5603
    1SOL     OW 9373   3.160   1.169   3.883  0.9268 -0.4014 -0.1269
    1SOL    HW2 9374   3.151   1.079   3.852 -0.6557  0.4085 -2.1537
    1SOL    HW3 9375   3.082   1.214   3.850  2.3883  2.0534 -0.3849
    1SOL    MW4 9376   3.149   1.163   3.874  0.9108  0.0294 -0.4287
    1SOL     OW 9377   3.386   1.267   3.761  0.3328 -0.2646  0.1407
    1SOL    HW2 9378   3.311   1.240   3.814 -1.0864  1.3697 -0.9867
    1SOL    HW3 9379   3.356   1.260   3.671  0.9939  1.8453 -0.2812
    1SOL    MW4 9380   3.372   1.263   3.756  0.2329  0.2295 -0.0637
    1SOL     OW 9381   3.393   1.524   3.850  0.0303 -0.0936 -0.0697
    1SOL    HW2 9382   3.306   1.556   3.824  0.9815  0.6642 -2.4848
    1SOL    HW3 9383   3.396   1.434   3.817 -0.5192 -0.7667  1.6816
    1SOL    MW4 9384   3.382   1.517   3.842  0.0832 -0.0825 -0.1571
    1SOL     OW 9385   3.153   1.656   3.775 -0.2547 -0.3997  0.2389
    1SOL    HW2 9386   3.159   1.749   3.795  0.6362 -0.3888 -0.0385
    1SOL    HW3 9387   3.129   1.653   3.682  0.6475 -0.4403  0.0027
    1SOL    MW4 9388   3.151   1.668   3.765 -0.0181 -0.4036  0.1712
    1SOL     OW 9389   3.142   1.934   3.847 -0.1652 -0.2567 -0.5368
    1SOL    HW2 9390   3.134   1.946   3.941 -0.5177 -1.7516 -0.3667
    1SOL    HW3 9391   3.075   1.992   3.810 -1.3095 -1.0728  0.2188
    1SOL    MW4 9392   3.132   1.943   3.854 -0.3629 -0.5617 -0.4146
    1SOL     OW 9393   3.394   2.047   3.787  0.0709  0.1334  0.0294
    1SOL    HW2 9394   3.307   2.015   3.808  0.0874  0.4094  0.5503
    1SOL    HW3 9395   3.399   2.046   3.692 -0.5019  0.1173  0.0005
    1SOL    MW4 9396   3.383   2.043   3.778 -0.0024  0.1678  0.0944
    1SOL     OW 9397   3.384   2.292   3.929  0.2401 -0.2821 -0.0363
    1SOL    HW2 9398   3.303   2.333   3.900  0.0941 -0.4008  0.2086
    1SOL    HW3 9399   3.386   2.207   3.884  0.7709  0.1861 -0.9116
    1SOL    MW4 9400   3.374   2.286   3.919  0.2909 -0.2358 -0.1194
    1SOL     OW 9401   3.173   2.434   3.821 -0.0871 -0.0415 -0.2891
    1SOL    HW2 9402   3.181   2.522   3.857 -0.5018 -0.0145 -0.2549
    1SOL    HW3 9403   3.185   2.446   3.726  0.0572  0.0229 -0.2625
    1SOL    MW4 9404   3.176   2.447   3.813 -0.1230 -0.0296 -0.2811
    1SOL     OW 9405   3.150   2.702   3.927  0.5326 -0.4744 -0.0147
    1SOL    HW2 9406   3.131   2.707   4.021 -0.0117  1.6773 -0.2187
    1SOL    HW3 9407   3.079   2.752   3.886  1.8653  0.2787 -1.4309
    1SOL    MW4 9408   3.138   2.709   3.934  0.6366 -0.0916 -0.2286
    1SOL     OW 9409   3.372   2.821   3.815  0.1868 -0.2161 -0.1414
    1SOL    HW2 9410   3.291   2.774   3.834  0.7730 -0.9460  0.5920
    1SOL    HW3 9411   3.370   2.836   3.721  0.0870 -1.8994 -0.4165
    1SOL    MW4 9412   3.361   2.817   3.805  0.2511 -0.5343 -0.0811
    1SOL     OW 9413   3.314   3.081   3.923 -0.2406 -0.4707 -0.3427
    1SOL    HW2 9414   3.397   3.116   3.890  0.1319 -0.6497  0.4028
    1SOL    HW3 9415   3.327   2.986   3.926 -0.7575 -0.5763 -0.9856
    1SOL    MW4 9416   3.326   3.073   3.919 -0.2596 -0.5083 -0.3290
    1SOL     OW 9417   3.096   3.224   3.804 -0.7185 -0.4706  0.1299
    1SOL    HW2 9418   3.176   3.178   3.829 -1.5214 -2.2544 -0.5243
    1SOL    HW3 9419   3.095   3.219   3.709 -0.5626  1.3696  0.0151
    1SOL    MW4 9420   3.106   3.217   3.795 -0.8039 -0.4632  0.0286
    1SOL     OW 9421   3.137   3.474   3.927  0.3856  0.2357  0.8307
    1SOL    HW2 9422   3.212   3.517   3.886  0.5147  0.9066  1.7473
    1SOL    HW3 9423   3.127   3.391   3.879  2.2489 -0.2625  1.2721
    1SOL    MW4 9424   3.146   3.469   3.915  0.6485  0.2582  1.0102
    1SOL     OW 9425   3.347   3.594   3.769 -0.1149 -0.0104 -0.3472
    1SOL    HW2 9426   3.350   3.683   3.805  2.4007 -0.1957 -0.0091
    1SOL    HW3 9427   3.365   3.605   3.676 -0.6401 -0.0895 -0.4583
    1SOL    MW4 9428   3.349   3.607   3.762  0.1478 -0.0453 -0.3173
    1SOL     OW 9429   3.342   3.851   3.882  0.1303  0.1619  0.1050
    1SOL    HW2 9430   3.415   3.902   3.848  0.1283 -1.2845 -2.1156
    1SOL    HW3 9431   3.264   3.892   3.842  0.0700 -1.0338 -1.0219
    1SOL    MW4 9432   3.341   3.863   3.872  0.1221 -0.1867 -0.3364
    1SOL     OW 9433   3.142   4.007   3.800  0.1039  0.5112  0.0860
    1SOL    HW2 9434   3.138   4.096   3.835 -0.9284  0.6924 -0.4853
    1SOL    HW3 9435   3.060   3.966   3.829 -0.0984  0.2070 -0.8917
    1SOL    MW4 9436   3.130   4.013   3.809 -0.0591  0.4950 -0.1187
    1SOL     OW 9437   3.143   4.270   3.881 -0.3817  0.2117  0.5899
    1SOL    HW2 9438   3.154   4.257   3.975 -0.2349 -0.0701  0.5357
    1SOL    HW3 9439   3.222   4.318   3.854 -0.6338  0.6809  0.6865
    1SOL    MW4 9440   3.155   4.275   3.890 -0.3953  0.2365  0.5953
    1SOL     OW 9441   3.373   4.371   3.774  0.5648  0.1996 -0.0752
    1SOL    HW2 9442   3.444   4.319   3.811  0.5279  0.7649  0.7872
    1SOL    HW3 9443   3.394   4.461   3.797 -1.4586  0.1981  1.9146
    1SOL    MW4 9444   3.385   4.376   3.782  0.2930  0.2737  0.3011
    1SOL     OW 9445   3.792   4.660   3.873 -0.0277  0.5506  0.3835
    1SOL    HW2 9446   3.872   4.708   3.849 -0.6797  1.2691 -0.3694
    1SOL    HW3 9447   3.809   4.570   3.848  0.5332  0.7122  0.1811
    1SOL    MW4 9448   3.805   4.655   3.867 -0.0401  0.6666  0.2573
    1SOL     OW 9449   3.559   0.123   3.809 -0.1582  0.3353 -0.1848
    1SOL    HW2 9450   3.642   0.096   3.850  0.4900  3.3758  0.6600
    1SOL    HW3 9451   3.576   0.119   3.715  0.8824  0.7647 -0.0193
    1SOL    MW4 9452   3.572   0.119   3.802  0.0648  0.7931 -0.0513
    1SOL     OW 9453   3.571   0.374   3.921  0.1020 -0.5613  0.4994
    1SOL    HW2 9454   3.657   0.402   3.889  0.1071 -0.8992  0.2152
    1SOL    HW3 9455   3.559   0.287   3.883 -2.2836  1.2185 -3.0739
    1SOL    MW4 9456   3.581   0.366   3.912 -0.2120 -0.3710 -0.0093
    1SOL     OW 9457   3.806   0.469   3.812 -0.2010  0.0220  0.1042
    1SOL    HW2 9458   3.886   0.425   3.844  0.2152  0.2180 -0.6456
    1SOL    HW3 9459   3.812   0.558   3.846 -0.5132 -0.2054  0.7439
    1SOL    MW4 9460   3.818   0.475   3.820 -0.1874  0.0179  0.0899
    1SOL     OW 9461   3.842   0.740   3.880 -0.2556  0.4660  0.5324
    1SOL    HW2 9462   3.904   0.778   3.817 -0.5258 -0.2409 -0.1670
    1SOL    HW3 9463   3.760   0.786   3.863 -0.4870 -0.1628 -0.0570
    1SOL    MW4 9464   3.840   0.751   3.869 -0.3216  0.2898  0.3624
    1SOL     OW 9465   3.614   0.898   3.820  0.0849 -0.3327  0.3236
    1SOL    HW2 9466   3.616   0.989   3.852  0.2185 -0.1909 -0.0927
    1SOL    HW3 9467   3.526   0.867   3.843 -1.0065  0.8350 -2.1416
    1SOL    MW4 9468   3.602   0.906   3.827 -0.0417 -0.1599 -0.0565
    1SOL     OW 9469   3.619   1.177   3.858 -0.4789  0.6081 -0.2673
    1SOL    HW2 9470   3.690   1.208   3.802 -0.2016 -0.0244 -0.2701
    1SOL    HW3 9471   3.540   1.215   3.819 -0.0483  2.2547  0.3973
    1SOL    MW4 9472   3.618   1.186   3.845 -0.3853  0.7418 -0.1800
    1SOL     OW 9473   3.847   1.273   3.707  0.0101  0.1453 -0.5072
    1SOL    HW2 9474   3.916   1.224   3.750 -0.5219 -0.2758 -0.1347
    1SOL    HW3 9475   3.826   1.345   3.767 -0.9399 -0.6145  0.0878
    1SOL    MW4 9476   3.853   1.276   3.720 -0.1855 -0.0105 -0.3798
    1SOL     OW 9477   3.810   1.514   3.848 -0.0199  0.2862  0.0753
    1SOL    HW2 9478   3.820   1.536   3.940  0.3994  0.6595 -0.0575
    1SOL    HW3 9479   3.734   1.564   3.819 -1.0134 -0.9000  0.5539
    1SOL    MW4 9480   3.801   1.523   3.856 -0.0954  0.1789  0.1209
    1SOL     OW 9481   3.600   1.657   3.718  0.3057 -0.5606  0.0567
    1SOL    HW2 9482   3.524   1.612   3.757  1.1797 -1.8686  0.3025
    1SOL    HW3 9483   3.583   1.656   3.624 -0.3262 -0.1871  0.1619
    1SOL    MW4 9484   3.588   1.651   3.711  0.3378 -0.6839  0.1030
    1SOL     OW 9485   3.587   1.876   3.890 -0.6409 -0.6028  0.6199
    1SOL    HW2 9486   3.604   1.811   3.822 -0.3401  0.0931  0.0183
    1SOL    HW3 9487   3.520   1.934   3.853  0.1541  0.2945  0.5606
    1SOL    MW4 9488   3.581   1.875   3.876 -0.4964 -0.3927  0.5329
    1SOL     OW 9489   3.796   2.014   3.779 -0.5405 -0.1228 -0.3456
    1SOL    HW2 9490   3.875   1.973   3.815 -0.1012  0.4252 -0.6752
    1SOL    HW3 9491   3.724   1.971   3.825 -0.0914 -1.2974 -0.7319
    1SOL    MW4 9492   3.797   2.003   3.790 -0.4234 -0.2053 -0.4399
    1SOL     OW 9493   3.843   2.311   3.871  0.4620 -0.1344 -0.6572
    1SOL    HW2 9494   3.760   2.359   3.868  0.6741  0.4840  2.0349
    1SOL    HW3 9495   3.820   2.222   3.846 -0.8671  0.2228 -0.7619
    1SOL    MW4 9496   3.829   2.306   3.867  0.3147 -0.0057 -0.3157
    1SOL     OW 9497   3.598   2.413   3.797 -0.0436  0.5223 -0.4227
    1SOL    HW2 9498   3.524   2.373   3.841 -0.2958  0.6665 -0.7193
    1SOL    HW3 9499   3.576   2.411   3.704  0.1206  0.9761 -0.4759
    1SOL    MW4 9500   3.586   2.408   3.790 -0.0551  0.6013 -0.4690
    1SOL     OW 9501   3.582   2.678   3.930  0.2222  0.2176  0.4238
    1SOL    HW2 9502   3.592   2.589   3.898  0.0210  0.1324  0.5959
    1SOL    HW3 9503   3.500   2.708   3.891 -1.0147 -0.5478  2.3662
    1SOL    MW4 9504   3.572   2.670   3.921  0.0327  0.1051  0.7029
    1SOL     OW 9505   3.790   2.828   3.808  0.1012  0.7948  0.0028
    1SOL    HW2 9506   3.869   2.776   3.822 -0.3266  0.0952 -0.1654
    1SOL    HW3 9507   3.721   2.780   3.854 -0.5017  0.6615 -1.0255
    1SOL    MW4 9508   3.791   2.815   3.816 -0.0346  0.6850 -0.1550
    1SOL     OW 9509   3.782   3.091   3.892 -0.5876  0.1002  0.2836
    1SOL    HW2 9510   3.705   3.137   3.856 -1.6219 -0.5973  1.5421
    1SOL    HW3 9511   3.770   3.000   3.865  1.0111  0.3754 -1.4657
    1SOL    MW4 9512   3.770   3.085   3.884 -0.5131  0.0443  0.2191
    1SOL     OW 9513   3.536   3.219   3.808 -0.4176  0.0684  0.4114
    1SOL    HW2 9514   3.562   3.311   3.808  1.1719 -0.3573  0.9189
    1SOL    HW3 9515   3.540   3.193   3.716  1.9963 -0.2273  0.5548
    1SOL    MW4 9516   3.540   3.228   3.796  0.1106 -0.0267  0.4976
    1SOL     OW 9517   3.596   3.490   3.881 -0.2576 -0.1337  0.3369
    1SOL    HW2 9518   3.576   3.469   3.972  1.1627 -0.4631  0.5858
    1SOL    HW3 9519   3.516   3.531   3.848 -0.6968  0.2394  1.8120
    1SOL    MW4 9520   3.583   3.493   3.889 -0.1283 -0.1276  0.5643
    1SOL     OW 9521   3.841   3.613   3.809 -0.3414 -0.3971 -0.3460
    1SOL    HW2 9522   3.834   3.704   3.837 -0.7456 -0.4229 -0.3634
    1SOL    HW3 9523   3.765   3.569   3.848  0.0987 -0.8229  0.0370
    1SOL    MW4 9524   3.830   3.619   3.818 -0.3369 -0.4568 -0.2980
    1SOL     OW 9525   3.787   3.873   3.902 -0.1282  0.3372 -0.5382
    1SOL    HW2 9526   3.783   3.879   3.998 -0.2545 -0.5698 -0.4860
    1SOL    HW3 9527   3.857   3.933   3.877  0.4545 -0.0324  0.1837
    1SOL    MW4 9528   3.796   3.882   3.912 -0.0679  0.1688 -0.4361
    1SOL     OW 9529   3.567   3.974   3.774 -0.0148 -0.4723 -0.2084
    1SOL    HW2 9530   3.566   4.064   3.807  0.6219 -0.5591  0.0644
    1SOL    HW3 9531   3.641   3.933   3.820  1.0684 -0.5213 -1.9516
    1SOL    MW4 9532   3.577   3.981   3.785  0.2124 -0.4902 -0.4025
    1SOL     OW 9533   3.582   4.234   3.886  0.0697 -0.1465 -0.0790
    1SOL    HW2 9534   3.592   4.258   3.979 -0.1703  0.4146 -0.1942
    1SOL    HW3 9535   3.658   4.273   3.844  0.1357 -0.3309 -0.1304
    1SOL    MW4 9536   3.593   4.242   3.893  0.0470 -0.0963 -0.1011
    1SOL     OW 9537   3.819   4.387   3.795 -0.2848  0.1746 -0.1500
    1SOL    HW2 9538   3.910   4.358   3.801 -1.1010 -2.5254  0.0955
    1SOL    HW3 9539   3.807   4.408   3.702  0.9402  1.9281  0.0586
    1SOL    MW4 9540   3.830   4.386   3.783 -0.2308  0.0496 -0.0901
    1SOL     OW 9541   4.227   0.042   3.917 -0.1244  0.1671 -0.1715
    1SOL    HW2 9542   4.233   0.027   4.011  0.3011 -1.2130 -0.4172
    1SOL    HW3 9543   4.316   0.068   3.892 -0.2139  0.4316 -0.2185
    1SOL    MW4 9544   4.240   0.044   3.926 -0.0796  0.0200 -0.2103
    1SOL     OW 9545   4.016   0.135   3.789 -0.1069 -0.2543 -0.5315
    1SOL    HW2 9546   4.089   0.087   3.827 -0.1301  0.3581  0.2904
    1SOL    HW3 9547   4.031   0.131   3.694 -0.1305 -1.9220 -0.4898
    1SOL    MW4 9548   4.027   0.128   3.781 -0.1135 -0.3935 -0.4175
    1SOL     OW 9549   4.056   0.386   3.898  0.3513 -0.0927  0.4709
    1SOL    HW2 9550   4.055   0.385   3.994  1.5785 -0.9484  0.4984
    1SOL    HW3 9551   4.054   0.293   3.874 -0.4260  0.1316 -0.3490
    1SOL    MW4 9552   4.056   0.373   3.907  0.4106 -0.1760  0.3664
    1SOL     OW 9553   4.272   0.514   3.788 -0.6135 -0.1857 -0.1351
    1SOL    HW2 9554   4.214   0.460   3.842  0.4510 -1.3209 -0.0950
    1SOL    HW3 9555   4.262   0.479   3.700 -1.7358  1.1399 -0.5497
    1SOL    MW4 9556   4.263   0.502   3.784 -0.6208 -0.1605 -0.1845
    1SOL     OW 9557   4.253   0.771   3.878  0.1525 -0.2321  0.1317
    1SOL    HW2 9558   4.187   0.826   3.836 -0.9296 -0.5058  1.4189
    1SOL    HW3 9559   4.241   0.685   3.839  0.7933  0.0746 -0.7526
    1SOL    MW4 9560   4.243   0.767   3.868  0.0944 -0.2278  0.1853
    1SOL     OW 9561   4.038   0.885   3.747 -0.0103 -0.3392  0.5793
    1SOL    HW2 9562   4.044   0.973   3.786 -0.0775 -0.6698  1.3442
    1SOL    HW3 9563   4.024   0.901   3.654 -1.7873  0.4752  0.9644
    1SOL    MW4 9564   4.037   0.899   3.740 -0.2537 -0.2754  0.7310
    1SOL     OW 9565   4.031   1.144   3.857 -0.5201  0.5285 -0.1260
    1SOL    HW2 9566   4.021   1.128   3.951 -0.8557  0.4049 -0.1802
    1SOL    HW3 9567   4.108   1.200   3.850  0.9580 -1.4143  0.0359
    1SOL    MW4 9568   4.040   1.149   3.869 -0.3695  0.2559 -0.1118
    1SOL     OW 9569   4.248   1.289   3.781 -0.4060 -0.1021  0.0589
    1SOL    HW2 9570   4.235   1.380   3.807 -2.3359 -0.4175  0.2902
    1SOL    HW3 9571   4.242   1.291   3.685  0.7689  0.1844 -0.0140
    1SOL    MW4 9572   4.245   1.302   3.772 -0.5054 -0.1060  0.0796
    1SOL     OW 9573   4.233   1.537   3.869  0.0179  0.6811  0.1869
    1SOL    HW2 9574   4.156   1.572   3.826 -1.6119  0.0073  2.4808
    1SOL    HW3 9575   4.302   1.601   3.850 -0.8992  0.9297 -2.4639
    1SOL    MW4 9576   4.232   1.550   3.861 -0.3181  0.6250  0.1400
    1SOL     OW 9577   4.022   1.663   3.741 -0.2453  0.0998  0.1614
    1SOL    HW2 9578   4.011   1.741   3.795  1.5622  0.3578  0.1789
    1SOL    HW3 9579   3.947   1.608   3.763 -1.5549  1.8297  0.1323
    1SOL    MW4 9580   4.010   1.666   3.751 -0.1798  0.3620  0.1597
    1SOL     OW 9581   4.027   1.903   3.891  0.1645  0.5882  0.6138
    1SOL    HW2 9582   3.997   1.939   3.974 -0.2374  1.4455  0.1023
    1SOL    HW3 9583   4.099   1.960   3.864 -0.6179  1.1535 -0.3031
    1SOL    MW4 9584   4.032   1.915   3.898  0.0081  0.7758  0.4256
    1SOL     OW 9585   4.238   2.039   3.756  0.0238  0.2034 -0.5037
    1SOL    HW2 9586   4.257   2.126   3.791 -0.5273 -0.4871  1.5839
    1SOL    HW3 9587   4.224   2.053   3.662  1.1465  2.1670 -0.3983
    1SOL    MW4 9588   4.239   2.052   3.748  0.0992  0.3712 -0.2141
    1SOL     OW 9589   4.289   2.273   3.861 -0.1725  0.0597  0.5210
    1SOL    HW2 9590   4.274   2.278   3.956 -0.1424  0.7234  0.4886
    1SOL    HW3 9591   4.225   2.333   3.823 -0.5452 -0.6099  0.0789
    1SOL    MW4 9592   4.279   2.281   3.869 -0.2174  0.0589  0.4585
    1SOL     OW 9593   4.072   2.410   3.760 -0.3507  0.7471 -0.5684
    1SOL    HW2 9594   4.067   2.501   3.788 -0.2399  0.5884 -0.0293
    1SOL    HW3 9595   3.989   2.371   3.789 -0.4123  0.6840 -0.8271
    1SOL    MW4 9596   4.060   2.417   3.768 -0.3438  0.7179 -0.5314
    1SOL     OW 9597   4.035   2.669   3.859  0.0982 -0.1140  0.6635
    1SOL    HW2 9598   4.037   2.677   3.954  0.4545 -1.3789  0.7735
    1SOL    HW3 9599   4.117   2.708   3.829  0.1707 -0.0898  0.8965
    1SOL    MW4 9600   4.046   2.675   3.867  0.1550 -0.2778  0.7091
    1SOL     OW 9601   4.271   2.791   3.800  0.0135 -0.3116  0.0835
    1SOL    HW2 9602   4.286   2.880   3.831  0.7163  0.0590 -1.2898
    1SOL    HW3 9603   4.350   2.743   3.827  0.8356  0.1213 -1.5118
    1SOL    MW4 9604   4.284   2.796   3.808  0.2146 -0.2055 -0.3083
    1SOL     OW 9605   4.274   3.059   3.880  0.0888 -0.0071 -0.0218
    1SOL    HW2 9606   4.200   3.108   3.844  1.7775  1.2997 -1.8779
    1SOL    HW3 9607   4.351   3.098   3.837  1.8843 -1.0383  2.1593
    1SOL    MW4 9608   4.274   3.070   3.870  0.5488  0.0291  0.0212
    1SOL     OW 9609   4.039   3.187   3.808 -0.9201  0.0997 -0.5394
    1SOL    HW2 9610   3.955   3.151   3.836 -1.3147  1.0857 -0.4241
    1SOL    HW3 9611   4.028   3.203   3.714 -0.5875 -0.5032 -0.6843
    1SOL    MW4 9612   4.027   3.184   3.799 -0.9284  0.1504 -0.5434
    1SOL     OW 9613   4.050   3.457   3.898 -0.2774 -0.1939 -0.4161
    1SOL    HW2 9614   4.036   3.363   3.882  0.1202 -0.3440  0.1056
    1SOL    HW3 9615   3.974   3.499   3.859 -0.2859 -0.7072 -0.9712
    1SOL    MW4 9616   4.038   3.450   3.891 -0.2265 -0.2813 -0.4203
    1SOL     OW 9617   4.261   3.612   3.783  0.4313 -0.1306  0.0431
    1SOL    HW2 9618   4.191   3.563   3.826 -0.3207  0.1105 -0.8999
    1SOL    HW3 9619   4.341   3.564   3.806 -0.2811 -1.7860 -0.8326
    1SOL    MW4 9620   4.262   3.599   3.792  0.2384 -0.3173 -0.1969
    1SOL     OW 9621   4.229   3.881   3.855 -0.5915  0.2099  0.4634
    1SOL    HW2 9622   4.144   3.911   3.823 -0.6563 -0.5337 -0.0673
    1SOL    HW3 9623   4.240   3.794   3.816  1.4453  1.2349 -1.3560
    1SOL    MW4 9624   4.220   3.874   3.845 -0.3319  0.2470  0.1533
    1SOL     OW 9625   4.009   4.018   3.797 -0.2800 -0.3629 -0.5180
    1SOL    HW2 9626   4.039   4.100   3.835 -0.8625 -0.4796  0.2220
    1SOL    HW3 9627   4.029   4.025   3.704  0.6244  0.1790 -0.2854
    1SOL    MW4 9628   4.015   4.030   3.790 -0.2375 -0.3071 -0.3893
    1SOL     OW 9629   4.073   4.299   3.846  0.3106  0.0708  0.6863
    1SOL    HW2 9630   4.077   4.306   3.941 -0.1124 -0.8724  0.7743
    1SOL    HW3 9631   4.144   4.356   3.815  0.0766  0.8454  1.5345
    1SOL    MW4 9632   4.083   4.308   3.854  0.2241  0.0491  0.8099
    1SOL     OW 9633   4.296   4.455   3.782 -0.0340  0.1935  0.6897
    1SOL    HW2 9634   4.290   4.537   3.830  0.8779  0.1100  0.9397
    1SOL    HW3 9635   4.361   4.404   3.829 -0.5601 -0.6576  0.5019
    1SOL    MW4 9636   4.304   4.459   3.794  0.0172  0.0696  0.6981
    1SOL     OW 9637   0.168   0.006   4.138  0.4173  0.4860 -0.3854
    1SOL    HW2 9638   0.255   0.033   4.166  0.0103  0.6451  0.7470
    1SOL    HW3 9639   0.167  -0.089   4.151  0.2287  0.5597  0.1296
    1SOL    MW4 9640   0.179  -0.003   4.143  0.3387  0.5164 -0.1678
    1SOL     OW 9641   4.456   0.133   4.291  0.4738  0.2126  0.3528
    1SOL    HW2 9642   4.448   0.098   4.380  0.4219 -0.3016  0.1459
    1SOL    HW3 9643   4.531   0.087   4.253 -0.2199 -0.4240 -0.2671
    1SOL    MW4 9644   4.465   0.123   4.298  0.3753  0.0608  0.2437
    1SOL     OW 9645   0.028   0.387   4.186  0.3544  0.2344 -0.3662
    1SOL    HW2 9646   0.022   0.302   4.230  0.1164  0.4438  0.0119
    1SOL    HW3 9647  -0.007   0.372   4.099 -1.0577  0.2722  0.1717
    1SOL    MW4 9648   0.023   0.374   4.181  0.1367  0.2670 -0.2451
    1SOL     OW 9649   0.267   0.512   4.239 -0.3917 -0.4966 -0.1818
    1SOL    HW2 9650   0.338   0.449   4.222 -0.7461 -1.0402  0.3493
    1SOL    HW3 9651   0.187   0.462   4.227 -0.6975  0.1703 -0.9632
    1SOL    MW4 9652   0.266   0.497   4.235 -0.4788 -0.4803 -0.2146
    1SOL     OW 9653   0.253   0.737   4.075 -0.2265  0.6659 -0.1501
    1SOL    HW2 9654   0.190   0.798   4.113  1.4372  1.5277  1.3010
    1SOL    HW3 9655   0.261   0.667   4.141  0.4215  0.6283 -0.2693
    1SOL    MW4 9656   0.246   0.736   4.089  0.0785  0.7746  0.0257
    1SOL     OW 9657   0.046   0.881   4.207 -0.0953 -0.2447  0.4270
    1SOL    HW2 9658  -0.048   0.863   4.195 -0.4677  1.6996  0.1324
    1SOL    HW3 9659   0.053   0.976   4.195  2.1311 -0.5554 -0.9273
    1SOL    MW4 9660   0.034   0.891   4.204  0.1494 -0.0292  0.2098
    1SOL     OW 9661   4.466   1.143   4.144  0.1204 -0.5352 -0.0546
    1SOL    HW2 9662   4.541   1.195   4.173 -0.2548 -0.7757  1.4037
    1SOL    HW3 9663   4.469   1.147   4.049  0.1713  2.0225  0.0372
    1SOL    MW4 9664   4.476   1.150   4.136  0.0772 -0.2296  0.1502
    1SOL     OW 9665   0.179   1.300   4.226 -0.4196  0.1658  0.6010
    1SOL    HW2 9666   0.196   1.287   4.319  0.5651 -0.1169  0.3855
    1SOL    HW3 9667   0.239   1.240   4.182 -1.3233 -0.1611 -0.1993
    1SOL    MW4 9668   0.189   1.291   4.233 -0.4089  0.0855  0.4668
    1SOL     OW 9669   0.005   1.771   4.453 -0.3193  0.3436 -0.0584
    1SOL    HW2 9670   0.003   1.740   4.362 -0.4446 -0.7370  0.3107
    1SOL    HW3 9671  -0.058   1.843   4.454 -1.5131 -0.6661 -0.4608
    1SOL    MW4 9672  -0.004   1.777   4.441 -0.4933  0.0678 -0.0625
    1SOL     OW 9673   0.023   1.720   4.174 -0.3883 -0.1861 -0.1993
    1SOL    HW2 9674  -0.064   1.688   4.154 -0.1671 -0.6319 -0.4613
    1SOL    HW3 9675   0.027   1.808   4.136 -0.1899 -0.7768 -1.5589
    1SOL    MW4 9676   0.012   1.728   4.167 -0.3324 -0.3229 -0.4134
    1SOL     OW 9677   0.191   2.052   4.247  0.3226 -0.3598  0.0124
    1SOL    HW2 9678   0.178   2.050   4.341  1.0387 -0.5370  0.1106
    1SOL    HW3 9679   0.275   2.008   4.233  0.0775 -0.5989 -0.7302
    1SOL    MW4 9680   0.201   2.046   4.257  0.3848 -0.4146 -0.0730
    1SOL     OW 9681   0.527   1.685   4.503  0.1204  0.1678 -0.2671
    1SOL    HW2 9682   0.497   1.655   4.417 -1.3953  1.3535 -0.1661
    1SOL    HW3 9683   0.452   1.730   4.540  1.3022  1.1318  0.9937
    1SOL    MW4 9684   0.513   1.687   4.496  0.0764  0.4514 -0.0873
    1SOL     OW 9685   0.240   2.315   4.152  0.3985 -0.1637 -0.6737
    1SOL    HW2 9686   0.308   2.366   4.196 -1.2126  0.8699  0.6861
    1SOL    HW3 9687   0.243   2.230   4.196 -1.7751  1.1295  2.1662
    1SOL    MW4 9688   0.250   2.311   4.164 -0.1009  0.1431 -0.1192
    1SOL     OW 9689   4.486   2.428   4.278 -0.0662 -0.1088  0.3786
    1SOL    HW2 9690   4.409   2.394   4.233 -0.4937 -0.3171  1.2670
    1SOL    HW3 9691   4.560   2.382   4.237 -0.4865 -0.6124  0.1822
    1SOL    MW4 9692   4.486   2.418   4.266 -0.1783 -0.2029  0.4702
    1SOL     OW 9693   0.000   2.680   4.165 -0.2233  0.7875  0.0270
    1SOL    HW2 9694   0.081   2.722   4.195  1.2236 -1.0927 -1.1250
    1SOL    HW3 9695  -0.007   2.600   4.217 -1.1178  0.7220 -0.1839
    1SOL    MW4 9696   0.010   2.675   4.176 -0.1502  0.5305 -0.1526
    1SOL     OW 9697   0.233   2.811   4.261  0.5418 -0.2950  0.2573
    1SOL    HW2 9698   0.313   2.766   4.236  0.4412  0.1724 -0.9533
    1SOL    HW3 9699   0.236   2.895   4.214 -1.4302 -0.9688 -1.1686
    1SOL    MW4 9700   0.244   2.816   4.251  0.2684 -0.3221 -0.0906
    1SOL     OW 9701   0.227   3.051   4.125  0.4503  0.4257  0.0080
    1SOL    HW2 9702   0.305   3.097   4.157  0.4795  0.3524  0.0420
    1SOL    HW3 9703   0.154   3.095   4.168  0.4544  0.7040 -0.2770
    1SOL    MW4 9704   0.228   3.063   4.135  0.4547  0.4528 -0.0248
    1SOL     OW 9705   0.031   3.200   4.276 -0.1362 -0.0143 -0.6817
    1SOL    HW2 9706  -0.053   3.163   4.250 -1.0954  1.2373  0.6145
    1SOL    HW3 9707   0.034   3.286   4.234  0.3725  0.0688 -0.4791
    1SOL    MW4 9708   0.021   3.206   4.267 -0.1956  0.1619 -0.4840
    1SOL     OW 9709   0.053   3.441   4.136  0.3026  0.0714  0.0740
    1SOL    HW2 9710  -0.028   3.478   4.171 -0.1476  0.9689 -1.8774
    1SOL    HW3 9711   0.041   3.440   4.041  2.0039 -1.1411 -0.1531
    1SOL    MW4 9712   0.041   3.446   4.128  0.4676  0.0298 -0.2131
    1SOL     OW 9713   0.231   3.639   4.234  0.0978 -0.2938  0.1178
    1SOL    HW2 9714   0.306   3.580   4.222  0.7312  0.5470 -0.1410
    1SOL    HW3 9715   0.159   3.596   4.188  0.6022 -0.7777 -0.2243
    1SOL    MW4 9716   0.232   3.626   4.226  0.2479 -0.2468  0.0386
    1SOL     OW 9717   0.197   3.899   4.162  0.0583  0.0369  0.3150
    1SOL    HW2 9718   0.116   3.928   4.204 -0.0417 -0.4314  0.4482
    1SOL    HW3 9719   0.207   3.808   4.191  1.2079  0.4343  1.1867
    1SOL    MW4 9720   0.187   3.890   4.171  0.1968  0.0274  0.4478
    1SOL     OW 9721   4.429   3.980   4.253  0.2897 -0.7390  0.0957
    1SOL    HW2 9722   4.431   3.978   4.348  1.3359 -0.4757  0.0863
    1SOL    HW3 9723   4.381   3.902   4.228 -0.4364 -0.5417  0.8528
    1SOL    MW4 9724   4.423   3.970   4.262  0.3319 -0.6781  0.1950
    1SOL     OW 9725   4.437   4.252   4.203  0.0572  0.1334 -0.4705
    1SOL    HW2 9726   4.420   4.159   4.218  1.4614 -0.0757 -0.0821
    1SOL    HW3 9727   4.439   4.260   4.108 -0.0801 -0.2420 -0.5088
    1SOL    MW4 9728   4.435   4.241   4.193  0.2246  0.0563 -0.4244
    1SOL     OW 9729   0.191   4.407   4.221 -0.2063 -0.2124 -0.0627
    1SOL    HW2 9730   0.201   4.437   4.311  1.4579 -0.2244 -0.2258
    1SOL    HW3 9731   0.124   4.339   4.225 -0.8257  0.4598  1.0104
    1SOL    MW4 9732   0.184   4.402   4.233 -0.0684 -0.1254  0.0577
    1SOL     OW 9733   0.645   4.658   4.181 -0.6084 -0.2100  0.4047
    1SOL    HW2 9734   0.560   4.693   4.209 -0.3043  0.7450  0.1298
    1SOL    HW3 9735   0.637   4.647   4.087 -0.2287  0.4202  0.2996
    1SOL    MW4 9736   0.633   4.661   4.173 -0.5181 -0.0005  0.3548
    1SOL     OW 9737   0.396   0.079   4.271 -0.4202 -0.5344 -0.4019
    1SOL    HW2 9738   0.384   0.078   4.366 -1.6734  0.3582 -0.5435
    1SOL    HW3 9739   0.409   0.171   4.249 -1.0882 -0.6208 -1.2002
    1SOL    MW4 9740   0.396   0.091   4.281 -0.6737 -0.4281 -0.5260
    1SOL     OW 9741   0.454   0.331   4.174 -0.3875 -0.0986  0.3405
    1SOL    HW2 9742   0.535   0.367   4.212 -1.1080  0.8340  1.0172
    1SOL    HW3 9743   0.469   0.333   4.079  0.6556 -0.5745  0.4930
    1SOL    MW4 9744   0.467   0.336   4.167 -0.3449 -0.0384  0.4497
    1SOL     OW 9745   0.690   0.471   4.279 -0.0579 -0.5727 -0.9417
    1SOL    HW2 9746   0.772   0.440   4.240 -0.4868 -0.7534 -1.7039
    1SOL    HW3 9747   0.666   0.547   4.227 -0.2621 -0.3851 -0.5764
    1SOL    MW4 9748   0.698   0.477   4.267 -0.1415 -0.5718 -0.9937
    1SOL     OW 9749   0.665   0.713   4.140 -0.4941  0.1163 -0.0587
    1SOL    HW2 9750   0.590   0.766   4.165 -1.5753 -1.7787  0.8567
    1SOL    HW3 9751   0.682   0.736   4.048 -0.2335  2.7872  0.6176
    1SOL    MW4 9752   0.658   0.723   4.131 -0.6024  0.2186  0.1516
    1SOL     OW 9753   0.457   0.873   4.212 -0.0172  0.3769  0.2210
    1SOL    HW2 9754   0.435   0.965   4.199  0.7627  0.2314 -2.5137
    1SOL    HW3 9755   0.386   0.825   4.168  0.0132 -0.3235  0.9221
    1SOL    MW4 9756   0.444   0.878   4.204  0.0897  0.2653 -0.0472
    1SOL     OW 9757   0.387   1.137   4.139 -0.2403 -0.3370  0.4085
    1SOL    HW2 9758   0.475   1.159   4.167  0.7709 -4.4951  0.7776
    1SOL    HW3 9759   0.393   1.128   4.044 -0.3666 -0.2087  0.3867
    1SOL    MW4 9760   0.399   1.138   4.130 -0.1236 -0.8687  0.4544
    1SOL     OW 9761   0.636   1.213   4.219  0.3933 -0.0992  0.1675
    1SOL    HW2 9762   0.641   1.196   4.313 -0.8531  0.0287  0.2697
    1SOL    HW3 9763   0.646   1.308   4.211  0.0225 -0.0542  0.2174
    1SOL    MW4 9764   0.638   1.223   4.231  0.1799 -0.0765  0.1879
    1SOL     OW 9765   0.682   1.491   4.140 -0.3954  0.0126 -0.0273
    1SOL    HW2 9766   0.758   1.544   4.163 -1.0966  0.6215  0.9376
    1SOL    HW3 9767   0.669   1.507   4.046  1.2553 -0.8941 -0.4366
    1SOL    MW4 9768   0.690   1.500   4.130 -0.2701 -0.0267  0.0458
    1SOL     OW 9769   0.244   1.569   4.112  0.6354 -0.4146  0.1215
    1SOL    HW2 9770   0.232   1.490   4.164 -1.3169 -0.9077 -1.0346
    1SOL    HW3 9771   0.177   1.629   4.143  0.4520 -0.1548 -0.7462
    1SOL    MW4 9772   0.234   1.566   4.123  0.3536 -0.4452 -0.1450
    1SOL     OW 9773   0.429   1.937   4.186  0.1430 -0.1833 -0.1132
    1SOL    HW2 9774   0.435   1.848   4.220 -0.8499 -0.3797 -0.4256
    1SOL    HW3 9775   0.440   1.929   4.092 -0.9952 -0.1177 -0.2668
    1SOL    MW4 9776   0.431   1.924   4.178 -0.1382 -0.2005 -0.1745
    1SOL     OW 9777   0.675   2.053   4.247 -0.7090 -0.3725 -0.0569
    1SOL    HW2 9778   0.692   2.037   4.340  1.0922 -2.9585 -0.7843
    1SOL    HW3 9779   0.590   2.012   4.231 -1.2901  0.5698  0.5433
    1SOL    MW4 9780   0.666   2.046   4.258 -0.5480 -0.5894 -0.0739
    1SOL     OW 9781   0.669   2.304   4.133 -0.5966  0.6488 -0.3149
    1SOL    HW2 9782   0.679   2.216   4.170  1.0188  0.4853 -1.0967
    1SOL    HW3 9783   0.659   2.290   4.039  0.9115  1.3577 -0.5928
    1SOL    MW4 9784   0.669   2.291   4.126 -0.1845  0.7210 -0.4549
    1SOL     OW 9785   0.473   2.413   4.290  0.3013 -0.0393 -0.0837
    1SOL    HW2 9786   0.482   2.506   4.273  0.4684 -0.2268 -1.0205
    1SOL    HW3 9787   0.535   2.371   4.230  1.7477 -0.6474  1.7505
    1SOL    MW4 9788   0.483   2.420   4.280  0.5142 -0.1445  0.0348
    1SOL     OW 9789   0.466   2.665   4.194 -0.2161 -0.2881  0.5274
    1SOL    HW2 9790   0.542   2.718   4.218 -0.9727  0.9792  0.1641
    1SOL    HW3 9791   0.472   2.656   4.099 -2.0548  2.2696  0.1136
    1SOL    MW4 9792   0.477   2.671   4.185 -0.5585  0.2165  0.4244
    1SOL     OW 9793   0.676   2.829   4.243  0.6780  0.3613  0.0965
    1SOL    HW2 9794   0.696   2.831   4.337  0.5386 -0.6593  0.1549
    1SOL    HW3 9795   0.692   2.919   4.213 -0.7003  1.0598  1.3983
    1SOL    MW4 9796   0.681   2.842   4.252  0.4778  0.3188  0.2756
    1SOL     OW 9797   0.670   3.077   4.100 -0.4267 -0.2730  0.2235
    1SOL    HW2 9798   0.740   3.133   4.131  0.1640 -1.3839  0.9395
    1SOL    HW3 9799   0.590   3.115   4.136  0.0399 -0.3050  1.3163
    1SOL    MW4 9800   0.669   3.089   4.109 -0.2872 -0.4237  0.4625
    1SOL     OW 9801   0.447   3.209   4.235 -0.5223 -0.1590  0.0669
    1SOL    HW2 9802   0.465   3.206   4.329 -1.2677 -0.4386  0.2093
    1SOL    HW3 9803   0.456   3.301   4.212  0.0268 -0.1446  0.3387
    1SOL    MW4 9804   0.450   3.221   4.245 -0.5482 -0.1938  0.1221
    1SOL     OW 9805   0.458   3.474   4.171 -0.5947  0.1103  0.3092
    1SOL    HW2 9806   0.531   3.535   4.178 -0.5375 -0.1448  2.1316
    1SOL    HW3 9807   0.430   3.480   4.080  0.4883  1.6028  0.0680
    1SOL    MW4 9808   0.464   3.483   4.160 -0.4442  0.2732  0.5178
    1SOL     OW 9809   0.687   3.628   4.192 -0.0444 -0.1744 -0.0249
    1SOL    HW2 9810   0.684   3.633   4.287  0.1255 -1.1910  0.0362
    1SOL    HW3 9811   0.768   3.582   4.173  0.0660  0.2835 -0.6730
    1SOL    MW4 9812   0.697   3.622   4.202 -0.0074 -0.2482 -0.1020
    1SOL     OW 9813   0.673   3.895   4.093 -0.1674  0.0094 -0.1915
    1SOL    HW2 9814   0.589   3.925   4.129 -1.2982 -0.7239 -2.1773
    1SOL    HW3 9815   0.682   3.806   4.125  1.9776  1.4508  3.5937
    1SOL    MW4 9816   0.663   3.887   4.102 -0.0336  0.1030  0.0458
    1SOL     OW 9817   0.449   3.976   4.221  0.1917 -0.3646 -0.2055
    1SOL    HW2 9818   0.436   4.070   4.212 -0.3005 -0.5584 -1.7830
    1SOL    HW3 9819   0.362   3.938   4.205  0.6788 -1.1584 -1.0669
    1SOL    MW4 9820   0.436   3.983   4.218  0.1910 -0.4950 -0.5274
    1SOL     OW 9821   0.434   4.254   4.197  0.2524 -0.5902  0.6341
    1SOL    HW2 9822   0.347   4.292   4.201  0.4238 -0.1695  0.4157
    1SOL    HW3 9823   0.460   4.263   4.105  1.0605  0.5116  0.9601
    1SOL    MW4 9824   0.426   4.260   4.185  0.3817 -0.3896  0.6480
    1SOL     OW 9825   0.676   4.386   4.286  0.3817  0.3678 -0.6144
    1SOL    HW2 9826   0.589   4.352   4.266  0.3430 -0.8478  1.4000
    1SOL    HW3 9827   0.680   4.471   4.242 -1.8042  0.4286 -0.7486
    1SOL    MW4 9828   0.665   4.393   4.278  0.0882  0.2151 -0.3667
    1SOL     OW 9829   1.076   0.008   4.194  0.1321  0.4174  0.0975
    1SOL    HW2 9830   1.073  -0.088   4.203  2.0054  0.2969 -0.3084
    1SOL    HW3 9831   1.090   0.023   4.101  0.1578  1.0886  0.2081
    1SOL    MW4 9832   1.077  -0.003   4.183  0.3825  0.4902  0.0587
    1SOL     OW 9833   0.847   0.162   4.314  0.3902 -0.2004 -0.0155
    1SOL    HW2 9834   0.928   0.123   4.282  0.6895  0.6965 -0.3517
    1SOL    HW3 9835   0.778   0.108   4.275  0.7697  0.4027 -1.5737
    1SOL    MW4 9836   0.849   0.150   4.304  0.4798 -0.0025 -0.2656
    1SOL     OW 9837   0.909   0.361   4.142 -0.4308 -0.1414  0.1261
    1SOL    HW2 9838   0.998   0.383   4.171 -0.6317  0.1015  0.5623
    1SOL    HW3 9839   0.881   0.292   4.201 -0.9785  0.6054  0.7555
    1SOL    MW4 9840   0.917   0.355   4.154 -0.5295 -0.0108  0.2670
    1SOL     OW 9841   1.143   0.465   4.246  0.2999 -0.3404 -0.1556
    1SOL    HW2 9842   1.175   0.458   4.336  0.3265  1.1013 -0.0400
    1SOL    HW3 9843   1.213   0.431   4.192  0.8793  0.1352  0.2883
    1SOL    MW4 9844   1.156   0.460   4.251  0.3798 -0.0874 -0.0815
    1SOL     OW 9845   1.124   0.715   4.101  0.0973  0.0947 -0.1152
    1SOL    HW2 9846   1.198   0.755   4.148 -1.3277 -0.1437  2.4115
    1SOL    HW3 9847   1.112   0.630   4.144 -1.2059 -0.1686 -0.9895
    1SOL    MW4 9848   1.132   0.709   4.113 -0.2626  0.0286  0.1030
    1SOL     OW 9849   0.893   0.860   4.207  0.1182  0.0564  0.4709
    1SOL    HW2 9850   0.966   0.806   4.176  0.1930 -0.1164  0.9368
    1SOL    HW3 9851   0.814   0.816   4.174  0.2557  0.7111 -0.7458
    1SOL    MW4 9852   0.892   0.847   4.198  0.1462  0.1200  0.3719
    1SOL     OW 9853   0.893   1.135   4.115 -0.2262 -0.1151 -0.1598
    1SOL    HW2 9854   0.895   1.051   4.160  1.6989  0.0259  0.0377
    1SOL    HW3 9855   0.809   1.174   4.141  0.3016 -0.5586  2.3413
    1SOL    MW4 9856   0.882   1.129   4.125  0.0975 -0.1550  0.1965
    1SOL     OW 9857   1.083   1.291   4.225  0.0798  0.2099 -0.1886
    1SOL    HW2 9858   1.059   1.297   4.318  0.7269  0.8399 -0.0546
    1SOL    HW3 9859   1.019   1.230   4.188 -0.7805  0.6893  0.4686
    1SOL    MW4 9860   1.071   1.284   4.232  0.0516  0.3564 -0.0839
    1SOL     OW 9861   1.147   1.558   4.136  0.1816 -0.5823  0.0015
    1SOL    HW2 9862   1.068   1.589   4.182 -0.0285 -0.9621 -0.1009
    1SOL    HW3 9863   1.151   1.465   4.155  1.7409 -0.1875  1.6727
    1SOL    MW4 9864   1.137   1.550   4.144  0.3595 -0.5803  0.2079
    1SOL     OW 9865   0.908   1.674   4.232  0.0401 -0.0324 -0.1404
    1SOL    HW2 9866   0.877   1.677   4.323 -1.1278 -1.0251 -0.5065
    1SOL    HW3 9867   0.903   1.765   4.203 -1.5250 -0.0188  0.1449
    1SOL    MW4 9868   0.903   1.687   4.240 -0.3206 -0.1616 -0.1512
    1SOL     OW 9869   0.885   1.928   4.131  0.1381 -0.2784 -0.2285
    1SOL    HW2 9870   0.804   1.964   4.169 -1.0824 -2.9862 -0.1977
    1SOL    HW3 9871   0.870   1.932   4.037  0.1556 -0.3506 -0.2341
    1SOL    MW4 9872   0.872   1.934   4.124 -0.0206 -0.6452 -0.2251
    1SOL     OW 9873   1.141   2.017   4.204  0.2319  0.1406 -0.2725
    1SOL    HW2 9874   1.148   2.036   4.298 -0.2142 -0.1297 -0.1835
    1SOL    HW3 9875   1.047   2.005   4.189  0.2569  0.5916 -0.8335
    1SOL    MW4 9876   1.129   2.018   4.214  0.1762  0.1643 -0.3352
    1SOL     OW 9877   1.110   2.294   4.126  0.0831  0.5432 -0.1479
    1SOL    HW2 9878   1.194   2.325   4.160  0.0500  0.8920 -0.3823
    1SOL    HW3 9879   1.112   2.200   4.141  0.1908  0.6572  0.5618
    1SOL    MW4 9880   1.122   2.286   4.133  0.0929  0.6042 -0.0854
    1SOL     OW 9881   0.882   2.427   4.230 -0.0895  0.3227  0.3533
    1SOL    HW2 9882   0.960   2.381   4.199 -0.3170 -0.7209  1.2768
    1SOL    HW3 9883   0.809   2.375   4.195 -0.3476 -0.5446  2.1030
    1SOL    MW4 9884   0.883   2.414   4.221 -0.1535  0.0706  0.7057
    1SOL     OW 9885   0.907   2.694   4.139  0.1699 -0.4810 -0.2007
    1SOL    HW2 9886   0.896   2.604   4.169 -0.7279 -0.9294 -1.7852
    1SOL    HW3 9887   0.824   2.736   4.159  0.6623  0.0679  0.7268
    1SOL    MW4 9888   0.895   2.687   4.146  0.1165 -0.4675 -0.2880
    1SOL     OW 9889   1.117   2.820   4.273  0.4367  0.4535 -0.1334
    1SOL    HW2 9890   1.118   2.914   4.254 -0.0557  0.3728 -0.5893
    1SOL    HW3 9891   1.042   2.787   4.223  0.9934 -0.2851 -0.4826
    1SOL    MW4 9892   1.107   2.828   4.264  0.4451  0.3457 -0.2398
    1SOL     OW 9893   1.109   3.086   4.199  0.1079  0.7027  0.0889
    1SOL    HW2 9894   1.191   3.131   4.220 -0.2181  1.1291  0.4794
    1SOL    HW3 9895   1.098   3.098   4.105  0.3693  0.8585  0.0786
    1SOL    MW4 9896   1.118   3.094   4.189  0.0994  0.7796  0.1388
    1SOL     OW 9897   0.864   3.226   4.247  0.3686 -0.0682 -0.5414
    1SOL    HW2 9898   0.833   3.202   4.334  0.8550  1.0606 -0.0445
    1SOL    HW3 9899   0.954   3.191   4.243  0.0061 -0.9801 -0.9724
    1SOL    MW4 9900   0.872   3.218   4.258  0.3850 -0.0393 -0.5326
    1SOL     OW 9901   0.926   3.468   4.126 -0.0594 -0.0021  0.1058
    1SOL    HW2 9902   0.906   3.381   4.160  1.3634 -1.0344 -1.6067
    1SOL    HW3 9903   0.900   3.464   4.034 -0.8089  1.6769  0.2388
    1SOL    MW4 9904   0.920   3.456   4.118  0.0294  0.0830 -0.1030
    1SOL     OW 9905   1.140   3.614   4.223 -0.0329 -0.3499  0.0819
    1SOL    HW2 9906   1.119   3.702   4.191  1.6860  0.3183  0.7406
    1SOL    HW3 9907   1.063   3.562   4.200 -0.7727  1.1517 -0.9770
    1SOL    MW4 9908   1.127   3.619   4.216  0.0964 -0.0634  0.0296
    1SOL     OW 9909   1.100   3.907   4.166 -0.0964 -0.3596 -0.1177
    1SOL    HW2 9910   1.171   3.958   4.206 -1.1184  0.2641  0.9166
    1SOL    HW3 9911   1.021   3.938   4.210 -0.7829 -2.5135  0.2079
    1SOL    MW4 9912   1.099   3.918   4.177 -0.3217 -0.5615  0.0625
    1SOL     OW 9913   0.853   4.017   4.264 -0.0076  0.4954 -0.0243
    1SOL    HW2 9914   0.869   4.105   4.230 -0.8140  1.3558  1.7044
    1SOL    HW3 9915   0.788   3.979   4.205  0.2393  1.1344 -0.7007
    1SOL    MW4 9916   0.846   4.024   4.252 -0.0814  0.6933  0.1140
    1SOL     OW 9917   0.896   4.254   4.139 -0.3975 -0.4705 -0.2628
    1SOL    HW2 9918   0.975   4.283   4.185 -0.3376 -0.6017 -0.2809
    1SOL    HW3 9919   0.824   4.291   4.190 -0.3382 -0.7992  0.0689
    1SOL    MW4 9920   0.897   4.262   4.152 -0.3818 -0.5312 -0.2217
    1SOL     OW 9921   1.129   4.396   4.244 -0.0142  0.8998  0.0940
    1SOL    HW2 9922   1.145   4.422   4.335 -0.4909 -2.2276  1.1313
    1SOL    HW3 9923   1.212   4.358   4.215 -0.3744  0.3469 -0.2196
    1SOL    MW4 9924   1.142   4.394   4.252 -0.1245  0.4139  0.1898
    1SOL     OW 9925   1.563   4.651   4.120  0.3288  0.5856 -0.5402
    1SOL    HW2 9926   1.643   4.686   4.157  0.1424  0.4467 -0.0039
    1SOL    HW3 9927   1.493   4.705   4.157 -0.0382 -0.8798  0.9919
    1SOL    MW4 9928   1.564   4.663   4.130  0.2557  0.3734 -0.2670
    1SOL     OW 9929   1.334   0.128   4.205 -0.3635  0.2998  0.2801
    1SOL    HW2 9930   1.345   0.163   4.294 -0.4089  1.9722 -0.3467
    1SOL    HW3 9931   1.256   0.073   4.210  0.9241 -1.4270  1.7984
    1SOL    MW4 9932   1.325   0.125   4.218 -0.1997  0.2926  0.3982
    1SOL     OW 9933   1.341   0.379   4.100 -0.0864 -0.0132  0.4033
    1SOL    HW2 9934   1.412   0.421   4.148 -0.9526  0.8517  0.9530
    1SOL    HW3 9935   1.346   0.287   4.126 -0.1776  0.3456  1.7173
    1SOL    MW4 9936   1.351   0.372   4.110 -0.2126  0.1482  0.6490
    1SOL     OW 9937   1.557   0.463   4.213 -0.2018 -0.2307 -0.5920
    1SOL    HW2 9938   1.539   0.473   4.306  0.8613 -0.6192 -0.3406
    1SOL    HW3 9939   1.557   0.552   4.179  0.2777 -0.0221 -0.0515
    1SOL    MW4 9940   1.555   0.476   4.221  0.0018 -0.2544 -0.4869
    1SOL     OW 9941   1.542   0.722   4.101 -0.2009 -0.3393  0.1059
    1SOL    HW2 9942   1.620   0.774   4.118 -1.5235  0.9873  2.2864
    1SOL    HW3 9943   1.539   0.714   4.005  1.3753  1.4681 -0.1243
    1SOL    MW4 9944   1.552   0.727   4.090 -0.1674  0.0741  0.3633
    1SOL     OW 9945   1.320   0.859   4.250  0.2184  0.2232 -0.1152
    1SOL    HW2 9946   1.302   0.950   4.228  0.4705  0.3186  0.0805
    1SOL    HW3 9947   1.389   0.833   4.189 -0.1025  0.0580 -0.4089
    1SOL    MW4 9948   1.327   0.868   4.239  0.2095  0.2140 -0.1287
    1SOL     OW 9949   1.309   1.133   4.165 -0.3070  0.0621 -0.0233
    1SOL    HW2 9950   1.234   1.185   4.195 -1.6716 -1.7500 -0.2284
    1SOL    HW3 9951   1.299   1.131   4.069  1.0970  1.4208 -0.2201
    1SOL    MW4 9952   1.298   1.140   4.156 -0.3017  0.0021 -0.0763
    1SOL     OW 9953   1.557   1.257   4.239  0.0804  0.1585 -0.1941
    1SOL    HW2 9954   1.539   1.246   4.332 -0.1310  2.5425  0.0925
    1SOL    HW3 9955   1.483   1.216   4.194  0.0555 -0.7688  0.6893
    1SOL    MW4 9956   1.545   1.250   4.245  0.0494  0.3506 -0.0396
    1SOL     OW 9957   1.590   1.511   4.114 -0.2052 -0.1905 -0.4710
    1SOL    HW2 9958   1.537   1.578   4.157 -0.5157 -0.4267 -0.4851
    1SOL    HW3 9959   1.564   1.429   4.156  0.9065 -0.1884  0.2672
    1SOL    MW4 9960   1.580   1.509   4.125 -0.0995 -0.2213 -0.3753
    1SOL     OW 9961   1.399   1.661   4.215 -0.3070 -0.0410 -0.2755
    1SOL    HW2 9962   1.403   1.750   4.181 -1.0989  0.3207  0.5640
    1SOL    HW3 9963   1.313   1.629   4.187 -0.8067  0.1231  1.0309
    1SOL    MW4 9964   1.388   1.668   4.207 -0.4774  0.0284  0.0076
    1SOL     OW 9965   1.405   1.941   4.148 -0.0319  0.3690 -0.6957
    1SOL    HW2 9966   1.463   2.002   4.193  1.0548 -1.8420  1.0089
    1SOL    HW3 9967   1.317   1.969   4.173  0.5187  0.0862  1.7082
    1SOL    MW4 9968   1.401   1.952   4.157  0.1842  0.0399 -0.1535
    1SOL     OW 9969   1.590   2.125   4.240 -0.0376  0.0150 -0.1121
    1SOL    HW2 9970   1.661   2.073   4.202 -1.0748 -1.7349  0.2956
    1SOL    HW3 9971   1.598   2.211   4.198  2.2084 -0.2061 -0.1821
    1SOL    MW4 9972   1.601   2.129   4.229  0.1218 -0.2451 -0.0668
    1SOL     OW 9973   1.582   2.382   4.105  0.6126  0.0217 -0.0370
    1SOL    HW2 9974   1.649   2.446   4.126  0.9809 -0.5627  0.5710
    1SOL    HW3 9975   1.577   2.383   4.009 -0.0686  1.6532 -0.0015
    1SOL    MW4 9976   1.590   2.391   4.095  0.5713  0.1600  0.0477
    1SOL     OW 9977   1.345   2.429   4.220 -0.1542  0.1252  0.0715
    1SOL    HW2 9978   1.331   2.520   4.194 -2.4893 -0.7071 -1.7537
    1SOL    HW3 9979   1.420   2.400   4.169 -0.8092  0.3835 -1.0547
    1SOL    MW4 9980   1.353   2.437   4.210 -0.5487  0.0494 -0.3176
    1SOL     OW 9981   1.329   2.692   4.139 -0.1449 -0.4520  0.4573
    1SOL    HW2 9982   1.415   2.732   4.153  0.3607 -0.5605 -2.0018
    1SOL    HW3 9983   1.269   2.744   4.193  1.0702  1.3331  0.1432
    1SOL    MW4 9984   1.332   2.705   4.148  0.0821 -0.2308  0.0916
    1SOL     OW 9985   1.485   2.309   4.611 -0.3823 -0.5819 -0.1595
    1SOL    HW2 9986   1.510   2.366   4.538  0.1969 -1.4171 -0.6124
    1SOL    HW3 9987   1.528   2.226   4.593  0.6038 -0.4928  1.6584
    1SOL    MW4 9988   1.494   2.306   4.599 -0.1757 -0.6804  0.0205
    1SOL     OW 9989   1.566   3.066   4.181 -0.3490 -0.0097  0.3704
    1SOL    HW2 9990   1.637   3.126   4.207 -1.5584  1.8906 -0.6148
    1SOL    HW3 9991   1.486   3.109   4.210 -1.2375 -1.2651 -0.1618
    1SOL    MW4 9992   1.565   3.079   4.188 -0.6257  0.0753  0.1702
    1SOL     OW 9993   1.340   3.216   4.252 -0.4046  0.0817 -0.5553
    1SOL    HW2 9994   1.328   3.220   4.347  1.2789 -1.3193 -0.2603
    1SOL    HW3 9995   1.329   3.307   4.223 -0.8327  0.5400  0.9859
    1SOL    MW4 9996   1.337   3.229   4.261 -0.2389 -0.0424 -0.3123
    1SOL     OW 9997   1.348   3.489   4.134 -0.0053  0.2204  0.0145
    1SOL    HW2 9998   1.268   3.535   4.157 -0.8371 -0.2681 -1.8355
    1SOL    HW3 9999   1.347   3.484   4.038  1.0589 -1.8534  0.0747
    1SOL    MW410000   1.338   3.494   4.124  0.0254 -0.1175 -0.2213
    1SOL     OW10001   1.534   3.630   4.291  0.4386  0.2094  0.0065
    1SOL    HW210002   1.515   3.598   4.379 -0.8829  0.4030 -0.2021
    1SOL    HW310003   1.466   3.592   4.235 -0.4754  2.3945 -0.4407
    1SOL    MW410004   1.523   3.621   4.295  0.1436  0.5233 -0.0801
    1SOL     OW10005   1.531   3.888   4.165 -0.0541 -0.2398  0.0946
    1SOL    HW210006   1.462   3.937   4.211  0.6151  0.9224 -0.1237
    1SOL    HW310007   1.545   3.811   4.220 -1.4209 -0.4226  0.2189
    1SOL    MW410008   1.523   3.884   4.179 -0.1462 -0.1106  0.0825
    1SOL     OW10009   1.305   4.044   4.282 -0.0065  0.0312 -0.1263
    1SOL    HW210010   1.334   4.041   4.373  0.6882 -0.6023 -0.3630
    1SOL    HW310011   1.329   4.132   4.252 -0.6615  0.4057  0.4347
    1SOL    MW410012   1.312   4.056   4.290 -0.0013 -0.0029 -0.0839
    1SOL     OW10013   1.371   4.281   4.161  0.6961  0.2003  0.0474
    1SOL    HW210014   1.454   4.322   4.187  0.0602  1.4157  0.2398
    1SOL    HW310015   1.372   4.283   4.065  1.7552 -1.5982  0.0145
    1SOL    MW410016   1.382   4.287   4.152  0.7520  0.1230  0.0682
    1SOL     OW10017   1.611   4.408   4.248 -0.2574  0.3605  0.3162
    1SOL    HW210018   1.597   4.487   4.196  2.0894  1.5404  1.4106
    1SOL    HW310019   1.665   4.352   4.192 -2.1765 -0.6483 -0.5831
    1SOL    MW410020   1.617   4.411   4.234 -0.2009  0.3834  0.3419
    1SOL     OW10021   2.036   4.614   4.136  0.0332  0.2401  0.1801
    1SOL    HW210022   1.968   4.661   4.183 -1.0532 -1.6832  0.5895
    1SOL    HW310023   2.015   4.628   4.043  0.3488  1.4219  0.2786
    1SOL    MW410024   2.024   4.622   4.130 -0.0684  0.1426  0.2470
    1SOL     OW10025   1.787   0.099   4.246 -0.1145  0.0734  0.0285
    1SOL    HW210026   1.736   0.106   4.327  0.9789  1.2080  0.6424
    1SOL    HW310027   1.803   0.190   4.221  2.0139 -0.2618  0.1261
    1SOL    MW410028   1.782   0.112   4.254  0.3105  0.1789  0.1225
    1SOL     OW10029   1.806   0.374   4.149 -0.1558  0.3781  0.1181
    1SOL    HW210030   1.864   0.414   4.214 -0.4058 -0.1667  0.6847
    1SOL    HW310031   1.718   0.398   4.177 -0.2347  0.7518 -0.4368
    1SOL    MW410032   1.802   0.382   4.161 -0.1993  0.3555  0.1192
    1SOL     OW10033   2.014   0.499   4.313  0.3196  0.5616  0.2581
    1SOL    HW210034   2.020   0.471   4.404  0.6689  0.7678  0.2975
    1SOL    HW310035   2.078   0.445   4.266 -0.6708 -0.3551 -0.0626
    1SOL    MW410036   2.023   0.488   4.318  0.2348  0.4679  0.2208
    1SOL     OW10037   2.016   0.732   4.149  0.8403 -0.2349  0.4220
    1SOL    HW210038   2.086   0.785   4.187  0.2553 -0.7615  2.3172
    1SOL    HW310039   2.018   0.650   4.200 -2.0209  0.2778  1.4328
    1SOL    MW410040   2.026   0.728   4.161  0.3855 -0.2367  0.8054
    1SOL     OW10041   1.758   0.846   4.203 -0.7071 -0.2047 -0.1898
    1SOL    HW210042   1.784   0.938   4.198 -1.8412  0.2310  1.5220
    1SOL    HW310043   1.837   0.798   4.177 -0.1809  1.2419 -1.3522
    1SOL    MW410044   1.772   0.852   4.199 -0.7873  0.0436 -0.1163
    1SOL     OW10045   1.806   1.118   4.202 -0.3706 -0.1737 -0.0848
    1SOL    HW210046   1.879   1.171   4.235  0.0482 -0.5137 -0.4553
    1SOL    HW310047   1.728   1.166   4.229 -0.0053  0.3362  0.0841
    1SOL    MW410048   1.805   1.132   4.210 -0.2673 -0.1513 -0.1116
    1SOL     OW10049   2.030   1.255   4.302 -0.0200  0.2135 -0.1431
    1SOL    HW210050   2.097   1.212   4.249  1.4125 -0.9357  2.5024
    1SOL    HW310051   2.039   1.348   4.282  0.8218 -0.1541 -1.5162
    1SOL    MW410052   2.040   1.262   4.292  0.2801  0.0135  0.0248
    1SOL     OW10053   2.069   1.535   4.234 -0.1448  0.2941  0.2663
    1SOL    HW210054   2.143   1.592   4.258  0.3321  0.5214 -1.6728
    1SOL    HW310055   2.070   1.534   4.138 -1.5223 -1.2157  0.2588
    1SOL    MW410056   2.079   1.543   4.224 -0.2637  0.1249  0.0091
    1SOL     OW10057   1.807   1.644   4.228 -0.1932  0.3940 -0.4622
    1SOL    HW210058   1.887   1.592   4.241 -0.3988  0.3680  0.7057
    1SOL    HW310059   1.749   1.586   4.179  0.0182 -0.0504 -0.1874
    1SOL    MW410060   1.810   1.629   4.223 -0.1925  0.3320 -0.2713
    1SOL     OW10061   1.796   1.954   4.149  0.1947 -0.0140  0.1449
    1SOL    HW210062   1.811   1.867   4.184 -0.0723  0.1941  0.7795
    1SOL    HW310063   1.871   2.006   4.180 -0.7619  0.5146  1.5843
    1SOL    MW410064   1.808   1.950   4.158  0.0333  0.0833  0.4187
    1SOL     OW10065   1.834   2.373   4.292 -0.3563 -0.0056  0.7721
    1SOL    HW210066   1.857   2.464   4.311 -1.0040  0.4529 -0.5670
    1SOL    HW310067   1.900   2.345   4.229 -1.2855  0.1723 -0.3096
    1SOL    MW410068   1.846   2.381   4.286 -0.5645  0.0782  0.4525
    1SOL     OW10069   2.078   2.318   4.130  0.2487 -0.1754  0.3061
    1SOL    HW210070   2.061   2.340   4.039  0.3779 -0.1812  0.2793
    1SOL    HW310071   2.150   2.375   4.156 -0.4882  0.5655  0.7242
    1SOL    MW410072   2.086   2.328   4.122  0.1686 -0.0782  0.3581
    1SOL     OW10073   1.978   2.610   4.263 -0.6320 -0.8099  0.8312
    1SOL    HW210074   2.036   2.651   4.200 -1.4528 -1.3247 -0.2760
    1SOL    HW310075   2.030   2.603   4.343  0.6166 -0.6978  0.0444
    1SOL    MW410076   1.992   2.614   4.265 -0.5757 -0.8631  0.5813
    1SOL     OW10077   1.743   2.619   4.118  0.5854  0.5613  0.2111
    1SOL    HW210078   1.821   2.643   4.167  0.6270  2.4162 -0.7414
    1SOL    HW310079   1.677   2.684   4.145 -0.4130 -0.5145  0.4208
    1SOL    MW410080   1.744   2.631   4.128  0.4592  0.6640  0.1130
    1SOL     OW10081   1.739   2.972   4.517 -0.2291 -0.2555 -0.2195
    1SOL    HW210082   1.822   3.003   4.554 -0.8746 -0.5525  1.4790
    1SOL    HW310083   1.687   3.052   4.505 -0.5458 -0.3122  0.8060
    1SOL    MW410084   1.743   2.987   4.520 -0.3560 -0.3021  0.1397
    1SOL     OW10085   2.247   3.092   4.334  0.3919 -0.1616 -0.3652
    1SOL    HW210086   2.181   3.120   4.270 -2.2948  0.4716  2.5864
    1SOL    HW310087   2.215   3.008   4.366  0.2154  0.8080  2.1176
    1SOL    MW410088   2.234   3.085   4.329  0.0141  0.0501  0.3514
    1SOL     OW10089   1.773   3.237   4.247  0.9017 -0.2712  0.1066
    1SOL    HW210090   1.778   3.328   4.216  0.2383  0.1409  1.1948
    1SOL    HW310091   1.863   3.206   4.243  1.4317  1.0215  1.4830
    1SOL    MW410092   1.785   3.245   4.242  0.8842 -0.0463  0.4315
    1SOL     OW10093   1.774   3.499   4.168 -0.3287 -0.5463  0.1330
    1SOL    HW210094   1.693   3.532   4.209 -0.6579 -1.6463  0.3819
    1SOL    HW310095   1.753   3.491   4.075 -0.1862  0.1047  0.0376
    1SOL    MW410096   1.761   3.503   4.161 -0.3533 -0.6056  0.1535
    1SOL     OW10097   1.997   3.622   4.279 -0.0208  0.4715  0.0681
    1SOL    HW210098   1.997   3.713   4.252 -0.8676  0.4301 -0.1102
    1SOL    HW310099   1.927   3.582   4.227 -1.2124  0.2384  1.7997
    1SOL    MW410100   1.987   3.628   4.269 -0.2898  0.4354  0.2728
    1SOL     OW10101   2.008   3.892   4.187  0.5678  0.0629 -0.0743
    1SOL    HW210102   1.921   3.929   4.204  1.0095  0.4250  1.4012
    1SOL    HW310103   2.013   3.888   4.091 -0.8946  0.4680 -0.1826
    1SOL    MW410104   1.997   3.897   4.176  0.4333  0.1640  0.1063
    1SOL     OW10105   1.759   4.007   4.265  0.2661  0.0560  0.1439
    1SOL    HW210106   1.768   4.088   4.214 -0.3018 -0.2291 -0.4289
    1SOL    HW310107   1.681   3.965   4.228  0.3688 -0.5912  0.6598
    1SOL    MW410108   1.750   4.013   4.253  0.2047 -0.0668  0.1364
    1SOL     OW10109   1.808   4.220   4.101 -0.1872 -0.5453 -0.3204
    1SOL    HW210110   1.888   4.259   4.138 -0.8497  1.3208 -0.7988
    1SOL    HW310111   1.813   4.238   4.008 -0.8683 -0.9930 -0.4478
    1SOL    MW410112   1.819   4.227   4.094 -0.3644 -0.3581 -0.4010
    1SOL     OW10113   2.025   4.342   4.199 -0.6170  0.5844 -0.2943
    1SOL    HW210114   2.018   4.333   4.294  1.3096  0.1861 -0.1726
    1SOL    HW310115   2.039   4.435   4.185  0.8074  0.4144 -0.0581
    1SOL    MW410116   2.026   4.353   4.210 -0.1750  0.5097 -0.2470
    1SOL     OW10117   2.451   4.616   4.149 -0.1550 -0.3464  0.1283
    1SOL    HW210118   2.514   4.668   4.200  0.0807 -0.0703 -0.4332
    1SOL    HW310119   2.450   4.531   4.191  0.3695 -0.2545  0.3293
    1SOL    MW410120   2.459   4.612   4.161 -0.0548 -0.2980  0.0806
    1SOL     OW10121   2.237   0.081   4.255  0.1995 -0.3257 -0.2958
    1SOL    HW210122   2.316   0.043   4.215 -0.1346  0.7127 -1.9802
    1SOL    HW310123   2.165   0.036   4.211 -0.1703 -0.2301  0.2133
    1SOL    MW410124   2.238   0.070   4.244  0.1070 -0.1761 -0.4511
    1SOL     OW10125   2.204   0.345   4.177  0.1376  0.1059 -0.1434
    1SOL    HW210126   2.197   0.255   4.211 -1.3390 -0.2399 -1.2992
    1SOL    HW310127   2.223   0.333   4.084  1.7083  1.0252  0.0466
    1SOL    MW410128   2.206   0.331   4.169  0.1500  0.1816 -0.2704
    1SOL     OW10129   2.442   0.457   4.274  0.2964 -0.3885  0.5154
    1SOL    HW210130   2.433   0.473   4.368 -2.3127  0.3721  0.1661
    1SOL    HW310131   2.364   0.409   4.250  1.1648 -0.9770 -1.2016
    1SOL    MW410132   2.431   0.453   4.283  0.0665 -0.3658  0.2422
    1SOL     OW10133   2.461   0.727   4.193  0.2000  0.1890 -0.4432
    1SOL    HW210134   2.474   0.634   4.212 -0.6142  0.2332  0.3513
    1SOL    HW310135   2.448   0.730   4.099 -3.0649 -0.9072 -0.0888
    1SOL    MW410136   2.461   0.715   4.183 -0.3381  0.0502 -0.2913
    1SOL     OW10137   2.231   0.889   4.239  0.3395 -0.3713 -0.0376
    1SOL    HW210138   2.207   0.883   4.332  0.3125  0.1283 -0.0070
    1SOL    HW310139   2.312   0.839   4.232 -1.3338 -3.1559 -0.3969
    1SOL    MW410140   2.239   0.882   4.251  0.1149 -0.6728 -0.0815
    1SOL     OW10141   2.250   1.148   4.148  0.0891 -0.0262 -0.2032
    1SOL    HW210142   2.333   1.172   4.189  0.2264  1.2210 -1.1582
    1SOL    HW310143   2.234   1.058   4.176 -0.4437  1.1622  3.5875
    1SOL    MW410144   2.259   1.140   4.157  0.0370  0.2954  0.1712
    1SOL     OW10145   2.474   1.248   4.281 -0.0048  0.0568  0.1610
    1SOL    HW210146   2.489   1.258   4.375  0.7694  0.1856  0.0253
    1SOL    HW310147   2.558   1.217   4.246 -0.9505 -2.3086 -0.1347
    1SOL    MW410148   2.487   1.245   4.289 -0.0272 -0.2383  0.1040
    1SOL     OW10149   2.541   1.529   4.180  0.2724 -0.0205 -0.8164
    1SOL    HW210150   2.509   1.446   4.215  0.8591  0.1244  0.0786
    1SOL    HW310151   2.519   1.526   4.087  1.4635 -1.7568 -1.0666
    1SOL    MW410152   2.534   1.518   4.173  0.5069 -0.2306 -0.7315
    1SOL     OW10153   2.291   1.692   4.283 -0.2800 -0.0420 -0.2014
    1SOL    HW210154   2.382   1.673   4.257  0.2409  0.7766  0.9972
    1SOL    HW310155   2.275   1.780   4.250  0.1295  0.7071  1.5925
    1SOL    MW410156   2.301   1.701   4.275 -0.1571  0.1649  0.1941
    1SOL     OW10157   2.241   1.943   4.163  0.0867  0.1695 -0.0072
    1SOL    HW210158   2.309   2.010   4.167  0.5725 -0.3664  0.8069
    1SOL    HW310159   2.164   1.985   4.200  0.4644  0.1969  0.7683
    1SOL    MW410160   2.240   1.957   4.168  0.2007  0.1024  0.2031
    1SOL     OW10161   2.439   2.126   4.127 -0.1923 -0.3128  0.2432
    1SOL    HW210162   2.451   2.178   4.047  0.6455 -0.1236  0.4926
    1SOL    HW310163   2.521   2.078   4.137 -1.0269 -1.8456 -0.0846
    1SOL    MW410164   2.451   2.127   4.118 -0.1919 -0.4900  0.2327
    1SOL     OW10165   2.502   2.318   4.313 -0.4634  0.2870 -0.0031
    1SOL    HW210166   2.475   2.288   4.399  0.7165 -1.2771 -0.1507
    1SOL    HW310167   2.467   2.252   4.252 -0.0333  0.5787 -0.5753
    1SOL    MW410168   2.494   2.305   4.316 -0.2511  0.1190 -0.0978
    1SOL     OW10169   2.433   2.501   4.607  0.3530 -0.1756  0.0684
    1SOL    HW210170   2.402   2.535   4.691  0.8339  0.0142  0.1709
    1SOL    HW310171   2.385   2.551   4.541 -0.3487 -0.6254  0.2270
    1SOL    MW410172   2.423   2.512   4.609  0.3240 -0.2098  0.1030
    1SOL     OW10173   2.174   2.735   4.132 -0.5602 -0.1767 -0.2465
    1SOL    HW210174   2.178   2.785   4.213  0.3243 -0.5763 -0.0386
    1SOL    HW310175   2.241   2.667   4.142 -0.4501 -0.2334 -1.3107
    1SOL    MW410176   2.183   2.733   4.144 -0.4294 -0.2370 -0.3591
    1SOL     OW10177   2.498   2.797   4.340 -0.3678 -0.4162  0.3032
    1SOL    HW210178   2.509   2.849   4.420  0.1380 -0.8443  0.5104
    1SOL    HW310179   2.420   2.744   4.356 -0.2268 -0.5524  0.5388
    1SOL    MW410180   2.489   2.797   4.353 -0.2825 -0.4907  0.3619
    1SOL     OW10181   2.463   3.040   4.192  0.0053 -0.1685 -0.2205
    1SOL    HW210182   2.380   3.056   4.238 -0.1712  0.2348 -0.6771
    1SOL    HW310183   2.490   2.953   4.222 -0.8357 -0.5103 -0.4340
    1SOL    MW410184   2.455   3.031   4.202 -0.1292 -0.1605 -0.3085
    1SOL     OW10185   2.012   3.110   4.179 -0.0472  0.7023  0.0111
    1SOL    HW210186   2.008   3.105   4.084  1.8921 -1.2519 -0.0173
    1SOL    HW310187   1.968   3.031   4.209  0.5888  0.5933  0.6826
    1SOL    MW410188   2.006   3.099   4.170  0.2925  0.4303  0.0963
    1SOL     OW10189   2.223   3.480   4.200  0.2514  0.0924 -0.6736
    1SOL    HW210190   2.265   3.431   4.270  0.2606  0.3919 -0.4719
    1SOL    HW310191   2.147   3.522   4.241  0.0965  0.0417 -0.9038
    1SOL    MW410192   2.218   3.479   4.214  0.2322  0.1252 -0.6776
    1SOL     OW10193   2.458   3.609   4.249  0.3519  0.0245 -0.1903
    1SOL    HW210194   2.375   3.565   4.234  0.9595 -1.1144 -0.2515
    1SOL    HW310195   2.446   3.697   4.212  0.3302 -1.2468 -3.2940
    1SOL    MW410196   2.446   3.615   4.242  0.4292 -0.2935 -0.6080
    1SOL     OW10197   2.473   3.872   4.183  0.1163  0.0427  0.2673
    1SOL    HW210198   2.547   3.921   4.217 -0.2625  0.7499  0.0770
    1SOL    HW310199   2.482   3.877   4.088 -0.0943  0.0104  0.2448
    1SOL    MW410200   2.484   3.879   4.175  0.0384  0.1314  0.2398
    1SOL     OW10201   2.236   4.021   4.285 -0.2699  0.0658 -0.4573
    1SOL    HW210202   2.305   3.967   4.247  0.1830 -0.0862  0.5900
    1SOL    HW310203   2.155   3.972   4.269  0.0131 -0.3865 -0.5054
    1SOL    MW410204   2.234   4.008   4.278 -0.1729 -0.0138 -0.3252
    1SOL     OW10205   2.254   4.248   4.133  0.3033 -0.2686  0.0570
    1SOL    HW210206   2.264   4.160   4.170 -0.2446 -0.8198 -1.0919
    1SOL    HW310207   2.166   4.275   4.157 -0.6947 -1.3251 -2.2638
    1SOL    MW410208   2.244   4.240   4.141  0.0994 -0.4807 -0.4005
    1SOL     OW10209   2.480   4.357   4.286  0.0196 -0.1545 -0.0878
    1SOL    HW210210   2.560   4.321   4.248  0.8800  1.0007  0.6158
    1SOL    HW310211   2.410   4.319   4.233  0.8719 -2.8844  0.6639
    1SOL    MW410212   2.481   4.347   4.274  0.2456 -0.3619  0.1044
    1SOL     OW10213   2.930   4.652   4.158  0.0521 -0.3769 -0.1603
    1SOL    HW210214   3.003   4.674   4.216 -0.0914 -0.3209 -0.0025
    1SOL    HW310215   2.914   4.559   4.174 -0.5694 -0.1504  0.5342
    1SOL    MW410216   2.938   4.643   4.168 -0.0489 -0.3397 -0.0472
    1SOL     OW10217   2.702   0.109   4.260  0.1881 -0.0725  0.0646
    1SOL    HW210218   2.694   0.203   4.243 -0.1821  0.0021  0.6536
    1SOL    HW310219   2.793   0.088   4.238  0.1933  0.3628 -0.3453
    1SOL    MW410220   2.713   0.118   4.255  0.1400 -0.0052  0.0882
    1SOL     OW10221   2.700   0.365   4.181  0.3183  0.1022  0.1079
    1SOL    HW210222   2.611   0.393   4.206 -0.2700 -0.4673 -1.3120
    1SOL    HW310223   2.694   0.348   4.087  1.6688 -1.0053  0.2149
    1SOL    MW410224   2.687   0.367   4.172  0.4189 -0.1191 -0.0658
    1SOL     OW10225   2.944   0.480   4.274  0.2135  0.2530  0.4920
    1SOL    HW210226   2.952   0.574   4.256 -2.0146  0.6826  1.5619
    1SOL    HW310227   2.858   0.457   4.239  1.1873 -1.6547 -0.7295
    1SOL    MW410228   2.934   0.489   4.267  0.0482  0.0580  0.4721
    1SOL     OW10229   2.907   0.748   4.170 -0.1656 -0.2433  0.2822
    1SOL    HW210230   2.987   0.797   4.189  0.2383 -1.4231  1.6956
    1SOL    HW310231   2.898   0.754   4.075  1.3813  0.2505  0.1433
    1SOL    MW410232   2.917   0.755   4.160  0.0918 -0.3337  0.4497
    1SOL     OW10233   2.683   0.882   4.269 -0.2146 -0.4384 -0.5011
    1SOL    HW210234   2.764   0.831   4.257 -0.4893 -0.6171 -1.6419
    1SOL    HW310235   2.613   0.818   4.258 -0.5028 -0.3730  0.9616
    1SOL    MW410236   2.685   0.867   4.266 -0.2890 -0.4534 -0.4582
    1SOL     OW10237   2.701   1.144   4.180 -0.3109  0.0462 -0.0414
    1SOL    HW210238   2.694   1.057   4.217  1.5139 -0.1348 -0.0690
    1SOL    HW310239   2.683   1.132   4.087 -1.5177 -0.0531  0.2017
    1SOL    MW410240   2.698   1.131   4.172 -0.2294  0.0093 -0.0129
    1SOL     OW10241   2.952   1.274   4.237 -0.0872 -0.3196 -0.5784
    1SOL    HW210242   3.030   1.222   4.216 -0.5165 -1.4021  0.4760
    1SOL    HW310243   2.880   1.225   4.197 -0.4341 -0.2992  0.0143
    1SOL    MW410244   2.953   1.260   4.229 -0.1895 -0.4598 -0.3610
    1SOL     OW10245   2.953   1.534   4.115  0.0158 -0.0634  0.1925
    1SOL    HW210246   3.031   1.584   4.137  0.8720 -1.5605  0.6115
    1SOL    HW310247   2.969   1.446   4.151 -1.3978 -0.6788 -0.6231
    1SOL    MW410248   2.965   1.529   4.122 -0.0577 -0.3421  0.1402
    1SOL     OW10249   2.747   1.709   4.243 -0.3056  0.4193 -0.1067
    1SOL    HW210250   2.827   1.672   4.206 -0.0595  0.9127 -0.0771
    1SOL    HW310251   2.678   1.649   4.217  0.3815 -1.2525  1.8009
    1SOL    MW410252   2.748   1.696   4.235 -0.1824  0.2638  0.1488
    1SOL     OW10253   2.666   1.974   4.242 -0.3240 -0.4259  0.2351
    1SOL    HW210254   2.669   1.982   4.337 -0.8819  0.0684  0.2156
    1SOL    HW310255   2.690   1.883   4.225 -0.9952 -0.7327  0.8947
    1SOL    MW410256   2.669   1.963   4.252 -0.4861 -0.4011  0.3200
    1SOL     OW10257   2.921   2.095   4.226 -0.0094 -0.1764  0.0569
    1SOL    HW210258   2.923   2.190   4.217  0.7669  0.0114  2.0785
    1SOL    HW310259   2.830   2.072   4.208 -0.2998  0.9875 -0.0286
    1SOL    MW410260   2.909   2.105   4.222  0.0548  0.0019  0.3119
    1SOL     OW10261   2.946   2.361   4.173 -0.5234 -0.3563 -0.1810
    1SOL    HW210262   3.027   2.380   4.221  0.0947 -0.2991 -1.2369
    1SOL    HW310263   2.884   2.427   4.205  0.0257 -0.0127  0.1879
    1SOL    MW410264   2.948   2.372   4.184 -0.3693 -0.3035 -0.2713
    1SOL     OW10265   2.777   2.540   4.275 -0.1999 -0.0271  0.1406
    1SOL    HW210266   2.757   2.529   4.368 -0.7121  1.1686  0.1878
    1SOL    HW310267   2.691   2.544   4.233  0.0385 -0.7799 -0.4060
    1SOL    MW410268   2.763   2.539   4.282 -0.2360  0.0315  0.0739
    1SOL     OW10269   2.535   2.598   4.158 -0.2517 -0.0327  0.2549
    1SOL    HW210270   2.461   2.540   4.177  0.2242 -0.4620  0.7983
    1SOL    HW310271   2.523   2.671   4.219 -0.0247 -0.2776  0.5915
    1SOL    MW410272   2.524   2.600   4.169 -0.1590 -0.1218  0.3710
    1SOL     OW10273   2.868   2.812   4.321 -0.0209 -0.7581  0.5939
    1SOL    HW210274   2.860   2.825   4.415  2.4616 -0.7751  0.8465
    1SOL    HW310275   2.818   2.732   4.304  0.0005 -1.0890  1.9956
    1SOL    MW410276   2.861   2.803   4.331  0.3095 -0.8042  0.8121
    1SOL     OW10277   2.904   3.073   4.217  0.0259  0.4358 -0.0645
    1SOL    HW210278   2.872   2.989   4.252  1.9912 -0.8956 -1.3460
    1SOL    HW310279   2.906   3.060   4.122  1.6816  1.4621 -0.1776
    1SOL    MW410280   2.900   3.060   4.209  0.5035  0.3953 -0.2480
    1SOL     OW10281   2.666   3.196   4.307  0.1098  0.1569  0.0562
    1SOL    HW210282   2.743   3.168   4.258 -0.2441 -0.1704 -0.3214
    1SOL    HW310283   2.596   3.139   4.275 -0.0127 -0.4209  1.3220
    1SOL    MW410284   2.667   3.185   4.297  0.0470  0.0374  0.1731
    1SOL     OW10285   2.695   3.467   4.238  0.1089 -0.6680  0.1879
    1SOL    HW210286   2.678   3.377   4.265  0.2204 -0.7824 -0.1135
    1SOL    HW310287   2.611   3.512   4.247  0.0317 -0.8263  0.2525
    1SOL    MW410288   2.682   3.461   4.243  0.1135 -0.7043  0.1569
    1SOL     OW10289   2.906   3.661   4.294 -0.2007  0.1519 -0.0695
    1SOL    HW210290   2.904   3.679   4.388 -0.0132 -0.3745  0.0406
    1SOL    HW310291   2.829   3.606   4.279 -1.0443  1.4264 -0.4864
    1SOL    MW410292   2.896   3.656   4.304 -0.2873  0.2506 -0.1101
    1SOL     OW10293   2.891   3.897   4.160  0.3586 -0.1734 -0.0588
    1SOL    HW210294   2.962   3.948   4.198  0.4579 -0.0240 -0.4396
    1SOL    HW310295   2.903   3.809   4.195  0.0191  0.1213  0.8315
    1SOL    MW410296   2.902   3.892   4.170  0.3269 -0.1147  0.0086
    1SOL     OW10297   2.680   3.997   4.303 -0.3170 -0.0523 -0.0804
    1SOL    HW210298   2.692   4.083   4.263 -1.7399  0.6777  0.9783
    1SOL    HW310299   2.744   3.941   4.260 -0.2585  1.2277 -1.7152
    1SOL    MW410300   2.690   4.001   4.292 -0.4971  0.2127 -0.1564
    1SOL     OW10301   2.689   4.240   4.157 -0.0402  0.2001  0.2508
    1SOL    HW210302   2.757   4.306   4.171 -0.2577  0.3747  0.5213
    1SOL    HW310303   2.687   4.226   4.063  1.7467 -1.2902  0.4231
    1SOL    MW410304   2.698   4.247   4.147  0.1669  0.0267  0.3090
    1SOL     OW10305   2.898   4.392   4.246 -0.0104 -0.4560 -0.0763
    1SOL    HW210306   2.890   4.369   4.339 -1.8400  0.6259  0.0564
    1SOL    HW310307   2.968   4.335   4.214 -0.7850 -2.3539  1.4639
    1SOL    MW410308   2.906   4.381   4.254 -0.3541 -0.5636  0.1440
    1SOL     OW10309   3.350   4.646   4.182  0.1260 -0.1032 -0.2212
    1SOL    HW210310   3.428   4.681   4.225 -0.3185 -0.0551  0.5667
    1SOL    HW310311   3.353   4.552   4.200  0.6118 -0.2885 -1.1978
    1SOL    MW410312   3.361   4.638   4.190  0.1316 -0.1206 -0.2465
    1SOL     OW10313   3.132   0.110   4.283 -0.0744 -0.0308  0.5273
    1SOL    HW210314   3.152   0.117   4.376 -0.5326  0.4978  0.5882
    1SOL    HW310315   3.203   0.057   4.247 -0.0699 -0.5147  1.2352
    1SOL    MW410316   3.144   0.104   4.290 -0.1345 -0.0249  0.6289
    1SOL     OW10317   3.160   0.358   4.172  0.0445  0.2217  0.3064
    1SOL    HW210318   3.148   0.270   4.209  1.3833 -0.0484  0.0998
    1SOL    HW310319   3.082   0.407   4.201 -1.2967 -1.3455 -0.5498
    1SOL    MW410320   3.148   0.353   4.181  0.0441 -0.0207  0.1664
    1SOL     OW10321   3.365   0.498   4.290 -0.2231  0.1942  0.1189
    1SOL    HW210322   3.445   0.453   4.262  0.0216  1.3666 -1.1358
    1SOL    HW310323   3.294   0.442   4.261  0.1655 -1.6134  2.5879
    1SOL    MW410324   3.366   0.485   4.282 -0.1392  0.1104  0.2789
    1SOL     OW10325   3.382   0.757   4.193 -0.2798  0.3724 -0.1494
    1SOL    HW210326   3.297   0.797   4.214 -0.2281  0.0136  0.7443
    1SOL    HW310327   3.373   0.666   4.219  1.0663  0.7922  1.9231
    1SOL    MW410328   3.369   0.750   4.199 -0.0954  0.3804  0.2422
    1SOL     OW10329   3.121   0.883   4.254 -0.2724  0.4816  0.0248
    1SOL    HW210330   3.133   0.874   4.349 -0.6071 -1.0954 -0.0630
    1SOL    HW310331   3.154   0.971   4.234  2.1743 -0.1090  1.2304
    1SOL    MW410332   3.127   0.893   4.264  0.0064  0.1956  0.1726
    1SOL     OW10333   3.195   1.139   4.169  0.1900  0.1662 -0.3889
    1SOL    HW210334   3.279   1.179   4.189 -0.0673  0.7226 -0.4075
    1SOL    HW310335   3.179   1.161   4.077  0.8565 -1.4549 -0.9163
    1SOL    MW410336   3.204   1.147   4.159  0.2444  0.0257 -0.4611
    1SOL     OW10337   3.424   1.273   4.272  0.0480  0.0919  0.1551
    1SOL    HW210338   3.423   1.280   4.367  1.4138 -1.3836  0.2888
    1SOL    HW310339   3.429   1.364   4.241 -0.1145  0.5589  1.4926
    1SOL    MW410340   3.425   1.286   4.280  0.2069 -0.0411  0.3490
    1SOL     OW10341   3.407   1.511   4.121  0.0736 -0.1945  0.2195
    1SOL    HW210342   3.330   1.556   4.155  0.7601  0.6332  0.7088
    1SOL    HW310343   3.396   1.512   4.026 -0.5041 -0.0587  0.2889
    1SOL    MW410344   3.396   1.517   4.113  0.0877 -0.0675  0.2933
    1SOL     OW10345   3.188   1.673   4.203  0.0557  0.2153  0.2757
    1SOL    HW210346   3.171   1.671   4.298  0.8636  0.3588  0.4285
    1SOL    HW310347   3.157   1.758   4.175 -0.1845  0.1742  0.4144
    1SOL    MW410348   3.182   1.684   4.212  0.1309  0.2289  0.3138
    1SOL     OW10349   3.126   1.949   4.125  0.4254 -0.0373 -0.3036
    1SOL    HW210350   3.200   1.992   4.169  0.0121 -1.0216  1.4067
    1SOL    HW310351   3.050   2.001   4.152 -0.0788 -1.8152  1.7880
    1SOL    MW410352   3.126   1.962   4.134  0.3042 -0.4017  0.1984
    1SOL     OW10353   3.325   2.060   4.281 -0.2907  0.0686  0.1989
    1SOL    HW210354   3.403   2.014   4.309 -0.8373 -0.8321  0.2613
    1SOL    HW310355   3.357   2.144   4.249  0.7443 -0.4698 -0.1981
    1SOL    MW410356   3.339   2.065   4.280 -0.2263 -0.1214  0.1545
    1SOL     OW10357   3.387   2.304   4.212 -0.3282  0.2050  0.3695
    1SOL    HW210358   3.457   2.366   4.237  0.1526 -0.7283  1.3711
    1SOL    HW310359   3.384   2.310   4.117  1.2877  0.0963  0.2858
    1SOL    MW410360   3.396   2.313   4.203 -0.0513  0.0672  0.4902
    1SOL     OW10361   3.162   2.454   4.298  0.3659 -0.1675  0.2287
    1SOL    HW210362   3.156   2.540   4.256  1.1750 -0.6028 -0.7847
    1SOL    HW310363   3.248   2.422   4.274  0.1094 -1.2237  0.7126
    1SOL    MW410364   3.172   2.461   4.289  0.4389 -0.3645  0.1588
    1SOL     OW10365   3.103   2.708   4.195 -0.0842  0.2592  0.4819
    1SOL    HW210366   3.170   2.770   4.224  0.1688  0.5306 -0.6561
    1SOL    HW310367   3.028   2.726   4.251 -0.2842  2.1502 -0.3590
    1SOL    MW410368   3.102   2.718   4.206 -0.0772  0.5445  0.2203
    1SOL     OW10369   3.331   2.831   4.289  0.5176  0.2121  0.0587
    1SOL    HW210370   3.412   2.792   4.255  1.3695  0.6248  1.5874
    1SOL    HW310371   3.330   2.919   4.251  0.9127  0.2932  0.2287
    1SOL    MW410372   3.342   2.837   4.279  0.6821  0.2770  0.2823
    1SOL     OW10373   3.307   3.088   4.208 -0.7379  0.2956  0.4865
    1SOL    HW210374   3.243   3.139   4.257 -1.2607  0.5406 -0.4407
    1SOL    HW310375   3.294   3.113   4.116 -0.4978 -0.9478  0.0925
    1SOL    MW410376   3.297   3.098   4.202 -0.7751  0.1640  0.3119
    1SOL     OW10377   3.102   3.248   4.338 -0.1993 -0.1785  0.0254
    1SOL    HW210378   3.079   3.325   4.286 -0.2513 -0.7631 -0.8204
    1SOL    HW310379   3.035   3.183   4.315 -0.1351 -0.4882  0.7118
    1SOL    MW410380   3.090   3.249   4.328 -0.1976 -0.2964  0.0043
    1SOL     OW10381   3.141   3.512   4.211  0.2839  0.1515  0.1982
    1SOL    HW210382   3.072   3.573   4.237 -1.7080 -1.8326 -0.2600
    1SOL    HW310383   3.132   3.503   4.117  1.3407  0.0550  0.0983
    1SOL    MW410384   3.131   3.519   4.202  0.1605 -0.1230  0.1240
    1SOL     OW10385   3.399   3.623   4.271  0.3797  0.4311 -0.5690
    1SOL    HW210386   3.433   3.619   4.361  1.6197 -1.5800 -1.0799
    1SOL    HW310387   3.321   3.568   4.273  1.8219 -1.6963 -1.2693
    1SOL    MW410388   3.393   3.615   4.283  0.7336 -0.1147 -0.7291
    1SOL     OW10389   3.325   3.885   4.153 -0.4092 -0.1510  0.3281
    1SOL    HW210390   3.340   3.793   4.173 -0.5776 -0.2527 -0.0155
    1SOL    HW310391   3.326   3.890   4.058  0.9594  0.4345  0.3548
    1SOL    MW410392   3.327   3.874   4.143 -0.2508 -0.0873  0.2861
    1SOL     OW10393   3.109   3.997   4.296  0.2471  0.2063  0.2092
    1SOL    HW210394   3.105   3.964   4.385 -0.7009 -0.6186 -0.1337
    1SOL    HW310395   3.191   3.961   4.261  0.7697  0.7831  0.8381
    1SOL    MW410396   3.120   3.988   4.303  0.1907  0.1736  0.2470
    1SOL     OW10397   3.138   4.252   4.152  0.6441 -0.4121  0.2096
    1SOL    HW210398   3.222   4.288   4.182  0.6490 -0.3470  0.1209
    1SOL    HW310399   3.126   4.172   4.203  0.3343  0.0362  0.8462
    1SOL    MW410400   3.148   4.247   4.162  0.6039 -0.3438  0.2818
    1SOL     OW10401   3.364   4.372   4.248  0.3229  0.3939  0.7318
    1SOL    HW210402   3.360   4.350   4.341  2.1765 -1.3426  0.4404
    1SOL    HW310403   3.453   4.349   4.222 -0.5233 -0.2537 -1.7396
    1SOL    MW410404   3.375   4.366   4.257  0.4556  0.0796  0.3667
    1SOL     OW10405   3.818   4.621   4.160  0.2632  0.1618  0.1892
    1SOL    HW210406   3.874   4.693   4.191  1.0431  0.3373 -1.5743
    1SOL    HW310407   3.829   4.622   4.065 -0.0427 -2.0498  0.1197
    1SOL    MW410408   3.827   4.631   4.151  0.3257 -0.1068 -0.0525
    1SOL     OW10409   3.596   0.080   4.272  0.3710  0.0975 -0.3528
    1SOL    HW210410   3.590   0.171   4.243 -4.7408 -0.5313 -1.7568
    1SOL    HW310411   3.670   0.044   4.223  2.6692  3.4763  0.4416
    1SOL    MW410412   3.605   0.087   4.262 -0.0002  0.4603 -0.4334
    1SOL     OW10413   3.585   0.347   4.204  0.1207  0.1919  0.8141
    1SOL    HW210414   3.648   0.404   4.248  0.3588 -0.4498  1.3062
    1SOL    HW310415   3.599   0.365   4.111  1.2280 -0.1395  0.9093
    1SOL    MW410416   3.595   0.357   4.197  0.2983  0.0635  0.8917
    1SOL     OW10417   3.805   0.509   4.294 -0.4858 -0.1153  0.4827
    1SOL    HW210418   3.830   0.522   4.385  1.5990 -1.1842  0.1101
    1SOL    HW310419   3.819   0.594   4.252 -1.8354  0.4817  1.2321
    1SOL    MW410420   3.810   0.522   4.300 -0.3891 -0.1775  0.5322
    1SOL     OW10421   3.838   0.750   4.159 -0.0549 -0.2085  0.5078
    1SOL    HW210422   3.763   0.796   4.196  0.7565  0.3498  1.4853
    1SOL    HW310423   3.834   0.768   4.065 -0.5798  0.6158  0.6877
    1SOL    MW410424   3.828   0.758   4.151 -0.0169 -0.0260  0.6604
    1SOL     OW10425   3.626   0.913   4.246 -0.0935  0.3592  0.1797
    1SOL    HW210426   3.627   1.000   4.206  0.9858  0.8871  1.2940
    1SOL    HW310427   3.543   0.875   4.218 -0.2629  1.4726 -0.9024
    1SOL    MW410428   3.615   0.920   4.237  0.0267  0.5757  0.1845
    1SOL     OW10429   3.634   1.158   4.138  0.0964 -0.3226  0.0789
    1SOL    HW210430   3.561   1.194   4.187  0.2401  0.6220 -0.3920
    1SOL    HW310431   3.613   1.176   4.046  1.9289  1.9338  0.0479
    1SOL    MW410432   3.622   1.165   4.133  0.3572  0.0997  0.0129
    1SOL     OW10433   3.844   1.315   4.217  0.2281  0.8420  0.2132
    1SOL    HW210434   3.775   1.261   4.178  1.0946 -0.7727  0.8814
    1SOL    HW310435   3.840   1.398   4.169 -1.3218  0.3014 -0.6142
    1SOL    MW410436   3.834   1.319   4.206  0.1380  0.5577  0.1922
    1SOL     OW10437   3.830   1.582   4.125 -0.2495  0.2931  0.1552
    1SOL    HW210438   3.894   1.602   4.192 -0.6831 -1.6427  1.1673
    1SOL    HW310439   3.755   1.639   4.145  0.4281  1.2548  0.0166
    1SOL    MW410440   3.828   1.592   4.136 -0.2172  0.1646  0.2704
    1SOL     OW10441   3.540   1.918   4.353  0.3268 -0.0750 -0.0897
    1SOL    HW210442   3.560   1.840   4.301 -0.3826  0.1541 -0.7161
    1SOL    HW310443   3.558   1.892   4.443 -0.6328 -1.1977 -0.2111
    1SOL    MW410444   3.545   1.904   4.358  0.1068 -0.1928 -0.1888
    1SOL     OW10445   3.576   1.739   4.144 -0.5775 -0.1551 -0.5624
    1SOL    HW210446   3.514   1.667   4.138 -2.3875  1.3295  0.1454
    1SOL    HW310447   3.570   1.783   4.059  0.1861 -0.5316 -0.8223
    1SOL    MW410448   3.567   1.735   4.132 -0.7157 -0.0089 -0.5035
    1SOL     OW10449   3.762   2.073   4.286 -0.1692  0.6544 -0.2831
    1SOL    HW210450   3.783   2.109   4.372  2.8277 -1.3885 -0.1075
    1SOL    HW310451   3.684   2.020   4.301 -0.3128  1.1959  0.9316
    1SOL    MW410452   3.754   2.071   4.299  0.2074  0.4566 -0.0997
    1SOL     OW10453   3.821   2.322   4.169  0.1078  0.6007  0.5247
    1SOL    HW210454   3.795   2.238   4.208  0.4707  0.8491  1.3059
    1SOL    HW310455   3.826   2.304   4.075 -0.6931 -0.0235  0.5936
    1SOL    MW410456   3.818   2.308   4.162  0.0501  0.5512  0.6371
    1SOL     OW10457   3.623   2.467   4.284 -0.1612 -0.5295  0.0633
    1SOL    HW210458   3.638   2.463   4.379 -1.0688  0.0336  0.2369
    1SOL    HW310459   3.703   2.430   4.246  0.8366  0.5887  1.0055
    1SOL    MW410460   3.636   2.461   4.292 -0.1490 -0.3076  0.2108
    1SOL     OW10461   3.585   2.729   4.201  0.5458  0.0092  0.1616
    1SOL    HW210462   3.602   2.648   4.249 -0.9387 -0.3537  0.1041
    1SOL    HW310463   3.592   2.704   4.109 -2.2939 -0.6417  0.0822
    1SOL    MW410464   3.588   2.715   4.195 -0.0246 -0.1245  0.1435
    1SOL     OW10465   3.836   2.845   4.237 -0.2152  0.0546  0.2165
    1SOL    HW210466   3.846   2.862   4.331 -0.9695  0.0282  0.2999
    1SOL    HW310467   3.753   2.799   4.229  1.2672 -2.7039 -0.1160
    1SOL    MW410468   3.827   2.841   4.248 -0.1194 -0.3128  0.1836
    1SOL     OW10469   3.808   3.093   4.160 -0.3766 -0.4241  0.1559
    1SOL    HW210470   3.827   3.004   4.190 -0.2956 -0.3287  0.3937
    1SOL    HW310471   3.790   3.084   4.067 -1.6128 -0.8703  0.4322
    1SOL    MW410472   3.808   3.080   4.152 -0.5291 -0.4704  0.2236
    1SOL     OW10473   3.569   3.189   4.259 -0.4846  0.6462  0.0063
    1SOL    HW210474   3.647   3.144   4.228 -0.4360  0.2226  0.7363
    1SOL    HW310475   3.497   3.133   4.232 -0.4995  0.7543 -0.1758
    1SOL    MW410476   3.570   3.176   4.252 -0.4802  0.6046  0.0787
    1SOL     OW10477   3.550   3.437   4.146 -0.2289 -0.1727 -0.3331
    1SOL    HW210478   3.531   3.355   4.193 -1.1071 -0.7375 -1.6473
    1SOL    HW310479   3.492   3.501   4.186  0.8748 -0.0491  1.0965
    1SOL    MW410480   3.540   3.434   4.158 -0.1993 -0.2308 -0.3181
    1SOL     OW10481   3.793   3.581   4.253  0.1255  0.2100  0.0200
    1SOL    HW210482   3.875   3.543   4.223 -0.3008 -1.4839  0.9273
    1SOL    HW310483   3.725   3.524   4.215 -0.5666  0.7440  0.4453
    1SOL    MW410484   3.795   3.568   4.244 -0.0219  0.0567  0.1950
    1SOL     OW10485   3.795   3.871   4.176 -0.1793  0.0836  0.2992
    1SOL    HW210486   3.708   3.905   4.194 -0.0961  1.7130 -2.0802
    1SOL    HW310487   3.796   3.783   4.215 -2.9897 -0.0814  0.0687
    1SOL    MW410488   3.784   3.864   4.183 -0.5391  0.2770 -0.0453
    1SOL     OW10489   3.550   4.000   4.259 -0.2742 -0.3632  0.0116
    1SOL    HW210490   3.530   4.009   4.352 -1.2066  1.5377 -0.3503
    1SOL    HW310491   3.469   3.967   4.221 -0.2550 -0.0557 -0.2958
    1SOL    MW410492   3.537   3.997   4.266 -0.3946 -0.0720 -0.0772
    1SOL     OW10493   3.603   4.262   4.166 -0.1041 -0.1142  0.1151
    1SOL    HW210494   3.681   4.300   4.207 -1.3540  1.0045  1.4991
    1SOL    HW310495   3.605   4.170   4.192 -0.2419  0.3241  1.7326
    1SOL    MW410496   3.614   4.255   4.175 -0.2873  0.0911  0.5112
    1SOL     OW10497   3.841   4.381   4.286  0.0403 -0.1614 -0.5792
    1SOL    HW210498   3.887   4.335   4.215 -0.1226 -0.3814 -0.5454
    1SOL    HW310499   3.837   4.472   4.258  1.4654  0.0669 -0.0823
    1SOL    MW410500   3.846   4.387   4.273  0.2067 -0.1602 -0.5088
    1SOL     OW10501   4.241   4.663   4.200 -0.0439  0.3252 -0.3555
    1SOL    HW210502   4.242   4.582   4.251  0.0346  0.0133 -0.8582
    1SOL    HW310503   4.318   4.712   4.231  1.3702 -0.9093 -1.8716
    1SOL    MW410504   4.251   4.659   4.211  0.1531  0.1216 -0.6213
    1SOL     OW10505   3.993   0.149   4.226 -0.3546  0.0053 -0.0088
    1SOL    HW210506   4.007   0.243   4.211 -1.2018  0.2695  0.8446
    1SOL    HW310507   4.080   0.111   4.218 -0.2124  0.6487 -1.8595
    1SOL    MW410508   4.006   0.156   4.223 -0.4478  0.1251 -0.1402
    1SOL     OW10509   4.047   0.419   4.174 -0.1515  0.4015  0.0063
    1SOL    HW210510   4.126   0.454   4.215 -0.5790  0.6405  0.6359
    1SOL    HW310511   3.975   0.458   4.223 -0.6486 -0.7205  0.1828
    1SOL    MW410512   4.048   0.429   4.186 -0.2737  0.2850  0.1130
    1SOL     OW10513   4.289   0.532   4.297 -0.3381 -0.4507  0.0476
    1SOL    HW210514   4.290   0.616   4.251 -1.4456 -0.3292  0.2349
    1SOL    HW310515   4.366   0.486   4.264  0.2925  0.6349 -0.0479
    1SOL    MW410516   4.299   0.537   4.287 -0.4010 -0.2914  0.0596
    1SOL     OW10517   4.285   0.761   4.159 -0.3409  0.0068 -0.2263
    1SOL    HW210518   4.204   0.806   4.180 -0.4848 -0.3014 -0.1139
    1SOL    HW310519   4.286   0.756   4.063 -1.5309 -1.9387 -0.1538
    1SOL    MW410520   4.274   0.766   4.149 -0.5164 -0.2906 -0.2022
    1SOL     OW10521   4.060   0.893   4.257  0.1938  0.4731 -0.2767
    1SOL    HW210522   4.049   0.975   4.209 -1.0058 -0.3662 -1.4502
    1SOL    HW310523   3.989   0.836   4.226  0.3830 -0.6559  1.2824
    1SOL    MW410524   4.049   0.896   4.247  0.0610  0.2134 -0.2260
    1SOL     OW10525   4.031   1.135   4.137 -0.2351  0.1262 -0.2143
    1SOL    HW210526   4.108   1.191   4.140 -1.0468  1.3054 -1.1910
    1SOL    HW310527   3.962   1.187   4.178 -1.2227  0.2183 -1.9586
    1SOL    MW410528   4.032   1.149   4.143 -0.4730  0.2939 -0.5732
    1SOL     OW10529   4.247   1.311   4.193  0.0864  0.3312  0.1270
    1SOL    HW210530   4.237   1.301   4.288 -0.3962  0.8990  0.1428
    1SOL    HW310531   4.328   1.264   4.172  0.2726  0.3225  0.8422
    1SOL    MW410532   4.256   1.303   4.203  0.0467  0.4050  0.2236
    1SOL     OW10533   4.279   1.590   4.133 -0.3487  0.0993 -0.5243
    1SOL    HW210534   4.288   1.497   4.155  0.1813  0.3352  0.2842
    1SOL    HW310535   4.258   1.591   4.040 -1.4874 -0.8831 -0.2872
    1SOL    MW410536   4.278   1.578   4.124 -0.4292  0.0007 -0.3858
    1SOL     OW10537   4.028   1.700   4.271  0.0882  0.2894 -0.2185
    1SOL    HW210538   4.043   1.718   4.364 -1.2510  2.0943 -0.3139
    1SOL    HW310539   4.109   1.659   4.241  1.5150  1.9969  1.1916
    1SOL    MW410540   4.041   1.697   4.280  0.1001  0.7529 -0.0448
    1SOL     OW10541   3.973   1.947   4.155 -0.0023 -0.5402 -0.7715
    1SOL    HW210542   3.988   1.861   4.195 -1.4682 -0.1759  0.6282
    1SOL    HW310543   3.897   1.981   4.202  0.2912  1.3242 -1.6428
    1SOL    MW410544   3.965   1.940   4.167 -0.1571 -0.2462 -0.7019
    1SOL     OW10545   4.473   1.971   4.078  0.5045 -0.2943 -0.1286
    1SOL    HW210546   4.537   2.012   4.136 -0.3060 -0.5148  0.9200
    1SOL    HW310547   4.388   1.989   4.118 -0.0859 -0.2221 -1.3808
    1SOL    MW410548   4.470   1.979   4.091  0.3190 -0.3138 -0.1559
    1SOL     OW10549   4.285   2.306   4.141  0.2476 -0.3304  0.3835
    1SOL    HW210550   4.201   2.344   4.165  0.0270  0.3959 -1.4520
    1SOL    HW310551   4.277   2.214   4.166 -0.7900 -0.1051  0.9427
    1SOL    MW410552   4.273   2.299   4.148  0.0815 -0.2048  0.2146
    1SOL     OW10553   4.068   2.430   4.232 -0.1271 -0.3557  0.0976
    1SOL    HW210554   4.071   2.402   4.324 -0.6598 -0.6484  0.0249
    1SOL    HW310555   3.995   2.382   4.194 -1.3752  1.5069  0.0823
    1SOL    MW410556   4.059   2.420   4.239 -0.3624 -0.1485  0.0858
    1SOL     OW10557   4.046   2.699   4.136 -0.2447  0.2431 -0.8084
    1SOL    HW210558   4.068   2.618   4.180  1.7316  2.1510  1.8863
    1SOL    HW310559   3.967   2.731   4.180 -0.4080  0.3266 -1.1535
    1SOL    MW410560   4.038   2.693   4.148 -0.0052  0.5059 -0.4983
    1SOL     OW10561   4.265   2.806   4.274  0.4187 -0.4598  0.5659
    1SOL    HW210562   4.182   2.779   4.232 -1.1663  1.7053  2.2193
    1SOL    HW310563   4.331   2.749   4.234 -1.6617 -1.3415 -1.7758
    1SOL    MW410564   4.263   2.795   4.263 -0.0653 -0.2906  0.4749
    1SOL     OW10565   4.279   3.104   4.167 -0.5208 -0.3838 -0.0054
    1SOL    HW210566   4.279   3.014   4.200 -2.3383 -0.1444  0.7302
    1SOL    HW310567   4.287   3.095   4.072 -0.9726 -1.3306  0.0442
    1SOL    MW410568   4.280   3.091   4.159 -0.8206 -0.4771  0.0987
    1SOL     OW10569   4.050   3.207   4.258 -0.3566 -0.3605 -0.1404
    1SOL    HW210570   4.133   3.169   4.230 -0.2837  0.6030 -1.2943
    1SOL    HW310571   3.984   3.155   4.212 -0.3863 -0.9861  0.6060
    1SOL    MW410572   4.052   3.195   4.248 -0.3510 -0.3157 -0.1941
    1SOL     OW10573   4.047   3.476   4.178  0.3329 -0.6191 -0.3660
    1SOL    HW210574   4.035   3.392   4.223 -2.1246 -0.5656 -0.8807
    1SOL    HW310575   4.028   3.457   4.086  0.2233  0.4066 -0.5610
    1SOL    MW410576   4.043   3.462   4.172 -0.0057 -0.4768 -0.4597
    1SOL     OW10577   4.304   3.574   4.202 -0.3216  0.3639  0.2606
    1SOL    HW210578   4.315   3.658   4.158  0.6337  0.8330  1.3498
    1SOL    HW310579   4.212   3.552   4.190 -0.6787  1.7756  0.3268
    1SOL    MW410580   4.293   3.582   4.195 -0.2432  0.6118  0.4129
    1SOL     OW10581   4.234   3.828   4.116 -0.0402  0.1485 -0.2713
    1SOL    HW210582   4.172   3.886   4.161 -1.1084 -0.9147 -0.3544
    1SOL    HW310583   4.233   3.858   4.025 -1.5813 -0.8070 -0.5923
    1SOL    MW410584   4.226   3.839   4.110 -0.3848 -0.1175 -0.3242
    1SOL     OW10585   4.027   3.995   4.239  0.8124 -0.1736 -0.3293
    1SOL    HW210586   4.033   3.995   4.334  0.4667 -1.6415 -0.2942
    1SOL    HW310587   3.944   3.951   4.221  0.2612  1.2277 -1.2793
    1SOL    MW410588   4.017   3.989   4.249  0.6938 -0.1824 -0.4506
    1SOL     OW10589   4.051   4.256   4.154  0.2382 -0.1193  0.1640
    1SOL    HW210590   4.105   4.301   4.219 -0.8304 -0.6573  1.4465
    1SOL    HW310591   4.041   4.167   4.188  0.3816 -0.6596 -1.1741
    1SOL    MW410592   4.057   4.251   4.167  0.1163 -0.2613  0.1564
    1SOL     OW10593   3.615   4.333   4.980  0.1550 -0.0071  0.0002
    1SOL    HW210594   3.695   4.341   4.928  0.2769  0.4056  0.2467
    1SOL    HW310595   3.581   4.422   4.986  1.2840  0.3062  2.3979
    1SOL    MW410596   3.621   4.346   4.974  0.3200  0.0887  0.3490
    1SOL     OW10597   4.428   0.021   4.538 -0.7674 -0.7936  0.1291
    1SOL    HW210598   4.434   0.099   4.594  1.1710 -1.0157  0.2760
    1SOL    HW310599   4.346  -0.022   4.564 -0.9411  0.2289  1.3051
    1SOL    MW410600   4.418   0.026   4.548 -0.5345 -0.6880  0.3033
    1SOL     OW10601   4.249   4.359   4.595  0.0190  0.0496  0.0621
    1SOL    HW210602   4.239   4.450   4.623 -0.4013  0.0180  0.0186
    1SOL    HW310603   4.162   4.320   4.608 -0.2082  0.0692 -1.4059
    1SOL    MW410604   4.236   4.366   4.601 -0.0668  0.0486 -0.1373
    1SOL     OW10605   3.973   0.093   4.508  0.2921 -0.3379 -0.3323
    1SOL    HW210606   3.957   0.072   4.416 -0.0125  0.2799 -0.4242
    1SOL    HW310607   3.885   0.098   4.547  0.3878  0.1329 -0.1743
    1SOL    MW410608   3.959   0.091   4.501  0.2644 -0.1943 -0.3238
    1SOL     OW10609   4.402   1.594   4.645 -0.1504 -0.3237  0.4077
    1SOL    HW210610   4.312   1.566   4.628 -1.0158  1.1672  2.3581
    1SOL    HW310611   4.421   1.656   4.575 -0.1830 -1.5654 -0.7242
    1SOL    MW410612   4.393   1.599   4.634 -0.2689 -0.2908  0.5155
    1SOL     OW10613   0.196   0.332   4.618 -0.5601 -0.4469 -0.0943
    1SOL    HW210614   0.252   0.257   4.636 -0.9013 -0.9869 -1.2299
    1SOL    HW310615   0.109   0.305   4.645 -0.5949 -0.2827 -0.0420
    1SOL    MW410616   0.192   0.319   4.624 -0.6097 -0.4965 -0.2375
    1SOL     OW10617   0.084   0.829   4.477  0.0489  0.0367 -0.0224
    1SOL    HW210618   0.147   0.758   4.489  1.7750  1.6023  0.3557
    1SOL    HW310619   0.064   0.827   4.383  0.4736 -0.6315 -0.1018
    1SOL    MW410620   0.090   0.819   4.466  0.3327  0.1551  0.0167
    1SOL     OW10621   4.323   0.791   4.569  0.6127  0.1740  0.1482
    1SOL    HW210622   4.302   0.698   4.559 -1.0572  0.5349  0.1422
    1SOL    HW310623   4.415   0.798   4.545  0.7788 -1.5072  0.2907
    1SOL    MW410624   4.332   0.780   4.564  0.4144 -0.0001  0.1664
    1SOL     OW10625   0.670   1.212   4.506  0.0145  0.0213  0.1169
    1SOL    HW210626   0.644   1.298   4.539 -0.3714  0.8545 -2.2674
    1SOL    HW310627   0.606   1.152   4.545 -0.5873  1.0167  0.6863
    1SOL    MW410628   0.658   1.215   4.515 -0.1159  0.2624 -0.1230
    1SOL     OW10629   0.905   1.933   4.598  0.3596  0.1375 -0.2245
    1SOL    HW210630   0.982   1.972   4.557  0.1741  0.3271 -0.4015
    1SOL    HW310631   0.939   1.873   4.663  0.6555  0.7635  0.2019
    1SOL    MW410632   0.919   1.930   4.601  0.3742  0.2451 -0.1912
    1SOL     OW10633   4.210   1.254   4.491 -0.1142 -0.3017 -0.2345
    1SOL    HW210634   4.189   1.162   4.507  0.0894 -0.4363 -0.7203
    1SOL    HW310635   4.289   1.270   4.542 -0.4383 -0.2490  0.2641
    1SOL    MW410636   4.217   1.244   4.500 -0.1297 -0.3126 -0.2332
    1SOL     OW10637   0.273   1.824   4.563 -0.1140  0.1281 -0.3797
    1SOL    HW210638   0.198   1.783   4.520 -0.7775  1.3818 -0.4329
    1SOL    HW310639   0.256   1.918   4.557  1.0400  0.3978  0.3729
    1SOL    MW410640   0.261   1.831   4.556 -0.0493  0.3291 -0.2875
    1SOL     OW10641   0.473   1.654   4.219 -0.1330 -0.0086  0.0050
    1SOL    HW210642   0.390   1.614   4.193 -0.0786 -0.1045 -0.0217
    1SOL    HW310643   0.539   1.591   4.190 -0.0399  0.1655 -0.1582
    1SOL    MW410644   0.470   1.640   4.212 -0.1135  0.0015 -0.0200
    1SOL     OW10645   0.211   2.101   4.527  0.4857  0.5743 -0.2520
    1SOL    HW210646   0.293   2.149   4.535  0.6275  0.0873  1.3322
    1SOL    HW310647   0.165   2.119   4.609 -0.6866  0.2689 -0.8311
    1SOL    MW410648   0.215   2.110   4.539  0.3497  0.4699 -0.1192
    1SOL     OW10649   4.094   2.322   4.516  0.1328 -0.2204 -0.2842
    1SOL    HW210650   4.114   2.414   4.528 -0.2247  0.0357 -1.5445
    1SOL    HW310651   4.168   2.276   4.554 -0.4780  0.5394  1.8591
    1SOL    MW410652   4.107   2.328   4.522  0.0048 -0.0865 -0.1678
    1SOL     OW10653   0.163   2.854   4.538  0.3382 -0.0524 -0.1360
    1SOL    HW210654   0.177   2.772   4.585  1.0776  0.3048  0.2621
    1SOL    HW310655   0.198   2.837   4.450  1.4408  0.1842  0.2590
    1SOL    MW410656   0.169   2.841   4.532  0.5813  0.0260 -0.0310
    1SOL     OW10657   0.186   3.164   4.515  0.4203 -0.5820  0.5955
    1SOL    HW210658   0.159   3.086   4.564 -1.7259 -0.3220 -0.1315
    1SOL    HW310659   0.118   3.176   4.449  1.2545  1.3416  0.0409
    1SOL    MW410660   0.174   3.155   4.512  0.2472 -0.2935  0.4263
    1SOL     OW10661   4.439   2.470   4.572 -0.7407 -0.0506 -0.0428
    1SOL    HW210662   4.473   2.467   4.483 -2.9625 -1.0205 -0.8913
    1SOL    HW310663   4.502   2.526   4.619  0.3925  0.5953 -2.2118
    1SOL    MW410664   4.452   2.477   4.566 -0.8845 -0.0932 -0.4416
    1SOL     OW10665   4.148   3.413   4.733  0.0842  0.3880  0.1868
    1SOL    HW210666   4.172   3.452   4.649 -0.2156 -1.4394 -0.7683
    1SOL    HW310667   4.188   3.327   4.732  0.6829  0.6177  2.2442
    1SOL    MW410668   4.156   3.407   4.722  0.1235  0.1771  0.3319
    1SOL     OW10669   0.092   3.629   4.695  0.0540  0.7221  0.4201
    1SOL    HW210670   0.022   3.693   4.707  0.2494  1.1116 -0.4213
    1SOL    HW310671   0.148   3.668   4.627  0.2922 -0.2468  0.0545
    1SOL    MW410672   0.090   3.643   4.688  0.1112  0.6459  0.2608
    1SOL     OW10673   4.266   3.775   4.610 -0.3827 -0.0240  0.5216
    1SOL    HW210674   4.206   3.840   4.573  0.1875  0.2709  0.1113
    1SOL    HW310675   4.256   3.698   4.554  0.3612  0.3675 -0.1438
    1SOL    MW410676   4.257   3.773   4.598 -0.2093  0.0670  0.3796
    1SOL     OW10677   4.204   0.200   4.821  0.3506 -0.0496 -0.6141
    1SOL    HW210678   4.194   0.250   4.902 -0.3454 -0.0564 -0.6909
    1SOL    HW310679   4.130   0.227   4.766  0.7355 -0.1500 -1.1926
    1SOL    MW410680   4.193   0.210   4.824  0.3090 -0.0638 -0.7005
    1SOL     OW10681   3.810   0.510   4.590 -0.0506 -0.4402  0.1002
    1SOL    HW210682   3.724   0.475   4.611  0.6532 -1.8567  0.6848
    1SOL    HW310683   3.816   0.591   4.640 -1.1324 -0.2192 -0.1230
    1SOL    MW410684   3.800   0.516   4.599 -0.1004 -0.5979  0.1473
    1SOL     OW10685   3.804   4.317   4.764 -0.2646  0.3607 -0.0766
    1SOL    HW210686   3.779   4.224   4.768 -0.4321  0.3790 -0.7059
    1SOL    HW310687   3.754   4.352   4.691 -1.4623  1.3473  1.2110
    1SOL    MW410688   3.794   4.309   4.755 -0.4444  0.4935  0.0095
    1SOL     OW10689   4.003   4.242   4.584 -0.4587 -0.1053  0.4146
    1SOL    HW210690   3.952   4.290   4.650 -0.0679 -0.5161  1.0188
    1SOL    HW310691   3.990   4.292   4.503  0.0361  1.1012  1.0591
    1SOL    MW410692   3.995   4.255   4.582 -0.3419  0.0005  0.5794
    1SOL     OW10693   0.344   0.048   4.542 -0.1108  0.3194  0.3104
    1SOL    HW210694   0.413  -0.006   4.580 -0.1997 -1.0477 -1.4011
    1SOL    HW310695   0.274  -0.014   4.522 -1.4676  1.5524  1.1397
    1SOL    MW410696   0.344   0.033   4.544 -0.3015  0.3017  0.1941
    1SOL     OW10697   0.202   1.026   4.632 -0.0681  0.4900 -0.0698
    1SOL    HW210698   0.148   1.040   4.710 -0.4689  0.3963 -0.3342
    1SOL    HW310699   0.148   0.972   4.575  0.5167 -0.0666 -0.0978
    1SOL    MW410700   0.188   1.021   4.635 -0.0438  0.4042 -0.1087
    1SOL     OW10701   1.329   0.890   4.723  0.0037  0.6303 -0.2079
    1SOL    HW210702   1.303   0.835   4.650 -0.7985  1.3367 -0.4554
    1SOL    HW310703   1.247   0.925   4.758  0.3717  0.2017  1.0988
    1SOL    MW410704   1.315   0.887   4.718 -0.0535  0.6670 -0.0677
    1SOL     OW10705   0.788   0.626   4.508 -0.4568 -0.2480 -0.2644
    1SOL    HW210706   0.706   0.666   4.538 -0.1712  1.2270 -1.4323
    1SOL    HW310707   0.762   0.574   4.432 -0.4729 -0.5942 -0.0233
    1SOL    MW410708   0.774   0.624   4.502 -0.4212 -0.0991 -0.3872
    1SOL     OW10709   1.084   1.010   4.809 -0.0031 -0.0599  0.3276
    1SOL    HW210710   1.004   1.027   4.758 -0.8528 -1.7243  1.0669
    1SOL    HW310711   1.056   1.014   4.900  1.1714  1.2407  0.6456
    1SOL    MW410712   1.070   1.013   4.814  0.0397 -0.1079  0.4668
    1SOL     OW10713   0.503   0.768   4.494  0.0446 -0.4626  0.1259
    1SOL    HW210714   0.419   0.729   4.518 -0.3997  0.9095  0.9036
    1SOL    HW310715   0.486   0.809   4.410 -0.4573  0.9175  0.8738
    1SOL    MW410716   0.489   0.768   4.486 -0.0803 -0.0995  0.3271
    1SOL     OW10717   2.000   1.164   4.571 -0.2657  0.2663  0.2762
    1SOL    HW210718   1.990   1.160   4.476 -1.1893  0.3926  0.3615
    1SOL    HW310719   2.094   1.160   4.586 -0.1232  0.1692 -0.6419
    1SOL    MW410720   2.011   1.163   4.560 -0.3688  0.2701  0.1664
    1SOL     OW10721   0.608   1.445   4.641 -0.1245 -0.0409  0.5545
    1SOL    HW210722   0.689   1.462   4.689 -0.3850  0.6103  0.7665
    1SOL    HW310723   0.589   1.528   4.597 -0.6745 -0.1944  0.5081
    1SOL    MW410724   0.616   1.458   4.642 -0.2314  0.0247  0.5760
    1SOL     OW10725   1.276   1.306   4.639 -0.2060 -0.0429  0.0731
    1SOL    HW210726   1.260   1.232   4.698  0.2602 -1.6637 -1.7534
    1SOL    HW310727   1.192   1.320   4.595  0.0099 -0.3071 -0.4395
    1SOL    MW410728   1.263   1.298   4.641 -0.1161 -0.2916 -0.2351
    1SOL     OW10729   0.891   1.518   4.695  0.1548  0.0277 -0.0668
    1SOL    HW210730   0.855   1.570   4.623  0.4549 -0.0034 -0.2397
    1SOL    HW310731   0.936   1.582   4.750  0.9223 -0.1115 -0.5268
    1SOL    MW410732   0.892   1.534   4.693  0.2956  0.0052 -0.1497
    1SOL     OW10733   0.700   2.090   4.524  0.2907 -0.5562  0.4078
    1SOL    HW210734   0.732   2.177   4.549 -0.1869 -0.6165  1.2247
    1SOL    HW310735   0.765   2.030   4.561  1.7067 -0.4802 -1.8319
    1SOL    MW410736   0.713   2.094   4.532  0.4145 -0.5541  0.2203
    1SOL     OW10737   1.275   1.770   4.791  0.3206 -0.1568  0.0827
    1SOL    HW210738   1.309   1.682   4.780 -0.1721 -0.2469 -0.7378
    1SOL    HW310739   1.315   1.821   4.721  1.9752  0.6939  1.5930
    1SOL    MW410740   1.284   1.765   4.780  0.4740 -0.0564  0.1736
    1SOL     OW10741   0.468   2.232   4.519  0.1027 -0.1214  0.1123
    1SOL    HW210742   0.548   2.181   4.505  0.1099  0.2084 -1.0626
    1SOL    HW310743   0.469   2.298   4.450 -1.5235 -0.5519 -0.3381
    1SOL    MW410744   0.479   2.234   4.508 -0.1109 -0.1349 -0.1020
    1SOL     OW10745   1.007   2.729   4.504  0.4146  0.0520  0.2036
    1SOL    HW210746   1.021   2.805   4.561  0.9971 -0.1709  0.3570
    1SOL    HW310747   1.035   2.759   4.417 -0.5086  0.4033  0.0258
    1SOL    MW410748   1.013   2.743   4.500  0.3698  0.0689  0.2003
    1SOL     OW10749   0.700   2.561   4.627 -0.2490  0.0761  0.0224
    1SOL    HW210750   0.765   2.554   4.697 -0.0027  0.9773 -0.1130
    1SOL    HW310751   0.713   2.482   4.575 -0.4947 -0.6551  1.0413
    1SOL    MW410752   0.710   2.550   4.630 -0.2488  0.0985  0.1392
    1SOL     OW10753   0.954   3.190   4.608 -0.1296  0.3141  0.1860
    1SOL    HW210754   0.926   3.273   4.648 -1.6016 -0.5899  1.0730
    1SOL    HW310755   0.872   3.143   4.591  0.6355 -0.4406 -1.4775
    1SOL    MW410756   0.939   3.195   4.611 -0.2229  0.0951  0.0834
    1SOL     OW10757   0.486   3.212   4.517 -0.2308  0.0558 -0.2258
    1SOL    HW210758   0.506   3.295   4.560  0.7747 -0.0206 -0.5429
    1SOL    HW310759   0.395   3.194   4.542  0.1017  0.3708  1.2647
    1SOL    MW410760   0.476   3.221   4.526 -0.0543  0.0870 -0.0710
    1SOL     OW10761   1.150   4.459   4.520 -0.1364  0.1827 -0.2747
    1SOL    HW210762   1.090   4.398   4.563 -0.4414  0.9420  0.3962
    1SOL    HW310763   1.236   4.436   4.554 -0.3701  0.7574  0.7326
    1SOL    MW410764   1.153   4.448   4.530 -0.2074  0.3591 -0.0534
    1SOL     OW10765   0.172   2.616   4.702 -0.0128 -0.4770  0.0375
    1SOL    HW210766   0.239   2.557   4.668  0.3941  0.1063 -0.1899
    1SOL    HW310767   0.204   2.642   4.789  1.0528  1.3565 -0.8739
    1SOL    MW410768   0.185   2.612   4.709  0.1814 -0.1578 -0.1125
    1SOL     OW10769   4.272   3.513   4.489  0.2033  0.4220 -0.8247
    1SOL    HW210770   4.357   3.487   4.523 -1.0868 -2.3187  0.4581
    1SOL    HW310771   4.280   3.502   4.394  1.4901  0.9036 -0.7820
    1SOL    MW410772   4.284   3.508   4.481  0.2031  0.1237 -0.6499
    1SOL     OW10773   0.685   4.331   4.561  0.3380 -0.0197  0.2656
    1SOL    HW210774   0.705   4.363   4.474  0.0380  0.7785  0.4855
    1SOL    HW310775   0.646   4.244   4.547 -1.3472  0.8323 -0.5029
    1SOL    MW410776   0.682   4.323   4.548  0.0761  0.1984  0.1936
    1SOL     OW10777   0.026   4.274   4.572  0.2060 -0.1811 -0.0839
    1SOL    HW210778   0.028   4.178   4.566  0.0899 -0.2055  0.2980
    1SOL    HW310779  -0.067   4.295   4.582  0.3407 -0.0884  0.9462
    1SOL    MW410780   0.014   4.264   4.572  0.2084 -0.1721  0.1020
    1SOL     OW10781   4.467   3.973   4.519  0.0768 -0.3283 -0.0080
    1SOL    HW210782   4.539   3.915   4.497  0.7132  0.4912 -0.1050
    1SOL    HW310783   4.401   3.915   4.558  1.0594 -0.9812  0.7158
    1SOL    MW410784   4.468   3.958   4.521  0.2905 -0.3059  0.0749
    1SOL     OW10785   0.139   4.511   4.468 -0.0647  0.8066 -0.0851
    1SOL    HW210786   0.100   4.425   4.487  0.2376  1.0377  1.7244
    1SOL    HW310787   0.078   4.574   4.506  0.0935  1.3508 -0.7349
    1SOL    MW410788   0.126   4.508   4.476 -0.0040  0.9089  0.0682
    1SOL     OW10789   0.901   0.174   4.611  0.0556 -0.3675 -0.0208
    1SOL    HW210790   0.908   0.269   4.622  1.0512 -0.2505 -1.5812
    1SOL    HW310791   0.867   0.162   4.523  0.0566 -1.4653  0.1191
    1SOL    MW410792   0.898   0.185   4.601  0.1871 -0.4969 -0.2079
    1SOL     OW10793   1.152   0.064   4.614 -0.0586 -0.1782 -0.3912
    1SOL    HW210794   1.067   0.094   4.648  0.7124  2.2064 -0.4564
    1SOL    HW310795   1.136  -0.026   4.586 -1.7197 -0.8753  2.6295
    1SOL    MW410796   1.138   0.056   4.614 -0.1761  0.0443 -0.0014
    1SOL     OW10797   0.966   0.848   4.474  0.3219 -0.4738 -0.1457
    1SOL    HW210798   0.937   0.860   4.384 -1.4322 -0.0617  0.4547
    1SOL    HW310799   0.908   0.780   4.510 -0.9444  1.4284  1.5158
    1SOL    MW410800   0.955   0.841   4.467 -0.0767 -0.1684  0.1531
    1SOL     OW10801   1.561   0.997   4.582  0.3070 -0.2350 -0.2738
    1SOL    HW210802   1.480   0.978   4.630 -0.6492  0.8102 -1.4143
    1SOL    HW310803   1.627   1.007   4.650 -0.4024 -1.6563  0.6524
    1SOL    MW410804   1.559   0.996   4.598  0.0874 -0.2846 -0.3023
    1SOL     OW10805   1.684   0.757   4.462 -0.6260 -0.1047  0.2234
    1SOL    HW210806   1.644   0.835   4.499  0.0051  0.1471  0.3756
    1SOL    HW310807   1.722   0.787   4.379  0.1010 -0.1230  0.5458
    1SOL    MW410808   1.684   0.771   4.456 -0.4470 -0.0739  0.2861
    1SOL     OW10809   0.517   1.023   4.616 -0.0741 -0.0013 -0.4081
    1SOL    HW210810   0.538   0.931   4.602  0.2745  0.2115 -1.3523
    1SOL    HW310811   0.422   1.027   4.612 -0.0563 -0.2133 -1.0888
    1SOL    MW410812   0.508   1.012   4.613 -0.0257 -0.0010 -0.6223
    1SOL     OW10813   0.804   1.691   4.494  0.0360  0.3689 -0.2207
    1SOL    HW210814   0.711   1.708   4.479 -0.3145 -1.8896 -0.7434
    1SOL    HW310815   0.840   1.776   4.520 -2.0746  1.3616 -0.4579
    1SOL    MW410816   0.796   1.705   4.496 -0.2888  0.2018 -0.3209
    1SOL     OW10817   0.910   1.108   4.589 -0.1835  0.4563  0.5986
    1SOL    HW210818   0.827   1.145   4.558  0.3684  0.4312 -0.9513
    1SOL    HW310819   0.909   1.017   4.558  1.3810  1.0760 -1.3813
    1SOL    MW410820   0.899   1.101   4.581  0.0958  0.5348  0.1330
    1SOL     OW10821   1.796   1.017   4.723 -0.7868  0.0514  0.2277
    1SOL    HW210822   1.836   0.931   4.708 -0.7047  0.0942  0.2003
    1SOL    HW310823   1.864   1.079   4.696 -0.3339  0.1408  1.5183
    1SOL    MW410824   1.810   1.014   4.718 -0.7161  0.0688  0.3948
    1SOL     OW10825   1.056   1.360   4.505 -0.0036 -0.0892 -0.3025
    1SOL    HW210826   1.017   1.276   4.526  0.2650 -0.4189 -1.1256
    1SOL    HW310827   1.008   1.423   4.559  0.1384 -0.8241  0.6955
    1SOL    MW410828   1.045   1.358   4.515  0.0505 -0.2296 -0.2789
    1SOL     OW10829   1.011   2.508   4.655 -0.1523  0.0533 -0.4104
    1SOL    HW210830   1.018   2.595   4.614  0.4204 -0.1419 -0.7399
    1SOL    HW310831   1.091   2.463   4.628  0.4162  0.0464  1.2576
    1SOL    MW410832   1.022   2.514   4.646 -0.0017  0.0267 -0.2337
    1SOL     OW10833   1.552   2.765   4.481 -0.4228  0.6760 -0.4608
    1SOL    HW210834   1.573   2.671   4.488 -0.7765  0.5321 -1.3592
    1SOL    HW310835   1.631   2.809   4.514 -1.2310  0.0422  2.4430
    1SOL    MW410836   1.565   2.758   4.486 -0.5760  0.5732 -0.1960
    1SOL     OW10837   1.561   2.799   4.219 -0.3477  0.6312  0.2870
    1SOL    HW210838   1.586   2.890   4.203  0.2992  0.2924 -0.5969
    1SOL    HW310839   1.564   2.791   4.314 -0.0477  1.4286  0.3526
    1SOL    MW410840   1.565   2.810   4.230 -0.2227  0.6917  0.1788
    1SOL     OW10841   0.873   3.437   4.715  0.3279  0.0111 -0.8710
    1SOL    HW210842   0.936   3.463   4.783 -1.1411  0.6486  0.2745
    1SOL    HW310843   0.870   3.513   4.656  1.0171 -0.2257 -1.2104
    1SOL    MW410844   0.881   3.451   4.716  0.2249  0.0641 -0.7644
    1SOL     OW10845   0.741   2.827   4.514 -0.5224  0.1641 -0.3672
    1SOL    HW210846   0.822   2.776   4.504 -1.1338 -0.4884 -2.2579
    1SOL    HW310847   0.687   2.774   4.572 -0.7650 -0.9014 -1.5356
    1SOL    MW410848   0.745   2.813   4.520 -0.6351 -0.0625 -0.7706
    1SOL     OW10849   0.484   3.858   4.474 -0.8474  0.7684  0.4683
    1SOL    HW210850   0.520   3.908   4.548 -1.3958  0.7677  0.7361
    1SOL    HW310851   0.498   3.915   4.398  1.5382 -0.0796  0.2488
    1SOL    MW410852   0.491   3.872   4.473 -0.6050  0.6566  0.4749
    1SOL     OW10853   1.072   2.946   4.667 -0.1830  0.3574  0.0038
    1SOL    HW210854   1.163   2.951   4.640  0.3816 -0.9634  1.6168
    1SOL    HW310855   1.041   3.037   4.664  0.8829  0.6736 -1.5145
    1SOL    MW410856   1.080   2.959   4.663  0.0319  0.2251  0.0157
    1SOL     OW10857   0.730   3.108   4.453 -0.4853  0.2552  0.4246
    1SOL    HW210858   0.643   3.147   4.460 -0.0574  1.3077  0.0171
    1SOL    HW310859   0.717   3.015   4.473 -1.8267  0.2558 -0.4435
    1SOL    MW410860   0.717   3.101   4.457 -0.6058  0.3941  0.2565
    1SOL     OW10861   1.580   3.537   4.555 -0.1409 -0.2129  0.0040
    1SOL    HW210862   1.635   3.461   4.535  0.1578  0.3967 -1.4825
    1SOL    HW310863   1.642   3.604   4.584 -0.1564  0.3093 -1.1815
    1SOL    MW410864   1.595   3.536   4.556 -0.1036 -0.0634 -0.3486
    1SOL     OW10865   0.657   3.656   4.471 -0.3087 -0.0041  0.2528
    1SOL    HW210866   0.744   3.685   4.498 -0.2978 -2.0501  2.6354
    1SOL    HW310867   0.603   3.735   4.475  1.1190  0.9916  0.1369
    1SOL    MW410868   0.661   3.670   4.475 -0.1189 -0.1428  0.5517
    1SOL     OW10869   0.209   3.771   4.494 -0.2669 -0.1760 -0.4017
    1SOL    HW210870   0.299   3.789   4.519 -0.2249 -1.1383  0.1918
    1SOL    HW310871   0.215   3.711   4.420 -0.4071  1.5472 -1.8190
    1SOL    MW410872   0.221   3.765   4.488 -0.2798 -0.0758 -0.5102
    1SOL     OW10873   0.648   4.054   4.641  0.3467  0.4240  0.3102
    1SOL    HW210874   0.742   4.037   4.628 -0.0663 -1.4513 -0.4519
    1SOL    HW310875   0.644   4.103   4.723  1.9755  0.1936  0.5553
    1SOL    MW410876   0.660   4.058   4.650  0.5071  0.1459  0.2422
    1SOL     OW10877   0.546   4.565   4.653 -0.0997  0.2311  0.0871
    1SOL    HW210878   0.572   4.485   4.607  0.7415  1.1756 -1.1443
    1SOL    HW310879   0.600   4.566   4.732 -0.8949 -0.9477  0.6628
    1SOL    MW410880   0.557   4.555   4.657 -0.0936  0.2003  0.0010
    1SOL     OW10881   1.327   3.432   4.635  0.0413 -0.0803  0.1525
    1SOL    HW210882   1.416   3.443   4.601 -0.4491  1.1884 -0.7795
    1SOL    HW310883   1.303   3.343   4.610  0.8839 -0.2759  0.0110
    1SOL    MW410884   1.336   3.422   4.627  0.0877  0.0613  0.0110
    1SOL     OW10885   1.375   4.331   4.623 -0.0611  0.3729 -0.5458
    1SOL    HW210886   1.346   4.340   4.714  0.5746  0.6734 -0.3666
    1SOL    HW310887   1.453   4.386   4.618 -1.2549  1.9910 -1.8234
    1SOL    MW410888   1.382   4.340   4.635 -0.1348  0.6261 -0.6905
    1SOL     OW10889   0.962   4.276   4.596 -0.3710  0.6672  0.0661
    1SOL    HW210890   0.965   4.187   4.560 -0.2613  1.0639 -0.8943
    1SOL    HW310891   0.869   4.300   4.592 -0.1904  1.2114 -1.1888
    1SOL    MW410892   0.950   4.267   4.591 -0.3327  0.7915 -0.2255
    1SOL     OW10893   0.950   0.460   4.642  0.1969  0.3481 -0.3034
    1SOL    HW210894   0.884   0.517   4.603  2.0685  1.5197 -1.8640
    1SOL    HW310895   0.938   0.469   4.736 -0.1848  2.5779 -0.5460
    1SOL    MW410896   0.940   0.468   4.649  0.3935  0.7969 -0.5412
    1SOL     OW10897   1.615   0.080   4.477 -0.0871  0.1256  0.0871
    1SOL    HW210898   1.525   0.103   4.500  0.0043  1.2332 -0.5942
    1SOL    HW310899   1.628  -0.008   4.512 -2.1622 -0.9321 -1.7125
    1SOL    MW410900   1.605   0.071   4.484 -0.3488  0.1321 -0.2403
    1SOL     OW10901   1.215   0.456   4.517  0.3800  0.5141 -0.3131
    1SOL    HW210902   1.215   0.552   4.518 -0.6502  0.5166  2.4605
    1SOL    HW310903   1.133   0.432   4.561  0.3356 -1.6511 -1.5319
    1SOL    MW410904   1.204   0.466   4.523  0.2383  0.2288 -0.1087
    1SOL     OW10905   1.862   1.667   4.943  0.4121 -0.1181 -0.0110
    1SOL    HW210906   1.834   1.585   4.982  0.6640 -0.4643 -0.5529
    1SOL    HW310907   1.922   1.641   4.873 -1.5851  0.3918 -1.9608
    1SOL    MW410908   1.866   1.653   4.939  0.1818 -0.0964 -0.3400
    1SOL     OW10909   1.209   0.737   4.513  0.4212  0.2935  0.5144
    1SOL    HW210910   1.258   0.776   4.440  0.7028  0.7801  0.9647
    1SOL    HW310911   1.121   0.775   4.506 -0.2933 -1.5562 -1.0724
    1SOL    MW410912   1.203   0.747   4.502  0.3641  0.1137  0.3643
    1SOL     OW10913   1.998   0.466   4.610 -0.0751  0.1136 -0.4049
    1SOL    HW210914   2.072   0.404   4.614 -0.0201  0.2715  1.6377
    1SOL    HW310915   1.921   0.411   4.622 -0.1096  0.2754  0.1230
    1SOL    MW410916   1.998   0.451   4.612 -0.0725  0.1558 -0.0658
    1SOL     OW10917   1.539   1.254   4.521  0.2545  0.0797 -0.1784
    1SOL    HW210918   1.451   1.271   4.553  0.1113  1.0822 -1.0778
    1SOL    HW310919   1.550   1.160   4.529 -1.3298 -0.2071 -1.1552
    1SOL    MW410920   1.529   1.244   4.526  0.0266  0.1740 -0.4263
    1SOL     OW10921   1.432   1.659   4.478  0.2694  0.4963  0.2803
    1SOL    HW210922   1.528   1.662   4.486  0.2508 -0.3155  0.8613
    1SOL    HW310923   1.416   1.643   4.385  0.7684 -2.2119  0.6228
    1SOL    MW410924   1.443   1.658   4.467  0.3328  0.0321  0.4020
    1SOL     OW10925   1.312   2.925   4.494 -0.3416 -0.3577  0.0241
    1SOL    HW210926   1.401   2.891   4.486 -0.3400  0.0304 -1.8553
    1SOL    HW310927   1.258   2.865   4.443 -1.2573 -0.8793  1.5569
    1SOL    MW410928   1.316   2.913   4.486 -0.4622 -0.3753 -0.0215
    1SOL     OW10929   2.295   2.473   4.226  0.3988  0.7605  0.2235
    1SOL    HW210930   2.357   2.412   4.264 -0.7623 -0.1518  0.6947
    1SOL    HW310931   2.284   2.541   4.293  1.9832  1.7265 -0.4585
    1SOL    MW410932   2.301   2.474   4.240  0.4547  0.7677  0.1955
    1SOL     OW10933   0.846   2.352   4.510 -0.1754  0.0119 -0.1393
    1SOL    HW210934   0.895   2.416   4.561 -0.5074 -0.0866  0.3098
    1SOL    HW310935   0.870   2.370   4.419  1.4693 -0.6816  0.1288
    1SOL    MW410936   0.856   2.363   4.505 -0.0022 -0.0927 -0.0443
    1SOL     OW10937   1.193   3.933   4.548 -0.5684  0.2217  0.0221
    1SOL    HW210938   1.213   3.842   4.525 -0.0999  1.0493 -3.0617
    1SOL    HW310939   1.278   3.973   4.565 -0.6062  0.5679 -0.5892
    1SOL    MW410940   1.207   3.926   4.547 -0.5115  0.3767 -0.4654
    1SOL     OW10941   1.217   2.344   4.523 -0.3224  0.2727 -0.2158
    1SOL    HW210942   1.236   2.390   4.440 -0.4387 -2.2525 -1.6917
    1SOL    HW310943   1.302   2.336   4.566 -0.0111  0.2339 -0.8295
    1SOL    MW410944   1.231   2.349   4.517 -0.2966 -0.0658 -0.4916
    1SOL     OW10945   1.570   2.067   4.530 -0.4104 -0.0456 -0.2995
    1SOL    HW210946   1.660   2.043   4.551 -0.3115  1.1226  0.6202
    1SOL    HW310947   1.573   2.088   4.436  0.7315  2.0134  0.1626
    1SOL    MW410948   1.583   2.066   4.520 -0.2466  0.3805 -0.1178
    1SOL     OW10949   1.233   3.204   4.510 -0.0943 -0.1239 -0.0085
    1SOL    HW210950   1.138   3.201   4.517 -0.0457 -0.6817  0.4839
    1SOL    HW310951   1.259   3.112   4.504  0.4260  0.0154  0.1150
    1SOL    MW410952   1.224   3.192   4.510 -0.0193 -0.1793  0.0730
    1SOL     OW10953   1.179   3.646   4.509 -0.3218 -0.6409 -0.2401
    1SOL    HW210954   1.214   3.569   4.554  0.6053 -0.0907  0.0127
    1SOL    HW310955   1.162   3.616   4.420 -1.2898 -1.4946  0.2163
    1SOL    MW410956   1.182   3.632   4.504 -0.3272 -0.6812 -0.1464
    1SOL     OW10957   0.927   3.705   4.587 -0.1514 -0.4752 -0.0672
    1SOL    HW210958   1.018   3.683   4.568 -0.1164 -1.2531  0.9248
    1SOL    HW310959   0.927   3.800   4.600  0.6916 -0.5785  0.7789
    1SOL    MW410960   0.939   3.714   4.586 -0.0355 -0.5915  0.1750
    1SOL     OW10961   2.219   3.756   4.572  0.1551 -0.2194  0.3899
    1SOL    HW210962   2.140   3.703   4.563  0.7217 -0.7045 -2.0120
    1SOL    HW310963   2.190   3.846   4.552  0.3895 -0.5431 -1.4653
    1SOL    MW410964   2.205   3.761   4.569  0.2611 -0.3262 -0.1717
    1SOL     OW10965   1.783   3.336   4.514  0.2739 -0.1758 -0.2794
    1SOL    HW210966   1.865   3.348   4.563  0.1408  1.7747 -0.5009
    1SOL    HW310967   1.812   3.312   4.426  0.6527  1.7297 -0.6890
    1SOL    MW410968   1.798   3.334   4.509  0.3064  0.3331 -0.3624
    1SOL     OW10969   2.327   3.351   4.436 -0.2305 -0.0094  0.0431
    1SOL    HW210970   2.383   3.367   4.512 -1.5096  1.5677  0.7008
    1SOL    HW310971   2.333   3.257   4.421  1.2423 -0.1083  1.1512
    1SOL    MW410972   2.335   3.341   4.444 -0.2053  0.1855  0.2756
    1SOL     OW10973   0.934   3.997   4.528 -0.1312 -0.0886 -0.0411
    1SOL    HW210974   0.911   4.010   4.436  0.0364  1.9986  0.1754
    1SOL    HW310975   1.027   3.972   4.526 -0.1215 -0.0228 -0.4361
    1SOL    MW410976   0.943   3.995   4.516 -0.1078  0.1953 -0.0648
    1SOL     OW10977   1.775   4.263   4.595 -0.2494  0.0259  0.2053
    1SOL    HW210978   1.863   4.262   4.557 -0.1284  0.8979  0.4450
    1SOL    HW310979   1.753   4.171   4.607  1.3545 -0.1954  1.7885
    1SOL    MW410980   1.784   4.251   4.592 -0.0219  0.1121  0.4463
    1SOL     OW10981   2.246   0.288   4.670 -0.1187 -0.7854  0.2153
    1SOL    HW210982   2.307   0.359   4.654 -2.0985  0.3564 -2.6208
    1SOL    HW310983   2.215   0.303   4.760 -0.1250  1.6406 -0.1700
    1SOL    MW410984   2.250   0.299   4.680 -0.3810 -0.3147 -0.2103
    1SOL     OW10985   1.363   0.201   4.479  0.2076 -0.0752 -0.0068
    1SOL    HW210986   1.330   0.290   4.496  2.3634  0.6639  0.5331
    1SOL    HW310987   1.300   0.143   4.521 -0.1124  1.3156  1.4719
    1SOL    MW410988   1.350   0.205   4.487  0.4498  0.2058  0.2589
    1SOL     OW10989   1.771   0.323   4.536 -0.0276  0.2045  0.1621
    1SOL    HW210990   1.715   0.246   4.532 -0.9525  0.8540  0.4359
    1SOL    HW310991   1.710   0.397   4.543  0.8687  0.8908  0.8507
    1SOL    MW410992   1.756   0.323   4.536 -0.0314  0.3808  0.2890
    1SOL     OW10993   2.369   0.093   4.513  0.4988 -0.0723  0.6527
    1SOL    HW210994   2.333   0.108   4.425 -0.0731 -0.5780  0.7930
    1SOL    HW310995   2.322   0.155   4.569 -0.1314 -0.6899  0.8257
    1SOL    MW410996   2.358   0.103   4.509  0.3400 -0.2205  0.6938
    1SOL     OW10997   1.947   0.746   4.590 -0.2840  0.5379 -0.0082
    1SOL    HW210998   1.971   0.655   4.606  0.6999  0.2815 -2.6971
    1SOL    HW310999   1.858   0.742   4.554  0.5716  0.4195 -2.1896
    1SOL    MW411000   1.938   0.734   4.588 -0.0412  0.4885 -0.6504
    1SOL     OW11001   1.540   0.513   4.488  0.1295  0.0724  0.1437
    1SOL    HW211002   1.576   0.601   4.485  1.3365 -0.3147  2.3977
    1SOL    HW311003   1.456   0.522   4.532  0.3204  0.0631  0.5055
    1SOL    MW411004   1.534   0.526   4.493  0.3139  0.0201  0.4888
    1SOL     OW11005   2.030   1.610   4.723  0.1380  0.4618  0.2635
    1SOL    HW211006   1.981   1.550   4.668  1.3446 -0.6732  0.4293
    1SOL    HW311007   2.119   1.609   4.689  0.7052  0.3912  1.6930
    1SOL    MW411008   2.035   1.602   4.711  0.3719  0.3029  0.4745
    1SOL     OW11009   0.993   1.758   4.802  0.0167 -0.2427 -0.3693
    1SOL    HW211010   0.977   1.802   4.885  0.1197  0.8625 -0.9309
    1SOL    HW311011   1.088   1.759   4.792 -0.0633  0.6704 -1.0590
    1SOL    MW411012   1.004   1.764   4.812  0.0198  0.0236 -0.5341
    1SOL     OW11013   1.673   1.394   4.722 -0.4412 -0.2307 -0.3077
    1SOL    HW211014   1.631   1.351   4.648 -0.0874  0.4540 -0.9135
    1SOL    HW311015   1.610   1.460   4.750 -0.5787 -0.4956  0.0161
    1SOL    MW411016   1.659   1.397   4.716 -0.4126 -0.1754 -0.3452
    1SOL     OW11017   1.118   2.054   4.476  0.2085 -0.4220 -0.1701
    1SOL    HW211018   1.200   2.021   4.512 -0.4621 -1.7347  0.1619
    1SOL    HW311019   1.123   2.149   4.489  1.5749 -0.5125  0.0368
    1SOL    MW411020   1.129   2.062   4.482  0.3003 -0.6070 -0.0992
    1SOL     OW11021   1.700   1.638   4.469 -0.0472 -0.4241  0.3986
    1SOL    HW211022   1.767   1.587   4.515  0.5476 -1.2213 -1.3042
    1SOL    HW311023   1.731   1.642   4.378 -2.5698 -1.2639 -0.5375
    1SOL    MW411024   1.713   1.632   4.463 -0.3015 -0.6400  0.0505
    1SOL     OW11025   2.018   2.080   4.265  0.0278 -0.1802 -0.4696
    1SOL    HW211026   2.033   2.103   4.357  0.4852 -1.4089 -0.2317
    1SOL    HW311027   2.038   2.160   4.217 -3.5327  1.5524  0.7520
    1SOL    MW411028   2.023   2.094   4.271 -0.3817 -0.1137 -0.2766
    1SOL     OW11029   1.336   1.905   4.568 -0.3616  0.2857 -0.0913
    1SOL    HW211030   1.360   1.822   4.528 -1.1976  0.2632 -0.5720
    1SOL    HW311031   1.413   1.961   4.557  0.8147 -0.9378  1.7237
    1SOL    MW411032   1.349   1.901   4.561 -0.3167  0.1212  0.0849
    1SOL     OW11033   2.505   2.963   4.591  0.0327  0.1585 -0.3761
    1SOL    HW211034   2.505   3.029   4.661  1.9882  0.4713 -0.6273
    1SOL    HW311035   2.414   2.935   4.584 -0.3681  0.8891  1.5722
    1SOL    MW411036   2.493   2.968   4.599  0.2379  0.2961 -0.1526
    1SOL     OW11037   1.861   2.903   4.282  0.5149 -0.4786 -0.2546
    1SOL    HW211038   1.813   2.933   4.360 -0.1429 -2.0658 -0.0376
    1SOL    HW311039   1.936   2.856   4.318 -0.2123 -1.8887 -0.5729
    1SOL    MW411040   1.865   2.901   4.297  0.3321 -0.8738 -0.2680
    1SOL     OW11041   1.694   3.980   4.524 -0.3575  0.5749  0.1691
    1SOL    HW211042   1.712   3.987   4.430 -1.2727 -0.8268 -0.1281
    1SOL    HW311043   1.745   3.904   4.552  0.6957  1.5841  1.0259
    1SOL    MW411044   1.703   3.971   4.515 -0.3393  0.5229  0.2437
    1SOL     OW11045   2.445   3.148   4.812  0.3137 -0.1177 -0.4501
    1SOL    HW211046   2.425   3.237   4.783  1.3226  0.0354 -0.6879
    1SOL    HW311047   2.360   3.103   4.809 -0.1586  0.7556 -0.5796
    1SOL    MW411048   2.431   3.154   4.808  0.3843  0.0179 -0.4988
    1SOL     OW11049   2.072   3.298   4.541  0.2823  0.4726 -0.3187
    1SOL    HW211050   2.081   3.203   4.540 -0.3257  0.3710  1.1250
    1SOL    HW311051   2.154   3.331   4.506  0.2307 -0.5912 -1.4763
    1SOL    MW411052   2.084   3.290   4.536  0.1955  0.3190 -0.2809
    1SOL     OW11053   2.623   3.904   4.556 -0.0096 -0.2880  0.0074
    1SOL    HW211054   2.568   3.826   4.566 -0.5457  0.0239 -0.4679
    1SOL    HW311055   2.615   3.926   4.463 -0.0185  0.4490  0.1850
    1SOL    MW411056   2.614   3.896   4.545 -0.0813 -0.1495 -0.0324
    1SOL     OW11057   2.441   4.103   4.641  0.2146 -0.0412 -0.1459
    1SOL    HW211058   2.506   4.044   4.602  1.1806  1.2356 -0.5214
    1SOL    HW311059   2.461   4.102   4.734 -0.5671 -1.2529  0.0209
    1SOL    MW411060   2.452   4.095   4.648  0.2391 -0.0329 -0.1736
    1SOL     OW11061   2.483   3.660   4.516 -0.2561 -0.0694 -0.2039
    1SOL    HW211062   2.487   3.634   4.424  0.0449 -0.1556 -0.1660
    1SOL    HW311063   2.394   3.692   4.528 -0.4980 -0.6827 -0.3615
    1SOL    MW411064   2.472   3.661   4.505 -0.2482 -0.1619 -0.2198
    1SOL     OW11065   2.001   3.581   4.552  0.4943 -0.1973  0.2027
    1SOL    HW211066   1.996   3.586   4.457 -1.5354  0.1949  0.3111
    1SOL    HW311067   2.018   3.488   4.570  0.0434 -0.4236 -0.5128
    1SOL    MW411068   2.003   3.569   4.542  0.1669 -0.1752  0.1225
    1SOL     OW11069   1.789   3.744   4.637 -0.2750 -0.9109 -0.4562
    1SOL    HW211070   1.811   3.746   4.731 -1.7194  1.2138 -0.1449
    1SOL    HW311071   1.856   3.687   4.599  1.3676 -0.4447  1.6103
    1SOL    MW411072   1.801   3.737   4.645 -0.2489 -0.5691 -0.1426
    1SOL     OW11073   1.610   4.478   4.536 -0.1088  0.0876 -0.2831
    1SOL    HW211074   1.670   4.407   4.556  0.3392  0.7182  0.6589
    1SOL    HW311075   1.602   4.477   4.441 -0.1567 -1.2573 -0.2772
    1SOL    MW411076   1.616   4.469   4.526 -0.0559 -0.0067 -0.1578
    1SOL     OW11077   2.033   4.314   4.487  0.2453 -0.0868 -0.0130
    1SOL    HW211078   2.079   4.232   4.508 -0.9463 -0.1565  2.6609
    1SOL    HW311079   2.071   4.378   4.547  1.0668  1.3049 -2.0080
    1SOL    MW411080   2.044   4.311   4.498  0.1967  0.0877  0.0763
    1SOL     OW11081   2.216   4.510   4.574 -0.0825  0.3552 -0.2096
    1SOL    HW211082   2.298   4.462   4.588 -1.1095 -1.2800  0.3497
    1SOL    HW311083   2.244   4.598   4.552  1.8430 -0.1937 -0.0940
    1SOL    MW411084   2.231   4.515   4.573  0.0358  0.0668 -0.1211
    1SOL     OW11085   1.413   1.541   4.730  0.7181  0.2886  0.2574
    1SOL    HW211086   1.368   1.458   4.719 -0.4520  0.7532  1.5189
    1SOL    HW311087   1.434   1.569   4.640  1.0605 -1.3170 -0.1684
    1SOL    MW411088   1.410   1.534   4.716  0.6088  0.1380  0.3676
    1SOL     OW11089   2.653   0.144   4.530  0.1842  0.1518  0.3868
    1SOL    HW211090   2.559   0.129   4.539  0.5164 -0.8401  2.3672
    1SOL    HW311091   2.673   0.118   4.440 -1.7241  1.9984 -0.5983
    1SOL    MW411092   2.643   0.138   4.519 -0.0238  0.2646  0.5183
    1SOL     OW11093   2.447   0.740   4.670 -0.3727 -0.1678  0.3711
    1SOL    HW211094   2.368   0.786   4.641 -1.3236 -1.5690  0.6848
    1SOL    HW311095   2.519   0.791   4.632 -1.4562  0.2777 -1.1751
    1SOL    MW411096   2.446   0.753   4.661 -0.6413 -0.2939  0.2084
    1SOL     OW11097   2.911   0.746   4.614  0.4194  0.1731  0.6510
    1SOL    HW211098   2.994   0.782   4.583 -0.3752  0.7286 -0.8860
    1SOL    HW311099   2.917   0.652   4.596  0.6890  0.2243  0.4794
    1SOL    MW411100   2.923   0.738   4.607  0.3500  0.2531  0.4253
    1SOL     OW11101   2.251   1.088   4.655  0.2944 -0.2446  0.0472
    1SOL    HW211102   2.271   1.058   4.744 -0.1670 -0.0916  0.2016
    1SOL    HW311103   2.324   1.146   4.632  0.2842 -0.0888  0.4136
    1SOL    MW411104   2.264   1.091   4.663  0.2317 -0.2038  0.1163
    1SOL     OW11105   2.460   1.241   4.564  0.1164 -0.2621 -0.1232
    1SOL    HW211106   2.546   1.202   4.576  0.3775  0.3618  0.0680
    1SOL    HW311107   2.474   1.334   4.582 -0.8155 -0.3217  0.9316
    1SOL    MW411108   2.473   1.248   4.568  0.0277 -0.1876  0.0415
    1SOL     OW11109   2.549   1.522   4.609 -0.0746  0.6589  0.3414
    1SOL    HW211110   2.602   1.594   4.576 -1.0327 -0.2473 -3.4210
    1SOL    HW311111   2.460   1.558   4.614 -0.5000 -0.1513 -1.2451
    1SOL    MW411112   2.544   1.536   4.605 -0.2568  0.4325 -0.3648
    1SOL     OW11113   2.281   1.660   4.569 -0.3847 -0.3659  0.1970
    1SOL    HW211114   2.270   1.665   4.474  1.0985 -0.2581  0.0140
    1SOL    HW311115   2.248   1.744   4.602 -1.3127 -0.5822 -0.1761
    1SOL    MW411116   2.276   1.672   4.561 -0.3116 -0.3802  0.1240
    1SOL     OW11117   2.399   2.245   4.562  0.1488  0.1827 -0.1107
    1SOL    HW211118   2.403   2.337   4.589 -0.0655 -0.5427  2.4705
    1SOL    HW311119   2.309   2.233   4.531  0.4980  1.1143 -1.5266
    1SOL    MW411120   2.388   2.256   4.561  0.1664  0.2096  0.0429
    1SOL     OW11121   2.437   1.971   4.548  0.1423 -0.5227  0.3726
    1SOL    HW211122   2.347   1.946   4.567 -0.2367  0.2360 -0.3962
    1SOL    HW311123   2.437   2.067   4.556  0.3372 -0.3078 -1.8695
    1SOL    MW411124   2.425   1.981   4.552  0.1180 -0.3941 -0.0248
    1SOL     OW11125   2.712   2.514   4.554  0.1375 -0.8335  0.5910
    1SOL    HW211126   2.620   2.527   4.574 -0.1261  0.2961 -1.2799
    1SOL    HW311127   2.757   2.588   4.595 -0.2547  0.7439 -1.7166
    1SOL    MW411128   2.706   2.526   4.562  0.0510 -0.4764  0.0396
    1SOL     OW11129   1.560   2.490   4.393  0.5130  0.0062  0.0291
    1SOL    HW211130   1.629   2.444   4.344  0.2246  0.3356 -0.6913
    1SOL    HW311131   1.485   2.489   4.334 -0.4440 -1.3138  1.2432
    1SOL    MW411132   1.560   2.484   4.379  0.3487 -0.1245  0.0939
    1SOL     OW11133   2.227   2.994   4.796 -0.3208 -0.1350  0.1832
    1SOL    HW211134   2.160   2.958   4.854 -0.1101 -0.5963  0.1431
    1SOL    HW311135   2.249   2.921   4.737  1.5121 -0.5337  1.3393
    1SOL    MW411136   2.221   2.979   4.796 -0.0508 -0.2487  0.3309
    1SOL     OW11137   2.488   3.414   4.649  0.3231  0.6306 -0.1022
    1SOL    HW211138   2.570   3.378   4.614 -0.1871 -0.3892 -0.2561
    1SOL    HW311139   2.481   3.501   4.609  0.2840 -0.0974 -1.7213
    1SOL    MW411140   2.498   3.421   4.639  0.2508  0.3998 -0.3362
    1SOL     OW11141   2.686   3.017   4.896  0.4551  0.0292 -0.2326
    1SOL    HW211142   2.742   3.055   4.828  0.8761 -1.4292 -0.7247
    1SOL    HW311143   2.604   3.067   4.890  0.6666  0.2548 -1.4669
    1SOL    MW411144   2.682   3.029   4.886  0.5386 -0.1335 -0.4606
    1SOL     OW11145   1.427   4.073   4.531 -0.1070  0.5209 -0.0988
    1SOL    HW211146   1.419   4.159   4.573 -2.7003 -0.1980  1.0345
    1SOL    HW311147   1.511   4.039   4.561  0.1960  1.9772  0.7745
    1SOL    MW411148   1.437   4.080   4.541 -0.4091  0.6175  0.1659
    1SOL     OW11149   2.705   4.518   4.627 -0.0681 -0.2026 -0.1544
    1SOL    HW211150   2.619   4.477   4.612 -0.1926 -0.6115  1.5670
    1SOL    HW311151   2.694   4.608   4.595 -0.7523 -0.6187 -1.1099
    1SOL    MW411152   2.692   4.525   4.621 -0.1748 -0.3114 -0.0534
    1SOL     OW11153   2.044   3.026   4.574  0.2699  0.2219  0.1312
    1SOL    HW211154   2.072   2.952   4.520  0.9659 -0.5035  1.4362
    1SOL    HW311155   2.097   3.019   4.653 -1.7395  0.3691  1.5472
    1SOL    MW411156   2.054   3.015   4.578  0.0966  0.1457  0.4902
    1SOL     OW11157   3.552   3.796   4.774 -0.6812 -0.1408 -0.0950
    1SOL    HW211158   3.537   3.744   4.853  1.7273  1.0534  1.2097
    1SOL    HW311159   3.544   3.733   4.702 -1.0211 -1.6423  1.2172
    1SOL    MW411160   3.549   3.781   4.775 -0.4084 -0.1814  0.2503
    1SOL     OW11161   3.074   3.970   4.582  0.7154 -0.0745  0.6258
    1SOL    HW211162   3.021   3.891   4.588  0.9324 -0.3329 -0.6364
    1SOL    HW311163   3.154   3.949   4.630  0.3077 -0.2264  1.2382
    1SOL    MW411164   3.078   3.957   4.589  0.6900 -0.1287  0.5403
    1SOL     OW11165   2.168   4.052   4.550 -0.1027 -0.5834 -0.2201
    1SOL    HW211166   2.249   4.055   4.600 -0.8412  1.5683  0.8741
    1SOL    HW311167   2.196   4.057   4.458  0.9948 -0.1300  0.1414
    1SOL    MW411168   2.182   4.053   4.544 -0.0553 -0.2394 -0.0286
    1SOL     OW11169   2.456   4.377   4.575 -0.4723  0.1535 -0.2673
    1SOL    HW211170   2.456   4.281   4.577  0.4805  0.1430 -0.1999
    1SOL    HW311171   2.457   4.399   4.482  3.1100  0.0316 -0.3251
    1SOL    MW411172   2.456   4.367   4.563  0.1259  0.1359 -0.2661
    1SOL     OW11173   3.167   0.347   4.654  0.1551 -0.1323 -0.3426
    1SOL    HW211174   3.087   0.396   4.635 -0.0063 -0.3922 -0.3275
    1SOL    HW311175   3.237   0.405   4.625 -0.0221  0.2852  0.0590
    1SOL    MW411176   3.166   0.361   4.648  0.1101 -0.1116 -0.2880
    1SOL     OW11177   2.693   0.382   4.659  0.0609  0.0535 -0.0787
    1SOL    HW211178   2.688   0.302   4.607  0.8882 -0.7421  1.0473
    1SOL    HW311179   2.710   0.352   4.748 -1.5327  1.3902  0.7080
    1SOL    MW411180   2.695   0.367   4.664 -0.0401  0.1249  0.1731
    1SOL     OW11181   3.212   0.082   4.564 -0.0146  0.2690 -0.2419
    1SOL    HW211182   3.147   0.024   4.602 -0.9892 -0.6581 -3.1549
    1SOL    HW311183   3.195   0.168   4.603 -1.3720 -0.4866  0.8388
    1SOL    MW411184   3.202   0.086   4.574 -0.3223  0.0470 -0.4835
    1SOL     OW11185   2.664   0.868   4.562  0.3985  0.0178 -0.2436
    1SOL    HW211186   2.753   0.833   4.574  0.8300  1.1185 -0.1465
    1SOL    HW311187   2.655   0.877   4.467  0.7295  0.7318 -0.2135
    1SOL    MW411188   2.675   0.865   4.551  0.4992  0.2572 -0.2265
    1SOL     OW11189   3.530   0.660   4.836  0.0535  0.2870 -0.2843
    1SOL    HW211190   3.565   0.571   4.822 -0.7381 -0.2115  0.8425
    1SOL    HW311191   3.606   0.717   4.823  0.8721 -0.6494  0.2315
    1SOL    MW411192   3.545   0.656   4.833  0.0572  0.0977 -0.0672
    1SOL     OW11193   2.199   0.852   4.505 -0.1307  0.0246  0.0299
    1SOL    HW211194   2.219   0.926   4.562 -0.0332 -0.0078  0.0377
    1SOL    HW311195   2.112   0.824   4.533 -0.3401  0.3949 -0.2529
    1SOL    MW411196   2.190   0.858   4.517 -0.1457  0.0692 -0.0062
    1SOL     OW11197   2.704   1.144   4.637  0.1139  0.4567  0.0953
    1SOL    HW211198   2.777   1.188   4.593 -0.1938 -1.0122 -1.9929
    1SOL    HW311199   2.711   1.053   4.608 -2.6389  0.3211 -0.2952
    1SOL    MW411200   2.715   1.138   4.627 -0.2897  0.2451 -0.2313
    1SOL     OW11201   2.917   1.276   4.519 -0.5137  0.4306 -0.4703
    1SOL    HW211202   2.923   1.288   4.424 -1.2093  0.0268 -0.5673
    1SOL    HW311203   2.916   1.364   4.554  0.3483  0.5808 -0.7999
    1SOL    MW411204   2.918   1.289   4.511 -0.4916  0.3971 -0.5269
    1SOL     OW11205   2.940   1.539   4.619  0.2272  0.4506 -0.4249
    1SOL    HW211206   2.875   1.601   4.587  0.1702  0.4846 -0.2459
    1SOL    HW311207   2.895   1.494   4.691 -0.0642 -0.4537 -1.1628
    1SOL    MW411208   2.925   1.541   4.624  0.1810  0.3358 -0.4988
    1SOL     OW11209   2.762   1.706   4.504  0.2646 -0.1261  0.1788
    1SOL    HW211210   2.751   1.799   4.521  2.5862  0.3877 -0.8297
    1SOL    HW311211   2.758   1.698   4.409 -0.1019 -1.0810  0.2658
    1SOL    MW411212   2.760   1.717   4.494  0.5224 -0.1843  0.0572
    1SOL     OW11213   2.709   1.986   4.521 -0.2784 -0.5542 -0.1934
    1SOL    HW211214   2.728   2.071   4.560  0.0033 -0.5880 -0.2538
    1SOL    HW311215   2.616   1.972   4.536  0.0923 -1.1594  1.6411
    1SOL    MW411216   2.699   1.995   4.528 -0.1922 -0.6384  0.0405
    1SOL     OW11217   2.719   2.262   4.672  0.0326  0.4517 -0.3019
    1SOL    HW211218   2.732   2.346   4.629  0.5548  0.3356 -0.3667
    1SOL    HW311219   2.629   2.266   4.705  0.4501  1.5039  0.7381
    1SOL    MW411220   2.709   2.273   4.671  0.1566  0.5753 -0.1731
    1SOL     OW11221   3.034   2.269   4.632  0.2728 -0.5217  0.1680
    1SOL    HW211222   3.051   2.226   4.548 -0.5351 -0.5818  0.0262
    1SOL    HW311223   2.940   2.258   4.645 -0.2598  2.6086 -0.6718
    1SOL    MW411224   3.024   2.262   4.622  0.0958 -0.1163  0.0381
    1SOL     OW11225   2.341   2.662   4.822  0.0659  0.1613 -0.5052
    1SOL    HW211226   2.431   2.694   4.827  0.2345 -0.3778  0.0567
    1SOL    HW311227   2.302   2.709   4.749  1.0554 -0.2024 -1.2774
    1SOL    MW411228   2.348   2.672   4.813  0.2191  0.0424 -0.5331
    1SOL     OW11229   3.370   2.897   4.583 -0.0727 -0.1957 -0.2198
    1SOL    HW211230   3.369   2.854   4.497 -0.4891  0.4341 -0.5406
    1SOL    HW311231   3.323   2.979   4.568 -1.8405 -0.9341  1.0457
    1SOL    MW411232   3.363   2.902   4.570 -0.3605 -0.2098 -0.0954
    1SOL     OW11233   2.619   2.776   4.771  0.0186  0.0730 -0.2438
    1SOL    HW211234   2.637   2.842   4.839 -2.6191  0.7086 -0.1245
    1SOL    HW311235   2.564   2.821   4.707  0.1494 -1.3520 -1.4036
    1SOL    MW411236   2.614   2.791   4.771 -0.3121 -0.0315 -0.3810
    1SOL     OW11237   2.882   3.489   4.685  0.3895 -0.1731  0.7008
    1SOL    HW211238   2.827   3.445   4.621 -0.0277 -0.3967  1.2139
    1SOL    HW311239   2.841   3.470   4.770 -0.2908  1.8660  0.8677
    1SOL    MW411240   2.869   3.481   4.688  0.2449  0.0663  0.7906
    1SOL     OW11241   2.731   3.304   4.556 -0.3011 -0.4898 -0.0325
    1SOL    HW211242   2.774   3.232   4.603 -0.7291 -1.2591 -0.7957
    1SOL    HW311243   2.716   3.269   4.468  0.5928  0.9732 -0.7783
    1SOL    MW411244   2.735   3.290   4.551 -0.2396 -0.3984 -0.2313
    1SOL     OW11245   2.903   4.363   4.525  0.0569  0.1051  0.1164
    1SOL    HW211246   2.894   4.277   4.565  0.9021  0.2482  0.6485
    1SOL    HW311247   2.825   4.412   4.553 -0.3051 -0.4119  0.0042
    1SOL    MW411248   2.892   4.358   4.534  0.1211  0.0558  0.1712
    1SOL     OW11249   3.331   3.986   4.730  0.1705 -0.4341  0.1624
    1SOL    HW211250   3.376   3.914   4.774  0.1751  0.6817  1.9993
    1SOL    HW311251   3.325   4.056   4.795 -3.2266 -0.1279 -0.3643
    1SOL    MW411252   3.336   3.986   4.744 -0.2770 -0.2465  0.3357
    1SOL     OW11253   3.888   3.793   4.630  0.0593  0.3982 -0.3912
    1SOL    HW211254   3.929   3.756   4.708  0.2664 -0.1632 -0.7644
    1SOL    HW311255   3.849   3.717   4.586 -0.3702  0.7657 -0.6465
    1SOL    MW411256   3.888   3.778   4.635  0.0300  0.3726 -0.4740
    1SOL     OW11257   2.900   3.758   4.577  0.0467 -0.8907 -0.8011
    1SOL    HW211258   2.810   3.792   4.574  0.9023  1.5449 -0.4583
    1SOL    HW311259   2.894   3.676   4.625 -1.8453 -0.2423  0.1148
    1SOL    MW411260   2.887   3.752   4.583 -0.0901 -0.4840 -0.6347
    1SOL     OW11261   2.819   4.092   4.616 -0.4700  0.0684 -0.0200
    1SOL    HW211262   2.909   4.061   4.608 -0.3659  0.4806 -0.4548
    1SOL    HW311263   2.765   4.016   4.597 -0.2312  0.5145 -2.7299
    1SOL    MW411264   2.824   4.078   4.612 -0.4249  0.1812 -0.4354
    1SOL     OW11265   3.053   4.544   4.686  0.0004  0.1045  0.2236
    1SOL    HW211266   2.981   4.578   4.739  0.2093 -1.8489  1.7826
    1SOL    HW311267   3.011   4.483   4.625  0.1415  0.1164  0.1133
    1SOL    MW411268   3.038   4.541   4.685  0.0465 -0.1512  0.4148
    1SOL     OW11269   3.365   0.508   4.574  0.1138  0.1995  0.1965
    1SOL    HW211270   3.366   0.499   4.479  0.5489  0.1847  0.2004
    1SOL    HW311271   3.363   0.603   4.589 -1.6071  0.1850  0.1714
    1SOL    MW411272   3.365   0.519   4.564 -0.0560  0.1956  0.1931
    1SOL     OW11273   2.424   0.469   4.580 -0.0120  0.5534  0.2654
    1SOL    HW211274   2.513   0.445   4.606 -0.2816 -0.7933 -0.0386
    1SOL    HW311275   2.419   0.563   4.599  0.9213  0.3056  1.8602
    1SOL    MW411276   2.435   0.478   4.586  0.0753  0.3430  0.4354
    1SOL     OW11277   1.895   1.443   4.565 -0.3343  0.2552 -0.1042
    1SOL    HW211278   1.951   1.367   4.555 -1.3035 -0.4353 -0.3860
    1SOL    HW311279   1.829   1.415   4.629 -0.6349  0.8937 -0.1340
    1SOL    MW411280   1.893   1.429   4.572 -0.5018  0.2483 -0.1454
    1SOL     OW11281   2.928   0.466   4.563  0.1703  0.0975 -0.1040
    1SOL    HW211282   2.924   0.455   4.468 -0.2174 -0.2720 -0.0476
    1SOL    HW311283   2.838   0.452   4.592 -0.2549  2.9063  0.0328
    1SOL    MW411284   2.915   0.463   4.554  0.0627  0.4193 -0.0782
    1SOL     OW11285   3.382   0.791   4.636 -0.3987 -0.2611  0.4044
    1SOL    HW211286   3.449   0.850   4.602 -0.9660  0.2062  0.0828
    1SOL    HW311287   3.421   0.752   4.714  0.4070 -0.3258 -0.0318
    1SOL    MW411288   3.396   0.794   4.642 -0.3674 -0.2080  0.3042
    1SOL     OW11289   3.435   1.275   4.547  0.2115  0.2033 -0.2355
    1SOL    HW211290   3.355   1.236   4.582  0.7409 -0.7854 -0.1160
    1SOL    HW311291   3.505   1.222   4.585  0.8195 -0.7321 -2.6043
    1SOL    MW411292   3.434   1.263   4.557  0.3617 -0.0507 -0.5322
    1SOL     OW11293   2.733   1.404   4.780  0.0149 -0.5284 -0.0144
    1SOL    HW211294   2.662   1.460   4.747 -0.4137 -1.0659 -0.0072
    1SOL    HW311295   2.702   1.315   4.766  1.2814 -0.7871 -1.3115
    1SOL    MW411296   2.720   1.400   4.774  0.1254 -0.6336 -0.1841
    1SOL     OW11297   3.932   1.021   4.703  0.1185 -0.2009 -0.2952
    1SOL    HW211298   3.990   1.039   4.778  0.0728 -0.4743 -0.1934
    1SOL    HW311299   3.991   1.018   4.628  0.0766  0.8162 -0.3841
    1SOL    MW411300   3.948   1.023   4.703  0.1070 -0.1029 -0.2937
    1SOL     OW11301   3.424   1.575   4.556  0.1795 -0.5692 -0.2170
    1SOL    HW211302   3.338   1.596   4.521  0.4089 -0.5986 -0.8062
    1SOL    HW311303   3.422   1.481   4.572 -0.0782 -0.4809  0.2794
    1SOL    MW411304   3.413   1.565   4.554  0.1757 -0.5614 -0.2284
    1SOL     OW11305   3.157   1.658   4.481 -0.2650  0.2755  0.1463
    1SOL    HW211306   3.158   1.753   4.493 -0.1790  0.3658 -0.5662
    1SOL    HW311307   3.078   1.629   4.528  0.1117  0.6067  0.9930
    1SOL    MW411308   3.146   1.666   4.489 -0.2041  0.3309  0.1640
    1SOL     OW11309   3.105   2.115   4.422  0.1793  0.1115  0.0592
    1SOL    HW211310   3.031   2.094   4.365  0.3462  2.3411 -1.0119
    1SOL    HW311311   3.182   2.105   4.366  0.5908 -0.6772  0.7500
    1SOL    MW411312   3.106   2.111   4.407  0.2553  0.3016  0.0086
    1SOL     OW11313   3.511   1.831   4.647  0.0809  0.1496 -0.6723
    1SOL    HW211314   3.432   1.885   4.644  0.0238  0.0547 -0.8675
    1SOL    HW311315   3.479   1.741   4.642  0.2342  0.1296 -1.2681
    1SOL    MW411316   3.497   1.826   4.646  0.0935  0.1346 -0.7768
    1SOL     OW11317   2.863   3.108   4.675 -0.2653 -0.3369  0.0384
    1SOL    HW211318   2.954   3.139   4.679 -1.0067  1.9137  0.3996
    1SOL    HW311319   2.868   3.023   4.632  2.0709 -0.4593  0.4948
    1SOL    MW411320   2.876   3.101   4.670 -0.0548 -0.0560  0.1459
    1SOL     OW11321   3.469   2.601   4.564  0.2682  0.3054  0.1456
    1SOL    HW211322   3.385   2.554   4.573  0.8478 -0.9926 -1.1480
    1SOL    HW311323   3.456   2.681   4.616 -1.8556  0.2455 -0.2236
    1SOL    MW411324   3.456   2.605   4.572  0.0644  0.1261 -0.0744
    1SOL     OW11325   3.204   2.480   4.567 -0.6110 -0.1764 -0.2047
    1SOL    HW211326   3.193   2.454   4.476  0.1383 -2.1308  0.2356
    1SOL    HW311327   3.159   2.412   4.617  0.8950 -0.3550  0.9596
    1SOL    MW411328   3.197   2.468   4.562 -0.3135 -0.4580  0.0072
    1SOL     OW11329   3.648   2.992   4.667  0.4066  0.3568 -0.3082
    1SOL    HW211330   3.555   2.972   4.664  0.7087 -0.9700 -1.0794
    1SOL    HW311331   3.653   3.085   4.644 -0.6779  0.2657 -0.9552
    1SOL    MW411332   3.636   3.002   4.663  0.3033  0.1698 -0.4950
    1SOL     OW11333   3.075   3.285   4.632  0.2062 -0.4668  0.2818
    1SOL    HW211334   3.018   3.355   4.664 -0.2747 -1.2151  1.0841
    1SOL    HW311335   3.063   3.287   4.537 -1.2023 -0.6257  0.4345
    1SOL    MW411336   3.066   3.294   4.623 -0.0434 -0.5865  0.4082
    1SOL     OW11337   3.103   2.733   4.625  0.0764 -0.1076  0.0845
    1SOL    HW211338   3.191   2.771   4.625 -0.5393  1.3276 -1.3673
    1SOL    HW311339   3.118   2.639   4.612  1.3226  0.3018 -1.5977
    1SOL    MW411340   3.117   2.726   4.624  0.1595  0.1354 -0.3290
    1SOL     OW11341   4.183   2.572   4.482  0.6523 -0.1268 -0.0896
    1SOL    HW211342   4.262   2.541   4.525  1.0983  1.6923  0.4702
    1SOL    HW311343   4.209   2.653   4.439 -0.4461 -0.5341 -1.5486
    1SOL    MW411344   4.197   2.579   4.482  0.5670  0.0594 -0.2079
    1SOL     OW11345   3.611   3.254   4.530  0.0610 -0.5524  0.0852
    1SOL    HW211346   3.700   3.284   4.549  0.1350 -0.7635  0.0714
    1SOL    HW311347   3.616   3.221   4.440 -0.2651  0.3590 -0.2720
    1SOL    MW411348   3.624   3.254   4.520  0.0279 -0.4597  0.0367
    1SOL     OW11349   3.535   4.063   4.526 -0.1020  0.0305 -0.2132
    1SOL    HW211350   3.613   4.072   4.582 -0.8663  1.0320  0.7226
    1SOL    HW311351   3.466   4.034   4.586 -0.3694 -1.2458 -1.1133
    1SOL    MW411352   3.536   4.060   4.542 -0.2382 -0.0052 -0.2089
    1SOL     OW11353   3.355   4.194   4.960  0.4652  0.3516 -0.8175
    1SOL    HW211354   3.442   4.217   4.994  0.6076  1.4564 -1.8885
    1SOL    HW311355   3.329   4.269   4.907 -0.7595 -0.3541 -1.2500
    1SOL    MW411356   3.363   4.207   4.957  0.3226  0.4044 -1.0157
    1SOL     OW11357   3.284   4.390   4.786  0.0696 -0.0740 -0.4873
    1SOL    HW211358   3.323   4.385   4.699 -0.1107  0.5883 -0.6093
    1SOL    HW311359   3.194   4.418   4.770 -0.1006 -0.4166 -0.1233
    1SOL    MW411360   3.277   4.393   4.772  0.0231 -0.0324 -0.4559
    1SOL     OW11361   3.405   4.332   4.537  0.2357  0.3681  0.5801
    1SOL    HW211362   3.437   4.242   4.534 -0.6052  0.0377  1.3019
    1SOL    HW311363   3.485   4.385   4.538  0.7422 -0.3809  0.5716
    1SOL    MW411364   3.420   4.327   4.537  0.1915  0.2260  0.6742
    1SOL     OW11365   3.746   4.025   4.707 -0.0392  0.0918 -0.4202
    1SOL    HW211366   3.783   3.944   4.671  0.3968 -0.3378  0.9733
    1SOL    HW311367   3.683   3.995   4.772  1.2943  0.8675  1.2600
    1SOL    MW411368   3.743   4.010   4.711  0.1945  0.1378 -0.0148
    1SOL     OW11369   3.449   0.086   4.713 -0.0416 -0.4626 -0.5767
    1SOL    HW211370   3.437   0.027   4.787  2.3214  0.8188  0.9027
    1SOL    HW311371   3.377   0.066   4.654  0.1305 -4.1181  0.3225
    1SOL    MW411372   3.438   0.076   4.715  0.2928 -0.7758 -0.2627
    1SOL     OW11373   3.143   0.893   4.530  0.0773  0.5208  0.5100
    1SOL    HW211374   3.139   0.988   4.547  0.0458  0.4192  1.0718
    1SOL    HW311375   3.227   0.866   4.567  0.5255  0.4896 -0.4857
    1SOL    MW411376   3.154   0.902   4.537  0.1321  0.5032  0.4525
    1SOL     OW11377   3.168   1.171   4.586  0.1346 -0.4141  0.0420
    1SOL    HW211378   3.133   1.180   4.674  1.9669 -0.5013  0.8131
    1SOL    HW311379   3.102   1.210   4.529 -0.3780  1.0321  1.5973
    1SOL    MW411380   3.155   1.177   4.590  0.3088 -0.2348  0.3486
    1SOL     OW11381   4.119   1.503   4.584 -0.2284 -0.6871  0.3320
    1SOL    HW211382   4.148   1.428   4.531 -0.7338  1.7243 -3.5337
    1SOL    HW311383   4.024   1.492   4.590 -0.3526 -0.1870 -0.5808
    1SOL    MW411384   4.110   1.491   4.578 -0.3114 -0.3030 -0.2985
    1SOL     OW11385   3.708   1.187   4.624  0.2810  0.2630 -0.0408
    1SOL    HW211386   3.758   1.261   4.589  1.1362 -0.8542 -1.1989
    1SOL    HW311387   3.772   1.136   4.673 -0.2888  0.2281  0.6725
    1SOL    MW411388   3.723   1.190   4.626  0.3185  0.1111 -0.0997
    1SOL     OW11389   4.126   0.985   4.513 -0.5762 -0.2229 -0.6377
    1SOL    HW211390   4.180   0.913   4.544 -2.3733 -1.0335  0.7470
    1SOL    HW311391   4.091   0.956   4.429 -1.5820 -1.1577  0.0839
    1SOL    MW411392   4.128   0.972   4.506 -0.9456 -0.4532 -0.3595
    1SOL     OW11393   4.309   0.506   4.579  0.2640 -0.5609  0.6163
    1SOL    HW211394   4.320   0.499   4.484  0.0204 -0.0728  0.5499
    1SOL    HW311395   4.227   0.460   4.597 -0.8727  1.2990  0.2952
    1SOL    MW411396   4.300   0.499   4.569  0.0815 -0.2511  0.5655
    1SOL     OW11397   3.726   1.621   4.488 -0.2580 -0.2901 -0.0375
    1SOL    HW211398   3.752   1.706   4.524  3.1390 -1.2425 -0.1053
    1SOL    HW311399   3.630   1.624   4.488 -0.2497  2.6657  2.0096
    1SOL    MW411400   3.717   1.632   4.493  0.1910 -0.0257  0.2236
    1SOL     OW11401   3.791   1.889   4.594 -0.3515  0.2211 -0.0669
    1SOL    HW211402   3.818   1.981   4.589  0.2691 -0.0194 -1.3167
    1SOL    HW311403   3.722   1.888   4.661 -0.6027  1.6444 -0.2810
    1SOL    MW411404   3.786   1.901   4.602 -0.3028  0.3771 -0.2594
    1SOL     OW11405   3.174   1.917   4.593 -0.2383 -0.1216 -0.5356
    1SOL    HW211406   3.127   1.981   4.540 -0.8612 -0.7273 -0.7230
    1SOL    HW311407   3.128   1.917   4.677  0.0748  0.0489 -0.3642
    1SOL    MW411408   3.162   1.925   4.597 -0.2792 -0.1789 -0.5383
    1SOL     OW11409   0.054   1.857   4.766 -0.0598 -0.5979  0.2037
    1SOL    HW211410   0.127   1.847   4.705 -1.5667 -0.3183 -1.6787
    1SOL    HW311411   0.002   1.778   4.754 -1.3654  0.3207 -0.2330
    1SOL    MW411412   0.057   1.845   4.757 -0.4309 -0.4399 -0.1025
    1SOL     OW11413   0.059   2.122   4.772 -0.2681 -0.0424 -0.0254
    1SOL    HW211414   0.110   2.143   4.851 -0.4117  1.2801 -0.2646
    1SOL    HW311415   0.046   2.028   4.776  1.3178 -0.2542  0.5777
    1SOL    MW411416   0.064   2.113   4.783 -0.0778  0.1044  0.0229
    1SOL     OW11417   3.836   2.170   4.534  0.0088 -0.2274  0.1899
    1SOL    HW211418   3.924   2.206   4.541 -0.1636  0.6074 -1.6982
    1SOL    HW311419   3.778   2.243   4.559 -0.1804 -0.5106  0.5855
    1SOL    MW411420   3.840   2.184   4.538 -0.0391 -0.1547 -0.0076
    1SOL     OW11421   3.924   2.596   4.552  0.1650 -0.1761  0.0088
    1SOL    HW211422   3.914   2.692   4.549  0.6292 -0.0373  1.8615
    1SOL    HW311423   4.008   2.579   4.511  0.1096  0.2303 -0.2743
    1SOL    MW411424   3.933   2.607   4.546  0.2191 -0.1040  0.2160
    1SOL     OW11425   3.857   2.883   4.516  0.1550  0.0194 -0.3044
    1SOL    HW211426   3.922   2.952   4.532 -1.1569  1.1947 -0.0092
    1SOL    HW311427   3.782   2.907   4.570 -0.1050 -1.9760  0.2671
    1SOL    MW411428   3.856   2.895   4.525 -0.0525 -0.0889 -0.1903
    1SOL     OW11429   4.281   3.178   4.608  0.2627 -0.0668  0.3823
    1SOL    HW211430   4.353   3.241   4.605 -0.1092  0.3638  0.2451
    1SOL    HW311431   4.313   3.102   4.559  0.4661  0.2869 -0.0410
    1SOL    MW411432   4.295   3.177   4.601  0.2408  0.0367  0.3076
    1SOL     OW11433   3.370   3.402   4.600  0.2850 -0.5919 -0.2655
    1SOL    HW211434   3.286   3.358   4.595  0.2010 -0.3208 -1.3928
    1SOL    HW311435   3.432   3.340   4.561  0.2017  0.1906 -1.6645
    1SOL    MW411436   3.367   3.388   4.594  0.2632 -0.4528 -0.5989
    1SOL     OW11437   3.853   3.341   4.637  0.1305  0.0660  0.5246
    1SOL    HW211438   3.898   3.262   4.609 -1.1365 -1.6407  3.0491
    1SOL    HW311439   3.918   3.388   4.689  0.7317  0.4580 -0.5673
    1SOL    MW411440   3.867   3.337   4.640  0.0424 -0.1075  0.7138
    1SOL     OW11441   3.503   3.625   4.527  0.0263 -0.4767  0.1445
    1SOL    HW211442   3.461   3.553   4.574  0.2311 -1.2682 -0.8447
    1SOL    HW311443   3.594   3.597   4.517 -0.0142 -0.3327 -0.6988
    1SOL    MW411444   3.509   3.612   4.532  0.0479 -0.5620 -0.0968
    1SOL     OW11445   3.771   3.567   4.524 -0.0292 -0.6313 -0.3930
    1SOL    HW211446   3.784   3.557   4.430 -0.3761 -0.1594 -0.4913
    1SOL    HW311447   3.789   3.480   4.560 -0.6523 -1.0059 -0.9773
    1SOL    MW411448   3.775   3.554   4.517 -0.1574 -0.6187 -0.4835
    1SOL     OW11449   0.004   3.379   4.607  0.0460  0.3077 -0.4723
    1SOL    HW211450   0.078   3.323   4.584  0.0961  0.9884 -2.0163
    1SOL    HW311451   0.043   3.452   4.656  0.2572  0.1552 -0.4105
    1SOL    MW411452   0.019   3.381   4.611  0.0805  0.3774 -0.6676
    1SOL     OW11453   4.083   3.956   4.520 -0.5627 -0.2870 -0.4354
    1SOL    HW211454   4.073   4.044   4.558  0.1366 -0.3462 -0.1056
    1SOL    HW311455   4.002   3.911   4.541 -0.5369 -0.0256  0.2307
    1SOL    MW411456   4.071   3.962   4.528 -0.4673 -0.2601 -0.3037
    1SOL     OW11457   3.704   4.425   4.530  0.0094 -0.0387 -0.1649
    1SOL    HW211458   3.747   4.400   4.448 -0.1965  0.4233 -0.4115
    1SOL    HW311459   3.699   4.520   4.526  1.1340  0.0708  0.9506
    1SOL    MW411460   3.709   4.434   4.518  0.1304  0.0367 -0.0501
    1SOL     OW11461   3.438   4.572   4.933  0.1542 -0.3804  0.3982
    1SOL    HW211462   3.384   4.507   4.887 -0.5204 -0.0903  0.7795
    1SOL    HW311463   3.382   4.606   5.002  0.1765  1.2999 -0.3778
    1SOL    MW411464   3.424   4.568   4.936  0.0684 -0.1206  0.3462
    1SOL     OW11465   3.595   0.930   4.529 -0.0796  0.0898  0.4134
    1SOL    HW211466   3.613   1.020   4.553  1.1351  0.0851 -0.4119
    1SOL    HW311467   3.611   0.926   4.434 -0.8926 -0.8013  0.2972
    1SOL    MW411468   3.599   0.941   4.519 -0.0265 -0.0283  0.2885
    1SOL     OW11469   3.767   0.780   4.679  0.0156 -0.5024  0.1215
    1SOL    HW211470   3.831   0.849   4.696  0.7360 -1.2303  0.4384
    1SOL    HW311471   3.704   0.819   4.618  0.0321  0.6387  0.8284
    1SOL    MW411472   3.767   0.794   4.673  0.1130 -0.4479  0.2570
    1SOL     OW11473   4.422   0.272   4.660  0.5571  0.1830 -0.2650
    1SOL    HW211474   4.354   0.248   4.723 -0.4030  0.8772 -1.0074
    1SOL    HW311475   4.400   0.362   4.635  1.8623  0.4734 -0.3865
    1SOL    MW411476   4.410   0.281   4.665  0.6027  0.3130 -0.3786
    1SOL     OW11477   0.277   0.581   4.518 -0.3047  0.1512  0.4899
    1SOL    HW211478   0.253   0.500   4.562  0.6899  0.0361  0.8348
    1SOL    HW311479   0.282   0.558   4.425  2.0364 -0.7188  0.7860
    1SOL    MW411480   0.275   0.567   4.512  0.1354  0.0213  0.5746
    1SOL     OW11481   4.050   0.351   4.617  0.0629  0.5363 -0.5857
    1SOL    HW211482   3.971   0.404   4.616 -1.7454 -2.0612 -0.9530
    1SOL    HW311483   4.032   0.280   4.556  1.1567 -2.2055  2.1315
    1SOL    MW411484   4.037   0.349   4.609 -0.0319 -0.1682 -0.2751
    1SOL     OW11485   3.857   1.382   4.486 -0.1975  0.0652 -0.0858
    1SOL    HW211486   3.866   1.354   4.395 -0.7156  0.7255 -0.3432
    1SOL    HW311487   3.814   1.468   4.481  1.0961  0.7854  0.6920
    1SOL    MW411488   3.853   1.390   4.474 -0.0951  0.2472 -0.0172
    1SOL     OW11489   4.441   1.316   4.615  0.0417  0.1057 -0.2833
    1SOL    HW211490   4.516   1.331   4.557  2.0090 -2.0943  1.5808
    1SOL    HW311491   4.420   1.402   4.650  1.0962  0.9059 -1.5695
    1SOL    MW411492   4.448   1.329   4.612  0.4406 -0.0790 -0.2074
    1SOL     OW11493   0.242   1.285   4.510  0.3658  0.3252  0.1718
    1SOL    HW211494   0.225   1.205   4.559  0.3291  1.2291  1.6617
    1SOL    HW311495   0.310   1.330   4.560 -0.6437  1.9231  0.1519
    1SOL    MW411496   0.249   1.281   4.523  0.2277  0.6553  0.3662
    1SOL     OW11497   4.055   1.793   4.532  0.0157 -0.3310 -0.0276
    1SOL    HW211498   4.066   1.708   4.573 -0.8486 -0.7133 -0.5714
    1SOL    HW311499   3.968   1.822   4.561 -0.6444 -0.6506 -1.6396
    1SOL    MW411500   4.045   1.786   4.542 -0.1850 -0.4237 -0.3119
    1SOL     OW11501   2.826   2.823   4.608  0.5041  0.2579 -0.1432
    1SOL    HW211502   2.907   2.779   4.633 -1.1225 -2.9031 -0.2447
    1SOL    HW311503   2.763   2.798   4.676 -0.2991  3.1621  0.2688
    1SOL    MW411504   2.828   2.814   4.621  0.1836  0.2241 -0.1020
    1SOL     OW11505   4.230   2.047   4.211 -0.1141  0.1736 -0.2886
    1SOL    HW211506   4.138   2.025   4.196 -0.1356  0.6238 -0.8311
    1SOL    HW311507   4.247   2.019   4.301 -0.6548 -0.3337 -0.3392
    1SOL    MW411508   4.220   2.040   4.221 -0.1884  0.1662 -0.3667
    1SOL     OW11509   4.330   2.214   4.616  0.0162 -0.0698  0.4168
    1SOL    HW211510   4.379   2.177   4.689 -0.2746  0.6891  1.0079
    1SOL    HW311511   4.371   2.299   4.600 -0.0224 -0.1642 -0.2012
    1SOL    MW411512   4.342   2.221   4.623 -0.0277  0.0179  0.4134
    1SOL     OW11513   4.291   1.958   4.472  0.0246 -0.1879  0.4561
    1SOL    HW211514   4.215   1.921   4.516  0.7187 -0.8458  1.1124
    1SOL    HW311515   4.311   2.037   4.522 -1.6583  1.3141 -1.1429
    1SOL    MW411516   4.284   1.964   4.484 -0.1054 -0.0765  0.3314
    1SOL     OW11517   3.700   2.421   4.563 -0.2691  0.0950 -0.1783
    1SOL    HW211518   3.633   2.479   4.599  1.1074  1.4459  0.2785
    1SOL    HW311519   3.780   2.474   4.565  0.4330 -0.8581 -2.4297
    1SOL    MW411520   3.702   2.436   4.568  0.0052  0.1476 -0.4148
    1SOL     OW11521   0.415   2.473   4.677  0.0383 -0.4529 -0.3112
    1SOL    HW211522   0.414   2.386   4.637  1.3682 -0.8913  0.5986
    1SOL    HW311523   0.507   2.500   4.674  0.0789 -0.2491  1.9064
    1SOL    MW411524   0.427   2.465   4.671  0.2191 -0.4840  0.1011
    1SOL     OW11525   4.415   2.979   4.440  0.2432  0.0886 -0.6638
    1SOL    HW211526   4.491   2.924   4.459 -0.4015 -1.3124 -2.0720
    1SOL    HW311527   4.356   2.923   4.390 -1.7327  1.1551  0.3919
    1SOL    MW411528   4.417   2.964   4.436 -0.1025  0.0448 -0.7110
    1SOL     OW11529   4.008   3.109   4.535 -0.6067 -0.2630 -0.2175
    1SOL    HW211530   4.024   3.134   4.444  0.8177  0.0727  0.1181
    1SOL    HW311531   4.093   3.115   4.577 -1.5778  1.4180  1.5919
    1SOL    MW411532   4.021   3.113   4.529 -0.5469  0.0031  0.0648
    1SOL     OW11533   0.570   3.436   4.633  0.0200 -0.0755  0.2753
    1SOL    HW211534   0.598   3.515   4.587  0.5899 -0.3188  0.2015
    1SOL    HW311535   0.633   3.425   4.704  0.7470 -1.2132 -0.5304
    1SOL    MW411536   0.582   3.445   4.636  0.1912 -0.2575  0.1588
    1SOL     OW11537   4.186   4.622   4.652 -0.0580  0.4460 -0.8807
    1SOL    HW211538   4.200   4.674   4.731 -1.5550  0.0308 -0.3219
    1SOL    HW311539   4.106   4.658   4.614 -1.7878 -2.1516  0.1523
    1SOL    MW411540   4.177   4.633   4.658 -0.4830  0.0486 -0.6704
    1SOL     OW11541   3.679   0.043   4.532 -0.4760  0.0758 -0.2780
    1SOL    HW211542   3.616   0.070   4.598  1.0455  1.2571  0.7313
    1SOL    HW311543   3.637   0.064   4.449 -2.2183 -1.0098  0.3156
    1SOL    MW411544   3.665   0.050   4.530 -0.5052  0.0884 -0.0668
    1SOL     OW11545   4.081   3.675   4.791 -0.2001 -0.0724 -0.2651
    1SOL    HW211546   4.156   3.710   4.743  0.2545 -0.4053  0.1851
    1SOL    HW311547   4.103   3.583   4.805 -0.1424  0.1097  0.8998
    1SOL    MW411548   4.094   3.668   4.787 -0.1326 -0.0923 -0.0525
    1SOL     OW11549   3.580   0.383   4.697 -0.5740 -0.3227  0.2945
    1SOL    HW211550   3.506   0.422   4.651 -0.5987  0.8127  1.2876
    1SOL    HW311551   3.564   0.289   4.693 -1.6533 -0.1245 -0.1875
    1SOL    MW411552   3.568   0.376   4.690 -0.7195 -0.1467  0.3610
    1SOL     OW11553   4.222   4.405   4.310 -0.2997 -0.8925 -0.0584
    1SOL    HW211554   4.293   4.355   4.270 -1.1970 -2.5067  0.2871
    1SOL    HW311555   4.240   4.400   4.404 -0.7490 -1.1225  0.0166
    1SOL    MW411556   4.233   4.398   4.317 -0.4773 -1.1353 -0.0024
    1NA      NA11557   2.686   4.258   0.595  0.0764  0.2696  0.3377
    1NA      NA11558   0.742   2.535   0.384 -0.3600 -0.0962  0.1384
   4.49070   4.66690  10.00000
