Gromacs Runs On Most of All Computer Systems in water
11585
    1C      O5'    1   4.467   0.523   4.030  0.0842  0.0247 -0.6794
    1C      H5T    2   4.382   0.566   4.013 -1.1689 -0.7716  3.0596
    1C      C5'    3   4.468   0.419   3.937 -0.3810  0.0020 -0.2678
    1C     H5'1    4   4.401   0.335   3.955 -0.1817 -0.3532 -1.1277
    1C     H5'2    5   4.572   0.386   3.934 -0.3182  0.2468 -1.0608
    1C      C4'    6   4.433   0.477   3.796  0.0506 -0.2487 -0.5598
    1C      H4'    7   4.404   0.394   3.731 -0.3656 -1.6480  1.3527
    1C      O4'    8   4.331   0.581   3.801 -0.0286  0.4656 -0.1417
    1C      C1'    9   4.331   0.632   3.664  0.0001 -0.0846  0.2108
    1C      H1'   10   4.272   0.566   3.600  2.0662 -1.1237 -0.6702
    1C       N1   11   4.262   0.769   3.662 -0.0434 -0.7738 -0.2801
    1C       C6   12   4.250   0.845   3.770 -0.0458 -0.6208 -0.6778
    1C       H6   13   4.297   0.804   3.858  0.4952 -0.0326 -0.6854
    1C       C5   14   4.189   0.968   3.769 -0.5193 -0.4596 -0.0256
    1C       H5   15   4.177   1.029   3.857 -0.2300  1.0697 -1.0324
    1C       C4   16   4.130   1.004   3.641  0.5342  0.2321  0.0285
    1C       N4   17   4.048   1.109   3.629 -0.3047  0.0395  0.3718
    1C      H41   18   4.055   1.173   3.707 -1.3906  0.7545 -0.0953
    1C      H42   19   3.997   1.130   3.545  1.3580  1.6991 -0.2523
    1C       N3   20   4.136   0.933   3.535  0.2854 -0.1411 -0.0806
    1C       C2   21   4.201   0.816   3.543 -0.0111  0.7560 -0.6163
    1C       O2   22   4.193   0.745   3.439 -0.5697 -0.3993  0.0345
    1C      C3'   23   4.551   0.545   3.721 -0.0055  0.1189 -0.1197
    1C      H3'   24   4.619   0.606   3.780  0.1934  0.3837 -0.6171
    1C      C2'   25   4.482   0.638   3.620  0.6112  0.0401 -0.4773
    1C     H2'1   26   4.520   0.736   3.650 -0.5147  0.6086 -0.8547
    1C      O2'   27   4.508   0.618   3.486 -0.1745  0.2683 -0.3631
    1C     HO'2   28   4.600   0.641   3.471 -0.1614 -0.4243 -1.4444
    1C      O3'   29   4.628   0.448   3.647 -0.4324 -0.0682  0.4133
    2G        P   30   4.782   0.474   3.607 -0.4748  0.2726  0.0315
    2G      O1P   31   4.855   0.348   3.587  0.1808  0.0610  0.0851
    2G      O2P   32   4.837   0.567   3.708  0.0913 -0.0680 -0.3865
    2G      O5'   33   4.782   0.555   3.469 -0.1736 -0.2074  0.8204
    2G      C5'   34   4.768   0.485   3.345 -0.6407 -0.1717 -0.1257
    2G     H5'1   35   4.674   0.430   3.348 -1.5811  1.3930 -0.1445
    2G     H5'2   36   4.855   0.421   3.330 -0.1723  0.1943  0.9940
    2G      C4'   37   4.763   0.579   3.229  0.1274  0.5625  0.2358
    2G      H4'   38   4.795   0.513   3.148 -1.3514 -0.4019  0.4275
    2G      O4'   39   4.640   0.641   3.204  0.1733 -0.2730  0.7162
    2G      C1'   40   4.654   0.766   3.137  0.1615 -0.1852  0.7141
    2G      H1'   41   4.607   0.759   3.039  1.5717 -1.4767  0.0971
    2G       N9   42   4.578   0.876   3.203  0.5382 -0.2503 -0.0971
    2G       C8   43   4.483   0.960   3.145 -0.4558 -0.0239 -0.0155
    2G       H8   44   4.472   0.958   3.037  2.1863  4.8722 -0.5676
    2G       N7   45   4.441   1.051   3.221  0.1799 -0.1176  0.6390
    2G       C5   46   4.491   1.019   3.345  0.9076  0.6474 -1.0043
    2G       C6   47   4.471   1.079   3.468  0.9996  0.3690 -0.1053
    2G       O6   48   4.398   1.177   3.489 -0.5964  0.3541  0.3790
    2G       N1   49   4.545   1.025   3.570 -0.3054 -0.2552 -0.2281
    2G       H1   50   4.564   1.077   3.655  0.0227 -0.5133 -0.1414
    2G       C2   51   4.640   0.936   3.545  0.1196 -0.3070 -0.0413
    2G       N2   52   4.720   0.900   3.641 -0.4088 -0.0864  0.2861
    2G      H21   53   4.721   0.955   3.725 -2.3256 -0.0916  0.3352
    2G      H22   54   4.799   0.841   3.620  0.0272 -0.1696  2.1066
    2G       N3   55   4.672   0.884   3.430  0.5467  0.2478  0.0093
    2G       C4   56   4.588   0.925   3.332 -0.3094  0.0986 -0.6596
    2G      C3'   57   4.855   0.699   3.230  0.1024 -0.3186  0.1715
    2G      H3'   58   4.858   0.738   3.331 -0.8345  1.6136 -0.5313
    2G      C2'   59   4.803   0.792   3.126 -0.3459 -0.3226  0.5893
    2G     H2'1   60   4.836   0.894   3.142  1.1591 -0.6094 -0.5135
    2G      O2'   61   4.835   0.763   2.994 -0.0350  0.1568 -0.1748
    2G     HO'2   62   4.802   0.830   2.934 -1.0953  2.5110  2.9492
    2G      O3'   63   4.987   0.652   3.195 -0.5478  0.4423 -0.1238
    2G      H3T   64   5.035   0.725   3.155 -0.7754  0.5323 -0.2303
    5SOL     OW   65   1.394   3.222   1.615  0.0278  0.2204  0.2775
    5SOL    HW2   66   1.485   3.196   1.603  0.8374  2.1967  1.9019
    5SOL    HW3   67   1.373   3.271   1.535 -0.6009 -2.6899 -1.4461
    5SOL    MW4   68   1.403   3.225   1.603  0.0515  0.0970  0.2644
    6SOL     OW   69   0.287   1.665   2.777 -0.0500 -0.5006  0.1524
    6SOL    HW2   70   0.289   1.673   2.682  0.7170  0.0650  0.2089
    6SOL    HW3   71   0.242   1.745   2.807 -0.2780 -0.6704  0.2647
    6SOL    MW4   72   0.282   1.677   2.769  0.0211 -0.4485  0.1750
    7SOL     OW   73   3.461   0.812   0.873 -0.1272 -0.1202 -0.2028
    7SOL    HW2   74   3.508   0.834   0.793 -1.1565 -0.3590 -0.8790
    7SOL    HW3   75   3.382   0.867   0.870 -0.1978 -0.1721  0.6221
    7SOL    MW4   76   3.456   0.822   0.862 -0.2723 -0.1586 -0.1832
    8SOL     OW   77   4.296   2.773   1.723 -0.2470 -0.0236 -0.7149
    8SOL    HW2   78   4.247   2.724   1.658 -0.2594  0.1563 -0.8416
    8SOL    HW3   79   4.292   2.864   1.694  0.4230 -0.0439 -0.8898
    8SOL    MW4   80   4.289   2.779   1.711 -0.1602 -0.0029 -0.7547
    9SOL     OW   81   4.231   0.808   2.183 -0.2999 -0.2706  0.1013
    9SOL    HW2   82   4.150   0.858   2.192  0.0316  0.7003 -2.0965
    9SOL    HW3   83   4.209   0.738   2.121  0.3023 -0.5622  0.2132
    9SOL    MW4   84   4.217   0.805   2.176 -0.1769 -0.1810 -0.1738
   10SOL     OW   85   1.608   0.911   3.320 -0.3463  0.1146 -0.4355
   10SOL    HW2   86   1.540   0.978   3.314 -0.5346 -0.0122  0.2544
   10SOL    HW3   87   1.572   0.836   3.274 -0.7258  0.0054  0.0396
   10SOL    MW4   88   1.594   0.910   3.313 -0.4213  0.0834 -0.2818
   11SOL     OW   89   0.167   2.651   1.537  0.0665  0.0405 -0.2406
   11SOL    HW2   90   0.240   2.628   1.480 -0.1226 -0.2432 -0.3718
   11SOL    HW3   91   0.099   2.586   1.517 -0.5449  0.8217 -0.7442
   11SOL    MW4   92   0.167   2.639   1.527 -0.0391  0.1059 -0.3242
   12SOL     OW   93   0.003   3.962   3.622 -0.0922  0.2266  0.0061
   12SOL    HW2   94   0.064   3.905   3.668 -0.2453  0.5535  0.6225
   12SOL    HW3   95   0.005   4.045   3.671 -1.4834  0.0435  0.4142
   12SOL    MW4   96   0.011   3.966   3.635 -0.2959  0.2458  0.1411
   13SOL     OW   97   0.155   4.232   3.970 -0.1185 -0.4791 -0.0154
   13SOL    HW2   98   0.136   4.235   3.876  1.0936  1.9446 -0.2085
   13SOL    HW3   99   0.225   4.168   3.978  1.5035  1.0962 -1.1196
   13SOL    MW4  100   0.162   4.224   3.958  0.2554  0.0486 -0.1867
   14SOL     OW  101   0.465   3.047   0.618 -0.2789  0.4789  0.2471
   14SOL    HW2  102   0.525   3.004   0.558 -0.5993 -0.3228  0.4839
   14SOL    HW3  103   0.464   3.138   0.591  0.7758  0.4277  0.0254
   14SOL    MW4  104   0.473   3.053   0.607 -0.1821  0.3662  0.2491
   15SOL     OW  105   0.453   1.248   0.955  0.5201 -0.5255 -0.2195
   15SOL    HW2  106   0.483   1.300   0.880  0.0186 -0.0155 -0.0755
   15SOL    HW3  107   0.507   1.279   1.028  0.0175  0.0147 -0.0711
   15SOL    MW4  108   0.464   1.259   0.955  0.3876 -0.3867 -0.1810
   16SOL     OW  109   0.005   3.604   1.062  0.6625 -0.2542 -0.0674
   16SOL    HW2  110   0.090   3.568   1.086  1.3810  1.1938 -0.3991
   16SOL    HW3  111   0.024   3.669   0.995 -0.6762  0.2742  0.0391
   16SOL    MW4  112   0.018   3.608   1.057  0.5808  0.0067 -0.0972
   17SOL     OW  113   2.395   3.012   0.939  0.0223  0.2850 -0.1071
   17SOL    HW2  114   2.300   3.021   0.930 -0.2170 -0.5404  1.4196
   17SOL    HW3  115   2.417   3.067   1.014  0.5181 -0.8226  0.5630
   17SOL    MW4  116   2.386   3.021   0.948  0.0560  0.0298  0.1827
   18SOL     OW  117   2.102   1.822   1.576 -0.9054  0.4800  0.2479
   18SOL    HW2  118   2.085   1.802   1.668  2.4390  1.1520  1.0850
   18SOL    HW3  119   2.082   1.915   1.568  1.5834  1.1548  1.1149
   18SOL    MW4  120   2.097   1.832   1.587 -0.1359  0.6577  0.4728
   19SOL     OW  121   2.135   1.154   3.589 -0.1291 -0.5487 -0.5631
   19SOL    HW2  122   2.049   1.118   3.567  0.7251 -2.9235 -0.2112
   19SOL    HW3  123   2.197   1.087   3.560  1.4399 -0.1682  1.7264
   19SOL    MW4  124   2.132   1.140   3.582  0.1907 -0.8118 -0.2148
   20SOL     OW  125   4.384   3.385   1.362 -0.1817 -0.1006 -0.0318
   20SOL    HW2  126   4.433   3.309   1.393  0.4446  0.6192  0.7550
   20SOL    HW3  127   4.452   3.447   1.333 -0.6967  0.0634 -0.9178
   20SOL    MW4  128   4.400   3.383   1.362 -0.1669  0.0157 -0.0449
   21SOL     OW  129   1.535   2.991   3.784  0.7148 -0.3570  0.2794
   21SOL    HW2  130   1.488   2.915   3.819  1.2951 -0.9311 -0.1752
   21SOL    HW3  131   1.490   3.066   3.822 -0.2893 -0.9088  0.1905
   21SOL    MW4  132   1.523   2.991   3.794  0.6588 -0.5054  0.2074
   22SOL     OW  133   3.465   2.650   0.512  0.5219  0.1779 -0.7652
   22SOL    HW2  134   3.370   2.641   0.514  0.4775  0.4605 -1.5608
   22SOL    HW3  135   3.481   2.740   0.539  0.5911  0.0085 -0.2257
   22SOL    MW4  136   3.454   2.661   0.516  0.5252  0.1929 -0.7991
   23SOL     OW  137   3.313   1.783   1.079 -0.4976  0.2407  0.0652
   23SOL    HW2  138   3.249   1.806   1.011  0.2104 -1.2670 -1.1462
   23SOL    HW3  139   3.260   1.766   1.157 -1.5056 -0.1849 -0.6997
   23SOL    MW4  140   3.297   1.784   1.080 -0.5374 -0.0144 -0.1955
   24SOL     OW  141   0.559   3.872   1.828 -0.1601  0.1320  0.4112
   24SOL    HW2  142   0.540   3.788   1.788  0.4002 -0.0548  0.5357
   24SOL    HW3  143   0.473   3.910   1.846 -0.4098 -0.0024 -0.5001
   24SOL    MW4  144   0.545   3.866   1.825 -0.1191  0.0894  0.3074
   25SOL     OW  145   1.948   0.066   0.586  1.2211  0.3169 -0.4075
   25SOL    HW2  146   1.875   0.018   0.547  0.0999  1.4285  0.2748
   25SOL    HW3  147   2.025   0.011   0.570  0.3905 -0.4017 -1.9961
   25SOL    MW4  148   1.948   0.053   0.579  0.9636  0.3688 -0.5271
   26SOL     OW  149   4.123   0.607   1.997  0.0390 -0.8039  0.0624
   26SOL    HW2  150   4.091   0.526   2.037  1.3938 -1.4250 -0.0797
   26SOL    HW3  151   4.052   0.634   1.939 -1.5348 -0.4349  2.1016
   26SOL    MW4  152   4.109   0.600   1.995  0.0095 -0.8372  0.3127
   27SOL     OW  153   1.654   2.016   1.283  0.0226 -0.2256 -0.3607
   27SOL    HW2  154   1.748   2.027   1.267 -0.0392  0.4966 -0.2215
   27SOL    HW3  155   1.613   2.045   1.201 -0.1660  1.0789  0.1936
   27SOL    MW4  156   1.661   2.021   1.270 -0.0106  0.0417 -0.2693
   28SOL     OW  157   3.512   3.772   3.851  0.2506 -0.7066 -0.1399
   28SOL    HW2  158   3.600   3.756   3.886  1.3138 -0.5825 -2.6111
   28SOL    HW3  159   3.526   3.833   3.778 -1.9014 -0.5635 -0.4609
   28SOL    MW4  160   3.525   3.778   3.846  0.1070 -0.6711 -0.5085
   29SOL     OW  161   1.937   2.675   0.965 -0.3027 -0.0018 -0.7881
   29SOL    HW2  162   1.890   2.685   1.048  1.1432  1.0440 -0.0651
   29SOL    HW3  163   1.869   2.661   0.900 -1.5343  0.3345  0.4043
   29SOL    MW4  164   1.922   2.674   0.968 -0.2745  0.1807 -0.5354
   30SOL     OW  165   3.458   2.948   0.618 -0.5059  0.0088 -0.2569
   30SOL    HW2  166   3.494   3.016   0.674 -0.1016  0.7554 -1.3976
   30SOL    HW3  167   3.369   2.978   0.597 -0.7997 -0.4642  0.3087
   30SOL    MW4  168   3.451   2.961   0.623 -0.4911  0.0448 -0.3328
   31SOL     OW  169   0.919   1.471   1.349 -0.1060  0.1367  0.0360
   31SOL    HW2  170   0.862   1.502   1.419  0.2194  0.5164  0.1300
   31SOL    HW3  171   0.920   1.376   1.360 -2.2705 -0.0628 -1.1520
   31SOL    MW4  172   0.912   1.462   1.359 -0.3486  0.1605 -0.1082
   32SOL     OW  173   2.431   3.122   4.267 -0.2879  0.1477 -0.3605
   32SOL    HW2  174   2.494   3.055   4.239 -0.1026  1.5569 -3.4805
   32SOL    HW3  175   2.349   3.098   4.223 -1.3540 -0.3515  1.8295
   32SOL    MW4  176   2.428   3.110   4.257 -0.4044  0.2680 -0.4830
   33SOL     OW  177   3.302   2.961   4.340 -0.3424 -0.0044 -0.1734
   33SOL    HW2  178   3.252   2.999   4.413  0.8782 -0.9973  1.2276
   33SOL    HW3  179   3.379   3.019   4.332 -0.9558  0.6612 -1.3280
   33SOL    MW4  180   3.306   2.974   4.349 -0.2625 -0.0474 -0.1411
   34SOL     OW  181   2.406   0.021   3.318 -0.6578  0.2497 -0.3713
   34SOL    HW2  182   2.498   0.043   3.334 -1.3457  3.3966 -0.3016
   34SOL    HW3  183   2.409  -0.052   3.256  1.8917  1.2027 -1.4315
   34SOL    MW4  184   2.419   0.015   3.312 -0.4122  0.7906 -0.5019
   35SOL     OW  185   1.276   2.960   1.412 -0.2881 -0.4908  0.4432
   35SOL    HW2  186   1.239   2.896   1.352  0.4019  0.2230 -0.7816
   35SOL    HW3  187   1.208   2.974   1.478 -1.3208 -0.8401 -0.5223
   35SOL    MW4  188   1.262   2.954   1.413 -0.3333 -0.4425  0.1543
   36SOL     OW  189   0.011   0.145   0.982  0.1688  0.2607  0.4661
   36SOL    HW2  190  -0.075   0.128   0.942  0.3125 -1.0349  0.6571
   36SOL    HW3  191   0.069   0.079   0.943  0.8127  0.4062  1.1585
   36SOL    MW4  192   0.007   0.134   0.972  0.2723  0.1090  0.5826
   37SOL     OW  193   0.831   3.842   1.881  0.5973  0.3583  0.3364
   37SOL    HW2  194   0.897   3.906   1.853  1.1405  0.7123  2.3005
   37SOL    HW3  195   0.748   3.878   1.851  0.8860  2.0857  1.5323
   37SOL    MW4  196   0.829   3.855   1.874  0.7070  0.6328  0.7533
   38SOL     OW  197   0.429   0.233   2.324  0.1307  0.4530  0.4248
   38SOL    HW2  198   0.441   0.173   2.250  0.7580 -0.4934  1.2719
   38SOL    HW3  199   0.405   0.176   2.397  0.3006  1.2925  1.1401
   38SOL    MW4  200   0.428   0.217   2.324  0.2359  0.4389  0.6311
   39SOL     OW  201   0.496   0.558   2.845 -0.1317  0.0808 -0.4682
   39SOL    HW2  202   0.579   0.605   2.857 -0.0738 -0.4063  1.2301
   39SOL    HW3  203   0.434   0.603   2.903 -0.6564 -0.4935 -0.5746
   39SOL    MW4  204   0.499   0.570   2.854 -0.1933 -0.0592 -0.2584
   40SOL     OW  205   1.967   4.213   2.914 -0.0699  0.1552 -0.3934
   40SOL    HW2  206   1.975   4.302   2.878  0.1403  0.9311  1.4594
   40SOL    HW3  207   1.941   4.159   2.840 -0.9105  1.8997 -1.4125
   40SOL    MW4  208   1.965   4.218   2.900 -0.1529  0.4878 -0.2835
   41SOL     OW  209   3.291   1.664   3.241  0.1675 -0.1864  0.1974
   41SOL    HW2  210   3.210   1.712   3.224  0.0950 -0.0107  1.0198
   41SOL    HW3  211   3.322   1.697   3.325  0.2069 -1.4588  0.6980
   41SOL    MW4  212   3.285   1.675   3.250  0.1631 -0.3310  0.3717
   42SOL     OW  213   1.874   0.347   2.149  0.1122  0.4392  0.0356
   42SOL    HW2  214   1.964   0.380   2.150  0.2472  0.0900 -0.4546
   42SOL    HW3  215   1.820   0.426   2.160  0.4780  0.6205  0.6085
   42SOL    MW4  216   1.879   0.362   2.151  0.1782  0.4171  0.0463
   43SOL     OW  217   0.777   4.187   0.396  0.1966 -0.0177 -0.2163
   43SOL    HW2  218   0.696   4.229   0.423 -0.8682 -1.4638 -1.0346
   43SOL    HW3  219   0.781   4.200   0.301  1.1186  0.3608 -0.1378
   43SOL    MW4  220   0.767   4.194   0.387  0.1777 -0.1588 -0.3139
   44SOL     OW  221   3.595   4.032   0.933  0.0715  0.2431 -0.1726
   44SOL    HW2  222   3.608   4.120   0.900 -0.2059  0.2729 -0.2058
   44SOL    HW3  223   3.500   4.023   0.941  0.1576  0.4740  1.2614
   44SOL    MW4  224   3.584   4.042   0.930  0.0467  0.2770  0.0123
   45SOL     OW  225   1.162   1.088   1.513  0.4345 -0.3889 -0.2967
   45SOL    HW2  226   1.112   1.141   1.451  0.4908 -0.1909 -0.1750
   45SOL    HW3  227   1.249   1.081   1.474  0.0402 -1.5545 -0.9801
   45SOL    MW4  228   1.167   1.094   1.500  0.3899 -0.5167 -0.3707
   46SOL     OW  229   0.601   0.120   3.281  0.1224 -0.1204 -0.0690
   46SOL    HW2  230   0.597   0.203   3.233  0.4873  0.4189  0.8227
   46SOL    HW3  231   0.511   0.104   3.310 -0.0416 -0.2946 -0.6628
   46SOL    MW4  232   0.589   0.129   3.278  0.1490 -0.0722 -0.0298
   47SOL     OW  233   0.075   3.748   0.832  0.0667 -0.4197  0.6859
   47SOL    HW2  234   0.021   3.753   0.753 -1.2055 -1.2060  1.4940
   47SOL    HW3  235   0.164   3.734   0.798 -0.2437  0.6194 -0.6415
   47SOL    MW4  236   0.080   3.747   0.817 -0.1421 -0.3865  0.6173
   48SOL     OW  237   3.935   2.189   2.131  0.4118 -0.3508  0.1316
   48SOL    HW2  238   3.885   2.234   2.062 -0.8529 -0.2134  1.1215
   48SOL    HW3  239   3.910   2.097   2.122 -0.6461 -0.1749  1.1237
   48SOL    MW4  240   3.925   2.183   2.120  0.1054 -0.3095  0.3929
   49SOL     OW  241   3.366   1.069   3.623 -0.2900 -0.2285  0.0279
   49SOL    HW2  242   3.428   1.027   3.683 -1.5651 -0.0700  1.4932
   49SOL    HW3  243   3.414   1.143   3.587  0.0983  0.4047  1.8122
   49SOL    MW4  244   3.380   1.073   3.626 -0.4070 -0.1240  0.4568
   50SOL     OW  245   1.995   4.488   2.826  0.1615  0.7212 -0.2823
   50SOL    HW2  246   2.089   4.505   2.830 -0.1112  2.3571 -0.3028
   50SOL    HW3  247   1.963   4.507   2.914 -0.3382  1.4332 -0.6122
   50SOL    MW4  248   2.003   4.493   2.838  0.0594  1.0309 -0.3285
   51SOL     OW  249   1.095   3.126   0.847  0.3666 -0.2732  0.2338
   51SOL    HW2  250   1.185   3.123   0.815 -0.0378  0.5264 -1.0348
   51SOL    HW3  251   1.048   3.065   0.789 -0.3426  1.0586 -0.6203
   51SOL    MW4  252   1.101   3.117   0.835  0.2197  0.0081 -0.0462
   52SOL     OW  253   2.183   2.612   4.777  0.0562  0.8050 -0.0237
   52SOL    HW2  254   2.124   2.687   4.771 -0.3890  0.4954  0.5163
   52SOL    HW3  255   2.127   2.536   4.762  0.2273  0.4802  0.9840
   52SOL    MW4  256   2.168   2.612   4.774  0.0203  0.7212  0.1807
   53SOL     OW  257   2.551   0.197   3.006 -0.0606  0.0246 -0.7248
   53SOL    HW2  258   2.590   0.113   3.031  1.4111  0.5566 -1.1973
   53SOL    HW3  259   2.461   0.192   3.037  0.5891 -0.9357  1.0502
   53SOL    MW4  260   2.544   0.185   3.013  0.2191 -0.0319 -0.5529
   54SOL     OW  261   0.750   3.955   0.798  0.1681  0.1945 -0.2117
   54SOL    HW2  262   0.802   4.033   0.818  1.8255 -0.7962 -0.6360
   54SOL    HW3  263   0.661   3.978   0.827  0.8729  1.8001  0.7345
   54SOL    MW4  264   0.745   3.968   0.804  0.4797  0.2756 -0.1428
   55SOL     OW  265   3.732   4.164   4.077 -0.1897 -0.2878 -0.2627
   55SOL    HW2  266   3.783   4.149   3.997  0.6039 -2.8606  0.6640
   55SOL    HW3  267   3.661   4.101   4.072 -0.5973  0.0928  0.7036
   55SOL    MW4  268   3.729   4.154   4.066 -0.1385 -0.5774 -0.0134
   56SOL     OW  269   0.994   1.625   0.819  0.2310 -0.1046 -0.0141
   56SOL    HW2  270   0.917   1.653   0.867  0.7956 -2.3040  2.2805
   56SOL    HW3  271   0.959   1.586   0.738 -0.9352  0.4097  0.2322
   56SOL    MW4  272   0.979   1.623   0.814  0.1516 -0.3270  0.3211
   57SOL     OW  273   1.666   3.586   1.839  0.3727 -0.1645 -0.0300
   57SOL    HW2  274   1.626   3.672   1.835 -0.2931 -0.3037  2.6458
   57SOL    HW3  275   1.708   3.575   1.754 -0.4546  2.3291 -0.8025
   57SOL    MW4  276   1.666   3.596   1.827  0.1756  0.1459  0.2210
   58SOL     OW  277   4.012   3.931   1.486 -0.0626  0.1596  0.3154
   58SOL    HW2  278   3.926   3.972   1.495 -0.9404 -1.7432  0.9804
   58SOL    HW3  279   4.063   3.966   1.560 -1.0083 -0.4340  1.2671
   58SOL    MW4  280   4.007   3.941   1.497 -0.3037 -0.1700  0.5287
   59SOL     OW  281   1.001   1.489   2.644 -0.1005  0.0454 -0.2260
   59SOL    HW2  282   1.013   1.548   2.569  2.1695  0.6500  0.5527
   59SOL    HW3  283   0.918   1.516   2.682  1.2486  3.3740  0.5944
   59SOL    MW4  284   0.992   1.501   2.639  0.3769  0.5643 -0.0150
   60SOL     OW  285   4.185   1.035   1.855  0.6931  0.0478  0.3518
   60SOL    HW2  286   4.152   1.078   1.934  0.2216 -0.6092  0.5173
   60SOL    HW3  287   4.136   0.953   1.850 -0.4379  0.8125 -1.5303
   60SOL    MW4  288   4.174   1.030   1.865  0.4816  0.0620  0.1254
   61SOL     OW  289   3.246   3.877   3.500  0.1573  0.0344 -0.0013
   61SOL    HW2  290   3.263   3.844   3.589 -0.1105 -0.2474 -0.0539
   61SOL    HW3  291   3.333   3.879   3.459  0.2748  0.1149  0.2514
   61SOL    MW4  292   3.260   3.873   3.506  0.1376  0.0079  0.0253
   62SOL     OW  293   0.007   2.133   0.371  0.0892  0.3157 -0.0789
   62SOL    HW2  294   0.061   2.086   0.307 -1.3226  2.0607 -2.6082
   62SOL    HW3  295   0.061   2.207   0.397  0.1105  0.3912 -0.3324
   62SOL    MW4  296   0.022   2.137   0.366 -0.0943  0.5560 -0.4461
   63SOL     OW  297   3.270   3.001   1.327 -0.1769  0.0896 -0.2031
   63SOL    HW2  298   3.228   3.085   1.308 -0.3764 -0.1090 -0.6615
   63SOL    HW3  299   3.224   2.939   1.271 -0.5448 -0.4583  0.6889
   63SOL    MW4  300   3.258   3.004   1.317 -0.2515 -0.0088 -0.1459
   64SOL     OW  301   3.679   4.426   4.000  0.0386 -0.1881 -0.3657
   64SOL    HW2  302   3.639   4.490   4.059  2.8043 -0.0255  1.4221
   64SOL    HW3  303   3.700   4.352   4.057  2.2857 -0.2446 -1.2389
   64SOL    MW4  304   3.677   4.425   4.016  0.6995 -0.1745 -0.2456
   65SOL     OW  305   3.099   2.752   3.377  0.3236  0.7105 -0.1736
   65SOL    HW2  306   3.112   2.759   3.471  1.3533 -0.7812 -0.1966
   65SOL    HW3  307   3.021   2.805   3.359  0.4063  1.3840  1.4380
   65SOL    MW4  308   3.090   2.760   3.387  0.4704  0.6025  0.0362
   66SOL     OW  309   0.668   0.151   1.338 -0.3563  0.1042  0.1531
   66SOL    HW2  310   0.616   0.231   1.332 -0.2057  0.2980  1.3380
   66SOL    HW3  311   0.614   0.084   1.297 -0.9657  0.5834  0.1637
   66SOL    MW4  312   0.654   0.153   1.332 -0.4168  0.1930  0.3109
   67SOL     OW  313   3.934   0.161   3.024 -0.2914  0.7245  0.3141
   67SOL    HW2  314   3.993   0.149   3.098  0.2552  2.2669  0.1481
   67SOL    HW3  315   3.970   0.236   2.976 -0.3023 -0.6205 -1.8647
   67SOL    MW4  316   3.946   0.170   3.028 -0.2208  0.7506  0.0045
   68SOL     OW  317   0.253   0.280   1.599  0.2588  0.0849  0.2328
   68SOL    HW2  318   0.175   0.234   1.630 -0.7371  0.0705 -2.1577
   68SOL    HW3  319   0.218   0.351   1.544  1.9236 -0.1775 -1.1970
   68SOL    MW4  320   0.238   0.284   1.596  0.3470  0.0484 -0.2712
   69SOL     OW  321   3.789   0.948   0.933  0.0498  0.0546 -0.2866
   69SOL    HW2  322   3.749   1.034   0.920 -2.5824 -1.1202 -0.1042
   69SOL    HW3  323   3.775   0.902   0.850  0.3672 -0.6385  0.0423
   69SOL    MW4  324   3.782   0.953   0.920 -0.2553 -0.1919 -0.2192
   70SOL     OW  325   1.195   0.424   1.119  0.2204  0.3694  0.6058
   70SOL    HW2  326   1.278   0.399   1.078  0.1072 -0.5213  0.9187
   70SOL    HW3  327   1.202   0.392   1.209 -1.2843 -1.5349  0.0709
   70SOL    MW4  328   1.207   0.417   1.125  0.0070  0.0007  0.5765
   71SOL     OW  329   4.255   4.239   3.267  0.1738  0.1136  0.3294
   71SOL    HW2  330   4.346   4.249   3.239 -0.4567  1.2812 -1.4124
   71SOL    HW3  331   4.210   4.313   3.227 -1.5209 -0.3782  1.2906
   71SOL    MW4  332   4.261   4.250   3.258 -0.1330  0.2027  0.2265
   72SOL     OW  333   4.117   1.329   1.754  0.0901  0.6543  0.5075
   72SOL    HW2  334   4.192   1.302   1.807  1.2735  1.2535 -0.8185
   72SOL    HW3  335   4.115   1.425   1.761 -0.2519  0.6773  0.1669
   72SOL    MW4  336   4.126   1.338   1.762  0.2012  0.7364  0.2875
   73SOL     OW  337   4.087   3.041   4.526 -0.4016  0.2007  0.1463
   73SOL    HW2  338   4.028   3.114   4.547  0.4863  1.0675 -0.3160
   73SOL    HW3  339   4.032   2.963   4.531 -1.4310  0.9366  0.3687
   73SOL    MW4  340   4.072   3.040   4.529 -0.4201  0.4125  0.1149
   74SOL     OW  341   1.752   1.184   4.116 -0.1535  0.3012  0.1827
   74SOL    HW2  342   1.663   1.158   4.138  0.6179 -1.7003  1.0523
   74SOL    HW3  343   1.745   1.277   4.093 -2.3731  0.2776  0.6782
   74SOL    MW4  344   1.739   1.193   4.116 -0.3446  0.0341  0.3629
   75SOL     OW  345   0.217   1.008   1.516 -0.1718  0.5929  0.1033
   75SOL    HW2  346   0.155   0.936   1.516 -0.2969  0.6977  1.6601
   75SOL    HW3  347   0.179   1.073   1.457 -1.4069  0.5383  0.8381
   75SOL    MW4  348   0.204   1.007   1.508 -0.3513  0.5996  0.4057
   76SOL     OW  349   2.401   2.047   2.164 -0.0311  0.0133  0.7271
   76SOL    HW2  350   2.362   2.134   2.174 -0.8233 -0.4671  1.9202
   76SOL    HW3  351   2.495   2.064   2.158 -0.1328  0.9259  1.4734
   76SOL    MW4  352   2.408   2.061   2.165 -0.1490  0.0701  0.9830
   77SOL     OW  353   3.338   4.557   1.899 -0.1362 -0.0625 -0.3123
   77SOL    HW2  354   3.348   4.533   1.807 -0.4143 -0.8540 -0.1445
   77SOL    HW3  355   3.427   4.570   1.931 -0.0976  1.4279 -1.0044
   77SOL    MW4  356   3.351   4.555   1.891 -0.1681  0.0305 -0.3815
   78SOL     OW  357   0.827   3.136   0.539 -0.3268  0.5062  0.0953
   78SOL    HW2  358   0.849   3.227   0.521  0.2027  0.7645  1.9685
   78SOL    HW3  359   0.807   3.134   0.633 -0.1807 -1.3339  0.1003
   78SOL    MW4  360   0.827   3.148   0.549 -0.2376  0.2975  0.3430
   79SOL     OW  361   2.945   3.470   4.063 -0.3059  0.1282 -0.0862
   79SOL    HW2  362   2.986   3.424   3.990 -0.1070  0.2267 -0.0369
   79SOL    HW3  363   2.937   3.405   4.132 -0.3714  0.0684 -0.1505
   79SOL    MW4  364   2.950   3.456   4.063 -0.2882  0.1330 -0.0887
   80SOL     OW  365   2.124   2.829   1.178  0.1995 -0.1623 -0.0540
   80SOL    HW2  366   2.169   2.801   1.098  0.9179 -0.0477  0.3103
   80SOL    HW3  367   2.193   2.862   1.235 -0.1239 -1.7077  1.2430
   80SOL    MW4  368   2.139   2.830   1.175  0.2515 -0.3512  0.1652
   81SOL     OW  369   0.258   0.742   0.971  0.9872 -0.8800  0.3160
   81SOL    HW2  370   0.257   0.716   0.879  0.7957  1.0568 -0.2429
   81SOL    HW3  371   0.182   0.799   0.980  1.5658 -0.2806  1.4431
   81SOL    MW4  372   0.248   0.746   0.960  1.0383 -0.5454  0.3909
   82SOL     OW  373   1.672   3.894   4.511  0.5395  0.3085 -0.5940
   82SOL    HW2  374   1.653   3.983   4.480 -1.8589  0.6228  1.6075
   82SOL    HW3  375   1.733   3.907   4.583  2.0705 -0.0387 -1.8053
   82SOL    MW4  376   1.678   3.907   4.516  0.4251  0.3040 -0.4630
   83SOL     OW  377   4.208   2.497   1.318  0.0605 -0.3286 -0.2366
   83SOL    HW2  378   4.268   2.502   1.393 -0.3559  0.4885  0.0450
   83SOL    HW3  379   4.176   2.407   1.320  1.0075 -0.6786 -0.1774
   83SOL    MW4  380   4.212   2.486   1.328  0.1307 -0.2670 -0.1917
   84SOL     OW  381   2.119   3.097   0.880 -0.7326 -0.2960 -0.5876
   84SOL    HW2  382   2.132   3.191   0.892  0.4890 -0.2754 -1.9877
   84SOL    HW3  383   2.103   3.087   0.786 -1.2579 -1.4502 -0.3777
   84SOL    MW4  384   2.118   3.108   0.869 -0.6406 -0.4458 -0.7447
   85SOL     OW  385   1.834   2.030   1.783  0.8882 -0.5804 -0.0811
   85SOL    HW2  386   1.895   1.999   1.851  2.1168  0.7805 -0.5521
   85SOL    HW3  387   1.798   1.949   1.746 -1.5490 -1.3844  3.7049
   85SOL    MW4  388   1.838   2.015   1.787  0.7286 -0.5069  0.3562
   86SOL     OW  389   3.398   1.622   4.075  0.6030  0.1256  0.3790
   86SOL    HW2  390   3.334   1.692   4.088 -0.8257 -0.9460 -0.7476
   86SOL    HW3  391   3.379   1.558   4.144  0.8513  0.0791  0.4076
   86SOL    MW4  392   3.387   1.623   4.086  0.4473 -0.0221  0.2341
   87SOL     OW  393   3.639   4.059   2.021 -0.2224 -0.0164 -0.0230
   87SOL    HW2  394   3.641   3.968   1.992 -1.4023  0.0825 -0.4706
   87SOL    HW3  395   3.560   4.095   1.980  0.3316  1.2536  0.0090
   87SOL    MW4  396   3.629   4.052   2.012 -0.3047  0.1645 -0.0780
   88SOL     OW  397   4.209   0.010   4.259 -0.1848  0.3850 -0.2350
   88SOL    HW2  398   4.121  -0.026   4.250  0.0945 -0.3467 -0.0825
   88SOL    HW3  399   4.248   0.000   4.172  0.3620 -0.9437  0.1502
   88SOL    MW4  400   4.202   0.004   4.247 -0.0753  0.1140 -0.1640
   89SOL     OW  401   0.066   2.210   1.648 -0.6516 -0.3245 -0.1179
   89SOL    HW2  402   0.060   2.118   1.673  1.0085 -0.5489 -0.5099
   89SOL    HW3  403   0.068   2.257   1.731 -0.1744 -0.7271  0.1012
   89SOL    MW4  404   0.065   2.204   1.662 -0.3696 -0.4075 -0.1407
   90SOL     OW  405   4.079   3.354   3.818  0.3802 -0.8965 -0.5285
   90SOL    HW2  406   4.173   3.365   3.804  0.4835  0.4364  1.0840
   90SOL    HW3  407   4.072   3.304   3.899 -0.3080 -1.2335 -0.7889
   90SOL    MW4  408   4.091   3.349   3.827  0.3028 -0.7653 -0.3500
   91SOL     OW  409   2.987   3.431   3.148  0.4002  0.2915 -0.4405
   91SOL    HW2  410   3.065   3.421   3.202  0.9605  0.8229 -1.1502
   91SOL    HW3  411   2.976   3.345   3.106  0.0140 -0.0925  0.4392
   91SOL    MW4  412   2.996   3.418   3.150  0.4234  0.3111 -0.4182
   92SOL     OW  413   1.610   0.237   4.000  0.0177 -0.1094  0.1102
   92SOL    HW2  414   1.655   0.277   3.926  3.2337 -0.4170  1.8191
   92SOL    HW3  415   1.634   0.145   3.996  0.0103 -0.1757  1.4086
   92SOL    MW4  416   1.619   0.230   3.990  0.4410 -0.1587  0.5066
   93SOL     OW  417   0.380   0.075   1.456  0.2836  0.6633 -0.0035
   93SOL    HW2  418   0.349   0.157   1.495 -0.5833  1.1019 -1.5580
   93SOL    HW3  419   0.450   0.045   1.514  0.8064  2.6570  0.4160
   93SOL    MW4  420   0.385   0.082   1.469  0.2382  0.9842 -0.1532
   94SOL     OW  421   0.154   1.352   2.537 -0.3499 -0.2014 -0.0751
   94SOL    HW2  422   0.075   1.305   2.564 -0.2313 -1.6866 -2.1681
   94SOL    HW3  423   0.215   1.283   2.509  0.7012  1.0581 -0.9819
   94SOL    MW4  424   0.152   1.336   2.537 -0.1956 -0.2313 -0.4709
   95SOL     OW  425   3.899   3.686   2.296 -0.5167 -0.0306  0.1477
   95SOL    HW2  426   3.814   3.644   2.284 -0.2982 -1.3250  2.7589
   95SOL    HW3  427   3.892   3.731   2.380  1.7526 -1.1739  1.0084
   95SOL    MW4  428   3.887   3.686   2.305 -0.1884 -0.3524  0.6058
   96SOL     OW  429   3.041   2.700   2.193 -0.2533  0.0834 -0.1827
   96SOL    HW2  430   3.104   2.740   2.253 -0.3520  0.9332 -0.6369
   96SOL    HW3  431   3.089   2.629   2.152 -0.2180 -0.5695  0.9831
   96SOL    MW4  432   3.056   2.696   2.196 -0.2620  0.1094 -0.0887
   97SOL     OW  433   0.794   0.764   2.233 -0.0702 -0.5020  0.6240
   97SOL    HW2  434   0.885   0.794   2.234  0.1594 -1.1385 -0.2678
   97SOL    HW3  435   0.742   0.843   2.223  0.4809 -0.2964 -0.7048
   97SOL    MW4  436   0.799   0.778   2.232  0.0327 -0.5589  0.3309
   98SOL     OW  437   2.397   0.576   2.871  0.8808 -0.0019  0.0531
   98SOL    HW2  438   2.463   0.558   2.805 -0.0842  1.3215 -1.3217
   98SOL    HW3  439   2.329   0.510   2.857  1.3593 -0.6405  0.7070
   98SOL    MW4  440   2.397   0.565   2.860  0.8166  0.0884 -0.0420
   99SOL     OW  441   0.416   2.593   0.356  0.3494 -0.1978  0.4272
   99SOL    HW2  442   0.481   2.572   0.424  2.1769  0.3262 -1.1014
   99SOL    HW3  443   0.391   2.508   0.320 -1.0680 -0.5198  2.1323
   99SOL    MW4  444   0.421   2.579   0.360  0.4035 -0.1709  0.4505
  100SOL     OW  445   0.818   0.437   4.318 -0.2941  0.1664 -0.7259
  100SOL    HW2  446   0.849   0.476   4.236  2.0768 -1.1775 -0.5045
  100SOL    HW3  447   0.835   0.504   4.385 -0.3120  0.4583 -1.0121
  100SOL    MW4  448   0.824   0.451   4.316  0.0163  0.0276 -0.7348
  101SOL     OW  449   2.357   2.464   1.321 -0.1156 -0.4508  0.1498
  101SOL    HW2  450   2.406   2.489   1.243  0.3919  2.2617  1.2853
  101SOL    HW3  451   2.413   2.399   1.364  1.3717  0.8181  0.1711
  101SOL    MW4  452   2.371   2.459   1.316  0.1476  0.0744  0.3023
  102SOL     OW  453   1.054   3.079   1.590  0.3274  0.4251  0.3665
  102SOL    HW2  454   1.035   3.169   1.563 -0.4312  0.7624  1.9831
  102SOL    HW3  455   0.973   3.031   1.571  0.9979 -0.1090 -1.2389
  102SOL    MW4  456   1.041   3.084   1.584  0.3158  0.3991  0.3679
  103SOL     OW  457   2.500   0.311   2.240 -0.1572  0.1546  0.7224
  103SOL    HW2  458   2.544   0.266   2.168 -1.9216 -2.5192  1.2419
  103SOL    HW3  459   2.553   0.292   2.317  0.9472  1.8259  0.3945
  103SOL    MW4  460   2.513   0.303   2.241 -0.2441  0.0223  0.7477
  104SOL     OW  461   2.966   1.228   3.218 -0.2964 -0.2812 -0.2499
  104SOL    HW2  462   3.000   1.139   3.228  1.6518  0.6529  2.1287
  104SOL    HW3  463   2.910   1.241   3.295 -0.5491  0.5365 -0.5657
  104SOL    MW4  464   2.963   1.218   3.230 -0.0730 -0.0502  0.0222
  105SOL     OW  465   2.151   0.529   3.572 -0.0546 -0.0956 -0.1902
  105SOL    HW2  466   2.102   0.521   3.654  0.5785 -0.5948  0.1455
  105SOL    HW3  467   2.241   0.507   3.596  0.4727  1.4622 -0.6551
  105SOL    MW4  468   2.156   0.525   3.586  0.0985  0.0440 -0.2072
  106SOL     OW  469   3.046   3.667   3.033 -0.1365  0.4417  0.2499
  106SOL    HW2  470   3.011   3.580   3.053 -0.4365 -0.0948 -2.4369
  106SOL    HW3  471   3.066   3.705   3.119  0.8070 -2.6021  1.4504
  106SOL    MW4  472   3.044   3.661   3.047 -0.0515 -0.0308  0.0539
  107SOL     OW  473   1.135   2.568   4.537  0.1583 -0.2118 -0.5873
  107SOL    HW2  474   1.209   2.613   4.579  0.0887 -1.1924  0.5855
  107SOL    HW3  475   1.175   2.493   4.493  0.1798  0.6005 -1.9896
  107SOL    MW4  476   1.150   2.564   4.536  0.1521 -0.2339 -0.6175
  108SOL     OW  477   2.742   2.158   1.868  0.1599  0.3732 -0.1082
  108SOL    HW2  478   2.814   2.220   1.859 -0.4083  0.6379 -3.3914
  108SOL    HW3  479   2.665   2.205   1.836 -0.7962 -1.0967 -0.0282
  108SOL    MW4  480   2.742   2.172   1.863 -0.0412  0.2141 -0.5308
  109SOL     OW  481   0.301   2.581   3.375  0.0065  0.2239 -0.0176
  109SOL    HW2  482   0.210   2.596   3.350  0.3759  1.7305 -0.5546
  109SOL    HW3  483   0.327   2.503   3.326 -0.4240  0.9347 -1.4256
  109SOL    MW4  484   0.292   2.573   3.365 -0.0016  0.5164 -0.2742
  110SOL     OW  485   3.444   3.441   3.114  0.4314 -0.0841  0.1163
  110SOL    HW2  486   3.407   3.359   3.146  0.8289 -0.0888  0.5645
  110SOL    HW3  487   3.464   3.491   3.193  2.2526 -0.4738 -0.0748
  110SOL    MW4  488   3.442   3.437   3.128  0.7241 -0.1359  0.1502
  111SOL     OW  489   1.430   4.310   1.474  0.2119  0.1825  0.3664
  111SOL    HW2  490   1.348   4.328   1.519  0.4639  1.5428  0.2785
  111SOL    HW3  491   1.494   4.368   1.515  0.4734  1.3815 -1.6778
  111SOL    MW4  492   1.428   4.320   1.485  0.2797  0.5207  0.0851
  112SOL     OW  493   0.463   4.270   2.370  0.4863 -0.0617  0.1373
  112SOL    HW2  494   0.549   4.296   2.339  1.3684 -1.3849  1.3917
  112SOL    HW3  495   0.406   4.345   2.352  1.4637  0.1001 -2.4601
  112SOL    MW4  496   0.467   4.283   2.364  0.7317 -0.2151 -0.0398
  113SOL     OW  497   0.033   3.085   2.276  0.0446 -0.0008  0.6221
  113SOL    HW2  498   0.126   3.085   2.296 -0.5405  1.2856  3.5686
  113SOL    HW3  499   0.003   2.998   2.304  0.3250 -0.4190 -0.3361
  113SOL    MW4  500   0.041   3.073   2.283  0.0044  0.1137  0.8845
  114SOL     OW  501   3.670   0.845   0.680 -0.1829 -0.4241  0.3159
  114SOL    HW2  502   3.711   0.911   0.623 -0.6588 -1.8477 -1.7547
  114SOL    HW3  503   3.732   0.772   0.679 -0.5137 -0.7123  1.0897
  114SOL    MW4  504   3.684   0.844   0.672 -0.2892 -0.6500  0.1448
  115SOL     OW  505   0.323   3.438   2.402  0.7217  0.2403  0.1101
  115SOL    HW2  506   0.236   3.476   2.394  1.2806  1.3445 -0.7751
  115SOL    HW3  507   0.376   3.507   2.441  1.0565 -0.6742  1.3200
  115SOL    MW4  508   0.318   3.452   2.406  0.8396  0.2654  0.1531
  116SOL     OW  509   3.544   3.073   1.360 -0.5212  0.0676  0.0212
  116SOL    HW2  510   3.452   3.062   1.337 -0.3479 -1.2827 -0.0589
  116SOL    HW3  511   3.592   3.036   1.286  0.0933  1.2851 -0.1954
  116SOL    MW4  512   3.538   3.066   1.347 -0.4172  0.0501 -0.0181
  117SOL     OW  513   1.856   0.937   3.228  0.1873  0.2062  0.2886
  117SOL    HW2  514   1.778   0.889   3.258  0.3575  1.3049  2.6461
  117SOL    HW3  515   1.821   1.021   3.198  0.3364  0.2667  0.2870
  117SOL    MW4  516   1.841   0.942   3.228  0.2295  0.3591  0.5996
  118SOL     OW  517   1.050   1.684   0.514  0.1487 -0.1605  0.2062
  118SOL    HW2  518   0.977   1.625   0.493  0.9857 -0.5746 -1.6130
  118SOL    HW3  519   1.122   1.625   0.537  0.9157  0.1129 -1.3882
  118SOL    MW4  520   1.050   1.668   0.514  0.3604 -0.1789 -0.2441
  119SOL     OW  521   4.374   0.858   4.168 -0.3018 -0.4552  0.3223
  119SOL    HW2  522   4.424   0.848   4.087 -0.3104 -1.0925  0.3892
  119SOL    HW3  523   4.286   0.826   4.146 -0.8061  1.0703  0.0807
  119SOL    MW4  524   4.369   0.852   4.154 -0.3695 -0.3380  0.2985
  120SOL     OW  525   3.313   3.669   2.019 -0.1979  0.4293 -0.6527
  120SOL    HW2  526   3.226   3.678   2.058 -0.1145 -0.2710 -0.3023
  120SOL    HW3  527   3.324   3.575   2.004  2.1420 -0.0611  3.2150
  120SOL    MW4  528   3.303   3.658   2.022  0.1218  0.2723 -0.0961
  121SOL     OW  529   0.743   2.331   1.086  0.0789  0.1814  0.1496
  121SOL    HW2  530   0.824   2.337   1.136  0.4665 -0.9224 -0.3117
  121SOL    HW3  531   0.720   2.421   1.064  0.6132  0.5706  1.1794
  121SOL    MW4  532   0.751   2.343   1.090  0.2005  0.0870  0.2245
  122SOL     OW  533   3.475   2.455   0.811  0.2919  0.1306  0.1817
  122SOL    HW2  534   3.517   2.401   0.878  1.0882  0.1372 -0.3025
  122SOL    HW3  535   3.532   2.447   0.735 -0.1560  0.8059 -0.2312
  122SOL    MW4  536   3.488   2.447   0.809  0.3381  0.2208  0.0634
  123SOL     OW  537   1.184   0.404   2.815 -0.2754 -0.3893 -0.0965
  123SOL    HW2  538   1.151   0.419   2.904  2.2255 -0.0791  0.8186
  123SOL    HW3  539   1.171   0.311   2.800 -0.5124 -0.4820  0.6745
  123SOL    MW4  540   1.178   0.394   2.825  0.0232 -0.3606  0.1256
  124SOL     OW  541   1.987   2.395   3.212  0.1680  0.3075  0.0712
  124SOL    HW2  542   1.979   2.399   3.307 -1.0341  0.3592 -0.0221
  124SOL    HW3  543   1.970   2.484   3.182 -1.5821 -0.1266 -0.3144
  124SOL    MW4  544   1.983   2.407   3.221 -0.2214  0.2573  0.0079
  125SOL     OW  545   2.816   1.187   1.280  0.0588  0.0948 -0.5112
  125SOL    HW2  546   2.769   1.224   1.355  0.5911  0.8590 -0.5432
  125SOL    HW3  547   2.851   1.263   1.234 -0.2273 -0.3716 -1.5163
  125SOL    MW4  548   2.815   1.202   1.284  0.0916  0.1340 -0.6481
  126SOL     OW  549   0.441   2.479   3.691 -0.0748  0.5772  0.3469
  126SOL    HW2  550   0.515   2.511   3.640 -0.5190 -0.8035 -1.2238
  126SOL    HW3  551   0.367   2.533   3.664  0.1986  1.5161  1.4255
  126SOL    MW4  552   0.441   2.490   3.681 -0.0973  0.5190  0.2818
  127SOL     OW  553   4.443   2.824   2.290 -0.2171 -0.4934 -0.1219
  127SOL    HW2  554   4.464   2.731   2.291  0.7891 -0.2715  1.6316
  127SOL    HW3  555   4.374   2.833   2.357  2.8605  0.6730  3.0389
  127SOL    MW4  556   4.437   2.813   2.299  0.3214 -0.3102  0.5264
  128SOL     OW  557   3.967   2.553   1.067 -0.1983 -0.1529 -0.4615
  128SOL    HW2  558   3.986   2.529   0.977 -0.1432  1.0313 -0.7680
  128SOL    HW3  559   4.032   2.506   1.119  0.3734 -0.0841 -1.1123
  128SOL    MW4  560   3.978   2.544   1.062 -0.1159  0.0124 -0.5878
  129SOL     OW  561   1.399   3.317   3.574  0.3875  0.4991  1.1129
  129SOL    HW2  562   1.462   3.265   3.524 -1.5033 -0.0919 -0.7033
  129SOL    HW3  563   1.396   3.274   3.660 -0.1225 -1.6045  0.0868
  129SOL    MW4  564   1.407   3.304   3.579  0.0708  0.1435  0.7381
  130SOL     OW  565   0.189   1.905   2.907 -0.0632  0.3247  0.2968
  130SOL    HW2  566   0.100   1.888   2.938 -0.7296  1.0228 -1.1968
  130SOL    HW3  567   0.190   1.999   2.887  1.2906  0.5179  1.1787
  130SOL    MW4  568   0.177   1.915   2.909  0.0275  0.4423  0.2162
  131SOL     OW  569   3.712   0.861   1.352 -0.4158  0.4560  0.2456
  131SOL    HW2  570   3.677   0.807   1.281 -0.3598 -0.1411  0.6648
  131SOL    HW3  571   3.688   0.950   1.328 -0.9315  0.1999 -0.2184
  131SOL    MW4  572   3.704   0.866   1.339 -0.4766  0.3434  0.2396
  132SOL     OW  573   1.916   1.180   0.528  0.4485  0.2062  0.2768
  132SOL    HW2  574   1.968   1.112   0.486 -1.6014 -2.0697  1.2948
  132SOL    HW3  575   1.947   1.183   0.618  0.5045  0.5815  0.2461
  132SOL    MW4  576   1.927   1.171   0.534  0.1855 -0.0445  0.4070
  133SOL     OW  577   1.506   2.587   0.664  0.3408 -0.3174  0.3650
  133SOL    HW2  578   1.446   2.512   0.659  1.5570 -1.3002  0.2441
  133SOL    HW3  579   1.464   2.655   0.612  0.9351 -2.1143 -2.5579
  133SOL    MW4  580   1.492   2.586   0.657  0.5797 -0.6843 -0.0365
  134SOL     OW  581   3.942   1.292   0.812 -0.1965  0.2859  0.6583
  134SOL    HW2  582   3.861   1.267   0.856 -0.4503 -1.3489 -0.6551
  134SOL    HW3  583   3.924   1.277   0.719  2.0319 -1.4184  0.4526
  134SOL    MW4  584   3.929   1.287   0.805  0.0639 -0.1547  0.4579
  135SOL     OW  585   3.605   0.390   2.884 -0.0115  0.0934 -0.4892
  135SOL    HW2  586   3.689   0.413   2.922  0.2835 -0.1221 -1.0022
  135SOL    HW3  587   3.627   0.349   2.800 -0.6426  0.3592 -0.7855
  135SOL    MW4  588   3.619   0.387   2.878 -0.0560  0.1001 -0.5960
  136SOL     OW  589   2.122   4.451   2.289 -0.1414 -0.3257  0.2179
  136SOL    HW2  590   2.031   4.423   2.288 -0.3726  0.4288 -1.6596
  136SOL    HW3  591   2.120   4.540   2.323  0.0006 -0.6395  1.0538
  136SOL    MW4  592   2.110   4.459   2.293 -0.1533 -0.2680  0.0806
  137SOL     OW  593   1.622   1.159   0.952 -0.1152 -0.3951  0.1055
  137SOL    HW2  594   1.569   1.222   1.002 -0.8356 -0.8573 -0.0597
  137SOL    HW3  595   1.597   1.174   0.861  0.4345 -0.2603 -0.0228
  137SOL    MW4  596   1.612   1.169   0.947 -0.1377 -0.4383  0.0668
  138SOL     OW  597   0.524   3.788   2.705 -0.2820  0.1704 -0.3716
  138SOL    HW2  598   0.497   3.729   2.635  0.3276 -0.1464 -0.3436
  138SOL    HW3  599   0.512   3.875   2.668 -2.4485  0.0911  0.0485
  138SOL    MW4  600   0.519   3.792   2.691 -0.4875  0.1180 -0.3126
  139SOL     OW  601   3.648   0.733   1.076 -0.1640 -0.4021  0.0360
  139SOL    HW2  602   3.570   0.786   1.060  1.0235  1.0817 -0.9901
  139SOL    HW3  603   3.721   0.787   1.044  1.3833 -1.3413  1.8462
  139SOL    MW4  604   3.648   0.747   1.070  0.1969 -0.3303  0.1395
  140SOL     OW  605   2.242   4.441   4.490  0.6584 -0.7545 -0.1641
  140SOL    HW2  606   2.203   4.438   4.578  1.9398 -0.5576  0.4216
  140SOL    HW3  607   2.291   4.523   4.488  0.7653 -0.8312 -1.0126
  140SOL    MW4  608   2.243   4.451   4.501  0.8416 -0.7391 -0.1984
  141SOL     OW  609   0.165   0.890   2.039  0.2907  0.0431  0.0882
  141SOL    HW2  610   0.196   0.877   1.949 -2.2931 -0.7091 -0.7346
  141SOL    HW3  611   0.079   0.931   2.029 -0.4938 -1.0497  2.1746
  141SOL    MW4  612   0.158   0.894   2.026 -0.1537 -0.2003  0.2549
  142SOL     OW  613   4.046   1.577   4.439 -0.0036 -0.1685  0.0690
  142SOL    HW2  614   4.068   1.486   4.458 -0.9533 -0.7824 -1.6996
  142SOL    HW3  615   4.115   1.628   4.482 -0.0293 -1.6613  1.9462
  142SOL    MW4  616   4.058   1.572   4.447 -0.1330 -0.4463  0.0834
  143SOL     OW  617   0.714   1.258   4.204  0.2251  0.5505 -0.0053
  143SOL    HW2  618   0.669   1.338   4.229 -0.9752  0.3507 -1.4768
  143SOL    HW3  619   0.703   1.253   4.109 -0.9839 -2.1095  0.2282
  143SOL    MW4  620   0.707   1.268   4.194 -0.0928  0.1732 -0.1688
  144SOL     OW  621   4.294   0.398   1.663  0.3440  0.3535 -0.0060
  144SOL    HW2  622   4.302   0.478   1.714 -1.7077  1.4904 -1.4047
  144SOL    HW3  623   4.237   0.341   1.715 -1.8066  1.5383 -0.9788
  144SOL    MW4  624   4.288   0.401   1.677 -0.2103  0.6599 -0.3189
  145SOL     OW  625   2.056   0.772   4.448 -0.3535 -0.1001 -0.3420
  145SOL    HW2  626   1.980   0.831   4.447  0.0801  0.4372 -1.4820
  145SOL    HW3  627   2.121   0.817   4.502 -0.7482 -0.4623  0.4536
  145SOL    MW4  628   2.054   0.786   4.455 -0.3481 -0.0771 -0.3872
  146SOL     OW  629   1.173   0.113   2.036  0.1646 -0.3220 -0.4917
  146SOL    HW2  630   1.182   0.140   2.127 -1.5987 -1.8306  0.1582
  146SOL    HW3  631   1.217   0.028   2.031 -1.0728 -0.9651 -0.6689
  146SOL    MW4  632   1.180   0.105   2.047 -0.2313 -0.6059 -0.4294
  147SOL     OW  633   0.726   1.840   3.590  0.2634 -0.0195  0.0037
  147SOL    HW2  634   0.739   1.933   3.609 -0.8756  0.1077  0.1888
  147SOL    HW3  635   0.765   1.828   3.503  0.4242  0.6275 -0.0206
  147SOL    MW4  636   0.733   1.851   3.581  0.1343  0.0825  0.0250
  148SOL     OW  637   0.764   1.273   2.930  0.2285 -0.2889  0.2308
  148SOL    HW2  638   0.753   1.334   2.857  2.1070 -1.6919 -1.3116
  148SOL    HW3  639   0.747   1.187   2.891  2.0283 -1.1318  1.2200
  148SOL    MW4  640   0.761   1.270   2.915  0.7139 -0.5853  0.1576
  149SOL     OW  641   0.631   2.530   0.557  0.1533  0.6756 -0.9402
  149SOL    HW2  642   0.623   2.602   0.619  0.3650  0.2734 -0.4402
  149SOL    HW3  643   0.583   2.458   0.597 -0.0967  0.5459 -1.4592
  149SOL    MW4  644   0.624   2.530   0.570  0.1483  0.6051 -0.9426
  150SOL     OW  645   0.881   2.433   0.649  0.0961  0.4129  0.3340
  150SOL    HW2  646   0.826   2.466   0.578 -0.2380  0.6490  0.7012
  150SOL    HW3  647   0.826   2.370   0.695  0.4728 -0.0843  0.1007
  150SOL    MW4  648   0.867   2.429   0.646  0.1018  0.3784  0.3517
  151SOL     OW  649   3.813   0.470   3.042 -0.3018 -0.4359 -0.0145
  151SOL    HW2  650   3.884   0.534   3.032 -0.8890 -0.0255 -1.6529
  151SOL    HW3  651   3.841   0.415   3.115  0.2148  1.6978  1.4543
  151SOL    MW4  652   3.826   0.471   3.050 -0.3111 -0.1002 -0.0367
  152SOL     OW  653   0.380   2.452   4.647 -0.1908 -0.2090 -0.6167
  152SOL    HW2  654   0.355   2.365   4.616 -1.0974 -0.1845  0.0634
  152SOL    HW3  655   0.469   2.440   4.682 -1.1526 -1.3234  1.4961
  152SOL    MW4  656   0.389   2.439   4.647 -0.4373 -0.3531 -0.2480
  153SOL     OW  657   1.671   1.372   1.674 -0.3575 -0.8485  0.1024
  153SOL    HW2  658   1.644   1.302   1.733  0.2470 -0.0885  1.3112
  153SOL    HW3  659   1.634   1.452   1.713 -1.0945 -0.5031 -1.2889
  153SOL    MW4  660   1.662   1.373   1.687 -0.3749 -0.7029  0.0783
  154SOL     OW  661   1.010   2.553   2.960 -0.3469  0.4070  0.0929
  154SOL    HW2  662   1.005   2.647   2.944  0.7762  0.1903 -1.5778
  154SOL    HW3  663   0.962   2.513   2.887 -1.9477 -0.2917  1.4818
  154SOL    MW4  664   1.003   2.560   2.948 -0.4100  0.2861  0.0560
  155SOL     OW  665   1.024   4.137   3.382  0.2429  0.1461 -0.6456
  155SOL    HW2  666   1.029   4.227   3.348  0.9520  0.5659  0.5349
  155SOL    HW3  667   1.040   4.147   3.476 -0.5138 -1.1284 -0.3841
  155SOL    MW4  668   1.027   4.150   3.390  0.2366  0.0334 -0.4554
  156SOL     OW  669   2.006   1.462   2.403 -0.0290 -0.3341  0.0389
  156SOL    HW2  670   2.018   1.383   2.457  0.1222 -1.5190 -1.7008
  156SOL    HW3  671   1.987   1.429   2.316  1.2892  1.5763 -1.0096
  156SOL    MW4  672   2.005   1.447   2.399  0.1650 -0.2384 -0.3290
  157SOL     OW  673   1.633   0.638   2.656  0.1404  0.1722 -0.1945
  157SOL    HW2  674   1.617   0.712   2.598 -0.0389  0.1884 -0.1238
  157SOL    HW3  675   1.550   0.591   2.659 -0.7934  1.8826  2.4644
  157SOL    MW4  676   1.620   0.642   2.649 -0.0063  0.4000  0.1659
  158SOL     OW  677   4.030   1.739   4.207  0.3314 -0.1393 -0.3004
  158SOL    HW2  678   4.031   1.685   4.129 -0.7793 -0.4834 -0.0826
  158SOL    HW3  679   4.056   1.680   4.278  0.4052 -0.0585 -0.2589
  158SOL    MW4  680   4.034   1.724   4.206  0.1950 -0.1739 -0.2661
  159SOL     OW  681   1.308   1.667   1.655 -0.4427  0.2274 -0.3356
  159SOL    HW2  682   1.213   1.663   1.655 -0.3906 -1.1133 -0.1521
  159SOL    HW3  683   1.329   1.746   1.705 -1.4568  0.6882 -0.6369
  159SOL    MW4  684   1.298   1.677   1.662 -0.5696  0.1112 -0.3512
  160SOL     OW  685   1.645   0.842   1.243 -0.1924 -0.3036 -0.1456
  160SOL    HW2  686   1.730   0.849   1.200  1.0954  2.3901  2.5588
  160SOL    HW3  687   1.582   0.863   1.175  1.8428  5.3147 -0.6088
  160SOL    MW4  688   1.648   0.846   1.229  0.2459  0.7930  0.1500
  161SOL     OW  689   0.402   0.166   4.019  0.2793  0.7984  0.1466
  161SOL    HW2  690   0.371   0.111   3.947  0.7156  0.6208  0.0966
  161SOL    HW3  691   0.390   0.255   3.988 -0.2893  0.7304  0.1677
  161SOL    MW4  692   0.396   0.170   4.005  0.2618  0.7660  0.1426
  162SOL     OW  693   2.787   1.781   0.943  0.1006  0.0728 -0.0313
  162SOL    HW2  694   2.784   1.689   0.968  3.4549  0.0163  0.3657
  162SOL    HW3  695   2.751   1.828   1.019  0.7927 -0.7358  0.7960
  162SOL    MW4  696   2.782   1.775   0.956  0.6344 -0.0414  0.1302
  163SOL     OW  697   4.234   0.611   2.831  0.3567  0.1785 -0.3966
  163SOL    HW2  698   4.323   0.580   2.818  0.4147 -0.4497  1.4066
  163SOL    HW3  699   4.186   0.535   2.865 -0.1612  1.2782  1.3976
  163SOL    MW4  700   4.239   0.597   2.834  0.2966  0.2406  0.0780
  164SOL     OW  701   3.382   1.803   3.505 -0.1766 -0.0284  0.4430
  164SOL    HW2  702   3.347   1.786   3.593  0.8473  0.4343  0.9474
  164SOL    HW3  703   3.469   1.764   3.506 -0.9916 -1.9628 -1.1021
  164SOL    MW4  704   3.389   1.796   3.517 -0.1490 -0.2226  0.3059
  165SOL     OW  705   2.932   4.017   0.831  0.0927  0.2942 -0.1571
  165SOL    HW2  706   2.997   4.014   0.901 -0.4674  0.1283  0.3557
  165SOL    HW3  707   2.877   4.092   0.852 -1.3455 -0.9885  0.7163
  165SOL    MW4  708   2.933   4.027   0.843 -0.1709  0.1030  0.0257
  166SOL     OW  709   2.682   2.223   3.023 -0.3505 -0.4499  0.1335
  166SOL    HW2  710   2.774   2.229   2.998  0.0974 -0.6399  1.6849
  166SOL    HW3  711   2.651   2.313   3.026  0.7426 -0.1012  2.9862
  166SOL    MW4  712   2.690   2.235   3.020 -0.1473 -0.4287  0.7145
  167SOL     OW  713   3.519   3.135   0.803  0.5471 -0.5274 -0.4032
  167SOL    HW2  714   3.588   3.202   0.799  1.2089 -1.1801 -0.0289
  167SOL    HW3  715   3.466   3.161   0.879 -1.1441  1.4090 -2.1861
  167SOL    MW4  716   3.521   3.147   0.813  0.4113 -0.3579 -0.5890
  168SOL     OW  717   1.846   4.065   1.662 -0.0801  0.1290  0.3270
  168SOL    HW2  718   1.899   3.986   1.674 -0.8292 -0.3148  0.7817
  168SOL    HW3  719   1.878   4.127   1.727 -0.7717 -0.4854  1.2603
  168SOL    MW4  720   1.857   4.063   1.672 -0.2701 -0.0100  0.5102
  169SOL     OW  721   0.775   3.484   2.412  0.4596  0.1272 -0.0525
  169SOL    HW2  722   0.857   3.478   2.462 -0.3742  0.3275  1.3489
  169SOL    HW3  723   0.725   3.407   2.439  0.9808 -1.0578 -2.3783
  169SOL    MW4  724   0.779   3.473   2.422  0.4184 -0.0026 -0.1743
  170SOL     OW  725   3.015   4.506   1.896  0.4164 -0.5299  0.3421
  170SOL    HW2  726   3.015   4.496   1.991 -0.6559 -1.9284  0.2148
  170SOL    HW3  727   3.059   4.589   1.880  0.2589 -0.1024  2.0825
  170SOL    MW4  728   3.021   4.515   1.906  0.2542 -0.6580  0.5549
  171SOL     OW  729   3.677   3.183   2.215 -0.0755  0.9879  0.0398
  171SOL    HW2  730   3.585   3.190   2.191 -0.2058 -0.0187  0.2231
  171SOL    HW3  731   3.676   3.161   2.308  0.3362  0.6958 -0.0210
  171SOL    MW4  732   3.665   3.181   2.224 -0.0381  0.8168  0.0558
  172SOL     OW  733   2.844   1.159   0.863  0.2860  0.5083  0.7293
  172SOL    HW2  734   2.814   1.127   0.778  0.0656  0.5990  0.7754
  172SOL    HW3  735   2.765   1.190   0.907  0.6603  2.1819  0.2350
  172SOL    MW4  736   2.830   1.159   0.858  0.3064  0.7410  0.6702
  173SOL     OW  737   2.342   3.326   1.602  0.3145  0.4134  0.3285
  173SOL    HW2  738   2.338   3.337   1.507 -0.8454 -0.7707  0.2250
  173SOL    HW3  739   2.273   3.384   1.635 -0.7879 -0.8437  0.2818
  173SOL    MW4  740   2.332   3.335   1.594  0.0160  0.0916  0.3085
  174SOL     OW  741   0.535   3.116   3.961  0.0869 -0.1143  0.2204
  174SOL    HW2  742   0.505   3.207   3.970 -2.5133 -1.0323  1.3190
  174SOL    HW3  743   0.580   3.114   3.877  0.1089  2.1645  0.1374
  174SOL    MW4  744   0.537   3.128   3.951 -0.2533  0.0653  0.3543
  175SOL     OW  745   1.026   4.191   3.658  0.2946 -0.0159 -0.1923
  175SOL    HW2  746   1.067   4.274   3.684  0.4287 -0.3697  0.7568
  175SOL    HW3  747   1.081   4.124   3.699 -0.5601 -0.5343  0.1140
  175SOL    MW4  748   1.039   4.193   3.667  0.1997 -0.1311 -0.0265
  176SOL     OW  749   2.992   1.012   1.057  0.2892 -0.0578 -0.0286
  176SOL    HW2  750   3.067   1.064   1.084 -1.2796  1.6591  1.0871
  176SOL    HW3  751   2.946   1.067   0.993  0.2941 -1.3539 -1.1887
  176SOL    MW4  752   2.996   1.026   1.052  0.0830 -0.0023 -0.0345
  177SOL     OW  753   0.268   2.000   1.152 -0.1468 -0.2015  0.4245
  177SOL    HW2  754   0.360   1.996   1.124  0.0601 -0.3498  1.0910
  177SOL    HW3  755   0.267   1.951   1.235 -0.4418  1.4816  1.4329
  177SOL    MW4  756   0.280   1.993   1.159 -0.1584  0.0011  0.6455
  178SOL     OW  757   4.156   3.929   2.818 -0.1653 -0.0903 -0.3402
  178SOL    HW2  758   4.188   3.981   2.744 -0.0562  1.6252  0.8953
  178SOL    HW3  759   4.228   3.869   2.838 -0.8043 -1.7238 -2.6396
  178SOL    MW4  760   4.169   3.928   2.811 -0.2351 -0.0794 -0.4807
  179SOL     OW  761   4.101   1.711   2.239 -0.2583  0.1632 -0.1922
  179SOL    HW2  762   4.140   1.790   2.202 -0.6932  0.3333 -0.2889
  179SOL    HW3  763   4.077   1.736   2.328  1.6193 -0.5144  0.5202
  179SOL    MW4  764   4.103   1.725   2.246 -0.0677  0.0962 -0.1109
  180SOL     OW  765   3.406   1.794   1.535  0.3706 -0.0229 -0.3060
  180SOL    HW2  766   3.448   1.843   1.606 -0.0644  0.6975 -0.5380
  180SOL    HW3  767   3.467   1.723   1.515  1.3737  0.8732 -0.4843
  180SOL    MW4  768   3.420   1.791   1.542  0.4456  0.1906 -0.3600
  181SOL     OW  769   1.713   3.142   4.024  0.2368  0.2437  0.4936
  181SOL    HW2  770   1.741   3.078   3.960  0.7820  2.2513 -1.3349
  181SOL    HW3  771   1.784   3.144   4.089  0.6039 -0.3740  0.1143
  181SOL    MW4  772   1.726   3.134   4.024  0.3573  0.4270  0.2022
  182SOL     OW  773   0.404   2.333   2.958 -0.1086  0.4309 -0.1359
  182SOL    HW2  774   0.473   2.340   3.025 -1.3098 -1.0094  1.2782
  182SOL    HW3  775   0.450   2.348   2.875  1.4454  2.0568  0.9747
  182SOL    MW4  776   0.419   2.336   2.956 -0.0621  0.4554  0.1974
  183SOL     OW  777   2.278   3.267   1.337  0.1156 -0.2179  0.1614
  183SOL    HW2  778   2.344   3.235   1.274  0.8943  0.4450  0.6223
  183SOL    HW3  779   2.237   3.341   1.292  0.8575  0.4228  0.5369
  183SOL    MW4  780   2.282   3.273   1.322  0.3161 -0.0463  0.2718
  184SOL     OW  781   4.007   2.883   2.835 -0.4009 -0.2601  0.2627
  184SOL    HW2  782   3.950   2.952   2.801 -2.4169 -1.4688  1.0748
  184SOL    HW3  783   4.084   2.929   2.869 -1.4568  1.5229  0.2842
  184SOL    MW4  784   4.010   2.898   2.835 -0.8063 -0.1845  0.3724
  185SOL     OW  785   1.473   0.872   2.677  0.0955 -0.4728 -0.6899
  185SOL    HW2  786   1.418   0.829   2.743 -0.4573  1.7002  0.2899
  185SOL    HW3  787   1.520   0.940   2.725 -0.2773  1.1196 -2.5219
  185SOL    MW4  788   1.472   0.875   2.692 -0.0266  0.0240 -0.8025
  186SOL     OW  789   4.109   1.169   1.217 -0.0715  0.4664  0.0209
  186SOL    HW2  790   4.042   1.208   1.273  0.6684  0.7879  0.6958
  186SOL    HW3  791   4.147   1.243   1.170  0.9085  0.5049  0.8430
  186SOL    MW4  792   4.105   1.184   1.219  0.1554  0.5138  0.2184
  187SOL     OW  793   0.903   4.177   1.898  0.4877 -0.5217 -0.3628
  187SOL    HW2  794   0.982   4.123   1.894  0.2502 -0.8937 -0.1027
  187SOL    HW3  795   0.878   4.175   1.991  0.0107 -0.6423 -0.4938
  187SOL    MW4  796   0.910   4.169   1.910  0.3935 -0.5870 -0.3457
  188SOL     OW  797   3.537   4.364   1.177  0.4066 -0.1446 -0.5175
  188SOL    HW2  798   3.612   4.417   1.149  0.7414 -0.5790 -0.4397
  188SOL    HW3  799   3.464   4.398   1.125  0.7364  0.0017 -0.8930
  188SOL    MW4  800   3.537   4.376   1.166  0.4940 -0.1831 -0.5567
  189SOL     OW  801   1.629   1.723   2.861 -0.1856 -0.0831 -0.3466
  189SOL    HW2  802   1.685   1.662   2.813  1.3707  1.2148 -0.2328
  189SOL    HW3  803   1.681   1.750   2.936 -1.5407  0.0477  0.5693
  189SOL    MW4  804   1.643   1.719   2.864 -0.1589  0.1055 -0.2105
  190SOL     OW  805   2.553   3.862   4.409  0.7457  0.0943  0.2768
  190SOL    HW2  806   2.457   3.864   4.412  0.7703  1.8635  0.5013
  190SOL    HW3  807   2.577   3.804   4.481 -0.1931 -2.3534 -1.3234
  190SOL    MW4  808   2.544   3.855   4.419  0.6249  0.0048  0.0954
  191SOL     OW  809   3.487   1.726   0.624  0.2908  0.1768  0.0460
  191SOL    HW2  810   3.509   1.793   0.559  0.2658  0.0943 -0.0490
  191SOL    HW3  811   3.516   1.644   0.584  0.0685  0.0999  0.0424
  191SOL    MW4  812   3.494   1.724   0.610  0.2582  0.1558  0.0330
  192SOL     OW  813   2.728   3.554   1.859  0.0994  0.2936 -0.4525
  192SOL    HW2  814   2.724   3.640   1.900  2.6352  0.8801 -1.3574
  192SOL    HW3  815   2.818   3.525   1.872 -0.6948 -2.2221 -0.2207
  192SOL    MW4  816   2.739   3.562   1.866  0.3290  0.0389 -0.5412
  193SOL     OW  817   3.301   3.295   4.040  0.0635  0.4255 -0.2188
  193SOL    HW2  818   3.307   3.312   3.946  1.1413 -0.1313 -0.2594
  193SOL    HW3  819   3.381   3.331   4.077 -0.6720  1.2593  0.5959
  193SOL    MW4  820   3.312   3.302   4.033  0.1087  0.4623 -0.1173
  194SOL     OW  821   0.035   0.556   2.790  0.2873 -0.4298 -0.3750
  194SOL    HW2  822   0.043   0.617   2.717  0.3633 -1.9314 -1.6684
  194SOL    HW3  823   0.116   0.505   2.787  0.8535  0.3287  1.5589
  194SOL    MW4  824   0.046   0.557   2.780  0.3719 -0.5278 -0.2904
  195SOL     OW  825   0.918   0.855   0.770 -0.2436 -0.2951 -0.5018
  195SOL    HW2  826   0.918   0.772   0.722  0.5305  0.0509 -1.1065
  195SOL    HW3  827   0.952   0.833   0.856 -0.0710 -0.6105 -0.6495
  195SOL    MW4  828   0.922   0.841   0.775 -0.1187 -0.2910 -0.6012
  196SOL     OW  829   3.379   1.494   3.720  0.0289  0.6062 -0.0901
  196SOL    HW2  830   3.436   1.491   3.796 -0.8143  0.1104  0.5331
  196SOL    HW3  831   3.299   1.449   3.747 -0.2565  0.3580 -1.2883
  196SOL    MW4  832   3.376   1.488   3.733 -0.1197  0.5081 -0.1659
  197SOL     OW  833   4.104   0.204   3.439  0.6794  0.1499  0.1033
  197SOL    HW2  834   4.161   0.158   3.501  0.9353  1.1060  0.5765
  197SOL    HW3  835   4.155   0.278   3.409  0.4631 -0.1640 -1.0837
  197SOL    MW4  836   4.118   0.207   3.443  0.6847  0.2346  0.0093
  198SOL     OW  837   0.674   1.135   4.449 -0.0805  0.5003 -0.2222
  198SOL    HW2  838   0.580   1.129   4.467 -0.0102 -0.8615 -0.1851
  198SOL    HW3  839   0.679   1.157   4.356 -0.4520 -0.3472 -0.4545
  198SOL    MW4  840   0.662   1.137   4.439 -0.1202  0.2087 -0.2480
  199SOL     OW  841   2.864   4.011   2.442 -0.4400  0.0384 -0.2444
  199SOL    HW2  842   2.942   3.965   2.474 -0.2329  0.3467 -0.3090
  199SOL    HW3  843   2.791   3.964   2.483 -0.2843 -1.1060 -1.2509
  199SOL    MW4  844   2.865   3.998   2.452 -0.3922 -0.0718 -0.3858
  200SOL     OW  845   0.691   3.516   2.137  0.0288 -0.6507  0.4426
  200SOL    HW2  846   0.627   3.576   2.099  0.6294  0.2331  0.8301
  200SOL    HW3  847   0.682   3.526   2.232 -0.7575 -2.1115  0.5391
  200SOL    MW4  848   0.682   3.525   2.144  0.0043 -0.7269  0.5062
  201SOL     OW  849   0.195   0.590   2.419  0.2738  0.5968 -0.0562
  201SOL    HW2  850   0.192   0.618   2.328  0.6654  0.8483  0.0065
  201SOL    HW3  851   0.286   0.604   2.446 -0.0779  1.5527  0.6938
  201SOL    MW4  852   0.206   0.595   2.411  0.2791  0.7561  0.0510
  202SOL     OW  853   2.371   0.675   1.953 -0.0639 -0.2171 -0.3592
  202SOL    HW2  854   2.430   0.728   1.900 -0.2191  1.2158  0.8577
  202SOL    HW3  855   2.424   0.645   2.027  0.2074 -2.3750 -1.4050
  202SOL    MW4  856   2.386   0.678   1.956 -0.0486 -0.3127 -0.3366
  203SOL     OW  857   3.875   4.567   2.932  0.5874  0.1938  0.2563
  203SOL    HW2  858   3.953   4.520   2.904  0.4471 -0.2350  0.5816
  203SOL    HW3  859   3.909   4.643   2.980  0.8119 -0.5006  1.2322
  203SOL    MW4  860   3.889   4.571   2.935  0.5987  0.0453  0.4280
  204SOL     OW  861   2.908   0.121   0.824  0.0689 -0.3193 -0.2345
  204SOL    HW2  862   2.874   0.197   0.776 -1.3086 -0.1105  1.0563
  204SOL    HW3  863   3.002   0.139   0.833 -0.5802  2.2044  1.8014
  204SOL    MW4  864   2.916   0.133   0.819 -0.1986  0.0412  0.2043
  205SOL     OW  865   3.533   2.903   1.569 -0.1862 -0.1196 -0.0472
  205SOL    HW2  866   3.553   2.963   1.497 -0.8376 -0.7624 -0.7854
  205SOL    HW3  867   3.520   2.818   1.526 -2.4865 -0.1266  0.5938
  205SOL    MW4  868   3.534   2.900   1.554 -0.5755 -0.2055 -0.0600
  206SOL     OW  869   1.369   4.245   4.530  0.3087  0.5872  0.2941
  206SOL    HW2  870   1.284   4.227   4.490  0.0036  0.5360  0.9481
  206SOL    HW3  871   1.372   4.184   4.605  1.4234 -0.2462 -0.4227
  206SOL    MW4  872   1.358   4.234   4.535  0.4156  0.4706  0.2856
  207SOL     OW  873   0.352   2.984   1.843 -0.1628 -0.0582  0.8123
  207SOL    HW2  874   0.297   2.938   1.907 -1.7669  1.2299  0.3822
  207SOL    HW3  875   0.392   2.915   1.791  0.8034 -1.1235  2.8854
  207SOL    MW4  876   0.350   2.969   1.845 -0.2469 -0.0288  1.0290
  208SOL     OW  877   1.151   0.946   4.228 -0.1010  0.0076  0.2040
  208SOL    HW2  878   1.226   0.964   4.172  0.1502  0.3707  0.6535
  208SOL    HW3  879   1.119   1.032   4.254 -0.7838 -0.1390 -0.1208
  208SOL    MW4  880   1.157   0.960   4.224 -0.1581  0.0361  0.2198
  209SOL     OW  881   1.543   3.745   3.051 -0.2096 -0.4712 -0.3591
  209SOL    HW2  882   1.513   3.705   3.133  0.7406  1.1493  0.8179
  209SOL    HW3  883   1.587   3.674   3.004 -0.6028 -1.3751  0.6194
  209SOL    MW4  884   1.545   3.731   3.056 -0.1360 -0.3767 -0.0749
  210SOL     OW  885   0.789   3.557   3.981  0.2846 -0.6550  0.2391
  210SOL    HW2  886   0.833   3.635   3.950 -1.4812  0.2706  0.0069
  210SOL    HW3  887   0.854   3.487   3.971  2.3779  1.0103  1.8254
  210SOL    MW4  888   0.804   3.558   3.975  0.3279 -0.3133  0.4177
  211SOL     OW  889   2.770   0.367   3.049  0.3787  0.2813  0.2187
  211SOL    HW2  890   2.827   0.320   3.111  1.5517  0.4438 -0.7147
  211SOL    HW3  891   2.694   0.311   3.039  1.8170 -1.5067 -0.9691
  211SOL    MW4  892   2.767   0.354   3.056  0.7234  0.0668 -0.0615
  212SOL     OW  893   0.632   3.951   1.240  0.1889 -0.0358 -0.8544
  212SOL    HW2  894   0.590   4.028   1.278 -2.2737 -2.3469  1.2898
  212SOL    HW3  895   0.669   3.904   1.315  0.4194 -1.6831 -1.9682
  212SOL    MW4  896   0.632   3.955   1.255 -0.1056 -0.5579 -0.7185
  213SOL     OW  897   2.256   4.239   2.956  0.5025 -0.6271 -0.1750
  213SOL    HW2  898   2.166   4.206   2.948 -0.2639  1.3252  0.2287
  213SOL    HW3  899   2.278   4.268   2.867  0.2301  0.1604  0.0132
  213SOL    MW4  900   2.247   4.238   2.943  0.3655 -0.2656 -0.0968
  214SOL     OW  901   1.126   2.141   1.041  0.2111 -0.2853 -0.2763
  214SOL    HW2  902   1.107   2.133   0.948  2.6638 -2.5636 -0.6352
  214SOL    HW3  903   1.100   2.057   1.078  2.3205 -0.6087  0.5125
  214SOL    MW4  904   1.120   2.129   1.034  0.8131 -0.6287 -0.2196
  215SOL     OW  905   2.206   2.808   3.059  0.1763 -0.0763  0.7176
  215SOL    HW2  906   2.133   2.761   3.098  0.2561 -0.9591 -0.1565
  215SOL    HW3  907   2.266   2.825   3.132  0.4114 -1.8608  0.9631
  215SOL    MW4  908   2.204   2.804   3.074  0.2177 -0.4280  0.6347
  216SOL     OW  909   0.005   4.507   3.642  0.4008 -0.5817  0.1940
  216SOL    HW2  910  -0.032   4.507   3.554  1.3631  0.4852 -0.2244
  216SOL    HW3  911  -0.011   4.595   3.675  1.9415 -0.3162  0.2586
  216SOL    MW4  912  -0.002   4.519   3.634  0.7305 -0.4058  0.1473
  217SOL     OW  913   0.524   2.003   1.033  0.3306  0.0699 -0.0016
  217SOL    HW2  914   0.476   2.085   1.017 -0.0470  0.0378  0.9307
  217SOL    HW3  915   0.566   2.016   1.117  0.4838 -0.6015  0.0252
  217SOL    MW4  916   0.523   2.015   1.042  0.3011 -0.0229  0.1251
  218SOL     OW  917   3.473   0.527   3.844 -0.0820 -0.8078 -0.0817
  218SOL    HW2  918   3.387   0.484   3.840 -0.3673 -0.1119 -1.6297
  218SOL    HW3  919   3.535   0.454   3.848 -0.6306 -1.3617 -1.2995
  218SOL    MW4  920   3.470   0.512   3.844 -0.1917 -0.7890 -0.4466
  219SOL     OW  921   2.074   3.027   0.606  0.2208  0.3311 -0.5338
  219SOL    HW2  922   1.993   2.988   0.638  0.1896  0.3437 -0.5965
  219SOL    HW3  923   2.141   2.959   0.619  0.0379 -0.0017 -1.2712
  219SOL    MW4  924   2.072   3.013   0.612  0.1924  0.2890 -0.6394
  220SOL     OW  925   2.906   0.859   1.488  0.0600 -0.1379  0.8678
  220SOL    HW2  926   2.887   0.845   1.395  0.1065  1.1022  0.6720
  220SOL    HW3  927   2.944   0.947   1.493  2.1267 -1.0372  1.7655
  220SOL    MW4  928   2.908   0.869   1.477  0.3390 -0.0929  0.9605
  221SOL     OW  929   0.060   1.858   2.647 -0.0396  0.2170 -0.0298
  221SOL    HW2  930   0.045   1.944   2.686 -0.5657  0.0934  0.0431
  221SOL    HW3  931   0.064   1.798   2.721 -1.7197 -0.1177 -0.2002
  221SOL    MW4  932   0.059   1.861   2.662 -0.3306  0.1566 -0.0427
  222SOL     OW  933   1.383   1.274   4.364 -0.2671 -0.5345  0.3071
  222SOL    HW2  934   1.448   1.344   4.374 -0.7835 -0.2254  1.6079
  222SOL    HW3  935   1.348   1.261   4.453 -2.8439  0.1489 -0.5542
  222SOL    MW4  936   1.387   1.282   4.377 -0.6751 -0.4035  0.3653
  223SOL     OW  937   3.323   3.996   1.042  0.3679  0.2157  0.4792
  223SOL    HW2  938   3.349   3.995   1.134 -2.2161 -0.8415  1.2661
  223SOL    HW3  939   3.254   4.063   1.037 -0.0709 -0.2958 -0.5007
  223SOL    MW4  940   3.317   4.005   1.054 -0.0312  0.0086  0.4536
  224SOL     OW  941   2.306   4.325   2.705 -0.0766  0.7101  0.2887
  224SOL    HW2  942   2.262   4.280   2.632 -0.3793  0.1046  0.8397
  224SOL    HW3  943   2.392   4.283   2.709 -0.4761 -0.0619  1.0113
  224SOL    MW4  944   2.311   4.313   2.696 -0.1693  0.5279  0.4568
  225SOL     OW  945   1.220   2.281   1.389  0.0922 -0.3135 -0.2500
  225SOL    HW2  946   1.285   2.296   1.320  0.5202  1.6649  0.5455
  225SOL    HW3  947   1.136   2.278   1.344  0.3650  0.9978 -0.8533
  225SOL    MW4  948   1.218   2.282   1.374  0.1847  0.1204 -0.2247
  226SOL     OW  949   0.822   0.382   1.431  0.4153 -0.0518 -0.6377
  226SOL    HW2  950   0.802   0.394   1.524 -1.7312 -0.2616 -1.0501
  226SOL    HW3  951   0.770   0.306   1.405 -0.3857  1.0825 -2.4310
  226SOL    MW4  952   0.813   0.373   1.440  0.0264  0.0702 -0.9286
  227SOL     OW  953   1.989   4.424   1.009  0.1051  0.3791 -0.3393
  227SOL    HW2  954   1.961   4.477   0.935  1.1922  0.2322 -0.8734
  227SOL    HW3  955   1.988   4.334   0.975  1.7030  0.4203 -0.5438
  227SOL    MW4  956   1.985   4.419   0.994  0.4594  0.3653 -0.4367
  228SOL     OW  957   0.576   3.797   3.921  0.0997  0.0215 -0.1955
  228SOL    HW2  958   0.493   3.755   3.942 -0.1129  0.4539 -0.1727
  228SOL    HW3  959   0.640   3.752   3.977  0.5400 -2.9758 -2.9448
  228SOL    MW4  960   0.574   3.785   3.931  0.1297 -0.3171 -0.5553
  229SOL     OW  961   4.014   0.083   2.463 -0.1205 -0.1696  0.6164
  229SOL    HW2  962   3.927   0.045   2.455  0.2370 -0.9436  0.3986
  229SOL    HW3  963   4.001   0.164   2.514 -1.0945  0.2027 -0.2232
  229SOL    MW4  964   4.001   0.089   2.469 -0.2012 -0.2226  0.4768
  230SOL     OW  965   2.547   2.355   1.483 -0.1832  0.0969  0.2258
  230SOL    HW2  966   2.558   2.261   1.471  0.2773  0.1445  0.2374
  230SOL    HW3  967   2.637   2.388   1.492 -0.4269  0.2091  2.6386
  230SOL    MW4  968   2.560   2.347   1.483 -0.1547  0.1178  0.5456
  231SOL     OW  969   3.214   2.509   2.116  0.1731 -0.4555  0.0298
  231SOL    HW2  970   3.303   2.537   2.140 -0.1356 -0.2150  0.9427
  231SOL    HW3  971   3.210   2.520   2.021  0.9628  0.0090  0.0413
  231SOL    MW4  972   3.225   2.514   2.107  0.2365 -0.3624  0.1516
  232SOL     OW  973   1.370   1.837   1.186 -0.0875 -0.0692  0.2159
  232SOL    HW2  974   1.431   1.775   1.225 -0.2097 -0.8669 -0.8386
  232SOL    HW3  975   1.293   1.835   1.244  0.1667 -0.4117  0.5439
  232SOL    MW4  976   1.368   1.828   1.199 -0.0702 -0.2197  0.1202
  233SOL     OW  977   1.272   1.138   0.912  0.3867 -0.0752  0.2865
  233SOL    HW2  978   1.298   1.229   0.902  0.6405 -0.1741  0.0274
  233SOL    HW3  979   1.242   1.112   0.825  1.1463 -0.4922  0.1385
  233SOL    MW4  980   1.272   1.146   0.899  0.5205 -0.1433  0.2328
  234SOL     OW  981   4.049   4.350   2.578 -0.7017  0.1675  0.4269
  234SOL    HW2  982   3.987   4.297   2.629  0.4823 -1.5207  0.1536
  234SOL    HW3  983   3.995   4.394   2.512 -2.0098  1.0413  2.0333
  234SOL    MW4  984   4.034   4.349   2.576 -0.7181  0.0591  0.6030
  235SOL     OW  985   2.211   1.849   4.392 -0.1393  0.7082 -0.6979
  235SOL    HW2  986   2.213   1.860   4.297  2.5071  2.0303 -0.5206
  235SOL    HW3  987   2.184   1.935   4.425 -1.4343  0.1455 -0.2246
  235SOL    MW4  988   2.208   1.862   4.384  0.0389  0.8084 -0.6118
  236SOL     OW  989   2.263   2.235   3.982  0.3982 -0.0620  0.3169
  236SOL    HW2  990   2.356   2.246   4.004  0.2379 -0.0837  1.0438
  236SOL    HW3  991   2.262   2.168   3.914  0.7696 -1.9007  2.0432
  236SOL    MW4  992   2.275   2.227   3.976  0.4258 -0.3073  0.6404
  237SOL     OW  993   1.071   0.129   3.188  0.3998 -0.1870  0.0475
  237SOL    HW2  994   1.066   0.122   3.283  0.4565  0.8596  0.1325
  237SOL    HW3  995   1.164   0.122   3.168  0.3305 -1.0583  0.0108
  237SOL    MW4  996   1.083   0.127   3.198  0.3983 -0.1639  0.0539
  238SOL     OW  997   1.402   2.761   3.857 -0.0473 -0.3553 -0.2986
  238SOL    HW2  998   1.422   2.678   3.813 -0.7365  0.0357 -1.3796
  238SOL    HW3  999   1.312   2.749   3.889  0.3014 -0.4804  0.6501
  238SOL    MW4 1000   1.393   2.748   3.855 -0.0923 -0.3202 -0.3159
  239SOL     OW 1001   0.947   0.309   1.030  0.0949 -0.5137  0.2125
  239SOL    HW2 1002   1.028   0.360   1.031  1.0605 -1.9535 -1.5328
  239SOL    HW3 1003   0.967   0.232   1.083 -0.3133 -0.6061  0.2335
  239SOL    MW4 1004   0.960   0.306   1.037  0.1684 -0.7158 -0.0150
  240SOL     OW 1005   1.664   1.352   2.864  0.7733  0.5838 -0.2093
  240SOL    HW2 1006   1.649   1.286   2.797  1.3324 -0.8083  1.0187
  240SOL    HW3 1007   1.698   1.428   2.816  0.6753 -0.2105 -1.5527
  240SOL    MW4 1008   1.666   1.354   2.849  0.8342  0.2954 -0.2244
  241SOL     OW 1009   4.068   1.172   2.067  0.1054  0.4764  0.0725
  241SOL    HW2 1010   4.125   1.245   2.091  0.8232  0.2799 -0.9921
  241SOL    HW3 1011   4.043   1.132   2.150  1.4312  0.6348  0.5558
  241SOL    MW4 1012   4.072   1.176   2.081  0.3743  0.4714 -0.0043
  242SOL     OW 1013   0.623   3.438   3.451 -0.2358 -0.6176 -0.2683
  242SOL    HW2 1014   0.601   3.403   3.537  0.8781  0.1055  0.3203
  242SOL    HW3 1015   0.592   3.529   3.454  1.5195 -0.0014  0.0811
  242SOL    MW4 1016   0.616   3.446   3.462  0.1427 -0.4408 -0.1445
  243SOL     OW 1017   1.387   2.701   1.228  0.3749  0.4719  0.0720
  243SOL    HW2 1018   1.420   2.686   1.139 -1.4816 -1.5669 -0.3046
  243SOL    HW3 1019   1.292   2.709   1.217  0.3474  2.7227  1.5890
  243SOL    MW4 1020   1.379   2.700   1.215  0.1264  0.5000  0.2224
  244SOL     OW 1021   1.274   3.620   3.950  0.1389 -0.4265 -0.6321
  244SOL    HW2 1022   1.347   3.612   3.888 -0.8668  1.6041 -2.1106
  244SOL    HW3 1023   1.198   3.640   3.896 -1.5165 -2.3602  0.9182
  244SOL    MW4 1024   1.274   3.622   3.934 -0.2123 -0.4139 -0.6227
  245SOL     OW 1025   4.247   2.438   1.686  0.1319 -0.2177  0.4199
  245SOL    HW2 1026   4.327   2.449   1.737  0.1416  1.9354 -0.0010
  245SOL    HW3 1027   4.239   2.343   1.672  1.3077 -0.6393  2.4950
  245SOL    MW4 1028   4.256   2.427   1.691  0.2885  0.0107  0.6381
  246SOL     OW 1029   1.980   3.639   3.682  0.1148  0.2521 -0.3182
  246SOL    HW2 1030   2.024   3.656   3.599 -0.7802  0.6665 -0.7160
  246SOL    HW3 1031   2.045   3.662   3.749  0.5127  0.8108 -0.8924
  246SOL    MW4 1032   1.994   3.644   3.680  0.0491  0.3803 -0.4463
  247SOL     OW 1033   1.383   3.225   3.846  0.0077 -0.6239 -0.3421
  247SOL    HW2 1034   1.376   3.295   3.910  0.3737 -0.2581 -0.7045
  247SOL    HW3 1035   1.300   3.177   3.854 -0.6040  0.3643 -0.6947
  247SOL    MW4 1036   1.371   3.228   3.855 -0.0248 -0.4456 -0.4363
  248SOL     OW 1037   2.176   1.080   1.630 -0.3909 -0.0644  0.1955
  248SOL    HW2 1038   2.173   1.049   1.539  0.3212  1.1109 -0.2367
  248SOL    HW3 1039   2.148   1.172   1.624  0.8316  0.3595  1.0074
  248SOL    MW4 1040   2.172   1.088   1.617 -0.1357  0.1465  0.2456
  249SOL     OW 1041   3.593   2.059   1.723  0.4022 -0.5301  0.0542
  249SOL    HW2 1042   3.618   2.137   1.772 -1.1273  1.0317 -1.5960
  249SOL    HW3 1043   3.499   2.049   1.740  0.2298 -0.9890 -1.1668
  249SOL    MW4 1044   3.584   2.068   1.732  0.1779 -0.3846 -0.3245
  250SOL     OW 1045   0.489   4.376   3.768  0.1042  0.1762 -0.1605
  250SOL    HW2 1046   0.419   4.353   3.707 -0.4463  0.1662  0.4788
  250SOL    HW3 1047   0.569   4.368   3.715 -0.3523  0.0155 -0.8412
  250SOL    MW4 1048   0.491   4.372   3.753 -0.0286  0.1540 -0.1659
  251SOL     OW 1049   1.236   1.946   3.712  0.3313 -0.2830  0.3821
  251SOL    HW2 1050   1.327   1.975   3.715  0.7530 -1.5261  0.0734
  251SOL    HW3 1051   1.192   1.996   3.780  0.8100  1.7846 -0.7856
  251SOL    MW4 1052   1.242   1.957   3.721  0.4501 -0.1743  0.1874
  252SOL     OW 1053   0.277   3.111   2.644 -0.8656  0.0545 -0.4252
  252SOL    HW2 1054   0.247   3.021   2.657  0.9254 -0.2728  1.8479
  252SOL    HW3 1055   0.285   3.120   2.549 -2.1810 -1.7897 -0.7482
  252SOL    MW4 1056   0.274   3.100   2.633 -0.8028 -0.2320 -0.1678
  253SOL     OW 1057   2.160   0.964   3.905  0.1878  0.1928 -0.3974
  253SOL    HW2 1058   2.244   0.984   3.864  0.0662 -0.3760 -0.9218
  253SOL    HW3 1059   2.174   0.879   3.948 -0.2138 -0.0628 -0.7665
  253SOL    MW4 1060   2.173   0.955   3.906  0.1187  0.0841 -0.5152
  254SOL     OW 1061   0.534   1.867   4.316 -0.1476  0.7919 -0.1579
  254SOL    HW2 1062   0.471   1.807   4.275 -2.4899  1.5058  2.2629
  254SOL    HW3 1063   0.490   1.952   4.316  0.9323  1.3742  1.2581
  254SOL    MW4 1064   0.520   1.870   4.311 -0.3142  0.9630  0.3486
  255SOL     OW 1065   0.913   4.523   3.516  0.4280  0.0889  0.5132
  255SOL    HW2 1066   0.955   4.505   3.432  0.6612 -0.2243  0.6952
  255SOL    HW3 1067   0.852   4.451   3.529  0.4971  0.0604  0.6816
  255SOL    MW4 1068   0.910   4.511   3.507  0.4679  0.0443  0.5596
  256SOL     OW 1069   0.858   0.772   3.441 -0.3973  0.9224  0.4358
  256SOL    HW2 1070   0.805   0.840   3.400 -0.7752 -0.2898 -1.1350
  256SOL    HW3 1071   0.801   0.695   3.444  1.0780 -0.2504 -0.8091
  256SOL    MW4 1072   0.844   0.770   3.436 -0.2525  0.6077  0.0644
  257SOL     OW 1073   1.794   3.361   3.143 -0.2384 -1.0570 -0.7482
  257SOL    HW2 1074   1.835   3.319   3.068  0.5962 -0.4819 -0.6124
  257SOL    HW3 1075   1.784   3.290   3.207  0.4779 -1.2127 -0.8029
  257SOL    MW4 1076   1.798   3.346   3.141 -0.0337 -1.0016 -0.7374
  258SOL     OW 1077   2.115   2.655   2.753 -0.3363 -0.0329 -0.0734
  258SOL    HW2 1078   2.064   2.679   2.830  0.0294 -0.1994  0.2263
  258SOL    HW3 1079   2.094   2.723   2.688 -1.4401 -0.4801 -0.1868
  258SOL    MW4 1080   2.106   2.667   2.754 -0.4337 -0.1137 -0.0486
  259SOL     OW 1081   4.325   3.253   1.825 -0.3687  0.1325  0.3413
  259SOL    HW2 1082   4.308   3.178   1.768 -1.5407  1.7198 -1.4780
  259SOL    HW3 1083   4.340   3.215   1.911 -1.9037 -2.1377 -0.3374
  259SOL    MW4 1084   4.325   3.238   1.829 -0.7257  0.0422  0.0117
  260SOL     OW 1085   0.518   1.349   3.030 -0.1812  0.7248 -0.2514
  260SOL    HW2 1086   0.606   1.327   3.000 -0.0362  1.5008 -0.3947
  260SOL    HW3 1087   0.485   1.268   3.070  0.1158  0.0604 -1.3306
  260SOL    MW4 1088   0.525   1.335   3.031 -0.1229  0.7395 -0.4125
  261SOL     OW 1089   1.731   2.816   2.251 -0.0543 -0.7607  0.4745
  261SOL    HW2 1090   1.686   2.736   2.223 -0.1120 -0.4015 -0.4915
  261SOL    HW3 1091   1.659   2.877   2.273 -0.0827  0.1565 -2.0464
  261SOL    MW4 1092   1.715   2.814   2.250 -0.0656 -0.5922  0.0143
  262SOL     OW 1093   3.383   3.598   3.647  0.1107  0.3261  0.1324
  262SOL    HW2 1094   3.308   3.644   3.683 -0.3351  0.2402 -0.6584
  262SOL    HW3 1095   3.453   3.611   3.711 -0.2724  1.3103  0.3629
  262SOL    MW4 1096   3.383   3.606   3.660  0.0012  0.4449  0.0587
  263SOL     OW 1097   3.216   2.302   3.862  0.4377  0.1598  0.1077
  263SOL    HW2 1098   3.128   2.273   3.842 -0.1347  1.4718  0.6531
  263SOL    HW3 1099   3.204   2.380   3.916  1.9035  1.4391 -1.3543
  263SOL    MW4 1100   3.203   2.309   3.866  0.5558  0.5019 -0.0131
  264SOL     OW 1101   1.433   0.847   4.202  0.1650 -0.2214  0.7715
  264SOL    HW2 1102   1.522   0.811   4.201  0.2652  0.0234  0.7624
  264SOL    HW3 1103   1.390   0.806   4.126  0.0411 -0.9006  1.2092
  264SOL    MW4 1104   1.439   0.837   4.192  0.1619 -0.2787  0.8278
  265SOL     OW 1105   1.755   0.870   0.881  0.1764  0.5917  0.9809
  265SOL    HW2 1106   1.823   0.873   0.948 -1.1417 -0.4013  2.4029
  265SOL    HW3 1107   1.732   0.777   0.875  0.6068  0.6089 -1.1943
  265SOL    MW4 1108   1.761   0.858   0.889  0.0592  0.4630  0.8816
  266SOL     OW 1109   1.728   4.613   0.503 -0.0674 -0.0109  0.1222
  266SOL    HW2 1110   1.660   4.657   0.452  0.0316 -0.4277 -0.3727
  266SOL    HW3 1111   1.689   4.602   0.590 -0.2742  0.6092  0.1174
  266SOL    MW4 1112   1.714   4.618   0.508 -0.0818  0.0162  0.0563
  267SOL     OW 1113   3.127   2.470   4.285 -0.2373 -0.2550  0.2588
  267SOL    HW2 1114   3.210   2.431   4.314 -0.9149 -0.8512  1.4440
  267SOL    HW3 1115   3.073   2.395   4.262 -0.9929  0.0650  0.9952
  267SOL    MW4 1116   3.131   2.455   4.286 -0.4263 -0.2916  0.5121
  268SOL     OW 1117   0.272   1.415   3.544 -0.5492 -0.1868  0.3011
  268SOL    HW2 1118   0.343   1.462   3.501 -0.9377 -0.5634 -0.7458
  268SOL    HW3 1119   0.315   1.369   3.617  0.3038 -0.4999 -0.3902
  268SOL    MW4 1120   0.287   1.415   3.548 -0.4879 -0.2779  0.0718
  269SOL     OW 1121   0.606   2.896   3.439  0.2150 -0.2958  0.2401
  269SOL    HW2 1122   0.696   2.875   3.415  0.1799 -0.6146  0.3773
  269SOL    HW3 1123   0.597   2.990   3.421  1.4107  0.3511  2.7592
  269SOL    MW4 1124   0.617   2.906   3.434  0.3681 -0.2525  0.5903
  270SOL     OW 1125   1.944   0.460   3.217  0.0672  0.3215  0.5062
  270SOL    HW2 1126   2.020   0.515   3.235  0.7977 -0.3018 -0.5661
  270SOL    HW3 1127   1.930   0.469   3.123 -0.5316 -0.4025  0.5226
  270SOL    MW4 1128   1.952   0.468   3.207  0.0846  0.1438  0.3672
  271SOL     OW 1129   0.670   1.055   0.934  0.2959  0.1478 -0.1938
  271SOL    HW2 1130   0.687   1.059   0.840  1.1710  0.7838 -0.0177
  271SOL    HW3 1131   0.605   1.123   0.949 -2.0129 -1.8855 -0.7776
  271SOL    MW4 1132   0.664   1.064   0.924  0.1068 -0.0366 -0.2475
  272SOL     OW 1133   3.337   4.300   1.372  0.1747  0.0440 -0.0071
  272SOL    HW2 1134   3.251   4.324   1.338 -0.3127 -1.1346  0.3729
  272SOL    HW3 1135   3.399   4.343   1.312 -0.6662  1.5129  0.1720
  272SOL    MW4 1136   3.334   4.309   1.359 -0.0005  0.0820  0.0668
  273SOL     OW 1137   2.647   2.617   4.286  0.4050  0.2483  0.2780
  273SOL    HW2 1138   2.621   2.690   4.342 -1.7288 -0.6142  0.4682
  273SOL    HW3 1139   2.667   2.545   4.346 -0.7839 -0.3311 -0.0012
  273SOL    MW4 1140   2.646   2.617   4.301 -0.0334  0.0579  0.2666
  274SOL     OW 1141   3.876   1.906   0.464  0.4184 -0.3452 -0.1945
  274SOL    HW2 1142   3.906   1.820   0.437 -1.2369 -1.0596  0.1382
  274SOL    HW3 1143   3.787   1.891   0.496  0.0163  1.5282 -0.3677
  274SOL    MW4 1144   3.868   1.893   0.465  0.1469 -0.1922 -0.1734
  275SOL     OW 1145   2.855   4.236   2.846 -0.3111 -0.2746  0.1166
  275SOL    HW2 1146   2.864   4.203   2.757 -0.8616  0.5393 -0.2556
  275SOL    HW3 1147   2.826   4.327   2.834 -2.7837 -0.9006  1.1335
  275SOL    MW4 1148   2.852   4.244   2.832 -0.7098 -0.2503  0.2017
  276SOL     OW 1149   0.761   2.630   2.815  0.3238  0.3883  0.1520
  276SOL    HW2 1150   0.721   2.717   2.806  0.0328  0.1832 -0.5724
  276SOL    HW3 1151   0.735   2.601   2.902 -1.3200  0.1671 -0.3877
  276SOL    MW4 1152   0.752   2.638   2.825  0.0685  0.3324 -0.0145
  277SOL     OW 1153   1.891   0.835   1.115 -0.1105  0.4153 -0.1523
  277SOL    HW2 1154   1.950   0.770   1.077 -0.7787 -0.6567  0.5874
  277SOL    HW3 1155   1.943   0.915   1.120  1.6211 -0.7513  1.3661
  277SOL    MW4 1156   1.906   0.837   1.111  0.0298  0.1199  0.1456
  278SOL     OW 1157   4.397   1.673   2.385  0.2932 -0.7083  0.2025
  278SOL    HW2 1158   4.469   1.724   2.348 -1.8393  0.8501 -2.0082
  278SOL    HW3 1159   4.396   1.593   2.333 -1.3840  0.5793 -1.8612
  278SOL    MW4 1160   4.406   1.669   2.373 -0.2093 -0.3328 -0.3612
  279SOL     OW 1161   2.157   3.515   3.452 -0.2647  0.2301 -0.6527
  279SOL    HW2 1162   2.081   3.534   3.396 -1.0090  0.4531  0.4277
  279SOL    HW3 1163   2.155   3.421   3.465 -0.9427  0.3593  0.2020
  279SOL    MW4 1164   2.147   3.505   3.446 -0.4525  0.2766 -0.3972
  280SOL     OW 1165   3.920   3.383   2.057  0.2078 -0.2347  0.1647
  280SOL    HW2 1166   3.925   3.297   2.099  1.4189 -0.4667 -0.4021
  280SOL    HW3 1167   3.829   3.392   2.030 -0.0945 -1.0144  0.8977
  280SOL    MW4 1168   3.909   3.373   2.059  0.3278 -0.3684  0.1869
  281SOL     OW 1169   2.819   0.883   3.236  0.1646  0.0929  0.2696
  281SOL    HW2 1170   2.751   0.948   3.250  0.6204  0.3094  1.5634
  281SOL    HW3 1171   2.776   0.812   3.190 -0.8224  0.4285  0.6769
  281SOL    MW4 1172   2.805   0.882   3.232  0.0947  0.1658  0.4942
  282SOL     OW 1173   3.940   0.755   3.366 -0.1756  0.4912  0.2810
  282SOL    HW2 1174   4.036   0.758   3.375 -0.2339 -0.0265  1.1083
  282SOL    HW3 1175   3.915   0.846   3.349  0.5479  0.4934 -0.8582
  282SOL    MW4 1176   3.950   0.767   3.365 -0.0880  0.4231  0.2401
  283SOL     OW 1177   3.045   0.660   1.108  0.5606 -0.2136 -0.0371
  283SOL    HW2 1178   3.124   0.680   1.157  0.1402 -0.1222  0.6049
  283SOL    HW3 1179   2.977   0.713   1.149  0.2766  0.1302 -0.9404
  283SOL    MW4 1180   3.047   0.669   1.120  0.4675 -0.1562 -0.0718
  284SOL     OW 1181   1.266   2.205   2.645  0.0187  0.2114  0.5542
  284SOL    HW2 1182   1.294   2.119   2.676  0.2884  0.4821  1.0698
  284SOL    HW3 1183   1.341   2.261   2.660 -0.3761  0.6752  0.8063
  284SOL    MW4 1184   1.279   2.201   2.651  0.0021  0.3083  0.6557
  285SOL     OW 1185   3.967   0.713   3.089  0.1647  0.1475  0.2008
  285SOL    HW2 1186   3.945   0.713   3.182  0.3176 -0.4463  0.2395
  285SOL    HW3 1187   4.058   0.742   3.086 -0.4747  2.2302  0.0702
  285SOL    MW4 1188   3.976   0.717   3.101  0.1006  0.3440  0.1886
  286SOL     OW 1189   2.920   3.615   0.929  0.1838  0.0244 -0.0740
  286SOL    HW2 1190   3.006   3.654   0.946  0.1641  0.2559 -0.4838
  286SOL    HW3 1191   2.860   3.689   0.935 -0.0233 -0.1901  0.5023
  286SOL    MW4 1192   2.924   3.630   0.932  0.1540  0.0267 -0.0520
  287SOL     OW 1193   1.333   2.462   1.563 -0.3972 -0.5338 -0.1120
  287SOL    HW2 1194   1.383   2.406   1.622 -1.3572 -0.0074  1.2357
  287SOL    HW3 1195   1.275   2.402   1.516 -0.7020 -0.7890  0.5831
  287SOL    MW4 1196   1.332   2.447   1.565 -0.5640 -0.4981  0.1575
  288SOL     OW 1197   0.722   3.785   2.410  0.2732  0.4340 -0.0798
  288SOL    HW2 1198   0.737   3.794   2.316 -1.1081  1.0559 -0.2426
  288SOL    HW3 1199   0.788   3.721   2.438  0.3641 -0.1452 -1.5514
  288SOL    MW4 1200   0.733   3.778   2.401  0.1029  0.4394 -0.2956
  289SOL     OW 1201   3.036   3.028   3.147  0.5601  0.0921 -0.2386
  289SOL    HW2 1202   3.051   3.066   3.060 -1.0007  0.3692 -0.4083
  289SOL    HW3 1203   2.940   3.030   3.157  0.7004 -0.4441  1.2591
  289SOL    MW4 1204   3.025   3.033   3.137  0.3729  0.0579 -0.0632
  290SOL     OW 1205   3.479   3.740   2.225 -0.0337 -0.1389 -0.3747
  290SOL    HW2 1206   3.432   3.705   2.149 -0.1911  0.5869 -0.6057
  290SOL    HW3 1207   3.414   3.741   2.295  0.0260 -0.5019 -0.3118
  290SOL    MW4 1208   3.464   3.735   2.224 -0.0465 -0.0911 -0.3970
  291SOL     OW 1209   1.402   3.852   2.838  0.3137 -0.4006 -0.4757
  291SOL    HW2 1210   1.444   3.813   2.761 -0.1280 -1.8635  0.0065
  291SOL    HW3 1211   1.459   3.828   2.911  1.1886  1.7165 -0.4396
  291SOL    MW4 1212   1.415   3.844   2.837  0.3709 -0.3142 -0.4072
  292SOL     OW 1213   4.175   4.397   1.510  0.1271  0.1090  0.0820
  292SOL    HW2 1214   4.165   4.316   1.460  1.3515  0.9578 -1.5764
  292SOL    HW3 1215   4.131   4.379   1.593 -2.8823 -0.9555 -1.6830
  292SOL    MW4 1216   4.168   4.384   1.514 -0.1082  0.0811 -0.3697
  293SOL     OW 1217   2.799   0.478   1.371  0.5181 -0.2555  0.5644
  293SOL    HW2 1218   2.752   0.490   1.453  0.5261 -0.6895  0.6354
  293SOL    HW3 1219   2.791   0.384   1.353 -0.2039 -0.0243 -0.3598
  293SOL    MW4 1220   2.792   0.467   1.379  0.4244 -0.2823  0.4518
  294SOL     OW 1221   2.916   2.621   2.521 -0.0331  0.1545  0.0426
  294SOL    HW2 1222   2.927   2.526   2.513  2.2891  0.4956 -1.3452
  294SOL    HW3 1223   2.826   2.638   2.491 -0.3132 -1.5533 -0.1163
  294SOL    MW4 1224   2.905   2.611   2.516  0.2363 -0.0255 -0.1616
  295SOL     OW 1225   0.239   4.335   1.627 -0.0124  0.7920  0.3663
  295SOL    HW2 1226   0.162   4.331   1.570 -1.2070 -2.7975  2.0960
  295SOL    HW3 1227   0.299   4.270   1.590  0.9467  1.4396  0.7706
  295SOL    MW4 1228   0.237   4.326   1.615 -0.0435  0.4039  0.6479
  296SOL     OW 1229   3.937   2.213   1.730 -0.5533  0.5313 -0.0762
  296SOL    HW2 1230   4.015   2.164   1.702 -0.4268  0.4276  0.4512
  296SOL    HW3 1231   3.899   2.159   1.800 -1.0542  0.6225 -0.2788
  296SOL    MW4 1232   3.943   2.199   1.736 -0.6025  0.5300 -0.0335
  297SOL     OW 1233   0.950   0.709   2.677  0.2436  0.0922  0.0222
  297SOL    HW2 1234   0.878   0.719   2.615  0.2728 -0.2179 -0.0602
  297SOL    HW3 1235   0.991   0.625   2.655  1.1273  0.6377 -0.4423
  297SOL    MW4 1236   0.946   0.699   2.666  0.3640  0.1232 -0.0498
  298SOL     OW 1237   4.078   1.032   4.429  0.0055  0.1740  0.4585
  298SOL    HW2 1238   4.077   0.949   4.476  0.6045 -0.4987 -0.6950
  298SOL    HW3 1239   4.167   1.040   4.396 -0.4417  0.5633 -0.6752
  298SOL    MW4 1240   4.089   1.022   4.431  0.0253  0.1367  0.1569
  299SOL     OW 1241   3.423   1.471   2.714  0.0663  0.2315  0.3145
  299SOL    HW2 1242   3.367   1.547   2.728  0.7962  0.6311  1.1915
  299SOL    HW3 1243   3.402   1.440   2.626 -1.8309  0.1040  0.7991
  299SOL    MW4 1244   3.413   1.477   2.704 -0.0877  0.2674  0.4942
  300SOL     OW 1245   0.880   4.104   1.501  0.0731  0.1577  0.1334
  300SOL    HW2 1246   0.795   4.072   1.532  0.7988 -1.4311  0.4873
  300SOL    HW3 1247   0.875   4.096   1.406 -1.2087  2.7045 -0.0758
  300SOL    MW4 1248   0.868   4.099   1.492 -0.0004  0.2842  0.1525
  301SOL     OW 1249   3.284   3.583   1.637  0.5604 -0.5037 -0.1180
  301SOL    HW2 1250   3.189   3.579   1.641  0.5158 -0.0317 -0.6060
  301SOL    HW3 1251   3.307   3.525   1.564  0.6947 -1.1775  0.4571
  301SOL    MW4 1252   3.275   3.575   1.628  0.5722 -0.5302 -0.1065
  302SOL     OW 1253   2.195   1.106   2.924  0.3526  0.2716  0.2113
  302SOL    HW2 1254   2.207   1.036   2.860 -0.0425  1.0145 -0.6833
  302SOL    HW3 1255   2.159   1.062   3.001 -0.9602 -0.3466 -0.7324
  302SOL    MW4 1256   2.192   1.091   2.926  0.1273  0.2880 -0.0312
  303SOL     OW 1257   0.192   3.467   1.953  0.1041 -0.2274 -0.2492
  303SOL    HW2 1258   0.270   3.421   1.923 -0.6211 -0.4286 -1.8702
  303SOL    HW3 1259   0.142   3.484   1.873 -0.2551  2.2398  0.4429
  303SOL    MW4 1260   0.196   3.463   1.938 -0.0390  0.0715 -0.3718
  304SOL     OW 1261   1.487   1.244   0.704 -0.1521  0.2253  0.0905
  304SOL    HW2 1262   1.501   1.338   0.715  1.8989 -0.1519  0.8963
  304SOL    HW3 1263   1.554   1.216   0.642  0.2269 -0.9569  1.0010
  304SOL    MW4 1264   1.498   1.252   0.697  0.1684  0.0196  0.3169
  305SOL     OW 1265   0.318   3.598   2.992  0.1771  0.1951  0.0544
  305SOL    HW2 1266   0.404   3.584   3.030  0.4506  0.2206 -0.5493
  305SOL    HW3 1267   0.328   3.575   2.899 -0.6306 -0.4500  0.1161
  305SOL    MW4 1268   0.330   3.593   2.985  0.1066  0.1132 -0.0169
  306SOL     OW 1269   2.830   1.510   2.358 -0.3507 -0.4257 -0.3539
  306SOL    HW2 1270   2.852   1.599   2.385 -0.3883  0.4594 -3.0232
  306SOL    HW3 1271   2.780   1.474   2.431  1.4553  0.9880  1.6586
  306SOL    MW4 1272   2.827   1.517   2.371 -0.1173 -0.1225 -0.4406
  307SOL     OW 1273   0.518   0.137   4.587 -0.1838  0.2169 -0.0985
  307SOL    HW2 1274   0.605   0.117   4.554 -0.4302  0.2391 -0.7739
  307SOL    HW3 1275   0.513   0.233   4.586 -0.3652  0.2033 -0.4495
  307SOL    MW4 1276   0.529   0.147   4.583 -0.2403  0.2181 -0.2337
  308SOL     OW 1277   2.241   3.906   1.341  0.0911 -0.7244  0.5883
  308SOL    HW2 1278   2.326   3.944   1.364 -0.5678  0.7201  0.6563
  308SOL    HW3 1279   2.231   3.925   1.248 -0.6761  0.1154  0.8429
  308SOL    MW4 1280   2.251   3.914   1.332 -0.0970 -0.4232  0.6309
  309SOL     OW 1281   0.666   3.508   0.784  0.3385 -0.4423  0.0243
  309SOL    HW2 1282   0.728   3.575   0.811  0.8912 -1.2469  0.7988
  309SOL    HW3 1283   0.649   3.526   0.692 -0.8401  1.7861  0.6366
  309SOL    MW4 1284   0.672   3.519   0.775  0.2559 -0.2544  0.2072
  310SOL     OW 1285   4.283   4.165   3.926 -0.0311  0.0434 -0.0390
  310SOL    HW2 1286   4.317   4.171   3.837 -0.1479  0.7538 -0.0428
  310SOL    HW3 1287   4.283   4.256   3.957 -1.9252  0.0627 -0.0524
  310SOL    MW4 1288   4.287   4.178   3.918 -0.2966  0.1402 -0.0415
  311SOL     OW 1289   2.948   3.297   0.910 -0.6832  0.1060 -0.3634
  311SOL    HW2 1290   2.860   3.259   0.917 -1.5955  2.3774  1.0579
  311SOL    HW3 1291   2.938   3.370   0.849  0.0918  0.7677  0.2947
  311SOL    MW4 1292   2.935   3.301   0.903 -0.7012  0.4930 -0.0890
  312SOL     OW 1293   2.862   2.390   3.823  0.2643 -0.0396 -0.3813
  312SOL    HW2 1294   2.854   2.482   3.800 -0.6456 -0.0096  0.0292
  312SOL    HW3 1295   2.886   2.390   3.916 -0.1453 -0.2201 -0.2751
  312SOL    MW4 1296   2.864   2.402   3.833  0.0904 -0.0596 -0.3133
  313SOL     OW 1297   3.006   2.685   3.963  0.4895  0.0428  0.0154
  313SOL    HW2 1298   2.987   2.772   3.997 -1.5773  0.2341 -1.5089
  313SOL    HW3 1299   2.958   2.625   4.020  1.3687 -0.0475  0.6606
  313SOL    MW4 1300   2.997   2.689   3.975  0.3328  0.0560 -0.1009
  314SOL     OW 1301   2.086   3.222   3.213 -0.2075  0.3038 -0.1116
  314SOL    HW2 1302   2.037   3.236   3.131  0.4718  3.4167 -0.0545
  314SOL    HW3 1303   2.019   3.207   3.279 -0.8905  0.5538 -0.7443
  314SOL    MW4 1304   2.071   3.222   3.211 -0.2077  0.7474 -0.1876
  315SOL     OW 1305   0.725   0.844   3.148 -0.2023 -0.1052 -0.3163
  315SOL    HW2 1306   0.777   0.789   3.090 -0.6373 -0.5297 -0.3097
  315SOL    HW3 1307   0.789   0.894   3.198  0.1782  0.4290 -1.3224
  315SOL    MW4 1308   0.740   0.844   3.147 -0.2095 -0.0907 -0.4480
  316SOL     OW 1309   3.920   1.705   1.096 -0.6106 -0.9907 -0.8401
  316SOL    HW2 1310   3.828   1.697   1.123 -0.9072  0.7168 -1.3196
  316SOL    HW3 1311   3.916   1.725   1.003  0.1032  2.8814 -0.1028
  316SOL    MW4 1312   3.907   1.707   1.088 -0.5555 -0.2545 -0.8062
  317SOL     OW 1313   0.554   0.426   4.232  0.5318 -0.2404  0.4042
  317SOL    HW2 1314   0.635   0.447   4.279  1.6163 -1.0853 -1.0224
  317SOL    HW3 1315   0.580   0.357   4.170 -0.8940  0.6466 -1.2362
  317SOL    MW4 1316   0.568   0.420   4.230  0.4868 -0.2349 -0.0005
  318SOL     OW 1317   0.747   0.464   2.656 -0.3114  0.0189  0.3551
  318SOL    HW2 1318   0.791   0.386   2.622 -0.6492 -0.6361  1.4054
  318SOL    HW3 1319   0.787   0.479   2.742 -0.1540  1.0876  0.1061
  318SOL    MW4 1320   0.758   0.456   2.663 -0.3353  0.0734  0.4609
  319SOL     OW 1321   3.681   3.484   3.763  0.4204 -0.3446 -0.4514
  319SOL    HW2 1322   3.702   3.456   3.852 -0.8514  0.2840  0.0616
  319SOL    HW3 1323   3.628   3.412   3.727  0.6427 -0.4444 -0.5792
  319SOL    MW4 1324   3.677   3.471   3.770  0.2818 -0.2749 -0.4005
  320SOL     OW 1325   1.836   4.417   2.318  0.3879  0.1243  0.1800
  320SOL    HW2 1326   1.780   4.477   2.269  0.4437 -0.1976 -0.2784
  320SOL    HW3 1327   1.810   4.429   2.409 -0.0757  0.3404  0.0207
  320SOL    MW4 1328   1.825   4.427   2.324  0.3340  0.1101  0.0985
  321SOL     OW 1329   0.390   2.980   1.410 -0.1284  0.3912  0.1084
  321SOL    HW2 1330   0.457   2.976   1.478  0.0217 -3.3998 -0.1738
  321SOL    HW3 1331   0.309   3.000   1.458  0.3353 -0.1156  1.1333
  321SOL    MW4 1332   0.388   2.982   1.426 -0.0474 -0.1760  0.2064
  322SOL     OW 1333   1.301   0.435   4.252 -0.2608 -0.6431 -0.3301
  322SOL    HW2 1334   1.393   0.436   4.224 -0.5719  0.3721 -1.3099
  322SOL    HW3 1335   1.302   0.476   4.338  0.3454 -1.5712  0.1218
  322SOL    MW4 1336   1.314   0.440   4.260 -0.2218 -0.6316 -0.3996
  323SOL     OW 1337   1.619   2.576   1.843  0.3774 -0.0243 -0.2892
  323SOL    HW2 1338   1.687   2.512   1.823 -0.0008 -0.3111 -0.6675
  323SOL    HW3 1339   1.639   2.652   1.788  0.9081  0.2410  0.2649
  323SOL    MW4 1340   1.630   2.578   1.834  0.3976 -0.0272 -0.2661
  324SOL     OW 1341   3.703   0.559   0.879 -0.1829 -0.7289  0.3751
  324SOL    HW2 1342   3.798   0.559   0.876 -0.2188 -0.0287 -1.8858
  324SOL    HW3 1343   3.681   0.613   0.954  1.2075  1.1774 -0.5549
  324SOL    MW4 1344   3.712   0.566   0.888 -0.0043 -0.3851 -0.0460
  325SOL     OW 1345   1.554   3.552   1.395  0.3192  0.0009 -0.6334
  325SOL    HW2 1346   1.579   3.481   1.337  0.6464  0.4729 -1.0728
  325SOL    HW3 1347   1.612   3.544   1.471  0.3603 -0.1956 -0.6877
  325SOL    MW4 1348   1.565   3.542   1.397  0.3679  0.0372 -0.6984
  326SOL     OW 1349   1.643   1.840   2.604  0.2368 -0.0180  0.3079
  326SOL    HW2 1350   1.669   1.799   2.686 -0.6907  1.5922  1.4255
  326SOL    HW3 1351   1.549   1.826   2.598  0.5051 -1.3033 -1.1637
  326SOL    MW4 1352   1.634   1.833   2.614  0.1497  0.0250  0.2613
  327SOL     OW 1353   4.225   1.796   3.779  0.0706  0.5811 -0.1793
  327SOL    HW2 1354   4.169   1.798   3.701  1.0745 -2.0991 -1.0685
  327SOL    HW3 1355   4.314   1.803   3.743  0.5002  0.1253  0.7891
  327SOL    MW4 1356   4.230   1.797   3.764  0.2594  0.1673 -0.1688
  328SOL     OW 1357   2.270   3.800   4.373 -0.1144  0.3040  0.4964
  328SOL    HW2 1358   2.275   3.813   4.279  2.3212 -1.3535  0.3577
  328SOL    HW3 1359   2.247   3.708   4.385  0.3498  0.3022  1.5112
  328SOL    MW4 1360   2.268   3.790   4.362  0.2685  0.0851  0.6123
  329SOL     OW 1361   1.197   2.875   3.100  0.2570 -0.2818  0.0279
  329SOL    HW2 1362   1.209   2.958   3.146  0.0378 -0.7735  0.9700
  329SOL    HW3 1363   1.277   2.866   3.047 -0.4210  1.2897 -1.3072
  329SOL    MW4 1364   1.209   2.885   3.099  0.1386 -0.1395 -0.0241
  330SOL     OW 1365   4.135   3.287   2.762  0.0086  0.0294 -0.1124
  330SOL    HW2 1366   4.147   3.371   2.807  0.6625 -0.7091  1.1332
  330SOL    HW3 1367   4.182   3.224   2.817 -1.6154 -1.3701 -0.2937
  330SOL    MW4 1368   4.143   3.290   2.775 -0.1197 -0.2525  0.0279
  331SOL     OW 1369   2.647   4.647   2.634  0.7597 -0.2952 -0.2879
  331SOL    HW2 1370   2.562   4.606   2.648  0.9039 -0.3599  0.3959
  331SOL    HW3 1371   2.639   4.734   2.673  1.2436 -0.5746  0.4491
  331SOL    MW4 1372   2.635   4.653   2.641  0.8426 -0.3409 -0.1004
  332SOL     OW 1373   2.671   1.436   4.222 -0.0600  0.2338  0.1499
  332SOL    HW2 1374   2.686   1.416   4.129 -0.6270  0.0266  0.1021
  332SOL    HW3 1375   2.614   1.365   4.253  0.0370  0.3644  0.6276
  332SOL    MW4 1376   2.665   1.424   4.214 -0.1221  0.2235  0.2065
  333SOL     OW 1377   4.072   2.207   1.028  0.2112  1.3965  0.4167
  333SOL    HW2 1378   3.993   2.224   0.975  0.4855  0.1333 -0.4447
  333SOL    HW3 1379   4.132   2.164   0.967  0.4926 -0.2004  1.7896
  333SOL    MW4 1380   4.069   2.203   1.013  0.2847  1.0192  0.4842
  334SOL     OW 1381   2.951   2.972   3.570  0.0385 -0.5542  0.0351
  334SOL    HW2 1382   3.017   3.008   3.511 -2.0176  1.4498 -1.1344
  334SOL    HW3 1383   2.894   2.920   3.513  0.3660 -1.9447  0.9617
  334SOL    MW4 1384   2.952   2.970   3.555 -0.1895 -0.4735  0.0031
  335SOL     OW 1385   3.460   3.291   2.748  0.2546  0.2224 -0.7320
  335SOL    HW2 1386   3.487   3.326   2.663  0.8895  2.4363  0.3513
  335SOL    HW3 1387   3.540   3.257   2.787  0.3991  1.3125 -0.0603
  335SOL    MW4 1388   3.474   3.291   2.742  0.3574  0.6583 -0.5007
  336SOL     OW 1389   2.488   0.998   4.498 -0.0109  0.3626  0.4838
  336SOL    HW2 1390   2.494   0.918   4.447 -2.4956 -0.3361  1.1995
  336SOL    HW3 1391   2.480   1.068   4.433  0.1011 -0.1876 -0.1241
  336SOL    MW4 1392   2.487   0.997   4.483 -0.3240  0.1978  0.4978
  337SOL     OW 1393   1.124   1.007   3.875  0.0739 -0.0800 -0.3999
  337SOL    HW2 1394   1.135   1.053   3.792  0.8070  0.8190  0.1845
  337SOL    HW3 1395   1.029   1.004   3.887 -0.0662 -0.7818 -1.5655
  337SOL    MW4 1396   1.113   1.013   3.866  0.1521 -0.0539 -0.4764
  338SOL     OW 1397   4.264   2.480   4.355  0.3830  0.4018  0.1056
  338SOL    HW2 1398   4.179   2.522   4.371  0.0754  0.0432 -0.5860
  338SOL    HW3 1399   4.249   2.422   4.280  1.2464  0.3493 -0.0329
  338SOL    MW4 1400   4.251   2.478   4.348  0.4563  0.3476 -0.0043
  339SOL     OW 1401   1.047   1.135   2.536  0.3903  0.2787 -0.1592
  339SOL    HW2 1402   1.125   1.185   2.561  1.6260 -0.9552 -1.5188
  339SOL    HW3 1403   1.004   1.190   2.471 -0.8907  1.8045  1.8983
  339SOL    MW4 1404   1.051   1.149   2.531  0.3842  0.3172 -0.0670
  340SOL     OW 1405   3.469   4.328   3.863  0.0208 -0.3091 -0.0691
  340SOL    HW2 1406   3.547   4.348   3.915 -0.4409 -0.9290  0.8841
  340SOL    HW3 1407   3.414   4.406   3.873 -0.1337 -0.4894  0.5104
  340SOL    MW4 1408   3.472   4.341   3.871 -0.0603 -0.4148  0.1330
  341SOL     OW 1409   2.512   3.847   3.112 -0.2914 -0.3831 -0.1701
  341SOL    HW2 1410   2.544   3.757   3.109 -0.8410 -0.6998  2.3606
  341SOL    HW3 1411   2.564   3.889   3.180 -1.5520  0.5829  0.2140
  341SOL    MW4 1412   2.523   3.841   3.121 -0.5302 -0.2978  0.2146
  342SOL     OW 1413   3.009   4.560   3.379 -0.5480  0.0773  0.2561
  342SOL    HW2 1414   3.083   4.508   3.347 -1.5261 -0.5029 -1.0834
  342SOL    HW3 1415   3.050   4.635   3.423  0.8387  0.1252 -1.0880
  342SOL    MW4 1416   3.024   4.563   3.380 -0.4940  0.0067 -0.0980
  343SOL     OW 1417   2.329   4.134   0.774 -0.1570 -0.1045  0.0723
  343SOL    HW2 1418   2.342   4.215   0.725  0.3374  0.0063  0.3819
  343SOL    HW3 1419   2.250   4.096   0.736  0.5338 -0.3061 -1.1907
  343SOL    MW4 1420   2.320   4.140   0.762 -0.0005 -0.1159 -0.0535
  344SOL     OW 1421   4.473   3.121   1.438  0.4802  0.4097 -0.2402
  344SOL    HW2 1422   4.548   3.094   1.490  2.4267  0.9195 -2.6670
  344SOL    HW3 1423   4.508   3.130   1.349 -2.3469  1.1467 -1.3272
  344SOL    MW4 1424   4.488   3.119   1.433  0.3643  0.5741 -0.7037
  345SOL     OW 1425   0.753   2.318   3.512 -0.3979  0.3199  0.4357
  345SOL    HW2 1426   0.666   2.326   3.473  0.2422  1.4360 -0.8116
  345SOL    HW3 1427   0.745   2.362   3.597 -0.9218  0.8848  0.1019
  345SOL    MW4 1428   0.740   2.325   3.518 -0.3826  0.5414  0.2272
  346SOL     OW 1429   2.403   2.552   4.635  0.0737  0.1882  0.2831
  346SOL    HW2 1430   2.332   2.573   4.695 -0.8296  0.6982 -0.9537
  346SOL    HW3 1431   2.407   2.456   4.636 -0.2690  0.1749  0.7623
  346SOL    MW4 1432   2.394   2.542   4.643 -0.0908  0.2539  0.1826
  347SOL     OW 1433   0.295   2.510   1.820  0.4008 -0.5279 -0.0616
  347SOL    HW2 1434   0.287   2.458   1.740  0.0144  1.8031 -1.5889
  347SOL    HW3 1435   0.349   2.585   1.794  0.3218  0.2352  1.8994
  347SOL    MW4 1436   0.301   2.513   1.806  0.3394 -0.1194 -0.0043
  348SOL     OW 1437   2.240   0.111   1.539 -0.5319  0.5129 -0.2916
  348SOL    HW2 1438   2.264   0.183   1.480 -2.1200 -0.6863 -2.4605
  348SOL    HW3 1439   2.159   0.140   1.580  0.3451  1.1620  1.0089
  348SOL    MW4 1440   2.233   0.125   1.536 -0.6258  0.4403 -0.4064
  349SOL     OW 1441   1.416   4.237   4.035 -0.4760  0.8567  0.5685
  349SOL    HW2 1442   1.511   4.235   4.033 -0.4943  0.0170  0.0555
  349SOL    HW3 1443   1.393   4.194   4.117 -0.4596 -2.4039 -1.0423
  349SOL    MW4 1444   1.425   4.231   4.045 -0.4764  0.3157  0.2885
  350SOL     OW 1445   3.260   3.172   2.953 -0.2044  0.3540  0.3726
  350SOL    HW2 1446   3.309   3.228   2.894  1.6881  0.2544  1.7759
  350SOL    HW3 1447   3.168   3.187   2.932  0.4449 -0.5599 -3.3531
  350SOL    MW4 1448   3.255   3.181   2.943  0.1311  0.2205  0.0663
  351SOL     OW 1449   1.463   1.806   0.583  0.1083  0.0631  0.0099
  351SOL    HW2 1450   1.513   1.735   0.542  0.5217  0.1128  0.4208
  351SOL    HW3 1451   1.478   1.795   0.676  2.1357  2.1191 -0.0336
  351SOL    MW4 1452   1.472   1.795   0.590  0.4302  0.3409  0.0584
  352SOL     OW 1453   2.677   0.104   3.378 -0.1404 -0.9579 -0.0914
  352SOL    HW2 1454   2.669   0.199   3.385  1.3468 -0.6990 -1.5271
  352SOL    HW3 1455   2.707   0.075   3.464 -0.4228 -0.1119  0.2948
  352SOL    MW4 1456   2.680   0.113   3.390  0.0186 -0.8121 -0.2301
  353SOL     OW 1457   2.791   0.379   0.825 -0.0627  0.3904  0.1416
  353SOL    HW2 1458   2.700   0.386   0.855  0.1644  1.8127  0.5030
  353SOL    HW3 1459   2.843   0.381   0.906  0.1618 -3.4608  0.1809
  353SOL    MW4 1460   2.786   0.380   0.840 -0.0031  0.0699  0.1945
  354SOL     OW 1461   1.744   3.090   0.907  0.2343  0.1050  0.4278
  354SOL    HW2 1462   1.812   3.071   0.971 -0.2942  2.1000  1.6371
  354SOL    HW3 1463   1.669   3.039   0.935 -0.2570  1.6016  1.9257
  354SOL    MW4 1464   1.743   3.081   0.919  0.0998  0.5660  0.7849
  355SOL     OW 1465   3.068   2.207   4.470  0.2351 -0.4311 -0.0082
  355SOL    HW2 1466   3.016   2.270   4.520  0.3703  0.5808 -1.1240
  355SOL    HW3 1467   3.009   2.174   4.403  0.7199 -0.0931 -0.5996
  355SOL    MW4 1468   3.053   2.211   4.468  0.3171 -0.2532 -0.2332
  356SOL     OW 1469   2.094   2.684   1.932 -0.1924  0.2266 -0.6276
  356SOL    HW2 1470   2.066   2.752   1.871 -0.0863  0.3505 -0.5382
  356SOL    HW3 1471   2.132   2.616   1.876 -0.7914 -0.0025 -0.7583
  356SOL    MW4 1472   2.096   2.684   1.917 -0.2575  0.2127 -0.6331
  357SOL     OW 1473   0.762   3.033   3.127  0.4043 -1.0189 -0.7487
  357SOL    HW2 1474   0.765   3.046   3.032  0.2226 -0.9258 -0.7430
  357SOL    HW3 1475   0.695   3.095   3.157  2.6723  1.2319 -0.1527
  357SOL    MW4 1476   0.753   3.043   3.118  0.6796 -0.7098 -0.6695
  358SOL     OW 1477   2.858   0.159   3.770  0.1843 -0.0025 -0.1224
  358SOL    HW2 1478   2.938   0.148   3.719  1.8119  0.8103  2.1893
  358SOL    HW3 1479   2.799   0.092   3.735  1.5202 -0.0332 -2.4648
  358SOL    MW4 1480   2.861   0.149   3.758  0.5753  0.1007 -0.1266
  359SOL     OW 1481   2.108   2.937   1.781  0.3473 -0.0525  0.2763
  359SOL    HW2 1482   2.079   3.016   1.826  0.6490  0.3702 -0.2671
  359SOL    HW3 1483   2.203   2.946   1.776  0.5146 -1.0657  1.3739
  359SOL    MW4 1484   2.117   2.948   1.786  0.4094 -0.1302  0.3495
  360SOL     OW 1485   2.568   0.808   3.769 -0.3462 -0.5482  0.0817
  360SOL    HW2 1486   2.537   0.898   3.755 -1.5104 -0.8083  0.8769
  360SOL    HW3 1487   2.622   0.789   3.692 -1.1873  0.3660 -0.7505
  360SOL    MW4 1488   2.571   0.818   3.757 -0.6106 -0.4619  0.0770
  361SOL     OW 1489   3.336   4.538   1.051 -0.2184  0.0240  0.0250
  361SOL    HW2 1490   3.369   4.624   1.024 -0.4846  0.6561  1.6308
  361SOL    HW3 1491   3.252   4.556   1.093 -1.2560 -1.2647 -1.4415
  361SOL    MW4 1492   3.329   4.552   1.053 -0.3903 -0.0629  0.0434
  362SOL     OW 1493   1.682   3.192   1.584  0.5395  0.0187  0.1350
  362SOL    HW2 1494   1.693   3.136   1.661  1.8384  0.2964  0.1663
  362SOL    HW3 1495   1.718   3.140   1.512  0.4358  0.2364 -0.0722
  362SOL    MW4 1496   1.688   3.178   1.585  0.6973  0.0842  0.1119
  363SOL     OW 1497   1.187   1.798   2.970  0.5485 -0.0299  0.4060
  363SOL    HW2 1498   1.113   1.746   3.002  0.4729 -1.5132 -2.0739
  363SOL    HW3 1499   1.263   1.765   3.020 -0.0204 -0.3230  1.0857
  363SOL    MW4 1500   1.188   1.787   2.981  0.4634 -0.2643  0.1686
  364SOL     OW 1501   2.795   3.419   2.484  0.6349 -0.0731  0.1633
  364SOL    HW2 1502   2.740   3.496   2.472 -0.3331 -0.6137  1.0038
  364SOL    HW3 1503   2.762   3.355   2.421  0.9244 -0.0639  0.0038
  364SOL    MW4 1504   2.783   3.420   2.474  0.5453 -0.1431  0.2532
  365SOL     OW 1505   1.426   4.473   2.291 -0.0385  0.3212 -0.2416
  365SOL    HW2 1506   1.434   4.387   2.333  2.0222  0.5505 -0.1077
  365SOL    HW3 1507   1.348   4.511   2.331  0.7052 -0.3024  1.8926
  365SOL    MW4 1508   1.417   4.466   2.302  0.3315  0.2685  0.0575
  366SOL     OW 1509   1.634   0.295   0.929  0.3677 -0.1402  0.2076
  366SOL    HW2 1510   1.584   0.214   0.942 -1.4255  0.5712 -1.9587
  366SOL    HW3 1511   1.718   0.266   0.894 -0.2546 -1.0795 -0.5475
  366SOL    MW4 1512   1.638   0.280   0.926  0.0491 -0.1703 -0.1779
  367SOL     OW 1513   1.693   2.489   2.465 -0.7938  0.3148  0.2570
  367SOL    HW2 1514   1.645   2.414   2.501 -0.3078  0.1830  0.6366
  367SOL    HW3 1515   1.705   2.548   2.539 -0.0994  0.2024  0.2426
  367SOL    MW4 1516   1.688   2.487   2.479 -0.6381  0.2828  0.3049
  368SOL     OW 1517   2.119   1.457   3.621 -0.5109 -0.4882  0.0654
  368SOL    HW2 1518   2.079   1.500   3.546 -1.6638 -1.7180 -0.0411
  368SOL    HW3 1519   2.158   1.378   3.586  1.7816  0.5315  0.2297
  368SOL    MW4 1520   2.119   1.452   3.607 -0.3605 -0.5159  0.0730
  369SOL     OW 1521   0.748   3.760   1.403  0.2071  0.0007 -0.7241
  369SOL    HW2 1522   0.739   3.678   1.451  0.3997  0.6318  0.4165
  369SOL    HW3 1523   0.842   3.773   1.395  0.2759  1.7139  1.9778
  369SOL    MW4 1524   0.759   3.751   1.408  0.2416  0.3102 -0.2171
  370SOL     OW 1525   3.552   4.291   2.504 -0.0299 -0.0963  0.4435
  370SOL    HW2 1526   3.574   4.315   2.594  0.5172  0.8046  0.0789
  370SOL    HW3 1527   3.622   4.232   2.477 -1.9669 -3.1176  1.7192
  370SOL    MW4 1528   3.564   4.286   2.513 -0.2131 -0.3762  0.5636
  371SOL     OW 1529   1.803   1.449   3.994 -0.3694 -0.3873 -0.4132
  371SOL    HW2 1530   1.711   1.447   3.968 -0.2194  1.3618 -1.1615
  371SOL    HW3 1531   1.805   1.512   4.066 -0.0241 -1.7274  0.7669
  371SOL    MW4 1532   1.791   1.457   4.000 -0.3042 -0.3333 -0.3567
  372SOL     OW 1533   1.149   3.870   2.456 -0.0220  0.1328 -0.0404
  372SOL    HW2 1534   1.243   3.871   2.477 -0.2355 -0.9006  1.0366
  372SOL    HW3 1535   1.106   3.896   2.537 -0.7328 -0.8801 -0.0803
  372SOL    MW4 1536   1.156   3.874   2.469 -0.1439 -0.1371  0.0963
  373SOL     OW 1537   2.743   1.096   3.653 -0.0507  0.2028  0.0185
  373SOL    HW2 1538   2.771   1.011   3.618 -2.0283 -0.7553  0.6797
  373SOL    HW3 1539   2.783   1.100   3.740 -0.1179 -0.1398  0.0662
  373SOL    MW4 1540   2.752   1.085   3.660 -0.3207  0.0311  0.1123
  374SOL     OW 1541   1.815   1.606   2.034  0.8229  0.7389  0.0093
  374SOL    HW2 1542   1.817   1.669   2.106  0.2823  2.1426 -1.1756
  374SOL    HW3 1543   1.866   1.647   1.964  0.3911 -0.0864 -0.8047
  374SOL    MW4 1544   1.822   1.620   2.034  0.6945  0.8152 -0.2544
  375SOL     OW 1545   1.913   1.081   3.828  0.0549  0.0477 -0.0083
  375SOL    HW2 1546   2.004   1.057   3.840  0.2670 -0.1259 -1.8574
  375SOL    HW3 1547   1.914   1.176   3.818  0.1295 -0.0214 -0.7202
  375SOL    MW4 1548   1.925   1.090   3.828  0.0929  0.0156 -0.3462
  376SOL     OW 1549   3.643   1.656   4.208 -0.3863  0.2002  0.2138
  376SOL    HW2 1550   3.654   1.751   4.201  0.3162  0.0670 -0.6954
  376SOL    HW3 1551   3.560   1.639   4.164  0.0224  0.2853 -0.6110
  376SOL    MW4 1552   3.633   1.667   4.201 -0.2396  0.1938 -0.0157
  377SOL     OW 1553   3.301   2.286   3.456  0.2317  0.8306  0.4125
  377SOL    HW2 1554   3.339   2.344   3.391 -0.0245  1.0368  0.4449
  377SOL    HW3 1555   3.238   2.341   3.503 -3.1722 -0.5398 -2.3474
  377SOL    MW4 1556   3.298   2.301   3.454 -0.2513  0.6771  0.0525
  378SOL     OW 1557   0.412   1.257   1.754 -0.2340  0.6380 -0.1604
  378SOL    HW2 1558   0.329   1.217   1.782  0.1731  0.1716  0.4014
  378SOL    HW3 1559   0.472   1.183   1.746 -0.1572  0.8519 -1.6236
  378SOL    MW4 1560   0.409   1.242   1.757 -0.1702  0.6046 -0.2794
  379SOL     OW 1561   0.356   2.705   4.023 -0.0013  0.0320 -0.1802
  379SOL    HW2 1562   0.282   2.649   3.998  0.4533 -0.5174 -0.2996
  379SOL    HW3 1563   0.386   2.744   3.941 -0.1971  0.3117 -0.1220
  379SOL    MW4 1564   0.350   2.703   4.009  0.0329 -0.0036 -0.1879
  380SOL     OW 1565   1.245   2.760   3.529 -0.1981  0.1958 -0.6947
  380SOL    HW2 1566   1.258   2.705   3.451 -1.8799  0.3945 -1.1212
  380SOL    HW3 1567   1.309   2.831   3.518  1.9842 -1.6050 -0.1574
  380SOL    MW4 1568   1.255   2.762   3.517 -0.1321 -0.0157 -0.6802
  381SOL     OW 1569   1.062   0.828   2.201  0.8729 -0.0675 -0.1166
  381SOL    HW2 1570   1.124   0.827   2.128  1.9999  1.0577  0.8027
  381SOL    HW3 1571   1.116   0.810   2.278  0.0171  0.6050  0.6518
  381SOL    MW4 1572   1.077   0.826   2.201  0.9087  0.1697  0.1061
  382SOL     OW 1573   4.409   0.434   2.257  0.0552 -0.5521  0.4350
  382SOL    HW2 1574   4.488   0.478   2.224  0.3941 -0.9279  0.7358
  382SOL    HW3 1575   4.363   0.501   2.307  0.0734 -0.2696  0.0766
  382SOL    MW4 1576   4.413   0.449   2.259  0.1020 -0.5644  0.4275
  383SOL     OW 1577   3.147   3.917   4.190  0.2209 -0.3875 -0.3674
  383SOL    HW2 1578   3.197   3.985   4.145 -1.4564  0.8042 -0.4503
  383SOL    HW3 1579   3.145   3.844   4.129  2.4572 -0.7202 -0.0775
  383SOL    MW4 1580   3.153   3.916   4.176  0.2944 -0.2744 -0.3400
  384SOL     OW 1581   0.567   1.602   3.943  0.4713  0.6658 -0.1382
  384SOL    HW2 1582   0.550   1.696   3.947  0.8590  0.8087 -1.5913
  384SOL    HW3 1583   0.639   1.593   3.881  1.6979 -0.4390  1.4086
  384SOL    MW4 1584   0.574   1.613   3.935  0.6844  0.5389 -0.1259
  385SOL     OW 1585   3.420   0.537   1.339 -0.1887 -0.2113 -0.2658
  385SOL    HW2 1586   3.411   0.502   1.250  1.5052 -0.1119 -0.4896
  385SOL    HW3 1587   3.385   0.469   1.396  1.3960 -1.5134 -0.8179
  385SOL    MW4 1588   3.414   0.524   1.335  0.2439 -0.3700 -0.3681
  386SOL     OW 1589   3.457   4.292   3.241 -0.0838 -0.2175 -0.6225
  386SOL    HW2 1590   3.452   4.222   3.175 -2.0963 -0.7498  0.0702
  386SOL    HW3 1591   3.509   4.360   3.199  1.1434 -1.7527 -1.6586
  386SOL    MW4 1592   3.463   4.292   3.227 -0.1874 -0.4897 -0.6676
  387SOL     OW 1593   0.829   3.227   4.378 -0.5125 -0.4457  0.0737
  387SOL    HW2 1594   0.787   3.184   4.304 -3.2580  0.8946  0.7765
  387SOL    HW3 1595   0.815   3.168   4.451 -0.1591 -0.5245  0.0784
  387SOL    MW4 1596   0.822   3.214   4.378 -0.8281 -0.2794  0.1669
  388SOL     OW 1597   0.098   3.334   2.696 -0.8156  0.1770 -0.4318
  388SOL    HW2 1598   0.147   3.253   2.683 -0.5041  0.3799 -0.5165
  388SOL    HW3 1599   0.024   3.327   2.635 -0.3665  0.3018 -0.9958
  388SOL    MW4 1600   0.094   3.322   2.686 -0.7153  0.2203 -0.5174
  389SOL     OW 1601   0.695   0.568   3.435  0.0226 -0.0178 -0.4528
  389SOL    HW2 1602   0.658   0.526   3.513  0.6853 -0.3484 -0.3083
  389SOL    HW3 1603   0.621   0.578   3.376 -0.4277 -0.0484  0.1018
  389SOL    MW4 1604   0.681   0.564   3.438  0.0506 -0.0655 -0.3605
  390SOL     OW 1605   1.929   3.615   2.426  0.7421 -0.4329  0.1046
  390SOL    HW2 1606   1.969   3.702   2.434 -1.2169  0.3709  1.5173
  390SOL    HW3 1607   2.003   3.554   2.431  2.0270  1.1010  0.1756
  390SOL    MW4 1608   1.944   3.618   2.428  0.6531 -0.1245  0.3006
  391SOL     OW 1609   0.819   1.607   4.361  0.4023  0.6082 -0.2690
  391SOL    HW2 1610   0.731   1.596   4.327  1.3177  0.0173 -2.5358
  391SOL    HW3 1611   0.834   1.530   4.416 -0.2855  0.4014 -0.3769
  391SOL    MW4 1612   0.810   1.595   4.364  0.4324  0.5029 -0.5822
  392SOL     OW 1613   0.764   0.169   2.044 -0.1611  0.1575 -0.3255
  392SOL    HW2 1614   0.765   0.224   2.123 -1.1727  0.4699 -0.5178
  392SOL    HW3 1615   0.847   0.188   2.001  0.2670  0.2170  0.5110
  392SOL    MW4 1616   0.775   0.179   2.049 -0.2381  0.2065 -0.2403
  393SOL     OW 1617   3.476   0.648   2.896  0.3300 -0.0619  0.2224
  393SOL    HW2 1618   3.493   0.554   2.895  0.9869  0.0564  0.1822
  393SOL    HW3 1619   3.516   0.679   2.978 -0.3710  0.0973  0.5153
  393SOL    MW4 1620   3.483   0.640   2.907  0.3240 -0.0253  0.2558
  394SOL     OW 1621   3.567   1.191   4.011  0.3908  0.2703  0.2389
  394SOL    HW2 1622   3.533   1.207   4.099 -2.1449  0.4324 -0.7080
  394SOL    HW3 1623   3.583   1.278   3.975  1.1667  0.2117  0.4378
  394SOL    MW4 1624   3.564   1.204   4.018  0.1583  0.2841  0.1402
  395SOL     OW 1625   0.547   3.827   3.099 -0.6871 -0.2269 -0.5376
  395SOL    HW2 1626   0.568   3.912   3.138 -2.3664  0.7986 -1.8143
  395SOL    HW3 1627   0.478   3.846   3.036 -2.0865 -2.7703  0.1691
  395SOL    MW4 1628   0.541   3.841   3.096 -1.0933 -0.4270 -0.6127
  396SOL     OW 1629   1.263   4.135   1.855  0.2174 -0.4681 -0.0226
  396SOL    HW2 1630   1.308   4.177   1.928  0.1308 -1.8822  0.8593
  396SOL    HW3 1631   1.324   4.142   1.781  0.4406  0.6686  0.2714
  396SOL    MW4 1632   1.277   4.141   1.855  0.2353 -0.5045  0.1327
  397SOL     OW 1633   2.788   3.853   3.982  0.6006 -0.2329 -0.0650
  397SOL    HW2 1634   2.741   3.786   4.032 -0.2853  0.2408 -0.2451
  397SOL    HW3 1635   2.778   3.933   4.034 -0.3104  0.2553 -0.9778
  397SOL    MW4 1636   2.780   3.855   3.995  0.3638 -0.1061 -0.2093
  398SOL     OW 1637   1.338   0.528   4.552  0.2394 -0.5237  0.0916
  398SOL    HW2 1638   1.382   0.444   4.568  0.7739 -0.4126 -0.7510
  398SOL    HW3 1639   1.406   0.593   4.563 -0.3369 -0.1382  1.4329
  398SOL    MW4 1640   1.353   0.525   4.555  0.2339 -0.4582  0.1574
  399SOL     OW 1641   3.302   0.824   3.488  0.0551  0.8142 -0.1440
  399SOL    HW2 1642   3.367   0.757   3.509  1.1354  1.8346 -0.1161
  399SOL    HW3 1643   3.337   0.904   3.530 -0.2429  1.7937 -1.7276
  399SOL    MW4 1644   3.315   0.826   3.497  0.1585  1.0781 -0.3495
  400SOL     OW 1645   3.736   3.427   1.099 -0.2497  0.0831 -0.0291
  400SOL    HW2 1646   3.812   3.374   1.124 -0.3528  0.6748  1.6384
  400SOL    HW3 1647   3.757   3.515   1.130 -1.9788  0.0638  1.2910
  400SOL    MW4 1648   3.749   3.432   1.107 -0.4916  0.1585  0.3651
  401SOL     OW 1649   0.543   3.267   0.900  0.1462  0.3637  0.7754
  401SOL    HW2 1650   0.535   3.291   0.993 -0.7925 -0.2629  0.8646
  401SOL    HW3 1651   0.594   3.338   0.861  0.8661  0.4484  1.8441
  401SOL    MW4 1652   0.549   3.280   0.907  0.1174  0.2921  0.9282
  402SOL     OW 1653   0.807   4.403   1.511  0.3949 -0.0761 -0.7534
  402SOL    HW2 1654   0.768   4.406   1.423  0.9371  0.7088 -0.9652
  402SOL    HW3 1655   0.859   4.322   1.511  0.6122  0.0637 -1.2400
  402SOL    MW4 1656   0.808   4.392   1.499  0.4951  0.0463 -0.8456
  403SOL     OW 1657   2.500   4.419   2.382  0.2281  0.7028 -0.5504
  403SOL    HW2 1658   2.595   4.417   2.396  0.5776 -1.2806 -2.8276
  403SOL    HW3 1659   2.487   4.496   2.326  0.7883 -0.1200 -1.8557
  403SOL    MW4 1660   2.511   4.429   2.376  0.3481  0.3328 -1.0231
  404SOL     OW 1661   0.903   0.650   4.478  0.3327 -0.0438 -0.0884
  404SOL    HW2 1662   0.984   0.676   4.434  1.2894  1.2400  2.3647
  404SOL    HW3 1663   0.846   0.727   4.473  0.4184  0.0856  0.8226
  404SOL    MW4 1664   0.906   0.663   4.471  0.4702  0.1427  0.3557
  405SOL     OW 1665   4.352   4.242   2.369 -0.2989 -0.1776 -0.1071
  405SOL    HW2 1666   4.266   4.213   2.402 -0.8963 -0.0190 -1.4671
  405SOL    HW3 1667   4.388   4.165   2.325 -0.6304  0.3117 -1.2578
  405SOL    MW4 1668   4.345   4.228   2.367 -0.4215 -0.0916 -0.4382
  406SOL     OW 1669   1.561   3.884   1.575  0.1715 -0.1162  0.1688
  406SOL    HW2 1670   1.620   3.933   1.517 -0.5167  0.0099 -0.4277
  406SOL    HW3 1671   1.498   3.843   1.517 -1.2617  0.9966  0.9115
  406SOL    MW4 1672   1.561   3.885   1.560 -0.1084  0.0472  0.1880
  407SOL     OW 1673   3.020   0.613   3.188  0.1741 -0.2388 -0.5529
  407SOL    HW2 1674   3.064   0.528   3.189  1.8806  0.6238 -0.3253
  407SOL    HW3 1675   3.049   0.655   3.107 -0.6212  0.1497 -0.6462
  407SOL    MW4 1676   3.030   0.608   3.178  0.2942 -0.0737 -0.5352
  408SOL     OW 1677   3.600   2.879   2.551  0.3933  0.1352  0.0138
  408SOL    HW2 1678   3.514   2.900   2.589 -0.0443 -0.0486 -0.8567
  408SOL    HW3 1679   3.607   2.784   2.560  0.3992  0.1215 -0.1331
  408SOL    MW4 1680   3.589   2.869   2.557  0.3366  0.1094 -0.1202
  409SOL     OW 1681   2.592   2.082   1.520 -0.2299 -0.2651 -0.7153
  409SOL    HW2 1682   2.530   2.084   1.593 -1.1422 -0.3542 -1.4719
  409SOL    HW3 1683   2.580   1.995   1.482  0.5462 -0.3716 -0.7120
  409SOL    MW4 1684   2.582   2.071   1.525 -0.2480 -0.2909 -0.8146
  410SOL     OW 1685   2.430   2.795   3.239  0.1479  0.1590 -0.4457
  410SOL    HW2 1686   2.491   2.836   3.177  1.1619 -0.3163  0.2096
  410SOL    HW3 1687   2.452   2.836   3.323  0.5843 -1.0818  0.0570
  410SOL    MW4 1688   2.441   2.806   3.242  0.3390 -0.0675 -0.2928
  411SOL     OW 1689   0.844   1.862   3.975 -0.0372  0.2252 -0.3602
  411SOL    HW2 1690   0.764   1.864   3.923 -0.7868  1.1557  0.7925
  411SOL    HW3 1691   0.825   1.919   4.050  1.5354  0.0828  0.1642
  411SOL    MW4 1692   0.831   1.870   3.978  0.0714  0.3291 -0.1390
  412SOL     OW 1693   1.130   2.771   1.241 -0.9689  0.4392  0.2847
  412SOL    HW2 1694   1.086   2.702   1.291  0.1655  0.5051  1.3988
  412SOL    HW3 1695   1.117   2.745   1.149 -1.2730 -0.8122  0.6641
  412SOL    MW4 1696   1.123   2.758   1.235 -0.8593  0.2828  0.4816
  413SOL     OW 1697   1.960   1.921   3.307  0.1438 -0.2353 -0.1656
  413SOL    HW2 1698   2.046   1.961   3.312  0.0890 -0.0974 -0.3490
  413SOL    HW3 1699   1.917   1.963   3.233 -0.3777  0.2703  0.4145
  413SOL    MW4 1700   1.966   1.932   3.298  0.0676 -0.1504 -0.1135
  414SOL     OW 1701   3.392   2.688   2.983 -0.7650  0.0823  0.1158
  414SOL    HW2 1702   3.382   2.768   2.931 -0.3205 -0.9563 -1.6344
  414SOL    HW3 1703   3.348   2.620   2.931  1.5167 -1.4065  0.0418
  414SOL    MW4 1704   3.385   2.690   2.969 -0.4055 -0.2513 -0.1247
  415SOL     OW 1705   3.314   1.121   3.939  0.0104 -0.2986  0.3448
  415SOL    HW2 1706   3.407   1.130   3.958 -0.4440  1.5777  1.8309
  415SOL    HW3 1707   3.289   1.207   3.904 -0.9071 -1.1885 -1.2723
  415SOL    MW4 1708   3.323   1.134   3.937 -0.1707 -0.1683  0.3273
  416SOL     OW 1709   3.999   1.448   1.239 -0.2864 -0.3339  0.0631
  416SOL    HW2 1710   3.983   1.535   1.204 -1.7302  0.3353  2.3291
  416SOL    HW3 1711   4.082   1.456   1.286 -0.7552  0.0029  0.8409
  416SOL    MW4 1712   4.008   1.460   1.240 -0.5388 -0.2012  0.4648
  417SOL     OW 1713   1.247   2.845   2.413 -0.4258 -0.0873  0.0947
  417SOL    HW2 1714   1.261   2.937   2.437 -0.6725  0.2723 -1.1205
  417SOL    HW3 1715   1.304   2.831   2.337  0.0527 -1.1037  0.6294
  417SOL    MW4 1716   1.256   2.856   2.406 -0.3951 -0.1740  0.0050
  418SOL     OW 1717   3.416   0.203   2.535  0.3757  0.1776 -0.3798
  418SOL    HW2 1718   3.389   0.124   2.488 -0.3565 -0.1352  0.5656
  418SOL    HW3 1719   3.425   0.175   2.626 -0.8703  1.4206  0.1300
  418SOL    MW4 1720   3.414   0.189   2.540  0.1147  0.3003 -0.1879
  419SOL     OW 1721   0.224   3.327   1.536  0.0694  0.3339  0.4535
  419SOL    HW2 1722   0.308   3.364   1.564  1.2493 -2.6914  1.0492
  419SOL    HW3 1723   0.228   3.332   1.440  1.2955 -0.4882  0.4419
  419SOL    MW4 1724   0.236   3.333   1.527  0.3869 -0.1736  0.5306
  420SOL     OW 1725   2.053   3.840   2.736  0.0265  0.1291 -0.5059
  420SOL    HW2 1726   2.041   3.827   2.642 -1.3476  1.1710 -0.4933
  420SOL    HW3 1727   1.978   3.893   2.763  0.5920  0.1467  1.1182
  420SOL    MW4 1728   2.041   3.845   2.727 -0.0801  0.2687 -0.2902
  421SOL     OW 1729   0.177   1.183   1.276 -0.6432 -0.2797 -0.1313
  421SOL    HW2 1730   0.227   1.129   1.215 -0.3347  0.1901 -0.2991
  421SOL    HW3 1731   0.217   1.270   1.270  0.1713 -0.5042  1.6118
  421SOL    MW4 1732   0.189   1.187   1.267 -0.4950 -0.2474  0.0767
  422SOL     OW 1733   3.928   1.209   1.483  0.1872 -0.0060  0.9553
  422SOL    HW2 1734   3.835   1.209   1.460  0.1897  2.6787  0.7797
  422SOL    HW3 1735   3.930   1.228   1.577  0.5319 -0.9392  1.1394
  422SOL    MW4 1736   3.916   1.211   1.492  0.2332  0.2251  0.9564
  423SOL     OW 1737   1.138   2.719   3.927  0.2588  0.0439  0.1076
  423SOL    HW2 1738   1.091   2.772   3.863  0.5912 -0.0038 -0.1797
  423SOL    HW3 1739   1.094   2.736   4.010  0.7815  1.2868  0.1376
  423SOL    MW4 1740   1.126   2.728   3.930  0.3716  0.2019  0.0737
  424SOL     OW 1741   3.741   1.338   1.167  0.1159  0.3075 -0.3500
  424SOL    HW2 1742   3.833   1.358   1.181  0.4497 -1.1290 -0.4744
  424SOL    HW3 1743   3.725   1.258   1.217 -0.8645  0.0887 -0.9912
  424SOL    MW4 1744   3.751   1.330   1.176  0.0308  0.0890 -0.4511
  425SOL     OW 1745   3.628   2.615   2.652 -0.3050 -0.6170  0.8907
  425SOL    HW2 1746   3.606   2.527   2.620 -0.8398 -0.1252 -0.1359
  425SOL    HW3 1747   3.615   2.610   2.747 -1.6433 -1.2801  0.6947
  425SOL    MW4 1748   3.623   2.603   2.660 -0.5519 -0.6397  0.7296
  426SOL     OW 1749   0.304   3.714   0.665 -0.6511 -0.0328 -0.0963
  426SOL    HW2 1750   0.268   3.628   0.643  0.1900 -0.3751 -0.1562
  426SOL    HW3 1751   0.268   3.773   0.599 -0.0007 -0.6266 -0.9938
  426SOL    MW4 1752   0.294   3.710   0.653 -0.4543 -0.1562 -0.2226
  427SOL     OW 1753   3.279   4.362   2.064 -0.2177 -0.1869  0.3331
  427SOL    HW2 1754   3.292   4.424   1.993 -0.0838 -1.3639 -0.6803
  427SOL    HW3 1755   3.342   4.389   2.131 -0.0274  0.6426 -0.1822
  427SOL    MW4 1756   3.289   4.374   2.064 -0.1750 -0.2332  0.1314
  428SOL     OW 1757   2.747   0.038   1.551 -0.1052 -0.0863 -0.3025
  428SOL    HW2 1758   2.654   0.027   1.570 -0.2359  2.0563  0.4488
  428SOL    HW3 1759   2.777   0.101   1.616  1.3314  1.0214 -1.9981
  428SOL    MW4 1760   2.738   0.045   1.562  0.0670  0.3426 -0.4272
  429SOL     OW 1761   4.225   3.952   3.574  0.4195  0.2576 -0.4615
  429SOL    HW2 1762   4.222   4.045   3.596  0.3451 -0.2967  1.9569
  429SOL    HW3 1763   4.316   3.927   3.588  0.0100 -0.4967  0.8656
  429SOL    MW4 1764   4.236   3.961   3.578  0.3562  0.0851  0.0327
  430SOL     OW 1765   1.797   4.342   3.380 -0.2935  0.0003  0.6716
  430SOL    HW2 1766   1.863   4.318   3.315  0.6216  0.7981  1.2907
  430SOL    HW3 1767   1.835   4.417   3.426 -1.1922 -0.1704  1.7101
  430SOL    MW4 1768   1.811   4.349   3.377 -0.2913  0.0834  0.8903
  431SOL     OW 1769   0.674   0.564   3.912  0.1688 -0.5752 -0.0373
  431SOL    HW2 1770   0.753   0.545   3.963  0.9276 -0.1512 -1.0391
  431SOL    HW3 1771   0.691   0.525   3.826 -0.5690 -0.1718 -0.3738
  431SOL    MW4 1772   0.686   0.556   3.907  0.1715 -0.4661 -0.2136
  432SOL     OW 1773   1.511   1.385   2.436  0.5066  0.0057  0.3589
  432SOL    HW2 1774   1.581   1.448   2.420 -0.5113  0.6853 -1.4923
  432SOL    HW3 1775   1.431   1.430   2.408 -0.5498 -1.1646  1.4341
  432SOL    MW4 1776   1.509   1.399   2.430  0.2329 -0.0590  0.2568
  433SOL     OW 1777   0.466   0.078   2.092  0.1995  0.2524  0.1300
  433SOL    HW2 1778   0.548   0.055   2.050 -0.4569 -1.4418 -0.2601
  433SOL    HW3 1779   0.398   0.051   2.031 -0.7048 -0.0150  1.2195
  433SOL    MW4 1780   0.468   0.072   2.079 -0.0064 -0.0065  0.2224
  434SOL     OW 1781   1.646   2.996   2.556 -0.1616 -0.8349  0.2858
  434SOL    HW2 1782   1.623   2.903   2.554 -3.0101 -0.2134  1.4038
  434SOL    HW3 1783   1.617   3.029   2.471  0.1143 -0.7903  0.2074
  434SOL    MW4 1784   1.639   2.988   2.544 -0.5010 -0.7470  0.4232
  435SOL     OW 1785   3.107   1.393   1.481 -0.1573 -0.5133  0.0812
  435SOL    HW2 1786   3.193   1.420   1.514 -0.8200 -0.4078  1.7391
  435SOL    HW3 1787   3.048   1.464   1.505 -1.0985 -1.5160  0.7387
  435SOL    MW4 1788   3.111   1.406   1.488 -0.3691 -0.6316  0.3867
  436SOL     OW 1789   1.762   2.282   4.309 -0.4007 -0.1908  0.3159
  436SOL    HW2 1790   1.678   2.273   4.264  0.8909 -2.8012 -1.7008
  436SOL    HW3 1791   1.796   2.193   4.315  1.9805  0.7529  1.5895
  436SOL    MW4 1792   1.756   2.269   4.304  0.0840 -0.4108  0.2179
  437SOL     OW 1793   3.627   1.430   3.898  0.0705 -0.0030  0.3842
  437SOL    HW2 1794   3.694   1.435   3.967  0.8997 -1.4929 -0.2824
  437SOL    HW3 1795   3.677   1.437   3.816 -0.8330  1.0273 -0.0900
  437SOL    MW4 1796   3.643   1.432   3.896  0.0608 -0.0637  0.2337
  438SOL     OW 1797   2.061   4.625   1.415  0.4306 -0.3310 -0.0735
  438SOL    HW2 1798   2.089   4.540   1.381 -0.6468 -0.4788 -0.6176
  438SOL    HW3 1799   2.142   4.668   1.442  1.1812 -0.7868 -1.5102
  438SOL    MW4 1800   2.075   4.619   1.414  0.3872 -0.4106 -0.3349
  439SOL     OW 1801   1.482   0.366   1.168  0.2294  0.1675  0.4658
  439SOL    HW2 1802   1.537   0.352   1.091 -0.9430  1.1792 -0.5743
  439SOL    HW3 1803   1.521   0.441   1.212  0.4181  0.0942  0.4246
  439SOL    MW4 1804   1.495   0.374   1.164  0.0997  0.2913  0.3231
  440SOL     OW 1805   0.906   0.161   2.863 -0.0294  0.1858 -0.7713
  440SOL    HW2 1806   0.998   0.139   2.849 -0.1453 -0.4351 -0.5621
  440SOL    HW3 1807   0.887   0.130   2.952 -0.3836  0.4901 -0.7407
  440SOL    MW4 1808   0.916   0.154   2.873 -0.0914  0.1440 -0.7398
  441SOL     OW 1809   0.580   0.384   3.172 -0.0400 -0.6427 -0.4450
  441SOL    HW2 1810   0.547   0.471   3.193  0.9561 -0.4090  0.1853
  441SOL    HW3 1811   0.522   0.352   3.102 -0.5654  0.4103 -0.4943
  441SOL    MW4 1812   0.568   0.391   3.165  0.0221 -0.4729 -0.3684
  442SOL     OW 1813   2.012   4.623   4.366  0.2312 -0.0081  0.2002
  442SOL    HW2 1814   2.000   4.608   4.459 -1.3006  0.5236  0.1042
  442SOL    HW3 1815   1.961   4.702   4.348 -0.1855 -0.5927 -1.2440
  442SOL    MW4 1816   2.003   4.632   4.376 -0.0262 -0.0148 -0.0024
  443SOL     OW 1817   3.222   4.151   3.475  0.7497 -0.4642  0.2094
  443SOL    HW2 1818   3.269   4.164   3.557  2.6795 -0.3255 -0.8860
  443SOL    HW3 1819   3.225   4.057   3.460 -0.4191 -0.5960  0.7503
  443SOL    MW4 1820   3.229   4.141   3.484  0.8502 -0.4635  0.1364
  444SOL     OW 1821   3.528   2.161   2.139 -0.0375  0.3284  0.1068
  444SOL    HW2 1822   3.551   2.236   2.194 -0.9734  2.3454 -2.1892
  444SOL    HW3 1823   3.433   2.154   2.147 -0.0018 -0.3419 -0.0496
  444SOL    MW4 1824   3.518   2.170   2.147 -0.1564  0.5059 -0.2170
  445SOL     OW 1825   1.434   1.702   0.891  0.2380  1.0785  0.3620
  445SOL    HW2 1826   1.474   1.778   0.934  0.7646  2.0936 -1.8514
  445SOL    HW3 1827   1.343   1.729   0.876  0.2844  1.0700  0.0628
  445SOL    MW4 1828   1.427   1.716   0.894  0.3135  1.2112  0.0305
  446SOL     OW 1829   3.184   1.295   1.841 -0.4870  0.1366 -0.1724
  446SOL    HW2 1830   3.272   1.278   1.808 -0.3561  0.5722 -0.0436
  446SOL    HW3 1831   3.170   1.226   1.906 -0.3077 -0.0337 -0.3133
  446SOL    MW4 1832   3.194   1.283   1.845 -0.4461  0.1715 -0.1740
  447SOL     OW 1833   0.219   0.888   4.481 -0.0048 -0.1587 -0.2532
  447SOL    HW2 1834   0.192   0.797   4.477 -0.8846 -0.0488  2.0039
  447SOL    HW3 1835   0.139   0.935   4.507  0.7240  1.0838 -0.2367
  447SOL    MW4 1836   0.205   0.883   4.484 -0.0248  0.0197  0.0472
  448SOL     OW 1837   1.814   3.415   2.141  0.1804 -0.4386 -0.2247
  448SOL    HW2 1838   1.807   3.390   2.049 -0.7878  3.0877 -1.2022
  448SOL    HW3 1839   1.837   3.508   2.139  0.0261 -0.2622  3.0930
  448SOL    MW4 1840   1.816   3.424   2.129  0.0322  0.0501  0.0839
  449SOL     OW 1841   1.833   2.616   3.716 -0.2713  0.3551  0.0648
  449SOL    HW2 1842   1.901   2.681   3.700  0.2757 -0.5349 -1.2663
  449SOL    HW3 1843   1.821   2.617   3.811  1.0470  1.0738  0.2323
  449SOL    MW4 1844   1.841   2.625   3.727 -0.0250  0.3324 -0.0889
  450SOL     OW 1845   4.148   3.595   3.575 -0.3010  0.1975 -0.1771
  450SOL    HW2 1846   4.204   3.523   3.603 -0.5835  0.9622  2.5809
  450SOL    HW3 1847   4.060   3.559   3.575 -0.3295  0.2621  0.2195
  450SOL    MW4 1848   4.144   3.581   3.579 -0.3424  0.3068  0.2389
  451SOL     OW 1849   2.780   2.550   0.740 -0.2017 -0.4385 -0.0144
  451SOL    HW2 1850   2.709   2.503   0.695 -0.5523  0.1512 -0.0841
  451SOL    HW3 1851   2.860   2.510   0.706 -0.4538  0.2280 -1.4458
  451SOL    MW4 1852   2.781   2.539   0.729 -0.2811 -0.2725 -0.2125
  452SOL     OW 1853   2.859   3.838   4.600 -0.3872  0.1689 -0.2739
  452SOL    HW2 1854   2.853   3.934   4.605 -0.7621  0.0874  1.5611
  452SOL    HW3 1855   2.775   3.808   4.634  0.5368 -0.8188  1.1893
  452SOL    MW4 1856   2.847   3.847   4.605 -0.3145  0.0277  0.1607
  453SOL     OW 1857   4.312   3.335   3.310  0.1417  0.6637 -0.0917
  453SOL    HW2 1858   4.320   3.319   3.404 -0.6594 -0.9550 -0.2741
  453SOL    HW3 1859   4.399   3.318   3.275  0.3872  1.0594  0.3228
  453SOL    MW4 1860   4.325   3.331   3.318  0.0682  0.5023 -0.0613
  454SOL     OW 1861   0.593   0.993   1.679 -0.5515  0.2391  0.1741
  454SOL    HW2 1862   0.515   0.950   1.714  0.8033 -1.6671  0.9860
  454SOL    HW3 1863   0.632   1.037   1.754  0.1028 -0.3396  0.1870
  454SOL    MW4 1864   0.588   0.993   1.694 -0.2865 -0.0888  0.2830
  455SOL     OW 1865   0.365   0.128   0.811  0.2725  0.1772  0.0218
  455SOL    HW2 1866   0.427   0.153   0.880  1.9330 -0.4159 -1.2429
  455SOL    HW3 1867   0.321   0.051   0.846 -1.0480  1.6289  1.6714
  455SOL    MW4 1868   0.367   0.121   0.825  0.3174  0.2905  0.0726
  456SOL     OW 1869   1.717   0.351   3.764 -0.6249 -0.2334  0.5527
  456SOL    HW2 1870   1.791   0.291   3.769 -0.8199 -0.6335 -1.0500
  456SOL    HW3 1871   1.668   0.323   3.687 -0.7856  1.8772 -0.1601
  456SOL    MW4 1872   1.720   0.340   3.754 -0.6717 -0.0077  0.2472
  457SOL     OW 1873   1.064   2.090   0.784 -0.1240  0.3600  0.4692
  457SOL    HW2 1874   1.080   2.144   0.707  0.3061 -0.0166  0.2918
  457SOL    HW3 1875   0.969   2.079   0.787 -0.2382  1.3405  0.6610
  457SOL    MW4 1876   1.053   2.095   0.775 -0.0823  0.4394  0.4712
  458SOL     OW 1877   2.303   3.958   2.393  0.1768  0.2850  0.0627
  458SOL    HW2 1878   2.299   3.936   2.301  0.3678  0.1888  0.0776
  458SOL    HW3 1879   2.300   4.054   2.395  1.1294  0.3241 -0.0984
  458SOL    MW4 1880   2.302   3.968   2.381  0.3276  0.2775  0.0434
  459SOL     OW 1881   4.003   1.935   3.921 -0.1797 -0.5015 -0.2562
  459SOL    HW2 1882   4.079   1.913   3.868  0.3862 -0.6167  0.5955
  459SOL    HW3 1883   3.971   1.850   3.953 -0.1383 -0.3814  0.1046
  459SOL    MW4 1884   4.009   1.921   3.918 -0.0987 -0.5008 -0.0961
  460SOL     OW 1885   1.390   4.107   2.105 -0.4281 -0.0336  0.3669
  460SOL    HW2 1886   1.459   4.057   2.062 -0.5482 -0.7889  1.0440
  460SOL    HW3 1887   1.340   4.042   2.154 -2.7929  0.2390 -1.6288
  460SOL    MW4 1888   1.393   4.092   2.106 -0.7559 -0.0968  0.1931
  461SOL     OW 1889   0.097   2.275   2.031  0.3973  0.1382  0.3774
  461SOL    HW2 1890   0.177   2.256   1.981  1.0596  1.6705  0.8170
  461SOL    HW3 1891   0.079   2.367   2.012 -1.5088 -0.3102 -0.0266
  461SOL    MW4 1892   0.105   2.284   2.022  0.2332  0.2811  0.3822
  462SOL     OW 1893   2.313   0.819   0.977  0.2329  0.3764  0.4048
  462SOL    HW2 1894   2.274   0.861   1.054  1.1047 -0.0661  1.1064
  462SOL    HW3 1895   2.389   0.874   0.957  0.1264  0.3701 -0.0097
  462SOL    MW4 1896   2.318   0.832   0.985  0.3338  0.3172  0.4426
  463SOL     OW 1897   2.008   1.557   0.800  0.0833  0.5547  0.5748
  463SOL    HW2 1898   1.986   1.559   0.707 -0.2323  0.5264  0.6485
  463SOL    HW3 1899   1.927   1.581   0.844 -0.0892 -0.5548  0.8902
  463SOL    MW4 1900   1.994   1.560   0.793  0.0187  0.4046  0.6261
  464SOL     OW 1901   2.558   0.226   2.722  0.1301 -0.0156  0.5833
  464SOL    HW2 1902   2.484   0.238   2.663  0.0523 -1.1308  0.4511
  464SOL    HW3 1903   2.517   0.217   2.809 -0.0674 -2.9332  0.2336
  464SOL    MW4 1904   2.543   0.227   2.726  0.0937 -0.5477  0.5195
  465SOL     OW 1905   0.748   1.971   0.496 -0.3720  0.0669 -0.2199
  465SOL    HW2 1906   0.735   1.891   0.445  1.7756 -0.2822 -0.2630
  465SOL    HW3 1907   0.828   2.010   0.461 -1.1479  2.0344  0.0920
  465SOL    MW4 1908   0.757   1.966   0.485 -0.1910  0.2805 -0.1845
  466SOL     OW 1909   0.635   0.238   1.808  0.0627  0.3247 -0.2413
  466SOL    HW2 1910   0.554   0.282   1.834  0.8058  1.4334  0.2416
  466SOL    HW3 1911   0.667   0.197   1.889  0.1377  0.1402 -0.3644
  466SOL    MW4 1912   0.628   0.239   1.822  0.1706  0.4466 -0.1937
  467SOL     OW 1913   4.003   2.567   4.321 -0.2842 -0.4230 -0.3333
  467SOL    HW2 1914   3.998   2.644   4.378 -1.4011  1.1434 -2.4757
  467SOL    HW3 1915   3.947   2.502   4.364 -0.2074  0.3307  0.9386
  467SOL    MW4 1916   3.995   2.569   4.335 -0.4213 -0.1168 -0.4482
  468SOL     OW 1917   4.234   0.795   3.059 -0.1209 -0.1180  0.5647
  468SOL    HW2 1918   4.222   0.743   2.980 -2.0236  1.8212 -0.4474
  468SOL    HW3 1919   4.285   0.738   3.117 -0.5618 -2.3818 -1.2055
  468SOL    MW4 1920   4.239   0.780   3.056 -0.4306 -0.1608  0.1976
  469SOL     OW 1921   2.973   0.375   1.057  0.2928 -0.1436  0.2301
  469SOL    HW2 1922   3.000   0.463   1.082 -1.7070  0.3354  0.7800
  469SOL    HW3 1923   3.038   0.347   0.993  1.5323  1.3238  0.8380
  469SOL    MW4 1924   2.985   0.383   1.052  0.1929  0.1132  0.3828
  470SOL     OW 1925   2.178   2.485   2.343 -0.0284  0.3255 -0.3136
  470SOL    HW2 1926   2.123   2.564   2.348 -0.6241 -0.1855  1.3588
  470SOL    HW3 1927   2.121   2.414   2.371  0.3537 -0.8112 -2.2975
  470SOL    MW4 1928   2.163   2.486   2.347 -0.0567  0.1078 -0.3548
  471SOL     OW 1929   0.326   2.454   2.537 -0.1850 -0.4087  0.1363
  471SOL    HW2 1930   0.402   2.451   2.479  0.7499  0.1624  1.3153
  471SOL    HW3 1931   0.295   2.545   2.531  1.2753  0.2541  2.2406
  471SOL    MW4 1932   0.332   2.466   2.529  0.1310 -0.2458  0.5698
  472SOL     OW 1933   3.675   2.413   3.171 -0.0232  0.2628 -0.1621
  472SOL    HW2 1934   3.681   2.459   3.087 -1.2632 -0.3601 -0.5867
  472SOL    HW3 1935   3.635   2.329   3.151  1.5810 -0.7586  0.7322
  472SOL    MW4 1936   3.671   2.408   3.158  0.0250  0.0460 -0.1001
  473SOL     OW 1937   3.763   0.325   4.568  0.0102 -0.0426 -0.1845
  473SOL    HW2 1938   3.725   0.238   4.581 -0.0094  0.0613  0.4397
  473SOL    HW3 1939   3.777   0.331   4.473 -0.7701 -0.3988 -0.3256
  473SOL    MW4 1940   3.760   0.315   4.557 -0.0951 -0.0759 -0.1211
  474SOL     OW 1941   2.981   4.657   3.017 -0.1682 -0.0058  0.3154
  474SOL    HW2 1942   3.048   4.589   3.027 -0.0010  0.1216  0.0619
  474SOL    HW3 1943   2.901   4.610   2.996 -0.0305 -0.1161  0.0406
  474SOL    MW4 1944   2.979   4.642   3.016 -0.1280 -0.0035  0.2456
  475SOL     OW 1945   3.547   3.639   2.730  0.5822  0.1335 -0.4586
  475SOL    HW2 1946   3.635   3.604   2.743 -0.0048 -1.2512 -0.0995
  475SOL    HW3 1947   3.549   3.725   2.770  1.8741  0.2459 -0.7606
  475SOL    MW4 1948   3.559   3.646   2.737  0.6752 -0.0343 -0.4511
  476SOL     OW 1949   2.668   4.400   4.463 -0.2536  0.3207  0.5765
  476SOL    HW2 1950   2.662   4.467   4.531 -0.8621 -0.2210  1.0636
  476SOL    HW3 1951   2.593   4.343   4.479 -0.8828  0.6741 -1.0733
  476SOL    MW4 1952   2.658   4.401   4.474 -0.4168  0.2956  0.4225
  477SOL     OW 1953   2.148   2.116   1.594 -0.0524 -0.6952 -0.5523
  477SOL    HW2 1954   2.090   2.174   1.643  0.2821 -0.6207 -0.2397
  477SOL    HW3 1955   2.129   2.135   1.502  1.6069  1.5161 -0.4829
  477SOL    MW4 1956   2.138   2.126   1.588  0.2105 -0.3939 -0.5019
  478SOL     OW 1957   3.090   0.248   1.270 -0.1186 -0.2330 -0.2685
  478SOL    HW2 1958   3.031   0.277   1.201  3.3417  0.6210 -2.9913
  478SOL    HW3 1959   3.107   0.156   1.251 -1.6219 -0.8823  1.3565
  478SOL    MW4 1960   3.085   0.239   1.258  0.1395 -0.2060 -0.4134
  479SOL     OW 1961   1.937   2.406   0.713  0.2226  0.0474 -0.2893
  479SOL    HW2 1962   1.894   2.492   0.719 -0.5870 -0.4633  1.4311
  479SOL    HW3 1963   1.866   2.345   0.697  0.4571 -0.6502  1.3002
  479SOL    MW4 1964   1.922   2.410   0.711  0.1467 -0.1121  0.1474
  480SOL     OW 1965   1.255   0.695   2.382 -0.2159  0.3812  0.5806
  480SOL    HW2 1966   1.217   0.633   2.444  1.2922 -0.0329  1.0992
  480SOL    HW3 1967   1.264   0.776   2.431 -1.1857  0.7260  0.2107
  480SOL    MW4 1968   1.251   0.697   2.397 -0.1448  0.3720  0.6003
  481SOL     OW 1969   3.851   1.030   2.811  0.0251  0.0115  0.0072
  481SOL    HW2 1970   3.893   1.045   2.896 -0.4646 -0.8296  0.4076
  481SOL    HW3 1971   3.823   0.938   2.814 -0.1219  0.0142 -1.0122
  481SOL    MW4 1972   3.853   1.020   2.823 -0.0589 -0.0992 -0.0741
  482SOL     OW 1973   1.630   4.474   3.807  0.1641  0.0315 -0.1054
  482SOL    HW2 1974   1.546   4.492   3.767 -0.4909 -1.5084  0.5346
  482SOL    HW3 1975   1.679   4.424   3.741  0.5944  0.9524 -0.4890
  482SOL    MW4 1976   1.626   4.470   3.793  0.1346 -0.0501 -0.0715
  483SOL     OW 1977   3.016   2.835   0.614 -0.0380 -0.3121  0.3582
  483SOL    HW2 1978   3.027   2.831   0.709 -0.4897  2.1080  0.5535
  483SOL    HW3 1979   3.079   2.902   0.586 -1.3517  0.4887 -0.7673
  483SOL    MW4 1980   3.026   2.844   0.623 -0.2711  0.1128  0.2355
  484SOL     OW 1981   0.230   0.333   2.546 -0.1940 -0.3109 -0.3056
  484SOL    HW2 1982   0.222   0.423   2.515 -1.4231 -0.7981 -1.4729
  484SOL    HW3 1983   0.324   0.319   2.558 -0.1147  1.6713  1.5867
  484SOL    MW4 1984   0.241   0.343   2.543 -0.3457 -0.1136 -0.2100
  485SOL     OW 1985   4.452   2.364   2.467 -0.0705 -0.3894  0.2385
  485SOL    HW2 1986   4.506   2.297   2.425 -1.6368 -0.6564 -1.3759
  485SOL    HW3 1987   4.368   2.321   2.484 -0.1129  0.3009  1.8789
  485SOL    MW4 1988   4.448   2.349   2.464 -0.2828 -0.3335  0.2415
  486SOL     OW 1989   2.296   3.512   3.738  0.0709  0.1159 -0.4998
  486SOL    HW2 1990   2.210   3.502   3.697  0.2913 -0.6034 -0.7956
  486SOL    HW3 1991   2.322   3.602   3.718 -0.8067  0.4825 -0.0212
  486SOL    MW4 1992   2.288   3.522   3.730 -0.0157  0.0691 -0.4756
  487SOL     OW 1993   2.934   1.286   1.734  0.1751  0.4601  0.3172
  487SOL    HW2 1994   2.883   1.340   1.794 -0.5258 -1.0955  1.1620
  487SOL    HW3 1995   3.025   1.301   1.759  0.0463  1.9280 -0.0616
  487SOL    MW4 1996   2.940   1.295   1.745  0.0658  0.4485  0.3786
  488SOL     OW 1997   1.810   3.258   1.905 -0.1733  0.3870 -0.6409
  488SOL    HW2 1998   1.740   3.198   1.879 -1.1404  1.8711 -1.5842
  488SOL    HW3 1999   1.878   3.247   1.838 -1.5429  2.3037 -2.4294
  488SOL    MW4 2000   1.810   3.249   1.893 -0.4816  0.8357 -1.0012
  489SOL     OW 2001   3.691   0.258   2.652  0.1557 -0.4420  0.2470
  489SOL    HW2 2002   3.725   0.171   2.673  0.8265 -0.1136  0.5128
  489SOL    HW3 2003   3.639   0.244   2.573  1.3642 -0.8425 -0.4987
  489SOL    MW4 2004   3.689   0.244   2.644  0.4034 -0.4515  0.1838
  490SOL     OW 2005   1.127   1.289   3.989 -0.6543 -0.3407  0.0358
  490SOL    HW2 2006   1.159   1.214   3.938  1.6259 -0.4134  1.5177
  490SOL    HW3 2007   1.059   1.327   3.934 -1.7598 -3.3921 -0.8353
  490SOL    MW4 2008   1.122   1.284   3.975 -0.4992 -0.7529  0.1163
  491SOL     OW 2009   4.488   4.252   2.878  0.3707  0.2795 -0.0709
  491SOL    HW2 2010   4.425   4.283   2.812  1.6782 -0.1245 -1.5501
  491SOL    HW3 2011   4.506   4.161   2.854  0.9798  0.1714  0.7544
  491SOL    MW4 2012   4.482   4.244   2.866  0.6232  0.2117 -0.1571
  492SOL     OW 2013   2.367   1.350   3.370  0.7189 -0.0919 -0.1357
  492SOL    HW2 2014   2.445   1.395   3.336  1.1447 -2.0301 -1.8882
  492SOL    HW3 2015   2.400   1.294   3.440  0.5983  0.4542  0.3587
  492SOL    MW4 2016   2.382   1.349   3.375  0.7596 -0.2756 -0.3016
  493SOL     OW 2017   0.019   3.540   4.346 -0.5001  0.4520  0.3102
  493SOL    HW2 2018  -0.033   3.608   4.389  0.2796  0.3864  1.3698
  493SOL    HW3 2019   0.105   3.580   4.334 -0.7708  0.5485 -1.4043
  493SOL    MW4 2020   0.024   3.554   4.350 -0.4330  0.4563  0.2236
  494SOL     OW 2021   1.374   4.196   1.212  0.1308 -0.7041  0.4577
  494SOL    HW2 2022   1.290   4.240   1.197  0.9028  0.5969 -0.0812
  494SOL    HW3 2023   1.399   4.222   1.300  1.0440  0.7267 -0.2066
  494SOL    MW4 2024   1.366   4.205   1.221  0.3532 -0.3438  0.2990
  495SOL     OW 2025   3.318   3.559   2.914 -0.3575 -0.3879 -0.0587
  495SOL    HW2 2026   3.389   3.544   2.853 -1.1767 -1.1536 -0.8364
  495SOL    HW3 2027   3.344   3.513   2.994  0.4256  0.1054 -0.0230
  495SOL    MW4 2028   3.331   3.551   2.917 -0.3622 -0.4239 -0.1566
  496SOL     OW 2029   2.928   0.428   2.830 -0.0664 -0.2838 -0.1452
  496SOL    HW2 2030   2.871   0.395   2.900  0.6132  0.0532  0.5686
  496SOL    HW3 2031   2.994   0.480   2.875  0.2482  0.1206 -1.0629
  496SOL    MW4 2032   2.929   0.430   2.846  0.0648 -0.1860 -0.1721
  497SOL     OW 2033   1.103   1.655   3.450  0.3016  0.1098  0.2217
  497SOL    HW2 2034   1.121   1.562   3.462  0.0522 -0.1699 -1.4895
  497SOL    HW3 2035   1.184   1.690   3.413  0.7800  0.8009  1.8668
  497SOL    MW4 2036   1.116   1.648   3.447  0.3319  0.1640  0.2129
  498SOL     OW 2037   3.080   1.419   2.392 -0.2549  0.0630  0.1552
  498SOL    HW2 2038   2.991   1.433   2.360  0.0582 -1.3672 -1.3998
  498SOL    HW3 2039   3.070   1.356   2.464 -0.7257  1.6304  1.4825
  498SOL    MW4 2040   3.067   1.412   2.397 -0.2759  0.0813  0.1252
  499SOL     OW 2041   0.865   3.644   4.272  0.3174 -0.8274  0.0684
  499SOL    HW2 2042   0.826   3.643   4.360 -0.8222 -1.0477 -0.4247
  499SOL    HW3 2043   0.795   3.675   4.216  0.8494 -1.2912 -0.8588
  499SOL    MW4 2044   0.851   3.648   4.277  0.2371 -0.9177 -0.1192
  500SOL     OW 2045   4.050   2.239   3.276 -0.1889  0.2646  0.0680
  500SOL    HW2 2046   3.971   2.292   3.272  0.0030  0.4390 -2.6191
  500SOL    HW3 2047   4.066   2.225   3.369 -2.4247  1.6410  0.6804
  500SOL    MW4 2048   4.042   2.244   3.288 -0.4587  0.4690 -0.2058
  501SOL     OW 2049   1.749   3.937   3.053  0.1601  0.1685  0.1139
  501SOL    HW2 2050   1.682   3.869   3.049 -0.0035  0.3904 -0.9272
  501SOL    HW3 2051   1.702   4.016   3.081  0.2128  0.0369  0.5786
  501SOL    MW4 2052   1.734   3.939   3.056  0.1454  0.1805  0.0379
  502SOL     OW 2053   1.345   4.160   3.778  0.4132 -0.0794  0.2555
  502SOL    HW2 2054   1.427   4.110   3.773 -0.9433 -2.6403  2.3357
  502SOL    HW3 2055   1.346   4.198   3.865 -0.6479 -0.2383  0.3429
  502SOL    MW4 2056   1.356   4.158   3.788  0.0943 -0.4387  0.5412
  503SOL     OW 2057   2.281   3.233   2.903 -0.5463  0.8187 -0.1342
  503SOL    HW2 2058   2.358   3.199   2.858  0.1995  0.7024  1.2153
  503SOL    HW3 2059   2.290   3.328   2.897  0.4488  0.8196  1.2649
  503SOL    MW4 2060   2.292   3.241   2.896 -0.3166  0.8037  0.2284
  504SOL     OW 2061   1.736   2.914   4.307 -0.3067  0.0781 -0.2190
  504SOL    HW2 2062   1.641   2.922   4.295 -0.2107 -1.5275 -2.5192
  504SOL    HW3 2063   1.757   2.976   4.376 -3.0242  0.5339  0.2645
  504SOL    MW4 2064   1.726   2.923   4.315 -0.6526 -0.0737 -0.4592
  505SOL     OW 2065   0.024   2.083   0.998 -0.7890  0.0935  0.0114
  505SOL    HW2 2066   0.032   2.174   1.028 -0.2557  0.0024  0.1441
  505SOL    HW3 2067   0.089   2.035   1.049 -2.1759 -0.6547  1.1031
  505SOL    MW4 2068   0.034   2.089   1.008 -0.9016 -0.0172  0.1730
  506SOL     OW 2069   4.334   1.775   1.857 -0.4052  0.2588 -0.2329
  506SOL    HW2 2070   4.300   1.818   1.935  0.8699 -0.3851  0.6944
  506SOL    HW3 2071   4.271   1.706   1.838 -0.6820  0.3745  0.2664
  506SOL    MW4 2072   4.321   1.771   1.865 -0.2732  0.1891 -0.0447
  507SOL     OW 2073   4.192   4.234   3.573 -0.3059 -0.4690  0.3134
  507SOL    HW2 2074   4.146   4.313   3.599  2.6323  1.7438 -0.9737
  507SOL    HW3 2075   4.189   4.235   3.477  0.6559 -1.3979  0.2635
  507SOL    MW4 2076   4.185   4.244   3.564  0.2089 -0.2999  0.1371
  508SOL     OW 2077   3.229   4.401   3.325 -0.2467 -0.0059  0.1389
  508SOL    HW2 2078   3.324   4.390   3.314 -0.1750 -0.5507  1.1591
  508SOL    HW3 2079   3.202   4.321   3.371 -0.8127  1.1731  1.9321
  508SOL    MW4 2080   3.238   4.389   3.330 -0.3119  0.0782  0.5100
  509SOL     OW 2081   0.259   4.356   2.886 -0.3222  0.1104  0.4211
  509SOL    HW2 2082   0.288   4.345   2.795  0.3899 -0.2968  0.6962
  509SOL    HW3 2083   0.165   4.339   2.883 -0.3081  0.1201 -0.2466
  509SOL    MW4 2084   0.250   4.352   2.874 -0.2264  0.0582  0.3693
  510SOL     OW 2085   1.366   0.516   1.538 -0.1071  0.0482 -0.9452
  510SOL    HW2 2086   1.335   0.441   1.489 -1.2995 -0.6724  0.8514
  510SOL    HW3 2087   1.348   0.591   1.482  0.4907 -0.9372 -2.4680
  510SOL    MW4 2088   1.359   0.516   1.524 -0.1856 -0.1769 -0.9092
  511SOL     OW 2089   4.304   3.438   0.927 -0.5688 -0.1214  0.5339
  511SOL    HW2 2090   4.363   3.493   0.979 -1.2830  1.4754 -0.2983
  511SOL    HW3 2091   4.280   3.366   0.985  0.9956  0.0233  1.3884
  511SOL    MW4 2092   4.309   3.436   0.941 -0.4573  0.1082  0.5369
  512SOL     OW 2093   1.204   2.491   1.103 -0.3506 -0.0304 -0.4435
  512SOL    HW2 2094   1.114   2.479   1.132  0.2197  0.7018  1.7318
  512SOL    HW3 2095   1.200   2.566   1.043 -1.1080  0.3112  0.0236
  512SOL    MW4 2096   1.192   2.499   1.099 -0.3754  0.1113 -0.0949
  513SOL     OW 2097   3.314   4.561   1.597  0.2328  0.1841 -0.2650
  513SOL    HW2 2098   3.263   4.536   1.519 -1.1851  1.1586  0.3415
  513SOL    HW3 2099   3.366   4.635   1.569  0.1130  0.2038 -0.4364
  513SOL    MW4 2100   3.314   4.567   1.583  0.0300  0.3152 -0.2075
  514SOL     OW 2101   2.152   1.405   4.073 -0.3898  0.0747  0.4301
  514SOL    HW2 2102   2.182   1.424   4.162 -0.4009  2.8738 -0.1155
  514SOL    HW3 2103   2.087   1.335   4.084 -0.0384  0.0633  2.5595
  514SOL    MW4 2104   2.147   1.398   4.086 -0.3452  0.4426  0.6390
  515SOL     OW 2105   3.364   1.622   4.500 -0.3128 -0.3843  0.0236
  515SOL    HW2 2106   3.270   1.623   4.520  0.0142  0.3523  1.5739
  515SOL    HW3 2107   3.382   1.709   4.465 -0.3426 -0.7539 -0.9051
  515SOL    MW4 2108   3.354   1.633   4.498 -0.2737 -0.3361  0.1054
  516SOL     OW 2109   4.158   3.648   2.588  1.0326  0.1085  0.0472
  516SOL    HW2 2110   4.088   3.713   2.577 -0.2058 -1.3133 -0.7693
  516SOL    HW3 2111   4.125   3.571   2.541  1.4752 -1.8480  2.8765
  516SOL    MW4 2112   4.144   3.647   2.580  0.9274 -0.3374  0.3128
  517SOL     OW 2113   0.197   0.323   2.906  0.3501 -0.0124  0.2335
  517SOL    HW2 2114   0.165   0.315   2.996  0.7201 -0.9972  0.2856
  517SOL    HW3 2115   0.292   0.313   2.914  0.3644 -0.2946 -0.2914
  517SOL    MW4 2116   0.205   0.321   2.919  0.4008 -0.1796  0.1712
  518SOL     OW 2117   0.867   1.133   3.551 -0.2265  0.2102  0.1141
  518SOL    HW2 2118   0.952   1.155   3.590 -0.5767  0.0171  1.0113
  518SOL    HW3 2119   0.809   1.204   3.580 -0.3779  0.3406 -0.4936
  518SOL    MW4 2120   0.870   1.145   3.560 -0.2927  0.2019  0.1523
  519SOL     OW 2121   2.378   1.395   1.488 -0.2912  0.0050 -0.0211
  519SOL    HW2 2122   2.435   1.391   1.411 -1.7766 -0.4393 -1.1132
  519SOL    HW3 2123   2.437   1.379   1.562  1.2047  0.7547 -1.0246
  519SOL    MW4 2124   2.393   1.392   1.488 -0.2897  0.0452 -0.2975
  520SOL     OW 2125   0.512   4.060   0.871  0.7483 -0.2674 -0.3501
  520SOL    HW2 2126   0.497   3.999   0.944  1.0653  0.3646  0.2561
  520SOL    HW3 2127   0.494   4.146   0.909 -2.6129 -0.1666 -2.0069
  520SOL    MW4 2128   0.508   4.063   0.886  0.3467 -0.1707 -0.4886
  521SOL     OW 2129   2.799   2.631   3.163  0.0963 -0.3993  0.4002
  521SOL    HW2 2130   2.864   2.565   3.185  0.8316  0.3606  0.5264
  521SOL    HW3 2131   2.738   2.586   3.105  0.9274 -1.0220  0.0047
  521SOL    MW4 2132   2.800   2.617   3.158  0.3033 -0.3815  0.3645
  522SOL     OW 2133   1.844   1.670   1.439  0.2319 -0.6363  0.1462
  522SOL    HW2 2134   1.925   1.675   1.490  0.7526 -1.2645 -0.6117
  522SOL    HW3 2135   1.836   1.578   1.416 -0.7305 -0.5847  0.2476
  522SOL    MW4 2136   1.853   1.658   1.443  0.1736 -0.7124  0.0596
  523SOL     OW 2137   2.625   2.303   0.658  0.2338  0.1510 -0.4824
  523SOL    HW2 2138   2.612   2.290   0.752  0.0861 -0.5957 -0.6060
  523SOL    HW3 2139   2.538   2.295   0.620  0.0916  1.7515 -0.5457
  523SOL    MW4 2140   2.612   2.301   0.666  0.1955  0.2637 -0.5070
  524SOL     OW 2141   2.714   0.946   2.129 -0.1856 -0.6604 -0.5089
  524SOL    HW2 2142   2.697   0.866   2.081  0.6312 -0.6264 -0.8603
  524SOL    HW3 2143   2.697   1.017   2.067 -2.0822 -0.5054  0.1520
  524SOL    MW4 2144   2.710   0.945   2.115 -0.3281 -0.6354 -0.4683
  525SOL     OW 2145   0.065   1.320   4.089 -0.1807  0.6064  0.2841
  525SOL    HW2 2146   0.111   1.403   4.089 -0.9575  1.0367  0.2936
  525SOL    HW3 2147   0.118   1.263   4.145 -0.1476  1.3611  1.0148
  525SOL    MW4 2148   0.078   1.323   4.096 -0.2788  0.7627  0.3819
  526SOL     OW 2149   2.939   2.199   3.193 -0.0442 -0.0782 -0.9033
  526SOL    HW2 2150   2.934   2.132   3.262  2.5512  1.2900  0.7014
  526SOL    HW3 2151   2.916   2.281   3.237 -0.8225  0.4575 -2.2782
  526SOL    MW4 2152   2.935   2.201   3.208  0.1955  0.1731 -0.8729
  527SOL     OW 2153   0.952   0.355   3.599  0.0014  0.4040 -0.5162
  527SOL    HW2 2154   0.971   0.446   3.621  0.9156  0.1780 -0.3314
  527SOL    HW3 2155   0.938   0.356   3.504 -2.3033  1.1050 -0.1911
  527SOL    MW4 2156   0.953   0.367   3.589 -0.1821  0.4667 -0.4487
  528SOL     OW 2157   0.577   1.296   1.471 -0.0435  0.3954  0.0212
  528SOL    HW2 2158   0.571   1.216   1.420 -0.8051  0.2459  0.3336
  528SOL    HW3 2159   0.509   1.287   1.538  0.1323  1.1209  0.3079
  528SOL    MW4 2160   0.567   1.285   1.473 -0.1208  0.4712  0.1003
  529SOL     OW 2161   1.901   1.238   3.349 -0.2030  0.3377 -0.4250
  529SOL    HW2 2162   1.838   1.220   3.419  1.9789 -1.2384  1.1794
  529SOL    HW3 2163   1.934   1.325   3.368 -1.2693  0.8460 -0.8266
  529SOL    MW4 2164   1.897   1.247   3.360 -0.0558  0.1969 -0.2661
  530SOL     OW 2165   0.244   3.335   0.842 -0.1781  0.2660 -0.2159
  530SOL    HW2 2166   0.183   3.261   0.846 -0.6114  0.6230 -0.2083
  530SOL    HW3 2167   0.330   3.294   0.830 -0.4062 -0.2432 -0.1419
  530SOL    MW4 2168   0.247   3.320   0.841 -0.2654  0.2458 -0.2052
  531SOL     OW 2169   2.000   4.117   3.627  0.2749  0.0315  0.0410
  531SOL    HW2 2170   2.038   4.196   3.589  0.9827 -0.9163 -1.2781
  531SOL    HW3 2171   2.014   4.049   3.560 -4.4409 -0.1925 -0.8617
  531SOL    MW4 2172   2.007   4.118   3.613 -0.2537 -0.1225 -0.2525
  532SOL     OW 2173   2.135   0.948   0.443 -0.1771 -0.5161 -0.5219
  532SOL    HW2 2174   2.173   0.867   0.407  0.8598  1.2315 -3.5667
  532SOL    HW3 2175   2.203   0.982   0.501  0.2368 -0.7842 -0.8381
  532SOL    MW4 2176   2.149   0.942   0.446  0.0145 -0.3209 -0.9653
  533SOL     OW 2177   1.476   4.145   3.392 -0.2632 -0.3898  0.1760
  533SOL    HW2 2178   1.418   4.093   3.337  0.8159 -0.4055 -0.9755
  533SOL    HW3 2179   1.512   4.082   3.455 -0.1420 -0.7374 -0.2345
  533SOL    MW4 2180   1.473   4.130   3.393 -0.1049 -0.4377 -0.0305
  534SOL     OW 2181   0.140   2.086   3.738  0.3573 -0.3997  0.4511
  534SOL    HW2 2182   0.070   2.096   3.802  0.4700 -0.0131  0.5164
  534SOL    HW3 2183   0.102   2.033   3.669 -0.2574  0.4619  0.1100
  534SOL    MW4 2184   0.126   2.081   3.737  0.2911 -0.2351  0.4146
  535SOL     OW 2185   0.738   1.504   2.753  0.0147  0.6393 -0.0886
  535SOL    HW2 2186   0.726   1.596   2.776 -2.7963  0.4777 -0.7497
  535SOL    HW3 2187   0.675   1.489   2.683  0.3765 -1.8294  0.0888
  535SOL    MW4 2188   0.728   1.514   2.747 -0.3085  0.2923 -0.1521
  536SOL     OW 2189   2.001   2.114   0.465  0.3567  0.1288 -0.8336
  536SOL    HW2 2190   1.909   2.113   0.491  0.1734 -0.1814 -1.4793
  536SOL    HW3 2191   2.019   2.024   0.438  0.7807  0.2467 -0.9432
  536SOL    MW4 2192   1.991   2.102   0.464  0.3884  0.1037 -0.9333
  537SOL     OW 2193   1.336   4.441   1.749  0.2414 -0.3147  0.2123
  537SOL    HW2 2194   1.431   4.428   1.745  0.5045  1.8434 -0.8859
  537SOL    HW3 2195   1.321   4.524   1.705 -2.0645 -0.0892  1.3621
  537SOL    MW4 2196   1.347   4.450   1.743 -0.0281  0.0005  0.2191
  538SOL     OW 2197   0.323   1.848   1.377  0.3904  0.6310  0.6126
  538SOL    HW2 2198   0.344   1.755   1.377 -1.6351  0.1154 -2.3410
  538SOL    HW3 2199   0.243   1.855   1.429 -1.2517  0.2078 -1.7738
  538SOL    MW4 2200   0.315   1.837   1.384 -0.0935  0.5071 -0.0918
  539SOL     OW 2201   0.541   4.632   4.259  0.1397  0.2610 -0.4079
  539SOL    HW2 2202   0.616   4.669   4.306 -1.3532  2.2494  0.5336
  539SOL    HW3 2203   0.472   4.630   4.325 -0.7420 -1.1399 -1.3715
  539SOL    MW4 2204   0.542   4.637   4.274 -0.1736  0.3381 -0.4110
  540SOL     OW 2205   2.379   0.989   0.628 -0.0402 -0.0044 -0.0163
  540SOL    HW2 2206   2.457   0.935   0.639 -0.0801  0.0546  0.5687
  540SOL    HW3 2207   2.321   0.962   0.700  0.7010  2.1520  1.4287
  540SOL    MW4 2208   2.381   0.978   0.639  0.0522  0.2879  0.2515
  541SOL     OW 2209   1.949   4.238   3.171  0.5667  0.0005 -0.0024
  541SOL    HW2 2210   2.031   4.205   3.208  0.8406 -1.1767 -1.6256
  541SOL    HW3 2211   1.952   4.213   3.079 -2.1562 -1.1216  0.1684
  541SOL    MW4 2212   1.960   4.231   3.164  0.2434 -0.3023 -0.1941
  542SOL     OW 2213   1.133   2.278   2.159  0.2373  0.8638 -0.0840
  542SOL    HW2 2214   1.063   2.325   2.206 -0.9802  0.0170 -1.0131
  542SOL    HW3 2215   1.130   2.315   2.070  1.4269  1.2934  0.0515
  542SOL    MW4 2216   1.123   2.289   2.153  0.2334  0.8087 -0.1886
  543SOL     OW 2217   4.294   3.440   2.137  0.2925  0.1709  0.1902
  543SOL    HW2 2218   4.240   3.494   2.080  0.1930  0.1089  0.2251
  543SOL    HW3 2219   4.303   3.357   2.090 -0.3764 -0.1264  0.5812
  543SOL    MW4 2220   4.288   3.436   2.124  0.1912  0.1233  0.2463
  544SOL     OW 2221   3.320   0.918   1.669 -0.4565  0.5198 -0.8596
  544SOL    HW2 2222   3.374   0.868   1.608 -0.5481  0.5190 -0.9415
  544SOL    HW3 2223   3.243   0.863   1.684  0.6958 -0.5732  1.1910
  544SOL    MW4 2224   3.317   0.904   1.663 -0.3166  0.3754 -0.5997
  545SOL     OW 2225   2.517   1.311   1.771  0.4222 -0.1931 -0.0313
  545SOL    HW2 2226   2.459   1.382   1.799  0.6982  0.3271 -0.7349
  545SOL    HW3 2227   2.605   1.344   1.788  0.5009 -1.2834  1.7326
  545SOL    MW4 2228   2.521   1.325   1.777  0.4690 -0.2682  0.1086
  546SOL     OW 2229   3.532   3.463   0.650  0.2504 -0.5819 -0.1191
  546SOL    HW2 2230   3.581   3.413   0.715  0.7133 -1.6090 -1.2441
  546SOL    HW3 2231   3.586   3.539   0.632  0.1546 -0.3336  0.6446
  546SOL    MW4 2232   3.545   3.466   0.656  0.2987 -0.6850 -0.1668
  547SOL     OW 2233   3.145   1.084   1.988  0.1784  0.3110  0.5478
  547SOL    HW2 2234   3.213   1.033   2.031  0.4232  1.1336  1.1582
  547SOL    HW3 2235   3.091   1.117   2.060  1.4974  2.9908  0.3603
  547SOL    MW4 2236   3.147   1.082   2.003  0.3848  0.7731  0.6037
  548SOL     OW 2237   1.024   3.647   2.322 -0.3201  0.5166 -0.0705
  548SOL    HW2 2238   1.052   3.725   2.369 -1.1951  0.0695  1.2294
  548SOL    HW3 2239   1.088   3.580   2.346 -1.0279  0.1654  0.8825
  548SOL    MW4 2240   1.036   3.648   2.331 -0.5291  0.4115  0.2265
  549SOL     OW 2241   1.840   1.870   0.516 -0.8885  0.2824 -0.4727
  549SOL    HW2 2242   1.768   1.931   0.498 -1.1401  0.4807  1.1235
  549SOL    HW3 2243   1.879   1.901   0.597  0.3288 -0.4664 -0.7432
  549SOL    MW4 2244   1.836   1.882   0.524 -0.7610  0.2098 -0.2978
  550SOL     OW 2245   1.415   2.371   1.838  0.0281 -0.3678  0.3829
  550SOL    HW2 2246   1.483   2.439   1.833  0.4479 -0.8712 -1.3641
  550SOL    HW3 2247   1.464   2.289   1.844 -0.3634 -0.8084 -1.8111
  550SOL    MW4 2248   1.431   2.369   1.838  0.0318 -0.4921 -0.1371
  551SOL     OW 2249   4.418   0.034   2.730 -0.4629 -0.0304 -0.6214
  551SOL    HW2 2250   4.377  -0.005   2.652 -1.6315  0.6535 -0.3717
  551SOL    HW3 2251   4.402   0.128   2.721  1.4262  0.2939 -0.6990
  551SOL    MW4 2252   4.410   0.041   2.719 -0.3676  0.1026 -0.5987
  552SOL     OW 2253   3.527   3.775   4.274 -0.2895 -0.0607 -0.3266
  552SOL    HW2 2254   3.518   3.852   4.218 -0.1208  0.1620 -0.0487
  552SOL    HW3 2255   3.621   3.761   4.281 -0.3109 -0.1245 -0.1510
  552SOL    MW4 2256   3.538   3.783   4.267 -0.2701 -0.0396 -0.2666
  553SOL     OW 2257   1.184   3.963   4.047  0.5992  0.6926 -0.0532
  553SOL    HW2 2258   1.143   4.045   4.074  0.1369  0.2621  0.6121
  553SOL    HW3 2259   1.276   3.973   4.069  0.2391  0.3647  1.7546
  553SOL    MW4 2260   1.191   3.975   4.054  0.4907  0.5925  0.2732
  554SOL     OW 2261   0.639   4.029   4.605  0.1841  0.3199  0.2463
  554SOL    HW2 2262   0.709   4.090   4.582  1.0354 -1.7626 -2.9746
  554SOL    HW3 2263   0.563   4.085   4.624  1.1287  2.3994 -1.8946
  554SOL    MW4 2264   0.638   4.045   4.605  0.4210  0.3190 -0.4611
  555SOL     OW 2265   0.240   2.316   3.300 -0.0671 -0.0287  0.0647
  555SOL    HW2 2266   0.192   2.237   3.274  0.1315  0.0043 -0.4070
  555SOL    HW3 2267   0.212   2.333   3.390 -0.2566 -0.5272  0.0987
  555SOL    MW4 2268   0.230   2.308   3.309 -0.0659 -0.0901  0.0069
  556SOL     OW 2269   1.244   3.620   0.449  0.2288 -0.7480  0.1093
  556SOL    HW2 2270   1.156   3.648   0.425  0.2527 -1.5895 -0.9770
  556SOL    HW3 2271   1.231   3.565   0.526 -0.1891 -0.8314 -0.0204
  556SOL    MW4 2272   1.231   3.616   0.456  0.1769 -0.8700 -0.0511
  557SOL     OW 2273   0.581   1.003   3.478  0.3973 -0.4536  0.4272
  557SOL    HW2 2274   0.558   0.921   3.521  0.4310  0.1085  1.5590
  557SOL    HW3 2275   0.668   1.024   3.512 -0.4241  1.0385  1.7056
  557SOL    MW4 2276   0.589   0.995   3.488  0.2934 -0.1827  0.7453
  558SOL     OW 2277   3.801   1.459   4.112  0.1333  0.6203  0.7523
  558SOL    HW2 2278   3.896   1.465   4.120  0.2444 -0.1319  0.0505
  558SOL    HW3 2279   3.768   1.541   4.148  0.9991  0.4512  1.9527
  558SOL    MW4 2280   3.809   1.470   4.118  0.2620  0.4988  0.8183
  559SOL     OW 2281   2.821   2.449   1.465  0.0883 -0.0068 -0.3971
  559SOL    HW2 2282   2.830   2.536   1.426  0.8194  0.2719  0.3842
  559SOL    HW3 2283   2.910   2.415   1.470  0.0536  0.1038  1.3257
  559SOL    MW4 2284   2.834   2.456   1.460  0.1800  0.0443 -0.0666
  560SOL     OW 2285   0.968   3.370   0.831 -0.5356 -0.4608  0.6238
  560SOL    HW2 2286   0.953   3.405   0.919  2.2740 -1.0321  1.3930
  560SOL    HW3 2287   1.025   3.294   0.845  1.5764  0.5875 -1.8224
  560SOL    MW4 2288   0.974   3.364   0.844  0.1137 -0.3977  0.4026
  561SOL     OW 2289   3.858   3.322   1.404  0.1177 -0.1786 -0.3183
  561SOL    HW2 2290   3.943   3.354   1.433  0.2342 -1.3423  0.6407
  561SOL    HW3 2291   3.876   3.278   1.321  0.6662 -1.5216  0.5007
  561SOL    MW4 2292   3.871   3.320   1.396  0.2053 -0.5090 -0.0837
  562SOL     OW 2293   0.945   2.007   1.667 -0.2197 -0.3665  0.0561
  562SOL    HW2 2294   0.948   2.091   1.712  1.0975 -0.3792  0.0177
  562SOL    HW3 2295   0.952   1.942   1.737  0.7473 -0.4053 -0.0728
  562SOL    MW4 2296   0.946   2.009   1.682  0.0817 -0.3731  0.0340
  563SOL     OW 2297   1.291   3.588   1.744 -0.0989 -0.7385 -0.3316
  563SOL    HW2 2298   1.231   3.635   1.802  0.4577  0.1092 -0.4414
  563SOL    HW3 2299   1.347   3.538   1.804 -0.3974 -0.9151 -0.1977
  563SOL    MW4 2300   1.290   3.587   1.760 -0.0647 -0.6497 -0.3284
  564SOL     OW 2301   1.747   0.183   3.104 -0.4232  0.7272  0.5740
  564SOL    HW2 2302   1.712   0.100   3.070 -1.1608  0.2853  2.2884
  564SOL    HW3 2303   1.842   0.170   3.106 -0.6598 -1.1584  3.3213
  564SOL    MW4 2304   1.755   0.170   3.100 -0.5517  0.4201  1.1625
  565SOL     OW 2305   2.383   0.013   4.065 -0.1304  0.3622  0.1157
  565SOL    HW2 2306   2.307   0.059   4.100  1.1053  1.6097  1.2170
  565SOL    HW3 2307   2.447   0.015   4.136  1.3914  0.4224 -1.2266
  565SOL    MW4 2308   2.381   0.019   4.079  0.2334  0.5345  0.0839
  566SOL     OW 2309   3.857   3.095   4.250 -0.2493  0.8551  0.2016
  566SOL    HW2 2310   3.894   3.143   4.176 -0.4710  2.2419  0.9764
  566SOL    HW3 2311   3.903   3.129   4.326  0.2362 -0.8293  0.6762
  566SOL    MW4 2312   3.868   3.106   4.250 -0.2146  0.8156  0.3662
  567SOL     OW 2313   4.209   2.270   2.124  0.0790  0.4310 -0.0834
  567SOL    HW2 2314   4.228   2.264   2.218  0.4250  0.4224 -0.1533
  567SOL    HW3 2315   4.120   2.235   2.115 -0.0662  0.7074  0.2811
  567SOL    MW4 2316   4.200   2.264   2.135  0.1059  0.4663 -0.0443
  568SOL     OW 2317   4.211   2.974   3.431 -0.7576  0.1312 -0.1085
  568SOL    HW2 2318   4.156   3.043   3.467  1.0057  1.1133  0.7764
  568SOL    HW3 2319   4.163   2.893   3.449 -2.1116  0.9990  0.2410
  568SOL    MW4 2320   4.197   2.972   3.438 -0.7033  0.3755  0.0544
  569SOL     OW 2321   3.296   3.420   1.934 -0.1501 -0.0790  0.3234
  569SOL    HW2 2322   3.312   3.368   1.855 -0.5255  1.0529 -0.5079
  569SOL    HW3 2323   3.316   3.360   2.007  0.5744 -1.0026 -0.6247
  569SOL    MW4 2324   3.301   3.405   1.933 -0.1040 -0.0515  0.0887
  570SOL     OW 2325   1.411   2.971   3.524 -0.4235 -0.2919  0.3172
  570SOL    HW2 2326   1.472   2.903   3.494  1.4545  2.1416 -1.6264
  570SOL    HW3 2327   1.449   3.003   3.606 -0.4205 -0.4588  0.3813
  570SOL    MW4 2328   1.424   2.966   3.531 -0.1754  0.0072  0.0691
  571SOL     OW 2329   2.132   0.137   2.734  0.6968 -0.1412 -0.4235
  571SOL    HW2 2330   2.047   0.098   2.713  1.4602 -1.5625 -0.9549
  571SOL    HW3 2331   2.187   0.063   2.756  2.0633  0.6890 -0.9896
  571SOL    MW4 2332   2.128   0.122   2.734  0.9780 -0.2192 -0.5682
  572SOL     OW 2333   3.437   4.241   4.398  0.1897  0.1198  0.7654
  572SOL    HW2 2334   3.523   4.277   4.421  0.1269 -0.5688  2.0939
  572SOL    HW3 2335   3.375   4.290   4.451 -0.0916 -0.4871  0.9964
  572SOL    MW4 2336   3.440   4.252   4.408  0.1442 -0.0515  0.9708
  573SOL     OW 2337   1.099   2.012   2.503  0.2354 -0.3678 -0.0965
  573SOL    HW2 2338   1.015   2.056   2.488 -0.4716 -0.7092  2.6570
  573SOL    HW3 2339   1.161   2.083   2.515  0.2023 -0.1210 -1.2905
  573SOL    MW4 2340   1.096   2.027   2.503  0.1377 -0.3803  0.1092
  574SOL     OW 2341   1.047   2.771   2.665  0.7462 -0.2506 -0.2515
  574SOL    HW2 2342   1.023   2.760   2.757 -0.5082  2.0084 -0.2676
  574SOL    HW3 2343   1.135   2.809   2.667  0.9377 -0.7059  0.0003
  574SOL    MW4 2344   1.056   2.774   2.677  0.6061 -0.0129 -0.2203
  575SOL     OW 2345   1.797   4.385   4.221  0.1816  0.0489 -0.7197
  575SOL    HW2 2346   1.886   4.374   4.252  0.2164  0.0491 -0.8177
  575SOL    HW3 2347   1.800   4.358   4.129  0.1866  0.5077 -0.8562
  575SOL    MW4 2348   1.809   4.380   4.213  0.1870  0.1097 -0.7510
  576SOL     OW 2349   2.217   1.654   1.218  0.3445 -0.1327 -0.2522
  576SOL    HW2 2350   2.258   1.659   1.304  0.1050  0.3160 -0.1677
  576SOL    HW3 2351   2.134   1.700   1.227  0.8074  0.8732 -1.0155
  576SOL    MW4 2352   2.212   1.661   1.230  0.3741  0.0592 -0.3418
  577SOL     OW 2353   2.551   4.133   4.277  0.0150 -0.0681 -0.0821
  577SOL    HW2 2354   2.555   4.041   4.304 -3.2365  0.1617  1.4434
  577SOL    HW3 2355   2.503   4.132   4.194  0.5404  0.2040 -0.3910
  577SOL    MW4 2356   2.545   4.121   4.270 -0.3448 -0.0014  0.0787
  578SOL     OW 2357   1.892   1.344   3.753  0.5916  0.4644  0.1234
  578SOL    HW2 2358   1.963   1.396   3.717  1.1924  0.4129  1.2176
  578SOL    HW3 2359   1.873   1.384   3.838  0.1594 -0.2739  0.3852
  578SOL    MW4 2360   1.898   1.356   3.760  0.6139  0.3601  0.3026
  579SOL     OW 2361   1.752   2.940   1.412  0.5769  0.2361  0.0548
  579SOL    HW2 2362   1.804   3.007   1.368 -0.1089  0.0258 -1.0980
  579SOL    HW3 2363   1.814   2.897   1.471  0.8621  2.3122  1.3281
  579SOL    MW4 2364   1.767   2.943   1.414  0.5242  0.4823  0.0707
  580SOL     OW 2365   2.366   0.945   3.273 -0.5274  0.4492  0.3305
  580SOL    HW2 2366   2.285   0.992   3.255 -0.3512 -0.3280 -2.6862
  580SOL    HW3 2367   2.377   0.886   3.198  1.9221 -0.6878  1.5409
  580SOL    MW4 2368   2.357   0.943   3.261 -0.1807  0.1966  0.0923
  581SOL     OW 2369   0.386   3.236   3.364  0.1159  0.2931  0.1043
  581SOL    HW2 2370   0.365   3.163   3.423 -0.1135  0.1467 -0.1531
  581SOL    HW3 2371   0.404   3.309   3.422 -1.4108  0.5014  0.3477
  581SOL    MW4 2372   0.386   3.236   3.379 -0.1158  0.3014  0.1028
  582SOL     OW 2373   1.020   1.773   1.835  0.4674  0.3910 -0.2683
  582SOL    HW2 2374   0.964   1.717   1.889 -0.4563 -0.2803 -1.8647
  582SOL    HW3 2375   1.054   1.839   1.895  0.7871 -1.2853  1.4637
  582SOL    MW4 2376   1.017   1.774   1.850  0.3875  0.0813 -0.2505
  583SOL     OW 2377   2.872   3.104   3.804 -0.4635 -0.0414 -0.2122
  583SOL    HW2 2378   2.778   3.099   3.786 -0.4915  0.1972 -0.1308
  583SOL    HW3 2379   2.913   3.057   3.732 -0.6834 -0.7035  0.0925
  583SOL    MW4 2380   2.865   3.097   3.793 -0.4964 -0.0973 -0.1609
  584SOL     OW 2381   3.009   4.582   1.486  0.0605 -0.0731  0.6066
  584SOL    HW2 2382   3.031   4.502   1.533  1.8725  0.6687  1.0758
  584SOL    HW3 2383   2.914   4.592   1.499  0.1296 -1.1539  2.0990
  584SOL    MW4 2384   2.999   4.573   1.494  0.3085 -0.1178  0.8655
  585SOL     OW 2385   3.548   1.253   4.480 -0.3624  0.1529 -0.4501
  585SOL    HW2 2386   3.516   1.175   4.525 -2.2031  0.0670 -1.8294
  585SOL    HW3 2387   3.545   1.322   4.546  0.1105 -0.6632  0.4455
  585SOL    MW4 2388   3.543   1.252   4.494 -0.5431  0.0340 -0.5140
  586SOL     OW 2389   3.581   0.303   0.834 -0.2626  0.5462 -0.1370
  586SOL    HW2 2390   3.616   0.388   0.859 -0.4340  0.9292 -1.1641
  586SOL    HW3 2391   3.558   0.313   0.741 -0.8685 -0.4226 -0.0989
  586SOL    MW4 2392   3.582   0.316   0.825 -0.3653  0.4689 -0.2675
  587SOL     OW 2393   3.663   3.714   0.696  0.1432 -0.0930  0.3584
  587SOL    HW2 2394   3.663   3.687   0.788 -1.1766 -2.8628 -0.3966
  587SOL    HW3 2395   3.712   3.796   0.695  1.1938 -0.6249  3.3402
  587SOL    MW4 2396   3.669   3.722   0.708  0.1075 -0.5283  0.6523
  588SOL     OW 2397   3.582   2.820   3.519  0.6084 -0.2865  0.2013
  588SOL    HW2 2398   3.518   2.762   3.561  0.5349  0.1877  0.7516
  588SOL    HW3 2399   3.544   2.840   3.434 -1.2434  2.0792  1.5251
  588SOL    MW4 2400   3.569   2.815   3.513  0.3543  0.0880  0.4487
  589SOL     OW 2401   3.826   1.947   1.811 -0.1989  0.4470 -0.3076
  589SOL    HW2 2402   3.830   1.921   1.903 -0.4466  0.5384 -0.2712
  589SOL    HW3 2403   3.733   1.960   1.793 -0.1123  0.9301 -0.4298
  589SOL    MW4 2404   3.815   1.946   1.820 -0.2203  0.5229 -0.3189
  590SOL     OW 2405   3.819   3.986   3.851 -0.2798  0.6650  0.0636
  590SOL    HW2 2406   3.798   3.908   3.902  0.4920 -1.2065 -2.3849
  590SOL    HW3 2407   3.913   3.998   3.864 -0.2206  0.6206 -0.3370
  590SOL    MW4 2408   3.828   3.978   3.860 -0.1702  0.4122 -0.3121
  591SOL     OW 2409   3.633   2.517   1.960 -0.3812  0.3643 -0.2114
  591SOL    HW2 2410   3.700   2.585   1.963  0.6711 -0.6043 -0.9844
  591SOL    HW3 2411   3.563   2.549   2.017  0.8789  1.2416  0.8752
  591SOL    MW4 2412   3.632   2.530   1.968 -0.0761  0.3524 -0.1701
  592SOL     OW 2413   3.910   4.587   4.179  0.1687 -0.1078  0.1674
  592SOL    HW2 2414   3.904   4.495   4.151  0.0346 -0.3627  1.0423
  592SOL    HW3 2415   3.884   4.637   4.101  1.0681 -0.7825 -0.5870
  592SOL    MW4 2416   3.906   4.582   4.165  0.2697 -0.2303  0.1831
  593SOL     OW 2417   1.098   3.829   4.269  0.0796  0.1877 -0.1172
  593SOL    HW2 2418   1.125   3.861   4.183  3.2020 -1.4955  0.1546
  593SOL    HW3 2419   1.009   3.796   4.256  0.5518 -0.1244 -2.7229
  593SOL    MW4 2420   1.090   3.829   4.256  0.5540 -0.0756 -0.4253
  594SOL     OW 2421   2.028   0.482   4.548 -0.0838 -0.1400  0.4063
  594SOL    HW2 2422   2.040   0.571   4.516 -0.4665 -1.0681 -2.4676
  594SOL    HW3 2423   1.941   0.482   4.589 -0.3444  0.6430 -0.1535
  594SOL    MW4 2424   2.018   0.493   4.549 -0.1686 -0.1591 -0.0472
  595SOL     OW 2425   0.731   2.251   0.805 -0.0213 -0.1511  0.6313
  595SOL    HW2 2426   0.739   2.155   0.806  0.3377 -0.1552 -1.1419
  595SOL    HW3 2427   0.728   2.276   0.898 -0.8095 -1.9282  1.1066
  595SOL    MW4 2428   0.732   2.242   0.817 -0.0778 -0.3860  0.4600
  596SOL     OW 2429   0.545   1.898   2.291 -0.1746 -0.3696  0.2053
  596SOL    HW2 2430   0.614   1.854   2.342 -1.9121 -1.4104  1.7164
  596SOL    HW3 2431   0.530   1.981   2.338  0.2409 -0.0121 -0.2894
  596SOL    MW4 2432   0.552   1.903   2.304 -0.3490 -0.4597  0.3393
  597SOL     OW 2433   1.473   4.129   1.668  0.1865 -0.5428  0.0247
  597SOL    HW2 2434   1.455   4.183   1.591  0.7674  1.2988  1.1435
  597SOL    HW3 2435   1.490   4.042   1.632 -1.2610 -0.1262 -1.7849
  597SOL    MW4 2436   1.473   4.125   1.653  0.0721 -0.2456 -0.0664
  598SOL     OW 2437   3.303   3.752   3.124  0.7854  0.0419 -0.4292
  598SOL    HW2 2438   3.266   3.682   3.069  0.4887 -0.8732  0.9146
  598SOL    HW3 2439   3.339   3.706   3.200  1.5510  1.2645 -0.0492
  598SOL    MW4 2440   3.303   3.737   3.127  0.8473  0.0827 -0.2022
  599SOL     OW 2441   3.699   0.297   1.982 -0.3261 -0.2530  0.8249
  599SOL    HW2 2442   3.608   0.325   1.992 -0.2871  0.1236  0.1626
  599SOL    HW3 2443   3.715   0.238   2.056 -1.4208 -1.1136  0.3792
  599SOL    MW4 2444   3.689   0.293   1.993 -0.4656 -0.3169  0.6787
  600SOL     OW 2445   0.614   2.965   1.606 -0.3283 -0.0751  0.1090
  600SOL    HW2 2446   0.685   2.928   1.553  0.8504 -0.1839  1.7533
  600SOL    HW3 2447   0.626   3.060   1.600 -0.8646 -0.0537 -0.7124
  600SOL    MW4 2448   0.625   2.972   1.598 -0.2435 -0.0868  0.2176
  601SOL     OW 2449   0.926   2.088   1.378 -0.0507 -0.0239 -0.1519
  601SOL    HW2 2450   0.884   2.015   1.333 -1.3607  0.5817  0.0500
  601SOL    HW3 2451   0.938   2.057   1.468 -1.3449  0.2795  0.1399
  601SOL    MW4 2452   0.922   2.074   1.384 -0.3943  0.0961 -0.0868
  602SOL     OW 2453   2.483   1.034   1.784 -0.0502 -0.4242 -0.2877
  602SOL    HW2 2454   2.573   1.003   1.782 -0.5066 -1.7790 -2.0834
  602SOL    HW3 2455   2.489   1.127   1.759  0.9806 -0.0533  1.2827
  602SOL    MW4 2456   2.495   1.042   1.780  0.0257 -0.5541 -0.3173
  603SOL     OW 2457   2.720   2.726   1.438  0.5669  0.5044 -0.2465
  603SOL    HW2 2458   2.741   2.773   1.357  0.2426  3.4792  1.3014
  603SOL    HW3 2459   2.711   2.795   1.504 -1.4992 -1.6390  1.8427
  603SOL    MW4 2460   2.721   2.742   1.436  0.2515  0.6142  0.2334
  604SOL     OW 2461   3.963   3.032   3.843  0.1561 -0.0456 -0.7258
  604SOL    HW2 2462   3.903   2.999   3.776  1.0350 -0.1445 -1.4603
  604SOL    HW3 2463   4.005   2.954   3.879  0.0712  0.0505 -0.4082
  604SOL    MW4 2464   3.960   3.018   3.839  0.2608 -0.0460 -0.7806
  605SOL     OW 2465   1.177   1.051   4.591  0.0637  0.3588 -0.1851
  605SOL    HW2 2466   1.134   1.130   4.559  0.5737  1.0783  0.9082
  605SOL    HW3 2467   1.114   1.013   4.652 -0.6069 -0.6344 -1.4626
  605SOL    MW4 2468   1.163   1.056   4.594  0.0424  0.3227 -0.2093
  606SOL     OW 2469   0.449   3.313   0.525  0.2489  0.4970  0.4257
  606SOL    HW2 2470   0.520   3.375   0.508  0.1337  0.3673 -0.5573
  606SOL    HW3 2471   0.371   3.367   0.531 -0.4543  0.1696 -4.1894
  606SOL    MW4 2472   0.448   3.328   0.524  0.1410  0.4365 -0.3129
  607SOL     OW 2473   1.073   3.762   3.106  0.5465 -0.3421 -0.0323
  607SOL    HW2 2474   1.066   3.693   3.171  1.9540 -1.1447 -0.7305
  607SOL    HW3 2475   1.130   3.828   3.146  1.0087 -0.6041 -0.2694
  607SOL    MW4 2476   1.079   3.762   3.119  0.7933 -0.4828 -0.1557
  608SOL     OW 2477   1.441   4.376   0.817  0.3646  0.1703 -0.3322
  608SOL    HW2 2478   1.470   4.354   0.906  0.5038 -1.2001 -0.7088
  608SOL    HW3 2479   1.468   4.301   0.764 -0.2354  0.7254 -1.4275
  608SOL    MW4 2480   1.449   4.363   0.822  0.3039  0.0625 -0.5264
  609SOL     OW 2481   0.462   1.971   3.298 -0.3799 -0.0453  0.0466
  609SOL    HW2 2482   0.493   2.048   3.346  1.9758 -0.2692 -1.0456
  609SOL    HW3 2483   0.460   1.901   3.363 -0.7427  0.4860  0.6221
  609SOL    MW4 2484   0.466   1.972   3.313 -0.1169 -0.0048 -0.0217
  610SOL     OW 2485   2.314   1.125   4.132 -0.3988  0.0419  0.0877
  610SOL    HW2 2486   2.309   1.031   4.146 -0.8498 -0.4541 -2.9821
  610SOL    HW3 2487   2.226   1.157   4.153 -0.3490 -0.2549  0.7738
  610SOL    MW4 2488   2.301   1.117   4.137 -0.4516 -0.0627 -0.2265
  611SOL     OW 2489   1.047   4.086   2.918 -0.4108  0.3106 -0.5107
  611SOL    HW2 2490   1.040   4.180   2.899 -0.6829  0.5296  0.6521
  611SOL    HW3 2491   1.134   4.076   2.956 -0.3108  0.0540 -0.8039
  611SOL    MW4 2492   1.057   4.097   2.920 -0.4336  0.3057 -0.3958
  612SOL     OW 2493   2.756   3.948   1.202  0.0212  0.0950  0.5178
  612SOL    HW2 2494   2.700   4.025   1.203  0.1308  0.2339 -1.2429
  612SOL    HW3 2495   2.751   3.916   1.111  1.1075 -1.1206  0.8649
  612SOL    MW4 2496   2.748   3.954   1.190  0.1791 -0.0470  0.3314
  613SOL     OW 2497   0.147   0.508   1.845  0.1233  0.0378  0.8158
  613SOL    HW2 2498   0.154   0.547   1.931 -2.0149 -2.6845  2.3312
  613SOL    HW3 2499   0.059   0.531   1.815  0.6261  0.4566 -0.3963
  613SOL    MW4 2500   0.136   0.516   1.852 -0.0925 -0.2661  0.8558
  614SOL     OW 2501   4.350   1.261   0.692 -0.8413 -0.5991 -0.3187
  614SOL    HW2 2502   4.374   1.246   0.784 -0.6479  0.4993 -0.1755
  614SOL    HW3 2503   4.410   1.330   0.663 -1.3774 -0.4393 -1.0636
  614SOL    MW4 2504   4.361   1.268   0.700 -0.8864 -0.4331 -0.3981
  615SOL     OW 2505   3.620   2.368   4.153 -0.0108  0.7801  0.6689
  615SOL    HW2 2506   3.545   2.398   4.205  0.0071  1.8800  0.0718
  615SOL    HW3 2507   3.633   2.277   4.180 -2.9841 -0.1752 -0.8567
  615SOL    MW4 2508   3.612   2.360   4.163 -0.4008  0.7989  0.3886
  616SOL     OW 2509   0.255   3.880   3.727  0.2924  0.0394 -0.2941
  616SOL    HW2 2510   0.289   3.940   3.793  0.3926  2.1534 -2.1920
  616SOL    HW3 2511   0.330   3.863   3.670  0.1461 -1.5751 -0.0319
  616SOL    MW4 2512   0.269   3.885   3.728  0.2863  0.1051 -0.5102
  617SOL     OW 2513   4.339   2.009   1.320  0.3566  0.0612  0.3685
  617SOL    HW2 2514   4.300   1.952   1.254 -2.0815 -0.4766  2.2071
  617SOL    HW3 2515   4.345   1.955   1.399  1.0522  1.3850  1.2566
  617SOL    MW4 2516   4.335   1.995   1.322  0.1268  0.1649  0.7282
  618SOL     OW 2517   1.733   0.484   4.493  0.3840 -0.2870  0.2955
  618SOL    HW2 2518   1.682   0.561   4.518  1.6835  0.4080  0.8418
  618SOL    HW3 2519   1.667   0.417   4.475 -0.7490  0.8610  0.0993
  618SOL    MW4 2520   1.717   0.485   4.494  0.4060 -0.0439  0.3414
  619SOL     OW 2521   0.153   2.933   3.700 -0.4400  0.1005  0.4398
  619SOL    HW2 2522   0.176   2.959   3.790  1.4099 -0.6564  0.2186
  619SOL    HW3 2523   0.058   2.942   3.696 -0.3279  2.3809  1.7571
  619SOL    MW4 2524   0.144   2.938   3.712 -0.1811  0.3014  0.5844
  620SOL     OW 2525   0.773   1.577   3.731 -0.0193  0.0730 -0.1920
  620SOL    HW2 2526   0.784   1.664   3.693 -0.4726 -0.3381 -1.2942
  620SOL    HW3 2527   0.858   1.556   3.769  0.8427 -0.0222 -2.0992
  620SOL    MW4 2528   0.786   1.585   3.731  0.0346  0.0061 -0.5889
  621SOL     OW 2529   1.516   2.973   1.000 -0.0570 -0.1109  0.5048
  621SOL    HW2 2530   1.527   2.878   1.000 -2.3994 -0.4082  1.7777
  621SOL    HW3 2531   1.527   2.999   1.091 -0.0185  0.7865  0.2551
  621SOL    MW4 2532   1.519   2.964   1.012 -0.3612 -0.0315  0.6398
  622SOL     OW 2533   2.151   3.097   2.153 -0.4305 -0.5437  0.2400
  622SOL    HW2 2534   2.061   3.129   2.151 -0.7787 -1.4623  0.9075
  622SOL    HW3 2535   2.144   3.004   2.133  0.5420 -0.2842 -1.3662
  622SOL    MW4 2536   2.138   3.089   2.150 -0.3483 -0.6306  0.1163
  623SOL     OW 2537   1.833   2.024   3.063  0.3272  0.2258 -0.3761
  623SOL    HW2 2538   1.805   2.113   3.087 -2.3172 -0.0143 -2.2193
  623SOL    HW3 2539   1.864   2.033   2.972  0.0415 -0.7181 -0.5698
  623SOL    MW4 2540   1.833   2.037   3.054 -0.0592  0.0696 -0.6447
  624SOL     OW 2541   1.496   0.245   3.223 -0.1057 -0.1475 -0.1360
  624SOL    HW2 2542   1.479   0.157   3.254 -0.5636 -0.0996 -0.2532
  624SOL    HW3 2543   1.584   0.240   3.184  0.0523 -0.4410  0.2594
  624SOL    MW4 2544   1.505   0.233   3.222 -0.1454 -0.1799 -0.0992
  625SOL     OW 2545   2.520   2.261   4.054 -0.1938  0.0121 -0.0451
  625SOL    HW2 2546   2.495   2.304   4.136  1.8761  0.8593  0.1693
  625SOL    HW3 2547   2.529   2.332   3.991  1.5328 -0.2799 -0.1447
  625SOL    MW4 2548   2.518   2.276   4.057  0.3073  0.0854 -0.0296
  626SOL     OW 2549   2.600   3.929   2.559  0.3652 -0.3097 -0.1039
  626SOL    HW2 2550   2.543   3.929   2.482 -0.7687  1.6418  0.6886
  626SOL    HW3 2551   2.620   3.837   2.575 -0.7823 -0.8476 -1.7161
  626SOL    MW4 2552   2.595   3.917   2.551  0.0641 -0.1233 -0.2120
  627SOL     OW 2553   0.450   4.043   2.641 -0.6921 -0.6326 -0.1691
  627SOL    HW2 2554   0.358   4.066   2.628 -0.6436  0.1853  0.8781
  627SOL    HW3 2555   0.469   4.068   2.732 -0.1758 -3.2485  0.4955
  627SOL    MW4 2556   0.441   4.049   2.652 -0.6176 -0.8702  0.0565
  628SOL     OW 2557   2.676   0.633   3.097 -0.1817  0.2823 -0.1303
  628SOL    HW2 2558   2.587   0.599   3.094 -0.1044  0.0842 -0.2248
  628SOL    HW3 2559   2.731   0.555   3.107  0.1127  0.2153 -2.0401
  628SOL    MW4 2560   2.672   0.618   3.098 -0.1328  0.2474 -0.3948
  629SOL     OW 2561   1.426   0.188   2.641 -0.0052 -0.1648  0.4203
  629SOL    HW2 2562   1.498   0.214   2.697  0.5346 -0.6277 -0.0455
  629SOL    HW3 2563   1.351   0.182   2.699  0.0006  1.7469  0.6570
  629SOL    MW4 2564   1.426   0.190   2.656  0.0666  0.0263  0.3901
  630SOL     OW 2565   2.630   0.386   3.351 -0.3321  0.0670  0.1638
  630SOL    HW2 2566   2.580   0.420   3.277 -0.3235  0.8623  0.5262
  630SOL    HW3 2567   2.703   0.447   3.362  0.1166 -0.4930  0.3165
  630SOL    MW4 2568   2.633   0.398   3.343 -0.2718  0.0980  0.2320
  631SOL     OW 2569   0.683   2.596   3.078 -0.0257  0.5081  0.1418
  631SOL    HW2 2570   0.758   2.618   3.132 -0.5504  1.0131  0.6706
  631SOL    HW3 2571   0.618   2.663   3.098 -0.8729 -0.3254  0.2122
  631SOL    MW4 2572   0.684   2.608   3.088 -0.2068  0.4649  0.2210
  632SOL     OW 2573   0.651   3.156   3.358 -0.3132 -0.2261  0.1290
  632SOL    HW2 2574   0.566   3.192   3.332 -0.3344  0.0477  0.5801
  632SOL    HW3 2575   0.696   3.229   3.400 -0.1544 -0.5912  0.5878
  632SOL    MW4 2576   0.646   3.170   3.360 -0.2950 -0.2382  0.2491
  633SOL     OW 2577   2.909   2.353   2.444 -0.0448 -0.3162  0.0915
  633SOL    HW2 2578   2.997   2.337   2.409 -0.9618 -1.9315 -1.5712
  633SOL    HW3 2579   2.859   2.385   2.369 -0.6275  1.6128  1.2732
  633SOL    MW4 2580   2.914   2.355   2.429 -0.2429 -0.2749  0.0279
  634SOL     OW 2581   2.909   2.821   1.963  0.4704 -0.0941 -0.5725
  634SOL    HW2 2582   2.950   2.907   1.972  1.3646 -0.6912  1.3744
  634SOL    HW3 2583   2.921   2.780   2.049 -1.8064 -1.3497 -0.8234
  634SOL    MW4 2584   2.916   2.827   1.976  0.2880 -0.3386 -0.3487
  635SOL     OW 2585   2.466   3.759   1.724 -0.4293  0.1328  0.1144
  635SOL    HW2 2586   2.475   3.675   1.679 -2.3840  0.5740 -1.2107
  635SOL    HW3 2587   2.455   3.736   1.816 -1.7176 -1.1481 -0.3319
  635SOL    MW4 2588   2.466   3.745   1.730 -0.8569  0.0219 -0.1193
  636SOL     OW 2589   0.897   1.072   1.093  0.6671 -0.3604 -0.0572
  636SOL    HW2 2590   0.934   1.129   1.026  0.6089  1.1164  1.1533
  636SOL    HW3 2591   0.818   1.035   1.051  1.1381 -0.1919 -1.1135
  636SOL    MW4 2592   0.891   1.074   1.079  0.7215 -0.1434 -0.0368
  637SOL     OW 2593   2.290   0.228   3.122  0.4775 -0.2828  0.3393
  637SOL    HW2 2594   2.306   0.170   3.197  0.2182 -0.4192  0.2889
  637SOL    HW3 2595   2.279   0.314   3.161 -2.9865 -0.8556  0.7843
  637SOL    MW4 2596   2.291   0.232   3.137 -0.0136 -0.3764  0.3912
  638SOL     OW 2597   2.001   2.536   1.561  0.6998 -0.2630  0.3627
  638SOL    HW2 2598   2.019   2.553   1.469 -0.5326  0.0375  0.1671
  638SOL    HW3 2599   1.954   2.452   1.562 -0.9484  0.6433  0.5346
  638SOL    MW4 2600   1.997   2.527   1.549  0.3197 -0.1037  0.3597
  639SOL     OW 2601   1.543   1.536   2.058  0.4860  0.0527  0.5281
  639SOL    HW2 2602   1.563   1.457   2.109  1.2633 -0.1657 -0.0944
  639SOL    HW3 2603   1.625   1.585   2.057  0.4667  0.0873 -0.4350
  639SOL    MW4 2604   1.556   1.532   2.064  0.5859  0.0284  0.3190
  640SOL     OW 2605   1.420   2.234   4.561 -0.0531  0.3892 -0.6692
  640SOL    HW2 2606   1.347   2.182   4.594  0.3570  0.3573  0.1868
  640SOL    HW3 2607   1.383   2.281   4.486 -0.9837  0.4554 -0.1840
  640SOL    MW4 2608   1.405   2.233   4.555 -0.1217  0.3939 -0.4916
  641SOL     OW 2609   2.766   4.566   2.108 -0.5687 -0.1212  0.4081
  641SOL    HW2 2610   2.844   4.517   2.131 -0.8109 -0.5758  0.2755
  641SOL    HW3 2611   2.798   4.646   2.067 -0.1657  0.0253  1.0065
  641SOL    MW4 2612   2.780   4.570   2.106 -0.5474 -0.1621  0.4694
  642SOL     OW 2613   1.646   4.574   1.903  0.0338 -0.0030 -0.2660
  642SOL    HW2 2614   1.605   4.650   1.860 -0.6601  0.0574  0.5020
  642SOL    HW3 2615   1.622   4.500   1.847  0.7861  0.3379 -1.0686
  642SOL    MW4 2616   1.637   4.575   1.890  0.0415  0.0501 -0.2706
  643SOL     OW 2617   3.882   2.824   4.164 -0.1453  0.3162  0.7014
  643SOL    HW2 2618   3.877   2.919   4.172  0.8355  0.3627  0.9232
  643SOL    HW3 2619   3.966   2.808   4.121 -0.2662 -0.4468  0.7321
  643SOL    MW4 2620   3.893   2.834   4.160 -0.0317  0.2217  0.7348
  644SOL     OW 2621   0.963   2.251   4.088  0.0204 -0.1460  0.2185
  644SOL    HW2 2622   0.886   2.219   4.041  0.7638 -2.2566  0.4008
  644SOL    HW3 2623   0.992   2.327   4.038 -0.8172 -0.7404 -1.1891
  644SOL    MW4 2624   0.957   2.257   4.075  0.0080 -0.5028  0.0567
  645SOL     OW 2625   3.685   0.940   3.155  0.0640 -0.0300  0.1590
  645SOL    HW2 2626   3.667   0.846   3.146  1.7248 -0.4269  0.8568
  645SOL    HW3 2627   3.697   0.954   3.249 -0.2164  0.9032  0.0683
  645SOL    MW4 2628   3.684   0.930   3.166  0.2460  0.0408  0.2389
  646SOL     OW 2629   3.319   1.155   1.508 -0.3372 -0.1980  0.4162
  646SOL    HW2 2630   3.228   1.140   1.485 -0.5010 -0.4885  1.2309
  646SOL    HW3 2631   3.333   1.104   1.588  0.4458  0.0952  0.4779
  646SOL    MW4 2632   3.309   1.147   1.516 -0.2553 -0.1975  0.5319
  647SOL     OW 2633   3.699   2.885   2.029 -0.0101  0.6125 -0.0845
  647SOL    HW2 2634   3.773   2.852   1.979 -1.4165 -0.3989 -1.5405
  647SOL    HW3 2635   3.635   2.909   1.962 -1.4922  0.2526  1.2012
  647SOL    MW4 2636   3.700   2.884   2.013 -0.3915  0.4315 -0.1066
  648SOL     OW 2637   2.564   2.468   3.889  0.3222 -0.4576  0.5269
  648SOL    HW2 2638   2.530   2.463   3.800  1.1017 -1.4941  0.2794
  648SOL    HW3 2639   2.647   2.420   3.886  1.6171  1.6865  1.2170
  648SOL    MW4 2640   2.570   2.461   3.877  0.5960 -0.3116  0.5851
  649SOL     OW 2641   4.179   0.439   1.272 -0.0735  0.4598  0.1477
  649SOL    HW2 2642   4.150   0.459   1.361  1.1649  1.6242  0.3038
  649SOL    HW3 2643   4.188   0.525   1.230  1.2929  0.0271 -0.4756
  649SOL    MW4 2644   4.176   0.453   1.278  0.2699  0.5563  0.0859
  650SOL     OW 2645   0.125   4.510   3.221  0.1046  0.1227  0.4776
  650SOL    HW2 2646   0.189   4.513   3.292 -0.3961 -0.4374  0.9592
  650SOL    HW3 2647   0.166   4.559   3.149  0.5549  0.8030  1.1956
  650SOL    MW4 2648   0.139   4.517   3.221  0.0979  0.1388  0.6356
  651SOL     OW 2649   2.615   2.850   3.023  0.4527 -0.0756 -0.0731
  651SOL    HW2 2650   2.606   2.945   3.023 -0.7089 -0.0550  4.1286
  651SOL    HW3 2651   2.709   2.835   3.035  0.4748  0.5955  0.6620
  651SOL    MW4 2652   2.626   2.861   3.025  0.3023  0.0157  0.5782
  652SOL     OW 2653   1.546   3.030   2.310  0.6391 -0.2665  1.0235
  652SOL    HW2 2654   1.456   3.000   2.300  0.1970  0.5629  2.4365
  652SOL    HW3 2655   1.546   3.119   2.274  1.1957 -0.7148 -0.1254
  652SOL    MW4 2656   1.534   3.038   2.304  0.6543 -0.2160  1.0583
  653SOL     OW 2657   4.065   0.007   3.250 -0.2691  0.2797  0.6215
  653SOL    HW2 2658   4.094   0.061   3.324  1.1755  0.2519  0.0856
  653SOL    HW3 2659   4.023  -0.069   3.291 -0.9534  1.0485  1.3876
  653SOL    MW4 2660   4.063   0.004   3.265 -0.1688  0.3772  0.6516
  654SOL     OW 2661   3.596   3.968   3.681  0.0942 -0.1683 -0.2042
  654SOL    HW2 2662   3.680   3.984   3.725 -0.1034  0.1371  0.0693
  654SOL    HW3 2663   3.620   3.928   3.597  0.4619 -0.9990  0.2899
  654SOL    MW4 2664   3.610   3.965   3.676  0.1168 -0.2377 -0.1030
  655SOL     OW 2665   2.760   2.730   2.263 -0.0752 -0.0358 -0.1013
  655SOL    HW2 2666   2.724   2.656   2.313 -0.3177 -0.2779 -0.6349
  655SOL    HW3 2667   2.844   2.698   2.231  0.4609  0.4025  0.8335
  655SOL    MW4 2668   2.766   2.716   2.266 -0.0365 -0.0098 -0.0484
  656SOL     OW 2669   0.118   0.025   4.411  0.7171  0.3023  0.1879
  656SOL    HW2 2670   0.024   0.016   4.430  0.9929 -0.5352  1.2102
  656SOL    HW3 2671   0.123   0.100   4.352 -0.2934  2.2062  2.4159
  656SOL    MW4 2672   0.106   0.033   4.406  0.6202  0.4430  0.6170
  657SOL     OW 2673   1.385   1.784   2.577 -0.1284  0.5827 -0.4444
  657SOL    HW2 2674   1.360   1.853   2.639  1.3968  0.6477  0.1273
  657SOL    HW3 2675   1.350   1.704   2.615 -0.1649  0.7730 -0.0699
  657SOL    MW4 2676   1.377   1.783   2.591  0.0681  0.6163 -0.3197
  658SOL     OW 2677   2.749   3.451   3.318  0.6058  0.5018 -0.1020
  658SOL    HW2 2678   2.698   3.504   3.257  0.7569  1.4234  0.5551
  658SOL    HW3 2679   2.837   3.450   3.280  0.0509 -1.3726 -1.4152
  658SOL    MW4 2680   2.754   3.458   3.305  0.5527  0.3762 -0.1888
  659SOL     OW 2681   3.208   2.512   4.018  0.3065  0.3455  0.4694
  659SOL    HW2 2682   3.166   2.595   3.995  0.4812  0.6962  1.3830
  659SOL    HW3 2683   3.181   2.496   4.109  2.4557  0.7922  1.2124
  659SOL    MW4 2684   3.199   2.521   4.027  0.6127  0.4508  0.6876
  660SOL     OW 2685   1.634   2.822   1.701 -0.0725  0.5773  0.1293
  660SOL    HW2 2686   1.719   2.805   1.659  0.8736  1.0666  1.8027
  660SOL    HW3 2687   1.570   2.811   1.631  1.2731 -0.9722 -0.8912
  660SOL    MW4 2688   1.637   2.818   1.686  0.2298  0.4375  0.2154
  661SOL     OW 2689   1.890   3.810   1.391  0.1523  0.4670 -0.0825
  661SOL    HW2 2690   1.937   3.807   1.474 -0.8491 -0.8857  0.4607
  661SOL    HW3 2691   1.848   3.896   1.390  0.3188  0.5627  0.7366
  661SOL    MW4 2692   1.891   3.821   1.402  0.0421  0.3014  0.0972
  662SOL     OW 2693   0.286   2.913   3.173  0.5703  0.2762 -0.4201
  662SOL    HW2 2694   0.241   2.896   3.090  0.7054  1.7359 -0.8186
  662SOL    HW3 2695   0.357   2.849   3.176 -0.4666 -0.8958 -0.6231
  662SOL    MW4 2696   0.289   2.903   3.163  0.4513  0.3142 -0.4997
  663SOL     OW 2697   2.141   1.795   0.834  0.1946 -0.1225  0.4371
  663SOL    HW2 2698   2.108   1.705   0.842  2.0005 -0.8043  0.4496
  663SOL    HW3 2699   2.174   1.816   0.921 -1.3188  1.0226  0.7605
  663SOL    MW4 2700   2.141   1.786   0.847  0.2329 -0.0614  0.4815
  664SOL     OW 2701   0.997   2.086   0.414  0.2586  0.0671  0.3114
  664SOL    HW2 2702   1.060   2.019   0.440 -0.6093 -0.8889  0.0149
  664SOL    HW3 2703   1.013   2.098   0.320  0.1835  0.0165  0.2918
  664SOL    MW4 2704   1.007   2.079   0.405  0.1341 -0.0658  0.2697
  665SOL     OW 2705   3.135   1.123   4.166 -0.1441  0.4628  0.5717
  665SOL    HW2 2706   3.158   1.151   4.078 -1.6649  1.4617  0.4676
  665SOL    HW3 2707   3.133   1.028   4.161 -0.5062  0.5191 -0.5670
  665SOL    MW4 2708   3.137   1.114   4.154 -0.3927  0.6020  0.4082
  666SOL     OW 2709   3.874   3.010   0.981  0.1010  0.0646  0.2392
  666SOL    HW2 2710   3.947   2.948   0.987  0.1491  0.0548 -0.3779
  666SOL    HW3 2711   3.910   3.084   0.931 -1.1827 -1.2657 -2.7608
  666SOL    MW4 2712   3.888   3.012   0.975 -0.0620 -0.1123 -0.2380
  667SOL     OW 2713   0.272   1.797   4.537  0.5185  0.3379 -0.4123
  667SOL    HW2 2714   0.299   1.762   4.452  0.3036 -0.8827  0.0163
  667SOL    HW3 2715   0.342   1.773   4.597 -0.9992 -2.0010  0.5017
  667SOL    MW4 2716   0.285   1.789   4.534  0.2899 -0.1317 -0.2351
  668SOL     OW 2717   4.488   1.630   2.823 -0.6242 -0.3840  0.1765
  668SOL    HW2 2718   4.477   1.612   2.917 -0.8953 -2.7001 -0.2623
  668SOL    HW3 2719   4.575   1.596   2.803 -1.1007 -1.1100 -0.6779
  668SOL    MW4 2720   4.498   1.623   2.833 -0.7228 -0.7854  0.0062
  669SOL     OW 2721   0.574   1.016   2.996 -0.1217  0.3797 -0.9115
  669SOL    HW2 2722   0.540   1.055   3.077 -0.2859 -1.5864  0.0183
  669SOL    HW3 2723   0.635   0.948   3.026  1.0871  0.7454 -2.4865
  669SOL    MW4 2724   0.577   1.012   3.011  0.0161  0.1686 -0.9968
  670SOL     OW 2725   1.204   3.802   3.494  0.3016  1.0365  0.1363
  670SOL    HW2 2726   1.206   3.860   3.570  1.2966  0.0077  0.9164
  670SOL    HW3 2727   1.111   3.784   3.479 -0.0322  3.0668 -0.3068
  670SOL    MW4 2728   1.192   3.807   3.502  0.3890  1.1685  0.1807
  671SOL     OW 2729   3.067   0.978   3.558 -0.0202 -0.0990  0.3437
  671SOL    HW2 2730   3.091   1.071   3.551 -0.4487 -0.0508 -0.6975
  671SOL    HW3 2731   3.130   0.933   3.502  0.1329 -0.4247  0.7833
  671SOL    MW4 2732   3.078   0.985   3.550 -0.0563 -0.1355  0.2644
  672SOL     OW 2733   1.472   1.998   3.439  0.2457  0.3190 -0.1908
  672SOL    HW2 2734   1.512   1.968   3.357 -1.6873 -1.0177 -0.6835
  672SOL    HW3 2735   1.466   1.920   3.493 -0.7529  0.7041  0.2659
  672SOL    MW4 2736   1.477   1.984   3.435 -0.1411  0.1934 -0.1960
  673SOL     OW 2737   4.109   1.477   3.765  0.1297  0.1087  0.4276
  673SOL    HW2 2738   4.086   1.388   3.791  0.7097 -0.2467 -0.2563
  673SOL    HW3 2739   4.187   1.467   3.710 -0.3463  0.9462 -0.4269
  673SOL    MW4 2740   4.116   1.464   3.761  0.1435  0.1724  0.2246
  674SOL     OW 2741   1.037   1.620   1.596 -0.5637  0.1895  0.2473
  674SOL    HW2 2742   0.977   1.670   1.651 -0.1253 -0.2768  1.1714
  674SOL    HW3 2743   0.981   1.562   1.545 -0.9417  0.2556  0.5845
  674SOL    MW4 2744   1.022   1.619   1.596 -0.5559  0.1367  0.4138
  675SOL     OW 2745   0.877   2.085   4.469  0.3038 -0.1126 -0.3497
  675SOL    HW2 2746   0.910   2.107   4.556  0.7719 -0.1083 -0.5242
  675SOL    HW3 2747   0.876   1.990   4.467  2.2458 -0.1406 -1.0499
  675SOL    MW4 2748   0.881   2.076   4.480  0.6219 -0.1159 -0.4659
  676SOL     OW 2749   2.582   3.745   4.667  0.4670  0.1290  0.3115
  676SOL    HW2 2750   2.549   3.655   4.668  1.6686 -0.3501 -0.6034
  676SOL    HW3 2751   2.546   3.785   4.746  1.3951 -1.7264  1.7375
  676SOL    MW4 2752   2.573   3.738   4.677  0.7479 -0.1788  0.3791
  677SOL     OW 2753   4.281   0.550   0.939  0.2810  0.1335 -0.4309
  677SOL    HW2 2754   4.289   0.609   0.864 -0.0948  0.4947 -0.1886
  677SOL    HW3 2755   4.367   0.509   0.946  0.5291  0.6122 -0.6325
  677SOL    MW4 2756   4.293   0.552   0.930  0.2642  0.2443 -0.4255
  678SOL     OW 2757   1.039   3.747   0.792  0.0622 -0.2183 -0.4414
  678SOL    HW2 2758   1.063   3.827   0.744  0.9502 -0.7395 -0.8659
  678SOL    HW3 2759   1.108   3.685   0.772 -0.1971 -0.8420  0.5474
  678SOL    MW4 2760   1.051   3.750   0.783  0.1452 -0.3695 -0.3670
  679SOL     OW 2761   1.034   3.420   1.853  0.2039  0.0310 -0.2307
  679SOL    HW2 2762   1.121   3.383   1.868  0.6156  1.4773  1.0479
  679SOL    HW3 2763   1.013   3.467   1.934 -0.2937  2.5699 -1.7690
  679SOL    MW4 2764   1.043   3.421   1.866  0.1926  0.5567 -0.2649
  680SOL     OW 2765   0.939   4.165   0.856  0.1858 -0.6263 -0.1340
  680SOL    HW2 2766   0.930   4.259   0.839  0.5867 -0.6327 -0.3798
  680SOL    HW3 2767   1.018   4.139   0.810  0.1001 -1.0802 -0.0322
  680SOL    MW4 2768   0.948   4.174   0.848  0.2274 -0.6871 -0.1529
  681SOL     OW 2769   0.729   3.915   2.136 -0.4257  0.4254 -0.4432
  681SOL    HW2 2770   0.774   3.876   2.060  3.2932 -2.0638  2.8214
  681SOL    HW3 2771   0.777   3.996   2.153  1.1189 -0.8080  1.3139
  681SOL    MW4 2772   0.741   3.920   2.128  0.2688 -0.0656  0.2193
  682SOL     OW 2773   3.189   2.577   1.855  0.3655  0.8031 -0.0522
  682SOL    HW2 2774   3.259   2.525   1.817  0.9216  1.1828  0.4294
  682SOL    HW3 2775   3.231   2.661   1.877 -0.3214  1.1576 -0.0881
  682SOL    MW4 2776   3.204   2.581   1.853  0.3483  0.9000  0.0067
  683SOL     OW 2777   0.819   2.098   3.652 -0.4007  0.1201 -0.1256
  683SOL    HW2 2778   0.896   2.062   3.610 -1.3987 -0.0558 -1.8672
  683SOL    HW3 2779   0.798   2.176   3.600 -0.3072  1.2319  1.4675
  683SOL    MW4 2780   0.826   2.104   3.640 -0.5201  0.2437 -0.1452
  684SOL     OW 2781   0.495   4.187   1.318  0.4003 -0.0180  0.0367
  684SOL    HW2 2782   0.472   4.168   1.408 -0.3386  1.5031  0.1911
  684SOL    HW3 2783   0.412   4.206   1.275  0.8529  0.3729 -0.6851
  684SOL    MW4 2784   0.481   4.187   1.324  0.3625  0.2346 -0.0381
  685SOL     OW 2785   0.409   4.076   3.425 -0.1142 -0.3902  0.3251
  685SOL    HW2 2786   0.343   4.081   3.356  0.3915  1.2798 -0.0654
  685SOL    HW3 2787   0.409   3.984   3.452 -1.3826 -0.7501 -0.8475
  685SOL    MW4 2788   0.400   4.065   3.419 -0.2148 -0.2174  0.1190
  686SOL     OW 2789   0.484   1.122   0.559 -0.1101 -0.7889  0.0978
  686SOL    HW2 2790   0.422   1.049   0.559  0.4275 -1.2470 -0.0008
  686SOL    HW3 2791   0.570   1.081   0.571  0.3873 -0.3398 -1.7425
  686SOL    MW4 2792   0.487   1.107   0.561  0.0265 -0.7901 -0.1580
  687SOL     OW 2793   4.346   2.227   4.482 -0.0055  0.1673  0.3367
  687SOL    HW2 2794   4.339   2.266   4.569 -1.0131  0.0279  0.3244
  687SOL    HW3 2795   4.343   2.301   4.422  0.4603  0.2464  0.4103
  687SOL    MW4 2796   4.344   2.242   4.485 -0.0768  0.1595  0.3452
  688SOL     OW 2797   1.091   1.361   3.428 -0.5394 -0.3008  0.0836
  688SOL    HW2 2798   1.153   1.349   3.357  0.5342  0.5271  0.8607
  688SOL    HW3 2799   1.134   1.321   3.504 -1.0562  0.0757  0.5783
  688SOL    MW4 2800   1.105   1.354   3.429 -0.4660 -0.1419  0.2513
  689SOL     OW 2801   0.670   4.382   1.241  0.1306 -0.1729  0.2417
  689SOL    HW2 2802   0.620   4.310   1.280 -0.4077 -1.0339 -1.9943
  689SOL    HW3 2803   0.740   4.339   1.192  1.1800  0.9283  0.7307
  689SOL    MW4 2804   0.673   4.367   1.240  0.1980 -0.1407  0.0113
  690SOL     OW 2805   2.197   2.659   3.707  0.4022  0.0919  0.3761
  690SOL    HW2 2806   2.160   2.619   3.786  0.6015  0.9198  0.9018
  690SOL    HW3 2807   2.132   2.724   3.681 -1.2156 -2.3941 -2.0566
  690SOL    MW4 2808   2.184   2.662   3.714  0.2148 -0.1271  0.1245
  691SOL     OW 2809   3.148   2.497   3.645  0.6111 -0.6606 -0.4126
  691SOL    HW2 2810   3.132   2.422   3.701  1.4956  0.1804  1.0196
  691SOL    HW3 2811   3.068   2.550   3.651 -0.4550 -2.0146 -2.3202
  691SOL    MW4 2812   3.135   2.494   3.653  0.5870 -0.7284 -0.4752
  692SOL     OW 2813   3.707   4.405   3.112  0.0157  0.1363 -0.0686
  692SOL    HW2 2814   3.741   4.317   3.096  0.9774  0.6350 -0.8773
  692SOL    HW3 2815   3.739   4.456   3.038 -0.2010  1.2560  0.6039
  692SOL    MW4 2816   3.716   4.400   3.100  0.1140  0.3500 -0.0865
  693SOL     OW 2817   2.020   1.115   4.144  0.0324 -0.0339  0.7604
  693SOL    HW2 2818   2.062   1.065   4.074 -0.2402 -0.2532  0.7532
  693SOL    HW3 2819   1.929   1.124   4.117  0.2694  1.2263  0.3490
  693SOL    MW4 2820   2.014   1.109   4.131  0.0274  0.1035  0.7052
  694SOL     OW 2821   2.504   1.657   4.171  0.0553  0.6205 -0.4360
  694SOL    HW2 2822   2.534   1.696   4.089  2.0862  0.8215  0.3785
  694SOL    HW3 2823   2.562   1.583   4.185 -1.7748 -0.8282 -0.3538
  694SOL    MW4 2824   2.516   1.653   4.162  0.0818  0.4559 -0.3181
  695SOL     OW 2825   3.586   0.957   4.308 -0.3002  0.0900 -0.1375
  695SOL    HW2 2826   3.517   1.023   4.312  0.1266  0.5350 -0.1522
  695SOL    HW3 2827   3.668   1.006   4.311  0.0316 -0.5035  1.4527
  695SOL    MW4 2828   3.588   0.972   4.309 -0.2003  0.0705  0.0706
  696SOL     OW 2829   2.589   1.283   0.952 -0.3755  0.3315 -0.1999
  696SOL    HW2 2830   2.557   1.359   0.904  1.1878  1.1579  0.0396
  696SOL    HW3 2831   2.637   1.320   1.027  0.6569 -0.8722 -0.2441
  696SOL    MW4 2832   2.591   1.298   0.956 -0.0329  0.2818 -0.1741
  697SOL     OW 2833   0.567   3.324   1.177 -0.0324 -0.1339 -0.1286
  697SOL    HW2 2834   0.479   3.331   1.212 -0.9279 -0.9683 -2.1115
  697SOL    HW3 2835   0.603   3.412   1.184 -0.6357 -0.0149  1.6350
  697SOL    MW4 2836   0.560   3.336   1.182 -0.2301 -0.2284 -0.1575
  698SOL     OW 2837   0.870   3.965   0.541  0.2257 -0.1366 -0.2494
  698SOL    HW2 2838   0.826   4.043   0.508 -1.9190 -0.9573  0.6104
  698SOL    HW3 2839   0.836   3.953   0.630  2.1916 -0.8088  0.4617
  698SOL    MW4 2840   0.860   3.974   0.549  0.2021 -0.3338 -0.0421
  699SOL     OW 2841   0.822   0.309   3.344 -0.0981 -0.1314 -0.6752
  699SOL    HW2 2842   0.747   0.252   3.360  1.7121 -1.7987  2.1051
  699SOL    HW3 2843   0.783   0.395   3.325 -2.7196 -1.3319 -0.9016
  699SOL    MW4 2844   0.807   0.313   3.343 -0.2052 -0.5097 -0.3381
  700SOL     OW 2845   0.176   0.599   4.443 -0.1778 -0.1721 -0.2167
  700SOL    HW2 2846   0.255   0.575   4.492 -0.2213  0.0230 -0.0532
  700SOL    HW3 2847   0.198   0.578   4.352 -0.4406 -1.4354 -0.0022
  700SOL    MW4 2848   0.189   0.593   4.437 -0.2182 -0.3130 -0.1664
  701SOL     OW 2849   2.564   2.000   0.774 -0.4198 -0.1033  0.3393
  701SOL    HW2 2850   2.481   1.965   0.740 -0.4912 -1.0620  1.4575
  701SOL    HW3 2851   2.538   2.078   0.823 -0.2838  1.4474 -1.9957
  701SOL    MW4 2852   2.549   2.005   0.776 -0.4110 -0.0250  0.1787
  702SOL     OW 2853   0.199   3.061   1.582  0.1022  0.3093 -0.1473
  702SOL    HW2 2854   0.215   3.155   1.587  0.7576  0.2022 -0.2705
  702SOL    HW3 2855   0.207   3.031   1.673  0.8314  0.2193 -0.2388
  702SOL    MW4 2856   0.202   3.069   1.595  0.2849  0.2832 -0.1757
  703SOL     OW 2857   3.350   0.680   4.149  0.5625 -0.5402  0.1562
  703SOL    HW2 2858   3.301   0.611   4.104 -0.0072 -0.1671  0.1910
  703SOL    HW3 2859   3.283   0.746   4.171  1.0768 -0.0438  0.2441
  703SOL    MW4 2860   3.335   0.680   4.146  0.5553 -0.4254  0.1721
  704SOL     OW 2861   2.384   4.582   2.643  0.2329  0.3834  0.8318
  704SOL    HW2 2862   2.354   4.626   2.563  0.0869 -1.0838  0.0703
  704SOL    HW3 2863   2.361   4.490   2.630  4.3498 -0.7059  0.5480
  704SOL    MW4 2864   2.377   4.576   2.631  0.7567  0.0458  0.6938
  705SOL     OW 2865   2.323   3.905   4.092  0.0668  0.0509 -0.0723
  705SOL    HW2 2866   2.339   3.999   4.084  3.2749 -0.0447  3.7568
  705SOL    HW3 2867   2.384   3.865   4.030 -0.8498  0.3982 -1.2339
  705SOL    MW4 2868   2.333   3.912   4.083  0.3691  0.0844  0.2799
  706SOL     OW 2869   0.586   1.343   1.171 -0.2726  0.3562  0.7209
  706SOL    HW2 2870   0.670   1.368   1.134 -0.0649 -0.6073  0.5301
  706SOL    HW3 2871   0.603   1.262   1.218 -0.6701  1.2281  2.3991
  706SOL    MW4 2872   0.599   1.336   1.172 -0.2977  0.3440  0.9172
  707SOL     OW 2873   4.224   4.508   3.096  0.0283 -0.4625  0.4500
  707SOL    HW2 2874   4.158   4.561   3.140 -0.6923  0.0722 -1.2180
  707SOL    HW3 2875   4.179   4.474   3.018  1.8369  0.3315 -0.9786
  707SOL    MW4 2876   4.209   4.510   3.092  0.1726 -0.2871  0.0417
  708SOL     OW 2877   3.645   4.315   0.843 -0.3077 -0.1474  0.7200
  708SOL    HW2 2878   3.659   4.341   0.752  0.4107 -0.6198  0.6973
  708SOL    HW3 2879   3.730   4.326   0.885  0.1397 -2.8563  0.6135
  708SOL    MW4 2880   3.658   4.320   0.836 -0.1540 -0.5674  0.7030
  709SOL     OW 2881   0.788   4.546   3.897 -0.0390  0.5314 -0.0453
  709SOL    HW2 2882   0.785   4.641   3.909  0.0116  0.6227 -0.7374
  709SOL    HW3 2883   0.708   4.514   3.939 -0.5893  0.9831 -0.7526
  709SOL    MW4 2884   0.777   4.554   3.904 -0.1049  0.6027 -0.2301
  710SOL     OW 2885   2.622   1.391   2.497 -0.4554 -0.1410  0.3139
  710SOL    HW2 2886   2.591   1.315   2.448  2.2804 -2.3023  1.7980
  710SOL    HW3 2887   2.643   1.357   2.584  0.7376  2.3235  1.0431
  710SOL    MW4 2888   2.620   1.377   2.502  0.0629 -0.1010  0.6058
  711SOL     OW 2889   2.696   1.678   1.824  0.2631 -0.0737  0.1449
  711SOL    HW2 2890   2.695   1.644   1.734 -1.0772  1.4387 -0.4464
  711SOL    HW3 2891   2.727   1.768   1.815 -0.4375  0.2717  1.1417
  711SOL    MW4 2892   2.700   1.685   1.811 -0.0060  0.1714  0.1984
  712SOL     OW 2893   1.381   4.207   2.372 -0.4267 -0.4690 -0.0157
  712SOL    HW2 2894   1.434   4.140   2.414 -1.2758 -1.6619 -0.8441
  712SOL    HW3 2895   1.366   4.175   2.284 -4.1423 -1.0768  0.7641
  712SOL    MW4 2896   1.386   4.194   2.366 -1.0289 -0.7062 -0.0222
  713SOL     OW 2897   3.696   4.607   4.353  0.3114 -0.0441  0.5172
  713SOL    HW2 2898   3.776   4.599   4.301  1.0486  0.5251  1.5241
  713SOL    HW3 2899   3.690   4.524   4.401 -0.5388 -0.6899 -0.7112
  713SOL    MW4 2900   3.706   4.595   4.353  0.2961 -0.0544  0.4883
  714SOL     OW 2901   0.211   3.230   4.251 -0.3973 -0.2562 -0.1694
  714SOL    HW2 2902   0.138   3.233   4.314  0.2408  2.8237  0.5111
  714SOL    HW3 2903   0.176   3.270   4.172  0.0736 -0.2568 -0.3772
  714SOL    MW4 2904   0.197   3.236   4.249 -0.2510  0.1502 -0.1073
  715SOL     OW 2905   0.581   4.491   1.898 -1.0691  0.0475  0.1619
  715SOL    HW2 2906   0.613   4.434   1.828  0.8559  0.0447  1.0334
  715SOL    HW3 2907   0.527   4.433   1.953 -0.6561 -0.4903  0.0010
  715SOL    MW4 2908   0.578   4.476   1.896 -0.7606 -0.0234  0.2556
  716SOL     OW 2909   2.217   1.497   3.163 -0.3503  0.0705  0.3362
  716SOL    HW2 2910   2.243   1.586   3.184  0.7024 -0.1617  0.0382
  716SOL    HW3 2911   2.261   1.443   3.229 -0.0997 -0.3239 -0.1495
  716SOL    MW4 2912   2.226   1.501   3.175 -0.1786 -0.0120  0.2329
  717SOL     OW 2913   1.420   1.079   1.396  0.0588  0.0455  0.3238
  717SOL    HW2 2914   1.375   1.095   1.314 -0.1196 -1.2621  0.1635
  717SOL    HW3 2915   1.425   1.166   1.438  0.5209  0.7925 -1.2310
  717SOL    MW4 2916   1.415   1.093   1.391  0.0962 -0.0285  0.0975
  718SOL     OW 2917   3.241   3.282   2.368 -0.1781 -0.4119 -0.3161
  718SOL    HW2 2918   3.160   3.240   2.337 -1.2870  0.1356  1.7570
  718SOL    HW3 2919   3.283   3.215   2.422 -0.2469 -0.0287  0.2194
  718SOL    MW4 2920   3.236   3.267   2.371 -0.3331 -0.2892  0.0279
  719SOL     OW 2921   2.822   0.270   4.029  0.2172 -0.2843  0.0436
  719SOL    HW2 2922   2.829   0.365   4.024  1.8989 -0.4047 -0.1599
  719SOL    HW3 2923   2.835   0.241   3.938 -3.3115 -0.5619 -0.4484
  719SOL    MW4 2924   2.825   0.279   4.016 -0.0265 -0.3368 -0.0477
  720SOL     OW 2925   1.687   1.358   3.552 -0.5043 -0.2190 -0.3302
  720SOL    HW2 2926   1.753   1.351   3.622 -2.3865 -1.2925  1.3832
  720SOL    HW3 2927   1.631   1.282   3.565 -1.2959 -0.0487 -2.6270
  720SOL    MW4 2928   1.689   1.347   3.563 -0.8570 -0.3383 -0.4072
  721SOL     OW 2929   3.061   3.851   2.575  0.1797 -0.1744  0.0729
  721SOL    HW2 2930   3.069   3.830   2.668 -1.3507  0.0010  0.2563
  721SOL    HW3 2931   3.011   3.779   2.538  0.9834 -0.3600 -0.6707
  721SOL    MW4 2932   3.056   3.839   2.583  0.0839 -0.1757 -0.0007
  722SOL     OW 2933   2.149   3.444   2.476 -0.1677  0.0702  0.8480
  722SOL    HW2 2934   2.146   3.352   2.450 -1.5465 -0.0367  1.3403
  722SOL    HW3 2935   2.241   3.468   2.469  0.0937 -1.1454  0.0213
  722SOL    MW4 2936   2.161   3.435   2.472 -0.3154 -0.1044  0.8042
  723SOL     OW 2937   1.860   3.702   2.034 -0.3240 -0.3398  0.7110
  723SOL    HW2 2938   1.812   3.721   2.114  0.2247  2.9668  0.3396
  723SOL    HW3 2939   1.795   3.708   1.965 -0.0781  0.5910  0.5546
  723SOL    MW4 2940   1.845   3.705   2.035 -0.2192  0.2191  0.6411
  724SOL     OW 2941   0.081   2.000   0.617  0.1951  0.3826  0.0463
  724SOL    HW2 2942   0.095   2.024   0.525  0.8921  0.3658  0.1433
  724SOL    HW3 2943  -0.013   1.986   0.625  0.1640  0.1637 -0.7197
  724SOL    MW4 2944   0.071   2.001   0.606  0.2830  0.3512 -0.0420
  725SOL     OW 2945   3.801   0.305   4.305  0.2098  0.2577  0.0573
  725SOL    HW2 2946   3.896   0.303   4.292  0.1039  1.7397 -0.9954
  725SOL    HW3 2947   3.776   0.395   4.288 -1.3278  0.0113  0.8883
  725SOL    MW4 2948   3.810   0.316   4.301 -0.0072  0.4207  0.0281
  726SOL     OW 2949   3.638   1.655   3.532  0.4611 -0.0875 -0.2936
  726SOL    HW2 2950   3.688   1.736   3.542 -0.9176  1.0846 -2.3729
  726SOL    HW3 2951   3.704   1.586   3.532  1.7322  1.0958  0.6790
  726SOL    MW4 2952   3.653   1.657   3.533  0.4470  0.2233 -0.4396
  727SOL     OW 2953   4.100   0.967   3.239 -0.3347 -0.3538  0.0335
  727SOL    HW2 2954   4.130   0.962   3.330 -2.0003 -1.6969  0.5576
  727SOL    HW3 2955   4.157   0.907   3.192  0.8074  0.6630  0.1064
  727SOL    MW4 2956   4.111   0.958   3.245 -0.4039 -0.3968  0.1123
  728SOL     OW 2957   0.840   3.844   4.704 -0.6460  0.6716 -0.0281
  728SOL    HW2 2958   0.759   3.888   4.677 -0.2440  0.9821 -0.7205
  728SOL    HW3 2959   0.905   3.915   4.710 -0.3409  0.3729  0.2112
  728SOL    MW4 2960   0.838   3.859   4.701 -0.5528  0.6731 -0.0877
  729SOL     OW 2961   3.902   2.510   2.489  0.1699  0.0813  0.3691
  729SOL    HW2 2962   3.852   2.559   2.423  2.1449 -1.1187 -2.1363
  729SOL    HW3 2963   3.888   2.557   2.571 -3.0494  1.1572 -0.7291
  729SOL    MW4 2964   3.893   2.523   2.491  0.0055  0.0648 -0.1063
  730SOL     OW 2965   2.976   3.564   1.595 -0.1364  0.4244 -0.5636
  730SOL    HW2 2966   3.012   3.589   1.510  0.4691  0.7869 -0.1993
  730SOL    HW3 2967   2.943   3.646   1.631 -1.0007  0.1598 -0.7324
  730SOL    MW4 2968   2.976   3.578   1.588 -0.1705  0.4377 -0.5379
  731SOL     OW 2969   3.572   2.966   3.192  0.4593 -0.4124  0.2836
  731SOL    HW2 2970   3.583   3.019   3.113  0.0310 -0.8930 -0.0949
  731SOL    HW3 2971   3.661   2.952   3.224  0.6526 -0.5005 -0.2966
  731SOL    MW4 2972   3.585   2.971   3.186  0.4282 -0.4873  0.1569
  732SOL     OW 2973   3.381   0.459   1.709  0.1936  0.3469  0.3502
  732SOL    HW2 2974   3.313   0.477   1.774 -1.0141  1.9996 -1.3379
  732SOL    HW3 2975   3.336   0.415   1.638  1.2670 -0.2922  0.0477
  732SOL    MW4 2976   3.366   0.456   1.708  0.1757  0.4807  0.0875
  733SOL     OW 2977   1.673   1.888   3.919 -0.3061  0.4044  0.5412
  733SOL    HW2 2978   1.731   1.864   3.847 -0.5486 -0.1922  0.5443
  733SOL    HW3 2979   1.602   1.823   3.916 -0.6408  0.7460  0.9306
  733SOL    MW4 2980   1.671   1.876   3.909 -0.3823  0.3707  0.5932
  734SOL     OW 2981   1.471   3.952   2.491 -0.4631 -0.1120 -0.5961
  734SOL    HW2 2982   1.537   3.978   2.427  0.6395 -0.1473  0.5241
  734SOL    HW3 2983   1.495   3.997   2.572  1.0123 -3.8635  1.1562
  734SOL    MW4 2984   1.483   3.961   2.493 -0.1230 -0.6115 -0.2172
  735SOL     OW 2985   4.456   4.210   0.813 -0.2012  0.2888 -0.1282
  735SOL    HW2 2986   4.475   4.153   0.738 -1.5355  1.5170 -1.4378
  735SOL    HW3 2987   4.379   4.170   0.854  0.2311 -0.1038  0.3143
  735SOL    MW4 2988   4.448   4.197   0.808 -0.3200  0.3986 -0.2425
  736SOL     OW 2989   0.324   0.922   1.761 -0.0724  0.3370  0.0535
  736SOL    HW2 2990   0.318   0.828   1.740 -1.9245  0.4345  0.0047
  736SOL    HW3 2991   0.314   0.966   1.676 -0.8542  0.6011  0.2791
  736SOL    MW4 2992   0.322   0.915   1.747 -0.4199  0.3847  0.0769
  737SOL     OW 2993   0.100   1.863   1.526  0.1888 -0.4880  0.0328
  737SOL    HW2 2994   0.034   1.800   1.498  0.2774 -0.3973 -0.3885
  737SOL    HW3 2995   0.081   1.879   1.618  0.1499 -1.1077  0.1332
  737SOL    MW4 2996   0.089   1.857   1.534  0.1953 -0.5578 -0.0094
  738SOL     OW 2997   2.415   0.497   4.082  0.5089  0.5691  0.3053
  738SOL    HW2 2998   2.497   0.529   4.044  0.1427  0.5635 -0.5072
  738SOL    HW3 2999   2.412   0.405   4.056  0.4834  0.4455  0.7526
  738SOL    MW4 3000   2.426   0.489   4.073  0.4573  0.5520  0.2575
  739SOL     OW 3001   0.801   0.402   1.696 -0.1872  0.4206  0.0470
  739SOL    HW2 3002   0.735   0.340   1.727 -2.4015  2.5557 -0.2879
  739SOL    HW3 3003   0.787   0.481   1.748 -0.1436  2.0578 -2.3340
  739SOL    MW4 3004   0.791   0.404   1.707 -0.4736  0.9183 -0.3113
  740SOL     OW 3005   4.344   2.553   2.763 -0.4134 -0.6279 -0.0446
  740SOL    HW2 3006   4.434   2.519   2.761  0.1490  0.8218 -0.4160
  740SOL    HW3 3007   4.350   2.631   2.818 -1.2901 -0.0566 -0.7551
  740SOL    MW4 3008   4.357   2.559   2.770 -0.4549 -0.3612 -0.1869
  741SOL     OW 3009   0.549   2.935   4.380  0.0420  0.0873 -0.0042
  741SOL    HW2 3010   0.467   2.894   4.354  1.0925 -1.9370 -0.3144
  741SOL    HW3 3011   0.559   2.914   4.473 -0.0398  0.7596  0.1567
  741SOL    MW4 3012   0.540   2.926   4.389  0.1698 -0.0911 -0.0238
  742SOL     OW 3013   0.939   1.621   4.085  0.1505  0.7844 -0.2472
  742SOL    HW2 3014   0.871   1.582   4.141 -0.5721  1.9522 -0.2798
  742SOL    HW3 3015   0.895   1.696   4.044  0.9865  0.5788 -1.5539
  742SOL    MW4 3016   0.924   1.626   4.087  0.1655  0.9112 -0.4244
  743SOL     OW 3017   1.881   3.284   4.213  0.2565  0.0596 -0.2340
  743SOL    HW2 3018   1.934   3.280   4.292  0.5407  0.7765 -0.3868
  743SOL    HW3 3019   1.810   3.345   4.235  1.5162  1.9212 -1.2305
  743SOL    MW4 3020   1.878   3.292   4.226  0.4603  0.3998 -0.3848
  744SOL     OW 3021   0.589   1.693   1.164 -0.4886  0.2874  0.0669
  744SOL    HW2 3022   0.566   1.668   1.253 -1.2324  0.9214  0.0637
  744SOL    HW3 3023   0.522   1.652   1.109 -1.4011  1.8103  0.0161
  744SOL    MW4 3024   0.577   1.684   1.168 -0.7071  0.5721  0.0597
  745SOL     OW 3025   0.492   1.573   1.435 -0.1863  0.2265  0.1709
  745SOL    HW2 3026   0.520   1.605   1.521 -0.2989  1.3686 -0.2123
  745SOL    HW3 3027   0.532   1.487   1.428 -3.2137 -1.5471  2.9711
  745SOL    MW4 3028   0.501   1.566   1.446 -0.6006  0.1432  0.4897
  746SOL     OW 3029   0.059   3.339   3.921  0.1543  0.0758  0.0994
  746SOL    HW2 3030   0.134   3.342   3.861  0.2383 -1.5099  0.0929
  746SOL    HW3 3031   0.028   3.248   3.916 -0.8827  0.3507  1.1922
  746SOL    MW4 3032   0.064   3.327   3.912  0.0285 -0.0968  0.2429
  747SOL     OW 3033   2.501   3.520   2.195 -0.4323 -0.1475  0.5291
  747SOL    HW2 3034   2.443   3.530   2.271 -2.9583 -0.3744 -1.3104
  747SOL    HW3 3035   2.472   3.439   2.153  0.7482  0.1397 -0.8743
  747SOL    MW4 3036   2.490   3.511   2.200 -0.6096 -0.1395  0.1011
  748SOL     OW 3037   1.272   1.493   0.539 -0.3378  0.0100 -0.5414
  748SOL    HW2 3038   1.362   1.510   0.565  0.4206 -1.1636 -2.2683
  748SOL    HW3 3039   1.277   1.411   0.489 -2.5161 -0.6078  0.1895
  748SOL    MW4 3040   1.284   1.484   0.536 -0.5250 -0.2265 -0.6728
  749SOL     OW 3041   2.871   1.419   0.787 -0.0578 -0.1342 -0.6096
  749SOL    HW2 3042   2.836   1.439   0.874  0.9888 -0.6729 -0.0569
  749SOL    HW3 3043   2.881   1.324   0.786 -1.8648 -0.3405 -2.0277
  749SOL    MW4 3044   2.867   1.409   0.798 -0.1583 -0.2325 -0.7238
  750SOL     OW 3045   2.748   1.408   1.899 -0.0672 -0.0168 -0.1327
  750SOL    HW2 3046   2.743   1.504   1.892  0.5981  0.0923  0.8436
  750SOL    HW3 3047   2.743   1.390   1.993  1.5464 -0.8357 -0.1939
  750SOL    MW4 3048   2.746   1.419   1.910  0.2334 -0.1104 -0.0120
  751SOL     OW 3049   1.311   1.360   3.222  0.0524  0.1455 -0.2942
  751SOL    HW2 3050   1.403   1.356   3.248 -0.0978  1.5966  0.4891
  751SOL    HW3 3051   1.314   1.371   3.127  0.6143 -3.5009 -0.7795
  751SOL    MW4 3052   1.323   1.361   3.213  0.1068 -0.1441 -0.2551
  752SOL     OW 3053   1.655   2.449   3.943 -0.0884 -0.2419 -0.1547
  752SOL    HW2 3054   1.624   2.420   3.857  0.2317  0.7770 -0.6200
  752SOL    HW3 3055   1.605   2.397   4.006 -2.0389  0.6688 -0.9158
  752SOL    MW4 3056   1.644   2.438   3.940 -0.3034  0.0124 -0.3164
  753SOL     OW 3057   0.886   4.120   3.883 -0.2783 -0.6085  0.0115
  753SOL    HW2 3058   0.795   4.147   3.890  0.4160  1.2659  2.4070
  753SOL    HW3 3059   0.915   4.154   3.798 -1.5412 -0.4391 -0.3572
  753SOL    MW4 3060   0.878   4.128   3.873 -0.3532 -0.3390  0.2789
  754SOL     OW 3061   4.119   1.432   2.225 -0.7593  0.2339 -0.6496
  754SOL    HW2 3062   4.032   1.411   2.259 -0.0828 -0.9850  0.3973
  754SOL    HW3 3063   4.139   1.518   2.262 -1.3662  0.3589 -0.6076
  754SOL    MW4 3064   4.110   1.441   2.234 -0.7501  0.0895 -0.5062
  755SOL     OW 3065   0.301   2.720   0.602 -0.3214  0.3507  0.2733
  755SOL    HW2 3066   0.323   2.714   0.509  0.7086 -1.4862  0.6002
  755SOL    HW3 3067   0.379   2.757   0.642  0.3858 -1.5813  0.7659
  755SOL    MW4 3068   0.314   2.724   0.595 -0.0922 -0.1464  0.3815
  756SOL     OW 3069   2.455   3.734   3.636  0.1790 -0.1081 -0.2482
  756SOL    HW2 3070   2.397   3.750   3.561  0.3045  0.2359 -0.2699
  756SOL    HW3 3071   2.531   3.689   3.598 -0.4151 -1.2507 -0.1044
  756SOL    MW4 3072   2.458   3.730   3.621  0.1175 -0.2134 -0.2320
  757SOL     OW 3073   4.148   2.222   1.304  0.2365  0.1510 -0.0632
  757SOL    HW2 3074   4.124   2.207   1.212 -0.2254  0.6245 -0.0227
  757SOL    HW3 3075   4.217   2.158   1.321 -0.2522 -0.5042 -0.5025
  757SOL    MW4 3076   4.154   2.211   1.294  0.1106  0.1271 -0.1158
  758SOL     OW 3077   4.125   0.352   2.848  0.3214 -0.1923 -0.2916
  758SOL    HW2 3078   4.206   0.335   2.799  0.3826  0.8288 -0.5590
  758SOL    HW3 3079   4.056   0.346   2.782  0.3290  0.4289 -0.3596
  758SOL    MW4 3080   4.127   0.349   2.833  0.3304  0.0244 -0.3357
  759SOL     OW 3081   2.942   2.188   2.895  0.0284 -0.2548  0.0942
  759SOL    HW2 3082   2.904   2.100   2.893  1.0147 -0.7538  2.2952
  759SOL    HW3 3083   3.001   2.188   2.970  1.0051  1.9101 -0.6179
  759SOL    MW4 3084   2.945   2.177   2.904  0.2878 -0.0350  0.2906
  760SOL     OW 3085   1.059   4.213   4.089 -0.1142  0.6427 -0.2199
  760SOL    HW2 3086   1.002   4.177   4.020  0.1526  1.2138 -0.7428
  760SOL    HW3 3087   1.063   4.307   4.070  1.4647  0.5302 -0.5253
  760SOL    MW4 3088   1.052   4.221   4.077  0.1291  0.7024 -0.3290
  761SOL     OW 3089   4.180   2.005   2.547  0.3752 -0.1509  0.2830
  761SOL    HW2 3090   4.143   1.917   2.542 -1.1947  0.5299 -0.2666
  761SOL    HW3 3091   4.233   2.013   2.468  0.6569 -0.6579  0.4173
  761SOL    MW4 3092   4.182   1.995   2.536  0.2055 -0.1280  0.2282
  762SOL     OW 3093   1.802   0.417   2.718  0.4170 -0.1601  0.1838
  762SOL    HW2 3094   1.845   0.378   2.641 -0.1735  0.4266 -0.4548
  762SOL    HW3 3095   1.765   0.499   2.685 -1.1411 -0.6333  0.7325
  762SOL    MW4 3096   1.803   0.422   2.703  0.1335 -0.1451  0.1717
  763SOL     OW 3097   4.311   4.658   2.484 -0.1220  0.1857 -0.0759
  763SOL    HW2 3098   4.360   4.739   2.467 -1.4617  1.1195  0.3977
  763SOL    HW3 3099   4.219   4.685   2.478 -0.5798 -1.1513  0.8423
  763SOL    MW4 3100   4.305   4.672   2.481 -0.3595  0.1325  0.1078
  764SOL     OW 3101   3.219   2.366   0.863 -0.0463  0.1910  0.0594
  764SOL    HW2 3102   3.173   2.441   0.901 -0.8612  0.4037 -1.2873
  764SOL    HW3 3103   3.306   2.399   0.842 -0.8229  1.1721 -1.7517
  764SOL    MW4 3104   3.224   2.380   0.865 -0.2565  0.3486 -0.3572
  765SOL     OW 3105   0.101   4.420   4.312 -0.1278 -0.1815  0.5265
  765SOL    HW2 3106   0.083   4.502   4.357  1.6140  0.0572  0.8043
  765SOL    HW3 3107   0.161   4.444   4.242 -0.4845 -1.0428 -0.0805
  765SOL    MW4 3108   0.107   4.434   4.309  0.0549 -0.2637  0.4830
  766SOL     OW 3109   1.872   4.605   0.853  0.0381  0.4171  0.0462
  766SOL    HW2 3110   1.777   4.602   0.845  0.2616 -2.0965 -2.4397
  766SOL    HW3 3111   1.902   4.633   0.766  1.5868  1.0536  0.7654
  766SOL    MW4 3112   1.864   4.608   0.841  0.2718  0.1693 -0.1869
  767SOL     OW 3113   2.658   1.359   3.915  0.2310  0.3331  1.1220
  767SOL    HW2 3114   2.564   1.368   3.928  0.3093  2.7012  0.2824
  767SOL    HW3 3115   2.671   1.378   3.822  1.4934 -0.3929  1.1430
  767SOL    MW4 3116   2.647   1.363   3.905  0.4077  0.5497  1.0138
  768SOL     OW 3117   2.712   1.722   3.533  0.2512  0.0845  0.1697
  768SOL    HW2 3118   2.724   1.648   3.592 -0.6417 -2.0058 -2.1848
  768SOL    HW3 3119   2.800   1.744   3.503  0.5066 -0.0913  0.7944
  768SOL    MW4 3120   2.725   1.715   3.537  0.1669 -0.2143 -0.0584
  769SOL     OW 3121   1.599   1.198   2.639 -0.1447 -0.1968 -0.2097
  769SOL    HW2 3122   1.663   1.135   2.606  0.1861 -0.0429  0.1379
  769SOL    HW3 3123   1.591   1.263   2.568  1.0754  0.5040  0.2814
  769SOL    MW4 3124   1.606   1.199   2.625  0.0600 -0.0840 -0.0989
  770SOL     OW 3125   2.240   3.958   1.705 -0.1672 -0.4118 -0.4174
  770SOL    HW2 3126   2.309   3.892   1.701  0.3984  0.1834 -0.6187
  770SOL    HW3 3127   2.261   4.019   1.634  0.1264  0.7568  0.6497
  770SOL    MW4 3128   2.252   3.957   1.695 -0.0539 -0.1791 -0.3033
  771SOL     OW 3129   3.788   4.126   3.065  0.2907  0.0493 -0.3497
  771SOL    HW2 3130   3.829   4.132   3.151  1.3752 -0.5547 -0.8169
  771SOL    HW3 3131   3.838   4.059   3.019 -1.8565 -1.4649 -0.5803
  771SOL    MW4 3132   3.800   4.118   3.070  0.1507 -0.2298 -0.4420
  772SOL     OW 3133   2.483   3.085   2.747 -0.4331  0.4728  0.1823
  772SOL    HW2 3134   2.529   3.103   2.830  0.9324 -1.3640 -0.1426
  772SOL    HW3 3135   2.479   2.989   2.743 -0.8763  0.5645 -1.6760
  772SOL    MW4 3136   2.488   3.074   2.758 -0.3114  0.2425 -0.1054
  773SOL     OW 3137   0.259   3.064   4.581  0.4690 -0.1203 -0.5047
  773SOL    HW2 3138   0.198   3.134   4.556  1.6775  0.6133 -1.4748
  773SOL    HW3 3139   0.213   2.983   4.561 -0.6138  0.4042 -0.1788
  773SOL    MW4 3140   0.245   3.063   4.575  0.4856  0.0455 -0.5898
  774SOL     OW 3141   3.515   1.776   2.703 -0.3078 -0.2616 -0.2126
  774SOL    HW2 3142   3.576   1.849   2.710 -1.0012  0.2520  0.6746
  774SOL    HW3 3143   3.459   1.785   2.780 -1.4600 -0.7571 -0.9769
  774SOL    MW4 3144   3.516   1.787   2.714 -0.5512 -0.2590 -0.1962
  775SOL     OW 3145   4.443   4.507   2.293  0.1187  0.1452  0.4681
  775SOL    HW2 3146   4.427   4.560   2.371 -3.0231 -1.1958  0.8243
  775SOL    HW3 3147   4.407   4.421   2.315 -0.0511 -0.5049 -2.1486
  775SOL    MW4 3148   4.436   4.503   2.306 -0.3181 -0.1173  0.1698
  776SOL     OW 3149   0.547   2.243   3.334 -0.5982 -0.8113 -0.1026
  776SOL    HW2 3150   0.459   2.271   3.309 -0.5469 -0.7621 -0.2275
  776SOL    HW3 3151   0.601   2.263   3.258 -0.1453  0.7891  0.6107
  776SOL    MW4 3152   0.542   2.249   3.320 -0.5317 -0.5934 -0.0250
  777SOL     OW 3153   2.731   0.700   2.837 -0.0750 -0.1974  0.2676
  777SOL    HW2 3154   2.749   0.614   2.798 -0.7828  0.0474 -0.6109
  777SOL    HW3 3155   2.737   0.685   2.931 -0.7884 -1.3573  0.1414
  777SOL    MW4 3156   2.734   0.686   2.844 -0.2627 -0.3182  0.1352
  778SOL     OW 3157   4.407   1.213   2.589 -0.2768  0.2212  0.0883
  778SOL    HW2 3158   4.316   1.216   2.560 -0.8496  2.4757  1.9418
  778SOL    HW3 3159   4.403   1.242   2.680  2.0378 -1.8784  0.9124
  778SOL    MW4 3160   4.394   1.217   2.598 -0.0472  0.2415  0.4418
  779SOL     OW 3161   3.881   0.699   2.373  0.3104 -0.2617 -0.3437
  779SOL    HW2 3162   3.926   0.622   2.340  1.6959  0.4244 -0.1006
  779SOL    HW3 3163   3.828   0.667   2.446 -0.2753 -1.2172 -1.1725
  779SOL    MW4 3164   3.880   0.685   2.378  0.4156 -0.2972 -0.4210
  780SOL     OW 3165   1.442   3.629   2.231 -0.2534  0.2840 -0.2151
  780SOL    HW2 3166   1.426   3.604   2.322  0.9917 -1.1140 -0.3700
  780SOL    HW3 3167   1.533   3.660   2.231 -0.1739  0.0419 -1.0355
  780SOL    MW4 3168   1.452   3.630   2.243 -0.0787  0.0677 -0.3438
  781SOL     OW 3169   0.758   0.686   1.055  0.3012 -0.2929 -0.0593
  781SOL    HW2 3170   0.724   0.599   1.038 -1.1875  0.0825  0.8632
  781SOL    HW3 3171   0.682   0.744   1.044  1.2437  0.8725 -0.5829
  781SOL    MW4 3172   0.744   0.682   1.051  0.2292 -0.0896 -0.0067
  782SOL     OW 3173   3.977   2.885   1.349  0.2178 -0.0906 -0.0182
  782SOL    HW2 3174   3.965   2.949   1.420 -0.9265  0.1509 -0.4096
  782SOL    HW3 3175   3.893   2.886   1.303  1.0824  0.0585 -1.6208
  782SOL    MW4 3176   3.964   2.894   1.352  0.1807 -0.0391 -0.2813
  783SOL     OW 3177   2.102   3.971   0.665  0.2223 -0.0276 -0.5529
  783SOL    HW2 3178   2.018   4.012   0.645  0.7312  1.5734  0.5310
  783SOL    HW3 3179   2.080   3.898   0.722 -0.3983  0.7237  0.1834
  783SOL    MW4 3180   2.088   3.967   0.670  0.2077  0.2825 -0.3128
  784SOL     OW 3181   3.755   1.992   2.761 -0.1605  0.5651 -0.4849
  784SOL    HW2 3182   3.735   2.078   2.797 -0.7937  0.5110 -0.7068
  784SOL    HW3 3183   3.804   2.010   2.681  1.9646  0.6767  0.7890
  784SOL    MW4 3184   3.759   2.006   2.755  0.0365  0.5727 -0.3462
  785SOL     OW 3185   2.887   2.552   1.714 -0.3000 -0.0006 -0.4820
  785SOL    HW2 3186   2.968   2.602   1.711 -0.1860 -0.1614 -0.1336
  785SOL    HW3 3187   2.872   2.524   1.624 -1.0717  1.7722 -0.9282
  785SOL    MW4 3188   2.895   2.555   1.702 -0.3867  0.2120 -0.4948
  786SOL     OW 3189   0.756   2.004   4.200 -0.7856  0.3029  0.4969
  786SOL    HW2 3190   0.691   1.943   4.234 -0.4780  0.4267  1.3332
  786SOL    HW3 3191   0.804   2.033   4.278  2.6829 -2.5299 -0.4273
  786SOL    MW4 3192   0.754   2.000   4.215 -0.2874 -0.0544  0.4849
  787SOL     OW 3193   0.320   4.027   1.863 -0.3377  0.0129 -0.0255
  787SOL    HW2 3194   0.312   4.058   1.772  3.3920 -1.5141 -0.9766
  787SOL    HW3 3195   0.366   4.097   1.908  1.8875 -1.1002 -0.4868
  787SOL    MW4 3196   0.325   4.040   1.857  0.4480 -0.3357 -0.2118
  788SOL     OW 3197   1.674   0.569   2.150 -0.1043 -0.7007 -0.2993
  788SOL    HW2 3198   1.585   0.563   2.185 -0.0304 -0.3835 -0.0558
  788SOL    HW3 3199   1.721   0.622   2.214 -0.6337  2.1594 -2.1922
  788SOL    MW4 3200   1.668   0.575   2.163 -0.1645 -0.2815 -0.5169
  789SOL     OW 3201   2.676   2.863   2.623  0.3065 -0.2481  0.5041
  789SOL    HW2 3202   2.585   2.852   2.594  0.5757  0.9919 -0.9252
  789SOL    HW3 3203   2.691   2.792   2.684 -1.2109 -1.2729 -0.2837
  789SOL    MW4 3204   2.666   2.852   2.627  0.1419 -0.2198  0.2117
  790SOL     OW 3205   1.883   2.496   1.912 -0.1272  0.1200  0.4362
  790SOL    HW2 3206   1.941   2.571   1.900 -0.5436  0.2132 -1.1219
  790SOL    HW3 3207   1.886   2.479   2.006  0.7374  1.4681  0.6795
  790SOL    MW4 3208   1.891   2.504   1.923 -0.0679  0.3102  0.2629
  791SOL     OW 3209   4.488   3.620   2.116 -0.0577  0.5402  0.1397
  791SOL    HW2 3210   4.557   3.574   2.069 -1.1616 -0.2649 -0.7407
  791SOL    HW3 3211   4.416   3.557   2.120 -0.6774  1.2921  1.2033
  791SOL    MW4 3212   4.487   3.606   2.110 -0.2850  0.5331  0.1638
  792SOL     OW 3213   3.291   3.309   3.736 -0.5753  0.3021  0.2153
  792SOL    HW2 3214   3.345   3.373   3.688  0.2374  0.2570  1.0599
  792SOL    HW3 3215   3.295   3.230   3.682  1.2798 -0.1051  0.9082
  792SOL    MW4 3216   3.299   3.307   3.722 -0.2232  0.2422  0.4182
  793SOL     OW 3217   0.608   1.520   4.214  0.1184 -0.1273 -0.1127
  793SOL    HW2 3218   0.605   1.567   4.131  1.5692  0.7878  0.3389
  793SOL    HW3 3219   0.517   1.521   4.245 -0.1837  0.7839 -0.9894
  793SOL    MW4 3220   0.596   1.526   4.207  0.2699  0.1138 -0.1688
  794SOL     OW 3221   2.252   4.416   4.074 -0.4757  0.1762  0.2193
  794SOL    HW2 3222   2.262   4.506   4.043 -1.0940 -0.0086 -0.5381
  794SOL    HW3 3223   2.206   4.425   4.157 -2.7329  0.4320 -1.0233
  794SOL    MW4 3224   2.247   4.429   4.081 -0.8552  0.1855 -0.0443
  795SOL     OW 3225   4.423   2.789   4.069 -0.3098 -0.2544 -0.4126
  795SOL    HW2 3226   4.485   2.741   4.014 -1.5056  0.1787 -2.1924
  795SOL    HW3 3227   4.474   2.862   4.105  0.9973 -1.6772  0.6990
  795SOL    MW4 3228   4.438   2.792   4.067 -0.2952 -0.3850 -0.5007
  796SOL     OW 3229   0.230   2.673   3.636  0.2441 -0.1136  0.2964
  796SOL    HW2 3230   0.279   2.674   3.553  0.5999 -0.9889  0.4977
  796SOL    HW3 3231   0.221   2.766   3.659 -1.5431  0.2486 -1.7149
  796SOL    MW4 3232   0.235   2.686   3.628  0.0552 -0.1814  0.0575
  797SOL     OW 3233   0.985   0.600   3.744 -0.2516  0.0006  0.1803
  797SOL    HW2 3234   1.022   0.566   3.826  0.0428 -0.0807  0.0159
  797SOL    HW3 3235   1.055   0.654   3.708 -0.3555 -0.0219 -0.0517
  797SOL    MW4 3236   0.999   0.602   3.750 -0.2266 -0.0131  0.1278
  798SOL     OW 3237   0.683   0.196   4.116 -0.0872 -0.3251  0.1867
  798SOL    HW2 3238   0.712   0.190   4.025  0.6546  2.8030  0.1446
  798SOL    HW3 3239   0.594   0.161   4.115 -0.4567  0.5764 -1.9736
  798SOL    MW4 3240   0.675   0.191   4.104 -0.0381  0.2066 -0.1035
  799SOL     OW 3241   2.345   4.177   1.037 -0.3663 -0.4751  0.0459
  799SOL    HW2 3242   2.440   4.178   1.048 -0.6504  0.8882  2.9198
  799SOL    HW3 3243   2.332   4.183   0.942  2.4035 -1.5317 -0.4459
  799SOL    MW4 3244   2.356   4.178   1.026 -0.0384 -0.4349  0.3603
  800SOL     OW 3245   0.228   3.803   1.203 -0.0698 -0.2823 -0.5458
  800SOL    HW2 3246   0.159   3.843   1.150 -0.0320  0.6133  0.0552
  800SOL    HW3 3247   0.307   3.812   1.150 -0.2835 -0.6737 -0.9355
  800SOL    MW4 3248   0.229   3.810   1.189 -0.0930 -0.2158 -0.5178
  801SOL     OW 3249   1.920   0.640   2.304  0.1217 -0.6218  0.5404
  801SOL    HW2 3250   1.932   0.560   2.354  1.6320 -0.5607  0.2889
  801SOL    HW3 3251   1.913   0.709   2.371  4.0726 -0.2662  0.7167
  801SOL    MW4 3252   1.921   0.639   2.320  0.8423 -0.5668  0.5305
  802SOL     OW 3253   2.788   3.456   2.757  0.5328  0.0270  0.1459
  802SOL    HW2 3254   2.882   3.468   2.767  0.9315 -0.9541 -1.9926
  802SOL    HW3 3255   2.777   3.425   2.667 -1.5983 -2.3309  1.1300
  802SOL    MW4 3256   2.799   3.453   2.746  0.3042 -0.4137 -0.0064
  803SOL     OW 3257   2.209   2.486   1.771  0.7256 -0.2402  0.0344
  803SOL    HW2 3258   2.292   2.527   1.747  0.5050  0.6823  0.8024
  803SOL    HW3 3259   2.161   2.478   1.689  0.3534  1.9999 -0.0091
  803SOL    MW4 3260   2.214   2.491   1.757  0.6475  0.1769  0.1301
  804SOL     OW 3261   3.140   0.264   0.869 -0.0284 -0.1004 -0.4351
  804SOL    HW2 3262   3.169   0.344   0.826  0.7968 -0.8155 -1.2379
  804SOL    HW3 3263   3.220   0.229   0.910 -0.3692 -0.5628 -0.1646
  804SOL    MW4 3264   3.155   0.270   0.869  0.0355 -0.2558 -0.5053
  805SOL     OW 3265   3.580   1.474   4.654  0.0970  0.6403  0.2585
  805SOL    HW2 3266   3.502   1.522   4.627 -0.7334 -1.1140 -0.4942
  805SOL    HW3 3267   3.574   1.471   4.750 -0.2395  1.3823  0.2589
  805SOL    MW4 3268   3.569   1.480   4.663 -0.0570  0.5068  0.1588
  806SOL     OW 3269   2.178   3.217   3.571  0.1952  0.2260  0.1405
  806SOL    HW2 3270   2.208   3.192   3.658 -0.7828  1.8552  0.9786
  806SOL    HW3 3271   2.257   3.239   3.523  0.6490  0.6969  1.0885
  806SOL    MW4 3272   2.192   3.217   3.576  0.1259  0.5031  0.3765
  807SOL     OW 3273   1.540   4.592   2.704 -0.7810 -0.3985  0.5206
  807SOL    HW2 3274   1.511   4.666   2.650 -0.6222 -0.7228 -0.0203
  807SOL    HW3 3275   1.461   4.540   2.719 -0.7942 -0.4036  0.4377
  807SOL    MW4 3276   1.526   4.595   2.699 -0.7619 -0.4416  0.4382
  808SOL     OW 3277   2.696   2.712   1.822 -0.2881  0.1986  0.0299
  808SOL    HW2 3278   2.751   2.656   1.767  1.0287  1.0586  0.4416
  808SOL    HW3 3279   2.757   2.747   1.888 -1.5135  0.4818  1.0183
  808SOL    MW4 3280   2.712   2.709   1.824 -0.2761  0.3495  0.2146
  809SOL     OW 3281   3.130   2.692   1.507 -0.4741 -0.0962 -0.1245
  809SOL    HW2 3282   3.117   2.748   1.584  1.1356  1.7195 -1.1321
  809SOL    HW3 3283   3.225   2.675   1.506 -0.6877 -1.3300 -0.8979
  809SOL    MW4 3284   3.141   2.697   1.517 -0.2899 -0.0196 -0.3594
  810SOL     OW 3285   0.644   3.095   3.693 -0.0174 -0.2154 -0.3876
  810SOL    HW2 3286   0.728   3.092   3.646  0.0971  0.5305 -0.2506
  810SOL    HW3 3287   0.627   3.005   3.718  1.1584 -0.2704  0.2895
  810SOL    MW4 3288   0.653   3.083   3.690  0.1529 -0.1242 -0.2801
  811SOL     OW 3289   3.987   0.505   4.568 -0.6188  0.0846  0.3887
  811SOL    HW2 3290   3.924   0.437   4.593 -0.4144 -1.0868 -2.1462
  811SOL    HW3 3291   4.059   0.457   4.528  0.7112  1.6376  0.8764
  811SOL    MW4 3292   3.988   0.490   4.566 -0.4165  0.1349  0.1187
  812SOL     OW 3293   4.127   2.567   4.023  0.1001 -0.0532 -0.0551
  812SOL    HW2 3294   4.057   2.572   3.957  1.1468 -1.5513 -1.3291
  812SOL    HW3 3295   4.081   2.561   4.106 -1.3760 -3.5548 -1.0430
  812SOL    MW4 3296   4.111   2.567   4.025  0.0429 -0.7131 -0.3538
  813SOL     OW 3297   4.042   3.620   1.213  0.5543 -0.2903  0.2897
  813SOL    HW2 3298   4.072   3.710   1.220  0.4181 -0.2931  0.9930
  813SOL    HW3 3299   4.073   3.578   1.294  0.1027 -0.7162  0.2460
  813SOL    MW4 3300   4.050   3.626   1.225  0.4768 -0.3469  0.3767
  814SOL     OW 3301   4.039   0.901   1.089  0.4385  0.2975 -0.6678
  814SOL    HW2 3302   3.967   0.935   1.036  0.6817 -0.0864 -1.2462
  814SOL    HW3 3303   4.053   0.969   1.156 -1.4172 -0.2958  0.3587
  814SOL    MW4 3304   4.031   0.915   1.091  0.2255  0.1686 -0.6087
  815SOL     OW 3305   0.491   1.377   0.688 -0.2479  0.5716 -0.0892
  815SOL    HW2 3306   0.423   1.442   0.671  1.2002  1.9026 -0.9844
  815SOL    HW3 3307   0.481   1.314   0.616 -1.4283 -0.0136  0.5785
  815SOL    MW4 3308   0.481   1.377   0.676 -0.2125  0.6701 -0.1193
  816SOL     OW 3309   2.661   3.716   4.209 -0.2946  0.0974  0.1403
  816SOL    HW2 3310   2.742   3.763   4.227  0.7196 -1.2940 -0.6590
  816SOL    HW3 3311   2.595   3.760   4.262  0.6870  2.1679 -0.2961
  816SOL    MW4 3312   2.663   3.728   4.218 -0.0312  0.1869 -0.0234
  817SOL     OW 3313   4.356   2.961   3.197  0.0682  0.5478  0.0134
  817SOL    HW2 3314   4.283   2.961   3.259  0.2685 -0.2416  0.2590
  817SOL    HW3 3315   4.433   2.980   3.250  0.1851  0.2870 -0.0641
  817SOL    MW4 3316   4.357   2.963   3.212  0.1097  0.4091  0.0355
  818SOL     OW 3317   1.473   2.413   2.693 -0.0035  0.0625 -0.2478
  818SOL    HW2 3318   1.416   2.436   2.766 -0.2118 -0.3749 -0.2709
  818SOL    HW3 3319   1.435   2.457   2.617 -0.5233 -0.5169 -0.3312
  818SOL    MW4 3320   1.461   2.421   2.693 -0.0994 -0.0718 -0.2618
  819SOL     OW 3321   0.032   1.065   4.582 -0.1440 -0.5866 -0.0940
  819SOL    HW2 3322  -0.003   1.018   4.658  0.9901  0.5156  1.1368
  819SOL    HW3 3323  -0.039   1.062   4.517 -1.5660 -0.5348  1.4292
  819SOL    MW4 3324   0.018   1.058   4.583 -0.1820 -0.4342  0.2694
  820SOL     OW 3325   0.354   1.427   1.268 -0.2601  0.1681 -0.3711
  820SOL    HW2 3326   0.437   1.410   1.223  0.1403 -0.2176  0.5033
  820SOL    HW3 3327   0.377   1.491   1.336 -0.7620  0.3594 -0.3813
  820SOL    MW4 3328   0.368   1.434   1.271 -0.2735  0.1425 -0.2570
  821SOL     OW 3329   1.028   0.963   2.752 -0.1768 -0.0989  0.2025
  821SOL    HW2 3330   1.005   0.874   2.724  0.6280 -0.1330 -0.3620
  821SOL    HW3 3331   1.044   1.010   2.671 -1.4573  0.8182  0.4540
  821SOL    MW4 3332   1.027   0.957   2.738 -0.2396  0.0176  0.1612
  822SOL     OW 3333   0.726   0.121   4.397  0.4422  0.5503 -0.1249
  822SOL    HW2 3334   0.810   0.130   4.441  0.9224  0.8019 -1.0914
  822SOL    HW3 3335   0.726   0.190   4.331 -1.0069  1.2977  0.6268
  822SOL    MW4 3336   0.737   0.131   4.394  0.3144  0.6821 -0.1526
  823SOL     OW 3337   1.224   1.893   3.304 -0.0192 -0.4153 -0.5038
  823SOL    HW2 3338   1.217   1.947   3.225  0.4969  0.5389  0.0839
  823SOL    HW3 3339   1.312   1.911   3.336  0.4038 -2.1671 -0.6833
  823SOL    MW4 3340   1.235   1.903   3.298  0.1048 -0.5206 -0.4497
  824SOL     OW 3341   2.088   2.455   3.920  0.2227  0.0090 -0.3563
  824SOL    HW2 3342   2.050   2.490   4.001 -1.4570 -0.4574 -0.9224
  824SOL    HW3 3343   2.152   2.390   3.951 -0.1166  0.1184  0.6073
  824SOL    MW4 3344   2.091   2.451   3.935 -0.0439 -0.0384 -0.3040
  825SOL     OW 3345   3.722   1.731   3.075 -0.3316 -0.2211 -0.5747
  825SOL    HW2 3346   3.785   1.753   3.006  0.1484 -0.8209 -0.3398
  825SOL    HW3 3347   3.683   1.814   3.100  0.0707  0.1032 -1.0175
  825SOL    MW4 3348   3.725   1.745   3.069 -0.2151 -0.2575 -0.6022
  826SOL     OW 3349   1.546   3.574   3.837 -0.3088 -0.6424  0.0176
  826SOL    HW2 3350   1.599   3.643   3.876 -0.0995 -0.9750  0.3209
  826SOL    HW3 3351   1.538   3.508   3.906 -0.3513 -1.0082 -0.3374
  826SOL    MW4 3352   1.552   3.575   3.851 -0.2867 -0.7346  0.0107
  827SOL     OW 3353   1.923   0.329   0.666 -0.1834 -0.1517 -0.1021
  827SOL    HW2 3354   1.835   0.358   0.638  0.9664  2.5496 -1.1327
  827SOL    HW3 3355   1.938   0.248   0.618 -0.7073  1.2608 -2.7773
  827SOL    MW4 3356   1.913   0.322   0.656 -0.1009  0.3911 -0.5911
  828SOL     OW 3357   2.626   3.946   3.750  0.2537  0.0709  0.0142
  828SOL    HW2 3358   2.650   3.934   3.841  0.7972 -1.3763 -0.3140
  828SOL    HW3 3359   2.594   3.861   3.721  1.2473  0.1870 -1.4993
  828SOL    MW4 3360   2.625   3.933   3.758  0.4563 -0.1047 -0.2286
  829SOL     OW 3361   1.520   3.820   1.838  0.2391  0.2597 -0.3280
  829SOL    HW2 3362   1.538   3.841   1.746 -1.7764 -1.3505 -1.1293
  829SOL    HW3 3363   1.425   3.804   1.841  0.3289 -0.0620  1.9776
  829SOL    MW4 3364   1.510   3.821   1.826 -0.0151  0.0050 -0.1295
  830SOL     OW 3365   1.766   0.875   3.935  0.5325 -0.2130 -0.2816
  830SOL    HW2 3366   1.780   0.791   3.890  0.8311  0.4547 -1.4731
  830SOL    HW3 3367   1.832   0.933   3.897  0.4677  0.5039  0.6945
  830SOL    MW4 3368   1.777   0.871   3.924  0.5634 -0.0304 -0.3099
  831SOL     OW 3369   1.379   4.487   4.359  0.5349 -0.0020  0.8414
  831SOL    HW2 3370   1.361   4.401   4.397 -0.5100 -0.0080  0.3634
  831SOL    HW3 3371   1.468   4.508   4.387 -0.0973 -0.1137  3.0485
  831SOL    MW4 3372   1.388   4.478   4.368  0.3136 -0.0176  1.0695
  832SOL     OW 3373   4.369   3.784   3.898 -0.0545  0.3154  0.5798
  832SOL    HW2 3374   4.383   3.837   3.976  1.0980  0.7613  0.0854
  832SOL    HW3 3375   4.456   3.775   3.859 -0.2055 -1.9535  0.6476
  832SOL    MW4 3376   4.382   3.789   3.903  0.0782  0.0751  0.5233
  833SOL     OW 3377   4.301   1.308   3.971 -0.0931 -0.4917 -0.3140
  833SOL    HW2 3378   4.320   1.327   3.879 -0.2576 -1.2284 -0.4963
  833SOL    HW3 3379   4.388   1.309   4.013 -0.1631  1.5330 -0.1481
  833SOL    MW4 3380   4.315   1.311   3.965 -0.1245 -0.3217 -0.3161
  834SOL     OW 3381   0.388   2.504   0.882 -0.3506 -0.0148  0.4243
  834SOL    HW2 3382   0.395   2.473   0.792  0.3428 -0.4803  0.6259
  834SOL    HW3 3383   0.381   2.424   0.934 -0.6020  0.2447  0.7881
  834SOL    MW4 3384   0.388   2.489   0.877 -0.2923 -0.0422  0.4989
  835SOL     OW 3385   2.855   0.961   2.841  0.1977 -0.2302 -0.0816
  835SOL    HW2 3386   2.844   0.994   2.752 -3.5226 -0.8033  0.0941
  835SOL    HW3 3387   2.822   0.871   2.838 -0.4766 -0.0826  1.9930
  835SOL    MW4 3388   2.849   0.954   2.829 -0.3819 -0.2864  0.2155
  836SOL     OW 3389   1.995   0.502   1.665 -0.0360  0.0611  0.5722
  836SOL    HW2 3390   1.947   0.510   1.583  0.8572 -0.0526  0.0340
  836SOL    HW3 3391   1.926   0.500   1.732 -0.7779  0.0264 -0.1706
  836SOL    MW4 3392   1.979   0.503   1.663 -0.0161  0.0415  0.4032
  837SOL     OW 3393   2.209   3.160   2.410  0.3169 -0.1638  0.2100
  837SOL    HW2 3394   2.192   3.134   2.320 -1.8594 -0.6697  0.7244
  837SOL    HW3 3395   2.188   3.081   2.461 -1.3592  1.0296  1.3893
  837SOL    MW4 3396   2.204   3.146   2.405 -0.1915 -0.0732  0.4334
  838SOL     OW 3397   0.843   3.238   1.795  0.3922  0.5792  0.2175
  838SOL    HW2 3398   0.790   3.240   1.875 -0.4008  0.2912 -0.2944
  838SOL    HW3 3399   0.916   3.296   1.813  1.1028 -0.7680  1.7706
  838SOL    MW4 3400   0.845   3.246   1.808  0.3813  0.3636  0.3548
  839SOL     OW 3401   0.919   2.249   1.794  0.2786 -0.3399  0.3769
  839SOL    HW2 3402   0.853   2.308   1.757  0.4715 -0.5283 -0.2564
  839SOL    HW3 3403   0.984   2.307   1.834  0.1195 -0.1410  0.3457
  839SOL    MW4 3404   0.918   2.265   1.795  0.2831 -0.3386  0.2891
  840SOL     OW 3405   3.094   4.068   3.801 -0.0933  0.6047 -0.1951
  840SOL    HW2 3406   3.091   4.163   3.809  3.2935  0.6216  2.0932
  840SOL    HW3 3407   3.175   4.050   3.753 -2.3433 -1.0874 -3.6232
  840SOL    MW4 3408   3.105   4.078   3.796  0.0567  0.3839 -0.3457
  841SOL     OW 3409   2.998   3.079   1.981  0.7512 -0.1760 -0.3843
  841SOL    HW2 3410   2.914   3.112   2.014 -0.4443 -3.1691 -0.2129
  841SOL    HW3 3411   3.007   3.118   1.894  0.3305  1.9920  0.5081
  841SOL    MW4 3412   2.988   3.088   1.974  0.5379 -0.2849 -0.2439
  842SOL     OW 3413   2.204   2.739   0.942 -0.3065 -0.5111  0.3068
  842SOL    HW2 3414   2.113   2.713   0.952  0.1259 -1.3516  2.3104
  842SOL    HW3 3415   2.210   2.773   0.852 -2.6209 -0.2197  0.2382
  842SOL    MW4 3416   2.193   2.740   0.931 -0.5546 -0.5836  0.5621
  843SOL     OW 3417   0.483   3.359   2.195 -0.5280  0.0418 -0.3053
  843SOL    HW2 3418   0.451   3.414   2.267  1.1366 -0.2887  0.7015
  843SOL    HW3 3419   0.559   3.406   2.161 -0.4950 -0.4838 -0.9669
  843SOL    MW4 3420   0.488   3.373   2.200 -0.3040 -0.0710 -0.2596
  844SOL     OW 3421   3.358   4.149   1.907 -0.7771 -0.1423  0.1170
  844SOL    HW2 3422   3.339   4.185   1.820  0.1233  2.4015  0.9274
  844SOL    HW3 3423   3.324   4.215   1.968  0.6967 -0.7821  1.6621
  844SOL    MW4 3424   3.351   4.163   1.904 -0.4642  0.1092  0.4278
  845SOL     OW 3425   2.696   0.919   2.458  0.4032  0.0919 -0.0548
  845SOL    HW2 3426   2.620   0.882   2.503 -0.2025  1.5786  0.1702
  845SOL    HW3 3427   2.717   0.855   2.390 -1.1073 -0.3048 -0.1703
  845SOL    MW4 3428   2.689   0.906   2.455  0.1242  0.2357 -0.0403
  846SOL     OW 3429   1.517   3.031   1.272  0.4828 -0.6107 -0.2385
  846SOL    HW2 3430   1.435   2.986   1.291 -0.1148  0.3987 -0.3940
  846SOL    HW3 3431   1.582   2.988   1.329 -0.1595 -1.3731 -0.0757
  846SOL    MW4 3432   1.515   3.019   1.282  0.3192 -0.5782 -0.2376
  847SOL     OW 3433   3.083   1.871   4.312  0.0922  0.0710 -0.0906
  847SOL    HW2 3434   3.151   1.932   4.342  0.2873 -0.4486  0.5333
  847SOL    HW3 3435   3.101   1.790   4.359 -0.5832 -0.2629 -0.4019
  847SOL    MW4 3436   3.094   1.869   4.322  0.0288 -0.0416 -0.0501
  848SOL     OW 3437   1.880   0.176   3.577 -0.2583 -0.0675  0.1698
  848SOL    HW2 3438   1.802   0.214   3.536 -0.0684 -0.6349 -0.7545
  848SOL    HW3 3439   1.952   0.207   3.523  0.0347 -0.5176  0.2966
  848SOL    MW4 3440   1.879   0.185   3.564 -0.1945 -0.2017  0.0646
  849SOL     OW 3441   4.216   0.434   4.456  0.4037  0.2141 -0.1860
  849SOL    HW2 3442   4.259   0.385   4.527 -1.4102 -0.5389  0.4309
  849SOL    HW3 3443   4.273   0.509   4.440  0.5251  0.7590  2.5483
  849SOL    MW4 3444   4.229   0.437   4.463  0.1807  0.1867  0.2565
  850SOL     OW 3445   3.528   1.235   2.541 -0.2830 -0.4308 -0.0505
  850SOL    HW2 3446   3.563   1.247   2.630  0.8654 -0.4147 -0.5007
  850SOL    HW3 3447   3.458   1.170   2.552  0.5143 -1.1800  0.7220
  850SOL    MW4 3448   3.523   1.228   2.555 -0.0262 -0.5275 -0.0081
  851SOL     OW 3449   2.039   0.524   3.834  0.3394  0.3727 -0.0169
  851SOL    HW2 3450   2.084   0.596   3.878  0.9871  1.3150 -2.1827
  851SOL    HW3 3451   1.947   0.550   3.832  0.2500  0.1672  1.0455
  851SOL    MW4 3452   2.032   0.537   3.839  0.4132  0.4699 -0.1624
  852SOL     OW 3453   0.020   2.229   1.374  0.2465 -0.0398 -0.5381
  852SOL    HW2 3454  -0.038   2.156   1.354  2.2066 -0.9860 -3.0866
  852SOL    HW3 3455   0.040   2.219   1.467 -0.1866 -2.2686 -0.6589
  852SOL    MW4 3456   0.015   2.219   1.384  0.4482 -0.4585 -0.8904
  853SOL     OW 3457   4.089   0.271   4.266 -1.1304  0.3125 -0.2606
  853SOL    HW2 3458   4.129   0.184   4.271 -0.2743  0.4668 -3.3135
  853SOL    HW3 3459   4.133   0.321   4.334 -0.2631 -1.1362  0.2667
  853SOL    MW4 3460   4.100   0.266   4.276 -0.9031  0.1418 -0.5941
  854SOL     OW 3461   1.391   2.749   2.185  0.3513  0.3807 -0.4019
  854SOL    HW2 3462   1.450   2.674   2.176 -0.6479 -0.6844  1.6495
  854SOL    HW3 3463   1.310   2.722   2.142  0.5021  0.9089 -1.0385
  854SOL    MW4 3464   1.388   2.736   2.178  0.2393  0.3097 -0.2153
  855SOL     OW 3465   3.973   1.005   2.577  0.3034 -0.5542  0.0628
  855SOL    HW2 3466   3.933   1.033   2.659  0.9872 -0.3520  0.3337
  855SOL    HW3 3467   3.991   0.911   2.590 -0.1640 -0.6689 -0.0970
  855SOL    MW4 3468   3.971   0.996   2.589  0.3321 -0.5426  0.0777
  856SOL     OW 3469   1.435   3.474   1.976 -0.3146  0.2932 -0.6960
  856SOL    HW2 3470   1.432   3.532   2.052  0.7931 -0.7789  0.2078
  856SOL    HW3 3471   1.523   3.486   1.941 -0.0991 -0.7451 -0.5456
  856SOL    MW4 3472   1.447   3.483   1.982 -0.1402  0.0150 -0.5568
  857SOL     OW 3473   0.921   4.580   1.772  0.4174  0.0783  0.2151
  857SOL    HW2 3474   0.972   4.501   1.752  1.5019  0.6954  0.5130
  857SOL    HW3 3475   0.832   4.558   1.745  0.2571 -2.0277  2.2328
  857SOL    MW4 3476   0.916   4.567   1.766  0.5392 -0.1183  0.5206
  858SOL     OW 3477   2.243   3.089   3.813  0.0987  0.1340  0.0030
  858SOL    HW2 3478   2.210   3.078   3.903  2.9442 -2.2720  0.8229
  858SOL    HW3 3479   2.314   3.153   3.821 -0.4265  0.8220 -0.7538
  858SOL    MW4 3480   2.248   3.096   3.826  0.4048 -0.0927  0.0112
  859SOL     OW 3481   1.871   2.271   3.883 -0.4282 -0.4124 -0.2254
  859SOL    HW2 3482   1.942   2.324   3.920 -0.6908  0.2153 -0.6135
  859SOL    HW3 3483   1.794   2.328   3.887 -0.4876 -0.3683 -1.6329
  859SOL    MW4 3484   1.870   2.285   3.889 -0.4708 -0.3240 -0.4623
  860SOL     OW 3485   2.165   2.005   3.832  0.3796 -0.3152 -0.2903
  860SOL    HW2 3486   2.115   2.041   3.758  2.2006  1.1157 -0.8417
  860SOL    HW3 3487   2.099   1.990   3.900 -0.7407  2.2256 -0.7526
  860SOL    MW4 3488   2.149   2.008   3.831  0.4721  0.2086 -0.4239
  861SOL     OW 3489   0.479   2.296   0.677  0.2190  0.5945 -0.1494
  861SOL    HW2 3490   0.550   2.269   0.735  0.2464  0.1143 -0.4089
  861SOL    HW3 3491   0.448   2.215   0.636 -1.2953  0.6210  0.8849
  861SOL    MW4 3492   0.484   2.282   0.679  0.0228  0.5345 -0.0471
  862SOL     OW 3493   1.211   0.744   3.648  0.3370 -0.1920  0.4165
  862SOL    HW2 3494   1.205   0.839   3.642  1.5105  0.0104  2.1694
  862SOL    HW3 3495   1.299   0.727   3.681 -0.0537 -1.8612  0.6709
  862SOL    MW4 3496   1.222   0.754   3.652  0.4404 -0.3856  0.6814
  863SOL     OW 3497   3.348   4.280   1.667  0.5345  0.0260  0.6542
  863SOL    HW2 3498   3.370   4.288   1.574 -1.8252  1.4253  0.1688
  863SOL    HW3 3499   3.266   4.328   1.676  1.1818  0.6681  3.6402
  863SOL    MW4 3500   3.340   4.288   1.656  0.3088  0.2956  0.9841
  864SOL     OW 3501   3.977   0.936   1.430  0.0573  0.3212 -0.4352
  864SOL    HW2 3502   3.887   0.907   1.419 -0.1530  0.4152  0.8757
  864SOL    HW3 3503   3.971   1.032   1.434  0.3913  0.4047 -1.7565
  864SOL    MW4 3504   3.964   0.945   1.429  0.0737  0.3446 -0.4364
  865SOL     OW 3505   2.507   4.124   2.749  0.0007 -0.0028  0.2403
  865SOL    HW2 3506   2.451   4.055   2.786  0.2298 -0.5942 -0.4850
  865SOL    HW3 3507   2.556   4.079   2.680  0.4205  0.8124  0.0102
  865SOL    MW4 3508   2.506   4.109   2.745  0.0863  0.0267  0.1142
  866SOL     OW 3509   1.801   2.992   3.791  0.1409  0.1162 -0.2071
  866SOL    HW2 3510   1.711   2.966   3.771  0.4782 -0.0139 -1.6467
  866SOL    HW3 3511   1.812   3.076   3.746  0.4512  0.5829  0.7330
  866SOL    MW4 3512   1.791   2.999   3.782  0.2264  0.1607 -0.2730
  867SOL     OW 3513   3.694   1.215   0.925  0.0207  0.2030  0.0874
  867SOL    HW2 3514   3.636   1.258   0.862  0.0318 -0.1884 -0.1862
  867SOL    HW3 3515   3.679   1.262   1.007  0.8617  1.4851 -0.4762
  867SOL    MW4 3516   3.684   1.227   0.927  0.1330  0.3206 -0.0231
  868SOL     OW 3517   3.115   2.731   3.090  0.5782  0.0228 -0.0769
  868SOL    HW2 3518   3.125   2.811   3.142 -0.4558  0.4509 -0.5178
  868SOL    HW3 3519   3.200   2.720   3.047  1.2253  0.0387  1.1536
  868SOL    MW4 3520   3.128   2.740   3.091  0.5274  0.0811  0.0274
  869SOL     OW 3521   3.866   0.082   1.308  0.6306 -0.3489  0.4994
  869SOL    HW2 3522   3.829   0.122   1.387 -1.7138 -0.4770 -0.4664
  869SOL    HW3 3523   3.904   0.155   1.259 -0.8111  0.2508  0.2367
  869SOL    MW4 3524   3.866   0.097   1.312  0.1314 -0.2867  0.3372
  870SOL     OW 3525   4.137   1.222   2.533 -0.4637  0.1859  0.0551
  870SOL    HW2 3526   4.131   1.277   2.611 -1.2205 -1.2687  1.0413
  870SOL    HW3 3527   4.070   1.155   2.546 -1.2311  0.4453 -2.2597
  870SOL    MW4 3528   4.127   1.220   2.545 -0.6657  0.0283 -0.1202
  871SOL     OW 3529   1.982   0.051   3.963 -0.2150 -0.2425 -0.5162
  871SOL    HW2 3530   2.010  -0.019   3.905 -2.0780 -0.4517 -1.1989
  871SOL    HW3 3531   1.898   0.021   3.999 -0.7374  1.3527 -0.3575
  871SOL    MW4 3532   1.974   0.038   3.960 -0.5299 -0.0596 -0.5851
  872SOL     OW 3533   2.206   0.682   1.653 -0.0918  0.3324 -0.1691
  872SOL    HW2 3534   2.141   0.616   1.628 -0.4670  0.8075 -0.4402
  872SOL    HW3 3535   2.273   0.677   1.585  0.1689 -0.1734  0.1227
  872SOL    MW4 3536   2.206   0.672   1.641 -0.1068  0.3284 -0.1664
  873SOL     OW 3537   0.472   3.702   2.035  0.4080  0.1261  0.1046
  873SOL    HW2 3538   0.511   3.768   1.978  0.4920 -0.6425 -0.7411
  873SOL    HW3 3539   0.426   3.643   1.975  0.7180 -0.8399  0.8097
  873SOL    MW4 3540   0.471   3.703   2.020  0.4600 -0.1028  0.0858
  874SOL     OW 3541   1.624   3.515   4.626  0.2045  0.2704  0.1119
  874SOL    HW2 3542   1.560   3.576   4.662 -1.2928  0.0466 -2.1341
  874SOL    HW3 3543   1.597   3.430   4.660 -0.9648  0.1173 -1.1624
  874SOL    MW4 3544   1.612   3.512   4.635 -0.1475  0.2210 -0.3519
  875SOL     OW 3545   0.833   2.576   4.224  0.8091  0.2232 -0.0668
  875SOL    HW2 3546   0.920   2.600   4.192  0.8148  0.4806  0.1403
  875SOL    HW3 3547   0.843   2.566   4.319  0.8134 -0.6364 -0.1531
  875SOL    MW4 3548   0.845   2.578   4.232  0.8106  0.1435 -0.0515
  876SOL     OW 3549   2.419   3.429   0.869 -0.1876  0.2037 -0.0081
  876SOL    HW2 3550   2.475   3.438   0.947 -1.0194 -0.3132  0.6604
  876SOL    HW3 3551   2.446   3.346   0.830 -0.6881 -0.1954  0.4850
  876SOL    MW4 3552   2.430   3.419   0.874 -0.3633  0.0830  0.1451
  877SOL     OW 3553   0.513   1.479   1.903 -0.4031  0.2303 -0.0924
  877SOL    HW2 3554   0.453   1.490   1.977 -1.5282 -1.0647 -0.7791
  877SOL    HW3 3555   0.490   1.394   1.866  1.5061 -0.0481 -0.7168
  877SOL    MW4 3556   0.502   1.469   1.908 -0.2997  0.0228 -0.2654
  878SOL     OW 3557   1.048   1.882   1.106  0.1502  0.5743 -0.0860
  878SOL    HW2 3558   1.116   1.841   1.053  1.2521  2.1492  0.0582
  878SOL    HW3 3559   1.069   1.858   1.196 -0.1870  0.0864 -0.1331
  878SOL    MW4 3560   1.060   1.874   1.111  0.2509  0.7176 -0.0733
  879SOL     OW 3561   3.898   2.620   2.744  0.3957 -0.4129 -0.0197
  879SOL    HW2 3562   3.811   2.655   2.726  0.2346 -0.7659  0.0669
  879SOL    HW3 3563   3.942   2.691   2.791  0.0809 -0.3138  0.1317
  879SOL    MW4 3564   3.892   2.634   2.748  0.3328 -0.4463  0.0117
  880SOL     OW 3565   4.043   0.092   2.176  0.1309  0.1891 -0.5662
  880SOL    HW2 3566   4.057   0.104   2.270  0.6602  0.4927 -0.6802
  880SOL    HW3 3567   4.119   0.041   2.147  0.4233  0.8660 -0.9903
  880SOL    MW4 3568   4.055   0.087   2.185  0.2389  0.3185 -0.6373
  881SOL     OW 3569   3.457   3.564   3.363  0.1693  0.1674  0.2633
  881SOL    HW2 3570   3.450   3.589   3.455  1.8211  1.3423  0.0965
  881SOL    HW3 3571   3.550   3.544   3.351 -0.1319 -0.5410 -1.0182
  881SOL    MW4 3572   3.468   3.565   3.374  0.3476  0.2289  0.0722
  882SOL     OW 3573   2.432   2.292   3.327 -0.8971 -0.3898 -0.6134
  882SOL    HW2 3574   2.374   2.348   3.379  0.3173  0.2757  0.0595
  882SOL    HW3 3575   2.501   2.351   3.296 -0.7310 -1.1095 -1.6423
  882SOL    MW4 3576   2.433   2.307   3.330 -0.7150 -0.3970 -0.6604
  883SOL     OW 3577   2.822   1.111   4.190  0.1425 -0.1147 -0.4220
  883SOL    HW2 3578   2.897   1.144   4.239 -0.6442  0.2969  0.5358
  883SOL    HW3 3579   2.851   1.111   4.099  1.3022  0.0224 -0.0632
  883SOL    MW4 3580   2.835   1.116   4.185  0.1915 -0.0423 -0.2480
  884SOL     OW 3581   0.639   1.792   3.158 -0.1011  0.3570  0.9717
  884SOL    HW2 3582   0.578   1.738   3.106  1.8050 -0.8074 -0.1015
  884SOL    HW3 3583   0.588   1.871   3.179 -2.3192 -1.0127  0.9780
  884SOL    MW4 3584   0.624   1.795   3.154 -0.1422  0.0228  0.8311
  885SOL     OW 3585   1.530   4.433   3.412 -0.3613  0.1393  0.3524
  885SOL    HW2 3586   1.624   4.430   3.393 -0.0655  0.8792  1.6794
  885SOL    HW3 3587   1.501   4.342   3.400  0.3731  0.0466 -0.7883
  885SOL    MW4 3588   1.539   4.421   3.408 -0.2254  0.2241  0.3772
  886SOL     OW 3589   3.018   1.195   2.199  0.3211  0.7734 -0.2511
  886SOL    HW2 3590   3.069   1.262   2.244  1.0844 -0.6357  1.0175
  886SOL    HW3 3591   2.931   1.234   2.190  0.2658  1.2673  2.0940
  886SOL    MW4 3592   3.013   1.209   2.204  0.4146  0.6526  0.2258
  887SOL     OW 3593   1.960   1.432   2.966 -0.1888 -0.2908  0.5080
  887SOL    HW2 3594   2.051   1.445   2.991  0.0225 -0.7450 -0.0158
  887SOL    HW3 3595   1.923   1.520   2.960  0.8098  0.0022 -1.5259
  887SOL    MW4 3596   1.967   1.445   2.969 -0.0292 -0.3120  0.1702
  888SOL     OW 3597   1.260   0.322   1.762 -0.4621  0.1721  0.0904
  888SOL    HW2 3598   1.280   0.330   1.855 -1.6433  0.2088  0.3534
  888SOL    HW3 3599   1.316   0.386   1.719  0.4535 -0.1921  0.7207
  888SOL    MW4 3600   1.270   0.331   1.769 -0.4972  0.1288  0.2081
  889SOL     OW 3601   3.215   1.218   0.760 -0.7175  0.0248 -0.7528
  889SOL    HW2 3602   3.194   1.243   0.850  1.2731  1.0550 -0.5466
  889SOL    HW3 3603   3.175   1.286   0.706 -1.6623 -0.4349 -0.6421
  889SOL    MW4 3604   3.207   1.230   0.765 -0.5794  0.1003 -0.7110
  890SOL     OW 3605   0.204   4.428   2.073  0.2912  0.0466 -0.4210
  890SOL    HW2 3606   0.212   4.514   2.033 -0.4611  0.3667  0.0913
  890SOL    HW3 3607   0.136   4.383   2.022 -0.3203  0.2773  0.1786
  890SOL    MW4 3608   0.196   4.433   2.061  0.1113  0.1197 -0.2742
  891SOL     OW 3609   1.387   2.334   0.642  0.4969  0.0764  0.2137
  891SOL    HW2 3610   1.416   2.255   0.688  1.3231  1.2576  1.7617
  891SOL    HW3 3611   1.291   2.328   0.642  0.5414 -0.6413  0.8425
  891SOL    MW4 3612   1.378   2.323   0.648  0.6119  0.1376  0.5009
  892SOL     OW 3613   1.774   0.750   3.478  0.3890 -0.3386  0.0044
  892SOL    HW2 3614   1.719   0.815   3.434 -1.3194 -1.4507  0.4581
  892SOL    HW3 3615   1.751   0.667   3.437  0.1047 -1.1234  1.7062
  892SOL    MW4 3616   1.764   0.748   3.467  0.1260 -0.5889  0.2890
  893SOL     OW 3617   2.065   2.055   1.977 -0.1741  0.0284  0.2170
  893SOL    HW2 3618   2.008   2.088   2.047 -1.5656  0.0317 -0.8843
  893SOL    HW3 3619   2.108   2.133   1.942 -1.5021  0.3722 -0.6794
  893SOL    MW4 3620   2.063   2.069   1.982 -0.5329  0.0739 -0.0466
  894SOL     OW 3621   0.472   3.038   1.142 -0.5842  0.0866 -0.2007
  894SOL    HW2 3622   0.416   3.004   1.211  2.9562 -0.4665  2.5317
  894SOL    HW3 3623   0.492   3.128   1.169  1.7710 -0.5197  0.1831
  894SOL    MW4 3624   0.467   3.046   1.154  0.1937 -0.0665  0.2105
  895SOL     OW 3625   1.924   0.664   2.029 -0.0472 -0.1410  0.6140
  895SOL    HW2 3626   1.896   0.664   2.121 -1.4798  1.3846  0.2056
  895SOL    HW3 3627   1.987   0.736   2.023 -1.5475  1.1695 -0.0138
  895SOL    MW4 3628   1.928   0.674   2.040 -0.4343  0.2332  0.4773
  896SOL     OW 3629   0.802   1.828   1.332  0.0651  0.2176 -0.3118
  896SOL    HW2 3630   0.715   1.840   1.370  0.6431 -0.3340  1.2446
  896SOL    HW3 3631   0.790   1.762   1.264 -0.4735 -1.0092  0.9430
  896SOL    MW4 3632   0.789   1.820   1.328  0.0703 -0.0170  0.0591
  897SOL     OW 3633   2.805   4.525   0.814 -0.6206  0.0732 -0.3238
  897SOL    HW2 3634   2.867   4.596   0.797 -0.8581  0.3853  0.1051
  897SOL    HW3 3635   2.789   4.486   0.728 -0.3128  0.3900 -0.5277
  897SOL    MW4 3636   2.811   4.529   0.800 -0.6113  0.1559 -0.2941
  898SOL     OW 3637   3.630   2.443   0.586  0.3135 -0.4896 -0.5381
  898SOL    HW2 3638   3.574   2.505   0.540  0.7171  0.7953  0.6735
  898SOL    HW3 3639   3.718   2.480   0.578  0.4979 -0.6880  0.5402
  898SOL    MW4 3640   3.634   2.456   0.579  0.3912 -0.3462 -0.2360
  899SOL     OW 3641   4.142   3.983   3.124  0.4574 -0.0340 -0.0460
  899SOL    HW2 3642   4.145   4.074   3.156  1.3435  0.4513 -1.4580
  899SOL    HW3 3643   4.157   3.991   3.030  2.8535 -1.8350  0.1640
  899SOL    MW4 3644   4.144   3.996   3.116  0.8907 -0.2074 -0.2046
  900SOL     OW 3645   2.444   0.251   3.944  0.4218 -0.3042 -0.1475
  900SOL    HW2 3646   2.354   0.267   3.917  0.5511  0.8511  0.0774
  900SOL    HW3 3647   2.441   0.166   3.987 -0.1431 -1.2902 -2.0605
  900SOL    MW4 3648   2.432   0.242   3.946  0.3643 -0.2819 -0.3700
  901SOL     OW 3649   1.484   1.879   2.298 -0.1850  0.0339  0.5211
  901SOL    HW2 3650   1.454   1.835   2.378 -2.3981  0.3571 -0.0988
  901SOL    HW3 3651   1.435   1.961   2.297  2.6471  1.7765  0.7720
  901SOL    MW4 3652   1.474   1.884   2.309 -0.1034  0.3064  0.4725
  902SOL     OW 3653   2.099   1.190   4.437  0.2051  0.0078  0.1259
  902SOL    HW2 3654   2.088   1.129   4.364 -0.7612  0.0256  0.2450
  902SOL    HW3 3655   2.138   1.138   4.507  2.0822  0.2271 -0.7252
  902SOL    MW4 3656   2.102   1.175   4.437  0.3254  0.0391  0.0296
  903SOL     OW 3657   3.090   1.060   4.562  0.9805 -0.1731  0.3897
  903SOL    HW2 3658   3.146   1.002   4.510  0.7523 -0.0051 -0.0495
  903SOL    HW3 3659   3.087   1.020   4.648  1.6004 -0.3017  0.3544
  903SOL    MW4 3660   3.097   1.047   4.566  1.0324 -0.1677  0.3271
  904SOL     OW 3661   2.764   2.928   4.565 -0.2313  0.7885 -0.0059
  904SOL    HW2 3662   2.792   2.938   4.474 -0.2844  0.0146 -0.1123
  904SOL    HW3 3663   2.695   2.861   4.562  0.0662  0.4476  0.6551
  904SOL    MW4 3664   2.759   2.921   4.552 -0.1993  0.6411  0.0672
  905SOL     OW 3665   3.962   1.617   1.583  0.1942  0.2629 -0.6002
  905SOL    HW2 3666   3.968   1.708   1.553  2.8610  0.5243  0.6200
  905SOL    HW3 3667   4.009   1.567   1.516 -0.0043 -0.0572 -0.5022
  905SOL    MW4 3668   3.969   1.623   1.570  0.5198  0.2552 -0.4263
  906SOL     OW 3669   2.214   0.401   2.799 -0.1973 -0.5077 -0.6297
  906SOL    HW2 3670   2.130   0.440   2.821  0.1552  0.1452 -0.4385
  906SOL    HW3 3671   2.196   0.307   2.792 -0.7780 -0.4618  0.1912
  906SOL    MW4 3672   2.201   0.394   2.801 -0.2272 -0.4155 -0.4961
  907SOL     OW 3673   0.346   3.639   4.032 -0.8301 -0.3233 -0.4700
  907SOL    HW2 3674   0.282   3.639   3.961 -0.4738  0.2794 -0.8012
  907SOL    HW3 3675   0.294   3.648   4.112 -1.3121 -2.0421 -0.5701
  907SOL    MW4 3676   0.331   3.640   4.033 -0.8467 -0.4704 -0.5274
  908SOL     OW 3677   1.065   4.369   2.892 -0.5356  0.3482  0.2984
  908SOL    HW2 3678   1.009   4.397   2.965 -0.0797  0.8415  0.4566
  908SOL    HW3 3679   1.025   4.408   2.815  0.1773  1.5522  0.5355
  908SOL    MW4 3680   1.052   4.378   2.892 -0.3815  0.5722  0.3505
  909SOL     OW 3681   2.118   2.229   1.289  0.4514  0.1153  0.3790
  909SOL    HW2 3682   2.196   2.233   1.234  0.4980  1.2041  0.5128
  909SOL    HW3 3683   2.059   2.294   1.251 -0.2981 -0.5531  0.4101
  909SOL    MW4 3684   2.121   2.239   1.276  0.3588  0.1707  0.4008
  910SOL     OW 3685   2.117   3.494   1.657 -0.1543  0.2203  0.1027
  910SOL    HW2 3686   2.170   3.554   1.606  0.7587 -0.8095 -0.1756
  910SOL    HW3 3687   2.123   3.527   1.747  0.3178  0.5485 -0.0510
  910SOL    MW4 3688   2.125   3.506   1.662  0.0284  0.1276  0.0457
  911SOL     OW 3689   1.992   3.816   1.674  0.2890 -0.1645 -0.1344
  911SOL    HW2 3690   2.000   3.730   1.715  1.6331  0.5473  1.1408
  911SOL    HW3 3691   2.083   3.846   1.663 -0.0347 -0.1087 -3.1814
  911SOL    MW4 3692   2.005   3.809   1.678  0.4239 -0.0632 -0.3681
  912SOL     OW 3693   0.849   2.534   4.483 -0.5062 -0.5672  0.2555
  912SOL    HW2 3694   0.877   2.446   4.459 -2.2635 -1.0291 -0.1623
  912SOL    HW3 3695   0.931   2.582   4.499  0.5352 -1.6945 -1.5089
  912SOL    MW4 3696   0.864   2.529   4.482 -0.6007 -0.7770 -0.0324
  913SOL     OW 3697   4.316   4.367   2.693  0.1054 -0.2728  0.5461
  913SOL    HW2 3698   4.237   4.355   2.640  0.0511 -2.1347  1.0330
  913SOL    HW3 3699   4.382   4.397   2.630 -0.9307  1.2107  0.1186
  913SOL    MW4 3700   4.314   4.370   2.677 -0.0386 -0.3223  0.5541
  914SOL     OW 3701   2.335   0.232   2.562 -0.1316  0.1098  0.3532
  914SOL    HW2 3702   2.250   0.194   2.583 -0.8075 -0.1548 -2.6427
  914SOL    HW3 3703   2.314   0.320   2.529  0.6963 -0.1803 -0.9731
  914SOL    MW4 3704   2.321   0.239   2.561 -0.1116  0.0366 -0.2172
  915SOL     OW 3705   0.113   1.811   2.262  0.4972  0.5880 -0.1990
  915SOL    HW2 3706   0.185   1.752   2.236  0.0570 -1.2549  2.4947
  915SOL    HW3 3707   0.150   1.864   2.332  0.0246  1.5191 -0.6533
  915SOL    MW4 3708   0.128   1.810   2.268  0.3768  0.4675  0.0968
  916SOL     OW 3709   3.569   2.351   2.579  0.0408  0.6952 -0.1917
  916SOL    HW2 3710   3.618   2.322   2.655  0.0606 -1.1499 -0.8888
  916SOL    HW3 3711   3.477   2.337   2.603 -0.0519  1.8949  0.1976
  916SOL    MW4 3712   3.563   2.346   2.592  0.0308  0.6101 -0.2325
  917SOL     OW 3713   1.297   2.840   0.711 -0.3448 -0.1205 -0.0186
  917SOL    HW2 3714   1.209   2.848   0.674 -0.6758 -0.5400  0.6772
  917SOL    HW3 3715   1.330   2.930   0.713 -1.6188  0.3415  1.7791
  917SOL    MW4 3716   1.290   2.853   0.707 -0.5567 -0.1149  0.3104
  918SOL     OW 3717   1.886   4.565   4.654  0.0182  0.4410  0.3157
  918SOL    HW2 3718   1.808   4.614   4.680  0.0687  0.4503  0.4495
  918SOL    HW3 3719   1.853   4.477   4.634 -0.1909  0.7404 -0.6753
  918SOL    MW4 3720   1.871   4.560   4.655 -0.0027  0.4816  0.2027
  919SOL     OW 3721   0.895   0.020   1.432  0.0742 -0.5481  0.1677
  919SOL    HW2 3722   0.811   0.057   1.405  0.1109 -0.8305 -0.3442
  919SOL    HW3 3723   0.872  -0.050   1.493  0.0189  0.5111  1.3804
  919SOL    MW4 3724   0.881   0.015   1.436  0.0717 -0.4458  0.2602
  920SOL     OW 3725   2.697   3.665   3.489  0.0812 -0.0445 -0.4967
  920SOL    HW2 3726   2.789   3.663   3.517 -0.5971 -2.0247  1.6810
  920SOL    HW3 3727   2.680   3.577   3.455 -0.7895  0.5542 -1.6294
  920SOL    MW4 3728   2.707   3.653   3.488 -0.1230 -0.2270 -0.3588
  921SOL     OW 3729   3.715   1.200   3.591  0.3363 -0.6390  0.1572
  921SOL    HW2 3730   3.636   1.251   3.571  1.5096  1.0211 -0.2782
  921SOL    HW3 3731   3.688   1.143   3.664 -0.8429  0.9459  0.9937
  921SOL    MW4 3732   3.701   1.199   3.598  0.3359 -0.2109  0.2103
  922SOL     OW 3733   2.598   2.285   2.383 -0.4146  0.1706  0.4504
  922SOL    HW2 3734   2.507   2.292   2.413 -0.6218 -0.4623 -0.0445
  922SOL    HW3 3735   2.636   2.215   2.437  0.0491  1.0481  1.3042
  922SOL    MW4 3736   2.591   2.277   2.394 -0.3808  0.2029  0.4978
  923SOL     OW 3737   2.987   4.006   1.869  0.6785 -0.5760  0.1621
  923SOL    HW2 3738   2.969   4.069   1.940  2.2008  1.0784 -0.8844
  923SOL    HW3 3739   3.079   3.985   1.879  0.4240 -1.8663 -0.1502
  923SOL    MW4 3740   2.997   4.011   1.880  0.8459 -0.5288 -0.0172
  924SOL     OW 3741   2.682   3.545   3.951  0.1582  0.3667  0.4766
  924SOL    HW2 3742   2.705   3.531   3.859 -0.9817 -1.0347  0.3962
  924SOL    HW3 3743   2.763   3.525   3.999  0.2210 -0.7831 -0.0842
  924SOL    MW4 3744   2.696   3.540   3.945  0.0162  0.0300  0.3922
  925SOL     OW 3745   1.910   4.505   3.074 -0.4752 -0.2249 -0.4042
  925SOL    HW2 3746   1.906   4.418   3.113  0.0521 -0.9866 -1.9694
  925SOL    HW3 3747   1.962   4.557   3.136  0.9171 -1.5745 -0.3932
  925SOL    MW4 3748   1.917   4.500   3.087 -0.2220 -0.5035 -0.6094
  926SOL     OW 3749   2.221   1.420   2.695  0.2170  0.1853  0.1784
  926SOL    HW2 3750   2.165   1.496   2.677  0.4441  0.5000  0.7957
  926SOL    HW3 3751   2.162   1.357   2.738 -0.6144 -1.0264 -2.6342
  926SOL    MW4 3752   2.206   1.421   2.698  0.1373  0.0669 -0.1111
  927SOL     OW 3753   0.097   1.197   2.912 -0.4865  0.2374  0.5210
  927SOL    HW2 3754   0.009   1.207   2.875 -0.4277 -0.3954  0.1968
  927SOL    HW3 3755   0.120   1.105   2.894  0.0110  0.2459  1.1041
  927SOL    MW4 3756   0.088   1.186   2.905 -0.4131  0.1551  0.5555
  928SOL     OW 3757   3.898   2.232   2.413  0.3773 -0.1684 -0.5201
  928SOL    HW2 3758   3.898   2.327   2.427 -1.8462 -0.5084  2.2176
  928SOL    HW3 3759   3.902   2.222   2.318  1.1242  2.6572 -0.8451
  928SOL    MW4 3760   3.899   2.243   2.403  0.1826  0.1595 -0.2019
  929SOL     OW 3761   3.301   0.265   3.101 -0.1195 -0.7314 -0.4249
  929SOL    HW2 3762   3.355   0.188   3.115  0.0009 -0.8144 -1.3202
  929SOL    HW3 3763   3.247   0.244   3.025 -1.1815 -0.5219  0.2526
  929SOL    MW4 3764   3.301   0.252   3.093 -0.2437 -0.7147 -0.4539
  930SOL     OW 3765   1.198   1.671   3.705 -0.4479  0.4097  0.4944
  930SOL    HW2 3766   1.201   1.766   3.717  2.9518  0.5878 -1.2637
  930SOL    HW3 3767   1.140   1.658   3.630 -0.5623  1.1240  0.4595
  930SOL    MW4 3768   1.191   1.682   3.697 -0.0144  0.5275  0.2580
  931SOL     OW 3769   4.484   1.632   4.604 -0.1270  0.0918 -0.1304
  931SOL    HW2 3770   4.517   1.546   4.631  0.6607  0.3477 -0.2613
  931SOL    HW3 3771   4.562   1.689   4.605 -1.0642  1.4739  2.6839
  931SOL    MW4 3772   4.499   1.628   4.608 -0.1468  0.3079  0.2236
  932SOL     OW 3773   1.601   2.571   2.121 -0.4096  0.2446 -0.2317
  932SOL    HW2 3774   1.602   2.582   2.026 -0.8519 -0.5916 -0.3376
  932SOL    HW3 3775   1.543   2.497   2.135  0.5626 -0.3577  0.6212
  932SOL    MW4 3776   1.593   2.563   2.110 -0.3397  0.0548 -0.1333
  933SOL     OW 3777   3.010   0.359   2.572  0.3603 -0.4978 -0.1651
  933SOL    HW2 3778   2.971   0.374   2.658  0.0714  1.9618 -0.6760
  933SOL    HW3 3779   3.097   0.398   2.578  0.0894  0.2962 -1.1672
  933SOL    MW4 3780   3.016   0.366   2.584  0.2866 -0.0685 -0.3645
  934SOL     OW 3781   0.086   0.271   3.160 -0.6802  0.0629  0.2430
  934SOL    HW2 3782   0.068   0.279   3.254  0.4360 -0.4597  0.5146
  934SOL    HW3 3783   0.034   0.195   3.132 -0.0500 -0.5558  0.7137
  934SOL    MW4 3784   0.077   0.262   3.169 -0.4498 -0.0877  0.3407
  935SOL     OW 3785   4.344   4.205   1.156 -0.3129  0.7259  0.3845
  935SOL    HW2 3786   4.279   4.219   1.087 -1.7035 -2.5689  0.9380
  935SOL    HW3 3787   4.295   4.163   1.227  1.8603  0.6887  1.9152
  935SOL    MW4 3788   4.329   4.201   1.157 -0.2098  0.2861  0.6596
  936SOL     OW 3789   4.260   1.982   0.911 -0.3926 -0.9923  0.3611
  936SOL    HW2 3790   4.339   2.029   0.938 -0.6256 -0.9222  0.9242
  936SOL    HW3 3791   4.276   1.960   0.819  0.4778 -1.3822  0.6000
  936SOL    MW4 3792   4.272   1.985   0.902 -0.3090 -1.0343  0.4670
  937SOL     OW 3793   0.597   4.524   3.404  0.0889 -0.0359  0.1672
  937SOL    HW2 3794   0.593   4.561   3.492 -0.3746 -0.2592  0.2419
  937SOL    HW3 3795   0.621   4.598   3.347  0.3882  0.1076  0.4758
  937SOL    MW4 3796   0.600   4.539   3.408  0.0672 -0.0467  0.2177
  938SOL     OW 3797   1.548   3.397   4.042  0.5373 -0.4737  0.1027
  938SOL    HW2 3798   1.586   3.311   4.027 -3.1653 -2.2027  0.1018
  938SOL    HW3 3799   1.533   3.401   4.137 -2.1643 -1.1775 -0.2503
  938SOL    MW4 3800   1.551   3.386   4.053 -0.3078 -0.7944  0.0563
  939SOL     OW 3801   3.418   1.526   0.933 -0.0833 -0.2102  0.1337
  939SOL    HW2 3802   3.354   1.593   0.911  0.2909  1.9246  4.9099
  939SOL    HW3 3803   3.501   1.573   0.940  0.8994 -1.8678 -0.0782
  939SOL    MW4 3804   3.420   1.541   0.931  0.0956 -0.1471  0.7359
  940SOL     OW 3805   2.843   2.511   4.115 -0.3368  0.4792 -0.1391
  940SOL    HW2 3806   2.797   2.565   4.179  0.4194  1.4725 -0.4071
  940SOL    HW3 3807   2.881   2.440   4.167 -0.5618  0.7209  0.3638
  940SOL    MW4 3808   2.842   2.509   4.131 -0.2666  0.6421 -0.1082
  941SOL     OW 3809   2.473   2.831   1.141 -0.2287  0.1723 -0.2721
  941SOL    HW2 3810   2.415   2.860   1.211  0.0414  0.0609  0.0038
  941SOL    HW3 3811   2.452   2.887   1.067 -0.3332  0.4711 -0.0188
  941SOL    MW4 3812   2.463   2.842   1.141 -0.2065  0.1972 -0.2022
  942SOL     OW 3813   0.820   0.062   3.100  0.2055 -0.3224 -0.6456
  942SOL    HW2 3814   0.898   0.092   3.148 -0.5628  1.4216 -0.4424
  942SOL    HW3 3815   0.747   0.085   3.157 -0.4676 -1.9793 -0.8316
  942SOL    MW4 3816   0.821   0.069   3.114  0.0154 -0.3109 -0.6435
  943SOL     OW 3817   2.183   3.145   4.121 -0.1258  0.1276  0.1233
  943SOL    HW2 3818   2.108   3.091   4.148  0.1102 -0.6961 -0.8228
  943SOL    HW3 3819   2.152   3.235   4.131 -1.3008 -0.2064 -0.3832
  943SOL    MW4 3820   2.169   3.150   4.126 -0.2496 -0.0253 -0.0687
  944SOL     OW 3821   0.991   0.152   4.527  0.0831  0.0558 -0.0342
  944SOL    HW2 3822   1.009   0.231   4.578  0.7279 -0.7827  1.0446
  944SOL    HW3 3823   1.013   0.175   4.437  1.3322  0.7472  0.4525
  944SOL    MW4 3824   0.996   0.165   4.522  0.3330  0.0364  0.1726
  945SOL     OW 3825   0.021   4.263   3.154 -0.1902 -0.0096  0.4071
  945SOL    HW2 3826   0.069   4.345   3.162 -0.0033 -0.1438  0.6710
  945SOL    HW3 3827   0.004   4.254   3.060  1.2856 -0.5255  0.1749
  945SOL    MW4 3828   0.025   4.272   3.143  0.0292 -0.0958  0.4115
  946SOL     OW 3829   2.636   4.615   3.069  0.0654  0.1685 -0.0279
  946SOL    HW2 3830   2.663   4.569   2.989 -0.5538 -0.2216 -0.0162
  946SOL    HW3 3831   2.692   4.578   3.137 -0.6857 -0.8557  0.0503
  946SOL    MW4 3832   2.647   4.604   3.067 -0.1154 -0.0186 -0.0160
  947SOL     OW 3833   4.257   1.925   2.082  0.5687 -0.2511  0.2387
  947SOL    HW2 3834   4.306   1.937   2.164  0.7919  0.9219 -0.0523
  947SOL    HW3 3835   4.281   2.001   2.029 -0.2346 -0.5659 -0.5865
  947SOL    MW4 3836   4.267   1.936   2.086  0.4921 -0.1379  0.0913
  948SOL     OW 3837   2.937   0.523   2.079 -0.5162  0.7118 -0.2605
  948SOL    HW2 3838   2.961   0.437   2.115  0.2818  0.9240 -0.2803
  948SOL    HW3 3839   2.889   0.565   2.150  1.7294  1.4354  0.8734
  948SOL    MW4 3840   2.934   0.517   2.093 -0.1149  0.8353 -0.1135
  949SOL     OW 3841   0.994   2.145   4.704 -0.0930  0.3884 -0.0168
  949SOL    HW2 3842   0.996   2.236   4.736 -0.7740  0.6659 -0.7477
  949SOL    HW3 3843   1.083   2.129   4.673  0.4736  0.2395  1.6546
  949SOL    MW4 3844   1.006   2.155   4.704 -0.1081  0.4053  0.1078
  950SOL     OW 3845   0.797   3.732   0.940  0.4433  0.3402 -0.7318
  950SOL    HW2 3846   0.790   3.813   0.890 -0.9532 -0.4631 -1.8938
  950SOL    HW3 3847   0.884   3.698   0.918  0.1809  0.4349 -1.9808
  950SOL    MW4 3848   0.808   3.738   0.930  0.2244  0.2465 -1.0500
  951SOL     OW 3849   4.458   2.453   1.827  0.0215 -0.4743 -0.0351
  951SOL    HW2 3850   4.528   2.518   1.822  0.3336 -0.7643  0.5091
  951SOL    HW3 3851   4.405   2.481   1.902  0.6180 -1.3033  0.6990
  951SOL    MW4 3852   4.460   2.466   1.836  0.1416 -0.6218  0.1336
  952SOL     OW 3853   3.404   2.648   1.466 -0.1806  0.4434  0.5117
  952SOL    HW2 3854   3.379   2.669   1.376 -1.2962 -1.1550  0.4497
  952SOL    HW3 3855   3.476   2.586   1.457 -0.7490 -0.2483  0.7222
  952SOL    MW4 3856   3.410   2.643   1.453 -0.4029  0.1411  0.5314
  953SOL     OW 3857   0.477   3.844   3.546  0.5857  0.6028 -0.2875
  953SOL    HW2 3858   0.560   3.864   3.591  0.9217  0.6801 -0.9398
  953SOL    HW3 3859   0.502   3.784   3.476  0.1407  0.9078 -0.7101
  953SOL    MW4 3860   0.491   3.839   3.543  0.5713  0.6530 -0.4294
  954SOL     OW 3861   0.744   1.237   3.913  0.4463 -0.1166  0.1929
  954SOL    HW2 3862   0.716   1.260   3.824  0.2696 -0.0427  0.2684
  954SOL    HW3 3863   0.755   1.142   3.911  0.8051 -0.0689 -0.0132
  954SOL    MW4 3864   0.742   1.227   3.901  0.4704 -0.1005  0.1757
  955SOL     OW 3865   0.923   3.334   3.940 -0.3809 -0.2127  0.8080
  955SOL    HW2 3866   0.879   3.258   3.980  2.3847 -2.8924 -1.0310
  955SOL    HW3 3867   1.001   3.347   3.994  0.7531 -0.6610 -0.6973
  955SOL    MW4 3868   0.928   3.325   3.953  0.1336 -0.6254  0.3669
  956SOL     OW 3869   4.012   3.663   0.774  0.1112  0.5045  0.3592
  956SOL    HW2 3870   4.005   3.589   0.835  0.6323  0.1203 -0.0400
  956SOL    HW3 3871   3.999   3.740   0.829  1.3880  0.2078  1.1131
  956SOL    MW4 3872   4.009   3.663   0.790  0.3481  0.4148  0.4060
  957SOL     OW 3873   3.305   4.337   2.732 -0.4132  0.2181  0.2972
  957SOL    HW2 3874   3.255   4.296   2.803 -0.9362 -0.2890 -0.3546
  957SOL    HW3 3875   3.313   4.268   2.666  0.2397  0.6245 -0.0485
  957SOL    MW4 3876   3.299   4.323   2.732 -0.3960  0.2046  0.1657
  958SOL     OW 3877   3.815   1.981   2.480 -0.4491 -0.1572  0.1334
  958SOL    HW2 3878   3.837   2.072   2.463 -0.8792  0.0341  0.6109
  958SOL    HW3 3879   3.895   1.933   2.459 -0.6922  0.1657 -1.5855
  958SOL    MW4 3880   3.828   1.986   2.475 -0.5381 -0.0893 -0.0305
  959SOL     OW 3881   1.741   3.245   0.639  0.0470 -0.3612 -0.1166
  959SOL    HW2 3882   1.738   3.238   0.734  0.9248 -0.2959 -0.0721
  959SOL    HW3 3883   1.676   3.312   0.617 -0.1530 -0.3766  0.4384
  959SOL    MW4 3884   1.732   3.253   0.648  0.1364 -0.3548 -0.0375
  960SOL     OW 3885   0.395   4.114   1.560 -0.4880 -0.8329 -0.2448
  960SOL    HW2 3886   0.370   4.039   1.507  1.0907 -1.1268 -0.5883
  960SOL    HW3 3887   0.484   4.094   1.591 -1.1030 -0.3395  1.9138
  960SOL    MW4 3888   0.404   4.102   1.558 -0.3609 -0.8073 -0.0052
  961SOL     OW 3889   3.475   2.356   3.693 -0.3187  0.2205  0.1228
  961SOL    HW2 3890   3.418   2.328   3.622 -0.5910 -0.8697  0.7722
  961SOL    HW3 3891   3.428   2.334   3.773  1.3676 -1.5321  0.6780
  961SOL    MW4 3892   3.462   2.350   3.694 -0.1318 -0.1545  0.2816
  962SOL     OW 3893   3.353   1.521   2.130  0.6159  0.1843 -0.3668
  962SOL    HW2 3894   3.369   1.525   2.225  0.5478  0.4064 -0.3645
  962SOL    HW3 3895   3.421   1.461   2.097 -0.9779 -1.9893  0.1824
  962SOL    MW4 3896   3.364   1.513   2.138  0.3967 -0.0731 -0.2940
  963SOL     OW 3897   3.797   3.979   1.111  0.1670  0.3327  0.0142
  963SOL    HW2 3898   3.726   3.990   1.048  0.7985 -0.2836 -0.8215
  963SOL    HW3 3899   3.754   3.949   1.191 -0.6324  1.0601 -0.1315
  963SOL    MW4 3900   3.782   3.977   1.113  0.1450  0.3474 -0.1153
  964SOL     OW 3901   2.586   2.933   4.190 -0.4146  0.2830  0.5791
  964SOL    HW2 3902   2.567   2.862   4.129  0.8356  0.0246  0.4941
  964SOL    HW3 3903   2.681   2.943   4.188 -0.5188  1.5041  1.1042
  964SOL    MW4 3904   2.596   2.925   4.182 -0.2632  0.4101  0.6375
  965SOL     OW 3905   0.051   3.111   2.970  0.5510  0.2699 -0.1277
  965SOL    HW2 3906   0.075   3.115   2.877  0.0428 -4.3182 -0.5724
  965SOL    HW3 3907  -0.034   3.066   2.971  1.0551 -0.6997  2.5876
  965SOL    MW4 3908   0.043   3.106   2.958  0.5505 -0.4635  0.1719
  966SOL     OW 3909   0.848   2.128   2.472  0.0642 -0.3222  0.3436
  966SOL    HW2 3910   0.806   2.182   2.404  1.4888  0.3708  0.0007
  966SOL    HW3 3911   0.803   2.150   2.553  0.9616  1.7652  0.2892
  966SOL    MW4 3912   0.837   2.138   2.473  0.3705  0.0443  0.2911
  967SOL     OW 3913   4.376   2.268   0.788  0.1317  0.0848 -0.1126
  967SOL    HW2 3914   4.465   2.240   0.812 -0.0632 -0.0053  0.5200
  967SOL    HW3 3915   4.383   2.362   0.773  0.3248  0.0875 -0.0068
  967SOL    MW4 3916   4.389   2.276   0.789  0.1307  0.0732 -0.0152
  968SOL     OW 3917   1.673   3.758   3.981 -0.2087 -0.5819 -0.1539
  968SOL    HW2 3918   1.748   3.731   4.035  0.2332 -0.3487 -0.6389
  968SOL    HW3 3919   1.600   3.762   4.042  0.2695 -0.3968  0.4162
  968SOL    MW4 3920   1.674   3.755   3.996 -0.0874 -0.5267 -0.1428
  969SOL     OW 3921   3.465   4.443   2.262  0.1682 -0.1195  0.1406
  969SOL    HW2 3922   3.529   4.398   2.317 -0.0830  0.9883  1.3817
  969SOL    HW3 3923   3.515   4.473   2.186  0.9851  0.1609  0.7827
  969SOL    MW4 3924   3.480   4.441   2.259  0.2429  0.0634  0.3889
  970SOL     OW 3925   1.577   1.374   3.288 -0.4505  0.2504 -0.0452
  970SOL    HW2 3926   1.621   1.378   3.373 -0.7069  0.5931  0.0730
  970SOL    HW3 3927   1.635   1.321   3.233  0.1575  0.7771  0.0858
  970SOL    MW4 3928   1.591   1.368   3.292 -0.4041  0.3650 -0.0122
  971SOL     OW 3929   0.069   1.946   1.798 -0.2723  0.2970 -0.4343
  971SOL    HW2 3930   0.011   1.886   1.845  0.1345  1.3185  1.4536
  971SOL    HW3 3931   0.150   1.944   1.848  0.2912  1.1910 -1.2938
  971SOL    MW4 3932   0.072   1.938   1.811 -0.1443  0.5497 -0.2986
  972SOL     OW 3933   1.959   0.831   2.489  0.5104 -0.3501 -0.0232
  972SOL    HW2 3934   2.035   0.865   2.442  1.6692  0.1157  2.1086
  972SOL    HW3 3935   1.897   0.904   2.493  1.7004  0.6055  1.8286
  972SOL    MW4 3936   1.961   0.845   2.484  0.8204 -0.1625  0.5023
  973SOL     OW 3937   4.016   0.735   2.628  0.0519 -0.3374  0.1591
  973SOL    HW2 3938   4.108   0.712   2.640 -0.1304 -0.6767  0.8984
  973SOL    HW3 3939   4.005   0.739   2.533  0.9116  0.0437  0.0657
  973SOL    MW4 3940   4.027   0.733   2.617  0.1402 -0.3319  0.2444
  974SOL     OW 3941   2.688   3.159   0.960 -0.2768  0.1141 -0.5158
  974SOL    HW2 3942   2.641   3.218   0.901 -0.8617  0.1049 -0.0746
  974SOL    HW3 3943   2.630   3.151   1.036 -0.1089 -0.8692 -0.4829
  974SOL    MW4 3944   2.674   3.166   0.963 -0.3319 -0.0167 -0.4532
  975SOL     OW 3945   1.943   1.292   1.725 -0.1246 -0.1141 -0.6721
  975SOL    HW2 3946   1.851   1.320   1.726 -1.1589 -2.9735 -4.3978
  975SOL    HW3 3947   1.979   1.330   1.645  1.0577 -1.5388 -0.8399
  975SOL    MW4 3948   1.936   1.300   1.714 -0.1050 -0.6794 -1.1858
  976SOL     OW 3949   4.088   4.384   2.881 -0.6124  0.2463 -0.5167
  976SOL    HW2 3950   4.140   4.388   2.801 -0.3369  0.4757 -0.3291
  976SOL    HW3 3951   4.040   4.302   2.875 -0.3239  0.0962 -0.7524
  976SOL    MW4 3952   4.088   4.374   2.870 -0.5379  0.2565 -0.5231
  977SOL     OW 3953   1.484   4.099   0.636  0.0194  0.0290 -0.4429
  977SOL    HW2 3954   1.553   4.061   0.691 -0.0025  0.4448 -0.1255
  977SOL    HW3 3955   1.429   4.025   0.612  0.6989 -0.3375 -0.8678
  977SOL    MW4 3956   1.486   4.084   0.640  0.1062  0.0358 -0.4571
  978SOL     OW 3957   4.190   3.057   0.713 -0.2001 -0.8400  0.0422
  978SOL    HW2 3958   4.254   3.042   0.644  0.8499  0.3139  0.7463
  978SOL    HW3 3959   4.232   3.025   0.792 -0.1559  0.6423  0.6385
  978SOL    MW4 3960   4.204   3.051   0.714 -0.0553 -0.4921  0.2137
  979SOL     OW 3961   3.096   0.535   4.329 -0.3601 -0.8445  0.0452
  979SOL    HW2 3962   3.029   0.593   4.292 -0.2846  0.9629  2.6265
  979SOL    HW3 3963   3.051   0.451   4.340 -1.2644 -0.5379 -1.1650
  979SOL    MW4 3964   3.081   0.532   4.326 -0.4697 -0.5656  0.2260
  980SOL     OW 3965   0.485   0.927   2.557  0.2948  0.5075 -0.0897
  980SOL    HW2 3966   0.481   0.975   2.640  0.4751  2.9599 -1.4625
  980SOL    HW3 3967   0.571   0.884   2.559  0.3803  0.7064  0.9056
  980SOL    MW4 3968   0.496   0.928   2.568  0.3299  0.8573 -0.1395
  981SOL     OW 3969   4.482   3.998   0.581 -0.7247 -0.0097 -0.3415
  981SOL    HW2 3970   4.422   3.928   0.557 -0.5038 -0.3757  0.1878
  981SOL    HW3 3971   4.565   3.973   0.542 -0.5441 -0.2443  0.1958
  981SOL    MW4 3972   4.485   3.986   0.572 -0.6717 -0.0889 -0.2007
  982SOL     OW 3973   0.538   1.457   2.565 -0.5196  0.1667 -0.5140
  982SOL    HW2 3974   0.484   1.422   2.636 -2.1659  0.2331 -1.7241
  982SOL    HW3 3975   0.484   1.524   2.524  0.6507  0.5447 -1.4643
  982SOL    MW4 3976   0.524   1.461   2.569 -0.5824  0.2253 -0.7992
  983SOL     OW 3977   2.837   1.288   3.451  0.1854 -0.4543 -0.0443
  983SOL    HW2 3978   2.752   1.327   3.431  0.7795  1.0985  0.3527
  983SOL    HW3 3979   2.822   1.239   3.532  0.2471  1.9540  1.4701
  983SOL    MW4 3980   2.824   1.287   3.459  0.2718  0.0684  0.2079
  984SOL     OW 3981   0.747   0.622   1.864  0.2027  0.1173 -0.0242
  984SOL    HW2 3982   0.782   0.711   1.872 -0.4790  0.6535 -2.6307
  984SOL    HW3 3983   0.652   0.633   1.861  0.0571 -0.8110  0.8313
  984SOL    MW4 3984   0.739   0.635   1.865  0.0936  0.0656 -0.2551
  985SOL     OW 3985   0.835   0.889   1.921 -0.2595  1.0177 -0.0611
  985SOL    HW2 3986   0.900   0.913   1.855 -1.2042  1.3944 -0.8648
  985SOL    HW3 3987   0.863   0.936   2.000  0.8455  0.6007 -0.1948
  985SOL    MW4 3988   0.848   0.899   1.923 -0.2385  1.0124 -0.1848
  986SOL     OW 3989   3.232   3.020   2.120 -0.8852  0.3255  0.2772
  986SOL    HW2 3990   3.205   2.964   2.192  0.9405  1.1794  1.6833
  986SOL    HW3 3991   3.151   3.055   2.085 -2.0474 -2.9524 -0.4797
  986SOL    MW4 3992   3.218   3.017   2.125 -0.7977  0.0057  0.3631
  987SOL     OW 3993   3.589   1.940   3.180  0.4755 -0.5582  0.9220
  987SOL    HW2 3994   3.651   1.967   3.248  0.1103  3.2488 -0.1492
  987SOL    HW3 3995   3.503   1.958   3.217  0.2847  2.4475 -0.7563
  987SOL    MW4 3996   3.586   1.946   3.194  0.4022  0.3407  0.5591
  988SOL     OW 3997   2.653   0.764   1.929 -0.2637  0.6675  0.0575
  988SOL    HW2 3998   2.664   0.676   1.965 -1.3842  0.4351 -0.1422
  988SOL    HW3 3999   2.660   0.753   1.834 -1.0973  0.6761 -0.0105
  988SOL    MW4 4000   2.655   0.751   1.921 -0.5214  0.6380  0.0222
  989SOL     OW 4001   2.142   0.046   2.415 -0.2113 -0.4085 -0.0370
  989SOL    HW2 4002   2.178   0.104   2.347 -0.5507  0.1490  0.2478
  989SOL    HW3 4003   2.058   0.087   2.438  0.3938  0.0029  1.4778
  989SOL    MW4 4004   2.136   0.059   2.409 -0.1760 -0.2807  0.2005
  990SOL     OW 4005   3.832   3.748   3.131  0.4445 -0.5923  0.7919
  990SOL    HW2 4006   3.911   3.695   3.120 -1.5241 -3.1211 -2.1572
  990SOL    HW3 4007   3.782   3.702   3.198 -0.8197 -2.0030 -1.0661
  990SOL    MW4 4008   3.836   3.735   3.139  0.0181 -1.1120  0.1576
  991SOL     OW 4009   0.329   3.503   2.736 -0.1856 -0.2717  0.5421
  991SOL    HW2 4010   0.257   3.445   2.711 -0.8401  0.8760 -0.2510
  991SOL    HW3 4011   0.407   3.449   2.725 -0.8270 -1.1656  0.2808
  991SOL    MW4 4012   0.330   3.488   2.731 -0.3566 -0.2384  0.4034
  992SOL     OW 4013   4.375   1.704   0.998  0.0013 -0.5345  0.4660
  992SOL    HW2 4014   4.313   1.767   1.034  1.3149  0.4235  1.1219
  992SOL    HW3 4015   4.348   1.691   0.907 -2.0464 -1.2981  1.1660
  992SOL    MW4 4016   4.363   1.710   0.991 -0.0958 -0.5088  0.6449
  993SOL     OW 4017   1.141   1.905   4.338 -0.0792 -0.0288 -0.4816
  993SOL    HW2 4018   1.065   1.881   4.391  0.6747 -0.5290  0.3909
  993SOL    HW3 4019   1.149   1.833   4.275  0.2345 -0.4662  0.0454
  993SOL    MW4 4020   1.132   1.892   4.337  0.0616 -0.1523 -0.2971
  994SOL     OW 4021   0.864   2.866   3.321 -0.0367 -0.3904  0.3687
  994SOL    HW2 4022   0.842   2.923   3.248  3.1880  1.5329  0.7869
  994SOL    HW3 4023   0.898   2.786   3.280 -2.8806 -1.3685 -0.2001
  994SOL    MW4 4024   0.866   2.863   3.306  0.0135 -0.2656  0.3488
  995SOL     OW 4025   1.479   1.684   3.866  0.1266  0.4053 -0.0508
  995SOL    HW2 4026   1.450   1.701   3.776 -0.1193  1.1243  0.1598
  995SOL    HW3 4027   1.409   1.719   3.921  0.8813  1.1753  0.4455
  995SOL    MW4 4028   1.466   1.691   3.862  0.1937  0.6018  0.0422
  996SOL     OW 4029   3.362   4.320   0.870 -0.4266  0.1207 -0.1584
  996SOL    HW2 4030   3.341   4.408   0.900 -0.4291 -0.1161  0.5362
  996SOL    HW3 4031   3.457   4.319   0.862 -0.3684 -0.0265  0.5111
  996SOL    MW4 4032   3.372   4.331   0.873 -0.4191  0.0701  0.0216
  997SOL     OW 4033   0.535   1.239   2.180  0.3815  0.2508 -0.1679
  997SOL    HW2 4034   0.587   1.237   2.099  2.3453 -0.9341  1.0757
  997SOL    HW3 4035   0.446   1.217   2.152  0.2871  3.1591 -2.4872
  997SOL    MW4 4036   0.530   1.236   2.165  0.6281  0.4781 -0.3099
  998SOL     OW 4037   0.870   4.465   3.063 -0.2904 -0.1888 -0.0277
  998SOL    HW2 4038   0.859   4.556   3.089 -2.0072 -0.2797 -0.3922
  998SOL    HW3 4039   0.786   4.423   3.083 -0.2992 -1.1748 -1.9352
  998SOL    MW4 4040   0.857   4.471   3.069 -0.5181 -0.3314 -0.3273
  999SOL     OW 4041   1.388   1.599   3.352  0.4493 -0.5548  0.4121
  999SOL    HW2 4042   1.390   1.646   3.268 -0.2370 -0.5461  0.3984
  999SOL    HW3 4043   1.369   1.509   3.328  2.5858 -1.0211  0.3696
  999SOL    MW4 4044   1.386   1.593   3.338  0.6406 -0.6152  0.4046
 1000SOL     OW 4045   0.256   4.466   2.369  0.2756  0.0387  0.2188
 1000SOL    HW2 4046   0.184   4.432   2.422 -0.7423  0.7484 -0.6954
 1000SOL    HW3 4047   0.226   4.456   2.278 -0.0853  3.4333 -0.0736
 1000SOL    MW4 4048   0.243   4.460   2.364  0.0937  0.5803  0.0594
 1001SOL     OW 4049   3.850   1.900   2.089 -0.6232 -0.2938 -0.0870
 1001SOL    HW2 4050   3.914   1.833   2.067 -0.7931 -0.4344 -0.1518
 1001SOL    HW3 4051   3.773   1.851   2.118 -0.8534 -0.1341 -0.4213
 1001SOL    MW4 4052   3.848   1.885   2.090 -0.6759 -0.2912 -0.1395
 1002SOL     OW 4053   4.234   0.093   0.884 -0.0122  0.2249  0.2544
 1002SOL    HW2 4054   4.210   0.078   0.975 -1.3371  1.8531  0.1951
 1002SOL    HW3 4055   4.243   0.006   0.847  0.8237 -0.4525  2.0178
 1002SOL    MW4 4056   4.232   0.080   0.891 -0.0763  0.3503  0.4792
 1003SOL     OW 4057   2.510   2.931   0.690 -0.4517 -0.4026  0.1397
 1003SOL    HW2 4058   2.503   2.939   0.785 -0.9561  0.4988  0.0397
 1003SOL    HW3 4059   2.589   2.880   0.675 -0.3093 -0.4469  1.0416
 1003SOL    MW4 4060   2.519   2.925   0.700 -0.4995 -0.2897  0.2455
 1004SOL     OW 4061   1.826   1.062   3.559 -0.1182 -0.4008 -0.0957
 1004SOL    HW2 4062   1.867   1.059   3.646  1.2878 -0.3167 -0.7369
 1004SOL    HW3 4063   1.825   0.971   3.530  1.3632 -0.1817 -0.8656
 1004SOL    MW4 4064   1.831   1.050   3.567  0.2626 -0.3608 -0.2816
 1005SOL     OW 4065   4.071   3.779   4.091 -0.0029 -0.0703  0.3491
 1005SOL    HW2 4066   4.114   3.712   4.145 -1.7938 -1.5966 -0.0578
 1005SOL    HW3 4067   4.029   3.729   4.021 -0.2806  1.6155 -0.7053
 1005SOL    MW4 4068   4.071   3.763   4.089 -0.2761 -0.0494  0.1564
 1006SOL     OW 4069   2.652   4.199   2.200  0.1589  0.3295  0.3098
 1006SOL    HW2 4070   2.610   4.258   2.262 -1.3541 -0.9889  0.5742
 1006SOL    HW3 4071   2.583   4.174   2.139  0.6090 -1.6046  0.5444
 1006SOL    MW4 4072   2.637   4.203   2.200  0.0186 -0.0997  0.3755
 1007SOL     OW 4073   1.997   0.596   0.984  0.1916 -0.0982 -0.7486
 1007SOL    HW2 4074   1.998   0.512   1.030  1.4645  0.3093 -0.0124
 1007SOL    HW3 4075   2.024   0.575   0.894  0.8493 -0.4311 -0.4770
 1007SOL    MW4 4076   2.001   0.582   0.978  0.4463 -0.0883 -0.6157
 1008SOL     OW 4077   4.038   0.486   1.515 -0.2236  0.0406 -0.0752
 1008SOL    HW2 4078   4.060   0.575   1.544  1.0927  0.4024 -2.0623
 1008SOL    HW3 4079   4.064   0.430   1.588  0.1712  1.1944  0.6758
 1008SOL    MW4 4080   4.045   0.490   1.528  0.0019  0.2406 -0.2383
 1009SOL     OW 4081   0.851   3.832   3.949 -0.7579 -0.7511  0.8153
 1009SOL    HW2 4082   0.859   3.918   3.908 -0.4696 -0.6213  1.1389
 1009SOL    HW3 4083   0.797   3.848   4.027 -0.5090 -0.8183  1.0014
 1009SOL    MW4 4084   0.845   3.846   3.954 -0.6870 -0.7429  0.8826
 1010SOL     OW 4085   3.866   4.038   4.369  0.3066 -0.0496 -0.3972
 1010SOL    HW2 4086   3.936   4.075   4.423  0.5720 -0.5039 -0.4226
 1010SOL    HW3 4087   3.894   4.054   4.279 -0.2296  0.8784 -0.4014
 1010SOL    MW4 4088   3.879   4.045   4.365  0.2708  0.0129 -0.4010
 1011SOL     OW 4089   2.388   1.813   3.790 -0.1450  0.0430 -0.1728
 1011SOL    HW2 4090   2.444   1.879   3.750  0.0875 -0.6901 -1.0529
 1011SOL    HW3 4091   2.316   1.864   3.829 -0.2485  0.7782 -1.3056
 1011SOL    MW4 4092   2.386   1.829   3.790 -0.1278  0.0434 -0.4382
 1012SOL     OW 4093   4.080   1.313   4.456  0.2063  0.4500  0.4534
 1012SOL    HW2 4094   4.083   1.217   4.457  1.5432  0.4841 -0.1382
 1012SOL    HW3 4095   3.987   1.333   4.445  0.0787 -0.7874 -0.9227
 1012SOL    MW4 4096   4.068   1.303   4.455  0.3657  0.2913  0.1936
 1013SOL     OW 4097   3.547   0.370   3.432 -0.0755  0.0751  0.7429
 1013SOL    HW2 4098   3.537   0.314   3.510  1.6036  0.2683  1.1267
 1013SOL    HW3 4099   3.636   0.405   3.440 -1.0065  2.5716  0.3329
 1013SOL    MW4 4100   3.557   0.367   3.443  0.0234  0.4300  0.7396
 1014SOL     OW 4101   2.977   3.844   1.650 -0.0786 -0.2307  0.2451
 1014SOL    HW2 4102   3.053   3.865   1.596  0.6050 -0.9119  0.9304
 1014SOL    HW3 4103   2.961   3.924   1.701  2.7717 -1.3961  3.1465
 1014SOL    MW4 4104   2.985   3.857   1.650  0.3877 -0.4742  0.7184
 1015SOL     OW 4105   1.272   0.234   0.467 -0.0886 -0.1246 -0.4833
 1015SOL    HW2 4106   1.240   0.285   0.541  1.5011  2.5984 -1.5932
 1015SOL    HW3 4107   1.196   0.228   0.408 -0.3133  0.8908 -0.3084
 1015SOL    MW4 4108   1.257   0.240   0.469  0.0914  0.3686 -0.6066
 1016SOL     OW 4109   0.896   3.611   1.703 -0.0157 -0.4062 -0.6133
 1016SOL    HW2 4110   0.956   3.548   1.742 -0.3792 -0.3821  0.0024
 1016SOL    HW3 4111   0.901   3.687   1.761 -0.3114 -0.2432 -0.7999
 1016SOL    MW4 4112   0.905   3.613   1.716 -0.1027 -0.3815 -0.5568
 1017SOL     OW 4113   1.003   2.426   4.747 -0.0564  0.4946 -0.2444
 1017SOL    HW2 4114   1.044   2.477   4.676 -1.6095  1.7647 -0.2620
 1017SOL    HW3 4115   1.050   2.453   4.826  1.5397 -0.7643 -0.7478
 1017SOL    MW4 4116   1.015   2.436   4.748 -0.0508  0.4961 -0.3128
 1018SOL     OW 4117   0.309   1.826   3.742 -0.0901 -0.2270  0.1770
 1018SOL    HW2 4118   0.375   1.831   3.811  1.3993  0.5263 -1.2703
 1018SOL    HW3 4119   0.279   1.917   3.732 -0.0400 -0.2813 -0.4359
 1018SOL    MW4 4120   0.314   1.839   3.750  0.1130 -0.1348 -0.0949
 1019SOL     OW 4121   0.350   4.654   3.817 -0.2001 -0.0959 -0.2759
 1019SOL    HW2 4122   0.443   4.647   3.793 -0.2608  0.4775 -0.6728
 1019SOL    HW3 4123   0.339   4.588   3.886  0.5403 -0.0589 -0.1152
 1019SOL    MW4 4124   0.361   4.644   3.823 -0.1104 -0.0162 -0.3068
 1020SOL     OW 4125   3.849   4.278   1.758  0.0432 -0.3182 -0.2305
 1020SOL    HW2 4126   3.762   4.294   1.796  0.9233 -0.6149  1.9475
 1020SOL    HW3 4127   3.835   4.205   1.698 -1.5058  0.6021 -1.0439
 1020SOL    MW4 4128   3.836   4.271   1.755 -0.0451 -0.2360 -0.0504
 1021SOL     OW 4129   1.507   2.989   3.198  0.0260  0.5341  0.1039
 1021SOL    HW2 4130   1.459   3.042   3.135  0.3762  0.4746 -0.2149
 1021SOL    HW3 4131   1.522   3.047   3.273 -1.2570  0.3129  0.5546
 1021SOL    MW4 4132   1.503   3.003   3.200 -0.0972  0.4971  0.1211
 1022SOL     OW 4133   2.665   3.084   1.352 -0.6202  0.7635 -0.0025
 1022SOL    HW2 4134   2.618   3.057   1.431  1.4445  0.1515  1.0406
 1022SOL    HW3 4135   2.699   3.002   1.315  2.0566  1.4304  0.8584
 1022SOL    MW4 4136   2.663   3.069   1.358  0.0057  0.7708  0.2488
 1023SOL     OW 4137   1.432   2.058   0.785  0.4140 -0.7517 -0.0763
 1023SOL    HW2 4138   1.427   2.065   0.880  1.7544 -0.2637 -0.0325
 1023SOL    HW3 4139   1.355   2.006   0.761 -0.1592 -0.5273  1.2275
 1023SOL    MW4 4140   1.421   2.052   0.795  0.5152 -0.6578  0.1015
 1024SOL     OW 4141   3.334   2.932   2.849 -0.0355  0.1211  0.2785
 1024SOL    HW2 4142   3.262   2.900   2.796  0.7572  0.3236 -0.9369
 1024SOL    HW3 4143   3.300   3.011   2.892 -0.7762 -0.2225  0.3223
 1024SOL    MW4 4144   3.320   2.938   2.848 -0.0288  0.1025  0.1240
 1025SOL     OW 4145   3.775   0.487   1.448  0.1596  0.4297 -0.2051
 1025SOL    HW2 4146   3.869   0.470   1.442  0.4690  2.4063 -1.5828
 1025SOL    HW3 4147   3.765   0.547   1.522 -0.1896 -0.8531  0.7974
 1025SOL    MW4 4148   3.786   0.493   1.457  0.1543  0.5213 -0.2546
 1026SOL     OW 4149   3.785   3.966   0.699 -0.2716  0.1408 -0.5348
 1026SOL    HW2 4150   3.725   4.012   0.758  1.7976  2.2178  0.0425
 1026SOL    HW3 4151   3.857   3.939   0.756 -0.0938 -1.2918 -1.4235
 1026SOL    MW4 4152   3.786   3.969   0.714  0.0248  0.2258 -0.5760
 1027SOL     OW 4153   3.107   0.233   3.967 -0.6069  0.0400 -0.1689
 1027SOL    HW2 4154   3.015   0.253   3.984 -0.4472  0.5504  0.1109
 1027SOL    HW3 4155   3.156   0.297   4.019 -0.1244  1.6653 -2.5033
 1027SOL    MW4 4156   3.101   0.244   3.976 -0.5224  0.3218 -0.4401
 1028SOL     OW 4157   1.252   3.204   4.928 -0.1930  0.0619  0.4381
 1028SOL    HW2 4158   1.278   3.138   4.863 -1.5454 -1.5977  1.5281
 1028SOL    HW3 4159   1.317   3.197   4.998 -0.6936 -0.5768  0.8459
 1028SOL    MW4 4160   1.264   3.195   4.928 -0.4375 -0.2413  0.6356
 1029SOL     OW 4161   0.112   3.231   3.224 -0.6124 -0.3903 -0.0097
 1029SOL    HW2 4162   0.207   3.235   3.239 -0.6878  0.8735  0.1160
 1029SOL    HW3 4163   0.104   3.189   3.138  0.0517 -0.5611  0.0027
 1029SOL    MW4 4164   0.124   3.226   3.215 -0.5347 -0.2463  0.0083
 1030SOL     OW 4165   0.279   3.302   1.247  0.0879  0.4928  0.2568
 1030SOL    HW2 4166   0.222   3.228   1.228 -0.1365  0.7297  0.0144
 1030SOL    HW3 4167   0.255   3.369   1.183  2.0097 -0.1304 -1.1867
 1030SOL    MW4 4168   0.268   3.301   1.236  0.3118  0.4418  0.0343
 1031SOL     OW 4169   3.343   4.634   2.443 -0.9529 -0.1259  0.2388
 1031SOL    HW2 4170   3.394   4.585   2.378 -0.3682  0.1275  0.5058
 1031SOL    HW3 4171   3.252   4.620   2.417 -0.7018  0.6019 -1.0826
 1031SOL    MW4 4172   3.338   4.626   2.431 -0.8426  0.0043  0.0994
 1032SOL     OW 4173   3.658   3.651   1.477  0.1482 -0.0675 -0.1354
 1032SOL    HW2 4174   3.652   3.558   1.457  0.4789  0.2191 -1.6028
 1032SOL    HW3 4175   3.745   3.662   1.516  1.1762  0.0607 -2.4140
 1032SOL    MW4 4176   3.669   3.640   1.480  0.3276 -0.0126 -0.6295
 1033SOL     OW 4177   3.787   3.788   3.432  0.0765 -0.4570 -0.1905
 1033SOL    HW2 4178   3.863   3.844   3.443 -1.9250  2.0260  1.5725
 1033SOL    HW3 4179   3.806   3.710   3.485  1.3123  0.1967  0.3394
 1033SOL    MW4 4180   3.799   3.785   3.440 -0.0246 -0.0434  0.1123
 1034SOL     OW 4181   0.286   1.613   3.217 -0.1114  0.8174 -0.6692
 1034SOL    HW2 4182   0.196   1.589   3.195  0.3751 -0.4134 -1.3634
 1034SOL    HW3 4183   0.329   1.624   3.132  0.4261  1.2974 -0.3378
 1034SOL    MW4 4184   0.280   1.612   3.203  0.0237  0.7184 -0.7169
 1035SOL     OW 4185   3.968   3.214   0.833 -0.2445 -0.3159 -0.1685
 1035SOL    HW2 4186   4.006   3.289   0.879 -1.1214 -0.6826  1.1942
 1035SOL    HW3 4187   4.042   3.173   0.788  0.3379  1.0317 -0.4659
 1035SOL    MW4 4188   3.982   3.218   0.833 -0.2832 -0.1864 -0.0278
 1036SOL     OW 4189   0.167   4.156   4.407 -0.2523 -0.3902  0.3517
 1036SOL    HW2 4190   0.164   4.251   4.392 -2.1917 -0.2821  1.3393
 1036SOL    HW3 4191   0.077   4.132   4.430  0.3812 -2.3466  0.8795
 1036SOL    MW4 4192   0.155   4.166   4.408 -0.4246 -0.6337  0.5517
 1037SOL     OW 4193   3.382   2.740   3.317  0.2298 -0.1672  0.4204
 1037SOL    HW2 4194   3.287   2.752   3.313 -0.0200 -2.4087 -1.3211
 1037SOL    HW3 4195   3.418   2.804   3.256 -0.2824 -0.4066 -0.1344
 1037SOL    MW4 4196   3.374   2.750   3.309  0.1295 -0.4945  0.1173
 1038SOL     OW 4197   1.969   3.548   1.377 -0.0761  0.1172  0.1612
 1038SOL    HW2 4198   1.928   3.635   1.373  0.0425  0.1397 -0.4969
 1038SOL    HW3 4199   2.049   3.562   1.428 -0.1822  0.3445  0.2675
 1038SOL    MW4 4200   1.974   3.561   1.383 -0.0745  0.1502  0.0885
 1039SOL     OW 4201   2.720   2.041   4.071 -0.4208 -0.3151  0.2175
 1039SOL    HW2 4202   2.754   2.034   4.160  1.2440  3.7611  0.0088
 1039SOL    HW3 4203   2.658   2.114   4.075  1.7080  1.7362 -2.4820
 1039SOL    MW4 4204   2.716   2.050   4.083  0.0799  0.4933 -0.1659
 1040SOL     OW 4205   2.451   1.034   1.270 -0.1683 -0.2290 -0.0129
 1040SOL    HW2 4206   2.468   0.984   1.350 -0.1609  0.1980  0.2491
 1040SOL    HW3 4207   2.522   1.097   1.265  0.7546 -1.3478 -1.2315
 1040SOL    MW4 4208   2.462   1.035   1.280 -0.0453 -0.3202 -0.1391
 1041SOL     OW 4209   2.898   4.121   4.573 -0.1727 -0.6650  0.0187
 1041SOL    HW2 4210   2.846   4.201   4.583  0.4306 -0.1774 -0.7027
 1041SOL    HW3 4211   2.981   4.140   4.617 -0.8129 -1.6657  1.7140
 1041SOL    MW4 4212   2.902   4.134   4.580 -0.1774 -0.7329  0.1473
 1042SOL     OW 4213   0.467   4.023   2.231  0.7287 -0.1113  0.5042
 1042SOL    HW2 4214   0.556   4.013   2.197  0.8458  0.0335  0.7663
 1042SOL    HW3 4215   0.476   4.084   2.304  0.1210  1.3559 -0.6349
 1042SOL    MW4 4216   0.480   4.030   2.236  0.6640  0.1016  0.3884
 1043SOL     OW 4217   0.773   2.862   4.220  0.4576 -0.0283 -0.1018
 1043SOL    HW2 4218   0.711   2.888   4.288 -1.6398 -0.7193 -1.6919
 1043SOL    HW3 4219   0.796   2.772   4.241  0.1106 -0.1120 -0.0777
 1043SOL    MW4 4220   0.768   2.853   4.232  0.1350 -0.1304 -0.3085
 1044SOL     OW 4221   0.011   3.461   1.708  0.1177  0.3640  0.1940
 1044SOL    HW2 4222   0.078   3.400   1.677  0.3079  0.6273  0.0807
 1044SOL    HW3 4223  -0.052   3.406   1.754 -0.1102 -0.0214 -0.5708
 1044SOL    MW4 4224   0.012   3.446   1.710  0.1127  0.3481  0.0781
 1045SOL     OW 4225   4.366   3.838   3.190 -0.1435 -0.2260 -0.3285
 1045SOL    HW2 4226   4.290   3.897   3.199 -0.6149 -0.9847  0.7116
 1045SOL    HW3 4227   4.338   3.756   3.231  1.2479 -0.5124  0.0689
 1045SOL    MW4 4228   4.352   3.835   3.197 -0.0224 -0.3641 -0.1388
 1046SOL     OW 4229   2.398   1.261   0.664 -0.1011 -0.3004 -0.3158
 1046SOL    HW2 4230   2.365   1.172   0.651 -3.5201  1.1833 -2.7195
 1046SOL    HW3 4231   2.336   1.301   0.725  0.8862  0.7053  0.0383
 1046SOL    MW4 4232   2.386   1.254   0.670 -0.4220  0.0281 -0.5862
 1047SOL     OW 4233   1.281   0.034   4.553 -0.3559 -0.0586  0.1876
 1047SOL    HW2 4234   1.188   0.048   4.568 -0.0655  1.2878  0.8567
 1047SOL    HW3 4235   1.300   0.084   4.473  0.2745  1.7979  1.4471
 1047SOL    MW4 4236   1.272   0.043   4.544 -0.2344  0.3640  0.4416
 1048SOL     OW 4237   1.881   3.938   4.722  0.2100  0.3919  0.5358
 1048SOL    HW2 4238   1.952   3.883   4.689 -0.8034  0.4173 -1.7325
 1048SOL    HW3 4239   1.924   4.020   4.746  0.8799  0.6586 -1.4656
 1048SOL    MW4 4240   1.896   3.942   4.721  0.1647  0.4306 -0.0272
 1049SOL     OW 4241   2.149   0.110   1.171 -0.0896 -0.7507 -0.1147
 1049SOL    HW2 4242   2.105   0.195   1.181 -1.8245 -1.6107 -0.3502
 1049SOL    HW3 4243   2.110   0.055   1.239  0.9166 -1.4248 -0.0707
 1049SOL    MW4 4244   2.138   0.114   1.181 -0.1857 -0.9531 -0.1400
 1050SOL     OW 4245   1.750   1.181   3.128 -0.6604  0.0262  0.5022
 1050SOL    HW2 4246   1.824   1.202   3.185  0.2020 -1.1842 -0.1467
 1050SOL    HW3 4247   1.753   1.249   3.060 -0.4508  0.2804  0.7656
 1050SOL    MW4 4248   1.761   1.193   3.126 -0.5188 -0.1000  0.4513
 1051SOL     OW 4249   4.173   4.247   0.941 -0.0566  0.1587 -0.4450
 1051SOL    HW2 4250   4.225   4.318   0.903 -1.7602  0.7536 -1.6994
 1051SOL    HW3 4251   4.084   4.280   0.943 -0.3055 -0.5203  2.5262
 1051SOL    MW4 4252   4.168   4.261   0.936 -0.3142  0.1478 -0.2185
 1052SOL     OW 4253   1.100   2.716   4.197  0.0896  0.1182  0.2107
 1052SOL    HW2 4254   1.166   2.660   4.236  0.0653  0.2816  0.4829
 1052SOL    HW3 4255   1.113   2.801   4.237  1.1357  0.7100 -1.3447
 1052SOL    MW4 4256   1.110   2.720   4.207  0.2245  0.2179  0.0410
 1053SOL     OW 4257   4.097   0.750   1.591  0.4219  0.2166  0.9638
 1053SOL    HW2 4258   4.062   0.817   1.531  1.5334 -1.9164 -2.1691
 1053SOL    HW3 4259   4.179   0.788   1.624 -0.0768  1.3012  0.9989
 1053SOL    MW4 4260   4.103   0.764   1.588  0.5031  0.0783  0.5550
 1054SOL     OW 4261   0.275   4.564   1.265 -0.6130 -0.2463  0.0633
 1054SOL    HW2 4262   0.184   4.595   1.258  0.0107  1.5770 -0.0588
 1054SOL    HW3 4263   0.309   4.607   1.343 -0.0012 -1.3617  0.4223
 1054SOL    MW4 4264   0.267   4.574   1.274 -0.4500 -0.1531  0.0945
 1055SOL     OW 4265   0.999   0.817   1.046 -0.4842  0.2635  0.2936
 1055SOL    HW2 4266   0.917   0.768   1.052 -0.4703  0.2156  0.0813
 1055SOL    HW3 4267   0.973   0.908   1.065 -0.4473  0.1149  1.0413
 1055SOL    MW4 4268   0.985   0.823   1.049 -0.4775  0.2375  0.3641
 1056SOL     OW 4269   2.138   4.330   3.506  0.2212 -1.1896  0.0852
 1056SOL    HW2 4270   2.120   4.406   3.450  0.3477 -1.3812 -0.2154
 1056SOL    HW3 4271   2.232   4.335   3.523  0.1565 -1.0486  0.4033
 1056SOL    MW4 4272   2.148   4.341   3.501  0.2294 -1.1964  0.0877
 1057SOL     OW 4273   3.580   1.942   2.299 -0.2324 -0.1146  0.1351
 1057SOL    HW2 4274   3.651   1.956   2.363 -1.2234  0.6107  1.0953
 1057SOL    HW3 4275   3.582   2.021   2.244  1.0058 -1.0008 -1.1445
 1057SOL    MW4 4276   3.590   1.955   2.300 -0.2000 -0.1358  0.0927
 1058SOL     OW 4277   1.468   0.545   1.827 -0.1608  0.8564  0.4297
 1058SOL    HW2 4278   1.412   0.607   1.781  1.1002  1.1013 -0.7921
 1058SOL    HW3 4279   1.410   0.503   1.891 -1.8674  0.6958 -1.1797
 1058SOL    MW4 4280   1.453   0.548   1.830 -0.2197  0.8675  0.0560
 1059SOL     OW 4281   3.967   2.522   2.071  0.8028 -0.2722  0.7063
 1059SOL    HW2 4282   3.980   2.511   1.977  0.9073 -1.2938  0.8341
 1059SOL    HW3 4283   4.053   2.508   2.109  0.7353  0.0180  0.9731
 1059SOL    MW4 4284   3.980   2.519   2.064  0.8075 -0.3686  0.7579
 1060SOL     OW 4285   3.946   1.664   3.927  0.5720 -0.1459  0.1892
 1060SOL    HW2 4286   4.004   1.633   3.858  0.0635 -0.7783  0.0435
 1060SOL    HW3 4287   3.859   1.667   3.887  0.7138  2.1131  0.0036
 1060SOL    MW4 4288   3.942   1.660   3.913  0.5236  0.0688  0.1457
 1061SOL     OW 4289   3.949   0.681   3.766 -0.2889  0.2509 -0.3044
 1061SOL    HW2 4290   3.886   0.709   3.832  0.3306  0.4190  0.2262
 1061SOL    HW3 4291   3.956   0.586   3.778 -0.8645  0.1495 -0.7462
 1061SOL    MW4 4292   3.942   0.672   3.776 -0.2828  0.2596 -0.2928
 1062SOL     OW 4293   2.481   4.236   3.203 -0.0942 -0.4062 -0.1724
 1062SOL    HW2 4294   2.543   4.190   3.146 -0.1159  1.3880 -1.7009
 1062SOL    HW3 4295   2.536   4.274   3.272  0.5927  1.2995 -1.6005
 1062SOL    MW4 4296   2.496   4.235   3.204 -0.0064  0.0558 -0.5629
 1063SOL     OW 4297   1.378   1.575   1.402  0.2571 -0.1298 -0.5353
 1063SOL    HW2 4298   1.453   1.632   1.386  1.5123 -1.1487  1.5672
 1063SOL    HW3 4299   1.337   1.610   1.481 -1.8740  0.7981 -2.0228
 1063SOL    MW4 4300   1.382   1.587   1.410  0.1414 -0.1417 -0.4541
 1064SOL     OW 4301   3.110   0.296   2.159 -0.4319  0.2474 -0.1813
 1064SOL    HW2 4302   3.195   0.328   2.187  0.1016 -1.1962 -0.1514
 1064SOL    HW3 4303   3.065   0.271   2.240 -0.5471  0.1715 -0.2678
 1064SOL    MW4 4304   3.115   0.297   2.173 -0.3767  0.0470 -0.1888
 1065SOL     OW 4305   0.583   3.658   4.211 -0.3240 -0.3573 -0.0712
 1065SOL    HW2 4306   0.516   3.626   4.150 -1.4773  0.9877  0.4628
 1065SOL    HW3 4307   0.611   3.580   4.258  0.6153 -1.4389 -2.3141
 1065SOL    MW4 4308   0.578   3.644   4.209 -0.3523 -0.3228 -0.2971
 1066SOL     OW 4309   3.984   4.435   3.382 -0.5722 -0.3305  0.1302
 1066SOL    HW2 4310   3.915   4.377   3.352 -0.9979  0.1053  0.2631
 1066SOL    HW3 4311   3.982   4.430   3.477 -1.2238  0.5943  0.1796
 1066SOL    MW4 4312   3.975   4.427   3.390 -0.7141 -0.1507  0.1545
 1067SOL     OW 4313   1.595   1.429   4.394  0.0397  0.0620  0.1423
 1067SOL    HW2 4314   1.667   1.374   4.424 -0.0124  0.5480  1.1846
 1067SOL    HW3 4315   1.638   1.509   4.362  0.0968 -0.4650 -1.1117
 1067SOL    MW4 4316   1.610   1.433   4.394  0.0404  0.0566  0.1149
 1068SOL     OW 4317   2.016   2.199   3.665 -0.3647 -0.3731  0.5729
 1068SOL    HW2 4318   1.951   2.147   3.618 -0.6588  0.5724 -0.0768
 1068SOL    HW3 4319   1.970   2.230   3.744 -1.1665  1.4802 -0.5925
 1068SOL    MW4 4320   2.001   2.196   3.670 -0.5093 -0.0036  0.3333
 1069SOL     OW 4321   1.271   4.655   1.560 -0.1358 -0.3977 -0.2909
 1069SOL    HW2 4322   1.355   4.696   1.538 -0.0651 -0.8847 -0.9678
 1069SOL    HW3 4323   1.219   4.724   1.600  1.4325 -0.6459  2.3456
 1069SOL    MW4 4324   1.275   4.669   1.562  0.0805 -0.4947 -0.0324
 1070SOL     OW 4325   0.488   1.506   2.261  0.0531  0.8887  0.8198
 1070SOL    HW2 4326   0.570   1.553   2.248  0.7591 -0.7501 -1.1555
 1070SOL    HW3 4327   0.507   1.418   2.228 -2.1484  0.1513  1.4708
 1070SOL    MW4 4328   0.501   1.500   2.255 -0.1442  0.5753  0.6449
 1071SOL     OW 4329   3.480   1.318   0.737  0.1448  0.4248  0.6304
 1071SOL    HW2 4330   3.453   1.371   0.812  2.0385  0.6000  1.2109
 1071SOL    HW3 4331   3.414   1.249   0.731 -0.6374  1.0677  1.7651
 1071SOL    MW4 4332   3.468   1.316   0.746  0.2913  0.5326  0.8567
 1072SOL     OW 4333   1.321   1.437   4.122  0.2032 -0.0107  0.0317
 1072SOL    HW2 4334   1.335   1.388   4.203 -0.1702 -1.1194 -0.5603
 1072SOL    HW3 4335   1.259   1.384   4.072  1.6166 -0.1249 -1.6486
 1072SOL    MW4 4336   1.315   1.423   4.126  0.3405 -0.1720 -0.2685
 1073SOL     OW 4337   4.115   4.122   1.318 -0.4459 -0.2693 -0.3609
 1073SOL    HW2 4338   4.096   4.060   1.389  1.8193  0.1607  0.6602
 1073SOL    HW3 4339   4.028   4.150   1.288 -1.5038  0.7756  3.3367
 1073SOL    MW4 4340   4.101   4.117   1.323 -0.2861 -0.0749  0.2618
 1074SOL     OW 4341   0.593   3.438   4.391 -0.4597  0.3224  0.2993
 1074SOL    HW2 4342   0.669   3.381   4.406 -0.6124  0.8027  3.1424
 1074SOL    HW3 4343   0.522   3.377   4.370  0.0954 -0.3130  0.2240
 1074SOL    MW4 4344   0.594   3.422   4.390 -0.4067  0.3016  0.6642
 1075SOL     OW 4345   1.839   2.904   2.814  0.2143  0.2552 -0.0503
 1075SOL    HW2 4346   1.782   2.950   2.876 -0.6269  0.3886 -0.9197
 1075SOL    HW3 4347   1.921   2.953   2.816  0.3406  0.0214  1.2605
 1075SOL    MW4 4348   1.842   2.916   2.823  0.1200  0.2420  0.0079
 1076SOL     OW 4349   3.876   2.790   1.845 -0.0870  0.3493  0.8079
 1076SOL    HW2 4350   3.963   2.760   1.871 -0.2343 -1.2933 -0.5214
 1076SOL    HW3 4351   3.850   2.729   1.776 -1.2425  2.3213 -0.5337
 1076SOL    MW4 4352   3.884   2.778   1.839 -0.2592  0.3927  0.4555
 1077SOL     OW 4353   3.306   4.541   3.890  0.6664  0.2088 -0.0379
 1077SOL    HW2 4354   3.229   4.484   3.887  1.3670 -0.7320 -0.5332
 1077SOL    HW3 4355   3.317   4.561   3.983  0.4611 -0.5454  0.1558
 1077SOL    MW4 4356   3.297   4.536   3.902  0.7319 -0.0148 -0.0777
 1078SOL     OW 4357   1.582   4.611   0.786 -0.2513  0.4104 -0.3035
 1078SOL    HW2 4358   1.540   4.525   0.784 -1.7480  1.1450 -2.6451
 1078SOL    HW3 4359   1.516   4.670   0.822  0.6148  0.6689  0.8898
 1078SOL    MW4 4360   1.568   4.608   0.790 -0.3345  0.5412 -0.4550
 1079SOL     OW 4361   2.441   4.233   4.533  0.3901 -0.2157 -0.1340
 1079SOL    HW2 4362   2.465   4.215   4.442  0.7100  2.6071 -0.6516
 1079SOL    HW3 4363   2.384   4.309   4.528 -0.1845 -0.4621  1.9969
 1079SOL    MW4 4364   2.436   4.240   4.520  0.3567  0.1240  0.0782
 1080SOL     OW 4365   0.947   1.348   2.145 -0.3440  0.2728  0.0098
 1080SOL    HW2 4366   1.041   1.343   2.162 -0.7928  1.3858  3.1091
 1080SOL    HW3 4367   0.910   1.381   2.227 -3.1868  1.9789 -1.8866
 1080SOL    MW4 4368   0.955   1.352   2.158 -0.7783  0.6446  0.1686
 1081SOL     OW 4369   0.870   2.219   2.964  0.4403  0.0485  0.1764
 1081SOL    HW2 4370   0.812   2.152   2.929  0.7902 -0.9281  1.4594
 1081SOL    HW3 4371   0.930   2.172   3.021  1.7743  1.2149 -0.2330
 1081SOL    MW4 4372   0.870   2.204   2.967  0.6624  0.0734  0.2916
 1082SOL     OW 4373   2.133   2.341   0.539 -0.4090 -0.1494 -0.0345
 1082SOL    HW2 4374   2.064   2.378   0.594 -0.1864  1.7483 -0.9720
 1082SOL    HW3 4375   2.091   2.267   0.495 -1.9187  1.0067 -0.6351
 1082SOL    MW4 4376   2.118   2.336   0.540 -0.5789  0.2534 -0.2374
 1083SOL     OW 4377   4.125   1.590   1.795  0.3207  0.4831  0.0707
 1083SOL    HW2 4378   4.065   1.605   1.868 -0.5725  0.0044 -0.5565
 1083SOL    HW3 4379   4.071   1.600   1.717  1.1264  0.3383 -0.5091
 1083SOL    MW4 4380   4.110   1.593   1.794  0.3095  0.4008 -0.0887
 1084SOL     OW 4381   0.737   2.209   2.002 -0.7395 -0.1012 -0.7580
 1084SOL    HW2 4382   0.807   2.226   1.939  0.0054  2.0825  0.6249
 1084SOL    HW3 4383   0.674   2.280   1.987 -1.1839 -0.3122  0.0863
 1084SOL    MW4 4384   0.738   2.220   1.992 -0.6999  0.1588 -0.4642
 1085SOL     OW 4385   4.041   4.465   3.656  0.2150 -0.3439 -0.7512
 1085SOL    HW2 4386   3.958   4.499   3.690 -0.0616 -1.1289 -0.6459
 1085SOL    HW3 4387   4.097   4.543   3.648  0.6393 -0.2539  2.4914
 1085SOL    MW4 4388   4.038   4.480   3.660  0.2346 -0.4349 -0.3095
 1086SOL     OW 4389   0.376   4.584   4.471  0.4249  0.2606 -0.1996
 1086SOL    HW2 4390   0.402   4.655   4.530 -0.1428 -0.2451  0.6625
 1086SOL    HW3 4391   0.284   4.602   4.452  1.0073  1.2847 -2.1640
 1086SOL    MW4 4392   0.367   4.596   4.476  0.4268  0.3290 -0.3448
 1087SOL     OW 4393   3.945   3.822   2.546  0.0796  0.4476 -0.2714
 1087SOL    HW2 4394   3.868   3.839   2.600  1.4681  1.6428  1.3899
 1087SOL    HW3 4395   3.956   3.902   2.494 -0.0384  0.1087 -0.8254
 1087SOL    MW4 4396   3.937   3.835   2.546  0.2475  0.5603 -0.1254
 1088SOL     OW 4397   2.679   0.188   2.404  0.1133 -0.4550  0.0080
 1088SOL    HW2 4398   2.680   0.164   2.497 -2.5593 -2.1875 -0.3560
 1088SOL    HW3 4399   2.615   0.128   2.364  1.0061  0.4293 -2.9087
 1088SOL    MW4 4400   2.671   0.177   2.411 -0.1216 -0.5669 -0.4249
 1089SOL     OW 4401   2.202   1.527   0.325  0.0454  0.2795 -0.4968
 1089SOL    HW2 4402   2.278   1.538   0.382  0.9311 -0.5956 -1.4609
 1089SOL    HW3 4403   2.221   1.446   0.277 -2.5023 -1.1270  0.7900
 1089SOL    MW4 4404   2.214   1.517   0.326 -0.1740 -0.0216 -0.4542
 1090SOL     OW 4405   2.133   1.741   2.258 -0.1568  0.2659  0.6360
 1090SOL    HW2 4406   2.135   1.668   2.196 -0.3343 -0.2279  1.2079
 1090SOL    HW3 4407   2.054   1.790   2.235 -0.2044  0.1027  0.4507
 1090SOL    MW4 4408   2.123   1.738   2.246 -0.1864  0.1791  0.6871
 1091SOL     OW 4409   2.495   3.430   1.831 -0.0037  0.0684  0.1912
 1091SOL    HW2 4410   2.480   3.422   1.736 -0.6804 -0.3362  0.3339
 1091SOL    HW3 4411   2.582   3.470   1.837  0.3024 -0.4500 -0.5933
 1091SOL    MW4 4412   2.505   3.434   1.819 -0.0525 -0.0534  0.1066
 1092SOL     OW 4413   1.381   4.054   4.259  0.2266 -0.1710 -0.1411
 1092SOL    HW2 4414   1.340   4.067   4.344 -1.8511 -2.0823 -0.8162
 1092SOL    HW3 4415   1.460   4.004   4.277  1.1144  1.5742  0.9201
 1092SOL    MW4 4416   1.386   4.049   4.272  0.0695 -0.1931 -0.0901
 1093SOL     OW 4417   0.004   0.273   3.447  0.6190 -0.3300 -0.4648
 1093SOL    HW2 4418  -0.078   0.304   3.408  0.1070 -0.3600  0.5411
 1093SOL    HW3 4419   0.021   0.335   3.518  1.4035 -0.3976 -0.5933
 1093SOL    MW4 4420  -0.005   0.285   3.451  0.6552 -0.3429 -0.3488
 1094SOL     OW 4421   0.744   4.391   2.320 -0.5975  0.8035  0.2736
 1094SOL    HW2 4422   0.700   4.453   2.378 -0.0328  1.0888  0.4022
 1094SOL    HW3 4423   0.763   4.441   2.241 -1.2654  0.4461 -0.1169
 1094SOL    MW4 4424   0.741   4.405   2.317 -0.6111  0.7944  0.2391
 1095SOL     OW 4425   2.957   0.188   2.366  0.0889  0.4985  0.0262
 1095SOL    HW2 4426   2.864   0.167   2.369 -0.4395  2.7156  0.1501
 1095SOL    HW3 4427   2.970   0.251   2.437  1.9391 -0.6751  0.7802
 1095SOL    MW4 4428   2.946   0.194   2.376  0.2632  0.6361  0.1423
 1096SOL     OW 4429   0.833   1.706   1.033  0.0084 -0.2744  0.2198
 1096SOL    HW2 4430   0.883   1.773   1.079  0.4609 -0.3065 -0.2151
 1096SOL    HW3 4431   0.747   1.709   1.073  0.7424 -1.1661  1.9346
 1096SOL    MW4 4432   0.829   1.715   1.044  0.1649 -0.3963  0.3887
 1097SOL     OW 4433   3.360   3.552   0.891 -0.1973  0.0945 -0.1677
 1097SOL    HW2 4434   3.365   3.529   0.798  0.8746 -1.2570  0.2099
 1097SOL    HW3 4435   3.437   3.606   0.906 -0.1952  0.0429  0.0063
 1097SOL    MW4 4436   3.370   3.556   0.880 -0.0556 -0.0908 -0.0950
 1098SOL     OW 4437   3.603   1.728   0.870  0.1539  0.6786 -0.0476
 1098SOL    HW2 4438   3.589   1.820   0.890  0.1598  0.6047  0.2997
 1098SOL    HW3 4439   3.557   1.714   0.787  0.4512  1.0750 -0.2775
 1098SOL    MW4 4440   3.595   1.738   0.862  0.1938  0.7211 -0.0321
 1099SOL     OW 4441   1.859   1.688   3.019  0.7507  0.1455 -0.3453
 1099SOL    HW2 4442   1.891   1.778   3.031  0.8636 -0.0307  0.7579
 1099SOL    HW3 4443   1.814   1.668   3.101  2.0682 -1.3554  0.0322
 1099SOL    MW4 4444   1.857   1.698   3.032  0.9395 -0.0758 -0.1497
 1100SOL     OW 4445   1.249   3.101   3.281 -0.1638  0.2687  0.2459
 1100SOL    HW2 4446   1.273   3.067   3.367  0.3418  0.8770  0.3417
 1100SOL    HW3 4447   1.154   3.114   3.287 -0.3430 -0.9685  0.2606
 1100SOL    MW4 4448   1.239   3.098   3.293 -0.1206  0.1860  0.2604
 1101SOL     OW 4449   0.418   4.226   3.067 -0.0948 -0.4595  0.2244
 1101SOL    HW2 4450   0.363   4.160   3.109 -0.8533 -0.1662 -0.3178
 1101SOL    HW3 4451   0.357   4.283   3.021  0.6055  0.2983  0.2326
 1101SOL    MW4 4452   0.403   4.225   3.067 -0.1025 -0.3209  0.1535
 1102SOL     OW 4453   2.442   3.693   1.991 -0.2853 -0.1095 -0.0794
 1102SOL    HW2 4454   2.469   3.642   2.067  1.1080 -0.6904 -0.9532
 1102SOL    HW3 4455   2.409   3.775   2.028 -0.3638 -0.7038  1.1942
 1102SOL    MW4 4456   2.441   3.697   2.006 -0.1116 -0.2644 -0.0267
 1103SOL     OW 4457   0.409   1.238   4.066 -0.0506  0.1244 -0.3311
 1103SOL    HW2 4458   0.460   1.186   4.003 -1.0858 -0.3635 -0.7736
 1103SOL    HW3 4459   0.401   1.324   4.024  1.9880  0.7899  0.5709
 1103SOL    MW4 4460   0.415   1.242   4.052  0.0818  0.1478 -0.2708
 1104SOL     OW 4461   3.801   1.447   3.667  0.0661  0.0064  0.3419
 1104SOL    HW2 4462   3.893   1.438   3.693  0.2877  0.3114 -0.3178
 1104SOL    HW3 4463   3.775   1.359   3.640 -0.3796 -0.4767  2.2328
 1104SOL    MW4 4464   3.810   1.434   3.667  0.0362 -0.0170  0.5043
 1105SOL     OW 4465   4.418   1.201   0.967 -0.0399  0.1800 -0.1894
 1105SOL    HW2 4466   4.369   1.254   1.030 -1.1368 -0.5594 -0.3965
 1105SOL    HW3 4467   4.428   1.116   1.009  2.2045  0.6925  0.3737
 1105SOL    MW4 4468   4.413   1.197   0.981  0.1116  0.1500 -0.1425
 1106SOL     OW 4469   3.838   3.771   4.306 -0.5362 -0.1614 -0.1680
 1106SOL    HW2 4470   3.854   3.859   4.339  2.3806 -1.0641  0.9599
 1106SOL    HW3 4471   3.876   3.771   4.218  0.5403 -0.6020  0.2830
 1106SOL    MW4 4472   3.845   3.783   4.299 -0.0093 -0.3383  0.0405
 1107SOL     OW 4473   2.358   0.567   0.813  0.2908 -0.1693  0.0941
 1107SOL    HW2 4474   2.269   0.554   0.780  0.6327 -1.7032 -0.2634
 1107SOL    HW3 4475   2.350   0.639   0.876 -0.7742  1.3425 -1.7006
 1107SOL    MW4 4476   2.345   0.575   0.817  0.1955 -0.1722 -0.1898
 1108SOL     OW 4477   1.514   2.686   0.970 -0.1265 -0.1844 -0.3631
 1108SOL    HW2 4478   1.563   2.608   0.994  1.3094  0.6445 -0.5394
 1108SOL    HW3 4479   1.491   2.672   0.878  3.1856  1.1166 -1.4570
 1108SOL    MW4 4480   1.517   2.674   0.961  0.5000  0.0966 -0.5306
 1109SOL     OW 4481   3.725   1.572   2.744 -0.0041 -0.5563  0.3179
 1109SOL    HW2 4482   3.733   1.504   2.811 -0.1971 -0.3915  0.5104
 1109SOL    HW3 4483   3.634   1.602   2.752  0.2427  0.1171  0.6182
 1109SOL    MW4 4484   3.714   1.567   2.754  0.0029 -0.4458  0.3829
 1110SOL     OW 4485   2.958   1.518   4.271 -0.5685  0.1424 -0.1134
 1110SOL    HW2 4486   2.864   1.532   4.258 -0.9802 -1.4738  0.9326
 1110SOL    HW3 4487   2.965   1.425   4.296  1.3446  0.1298 -0.6018
 1110SOL    MW4 4488   2.946   1.507   4.272 -0.3705 -0.0725 -0.0405
 1111SOL     OW 4489   2.702   3.667   2.335 -0.0778 -0.1496  0.5051
 1111SOL    HW2 4490   2.715   3.747   2.284 -0.5936  0.3670  1.1684
 1111SOL    HW3 4491   2.638   3.616   2.284 -0.1639  0.1100  0.3541
 1111SOL    MW4 4492   2.695   3.671   2.321 -0.1571 -0.0472  0.5727
 1112SOL     OW 4493   2.939   3.361   2.175 -0.0908 -0.2139  0.1480
 1112SOL    HW2 4494   2.974   3.441   2.213 -0.5615  0.4347 -0.7448
 1112SOL    HW3 4495   2.938   3.377   2.080  1.6059 -2.0048 -0.2088
 1112SOL    MW4 4496   2.943   3.373   2.167  0.0708 -0.3648 -0.0169
 1113SOL     OW 4497   3.940   3.219   1.168 -0.1887  0.5618 -0.6580
 1113SOL    HW2 4498   4.035   3.231   1.163 -0.2785  1.3739 -0.4612
 1113SOL    HW3 4499   3.924   3.139   1.118  0.4818  1.0140 -1.6258
 1113SOL    MW4 4500   3.951   3.210   1.160 -0.1118  0.7288 -0.7597
 1114SOL     OW 4501   2.764   2.236   1.095 -0.6464  0.1600  0.1340
 1114SOL    HW2 4502   2.818   2.191   1.029  0.4699  0.4027  0.8678
 1114SOL    HW3 4503   2.796   2.326   1.095 -0.8592  0.2389  0.7793
 1114SOL    MW4 4504   2.776   2.242   1.086 -0.5269  0.2027  0.3159
 1115SOL     OW 4505   1.215   4.535   2.667  0.4701  0.0674  0.1775
 1115SOL    HW2 4506   1.204   4.441   2.680  0.9629 -0.0062  0.0864
 1115SOL    HW3 4507   1.207   4.547   2.572 -1.8457  0.4273  0.3933
 1115SOL    MW4 4508   1.212   4.524   2.656  0.2295  0.1054  0.1938
 1116SOL     OW 4509   3.640   1.698   3.854  0.0676  0.3432 -0.1689
 1116SOL    HW2 4510   3.621   1.608   3.877 -0.6786  0.4275 -0.4447
 1116SOL    HW3 4511   3.647   1.697   3.758 -2.5918  1.0625 -0.4045
 1116SOL    MW4 4512   3.638   1.686   3.844 -0.3819  0.4493 -0.2365
 1117SOL     OW 4513   1.054   4.415   3.301  0.0124 -0.7475 -0.2451
 1117SOL    HW2 4514   0.989   4.423   3.230 -0.7667  0.2708  0.5610
 1117SOL    HW3 4515   1.124   4.475   3.276  0.6447 -1.8052 -1.0887
 1117SOL    MW4 4516   1.054   4.424   3.288 -0.0070 -0.7529 -0.2501
 1118SOL     OW 4517   1.926   3.097   2.536 -0.2425 -0.0910 -0.0932
 1118SOL    HW2 4518   1.853   3.044   2.568 -0.5196  0.3381 -0.0138
 1118SOL    HW3 4519   1.908   3.109   2.443 -0.1952 -0.1110 -0.1050
 1118SOL    MW4 4520   1.914   3.091   2.528 -0.2726 -0.0372 -0.0844
 1119SOL     OW 4521   1.512   0.302   4.520  0.2158 -0.2421  0.0177
 1119SOL    HW2 4522   1.476   0.257   4.443  3.6087 -1.9876 -0.6643
 1119SOL    HW3 4523   1.556   0.233   4.569 -0.3471  1.1907  2.6242
 1119SOL    MW4 4524   1.513   0.287   4.516  0.5891 -0.2834  0.2723
 1120SOL     OW 4525   1.864   0.168   4.296 -0.3410  0.1662 -0.5010
 1120SOL    HW2 4526   1.913   0.232   4.244 -1.1009  0.8888 -0.3400
 1120SOL    HW3 4527   1.831   0.217   4.371 -0.9694 -0.3978 -0.3964
 1120SOL    MW4 4528   1.866   0.183   4.299 -0.5242  0.1871 -0.4663
 1121SOL     OW 4529   4.349   2.152   1.906 -0.2069  0.1751  0.1694
 1121SOL    HW2 4530   4.442   2.165   1.925 -0.8132  2.5617  1.7016
 1121SOL    HW3 4531   4.303   2.190   1.981 -2.4345 -1.2558 -0.4028
 1121SOL    MW4 4532   4.355   2.159   1.918 -0.5803  0.3011  0.2959
 1122SOL     OW 4533   4.206   0.270   3.092 -0.5292 -0.3652  0.4314
 1122SOL    HW2 4534   4.289   0.229   3.069  0.4974  1.6069  0.5311
 1122SOL    HW3 4535   4.188   0.329   3.019 -1.2629  0.0720  0.9590
 1122SOL    MW4 4536   4.214   0.272   3.079 -0.4902 -0.0473  0.5143
 1123SOL     OW 4537   0.220   0.097   2.758 -0.3245 -0.0509  0.0050
 1123SOL    HW2 4538   0.132   0.074   2.728 -1.1505  0.1666  2.1689
 1123SOL    HW3 4539   0.209   0.183   2.800  0.3002 -1.3676  2.9492
 1123SOL    MW4 4540   0.207   0.106   2.759 -0.3511 -0.1959  0.6788
 1124SOL     OW 4541   1.710   3.493   2.567 -0.1642  0.1309 -0.0533
 1124SOL    HW2 4542   1.790   3.494   2.515 -0.8706  0.1937 -1.1586
 1124SOL    HW3 4543   1.729   3.433   2.639 -0.0816 -2.1555 -1.8957
 1124SOL    MW4 4544   1.723   3.485   2.570 -0.2465 -0.1626 -0.4420
 1125SOL     OW 4545   1.701   3.313   2.784 -0.3844  0.1610  0.5373
 1125SOL    HW2 4546   1.766   3.253   2.820 -0.0826 -0.7583 -1.4590
 1125SOL    HW3 4547   1.624   3.259   2.767 -0.3209  0.4379 -0.7002
 1125SOL    MW4 4548   1.700   3.298   2.786 -0.3364  0.0761  0.1106
 1126SOL     OW 4549   1.261   3.979   3.271  0.0107  0.5394  0.3195
 1126SOL    HW2 4550   1.208   4.047   3.313 -0.4808 -0.5011  1.4054
 1126SOL    HW3 4551   1.251   3.902   3.327 -1.5289 -1.2117 -2.2813
 1126SOL    MW4 4552   1.253   3.978   3.284 -0.2574  0.1712  0.1199
 1127SOL     OW 4553   0.364   3.027   3.535  0.6923 -0.0743  0.3355
 1127SOL    HW2 4554   0.290   3.002   3.590  0.5105  0.3907  0.3069
 1127SOL    HW3 4555   0.435   2.968   3.562  0.1586 -0.8926 -0.0263
 1127SOL    MW4 4556   0.364   3.016   3.546  0.5979 -0.1209  0.2840
 1128SOL     OW 4557   2.102   2.788   4.493  0.2260 -0.2881  0.4231
 1128SOL    HW2 4558   2.118   2.699   4.461  0.3307 -0.0425 -0.2224
 1128SOL    HW3 4559   2.186   2.833   4.483  0.3708 -0.3227  1.4402
 1128SOL    MW4 4560   2.115   2.782   4.487  0.2589 -0.2604  0.4721
 1129SOL     OW 4561   0.570   1.980   1.405 -0.2366  0.3256 -0.1121
 1129SOL    HW2 4562   0.478   1.955   1.411 -0.4202  0.9176 -0.4503
 1129SOL    HW3 4563   0.571   2.058   1.350  0.6225 -0.5185 -1.3335
 1129SOL    MW4 4564   0.558   1.987   1.398 -0.1475  0.2923 -0.3179
 1130SOL     OW 4565   3.278   1.397   3.340  0.4882 -0.2164 -0.0204
 1130SOL    HW2 4566   3.270   1.482   3.296  0.0051 -0.5840 -0.6426
 1130SOL    HW3 4567   3.302   1.336   3.271 -0.5548 -0.8481  0.1592
 1130SOL    MW4 4568   3.280   1.400   3.325  0.2868 -0.3482 -0.0787
 1131SOL     OW 4569   0.009   1.593   3.112 -0.5037 -0.0118 -0.5436
 1131SOL    HW2 4570   0.020   1.501   3.133  1.4058  0.2387 -0.3251
 1131SOL    HW3 4571  -0.036   1.630   3.187  1.4573 -0.1803  0.7435
 1131SOL    MW4 4572   0.005   1.586   3.124  0.0067 -0.0008 -0.3450
 1132SOL     OW 4573   4.196   1.980   0.369 -0.6518  0.0090 -0.1164
 1132SOL    HW2 4574   4.116   1.965   0.317 -0.4325  0.1941 -0.5106
 1132SOL    HW3 4575   4.199   2.074   0.381 -1.0671 -0.0933  0.8261
 1132SOL    MW4 4576   4.186   1.990   0.364 -0.6771  0.0199 -0.0440
 1133SOL     OW 4577   3.814   4.095   1.569 -0.6822 -0.8369  0.0225
 1133SOL    HW2 4578   3.753   4.022   1.584 -1.8651  0.3764  1.1929
 1133SOL    HW3 4579   3.773   4.147   1.500  0.0427 -1.1250 -0.6378
 1133SOL    MW4 4580   3.801   4.092   1.562 -0.7427 -0.7148  0.0896
 1134SOL     OW 4581   2.150   0.659   3.251  0.2978 -0.1710 -0.5563
 1134SOL    HW2 4582   2.125   0.701   3.333  0.5962 -0.4999 -0.2949
 1134SOL    HW3 4583   2.115   0.716   3.183 -1.9071 -1.0523 -0.2116
 1134SOL    MW4 4584   2.142   0.672   3.253  0.0463 -0.3306 -0.4764
 1135SOL     OW 4585   1.954   3.237   2.946 -0.1303  0.3924  0.4875
 1135SOL    HW2 4586   1.982   3.148   2.928 -1.6460 -0.3782  1.8319
 1135SOL    HW3 4587   1.990   3.289   2.873 -1.3498 -1.7002 -1.6751
 1135SOL    MW4 4588   1.963   3.232   2.934 -0.4913  0.0145  0.3798
 1136SOL     OW 4589   2.353   1.316   3.879 -0.0617  0.4376  0.1421
 1136SOL    HW2 4590   2.360   1.400   3.834  2.0584  1.5880  2.4739
 1136SOL    HW3 4591   2.284   1.329   3.943  0.1296  0.3391  0.3704
 1136SOL    MW4 4592   2.345   1.328   3.881  0.2432  0.5764  0.4799
 1137SOL     OW 4593   2.754   2.874   0.941 -0.2632  0.0137 -0.0282
 1137SOL    HW2 4594   2.730   2.967   0.940  0.6140  0.2789  1.6593
 1137SOL    HW3 4595   2.745   2.846   0.850  0.7252  2.1074 -0.8054
 1137SOL    MW4 4596   2.750   2.883   0.929 -0.0172  0.3247  0.0918
 1138SOL     OW 4597   3.662   1.144   1.392 -0.1380  0.0992 -0.1078
 1138SOL    HW2 4598   3.648   1.167   1.484 -0.8161  0.6652 -0.3438
 1138SOL    HW3 4599   3.587   1.181   1.347  2.1459  3.3486 -1.4524
 1138SOL    MW4 4600   3.650   1.152   1.398  0.0737  0.6025 -0.3163
 1139SOL     OW 4601   4.003   2.463   1.814  0.2643 -0.3176  0.2996
 1139SOL    HW2 4602   4.086   2.462   1.767  1.7721 -0.1369  2.8681
 1139SOL    HW3 4603   3.967   2.375   1.802  0.8543 -0.4191 -0.7550
 1139SOL    MW4 4604   4.009   2.451   1.806  0.5407 -0.3071  0.4994
 1140SOL     OW 4605   2.246   4.594   2.887 -0.0062  0.1624 -0.1245
 1140SOL    HW2 4606   2.297   4.564   2.963  1.2055  1.7838 -0.2378
 1140SOL    HW3 4607   2.299   4.569   2.811 -0.4573 -0.0975 -0.3516
 1140SOL    MW4 4608   2.260   4.587   2.887  0.0944  0.3419 -0.1695
 1141SOL     OW 4609   4.462   4.471   1.511 -0.3810  0.2348 -0.1497
 1141SOL    HW2 4610   4.376   4.440   1.537  0.2442  0.2651  2.0383
 1141SOL    HW3 4611   4.451   4.565   1.498 -0.6464  0.2625  0.2650
 1141SOL    MW4 4612   4.449   4.479   1.513 -0.3333  0.2432  0.1937
 1142SOL     OW 4613   2.673   1.587   0.599  0.4540 -0.1984 -0.0609
 1142SOL    HW2 4614   2.702   1.678   0.601 -0.0674 -0.0477  1.3250
 1142SOL    HW3 4615   2.749   1.537   0.630  0.7215 -0.2392 -0.7689
 1142SOL    MW4 4616   2.687   1.592   0.604  0.4208 -0.1839  0.0285
 1143SOL     OW 4617   4.483   2.634   4.361 -0.6410 -0.0083 -0.0363
 1143SOL    HW2 4618   4.481   2.676   4.275  0.3782  1.3064  0.5796
 1143SOL    HW3 4619   4.397   2.591   4.369 -0.8774  0.1685 -1.5429
 1143SOL    MW4 4620   4.472   2.634   4.351 -0.5374  0.1886 -0.1540
 1144SOL     OW 4621   2.396   1.041   3.770  0.7598  0.3075 -0.3877
 1144SOL    HW2 4622   2.367   1.026   3.680 -1.8300  0.3236  0.3859
 1144SOL    HW3 4623   2.373   1.132   3.789  2.1063  0.5773  0.0086
 1144SOL    MW4 4624   2.389   1.051   3.761  0.5958  0.3451 -0.2332
 1145SOL     OW 4625   1.497   2.967   4.159  0.0705 -0.7440 -0.3292
 1145SOL    HW2 4626   1.557   3.033   4.124  0.5283  1.5135  4.2782
 1145SOL    HW3 4627   1.411   2.996   4.129  0.3877  1.3310  0.6575
 1145SOL    MW4 4628   1.494   2.980   4.150  0.1727 -0.1721  0.4086
 1146SOL     OW 4629   0.088   4.006   2.840 -0.2022 -0.2278 -0.3728
 1146SOL    HW2 4630   0.019   3.939   2.838  0.6134 -1.0909 -0.1901
 1146SOL    HW3 4631   0.164   3.959   2.874  0.2356  0.9337  0.2481
 1146SOL    MW4 4632   0.089   3.991   2.845 -0.0368 -0.1886 -0.2668
 1147SOL     OW 4633   0.285   0.719   3.951 -0.7313 -0.3364 -0.0255
 1147SOL    HW2 4634   0.277   0.669   3.869 -0.0209  0.8510 -0.8400
 1147SOL    HW3 4635   0.361   0.680   3.995  0.7120  0.9353 -1.3338
 1147SOL    MW4 4636   0.294   0.707   3.946 -0.4472 -0.0119 -0.3057
 1148SOL     OW 4637   1.993   2.837   3.650  0.4473  0.2543  0.1164
 1148SOL    HW2 4638   1.922   2.876   3.700  0.4980 -0.2117  0.5562
 1148SOL    HW3 4639   2.019   2.904   3.587 -2.0617 -0.4473 -1.7350
 1148SOL    MW4 4640   1.987   2.851   3.648  0.1229  0.1004 -0.0696
 1149SOL     OW 4641   2.542   3.815   0.776 -0.0292  0.2049 -0.3472
 1149SOL    HW2 4642   2.490   3.746   0.735 -1.1554 -0.0268  1.3858
 1149SOL    HW3 4643   2.489   3.843   0.851  1.6035  1.1268  0.5004
 1149SOL    MW4 4644   2.528   3.810   0.780  0.0374  0.2959 -0.0067
 1150SOL     OW 4645   1.902   2.005   4.012  0.0362 -0.1179  0.0666
 1150SOL    HW2 4646   1.880   2.095   3.987 -0.8849  0.4007  2.5358
 1150SOL    HW3 4647   1.829   1.952   3.981 -1.4692  0.6164  2.2140
 1150SOL    MW4 4648   1.890   2.010   4.005 -0.2840  0.0474  0.6757
 1151SOL     OW 4649   1.538   1.427   3.922  0.7914  0.1532 -0.3537
 1151SOL    HW2 4650   1.521   1.520   3.906  0.7534  0.3455  0.7984
 1151SOL    HW3 4651   1.474   1.402   3.989  1.6176 -0.4100  0.2280
 1151SOL    MW4 4652   1.527   1.436   3.929  0.8954  0.1043 -0.1252
 1152SOL     OW 4653   1.746   4.257   3.660 -0.9978  0.1249 -0.2907
 1152SOL    HW2 4654   1.821   4.198   3.668 -0.1850  0.9729 -1.5560
 1152SOL    HW3 4655   1.725   4.258   3.567 -0.1648  2.8484 -0.4995
 1152SOL    MW4 4656   1.753   4.250   3.649 -0.7807  0.5965 -0.4852
 1153SOL     OW 4657   1.795   0.897   4.468 -0.0393 -1.0470 -0.3771
 1153SOL    HW2 4658   1.793   0.993   4.469  1.9834 -0.9862  1.4292
 1153SOL    HW3 4659   1.779   0.875   4.376 -1.1699  0.9829 -0.7151
 1153SOL    MW4 4660   1.793   0.907   4.456  0.0784 -0.7711 -0.1836
 1154SOL     OW 4661   3.982   2.401   2.891 -0.3704 -0.4825 -0.3332
 1154SOL    HW2 4662   3.943   2.482   2.858 -0.3288  0.2107  1.2639
 1154SOL    HW3 4663   3.979   2.341   2.817  0.8472  1.4119 -1.9828
 1154SOL    MW4 4664   3.977   2.404   2.877 -0.2046 -0.1409 -0.3397
 1155SOL     OW 4665   2.906   1.365   3.743 -0.2606 -0.1312 -0.0566
 1155SOL    HW2 4666   2.919   1.409   3.659 -0.3472 -0.0873 -0.0473
 1155SOL    HW3 4667   2.871   1.433   3.800 -0.4631 -0.2313 -0.0633
 1155SOL    MW4 4668   2.903   1.380   3.739 -0.2990 -0.1386 -0.0560
 1156SOL     OW 4669   2.883   3.923   3.660  0.4481 -0.0244 -0.0015
 1156SOL    HW2 4670   2.944   3.962   3.723  0.5343 -2.8957  1.8051
 1156SOL    HW3 4671   2.797   3.946   3.695  0.4963 -1.5817  1.1912
 1156SOL    MW4 4672   2.880   3.931   3.673  0.4659 -0.6087  0.3941
 1157SOL     OW 4673   3.123   2.070   1.227  0.6393 -0.7504  0.0969
 1157SOL    HW2 4674   3.204   2.061   1.277  1.7003  0.8001 -1.3274
 1157SOL    HW3 4675   3.145   2.037   1.140 -0.5457 -1.2186 -0.0352
 1157SOL    MW4 4676   3.136   2.064   1.222  0.6227 -0.6077 -0.1085
 1158SOL     OW 4677   3.062   4.360   1.666  0.3230  0.0268 -0.1599
 1158SOL    HW2 4678   3.053   4.404   1.750  1.1673  0.7030 -0.4091
 1158SOL    HW3 4679   2.994   4.293   1.666  0.2074  0.1339  0.9850
 1158SOL    MW4 4680   3.052   4.357   1.677  0.4191  0.1302 -0.0418
 1159SOL     OW 4681   2.512   2.443   3.611 -0.0497 -0.1771 -0.0316
 1159SOL    HW2 4682   2.556   2.409   3.533 -1.1503 -1.5991 -0.0534
 1159SOL    HW3 4683   2.422   2.411   3.604 -0.4516  0.6343  1.2460
 1159SOL    MW4 4684   2.506   2.434   3.600 -0.2480 -0.2577  0.1340
 1160SOL     OW 4685   1.531   4.376   3.020 -0.3147  0.3850  0.3798
 1160SOL    HW2 4686   1.501   4.337   2.939  2.7855 -0.0534 -0.6158
 1160SOL    HW3 4687   1.583   4.308   3.062 -3.6558 -0.1946  3.8923
 1160SOL    MW4 4688   1.534   4.362   3.015 -0.3465  0.2508  0.7119
 1161SOL     OW 4689   0.971   0.279   2.457 -0.3071  0.0983 -0.4362
 1161SOL    HW2 4690   0.894   0.301   2.404 -2.1139 -0.2318  1.9530
 1161SOL    HW3 4691   0.950   0.194   2.495  0.2934  0.9885  1.9617
 1161SOL    MW4 4692   0.958   0.271   2.455 -0.4662  0.1722  0.1953
 1162SOL     OW 4693   2.587   0.030   4.255  0.3550  0.7056  0.0791
 1162SOL    HW2 4694   2.531   0.013   4.331  0.2489 -1.1063 -0.3852
 1162SOL    HW3 4695   2.663  -0.027   4.268  0.4377  0.5466 -1.0688
 1162SOL    MW4 4696   2.590   0.020   4.267  0.3521  0.4458 -0.1340
 1163SOL     OW 4697   3.777   3.117   2.508 -0.1815  0.1535  0.8026
 1163SOL    HW2 4698   3.854   3.078   2.468 -0.0860  0.7816  0.3715
 1163SOL    HW3 4699   3.720   3.042   2.529 -0.3869 -0.1597 -0.8034
 1163SOL    MW4 4700   3.779   3.102   2.506 -0.1962  0.1953  0.5338
 1164SOL     OW 4701   2.252   1.057   1.945  0.2560 -0.3723  0.1897
 1164SOL    HW2 4702   2.287   1.037   1.858  0.5326 -0.0826  0.2338
 1164SOL    HW3 4703   2.327   1.092   1.993  0.3899 -1.6473  0.9168
 1164SOL    MW4 4704   2.267   1.059   1.940  0.3102 -0.5023  0.2915
 1165SOL     OW 4705   0.636   4.556   2.508 -0.0604 -0.0987 -0.0701
 1165SOL    HW2 4706   0.615   4.503   2.584 -1.2577  0.4130 -0.0401
 1165SOL    HW3 4707   0.559   4.611   2.494  0.5930  0.6149 -0.9651
 1165SOL    MW4 4708   0.623   4.556   2.516 -0.1321  0.0629 -0.1843
 1166SOL     OW 4709   0.505   0.369   1.276  0.5211 -0.6311  0.5456
 1166SOL    HW2 4710   0.492   0.453   1.320  1.1511 -1.0245  1.5017
 1166SOL    HW3 4711   0.558   0.390   1.199  0.9383 -0.1953  0.9491
 1166SOL    MW4 4712   0.510   0.383   1.272  0.6593 -0.6255  0.7250
 1167SOL     OW 4713   1.957   4.135   0.919 -0.2712  0.0153  0.5407
 1167SOL    HW2 4714   1.870   4.095   0.915 -0.2654  0.0418  0.0749
 1167SOL    HW3 4715   1.967   4.180   0.835  0.9711 -1.6033 -0.2093
 1167SOL    MW4 4716   1.947   4.136   0.907 -0.1065 -0.1950  0.3803
 1168SOL     OW 4717   0.749   1.864   2.483  0.0840  0.1738 -0.1812
 1168SOL    HW2 4718   0.787   1.952   2.479  0.0810  0.3157  2.2302
 1168SOL    HW3 4719   0.691   1.866   2.559  0.2625 -1.9820  0.0528
 1168SOL    MW4 4720   0.746   1.876   2.492  0.1071 -0.0920  0.1676
 1169SOL     OW 4721   1.636   2.325   3.678 -0.3922  0.2179  0.5001
 1169SOL    HW2 4722   1.658   2.286   3.593  0.9126 -1.7425  1.6809
 1169SOL    HW3 4723   1.623   2.418   3.660 -1.9618 -0.4671 -2.1557
 1169SOL    MW4 4724   1.638   2.332   3.665 -0.4270 -0.1311  0.3054
 1170SOL     OW 4725   1.354   2.530   2.470  0.7627  0.2374 -0.0385
 1170SOL    HW2 4726   1.264   2.513   2.496  1.3406 -0.2164  1.7765
 1170SOL    HW3 4727   1.354   2.519   2.375 -0.5907 -2.2079  0.1828
 1170SOL    MW4 4728   1.342   2.526   2.461  0.6603 -0.1450  0.2303
 1171SOL     OW 4729   1.986   2.603   3.011 -0.0085  0.2937 -0.4606
 1171SOL    HW2 4730   1.982   2.536   2.942  0.8150  0.5074 -0.7291
 1171SOL    HW3 4731   1.895   2.619   3.036 -0.4571  1.6551 -2.8823
 1171SOL    MW4 4732   1.974   2.596   3.005  0.0410  0.5012 -0.8154
 1172SOL     OW 4733   0.939   3.762   3.466  0.2995 -0.8324  0.2022
 1172SOL    HW2 4734   0.870   3.765   3.533 -0.0985  0.0747 -0.2319
 1172SOL    HW3 4735   0.902   3.810   3.392  1.5021 -0.0998  0.0643
 1172SOL    MW4 4736   0.925   3.769   3.465  0.4056 -0.6161  0.1271
 1173SOL     OW 4737   0.581   0.005   1.667  0.0495  0.0712 -0.1857
 1173SOL    HW2 4738   0.579  -0.046   1.748  2.3666 -0.4087 -0.3991
 1173SOL    HW3 4739   0.589   0.096   1.695  1.0445 -0.1106  0.1430
 1173SOL    MW4 4740   0.582   0.010   1.681  0.4864 -0.0157 -0.1704
 1174SOL     OW 4741   1.353   2.403   3.311  0.0224  0.6298  0.2056
 1174SOL    HW2 4742   1.286   2.360   3.365  0.4005 -0.3036 -0.0473
 1174SOL    HW3 4743   1.324   2.494   3.304 -1.1109  0.2890  0.2816
 1174SOL    MW4 4744   1.340   2.409   3.317 -0.0771  0.4616  0.1824
 1175SOL     OW 4745   1.278   3.638   4.506  0.1299 -0.1142  0.0666
 1175SOL    HW2 4746   1.352   3.580   4.486  0.1131  0.0019 -0.3344
 1175SOL    HW3 4747   1.210   3.580   4.539  0.0327 -0.3492 -0.5490
 1175SOL    MW4 4748   1.279   3.622   4.508  0.1148 -0.1297 -0.0682
 1176SOL     OW 4749   3.823   1.052   4.000  0.2053 -0.1501 -0.0792
 1176SOL    HW2 4750   3.734   1.084   3.987  0.1421 -1.1496 -2.3483
 1176SOL    HW3 4751   3.844   1.075   4.091 -1.5984  1.9248 -0.1452
 1176SOL    MW4 4752   3.814   1.060   4.010 -0.0410 -0.0082 -0.3872
 1177SOL     OW 4753   0.054   3.480   3.533 -0.1444  0.1497  0.7194
 1177SOL    HW2 4754   0.108   3.420   3.586 -1.0210  0.8503  2.4451
 1177SOL    HW3 4755   0.101   3.487   3.450  0.7453 -1.7693  1.0349
 1177SOL    MW4 4756   0.067   3.473   3.529 -0.1427 -0.0112  0.9885
 1178SOL     OW 4757   2.599   1.830   2.784 -0.5349 -0.3046 -0.1183
 1178SOL    HW2 4758   2.636   1.831   2.695 -0.8259  1.7136 -0.2330
 1178SOL    HW3 4759   2.561   1.743   2.792  0.8672 -1.0747 -1.3973
 1178SOL    MW4 4760   2.599   1.818   2.773 -0.3884 -0.1398 -0.3023
 1179SOL     OW 4761   2.406   4.114   3.762  0.5242 -0.0210  0.4627
 1179SOL    HW2 4762   2.411   4.161   3.679 -1.4979 -0.3337  0.1426
 1179SOL    HW3 4763   2.475   4.048   3.756  0.6358  0.1991 -0.8259
 1179SOL    MW4 4764   2.416   4.112   3.750  0.2720 -0.0324  0.2503
 1180SOL     OW 4765   3.623   0.670   3.151  0.3004  0.0681 -0.3528
 1180SOL    HW2 4766   3.697   0.612   3.133  0.4220 -0.3430  1.4229
 1180SOL    HW3 4767   3.560   0.615   3.198 -1.7577  0.0193 -3.0390
 1180SOL    MW4 4768   3.624   0.655   3.155  0.0451  0.0075 -0.4730
 1181SOL     OW 4769   4.205   1.991   4.624  0.3911  0.2423  0.3089
 1181SOL    HW2 4770   4.267   2.057   4.597 -0.1239  0.6976  0.2367
 1181SOL    HW3 4771   4.221   1.916   4.566  0.3456  0.6406 -0.2133
 1181SOL    MW4 4772   4.215   1.990   4.613  0.3171  0.3550  0.2308
 1182SOL     OW 4773   3.774   2.380   4.390  0.0568 -0.4137  0.5234
 1182SOL    HW2 4774   3.729   2.382   4.305 -1.7436 -1.4332  1.4331
 1182SOL    HW3 4775   3.831   2.303   4.384 -0.7401 -1.0171  0.5585
 1182SOL    MW4 4776   3.776   2.370   4.378 -0.2859 -0.6278  0.6485
 1183SOL     OW 4777   1.220   4.258   2.594  0.1143 -0.0733 -0.4215
 1183SOL    HW2 4778   1.137   4.215   2.572 -0.8999  1.1992  0.8543
 1183SOL    HW3 4779   1.271   4.253   2.514 -1.6077  0.0604 -1.5561
 1183SOL    MW4 4780   1.215   4.251   2.581 -0.2468  0.1121 -0.4029
 1184SOL     OW 4781   1.844   3.065   4.538  0.4113  0.4473  0.7874
 1184SOL    HW2 4782   1.866   2.996   4.601 -0.5792  0.5324  1.2207
 1184SOL    HW3 4783   1.920   3.124   4.540  0.2977  0.5603  2.0392
 1184SOL    MW4 4784   1.857   3.064   4.546  0.2657  0.4735  1.0095
 1185SOL     OW 4785   1.527   1.031   3.869 -0.3344 -0.2995  0.2221
 1185SOL    HW2 4786   1.612   0.993   3.890 -0.1192 -0.1480 -0.3677
 1185SOL    HW3 4787   1.494   1.063   3.953  0.6940  0.6574  0.2704
 1185SOL    MW4 4788   1.534   1.030   3.883 -0.1705 -0.1532  0.1504
 1186SOL     OW 4789   3.904   0.077   3.951  0.0827 -0.0568  0.6135
 1186SOL    HW2 4790   3.864   0.011   3.894  1.4926 -1.9627  1.7618
 1186SOL    HW3 4791   3.830   0.114   3.999 -0.8309 -0.1522 -0.6896
 1186SOL    MW4 4792   3.889   0.073   3.950  0.1481 -0.3209  0.5929
 1187SOL     OW 4793   1.478   2.770   2.578  0.2442  0.2772 -0.4372
 1187SOL    HW2 4794   1.417   2.701   2.550  0.7591 -1.3021  2.2229
 1187SOL    HW3 4795   1.422   2.835   2.620  0.2253 -0.6989  1.1028
 1187SOL    MW4 4796   1.462   2.769   2.580  0.3095 -0.0601  0.1168
 1188SOL     OW 4797   2.372   0.820   3.027  0.0766 -0.1576  0.2193
 1188SOL    HW2 4798   2.282   0.840   3.002 -0.0820  0.3701  1.1983
 1188SOL    HW3 4799   2.389   0.734   2.988 -1.6675 -1.3710  2.0625
 1188SOL    MW4 4800   2.362   0.811   3.018 -0.1743 -0.2481  0.5915
 1189SOL     OW 4801   1.673   0.296   1.555 -0.1360  0.0858 -0.9079
 1189SOL    HW2 4802   1.744   0.288   1.491  1.8472 -1.8743  1.4423
 1189SOL    HW3 4803   1.685   0.384   1.593  2.0355 -0.8046  0.5502
 1189SOL    MW4 4804   1.684   0.307   1.552  0.4122 -0.2903 -0.4053
 1190SOL     OW 4805   3.556   1.121   2.849 -0.1458  0.1220 -0.6252
 1190SOL    HW2 4806   3.519   1.070   2.922  0.0277  1.4556  0.4151
 1190SOL    HW3 4807   3.635   1.073   2.825 -1.0051 -1.1604 -0.9450
 1190SOL    MW4 4808   3.561   1.108   2.856 -0.2363  0.1289 -0.5302
 1191SOL     OW 4809   0.324   1.912   1.933 -0.5351  0.6762 -0.4340
 1191SOL    HW2 4810   0.333   1.838   1.994 -0.0648  1.0621 -0.0343
 1191SOL    HW3 4811   0.404   1.909   1.880 -0.4060  1.0433 -0.2597
 1191SOL    MW4 4812   0.336   1.902   1.934 -0.4560  0.7756 -0.3582
 1192SOL     OW 4813   3.280   1.578   1.806 -0.4642  0.4087 -0.5672
 1192SOL    HW2 4814   3.253   1.557   1.896  1.6434 -0.4688 -0.1177
 1192SOL    HW3 4815   3.366   1.618   1.816  0.9366 -2.0323 -2.3367
 1192SOL    MW4 4816   3.288   1.580   1.820 -0.0012 -0.0291 -0.7412
 1193SOL     OW 4817   0.530   3.409   3.950  0.2522  0.1817  0.0261
 1193SOL    HW2 4818   0.467   3.480   3.956  1.1825  1.0107  0.0453
 1193SOL    HW3 4819   0.614   3.449   3.973  1.0865 -0.4989 -1.7391
 1193SOL    MW4 4820   0.533   3.423   3.954  0.4851  0.2012 -0.2043
 1194SOL     OW 4821   2.795   2.860   1.222 -0.3738 -0.3830 -0.3324
 1194SOL    HW2 4822   2.890   2.871   1.220 -0.4451  0.4463  0.7837
 1194SOL    HW3 4823   2.770   2.851   1.130  0.6093  0.8764 -0.7342
 1194SOL    MW4 4824   2.804   2.860   1.209 -0.2534 -0.1073 -0.2382
 1195SOL     OW 4825   4.393   2.095   2.756 -0.4123 -0.4575  0.4394
 1195SOL    HW2 4826   4.336   2.055   2.690 -1.4140 -1.2755  1.7809
 1195SOL    HW3 4827   4.337   2.159   2.801 -0.1357 -0.8848  1.4080
 1195SOL    MW4 4828   4.378   2.098   2.753 -0.5074 -0.6218  0.7441
 1196SOL     OW 4829   2.616   1.054   3.282 -0.0466 -0.5129 -0.3474
 1196SOL    HW2 4830   2.624   1.103   3.201 -0.0727 -1.3014 -0.8362
 1196SOL    HW3 4831   2.533   1.007   3.273  0.2370 -1.0634 -0.1252
 1196SOL    MW4 4832   2.606   1.054   3.270 -0.0124 -0.6895 -0.3824
 1197SOL     OW 4833   2.573   2.387   1.783 -0.0313  0.4272 -0.1123
 1197SOL    HW2 4834   2.537   2.373   1.696  1.1491 -3.2507 -0.1088
 1197SOL    HW3 4835   2.658   2.429   1.768  0.0870 -0.0351 -0.7507
 1197SOL    MW4 4836   2.580   2.391   1.769  0.1397 -0.1187 -0.1961
 1198SOL     OW 4837   1.282   1.274   2.609 -0.5745 -0.2085  0.2748
 1198SOL    HW2 4838   1.284   1.365   2.640 -1.1271 -0.2223  0.3570
 1198SOL    HW3 4839   1.356   1.267   2.550  0.0402  0.0379  1.0110
 1198SOL    MW4 4840   1.292   1.285   2.606 -0.5664 -0.1779  0.3827
 1199SOL     OW 4841   0.969   1.234   3.108 -0.5589 -0.0016  0.4688
 1199SOL    HW2 4842   0.955   1.314   3.160 -1.1521 -0.0885  0.4496
 1199SOL    HW3 4843   0.894   1.231   3.048 -0.5771 -0.6082  0.5178
 1199SOL    MW4 4844   0.957   1.244   3.107 -0.6396 -0.0932  0.4728
 1200SOL     OW 4845   4.359   0.814   1.693 -0.5759  0.3385  0.3147
 1200SOL    HW2 4846   4.399   0.779   1.613 -1.6569 -0.7674  0.2479
 1200SOL    HW3 4847   4.378   0.908   1.689  2.3724 -0.2155  0.5136
 1200SOL    MW4 4848   4.366   0.822   1.682 -0.3295  0.1196  0.3320
 1201SOL     OW 4849   3.743   0.223   1.526 -0.9527 -0.1356  0.3639
 1201SOL    HW2 4850   3.792   0.228   1.609  0.8674 -1.3614 -0.6142
 1201SOL    HW3 4851   3.739   0.314   1.496 -2.8631  0.5358  2.4564
 1201SOL    MW4 4852   3.749   0.236   1.533 -0.9646 -0.2088  0.5108
 1202SOL     OW 4853   3.169   1.972   2.430 -0.2018  0.3529 -0.2087
 1202SOL    HW2 4854   3.239   1.916   2.462  0.1783  0.8292 -0.2099
 1202SOL    HW3 4855   3.157   2.038   2.498 -1.0539 -0.0699  0.0664
 1202SOL    MW4 4856   3.176   1.973   2.443 -0.2642  0.3599 -0.1724
 1203SOL     OW 4857   2.431   4.068   3.439 -0.3635  0.5538  0.4060
 1203SOL    HW2 4858   2.382   3.987   3.425  1.2195 -0.2023 -0.9156
 1203SOL    HW3 4859   2.405   4.125   3.366 -1.3410  1.2074  1.2360
 1203SOL    MW4 4860   2.421   4.065   3.427 -0.2837  0.5407  0.3412
 1204SOL     OW 4861   4.363   1.992   2.323 -0.3763 -0.1713 -0.3704
 1204SOL    HW2 4862   4.445   2.036   2.305 -0.4041 -0.1032 -0.3317
 1204SOL    HW3 4863   4.388   1.907   2.359 -0.3230 -0.2269 -0.5395
 1204SOL    MW4 4864   4.377   1.986   2.325 -0.3729 -0.1696 -0.3874
 1205SOL     OW 4865   3.409   1.248   3.155 -0.3295 -0.4062  0.4850
 1205SOL    HW2 4866   3.493   1.261   3.199 -0.1893  0.2294  0.0415
 1205SOL    HW3 4867   3.404   1.154   3.141  0.5122 -0.4087  0.1331
 1205SOL    MW4 4868   3.420   1.237   3.159 -0.2003 -0.3227  0.3800
 1206SOL     OW 4869   0.359   2.342   3.939  0.1498 -0.6599 -0.7318
 1206SOL    HW2 4870   0.399   2.399   3.874  0.0214 -0.6176 -0.7739
 1206SOL    HW3 4871   0.303   2.399   3.992 -0.1109 -0.7747 -0.8813
 1206SOL    MW4 4872   0.357   2.357   3.938  0.0985 -0.6692 -0.7570
 1207SOL     OW 4873   0.790   2.839   0.978  0.0231  0.2384  0.1092
 1207SOL    HW2 4874   0.775   2.882   1.062 -1.4895  0.5235 -0.2913
 1207SOL    HW3 4875   0.781   2.909   0.913 -1.5110 -0.4702 -0.4776
 1207SOL    MW4 4876   0.787   2.854   0.980 -0.3788  0.1826 -0.0211
 1208SOL     OW 4877   2.084   1.644   2.740  0.3906  0.4626 -0.5394
 1208SOL    HW2 4878   2.053   1.723   2.698 -1.8425  1.1451  2.2117
 1208SOL    HW3 4879   2.110   1.672   2.828 -1.5841 -1.9711  0.9046
 1208SOL    MW4 4880   2.083   1.658   2.746 -0.1645  0.2315  0.0141
 1209SOL     OW 4881   2.659   3.902   3.352  0.0616 -0.2578  0.1895
 1209SOL    HW2 4882   2.625   3.967   3.414  0.3275  1.0944 -1.0447
 1209SOL    HW3 4883   2.666   3.821   3.403 -0.7256  0.5653  1.6326
 1209SOL    MW4 4884   2.656   3.900   3.367 -0.0069  0.0291  0.2172
 1210SOL     OW 4885   1.215   1.439   1.902  0.0651  0.0303  0.5387
 1210SOL    HW2 4886   1.208   1.369   1.837  1.1261 -0.1962  0.6618
 1210SOL    HW3 4887   1.171   1.513   1.861 -0.8705 -0.6299  0.3117
 1210SOL    MW4 4888   1.208   1.439   1.888  0.0817 -0.0868  0.5248
 1211SOL     OW 4889   2.950   0.891   1.924 -0.3226 -0.2563 -0.0227
 1211SOL    HW2 4890   2.919   0.868   2.012  0.9921 -0.8439  0.3075
 1211SOL    HW3 4891   3.008   0.966   1.938 -0.1310 -0.3342 -0.3965
 1211SOL    MW4 4892   2.954   0.898   1.937 -0.1237 -0.3440 -0.0285
 1212SOL     OW 4893   4.316   1.952   4.156  0.2387  0.0648  0.1992
 1212SOL    HW2 4894   4.272   1.869   4.137  0.2520  0.2963 -0.8468
 1212SOL    HW3 4895   4.247   2.018   4.152  0.4865  0.2880 -0.3731
 1212SOL    MW4 4896   4.301   1.949   4.153  0.2737  0.1247 -0.0138
 1213SOL     OW 4897   0.224   1.471   2.009 -0.5089 -0.5713  0.3898
 1213SOL    HW2 4898   0.201   1.378   2.006 -0.0161 -0.6818  0.0725
 1213SOL    HW3 4899   0.198   1.499   2.097 -2.3865 -0.5690 -0.1367
 1213SOL    MW4 4900   0.217   1.462   2.020 -0.6916 -0.5856  0.2785
 1214SOL     OW 4901   2.784   2.398   2.195 -0.2695  0.1258 -0.3751
 1214SOL    HW2 4902   2.850   2.379   2.127  0.8209  0.8145  0.4739
 1214SOL    HW3 4903   2.731   2.318   2.199  0.3002 -0.3140 -1.3067
 1214SOL    MW4 4904   2.786   2.385   2.186 -0.0508  0.1585 -0.3860
 1215SOL     OW 4905   2.704   3.179   1.757 -0.3642  0.0663  0.0975
 1215SOL    HW2 4906   2.694   3.206   1.848 -3.6936 -1.9019  0.4071
 1215SOL    HW3 4907   2.689   3.259   1.707  2.1305  1.3119  1.2084
 1215SOL    MW4 4908   2.701   3.193   1.762 -0.4745 -0.0288  0.2849
 1216SOL     OW 4909   0.486   2.738   3.223  0.0173  0.0399  0.4785
 1216SOL    HW2 4910   0.419   2.686   3.268  0.8664 -0.2395  1.4377
 1216SOL    HW3 4911   0.514   2.802   3.289 -0.2752  1.0569 -0.3566
 1216SOL    MW4 4912   0.481   2.740   3.238  0.0907  0.1373  0.4947
 1217SOL     OW 4913   1.709   4.647   3.992  0.0850 -0.3446 -0.0779
 1217SOL    HW2 4914   1.696   4.576   3.930 -0.1874 -0.1505 -0.2412
 1217SOL    HW3 4915   1.668   4.616   4.073  1.5646 -1.1390  0.3869
 1217SOL    MW4 4916   1.702   4.633   3.994  0.2443 -0.4239 -0.0384
 1218SOL     OW 4917   0.274   2.741   2.474  0.3805  0.1258  0.1237
 1218SOL    HW2 4918   0.363   2.757   2.506  0.7494  0.9912 -1.2622
 1218SOL    HW3 4919   0.217   2.783   2.538  0.9748 -0.4295  1.0198
 1218SOL    MW4 4920   0.279   2.749   2.487  0.5076  0.1669  0.0591
 1219SOL     OW 4921   1.205   3.207   2.162  0.7436  0.2048  0.2732
 1219SOL    HW2 4922   1.110   3.201   2.150  0.3702 -0.5837  3.1764
 1219SOL    HW3 4923   1.242   3.170   2.082 -1.3956 -0.2053 -0.5603
 1219SOL    MW4 4924   1.197   3.201   2.150  0.4121  0.0467  0.5460
 1220SOL     OW 4925   2.085   0.897   3.079 -0.2886 -0.5709  0.4702
 1220SOL    HW2 4926   2.035   0.834   3.027 -0.4416 -1.0284  1.1689
 1220SOL    HW3 4927   2.021   0.937   3.137 -0.5778  1.6779 -1.3211
 1220SOL    MW4 4928   2.070   0.894   3.079 -0.3469 -0.3346  0.3259
 1221SOL     OW 4929   3.939   2.024   3.167 -0.3520  0.1964  0.1520
 1221SOL    HW2 4930   3.994   2.098   3.194 -0.3390  0.3039 -0.1669
 1221SOL    HW3 4931   3.876   2.015   3.237  0.0021  0.1470  0.4674
 1221SOL    MW4 4932   3.938   2.033   3.180 -0.3037  0.2038  0.1516
 1222SOL     OW 4933   1.381   1.448   1.048 -0.0453  0.2611  0.0765
 1222SOL    HW2 4934   1.320   1.487   0.986  1.1964  0.3591 -1.1186
 1222SOL    HW3 4935   1.335   1.449   1.132 -0.4195  3.4366 -0.1010
 1222SOL    MW4 4936   1.367   1.453   1.051  0.0691  0.6930 -0.1048
 1223SOL     OW 4937   2.576   0.560   1.162  0.0607 -0.1963 -0.2547
 1223SOL    HW2 4938   2.604   0.636   1.111  0.5110  0.9506  1.6364
 1223SOL    HW3 4939   2.653   0.535   1.213 -0.6290 -0.7327  0.5468
 1223SOL    MW4 4940   2.590   0.567   1.162  0.0291 -0.1157  0.1006
 1224SOL     OW 4941   1.426   0.518   2.247 -0.0794 -0.2661  0.0881
 1224SOL    HW2 4942   1.388   0.584   2.306  1.5272 -1.1335  2.1235
 1224SOL    HW3 4943   1.446   0.444   2.303  1.8079 -0.9976 -1.4991
 1224SOL    MW4 4944   1.423   0.517   2.262  0.3817 -0.4771  0.1469
 1225SOL     OW 4945   1.700   4.471   1.177 -0.0913  0.0740 -0.5357
 1225SOL    HW2 4946   1.719   4.426   1.259 -0.5366 -1.2306 -1.1469
 1225SOL    HW3 4947   1.784   4.474   1.131 -0.4156 -1.7223 -1.2717
 1225SOL    MW4 4948   1.714   4.466   1.181 -0.1929 -0.3347 -0.7133
 1226SOL     OW 4949   0.035   0.175   2.000 -0.6342 -0.0557  0.0708
 1226SOL    HW2 4950   0.030   0.200   1.908  0.3080 -0.0753  0.0055
 1226SOL    HW3 4951   0.096   0.238   2.039  0.9957 -1.5887  0.1161
 1226SOL    MW4 4952   0.043   0.187   1.993 -0.2948 -0.2605  0.0683
 1227SOL     OW 4953   3.278   2.190   2.939 -0.2851 -0.0881 -0.0338
 1227SOL    HW2 4954   3.277   2.279   2.975 -1.2110  0.0031 -0.2762
 1227SOL    HW3 4955   3.239   2.136   3.008  0.4670 -0.3385  0.1951
 1227SOL    MW4 4956   3.273   2.195   2.953 -0.3076 -0.1094 -0.0355
 1228SOL     OW 4957   3.725   2.276   2.842 -0.3011 -0.3552 -0.4531
 1228SOL    HW2 4958   3.799   2.304   2.896  0.2028  0.3148 -1.4677
 1228SOL    HW3 4959   3.654   2.260   2.904  0.9632 -1.8968  0.6269
 1228SOL    MW4 4960   3.726   2.277   2.857 -0.0679 -0.4702 -0.4442
 1229SOL     OW 4961   2.136   0.276   3.946  0.1451  0.5233  0.1987
 1229SOL    HW2 4962   2.075   0.202   3.950 -1.3247  1.7956  1.8599
 1229SOL    HW3 4963   2.093   0.339   3.889  0.4459  0.9512  0.4435
 1229SOL    MW4 4964   2.122   0.275   3.939 -0.0091  0.7477  0.4501
 1230SOL     OW 4965   0.260   4.300   1.206  0.5665 -0.0147 -0.3796
 1230SOL    HW2 4966   0.194   4.281   1.273  0.8582 -0.4879 -0.2328
 1230SOL    HW3 4967   0.290   4.389   1.227  1.1080 -0.4021  0.4797
 1230SOL    MW4 4968   0.255   4.309   1.218  0.6764 -0.1287 -0.2470
 1231SOL     OW 4969   3.587   1.580   1.486 -0.2531 -0.1208 -0.3198
 1231SOL    HW2 4970   3.512   1.531   1.521 -1.4613  1.5041 -0.5845
 1231SOL    HW3 4971   3.646   1.588   1.560 -1.4933  0.7789  0.5989
 1231SOL    MW4 4972   3.585   1.575   1.500 -0.5760  0.2123 -0.2334
 1232SOL     OW 4973   2.631   3.402   0.513 -0.3624 -0.7118 -0.2095
 1232SOL    HW2 4974   2.650   3.362   0.429  0.4614  0.2880 -0.5048
 1232SOL    HW3 4975   2.712   3.446   0.538 -1.8627  2.5823 -0.9072
 1232SOL    MW4 4976   2.644   3.402   0.506 -0.4516 -0.1452 -0.3404
 1233SOL     OW 4977   3.694   0.160   3.177 -0.4743 -0.2347 -0.1298
 1233SOL    HW2 4978   3.770   0.150   3.119  0.7235  1.5257  1.1085
 1233SOL    HW3 4979   3.721   0.225   3.242 -2.6193 -0.4786  1.0542
 1233SOL    MW4 4980   3.708   0.167   3.178 -0.5994 -0.0346  0.1898
 1234SOL     OW 4981   3.307   0.768   3.206  0.0528  0.0175 -0.2013
 1234SOL    HW2 4982   3.330   0.675   3.204 -0.2390 -0.0370 -0.9884
 1234SOL    HW3 4983   3.301   0.788   3.300  1.8024 -0.3314  0.0141
 1234SOL    MW4 4984   3.309   0.758   3.218  0.2451 -0.0356 -0.2768
 1235SOL     OW 4985   1.756   1.670   3.536  0.4497 -0.1574 -0.2278
 1235SOL    HW2 4986   1.754   1.576   3.553  0.0854  0.2603  2.1681
 1235SOL    HW3 4987   1.791   1.709   3.616  0.6608  1.7415 -1.2152
 1235SOL    MW4 4988   1.760   1.663   3.549  0.4293  0.1483 -0.0417
 1236SOL     OW 4989   3.969   0.532   0.872  0.1515  0.7857 -0.3702
 1236SOL    HW2 4990   3.956   0.440   0.848 -1.7211  1.1076 -0.7222
 1236SOL    HW3 4991   4.055   0.535   0.913 -0.1415 -1.2923  0.4506
 1236SOL    MW4 4992   3.978   0.520   0.874 -0.1340  0.5540 -0.3084
 1237SOL     OW 4993   0.986   1.316   0.628 -0.2604  0.0535  0.2784
 1237SOL    HW2 4994   0.978   1.294   0.720 -1.2548  0.4377  0.2967
 1237SOL    HW3 4995   1.075   1.291   0.604  0.2824  0.7428  1.5464
 1237SOL    MW4 4996   0.996   1.310   0.637 -0.3200  0.1951  0.4482
 1238SOL     OW 4997   0.126   2.855   2.689  0.2445  0.5217 -0.4003
 1238SOL    HW2 4998   0.041   2.898   2.686 -1.1303 -2.1349 -0.6830
 1238SOL    HW3 4999   0.129   2.814   2.775  0.7568 -0.3568 -0.8311
 1238SOL    MW4 5000   0.115   2.855   2.700  0.1307  0.0556 -0.4942
 1239SOL     OW 5001   3.930   2.021   4.608  0.5802 -0.2708 -0.1652
 1239SOL    HW2 5002   3.876   1.942   4.608 -1.0367  0.8170 -0.3542
 1239SOL    HW3 5003   4.016   1.991   4.636 -0.2050 -1.9738  0.4923
 1239SOL    MW4 5004   3.934   2.007   4.611  0.2635 -0.3521 -0.1035
 1240SOL     OW 5005   4.073   3.605   3.075  0.3977 -0.1840 -0.7242
 1240SOL    HW2 5006   4.142   3.638   3.133  0.2910  0.2969 -0.8697
 1240SOL    HW3 5007   4.117   3.595   2.990  0.7470 -1.6039 -0.3926
 1240SOL    MW4 5008   4.088   3.608   3.071  0.4296 -0.3076 -0.6998
 1241SOL     OW 5009   0.807   3.327   2.814  0.2959  0.1332  0.6238
 1241SOL    HW2 5010   0.788   3.381   2.891 -2.0829  1.7581 -1.0162
 1241SOL    HW3 5011   0.853   3.386   2.754  1.4304 -0.8856  0.4891
 1241SOL    MW4 5012   0.810   3.342   2.816  0.1317  0.2131  0.3898
 1242SOL     OW 5013   3.104   4.016   2.226 -0.0448  0.2118 -0.3083
 1242SOL    HW2 5014   3.199   4.021   2.239 -0.1341 -1.3986  1.2764
 1242SOL    HW3 5015   3.091   3.938   2.172 -0.5114 -0.1420  0.3010
 1242SOL    MW4 5016   3.115   4.007   2.221 -0.1185 -0.0472 -0.0188
 1243SOL     OW 5017   3.594   2.011   0.798 -0.1517 -0.2057  0.0603
 1243SOL    HW2 5018   3.511   2.044   0.833  0.3024 -0.0373  0.9933
 1243SOL    HW3 5019   3.661   2.070   0.834  0.4154 -0.5727 -0.3696
 1243SOL    MW4 5020   3.592   2.023   0.808 -0.0167 -0.2317  0.1267
 1244SOL     OW 5021   0.289   1.127   2.435  0.0406 -0.3950 -0.2882
 1244SOL    HW2 5022   0.295   1.108   2.342  1.1503 -2.7463  0.2382
 1244SOL    HW3 5023   0.358   1.074   2.475 -1.7467 -0.9770  2.0948
 1244SOL    MW4 5024   0.299   1.118   2.428 -0.0488 -0.7820  0.0958
 1245SOL     OW 5025   3.747   3.716   3.999  0.5262 -0.6760  0.2280
 1245SOL    HW2 5026   3.815   3.691   3.937 -0.6642 -0.5874 -1.1341
 1245SOL    HW3 5027   3.738   3.641   4.057  2.2049 -0.4548  0.8125
 1245SOL    MW4 5028   3.755   3.703   3.999  0.5908 -0.6351  0.1256
 1246SOL     OW 5029   2.189   0.901   2.315 -0.0396  0.2298  0.1907
 1246SOL    HW2 5030   2.170   0.870   2.227 -0.2293 -0.0339  0.3267
 1246SOL    HW3 5031   2.201   0.996   2.305 -0.7076  0.2952 -0.0116
 1246SOL    MW4 5032   2.188   0.910   2.302 -0.1528  0.2037  0.1822
 1247SOL     OW 5033   1.820   3.805   3.290  0.1794 -0.2715 -0.3123
 1247SOL    HW2 5034   1.790   3.848   3.209 -1.5407  1.0201  0.9790
 1247SOL    HW3 5035   1.761   3.838   3.358  2.2913 -0.5170  1.6752
 1247SOL    MW4 5036   1.808   3.815   3.288  0.2311 -0.1335  0.1202
 1248SOL     OW 5037   1.220   2.037   4.582  0.3226 -0.5165 -0.4075
 1248SOL    HW2 5038   1.228   2.001   4.494  0.3458  0.6878 -0.9068
 1248SOL    HW3 5039   1.201   1.961   4.638 -0.0645 -1.2276 -1.4969
 1248SOL    MW4 5040   1.219   2.022   4.578  0.2745 -0.4511 -0.6166
 1249SOL     OW 5041   3.201   3.071   0.609 -0.3198 -0.1450  0.1767
 1249SOL    HW2 5042   3.212   3.082   0.704  1.0111  0.1116  0.0135
 1249SOL    HW3 5043   3.219   3.158   0.574 -0.4259 -0.3338 -0.3420
 1249SOL    MW4 5044   3.205   3.084   0.617 -0.1581 -0.1359  0.0867
 1250SOL     OW 5045   1.696   3.725   1.189  0.4224 -0.3407  0.3102
 1250SOL    HW2 5046   1.627   3.677   1.236 -0.0517  0.4353  0.4108
 1250SOL    HW3 5047   1.756   3.754   1.258  1.0390 -1.3001  0.1915
 1250SOL    MW4 5048   1.695   3.722   1.204  0.4412 -0.3650  0.3078
 1251SOL     OW 5049   4.236   3.634   3.321 -0.3194 -0.5525  0.1705
 1251SOL    HW2 5050   4.259   3.542   3.310 -0.8901 -0.8453  1.3911
 1251SOL    HW3 5051   4.199   3.640   3.409 -0.6115  0.7783 -0.0255
 1251SOL    MW4 5052   4.234   3.623   3.331 -0.4334 -0.4158  0.3057
 1252SOL     OW 5053   3.863   4.193   3.334  0.6368 -0.4393 -0.5085
 1252SOL    HW2 5054   3.771   4.180   3.356  0.5575 -2.0350 -1.6833
 1252SOL    HW3 5055   3.910   4.127   3.384  1.1440  0.3225  0.0334
 1252SOL    MW4 5056   3.857   4.183   3.343  0.6933 -0.5498 -0.5918
 1253SOL     OW 5057   0.297   1.115   2.134 -0.0480  0.4227 -0.0704
 1253SOL    HW2 5058   0.278   1.023   2.115  0.6539  0.2125  0.2421
 1253SOL    HW3 5059   0.212   1.152   2.159 -0.0710 -0.5117  1.2910
 1253SOL    MW4 5060   0.283   1.108   2.135  0.0416  0.2717  0.1504
 1254SOL     OW 5061   2.459   1.210   2.057  0.2946  0.3991  0.1776
 1254SOL    HW2 5062   2.495   1.206   1.969 -0.8450 -0.1964 -0.2683
 1254SOL    HW3 5063   2.447   1.303   2.075 -0.9503  0.4533 -0.9058
 1254SOL    MW4 5064   2.462   1.221   2.048 -0.0203  0.3277 -0.0241
 1255SOL     OW 5065   0.853   0.100   3.621 -0.0208  0.0843  0.0571
 1255SOL    HW2 5066   0.885   0.019   3.580  0.5838 -0.8170  2.2387
 1255SOL    HW3 5067   0.918   0.166   3.598  0.0124 -0.2754 -0.8959
 1255SOL    MW4 5068   0.866   0.098   3.612  0.0634 -0.0821  0.2191
 1256SOL     OW 5069   1.375   0.635   3.438 -0.4285 -0.1351  0.3927
 1256SOL    HW2 5070   1.324   0.697   3.491 -1.6402 -1.7890  1.2030
 1256SOL    HW3 5071   1.394   0.562   3.498  0.2891 -0.9142 -0.7670
 1256SOL    MW4 5072   1.370   0.634   3.453 -0.4936 -0.4562  0.3467
 1257SOL     OW 5073   0.223   2.171   2.831  0.0822 -0.2069 -0.1562
 1257SOL    HW2 5074   0.170   2.243   2.797  1.0586 -0.4982 -2.4214
 1257SOL    HW3 5075   0.285   2.213   2.890  0.7304  0.8580 -1.5516
 1257SOL    MW4 5076   0.224   2.186   2.834  0.2966 -0.1049 -0.6387
 1258SOL     OW 5077   2.700   4.632   3.628 -0.9257 -0.4091  0.1602
 1258SOL    HW2 5078   2.613   4.611   3.663 -0.5648 -0.6643  0.9101
 1258SOL    HW3 5079   2.753   4.555   3.648  0.1566  0.8017  2.0675
 1258SOL    MW4 5080   2.696   4.619   3.635 -0.7353 -0.2832  0.5107
 1259SOL     OW 5081   0.793   3.134   0.849 -0.0266  0.2801  0.4142
 1259SOL    HW2 5082   0.709   3.177   0.864 -0.9454 -1.3547  0.0629
 1259SOL    HW3 5083   0.856   3.206   0.848 -1.8027  1.9467 -2.5219
 1259SOL    MW4 5084   0.790   3.149   0.851 -0.3822  0.2842 -0.0195
 1260SOL     OW 5085   2.815   0.581   2.545 -0.3680 -1.1476 -0.6623
 1260SOL    HW2 5086   2.865   0.500   2.538  0.4653 -0.6523 -0.5388
 1260SOL    HW3 5087   2.875   0.642   2.587 -1.4290 -0.8320  0.4221
 1260SOL    MW4 5088   2.829   0.578   2.550 -0.3979 -1.0406 -0.5028
 1261SOL     OW 5089   0.415   2.514   4.384 -0.0913 -0.0156  0.0541
 1261SOL    HW2 5090   0.326   2.493   4.356  0.0528 -0.3348 -0.1603
 1261SOL    HW3 5091   0.418   2.488   4.476 -0.0877 -0.3992 -0.0540
 1261SOL    MW4 5092   0.404   2.508   4.393 -0.0718 -0.1082  0.0119
 1262SOL     OW 5093   4.453   4.023   2.219 -0.2124  0.1250  0.2320
 1262SOL    HW2 5094   4.514   3.988   2.283  0.8482  0.6524 -0.4589
 1262SOL    HW3 5095   4.371   3.978   2.236  0.3556 -0.5582  1.2174
 1262SOL    MW4 5096   4.451   4.013   2.230  0.0029  0.1049  0.2708
 1263SOL     OW 5097   4.385   3.716   2.463 -0.2210 -0.1206 -0.5026
 1263SOL    HW2 5098   4.295   3.688   2.483 -0.2079  0.1283 -0.0898
 1263SOL    HW3 5099   4.434   3.634   2.455 -0.3972 -0.2447 -0.3153
 1263SOL    MW4 5100   4.379   3.701   2.465 -0.2427 -0.1042 -0.4232
 1264SOL     OW 5101   0.162   3.473   0.625  0.0724  0.0272 -0.4503
 1264SOL    HW2 5102   0.168   3.428   0.709 -0.4858 -1.0089 -0.9487
 1264SOL    HW3 5103   0.068   3.474   0.605  0.0840  1.3623 -0.4846
 1264SOL    MW4 5104   0.150   3.467   0.633  0.0003  0.0668 -0.5205
 1265SOL     OW 5105   0.851   1.777   3.363 -0.1503 -0.5208 -0.4407
 1265SOL    HW2 5106   0.938   1.744   3.382 -0.8679 -2.3960 -0.3250
 1265SOL    HW3 5107   0.814   1.714   3.302 -1.4893  0.1657 -0.3575
 1265SOL    MW4 5108   0.857   1.764   3.358 -0.4216 -0.6776 -0.4144
 1266SOL     OW 5109   0.921   4.446   2.688 -0.3744  0.2064  0.2015
 1266SOL    HW2 5110   0.828   4.436   2.711  0.1146 -2.6897  1.0486
 1266SOL    HW3 5111   0.942   4.366   2.641  2.2556 -0.1094  1.8611
 1266SOL    MW4 5112   0.911   4.434   2.685  0.0371 -0.2174  0.5326
 1267SOL     OW 5113   3.670   1.937   3.980  0.1896  0.0883 -0.6501
 1267SOL    HW2 5114   3.593   1.951   4.036  0.7742  0.1402  0.1470
 1267SOL    HW3 5115   3.654   1.853   3.937 -0.3466  0.1374 -0.5513
 1267SOL    MW4 5116   3.658   1.928   3.982  0.1962  0.1016 -0.5317
 1268SOL     OW 5117   4.390   0.115   1.472 -0.2963  0.1976  0.3184
 1268SOL    HW2 5118   4.302   0.078   1.467 -0.4413  0.6160 -0.2788
 1268SOL    HW3 5119   4.380   0.205   1.444  0.3113  0.2743  0.3359
 1268SOL    MW4 5120   4.377   0.122   1.468 -0.2356  0.2629  0.2419
 1269SOL     OW 5121   4.121   2.962   2.109 -0.5600 -0.1170  0.0335
 1269SOL    HW2 5122   4.036   2.994   2.079 -0.1379  0.7629 -0.2378
 1269SOL    HW3 5123   4.135   2.882   2.059 -0.5135  0.5790 -1.0985
 1269SOL    MW4 5124   4.112   2.956   2.098 -0.4983  0.0911 -0.1516
 1270SOL     OW 5125   0.463   2.717   1.793 -0.2337 -0.6698 -0.2208
 1270SOL    HW2 5126   0.484   2.718   1.699  1.1206 -2.0086  0.0358
 1270SOL    HW3 5127   0.548   2.723   1.836 -0.8855  0.4599  0.9480
 1270SOL    MW4 5128   0.477   2.718   1.786 -0.1410 -0.6974 -0.0327
 1271SOL     OW 5129   0.661   2.153   2.664 -0.2837 -0.2401  0.0085
 1271SOL    HW2 5130   0.612   2.234   2.682 -0.3390 -0.3784  0.4724
 1271SOL    HW3 5131   0.687   2.120   2.750 -1.4372 -1.4533 -0.0998
 1271SOL    MW4 5132   0.658   2.160   2.678 -0.4432 -0.4184  0.0551
 1272SOL     OW 5133   3.801   1.322   4.349 -1.0438  0.0961  0.2933
 1272SOL    HW2 5134   3.782   1.370   4.269 -1.4750 -0.5281  0.0191
 1272SOL    HW3 5135   3.719   1.321   4.398 -1.0914 -0.5315  0.2083
 1272SOL    MW4 5136   3.788   1.328   4.345 -1.1070 -0.0689  0.2460
 1273SOL     OW 5137   1.161   0.311   0.714  0.1122  0.0972 -0.7966
 1273SOL    HW2 5138   1.165   0.396   0.758 -0.1929  0.1473 -0.8638
 1273SOL    HW3 5139   1.071   0.281   0.728  0.1250 -0.0629 -1.0551
 1273SOL    MW4 5140   1.149   0.319   0.722  0.0737  0.0826 -0.8396
 1274SOL     OW 5141   2.705   3.711   2.734  0.4814 -0.4339  0.6260
 1274SOL    HW2 5142   2.734   3.758   2.812  2.0473 -0.5809  0.1395
 1274SOL    HW3 5143   2.747   3.626   2.741  1.1235 -0.2266 -0.6975
 1274SOL    MW4 5144   2.714   3.706   2.746  0.7727 -0.4258  0.3872
 1275SOL     OW 5145   2.401   4.472   0.967  0.2174  0.2398  0.3548
 1275SOL    HW2 5146   2.374   4.392   1.012 -1.7063  0.7624  0.1891
 1275SOL    HW3 5147   2.486   4.493   1.005 -0.7859 -0.0345  2.8673
 1275SOL    MW4 5148   2.409   4.464   0.978 -0.1688  0.2723  0.6644
 1276SOL     OW 5149   3.890   3.092   2.047 -0.2252  0.2565  0.1181
 1276SOL    HW2 5150   3.903   3.091   1.952 -0.6788 -0.3717  0.0526
 1276SOL    HW3 5151   3.797   3.071   2.058 -0.7003  2.5322  0.6193
 1276SOL    MW4 5152   3.879   3.089   2.036 -0.3476  0.4740  0.1752
 1277SOL     OW 5153   2.340   3.519   2.860  0.0874  0.5368 -0.7836
 1277SOL    HW2 5154   2.298   3.558   2.937  0.0858  1.4855 -1.2528
 1277SOL    HW3 5155   2.369   3.594   2.808  0.5847 -0.0977 -1.4397
 1277SOL    MW4 5156   2.339   3.534   2.863  0.1528  0.5784 -0.9317
 1278SOL     OW 5157   1.878   3.141   2.254  0.4621  0.1611 -0.0979
 1278SOL    HW2 5158   1.858   3.051   2.228  0.8242 -0.1848  0.8217
 1278SOL    HW3 5159   1.835   3.195   2.187 -2.1975 -0.6058  0.9305
 1278SOL    MW4 5160   1.870   3.136   2.242  0.1590  0.0143  0.1590
 1279SOL     OW 5161   0.486   3.202   4.345  0.3528  0.6627 -0.2919
 1279SOL    HW2 5162   0.493   3.110   4.371  0.1195  1.3306  2.2812
 1279SOL    HW3 5163   0.394   3.213   4.322  0.4468  0.1881 -0.9199
 1279SOL    MW4 5164   0.475   3.191   4.345  0.3344  0.6883 -0.0348
 1280SOL     OW 5165   2.272   1.891   1.075 -0.5736  0.1205 -0.1991
 1280SOL    HW2 5166   2.361   1.865   1.050 -0.9704  0.0506 -1.5504
 1280SOL    HW3 5167   2.241   1.820   1.130 -0.4350 -0.6949 -1.1705
 1280SOL    MW4 5168   2.280   1.878   1.079 -0.6075  0.0036 -0.5056
 1281SOL     OW 5169   3.040   1.446   3.512  0.2867  0.0445 -0.7059
 1281SOL    HW2 5170   2.968   1.384   3.496  0.3589 -0.8090  2.0754
 1281SOL    HW3 5171   3.115   1.408   3.466 -0.1900 -0.8436 -0.7571
 1281SOL    MW4 5172   3.040   1.433   3.504  0.2332 -0.1853 -0.3459
 1282SOL     OW 5173   1.647   2.515   1.367  0.3333  0.3611  0.2143
 1282SOL    HW2 5174   1.650   2.443   1.430  0.5022 -0.0543 -0.2693
 1282SOL    HW3 5175   1.592   2.581   1.409 -0.1923 -0.2325  0.4714
 1282SOL    MW4 5176   1.640   2.514   1.381  0.2863  0.2279  0.1842
 1283SOL     OW 5177   3.498   0.459   4.516 -0.8625  0.1547  0.1105
 1283SOL    HW2 5178   3.518   0.544   4.476 -1.2494  0.8269  1.3335
 1283SOL    HW3 5179   3.578   0.434   4.562 -1.3287  0.6909  1.2154
 1283SOL    MW4 5180   3.511   0.467   4.517 -0.9751  0.3141  0.4182
 1284SOL     OW 5181   1.348   4.025   4.728  0.5498 -0.0112  0.1531
 1284SOL    HW2 5182   1.314   3.965   4.661  0.0577 -1.1317  1.3873
 1284SOL    HW3 5183   1.413   3.974   4.776  1.1776  0.9073  0.3050
 1284SOL    MW4 5184   1.352   4.011   4.725  0.5678 -0.0381  0.3357
 1285SOL     OW 5185   0.945   1.187   1.358 -0.4215  0.1410 -0.7433
 1285SOL    HW2 5186   0.945   1.159   1.267  1.5041 -2.3855 -0.0119
 1285SOL    HW3 5187   0.901   1.117   1.406  0.1651  0.5859  0.4889
 1285SOL    MW4 5188   0.939   1.174   1.353 -0.0900 -0.1336 -0.4842
 1286SOL     OW 5189   2.243   3.673   1.496 -0.2052  0.0914 -0.4714
 1286SOL    HW2 5190   2.335   3.648   1.495 -0.1792  0.1030  0.7692
 1286SOL    HW3 5191   2.240   3.758   1.453  0.2399 -0.2654 -1.2302
 1286SOL    MW4 5192   2.255   3.681   1.490 -0.1433  0.0458 -0.4078
 1287SOL     OW 5193   3.342   1.016   2.617  0.2324  0.7391 -0.1236
 1287SOL    HW2 5194   3.318   1.069   2.693  0.5261  2.2959 -1.0902
 1287SOL    HW3 5195   3.258   0.993   2.577  0.0631 -0.3722  0.8571
 1287SOL    MW4 5196   3.327   1.020   2.622  0.2487  0.7980 -0.1214
 1288SOL     OW 5197   1.737   4.398   2.589 -0.2289  0.3305 -0.2107
 1288SOL    HW2 5198   1.683   4.463   2.634 -2.2220  0.0226 -2.0904
 1288SOL    HW3 5199   1.690   4.316   2.599 -0.0170  0.0140 -1.6684
 1288SOL    MW4 5200   1.724   4.396   2.596 -0.4640  0.2484 -0.6511
 1289SOL     OW 5201   1.248   2.052   2.257  0.2916  0.3483 -0.1028
 1289SOL    HW2 5202   1.192   2.008   2.321  0.0543  0.4108 -0.2664
 1289SOL    HW3 5203   1.204   2.136   2.241 -0.3429 -0.2009 -1.3162
 1289SOL    MW4 5204   1.235   2.057   2.263  0.1765  0.2840 -0.2849
 1290SOL     OW 5205   2.343   3.095   3.205  0.5252  0.2988 -0.2713
 1290SOL    HW2 5206   2.378   3.159   3.267  0.7337  2.2031 -2.2982
 1290SOL    HW3 5207   2.254   3.125   3.187  0.2103 -0.6548 -0.3742
 1290SOL    MW4 5208   2.336   3.107   3.211  0.5112  0.4244 -0.5524
 1291SOL     OW 5209   0.598   2.764   0.743 -0.2711 -0.0845 -0.4124
 1291SOL    HW2 5210   0.643   2.810   0.672 -0.7089  0.0077 -0.6371
 1291SOL    HW3 5211   0.547   2.833   0.786  0.1048 -0.1132  0.0837
 1291SOL    MW4 5212   0.597   2.779   0.740 -0.2793 -0.0763 -0.3766
 1292SOL     OW 5213   0.467   2.715   2.820  0.1810 -0.0374  0.4965
 1292SOL    HW2 5214   0.484   2.752   2.733  2.2393 -0.9456  0.4770
 1292SOL    HW3 5215   0.454   2.622   2.805  0.7397 -0.2323  1.1615
 1292SOL    MW4 5216   0.468   2.708   2.807  0.5263 -0.1831  0.5817
 1293SOL     OW 5217   0.733   2.293   2.281  0.3846 -0.0733  0.1030
 1293SOL    HW2 5218   0.815   2.341   2.282  1.1532 -1.3459 -0.1700
 1293SOL    HW3 5219   0.722   2.265   2.190  0.3375 -1.0408  0.3927
 1293SOL    MW4 5220   0.742   2.296   2.269  0.4798 -0.3688  0.1054
 1294SOL     OW 5221   4.305   0.950   4.703 -0.7535 -0.3976  0.1199
 1294SOL    HW2 5222   4.259   0.947   4.787 -0.2044  0.9804  0.4773
 1294SOL    HW3 5223   4.256   0.889   4.647 -3.0696  1.0987  0.4546
 1294SOL    MW4 5224   4.292   0.941   4.706 -0.9866 -0.0184  0.2112
 1295SOL     OW 5225   3.572   0.631   2.055  0.0577 -0.0794  0.2141
 1295SOL    HW2 5226   3.539   0.541   2.057  1.1151 -0.4701  0.1528
 1295SOL    HW3 5227   3.576   0.652   1.961  1.3360 -0.5317  0.1671
 1295SOL    MW4 5228   3.568   0.622   2.043  0.3657 -0.1906  0.1998
 1296SOL     OW 5229   1.651   0.606   1.572 -0.1420  0.1134  0.2480
 1296SOL    HW2 5230   1.654   0.699   1.596  1.3223 -0.3888  2.0554
 1296SOL    HW3 5231   1.567   0.575   1.606  0.6656  0.0902  2.2833
 1296SOL    MW4 5232   1.640   0.614   1.580  0.1577  0.0441  0.7551
 1297SOL     OW 5233   1.664   2.229   3.419 -0.0302 -0.2916  0.2479
 1297SOL    HW2 5234   1.586   2.173   3.423 -0.1638 -0.1975 -0.9116
 1297SOL    HW3 5235   1.680   2.241   3.326  1.2600 -0.1471  0.4805
 1297SOL    MW4 5236   1.656   2.223   3.407  0.1223 -0.2601  0.1259
 1298SOL     OW 5237   3.373   2.045   3.331 -0.3160 -0.4075  0.1101
 1298SOL    HW2 5238   3.378   1.973   3.395 -0.5518 -0.6781 -0.1720
 1298SOL    HW3 5239   3.351   2.122   3.383 -0.1525 -0.5578  0.4043
 1298SOL    MW4 5240   3.370   2.045   3.347 -0.3254 -0.4632  0.1118
 1299SOL     OW 5241   3.825   1.608   0.550 -0.6534  0.4301  0.3812
 1299SOL    HW2 5242   3.827   1.619   0.645  0.1592 -1.8982  0.6535
 1299SOL    HW3 5243   3.740   1.567   0.533  0.2979 -1.5844  0.4008
 1299SOL    MW4 5244   3.814   1.604   0.561 -0.4208 -0.1427  0.4197
 1300SOL     OW 5245   0.156   2.419   4.258  0.1102 -0.5513 -0.2261
 1300SOL    HW2 5246   0.099   2.401   4.184 -0.0133  1.9932 -0.7922
 1300SOL    HW3 5247   0.108   2.484   4.310  1.5580  0.0179  0.4216
 1300SOL    MW4 5248   0.142   2.425   4.255  0.2849 -0.1407 -0.2151
 1301SOL     OW 5249   1.299   1.873   4.012 -0.0462  0.3367 -0.2071
 1301SOL    HW2 5250   1.224   1.926   3.984  0.1158  0.5589 -0.2207
 1301SOL    HW3 5251   1.261   1.806   4.069 -0.8598 -2.1449 -3.5266
 1301SOL    MW4 5252   1.284   1.871   4.016 -0.1322  0.0387 -0.6475
 1302SOL     OW 5253   1.382   0.766   1.422  0.5617 -0.4077 -0.3265
 1302SOL    HW2 5254   1.455   0.828   1.415  0.3509 -0.1040  0.1372
 1302SOL    HW3 5255   1.310   0.810   1.377  0.3183 -0.1670  0.2925
 1302SOL    MW4 5256   1.382   0.780   1.415  0.5018 -0.3358 -0.1836
 1303SOL     OW 5257   3.221   0.723   1.312 -0.2209  0.2665  0.4004
 1303SOL    HW2 5258   3.160   0.688   1.376 -1.4083 -0.6080 -1.1770
 1303SOL    HW3 5259   3.301   0.672   1.325  0.0477  1.1383  2.1983
 1303SOL    MW4 5260   3.224   0.712   1.322 -0.3421  0.2661  0.4295
 1304SOL     OW 5261   3.145   2.074   1.550  0.1668  0.1816  0.0358
 1304SOL    HW2 5262   3.150   2.169   1.543 -1.6604  0.4710  2.1896
 1304SOL    HW3 5263   3.052   2.055   1.561  0.7761 -1.6003  2.6362
 1304SOL    MW4 5264   3.134   2.084   1.550  0.0060 -0.0153  0.6632
 1305SOL     OW 5265   2.011   1.240   2.769  0.8238 -0.0224  0.3251
 1305SOL    HW2 5266   2.066   1.182   2.822  0.1827 -0.1741  0.8323
 1305SOL    HW3 5267   1.962   1.292   2.833 -1.4478 -1.5998 -0.0437
 1305SOL    MW4 5268   2.012   1.239   2.785  0.4396 -0.2503  0.3433
 1306SOL     OW 5269   3.981   3.918   0.892  0.1256  0.2826  0.1033
 1306SOL    HW2 5270   4.073   3.944   0.900  0.7231 -1.6885 -0.0251
 1306SOL    HW3 5271   3.943   3.939   0.978  1.3593 -1.2741  1.0729
 1306SOL    MW4 5272   3.988   3.924   0.905  0.3674 -0.1829  0.2142
 1307SOL     OW 5273   2.912   1.498   3.183 -0.1621  0.0327 -0.1434
 1307SOL    HW2 5274   2.934   1.406   3.197 -0.9318  0.1085  1.7430
 1307SOL    HW3 5275   2.957   1.522   3.102 -0.4167 -2.1601 -0.9546
 1307SOL    MW4 5276   2.921   1.489   3.174 -0.2971 -0.2465 -0.0014
 1308SOL     OW 5277   4.328   3.168   2.081  0.3210 -0.3157  0.0964
 1308SOL    HW2 5278   4.397   3.142   2.142  0.1133  0.1073  0.5147
 1308SOL    HW3 5279   4.271   3.091   2.076 -0.3507  0.0969  1.4141
 1308SOL    MW4 5280   4.330   3.154   2.088  0.2046 -0.2053  0.3257
 1309SOL     OW 5281   1.470   1.212   0.260  0.1819 -0.0771  0.4316
 1309SOL    HW2 5282   1.386   1.170   0.278  0.1676 -0.3981 -0.3727
 1309SOL    HW3 5283   1.465   1.238   0.168  0.2170  1.6307  0.8949
 1309SOL    MW4 5284   1.459   1.210   0.250  0.1847  0.1057  0.3866
 1310SOL     OW 5285   2.725   2.917   1.635 -0.8161 -0.3126  0.0936
 1310SOL    HW2 5286   2.726   3.003   1.677 -2.1353  0.2874 -1.0391
 1310SOL    HW3 5287   2.690   2.858   1.701  0.5753 -0.0892  1.0510
 1310SOL    MW4 5288   2.720   2.921   1.649 -0.8066 -0.2041  0.0703
 1311SOL     OW 5289   0.429   4.230   2.027  0.1870 -0.1637 -0.2350
 1311SOL    HW2 5290   0.357   4.284   2.059  1.4169  0.2277  2.0040
 1311SOL    HW3 5291   0.443   4.165   2.096  0.6926 -1.4783 -1.5354
 1311SOL    MW4 5292   0.421   4.229   2.040  0.4160 -0.2851 -0.1111
 1312SOL     OW 5293   1.911   4.140   2.346 -0.2888  0.3342  0.0029
 1312SOL    HW2 5294   1.888   4.233   2.340  1.0676  0.6506 -0.5520
 1312SOL    HW3 5295   1.936   4.116   2.256  1.2909 -0.0415  0.5306
 1312SOL    MW4 5296   1.911   4.149   2.333  0.0986  0.3262 -0.0007
 1313SOL     OW 5297   2.198   0.693   3.988 -0.1251  0.0789 -0.3908
 1313SOL    HW2 5298   2.282   0.647   3.980 -1.0395 -1.2595 -2.8885
 1313SOL    HW3 5299   2.188   0.709   4.082  1.7303 -1.9911  0.2120
 1313SOL    MW4 5300   2.208   0.689   3.999 -0.0010 -0.3708 -0.6406
 1314SOL     OW 5301   2.120   3.959   1.954  0.3494 -0.4945  0.5402
 1314SOL    HW2 5302   2.084   3.870   1.952 -1.0368  0.0746 -1.0047
 1314SOL    HW3 5303   2.158   3.971   1.868  3.4299 -0.7098  1.8215
 1314SOL    MW4 5304   2.120   3.948   1.943  0.5729 -0.4478  0.5053
 1315SOL     OW 5305   3.022   2.811   0.889  0.3434 -0.1149 -0.0897
 1315SOL    HW2 5306   2.945   2.853   0.927  1.2639  0.4118  1.2101
 1315SOL    HW3 5307   3.096   2.846   0.938  1.2240 -2.3538  0.2513
 1315SOL    MW4 5308   3.022   2.821   0.900  0.5810 -0.3409  0.1268
 1316SOL     OW 5309   2.302   1.159   2.578  0.0464  0.5527 -0.3609
 1316SOL    HW2 5310   2.281   1.246   2.611  1.7791  1.1146 -0.6934
 1316SOL    HW3 5311   2.269   1.158   2.488  0.9410  1.2359 -0.7014
 1316SOL    MW4 5312   2.295   1.170   2.570  0.3932  0.7170 -0.4497
 1317SOL     OW 5313   4.483   2.564   2.242  0.0792  0.2950 -0.0918
 1317SOL    HW2 5314   4.463   2.496   2.307  0.3491 -0.5197 -0.8512
 1317SOL    HW3 5315   4.568   2.538   2.207  1.1132  2.0987  1.0040
 1317SOL    MW4 5316   4.492   2.551   2.246  0.2513  0.4256 -0.0474
 1318SOL     OW 5317   1.336   3.845   0.612  0.0567 -0.6432  0.7971
 1318SOL    HW2 5318   1.406   3.798   0.658  1.8747  0.8778 -0.3548
 1318SOL    HW3 5319   1.309   3.785   0.542  0.0788 -1.3091  1.3505
 1318SOL    MW4 5320   1.342   3.831   0.609  0.2996 -0.5302  0.7181
 1319SOL     OW 5321   3.298   1.730   3.765 -0.2851 -0.3872  0.0440
 1319SOL    HW2 5322   3.330   1.641   3.753  0.6380  0.2913 -3.2287
 1319SOL    HW3 5323   3.316   1.751   3.857 -0.4288 -3.5009  0.8186
 1319SOL    MW4 5324   3.304   1.721   3.775 -0.1822 -0.7085 -0.2856
 1320SOL     OW 5325   1.237   3.050   4.118  0.0956 -0.1207 -0.6773
 1320SOL    HW2 5326   1.190   3.098   4.186  1.4112 -0.6997  0.6802
 1320SOL    HW3 5327   1.190   3.070   4.037 -1.6808  0.3522  0.4337
 1320SOL    MW4 5328   1.225   3.059   4.116  0.0348 -0.1347 -0.3524
 1321SOL     OW 5329   1.713   2.217   0.573  0.1597  0.2277 -0.1083
 1321SOL    HW2 5330   1.659   2.150   0.530  0.4244 -0.9833  1.4075
 1321SOL    HW3 5331   1.678   2.300   0.541 -0.7787 -0.6105 -1.3094
 1321SOL    MW4 5332   1.702   2.219   0.563  0.0707 -0.0427 -0.0668
 1322SOL     OW 5333   3.908   1.046   3.074  0.3832  0.3638 -0.2207
 1322SOL    HW2 5334   3.825   1.009   3.102  0.7202  0.1491  0.4947
 1322SOL    HW3 5335   3.972   1.015   3.138  1.0494  0.3820 -0.8626
 1322SOL    MW4 5336   3.906   1.037   3.086  0.5157  0.3378 -0.2110
 1323SOL     OW 5337   0.568   4.214   4.192 -0.2851  0.6070  0.6251
 1323SOL    HW2 5338   0.658   4.231   4.219 -0.7964  1.2303  1.9604
 1323SOL    HW3 5339   0.515   4.243   4.265 -1.5484 -0.4094  0.1333
 1323SOL    MW4 5340   0.573   4.220   4.205 -0.5192  0.5550  0.7367
 1324SOL     OW 5341   3.086   0.963   2.513  0.6772  0.4191  0.3907
 1324SOL    HW2 5342   3.067   0.938   2.422  2.2432  0.6651 -0.0219
 1324SOL    HW3 5343   3.056   1.054   2.519  1.1452  0.6078 -0.0709
 1324SOL    MW4 5344   3.079   0.972   2.502  0.9458  0.4765  0.2754
 1325SOL     OW 5345   1.304   0.396   2.025  0.4607  0.0016 -0.0120
 1325SOL    HW2 5346   1.210   0.415   2.034  0.5456  1.9812 -2.7396
 1325SOL    HW3 5347   1.345   0.446   2.096 -0.2912  1.7049 -0.7464
 1325SOL    MW4 5348   1.297   0.406   2.036  0.3728  0.4875 -0.4687
 1326SOL     OW 5349   3.431   0.393   2.058  0.4990 -0.1402  0.0444
 1326SOL    HW2 5350   3.407   0.407   2.150  1.1191 -0.1236  0.2100
 1326SOL    HW3 5351   3.358   0.430   2.008  0.3689  0.2672  0.5257
 1326SOL    MW4 5352   3.418   0.400   2.064  0.5636 -0.0843  0.1295
 1327SOL     OW 5353   1.723   2.665   2.680 -0.0234 -0.3509  0.0963
 1327SOL    HW2 5354   1.760   2.753   2.693 -0.6651  0.0292 -0.6273
 1327SOL    HW3 5355   1.632   2.680   2.658 -0.4866 -1.2739  1.3186
 1327SOL    MW4 5356   1.716   2.679   2.679 -0.1692 -0.4227  0.1624
 1328SOL     OW 5357   1.690   0.753   2.898 -0.1801 -0.3370  0.0891
 1328SOL    HW2 5358   1.645   0.696   2.834 -0.2073 -0.6976  0.4261
 1328SOL    HW3 5359   1.645   0.837   2.891  0.1080 -0.2438 -0.6902
 1328SOL    MW4 5360   1.678   0.756   2.889 -0.1457 -0.3722  0.0308
 1329SOL     OW 5361   1.161   3.360   4.056 -0.1465 -0.3446 -0.3358
 1329SOL    HW2 5362   1.128   3.390   4.141 -0.9884  1.0079 -1.1221
 1329SOL    HW3 5363   1.199   3.439   4.016  1.1720 -1.1989 -0.7739
 1329SOL    MW4 5364   1.161   3.375   4.062 -0.0836 -0.2792 -0.4978
 1330SOL     OW 5365   3.439   2.716   4.338 -0.4799  0.2288  0.2872
 1330SOL    HW2 5366   3.488   2.716   4.420 -0.1715 -0.1962  0.1040
 1330SOL    HW3 5367   3.399   2.803   4.334 -0.8130  0.1145  1.0737
 1330SOL    MW4 5368   3.440   2.727   4.348 -0.4833  0.1578  0.3667
 1331SOL     OW 5369   1.716   0.584   0.899  0.1246  0.2453 -0.4792
 1331SOL    HW2 5370   1.810   0.578   0.919 -0.1687  0.0168  0.8606
 1331SOL    HW3 5371   1.685   0.494   0.906 -0.3718  0.4517 -0.0492
 1331SOL    MW4 5372   1.725   0.571   0.903  0.0204  0.2424 -0.2457
 1332SOL     OW 5373   2.312   3.823   3.427 -0.1497 -0.1597  0.2964
 1332SOL    HW2 5374   2.327   3.772   3.348 -1.3922 -1.6715  1.0034
 1332SOL    HW3 5375   2.219   3.847   3.423  0.4437  2.1546 -0.0750
 1332SOL    MW4 5376   2.302   3.819   3.416 -0.2353 -0.0536  0.3407
 1333SOL     OW 5377   2.736   2.800   0.639  0.6300  0.0405  0.0423
 1333SOL    HW2 5378   2.744   2.711   0.674 -0.3805  0.1130  0.4721
 1333SOL    HW3 5379   2.825   2.823   0.612  1.2016 -0.5030  1.3908
 1333SOL    MW4 5380   2.749   2.791   0.640  0.5720 -0.0217  0.2769
 1334SOL     OW 5381   2.587   1.698   3.118  0.9739 -0.2230 -0.7442
 1334SOL    HW2 5382   2.648   1.771   3.118  0.4558  0.3166  2.8299
 1334SOL    HW3 5383   2.623   1.637   3.182 -0.4145 -1.5008 -1.1581
 1334SOL    MW4 5384   2.600   1.699   3.126  0.7222 -0.3203 -0.3271
 1335SOL     OW 5385   0.521   0.690   4.135 -0.0878  0.1544  0.4494
 1335SOL    HW2 5386   0.591   0.695   4.069  0.3387  0.7241  0.9398
 1335SOL    HW3 5387   0.529   0.602   4.172 -0.1450 -0.0680 -0.0591
 1335SOL    MW4 5388   0.532   0.679   4.131 -0.0391  0.2002  0.4468
 1336SOL     OW 5389   2.857   0.827   1.223 -0.1855  0.0060 -0.1883
 1336SOL    HW2 5390   2.897   0.902   1.178 -0.7173 -0.1698 -0.9777
 1336SOL    HW3 5391   2.803   0.786   1.156  2.1645 -2.6650 -0.5477
 1336SOL    MW4 5392   2.855   0.832   1.208  0.0546 -0.3695 -0.3399
 1337SOL     OW 5393   0.385   0.856   1.313  0.1192 -0.4246 -0.3947
 1337SOL    HW2 5394   0.339   0.906   1.380  2.3322 -0.5722  1.3051
 1337SOL    HW3 5395   0.343   0.881   1.231 -2.2004  0.2810  0.9525
 1337SOL    MW4 5396   0.373   0.866   1.311  0.1051 -0.3509  0.0073
 1338SOL     OW 5397   2.400   2.828   3.796  0.2300 -0.6253 -0.5588
 1338SOL    HW2 5398   2.357   2.913   3.808  1.9187  0.2635 -0.6744
 1338SOL    HW3 5399   2.337   2.776   3.745 -0.4066  0.8734 -1.3229
 1338SOL    MW4 5400   2.386   2.832   3.791  0.3684 -0.3104 -0.6747
 1339SOL     OW 5401   1.048   4.472   3.978  0.2735 -0.0452 -0.5237
 1339SOL    HW2 5402   0.960   4.507   3.979  0.2549  0.0423 -2.3689
 1339SOL    HW3 5403   1.101   4.537   4.023 -0.6818 -0.3644  1.0888
 1339SOL    MW4 5404   1.044   4.485   3.984  0.1450 -0.0753 -0.5543
 1340SOL     OW 5405   1.507   1.521   0.696  0.6289 -0.3300 -0.3900
 1340SOL    HW2 5406   1.597   1.546   0.673  0.4053 -0.2261 -1.1554
 1340SOL    HW3 5407   1.485   1.578   0.770  1.1158 -0.1899 -0.3534
 1340SOL    MW4 5408   1.516   1.532   0.703  0.6636 -0.2978 -0.4862
 1341SOL     OW 5409   3.530   3.339   1.249  0.5671 -0.6397 -0.8881
 1341SOL    HW2 5410   3.605   3.356   1.191  1.2222 -0.3243  0.0486
 1341SOL    HW3 5411   3.550   3.254   1.289  1.0525  0.0578  0.3534
 1341SOL    MW4 5412   3.543   3.330   1.247  0.7176 -0.5059 -0.6006
 1342SOL     OW 5413   2.541   2.243   0.926 -0.0499  0.6451  0.3387
 1342SOL    HW2 5414   2.456   2.245   0.970  0.1330  1.7163  0.6754
 1342SOL    HW3 5415   2.605   2.253   0.997  0.4638 -2.0307  0.3001
 1342SOL    MW4 5416   2.539   2.245   0.941  0.0420  0.4334  0.3780
 1343SOL     OW 5417   3.167   2.809   3.657  0.0542 -0.1335 -0.4108
 1343SOL    HW2 5418   3.199   2.806   3.747  1.1398  1.4399 -0.7258
 1343SOL    HW3 5419   3.088   2.861   3.661  1.5053  2.1644 -0.7382
 1343SOL    MW4 5420   3.161   2.815   3.670  0.3891  0.3774 -0.4954
 1344SOL     OW 5421   3.788   3.516   2.777 -0.0761 -0.1714 -0.4674
 1344SOL    HW2 5422   3.868   3.565   2.794  0.8649 -1.3536 -1.3833
 1344SOL    HW3 5423   3.810   3.459   2.703 -1.8747 -0.2478 -0.9790
 1344SOL    MW4 5424   3.802   3.515   2.769 -0.1893 -0.3374 -0.6559
 1345SOL     OW 5425   2.298   2.096   4.215  0.2275  0.2706 -0.1358
 1345SOL    HW2 5426   2.281   2.151   4.138 -1.7664  0.5829  0.4958
 1345SOL    HW3 5427   2.339   2.018   4.180 -0.4815  0.4946 -1.5090
 1345SOL    MW4 5428   2.301   2.093   4.200 -0.1290  0.3414 -0.2337
 1346SOL     OW 5429   2.005   2.005   0.749 -0.2491 -0.5669  0.1015
 1346SOL    HW2 5430   2.074   2.071   0.745 -1.9574  1.2398 -0.0089
 1346SOL    HW3 5431   2.051   1.924   0.771  1.7011  0.9541  1.8269
 1346SOL    MW4 5432   2.020   2.003   0.752 -0.2170 -0.1278  0.3145
 1347SOL     OW 5433   0.436   2.176   4.278  0.5161 -0.4058  0.5090
 1347SOL    HW2 5434   0.405   2.187   4.367 -1.2156  0.1606 -0.1573
 1347SOL    HW3 5435   0.487   2.255   4.260  0.7243 -0.4444  0.9341
 1347SOL    MW4 5436   0.439   2.188   4.287  0.3151 -0.3362  0.4768
 1348SOL     OW 5437   1.964   0.716   2.922 -0.0447  0.0554 -0.2299
 1348SOL    HW2 5438   1.874   0.748   2.914  0.0749  1.0450  2.0296
 1348SOL    HW3 5439   1.954   0.624   2.947 -0.4555  0.4198  0.9849
 1348SOL    MW4 5440   1.951   0.708   2.924 -0.0832  0.2340  0.2286
 1349SOL     OW 5441   1.163   0.982   0.689 -0.0346 -0.2555 -0.0781
 1349SOL    HW2 5442   1.213   0.901   0.700 -0.8515 -1.1080 -2.3064
 1349SOL    HW3 5443   1.074   0.958   0.713  0.1697  0.6864  1.7366
 1349SOL    MW4 5444   1.158   0.968   0.694 -0.1154 -0.2437 -0.1327
 1350SOL     OW 5445   1.381   3.199   4.362  0.0408  0.4828 -0.1441
 1350SOL    HW2 5446   1.296   3.173   4.397  0.3352 -1.3482 -0.7668
 1350SOL    HW3 5447   1.414   3.121   4.318  2.8107  0.6592  1.4986
 1350SOL    MW4 5448   1.374   3.186   4.361  0.4450  0.2644 -0.0095
 1351SOL     OW 5449   2.512   1.375   1.220  0.7567 -0.1994  0.4740
 1351SOL    HW2 5450   2.443   1.373   1.153  1.3698  0.1259 -0.1629
 1351SOL    HW3 5451   2.536   1.467   1.227  1.8343 -0.4369 -0.0250
 1351SOL    MW4 5452   2.506   1.387   1.212  0.9799 -0.1878  0.3240
 1352SOL     OW 5453   4.386   1.927   3.004 -0.5460 -0.6705  0.8179
 1352SOL    HW2 5454   4.355   1.978   2.929  1.0353 -1.4445 -0.4077
 1352SOL    HW3 5455   4.308   1.886   3.040 -1.3054 -0.4949 -0.5965
 1352SOL    MW4 5456   4.372   1.928   2.999 -0.4373 -0.7493  0.4697
 1353SOL     OW 5457   4.439   2.588   1.147 -0.0561  0.7214 -0.1138
 1353SOL    HW2 5458   4.425   2.633   1.063  0.3022 -0.2769 -0.7193
 1353SOL    HW3 5459   4.353   2.556   1.172 -0.0223  0.3209 -0.5081
 1353SOL    MW4 5460   4.426   2.590   1.139 -0.0038  0.5367 -0.2456
 1354SOL     OW 5461   4.340   3.654   1.576  0.1164 -0.5303  0.2511
 1354SOL    HW2 5462   4.378   3.573   1.608  1.6236  0.5607  1.2803
 1354SOL    HW3 5463   4.354   3.652   1.482  2.1222 -0.4677  0.5307
 1354SOL    MW4 5464   4.347   3.643   1.568  0.5803 -0.3779  0.4240
 1355SOL     OW 5465   2.273   4.168   1.512 -0.2070 -0.1312  1.1070
 1355SOL    HW2 5466   2.354   4.132   1.477 -0.5013 -1.4278  1.7298
 1355SOL    HW3 5467   2.300   4.243   1.565  0.5609 -0.4341  1.1461
 1355SOL    MW4 5468   2.287   4.173   1.514 -0.1445 -0.3424  1.1945
 1356SOL     OW 5469   2.015   3.763   4.556  0.1866  0.6460 -0.1693
 1356SOL    HW2 5470   1.991   3.787   4.466 -1.7008 -1.7832 -0.3554
 1356SOL    HW3 5471   2.105   3.730   4.548 -0.4970 -0.9796 -1.4464
 1356SOL    MW4 5472   2.024   3.762   4.543 -0.1523  0.1111 -0.3624
 1357SOL     OW 5473   2.816   3.499   4.365 -0.2515  0.1649 -0.5323
 1357SOL    HW2 5474   2.787   3.579   4.323  1.9991  0.4408 -1.6610
 1357SOL    HW3 5475   2.885   3.527   4.426 -0.2925 -0.7746 -0.0348
 1357SOL    MW4 5476   2.822   3.513   4.368  0.0401  0.0772 -0.6156
 1358SOL     OW 5477   1.815   0.962   1.959 -0.3310 -0.1122 -0.1543
 1358SOL    HW2 5478   1.745   0.896   1.967 -1.5854  1.0441 -1.4336
 1358SOL    HW3 5479   1.866   0.933   1.883  0.3795 -0.7411  0.5466
 1358SOL    MW4 5480   1.812   0.949   1.950 -0.4028 -0.0426 -0.2307
 1359SOL     OW 5481   4.377   3.811   2.909 -0.1857  0.0935 -0.4944
 1359SOL    HW2 5482   4.404   3.720   2.922 -1.5075 -0.2385  0.0193
 1359SOL    HW3 5483   4.372   3.847   2.997  0.3813  0.6886 -0.7022
 1359SOL    MW4 5484   4.380   3.804   2.922 -0.2851  0.1278 -0.4539
 1360SOL     OW 5485   3.792   2.038   1.129  0.3421 -0.4440  0.2163
 1360SOL    HW2 5486   3.715   1.988   1.156 -0.1530 -0.4462 -1.1883
 1360SOL    HW3 5487   3.852   2.030   1.204 -0.8784 -0.7060  1.1982
 1360SOL    MW4 5488   3.790   2.030   1.143  0.1154 -0.4790  0.1607
 1361SOL     OW 5489   3.885   2.634   3.803 -0.3018 -0.0912 -0.1826
 1361SOL    HW2 5490   3.816   2.671   3.857 -0.5015 -1.1880  0.3173
 1361SOL    HW3 5491   3.859   2.655   3.713 -1.2403 -0.4261  0.0086
 1361SOL    MW4 5492   3.873   2.642   3.798 -0.4520 -0.2799 -0.0916
 1362SOL     OW 5493   0.905   4.642   0.976  0.2983 -0.2978  0.4314
 1362SOL    HW2 5494   0.967   4.673   1.042 -0.1877  2.6380 -0.4181
 1362SOL    HW3 5495   0.909   4.708   0.906 -2.7933 -0.7297 -0.2319
 1362SOL    MW4 5496   0.914   4.655   0.975 -0.1738  0.0324  0.2317
 1363SOL     OW 5497   2.914   4.162   2.096 -0.3533  0.3482 -0.1772
 1363SOL    HW2 5498   2.827   4.180   2.131 -0.0899  0.5700  0.3796
 1363SOL    HW3 5499   2.962   4.122   2.169  0.3830  1.3433 -0.1049
 1363SOL    MW4 5500   2.909   4.159   2.110 -0.2213  0.5093 -0.0939
 1364SOL     OW 5501   1.276   1.541   2.333  0.1262  0.3411  0.0597
 1364SOL    HW2 5502   1.287   1.602   2.260  1.7799 -1.5220 -1.3174
 1364SOL    HW3 5503   1.255   1.458   2.291 -0.1252 -0.4732  1.7819
 1364SOL    MW4 5504   1.275   1.538   2.317  0.3113 -0.0123  0.1054
 1365SOL     OW 5505   3.268   0.999   1.203 -0.8574 -0.4335  0.9180
 1365SOL    HW2 5506   3.228   0.947   1.272  0.2019 -0.3933  1.5855
 1365SOL    HW3 5507   3.333   1.053   1.249  1.3179 -1.8739 -0.3532
 1365SOL    MW4 5508   3.271   0.999   1.219 -0.4306 -0.6182  0.8384
 1366SOL     OW 5509   2.967   2.947   4.040 -0.2241 -0.2563 -0.3337
 1366SOL    HW2 5510   3.059   2.974   4.049 -1.3038  2.8890  2.1382
 1366SOL    HW3 5511   2.935   2.994   3.963 -0.4433  0.8021  0.3847
 1366SOL    MW4 5512   2.975   2.957   4.031 -0.3955  0.2985  0.0873
 1367SOL     OW 5513   2.267   0.914   2.729 -0.0708  0.1956 -0.4800
 1367SOL    HW2 5514   2.205   0.842   2.714  0.5060 -0.4491  0.1895
 1367SOL    HW3 5515   2.253   0.973   2.655 -0.5890 -0.5798 -1.0097
 1367SOL    MW4 5516   2.257   0.912   2.717 -0.0629  0.0082 -0.4613
 1368SOL     OW 5517   3.037   1.573   4.025  0.5571 -0.1502  0.1604
 1368SOL    HW2 5518   3.027   1.554   4.118  0.2152 -0.8530 -0.0179
 1368SOL    HW3 5519   2.948   1.596   3.997  0.7415  0.5221  0.1018
 1368SOL    MW4 5520   3.024   1.574   4.034  0.5364 -0.1541  0.1292
 1369SOL     OW 5521   1.137   2.397   1.901  0.2978  0.6069 -0.2171
 1369SOL    HW2 5522   1.226   2.376   1.874  0.7731 -0.2841  1.9414
 1369SOL    HW3 5523   1.146   2.474   1.957 -0.2641  0.4416  0.1096
 1369SOL    MW4 5524   1.150   2.404   1.905  0.2863  0.4678  0.1110
 1370SOL     OW 5525   4.339   3.083   4.455 -0.3214  0.0241  0.4379
 1370SOL    HW2 5526   4.249   3.061   4.480 -0.2424  0.6186  1.2964
 1370SOL    HW3 5527   4.391   3.007   4.480 -0.6696 -0.5740 -0.6308
 1370SOL    MW4 5528   4.334   3.070   4.462 -0.3576  0.0236  0.4101
 1371SOL     OW 5529   2.453   2.685   1.444 -0.1583  0.0554 -0.5018
 1371SOL    HW2 5530   2.434   2.605   1.394  0.7635 -1.8499  2.0788
 1371SOL    HW3 5531   2.548   2.695   1.437  0.0018 -0.3187  0.9477
 1371SOL    MW4 5532   2.463   2.676   1.436 -0.0153 -0.2453  0.0299
 1372SOL     OW 5533   3.767   2.025   3.371  0.3002 -0.2422  0.1308
 1372SOL    HW2 5534   3.793   1.983   3.453 -0.2935 -0.3808  0.2553
 1372SOL    HW3 5535   3.742   2.114   3.397  0.3313 -0.2170  0.0709
 1372SOL    MW4 5536   3.767   2.031   3.386  0.2265 -0.2570  0.1395
 1373SOL     OW 5537   3.297   1.364   2.925 -0.0758  0.0792  0.0931
 1373SOL    HW2 5538   3.352   1.336   2.998  0.7110 -2.2726 -1.3567
 1373SOL    HW3 5539   3.359   1.382   2.854 -0.9552  0.7082 -0.5203
 1373SOL    MW4 5540   3.312   1.363   2.926 -0.0882 -0.1479 -0.1791
 1374SOL     OW 5541   2.134   0.458   2.123 -0.3640  0.3688  0.5396
 1374SOL    HW2 5542   2.158   0.441   2.032  0.7727 -0.6433  1.0085
 1374SOL    HW3 5543   2.079   0.536   2.119 -1.6669 -0.5919 -1.1848
 1374SOL    MW4 5544   2.130   0.466   2.110 -0.3860  0.1085  0.3743
 1375SOL     OW 5545   3.423   1.172   4.256  0.3234 -0.0347  0.2262
 1375SOL    HW2 5546   3.330   1.190   4.242  0.3040 -0.3706 -0.0862
 1375SOL    HW3 5547   3.447   1.225   4.332 -0.4925 -1.0852  1.2437
 1375SOL    MW4 5548   3.414   1.181   4.264  0.2131 -0.2177  0.3195
 1376SOL     OW 5549   4.360   0.637   3.245  0.1032  0.4548  0.2284
 1376SOL    HW2 5550   4.312   0.656   3.325  0.5131 -0.1618  0.6268
 1376SOL    HW3 5551   4.452   0.629   3.273  0.2540  0.2807 -0.3069
 1376SOL    MW4 5552   4.366   0.639   3.259  0.1774  0.3505  0.2103
 1377SOL     OW 5553   0.363   1.359   2.770  0.6023  0.4132 -0.0443
 1377SOL    HW2 5554   0.274   1.369   2.735  1.4237  0.3962 -2.1833
 1377SOL    HW3 5555   0.351   1.359   2.865 -1.6467  0.7878 -0.2988
 1377SOL    MW4 5556   0.349   1.361   2.778  0.4139  0.4604 -0.3603
 1378SOL     OW 5557   1.753   2.987   3.057  0.4097 -0.2001  0.3213
 1378SOL    HW2 5558   1.668   3.012   3.094  0.1324 -1.9149  0.9114
 1378SOL    HW3 5559   1.784   2.918   3.116  1.3434 -0.8914 -0.9723
 1378SOL    MW4 5560   1.746   2.981   3.070  0.4963 -0.5176  0.2284
 1379SOL     OW 5561   3.827   0.513   1.858 -0.1265  0.3392 -0.5146
 1379SOL    HW2 5562   3.751   0.550   1.813 -0.3652  1.8349  1.0447
 1379SOL    HW3 5563   3.793   0.436   1.903 -0.3839  0.1587 -1.0087
 1379SOL    MW4 5564   3.813   0.508   1.858 -0.1919  0.5127 -0.3741
 1380SOL     OW 5565   2.395   2.718   2.873 -0.0913  0.4762  0.5752
 1380SOL    HW2 5566   2.317   2.738   2.923  0.2847  0.5452  1.1386
 1380SOL    HW3 5567   2.468   2.744   2.930  0.3615 -0.7007  0.5540
 1380SOL    MW4 5568   2.395   2.724   2.887  0.0179  0.3300  0.6466
 1381SOL     OW 5569   0.539   2.403   2.724  0.5376 -0.0644  0.1788
 1381SOL    HW2 5570   0.614   2.457   2.700 -0.1610  0.3330 -1.2157
 1381SOL    HW3 5571   0.478   2.414   2.651 -0.0261 -1.9931  0.3446
 1381SOL    MW4 5572   0.541   2.412   2.711  0.3710 -0.2661  0.0165
 1382SOL     OW 5573   3.264   4.100   2.552  0.5051 -0.2019 -0.3707
 1382SOL    HW2 5574   3.302   4.108   2.465  1.4159  2.6806  0.2347
 1382SOL    HW3 5575   3.206   4.024   2.547  1.8917 -1.1347 -2.9648
 1382SOL    MW4 5576   3.261   4.091   2.540  0.8080  0.0553 -0.6335
 1383SOL     OW 5577   2.199   4.173   3.251  0.3777 -0.2716 -0.5170
 1383SOL    HW2 5578   2.197   4.238   3.322 -0.7943  0.2598 -1.0217
 1383SOL    HW3 5579   2.237   4.220   3.177  0.6069 -0.5090 -0.5489
 1383SOL    MW4 5580   2.204   4.188   3.251  0.2532 -0.2327 -0.5879
 1384SOL     OW 5581   1.242   3.117   2.415  0.3782 -0.4995  0.0032
 1384SOL    HW2 5582   1.226   3.182   2.484 -0.9214 -2.0619  1.2229
 1384SOL    HW3 5583   1.230   3.165   2.333 -0.6446  0.7783  0.8796
 1384SOL    MW4 5584   1.238   3.132   2.414  0.0718 -0.5372  0.2799
 1385SOL     OW 5585   3.906   4.382   0.988  0.3564 -0.3443  0.0587
 1385SOL    HW2 5586   3.866   4.463   1.019  2.7988  0.4915  1.1328
 1385SOL    HW3 5587   3.902   4.323   1.063  0.8095 -0.3703  0.0635
 1385SOL    MW4 5588   3.900   4.385   1.002  0.7384 -0.2375  0.2011
 1386SOL     OW 5589   4.449   3.511   2.895 -0.3779 -0.6619 -0.2407
 1386SOL    HW2 5590   4.490   3.516   2.981  1.9218 -1.5902 -1.2248
 1386SOL    HW3 5591   4.502   3.448   2.847 -0.5482  1.0871 -2.8656
 1386SOL    MW4 5592   4.461   3.504   2.900 -0.0968 -0.5536 -0.7169
 1387SOL     OW 5593   2.723   3.154   2.043  0.4176  0.5589 -0.0683
 1387SOL    HW2 5594   2.681   3.202   2.114 -1.2552 -0.9643  0.0252
 1387SOL    HW3 5595   2.666   3.078   2.029  1.5853 -0.0038 -1.9575
 1387SOL    MW4 5596   2.710   3.150   2.050  0.3510  0.2840 -0.3054
 1388SOL     OW 5597   1.589   0.253   2.851  0.6090  0.1132  0.0246
 1388SOL    HW2 5598   1.621   0.223   2.936 -0.0367 -0.4200  0.0777
 1388SOL    HW3 5599   1.666   0.291   2.808  1.6613 -2.4582 -0.4418
 1388SOL    MW4 5600   1.604   0.254   2.856  0.6626 -0.2964 -0.0300
 1389SOL     OW 5601   3.645   2.505   1.452 -0.2672 -0.1295 -0.2247
 1389SOL    HW2 5602   3.704   2.543   1.517  0.4976  0.0300 -1.0033
 1389SOL    HW3 5603   3.651   2.411   1.465 -0.8719 -0.0561  0.5890
 1389SOL    MW4 5604   3.654   2.498   1.462 -0.2460 -0.0987 -0.2201
 1390SOL     OW 5605   3.423   1.033   4.589 -0.5713  0.3764 -0.6260
 1390SOL    HW2 5606   3.481   0.960   4.569 -2.1628 -1.7159  2.0808
 1390SOL    HW3 5607   3.354   1.028   4.522  0.2100  0.4385 -1.4440
 1390SOL    MW4 5608   3.422   1.023   4.577 -0.6781  0.1085 -0.3767
 1391SOL     OW 5609   0.961   0.810   1.501  0.1905 -0.7218 -0.2574
 1391SOL    HW2 5610   1.021   0.835   1.431 -0.7756 -1.4753 -1.3824
 1391SOL    HW3 5611   0.901   0.747   1.460  0.1805 -1.8926  1.4897
 1391SOL    MW4 5612   0.961   0.805   1.486  0.0616 -0.9757 -0.1754
 1392SOL     OW 5613   3.189   4.166   4.612 -0.1293  0.2618 -0.2143
 1392SOL    HW2 5614   3.236   4.250   4.611  0.6591 -0.1612  0.9792
 1392SOL    HW3 5615   3.255   4.102   4.586  0.1505 -0.4219  2.0826
 1392SOL    MW4 5616   3.204   4.169   4.608  0.0114  0.1159  0.2456
 1393SOL     OW 5617   2.789   2.970   2.394 -0.1646  0.2223 -0.7612
 1393SOL    HW2 5618   2.771   2.893   2.341 -0.9647  0.4858 -0.8772
 1393SOL    HW3 5619   2.762   2.945   2.483 -0.3926  0.3566 -0.7924
 1393SOL    MW4 5620   2.783   2.956   2.399 -0.3002  0.2749 -0.7806
 1394SOL     OW 5621   1.777   3.612   0.703  0.0298  0.0422 -0.3813
 1394SOL    HW2 5622   1.841   3.620   0.632 -0.2186  2.1646 -0.3821
 1394SOL    HW3 5623   1.829   3.596   0.781  0.4259 -0.2275 -0.6972
 1394SOL    MW4 5624   1.792   3.611   0.704  0.0494  0.2868 -0.4231
 1395SOL     OW 5625   4.391   4.530   3.383 -0.0135  0.4360  0.1426
 1395SOL    HW2 5626   4.338   4.480   3.321 -0.3371  1.2834 -0.2711
 1395SOL    HW3 5627   4.468   4.555   3.333  0.1749  0.3117  0.3689
 1395SOL    MW4 5628   4.394   4.526   3.368 -0.0310  0.5307  0.1178
 1396SOL     OW 5629   2.837   3.065   2.763  0.2241  0.0358  0.2112
 1396SOL    HW2 5630   2.766   3.042   2.704 -0.4865 -1.9965  1.7791
 1396SOL    HW3 5631   2.849   2.987   2.817  1.7972  1.3280  1.7872
 1396SOL    MW4 5632   2.829   3.051   2.763  0.3381 -0.0620  0.6261
 1397SOL     OW 5633   2.988   1.724   3.461  0.2239 -0.0982  0.6516
 1397SOL    HW2 5634   2.987   1.629   3.471  0.3655 -0.0366  1.3136
 1397SOL    HW3 5635   3.006   1.757   3.549 -2.0589  0.6053  0.8807
 1397SOL    MW4 5636   2.990   1.716   3.474 -0.0589  0.0027  0.7691
 1398SOL     OW 5637   0.307   1.874   0.737  0.1816 -0.0778 -0.2103
 1398SOL    HW2 5638   0.238   1.915   0.685 -0.1429 -2.0402 -1.3688
 1398SOL    HW3 5639   0.271   1.869   0.825 -1.3173 -1.3853 -0.8642
 1398SOL    MW4 5640   0.293   1.879   0.742 -0.0590 -0.5093 -0.4494
 1399SOL     OW 5641   1.197   0.534   3.970 -0.3978 -0.3412  0.3638
 1399SOL    HW2 5642   1.237   0.493   4.046 -0.2945  0.7222  0.8868
 1399SOL    HW3 5643   1.224   0.626   3.974  0.5908 -0.5020 -1.6076
 1399SOL    MW4 5644   1.206   0.541   3.980 -0.2538 -0.2221  0.1729
 1400SOL     OW 5645   3.845   2.601   1.640  0.5400  0.0763 -0.1606
 1400SOL    HW2 5646   3.918   2.620   1.581  0.4510 -0.7496 -0.5491
 1400SOL    HW3 5647   3.884   2.547   1.709  0.4841  0.4075  0.1329
 1400SOL    MW4 5648   3.860   2.596   1.642  0.5209  0.0112 -0.1731
 1401SOL     OW 5649   1.893   2.809   1.616 -0.0150  0.0763 -0.3491
 1401SOL    HW2 5650   1.964   2.859   1.657 -0.2842 -0.8921  1.3464
 1401SOL    HW3 5651   1.931   2.722   1.601 -0.7517 -0.3800  0.3632
 1401SOL    MW4 5652   1.907   2.804   1.619 -0.1476 -0.1118 -0.0314
 1402SOL     OW 5653   3.075   4.303   1.237  0.7383 -0.6530  0.3314
 1402SOL    HW2 5654   3.046   4.223   1.280  1.6487 -0.7802  0.7200
 1402SOL    HW3 5655   3.002   4.364   1.248  1.3987 -0.2854  3.1524
 1402SOL    MW4 5656   3.061   4.301   1.244  0.9451 -0.6213  0.7550
 1403SOL     OW 5657   3.561   0.688   4.364  0.2317 -0.2334  0.4925
 1403SOL    HW2 5658   3.566   0.784   4.364  0.8768 -0.2541 -1.0291
 1403SOL    HW3 5659   3.502   0.667   4.292  2.6043 -1.0466 -1.3060
 1403SOL    MW4 5660   3.554   0.698   4.355  0.6297 -0.3434  0.0544
 1404SOL     OW 5661   1.878   0.243   1.369 -0.0403  0.0032 -0.0675
 1404SOL    HW2 5662   1.926   0.191   1.434  0.6435  0.1519 -0.4476
 1404SOL    HW3 5663   1.830   0.178   1.318 -0.6923 -0.1018  0.6755
 1404SOL    MW4 5664   1.878   0.227   1.371 -0.0361  0.0089 -0.0194
 1405SOL     OW 5665   2.394   2.923   1.751  0.1047  0.2223 -0.0950
 1405SOL    HW2 5666   2.416   2.831   1.737  2.4151  0.8272 -0.6965
 1405SOL    HW3 5667   2.429   2.944   1.837 -0.1375  0.6167 -0.0881
 1405SOL    MW4 5668   2.401   2.914   1.760  0.3777  0.3541 -0.1732
 1406SOL     OW 5669   0.504   0.321   2.630 -0.4565 -0.3666  0.5960
 1406SOL    HW2 5670   0.522   0.247   2.689 -1.2128  0.2252  1.5941
 1406SOL    HW3 5671   0.577   0.382   2.645  0.5797 -1.2313 -0.7945
 1406SOL    MW4 5672   0.516   0.319   2.640 -0.4197 -0.4026  0.5441
 1407SOL     OW 5673   2.500   1.761   0.985 -0.7141 -0.0211 -0.4302
 1407SOL    HW2 5674   2.484   1.686   0.928  4.1260 -1.4542 -0.1076
 1407SOL    HW3 5675   2.549   1.823   0.931 -0.8269  1.0078  0.6186
 1407SOL    MW4 5676   2.504   1.759   0.971 -0.0904 -0.0744 -0.2492
 1408SOL     OW 5677   3.179   3.393   4.272 -0.6973 -0.0760 -0.5659
 1408SOL    HW2 5678   3.205   3.485   4.274  0.9523 -0.5454 -0.0791
 1408SOL    HW3 5679   3.228   3.357   4.198  0.5532 -1.1228  0.7731
 1408SOL    MW4 5680   3.189   3.401   4.262 -0.3147 -0.2759 -0.3252
 1409SOL     OW 5681   4.156   0.361   2.140 -0.3164  0.4107  0.0199
 1409SOL    HW2 5682   4.249   0.359   2.163 -0.7720 -0.1420  1.8688
 1409SOL    HW3 5683   4.132   0.269   2.129 -0.8727  0.4989  0.4873
 1409SOL    MW4 5684   4.165   0.349   2.142 -0.4497  0.3494  0.3257
 1410SOL     OW 5685   0.476   1.863   3.947  0.2044  0.2524 -0.6089
 1410SOL    HW2 5686   0.498   1.956   3.945  1.7416 -0.0724  0.5988
 1410SOL    HW3 5687   0.397   1.858   4.001 -0.9638  1.0444 -2.1979
 1410SOL    MW4 5688   0.469   1.874   3.954  0.2531  0.3141 -0.6590
 1411SOL     OW 5689   3.816   1.570   2.487  0.4481 -0.4989  0.3672
 1411SOL    HW2 5690   3.733   1.554   2.442  0.2926  0.7271  0.2074
 1411SOL    HW3 5691   3.794   1.568   2.580  0.4895 -1.4933  0.3627
 1411SOL    MW4 5692   3.802   1.567   2.494  0.4330 -0.4683  0.3455
 1412SOL     OW 5693   2.103   2.564   1.303 -0.2334  0.6693  0.2308
 1412SOL    HW2 5694   2.193   2.532   1.305 -0.2955  0.5089  0.5166
 1412SOL    HW3 5695   2.108   2.649   1.259 -0.2423 -0.3200 -1.7415
 1412SOL    MW4 5696   2.115   2.571   1.297 -0.2427  0.5174  0.0083
 1413SOL     OW 5697   2.840   2.851   3.347 -0.2689  0.4641 -0.2276
 1413SOL    HW2 5698   2.826   2.799   3.268  0.6008  0.7913 -0.6013
 1413SOL    HW3 5699   2.832   2.942   3.318 -0.6880  0.5730  0.2119
 1413SOL    MW4 5700   2.837   2.856   3.333 -0.2093  0.5214 -0.2189
 1414SOL     OW 5701   2.816   3.521   1.206 -0.1970 -0.3218  0.5034
 1414SOL    HW2 5702   2.771   3.590   1.253 -0.3537 -1.1205  1.5376
 1414SOL    HW3 5703   2.834   3.559   1.120  1.9052  1.8716  1.8423
 1414SOL    MW4 5704   2.812   3.535   1.201  0.0596 -0.1378  0.8163
 1415SOL     OW 5705   3.668   1.243   1.646 -0.6697  0.2535 -0.1285
 1415SOL    HW2 5706   3.590   1.243   1.701 -0.5821 -2.0060  0.0286
 1415SOL    HW3 5707   3.738   1.211   1.703 -0.0369  0.3227 -0.8480
 1415SOL    MW4 5708   3.667   1.239   1.661 -0.5746 -0.0354 -0.2028
 1416SOL     OW 5709   0.352   4.018   3.948  0.1652  0.1973 -0.2049
 1416SOL    HW2 5710   0.341   4.005   4.042 -0.7735  0.4816 -0.2678
 1416SOL    HW3 5711   0.443   4.045   3.938  0.6319 -1.1178  0.4794
 1416SOL    MW4 5712   0.362   4.020   3.959  0.1029  0.0610 -0.1225
 1417SOL     OW 5713   1.996   1.657   4.312 -0.1731  0.2849  0.1181
 1417SOL    HW2 5714   2.044   1.728   4.356 -0.0787 -0.6820  1.5795
 1417SOL    HW3 5715   2.058   1.585   4.308 -0.7579 -0.2096 -0.0458
 1417SOL    MW4 5716   2.011   1.657   4.317 -0.2382  0.0923  0.2894
 1418SOL     OW 5717   3.716   2.833   0.768  0.2501  0.2916  0.0814
 1418SOL    HW2 5718   3.729   2.889   0.845  2.2428 -0.9844  0.7186
 1418SOL    HW3 5719   3.633   2.789   0.784 -0.0141  1.0610  0.8573
 1418SOL    MW4 5720   3.707   2.835   0.780  0.4780  0.2246  0.2679
 1419SOL     OW 5721   2.850   4.450   1.255  0.7525  0.2753  0.0985
 1419SOL    HW2 5722   2.784   4.444   1.185  1.4894  0.6399 -0.6362
 1419SOL    HW3 5723   2.800   4.437   1.335 -0.4867  2.0549 -0.3428
 1419SOL    MW4 5724   2.834   4.448   1.256  0.6864  0.5579 -0.0567
 1420SOL     OW 5725   2.101   2.762   3.322  0.1419  0.3398 -0.0743
 1420SOL    HW2 5726   2.114   2.686   3.379  0.2861 -1.0163 -1.8686
 1420SOL    HW3 5727   2.145   2.834   3.368  0.6301 -0.8126  1.3138
 1420SOL    MW4 5728   2.109   2.761   3.336  0.2253  0.0088 -0.1280
 1421SOL     OW 5729   0.659   0.779   2.815  0.2006 -0.2123 -0.0781
 1421SOL    HW2 5730   0.651   0.873   2.799  0.2960 -0.1445  0.2643
 1421SOL    HW3 5731   0.752   0.766   2.832  0.2224 -0.4042 -0.3499
 1421SOL    MW4 5732   0.670   0.790   2.815  0.2161 -0.2286 -0.0689
 1422SOL     OW 5733   4.403   2.462   4.030 -0.1792  0.0267  0.2605
 1422SOL    HW2 5734   4.399   2.409   3.951 -0.5836  0.1246  0.2162
 1422SOL    HW3 5735   4.317   2.503   4.036 -0.0290  0.2994  0.5556
 1422SOL    MW4 5736   4.391   2.461   4.020 -0.2127  0.0753  0.2937
 1423SOL     OW 5737   0.818   3.734   2.984  0.0934 -0.0129  0.2971
 1423SOL    HW2 5738   0.897   3.777   3.019  0.0357  0.9700 -0.7785
 1423SOL    HW3 5739   0.746   3.790   3.012 -0.0277  0.3159 -0.6599
 1423SOL    MW4 5740   0.819   3.747   2.993  0.0698  0.1600  0.0288
 1424SOL     OW 5741   2.494   3.397   4.092  0.3751  0.1132  0.2472
 1424SOL    HW2 5742   2.556   3.462   4.060  1.1217 -0.3911  0.6614
 1424SOL    HW3 5743   2.545   3.342   4.151 -0.6843  0.2591  1.3157
 1424SOL    MW4 5744   2.509   3.398   4.096  0.3338  0.0660  0.4430
 1425SOL     OW 5745   1.166   3.889   4.532  0.3202  0.1324  0.1830
 1425SOL    HW2 5746   1.138   3.900   4.441 -0.3170  0.2616  0.3946
 1425SOL    HW3 5747   1.206   3.802   4.534  0.3974  0.1572 -0.2381
 1425SOL    MW4 5748   1.168   3.879   4.520  0.2463  0.1531  0.1550
 1426SOL     OW 5749   3.761   0.092   0.906  0.7552 -0.1140 -0.0132
 1426SOL    HW2 5750   3.691   0.154   0.882  1.0529 -0.3078 -1.3750
 1426SOL    HW3 5751   3.841   0.145   0.904  1.0230 -0.5652 -1.2773
 1426SOL    MW4 5752   3.762   0.107   0.903  0.8302 -0.1991 -0.3597
 1427SOL     OW 5753   4.102   2.762   3.584 -0.4704  0.0647 -0.6240
 1427SOL    HW2 5754   4.008   2.747   3.594 -0.5098 -0.5803 -1.8587
 1427SOL    HW3 5755   4.142   2.708   3.651 -0.9708  0.1369 -0.2649
 1427SOL    MW4 5756   4.095   2.753   3.594 -0.5422 -0.0110 -0.7393
 1428SOL     OW 5757   0.983   2.983   1.880 -0.1803  0.2928 -0.3907
 1428SOL    HW2 5758   1.052   2.936   1.833 -0.1559  0.7451 -0.8082
 1428SOL    HW3 5759   0.981   3.069   1.840  0.1844  0.8545  0.7834
 1428SOL    MW4 5760   0.992   2.988   1.869 -0.1290  0.4268 -0.2908
 1429SOL     OW 5761   2.399   3.592   0.635  0.1042 -0.0340  0.0452
 1429SOL    HW2 5762   2.453   3.541   0.574 -0.3492 -0.3137 -0.1294
 1429SOL    HW3 5763   2.416   3.552   0.721  1.6632  1.1283  0.2969
 1429SOL    MW4 5764   2.408   3.580   0.638  0.2501  0.0825  0.0554
 1430SOL     OW 5765   0.298   2.806   2.205  0.0914 -0.0309  0.3426
 1430SOL    HW2 5766   0.220   2.820   2.152 -0.8410 -2.0570  1.1186
 1430SOL    HW3 5767   0.265   2.784   2.292  1.4855 -1.4097  0.5536
 1430SOL    MW4 5768   0.283   2.805   2.210  0.1523 -0.4799  0.4730
 1431SOL     OW 5769   2.195   1.366   0.829  0.0296  0.5617  0.6747
 1431SOL    HW2 5770   2.135   1.437   0.805  1.7364  2.0077  0.5078
 1431SOL    HW3 5771   2.223   1.388   0.918 -0.4094 -0.6115  1.1031
 1431SOL    MW4 5772   2.191   1.378   0.837  0.1969  0.5977  0.7092
 1432SOL     OW 5773   3.048   0.121   3.556  0.5909  0.6385 -0.1719
 1432SOL    HW2 5774   3.119   0.114   3.620 -0.8434  0.8647  1.4724
 1432SOL    HW3 5775   3.061   0.208   3.516  1.0659  0.7931  0.3109
 1432SOL    MW4 5776   3.059   0.132   3.559  0.4640  0.6888  0.1087
 1433SOL     OW 5777   2.579   4.079   0.678 -0.0887 -0.0838 -0.7713
 1433SOL    HW2 5778   2.486   4.095   0.693  0.3001  1.0140  0.6556
 1433SOL    HW3 5779   2.592   3.987   0.702 -0.7336 -0.1421 -0.6270
 1433SOL    MW4 5780   2.568   4.069   0.683 -0.1225  0.0534 -0.5641
 1434SOL     OW 5781   3.291   2.821   1.905 -0.3347  0.0196 -0.0719
 1434SOL    HW2 5782   3.363   2.873   1.867 -0.9305  1.1390  0.2900
 1434SOL    HW3 5783   3.248   2.881   1.966 -1.7934 -0.5203 -0.5383
 1434SOL    MW4 5784   3.295   2.836   1.908 -0.6061  0.0961 -0.0856
 1435SOL     OW 5785   2.419   3.272   2.050 -0.0415  0.0578  0.2720
 1435SOL    HW2 5786   2.325   3.281   2.040 -0.0965 -1.0298 -0.2261
 1435SOL    HW3 5787   2.456   3.312   1.971 -0.1978 -2.0065 -0.8629
 1435SOL    MW4 5788   2.412   3.279   2.039 -0.0691 -0.3581  0.0563
 1436SOL     OW 5789   3.255   0.426   4.117 -0.4724  0.2001  0.2705
 1436SOL    HW2 5790   3.341   0.394   4.143  0.3303  1.1250 -1.1660
 1436SOL    HW3 5791   3.215   0.457   4.198  1.8302  2.6748  0.5226
 1436SOL    MW4 5792   3.261   0.426   4.131 -0.0627  0.6486  0.1135
 1437SOL     OW 5793   0.472   0.289   2.934 -0.0253  0.3130 -0.2042
 1437SOL    HW2 5794   0.524   0.227   2.883 -0.2214  0.0511 -0.0884
 1437SOL    HW3 5795   0.502   0.375   2.905 -0.1952  0.1680 -0.8340
 1437SOL    MW4 5796   0.483   0.292   2.924 -0.0736  0.2593 -0.2720
 1438SOL     OW 5797   2.644   0.604   3.936  0.0829  0.7509  0.3563
 1438SOL    HW2 5798   2.640   0.531   3.875 -1.6114  0.8563  0.3112
 1438SOL    HW3 5799   2.620   0.681   3.884 -0.3897  0.9923  0.9112
 1438SOL    MW4 5800   2.640   0.605   3.921 -0.2029  0.7967  0.4234
 1439SOL     OW 5801   1.474   1.123   4.151  0.0543  0.0859 -0.2176
 1439SOL    HW2 5802   1.458   1.029   4.165 -0.3950  0.0293 -1.0851
 1439SOL    HW3 5803   1.436   1.165   4.228  0.1496 -0.4378  0.1220
 1439SOL    MW4 5804   1.467   1.116   4.163  0.0076  0.0093 -0.2871
 1440SOL     OW 5805   2.239   0.849   4.236 -0.0417  0.0694  0.3032
 1440SOL    HW2 5806   2.166   0.804   4.278 -0.2978 -0.9614 -1.2159
 1440SOL    HW3 5807   2.316   0.820   4.286 -0.3528 -1.0625  0.1448
 1440SOL    MW4 5808   2.240   0.839   4.248 -0.1168 -0.2159  0.0815
 1441SOL     OW 5809   3.068   0.727   0.835  0.5671  0.5542 -0.1943
 1441SOL    HW2 5810   3.072   0.714   0.930 -0.7962  0.5031 -0.1271
 1441SOL    HW3 5811   3.120   0.805   0.819  0.4077  0.8404  0.6573
 1441SOL    MW4 5812   3.075   0.735   0.845  0.3664  0.5851 -0.0731
 1442SOL     OW 5813   1.623   1.868   4.345 -0.0234  0.3155  0.3222
 1442SOL    HW2 5814   1.596   1.860   4.437  0.5201  1.6902  0.6161
 1442SOL    HW3 5815   1.545   1.902   4.301 -0.3349 -0.4957  0.2375
 1442SOL    MW4 5816   1.609   1.872   4.351  0.0072  0.3898  0.3495
 1443SOL     OW 5817   4.422   3.976   4.094  0.5008 -0.3554 -0.2730
 1443SOL    HW2 5818   4.359   4.012   4.031  0.1750 -1.8782 -0.8378
 1443SOL    HW3 5819   4.486   4.047   4.106 -2.4538  2.0567  1.9855
 1443SOL    MW4 5820   4.422   3.990   4.087  0.0677 -0.2379 -0.0496
 1444SOL     OW 5821   3.840   2.625   0.626 -0.2695  0.0407 -0.0828
 1444SOL    HW2 5822   3.779   2.666   0.687  0.9708 -1.2437  2.1177
 1444SOL    HW3 5823   3.886   2.698   0.584 -1.6285  0.9502  0.0008
 1444SOL    MW4 5824   3.838   2.640   0.628 -0.2851 -0.0086  0.2186
 1445SOL     OW 5825   0.917   1.022   3.258 -0.1044  0.1810  0.4276
 1445SOL    HW2 5826   0.929   1.107   3.215 -0.1819  0.0094  0.0667
 1445SOL    HW3 5827   0.951   1.035   3.347  0.0407  0.5413  0.3194
 1445SOL    MW4 5828   0.923   1.035   3.264 -0.0955  0.2059  0.3655
 1446SOL     OW 5829   1.641   2.424   4.538 -0.3487  0.0871 -0.3621
 1446SOL    HW2 5830   1.678   2.374   4.466 -0.8544  0.6244 -1.0016
 1446SOL    HW3 5831   1.565   2.373   4.567 -0.6540  0.3042 -0.7793
 1446SOL    MW4 5832   1.636   2.411   4.532 -0.4557  0.1867 -0.5016
 1447SOL     OW 5833   1.489   1.334   1.477  0.6386 -0.7386  0.0240
 1447SOL    HW2 5834   1.454   1.420   1.454  0.4285 -1.2727 -1.6852
 1447SOL    HW3 5835   1.550   1.352   1.550  1.8695  1.0955 -1.4094
 1447SOL    MW4 5836   1.493   1.348   1.484  0.7733 -0.5670 -0.3906
 1448SOL     OW 5837   1.595   3.220   4.570 -0.5334 -0.0536  0.2821
 1448SOL    HW2 5838   1.540   3.233   4.493 -1.1731 -1.2014  0.5394
 1448SOL    HW3 5839   1.668   3.167   4.538  0.1156  0.9479  0.0797
 1448SOL    MW4 5840   1.598   3.215   4.555 -0.5322 -0.0727  0.2894
 1449SOL     OW 5841   3.668   3.900   1.329 -0.0033 -0.8254  0.0793
 1449SOL    HW2 5842   3.656   3.834   1.398 -0.0635 -1.0990 -0.1937
 1449SOL    HW3 5843   3.589   3.953   1.333  0.0260 -0.7933  0.2714
 1449SOL    MW4 5844   3.656   3.898   1.339 -0.0074 -0.8574  0.0687
 1450SOL     OW 5845   3.414   2.640   3.672 -0.4621  0.0479 -0.0602
 1450SOL    HW2 5846   3.320   2.643   3.657 -0.5551  0.5239  0.5859
 1450SOL    HW3 5847   3.430   2.553   3.708 -0.5069 -0.3982 -1.1181
 1450SOL    MW4 5848   3.404   2.629   3.675 -0.4804  0.0522 -0.1144
 1451SOL     OW 5849   1.054   3.254   4.705 -0.3111  0.0123  0.5425
 1451SOL    HW2 5850   1.112   3.271   4.780 -0.2974  0.7846  0.3600
 1451SOL    HW3 5851   1.040   3.340   4.665 -0.0708 -0.4378 -0.5317
 1451SOL    MW4 5852   1.060   3.267   4.710 -0.2775  0.0548  0.3767
 1452SOL     OW 5853   1.463   2.097   1.059 -0.7144  0.0615 -0.3043
 1452SOL    HW2 5854   1.439   2.174   1.110 -1.8818 -0.2450 -0.3663
 1452SOL    HW3 5855   1.414   2.025   1.101 -0.9688 -0.3443 -1.2901
 1452SOL    MW4 5856   1.453   2.098   1.071 -0.9021 -0.0324 -0.4427
 1453SOL     OW 5857   1.163   3.736   1.983  0.4411 -0.3146  0.1630
 1453SOL    HW2 5858   1.211   3.768   2.059 -0.9062  0.9029  0.5170
 1453SOL    HW3 5859   1.090   3.686   2.019  0.3223 -0.5199 -0.3506
 1453SOL    MW4 5860   1.159   3.733   1.998  0.2478 -0.1812  0.1420
 1454SOL     OW 5861   3.025   1.802   3.728  0.3569  0.2633  0.0441
 1454SOL    HW2 5862   3.014   1.884   3.776  1.6959  0.4122  0.1034
 1454SOL    HW3 5863   3.114   1.773   3.749  0.0485 -0.9857 -0.3155
 1454SOL    MW4 5864   3.035   1.809   3.737  0.4930  0.1184  0.0045
 1455SOL     OW 5865   3.181   2.613   0.521 -0.6254  0.1737  0.2860
 1455SOL    HW2 5866   3.128   2.689   0.545 -0.6591 -0.1472  1.2435
 1455SOL    HW3 5867   3.122   2.538   0.531  0.0699 -0.2194  1.6296
 1455SOL    MW4 5868   3.166   2.613   0.525 -0.5381  0.0796  0.5897
 1456SOL     OW 5869   2.258   2.198   2.845 -0.3385 -0.2230  0.3167
 1456SOL    HW2 5870   2.240   2.216   2.937 -0.0294 -3.0776  1.0111
 1456SOL    HW3 5871   2.323   2.127   2.847 -1.3406 -1.2732 -2.0641
 1456SOL    MW4 5872   2.264   2.191   2.858 -0.4299 -0.7381  0.0944
 1457SOL     OW 5873   3.191   0.442   3.763 -0.4624 -0.1638  0.2833
 1457SOL    HW2 5874   3.153   0.433   3.676 -0.2224 -0.0380  0.1639
 1457SOL    HW3 5875   3.137   0.387   3.819 -0.3891 -0.5489 -0.0184
 1457SOL    MW4 5876   3.179   0.433   3.759 -0.4208 -0.1980  0.2277
 1458SOL     OW 5877   2.898   3.791   4.296  0.0794  0.0944 -0.5769
 1458SOL    HW2 5878   2.873   3.805   4.387 -1.1640  2.3605 -1.2145
 1458SOL    HW3 5879   2.987   3.827   4.290 -0.4311  1.3963 -0.5822
 1458SOL    MW4 5880   2.907   3.798   4.307 -0.1521  0.5655 -0.6614
 1459SOL     OW 5881   2.984   2.441   2.766  0.2019  0.0345 -0.0857
 1459SOL    HW2 5882   2.897   2.478   2.782  0.5379  1.1805 -0.8381
 1459SOL    HW3 5883   2.977   2.350   2.794 -0.7847  0.5320  1.3404
 1459SOL    MW4 5884   2.971   2.434   2.772  0.1161  0.2513  0.0033
 1460SOL     OW 5885   3.365   0.015   4.607  0.2858  0.1332 -0.0847
 1460SOL    HW2 5886   3.330   0.049   4.689 -2.2206 -0.8112 -0.7059
 1460SOL    HW3 5887   3.367   0.091   4.548  2.2014  0.8373  0.8470
 1460SOL    MW4 5888   3.361   0.030   4.610  0.2079  0.1015 -0.0439
 1461SOL     OW 5889   0.298   1.040   1.068  0.1606  0.6220 -0.3515
 1461SOL    HW2 5890   0.211   1.019   1.036  1.1005 -0.2812 -2.3675
 1461SOL    HW3 5891   0.339   1.090   0.997  2.4212 -1.7738 -0.8392
 1461SOL    MW4 5892   0.292   1.044   1.055  0.5828  0.1868 -0.6818
 1462SOL     OW 5893   3.430   0.022   3.068  0.1338 -0.1345  0.1455
 1462SOL    HW2 5894   3.495   0.055   3.005  1.0433 -0.2880  0.9873
 1462SOL    HW3 5895   3.479  -0.037   3.125 -0.8429 -0.5840  0.5368
 1462SOL    MW4 5896   3.445   0.019   3.067  0.1249 -0.2141  0.3080
 1463SOL     OW 5897   4.054   3.196   3.557 -0.2688 -0.6072  0.1578
 1463SOL    HW2 5898   4.014   3.210   3.643 -1.1145  0.4070 -0.3922
 1463SOL    HW3 5899   4.144   3.226   3.568 -0.5351  0.0738  0.5363
 1463SOL    MW4 5900   4.061   3.202   3.570 -0.4153 -0.3839  0.1352
 1464SOL     OW 5901   0.948   0.047   4.184 -0.0524  0.9615  0.6070
 1464SOL    HW2 5902   0.856   0.059   4.164 -0.1141  0.6776  0.7139
 1464SOL    HW3 5903   0.973   0.127   4.231 -0.4802  0.6427  1.4002
 1464SOL    MW4 5904   0.939   0.059   4.188 -0.1169  0.8820  0.7257
 1465SOL     OW 5905   0.997   3.016   4.291 -0.3216 -0.0459  0.0591
 1465SOL    HW2 5906   0.938   2.956   4.245 -0.1148 -0.5185  0.4077
 1465SOL    HW3 5907   0.940   3.088   4.319 -0.4992  0.1102 -0.6859
 1465SOL    MW4 5908   0.982   3.018   4.289 -0.3178 -0.0875  0.0062
 1466SOL     OW 5909   2.666   3.616   3.104  0.3607  0.2871 -0.0275
 1466SOL    HW2 5910   2.661   3.548   3.038  1.3341  0.1949 -0.0172
 1466SOL    HW3 5911   2.733   3.676   3.072  0.4082  0.5658  0.5735
 1466SOL    MW4 5912   2.674   3.615   3.091  0.4954  0.3116  0.0534
 1467SOL     OW 5913   3.094   1.827   2.793 -0.0073  0.5019 -0.0619
 1467SOL    HW2 5914   3.071   1.747   2.745 -0.0897  0.7998 -0.5262
 1467SOL    HW3 5915   3.167   1.802   2.850 -0.9267 -0.2419  0.7962
 1467SOL    MW4 5916   3.100   1.813   2.794 -0.1397  0.4431 -0.0100
 1468SOL     OW 5917   1.978   3.440   3.985  0.3393 -0.2223 -0.3075
 1468SOL    HW2 5918   1.912   3.441   3.916  1.3466  1.2994 -1.2895
 1468SOL    HW3 5919   1.935   3.399   4.060 -2.3868  2.6014 -0.2621
 1468SOL    MW4 5920   1.964   3.435   3.986  0.1123  0.3510 -0.4311
 1469SOL     OW 5921   2.329   2.903   4.428 -0.0480  0.2376  0.7725
 1469SOL    HW2 5922   2.353   2.992   4.405 -0.3247  0.3038  0.7319
 1469SOL    HW3 5923   2.353   2.851   4.351  0.5462  0.2041  0.9826
 1469SOL    MW4 5924   2.335   2.908   4.415 -0.0062  0.2420  0.7944
 1470SOL     OW 5925   2.174   3.464   1.171  0.2096 -0.2097 -0.0144
 1470SOL    HW2 5926   2.104   3.503   1.223 -0.6000 -0.1177 -1.1817
 1470SOL    HW3 5927   2.137   3.452   1.084  0.6969 -2.8321  0.0899
 1470SOL    MW4 5928   2.160   3.468   1.167  0.1669 -0.5436 -0.1546
 1471SOL     OW 5929   1.810   2.418   2.168 -0.5498  0.4181  0.3148
 1471SOL    HW2 5930   1.841   2.440   2.255  0.2537  0.7355 -0.0458
 1471SOL    HW3 5931   1.730   2.469   2.157 -1.3625 -0.6189  1.3562
 1471SOL    MW4 5932   1.804   2.428   2.178 -0.5512  0.3233  0.4046
 1472SOL     OW 5933   4.114   4.065   4.499  0.1861 -0.3185  0.2087
 1472SOL    HW2 5934   4.112   4.056   4.594 -0.8514  1.4799  0.3895
 1472SOL    HW3 5935   4.205   4.052   4.475  0.6764  0.5061  1.5881
 1472SOL    MW4 5936   4.126   4.062   4.508  0.1144  0.0272  0.4148
 1473SOL     OW 5937   1.884   2.516   4.676  0.0511  0.3629  0.1252
 1473SOL    HW2 5938   1.802   2.468   4.662  0.2362 -0.1293  0.6814
 1473SOL    HW3 5939   1.951   2.462   4.634  0.2071  0.3372  0.4065
 1473SOL    MW4 5940   1.882   2.503   4.669  0.0961  0.2942  0.2356
 1474SOL     OW 5941   0.953   2.771   2.070  0.0005  0.4169 -0.0295
 1474SOL    HW2 5942   0.983   2.833   2.003  1.4094 -2.0866 -1.7666
 1474SOL    HW3 5943   0.981   2.811   2.153  2.2702  1.3833 -1.2045
 1474SOL    MW4 5944   0.961   2.785   2.072  0.4859  0.2141 -0.4137
 1475SOL     OW 5945   1.465   3.371   2.474  0.2561 -0.3510  0.3572
 1475SOL    HW2 5946   1.537   3.411   2.524 -0.2403 -1.8970  2.3934
 1475SOL    HW3 5947   1.499   3.363   2.385  1.3768  1.9939  0.5451
 1475SOL    MW4 5948   1.479   3.375   2.469  0.3384 -0.2453  0.6509
 1476SOL     OW 5949   2.676   2.116   2.117 -0.3129  0.4432  0.2575
 1476SOL    HW2 5950   2.705   2.140   2.029 -2.2435  0.4846 -0.3993
 1476SOL    HW3 5951   2.737   2.049   2.145 -0.3705 -0.4283 -1.6218
 1476SOL    MW4 5952   2.688   2.110   2.109 -0.5751  0.3338 -0.0772
 1477SOL     OW 5953   0.683   2.886   0.495  0.1178  0.2897 -0.3808
 1477SOL    HW2 5954   0.727   2.969   0.476  0.7157 -0.0734 -0.6002
 1477SOL    HW3 5955   0.733   2.820   0.446 -1.0759 -0.0399 -1.1852
 1477SOL    MW4 5956   0.695   2.888   0.486  0.0392  0.1986 -0.5159
 1478SOL     OW 5957   0.195   2.512   3.022 -0.0648 -0.0196  0.0722
 1478SOL    HW2 5958   0.136   2.443   3.054  1.1530 -1.2823 -0.3310
 1478SOL    HW3 5959   0.278   2.466   3.004 -0.0821  1.0175 -2.9553
 1478SOL    MW4 5960   0.199   2.497   3.024  0.0936 -0.0494 -0.3803
 1479SOL     OW 5961   2.040   0.370   4.183 -0.2062 -0.1563  0.0136
 1479SOL    HW2 5962   2.116   0.354   4.238 -1.9092 -2.4753  1.8062
 1479SOL    HW3 5963   2.071   0.349   4.094  1.7621  0.8552  0.4294
 1479SOL    MW4 5964   2.054   0.365   4.178 -0.1712 -0.3288  0.3047
 1480SOL     OW 5965   0.054   1.356   4.589 -0.7276  0.4836 -0.0776
 1480SOL    HW2 5966  -0.002   1.357   4.510 -0.6385  0.9484 -0.1369
 1480SOL    HW3 5967   0.048   1.266   4.622  0.9435 -0.3143 -1.8331
 1480SOL    MW4 5968   0.046   1.344   4.583 -0.4954  0.4396 -0.3166
 1481SOL     OW 5969   1.485   4.515   4.624 -0.0818  0.5482 -0.1183
 1481SOL    HW2 5970   1.407   4.564   4.601 -0.5769 -0.3835 -0.4209
 1481SOL    HW3 5971   1.456   4.424   4.631  1.1871  0.0312 -1.3449
 1481SOL    MW4 5972   1.471   4.509   4.622  0.0204  0.3567 -0.3200
 1482SOL     OW 5973   3.901   0.131   3.629  0.2023 -0.3029  0.1100
 1482SOL    HW2 5974   3.900   0.216   3.674 -2.1432 -0.3608  0.2370
 1482SOL    HW3 5975   3.952   0.146   3.550  2.3954  0.4219  1.6246
 1482SOL    MW4 5976   3.908   0.144   3.625  0.1824 -0.2149  0.3266
 1483SOL     OW 5977   1.883   3.661   4.141  0.2009  0.3895  0.3734
 1483SOL    HW2 5978   1.824   3.601   4.187  2.1847 -0.3787  2.0152
 1483SOL    HW3 5979   1.929   3.605   4.078  0.8678  0.4931  0.7609
 1483SOL    MW4 5980   1.882   3.646   4.139  0.5507  0.3018  0.6409
 1484SOL     OW 5981   3.068   0.971   3.229  0.0262  0.0891  0.2392
 1484SOL    HW2 5982   3.136   0.906   3.249 -0.4253 -0.4796 -0.0756
 1484SOL    HW3 5983   2.986   0.922   3.231 -0.4877  0.9372  1.5056
 1484SOL    MW4 5984   3.066   0.956   3.232 -0.1009  0.1261  0.3643
 1485SOL     OW 5985   1.604   0.974   1.595  0.0989  0.7895  0.1716
 1485SOL    HW2 5986   1.555   1.013   1.523 -0.3594 -0.7484 -0.3633
 1485SOL    HW3 5987   1.687   0.946   1.555 -1.0742 -2.1577 -0.3206
 1485SOL    MW4 5988   1.609   0.975   1.580 -0.1163  0.1978  0.0361
 1486SOL     OW 5989   3.151   2.316   2.333  0.3186 -0.0562  0.4733
 1486SOL    HW2 5990   3.229   2.335   2.385  1.0944  0.0674 -0.7011
 1486SOL    HW3 5991   3.167   2.361   2.250 -1.1079  0.1507  0.3016
 1486SOL    MW4 5992   3.164   2.324   2.329  0.2329 -0.0126  0.2956
 1487SOL     OW 5993   0.340   0.670   0.696  0.3319 -0.3113  0.0363
 1487SOL    HW2 5994   0.315   0.578   0.692  1.2282 -0.5246 -0.9545
 1487SOL    HW3 5995   0.435   0.669   0.683 -0.0530  0.9733 -3.2891
 1487SOL    MW4 5996   0.350   0.658   0.693  0.3994 -0.1699 -0.5332
 1488SOL     OW 5997   0.833   0.968   3.911  0.2127 -0.0562  0.1242
 1488SOL    HW2 5998   0.830   0.914   3.990 -1.6556 -0.5509 -0.2486
 1488SOL    HW3 5999   0.807   0.909   3.841 -0.8913  1.0572 -0.4348
 1488SOL    MW4 6000   0.829   0.953   3.912 -0.1794  0.0255  0.0012
 1489SOL     OW 6001   2.669   0.869   4.147  0.1978  0.1984 -0.0801
 1489SOL    HW2 6002   2.706   0.957   4.153  2.5239 -0.7274 -0.3420
 1489SOL    HW3 6003   2.625   0.868   4.062  0.9141  0.8236 -0.4676
 1489SOL    MW4 6004   2.668   0.881   4.136  0.5991  0.1588 -0.1655
 1490SOL     OW 6005   1.282   3.640   4.215 -0.3814 -0.2198  0.2375
 1490SOL    HW2 6006   1.284   3.628   4.121 -0.6348 -3.8213  0.6271
 1490SOL    HW3 6007   1.216   3.709   4.229  1.4473  2.1436 -2.2747
 1490SOL    MW4 6008   1.273   3.648   4.205 -0.1736 -0.3831 -0.0424
 1491SOL     OW 6009   2.666   3.216   2.330 -1.0722 -0.0619 -0.0800
 1491SOL    HW2 6010   2.708   3.133   2.351 -1.9088 -0.0235  1.8585
 1491SOL    HW3 6011   2.595   3.224   2.393 -1.5354  1.7420 -0.7760
 1491SOL    MW4 6012   2.662   3.206   2.341 -1.2438  0.1814  0.0839
 1492SOL     OW 6013   3.547   2.184   3.020  0.3031 -0.4146 -0.2614
 1492SOL    HW2 6014   3.561   2.094   3.047  0.1531 -0.7876 -1.4194
 1492SOL    HW3 6015   3.460   2.184   2.981 -0.7106  0.7428  1.9091
 1492SOL    MW4 6016   3.537   2.172   3.018  0.1495 -0.3114 -0.1278
 1493SOL     OW 6017   2.036   1.672   4.011 -0.1090  1.0504 -0.1463
 1493SOL    HW2 6018   1.994   1.697   4.092  0.0821  1.9492 -0.3259
 1493SOL    HW3 6019   2.074   1.586   4.029 -2.8045 -0.2146 -0.2756
 1493SOL    MW4 6020   2.036   1.664   4.024 -0.4396  1.0021 -0.1869
 1494SOL     OW 6021   4.268   0.016   3.982  0.7807  0.1512 -0.3146
 1494SOL    HW2 6022   4.219   0.089   3.944  0.4818 -0.6626 -1.4704
 1494SOL    HW3 6023   4.358   0.031   3.953  0.5386 -0.5147 -1.4038
 1494SOL    MW4 6024   4.274   0.028   3.973  0.7091 -0.0440 -0.6106
 1495SOL     OW 6025   0.210   4.611   1.673 -0.2307  0.2385 -0.1053
 1495SOL    HW2 6026   0.237   4.519   1.673 -2.7058 -0.5337 -0.2414
 1495SOL    HW3 6027   0.247   4.647   1.593  2.1215 -0.1960  0.7480
 1495SOL    MW4 6028   0.218   4.603   1.662 -0.2469  0.0792 -0.0105
 1496SOL     OW 6029   2.389   4.495   3.114  0.0990 -0.4008  0.0547
 1496SOL    HW2 6030   2.398   4.400   3.113 -0.2791 -0.4452  0.5319
 1496SOL    HW3 6031   2.476   4.528   3.092  1.3222 -0.8316  3.7778
 1496SOL    MW4 6032   2.402   4.487   3.111  0.2105 -0.4630  0.6087
 1497SOL     OW 6033   2.696   0.772   1.655  0.0992 -0.5978 -0.0411
 1497SOL    HW2 6034   2.683   0.686   1.615  1.5246 -1.1580  0.6886
 1497SOL    HW3 6035   2.767   0.812   1.605 -0.2921 -0.0077 -0.1279
 1497SOL    MW4 6036   2.704   0.766   1.643  0.2358 -0.5938  0.0437
 1498SOL     OW 6037   0.356   1.686   2.507 -0.4213 -0.5204 -0.2090
 1498SOL    HW2 6038   0.282   1.650   2.459  1.2744 -0.5134 -2.9698
 1498SOL    HW3 6039   0.362   1.777   2.477  2.0672 -1.1686 -1.8481
 1498SOL    MW4 6040   0.347   1.693   2.497  0.1308 -0.6050 -0.7896
 1499SOL     OW 6041   1.664   0.565   1.301  0.6810 -0.5574 -0.7720
 1499SOL    HW2 6042   1.644   0.562   1.394 -0.5555 -1.0701 -1.0517
 1499SOL    HW3 6043   1.630   0.649   1.271  1.7029 -0.0808 -0.6325
 1499SOL    MW4 6044   1.657   0.575   1.309  0.6527 -0.5622 -0.7906
 1500SOL     OW 6045   1.446   0.109   3.664 -0.1382  0.1069  0.4016
 1500SOL    HW2 6046   1.380   0.173   3.690  0.1207  0.2214  0.7744
 1500SOL    HW3 6047   1.415   0.026   3.700  0.0354  0.2011  0.7683
 1500SOL    MW4 6048   1.433   0.107   3.672 -0.0811  0.1344  0.4992
 1501SOL     OW 6049   2.786   1.487   1.053 -0.0204  0.0124 -0.1818
 1501SOL    HW2 6050   2.734   1.539   1.114 -0.8579 -1.1896  0.1472
 1501SOL    HW3 6051   2.850   1.442   1.108 -0.5211 -0.7683 -0.2308
 1501SOL    MW4 6052   2.788   1.488   1.068 -0.1972 -0.2493 -0.1448
 1502SOL     OW 6053   3.120   3.246   1.318  0.2329  0.3456 -0.2062
 1502SOL    HW2 6054   3.114   3.309   1.246  0.9147  0.7382  0.0715
 1502SOL    HW3 6055   3.032   3.243   1.356 -0.6573 -1.3151 -2.2575
 1502SOL    MW4 6056   3.108   3.254   1.314  0.2053  0.1781 -0.4402
 1503SOL     OW 6057   3.793   2.878   2.288  0.6908 -0.4750  0.1630
 1503SOL    HW2 6058   3.864   2.942   2.292 -0.4159  0.7420  0.8750
 1503SOL    HW3 6059   3.750   2.895   2.204  0.1386  0.0131  0.5383
 1503SOL    MW4 6060   3.797   2.889   2.277  0.4718 -0.2496  0.3066
 1504SOL     OW 6061   1.513   2.713   3.189 -0.0561  0.2003  0.1627
 1504SOL    HW2 6062   1.504   2.808   3.198 -0.7148  0.1386  0.1902
 1504SOL    HW3 6063   1.529   2.682   3.278 -0.4476  0.2254  0.2434
 1504SOL    MW4 6064   1.514   2.721   3.202 -0.1948  0.1950  0.1771
 1505SOL     OW 6065   1.885   4.022   3.923  0.3776 -0.0579  0.1729
 1505SOL    HW2 6066   1.896   3.995   4.014  1.2072 -2.4864 -0.5898
 1505SOL    HW3 6067   1.971   4.055   3.897  0.6722 -1.1179 -0.2441
 1505SOL    MW4 6068   1.898   4.023   3.932  0.5260 -0.5183  0.0172
 1506SOL     OW 6069   2.537   3.243   0.740  0.1657 -0.2850  0.8086
 1506SOL    HW2 6070   2.588   3.289   0.673  0.0660 -0.4271  0.6331
 1506SOL    HW3 6071   2.521   3.157   0.702 -1.0760  0.1038  0.4294
 1506SOL    MW4 6072   2.541   3.238   0.726 -0.0112 -0.2525  0.7354
 1507SOL     OW 6073   1.922   2.043   1.188  0.4726  0.2135 -0.1269
 1507SOL    HW2 6074   1.915   2.061   1.094  1.3765  0.8009 -0.0870
 1507SOL    HW3 6075   1.997   2.094   1.217 -0.1491  0.4956  1.0396
 1507SOL    MW4 6076   1.931   2.052   1.179  0.5100  0.3281  0.0322
 1508SOL     OW 6077   0.857   3.065   4.611 -0.4213 -0.0300  0.0261
 1508SOL    HW2 6078   0.776   3.024   4.641 -1.1074  1.2698 -0.0093
 1508SOL    HW3 6079   0.887   3.117   4.686 -0.6874  1.0606 -0.6047
 1508SOL    MW4 6080   0.850   3.067   4.625 -0.5469  0.2851 -0.0620
 1509SOL     OW 6081   1.148   3.096   1.136  0.0000  0.0000  0.1079
 1509SOL    HW2 6082   1.122   3.007   1.159  0.0000  0.0000  0.1002
 1509SOL    HW3 6083   1.136   3.101   1.041  0.0000  0.0000  0.1079
 1509SOL    MW4 6084   1.143   3.085   1.126  0.0000  0.0000  0.1069
 1510SOL     OW 6085   0.919   3.208   1.234  0.0000  0.0000  0.0023
 1510SOL    HW2 6086   0.903   3.287   1.182  0.0000  0.0000  0.0165
 1510SOL    HW3 6087   1.006   3.179   1.205  0.0000  0.0000 -0.0108
 1510SOL    MW4 6088   0.928   3.215   1.224  0.0000  0.0000  0.0024
 1511SOL     OW 6089   0.887   3.462   1.099  0.0000  0.0000 -0.1350
 1511SOL    HW2 6090   0.961   3.508   1.140  0.0000  0.0000 -0.0993
 1511SOL    HW3 6091   0.810   3.512   1.128  0.0000  0.0000 -0.1669
 1511SOL    MW4 6092   0.887   3.475   1.108  0.0000  0.0000 -0.1343
 1512SOL     OW 6093   1.102   3.599   1.177  0.0000  0.0000 -0.3435
 1512SOL    HW2 6094   1.101   3.626   1.269  0.0000  0.0000 -0.3436
 1512SOL    HW3 6095   1.100   3.681   1.128  0.0000  0.0000 -0.3437
 1512SOL    MW4 6096   1.102   3.613   1.183  0.0000  0.0000 -0.3436
 1513SOL     OW 6097   1.098   3.851   1.060  0.0000  0.0000  0.1588
 1513SOL    HW2 6098   1.178   3.889   1.097  0.0000  0.0000  0.1517
 1513SOL    HW3 6099   1.110   3.859   0.965  0.0000  0.0000  0.1576
 1513SOL    MW4 6100   1.110   3.857   1.052  0.0000  0.0000  0.1576
 1514SOL     OW 6101   0.893   4.008   1.218  0.0000  0.0000 -0.0246
 1514SOL    HW2 6102   0.957   3.963   1.163  0.0000  0.0000 -0.0138
 1514SOL    HW3 6103   0.809   3.969   1.194  0.0000  0.0000 -0.0503
 1514SOL    MW4 6104   0.890   3.997   1.208  0.0000  0.0000 -0.0266
 1515SOL     OW 6105   0.888   4.266   1.127  0.0000  0.0000  0.1055
 1515SOL    HW2 6106   0.892   4.173   1.152  0.0000  0.0000  0.1018
 1515SOL    HW3 6107   0.884   4.265   1.032  0.0000  0.0000  0.1056
 1515SOL    MW4 6108   0.888   4.254   1.118  0.0000  0.0000  0.1051
 1516SOL     OW 6109   1.144   4.351   1.199  0.0000  0.0000 -0.5029
 1516SOL    HW2 6110   1.137   4.378   1.291  0.0000  0.0000 -0.5023
 1516SOL    HW3 6111   1.055   4.327   1.175  0.0000  0.0000 -0.4956
 1516SOL    MW4 6112   1.131   4.351   1.208  0.0000  0.0000 -0.5018
 1517SOL     OW 6113   1.593   4.643   2.976  0.0000  0.0000  0.1121
 1517SOL    HW2 6114   1.588   4.549   2.992  0.0000  0.0000  0.1095
 1517SOL    HW3 6115   1.581   4.652   2.881  0.0000  0.0000  0.1121
 1517SOL    MW4 6116   1.591   4.632   2.965  0.0000  0.0000  0.1116
 1518SOL     OW 6117   4.019   3.043   2.367 -0.1623 -0.1544  0.0051
 1518SOL    HW2 6118   4.054   3.129   2.391 -0.3322  0.3251 -1.4371
 1518SOL    HW3 6119   4.067   3.019   2.287 -0.6630 -1.0571 -0.0316
 1518SOL    MW4 6120   4.030   3.051   2.359 -0.2508 -0.2103 -0.1903
 1519SOL     OW 6121   0.185   4.095   2.604  0.1987  0.0350  0.3289
 1519SOL    HW2 6122   0.147   4.031   2.545  1.2590  0.0294 -0.3535
 1519SOL    HW3 6123   0.160   4.065   2.691  2.2704 -2.3838  0.1558
 1519SOL    MW4 6124   0.177   4.083   2.608  0.6119 -0.2847  0.2162
 1520SOL     OW 6125   4.332   4.471   0.838  0.3963 -0.2872  0.0734
 1520SOL    HW2 6126   4.360   4.479   0.929  1.5575 -0.6291 -0.2521
 1520SOL    HW3 6127   4.391   4.407   0.800  0.2646  0.2604 -1.0668
 1520SOL    MW4 6128   4.343   4.464   0.845  0.5312 -0.2599 -0.1200
 1521SOL     OW 6129   3.566   3.119   4.294 -0.2151  0.5972 -0.2856
 1521SOL    HW2 6130   3.658   3.109   4.269  0.0684 -1.0459  1.3230
 1521SOL    HW3 6131   3.544   3.208   4.268  1.7334  0.9065 -0.9822
 1521SOL    MW4 6132   3.575   3.129   4.287  0.0794  0.4213 -0.1650
 1522SOL     OW 6133   2.655   0.504   1.610 -0.6223  0.3298  0.3435
 1522SOL    HW2 6134   2.687   0.488   1.699 -0.9716 -2.4231  0.0236
 1522SOL    HW3 6135   2.575   0.453   1.604  0.1860 -0.7182 -2.0165
 1522SOL    MW4 6136   2.649   0.495   1.621 -0.5617 -0.1716 -0.0101
 1523SOL     OW 6137   2.770   4.058   4.157 -0.6536 -0.2124 -0.2854
 1523SOL    HW2 6138   2.700   4.100   4.208  0.1668 -0.1795  0.8302
 1523SOL    HW3 6139   2.850   4.079   4.205  0.2531  0.6436 -2.1323
 1523SOL    MW4 6140   2.771   4.066   4.170 -0.4256 -0.0954 -0.3815
 1524SOL     OW 6141   3.431   2.778   0.841  0.0225 -0.0781 -0.0534
 1524SOL    HW2 6142   3.439   2.693   0.797  1.2811  0.0040  0.0134
 1524SOL    HW3 6143   3.423   2.841   0.769  0.2436 -0.1311 -0.1242
 1524SOL    MW4 6144   3.431   2.775   0.826  0.2177 -0.0746 -0.0539
 1525SOL     OW 6145   0.783   1.005   1.487  0.3837 -0.3437 -0.2130
 1525SOL    HW2 6146   0.842   0.931   1.497 -0.1363 -0.6597  0.5807
 1525SOL    HW3 6147   0.720   0.996   1.559 -1.5039 -0.8129 -1.8890
 1525SOL    MW4 6148   0.782   0.994   1.498  0.0660 -0.4473 -0.3294
 1526SOL     OW 6149   4.055   1.760   2.509  0.0125  0.0479 -0.0944
 1526SOL    HW2 6150   3.975   1.711   2.526 -0.0529  0.3259  0.4267
 1526SOL    HW3 6151   4.119   1.723   2.569 -0.1037  0.7529  0.4821
 1526SOL    MW4 6152   4.053   1.749   2.520 -0.0110  0.1776  0.0501
 1527SOL     OW 6153   3.395   0.496   3.228 -0.0879 -0.2957 -0.3322
 1527SOL    HW2 6154   3.433   0.453   3.304 -0.0416  0.0504 -0.1574
 1527SOL    HW3 6155   3.362   0.425   3.174  1.3316 -0.6184 -0.7704
 1527SOL    MW4 6156   3.396   0.481   3.231  0.1059 -0.2927 -0.3669
 1528SOL     OW 6157   1.632   2.278   0.865 -0.5438 -0.3543 -0.5255
 1528SOL    HW2 6158   1.655   2.350   0.924 -1.4413  0.0489 -0.6621
 1528SOL    HW3 6159   1.554   2.239   0.903 -0.3737 -0.9190 -0.7477
 1528SOL    MW4 6160   1.625   2.282   0.878 -0.6397 -0.3757 -0.5729
 1529SOL     OW 6161   1.714   2.656   3.000 -0.2054 -0.3118 -0.1603
 1529SOL    HW2 6162   1.720   2.728   2.937  0.9247  1.7004  2.1557
 1529SOL    HW3 6163   1.657   2.690   3.069 -0.4626 -2.0411  0.4952
 1529SOL    MW4 6164   1.707   2.670   3.001 -0.0904 -0.2744  0.2317
 1530SOL     OW 6165   2.330   2.514   2.630  0.3380  0.1950 -0.5532
 1530SOL    HW2 6166   2.277   2.582   2.671  0.3236 -0.9945  1.4371
 1530SOL    HW3 6167   2.275   2.482   2.558 -0.3534  1.1153 -0.4443
 1530SOL    MW4 6168   2.315   2.519   2.626  0.2451  0.1595 -0.2763
 1531SOL     OW 6169   3.320   2.097   4.520  0.3649  0.6704  0.2223
 1531SOL    HW2 6170   3.385   2.163   4.543  2.2057 -0.5325 -1.3124
 1531SOL    HW3 6171   3.239   2.146   4.505  1.5364  2.4927 -0.2808
 1531SOL    MW4 6172   3.318   2.112   4.521  0.7627  0.7522 -0.0463
 1532SOL     OW 6173   0.164   2.460   0.610  0.1543  0.1365 -0.1741
 1532SOL    HW2 6174   0.200   2.548   0.608 -2.0927  1.0921 -0.7959
 1532SOL    HW3 6175   0.071   2.473   0.633 -0.2586 -2.0403 -0.4827
 1532SOL    MW4 6176   0.156   2.473   0.613 -0.1967 -0.0246 -0.2969
 1533SOL     OW 6177   1.363   3.118   2.990 -0.0097 -0.3463 -0.4754
 1533SOL    HW2 6178   1.410   3.130   2.907 -0.4027 -0.5314 -0.7313
 1533SOL    HW3 6179   1.306   3.195   2.996  1.8836  0.9816  0.9078
 1533SOL    MW4 6180   1.361   3.130   2.980  0.1882 -0.1953 -0.3264
 1534SOL     OW 6181   2.685   4.306   0.522 -0.2741 -0.2817  0.1638
 1534SOL    HW2 6182   2.687   4.236   0.588  1.3504  0.0706  0.5274
 1534SOL    HW3 6183   2.693   4.261   0.438 -0.7236 -0.6332  0.3117
 1534SOL    MW4 6184   2.686   4.291   0.520 -0.1194 -0.2818  0.2313
 1535SOL     OW 6185   0.176   3.624   3.824  0.3128  0.0762  0.0396
 1535SOL    HW2 6186   0.140   3.578   3.748  1.4323 -0.9541  0.1164
 1535SOL    HW3 6187   0.209   3.706   3.788  0.1531 -0.0724 -0.4588
 1535SOL    MW4 6188   0.176   3.629   3.809  0.4394 -0.0792 -0.0160
 1536SOL     OW 6189   0.615   2.544   3.983 -0.6596  0.1117 -0.4789
 1536SOL    HW2 6190   0.546   2.608   4.001 -1.4376 -0.4598 -1.3864
 1536SOL    HW3 6191   0.604   2.477   4.051 -0.9372  0.0785 -0.5530
 1536SOL    MW4 6192   0.604   2.544   3.994 -0.7988  0.0317 -0.6087
 1537SOL     OW 6193   1.968   2.409   1.120 -0.3979 -0.4634  0.0153
 1537SOL    HW2 6194   2.021   2.470   1.171  0.4113 -0.3247 -0.9697
 1537SOL    HW3 6195   2.030   2.369   1.059 -1.1604 -1.3465 -0.2020
 1537SOL    MW4 6196   1.983   2.412   1.119 -0.3918 -0.5617 -0.1434
 1538SOL     OW 6197   2.087   4.524   3.794  0.3318  0.1368 -0.6125
 1538SOL    HW2 6198   2.178   4.510   3.770 -0.0211 -0.2329 -1.7863
 1538SOL    HW3 6199   2.066   4.451   3.852  1.3089  1.2598  1.2461
 1538SOL    MW4 6200   2.096   4.513   3.799  0.4141  0.2365 -0.5224
 1539SOL     OW 6201   2.709   1.964   1.149 -0.1166 -0.1851 -0.1279
 1539SOL    HW2 6202   2.771   1.942   1.219  0.3973 -0.5008 -0.6723
 1539SOL    HW3 6203   2.722   2.058   1.135 -1.8423  0.3706  1.7445
 1539SOL    MW4 6204   2.719   1.974   1.157 -0.2763 -0.1534  0.0473
 1540SOL     OW 6205   1.746   0.840   4.204  0.2124 -0.4245  0.0653
 1540SOL    HW2 6206   1.774   0.750   4.222  0.5260 -0.0629  1.4248
 1540SOL    HW3 6207   1.754   0.848   4.109  0.2702 -1.8028 -0.0649
 1540SOL    MW4 6208   1.751   0.829   4.194  0.2613 -0.5586  0.2275
 1541SOL     OW 6209   0.645   4.392   2.762  0.5621 -0.0438 -0.4080
 1541SOL    HW2 6210   0.624   4.448   2.837  0.9152 -0.6071  0.1231
 1541SOL    HW3 6211   0.561   4.374   2.721  0.1716 -1.0734  0.8274
 1541SOL    MW4 6212   0.631   4.397   2.767  0.5571 -0.2537 -0.1750
 1542SOL     OW 6213   3.050   3.046   2.581 -0.1977  0.2397 -0.0017
 1542SOL    HW2 6214   2.985   3.070   2.647 -0.5186  1.7328 -0.8585
 1542SOL    HW3 6215   3.012   3.073   2.498  0.7377 -0.5194 -0.6869
 1542SOL    MW4 6216   3.036   3.053   2.579 -0.1168  0.3364 -0.2053
 1543SOL     OW 6217   3.340   1.798   2.936 -0.5138  0.3289  0.0342
 1543SOL    HW2 6218   3.301   1.860   2.997 -2.9241 -1.4577  0.3816
 1543SOL    HW3 6219   3.368   1.725   2.990  1.0507  0.5006 -0.5313
 1543SOL    MW4 6220   3.338   1.797   2.951 -0.6254  0.1159  0.0055
 1544SOL     OW 6221   3.671   1.865   4.538 -0.3121 -0.0725 -0.6265
 1544SOL    HW2 6222   3.714   1.779   4.544 -0.6863 -0.2005  0.3431
 1544SOL    HW3 6223   3.591   1.848   4.488 -1.0173 -0.5426  0.6504
 1544SOL    MW4 6224   3.666   1.851   4.532 -0.4544 -0.1514 -0.3304
 1545SOL     OW 6225   1.641   4.177   4.408  0.0946  0.3481 -0.2789
 1545SOL    HW2 6226   1.546   4.184   4.413  0.2384  2.1335  0.3896
 1545SOL    HW3 6227   1.665   4.232   4.334  0.5481 -0.8765 -1.0604
 1545SOL    MW4 6228   1.632   4.185   4.399  0.1734  0.4220 -0.2937
 1546SOL     OW 6229   2.388   3.564   3.290  0.1402  0.1203 -0.2112
 1546SOL    HW2 6230   2.301   3.579   3.327  0.0199  3.5909 -1.6789
 1546SOL    HW3 6231   2.373   3.557   3.195  1.4829  1.1426 -0.5139
 1546SOL    MW4 6232   2.375   3.565   3.282  0.3014  0.7131 -0.4449
 1547SOL     OW 6233   1.439   3.629   3.306  0.1651 -0.2881 -0.1900
 1547SOL    HW2 6234   1.462   3.662   3.392 -0.0590 -0.2177 -0.1555
 1547SOL    HW3 6235   1.343   3.626   3.306  0.1190  0.9364 -0.8903
 1547SOL    MW4 6236   1.429   3.633   3.317  0.1295 -0.1173 -0.2780
 1548SOL     OW 6237   0.553   1.808   4.615  0.4071  0.5884  0.1775
 1548SOL    HW2 6238   0.550   1.838   4.524  0.6381 -0.4105 -0.1614
 1548SOL    HW3 6239   0.615   1.867   4.658  0.0071  1.3029 -0.2215
 1548SOL    MW4 6240   0.560   1.820   4.609  0.3848  0.5509  0.0801
 1549SOL     OW 6241   3.475   2.858   2.271 -0.8916  0.5540 -0.1538
 1549SOL    HW2 6242   3.516   2.902   2.196  0.2082  0.1378  0.2064
 1549SOL    HW3 6243   3.538   2.867   2.342 -1.4733  0.0090  0.4359
 1549SOL    MW4 6244   3.488   2.865   2.270 -0.8233  0.4270 -0.0284
 1550SOL     OW 6245   0.740   1.022   2.733  0.5739  0.6361  0.2689
 1550SOL    HW2 6246   0.730   1.075   2.653  1.1141 -0.8646 -0.8217
 1550SOL    HW3 6247   0.834   1.010   2.742  0.3564 -3.2945 -1.6752
 1550SOL    MW4 6248   0.751   1.028   2.723  0.6165 -0.0806 -0.1314
 1551SOL     OW 6249   3.113   3.557   0.567 -0.0999 -0.0112  0.2986
 1551SOL    HW2 6250   3.153   3.635   0.529 -0.8196  0.4725  0.5134
 1551SOL    HW3 6251   3.186   3.499   0.586  0.3217  0.0580 -1.1090
 1551SOL    MW4 6252   3.128   3.560   0.565 -0.1392  0.0618  0.1413
 1552SOL     OW 6253   4.428   2.064   3.915  0.3804 -0.2967  0.6196
 1552SOL    HW2 6254   4.399   2.042   4.004  0.7744  1.4388  1.2042
 1552SOL    HW3 6255   4.357   2.118   3.880 -0.1582 -1.6658 -0.4459
 1552SOL    MW4 6256   4.415   2.068   3.922  0.3610 -0.2484  0.5560
 1553SOL     OW 6257   3.210   3.380   3.331 -0.1858  0.1362  0.2034
 1553SOL    HW2 6258   3.258   3.458   3.359 -0.0582  0.1636 -0.0895
 1553SOL    HW3 6259   3.276   3.324   3.290 -0.0541 -0.6666  1.5094
 1553SOL    MW4 6260   3.225   3.383   3.329 -0.1516  0.0341  0.3371
 1554SOL     OW 6261   2.951   4.435   3.642  0.1283  0.2536  0.1162
 1554SOL    HW2 6262   2.900   4.362   3.607 -0.2580  1.0200 -0.9567
 1554SOL    HW3 6263   2.976   4.486   3.565  2.0940  0.1739  0.6813
 1554SOL    MW4 6264   2.947   4.432   3.627  0.3364  0.3438  0.0491
 1555SOL     OW 6265   4.384   3.786   1.279 -0.7157  0.0602  0.6373
 1555SOL    HW2 6266   4.298   3.809   1.243  0.2440  2.6003 -0.0997
 1555SOL    HW3 6267   4.431   3.746   1.206 -0.5018  0.6582  0.4513
 1555SOL    MW4 6268   4.379   3.784   1.265 -0.5612  0.4742  0.5156
 1556SOL     OW 6269   4.315   3.306   3.594  0.1764  0.3900  0.0353
 1556SOL    HW2 6270   4.378   3.240   3.567 -0.2096 -0.1412  0.4338
 1556SOL    HW3 6271   4.367   3.386   3.606  0.6565  0.1277 -0.3208
 1556SOL    MW4 6272   4.330   3.308   3.592  0.1888  0.2854  0.0410
 1557SOL     OW 6273   0.677   4.113   3.449  0.0220  0.1586 -0.2190
 1557SOL    HW2 6274   0.735   4.075   3.383 -1.0957  0.7395 -1.5684
 1557SOL    HW3 6275   0.589   4.103   3.411 -0.5426  1.3564  0.7666
 1557SOL    MW4 6276   0.673   4.106   3.435 -0.2000  0.3934 -0.2668
 1558SOL     OW 6277   0.135   2.869   2.005  0.5777  1.2085 -0.2101
 1558SOL    HW2 6278   0.050   2.893   2.044  1.1501 -0.9380  2.4964
 1558SOL    HW3 6279   0.113   2.806   1.937  0.0464 -0.0742  1.1259
 1558SOL    MW4 6280   0.121   2.864   2.001  0.5831  0.7563  0.3233
 1559SOL     OW 6281   0.458   3.637   0.880  0.1470 -0.3509  0.1170
 1559SOL    HW2 6282   0.531   3.591   0.837 -0.4676 -2.2100  1.0235
 1559SOL    HW3 6283   0.396   3.654   0.809  0.2857 -1.0981 -0.1872
 1559SOL    MW4 6284   0.460   3.633   0.865  0.0842 -0.6948  0.1965
 1560SOL     OW 6285   0.190   1.890   3.286 -0.2515  0.5330 -0.2166
 1560SOL    HW2 6286   0.285   1.905   3.279 -0.4589  1.1469 -1.8400
 1560SOL    HW3 6287   0.180   1.796   3.274  0.1910  0.3935  0.4658
 1560SOL    MW4 6288   0.201   1.880   3.284 -0.2205  0.5956 -0.3407
 1561SOL     OW 6289   2.316   1.755   3.224 -0.0963 -0.1493  0.0805
 1561SOL    HW2 6290   2.395   1.741   3.171  0.2963  0.9324  0.3738
 1561SOL    HW3 6291   2.341   1.729   3.312  0.2139  1.0796  0.3542
 1561SOL    MW4 6292   2.330   1.749   3.228 -0.0033  0.1557  0.1552
 1562SOL     OW 6293   1.977   0.419   2.939 -0.0547 -0.3056 -0.0110
 1562SOL    HW2 6294   1.919   0.400   2.864  0.8962 -0.7372 -0.6407
 1562SOL    HW3 6295   2.005   0.333   2.970 -0.0979 -0.1087  0.5743
 1562SOL    MW4 6296   1.973   0.405   2.933  0.0650 -0.3366 -0.0169
 1563SOL     OW 6297   3.068   4.598   2.394 -0.8269 -0.2583 -0.3808
 1563SOL    HW2 6298   3.015   4.675   2.371 -0.3530  0.0875 -0.3013
 1563SOL    HW3 6299   3.028   4.527   2.343 -3.1298 -0.5843  1.8000
 1563SOL    MW4 6300   3.055   4.599   2.384 -1.0681 -0.2556 -0.0825
 1564SOL     OW 6301   0.081   0.640   2.133 -1.0394 -0.2238  0.5386
 1564SOL    HW2 6302   0.007   0.641   2.073 -1.6455  0.7710  1.2891
 1564SOL    HW3 6303   0.117   0.728   2.129 -0.7895 -0.2863  1.2718
 1564SOL    MW4 6304   0.076   0.651   2.125 -1.0864 -0.1007  0.7343
 1565SOL     OW 6305   3.599   3.990   2.278 -0.2796  0.1359 -0.3214
 1565SOL    HW2 6306   3.583   3.896   2.278 -1.7872  0.3698 -0.3427
 1565SOL    HW3 6307   3.617   4.011   2.186 -2.2068  0.1952 -0.7223
 1565SOL    MW4 6308   3.599   3.980   2.265 -0.7331  0.1748 -0.3769
 1566SOL     OW 6309   0.986   0.417   4.643 -0.1628 -0.6904 -0.6697
 1566SOL    HW2 6310   1.077   0.444   4.651 -0.0974 -1.7742  3.0088
 1566SOL    HW3 6311   0.938   0.497   4.624  1.3775  0.1239 -1.1562
 1566SOL    MW4 6312   0.992   0.431   4.641  0.0491 -0.7259 -0.2484
 1567SOL     OW 6313   4.223   3.287   1.149  0.1405  0.9529  0.0432
 1567SOL    HW2 6314   4.294   3.331   1.197 -0.4812 -1.5402  3.4235
 1567SOL    HW3 6315   4.257   3.199   1.131 -1.6777  0.0738  0.7711
 1567SOL    MW4 6316   4.237   3.281   1.153 -0.1817  0.5081  0.5852
 1568SOL     OW 6317   2.347   0.040   2.029 -0.2661 -0.6177 -0.2106
 1568SOL    HW2 6318   2.391   0.077   1.953  0.1710 -1.3830 -0.3377
 1568SOL    HW3 6319   2.311   0.115   2.076  0.6547 -0.0408 -0.4254
 1568SOL    MW4 6320   2.348   0.055   2.025 -0.0868 -0.6426 -0.2556
 1569SOL     OW 6321   2.991   3.217   1.742 -0.4247  0.1319  0.2033
 1569SOL    HW2 6322   2.904   3.207   1.704  0.0995 -0.5599 -0.8348
 1569SOL    HW3 6323   3.047   3.159   1.690  0.9808  1.8510 -0.2355
 1569SOL    MW4 6324   2.987   3.208   1.730 -0.1700  0.2677  0.0085
 1570SOL     OW 6325   4.348   2.416   3.339 -0.1971  0.0602  0.0262
 1570SOL    HW2 6326   4.373   2.395   3.249  0.7588  0.4370  0.1988
 1570SOL    HW3 6327   4.265   2.463   3.330 -0.0430  0.2013 -0.6705
 1570SOL    MW4 6328   4.340   2.420   3.326 -0.0505  0.1285 -0.0427
 1571SOL     OW 6329   3.955   1.348   3.416 -0.4494  0.6611  0.0278
 1571SOL    HW2 6330   3.883   1.286   3.411  0.5956 -0.6407  0.7342
 1571SOL    HW3 6331   3.940   1.408   3.343 -1.0554 -0.9031 -1.1630
 1571SOL    MW4 6332   3.944   1.348   3.406 -0.3915  0.2830 -0.0362
 1572SOL     OW 6333   0.974   1.236   0.879 -0.0294  0.0783  0.2971
 1572SOL    HW2 6334   1.059   1.280   0.872  0.4348 -0.7934  0.3143
 1572SOL    HW3 6335   0.914   1.304   0.908  0.5404  0.8473 -0.2954
 1572SOL    MW4 6336   0.977   1.251   0.882  0.1070  0.0647  0.2212
 1573SOL     OW 6337   0.888   0.573   0.698 -0.3753  0.1791 -0.1202
 1573SOL    HW2 6338   0.959   0.528   0.743 -1.0893  0.3354  1.1958
 1573SOL    HW3 6339   0.842   0.504   0.650 -0.4620 -0.2251  0.5400
 1573SOL    MW4 6340   0.891   0.558   0.698 -0.4809  0.1463  0.1405
 1574SOL     OW 6341   2.009   1.203   2.510  0.3615  0.2957 -0.5868
 1574SOL    HW2 6342   1.924   1.159   2.500  0.6876 -0.2285 -1.0530
 1574SOL    HW3 6343   2.013   1.225   2.603 -0.5868  0.9413 -0.6856
 1574SOL    MW4 6344   1.998   1.200   2.521  0.2793  0.3117 -0.6614
 1575SOL     OW 6345   2.274   2.124   0.772 -0.1261 -0.6005 -0.8324
 1575SOL    HW2 6346   2.238   2.196   0.823  0.7220 -0.3577 -0.5659
 1575SOL    HW3 6347   2.313   2.166   0.695 -1.2601 -0.9504 -1.6139
 1575SOL    MW4 6348   2.275   2.139   0.769 -0.1638 -0.6144 -0.9003
 1576SOL     OW 6349   2.931   4.205   3.205  0.5812 -0.2539 -0.1565
 1576SOL    HW2 6350   2.915   4.111   3.215 -0.3845  0.0186  1.0385
 1576SOL    HW3 6351   2.994   4.211   3.134 -0.5138 -1.7199 -1.2981
 1576SOL    MW4 6352   2.937   4.193   3.197  0.3095 -0.4110 -0.1490
 1577SOL     OW 6353   3.337   2.890   3.871 -0.0102 -0.6699  0.5523
 1577SOL    HW2 6354   3.375   2.813   3.913  2.2412 -0.0287 -0.2776
 1577SOL    HW3 6355   3.283   2.931   3.940 -0.2331 -2.2838  1.3463
 1577SOL    MW4 6356   3.335   2.886   3.886  0.2575 -0.7982  0.5476
 1578SOL     OW 6357   4.376   3.483   0.643 -0.2777 -0.5663 -0.1916
 1578SOL    HW2 6358   4.323   3.403   0.640 -1.0407 -0.0427 -0.5950
 1578SOL    HW3 6359   4.370   3.512   0.734 -2.2589  0.5414 -0.6485
 1578SOL    MW4 6360   4.368   3.476   0.655 -0.6394 -0.3512 -0.3051
 1579SOL     OW 6361   4.295   2.783   2.949 -0.0487 -0.2021  0.0106
 1579SOL    HW2 6362   4.340   2.820   3.025  0.8259 -0.4830 -0.3624
 1579SOL    HW3 6363   4.271   2.695   2.976 -0.7261  0.0788  0.3438
 1579SOL    MW4 6364   4.298   2.776   2.963 -0.0224 -0.2019  0.0057
 1580SOL     OW 6365   3.618   4.317   2.819  0.2667 -0.4780  0.0597
 1580SOL    HW2 6366   3.562   4.262   2.874 -0.0388 -0.7337 -0.4935
 1580SOL    HW3 6367   3.572   4.401   2.814 -0.6040 -1.0172 -1.2403
 1580SOL    MW4 6368   3.605   4.321   2.825  0.1113 -0.5822 -0.1845
 1581SOL     OW 6369   1.287   0.801   3.969 -0.2214  0.0625 -0.6719
 1581SOL    HW2 6370   1.347   0.780   3.898 -0.1503  3.5501 -1.7025
 1581SOL    HW3 6371   1.224   0.862   3.931 -0.5030  1.5723  2.0868
 1581SOL    MW4 6372   1.286   0.806   3.955 -0.2491  0.7218 -0.4439
 1582SOL     OW 6373   4.421   4.024   1.416 -0.1670  0.4014  0.1235
 1582SOL    HW2 6374   4.401   3.939   1.378  2.1756 -0.6175  1.0322
 1582SOL    HW3 6375   4.351   4.039   1.479 -0.7782 -0.7156 -0.2768
 1582SOL    MW4 6376   4.409   4.015   1.420  0.0615  0.1197  0.1905
 1583SOL     OW 6377   0.539   4.469   4.065 -0.1241 -0.2017  0.0481
 1583SOL    HW2 6378   0.537   4.535   4.134 -0.4940  0.0181 -0.1717
 1583SOL    HW3 6379   0.553   4.386   4.112  2.7827  0.2898  0.1054
 1583SOL    MW4 6380   0.541   4.466   4.080  0.2106 -0.1082  0.0267
 1584SOL     OW 6381   1.800   4.348   1.412  0.2454 -0.5449  0.3921
 1584SOL    HW2 6382   1.814   4.410   1.484  0.7265  1.3549 -1.2822
 1584SOL    HW3 6383   1.880   4.295   1.409  0.9687  0.5435  0.1596
 1584SOL    MW4 6384   1.813   4.349   1.421  0.4042 -0.1507  0.1404
 1585SOL     OW 6385   3.253   2.894   1.024 -0.2336 -0.2659  0.1351
 1585SOL    HW2 6386   3.300   2.851   0.953  0.7881 -1.1629  1.3380
 1585SOL    HW3 6387   3.235   2.982   0.991  0.5070 -0.5764 -1.1155
 1585SOL    MW4 6388   3.257   2.900   1.011 -0.0012 -0.4251  0.1287
 1586SOL     OW 6389   2.575   4.251   1.777  0.4354 -0.1662  0.2529
 1586SOL    HW2 6390   2.507   4.305   1.736 -1.0479 -2.3455 -0.2426
 1586SOL    HW3 6391   2.649   4.311   1.788 -1.2862  2.0688  0.1182
 1586SOL    MW4 6392   2.576   4.266   1.773  0.0124 -0.1588  0.1698
 1587SOL     OW 6393   1.846   2.867   3.297  0.1773  0.1612  0.3996
 1587SOL    HW2 6394   1.934   2.830   3.284 -0.0767 -0.4871  0.5131
 1587SOL    HW3 6395   1.816   2.826   3.378  0.1280  1.0645  0.8328
 1587SOL    MW4 6396   1.854   2.856   3.306  0.1371  0.1948  0.4718
 1588SOL     OW 6397   3.172   3.772   0.946 -0.3487 -0.5689  0.1767
 1588SOL    HW2 6398   3.222   3.697   0.914 -0.9205 -0.8926  0.0270
 1588SOL    HW3 6399   3.235   3.844   0.948  0.1204 -0.9725 -0.0050
 1588SOL    MW4 6400   3.187   3.772   0.942 -0.3624 -0.6647  0.1330
 1589SOL     OW 6401   0.449   1.973   3.005  0.3866  0.3010  0.3827
 1589SOL    HW2 6402   0.435   1.999   3.097  0.6490 -2.3285  1.1893
 1589SOL    HW3 6403   0.366   1.936   2.977  0.6410  0.0858 -0.0901
 1589SOL    MW4 6404   0.436   1.972   3.014  0.4547 -0.0744  0.4265
 1590SOL     OW 6405   0.018   4.063   1.957  0.4803  0.3480  0.3801
 1590SOL    HW2 6406   0.003   4.055   2.051 -0.7431 -1.6183  0.0478
 1590SOL    HW3 6407   0.102   4.021   1.942 -0.1722 -0.9654  0.3584
 1590SOL    MW4 6408   0.027   4.057   1.967  0.2328 -0.0854  0.3333
 1591SOL     OW 6409   0.595   0.031   0.577  0.0026 -0.4011 -0.5642
 1591SOL    HW2 6410   0.626  -0.045   0.626  0.6263 -1.3371 -2.4007
 1591SOL    HW3 6411   0.510   0.052   0.617 -0.7846 -2.8458 -0.9138
 1591SOL    MW4 6412   0.588   0.024   0.589 -0.0190 -0.8472 -0.8527
 1592SOL     OW 6413   4.340   1.622   3.348  0.4749 -0.2060 -0.1503
 1592SOL    HW2 6414   4.278   1.694   3.341 -0.3670 -0.8811  0.2001
 1592SOL    HW3 6415   4.285   1.544   3.359  1.3975 -0.6051  2.0150
 1592SOL    MW4 6416   4.324   1.621   3.349  0.4859 -0.3477  0.1817
 1593SOL     OW 6417   1.581   1.025   2.922 -0.1533 -0.0041  0.4958
 1593SOL    HW2 6418   1.504   1.079   2.940  0.1986  0.1514  1.5834
 1593SOL    HW3 6419   1.643   1.049   2.990  0.8090 -0.2330 -0.2866
 1593SOL    MW4 6420   1.579   1.035   2.933  0.0200 -0.0137  0.5360
 1594SOL     OW 6421   1.516   2.114   3.809  0.5866  0.0380 -0.5775
 1594SOL    HW2 6422   1.566   2.176   3.756  1.7941  0.3785  0.9090
 1594SOL    HW3 6423   1.583   2.054   3.843 -0.2058 -0.3701  0.2711
 1594SOL    MW4 6424   1.532   2.114   3.807  0.6412  0.0293 -0.2694
 1595SOL     OW 6425   3.024   2.487   3.315 -0.3699 -0.5704 -0.1567
 1595SOL    HW2 6426   3.083   2.458   3.246 -1.8154  0.3425 -1.8425
 1595SOL    HW3 6427   3.056   2.574   3.339 -0.4814 -0.4448 -0.4509
 1595SOL    MW4 6428   3.036   2.495   3.309 -0.5755 -0.4332 -0.4179
 1596SOL     OW 6429   4.133   1.419   2.719 -0.4896 -0.3345  0.5645
 1596SOL    HW2 6430   4.193   1.491   2.697  0.5083 -1.2027  0.3857
 1596SOL    HW3 6431   4.087   1.450   2.797 -1.3492  1.2156 -0.5425
 1596SOL    MW4 6432   4.135   1.433   2.727 -0.4711 -0.2446  0.3946
 1597SOL     OW 6433   3.784   1.290   3.140  0.0048 -0.2955 -0.5832
 1597SOL    HW2 6434   3.829   1.208   3.121  0.6643  0.0397 -0.5005
 1597SOL    HW3 6435   3.722   1.301   3.068 -1.3083 -1.7280  0.3167
 1597SOL    MW4 6436   3.782   1.281   3.128 -0.0813 -0.4404 -0.4535
 1598SOL     OW 6437   0.263   0.397   0.793  0.6154  0.0102  0.4549
 1598SOL    HW2 6438   0.266   0.302   0.785  0.9395  0.0280  0.3536
 1598SOL    HW3 6439   0.204   0.413   0.866 -1.2129 -0.2047 -0.9358
 1598SOL    MW4 6440   0.256   0.387   0.801  0.4169 -0.0158  0.2580
 1599SOL     OW 6441   3.268   3.263   4.500 -0.3383  0.3290 -0.4217
 1599SOL    HW2 6442   3.241   3.289   4.411  0.1679  1.2177 -0.3217
 1599SOL    HW3 6443   3.186   3.246   4.546 -0.6062 -0.0889 -1.0534
 1599SOL    MW4 6444   3.253   3.264   4.494 -0.3068  0.3912 -0.4921
 1600SOL     OW 6445   0.524   4.283   0.491 -0.3824 -0.2971  0.0329
 1600SOL    HW2 6446   0.555   4.321   0.573 -0.9181  0.3981 -0.0816
 1600SOL    HW3 6447   0.475   4.353   0.449  0.0861 -0.5786 -0.9932
 1600SOL    MW4 6448   0.522   4.297   0.496 -0.3912 -0.2427 -0.1176
 1601SOL     OW 6449   4.082   4.346   2.165 -0.1485  0.1149 -0.3551
 1601SOL    HW2 6450   4.170   4.359   2.201 -0.2615 -0.3080  0.0771
 1601SOL    HW3 6451   4.079   4.254   2.141 -0.5113  0.1057 -0.2793
 1601SOL    MW4 6452   4.093   4.336   2.166 -0.2112  0.0572 -0.2880
 1602SOL     OW 6453   2.218   2.257   3.107 -0.1304  0.2549 -0.1580
 1602SOL    HW2 6454   2.131   2.288   3.133 -0.7373 -1.4568 -0.0697
 1602SOL    HW3 6455   2.276   2.331   3.125 -1.3535  0.9514  1.0569
 1602SOL    MW4 6456   2.214   2.271   3.113 -0.3719  0.1209  0.0141
 1603SOL     OW 6457   1.434   0.032   3.403 -0.2676  0.6129 -0.5190
 1603SOL    HW2 6458   1.469  -0.057   3.399 -0.9085  0.3364 -0.1088
 1603SOL    HW3 6459   1.451   0.060   3.493  0.1961  1.0095 -0.7340
 1603SOL    MW4 6460   1.441   0.024   3.414 -0.2910  0.6289 -0.4933
 1604SOL     OW 6461   4.261   2.309   2.864 -0.1463 -0.2366 -0.1997
 1604SOL    HW2 6462   4.176   2.321   2.906 -1.0219 -1.2127 -1.6481
 1604SOL    HW3 6463   4.280   2.394   2.824 -0.8129 -0.2351 -0.5286
 1604SOL    MW4 6464   4.252   2.322   2.864 -0.3500 -0.3653 -0.4339
 1605SOL     OW 6465   1.617   2.382   2.949 -0.5050  0.3546 -0.4418
 1605SOL    HW2 6466   1.641   2.473   2.968 -1.5954  0.6955 -0.6743
 1605SOL    HW3 6467   1.591   2.383   2.857  0.0322 -0.3204 -0.6091
 1605SOL    MW4 6468   1.617   2.394   2.939 -0.5779  0.3107 -0.4945
 1606SOL     OW 6469   3.422   2.054   1.365 -0.6587 -0.2109 -0.3012
 1606SOL    HW2 6470   3.447   1.966   1.394 -1.1225 -0.7607 -1.5333
 1606SOL    HW3 6471   3.390   2.097   1.444  1.4844 -0.4477  0.7307
 1606SOL    MW4 6472   3.421   2.048   1.379 -0.4370 -0.3147 -0.3276
 1607SOL     OW 6473   1.921   4.551   3.544 -0.0672 -0.2579  0.3444
 1607SOL    HW2 6474   1.900   4.642   3.566 -0.7989 -0.7202  1.5871
 1607SOL    HW3 6475   1.965   4.517   3.622  2.3457 -0.2936 -0.9820
 1607SOL    MW4 6476   1.924   4.559   3.557  0.1546 -0.3238  0.3335
 1608SOL     OW 6477   1.000   3.960   2.679  0.4937 -0.2719  0.2019
 1608SOL    HW2 6478   1.014   3.994   2.767  0.4567 -1.0108  0.4992
 1608SOL    HW3 6479   0.932   3.893   2.690 -1.9545  1.9412 -0.9171
 1608SOL    MW4 6480   0.993   3.955   2.692  0.1658 -0.0775  0.0932
 1609SOL     OW 6481   2.860   1.232   2.955 -0.4148 -0.1956 -0.1996
 1609SOL    HW2 6482   2.910   1.236   3.037 -0.5640  1.1805 -0.1572
 1609SOL    HW3 6483   2.864   1.140   2.929 -0.9072 -0.7886  1.7069
 1609SOL    MW4 6484   2.867   1.220   2.963 -0.4995 -0.0924  0.0575
 1610SOL     OW 6485   3.961   0.255   0.899  0.1671 -0.1709 -0.0528
 1610SOL    HW2 6486   4.052   0.234   0.879  0.2547  1.4066 -1.4291
 1610SOL    HW3 6487   3.961   0.282   0.990  1.1076  0.0667 -0.1233
 1610SOL    MW4 6488   3.973   0.256   0.908  0.3028  0.0686 -0.2437
 1611SOL     OW 6489   0.638   2.334   3.101 -0.2434 -0.1618 -0.2254
 1611SOL    HW2 6490   0.717   2.297   3.062  0.5759 -0.0964  1.3126
 1611SOL    HW3 6491   0.648   2.429   3.091 -0.4120 -0.1794 -0.5611
 1611SOL    MW4 6492   0.650   2.342   3.095 -0.1575 -0.1554 -0.0668
 1612SOL     OW 6493   2.221   0.009   0.918 -0.2258  0.3525 -0.3719
 1612SOL    HW2 6494   2.269  -0.069   0.948 -1.0675  0.0604  0.2437
 1612SOL    HW3 6495   2.179   0.043   0.997 -1.6031  0.1970 -1.0302
 1612SOL    MW4 6496   2.222   0.003   0.932 -0.5183  0.2937 -0.3775
 1613SOL     OW 6497   2.852   0.212   1.758  0.0818 -0.3587  0.3315
 1613SOL    HW2 6498   2.835   0.302   1.786 -0.1653 -0.4776  0.5736
 1613SOL    HW3 6499   2.935   0.216   1.711 -0.2250  0.1034 -0.1784
 1613SOL    MW4 6500   2.860   0.224   1.756  0.0088 -0.3134  0.2962
 1614SOL     OW 6501   2.493   2.560   1.097  0.3931 -0.2608  0.2709
 1614SOL    HW2 6502   2.450   2.550   1.011 -1.9185  0.4606  1.3029
 1614SOL    HW3 6503   2.496   2.655   1.111  1.4497 -0.3476  0.6708
 1614SOL    MW4 6504   2.488   2.572   1.087  0.2272 -0.1774  0.4598
 1615SOL     OW 6505   2.731   4.405   1.531  0.2554  0.3101  0.2276
 1615SOL    HW2 6506   2.761   4.323   1.572 -1.2225  0.2715  1.2785
 1615SOL    HW3 6507   2.745   4.471   1.599  2.1384  1.0879 -0.8771
 1615SOL    MW4 6508   2.737   4.403   1.546  0.3090  0.4082  0.2205
 1616SOL     OW 6509   3.949   0.333   1.162 -0.1308 -0.2915  0.1977
 1616SOL    HW2 6510   3.875   0.392   1.176 -1.3776 -1.9437  0.8140
 1616SOL    HW3 6511   4.021   0.371   1.213 -0.3284  1.6944 -0.9601
 1616SOL    MW4 6512   3.949   0.346   1.171 -0.3216 -0.2475  0.1262
 1617SOL     OW 6513   1.263   1.212   0.564  0.0575 -0.1310 -0.0144
 1617SOL    HW2 6514   1.230   1.126   0.590 -1.3353  0.2926 -0.3348
 1617SOL    HW3 6515   1.354   1.214   0.595  0.4369 -2.1196 -0.9187
 1617SOL    MW4 6516   1.271   1.201   0.571 -0.0763 -0.3376 -0.1760
 1618SOL     OW 6517   2.035   3.317   2.679 -0.2011  0.3995  0.2200
 1618SOL    HW2 6518   1.996   3.248   2.625 -0.4787  1.1039 -0.4798
 1618SOL    HW3 6519   2.087   3.369   2.618 -1.1769  1.6890  0.4785
 1618SOL    MW4 6520   2.037   3.315   2.664 -0.3664  0.6623  0.1616
 1619SOL     OW 6521   1.681   1.826   1.647  0.0158  0.3899  0.4400
 1619SOL    HW2 6522   1.626   1.757   1.684  0.3091  0.0695  0.2727
 1619SOL    HW3 6523   1.739   1.781   1.586  0.5932  0.7082  0.7547
 1619SOL    MW4 6524   1.681   1.811   1.644  0.1308  0.3896  0.4596
 1620SOL     OW 6525   1.020   0.231   1.562  0.1105 -0.1063 -0.3595
 1620SOL    HW2 6526   0.984   0.144   1.544 -0.4189 -0.3259  1.6511
 1620SOL    HW3 6527   0.957   0.292   1.524  0.2965 -0.5836 -1.4477
 1620SOL    MW4 6528   1.007   0.228   1.555  0.0652 -0.1983 -0.2378
 1621SOL     OW 6529   3.379   1.813   2.460 -0.5386 -0.0534 -0.4091
 1621SOL    HW2 6530   3.426   1.796   2.542 -1.4670  1.3130  0.4328
 1621SOL    HW3 6531   3.445   1.853   2.403  0.2852 -1.6155 -0.5774
 1621SOL    MW4 6532   3.394   1.816   2.463 -0.5522 -0.0792 -0.3202
 1622SOL     OW 6533   3.372   2.703   1.195 -0.0475 -0.0506 -0.3520
 1622SOL    HW2 6534   3.444   2.684   1.134 -1.3274 -1.5655 -1.4222
 1622SOL    HW3 6535   3.327   2.778   1.157  1.5569  1.5756  0.8662
 1622SOL    MW4 6536   3.376   2.711   1.182 -0.0045 -0.0358 -0.3325
 1623SOL     OW 6537   1.385   0.142   4.324  0.0835 -0.5128 -0.2110
 1623SOL    HW2 6538   1.442   0.068   4.300  0.8066 -0.0298 -0.0219
 1623SOL    HW3 6539   1.340   0.165   4.243  2.3028  0.9422 -1.0821
 1623SOL    MW4 6540   1.387   0.135   4.310  0.4717 -0.2571 -0.3004
 1624SOL     OW 6541   2.423   3.298   3.847 -0.0562 -0.0087 -0.6583
 1624SOL    HW2 6542   2.391   3.378   3.806 -0.8029  0.2763  0.4566
 1624SOL    HW3 6543   2.449   3.325   3.935  1.1853 -0.6776 -0.8158
 1624SOL    MW4 6544   2.422   3.312   3.853  0.0091 -0.0594 -0.5317
 1625SOL     OW 6545   1.679   3.745   2.661 -0.0476 -0.1239  0.2518
 1625SOL    HW2 6546   1.686   3.669   2.602  0.5571  0.7657 -0.8291
 1625SOL    HW3 6547   1.687   3.708   2.749 -3.0789 -1.7723 -0.0785
 1625SOL    MW4 6548   1.681   3.730   2.665 -0.3678 -0.2241  0.0658
 1626SOL     OW 6549   1.172   1.178   3.662  0.2771  0.1741  0.3428
 1626SOL    HW2 6550   1.220   1.124   3.600 -0.0987  1.3555 -1.0142
 1626SOL    HW3 6551   1.232   1.251   3.681 -0.6563  1.2565 -0.7744
 1626SOL    MW4 6552   1.187   1.181   3.656  0.1044  0.4729  0.0165
 1627SOL     OW 6553   0.825   3.945   3.287 -0.1452 -0.4289  0.0078
 1627SOL    HW2 6554   0.881   4.004   3.338 -0.2912 -0.6980  0.4858
 1627SOL    HW3 6555   0.820   3.985   3.200  0.5344 -0.2416  0.0544
 1627SOL    MW4 6556   0.831   3.958   3.282 -0.0748 -0.4399  0.0772
 1628SOL     OW 6557   4.435   2.485   1.489 -0.1277 -0.7811 -0.2918
 1628SOL    HW2 6558   4.447   2.404   1.440 -1.4735 -1.2629  0.1491
 1628SOL    HW3 6559   4.371   2.463   1.557 -0.0497  0.4902  0.2119
 1628SOL    MW4 6560   4.428   2.472   1.492 -0.2947 -0.6766 -0.1671
 1629SOL     OW 6561   0.622   2.628   3.552 -0.1651  0.2514  0.9634
 1629SOL    HW2 6562   0.717   2.637   3.544 -0.3074  0.6606 -0.3634
 1629SOL    HW3 6563   0.587   2.700   3.500 -1.2093 -0.3660  0.8080
 1629SOL    MW4 6564   0.630   2.638   3.544 -0.3216  0.2239  0.7679
 1630SOL     OW 6565   2.398   4.161   4.034 -0.1404 -0.1553  0.5193
 1630SOL    HW2 6566   2.359   4.246   4.056 -1.4080 -0.7746  0.6844
 1630SOL    HW3 6567   2.385   4.153   3.939  1.6614  0.6664  0.1841
 1630SOL    MW4 6568   2.391   4.171   4.024 -0.0699 -0.1292  0.4969
 1631SOL     OW 6569   1.761   2.269   3.155  0.4523 -0.7683  0.8356
 1631SOL    HW2 6570   1.832   2.333   3.156 -0.1012 -0.1514  0.8929
 1631SOL    HW3 6571   1.701   2.302   3.088  0.3365 -1.4077  0.6294
 1631SOL    MW4 6572   1.762   2.282   3.146  0.3641 -0.7710  0.8161
 1632SOL     OW 6573   1.207   0.277   3.668 -0.6008 -0.1206 -0.1264
 1632SOL    HW2 6574   1.184   0.239   3.753 -0.3953  0.1792  0.0666
 1632SOL    HW3 6575   1.123   0.307   3.633 -0.5976  0.3889  0.2882
 1632SOL    MW4 6576   1.193   0.276   3.675 -0.5734 -0.0138 -0.0460
 1633SOL     OW 6577   0.651   4.037   1.640  0.1939 -0.1705  0.4036
 1633SOL    HW2 6578   0.625   3.966   1.699 -0.4734  0.2608  0.6347
 1633SOL    HW3 6579   0.647   4.116   1.694  0.5101  0.1033  0.0301
 1633SOL    MW4 6580   0.647   4.038   1.655  0.1475 -0.0777  0.3848
 1634SOL     OW 6581   3.510   4.133   2.998 -0.4078  0.0898  0.0711
 1634SOL    HW2 6582   3.600   4.118   3.028  0.4317  0.6998 -2.0807
 1634SOL    HW3 6583   3.480   4.046   2.971 -0.1314  0.0563 -0.1285
 1634SOL    MW4 6584   3.518   4.119   2.998 -0.2606  0.1659 -0.2394
 1635SOL     OW 6585   2.039   3.879   2.444 -0.2231 -0.1285 -0.1439
 1635SOL    HW2 6586   2.130   3.908   2.451 -0.2625 -0.1181  0.3344
 1635SOL    HW3 6587   1.995   3.950   2.397 -0.0624  0.0330 -0.0512
 1635SOL    MW4 6588   2.045   3.892   2.439 -0.2072 -0.1059 -0.0687
 1636SOL     OW 6589   0.637   0.993   2.293  0.5455  0.1104  0.4690
 1636SOL    HW2 6590   0.617   1.074   2.245 -0.4937 -0.0938  0.5624
 1636SOL    HW3 6591   0.566   0.933   2.271  2.0867 -1.3102 -0.7924
 1636SOL    MW4 6592   0.625   0.996   2.284  0.6118 -0.1040  0.3147
 1637SOL     OW 6593   0.789   3.471   3.063 -0.5167 -0.3625  0.3046
 1637SOL    HW2 6594   0.696   3.450   3.067  0.0354 -3.5313 -1.5928
 1637SOL    HW3 6595   0.792   3.565   3.048 -3.5124 -0.5776 -2.0146
 1637SOL    MW4 6596   0.777   3.481   3.061 -0.8391 -0.8090 -0.2518
 1638SOL     OW 6597   0.972   2.323   4.361 -0.3931  0.0441  0.1472
 1638SOL    HW2 6598   0.969   2.321   4.265 -1.9684  0.6349  0.1750
 1638SOL    HW3 6599   0.963   2.231   4.386 -1.3726  0.0293 -0.2438
 1638SOL    MW4 6600   0.971   2.310   4.351 -0.7302  0.1202  0.0997
 1639SOL     OW 6601   2.999   3.236   2.903 -0.2891 -0.0041 -0.5481
 1639SOL    HW2 6602   3.019   3.321   2.863  0.5063  0.2710  0.4226
 1639SOL    HW3 6603   2.924   3.204   2.853 -1.6931  2.0387  0.1610
 1639SOL    MW4 6604   2.991   3.243   2.891 -0.3693  0.3016 -0.3264
 1640SOL     OW 6605   0.672   0.420   3.675 -0.5315 -0.1691  0.2820
 1640SOL    HW2 6606   0.754   0.386   3.640 -0.9539 -1.8249  0.8791
 1640SOL    HW3 6607   0.608   0.351   3.660 -1.2718  0.0884  2.0368
 1640SOL    MW4 6608   0.674   0.407   3.669 -0.6849 -0.3536  0.5922
 1641SOL     OW 6609   1.366   3.123   0.792  0.8745 -0.1987  0.1270
 1641SOL    HW2 6610   1.394   3.077   0.870  1.1515  0.6696  0.5460
 1641SOL    HW3 6611   1.380   3.216   0.812 -1.0333  0.1725 -0.1584
 1641SOL    MW4 6612   1.372   3.129   0.805  0.6593 -0.0350  0.1447
 1642SOL     OW 6613   0.345   1.606   0.701  0.7355  0.2208  0.1942
 1642SOL    HW2 6614   0.354   1.602   0.797 -1.0829 -0.1466  0.3709
 1642SOL    HW3 6615   0.314   1.694   0.684  0.6346  0.1420 -0.0221
 1642SOL    MW4 6616   0.342   1.617   0.712  0.4823  0.1619  0.1889
 1643SOL     OW 6617   0.685   0.419   1.053  0.0802 -0.4472  0.2343
 1643SOL    HW2 6618   0.777   0.393   1.046  0.6696  1.5887  0.1349
 1643SOL    HW3 6619   0.646   0.393   0.970  0.8319 -0.2557 -0.1789
 1643SOL    MW4 6620   0.692   0.412   1.041  0.2572 -0.1533  0.1667
 1644SOL     OW 6621   2.749   0.281   4.314  0.3233 -0.0762 -0.0914
 1644SOL    HW2 6622   2.794   0.292   4.230  0.7705  2.0420  0.4193
 1644SOL    HW3 6623   2.677   0.221   4.294  1.9274 -1.6085 -1.4231
 1644SOL    MW4 6624   2.745   0.274   4.300  0.5939  0.0011 -0.1993
 1645SOL     OW 6625   3.015   1.339   1.189  0.0215 -0.4070  0.3667
 1645SOL    HW2 6626   3.092   1.336   1.132 -1.0738  2.1979 -1.3400
 1645SOL    HW3 6627   3.051   1.358   1.276  1.3399  0.8422 -0.4218
 1645SOL    MW4 6628   3.030   1.341   1.193  0.0510  0.1016  0.0376
 1646SOL     OW 6629   2.340   2.343   2.166 -0.6923 -0.2678  0.6996
 1646SOL    HW2 6630   2.281   2.411   2.197 -0.7604  0.8770 -1.7893
 1646SOL    HW3 6631   2.415   2.390   2.131  0.2291 -1.5758  0.8999
 1646SOL    MW4 6632   2.342   2.358   2.165 -0.5798 -0.2892  0.3974
 1647SOL     OW 6633   1.192   1.915   1.997  0.7943  0.2810 -0.2852
 1647SOL    HW2 6634   1.238   1.843   2.040  1.2714  0.4585 -0.4989
 1647SOL    HW3 6635   1.191   1.985   2.062 -0.3896 -0.1851  0.2288
 1647SOL    MW4 6636   1.198   1.915   2.012  0.7011  0.2431 -0.2458
 1648SOL     OW 6637   4.286   2.536   2.044  0.1604  0.0835  0.0797
 1648SOL    HW2 6638   4.350   2.569   2.108 -1.1769  0.1275  1.4203
 1648SOL    HW3 6639   4.267   2.447   2.073 -1.1323  0.4198  0.2750
 1648SOL    MW4 6640   4.292   2.529   2.056 -0.1864  0.1338  0.2825
 1649SOL     OW 6641   2.881   2.636   3.710  0.0501  0.2320 -0.3222
 1649SOL    HW2 6642   2.898   2.683   3.792 -1.0538 -3.1258  1.9277
 1649SOL    HW3 6643   2.798   2.672   3.679 -0.2334  0.5721  0.7802
 1649SOL    MW4 6644   2.872   2.647   3.717 -0.1328 -0.1659  0.1199
 1650SOL     OW 6645   2.938   3.277   4.293 -0.1433 -0.0543  0.5194
 1650SOL    HW2 6646   3.026   3.315   4.298 -0.2750  0.1770  1.0588
 1650SOL    HW3 6647   2.879   3.352   4.299 -0.3671 -0.1512 -0.4962
 1650SOL    MW4 6648   2.942   3.292   4.294 -0.1900 -0.0367  0.4568
 1651SOL     OW 6649   2.792   2.125   3.614 -0.0319 -0.2532  0.2556
 1651SOL    HW2 6650   2.821   2.084   3.533 -0.8632  0.9591 -0.6829
 1651SOL    HW3 6651   2.809   2.219   3.601 -0.9532  0.0551  1.1420
 1651SOL    MW4 6652   2.798   2.132   3.602 -0.2632 -0.0525  0.2487
 1652SOL     OW 6653   0.915   0.552   4.059 -0.0163  0.4172  0.4282
 1652SOL    HW2 6654   0.909   0.638   4.101  1.1129  1.7749 -2.0629
 1652SOL    HW3 6655   1.007   0.528   4.066 -0.0786  0.0303 -0.0284
 1652SOL    MW4 6656   0.926   0.560   4.065  0.1245  0.5454  0.0391
 1653SOL     OW 6657   1.410   0.174   0.725  0.0818  0.2492 -0.6396
 1653SOL    HW2 6658   1.398   0.141   0.636 -0.3832 -0.4169 -0.3270
 1653SOL    HW3 6659   1.326   0.213   0.748 -0.0298 -0.2390 -0.2161
 1653SOL    MW4 6660   1.398   0.175   0.716  0.0057  0.0969 -0.5425
 1654SOL     OW 6661   3.051   1.563   2.973  0.2409 -0.0610 -0.4249
 1654SOL    HW2 6662   3.129   1.507   2.976  0.7206  0.6939  1.5030
 1654SOL    HW3 6663   2.990   1.515   2.916  2.3741 -0.2831 -2.5917
 1654SOL    MW4 6664   3.053   1.549   2.966  0.5858  0.0094 -0.4566
 1655SOL     OW 6665   1.089   1.378   2.907 -0.3476 -0.3781  0.2972
 1655SOL    HW2 6666   1.047   1.319   2.970 -1.1414 -0.0175  0.1167
 1655SOL    HW3 6667   1.060   1.345   2.822 -1.0800  0.4760  0.2082
 1655SOL    MW4 6668   1.080   1.366   2.904 -0.5488 -0.2179  0.2615
 1656SOL     OW 6669   0.088   2.422   2.720  0.2093 -0.3188  0.7754
 1656SOL    HW2 6670   0.046   2.385   2.642 -1.4923  0.5400  1.2559
 1656SOL    HW3 6671   0.175   2.450   2.690 -0.7127  0.7366 -1.0114
 1656SOL    MW4 6672   0.094   2.421   2.706 -0.1368 -0.0663  0.6030
 1657SOL     OW 6673   3.426   2.467   3.292  0.3982 -0.1938 -0.5958
 1657SOL    HW2 6674   3.519   2.457   3.270  0.2139 -1.8408 -0.6397
 1657SOL    HW3 6675   3.416   2.561   3.310  1.5607  0.4105 -2.9186
 1657SOL    MW4 6676   3.437   2.478   3.292  0.5271 -0.3314 -0.9081
 1658SOL     OW 6677   2.564   1.178   2.724  0.4468 -0.1080 -0.0367
 1658SOL    HW2 6678   2.477   1.169   2.687  0.3351  0.3177  0.1131
 1658SOL    HW3 6679   2.565   1.119   2.800 -0.1066  0.7586  0.6521
 1658SOL    MW4 6680   2.553   1.169   2.729  0.3588  0.0625  0.0741
 1659SOL     OW 6681   2.049   4.303   4.333  0.0714 -0.2469  0.0458
 1659SOL    HW2 6682   2.111   4.351   4.388 -0.5298  0.3078  0.2444
 1659SOL    HW3 6683   2.075   4.211   4.343  0.2402 -0.1090  0.9142
 1659SOL    MW4 6684   2.060   4.297   4.342  0.0143 -0.1554  0.1864
 1660SOL     OW 6685   2.416   0.426   3.557 -0.5537 -0.2493  0.3739
 1660SOL    HW2 6686   2.454   0.417   3.469 -0.6515 -0.1261  0.3182
 1660SOL    HW3 6687   2.492   0.427   3.615 -0.5696 -2.1768  0.4623
 1660SOL    MW4 6688   2.431   0.425   3.553 -0.5686 -0.4874  0.3781
 1661SOL     OW 6689   3.003   3.294   4.577 -0.3831  0.4184 -0.3573
 1661SOL    HW2 6690   2.964   3.273   4.492 -1.9738  0.5950  0.3145
 1661SOL    HW3 6691   3.009   3.389   4.579  0.6033  0.3681 -0.6782
 1661SOL    MW4 6692   2.998   3.303   4.566 -0.4628  0.4349 -0.3109
 1662SOL     OW 6693   2.163   4.025   3.840 -0.9542  0.0629 -0.2537
 1662SOL    HW2 6694   2.113   4.058   3.765 -1.1473 -0.7759 -0.4976
 1662SOL    HW3 6695   2.254   4.033   3.813 -0.9440  1.6725  0.2218
 1662SOL    MW4 6696   2.168   4.030   3.827 -0.9782  0.1645 -0.2232
 1663SOL     OW 6697   1.309   4.066   3.001 -0.4235 -0.3506 -0.6661
 1663SOL    HW2 6698   1.308   4.035   3.091 -3.7049 -0.2797 -0.6519
 1663SOL    HW3 6699   1.324   3.987   2.949 -1.1207 -0.7866 -0.2055
 1663SOL    MW4 6700   1.311   4.052   3.006 -0.9484 -0.3991 -0.6034
 1664SOL     OW 6701   1.114   1.240   1.760 -0.0642  0.1814 -0.5484
 1664SOL    HW2 6702   1.026   1.276   1.765  0.5381  1.6810 -0.4216
 1664SOL    HW3 6703   1.129   1.225   1.667 -0.6390 -0.5933 -0.5249
 1664SOL    MW4 6704   1.104   1.243   1.749 -0.0606  0.2768 -0.5287
 1665SOL     OW 6705   3.031   1.106   1.467  0.3439 -0.2734  0.1052
 1665SOL    HW2 6706   2.984   1.141   1.392 -0.1913 -1.3184 -0.0525
 1665SOL    HW3 6707   3.019   1.173   1.536  0.2794  0.3705 -0.5251
 1665SOL    MW4 6708   3.023   1.120   1.466  0.2646 -0.3263  0.0013
 1666SOL     OW 6709   3.607   0.619   1.729 -0.0718  0.3745 -0.0335
 1666SOL    HW2 6710   3.539   0.551   1.730  1.4243 -1.1645  0.8238
 1666SOL    HW3 6711   3.572   0.688   1.673 -2.9656  0.2626  1.5368
 1666SOL    MW4 6712   3.593   0.619   1.722 -0.2561  0.1567  0.2867
 1667SOL     OW 6713   1.641   4.174   3.172  0.1132 -0.2805 -0.0498
 1667SOL    HW2 6714   1.580   4.176   3.245  0.5334  1.0389  0.2830
 1667SOL    HW3 6715   1.725   4.198   3.210  0.6949 -1.3688 -0.6352
 1667SOL    MW4 6716   1.644   4.178   3.186  0.2453 -0.2499 -0.0832
 1668SOL     OW 6717   1.195   1.408   0.812 -0.4198  0.1716 -0.0101
 1668SOL    HW2 6718   1.129   1.477   0.819  0.9196  1.3877  0.8066
 1668SOL    HW3 6719   1.228   1.415   0.722 -0.8851  0.0236 -0.1951
 1668SOL    MW4 6720   1.190   1.418   0.801 -0.3045  0.3126  0.0733
 1669SOL     OW 6721   2.761   0.457   1.863 -0.0044 -0.1181 -0.4311
 1669SOL    HW2 6722   2.696   0.409   1.915  0.1850 -1.8827 -1.7497
 1669SOL    HW3 6723   2.829   0.481   1.926 -0.6704 -0.5825  0.4795
 1669SOL    MW4 6724   2.762   0.454   1.878 -0.0675 -0.4122 -0.4849
 1670SOL     OW 6725   3.601   4.642   3.588 -0.7086  0.1916 -0.2159
 1670SOL    HW2 6726   3.525   4.587   3.573 -1.5334  0.9551  1.0870
 1670SOL    HW3 6727   3.639   4.654   3.501 -1.9691 -0.3483 -0.8532
 1670SOL    MW4 6728   3.596   4.637   3.574 -0.9840  0.2217 -0.1280
 1671SOL     OW 6729   2.414   2.242   4.690 -0.3506 -0.9058 -0.2564
 1671SOL    HW2 6730   2.445   2.219   4.603  0.7621 -0.9903  0.1552
 1671SOL    HW3 6731   2.323   2.267   4.677 -0.2145 -0.9895 -1.4321
 1671SOL    MW4 6732   2.406   2.242   4.677 -0.1857 -0.9277 -0.3572
 1672SOL     OW 6733   1.341   0.788   1.729 -0.6859 -0.3323  0.0408
 1672SOL    HW2 6734   1.351   0.785   1.634  2.0366  0.2463  0.2695
 1672SOL    HW3 6735   1.329   0.881   1.749  0.9772 -0.2028  0.4537
 1672SOL    MW4 6736   1.341   0.800   1.719 -0.1072 -0.2388  0.1255
 1673SOL     OW 6737   3.154   1.759   1.664  0.2454  0.4224  0.3999
 1673SOL    HW2 6738   3.189   1.688   1.718 -0.9343 -1.0136 -0.6959
 1673SOL    HW3 6739   3.224   1.778   1.601  0.2915 -0.2742  0.2347
 1673SOL    MW4 6740   3.168   1.752   1.663  0.0956  0.1410  0.2335
 1674SOL     OW 6741   0.888   0.824   4.149  0.5583 -0.0138  0.9385
 1674SOL    HW2 6742   0.956   0.889   4.164 -1.5508  2.2624  1.0431
 1674SOL    HW3 6743   0.828   0.834   4.223 -1.5669  0.2923 -0.7480
 1674SOL    MW4 6744   0.889   0.834   4.161 -0.0004  0.3269  0.7296
 1675SOL     OW 6745   2.171   1.151   3.295 -0.2164 -0.2359  0.0199
 1675SOL    HW2 6746   2.207   1.227   3.339 -1.4247  0.7681 -0.6981
 1675SOL    HW3 6747   2.082   1.142   3.329  0.3538 -2.1627  1.1193
 1675SOL    MW4 6748   2.164   1.160   3.305 -0.3006 -0.3575  0.0699
 1676SOL     OW 6749   0.862   1.349   1.801 -0.2637  0.0485  0.3135
 1676SOL    HW2 6750   0.811   1.391   1.732  0.7844  0.9898  0.1088
 1676SOL    HW3 6751   0.890   1.421   1.858  0.6253 -0.4815  0.5617
 1676SOL    MW4 6752   0.859   1.364   1.800 -0.0082  0.1029  0.3194
 1677SOL     OW 6753   3.654   2.878   4.547 -0.0685 -0.1609 -0.0247
 1677SOL    HW2 6754   3.592   2.818   4.590  0.1120 -0.5129 -0.2563
 1677SOL    HW3 6755   3.626   2.965   4.576 -0.4661 -0.3396  0.1398
 1677SOL    MW4 6756   3.642   2.882   4.557 -0.0970 -0.2313 -0.0334
 1678SOL     OW 6757   0.092   4.246   1.399 -0.1800  0.7313  0.1769
 1678SOL    HW2 6758   0.030   4.176   1.380  1.1922 -0.3794 -0.2594
 1678SOL    HW3 6759   0.037   4.322   1.419 -1.6693 -0.2065 -0.3087
 1678SOL    MW4 6760   0.077   4.247   1.399 -0.1954  0.4606  0.0553
 1679SOL     OW 6761   0.945   4.441   0.816 -0.6691 -0.0205 -0.3100
 1679SOL    HW2 6762   0.928   4.506   0.884  1.0880 -0.6162  0.7370
 1679SOL    HW3 6763   1.029   4.468   0.779  0.1334 -1.7606  0.2192
 1679SOL    MW4 6764   0.954   4.453   0.820 -0.3314 -0.3285 -0.1021
 1680SOL     OW 6765   1.072   3.958   1.836 -0.3858  0.0012  0.1575
 1680SOL    HW2 6766   1.092   3.884   1.894 -0.1020 -0.2148 -0.2171
 1680SOL    HW3 6767   1.149   4.015   1.843  0.7682 -1.2599 -1.9701
 1680SOL    MW4 6768   1.085   3.956   1.845 -0.1961 -0.1936 -0.1725
 1681SOL     OW 6769   4.368   0.245   4.599 -0.4376 -0.2062 -0.5371
 1681SOL    HW2 6770   4.458   0.248   4.632 -0.0599  0.9557 -1.6155
 1681SOL    HW3 6771   4.354   0.153   4.577  0.8657 -0.2344 -1.3375
 1681SOL    MW4 6772   4.378   0.233   4.600 -0.2160 -0.0566 -0.7854
 1682SOL     OW 6773   3.250   3.911   1.873  0.4622 -0.5562  0.2306
 1682SOL    HW2 6774   3.280   3.838   1.927  1.9377  0.3500  0.6693
 1682SOL    HW3 6775   3.307   3.984   1.898 -1.1989  0.8371  0.0360
 1682SOL    MW4 6776   3.262   3.911   1.883  0.4377 -0.2530  0.2627
 1683SOL     OW 6777   2.418   4.596   3.750  0.1517  0.5482 -0.1109
 1683SOL    HW2 6778   2.387   4.675   3.705  1.6406  1.7407  0.8736
 1683SOL    HW3 6779   2.434   4.625   3.840  1.7790 -0.5888 -0.0034
 1683SOL    MW4 6780   2.416   4.610   3.756  0.5629  0.5555  0.0331
 1684SOL     OW 6781   0.877   0.028   2.530 -0.2204  0.8435  0.3507
 1684SOL    HW2 6782   0.789  -0.009   2.528  0.9059 -1.8971  0.4026
 1684SOL    HW3 6783   0.931  -0.038   2.573  2.3403  1.4089 -1.8105
 1684SOL    MW4 6784   0.873   0.015   2.535  0.2661  0.5565  0.0722
 1685SOL     OW 6785   2.133   4.444   1.845  0.5495 -0.0326  0.4806
 1685SOL    HW2 6786   2.182   4.434   1.927 -1.0448  0.7027  1.5346
 1685SOL    HW3 6787   2.076   4.519   1.860  1.3044  1.0342 -1.8504
 1685SOL    MW4 6788   2.132   4.453   1.858  0.4387  0.2060  0.3122
 1686SOL     OW 6789   3.768   0.993   3.408  0.2193 -0.2546 -0.2151
 1686SOL    HW2 6790   3.746   1.070   3.462  0.6100 -0.9930  1.0206
 1686SOL    HW3 6791   3.759   0.919   3.468  0.6273 -1.0981 -1.1884
 1686SOL    MW4 6792   3.764   0.993   3.423  0.3247 -0.4634 -0.1805
 1687SOL     OW 6793   3.646   2.125   4.281 -0.3452  0.2584 -0.7307
 1687SOL    HW2 6794   3.719   2.067   4.260 -1.1061 -0.6253 -0.9572
 1687SOL    HW3 6795   3.641   2.124   4.377  0.0189  0.4329 -0.7067
 1687SOL    MW4 6796   3.655   2.117   4.291 -0.3972  0.1650 -0.7567
 1688SOL     OW 6797   2.817   2.373   3.479  1.0030  0.7247  0.2935
 1688SOL    HW2 6798   2.873   2.431   3.427  0.1463  0.5708 -0.8129
 1688SOL    HW3 6799   2.818   2.411   3.566  1.3707  1.7541 -0.1513
 1688SOL    MW4 6800   2.825   2.385   3.483  0.9387  0.8399  0.0887
 1689SOL     OW 6801   1.461   3.464   4.308  0.0221  0.1630  0.7628
 1689SOL    HW2 6802   1.412   3.383   4.324  0.6101 -0.2000  0.7433
 1689SOL    HW3 6803   1.395   3.526   4.278 -0.3481 -0.4701  0.2565
 1689SOL    MW4 6804   1.446   3.461   4.306  0.0509  0.0317  0.6938
 1690SOL     OW 6805   0.536   0.133   1.062 -0.3857 -0.6318  0.3389
 1690SOL    HW2 6806   0.538   0.038   1.047 -0.1017 -0.6307  0.3723
 1690SOL    HW3 6807   0.450   0.149   1.100 -0.1776 -0.9713  0.9527
 1690SOL    MW4 6808   0.525   0.123   1.065 -0.3208 -0.6765  0.4244
 1691SOL     OW 6809   2.349   0.689   2.407 -0.6012  0.0531 -0.3141
 1691SOL    HW2 6810   2.292   0.746   2.355  0.2674 -0.1495 -1.5200
 1691SOL    HW3 6811   2.380   0.744   2.478 -2.2248  0.1906  0.2946
 1691SOL    MW4 6812   2.346   0.704   2.409 -0.7012  0.0445 -0.3929
 1692SOL     OW 6813   2.539   1.192   4.270 -0.1507  0.1885  0.0798
 1692SOL    HW2 6814   2.487   1.155   4.198 -0.3209  1.5648 -0.5300
 1692SOL    HW3 6815   2.630   1.174   4.245 -0.2624 -0.7512  0.3231
 1692SOL    MW4 6816   2.544   1.185   4.257 -0.1881  0.2460  0.0310
 1693SOL     OW 6817   2.733   3.930   2.214  0.0111  0.7809  0.2446
 1693SOL    HW2 6818   2.789   3.957   2.287 -1.7578  0.4408  1.7753
 1693SOL    HW3 6819   2.691   4.011   2.185  1.4320  1.0769 -1.0641
 1693SOL    MW4 6820   2.734   3.944   2.220 -0.0350  0.7751  0.2739
 1694SOL     OW 6821   0.338   3.862   2.912 -0.5649 -0.1009  0.5348
 1694SOL    HW2 6822   0.396   3.834   2.842  1.2138 -1.2821  2.4360
 1694SOL    HW3 6823   0.300   3.781   2.946  1.1411  0.1065  3.0840
 1694SOL    MW4 6824   0.340   3.848   2.907 -0.1051 -0.2294  1.1220
 1695SOL     OW 6825   1.394   3.001   1.991 -0.0003 -0.0186  0.5587
 1695SOL    HW2 6826   1.369   2.969   1.904  1.4370 -0.5843  0.3321
 1695SOL    HW3 6827   1.411   2.921   2.042  1.4674  0.3292  0.6430
 1695SOL    MW4 6828   1.393   2.986   1.986  0.3830 -0.0470  0.5401
 1696SOL     OW 6829   3.897   0.337   3.299  0.0382  0.3493  0.0005
 1696SOL    HW2 6830   3.872   0.393   3.373  1.7459  0.6670  0.3689
 1696SOL    HW3 6831   3.960   0.275   3.336 -1.0378 -1.1335 -0.6486
 1696SOL    MW4 6832   3.902   0.336   3.314  0.1216  0.1956 -0.0365
 1697SOL     OW 6833   1.836   2.087   0.934 -0.0437  0.7364  0.1535
 1697SOL    HW2 6834   1.890   2.053   0.863 -1.3497 -0.5598 -0.2496
 1697SOL    HW3 6835   1.777   2.150   0.892 -1.6681 -0.9497 -0.1817
 1697SOL    MW4 6836   1.835   2.090   0.919 -0.4303  0.3428  0.0561
 1698SOL     OW 6837   0.100   2.145   2.303 -0.4501  1.0774  0.7060
 1698SOL    HW2 6838   0.162   2.086   2.345  0.5257  1.5906  0.0022
 1698SOL    HW3 6839   0.102   2.120   2.211 -1.3456  1.0547  0.6837
 1698SOL    MW4 6840   0.108   2.134   2.296 -0.4395  1.1418  0.6101
 1699SOL     OW 6841   3.273   0.541   0.822 -0.5714  0.0727 -0.4495
 1699SOL    HW2 6842   3.351   0.549   0.767 -0.5061  0.1062 -0.3524
 1699SOL    HW3 6843   3.221   0.619   0.802 -0.7895 -0.1762 -0.8444
 1699SOL    MW4 6844   3.277   0.552   0.812 -0.5915  0.0443 -0.4888
 1700SOL     OW 6845   3.673   4.292   3.670 -0.0012 -0.0222 -0.3511
 1700SOL    HW2 6846   3.603   4.296   3.735 -0.5437  0.1985 -0.9424
 1700SOL    HW3 6847   3.725   4.371   3.685  0.9754 -0.8905  1.0253
 1700SOL    MW4 6848   3.671   4.303   3.681  0.0563 -0.1078 -0.2477
 1701SOL     OW 6849   1.366   2.699   4.605 -0.5144 -0.0538 -0.1144
 1701SOL    HW2 6850   1.435   2.705   4.539  1.2466 -1.6699  1.5151
 1701SOL    HW3 6851   1.369   2.784   4.650  0.9130 -0.3807  0.4267
 1701SOL    MW4 6852   1.376   2.711   4.602 -0.0937 -0.3102  0.1717
 1702SOL     OW 6853   3.407   2.225   1.159 -0.1914 -0.0565 -0.2360
 1702SOL    HW2 6854   3.393   2.151   1.219  1.7639 -0.0875  0.2249
 1702SOL    HW3 6855   3.343   2.291   1.186 -1.0712 -1.0708  0.1952
 1702SOL    MW4 6856   3.397   2.224   1.170 -0.0496 -0.1943 -0.1183
 1703SOL     OW 6857   0.105   3.901   2.402 -0.1971 -0.2948 -0.3882
 1703SOL    HW2 6858   0.050   3.828   2.432  0.7227 -0.7459  0.2272
 1703SOL    HW3 6859   0.159   3.862   2.333  0.6429 -0.3264  0.2820
 1703SOL    MW4 6860   0.105   3.886   2.397  0.0351 -0.3581 -0.2184
 1704SOL     OW 6861   0.545   0.497   2.365  0.2073  0.2207  0.2524
 1704SOL    HW2 6862   0.514   0.539   2.445 -1.2079 -1.0227  0.3738
 1704SOL    HW3 6863   0.498   0.413   2.362  2.1058 -0.8395 -0.5852
 1704SOL    MW4 6864   0.535   0.491   2.375  0.2710 -0.0832  0.1581
 1705SOL     OW 6865   2.336   0.604   1.303  0.2117 -0.0049 -0.2540
 1705SOL    HW2 6866   2.419   0.596   1.256 -0.6842 -0.3404 -1.8421
 1705SOL    HW3 6867   2.302   0.690   1.277  0.5410  0.5726  1.2024
 1705SOL    MW4 6868   2.342   0.614   1.293  0.1371  0.0271 -0.2714
 1706SOL     OW 6869   3.204   1.692   1.309 -0.4171  0.2038  0.1599
 1706SOL    HW2 6870   3.132   1.666   1.367 -1.3504  1.9042 -0.2040
 1706SOL    HW3 6871   3.262   1.744   1.364  0.2280 -0.6333  0.2894
 1706SOL    MW4 6872   3.202   1.695   1.324 -0.4551  0.3176  0.1289
 1707SOL     OW 6873   4.149   3.259   2.472  0.1142 -0.2071 -0.3579
 1707SOL    HW2 6874   4.138   3.251   2.567  0.5357 -3.8333 -0.5361
 1707SOL    HW3 6875   4.114   3.345   2.451 -0.8113  0.3015  2.9701
 1707SOL    MW4 6876   4.143   3.269   2.481  0.0472 -0.6187  0.0575
 1708SOL     OW 6877   0.495   3.108   2.797 -0.0680 -0.4434  0.0142
 1708SOL    HW2 6878   0.545   3.181   2.760  0.7750 -1.1514 -0.2461
 1708SOL    HW3 6879   0.406   3.122   2.765 -0.0896  0.9476  0.6594
 1708SOL    MW4 6880   0.490   3.119   2.788  0.0404 -0.3536  0.0651
 1709SOL     OW 6881   1.494   2.046   2.945  0.7549 -0.3656  0.1626
 1709SOL    HW2 6882   1.552   2.103   2.893  1.7095 -0.2112  1.3750
 1709SOL    HW3 6883   1.438   2.106   2.993 -0.5715 -0.5214 -1.1762
 1709SOL    MW4 6884   1.494   2.061   2.944  0.7060 -0.3655  0.1459
 1710SOL     OW 6885   3.828   1.339   2.008 -0.3639  0.4432  0.3576
 1710SOL    HW2 6886   3.827   1.305   1.918 -1.8193 -0.6769  0.7880
 1710SOL    HW3 6887   3.898   1.290   2.051 -0.6180 -0.0477  0.2183
 1710SOL    MW4 6888   3.837   1.328   2.001 -0.5894  0.2307  0.3963
 1711SOL     OW 6889   1.602   0.827   2.431 -0.4174 -0.6813 -0.3263
 1711SOL    HW2 6890   1.528   0.840   2.490  0.2960 -0.0024  0.4366
 1711SOL    HW3 6891   1.565   0.839   2.343 -0.9107  1.2355  0.1177
 1711SOL    MW4 6892   1.588   0.831   2.427 -0.3884 -0.3389 -0.1669
 1712SOL     OW 6893   3.832   0.758   2.832  0.3513 -0.0685 -0.5968
 1712SOL    HW2 6894   3.913   0.739   2.785  0.9245  1.4619 -0.2611
 1712SOL    HW3 6895   3.856   0.752   2.924 -0.1484 -0.5146 -0.4922
 1712SOL    MW4 6896   3.846   0.755   2.838  0.3612  0.0745 -0.5386
 1713SOL     OW 6897   0.939   3.492   2.653 -0.4800  0.0801 -0.4993
 1713SOL    HW2 6898   1.034   3.492   2.639 -0.5765 -0.0320 -1.1799
 1713SOL    HW3 6899   0.917   3.585   2.661 -0.5299  0.2129 -1.9487
 1713SOL    MW4 6900   0.949   3.504   2.652 -0.4994  0.0827 -0.7801
 1714SOL     OW 6901   3.299   3.954   2.917  0.0811 -0.1594 -0.2088
 1714SOL    HW2 6902   3.297   3.884   2.983 -0.1823 -1.9234 -2.0355
 1714SOL    HW3 6903   3.274   4.033   2.966  3.3330 -0.7085  2.5602
 1714SOL    MW4 6904   3.295   3.955   2.932  0.4754 -0.4647 -0.0844
 1715SOL     OW 6905   0.943   2.472   2.292  0.0153  0.6863 -0.3517
 1715SOL    HW2 6906   0.905   2.558   2.311  1.2570  1.6183 -2.0212
 1715SOL    HW3 6907   0.999   2.454   2.368  0.2855  1.6655 -0.3087
 1715SOL    MW4 6908   0.945   2.481   2.305  0.2148  0.9384 -0.5662
 1716SOL     OW 6909   0.756   2.991   1.209 -0.0421  0.0272  0.1820
 1716SOL    HW2 6910   0.665   3.013   1.189  0.5118  0.4870 -1.9797
 1716SOL    HW3 6911   0.802   3.075   1.207  0.9055 -0.4935 -1.5586
 1716SOL    MW4 6912   0.750   3.005   1.206  0.1559  0.0196 -0.3328
 1717SOL     OW 6913   0.912   3.252   2.200 -0.5636 -0.3380  0.4856
 1717SOL    HW2 6914   0.904   3.347   2.198 -0.3028 -0.3266 -0.0490
 1717SOL    HW3 6915   0.838   3.220   2.148 -0.7778 -0.4363  0.8464
 1717SOL    MW4 6916   0.901   3.260   2.193 -0.5575 -0.3495  0.4628
 1718SOL     OW 6917   2.812   0.647   0.748  0.3353 -0.1068 -0.4278
 1718SOL    HW2 6918   2.810   0.552   0.760 -0.4993 -0.0016  0.3223
 1718SOL    HW3 6919   2.898   0.674   0.782 -0.1631 -0.3718  1.0878
 1718SOL    MW4 6920   2.823   0.638   0.754  0.1595 -0.1279 -0.1289
 1719SOL     OW 6921   1.928   1.386   2.155 -0.4238 -0.1008  0.1072
 1719SOL    HW2 6922   1.989   1.361   2.086  2.0449  0.1938  2.1118
 1719SOL    HW3 6923   1.891   1.470   2.126  0.0356 -0.3430 -1.1902
 1719SOL    MW4 6924   1.931   1.394   2.142 -0.0376 -0.0938  0.2005
 1720SOL     OW 6925   1.591   4.035   3.760 -0.2931 -0.2431 -0.2227
 1720SOL    HW2 6926   1.625   4.112   3.714  0.3435 -0.0454  0.5736
 1720SOL    HW3 6927   1.668   3.979   3.774 -0.5957 -0.6023  0.0233
 1720SOL    MW4 6928   1.606   4.038   3.756 -0.2490 -0.2646 -0.0851
 1721SOL     OW 6929   4.131   4.286   1.776  0.4536 -0.0888  0.3354
 1721SOL    HW2 6930   4.193   4.346   1.819  0.2197  0.6180 -0.3153
 1721SOL    HW3 6931   4.049   4.299   1.824 -0.1309  1.5820 -1.0631
 1721SOL    MW4 6932   4.128   4.296   1.788  0.3452  0.2255  0.0650
 1722SOL     OW 6933   1.853   4.310   4.545 -0.0985 -0.1011 -0.4548
 1722SOL    HW2 6934   1.918   4.309   4.475 -0.1677 -0.1713 -0.5192
 1722SOL    HW3 6935   1.779   4.261   4.509  0.3296 -1.1871  0.1108
 1722SOL    MW4 6936   1.852   4.303   4.531 -0.0511 -0.2532 -0.3886
 1723SOL     OW 6937   3.642   2.362   1.033  0.1204 -0.2855 -0.0246
 1723SOL    HW2 6938   3.660   2.435   1.092 -0.9652 -0.0315  0.0013
 1723SOL    HW3 6939   3.581   2.307   1.082 -1.8436  0.6045 -1.4187
 1723SOL    MW4 6940   3.637   2.364   1.047 -0.2818 -0.1347 -0.2052
 1724SOL     OW 6941   0.675   2.068   1.638 -0.8453  0.2114  0.2711
 1724SOL    HW2 6942   0.633   2.037   1.558 -0.2117 -0.5701  0.2322
 1724SOL    HW3 6943   0.768   2.052   1.624 -0.4279  2.5919  0.0649
 1724SOL    MW4 6944   0.682   2.062   1.626 -0.7066  0.4222  0.2388
 1725SOL     OW 6945   2.483   0.907   1.523 -0.2410  0.4634 -0.0394
 1725SOL    HW2 6946   2.422   0.926   1.595 -0.8084  1.4363 -0.7571
 1725SOL    HW3 6947   2.545   0.844   1.559 -1.2746 -0.0128  0.9186
 1725SOL    MW4 6948   2.483   0.901   1.537 -0.4523  0.5289 -0.0079
 1726SOL     OW 6949   3.277   4.428   4.499 -0.2659 -0.1521 -0.2377
 1726SOL    HW2 6950   3.312   4.510   4.536  0.7883  0.1710 -1.8817
 1726SOL    HW3 6951   3.217   4.456   4.431  0.6253 -0.7425 -1.2819
 1726SOL    MW4 6952   3.274   4.443   4.495 -0.0095 -0.1869 -0.5922
 1727SOL     OW 6953   2.034   4.190   4.694 -0.1888  0.4541 -0.4475
 1727SOL    HW2 6954   2.080   4.145   4.623 -0.3883 -0.3701 -0.0595
 1727SOL    HW3 6955   1.958   4.229   4.653 -0.9008 -0.9504 -0.5063
 1727SOL    MW4 6956   2.030   4.189   4.680 -0.3090  0.1602 -0.4039
 1728SOL     OW 6957   2.084   1.863   0.357 -0.5767 -0.0198  0.2934
 1728SOL    HW2 6958   1.994   1.838   0.376 -0.1396  0.0437  2.4734
 1728SOL    HW3 6959   2.119   1.789   0.306 -0.9972 -1.3171  1.8739
 1728SOL    MW4 6960   2.077   1.850   0.353 -0.5744 -0.1825  0.7896
 1729SOL     OW 6961   4.141   0.000   1.436 -0.0080 -0.7331  0.3148
 1729SOL    HW2 6962   4.047   0.011   1.424  0.1142  1.1234  0.8743
 1729SOL    HW3 6963   4.152  -0.093   1.458 -1.6869 -0.9919  0.1300
 1729SOL    MW4 6964   4.130  -0.011   1.437 -0.2131 -0.5223  0.3643
 1730SOL     OW 6965   0.688   1.181   1.928  0.1064 -0.2002 -0.3971
 1730SOL    HW2 6966   0.746   1.112   1.961  0.6522 -0.8287 -2.6220
 1730SOL    HW3 6967   0.747   1.253   1.904 -0.2745  0.2047 -0.1275
 1730SOL    MW4 6968   0.703   1.182   1.929  0.1281 -0.2297 -0.6551
 1731SOL     OW 6969   1.522   3.685   0.783  0.0248  0.3779  0.0387
 1731SOL    HW2 6970   1.531   3.747   0.856  1.4079  0.4930 -0.2023
 1731SOL    HW3 6971   1.612   3.669   0.755 -0.3589 -1.3087 -0.2755
 1731SOL    MW4 6972   1.535   3.691   0.789  0.1566  0.1705 -0.0346
 1732SOL     OW 6973   3.981   1.003   2.290 -0.1496 -0.3439  0.1498
 1732SOL    HW2 6974   3.967   0.991   2.384 -0.4499  1.5440  0.3572
 1732SOL    HW3 6975   3.896   0.985   2.250 -0.0109 -1.1920  0.2150
 1732SOL    MW4 6976   3.968   0.999   2.297 -0.1709 -0.2068  0.1857
 1733SOL     OW 6977   3.352   2.108   0.908 -0.4767 -0.7217  0.5093
 1733SOL    HW2 6978   3.375   2.127   0.999  0.3798 -0.2131  0.1993
 1733SOL    HW3 6979   3.316   2.190   0.875 -1.1306 -1.0155  0.4990
 1733SOL    MW4 6980   3.351   2.122   0.916 -0.4501 -0.6931  0.4671
 1734SOL     OW 6981   0.213   3.942   1.438  0.5115  0.1161 -0.2088
 1734SOL    HW2 6982   0.127   3.982   1.445 -0.4471 -2.2497  3.1823
 1734SOL    HW3 6983   0.213   3.899   1.353 -1.7213  0.0865 -0.2269
 1734SOL    MW4 6984   0.202   3.941   1.428  0.0904 -0.2000  0.2362
 1735SOL     OW 6985   4.119   2.740   1.930 -0.4074  0.1739  0.0977
 1735SOL    HW2 6986   4.160   2.667   1.976  1.7929  0.4737 -1.3325
 1735SOL    HW3 6987   4.185   2.770   1.868 -2.2301  1.7096 -1.1627
 1735SOL    MW4 6988   4.133   2.734   1.928 -0.3572  0.4158 -0.2574
 1736SOL     OW 6989   4.340   2.970   0.939  0.1348  0.1054 -0.3593
 1736SOL    HW2 6990   4.299   2.975   1.026 -0.4183  1.4178 -0.6883
 1736SOL    HW3 6991   4.372   2.880   0.933  0.7650  0.1838  1.4792
 1736SOL    MW4 6992   4.339   2.959   0.950  0.1454  0.2887 -0.1602
 1737SOL     OW 6993   1.554   1.591   1.778  0.4221 -0.3001  0.2043
 1737SOL    HW2 6994   1.544   1.566   1.869  1.5789  0.2586  0.5019
 1737SOL    HW3 6995   1.465   1.601   1.745 -0.0126 -2.0352  0.8342
 1737SOL    MW4 6996   1.541   1.589   1.786  0.5172 -0.4551  0.3265
 1738SOL     OW 6997   4.148   1.263   3.124  0.0116  0.1045  0.0649
 1738SOL    HW2 6998   4.185   1.273   3.212 -1.1648 -0.2124  0.5992
 1738SOL    HW3 6999   4.097   1.182   3.128  0.9814 -0.6024 -1.2765
 1738SOL    MW4 7000   4.146   1.254   3.136 -0.0157 -0.0306 -0.0415
 1739SOL     OW 7001   4.399   0.055   3.017  0.0906  0.6697 -0.3308
 1739SOL    HW2 7002   4.346  -0.018   3.049  0.6861 -0.0829 -1.0378
 1739SOL    HW3 7003   4.396   0.047   2.922 -0.2648  1.8800 -0.4299
 1739SOL    MW4 7004   4.392   0.044   3.009  0.1225  0.7300 -0.4375
 1740SOL     OW 7005   4.184   1.495   1.441  0.6907 -0.2331 -0.3866
 1740SOL    HW2 7006   4.207   1.425   1.503 -0.1560 -1.2193 -1.1571
 1740SOL    HW3 7007   4.261   1.551   1.438  0.6548 -0.0114  1.7635
 1740SOL    MW4 7008   4.197   1.493   1.449  0.5741 -0.3338 -0.2046
 1741SOL     OW 7009   1.280   1.532   2.695 -0.6443 -0.1319  0.1134
 1741SOL    HW2 7010   1.329   1.523   2.776 -0.7945  0.7941  0.3071
 1741SOL    HW3 7011   1.189   1.514   2.719 -0.5673 -0.7077 -0.0202
 1741SOL    MW4 7012   1.275   1.528   2.709 -0.6539 -0.0857  0.1214
 1742SOL     OW 7013   1.429   2.353   1.190 -0.3026  0.2623  0.2894
 1742SOL    HW2 7014   1.477   2.406   1.254 -0.4672  0.9767 -0.1737
 1742SOL    HW3 7015   1.363   2.412   1.154 -0.5160 -0.2700 -0.2003
 1742SOL    MW4 7016   1.427   2.368   1.194 -0.3525  0.2866  0.1637
 1743SOL     OW 7017   3.926   2.807   4.445  0.3929 -0.2433 -0.0605
 1743SOL    HW2 7018   3.931   2.809   4.349  0.1862 -0.9543 -0.0881
 1743SOL    HW3 7019   3.834   2.821   4.464  0.5392  0.5703  0.0591
 1743SOL    MW4 7020   3.915   2.809   4.435  0.3850 -0.2296 -0.0482
 1744SOL     OW 7021   2.565   4.319   1.331 -0.1426 -0.2535  0.6160
 1744SOL    HW2 7022   2.623   4.347   1.401  1.1816 -0.7572 -0.2551
 1744SOL    HW3 7023   2.503   4.391   1.321  0.5905  0.4787  1.2685
 1744SOL    MW4 7024   2.565   4.332   1.339  0.1287 -0.2232  0.5871
 1745SOL     OW 7025   2.486   0.757   4.348 -0.0017 -0.0970 -0.1269
 1745SOL    HW2 7026   2.554   0.798   4.295  0.1419  1.4032  1.1723
 1745SOL    HW3 7027   2.522   0.672   4.372  0.1112 -0.6088 -2.0358
 1745SOL    MW4 7028   2.500   0.751   4.344  0.0322  0.0334 -0.2069
 1746SOL     OW 7029   1.607   4.134   2.672 -0.0608 -0.8417  0.0796
 1746SOL    HW2 7030   1.678   4.091   2.720 -1.4213 -2.2349  0.8855
 1746SOL    HW3 7031   1.548   4.168   2.740 -1.3208 -1.6681 -0.5728
 1746SOL    MW4 7032   1.608   4.133   2.688 -0.4065 -1.1349  0.0999
 1747SOL     OW 7033   2.573   0.965   2.912  0.3240 -0.4292  0.0859
 1747SOL    HW2 7034   2.503   0.912   2.951  0.5191 -0.9541 -0.2682
 1747SOL    HW3 7035   2.635   0.901   2.878 -0.2234  0.0107 -1.7948
 1747SOL    MW4 7036   2.572   0.949   2.913  0.2778 -0.4405 -0.2091
 1748SOL     OW 7037   3.884   2.876   3.309 -0.6153  0.0240  0.3737
 1748SOL    HW2 7038   3.905   2.962   3.343 -0.1338 -0.5336  1.5115
 1748SOL    HW3 7039   3.896   2.817   3.383 -0.6498 -1.0563 -0.4656
 1748SOL    MW4 7040   3.889   2.879   3.323 -0.5562 -0.1919  0.4129
 1749SOL     OW 7041   3.838   2.429   3.409 -0.4475 -0.3313  0.0192
 1749SOL    HW2 7042   3.799   2.422   3.321  0.7883 -1.4036 -0.4628
 1749SOL    HW3 7043   3.803   2.353   3.457 -2.9737  1.5203  1.2379
 1749SOL    MW4 7044   3.828   2.418   3.403 -0.6180 -0.2289  0.1161
 1750SOL     OW 7045   3.869   4.189   2.760  0.1094  0.1465  0.3284
 1750SOL    HW2 7046   3.863   4.100   2.795  1.0025 -0.0477  0.0032
 1750SOL    HW3 7047   3.798   4.237   2.804 -0.0672 -0.5989  0.8679
 1750SOL    MW4 7048   3.859   4.184   2.770  0.2038  0.0219  0.3564
 1751SOL     OW 7049   2.402   4.662   4.467 -0.3076 -0.1577  0.1573
 1751SOL    HW2 7050   2.433   4.737   4.519  1.7349  0.8929 -2.4244
 1751SOL    HW3 7051   2.354   4.702   4.394 -0.7135 -1.4460 -0.2894
 1751SOL    MW4 7052   2.400   4.677   4.464 -0.0916 -0.1891 -0.2432
 1752SOL     OW 7053   3.969   1.616   2.015  0.4578 -0.1582 -0.0152
 1752SOL    HW2 7054   4.017   1.627   2.097 -0.8021  2.8830  0.3853
 1752SOL    HW3 7055   3.915   1.538   2.029  0.3430  0.2509  2.0241
 1752SOL    MW4 7056   3.968   1.607   2.028  0.2763  0.2970  0.3066
 1753SOL     OW 7057   1.150   0.793   1.922  0.4445 -0.0784  0.0391
 1753SOL    HW2 7058   1.209   0.791   1.847  0.1208  0.3220 -0.2309
 1753SOL    HW3 7059   1.078   0.850   1.894  0.2284 -0.0823  0.5839
 1753SOL    MW4 7060   1.148   0.800   1.908  0.3732 -0.0260  0.0753
 1754SOL     OW 7061   2.620   3.458   4.546  0.1994  0.2429 -0.0914
 1754SOL    HW2 7062   2.689   3.482   4.484 -0.3048 -0.6845 -1.0417
 1754SOL    HW3 7063   2.653   3.379   4.589  0.8826  1.3146  1.4043
 1754SOL    MW4 7064   2.633   3.450   4.543  0.2232  0.2620 -0.0191
 1755SOL     OW 7065   3.133   0.854   4.155 -0.5369 -0.0663 -0.0639
 1755SOL    HW2 7066   3.133   0.820   4.066 -0.3735  0.4271 -0.2500
 1755SOL    HW3 7067   3.049   0.826   4.192 -1.3451  1.1998 -0.9267
 1755SOL    MW4 7068   3.122   0.846   4.148 -0.6220  0.1658 -0.2022
 1756SOL     OW 7069   0.597   1.077   1.300  0.4613 -0.3004 -0.2100
 1756SOL    HW2 7070   0.670   1.040   1.350 -0.5735 -1.7820  0.2340
 1756SOL    HW3 7071   0.530   1.009   1.302 -0.3907  0.4747 -1.8414
 1756SOL    MW4 7072   0.598   1.063   1.307  0.2123 -0.3935 -0.3666
 1757SOL     OW 7073   3.835   2.682   3.529  0.1501  0.2432 -0.0426
 1757SOL    HW2 7074   3.746   2.706   3.554 -0.2053 -1.4954  0.4371
 1757SOL    HW3 7075   3.828   2.592   3.498  1.6067  0.3781 -0.8018
 1757SOL    MW4 7076   3.823   2.674   3.528  0.2954  0.0317 -0.0794
 1758SOL     OW 7077   0.299   0.919   0.549 -0.4610  0.0646  0.8644
 1758SOL    HW2 7078   0.257   0.898   0.466  1.6287  1.5017 -0.6264
 1758SOL    HW3 7079   0.294   0.839   0.600 -2.2405 -0.6869 -0.4487
 1758SOL    MW4 7080   0.293   0.906   0.545 -0.4201  0.1550  0.4945
 1759SOL     OW 7081   3.994   3.965   3.438 -0.1641  0.3563  0.2694
 1759SOL    HW2 7082   4.028   3.926   3.357  0.3015 -0.5470  0.9040
 1759SOL    HW3 7083   4.072   3.979   3.493 -0.4572  1.1435  0.4963
 1759SOL    MW4 7084   4.009   3.962   3.434 -0.1416  0.3412  0.3831
 1760SOL     OW 7085   3.511   3.895   3.386 -0.0592  0.8283 -0.1310
 1760SOL    HW2 7086   3.598   3.854   3.388 -0.1596  0.6290  1.7889
 1760SOL    HW3 7087   3.530   3.989   3.392  0.0111  0.6873  2.7492
 1760SOL    MW4 7088   3.525   3.902   3.387 -0.0632  0.7834  0.5023
 1761SOL     OW 7089   1.589   0.469   4.172 -0.6447  0.3085 -0.1777
 1761SOL    HW2 7090   1.596   0.405   4.101 -1.6455 -1.6086  1.4018
 1761SOL    HW3 7091   1.680   0.489   4.197 -0.3373 -0.8002 -0.4169
 1761SOL    MW4 7092   1.602   0.464   4.166 -0.7360 -0.0907 -0.0010
 1762SOL     OW 7093   1.203   3.557   2.642  0.0432  0.7890  0.2446
 1762SOL    HW2 7094   1.207   3.590   2.732 -1.2860  0.5602  0.3930
 1762SOL    HW3 7095   1.270   3.608   2.596 -0.1281  1.7949  1.0786
 1762SOL    MW4 7096   1.212   3.568   2.648 -0.1550  0.8919  0.3741
 1763SOL     OW 7097   0.971   1.810   2.679  0.7973 -0.2895  0.1129
 1763SOL    HW2 7098   1.026   1.868   2.626  0.9569 -1.6327 -1.2552
 1763SOL    HW3 7099   0.902   1.782   2.619 -1.0535  0.9125  1.6575
 1763SOL    MW4 7100   0.969   1.814   2.664  0.5741 -0.3082  0.1361
 1764SOL     OW 7101   1.131   3.098   3.854 -0.6140 -0.4386  0.0902
 1764SOL    HW2 7102   1.077   3.029   3.816  0.6188 -0.3622 -1.8331
 1764SOL    HW3 7103   1.070   3.169   3.872 -1.8212 -1.8385  1.6980
 1764SOL    MW4 7104   1.116   3.098   3.852 -0.6106 -0.6132  0.0486
 1765SOL     OW 7105   2.567   1.534   2.867  0.4815  0.2106 -0.0279
 1765SOL    HW2 7106   2.493   1.475   2.886  0.4313 -0.2744 -1.6299
 1765SOL    HW3 7107   2.582   1.581   2.949 -0.6167 -0.7884  0.7670
 1765SOL    MW4 7108   2.559   1.532   2.880  0.3302  0.0149 -0.1347
 1766SOL     OW 7109   3.733   3.402   3.046  0.6509  0.1691 -0.0446
 1766SOL    HW2 7110   3.728   3.436   2.956 -2.6476  0.0253  0.0083
 1766SOL    HW3 7111   3.645   3.415   3.081  0.7090 -3.5230  1.7695
 1766SOL    MW4 7112   3.721   3.408   3.038  0.2234 -0.3369  0.2019
 1767SOL     OW 7113   0.985   2.302   1.209  0.1503 -0.3292  0.0260
 1767SOL    HW2 7114   0.969   2.231   1.271  1.2372 -0.3311  0.3123
 1767SOL    HW3 7115   1.034   2.261   1.138 -2.2425 -0.6414 -1.5305
 1767SOL    MW4 7116   0.989   2.287   1.208 -0.0221 -0.3705 -0.1417
 1768SOL     OW 7117   3.327   1.536   2.422 -0.5582  0.2055  0.0928
 1768SOL    HW2 7118   3.313   1.631   2.421 -1.4014  0.0834 -1.9135
 1768SOL    HW3 7119   3.239   1.499   2.416 -0.0568 -0.6722 -2.3951
 1768SOL    MW4 7120   3.313   1.544   2.421 -0.6034  0.0737 -0.5002
 1769SOL     OW 7121   4.180   2.575   2.489  0.0556  0.0058 -0.0920
 1769SOL    HW2 7122   4.086   2.574   2.508 -0.0974  0.4923 -0.7779
 1769SOL    HW3 7123   4.222   2.568   2.574 -0.6097  0.4012  0.2780
 1769SOL    MW4 7124   4.173   2.574   2.503 -0.0529  0.1223 -0.1338
 1770SOL     OW 7125   3.638   3.394   1.540  0.0650 -0.2141  0.0053
 1770SOL    HW2 7126   3.725   3.370   1.507  0.2873  1.9766 -1.0327
 1770SOL    HW3 7127   3.580   3.385   1.465 -0.3478 -0.1519  0.3151
 1770SOL    MW4 7128   3.642   3.389   1.526  0.0398  0.0834 -0.0908
 1771SOL     OW 7129   2.552   0.733   0.696 -0.2342 -0.0769  0.7448
 1771SOL    HW2 7130   2.640   0.697   0.693 -0.8789 -1.6596  0.1829
 1771SOL    HW3 7131   2.495   0.657   0.708 -1.6779  0.6303 -1.2827
 1771SOL    MW4 7132   2.556   0.718   0.697 -0.5097 -0.1924  0.4032
 1772SOL     OW 7133   4.057   1.768   3.279  0.0029 -0.4659 -0.3109
 1772SOL    HW2 7134   4.017   1.682   3.269 -0.5286 -0.1752 -0.7244
 1772SOL    HW3 7135   4.071   1.798   3.190  1.5366 -0.7395 -0.1719
 1772SOL    MW4 7136   4.054   1.761   3.266  0.1349 -0.4636 -0.3471
 1773SOL     OW 7137   2.826   1.855   2.126 -0.1038 -0.7007  0.3275
 1773SOL    HW2 7138   2.888   1.851   2.200  0.1928 -2.2386  0.0284
 1773SOL    HW3 7139   2.750   1.806   2.156 -0.6020 -0.0103  0.1790
 1773SOL    MW4 7140   2.824   1.848   2.140 -0.1307 -0.8125  0.2685
 1774SOL     OW 7141   2.387   1.954   2.894  0.6126  0.0348 -0.3316
 1774SOL    HW2 7142   2.465   1.922   2.849  1.2514  0.6947  0.2881
 1774SOL    HW3 7143   2.414   1.959   2.986 -0.4566 -0.6409  0.0246
 1774SOL    MW4 7144   2.401   1.950   2.900  0.5560  0.0327 -0.2027
 1775SOL     OW 7145   2.866   2.037   4.322 -0.7265  0.1496  0.2426
 1775SOL    HW2 7146   2.807   2.001   4.388 -2.9977 -0.6700 -2.1487
 1775SOL    HW3 7147   2.933   1.970   4.311  0.1915  0.6937  2.3365
 1775SOL    MW4 7148   2.867   2.023   4.329 -0.9050  0.1135  0.2036
 1776SOL     OW 7149   0.100   2.911   3.365 -0.3270  0.5260  0.4075
 1776SOL    HW2 7150   0.171   2.919   3.301 -1.1075  0.5424 -0.4789
 1776SOL    HW3 7151   0.064   2.824   3.350 -2.2827  1.5457 -1.0766
 1776SOL    MW4 7152   0.104   2.901   3.354 -0.6880  0.6628  0.0947
 1777SOL     OW 7153   2.237   2.547   3.470 -0.3687 -0.1022  0.3999
 1777SOL    HW2 7154   2.241   2.597   3.551 -0.0565 -0.4885  0.6232
 1777SOL    HW3 7155   2.177   2.475   3.490 -1.1848  0.4444 -0.0647
 1777SOL    MW4 7156   2.229   2.544   3.483 -0.4354 -0.0811  0.3681
 1778SOL     OW 7157   3.479   2.575   2.182 -0.3603 -0.3916 -0.6144
 1778SOL    HW2 7158   3.518   2.517   2.247  0.2330  0.0908 -0.5352
 1778SOL    HW3 7159   3.484   2.662   2.222 -0.9232 -0.2401 -0.8790
 1778SOL    MW4 7160   3.485   2.579   2.196 -0.3564 -0.3080 -0.6390
 1779SOL     OW 7161   1.834   4.570   1.595  0.1226  0.0505  0.8746
 1779SOL    HW2 7162   1.876   4.600   1.675  0.4317  2.3798 -0.1391
 1779SOL    HW3 7163   1.891   4.601   1.525  0.2172 -2.5310 -0.2612
 1779SOL    MW4 7164   1.847   4.578   1.596  0.1761  0.0172  0.5910
 1780SOL     OW 7165   1.005   2.934   0.665  0.1788  0.1528 -0.0678
 1780SOL    HW2 7166   0.965   2.951   0.580 -2.2636  2.3216  1.4708
 1780SOL    HW3 7167   0.955   2.861   0.701 -0.8384  1.2686  0.8116
 1780SOL    MW4 7168   0.993   2.926   0.659 -0.2776  0.5865  0.2512
 1781SOL     OW 7169   2.402   1.885   1.950  0.0904  0.5584  0.2553
 1781SOL    HW2 7170   2.387   1.946   2.022 -0.6594  0.1170  0.4790
 1781SOL    HW3 7171   2.392   1.937   1.871 -0.5454  0.7264  0.4457
 1781SOL    MW4 7172   2.399   1.900   1.949 -0.0923  0.5223  0.3099
 1782SOL     OW 7173   0.460   1.022   3.871  0.0020 -0.6071  0.5496
 1782SOL    HW2 7174   0.463   0.937   3.827 -0.7085 -1.1724  1.5667
 1782SOL    HW3 7175   0.437   1.084   3.802  0.1179 -1.3049 -0.1167
 1782SOL    MW4 7176   0.457   1.019   3.856 -0.0765 -0.7737  0.5958
 1783SOL     OW 7177   4.235   3.857   2.249  0.3577  0.3631  0.0306
 1783SOL    HW2 7178   4.238   3.771   2.291 -1.7619  0.3628  0.2150
 1783SOL    HW3 7179   4.244   3.838   2.155  0.9140  0.0310  0.1486
 1783SOL    MW4 7180   4.237   3.843   2.242  0.1512  0.3195  0.0708
 1784SOL     OW 7181   1.037   2.496   2.543 -0.2598 -0.6010 -0.1331
 1784SOL    HW2 7182   1.049   2.584   2.579  1.9353 -0.3263 -1.4703
 1784SOL    HW3 7183   1.050   2.437   2.617  1.0676  0.0853  0.1966
 1784SOL    MW4 7184   1.040   2.500   2.557  0.2049 -0.4745 -0.2661
 1785SOL     OW 7185   0.575   2.986   4.665  0.1243 -0.5787 -0.0433
 1785SOL    HW2 7186   0.522   2.943   4.732  1.8311 -2.4726  0.1330
 1785SOL    HW3 7187   0.519   3.056   4.631 -1.7694 -1.3415  1.4322
 1785SOL    MW4 7188   0.561   2.990   4.670  0.0997 -0.9291  0.1750
 1786SOL     OW 7189   3.142   2.777   2.607 -0.1232 -0.1343 -0.0974
 1786SOL    HW2 7190   3.091   2.857   2.606 -0.3079 -0.2443  0.6243
 1786SOL    HW3 7191   3.085   2.712   2.565 -0.3870 -0.1455  0.2827
 1786SOL    MW4 7192   3.128   2.779   2.601 -0.1822 -0.1502  0.0482
 1787SOL     OW 7193   3.275   3.693   4.566 -0.1326 -0.2659 -0.0894
 1787SOL    HW2 7194   3.268   3.714   4.472 -1.0884 -0.3051 -0.0382
 1787SOL    HW3 7195   3.328   3.763   4.603  0.4478 -0.3766 -0.7058
 1787SOL    MW4 7196   3.281   3.705   4.558 -0.1819 -0.2856 -0.1645
 1788SOL     OW 7197   1.790   3.447   3.744  0.1053 -0.4876  0.3080
 1788SOL    HW2 7198   1.703   3.479   3.769  0.2666 -0.0315  0.2903
 1788SOL    HW3 7199   1.835   3.525   3.710  0.4347 -0.7741  0.0863
 1788SOL    MW4 7200   1.784   3.462   3.743  0.1700 -0.4654  0.2766
 1789SOL     OW 7201   1.300   1.956   2.771 -0.2004  0.1890 -0.3446
 1789SOL    HW2 7202   1.245   1.884   2.802 -0.1101  0.2584 -0.0266
 1789SOL    HW3 7203   1.367   1.966   2.839 -0.2732  0.6449 -0.3404
 1789SOL    MW4 7204   1.302   1.948   2.784 -0.1981  0.2582 -0.3023
 1790SOL     OW 7205   2.776   0.659   2.267 -0.4870 -0.4975  0.1287
 1790SOL    HW2 7206   2.792   0.615   2.351  0.4760 -3.4596 -1.5435
 1790SOL    HW3 7207   2.687   0.634   2.243 -0.3636 -0.5377 -0.2832
 1790SOL    MW4 7208   2.766   0.650   2.275 -0.3436 -0.8937 -0.1464
 1791SOL     OW 7209   1.952   1.260   1.274 -0.1227 -0.8774  0.5570
 1791SOL    HW2 7210   1.922   1.206   1.201 -1.2548  0.6004 -0.0787
 1791SOL    HW3 7211   1.875   1.310   1.301  0.6318 -0.3972  1.8753
 1791SOL    MW4 7212   1.938   1.260   1.268 -0.1726 -0.6191  0.6472
 1792SOL     OW 7213   1.570   1.238   2.105  0.0318 -0.2407  0.4471
 1792SOL    HW2 7214   1.649   1.209   2.152 -0.2680 -0.6258  0.7140
 1792SOL    HW3 7215   1.591   1.225   2.013 -0.1224 -1.3497  0.5703
 1792SOL    MW4 7216   1.583   1.233   2.099 -0.0281 -0.4379  0.4985
 1793SOL     OW 7217   2.355   4.402   1.654 -0.2015  0.2345  0.1132
 1793SOL    HW2 7218   2.376   4.487   1.615 -0.3702  0.0132 -0.4595
 1793SOL    HW3 7219   2.285   4.421   1.717  0.4058  0.6691  0.6605
 1793SOL    MW4 7220   2.348   4.416   1.657 -0.1438  0.2623  0.1098
 1794SOL     OW 7221   4.141   0.722   4.041  0.2192  0.3315 -0.0943
 1794SOL    HW2 7222   4.133   0.627   4.030 -0.0719  0.3697 -0.2355
 1794SOL    HW3 7223   4.081   0.758   3.975 -1.8784  0.5793  1.8739
 1794SOL    MW4 7224   4.132   0.714   4.031 -0.0958  0.3693  0.1469
 1795SOL     OW 7225   1.310   0.060   3.059 -0.6517 -0.1760  0.0591
 1795SOL    HW2 7226   1.405   0.058   3.059 -0.6317  0.5185 -0.7297
 1795SOL    HW3 7227   1.284  -0.027   3.087  0.2171 -0.2862  0.5318
 1795SOL    MW4 7228   1.319   0.048   3.063 -0.5343 -0.0989  0.0174
 1796SOL     OW 7229   1.284   2.434   2.894 -0.1019 -0.0223  0.1880
 1796SOL    HW2 7230   1.304   2.371   2.963 -0.6734  1.0187  1.3176
 1796SOL    HW3 7231   1.188   2.440   2.894 -0.1186 -0.1688 -0.8431
 1796SOL    MW4 7232   1.274   2.427   2.903 -0.1794  0.0956  0.2010
 1797SOL     OW 7233   3.704   3.337   0.826  0.2300 -0.2457 -0.0782
 1797SOL    HW2 7234   3.787   3.298   0.799  0.8042  1.2813 -0.5467
 1797SOL    HW3 7235   3.721   3.371   0.914 -0.1701 -0.7491  0.1961
 1797SOL    MW4 7236   3.717   3.336   0.834  0.2530 -0.1106 -0.1039
 1798SOL     OW 7237   3.965   0.330   2.604 -0.2378 -0.8664 -0.3735
 1798SOL    HW2 7238   3.972   0.388   2.529  1.3741 -0.3831  0.1408
 1798SOL    HW3 7239   3.871   0.312   2.611 -0.6143  0.6485 -1.3071
 1798SOL    MW4 7240   3.953   0.335   2.595 -0.0749 -0.6028 -0.4289
 1799SOL     OW 7241   3.103   0.190   1.622  0.4668  0.1432 -0.4538
 1799SOL    HW2 7242   3.081   0.118   1.563  0.2009 -1.0625  1.1071
 1799SOL    HW3 7243   3.154   0.150   1.692 -0.1283  1.3837  0.7074
 1799SOL    MW4 7244   3.107   0.176   1.623  0.3533  0.1478 -0.0947
 1800SOL     OW 7245   2.150   2.353   4.583 -0.6065  0.1191  0.2912
 1800SOL    HW2 7246   2.196   2.412   4.524  0.7536 -1.2498 -0.0655
 1800SOL    HW3 7247   2.126   2.278   4.528 -0.4867 -0.5773  1.1625
 1800SOL    MW4 7248   2.153   2.351   4.568 -0.4115 -0.1535  0.3586
 1801SOL     OW 7249   2.367   1.552   3.692 -0.0550 -0.3469  0.5584
 1801SOL    HW2 7250   2.358   1.638   3.733 -2.0489 -0.6621  0.8241
 1801SOL    HW3 7251   2.277   1.523   3.676  0.6000 -2.1977  0.0574
 1801SOL    MW4 7252   2.354   1.559   3.695 -0.2315 -0.6326  0.5274
 1802SOL     OW 7253   1.883   2.811   4.651  0.5308  0.3286 -0.0741
 1802SOL    HW2 7254   1.879   2.720   4.680  1.1041  0.1969 -0.3869
 1802SOL    HW3 7255   1.968   2.817   4.607  0.3456  0.9275 -0.3418
 1802SOL    MW4 7256   1.894   2.799   4.649  0.5820  0.3901 -0.1507
 1803SOL     OW 7257   2.091   1.818   3.565  0.0594 -0.1804 -0.0138
 1803SOL    HW2 7258   2.050   1.828   3.480 -0.6312 -0.0070  0.3396
 1803SOL    HW3 7259   2.167   1.877   3.562 -0.3682  0.3558 -0.2437
 1803SOL    MW4 7260   2.096   1.827   3.554 -0.0885 -0.0867  0.0029
 1804SOL     OW 7261   3.875   4.225   1.221  0.5570  0.3950 -0.5873
 1804SOL    HW2 7262   3.858   4.143   1.175  3.3214 -0.0253 -0.9331
 1804SOL    HW3 7263   3.806   4.230   1.287  0.9257 -2.7352  0.1031
 1804SOL    MW4 7264   3.864   4.215   1.224  0.9701 -0.0734 -0.5417
 1805SOL     OW 7265   2.576   3.428   1.106 -0.2543 -0.3899 -0.4565
 1805SOL    HW2 7266   2.525   3.506   1.125 -0.8394 -1.1948  1.4265
 1805SOL    HW3 7267   2.665   3.450   1.135  0.0019  0.2484 -1.7193
 1805SOL    MW4 7268   2.581   3.441   1.113 -0.2978 -0.4117 -0.3747
 1806SOL     OW 7269   2.227   0.357   4.397  0.3847 -0.1719  0.6315
 1806SOL    HW2 7270   2.315   0.388   4.421  0.6418 -0.3988 -0.0048
 1806SOL    HW3 7271   2.169   0.399   4.460  0.8409  0.7339  0.4602
 1806SOL    MW4 7272   2.231   0.366   4.409  0.4787 -0.0823  0.5250
 1807SOL     OW 7273   3.409   1.874   4.407  0.5449 -0.0510  0.4502
 1807SOL    HW2 7274   3.367   1.948   4.451 -1.0060  0.0093 -1.0847
 1807SOL    HW3 7275   3.445   1.911   4.327 -0.0816 -0.9336 -0.2409
 1807SOL    MW4 7276   3.408   1.889   4.402  0.2577 -0.1594  0.1564
 1808SOL     OW 7277   0.316   0.643   1.682  0.1948 -0.1707 -0.0576
 1808SOL    HW2 7278   0.322   0.605   1.594 -1.9502 -0.5063 -0.0793
 1808SOL    HW3 7279   0.250   0.590   1.726  1.2165  0.0325  1.7632
 1808SOL    MW4 7280   0.308   0.631   1.676  0.0466 -0.1881  0.1796
 1809SOL     OW 7281   1.101   2.276   0.582  0.1401 -0.1210 -0.1619
 1809SOL    HW2 7282   1.036   2.343   0.602 -0.4423 -1.4025  2.5778
 1809SOL    HW3 7283   1.058   2.219   0.518 -0.7495  0.1255  0.2018
 1809SOL    MW4 7284   1.087   2.277   0.576 -0.0541 -0.2575  0.2475
 1810SOL     OW 7285   3.140   1.907   0.883 -0.2879  0.6267 -0.2286
 1810SOL    HW2 7286   3.055   1.951   0.888 -0.0478  1.1170 -0.4289
 1810SOL    HW3 7287   3.204   1.977   0.892  0.0976  0.1979  0.4323
 1810SOL    MW4 7288   3.138   1.922   0.885 -0.2050  0.6349 -0.1679
 1811SOL     OW 7289   3.890   3.709   1.620  0.0211  0.2887  0.2659
 1811SOL    HW2 7290   3.949   3.640   1.653  1.7761  1.0675 -1.1507
 1811SOL    HW3 7291   3.946   3.763   1.564 -2.4698 -0.0441 -2.6678
 1811SOL    MW4 7292   3.905   3.707   1.617 -0.0763  0.3476 -0.3080
 1812SOL     OW 7293   4.228   0.690   1.169  0.3939  0.0575  0.2027
 1812SOL    HW2 7294   4.157   0.750   1.144  0.0727 -0.3087  0.2297
 1812SOL    HW3 7295   4.255   0.649   1.087 -0.3784 -0.8352  0.3755
 1812SOL    MW4 7296   4.222   0.692   1.155  0.2499 -0.1086  0.2290
 1813SOL     OW 7297   1.168   0.853   1.282  0.3972 -0.2138  0.3268
 1813SOL    HW2 7298   1.169   0.945   1.255 -0.5540  0.4304  2.3716
 1813SOL    HW3 7299   1.114   0.809   1.216  1.2089  0.5776 -0.9023
 1813SOL    MW4 7300   1.161   0.859   1.270  0.3788 -0.0244  0.4344
 1814SOL     OW 7301   4.340   1.073   4.357  0.4150  0.0043 -0.4745
 1814SOL    HW2 7302   4.374   1.158   4.331  1.6359 -0.5538 -0.7160
 1814SOL    HW3 7303   4.359   1.015   4.283 -1.5296 -0.2110 -0.8476
 1814SOL    MW4 7304   4.347   1.076   4.344  0.3195 -0.0978 -0.5555
 1815SOL     OW 7305   2.980   2.343   1.924 -0.0498  0.0895  0.0090
 1815SOL    HW2 7306   2.989   2.418   1.866  1.0938  0.4405  0.6179
 1815SOL    HW3 7307   3.069   2.311   1.935 -0.5813 -1.5882 -0.5307
 1815SOL    MW4 7308   2.993   2.349   1.918  0.0310 -0.0856  0.0180
 1816SOL     OW 7309   2.092   0.539   0.710 -0.5101  0.1306  0.2519
 1816SOL    HW2 7310   2.046   0.607   0.661 -1.1059 -1.0370 -0.8579
 1816SOL    HW3 7311   2.043   0.459   0.691  1.7293 -1.0802 -0.6308
 1816SOL    MW4 7312   2.080   0.537   0.701 -0.2933 -0.1832 -0.0110
 1817SOL     OW 7313   1.945   1.745   1.195  0.6864  1.0464 -0.0358
 1817SOL    HW2 7314   1.908   1.717   1.279  2.2566 -0.1513  0.2853
 1817SOL    HW3 7315   1.931   1.840   1.193 -1.7762  0.7448  0.3497
 1817SOL    MW4 7316   1.938   1.754   1.206  0.5686  0.8485  0.0575
 1818SOL     OW 7317   3.724   3.892   2.697  0.3498  0.6325 -0.2073
 1818SOL    HW2 7318   3.633   3.919   2.687 -0.0952 -0.4602  0.7233
 1818SOL    HW3 7319   3.746   3.915   2.787  0.6159 -0.1857 -0.0576
 1818SOL    MW4 7320   3.715   3.898   2.708  0.3262  0.3803 -0.0646
 1819SOL     OW 7321   3.660   0.363   1.192  0.1118 -0.3505  0.0564
 1819SOL    HW2 7322   3.598   0.399   1.129 -0.4981 -0.2811  0.6912
 1819SOL    HW3 7323   3.654   0.421   1.268  0.7727 -0.4845  0.2147
 1819SOL    MW4 7324   3.651   0.375   1.194  0.1187 -0.3590  0.1609
 1820SOL     OW 7325   3.573   1.864   1.157  0.1552  0.1367  0.2881
 1820SOL    HW2 7326   3.593   1.775   1.183  0.8814 -0.1749 -1.2943
 1820SOL    HW3 7327   3.481   1.862   1.132 -0.3973  0.3141  2.2327
 1820SOL    MW4 7328   3.564   1.852   1.157  0.1783  0.1189  0.3358
 1821SOL     OW 7329   0.375   0.596   2.178  0.3460 -0.0050  0.1759
 1821SOL    HW2 7330   0.396   0.620   2.088 -0.6977  0.2030 -0.0254
 1821SOL    HW3 7331   0.459   0.578   2.219  0.8300 -0.0570 -0.8316
 1821SOL    MW4 7332   0.389   0.597   2.172  0.2722  0.0157  0.0165
 1822SOL     OW 7333   1.654   3.896   3.488  0.3460  0.4484 -0.0227
 1822SOL    HW2 7334   1.716   3.903   3.560  0.5733 -1.0006 -0.0660
 1822SOL    HW3 7335   1.586   3.836   3.519 -0.2949  0.9217 -0.4898
 1822SOL    MW4 7336   1.653   3.889   3.501  0.2912  0.3197 -0.0901
 1823SOL     OW 7337   3.960   3.096   1.534  0.3655  0.3262  0.2936
 1823SOL    HW2 7338   3.913   3.078   1.616 -0.7766 -2.2341 -0.8884
 1823SOL    HW3 7339   3.908   3.164   1.491 -1.1786 -1.0629 -0.0719
 1823SOL    MW4 7340   3.947   3.103   1.539  0.0114 -0.1948  0.0894
 1824SOL     OW 7341   2.246   2.269   1.920  0.0230  0.2641  0.5532
 1824SOL    HW2 7342   2.246   2.347   1.863 -0.1285  0.1206  0.3560
 1824SOL    HW3 7343   2.275   2.302   2.005 -1.4263  0.8112  0.8385
 1824SOL    MW4 7344   2.250   2.284   1.924 -0.1881  0.3171  0.5648
 1825SOL     OW 7345   2.386   2.231   0.533 -0.2526 -0.3218 -0.1061
 1825SOL    HW2 7346   2.302   2.275   0.523 -0.4607 -0.8948 -1.0010
 1825SOL    HW3 7347   2.370   2.141   0.502  0.3785 -0.7769  0.8604
 1825SOL    MW4 7348   2.373   2.225   0.527 -0.1969 -0.4573 -0.0966
 1826SOL     OW 7349   0.386   1.146   4.508 -0.1680  0.6113  0.5060
 1826SOL    HW2 7350   0.326   1.157   4.434  1.3527 -0.4718 -0.9170
 1826SOL    HW3 7351   0.358   1.064   4.550 -0.8132  1.0462  0.9267
 1826SOL    MW4 7352   0.374   1.136   4.504 -0.0525  0.5257  0.3734
 1827SOL     OW 7353   0.094   2.721   1.792  0.1235  0.4605 -0.1519
 1827SOL    HW2 7354   0.140   2.700   1.711 -0.5530 -2.4291  0.1698
 1827SOL    HW3 7355   0.003   2.735   1.765  0.2811  1.5401 -0.1500
 1827SOL    MW4 7356   0.088   2.720   1.778  0.0551  0.2220 -0.1091
 1828SOL     OW 7357   2.217   0.457   1.865 -0.1104  0.3609  0.0206
 1828SOL    HW2 7358   2.154   0.499   1.807  0.2615 -0.9212 -1.3447
 1828SOL    HW3 7359   2.264   0.530   1.907  0.3615  1.3109 -2.1043
 1828SOL    MW4 7360   2.215   0.472   1.863  0.0010  0.3171 -0.4399
 1829SOL     OW 7361   2.081   3.005   2.891  0.0296  0.1569 -0.2499
 1829SOL    HW2 7362   2.102   2.929   2.945  1.0464  0.7848  0.2460
 1829SOL    HW3 7363   2.161   3.057   2.889 -0.3452  0.7212 -1.4165
 1829SOL    MW4 7364   2.094   3.002   2.898  0.1142  0.3138 -0.3386
 1830SOL     OW 7365   2.635   3.731   1.314 -0.0915 -0.2693 -0.5691
 1830SOL    HW2 7366   2.575   3.708   1.243  0.0756  0.4702 -0.9597
 1830SOL    HW3 7367   2.669   3.818   1.290 -0.0075 -0.0228  0.3943
 1830SOL    MW4 7368   2.632   3.740   1.301 -0.0584 -0.1392 -0.4936
 1831SOL     OW 7369   3.088   0.357   3.264  0.0768  0.0984 -0.2579
 1831SOL    HW2 7370   3.164   0.332   3.211  0.1584  1.0295 -0.5970
 1831SOL    HW3 7371   3.025   0.287   3.250  1.0545 -0.9386  0.4146
 1831SOL    MW4 7372   3.090   0.345   3.255  0.2167  0.0844 -0.2139
 1832SOL     OW 7373   3.727   4.576   1.126 -0.4944 -0.0723 -0.4825
 1832SOL    HW2 7374   3.777   4.629   1.187  0.7449 -0.8096 -0.8445
 1832SOL    HW3 7375   3.734   4.622   1.042 -0.1970 -0.3078 -0.5891
 1832SOL    MW4 7376   3.734   4.589   1.123 -0.2916 -0.2007 -0.5443
 1833SOL     OW 7377   0.392   3.647   1.758  1.2125 -0.3917  0.3336
 1833SOL    HW2 7378   0.316   3.665   1.703  0.2484  0.9794  2.0589
 1833SOL    HW3 7379   0.430   3.567   1.721  0.7814  0.6183 -2.4866
 1833SOL    MW4 7380   0.387   3.639   1.746  1.0285 -0.0775  0.1891
 1834SOL     OW 7381   3.585   0.964   3.769  0.3264  0.4494  0.2585
 1834SOL    HW2 7382   3.561   0.919   3.850 -1.9581  0.4977 -0.3491
 1834SOL    HW3 7383   3.652   0.908   3.729  0.0947 -0.5481  1.2471
 1834SOL    MW4 7384   3.591   0.950   3.774 -0.0057  0.3241  0.3088
 1835SOL     OW 7385   3.986   3.637   3.856  0.1889 -0.1296 -0.3423
 1835SOL    HW2 7386   4.031   3.682   3.784  1.0211 -1.3108 -0.5788
 1835SOL    HW3 7387   4.012   3.545   3.846  1.3946 -0.0952  2.2974
 1835SOL    MW4 7388   3.995   3.630   3.845  0.4575 -0.2806 -0.0255
 1836SOL     OW 7389   1.541   0.127   1.752 -0.1584 -0.8971  0.5224
 1836SOL    HW2 7390   1.613   0.184   1.724 -1.3550 -0.5151 -1.9142
 1836SOL    HW3 7391   1.474   0.187   1.784 -0.8097 -1.0139 -0.6065
 1836SOL    MW4 7392   1.542   0.142   1.752 -0.4020 -0.8621  0.0520
 1837SOL     OW 7393   3.191   0.522   1.943  0.7178  0.2339 -0.3722
 1837SOL    HW2 7394   3.111   0.529   1.994  0.1471 -0.6021 -1.1304
 1837SOL    HW3 7395   3.203   0.609   1.905  1.3949  0.9900  1.5105
 1837SOL    MW4 7396   3.182   0.535   1.944  0.7319  0.2234 -0.2239
 1838SOL     OW 7397   3.723   2.245   1.957 -0.1235  0.0057 -0.0235
 1838SOL    HW2 7398   3.651   2.215   2.013 -0.8756  0.4370 -0.7521
 1838SOL    HW3 7399   3.714   2.340   1.956  0.9118  0.1090  0.4852
 1838SOL    MW4 7400   3.712   2.253   1.964 -0.0865  0.0763 -0.0526
 1839SOL     OW 7401   4.112   2.233   0.696 -0.2583  0.3419 -0.1079
 1839SOL    HW2 7402   4.075   2.149   0.725  0.0402  0.4280  0.5435
 1839SOL    HW3 7403   4.203   2.230   0.725  0.0893  0.3721 -1.1916
 1839SOL    MW4 7404   4.119   2.221   0.704 -0.1726  0.3574 -0.1650
 1840SOL     OW 7405   4.282   1.887   1.601  0.1981 -0.3578  0.1275
 1840SOL    HW2 7406   4.188   1.875   1.588 -0.1178  1.2743  0.7718
 1840SOL    HW3 7407   4.303   1.832   1.677 -0.1468 -1.0306 -0.2586
 1840SOL    MW4 7408   4.272   1.878   1.609  0.1106 -0.2311  0.1615
 1841SOL     OW 7409   3.354   4.109   3.709  0.3783  0.1450  0.2430
 1841SOL    HW2 7410   3.441   4.084   3.677 -0.0315  0.8855 -1.5239
 1841SOL    HW3 7411   3.371   4.176   3.775  1.1326  1.0645 -0.8532
 1841SOL    MW4 7412   3.367   4.115   3.713  0.4237  0.3638 -0.1345
 1842SOL     OW 7413   3.232   1.669   0.751 -0.1928 -0.1377 -0.4199
 1842SOL    HW2 7414   3.197   1.756   0.769 -1.8374 -0.5197 -1.6332
 1842SOL    HW3 7415   3.306   1.684   0.692  0.3381  0.5267  0.4116
 1842SOL    MW4 7416   3.237   1.683   0.746 -0.3397 -0.1005 -0.4703
 1843SOL     OW 7417   1.249   4.451   3.086  0.3428 -0.5032  0.2049
 1843SOL    HW2 7418   1.209   4.435   3.000 -0.9947 -1.3199  0.9718
 1843SOL    HW3 7419   1.335   4.408   3.081 -0.1762 -1.4925 -0.3540
 1843SOL    MW4 7420   1.255   4.443   3.074  0.0979 -0.7415  0.2322
 1844SOL     OW 7421   1.728   3.490   4.306  0.3758 -0.2471 -0.4480
 1844SOL    HW2 7422   1.751   3.466   4.396  1.6335  0.5700 -0.5387
 1844SOL    HW3 7423   1.636   3.517   4.311 -0.2702 -2.5033  0.1340
 1844SOL    MW4 7424   1.719   3.491   4.319  0.4565 -0.4368 -0.3829
 1845SOL     OW 7425   3.904   1.773   2.863  0.4533  0.2904  0.2018
 1845SOL    HW2 7426   3.850   1.697   2.843  1.3575 -0.4034  0.3916
 1845SOL    HW3 7427   3.863   1.845   2.814 -1.9569  0.2725  2.1247
 1845SOL    MW4 7428   3.891   1.773   2.854  0.2549  0.1963  0.4804
 1846SOL     OW 7429   3.433   2.687   4.052 -0.0475 -0.0529  0.1018
 1846SOL    HW2 7430   3.451   2.687   4.146 -0.2003 -0.0896  0.1315
 1846SOL    HW3 7431   3.363   2.623   4.041  0.8111 -0.9431 -0.1993
 1846SOL    MW4 7432   3.426   2.679   4.063  0.0458 -0.1755  0.0663
 1847SOL     OW 7433   1.940   2.417   3.505 -0.0090 -0.2530 -0.2635
 1847SOL    HW2 7434   1.912   2.491   3.559 -0.2465 -0.3497 -0.2536
 1847SOL    HW3 7435   1.967   2.350   3.568 -2.3160 -1.1791 -0.1930
 1847SOL    MW4 7436   1.940   2.418   3.521 -0.3448 -0.3881 -0.2527
 1848SOL     OW 7437   2.584   1.803   1.436  0.1299  0.1448 -0.0749
 1848SOL    HW2 7438   2.495   1.772   1.449 -0.0987  0.8323  0.0404
 1848SOL    HW3 7439   2.637   1.752   1.498  0.2286 -2.1254 -1.9599
 1848SOL    MW4 7440   2.579   1.792   1.446  0.1128 -0.0640 -0.3084
 1849SOL     OW 7441   3.805   2.163   0.900 -0.1004  0.4171 -0.0785
 1849SOL    HW2 7442   3.758   2.238   0.937  0.9651  0.4353  1.2828
 1849SOL    HW3 7443   3.813   2.102   0.973  2.0448  0.4610 -0.2457
 1849SOL    MW4 7444   3.800   2.165   0.914  0.3231  0.4256  0.0791
 1850SOL     OW 7445   3.075   3.756   2.117 -0.0412 -0.2633 -0.0305
 1850SOL    HW2 7446   3.005   3.772   2.053 -0.4902  0.5425  0.6697
 1850SOL    HW3 7447   3.034   3.702   2.185  0.3884 -0.9583 -0.3078
 1850SOL    MW4 7448   3.061   3.751   2.117 -0.0436 -0.2487  0.0253
 1851SOL     OW 7449   3.869   3.548   3.556  0.2784  0.4280  0.1779
 1851SOL    HW2 7450   3.810   3.536   3.630 -0.5585  0.7446 -0.4233
 1851SOL    HW3 7451   3.827   3.500   3.484  1.3782 -0.3767  0.0528
 1851SOL    MW4 7452   3.856   3.540   3.556  0.3133  0.3638  0.0820
 1852SOL     OW 7453   2.937   1.776   2.393 -0.6028  0.2233 -0.1897
 1852SOL    HW2 7454   2.873   1.812   2.454 -1.5659 -1.0083 -0.4468
 1852SOL    HW3 7455   3.009   1.839   2.393 -0.9877  0.6844  1.5160
 1852SOL    MW4 7456   2.938   1.789   2.401 -0.7806  0.1216  0.0012
 1853SOL     OW 7457   1.329   0.768   0.782  0.0830 -0.2080  0.2656
 1853SOL    HW2 7458   1.394   0.727   0.725 -0.1068 -1.4349  0.9054
 1853SOL    HW3 7459   1.379   0.796   0.859  0.1795  0.5913 -0.0879
 1853SOL    MW4 7460   1.345   0.766   0.784  0.0707 -0.2643  0.3034
 1854SOL     OW 7461   0.695   1.317   3.636  0.5455  0.2044  0.0140
 1854SOL    HW2 7462   0.693   1.334   3.542  0.3122  0.2260  0.0238
 1854SOL    HW3 7463   0.735   1.396   3.673 -1.0812  0.9978  0.1143
 1854SOL    MW4 7464   0.700   1.330   3.629  0.3000  0.3119  0.0286
 1855SOL     OW 7465   0.986   3.067   2.668  0.1729  0.3669  0.7490
 1855SOL    HW2 7466   1.067   3.083   2.715  0.9327 -1.0451 -0.0500
 1855SOL    HW3 7467   0.971   2.972   2.676 -0.3661  0.3112 -0.7341
 1855SOL    MW4 7468   0.995   3.056   2.675  0.2021  0.1731  0.4480
 1856SOL     OW 7469   3.830   2.126   0.295 -0.2933  0.1201  0.3475
 1856SOL    HW2 7470   3.835   2.047   0.349 -2.2200 -1.3578 -1.5385
 1856SOL    HW3 7471   3.745   2.164   0.316  0.1499  1.0717  0.4204
 1856SOL    MW4 7472   3.820   2.120   0.305 -0.4892  0.0505  0.1083
 1857SOL     OW 7473   2.279   2.273   3.637  0.6304 -0.1161  0.2278
 1857SOL    HW2 7474   2.310   2.194   3.593  1.2172 -0.7281  1.7013
 1857SOL    HW3 7475   2.191   2.251   3.667  0.0455  0.4619 -1.0118
 1857SOL    MW4 7476   2.271   2.260   3.635  0.6306 -0.1206  0.2589
 1858SOL     OW 7477   2.950   2.034   3.851  0.1962 -0.6248 -0.3323
 1858SOL    HW2 7478   2.893   2.057   3.924  0.2723 -2.2747  0.2788
 1858SOL    HW3 7479   2.905   2.067   3.774 -0.3104  0.3764  0.3885
 1858SOL    MW4 7480   2.936   2.041   3.851  0.1395 -0.7102 -0.1566
 1859SOL     OW 7481   0.322   1.714   4.278  0.1072  0.6867 -0.5044
 1859SOL    HW2 7482   0.309   1.623   4.304 -0.3904  1.1010  0.7174
 1859SOL    HW3 7483   0.234   1.747   4.260  0.0234  1.6620  1.5939
 1859SOL    MW4 7484   0.309   1.706   4.279  0.0304  0.8701 -0.0663
 1860SOL     OW 7485   1.069   1.216   4.244 -0.4640  0.0848 -0.4192
 1860SOL    HW2 7486   0.974   1.226   4.249 -0.2164  3.6621 -1.4358
 1860SOL    HW3 7487   1.092   1.246   4.156  1.5738 -1.0893 -0.3221
 1860SOL    MW4 7488   1.060   1.221   4.233 -0.1625  0.4020 -0.5403
 1861SOL     OW 7489   2.768   1.315   2.171  0.3625  0.0971  0.5897
 1861SOL    HW2 7490   2.787   1.395   2.220  0.3379  0.3474  0.1930
 1861SOL    HW3 7491   2.702   1.269   2.224  0.3474  0.3585  0.7955
 1861SOL    MW4 7492   2.762   1.319   2.185  0.3572  0.1647  0.5646
 1862SOL     OW 7493   3.978   2.355   3.687  0.0410 -0.1605 -0.3331
 1862SOL    HW2 7494   3.932   2.315   3.760  2.2166 -1.4215  0.3942
 1862SOL    HW3 7495   3.961   2.449   3.697 -1.8385 -0.5531  0.2510
 1862SOL    MW4 7496   3.970   2.362   3.698  0.0803 -0.3788 -0.1597
 1863SOL     OW 7497   1.038   3.483   4.568  0.4064 -0.0583  0.0141
 1863SOL    HW2 7498   0.965   3.542   4.586  0.8491  0.4445  0.1827
 1863SOL    HW3 7499   1.025   3.456   4.477 -0.4196 -0.5905  0.2842
 1863SOL    MW4 7500   1.027   3.487   4.558  0.3557 -0.0622  0.0720
 1864SOL     OW 7501   1.324   4.546   4.086  0.5593 -0.0735 -0.0684
 1864SOL    HW2 7502   1.336   4.534   4.180  0.3012  1.1716  0.1357
 1864SOL    HW3 7503   1.369   4.471   4.046  1.3084 -0.2180  1.0148
 1864SOL    MW4 7504   1.332   4.535   4.093  0.6242  0.0720  0.1011
 1865SOL     OW 7505   3.540   0.847   4.037  0.0394 -0.4611  0.5325
 1865SOL    HW2 7506   3.566   0.889   4.119  1.5275  0.9020 -0.6093
 1865SOL    HW3 7507   3.486   0.773   4.064  1.6982 -0.8862  2.8203
 1865SOL    MW4 7508   3.537   0.843   4.051  0.4549 -0.3374  0.6838
 1866SOL     OW 7509   2.869   3.499   0.685  0.3865 -0.4624  0.2853
 1866SOL    HW2 7510   2.872   3.562   0.757  1.9488 -1.1254  0.8091
 1866SOL    HW3 7511   2.939   3.525   0.627  0.5139 -1.2251  0.0876
 1866SOL    MW4 7512   2.878   3.511   0.687  0.6092 -0.6504  0.3284
 1867SOL     OW 7513   1.760   0.627   3.777  0.4243  0.4862  0.6534
 1867SOL    HW2 7514   1.725   0.538   3.770 -2.1510  1.5533 -0.8348
 1867SOL    HW3 7515   1.753   0.662   3.688  0.9003  2.3615  1.3377
 1867SOL    MW4 7516   1.755   0.620   3.765  0.1475  0.8744  0.5476
 1868SOL     OW 7517   3.012   3.447   1.912 -1.1349 -0.0270  0.5518
 1868SOL    HW2 7518   3.010   3.368   1.857  0.1361  0.0597  0.3535
 1868SOL    HW3 7519   3.104   3.474   1.911 -1.6353  1.7274  0.2254
 1868SOL    MW4 7520   3.024   3.440   1.904 -1.0333  0.2160  0.4826
 1869SOL     OW 7521   0.393   0.357   1.889  0.1841  1.0885 -0.2001
 1869SOL    HW2 7522   0.322   0.378   1.828  1.4863  0.1252 -2.0685
 1869SOL    HW3 7523   0.348   0.321   1.966 -1.4086  1.3098 -1.0093
 1869SOL    MW4 7524   0.377   0.355   1.891  0.1458  0.9906 -0.5533
 1870SOL     OW 7525   2.610   4.416   3.927 -0.1047 -0.4087 -0.1918
 1870SOL    HW2 7526   2.555   4.355   3.976 -0.3429 -0.0316  0.0121
 1870SOL    HW3 7527   2.561   4.434   3.847 -1.9107  2.5833  1.4947
 1870SOL    MW4 7528   2.596   4.410   3.923 -0.3746  0.0353  0.0579
 1871SOL     OW 7529   0.810   4.014   3.015  0.1621 -0.2085  0.0063
 1871SOL    HW2 7530   0.887   4.045   2.968  0.0102 -1.0173 -0.7708
 1871SOL    HW3 7531   0.736   4.036   2.958  0.0344 -1.8300 -0.4822
 1871SOL    MW4 7532   0.811   4.021   3.001  0.1253 -0.5288 -0.1607
 1872SOL     OW 7533   1.043   1.999   3.509  0.2967 -0.3138 -0.3409
 1872SOL    HW2 7534   1.096   1.981   3.586 -0.2526 -0.9408 -0.1067
 1872SOL    HW3 7535   1.085   1.949   3.439  0.8972  0.3926 -0.4980
 1872SOL    MW4 7536   1.056   1.990   3.510  0.3035 -0.3033 -0.3309
 1873SOL     OW 7537   1.162   4.242   4.360  0.3332 -0.0675 -0.3282
 1873SOL    HW2 7538   1.112   4.322   4.380  1.4191  0.5507 -0.0579
 1873SOL    HW3 7539   1.151   4.230   4.266  1.0805  1.0373 -0.5655
 1873SOL    MW4 7540   1.154   4.251   4.350  0.5749  0.1597 -0.3238
 1874SOL     OW 7541   4.462   1.611   1.428  0.2579  0.5250  0.1448
 1874SOL    HW2 7542   4.489   1.582   1.340  0.0225  0.6870  0.0189
 1874SOL    HW3 7543   4.489   1.540   1.486  0.3397  0.3793 -0.0708
 1874SOL    MW4 7544   4.469   1.598   1.424  0.2379  0.5270  0.0998
 1875SOL     OW 7545   3.872   1.541   3.209  0.2920  0.1331  0.0479
 1875SOL    HW2 7546   3.827   1.460   3.183 -1.5555  0.7846  1.1572
 1875SOL    HW3 7547   3.824   1.611   3.165 -0.1357  0.8826  1.6659
 1875SOL    MW4 7548   3.860   1.539   3.200 -0.0083  0.3181  0.4079
 1876SOL     OW 7549   1.613   2.520   3.384  0.3491 -0.0152 -0.0726
 1876SOL    HW2 7550   1.687   2.460   3.391  0.5796  0.1986 -0.6353
 1876SOL    HW3 7551   1.539   2.464   3.360 -0.0233 -0.4592  1.9783
 1876SOL    MW4 7552   1.613   2.504   3.382  0.3303 -0.0458  0.1237
 1877SOL     OW 7553   1.295   0.671   3.086 -0.4149  0.4815 -0.4791
 1877SOL    HW2 7554   1.326   0.592   3.128  2.7478  1.7570 -0.2760
 1877SOL    HW3 7555   1.226   0.704   3.144  0.2174 -0.5984  0.9075
 1877SOL    MW4 7556   1.290   0.665   3.099  0.0858  0.5073 -0.2692
 1878SOL     OW 7557   3.333   4.372   4.170  0.3215 -0.4230  0.3719
 1878SOL    HW2 7558   3.383   4.319   4.232  1.0622  1.3374  1.3242
 1878SOL    HW3 7559   3.249   4.387   4.215  0.3381 -0.3131  0.3671
 1878SOL    MW4 7560   3.328   4.367   4.184  0.4215 -0.1769  0.4969
 1879SOL     OW 7561   0.072   4.333   2.531 -0.0365 -0.5684  0.1078
 1879SOL    HW2 7562   0.104   4.253   2.572  1.7403  0.5050  0.8516
 1879SOL    HW3 7563   0.007   4.303   2.467  1.4355 -2.6804 -0.4181
 1879SOL    MW4 7564   0.067   4.318   2.528  0.3922 -0.7052  0.1366
 1880SOL     OW 7565   1.357   2.155   0.367 -0.2183  0.6357 -0.2764
 1880SOL    HW2 7566   1.297   2.087   0.399 -0.6236  0.3725 -1.5446
 1880SOL    HW3 7567   1.349   2.226   0.430 -0.4510 -0.1546  0.5917
 1880SOL    MW4 7568   1.348   2.155   0.379 -0.3026  0.4966 -0.3292
 1881SOL     OW 7569   2.342   2.190   2.492 -0.0229 -0.7282  0.2423
 1881SOL    HW2 7570   2.406   2.119   2.492  0.5937 -0.1871 -0.4500
 1881SOL    HW3 7571   2.334   2.216   2.583 -0.6981 -2.0800  0.5797
 1881SOL    MW4 7572   2.350   2.184   2.504 -0.0308 -0.8352  0.1955
 1882SOL     OW 7573   4.134   3.466   1.426 -0.2676  0.7331  0.0491
 1882SOL    HW2 7574   4.225   3.443   1.407 -0.6143 -0.9355  0.2625
 1882SOL    HW3 7575   4.132   3.478   1.521  0.0189  2.1560 -0.1234
 1882SOL    MW4 7576   4.145   3.464   1.436 -0.2751  0.7007  0.0546
 1883SOL     OW 7577   3.312   3.797   2.465 -0.1067  0.2020  0.1491
 1883SOL    HW2 7578   3.224   3.811   2.500 -0.0892  1.1130 -0.1431
 1883SOL    HW3 7579   3.369   3.841   2.527 -0.0180  1.2311 -0.6528
 1883SOL    MW4 7580   3.308   3.805   2.477 -0.0930  0.4582  0.0045
 1884SOL     OW 7581   1.895   3.223   3.620  0.1460  0.0224  0.2289
 1884SOL    HW2 7582   1.860   3.305   3.655  1.3133  0.3604  0.6100
 1884SOL    HW3 7583   1.990   3.230   3.632  0.3677 -0.8087 -0.9820
 1884SOL    MW4 7584   1.903   3.235   3.626  0.3293 -0.0427  0.1194
 1885SOL     OW 7585   2.235   0.244   2.236  0.1759 -0.1269  0.4226
 1885SOL    HW2 7586   2.185   0.324   2.218 -0.7175 -0.9730 -0.9996
 1885SOL    HW3 7587   2.324   0.274   2.250 -0.0919  1.1039 -0.4027
 1885SOL    MW4 7588   2.240   0.259   2.235  0.0226 -0.0762  0.1264
 1886SOL     OW 7589   3.930   0.390   3.718 -0.0024 -0.3233  0.4734
 1886SOL    HW2 7590   3.852   0.387   3.773 -0.1619  0.2199  0.2672
 1886SOL    HW3 7591   4.001   0.365   3.778 -0.1111  0.6978  1.0408
 1886SOL    MW4 7592   3.929   0.386   3.733 -0.0379 -0.1169  0.5212
 1887SOL     OW 7593   0.584   2.213   1.276 -0.1647  0.2373  0.7449
 1887SOL    HW2 7594   0.623   2.258   1.202 -0.4182 -1.1992 -0.2791
 1887SOL    HW3 7595   0.502   2.260   1.292  0.2153  0.9691  0.5615
 1887SOL    MW4 7596   0.578   2.225   1.269 -0.1480  0.1442  0.5857
 1888SOL     OW 7597   0.615   3.564   0.511  0.3297 -0.3574  0.3483
 1888SOL    HW2 7598   0.705   3.532   0.510  0.0998 -1.0123 -0.2070
 1888SOL    HW3 7599   0.621   3.654   0.480  0.7961 -0.3949  0.3249
 1888SOL    MW4 7600   0.627   3.571   0.507  0.3609 -0.4485  0.2720
 1889SOL     OW 7601   1.118   3.999   0.695  0.5398  0.4684  0.0035
 1889SOL    HW2 7602   1.196   3.971   0.647  0.2127  0.3853 -0.4875
 1889SOL    HW3 7603   1.047   3.990   0.631  0.2195  1.0908  0.2732
 1889SOL    MW4 7604   1.119   3.994   0.680  0.4545  0.5393 -0.0257
 1890SOL     OW 7605   2.118   4.046   1.124 -0.1578 -0.1167  0.1156
 1890SOL    HW2 7606   2.199   4.090   1.098 -0.1809  0.5609  1.1630
 1890SOL    HW3 7607   2.057   4.063   1.053  0.8244 -1.2068 -1.0052
 1890SOL    MW4 7608   2.121   4.054   1.111 -0.0310 -0.1707  0.1059
 1891SOL     OW 7609   2.823   1.468   2.774  0.9307  0.0355 -0.1143
 1891SOL    HW2 7610   2.733   1.488   2.799  1.6513  2.0074  0.9987
 1891SOL    HW3 7611   2.829   1.373   2.782 -0.7040 -0.0018  1.0022
 1891SOL    MW4 7612   2.812   1.458   2.778  0.8101  0.2909  0.1798
 1892SOL     OW 7613   1.283   0.946   2.486  0.2224 -0.2741 -0.3544
 1892SOL    HW2 7614   1.311   1.016   2.427 -0.1748  0.5627  0.4351
 1892SOL    HW3 7615   1.353   0.942   2.552 -0.7555  0.7783  0.7581
 1892SOL    MW4 7616   1.296   0.955   2.487  0.0409 -0.0247 -0.1035
 1893SOL     OW 7617   1.936   0.409   2.461  0.0189 -0.4960 -0.5825
 1893SOL    HW2 7618   1.924   0.329   2.410  0.6674 -1.1308  0.2597
 1893SOL    HW3 7619   2.028   0.409   2.485 -0.6841 -1.2921  2.3674
 1893SOL    MW4 7620   1.946   0.398   2.457  0.0119 -0.6848 -0.0823
 1894SOL     OW 7621   1.345   1.092   2.129  0.2648 -0.1361 -0.8849
 1894SOL    HW2 7622   1.326   1.069   2.038  0.5603  1.1178 -1.2760
 1894SOL    HW3 7623   1.432   1.131   2.126  0.5478 -0.6801  0.0423
 1894SOL    MW4 7624   1.354   1.094   2.117  0.3412 -0.0424 -0.8144
 1895SOL     OW 7625   1.002   1.498   3.843 -0.2507 -0.1286 -0.0957
 1895SOL    HW2 7626   0.987   1.547   3.924  0.6571 -1.0781  0.6624
 1895SOL    HW3 7627   1.072   1.546   3.799  1.5840 -1.4851  1.2958
 1895SOL    MW4 7628   1.009   1.511   3.848  0.1111 -0.4328  0.1881
 1896SOL     OW 7629   0.080   2.348   1.118 -1.0368 -0.1293  0.3134
 1896SOL    HW2 7630   0.057   2.301   1.198 -0.7143 -1.8209 -0.5638
 1896SOL    HW3 7631   0.032   2.430   1.123  0.2658  0.5075  3.0252
 1896SOL    MW4 7632   0.071   2.352   1.129 -0.8224 -0.2685  0.5555
 1897SOL     OW 7633   2.512   1.160   3.519 -0.1475  0.1998  0.1610
 1897SOL    HW2 7634   2.524   1.119   3.434 -0.6534  0.4843 -0.0503
 1897SOL    HW3 7635   2.587   1.131   3.571 -0.6229 -1.1602  0.0903
 1897SOL    MW4 7636   2.523   1.151   3.515 -0.2768  0.0579  0.1240
 1898SOL     OW 7637   3.102   0.208   2.891 -0.1115 -0.5823  0.0920
 1898SOL    HW2 7638   3.035   0.271   2.863  1.1469  0.2707 -1.0699
 1898SOL    HW3 7639   3.052   0.131   2.919 -1.6877  0.9030  1.5390
 1898SOL    MW4 7640   3.086   0.207   2.891 -0.1533 -0.2738  0.1297
 1899SOL     OW 7641   3.180   1.378   3.874 -0.2602 -0.1408 -0.1655
 1899SOL    HW2 7642   3.146   1.442   3.936 -1.2293  0.2524 -1.0852
 1899SOL    HW3 7643   3.104   1.354   3.820  0.5836 -0.4020 -1.2564
 1899SOL    MW4 7644   3.165   1.383   3.875 -0.2770 -0.1234 -0.4308
 1900SOL     OW 7645   1.887   1.748   3.778 -0.2523 -0.2847  0.0769
 1900SOL    HW2 7646   1.946   1.723   3.849  0.1172 -1.4440 -0.6212
 1900SOL    HW3 7647   1.944   1.776   3.707 -0.6302  1.0472  0.2987
 1900SOL    MW4 7648   1.902   1.748   3.778 -0.2534 -0.2620  0.0138
 1901SOL     OW 7649   2.466   0.144   1.005  0.1280  0.5932 -0.2088
 1901SOL    HW2 7650   2.382   0.130   0.961 -0.7534  1.8505  1.0303
 1901SOL    HW3 7651   2.493   0.231   0.978  0.2615  0.8163  0.6127
 1901SOL    MW4 7652   2.458   0.154   0.996  0.0296  0.7885  0.0631
 1902SOL     OW 7653   0.906   1.052   2.134  0.0044 -0.0072  0.4410
 1902SOL    HW2 7654   0.973   1.008   2.186 -0.0369 -0.0439  0.4634
 1902SOL    HW3 7655   0.924   1.145   2.145 -0.5258  0.0094  1.2077
 1902SOL    MW4 7656   0.917   1.059   2.142 -0.0710 -0.0099  0.5450
 1903SOL     OW 7657   3.448   0.504   1.058 -0.6790 -0.0547 -0.3984
 1903SOL    HW2 7658   3.477   0.591   1.028  2.3173 -1.2738 -1.2755
 1903SOL    HW3 7659   3.382   0.478   0.994 -0.1244  0.7529 -1.3182
 1903SOL    MW4 7660   3.443   0.512   1.045 -0.2103 -0.1090 -0.6355
 1904SOL     OW 7661   1.917   2.461   2.754  0.1088 -0.0084  0.0623
 1904SOL    HW2 7662   1.994   2.514   2.732 -0.8739  1.3976 -0.0245
 1904SOL    HW3 7663   1.843   2.517   2.734 -0.9183 -0.6747  1.8583
 1904SOL    MW4 7664   1.918   2.476   2.749 -0.1563  0.0889  0.2878
 1905SOL     OW 7665   3.385   0.172   2.818 -0.4393  0.7821  0.1585
 1905SOL    HW2 7666   3.436   0.240   2.861 -0.1557  0.3786  0.4626
 1905SOL    HW3 7667   3.294   0.194   2.838 -0.3252  0.8172  0.6279
 1905SOL    MW4 7668   3.380   0.184   2.826 -0.3870  0.7335  0.2606
 1906SOL     OW 7669   3.231   2.565   2.774 -0.7622  0.2463  0.2064
 1906SOL    HW2 7670   3.141   2.533   2.781 -0.6889 -0.4145 -1.4298
 1906SOL    HW3 7671   3.225   2.640   2.715 -0.4228  0.9870  1.1157
 1906SOL    MW4 7672   3.218   2.570   2.767 -0.7076  0.2568  0.1104
 1907SOL     OW 7673   4.043   0.372   1.769 -0.3760  0.2955  0.5239
 1907SOL    HW2 7674   3.992   0.292   1.766 -1.6567  1.1248  0.0368
 1907SOL    HW3 7675   3.980   0.441   1.789  0.6074  1.2724  0.3362
 1907SOL    MW4 7676   4.028   0.371   1.772 -0.4158  0.5338  0.4349
 1908SOL     OW 7677   2.011   1.877   2.632  0.3375 -0.2266  0.7709
 1908SOL    HW2 7678   2.098   1.889   2.593  0.0409  0.3129  0.2606
 1908SOL    HW3 7679   2.002   1.950   2.693  0.4736 -0.6064  1.2410
 1908SOL    MW4 7680   2.021   1.889   2.635  0.3164 -0.2056  0.7658
 1909SOL     OW 7681   1.128   3.551   3.304  0.1167  0.1231  0.2759
 1909SOL    HW2 7682   1.165   3.484   3.247 -1.5693  0.3330 -1.1364
 1909SOL    HW3 7683   1.037   3.523   3.318 -0.5368  1.9585 -0.1477
 1909SOL    MW4 7684   1.121   3.539   3.298 -0.1920  0.3929  0.0339
 1910SOL     OW 7685   1.131   0.686   4.338  0.1856 -0.0605 -0.2353
 1910SOL    HW2 7686   1.135   0.776   4.305  0.9302  0.2916  0.7788
 1910SOL    HW3 7687   1.202   0.682   4.403 -0.8435 -0.9259  0.8425
 1910SOL    MW4 7688   1.141   0.697   4.342  0.1482 -0.1282  0.0405
 1911SOL     OW 7689   1.173   4.554   2.375  0.3183  0.3867 -0.3209
 1911SOL    HW2 7690   1.106   4.515   2.319  1.1200  0.4831 -1.3488
 1911SOL    HW3 7691   1.162   4.648   2.364  0.1640  0.4120  0.0529
 1911SOL    MW4 7692   1.163   4.561   2.366  0.4036  0.4029 -0.4070
 1912SOL     OW 7693   2.411   2.431   4.272 -0.2207 -0.6202  0.5293
 1912SOL    HW2 7694   2.472   2.504   4.270 -0.2137 -0.6351 -1.9572
 1912SOL    HW3 7695   2.330   2.468   4.307  0.8451 -0.3270  2.7354
 1912SOL    MW4 7696   2.408   2.445   4.276 -0.0789 -0.5834  0.4926
 1913SOL     OW 7697   0.758   1.683   2.233  0.0438  0.3047  0.1865
 1913SOL    HW2 7698   0.829   1.695   2.297 -0.9825  0.6377  1.2810
 1913SOL    HW3 7699   0.780   1.744   2.162  1.3989 -0.3512  0.0190
 1913SOL    MW4 7700   0.770   1.693   2.232  0.0871  0.2621  0.3088
 1914SOL     OW 7701   3.961   3.802   2.032 -0.1638  0.2437 -0.2176
 1914SOL    HW2 7702   3.948   3.777   2.123  0.8156 -0.5160 -0.2792
 1914SOL    HW3 7703   3.874   3.792   1.992 -0.3726 -0.3961  0.3911
 1914SOL    MW4 7704   3.948   3.798   2.038 -0.0622  0.0589 -0.1454
 1915SOL     OW 7705   0.881   3.452   3.325 -0.1661 -0.0824  0.4025
 1915SOL    HW2 7706   0.853   3.466   3.235 -0.6763 -0.3198  0.5235
 1915SOL    HW3 7707   0.804   3.472   3.378  0.6636  1.8504  0.9087
 1915SOL    MW4 7708   0.868   3.456   3.320 -0.1240  0.1411  0.4852
 1916SOL     OW 7709   2.610   4.197   1.074 -0.3320 -0.3119  0.7165
 1916SOL    HW2 7710   2.601   4.241   1.158 -2.2936  1.4400 -0.3643
 1916SOL    HW3 7711   2.695   4.225   1.041 -0.7427  1.2239  0.9033
 1916SOL    MW4 7712   2.620   4.206   1.081 -0.6449  0.1216  0.5987
 1917SOL     OW 7713   2.006   0.223   1.629  0.2353 -0.5387 -0.1791
 1917SOL    HW2 7714   1.994   0.318   1.628 -0.1048 -0.5815 -0.4040
 1917SOL    HW3 7715   1.950   0.194   1.701  2.4806 -0.3014  1.7375
 1917SOL    MW4 7716   1.997   0.232   1.638  0.4867 -0.5130  0.0441
 1918SOL     OW 7717   0.075   0.984   2.594  0.1841 -0.2072  0.0426
 1918SOL    HW2 7718   0.005   1.049   2.596  0.3035 -0.1010  0.6877
 1918SOL    HW3 7719   0.137   1.018   2.529 -0.3749 -0.3177 -0.5558
 1918SOL    MW4 7720   0.074   0.997   2.586  0.1261 -0.2078  0.0484
 1919SOL     OW 7721   0.422   0.433   3.936 -0.5647 -0.2994 -0.7210
 1919SOL    HW2 7722   0.384   0.463   3.853  0.3081 -2.0991 -1.7881
 1919SOL    HW3 7723   0.514   0.460   3.931 -0.5673 -0.2068 -0.2417
 1919SOL    MW4 7724   0.429   0.441   3.924 -0.4499 -0.5246 -0.7985
 1920SOL     OW 7725   0.213   2.782   2.936  0.1017 -0.4662  0.5885
 1920SOL    HW2 7726   0.304   2.761   2.915 -0.2418 -0.4332 -0.9537
 1920SOL    HW3 7727   0.178   2.702   2.976  0.3607 -1.0049 -0.2518
 1920SOL    MW4 7728   0.220   2.769   2.939  0.0905 -0.5329  0.2742
 1921SOL     OW 7729   3.581   1.494   0.501 -0.3606  0.1723 -0.1791
 1921SOL    HW2 7730   3.555   1.436   0.572  0.1614 -0.2830 -0.3589
 1921SOL    HW3 7731   3.503   1.499   0.445 -0.9827  1.0263  0.7393
 1921SOL    MW4 7732   3.567   1.487   0.503 -0.3738  0.2249 -0.0816
 1922SOL     OW 7733   1.959   4.202   2.622  0.1260 -0.8551  0.0016
 1922SOL    HW2 7734   1.903   4.279   2.633 -0.2638 -1.0364 -0.7407
 1922SOL    HW3 7735   1.940   4.170   2.534  0.6233 -1.5369  0.1371
 1922SOL    MW4 7736   1.949   4.208   2.612  0.1403 -0.9689 -0.0784
 1923SOL     OW 7737   4.317   2.371   0.396  0.4588  0.2576  0.2118
 1923SOL    HW2 7738   4.351   2.283   0.381 -0.4163 -0.0068 -0.2630
 1923SOL    HW3 7739   4.222   2.359   0.403  0.3021  1.2048 -0.2084
 1923SOL    MW4 7740   4.309   2.358   0.395  0.3228  0.3479  0.0937
 1924SOL     OW 7741   4.123   3.581   1.968 -0.1290  0.1270  0.0389
 1924SOL    HW2 7742   4.086   3.667   1.987  1.3110  0.4245  1.6273
 1924SOL    HW3 7743   4.060   3.518   2.004  0.4630  0.6109  1.9987
 1924SOL    MW4 7744   4.110   3.584   1.975  0.1388  0.2303  0.5071
 1925SOL     OW 7745   2.653   3.213   3.465 -0.1913  0.1500  0.1584
 1925SOL    HW2 7746   2.694   3.296   3.439  0.9592 -0.3659  0.3134
 1925SOL    HW3 7747   2.665   3.209   3.560 -1.2227  0.3273  0.2979
 1925SOL    MW4 7748   2.660   3.224   3.474 -0.1757  0.1054  0.1972
 1926SOL     OW 7749   1.084   0.232   3.920  0.3198 -0.6476 -0.1536
 1926SOL    HW2 7750   1.053   0.320   3.943  1.5157 -0.1830 -0.2908
 1926SOL    HW3 7751   1.157   0.216   3.980  2.2507 -0.1973 -2.3250
 1926SOL    MW4 7752   1.090   0.241   3.931  0.7324 -0.5269 -0.4585
 1927SOL     OW 7753   0.677   4.291   1.722  0.8451 -0.0368  0.4402
 1927SOL    HW2 7754   0.719   4.340   1.650  0.2960  0.2675  0.3281
 1927SOL    HW3 7755   0.749   4.271   1.782  1.8716 -2.8642 -1.6148
 1927SOL    MW4 7756   0.692   4.295   1.720  0.9081 -0.3695  0.1543
 1928SOL     OW 7757   1.155   0.064   3.471  0.0846  0.3324 -0.3262
 1928SOL    HW2 7758   1.153   0.145   3.522 -0.7249  1.4045 -1.9864
 1928SOL    HW3 7759   1.247   0.038   3.471  0.1807  0.6677  1.1294
 1928SOL    MW4 7760   1.167   0.072   3.478 -0.0094  0.5181 -0.3533
 1929SOL     OW 7761   0.720   0.853   4.404 -0.0068  0.1464  0.3534
 1929SOL    HW2 7762   0.639   0.813   4.373 -0.1100 -1.2116  2.3117
 1929SOL    HW3 7763   0.699   0.945   4.414 -0.8364  0.0848 -0.6602
 1929SOL    MW4 7764   0.707   0.860   4.401 -0.1298 -0.0409  0.4778
 1930SOL     OW 7765   3.162   0.096   1.875 -0.0344 -0.3639  0.0037
 1930SOL    HW2 7766   3.189   0.174   1.924 -2.1726 -0.4779  1.4314
 1930SOL    HW3 7767   3.233   0.033   1.890  1.1341  0.8896 -0.1690
 1930SOL    MW4 7768   3.175   0.098   1.883 -0.1621 -0.2136  0.1694
 1931SOL     OW 7769   0.037   1.588   3.575 -0.2979 -0.1346 -0.6043
 1931SOL    HW2 7770  -0.012   1.580   3.493  0.3379 -1.3916 -0.8818
 1931SOL    HW3 7771   0.125   1.557   3.553 -0.3338 -1.2493  0.7348
 1931SOL    MW4 7772   0.042   1.583   3.562 -0.2187 -0.4475 -0.4640
 1932SOL     OW 7773   1.825   1.210   4.416  0.4381 -0.2411 -0.0246
 1932SOL    HW2 7774   1.921   1.214   4.421  0.4250  1.3357 -0.8094
 1932SOL    HW3 7775   1.808   1.179   4.327  0.1967  0.4124 -0.2036
 1932SOL    MW4 7776   1.836   1.206   4.405  0.4044  0.0530 -0.1516
 1933SOL     OW 7777   1.557   3.872   0.971 -0.3626  0.3571  0.1631
 1933SOL    HW2 7778   1.624   3.840   1.031 -0.7189  0.8840  0.8405
 1933SOL    HW3 7779   1.486   3.903   1.027 -1.4026 -0.6826 -0.5625
 1933SOL    MW4 7780   1.557   3.872   0.986 -0.5468  0.2897  0.1567
 1934SOL     OW 7781   1.637   0.346   0.616 -0.0489  0.4790 -0.2443
 1934SOL    HW2 7782   1.607   0.437   0.620  0.1492  0.5430 -0.2039
 1934SOL    HW3 7783   1.575   0.299   0.671  0.1728  0.6830  0.1874
 1934SOL    MW4 7784   1.625   0.352   0.624  0.0067  0.5144 -0.1820
 1935SOL     OW 7785   3.308   3.806   0.552  0.0213 -0.2729  0.3081
 1935SOL    HW2 7786   3.263   3.883   0.588  0.3829  0.0746  0.0247
 1935SOL    HW3 7787   3.388   3.798   0.603  1.3220  1.1756 -1.4232
 1935SOL    MW4 7788   3.313   3.815   0.563  0.2406 -0.0360  0.0423
 1936SOL     OW 7789   1.545   3.322   2.226 -0.3169  0.5859  0.2439
 1936SOL    HW2 7790   1.630   3.355   2.199  0.3281  0.0350  1.5473
 1936SOL    HW3 7791   1.485   3.347   2.156  0.5313  2.7707  0.2798
 1936SOL    MW4 7792   1.548   3.330   2.214 -0.1199  0.8013  0.4208
 1937SOL     OW 7793   1.690   4.224   4.015 -0.1945  0.4340  0.5644
 1937SOL    HW2 7794   1.664   4.282   3.944 -1.8058 -1.0565 -0.0997
 1937SOL    HW3 7795   1.735   4.151   3.972 -0.5458 -0.1193  1.1116
 1937SOL    MW4 7796   1.692   4.222   4.000 -0.4535  0.1645  0.5484
 1938SOL     OW 7797   4.042   3.195   4.044  0.0917  0.2407  0.0692
 1938SOL    HW2 7798   4.055   3.124   3.982  0.0720  0.6050 -0.3576
 1938SOL    HW3 7799   4.123   3.199   4.095 -0.6651 -1.3775  1.4357
 1938SOL    MW4 7800   4.054   3.186   4.043 -0.0110  0.0753  0.1936
 1939SOL     OW 7801   3.172   3.752   3.746  0.2119 -0.2335  0.1202
 1939SOL    HW2 7802   3.098   3.710   3.702 -0.1176  1.2985 -0.8350
 1939SOL    HW3 7803   3.140   3.767   3.835 -0.0197 -1.0993  0.1868
 1939SOL    MW4 7804   3.158   3.749   3.752  0.1378 -0.1457  0.0029
 1940SOL     OW 7805   0.221   2.290   3.574  0.1985  0.1165  0.3688
 1940SOL    HW2 7806   0.302   2.326   3.613 -0.1328  2.2318 -0.8034
 1940SOL    HW3 7807   0.194   2.221   3.635  0.4902  2.3498  3.1750
 1940SOL    MW4 7808   0.228   2.286   3.587  0.1933  0.6902  0.5844
 1941SOL     OW 7809   1.893   4.061   2.083 -0.1234 -0.1810  0.9913
 1941SOL    HW2 7810   1.978   4.026   2.057 -0.1522 -0.4232  1.2198
 1941SOL    HW3 7811   1.830   3.999   2.047 -0.2155  0.1487  0.5831
 1941SOL    MW4 7812   1.896   4.048   2.075 -0.1394 -0.1698  0.9675
 1942SOL     OW 7813   1.177   1.815   0.842  0.2088 -0.1877 -0.1548
 1942SOL    HW2 7814   1.123   1.892   0.825  1.8589  0.8123 -1.0264
 1942SOL    HW3 7815   1.115   1.742   0.844 -1.4982  1.2901  1.8019
 1942SOL    MW4 7816   1.162   1.816   0.840  0.2013  0.1391 -0.0117
 1943SOL     OW 7817   0.751   3.146   4.129  0.2452 -0.2911 -0.7172
 1943SOL    HW2 7818   0.666   3.150   4.085  0.2555  0.8049 -0.6592
 1943SOL    HW3 7819   0.769   3.052   4.138 -0.8894 -0.5322 -0.8487
 1943SOL    MW4 7820   0.742   3.134   4.124  0.0968 -0.1781 -0.7267
 1944SOL     OW 7821   0.267   0.080   3.573  0.0009  0.7426  0.4415
 1944SOL    HW2 7822   0.293   0.172   3.573  1.1492  0.4154  0.4850
 1944SOL    HW3 7823   0.295   0.047   3.658 -0.3582  0.3241  0.4019
 1944SOL    MW4 7824   0.274   0.088   3.584  0.1051  0.6442  0.4418
 1945SOL     OW 7825   1.291   3.863   2.200  0.4280  0.0472  0.7932
 1945SOL    HW2 7826   1.230   3.878   2.272  1.0055  0.7817  1.1320
 1945SOL    HW3 7827   1.349   3.793   2.230  0.7898  0.4848  1.1244
 1945SOL    MW4 7828   1.291   3.856   2.213  0.5518  0.2019  0.8814
 1946SOL     OW 7829   0.787   1.380   4.525  0.0651  0.3915  0.4448
 1946SOL    HW2 7830   0.758   1.298   4.487 -1.3175  1.2822 -0.4587
 1946SOL    HW3 7831   0.709   1.416   4.568  0.3946  1.6826 -0.0035
 1946SOL    MW4 7832   0.773   1.374   4.526 -0.0739  0.6794  0.2666
 1947SOL     OW 7833   3.872   3.223   4.513 -0.0407  0.8579  0.4973
 1947SOL    HW2 7834   3.788   3.191   4.545 -1.1603  0.6342 -2.5328
 1947SOL    HW3 7835   3.855   3.313   4.485  1.1202  1.3495  1.3181
 1947SOL    MW4 7836   3.859   3.231   4.514 -0.0355  0.8934  0.2055
 1948SOL     OW 7837   4.322   3.766   0.629  0.6498  0.3634 -0.2197
 1948SOL    HW2 7838   4.237   3.804   0.605  1.5134  1.3665 -1.8057
 1948SOL    HW3 7839   4.319   3.677   0.597 -1.3588 -0.9946  3.4228
 1948SOL    MW4 7840   4.310   3.759   0.622  0.4988  0.3166  0.0516
 1949SOL     OW 7841   0.029   0.158   1.723 -0.3558  0.4398 -0.2550
 1949SOL    HW2 7842  -0.046   0.150   1.664 -0.9602 -0.4478  0.6113
 1949SOL    HW3 7843   0.064   0.069   1.729 -1.0716  0.2534  1.6972
 1949SOL    MW4 7844   0.024   0.145   1.716 -0.5299  0.2981  0.1169
 1950SOL     OW 7845   3.323   3.425   1.408  0.0896 -0.1222 -0.0456
 1950SOL    HW2 7846   3.395   3.413   1.346  0.3069  0.0703  0.1702
 1950SOL    HW3 7847   3.270   3.346   1.398 -0.1328  0.1267 -0.8141
 1950SOL    MW4 7848   3.326   3.413   1.399  0.0889 -0.0639 -0.1187
 1951SOL     OW 7849   0.053   2.634   3.260  0.0058 -0.3325  0.1518
 1951SOL    HW2 7850  -0.001   2.563   3.296 -0.2788 -0.2261 -0.0610
 1951SOL    HW3 7851   0.075   2.604   3.172  1.4405 -0.9914  0.7297
 1951SOL    MW4 7852   0.048   2.620   3.253  0.1576 -0.4053  0.2000
 1952SOL     OW 7853   3.200   2.459   3.098 -0.2617  0.2379 -0.0641
 1952SOL    HW2 7854   3.276   2.479   3.153 -0.4851  0.4899  0.1532
 1952SOL    HW3 7855   3.156   2.544   3.087  0.7797  0.5453 -2.1184
 1952SOL    MW4 7856   3.204   2.473   3.104 -0.1538  0.3119 -0.3064
 1953SOL     OW 7857   1.247   0.768   2.828 -0.0368  0.1398 -0.0076
 1953SOL    HW2 7858   1.246   0.748   2.922 -1.0744 -0.3245 -0.1140
 1953SOL    HW3 7859   1.182   0.837   2.818  0.3405  0.4492 -0.3359
 1953SOL    MW4 7860   1.238   0.775   2.839 -0.1239  0.1194 -0.0651
 1954SOL     OW 7861   3.686   2.736   3.949  0.1325 -0.9328 -0.7384
 1954SOL    HW2 7862   3.728   2.772   4.027 -0.6715  1.4521 -1.3465
 1954SOL    HW3 7863   3.600   2.707   3.979  0.2485 -1.0626 -0.5259
 1954SOL    MW4 7864   3.680   2.737   3.963  0.0417 -0.6356 -0.7904
 1955SOL     OW 7865   0.523   2.861   2.594 -0.1018 -0.2579 -0.0675
 1955SOL    HW2 7866   0.539   2.932   2.656 -0.0284 -1.2552  1.0579
 1955SOL    HW3 7867   0.560   2.894   2.511  2.0206  0.0923  0.9761
 1955SOL    MW4 7868   0.530   2.875   2.591  0.1879 -0.3433  0.2189
 1956SOL     OW 7869   3.020   1.268   4.354  0.2226  0.0005 -0.3489
 1956SOL    HW2 7870   3.036   1.225   4.437 -0.6892  1.2009  0.4671
 1956SOL    HW3 7871   3.067   1.214   4.289  1.1066 -0.8182  0.9484
 1956SOL    MW4 7872   3.029   1.255   4.356  0.2191  0.0508 -0.0701
 1957SOL     OW 7873   4.067   2.810   0.998  0.4281 -0.1897  0.4423
 1957SOL    HW2 7874   4.026   2.733   1.037  0.6375 -1.3988 -1.6099
 1957SOL    HW3 7875   4.111   2.776   0.920  1.5030  1.8324  0.1448
 1957SOL    MW4 7876   4.067   2.795   0.993  0.5970 -0.0823  0.1322
 1958SOL     OW 7877   2.178   3.756   3.885  0.3085  0.3546 -0.1771
 1958SOL    HW2 7878   2.159   3.850   3.883 -0.8176  0.1378  0.1668
 1958SOL    HW3 7879   2.252   3.748   3.945 -0.0707  0.9342  0.3703
 1958SOL    MW4 7880   2.185   3.767   3.893  0.1099  0.4027 -0.0596
 1959SOL     OW 7881   2.970   4.069   1.351 -0.3767 -0.2436  0.3481
 1959SOL    HW2 7882   2.910   4.024   1.292 -1.2397  0.4257  0.7182
 1959SOL    HW3 7883   3.041   4.006   1.364  0.2797 -0.0696 -2.1059
 1959SOL    MW4 7884   2.972   4.055   1.345 -0.4041 -0.1326  0.0732
 1960SOL     OW 7885   3.732   0.986   2.200 -0.0735 -0.0668  0.3921
 1960SOL    HW2 7886   3.715   1.072   2.238  0.7307 -0.3216  1.3629
 1960SOL    HW3 7887   3.685   0.925   2.256  0.4259 -0.3729  0.4806
 1960SOL    MW4 7888   3.724   0.989   2.212  0.0985 -0.1408  0.5317
 1961SOL     OW 7889   2.643   2.089   4.774  0.6631 -0.1647 -0.1317
 1961SOL    HW2 7890   2.652   2.026   4.845  3.2264  0.1892 -0.0903
 1961SOL    HW3 7891   2.556   2.127   4.786 -0.4287 -2.8090  0.5460
 1961SOL    MW4 7892   2.633   2.086   4.785  0.8574 -0.4673 -0.0362
 1962SOL     OW 7893   3.670   1.595   1.213  0.8903 -0.0741 -0.1998
 1962SOL    HW2 7894   3.668   1.506   1.177 -2.0297 -0.3066  0.4158
 1962SOL    HW3 7895   3.684   1.583   1.306 -1.1019 -0.0180  0.1322
 1962SOL    MW4 7896   3.672   1.581   1.220  0.2420 -0.0973 -0.0747
 1963SOL     OW 7897   1.267   3.290   1.862 -0.0522  0.3130 -0.0945
 1963SOL    HW2 7898   1.311   3.356   1.916 -0.5205  0.5815 -0.0343
 1963SOL    HW3 7899   1.323   3.280   1.785 -1.4414  2.9082 -1.5012
 1963SOL    MW4 7900   1.280   3.298   1.859 -0.2973  0.6909 -0.2722
 1964SOL     OW 7901   2.128   3.541   0.667  0.5969 -0.5964  0.2820
 1964SOL    HW2 7902   2.213   3.558   0.627 -0.9272  0.4174 -2.7288
 1964SOL    HW3 7903   2.086   3.478   0.608 -1.8512  1.1433  0.1028
 1964SOL    MW4 7904   2.133   3.535   0.654  0.0727 -0.2329 -0.1388
 1965SOL     OW 7905   0.254   1.958   2.444 -0.0094  0.1872 -0.1267
 1965SOL    HW2 7906   0.321   2.025   2.453 -0.1228  0.5436 -1.7445
 1965SOL    HW3 7907   0.225   1.941   2.533  1.3343  0.9388  0.4739
 1965SOL    MW4 7908   0.259   1.965   2.457  0.1529  0.3334 -0.2611
 1966SOL     OW 7909   1.644   2.778   3.509 -0.2439  0.9206 -0.0556
 1966SOL    HW2 7910   1.659   2.756   3.601  1.2741  0.4647 -0.3997
 1966SOL    HW3 7911   1.636   2.693   3.466  1.7875  1.0601 -0.7680
 1966SOL    MW4 7912   1.645   2.764   3.516  0.2244  0.8790 -0.1953
 1967SOL     OW 7913   2.586   1.070   3.966  0.5478 -0.4992  0.2115
 1967SOL    HW2 7914   2.615   1.159   3.944 -0.0100 -0.2004  0.6863
 1967SOL    HW3 7915   2.514   1.053   3.906  0.2473 -0.3936  0.5420
 1967SOL    MW4 7916   2.580   1.080   3.955  0.4344 -0.4458  0.3178
 1968SOL     OW 7917   4.142   3.881   1.184 -0.2626 -0.1040  0.8508
 1968SOL    HW2 7918   4.126   3.958   1.239  0.0694 -0.0048  0.8125
 1968SOL    HW3 7919   4.171   3.917   1.100 -0.9345 -0.2506  0.5543
 1968SOL    MW4 7920   4.144   3.896   1.180 -0.3076 -0.1104  0.8066
 1969SOL     OW 7921   4.206   2.841   2.491 -0.6361 -0.1743 -0.2275
 1969SOL    HW2 7922   4.132   2.888   2.452 -1.2693 -0.0453  1.0973
 1969SOL    HW3 7923   4.180   2.749   2.488 -1.1191 -0.0766  0.7798
 1969SOL    MW4 7924   4.192   2.835   2.486 -0.7834 -0.1445  0.0803
 1970SOL     OW 7925   3.526   3.371   4.192 -0.5162 -0.1136  0.5537
 1970SOL    HW2 7926   3.515   3.408   4.280  0.2065 -0.4326  0.7798
 1970SOL    HW3 7927   3.614   3.397   4.166  0.4362 -2.6112  1.1731
 1970SOL    MW4 7928   3.536   3.380   4.201 -0.2952 -0.4852  0.6652
 1971SOL     OW 7929   1.778   2.663   0.741  0.5329  0.0910 -0.3991
 1971SOL    HW2 7930   1.780   2.756   0.716 -0.2139  0.0777 -0.5152
 1971SOL    HW3 7931   1.698   2.629   0.700 -0.4830 -0.0371  1.6693
 1971SOL    MW4 7932   1.767   2.671   0.732  0.3003  0.0722 -0.1416
 1972SOL     OW 7933   1.326   3.830   1.432 -0.1270  0.2477  0.2108
 1972SOL    HW2 7934   1.257   3.884   1.470 -0.3429 -2.3312  3.7440
 1972SOL    HW3 7935   1.308   3.741   1.464  2.2200 -1.3018 -2.5082
 1972SOL    MW4 7936   1.315   3.825   1.442  0.1541 -0.2971  0.3182
 1973SOL     OW 7937   4.398   3.382   4.150  0.6683 -0.5168 -0.2359
 1973SOL    HW2 7938   4.447   3.363   4.070  0.2081 -0.5218 -0.5177
 1973SOL    HW3 7939   4.453   3.445   4.197  2.2091 -2.4901  0.6940
 1973SOL    MW4 7940   4.412   3.388   4.145  0.8106 -0.7780 -0.1502
 1974SOL     OW 7941   3.548   1.340   2.053 -0.2977 -0.1982 -0.7652
 1974SOL    HW2 7942   3.543   1.274   2.122 -0.5020  0.4056 -0.1983
 1974SOL    HW3 7943   3.642   1.354   2.041 -0.2452 -0.7723 -1.0674
 1974SOL    MW4 7944   3.559   1.333   2.061 -0.3176 -0.1944 -0.7303
 1975SOL     OW 7945   0.968   2.454   3.432 -0.2633  0.1101  0.1528
 1975SOL    HW2 7946   0.960   2.520   3.501 -2.0639 -1.5364  1.5815
 1975SOL    HW3 7947   0.898   2.391   3.451  0.4097 -1.3722 -2.0963
 1975SOL    MW4 7948   0.958   2.454   3.444 -0.4121 -0.3028  0.0446
 1976SOL     OW 7949   3.573   3.167   4.558 -0.1038  0.2411 -0.1231
 1976SOL    HW2 7950   3.576   3.163   4.462  0.3246  2.1810 -0.2113
 1976SOL    HW3 7951   3.489   3.208   4.578  0.2724  0.8175  0.2902
 1976SOL    MW4 7952   3.563   3.172   4.548  0.0026  0.5732 -0.0806
 1977SOL     OW 7953   2.274   1.411   1.093 -0.5713 -0.0757  0.6245
 1977SOL    HW2 7954   2.237   1.353   1.160 -1.5101  1.0631  1.1107
 1977SOL    HW3 7955   2.261   1.499   1.127  0.0773  0.4671 -0.4955
 1977SOL    MW4 7956   2.267   1.415   1.106 -0.6094  0.1462  0.5409
 1978SOL     OW 7957   1.917   2.269   1.700 -0.6275 -0.0691  0.0565
 1978SOL    HW2 7958   1.951   2.320   1.773  1.5043 -1.4690  0.0971
 1978SOL    HW3 7959   1.865   2.200   1.741 -0.0797 -0.3828  0.2369
 1978SOL    MW4 7960   1.915   2.266   1.715 -0.2741 -0.2949  0.0857
 1979SOL     OW 7961   1.974   4.359   0.559 -0.8472 -0.5426 -0.2550
 1979SOL    HW2 7962   1.922   4.418   0.504 -1.8717  0.0300  1.2673
 1979SOL    HW3 7963   2.043   4.415   0.595 -2.5584  0.0730  2.1773
 1979SOL    MW4 7964   1.976   4.375   0.557 -1.2082 -0.3853  0.2667
 1980SOL     OW 7965   3.408   3.243   2.140 -0.0972  0.1450  0.0712
 1980SOL    HW2 7966   3.367   3.161   2.111  0.0523 -0.0345  0.3636
 1980SOL    HW3 7967   3.362   3.265   2.221 -2.3240  2.0333 -1.6420
 1980SOL    MW4 7968   3.397   3.235   2.147 -0.3712  0.3705 -0.1166
 1981SOL     OW 7969   0.468   1.809   3.522 -0.0912 -0.6699  0.0522
 1981SOL    HW2 7970   0.403   1.801   3.592 -1.2517  0.4964 -0.8673
 1981SOL    HW3 7971   0.552   1.811   3.567 -0.8583  0.5767  1.4474
 1981SOL    MW4 7972   0.470   1.808   3.537 -0.3455 -0.3515  0.1152
 1982SOL     OW 7973   1.198   1.427   1.274 -0.0142  0.1783 -0.3697
 1982SOL    HW2 7974   1.113   1.463   1.301 -0.8226 -1.5022 -0.5895
 1982SOL    HW3 7975   1.262   1.471   1.330 -1.1972  0.3540  0.8652
 1982SOL    MW4 7976   1.195   1.437   1.285 -0.2769 -0.0201 -0.2358
 1983SOL     OW 7977   0.969   3.709   0.408 -0.1350 -0.0685 -0.2119
 1983SOL    HW2 7978   0.944   3.787   0.458  3.6625  0.9253  0.3146
 1983SOL    HW3 7979   0.940   3.728   0.319 -0.5647  1.3092  0.2053
 1983SOL    MW4 7980   0.962   3.722   0.403  0.3093  0.2444 -0.0874
 1984SOL     OW 7981   3.774   2.370   3.929  0.2075  0.1993 -0.1810
 1984SOL    HW2 7982   3.696   2.374   3.985  0.7010  1.3536  0.4357
 1984SOL    HW3 7983   3.767   2.447   3.873  0.9723  0.3665 -0.0499
 1984SOL    MW4 7984   3.763   2.381   3.929  0.3736  0.3736 -0.0825
 1985SOL     OW 7985   1.287   2.475   4.126  0.2383 -0.5256  0.1202
 1985SOL    HW2 7986   1.225   2.495   4.055 -2.9569 -0.2273  2.8983
 1985SOL    HW3 7987   1.348   2.549   4.126 -1.1951  0.6838 -0.7624
 1985SOL    MW4 7988   1.287   2.487   4.116 -0.3723 -0.3266  0.3700
 1986SOL     OW 7989   0.532   3.677   3.332 -0.4012  0.0161 -0.0809
 1986SOL    HW2 7990   0.439   3.655   3.321 -0.2454 -0.0587 -1.3700
 1986SOL    HW3 7991   0.552   3.731   3.256  0.4247  0.6805  0.6030
 1986SOL    MW4 7992   0.522   3.682   3.321 -0.2717  0.0937 -0.1607
 1987SOL     OW 7993   3.038   2.870   1.701  0.2345  0.3669 -0.3066
 1987SOL    HW2 7994   3.018   2.844   1.791  0.0012 -1.0655 -0.7560
 1987SOL    HW3 7995   2.952   2.875   1.658  0.3880  0.4115 -0.6077
 1987SOL    MW4 7996   3.024   2.867   1.707  0.2239  0.1838 -0.4057
 1988SOL     OW 7997   2.124   4.419   1.260 -0.1714 -0.1323 -0.0434
 1988SOL    HW2 7998   2.066   4.426   1.185  0.0558 -0.2297 -0.2296
 1988SOL    HW3 7999   2.099   4.336   1.302 -0.7013  0.2171  0.3326
 1988SOL    MW4 8000   2.113   4.409   1.256 -0.2112 -0.0987 -0.0184
 1989SOL     OW 8001   1.776   1.791   2.251 -0.1178 -0.7443 -0.2253
 1989SOL    HW2 8002   1.830   1.860   2.289 -0.1006 -0.7783 -0.1866
 1989SOL    HW3 8003   1.686   1.820   2.267 -0.1133 -0.1503 -1.2953
 1989SOL    MW4 8004   1.771   1.804   2.258 -0.1149 -0.6703 -0.3612
 1990SOL     OW 8005   0.730   3.843   3.672  0.1753 -0.1928  0.0091
 1990SOL    HW2 8006   0.690   3.813   3.753  2.2693  0.1404  1.1668
 1990SOL    HW3 8007   0.733   3.938   3.680 -1.8635  0.0662 -1.5478
 1990SOL    MW4 8008   0.725   3.851   3.684  0.1826 -0.1144 -0.0439
 1991SOL     OW 8009   3.391   3.979   4.455 -0.1188  0.3040 -0.0552
 1991SOL    HW2 8010   3.455   3.926   4.407  0.1124  0.9325 -0.4529
 1991SOL    HW3 8011   3.408   4.068   4.427 -0.0007  0.6823  1.1895
 1991SOL    MW4 8012   3.402   3.984   4.445 -0.0727  0.4368  0.0567
 1992SOL     OW 8013   3.246   0.112   3.751 -0.1102  0.3261  0.0566
 1992SOL    HW2 8014   3.208   0.153   3.828 -3.9568 -1.9025 -0.5488
 1992SOL    HW3 8015   3.269   0.024   3.780 -0.0640  0.0089 -0.9316
 1992SOL    MW4 8016   3.244   0.106   3.765 -0.6115 -0.0098 -0.1538
 1993SOL     OW 8017   1.325   2.949   1.696  0.0220 -0.1328  0.0689
 1993SOL    HW2 8018   1.360   2.897   1.624 -0.4507  0.0451 -0.2953
 1993SOL    HW3 8019   1.329   3.040   1.664  1.7533  0.1691  1.0728
 1993SOL    MW4 8020   1.330   2.954   1.682  0.1881 -0.0694  0.1532
 1994SOL     OW 8021   2.902   0.141   2.030 -0.4337 -0.1951  0.1507
 1994SOL    HW2 8022   2.959   0.194   2.086  0.6230 -2.0867  0.9085
 1994SOL    HW3 8023   2.932   0.160   1.941  2.1762 -1.9934  0.5829
 1994SOL    MW4 8024   2.914   0.150   2.026  0.0498 -0.6819  0.3076
 1995SOL     OW 8025   4.003   0.815   1.850 -0.1233 -0.3713 -0.1704
 1995SOL    HW2 8026   3.996   0.790   1.758  1.3478  0.6473 -0.5898
 1995SOL    HW3 8027   3.918   0.853   1.871  0.2918  1.5562 -1.8150
 1995SOL    MW4 8028   3.991   0.817   1.840  0.1254  0.0174 -0.4426
 1996SOL     OW 8029   3.061   3.752   3.320  0.0269 -0.2603 -0.5387
 1996SOL    HW2 8030   3.118   3.805   3.375  0.2236 -2.2140  1.1733
 1996SOL    HW3 8031   2.988   3.810   3.298  0.5970  0.9410  0.7028
 1996SOL    MW4 8032   3.059   3.767   3.324  0.1280 -0.3595 -0.1493
 1997SOL     OW 8033   4.361   4.476   1.113 -0.2990 -0.0966 -0.4882
 1997SOL    HW2 8034   4.422   4.531   1.162 -0.6914  0.7767 -0.9669
 1997SOL    HW3 8035   4.368   4.390   1.154  0.9775  0.0882 -0.3120
 1997SOL    MW4 8036   4.370   4.472   1.125 -0.1826  0.0434 -0.5281
 1998SOL     OW 8037   2.962   3.676   3.570  0.0296  0.4316  0.3849
 1998SOL    HW2 8038   3.012   3.676   3.489 -0.8179  1.5312 -0.1555
 1998SOL    HW3 8039   2.943   3.769   3.586 -0.3705  0.1627  1.4848
 1998SOL    MW4 8040   2.966   3.688   3.562 -0.1347  0.5412  0.4590
 1999SOL     OW 8041   3.362   1.445   1.568  0.0320 -0.1430  0.2451
 1999SOL    HW2 8042   3.339   1.461   1.660  0.0108 -0.2434  0.2578
 1999SOL    HW3 8043   3.367   1.350   1.561  0.5789 -0.1154  0.2708
 1999SOL    MW4 8044   3.360   1.435   1.579  0.1013 -0.1526  0.2501
 2000SOL     OW 8045   2.864   3.288   1.405  0.0296  0.6477 -0.1571
 2000SOL    HW2 8046   2.801   3.220   1.381  0.0852 -0.0103  1.4819
 2000SOL    HW3 8047   2.840   3.363   1.351 -0.7396 -0.3024 -1.1777
 2000SOL    MW4 8048   2.852   3.289   1.395 -0.0648  0.4356 -0.0755
 2001SOL     OW 8049   1.657   1.435   1.071 -0.0112 -0.2261  0.2984
 2001SOL    HW2 8050   1.697   1.504   1.018  0.9283 -0.9357  0.0532
 2001SOL    HW3 8051   1.563   1.447   1.059  0.0903  1.7825  1.2696
 2001SOL    MW4 8052   1.650   1.446   1.062  0.1261 -0.0546  0.3942
 2002SOL     OW 8053   3.062   0.064   4.173  0.3068  0.0990 -0.3554
 2002SOL    HW2 8054   2.974   0.029   4.162 -0.2317  1.1785  0.4701
 2002SOL    HW3 8055   3.083   0.103   4.089  0.2886 -0.7829 -0.7801
 2002SOL    MW4 8056   3.053   0.064   4.161  0.2334  0.1251 -0.3023
 2003SOL     OW 8057   2.973   2.253   4.161  0.3500 -0.2222 -0.8849
 2003SOL    HW2 8058   3.055   2.218   4.127  0.7223 -0.7864  0.5205
 2003SOL    HW3 8059   2.934   2.181   4.211  0.9274  1.1716  1.7176
 2003SOL    MW4 8060   2.979   2.239   4.163  0.4752 -0.1125 -0.3562
 2004SOL     OW 8061   3.766   3.214   3.918  0.1625 -0.3675 -0.5619
 2004SOL    HW2 8062   3.684   3.166   3.921  0.9474 -1.6997 -0.0152
 2004SOL    HW3 8063   3.829   3.151   3.882  1.5004 -0.2038  1.4337
 2004SOL    MW4 8064   3.764   3.199   3.914  0.4427 -0.5217 -0.2267
 2005SOL     OW 8065   2.744   1.897   2.558 -0.5755  0.3161  0.6103
 2005SOL    HW2 8066   2.665   1.922   2.509 -0.1359  1.5198  0.4941
 2005SOL    HW3 8067   2.797   1.977   2.561  1.0767 -0.7281 -0.1165
 2005SOL    MW4 8068   2.740   1.911   2.552 -0.2997  0.3370  0.4992
 2006SOL     OW 8069   1.756   1.560   2.443  0.2241 -0.4026 -0.2132
 2006SOL    HW2 8070   1.748   1.644   2.397  0.3317 -0.3430 -0.1200
 2006SOL    HW3 8071   1.846   1.532   2.428  0.6942  0.3385  1.2388
 2006SOL    MW4 8072   1.767   1.567   2.435  0.3003 -0.2970 -0.0091
 2007SOL     OW 8073   4.291   4.505   1.839  0.6440 -0.0360 -0.5403
 2007SOL    HW2 8074   4.313   4.560   1.914  0.3394  1.2297 -1.3669
 2007SOL    HW3 8075   4.361   4.440   1.836 -0.4653 -1.4455  2.1094
 2007SOL    MW4 8076   4.303   4.504   1.848  0.4573 -0.0548 -0.2997
 2008SOL     OW 8077   2.161   4.567   0.654 -0.3364  0.3984 -0.1806
 2008SOL    HW2 8078   2.253   4.543   0.643 -0.5210  0.2641 -1.6707
 2008SOL    HW3 8079   2.155   4.603   0.742  1.0345 -0.0987  0.1266
 2008SOL    MW4 8080   2.172   4.569   0.664 -0.1798  0.3147 -0.3366
 2009SOL     OW 8081   3.221   3.023   4.087  0.0557 -0.2442 -0.2411
 2009SOL    HW2 8082   3.232   3.117   4.103  0.2372 -0.3442  0.2416
 2009SOL    HW3 8083   3.249   2.982   4.169 -0.5175 -0.6909 -0.2642
 2009SOL    MW4 8084   3.226   3.030   4.100  0.0041 -0.3164 -0.1802
 2010SOL     OW 8085   2.838   3.795   1.980  0.1742  0.1131  0.1709
 2010SOL    HW2 8086   2.873   3.866   1.926  1.6977 -1.1777 -0.5785
 2010SOL    HW3 8087   2.796   3.840   2.053 -0.8721  1.8584 -1.4573
 2010SOL    MW4 8088   2.837   3.810   1.982  0.2370  0.1729 -0.1427
 2011SOL     OW 8089   1.797   1.556   2.722  0.0440  0.0027  0.3844
 2011SOL    HW2 8090   1.890   1.576   2.731  0.6271 -2.2553 -0.3069
 2011SOL    HW3 8091   1.780   1.562   2.628  0.0559 -1.8197  0.2394
 2011SOL    MW4 8092   1.807   1.559   2.711  0.1224 -0.5357  0.2739
 2012SOL     OW 8093   1.062   0.404   3.098 -0.0293  0.5720  0.3547
 2012SOL    HW2 8094   1.134   0.444   3.147  0.5595 -0.9981  0.8037
 2012SOL    HW3 8095   1.047   0.320   3.142 -0.6042 -0.1335 -1.1502
 2012SOL    MW4 8096   1.069   0.398   3.111 -0.0275  0.2718  0.2160
 2013SOL     OW 8097   0.087   3.879   3.356 -0.2496  0.2079 -0.1997
 2013SOL    HW2 8098   0.058   3.929   3.432 -0.5507  2.2621 -1.6391
 2013SOL    HW3 8099   0.010   3.872   3.300 -0.0715 -1.4150 -0.2724
 2013SOL    MW4 8100   0.073   3.884   3.359 -0.2659  0.2649 -0.3996
 2014SOL     OW 8101   0.811   3.614   4.549 -0.1705  0.1005  0.1629
 2014SOL    HW2 8102   0.833   3.694   4.596  1.1411 -0.0332 -0.1931
 2014SOL    HW3 8103   0.723   3.591   4.579 -0.5815  1.7103  0.2117
 2014SOL    MW4 8104   0.802   3.621   4.559 -0.0516  0.2954  0.1225
 2015SOL     OW 8105   1.992   0.877   1.739 -0.1188  0.8272  0.0740
 2015SOL    HW2 8106   2.056   0.805   1.731  0.1385  0.7040  2.7170
 2015SOL    HW3 8107   2.044   0.956   1.724  0.1713  0.5904 -0.1839
 2015SOL    MW4 8108   2.007   0.878   1.736 -0.0467  0.7796  0.3889
 2016SOL     OW 8109   1.399   3.700   2.531 -0.1381  0.4028  0.0844
 2016SOL    HW2 8110   1.476   3.672   2.580  0.5513  2.3195  0.1455
 2016SOL    HW3 8111   1.415   3.793   2.513 -2.2947  0.7491 -0.1516
 2016SOL    MW4 8112   1.411   3.708   2.536 -0.3316  0.7017  0.0613
 2017SOL     OW 8113   0.140   1.190   1.803 -0.2794  0.3541 -0.3472
 2017SOL    HW2 8114   0.141   1.106   1.848 -0.1682  0.2123 -0.6109
 2017SOL    HW3 8115   0.119   1.168   1.712 -1.9910  0.7732 -0.0805
 2017SOL    MW4 8116   0.137   1.176   1.797 -0.4905  0.3906 -0.3468
 2018SOL     OW 8117   1.017   3.718   1.449  0.4756 -0.4482  0.2778
 2018SOL    HW2 8118   0.998   3.654   1.517  1.1528  0.6934  1.5481
 2018SOL    HW3 8119   1.050   3.795   1.496  3.4727 -0.5666 -1.4864
 2018SOL    MW4 8120   1.019   3.720   1.464  0.9603 -0.3133  0.2126
 2019SOL     OW 8121   3.609   4.146   3.428  0.1800  0.5351 -0.3593
 2019SOL    HW2 8122   3.643   4.188   3.507  2.4946  1.1774 -1.6530
 2019SOL    HW3 8123   3.539   4.204   3.399  0.1106  0.9244  0.5500
 2019SOL    MW4 8124   3.604   4.159   3.435  0.4759  0.6714 -0.4103
 2020SOL     OW 8125   1.642   1.155   0.490  0.1250 -0.1050  0.3665
 2020SOL    HW2 8126   1.733   1.181   0.477 -0.1293  0.6699  0.1291
 2020SOL    HW3 8127   1.600   1.174   0.406 -0.5607  0.8073  0.9189
 2020SOL    MW4 8128   1.648   1.161   0.477  0.0010  0.1175  0.4081
 2021SOL     OW 8129   4.102   2.128   3.538 -0.3713 -0.0236 -0.6169
 2021SOL    HW2 8130   4.194   2.154   3.546 -0.0970 -0.4616 -2.1001
 2021SOL    HW3 8131   4.055   2.187   3.597  0.7760  0.7352 -0.4493
 2021SOL    MW4 8132   4.108   2.140   3.547 -0.1841  0.0184 -0.7906
 2022SOL     OW 8133   4.327   4.349   4.393  0.1370 -0.1370  0.1971
 2022SOL    HW2 8134   4.260   4.372   4.329  0.6541  3.5069  0.8464
 2022SOL    HW3 8135   4.409   4.376   4.351  0.6040  0.9747  1.7998
 2022SOL    MW4 8136   4.329   4.356   4.379  0.2666  0.4911  0.4950
 2023SOL     OW 8137   0.164   1.335   0.986 -0.1496  0.3193 -0.0973
 2023SOL    HW2 8138   0.247   1.293   0.964 -0.7795 -1.7235  1.3675
 2023SOL    HW3 8139   0.098   1.268   0.969 -1.3755  1.4608  0.1219
 2023SOL    MW4 8140   0.166   1.321   0.981 -0.3945  0.2003  0.1249
 2024SOL     OW 8141   2.776   2.501   1.011  0.0638 -0.3522  0.1160
 2024SOL    HW2 8142   2.684   2.509   1.035 -0.5908 -1.4954 -1.9077
 2024SOL    HW3 8143   2.778   2.523   0.918  1.7877 -0.6977  0.0559
 2024SOL    MW4 8144   2.764   2.505   1.002  0.2048 -0.5488 -0.1589
 2025SOL     OW 8145   4.383   1.099   1.657 -0.1632  0.0410 -0.0867
 2025SOL    HW2 8146   4.302   1.093   1.707 -0.2108 -1.7649 -0.3707
 2025SOL    HW3 8147   4.354   1.096   1.565  0.2789 -1.2653 -0.1823
 2025SOL    MW4 8148   4.368   1.098   1.651 -0.1106 -0.3694 -0.1370
 2026SOL     OW 8149   1.848   2.010   4.278 -0.1857 -0.6430  0.4030
 2026SOL    HW2 8150   1.780   1.952   4.310 -1.4440 -0.5181 -1.9790
 2026SOL    HW3 8151   1.845   2.002   4.183  2.1337  0.4911  0.1859
 2026SOL    MW4 8152   1.839   2.002   4.270 -0.0458 -0.4768  0.0601
 2027SOL     OW 8153   0.918   2.671   0.780  0.4627 -0.1522  0.0242
 2027SOL    HW2 8154   0.891   2.585   0.747  0.4714 -1.2786  2.7656
 2027SOL    HW3 8155   0.846   2.697   0.839  1.3549  0.8185  0.6978
 2027SOL    MW4 8156   0.905   2.663   0.784  0.5816 -0.1726  0.4748
 2028SOL     OW 8157   2.606   1.789   3.941  0.0737  0.5364 -0.3863
 2028SOL    HW2 8158   2.634   1.878   3.963 -0.3361  0.6353 -0.2704
 2028SOL    HW3 8159   2.523   1.800   3.895  1.2284  0.3816 -2.5601
 2028SOL    MW4 8160   2.599   1.802   3.938  0.1721  0.5289 -0.6578
 2029SOL     OW 8161   0.835   2.013   3.204  0.1681  0.4971  0.7193
 2029SOL    HW2 8162   0.845   1.942   3.267  0.4007  0.4456  0.6259
 2029SOL    HW3 8163   0.786   1.974   3.131 -0.8523  0.7903  1.2427
 2029SOL    MW4 8164   0.830   1.998   3.203  0.0641  0.5288  0.7761
 2030SOL     OW 8165   0.257   3.644   3.333 -0.2804 -0.0136  0.1227
 2030SOL    HW2 8166   0.220   3.604   3.255 -0.7248 -0.9347  0.7968
 2030SOL    HW3 8167   0.212   3.727   3.341  0.8098  0.7600 -1.4213
 2030SOL    MW4 8168   0.246   3.649   3.324 -0.1952 -0.0329  0.0081
 2031SOL     OW 8169   0.930   0.184   0.785 -0.2888 -0.1940 -0.2540
 2031SOL    HW2 8170   0.855   0.211   0.732  1.3848  1.5516 -1.8147
 2031SOL    HW3 8171   0.923   0.236   0.865 -2.0182 -1.7766  0.6743
 2031SOL    MW4 8172   0.919   0.194   0.788 -0.2962 -0.1725 -0.3374
 2032SOL     OW 8173   1.195   3.519   0.730 -0.1427  0.0130  0.1438
 2032SOL    HW2 8174   1.278   3.503   0.776 -1.2247  0.8213  2.4507
 2032SOL    HW3 8175   1.133   3.459   0.772 -0.8999 -0.0235 -1.0363
 2032SOL    MW4 8176   1.198   3.509   0.742 -0.3854  0.1144  0.2924
 2033SOL     OW 8177   3.323   0.389   2.318 -0.2341  0.5804 -0.0018
 2033SOL    HW2 8178   3.344   0.314   2.374  0.3812 -0.4368 -1.5724
 2033SOL    HW3 8179   3.309   0.461   2.379  2.8120  0.0699  1.3795
 2033SOL    MW4 8180   3.324   0.389   2.333  0.2489  0.3788 -0.0267
 2034SOL     OW 8181   3.416   4.017   1.303  0.2099  0.5285  0.2448
 2034SOL    HW2 8182   3.341   3.967   1.335  0.1756  0.4715  0.0782
 2034SOL    HW3 8183   3.391   4.109   1.317  0.1758  0.5053  0.3348
 2034SOL    MW4 8184   3.403   4.023   1.309  0.2007  0.5183  0.2347
 2035SOL     OW 8185   0.540   0.405   0.827  0.2464 -0.1690 -0.1795
 2035SOL    HW2 8186   0.445   0.398   0.820  0.2242  0.5401 -0.5754
 2035SOL    HW3 8187   0.562   0.488   0.785  1.0519 -0.3748 -0.1819
 2035SOL    MW4 8188   0.530   0.415   0.820  0.3498 -0.1026 -0.2321
 2036SOL     OW 8189   0.463   2.719   1.523 -0.3341  0.5878 -0.3040
 2036SOL    HW2 8190   0.434   2.784   1.460 -0.9293 -0.2604 -0.9245
 2036SOL    HW3 8191   0.527   2.666   1.475  0.6526  1.1234  0.4000
 2036SOL    MW4 8192   0.468   2.720   1.508 -0.2824  0.5465 -0.2931
 2037SOL     OW 8193   2.165   1.786   2.969  0.2324  0.2244 -0.3710
 2037SOL    HW2 8194   2.236   1.840   2.934  2.8825 -2.8830 -0.0043
 2037SOL    HW3 8195   2.182   1.781   3.063 -0.0954 -1.0476 -0.3640
 2037SOL    MW4 8196   2.176   1.793   2.976  0.5388 -0.3535 -0.3219
 2038SOL     OW 8197   0.064   3.259   4.480  0.2466 -0.1305  0.0288
 2038SOL    HW2 8198  -0.017   3.209   4.485  0.2964 -0.4628 -1.9799
 2038SOL    HW3 8199   0.038   3.346   4.449  0.6253 -0.1777 -0.4369
 2038SOL    MW4 8200   0.050   3.264   4.476  0.3031 -0.1807 -0.2975
 2039SOL     OW 8201   3.342   1.457   4.291  0.2513 -0.1010  0.3854
 2039SOL    HW2 8202   3.251   1.428   4.297  0.9398 -1.9822  2.1699
 2039SOL    HW3 8203   3.355   1.514   4.367  0.1556  1.4045 -0.7023
 2039SOL    MW4 8204   3.332   1.460   4.302  0.3295 -0.1507  0.4773
 2040SOL     OW 8205   3.784   3.435   4.079 -0.2475  0.1139 -0.0966
 2040SOL    HW2 8206   3.810   3.352   4.039 -0.6234 -0.2020  0.3096
 2040SOL    HW3 8207   3.830   3.436   4.164 -0.6864  0.0645  0.1400
 2040SOL    MW4 8208   3.794   3.424   4.085 -0.3550  0.0656 -0.0114
 2041SOL     OW 8209   1.663   3.341   1.223 -0.0104 -0.5540  0.1212
 2041SOL    HW2 8210   1.704   3.364   1.140 -1.3085 -0.1829 -0.4266
 2041SOL    HW3 8211   1.729   3.287   1.268  2.0409  2.0205  0.3162
 2041SOL    MW4 8212   1.677   3.337   1.218  0.0889 -0.1655  0.0746
 2042SOL     OW 8213   2.983   1.659   1.480  0.4752  0.6566  0.2932
 2042SOL    HW2 8214   2.967   1.740   1.432  1.1804  0.6611  0.0594
 2042SOL    HW3 8215   3.033   1.686   1.557 -0.0303  0.5508  0.6677
 2042SOL    MW4 8216   2.987   1.673   1.484  0.5016  0.6433  0.3117
 2043SOL     OW 8217   3.045   3.728   4.007  0.0220  0.0302 -0.0419
 2043SOL    HW2 8218   3.020   3.644   4.045  0.5463 -0.4465 -0.7444
 2043SOL    HW3 8219   2.964   3.779   4.007 -0.2561 -0.4087  0.5551
 2043SOL    MW4 8220   3.031   3.724   4.012  0.0546 -0.0904 -0.0558
 2044SOL     OW 8221   3.241   2.455   1.217 -0.1917  0.0426  0.0179
 2044SOL    HW2 8222   3.276   2.543   1.231  1.2872 -0.5763  0.2382
 2044SOL    HW3 8223   3.184   2.464   1.140  0.3870  1.0810 -0.3009
 2044SOL    MW4 8224   3.238   2.468   1.208  0.0799  0.0980  0.0049
 2045SOL     OW 8225   1.827   2.698   1.234  0.0835 -0.2664  0.4312
 2045SOL    HW2 8226   1.812   2.767   1.298  0.1255 -0.3807  0.5640
 2045SOL    HW3 8227   1.775   2.624   1.265 -0.9387  0.1057 -0.3755
 2045SOL    MW4 8228   1.818   2.697   1.246 -0.0458 -0.2322  0.3424
 2046SOL     OW 8229   0.451   1.613   2.992  0.3295  0.1230 -0.2198
 2046SOL    HW2 8230   0.476   1.521   3.001  2.2624  0.3749 -2.5625
 2046SOL    HW3 8231   0.383   1.613   2.926 -0.4924  0.2699  0.6170
 2046SOL    MW4 8232   0.446   1.601   2.985  0.4761  0.1756 -0.4184
 2047SOL     OW 8233   0.810   0.645   1.355  0.1189  0.4390 -0.5801
 2047SOL    HW2 8234   0.802   0.661   1.261 -1.9695 -1.7070 -0.8268
 2047SOL    HW3 8235   0.843   0.555   1.361 -2.9976 -0.6915  0.6837
 2047SOL    MW4 8236   0.813   0.635   1.343 -0.5679  0.0067 -0.4458
 2048SOL     OW 8237   1.636   4.275   1.863  0.1546  0.1879 -0.4937
 2048SOL    HW2 8238   1.621   4.212   1.793 -0.4728  0.4759 -0.6241
 2048SOL    HW3 8239   1.731   4.276   1.875  0.0195 -2.7467  1.3282
 2048SOL    MW4 8240   1.647   4.267   1.855  0.0540 -0.1612 -0.2705
 2049SOL     OW 8241   0.784   2.693   2.456  0.4430 -0.6518 -0.5777
 2049SOL    HW2 8242   0.818   2.658   2.539  1.9371 -1.6415 -1.5947
 2049SOL    HW3 8243   0.859   2.736   2.416 -0.8343  1.7879 -0.4095
 2049SOL    MW4 8244   0.798   2.694   2.462  0.4715 -0.4606 -0.6895
 2050SOL     OW 8245   4.116   0.238   3.881  0.1424 -0.5140 -0.5475
 2050SOL    HW2 8246   4.090   0.295   3.953 -1.3551  0.1372 -1.5572
 2050SOL    HW3 8247   4.048   0.170   3.879  1.2797 -1.6938 -0.0844
 2050SOL    MW4 8248   4.103   0.236   3.890  0.0949 -0.5837 -0.6194
 2051SOL     OW 8249   1.676   1.894   0.838  0.0152  0.0557 -0.0474
 2051SOL    HW2 8250   1.728   1.955   0.889  0.7549  1.2150 -2.1343
 2051SOL    HW3 8251   1.609   1.949   0.796 -0.7475 -0.9109 -0.1168
 2051SOL    MW4 8252   1.674   1.909   0.839  0.0122  0.0811 -0.3319
 2052SOL     OW 8253   1.051   0.737   3.230 -0.6155 -0.7466  0.3060
 2052SOL    HW2 8254   0.990   0.706   3.163 -0.0223 -4.7919  1.5179
 2052SOL    HW3 8255   0.996   0.760   3.305 -0.9252 -0.5297  0.0156
 2052SOL    MW4 8256   1.036   0.736   3.231 -0.5780 -1.2517  0.4277
 2053SOL     OW 8257   2.709   1.945   4.547 -0.6966  0.1199 -0.7570
 2053SOL    HW2 8258   2.629   1.906   4.511 -0.0757 -1.3586 -0.5453
 2053SOL    HW3 8259   2.681   1.987   4.628 -1.1184 -1.1343 -0.2372
 2053SOL    MW4 8260   2.695   1.945   4.553 -0.6702 -0.2406 -0.6604
 2054SOL     OW 8261   2.812   0.853   3.525 -0.0018 -0.6277 -0.2698
 2054SOL    HW2 8262   2.896   0.891   3.551 -0.2909 -1.2429  1.6848
 2054SOL    HW3 8263   2.806   0.870   3.431  1.2129  1.5272  0.0000
 2054SOL    MW4 8264   2.823   0.860   3.516  0.1204 -0.4246  0.0238
 2055SOL     OW 8265   2.610   4.005   1.656 -0.1418  0.2245  0.0745
 2055SOL    HW2 8266   2.596   4.082   1.711 -0.1634  1.3328 -1.4366
 2055SOL    HW3 8267   2.565   3.934   1.701  0.2722  0.9882  1.7323
 2055SOL    MW4 8268   2.603   4.006   1.669 -0.0899  0.4711  0.0938
 2056SOL     OW 8269   2.567   1.156   2.316  0.0648 -0.9115 -0.1027
 2056SOL    HW2 8270   2.606   1.080   2.359  0.9493 -0.3604  0.0867
 2056SOL    HW3 8271   2.542   1.124   2.229 -0.1349 -1.5797  0.1966
 2056SOL    MW4 8272   2.569   1.142   2.310  0.1552 -0.9269 -0.0381
 2057SOL     OW 8273   3.710   2.218   3.548  0.0550  0.1632  0.6317
 2057SOL    HW2 8274   3.735   2.172   3.628 -1.0973  1.6414  1.8754
 2057SOL    HW3 8275   3.646   2.283   3.577  0.3193  1.3407 -1.3496
 2057SOL    MW4 8276   3.705   2.220   3.562 -0.0620  0.5136  0.5343
 2058SOL     OW 8277   0.304   4.500   3.417 -0.5979 -0.0160 -0.4133
 2058SOL    HW2 8278   0.397   4.483   3.399 -0.2899  1.6003 -0.4001
 2058SOL    HW3 8279   0.304   4.578   3.472 -1.9479 -0.3665  0.0939
 2058SOL    MW4 8280   0.317   4.508   3.422 -0.7353  0.1507 -0.3448
 2059SOL     OW 8281   3.098   2.403   1.467  0.2040 -0.3614 -0.5268
 2059SOL    HW2 8282   3.101   2.496   1.491 -0.3468 -0.9611  1.9760
 2059SOL    HW3 8283   3.148   2.398   1.385  0.2639  2.1273 -0.6848
 2059SOL    MW4 8284   3.105   2.415   1.459  0.1392 -0.1123 -0.2173
 2060SOL     OW 8285   1.023   0.112   1.211  0.2795 -0.0394  0.7506
 2060SOL    HW2 8286   0.977   0.074   1.286 -0.6939 -0.9604 -0.2936
 2060SOL    HW3 8287   1.093   0.049   1.191  0.5264  0.1951  0.8781
 2060SOL    MW4 8288   1.026   0.098   1.218  0.1837 -0.1300  0.6297
 2061SOL     OW 8289   0.741   2.413   3.766 -0.3894 -0.1529 -0.9608
 2061SOL    HW2 8290   0.676   2.455   3.823  1.3774  2.1014 -0.5842
 2061SOL    HW3 8291   0.771   2.337   3.817 -0.1601  0.8070  0.3539
 2061SOL    MW4 8292   0.736   2.408   3.780 -0.1261  0.2711 -0.7377
 2062SOL     OW 8293   0.398   4.319   4.389  0.2914 -0.2350 -0.2309
 2062SOL    HW2 8294   0.391   4.404   4.431  0.9904 -0.5501  0.5342
 2062SOL    HW3 8295   0.340   4.262   4.439  0.3759 -0.3825 -0.2989
 2062SOL    MW4 8296   0.390   4.322   4.401  0.3947 -0.2961 -0.1392
 2063SOL     OW 8297   3.590   4.600   3.283 -0.2986  0.5427  0.2091
 2063SOL    HW2 8298   3.607   4.691   3.259 -0.3240  0.9732  1.8013
 2063SOL    HW3 8299   3.657   4.550   3.236  1.0372  1.5863  0.9730
 2063SOL    MW4 8300   3.601   4.605   3.274 -0.1256  0.7372  0.5200
 2064SOL     OW 8301   3.059   0.567   1.485 -0.4146  0.3302 -0.1022
 2064SOL    HW2 8302   2.981   0.541   1.435 -0.4866  1.3747 -0.5579
 2064SOL    HW3 8303   3.109   0.486   1.496  1.4594  0.6162 -5.0966
 2064SOL    MW4 8304   3.055   0.553   1.480 -0.1767  0.5058 -0.8212
 2065SOL     OW 8305   0.035   1.191   2.145  0.1246  0.3965 -0.3153
 2065SOL    HW2 8306  -0.023   1.121   2.116 -0.5605  0.2013  1.4546
 2065SOL    HW3 8307  -0.024   1.255   2.187  0.7490  1.9885 -1.7954
 2065SOL    MW4 8308   0.019   1.190   2.147  0.1168  0.5808 -0.2768
 2066SOL     OW 8309   3.562   2.405   4.582 -0.3309  0.2400 -0.3060
 2066SOL    HW2 8310   3.632   2.415   4.518  1.2969 -1.1472  1.2019
 2066SOL    HW3 8311   3.584   2.325   4.630 -2.0855  0.6527  1.2702
 2066SOL    MW4 8312   3.574   2.396   4.580 -0.3479  0.1113  0.1011
 2067SOL     OW 8313   2.239   3.902   3.148  0.1322  0.1384 -0.4991
 2067SOL    HW2 8314   2.333   3.889   3.152  0.0636  0.1027  1.7889
 2067SOL    HW3 8315   2.225   3.993   3.176 -0.6100 -0.4488  1.1484
 2067SOL    MW4 8316   2.249   3.912   3.152  0.0253  0.0563  0.0203
 2068SOL     OW 8317   0.865   1.381   2.427 -0.2900 -0.2212 -0.3322
 2068SOL    HW2 8318   0.796   1.319   2.452  1.1870 -1.4188  0.9115
 2068SOL    HW3 8319   0.892   1.421   2.509  1.6906 -1.0760 -0.5267
 2068SOL    MW4 8320   0.859   1.378   2.441  0.1661 -0.4920 -0.1941
 2069SOL     OW 8321   0.558   3.373   2.680  0.2728  0.1998  0.4230
 2069SOL    HW2 8322   0.576   3.354   2.588  0.7043  1.4564  0.2353
 2069SOL    HW3 8323   0.644   3.388   2.719  0.0401  0.3838  0.8681
 2069SOL    MW4 8324   0.571   3.372   2.673  0.2990  0.3898  0.4570
 2070SOL     OW 8325   3.890   4.391   2.363  0.2842 -0.1100  0.0420
 2070SOL    HW2 8326   3.945   4.379   2.286 -0.8426 -1.0063 -0.6478
 2070SOL    HW3 8327   3.853   4.304   2.380 -2.0868  0.7714 -0.4281
 2070SOL    MW4 8328   3.892   4.378   2.355 -0.1774 -0.1121 -0.1111
 2071SOL     OW 8329   2.536   2.927   3.471  0.1282  0.3053 -0.3343
 2071SOL    HW2 8330   2.571   2.859   3.528 -1.1782  0.7462  1.0104
 2071SOL    HW3 8331   2.600   2.998   3.477  0.6069 -0.1155 -0.3891
 2071SOL    MW4 8332   2.549   2.927   3.479  0.0191  0.3080 -0.1643
 2072SOL     OW 8333   2.426   1.589   2.573  0.3159  0.3024 -0.3184
 2072SOL    HW2 8334   2.396   1.546   2.652  0.0639 -0.0367 -0.5976
 2072SOL    HW3 8335   2.497   1.534   2.541  0.2272  0.2824 -0.4839
 2072SOL    MW4 8336   2.431   1.576   2.579  0.2711  0.2550 -0.3772
 2073SOL     OW 8337   3.694   0.335   3.851  0.4594  0.1339  0.3862
 2073SOL    HW2 8338   3.698   0.276   3.926  2.2536 -0.3561 -0.0557
 2073SOL    HW3 8339   3.649   0.285   3.783 -0.1488  0.1596  0.7690
 2073SOL    MW4 8340   3.689   0.321   3.852  0.6158  0.0727  0.3784
 2074SOL     OW 8341   3.128   0.674   2.352 -0.1371  0.1690 -0.0827
 2074SOL    HW2 8342   3.121   0.687   2.447 -0.3219 -1.8355  0.1982
 2074SOL    HW3 8343   3.041   0.697   2.318 -0.5154 -0.4683  0.4262
 2074SOL    MW4 8344   3.115   0.679   2.360 -0.2112 -0.1795  0.0212
 2075SOL     OW 8345   1.746   1.633   0.611 -0.1983 -0.3151  0.4458
 2075SOL    HW2 8346   1.778   1.721   0.593 -0.2174 -0.1976  0.9864
 2075SOL    HW3 8347   1.807   1.576   0.564 -1.2574  0.0529 -1.4154
 2075SOL    MW4 8348   1.758   1.637   0.602 -0.3405 -0.2509  0.2715
 2076SOL     OW 8349   2.472   4.645   1.552 -0.3496 -0.2785 -0.6955
 2076SOL    HW2 8350   2.492   4.625   1.461 -1.0003  0.8422 -1.0968
 2076SOL    HW3 8351   2.386   4.687   1.549  0.4983  1.6012  0.1975
 2076SOL    MW4 8352   2.463   4.648   1.540 -0.3235  0.1178 -0.6307
 2077SOL     OW 8353   1.837   3.149   3.355  0.3626 -0.4662 -0.3518
 2077SOL    HW2 8354   1.857   3.055   3.349 -0.9810 -0.7550 -0.3539
 2077SOL    HW3 8355   1.844   3.169   3.449 -1.7846 -1.1223 -0.0340
 2077SOL    MW4 8356   1.841   3.139   3.367 -0.0979 -0.5908 -0.3102
 2078SOL     OW 8357   1.624   0.328   3.479 -0.4261  0.2561 -0.3860
 2078SOL    HW2 8358   1.656   0.400   3.425  1.2616 -0.5028 -0.4544
 2078SOL    HW3 8359   1.580   0.269   3.418  1.0295 -0.3476 -0.8768
 2078SOL    MW4 8360   1.623   0.330   3.464 -0.0114  0.0763 -0.4599
 2079SOL     OW 8361   0.369   0.044   2.509 -0.2111  0.1402 -0.4741
 2079SOL    HW2 8362   0.314   0.062   2.586  0.3059  0.3536 -0.1581
 2079SOL    HW3 8363   0.317  -0.018   2.458  0.0126 -1.0424  0.7052
 2079SOL    MW4 8364   0.355   0.038   2.513 -0.1134  0.0124 -0.2768
 2080SOL     OW 8365   0.974   1.614   3.029 -0.0998 -0.6565  0.4135
 2080SOL    HW2 8366   0.960   1.563   3.109 -1.4512 -0.6956  0.1718
 2080SOL    HW3 8367   1.014   1.552   2.967  1.2613 -0.5341  1.1550
 2080SOL    MW4 8368   0.977   1.599   3.031 -0.0985 -0.6455  0.4795
 2081SOL     OW 8369   2.296   4.246   2.410  0.1584 -0.4088 -0.3606
 2081SOL    HW2 8370   2.224   4.305   2.388 -0.7822 -1.5118 -0.3045
 2081SOL    HW3 8371   2.374   4.303   2.414 -0.2559  0.4120 -2.9372
 2081SOL    MW4 8372   2.297   4.261   2.407 -0.0203 -0.4463 -0.6933
 2082SOL     OW 8373   0.374   2.235   1.003 -0.1948  0.3223  0.0530
 2082SOL    HW2 8374   0.320   2.217   1.081 -1.7817  1.2899 -0.7950
 2082SOL    HW3 8375   0.314   2.224   0.929  1.7176 -2.2911 -1.1871
 2082SOL    MW4 8376   0.359   2.231   1.004 -0.1518  0.1054 -0.2224
 2083SOL     OW 8377   4.264   0.906   0.911 -0.4104 -0.1218 -0.2347
 2083SOL    HW2 8378   4.245   0.979   0.853  0.0622 -0.4654 -0.8293
 2083SOL    HW3 8379   4.184   0.893   0.961 -0.8954  0.0358 -0.9630
 2083SOL    MW4 8380   4.251   0.914   0.910 -0.4120 -0.1464 -0.4092
 2084SOL     OW 8381   1.455   2.717   1.507 -0.1599 -0.1041  0.1652
 2084SOL    HW2 8382   1.410   2.635   1.525 -0.9345  0.4415  0.7600
 2084SOL    HW3 8383   1.424   2.743   1.420 -0.5475 -0.0213  0.3288
 2084SOL    MW4 8384   1.445   2.710   1.498 -0.3132 -0.0212  0.2652
 2085SOL     OW 8385   1.691   0.072   1.229  0.3236 -0.1662  0.2617
 2085SOL    HW2 8386   1.676  -0.022   1.229  0.8451 -0.2663 -1.0811
 2085SOL    HW3 8387   1.627   0.106   1.165  1.5911  0.1272 -0.8695
 2085SOL    MW4 8388   1.680   0.064   1.220  0.5597 -0.1407 -0.0647
 2086SOL     OW 8389   2.402   0.357   1.651 -0.2050 -0.0701  0.4981
 2086SOL    HW2 8390   2.349   0.353   1.572  0.0797  0.3133  0.2902
 2086SOL    HW3 8391   2.340   0.379   1.721 -0.4108 -0.1600  0.3424
 2086SOL    MW4 8392   2.387   0.359   1.650 -0.1945 -0.0313  0.4500
 2087SOL     OW 8393   4.361   1.604   4.262  0.3596  0.2866  0.1848
 2087SOL    HW2 8394   4.345   1.623   4.170 -0.7767  1.3667  0.5952
 2087SOL    HW3 8395   4.438   1.656   4.284  1.1198 -0.5917 -0.3475
 2087SOL    MW4 8396   4.369   1.613   4.253  0.3099  0.3133  0.1683
 2088SOL     OW 8397   0.823   0.180   3.879 -0.3928 -0.1071  1.0022
 2088SOL    HW2 8398   0.828   0.143   3.791 -1.6933 -1.8014  1.5958
 2088SOL    HW3 8399   0.913   0.180   3.911  0.0654  0.3669 -0.2496
 2088SOL    MW4 8400   0.835   0.175   3.872 -0.5039 -0.2681  0.9153
 2089SOL     OW 8401   2.464   3.073   1.543 -0.0488  0.4338 -0.2240
 2089SOL    HW2 8402   2.444   3.018   1.619 -2.0345  1.0080 -0.3210
 2089SOL    HW3 8403   2.421   3.156   1.561  0.5145  0.9922 -1.4197
 2089SOL    MW4 8404   2.456   3.077   1.555 -0.2363  0.5829 -0.3946
 2090SOL     OW 8405   2.915   1.881   1.339  0.1427  0.3939 -0.2465
 2090SOL    HW2 8406   2.989   1.928   1.302  0.3930  0.8769  0.8403
 2090SOL    HW3 8407   2.897   1.926   1.422 -1.0629 -0.0073 -0.2762
 2090SOL    MW4 8408   2.922   1.893   1.345  0.0167  0.4047 -0.1070
 2091SOL     OW 8409   2.467   3.177   1.163 -0.0544  0.1779  0.5300
 2091SOL    HW2 8410   2.516   3.154   1.242  1.2829  0.0908 -0.2944
 2091SOL    HW3 8411   2.488   3.269   1.148  1.7000 -0.4321 -1.0609
 2091SOL    MW4 8412   2.476   3.186   1.171  0.3536  0.0861  0.2112
 2092SOL     OW 8413   1.087   0.560   1.632 -0.2545  0.1522 -0.5170
 2092SOL    HW2 8414   1.182   0.565   1.616 -0.3424 -0.4713 -1.2309
 2092SOL    HW3 8415   1.052   0.640   1.593  0.0860  0.8539  0.5828
 2092SOL    MW4 8416   1.095   0.571   1.625 -0.2213  0.1626 -0.4661
 2093SOL     OW 8417   1.628   1.133   1.825 -0.4256 -0.2400 -0.6912
 2093SOL    HW2 8418   1.634   1.098   1.736 -0.6724 -1.2565 -0.3058
 2093SOL    HW3 8419   1.686   1.078   1.877  0.6007  1.0548 -0.4259
 2093SOL    MW4 8420   1.637   1.121   1.820 -0.3228 -0.2033 -0.6055
 2094SOL     OW 8421   0.906   3.065   3.561  0.1488 -0.6618  0.4015
 2094SOL    HW2 8422   0.915   3.041   3.469 -0.1760  0.2907  0.1088
 2094SOL    HW3 8423   0.954   3.148   3.568  0.4013 -0.8707  1.1447
 2094SOL    MW4 8424   0.914   3.073   3.550  0.1392 -0.5636  0.4609
 2095SOL     OW 8425   0.491   0.774   3.664  0.1848  0.1230 -0.5357
 2095SOL    HW2 8426   0.453   0.688   3.681  1.1221 -0.1333  0.3010
 2095SOL    HW3 8427   0.578   0.771   3.705  0.1943  1.4932 -0.4163
 2095SOL    MW4 8428   0.498   0.763   3.672  0.3097  0.2699 -0.4096
 2096SOL     OW 8429   2.029   2.920   4.252  0.2200  0.6349 -0.1483
 2096SOL    HW2 8430   1.934   2.916   4.249  0.2291 -0.2214  0.5207
 2096SOL    HW3 8431   2.051   2.904   4.344  1.0959 -1.5283 -0.6926
 2096SOL    MW4 8432   2.019   2.918   4.264  0.3366  0.2365 -0.1321
 2097SOL     OW 8433   3.492   3.965   4.075  0.1424  0.6156  0.1954
 2097SOL    HW2 8434   3.500   3.907   3.998  1.2291  0.1365  0.6651
 2097SOL    HW3 8435   3.421   4.025   4.051 -0.3223 -0.2584 -0.7194
 2097SOL    MW4 8436   3.484   3.965   4.061  0.2241  0.4370  0.1369
 2098SOL     OW 8437   0.642   2.972   2.360  0.2085 -0.4019 -0.1400
 2098SOL    HW2 8438   0.725   3.015   2.381  0.4706 -1.2294  0.5300
 2098SOL    HW3 8439   0.668   2.891   2.316 -0.2128 -1.1207  0.9188
 2098SOL    MW4 8440   0.657   2.967   2.357  0.1875 -0.6056  0.0880
 2099SOL     OW 8441   3.882   3.481   4.355  0.2473  0.4044 -0.1816
 2099SOL    HW2 8442   3.857   3.574   4.355 -0.9697  0.0860 -1.0319
 2099SOL    HW3 8443   3.977   3.482   4.341  0.2589  1.5245 -0.1136
 2099SOL    MW4 8444   3.891   3.493   4.353  0.0887  0.5100 -0.2847
 2100SOL     OW 8445   3.102   0.851   2.970 -0.0562 -0.2216  0.2681
 2100SOL    HW2 8446   3.024   0.877   2.921  0.1985 -0.1608 -0.1079
 2100SOL    HW3 8447   3.092   0.893   3.055 -1.2817 -1.6153  0.8396
 2100SOL    MW4 8448   3.090   0.860   2.975 -0.1843 -0.3974  0.2937
 2101SOL     OW 8449   1.881   0.131   2.503  0.3889 -0.4903  0.4426
 2101SOL    HW2 8450   1.849   0.096   2.586  0.2764  0.7567  0.9307
 2101SOL    HW3 8451   1.811   0.110   2.440 -0.0012 -0.4961  0.8746
 2101SOL    MW4 8452   1.868   0.124   2.506  0.3227 -0.3266  0.5641
 2102SOL     OW 8453   1.966   3.557   2.846 -0.2851  0.0959 -0.0101
 2102SOL    HW2 8454   2.024   3.628   2.818 -0.7071  0.1340 -0.8058
 2102SOL    HW3 8455   1.989   3.484   2.789 -1.2322  0.2096 -0.5594
 2102SOL    MW4 8456   1.976   3.557   2.835 -0.4658  0.1161 -0.1876
 2103SOL     OW 8457   0.002   1.821   3.716  0.6199  0.1408 -0.3688
 2103SOL    HW2 8458   0.080   1.845   3.766  0.4393  0.0441 -0.0396
 2103SOL    HW3 8459   0.030   1.744   3.665  0.9726  0.5902 -0.8577
 2103SOL    MW4 8460   0.016   1.814   3.716  0.6428  0.1874 -0.3898
 2104SOL     OW 8461   2.853   2.981   4.284  0.7134 -0.2671 -0.6239
 2104SOL    HW2 8462   2.903   2.944   4.211  0.6855 -0.4490 -0.5525
 2104SOL    HW3 8463   2.869   3.075   4.279  0.6965 -0.2776 -0.8757
 2104SOL    MW4 8464   2.862   2.988   4.274  0.7071 -0.2925 -0.6475
 2105SOL     OW 8465   4.031   1.477   2.985 -0.3732 -0.7394  0.2401
 2105SOL    HW2 8466   4.080   1.415   3.039 -0.2350 -0.2166  0.7151
 2105SOL    HW3 8467   3.980   1.528   3.047  0.4038  0.4200 -0.0502
 2105SOL    MW4 8468   4.031   1.476   3.000 -0.2527 -0.5174  0.2644
 2106SOL     OW 8469   1.982   1.508   3.367  0.1610  0.0973 -0.1777
 2106SOL    HW2 8470   1.903   1.547   3.331 -0.1760 -1.1044 -0.7703
 2106SOL    HW3 8471   2.040   1.496   3.292 -0.1240 -1.4205 -0.1717
 2106SOL    MW4 8472   1.979   1.512   3.353  0.0790 -0.2615 -0.2553
 2107SOL     OW 8473   4.422   0.374   1.429  0.4012 -0.2166  0.0294
 2107SOL    HW2 8474   4.348   0.390   1.371  1.7642  0.8516 -1.4535
 2107SOL    HW3 8475   4.385   0.381   1.517 -1.3828 -0.3810 -0.6737
 2107SOL    MW4 8476   4.407   0.377   1.433  0.3457 -0.0974 -0.2589
 2108SOL     OW 8477   0.494   3.654   2.414  0.2712  0.3086 -0.0330
 2108SOL    HW2 8478   0.424   3.705   2.372 -0.7171 -0.4887  0.6011
 2108SOL    HW3 8479   0.569   3.712   2.415 -0.4728  1.2970 -0.4678
 2108SOL    MW4 8480   0.494   3.668   2.409  0.0426  0.3338 -0.0069
 2109SOL     OW 8481   4.471   0.232   2.455 -0.2798  0.1010  0.0766
 2109SOL    HW2 8482   4.457   0.308   2.399 -0.9673 -1.8418 -2.4576
 2109SOL    HW3 8483   4.559   0.245   2.491 -0.4985  2.1998 -0.0621
 2109SOL    MW4 8484   4.481   0.244   2.453 -0.3991  0.1216 -0.2763
 2110SOL     OW 8485   2.085   3.713   0.895  0.1822  0.4750  0.2683
 2110SOL    HW2 8486   2.098   3.660   0.816  1.2772  2.5595 -0.9843
 2110SOL    HW3 8487   2.010   3.672   0.939  0.8157 -1.9339 -0.7919
 2110SOL    MW4 8488   2.077   3.700   0.890  0.4103  0.4323 -0.0368
 2111SOL     OW 8489   1.193   0.157   2.308  0.7496  0.6184  0.1626
 2111SOL    HW2 8490   1.277   0.200   2.327  0.2223  1.1486  1.3494
 2111SOL    HW3 8491   1.134   0.191   2.375  0.1143 -1.3360  0.6241
 2111SOL    MW4 8492   1.197   0.167   2.319  0.5963  0.4305  0.3796
 2112SOL     OW 8493   3.448   3.961   2.703  0.1810 -0.2435 -0.2363
 2112SOL    HW2 8494   3.393   4.017   2.648 -0.1824  0.5505  0.9207
 2112SOL    HW3 8495   3.404   3.960   2.788  0.5846 -1.6904 -0.0346
 2112SOL    MW4 8496   3.435   3.969   2.707  0.1864 -0.3295 -0.0572
 2113SOL     OW 8497   3.711   0.622   2.574 -0.0485 -0.4247 -0.3052
 2113SOL    HW2 8498   3.616   0.610   2.567 -0.0936  0.0972 -0.6306
 2113SOL    HW3 8499   3.725   0.639   2.667 -0.1524 -1.4847 -0.0896
 2113SOL    MW4 8500   3.700   0.623   2.586 -0.0679 -0.4957 -0.3200
 2114SOL     OW 8501   4.120   3.516   2.343  0.5058 -0.6568  0.4264
 2114SOL    HW2 8502   4.040   3.544   2.299  0.3978  1.6834  2.0146
 2114SOL    HW3 8503   4.171   3.471   2.275 -1.6406 -1.2124 -0.8707
 2114SOL    MW4 8504   4.116   3.513   2.328  0.2084 -0.4213  0.4647
 2115SOL     OW 8505   0.417   1.086   2.769 -0.0952 -0.1400 -0.1066
 2115SOL    HW2 8506   0.409   1.181   2.770  1.1300 -0.0149 -1.3852
 2115SOL    HW3 8507   0.480   1.066   2.838  0.6116  0.0656 -0.6974
 2115SOL    MW4 8508   0.424   1.096   2.779  0.1597 -0.0963 -0.3533
 2116SOL     OW 8509   3.869   1.745   0.808  0.0033 -0.2404 -0.4960
 2116SOL    HW2 8510   3.911   1.831   0.798  0.2005 -0.0194  1.8315
 2116SOL    HW3 8511   3.777   1.765   0.823 -0.3941 -0.5748 -2.3799
 2116SOL    MW4 8512   3.863   1.759   0.809 -0.0231 -0.2553 -0.4375
 2117SOL     OW 8513   3.983   2.190   2.690  0.5628 -0.1253  0.0774
 2117SOL    HW2 8514   3.935   2.223   2.614  0.9178  1.3998  0.5102
 2117SOL    HW3 8515   4.056   2.140   2.652  0.1610 -0.2271 -0.5807
 2117SOL    MW4 8516   3.986   2.187   2.675  0.5567  0.0625  0.0479
 2118SOL     OW 8517   3.055   1.592   2.653 -0.5140 -0.0936 -0.0078
 2118SOL    HW2 8518   3.058   1.609   2.559 -1.4953  2.4401  0.3875
 2118SOL    HW3 8519   2.971   1.548   2.667 -0.2704 -0.6689 -0.3338
 2118SOL    MW4 8520   3.044   1.589   2.643 -0.6113  0.1649  0.0014
 2119SOL     OW 8521   3.026   0.417   3.540 -0.5990  0.3507  0.2161
 2119SOL    HW2 8522   2.941   0.456   3.521 -1.4107 -1.1121  0.7663
 2119SOL    HW3 8523   3.071   0.415   3.456 -0.7153  2.0374  0.0948
 2119SOL    MW4 8524   3.021   0.422   3.527 -0.7212  0.3802  0.2725
 2120SOL     OW 8525   2.406   2.830   2.610 -0.3945  0.6087  0.3524
 2120SOL    HW2 8526   2.315   2.845   2.582 -0.7736  0.1391  1.3209
 2120SOL    HW3 8527   2.398   2.774   2.687  0.8436 -1.4082 -0.9585
 2120SOL    MW4 8528   2.393   2.825   2.617 -0.2811  0.2806  0.3071
 2121SOL     OW 8529   2.797   1.123   2.618 -0.0999  0.0577 -0.0376
 2121SOL    HW2 8530   2.723   1.154   2.670  0.7279 -0.5969  1.5791
 2121SOL    HW3 8531   2.759   1.055   2.561 -0.6942 -0.4712  0.9771
 2121SOL    MW4 8532   2.782   1.118   2.617 -0.0691 -0.0985  0.3095
 2122SOL     OW 8533   1.160   2.721   0.962 -0.7005  0.3650 -0.0812
 2122SOL    HW2 8534   1.223   2.750   0.895 -1.7104  2.2617 -0.2266
 2122SOL    HW3 8535   1.080   2.705   0.913 -0.7256 -0.7538  0.3136
 2122SOL    MW4 8536   1.158   2.722   0.947 -0.8371  0.4678 -0.0482
 2123SOL     OW 8537   4.290   2.667   3.777 -0.0516  0.3751  0.1241
 2123SOL    HW2 8538   4.351   2.607   3.733  0.2211  1.0004 -0.3502
 2123SOL    HW3 8539   4.274   2.626   3.862  1.3140  0.3933  0.4001
 2123SOL    MW4 8540   4.296   2.653   3.782  0.1645  0.4599  0.0980
 2124SOL     OW 8541   2.610   1.392   3.644  0.5232  0.5290 -0.1085
 2124SOL    HW2 8542   2.581   1.305   3.617 -0.0791  1.3189 -2.0962
 2124SOL    HW3 8543   2.538   1.450   3.619  0.0330  1.3658  3.0234
 2124SOL    MW4 8544   2.596   1.388   3.637  0.3791  0.7436  0.0424
 2125SOL     OW 8545   0.218   2.331   0.369 -0.3341 -0.1304 -0.0734
 2125SOL    HW2 8546   0.163   2.388   0.314 -1.6697 -0.1007  1.2469
 2125SOL    HW3 8547   0.209   2.368   0.457  1.9672 -0.0328  0.1339
 2125SOL    MW4 8548   0.209   2.344   0.373 -0.2067 -0.1137  0.1281
 2126SOL     OW 8549   4.399   3.111   3.944  0.4413 -0.3505  0.4210
 2126SOL    HW2 8550   4.381   3.047   3.876 -1.8116  0.1176  0.5305
 2126SOL    HW3 8551   4.354   3.077   4.021  1.7929 -0.1642  1.3174
 2126SOL    MW4 8552   4.391   3.098   3.945  0.3223 -0.2642  0.5536
 2127SOL     OW 8553   0.191   1.877   4.055  0.0941  0.0301 -0.2204
 2127SOL    HW2 8554   0.124   1.864   4.123  1.6692 -0.6556  1.2298
 2127SOL    HW3 8555   0.178   1.967   4.026 -1.3625 -0.0392  0.1603
 2127SOL    MW4 8556   0.180   1.887   4.060  0.1097 -0.0694  0.0210
 2128SOL     OW 8557   4.365   2.208   3.524 -0.4831  0.1762  0.3051
 2128SOL    HW2 8558   4.409   2.124   3.513 -1.2797 -0.3109  0.7434
 2128SOL    HW3 8559   4.359   2.244   3.436 -0.9028 -0.6337 -0.0081
 2128SOL    MW4 8560   4.370   2.202   3.511 -0.6433  0.0050  0.3214
 2129SOL     OW 8561   3.498   0.777   1.502 -0.3826 -0.4954 -0.1555
 2129SOL    HW2 8562   3.482   0.692   1.462  0.5454 -0.6277 -0.2609
 2129SOL    HW3 8563   3.568   0.816   1.449  0.8224 -0.6399  1.2722
 2129SOL    MW4 8564   3.505   0.771   1.490 -0.1011 -0.5320  0.0190
 2130SOL     OW 8565   0.271   3.978   4.236 -0.5194 -0.0431 -0.0436
 2130SOL    HW2 8566   0.358   3.954   4.267 -0.5082 -1.3766 -1.0468
 2130SOL    HW3 8567   0.237   4.038   4.303  0.5241 -0.7881  1.1810
 2130SOL    MW4 8568   0.278   3.982   4.249 -0.3803 -0.3173 -0.0143
 2131SOL     OW 8569   4.036   3.253   1.833 -0.2105  0.0503  0.3901
 2131SOL    HW2 8570   4.128   3.250   1.860 -0.1516 -1.1949  0.0817
 2131SOL    HW3 8571   3.993   3.306   1.900  0.3276 -1.2343  1.7729
 2131SOL    MW4 8572   4.043   3.259   1.845 -0.1316 -0.2835  0.5317
 2132SOL     OW 8573   1.649   4.009   2.289  0.2766  0.1053 -0.1193
 2132SOL    HW2 8574   1.723   4.068   2.305 -0.7660  1.0937  1.1738
 2132SOL    HW3 8575   1.634   4.014   2.195  0.8695  1.0875 -0.1665
 2132SOL    MW4 8576   1.657   4.018   2.279  0.2173  0.3653  0.0451
 2133SOL     OW 8577   0.038   1.523   1.806 -0.2562  0.0949 -0.4612
 2133SOL    HW2 8578  -0.005   1.607   1.822 -0.8927 -0.6054  1.7729
 2133SOL    HW3 8579   0.113   1.524   1.865  0.5869 -0.3066 -1.5111
 2133SOL    MW4 8580   0.042   1.534   1.816 -0.2290 -0.0504 -0.3049
 2134SOL     OW 8581   1.907   4.620   1.859 -0.0691 -0.1948 -0.1195
 2134SOL    HW2 8582   1.905   4.716   1.868  0.5521 -0.2379  0.4675
 2134SOL    HW3 8583   1.819   4.592   1.884 -0.6029  0.3100 -1.3381
 2134SOL    MW4 8584   1.895   4.629   1.863 -0.0576 -0.1335 -0.2029
 2135SOL     OW 8585   0.488   4.328   0.905  0.6898 -0.0944  0.0325
 2135SOL    HW2 8586   0.517   4.403   0.958 -0.0708 -0.1291  0.4980
 2135SOL    HW3 8587   0.394   4.322   0.921  0.3724  0.1403 -1.6293
 2135SOL    MW4 8588   0.479   4.337   0.914  0.5476 -0.0682 -0.1254
 2136SOL     OW 8589   0.775   4.305   3.619 -0.2834 -0.5221  0.1237
 2136SOL    HW2 8590   0.727   4.247   3.560 -0.3513  0.3689 -0.7137
 2136SOL    HW3 8591   0.859   4.262   3.633 -0.5158 -1.0530 -0.1091
 2136SOL    MW4 8592   0.779   4.292   3.613 -0.3231 -0.4749 -0.0174
 2137SOL     OW 8593   0.453   2.946   0.892  0.2216 -0.3299 -0.2352
 2137SOL    HW2 8594   0.465   2.989   0.976 -0.1473  0.4099 -0.5552
 2137SOL    HW3 8595   0.456   3.017   0.828  2.1501 -1.0704 -0.9913
 2137SOL    MW4 8596   0.455   2.961   0.894  0.4274 -0.3300 -0.3771
 2138SOL     OW 8597   0.807   0.526   2.117 -0.3892  0.0023 -0.0503
 2138SOL    HW2 8598   0.814   0.608   2.166  1.7418  1.1045 -2.0839
 2138SOL    HW3 8599   0.764   0.551   2.036  0.6881 -0.7910 -0.8724
 2138SOL    MW4 8600   0.802   0.540   2.113  0.0342  0.0430 -0.4270
 2139SOL     OW 8601   2.898   1.124   3.899  0.6951 -0.4251 -0.1179
 2139SOL    HW2 8602   2.978   1.078   3.875  2.3930  1.3377  1.9714
 2139SOL    HW3 8603   2.902   1.207   3.850  0.7781  0.1992  0.9346
 2139SOL    MW4 8604   2.909   1.129   3.889  0.9303 -0.1101  0.2964
 2140SOL     OW 8605   3.642   3.159   2.960  0.2305 -0.5566  0.1825
 2140SOL    HW2 8606   3.679   3.243   2.988 -2.5153  0.6116  0.4488
 2140SOL    HW3 8607   3.707   3.123   2.900  2.3424  0.8302  1.5693
 2140SOL    MW4 8608   3.655   3.165   2.956  0.1466 -0.2193  0.4003
 2141SOL     OW 8609   3.383   3.189   3.222 -0.1673 -0.1583 -0.5670
 2141SOL    HW2 8610   3.444   3.119   3.243  0.2998  0.6438  0.7808
 2141SOL    HW3 8611   3.343   3.162   3.139  1.2029 -1.2252 -0.8973
 2141SOL    MW4 8612   3.386   3.176   3.214  0.0753 -0.1931 -0.4330
 2142SOL     OW 8613   2.323   3.931   2.849 -0.2436 -0.3655 -0.0831
 2142SOL    HW2 8614   2.308   3.957   2.940 -0.6419  0.3865 -0.3561
 2142SOL    HW3 8615   2.237   3.904   2.817 -0.2285 -0.0416 -0.4100
 2142SOL    MW4 8616   2.309   3.931   2.857 -0.2942 -0.2236 -0.1624
 2143SOL     OW 8617   2.394   4.520   1.286 -0.2548 -0.1956  0.3032
 2143SOL    HW2 8618   2.376   4.610   1.257 -1.2364 -0.5895 -0.3305
 2143SOL    HW3 8619   2.314   4.472   1.265  0.2126 -1.1900  0.7861
 2143SOL    MW4 8620   2.381   4.526   1.280 -0.3223 -0.3791  0.2834
 2144SOL     OW 8621   2.575   1.955   3.618 -0.3843  0.3363 -0.1497
 2144SOL    HW2 8622   2.644   2.022   3.616 -0.7242  0.6864 -0.2772
 2144SOL    HW3 8623   2.617   1.877   3.582  0.0529  0.4430  0.1229
 2144SOL    MW4 8624   2.590   1.954   3.613 -0.3715  0.3966 -0.1307
 2145SOL     OW 8625   2.864   2.139   0.619 -0.0398  0.0596 -0.3474
 2145SOL    HW2 8626   2.828   2.057   0.584  0.1722 -0.1604 -0.0631
 2145SOL    HW3 8627   2.789   2.198   0.626 -0.6263 -0.8509  1.5543
 2145SOL    MW4 8628   2.850   2.136   0.615 -0.0892 -0.0896 -0.0589
 2146SOL     OW 8629   1.457   0.101   1.058 -0.9354 -0.0625 -0.0288
 2146SOL    HW2 8630   1.426   0.173   1.112 -2.3054 -1.8267  1.6047
 2146SOL    HW3 8631   1.394   0.031   1.073  0.4712 -1.6756 -1.4215
 2146SOL    MW4 8632   1.445   0.101   1.067 -0.9305 -0.5081  0.0030
 2147SOL     OW 8633   3.332   0.230   4.449  0.5672 -0.2357 -0.1746
 2147SOL    HW2 8634   3.244   0.266   4.442  0.7597  0.0026 -1.4385
 2147SOL    HW3 8635   3.386   0.304   4.476  0.7146  0.1027 -1.3639
 2147SOL    MW4 8636   3.328   0.244   4.452  0.6123 -0.1596 -0.4978
 2148SOL     OW 8637   3.521   2.980   1.845  0.1685 -0.6100 -1.1484
 2148SOL    HW2 8638   3.542   2.957   1.755  0.9110  0.0843 -1.1609
 2148SOL    HW3 8639   3.486   3.069   1.839  1.6677  0.0252 -0.5753
 2148SOL    MW4 8640   3.519   2.989   1.832  0.4642 -0.4349 -1.0744
 2149SOL     OW 8641   2.735   3.198   4.647  0.2023  0.0707  0.0230
 2149SOL    HW2 8642   2.729   3.104   4.634 -0.9057  0.0999  0.3219
 2149SOL    HW3 8643   2.828   3.214   4.665  0.6559 -0.7747 -1.4587
 2149SOL    MW4 8644   2.747   3.188   4.648  0.1161 -0.0372 -0.1326
 2150SOL     OW 8645   3.375   2.280   1.555 -0.0855 -0.4596 -0.0376
 2150SOL    HW2 8646   3.395   2.301   1.646  0.9695 -1.3843 -0.0318
 2150SOL    HW3 8647   3.328   2.356   1.522 -0.4221 -0.0921  1.2608
 2150SOL    MW4 8648   3.372   2.293   1.563  0.0093 -0.5331  0.1343
 2151SOL     OW 8649   0.888   2.628   3.631  0.4610 -0.6005 -0.1909
 2151SOL    HW2 8650   0.865   2.578   3.709  1.9959  1.0364  1.3763
 2151SOL    HW3 8651   0.926   2.709   3.666  1.3821  0.0568 -2.6477
 2151SOL    MW4 8652   0.890   2.632   3.646  0.7850 -0.2978 -0.3083
 2152SOL     OW 8653   3.025   3.888   2.858 -0.1212  0.2155 -0.2754
 2152SOL    HW2 8654   3.113   3.924   2.870 -0.2017  0.2187  0.3456
 2152SOL    HW3 8655   3.029   3.801   2.899 -0.4603  0.2919 -0.0813
 2152SOL    MW4 8656   3.038   3.881   2.865 -0.1764  0.2260 -0.1678
 2153SOL     OW 8657   1.617   0.759   1.961 -0.3332  0.1565  0.0520
 2153SOL    HW2 8658   1.637   0.690   2.024 -2.0671  0.4122  0.8978
 2153SOL    HW3 8659   1.563   0.716   1.895 -3.3687  1.1776  1.7808
 2153SOL    MW4 8660   1.612   0.744   1.960 -0.9625  0.3250  0.3916
 2154SOL     OW 8661   2.289   4.410   2.070 -0.2243  0.0589 -0.4354
 2154SOL    HW2 8662   2.310   4.502   2.054  1.5845  0.0376  1.5924
 2154SOL    HW3 8663   2.245   4.410   2.155 -2.2007 -0.7237 -1.4409
 2154SOL    MW4 8664   2.286   4.422   2.079 -0.2463 -0.0472 -0.3006
 2155SOL     OW 8665   2.354   1.333   2.969 -0.5916 -0.3510 -0.8701
 2155SOL    HW2 8666   2.298   1.367   3.039  0.1798 -2.1684  0.6943
 2155SOL    HW3 8667   2.315   1.248   2.947  2.3253 -2.3630  1.3264
 2155SOL    MW4 8668   2.341   1.326   2.975 -0.1049 -0.8563 -0.3738
 2156SOL     OW 8669   0.335   2.777   4.299 -0.3454 -0.0440  0.1347
 2156SOL    HW2 8670   0.372   2.702   4.345  2.2000  1.3861  0.5070
 2156SOL    HW3 8671   0.331   2.750   4.207  0.5634 -0.6361  0.2674
 2156SOL    MW4 8672   0.339   2.764   4.293  0.1103  0.0663  0.2012
 2157SOL     OW 8673   2.865   0.066   1.108  0.6853 -0.2115  0.0673
 2157SOL    HW2 8674   2.800  -0.003   1.096 -1.9915  2.3744 -1.0252
 2157SOL    HW3 8675   2.882   0.099   1.020 -0.4440  2.5088  0.7930
 2157SOL    MW4 8676   2.858   0.062   1.095  0.1831  0.4886  0.0190
 2158SOL     OW 8677   3.601   1.525   2.306 -0.1041 -0.1855  0.1621
 2158SOL    HW2 8678   3.614   1.434   2.279 -0.3346  0.3342 -1.8167
 2158SOL    HW3 8679   3.515   1.526   2.347 -0.0507 -0.8829  0.2956
 2158SOL    MW4 8680   3.592   1.513   2.308 -0.1278 -0.2090 -0.0813
 2159SOL     OW 8681   3.007   1.735   1.964  0.0495 -0.0868  0.4833
 2159SOL    HW2 8682   2.942   1.768   2.026  0.2078  1.2471 -0.0590
 2159SOL    HW3 8683   3.008   1.640   1.980 -0.6814  0.1053  1.7690
 2159SOL    MW4 8684   2.998   1.727   1.974 -0.0262  0.1146  0.5814
 2160SOL     OW 8685   2.296   1.996   3.529  0.2740  0.6410 -0.1198
 2160SOL    HW2 8686   2.390   1.981   3.520  0.0550 -0.3396 -0.8454
 2160SOL    HW3 8687   2.270   2.031   3.443 -0.1627  0.1255 -0.1993
 2160SOL    MW4 8688   2.305   1.999   3.516  0.1874  0.4437 -0.2260
 2161SOL     OW 8689   0.561   1.529   4.580  0.2953  0.0432  0.3797
 2161SOL    HW2 8690   0.521   1.498   4.661 -0.4812  0.2171  0.0747
 2161SOL    HW3 8691   0.559   1.625   4.588  0.8337  0.0500  0.4452
 2161SOL    MW4 8692   0.555   1.538   4.592  0.2639  0.0670  0.3481
 2162SOL     OW 8693   0.721   2.412   4.713  0.3926  0.1453 -0.4092
 2162SOL    HW2 8694   0.804   2.409   4.761  0.1861  0.9951  0.0116
 2162SOL    HW3 8695   0.732   2.484   4.651  1.4200 -2.2245 -3.0877
 2162SOL    MW4 8696   0.733   2.422   4.711  0.5009 -0.0551 -0.7071
 2163SOL     OW 8697   3.098   4.631   1.220  0.3842  0.5125  0.0463
 2163SOL    HW2 8698   3.012   4.645   1.180  0.9472  0.1189 -1.3247
 2163SOL    HW3 8699   3.079   4.610   1.312 -0.9645  0.6526 -0.1960
 2163SOL    MW4 8700   3.084   4.630   1.227  0.2804  0.4787 -0.1665
 2164SOL     OW 8701   2.502   0.596   2.204  0.4554 -0.1275  0.6430
 2164SOL    HW2 8702   2.438   0.630   2.267 -2.1599 -0.6995 -1.6117
 2164SOL    HW3 8703   2.502   0.502   2.220  1.1701 -0.0665  1.0120
 2164SOL    MW4 8704   2.493   0.588   2.214  0.2046 -0.1949  0.3943
 2165SOL     OW 8705   2.220   2.941   3.485  0.1654 -0.0303 -0.2907
 2165SOL    HW2 8706   2.314   2.927   3.499  0.3671 -0.0994 -1.6037
 2165SOL    HW3 8707   2.211   3.036   3.478 -0.1731  0.1082  1.8198
 2165SOL    MW4 8708   2.231   2.952   3.486  0.1473 -0.0217 -0.1855
 2166SOL     OW 8709   0.939   2.624   3.214  0.1135  0.2132  0.1068
 2166SOL    HW2 8710   0.941   2.553   3.278 -0.5158  0.6352  0.6135
 2166SOL    HW3 8711   0.983   2.589   3.137 -0.0269 -0.6571  0.4153
 2166SOL    MW4 8712   0.945   2.610   3.212  0.0120  0.1543  0.2143
 2167SOL     OW 8713   2.212   0.973   4.590  0.2863  0.0017  0.1809
 2167SOL    HW2 8714   2.304   0.975   4.566  0.4040  1.5135  0.7066
 2167SOL    HW3 8715   2.212   0.946   4.682  0.3679  2.1591  0.8405
 2167SOL    MW4 8716   2.224   0.970   4.599  0.3126  0.4859  0.3376
 2168SOL     OW 8717   0.790   2.589   1.918  0.0513 -0.4056  0.0181
 2168SOL    HW2 8718   0.856   2.636   1.969  0.6039 -0.7008 -0.4190
 2168SOL    HW3 8719   0.717   2.578   1.979 -0.2548  1.3689  0.0186
 2168SOL    MW4 8720   0.789   2.594   1.933  0.0838 -0.2105 -0.0395
 2169SOL     OW 8721   0.544   2.406   2.016  0.3629  0.3050  0.3364
 2169SOL    HW2 8722   0.475   2.411   1.950 -0.1241 -0.5875  0.7576
 2169SOL    HW3 8723   0.497   2.385   2.098  1.0259  0.6862  0.8194
 2169SOL    MW4 8724   0.529   2.404   2.018  0.3861  0.2375  0.4559
 2170SOL     OW 8725   2.111   2.860   2.556  0.1339  0.0968  0.9969
 2170SOL    HW2 8726   2.052   2.934   2.564 -1.1474 -0.8905  0.7823
 2170SOL    HW3 8727   2.081   2.813   2.478  0.6011 -0.9447  1.4307
 2170SOL    MW4 8728   2.099   2.864   2.547  0.0265 -0.1707  1.0259
 2171SOL     OW 8729   0.142   3.055   1.190  0.0601  0.4692 -0.0513
 2171SOL    HW2 8730   0.131   2.962   1.206 -0.9059  0.5803 -0.0731
 2171SOL    HW3 8731   0.127   3.065   1.096  2.3853  0.3223 -0.4705
 2171SOL    MW4 8732   0.139   3.044   1.180  0.2394  0.4644 -0.1094
 2172SOL     OW 8733   3.221   2.088   4.073  0.0782 -0.0553 -0.3437
 2172SOL    HW2 8734   3.182   2.002   4.061  0.8406 -0.3309 -0.9119
 2172SOL    HW3 8735   3.229   2.124   3.984 -2.2330  1.5146  0.0373
 2172SOL    MW4 8736   3.217   2.082   4.060 -0.1261  0.1154 -0.3681
 2173SOL     OW 8737   3.398   2.402   1.810 -0.3324 -0.0287  0.2052
 2173SOL    HW2 8738   3.470   2.436   1.862 -0.3352  0.3989 -0.0737
 2173SOL    HW3 8739   3.357   2.335   1.866 -0.3688  0.4682  0.7706
 2173SOL    MW4 8740   3.402   2.398   1.824 -0.3374  0.0932  0.2432
 2174SOL     OW 8741   2.730   1.307   1.520 -0.2674 -0.0809 -0.5907
 2174SOL    HW2 8742   2.654   1.254   1.546 -0.5229 -0.2697 -1.6846
 2174SOL    HW3 8743   2.797   1.286   1.585 -1.3946  0.6854  0.8541
 2174SOL    MW4 8744   2.728   1.297   1.532 -0.4497 -0.0046 -0.5444
 2175SOL     OW 8745   2.438   1.664   3.455  0.0367 -0.1524  0.0279
 2175SOL    HW2 8746   2.532   1.667   3.472  0.1219 -0.4013 -0.3980
 2175SOL    HW3 8747   2.401   1.625   3.534  0.2802  0.0431  0.2387
 2175SOL    MW4 8748   2.446   1.659   3.468  0.0801 -0.1596 -0.0005
 2176SOL     OW 8749   3.506   0.101   1.514 -0.5018  0.4902  0.4021
 2176SOL    HW2 8750   3.589   0.146   1.529  1.3172 -2.2458 -1.0653
 2176SOL    HW3 8751   3.505   0.083   1.420 -1.2911 -2.2046  0.8769
 2176SOL    MW4 8752   3.517   0.104   1.504 -0.3660 -0.2263  0.2712
 2177SOL     OW 8753   3.334   3.847   1.621 -0.4535 -0.0329 -0.2399
 2177SOL    HW2 8754   3.296   3.878   1.704  0.3006  0.6222 -0.1312
 2177SOL    HW3 8755   3.315   3.753   1.620  0.3832 -0.2386  1.1423
 2177SOL    MW4 8756   3.326   3.839   1.632 -0.2437  0.0262 -0.0433
 2178SOL     OW 8757   0.446   3.841   1.066  0.0577  0.6192  0.0498
 2178SOL    HW2 8758   0.459   3.762   1.013  0.0674 -0.0716  1.0718
 2178SOL    HW3 8759   0.521   3.842   1.125 -0.3828  0.9512  0.6039
 2178SOL    MW4 8760   0.458   3.831   1.067  0.0009  0.5717  0.2577
 2179SOL     OW 8761   1.327   1.704   2.119  0.2198 -0.0868 -0.0609
 2179SOL    HW2 8762   1.389   1.639   2.087 -0.5044 -0.2176 -1.2569
 2179SOL    HW3 8763   1.377   1.759   2.178  1.7256  0.4120 -1.7708
 2179SOL    MW4 8764   1.342   1.703   2.123  0.3229 -0.0384 -0.4444
 2180SOL     OW 8765   1.474   0.914   1.012 -0.1182  0.5381 -0.3069
 2180SOL    HW2 8766   1.424   0.995   1.008 -0.4388  0.5107  2.0624
 2180SOL    HW3 8767   1.558   0.936   0.971 -1.1235  1.3122 -1.9903
 2180SOL    MW4 8768   1.479   0.928   1.006 -0.2929  0.6366 -0.2164
 2181SOL     OW 8769   1.807   2.931   0.673  0.0593  0.2833 -0.0479
 2181SOL    HW2 8770   1.792   2.982   0.753  0.9225  1.3451 -0.5408
 2181SOL    HW3 8771   1.783   2.990   0.602 -2.3611 -1.2565 -0.5407
 2181SOL    MW4 8772   1.802   2.946   0.674 -0.1462  0.2205 -0.1780
 2182SOL     OW 8773   3.054   4.513   2.694 -0.5225  0.0218 -0.5021
 2182SOL    HW2 8774   3.064   4.564   2.613  1.2712  0.7022  0.1345
 2182SOL    HW3 8775   3.141   4.476   2.710 -0.5750  0.8278  1.7301
 2182SOL    MW4 8776   3.067   4.515   2.685 -0.2928  0.2179 -0.1237
 2183SOL     OW 8777   1.912   4.247   1.866 -0.0047 -0.5894 -0.2931
 2183SOL    HW2 8778   1.916   4.208   1.954  1.2734  0.0580 -0.0497
 2183SOL    HW3 8779   1.993   4.298   1.859 -0.7799  0.5206 -1.3104
 2183SOL    MW4 8780   1.924   4.249   1.877  0.0616 -0.3576 -0.3954
 2184SOL     OW 8781   3.206   3.064   1.616  0.7576  0.2858 -0.2924
 2184SOL    HW2 8782   3.203   3.043   1.523  1.0272 -1.7997  0.1393
 2184SOL    HW3 8783   3.174   2.985   1.660 -1.8461  2.1602  1.3026
 2184SOL    MW4 8784   3.202   3.051   1.610  0.4497  0.2580 -0.0250
 2185SOL     OW 8785   3.518   0.630   3.576 -0.2813  0.5160 -0.1980
 2185SOL    HW2 8786   3.514   0.587   3.661 -3.6784  0.7562 -0.1701
 2185SOL    HW3 8787   3.515   0.558   3.513 -3.1792  0.5108 -0.1198
 2185SOL    MW4 8788   3.517   0.615   3.579 -1.1117  0.5470 -0.1841
 2186SOL     OW 8789   0.075   0.050   3.996 -0.1784 -0.0550  0.1963
 2186SOL    HW2 8790   0.097   0.109   4.068  2.4742 -1.1975  0.3808
 2186SOL    HW3 8791   0.111  -0.034   4.023  1.7375 -0.2975 -2.8760
 2186SOL    MW4 8792   0.083   0.047   4.009  0.4244 -0.2377 -0.1845
 2187SOL     OW 8793   4.371   0.653   4.402  0.3398  0.2027 -0.0195
 2187SOL    HW2 8794   4.455   0.628   4.439 -0.3988 -1.1364  0.7844
 2187SOL    HW3 8795   4.393   0.709   4.328  1.9021  0.7931  0.8724
 2187SOL    MW4 8796   4.385   0.657   4.397  0.4482  0.1039  0.2041
 2188SOL     OW 8797   3.615   2.376   2.299  0.5567  0.4620  0.1388
 2188SOL    HW2 8798   3.611   2.373   2.395 -0.2563  2.5202  0.1823
 2188SOL    HW3 8799   3.695   2.424   2.279  0.5198  0.3779 -0.2227
 2188SOL    MW4 8800   3.625   2.382   2.309  0.4447  0.7226  0.0968
 2189SOL     OW 8801   0.667   4.444   0.712 -0.1438 -0.0712  0.5511
 2189SOL    HW2 8802   0.628   4.405   0.790  1.2913  0.6069  1.6137
 2189SOL    HW3 8803   0.759   4.455   0.734  0.5642 -1.1654 -1.7548
 2189SOL    MW4 8804   0.674   4.440   0.725  0.1390 -0.1259  0.3871
 2190SOL     OW 8805   3.697   3.803   1.929  0.6709  0.1305  0.2232
 2190SOL    HW2 8806   3.677   3.830   1.840  1.0995  0.9955  0.3870
 2190SOL    HW3 8807   3.632   3.735   1.949  0.2924  0.2557 -0.5802
 2190SOL    MW4 8808   3.686   3.798   1.920  0.6776  0.2613  0.1390
 2191SOL     OW 8809   0.259   3.511   1.053  0.0702  0.5675 -0.0089
 2191SOL    HW2 8810   0.249   3.450   0.980 -0.3475  2.0099 -1.2062
 2191SOL    HW3 8811   0.338   3.561   1.032 -0.8740  1.9990 -0.2719
 2191SOL    MW4 8812   0.268   3.510   1.041 -0.1095  0.9468 -0.2016
 2192SOL     OW 8813   1.374   1.935   1.782  0.2388  0.1697  0.4293
 2192SOL    HW2 8814   1.320   1.935   1.861 -1.8909  0.1024 -0.9714
 2192SOL    HW3 8815   1.325   1.990   1.720  2.5253  1.3249 -0.4151
 2192SOL    MW4 8816   1.360   1.943   1.784  0.2596  0.3132  0.1332
 2193SOL     OW 8817   1.073   4.501   4.337 -0.0787  0.2873 -0.2225
 2193SOL    HW2 8818   1.022   4.559   4.280  1.4311  0.4193 -1.4626
 2193SOL    HW3 8819   1.163   4.534   4.330  0.7566 -2.0229 -0.7252
 2193SOL    MW4 8820   1.078   4.513   4.328  0.2306  0.0000 -0.4525
 2194SOL     OW 8821   2.883   0.532   4.029  0.0596  0.3626  0.1110
 2194SOL    HW2 8822   2.950   0.563   3.968  0.9180 -1.7139 -0.0260
 2194SOL    HW3 8823   2.801   0.562   3.990  0.8009  1.9387 -0.3190
 2194SOL    MW4 8824   2.881   0.540   4.016  0.2706  0.2965  0.0367
 2195SOL     OW 8825   4.386   2.497   0.628 -0.1187  0.5195  0.1829
 2195SOL    HW2 8826   4.310   2.553   0.637 -0.5655  0.2059 -1.4321
 2195SOL    HW3 8827   4.369   2.446   0.548  2.1446  1.0536 -0.6816
 2195SOL    MW4 8828   4.374   2.497   0.618  0.1211  0.5486 -0.1442
 2196SOL     OW 8829   0.619   3.862   0.459  0.4490 -0.9334  0.1313
 2196SOL    HW2 8830   0.564   3.924   0.506 -1.2383 -1.5089 -1.0541
 2196SOL    HW3 8831   0.708   3.894   0.472 -0.2222  0.4138  1.4633
 2196SOL    MW4 8832   0.624   3.874   0.467  0.1378 -0.8316  0.1506
 2197SOL     OW 8833   4.189   3.817   1.739 -0.9023  0.2492  0.6844
 2197SOL    HW2 8834   4.218   3.769   1.662 -0.6349  2.4479 -0.6436
 2197SOL    HW3 8835   4.257   3.802   1.804 -0.9245 -1.2928  0.3638
 2197SOL    MW4 8836   4.202   3.809   1.737 -0.8702  0.3359  0.4669
 2198SOL     OW 8837   4.025   4.051   2.378  0.3260  0.2360  0.1864
 2198SOL    HW2 8838   3.952   4.102   2.412  0.0934 -0.5761  0.9018
 2198SOL    HW3 8839   4.010   4.048   2.283 -1.6568 -1.5933  0.5209
 2198SOL    MW4 8840   4.013   4.057   2.370  0.0339 -0.1125  0.3250
 2199SOL     OW 8841   2.121   3.092   1.473  0.0072 -0.2502  0.5685
 2199SOL    HW2 8842   2.188   3.144   1.428 -0.3487 -0.4259 -0.1751
 2199SOL    HW3 8843   2.118   3.010   1.425 -1.8317  0.3457 -0.4008
 2199SOL    MW4 8844   2.129   3.088   1.461 -0.2823 -0.1945  0.3425
 2200SOL     OW 8845   1.454   2.682   4.187  0.4051  0.0933  0.5347
 2200SOL    HW2 8846   1.464   2.776   4.168 -0.4632  0.1591  0.3582
 2200SOL    HW3 8847   1.496   2.671   4.273  1.9517  0.3205 -0.1802
 2200SOL    MW4 8848   1.461   2.693   4.196  0.4946  0.1318  0.4172
 2201SOL     OW 8849   0.161   0.505   1.444  0.6687 -0.7589 -0.1162
 2201SOL    HW2 8850   0.076   0.467   1.424  0.9008 -1.9561  1.1099
 2201SOL    HW3 8851   0.204   0.514   1.359 -0.7246 -0.0286 -0.7469
 2201SOL    MW4 8852   0.155   0.501   1.430  0.5155 -0.8205 -0.0377
 2202SOL     OW 8853   0.823   1.520   0.530 -0.5975 -0.8596 -0.4649
 2202SOL    HW2 8854   0.874   1.443   0.554  0.6862  0.2699  0.4800
 2202SOL    HW3 8855   0.783   1.549   0.612 -1.4346 -0.7784 -0.8981
 2202SOL    MW4 8856   0.824   1.514   0.544 -0.5386 -0.7000 -0.3974
 2203SOL     OW 8857   2.325   1.704   1.454  0.5020 -0.0358 -0.0111
 2203SOL    HW2 8858   2.334   1.623   1.504  0.1812  1.3584  2.3905
 2203SOL    HW3 8859   2.248   1.747   1.490  1.2338  1.8018 -0.5399
 2203SOL    MW4 8860   2.316   1.699   1.465  0.5562  0.3906  0.2360
 2204SOL     OW 8861   0.399   3.251   1.948  0.3023  0.3295 -0.3526
 2204SOL    HW2 8862   0.386   3.156   1.944  0.9404  0.2007  0.5662
 2204SOL    HW3 8863   0.402   3.271   2.041  1.9320  1.0126 -0.5400
 2204SOL    MW4 8864   0.398   3.241   1.960  0.6015  0.4027 -0.2562
 2205SOL     OW 8865   2.485   1.880   4.362 -0.0629 -0.1041 -0.0317
 2205SOL    HW2 8866   2.520   1.804   4.315  0.0855  0.8768 -1.5752
 2205SOL    HW3 8867   2.393   1.859   4.377  0.0790 -0.7663 -0.0899
 2205SOL    MW4 8868   2.477   1.868   4.358 -0.0248 -0.0620 -0.2432
 2206SOL     OW 8869   0.230   3.924   0.472 -0.2200 -0.2769 -0.2992
 2206SOL    HW2 8870   0.276   3.869   0.409  0.2894 -0.7294  0.4537
 2206SOL    HW3 8871   0.299   3.973   0.517 -0.7410  2.0422 -1.9020
 2206SOL    MW4 8872   0.245   3.923   0.470 -0.2215 -0.0308 -0.4113
 2207SOL     OW 8873   1.779   2.692   4.041 -0.2310  0.2626  0.5928
 2207SOL    HW2 8874   1.725   2.617   4.013  1.0203 -0.6695  0.6329
 2207SOL    HW3 8875   1.728   2.734   4.110 -1.0245 -0.4667  0.4567
 2207SOL    MW4 8876   1.765   2.688   4.047 -0.1706  0.0434  0.5803
 2208SOL     OW 8877   2.768   1.845   0.646 -0.1934  0.0988 -0.2562
 2208SOL    HW2 8878   2.693   1.903   0.661  0.9887  1.4552  0.6162
 2208SOL    HW3 8879   2.787   1.808   0.732  1.5209  1.5184  0.0066
 2208SOL    MW4 8880   2.761   1.848   0.659  0.1888  0.4650 -0.1065
 2209SOL     OW 8881   1.572   2.145   2.156  0.5039 -0.0237 -0.3318
 2209SOL    HW2 8882   1.666   2.162   2.165  0.1956  1.6965 -0.1538
 2209SOL    HW3 8883   1.559   2.131   2.062  0.8813  0.1384 -0.4093
 2209SOL    MW4 8884   1.583   2.146   2.144  0.5130  0.2246 -0.3185
 2210SOL     OW 8885   3.085   4.399   4.307 -0.6518 -0.0645 -0.2175
 2210SOL    HW2 8886   3.002   4.448   4.302 -0.6299 -0.2083 -2.6879
 2210SOL    HW3 8887   3.058   4.308   4.316 -0.8162 -0.2713 -2.5690
 2210SOL    MW4 8888   3.070   4.394   4.308 -0.6704 -0.1106 -0.8535
 2211SOL     OW 8889   1.118   3.987   1.543  0.9152  0.3918  0.0319
 2211SOL    HW2 8890   1.036   4.034   1.529  1.4693  1.1145 -0.7920
 2211SOL    HW3 8891   1.120   3.970   1.638 -1.9012 -2.7586 -0.3651
 2211SOL    MW4 8892   1.107   3.991   1.554  0.6169  0.0710 -0.1291
 2212SOL     OW 8893   3.171   3.507   2.509 -0.3772  0.2167 -0.1863
 2212SOL    HW2 8894   3.190   3.429   2.457  0.0852  0.9802 -1.1730
 2212SOL    HW3 8895   3.249   3.561   2.502 -0.7304  0.8159  0.4129
 2212SOL    MW4 8896   3.184   3.503   2.501 -0.3629  0.3965 -0.2375
 2213SOL     OW 8897   3.682   4.529   1.556  0.3670  0.1580  0.0667
 2213SOL    HW2 8898   3.633   4.611   1.546 -0.0568 -0.2902 -1.6611
 2213SOL    HW3 8899   3.773   4.558   1.569  0.0839  0.9216  0.3908
 2213SOL    MW4 8900   3.688   4.544   1.556  0.2735  0.1993 -0.1186
 2214SOL     OW 8901   3.905   3.923   2.916  0.2299  0.1473  0.5150
 2214SOL    HW2 8902   3.915   3.877   2.999  1.3689 -0.5260  0.0153
 2214SOL    HW3 8903   3.993   3.925   2.879 -0.1187  1.2361 -0.2566
 2214SOL    MW4 8904   3.918   3.917   2.922  0.3343  0.2022  0.3474
 2215SOL     OW 8905   0.977   2.823   2.331  0.0886  0.2301  0.1890
 2215SOL    HW2 8906   1.060   2.826   2.378  0.1395 -0.3978  0.1384
 2215SOL    HW3 8907   0.930   2.901   2.361 -1.1356 -1.6952  3.5619
 2215SOL    MW4 8908   0.982   2.834   2.341 -0.0662 -0.1070  0.6273
 2216SOL     OW 8909   2.326   3.924   2.122 -0.2528 -0.0929  0.5194
 2216SOL    HW2 8910   2.389   3.995   2.108 -1.0487  1.1863  3.0948
 2216SOL    HW3 8911   2.252   3.947   2.065  1.2954 -1.2891 -2.0594
 2216SOL    MW4 8912   2.325   3.937   2.112 -0.1535 -0.0820  0.5190
 2217SOL     OW 8913   2.194   3.619   3.094  0.2684 -0.1566  0.1596
 2217SOL    HW2 8914   2.109   3.586   3.123 -0.3134  0.7904 -0.4368
 2217SOL    HW3 8915   2.190   3.713   3.110  2.1219 -0.4097  2.3823
 2217SOL    MW4 8916   2.182   3.627   3.100  0.4363 -0.0653  0.3743
 2218SOL     OW 8917   0.139   1.589   4.007 -0.7357  0.2739 -0.4534
 2218SOL    HW2 8918   0.153   1.681   4.031 -0.9176  0.2129 -0.1195
 2218SOL    HW3 8919   0.049   1.585   3.975 -1.5245 -0.2598  1.7791
 2218SOL    MW4 8920   0.129   1.601   4.006 -0.8638  0.1953 -0.1149
 2219SOL     OW 8921   3.127   4.229   0.975  0.5791 -0.3199  0.3364
 2219SOL    HW2 8922   3.206   4.268   0.938  0.6734 -0.7812  0.0553
 2219SOL    HW3 8923   3.122   4.265   1.064  0.6786  0.3128  0.0846
 2219SOL    MW4 8924   3.137   4.239   0.982  0.6049 -0.2975  0.2661
 2220SOL     OW 8925   3.694   0.178   4.089 -0.2002  0.0273  0.5981
 2220SOL    HW2 8926   3.604   0.166   4.120  0.3057 -0.4725  1.9358
 2220SOL    HW3 8927   3.738   0.221   4.162  0.9060 -0.7351  0.3836
 2220SOL    MW4 8928   3.688   0.182   4.103  0.0124 -0.1392  0.7472
 2221SOL     OW 8929   1.028   2.325   2.764  0.1178 -0.2333 -0.4305
 2221SOL    HW2 8930   0.981   2.291   2.840 -0.4874  1.4463 -0.0082
 2221SOL    HW3 8931   1.101   2.265   2.751 -0.1363 -0.8974  1.0985
 2221SOL    MW4 8932   1.031   2.313   2.772  0.0043 -0.0992 -0.1731
 2222SOL     OW 8933   3.614   1.744   2.085  0.0968 -0.3904  0.4165
 2222SOL    HW2 8934   3.577   1.813   2.139  1.1459 -0.0790  0.7428
 2222SOL    HW3 8935   3.631   1.672   2.146  0.3299 -0.4169  0.3200
 2222SOL    MW4 8936   3.612   1.744   2.100  0.2661 -0.3527  0.4468
 2223SOL     OW 8937   3.386   3.290   1.007 -0.1978  0.3896 -0.8421
 2223SOL    HW2 8938   3.386   3.381   0.979 -1.2109  0.2866 -1.1861
 2223SOL    HW3 8939   3.416   3.293   1.098  1.0263  0.9286 -1.2496
 2223SOL    MW4 8940   3.390   3.302   1.015 -0.1700  0.4468 -0.9412
 2224SOL     OW 8941   1.020   3.374   1.455 -0.1065  0.3888  0.6004
 2224SOL    HW2 8942   1.103   3.412   1.426  1.0661 -2.2119  0.4006
 2224SOL    HW3 8943   0.993   3.318   1.382 -0.5961 -0.9514  1.7934
 2224SOL    MW4 8944   1.028   3.372   1.441 -0.0165 -0.1311  0.7315
 2225SOL     OW 8945   4.278   0.399   3.321  0.1928 -0.5444 -0.2036
 2225SOL    HW2 8946   4.234   0.373   3.240  0.7585  1.1169 -1.0704
 2225SOL    HW3 8947   4.309   0.488   3.304 -0.3194  0.1178  2.1031
 2225SOL    MW4 8948   4.276   0.408   3.308  0.2003 -0.2379 -0.0134
 2226SOL     OW 8949   0.047   1.824   4.285 -0.4237 -0.0324 -0.2199
 2226SOL    HW2 8950   0.084   1.887   4.347 -2.5678  0.3560  0.7177
 2226SOL    HW3 8951  -0.027   1.870   4.245 -1.5783 -1.6947 -0.0574
 2226SOL    MW4 8952   0.042   1.838   4.288 -0.8589 -0.2005 -0.0749
 2227SOL     OW 8953   0.188   0.957   2.853 -0.0371 -0.1625 -0.3455
 2227SOL    HW2 8954   0.144   0.955   2.768  0.6304  1.3861 -0.7494
 2227SOL    HW3 8955   0.269   1.004   2.836  0.8192 -1.1973  0.8324
 2227SOL    MW4 8956   0.193   0.963   2.840  0.1639 -0.0948 -0.2434
 2228SOL     OW 8957   3.915   1.329   2.376  0.1830  0.1425 -0.2770
 2228SOL    HW2 8958   3.900   1.411   2.422  0.3565  1.0614 -1.8346
 2228SOL    HW3 8959   3.986   1.287   2.425  0.7313  1.3460 -0.0212
 2228SOL    MW4 8960   3.922   1.334   2.388  0.2785  0.4226 -0.4487
 2229SOL     OW 8961   1.718   3.728   2.264 -0.1418  0.4935  0.2491
 2229SOL    HW2 8962   1.705   3.820   2.287  1.5008  1.1732 -1.4436
 2229SOL    HW3 8963   1.765   3.691   2.338 -2.5707  0.4690  1.8601
 2229SOL    MW4 8964   1.722   3.735   2.277 -0.2456  0.5798  0.2384
 2230SOL     OW 8965   1.337   0.847   4.473 -0.7862 -0.0573  0.3293
 2230SOL    HW2 8966   1.281   0.921   4.498 -1.4740 -0.5877  0.3628
 2230SOL    HW3 8967   1.360   0.865   4.382  0.2661  0.9621  0.7921
 2230SOL    MW4 8968   1.332   0.859   4.464 -0.7383  0.0072  0.3948
 2231SOL     OW 8969   1.222   2.653   3.286 -0.2566 -0.2017 -0.0278
 2231SOL    HW2 8970   1.246   2.720   3.221 -0.5541  1.3324  1.4186
 2231SOL    HW3 8971   1.127   2.643   3.275 -0.4263  0.6103  0.6818
 2231SOL    MW4 8972   1.212   2.661   3.276 -0.3181  0.1080  0.2568
 2232SOL     OW 8973   0.795   1.779   2.899  0.0764  0.4054  0.0975
 2232SOL    HW2 8974   0.824   1.712   2.961 -0.3576  0.3431  0.2352
 2232SOL    HW3 8975   0.867   1.787   2.837  0.0575 -0.3174 -0.0247
 2232SOL    MW4 8976   0.809   1.771   2.899  0.0166  0.3017  0.0994
 2233SOL     OW 8977   4.218   2.153   1.657  0.1155 -0.0960  0.1730
 2233SOL    HW2 8978   4.263   2.148   1.742 -1.4482 -2.0022  0.9278
 2233SOL    HW3 8979   4.234   2.068   1.617 -0.6530  0.1665 -0.6951
 2233SOL    MW4 8980   4.226   2.141   1.663 -0.1917 -0.3128  0.1582
 2234SOL     OW 8981   1.541   2.236   2.446  0.0613 -0.2204  0.0869
 2234SOL    HW2 8982   1.496   2.307   2.401  1.7864  0.4187 -0.6393
 2234SOL    HW3 8983   1.568   2.176   2.377  1.6842  0.1793  0.3427
 2234SOL    MW4 8984   1.539   2.237   2.431  0.5031 -0.0832  0.0248
 2235SOL     OW 8985   0.304   2.353   1.576 -0.0809  0.0519 -0.0104
 2235SOL    HW2 8986   0.308   2.352   1.481  0.4234 -0.2714  0.0083
 2235SOL    HW3 8987   0.214   2.328   1.597  0.1484 -1.1381 -0.3918
 2235SOL    MW4 8988   0.293   2.349   1.566  0.0159 -0.1476 -0.0583
 2236SOL     OW 8989   1.927   0.610   1.395 -0.1818  0.1195  0.1776
 2236SOL    HW2 8990   1.844   0.590   1.353 -1.0125 -2.3012  2.8236
 2236SOL    HW3 8991   1.991   0.557   1.347 -0.4480  0.4711 -0.5869
 2236SOL    MW4 8992   1.924   0.600   1.383 -0.3266 -0.1535  0.4258
 2237SOL     OW 8993   0.042   4.002   1.061  0.4949  0.1648 -0.8222
 2237SOL    HW2 8994   0.046   4.040   0.973 -3.0660  0.9601 -0.7087
 2237SOL    HW3 8995  -0.015   4.062   1.110  0.6914 -1.4472  1.4211
 2237SOL    MW4 8996   0.035   4.015   1.056  0.0510  0.0572 -0.5112
 2238SOL     OW 8997   0.027   1.538   1.165  0.1909 -0.0548 -0.1170
 2238SOL    HW2 8998   0.082   1.481   1.112 -0.6054 -1.2200  0.3001
 2238SOL    HW3 8999  -0.009   1.601   1.103 -1.2508 -1.8034 -1.0913
 2238SOL    MW4 9000   0.030   1.539   1.150 -0.1044 -0.4393 -0.1907
 2239SOL     OW 9001   2.746   0.208   1.331 -0.3161 -0.1445  0.6153
 2239SOL    HW2 9002   2.792   0.155   1.266 -0.4336  0.7399 -0.2056
 2239SOL    HW3 9003   2.755   0.159   1.413  1.5242 -0.3086  0.3398
 2239SOL    MW4 9004   2.753   0.194   1.333 -0.0889 -0.0495  0.4708
 2240SOL     OW 9005   2.830   4.526   4.270 -0.1145  0.6891 -0.4086
 2240SOL    HW2 9006   2.835   4.475   4.189  3.0690 -0.6266  0.5149
 2240SOL    HW3 9007   2.773   4.474   4.327  0.7684 -0.3866 -0.4855
 2240SOL    MW4 9008   2.823   4.512   4.267  0.4220  0.3738 -0.2966
 2241SOL     OW 9009   2.526   1.536   0.827 -0.2710  0.1857 -0.4570
 2241SOL    HW2 9010   2.443   1.507   0.791 -0.3412  1.4941 -1.3759
 2241SOL    HW3 9011   2.577   1.565   0.751  0.5597  0.5389  0.2235
 2241SOL    MW4 9012   2.522   1.536   0.812 -0.1705  0.4050 -0.4884
 2242SOL     OW 9013   4.349   4.627   4.489  0.3019 -0.0686  0.2183
 2242SOL    HW2 9014   4.288   4.635   4.416  0.0485 -1.5528  0.2529
 2242SOL    HW3 9015   4.339   4.536   4.519  1.3614  0.1423  1.2460
 2242SOL    MW4 9016   4.340   4.616   4.483  0.4082 -0.2365  0.3576
 2243SOL     OW 9017   1.098   2.034   3.099 -0.2496 -0.0159 -0.9589
 2243SOL    HW2 9018   1.115   1.959   3.041 -1.6210 -0.9156 -0.2105
 2243SOL    HW3 9019   1.012   2.017   3.137 -0.7582  2.1476 -1.0611
 2243SOL    MW4 9020   1.089   2.022   3.097 -0.4977  0.1512 -0.8736
 2244SOL     OW 9021   0.071   3.519   2.369  0.1546 -0.7757  0.1783
 2244SOL    HW2 9022   0.047   3.553   2.283 -1.1948  0.0954  0.8835
 2244SOL    HW3 9023   0.015   3.443   2.381 -1.5180  0.5985  1.3473
 2244SOL    MW4 9024   0.061   3.514   2.359 -0.2441 -0.4797  0.4256
 2245SOL     OW 9025   2.512   0.813   2.643 -0.3584  0.1368 -0.2924
 2245SOL    HW2 9026   2.449   0.851   2.703 -0.3542  1.5712 -1.1928
 2245SOL    HW3 9027   2.571   0.762   2.700 -0.9082  0.7099  0.8017
 2245SOL    MW4 9028   2.512   0.811   2.659 -0.4306  0.4016 -0.2668
 2246SOL     OW 9029   1.429   0.280   2.369 -0.1738  0.3631  0.0909
 2246SOL    HW2 9030   1.499   0.229   2.329 -2.0482 -2.2722  0.0691
 2246SOL    HW3 9031   1.433   0.258   2.462 -0.0985  1.2956  0.3145
 2246SOL    MW4 9032   1.439   0.271   2.376 -0.4113  0.1384  0.1173
 2247SOL     OW 9033   4.055   4.066   4.066  0.5357  0.3744 -0.4613
 2247SOL    HW2 9034   4.060   3.972   4.087  1.0961  0.7166  0.9796
 2247SOL    HW3 9035   4.119   4.078   3.996  1.7166 -0.0086  0.5270
 2247SOL    MW4 9036   4.064   4.055   4.059  0.7658  0.3691 -0.1416
 2248SOL     OW 9037   2.826   4.516   2.838  0.3207 -0.1303 -0.5142
 2248SOL    HW2 9038   2.909   4.523   2.791 -0.3304 -0.0478 -1.6732
 2248SOL    HW3 9039   2.759   4.536   2.772 -0.5915  0.4004  0.5403
 2248SOL    MW4 9040   2.828   4.520   2.823  0.1147 -0.0496 -0.5279
 2249SOL     OW 9041   3.348   3.115   2.565 -0.2299 -0.1367 -0.1029
 2249SOL    HW2 9042   3.256   3.102   2.586 -0.4453  2.4561  0.7291
 2249SOL    HW3 9043   3.379   3.179   2.629  2.8350 -2.8540  1.2932
 2249SOL    MW4 9044   3.340   3.122   2.576  0.1462 -0.1533  0.1912
 2250SOL     OW 9045   2.608   1.253   3.085 -0.4606 -0.1376 -0.4056
 2250SOL    HW2 9046   2.529   1.250   3.032 -0.4933  1.1798 -0.4382
 2250SOL    HW3 9047   2.680   1.244   3.022 -0.5228  0.6023 -0.5800
 2250SOL    MW4 9048   2.607   1.251   3.070 -0.4728  0.1338 -0.4327
 2251SOL     OW 9049   1.212   3.442   2.321 -0.0031 -0.4028  0.2032
 2251SOL    HW2 9050   1.210   3.369   2.259 -1.2391 -1.9021  1.9226
 2251SOL    HW3 9051   1.268   3.411   2.392  0.9580  1.0704  0.1010
 2251SOL    MW4 9052   1.219   3.428   2.322 -0.0393 -0.4063  0.4168
 2252SOL     OW 9053   2.563   3.130   3.030  0.2524  0.1142  0.1434
 2252SOL    HW2 9054   2.573   3.223   3.007 -0.5165 -0.3176 -2.0421
 2252SOL    HW3 9055   2.471   3.122   3.056  0.4138  0.0235  0.7009
 2252SOL    MW4 9056   2.552   3.142   3.030  0.1724  0.0453 -0.0715
 2253SOL     OW 9057   3.853   1.040   0.544 -0.3559 -0.3454 -0.1895
 2253SOL    HW2 9058   3.823   1.129   0.525  0.2328  0.2565  1.5740
 2253SOL    HW3 9059   3.948   1.050   0.557 -0.2909 -1.2362 -0.0025
 2253SOL    MW4 9060   3.862   1.053   0.543 -0.2697 -0.3836  0.0678
 2254SOL     OW 9061   4.252   1.736   4.502 -0.5175 -0.2435 -0.1544
 2254SOL    HW2 9062   4.279   1.705   4.416 -0.2983  0.6952 -0.4293
 2254SOL    HW3 9063   4.321   1.707   4.562 -0.3004 -0.2533 -0.4120
 2254SOL    MW4 9064   4.265   1.728   4.499 -0.4601 -0.1210 -0.2251
 2255SOL     OW 9065   1.749   3.498   1.575  0.3034  0.4721 -0.2394
 2255SOL    HW2 9066   1.818   3.486   1.509 -1.2890  0.0533 -1.8643
 2255SOL    HW3 9067   1.724   3.409   1.599 -0.3967  0.6205 -0.4208
 2255SOL    MW4 9068   1.755   3.484   1.569  0.0010  0.4363 -0.4778
 2256SOL     OW 9069   3.457   1.227   1.816 -0.0201 -0.1307 -0.0003
 2256SOL    HW2 9070   3.440   1.141   1.854  1.0992 -0.6319 -0.6062
 2256SOL    HW3 9071   3.487   1.281   1.889 -0.2896 -0.3819  0.2950
 2256SOL    MW4 9072   3.459   1.223   1.831  0.0920 -0.2301 -0.0412
 2257SOL     OW 9073   1.142   4.395   1.486 -0.2184  0.3142 -0.6169
 2257SOL    HW2 9074   1.180   4.482   1.494  0.2975 -0.1406  2.6000
 2257SOL    HW3 9075   1.091   4.383   1.567 -0.5391 -2.2210 -1.1361
 2257SOL    MW4 9076   1.140   4.405   1.498 -0.1926 -0.0811 -0.2609
 2258SOL     OW 9077   4.294   2.292   3.820 -0.1038 -0.6355 -0.4330
 2258SOL    HW2 9078   4.199   2.283   3.828 -0.0384 -0.5879  0.4630
 2258SOL    HW3 9079   4.313   2.275   3.728 -1.5460  4.4079 -1.8212
 2258SOL    MW4 9080   4.284   2.289   3.809 -0.2851  0.0362 -0.4978
 2259SOL     OW 9081   1.431   3.405   0.859  0.1017  0.2835 -0.0585
 2259SOL    HW2 9082   1.477   3.478   0.818 -0.3902  0.0376 -1.0658
 2259SOL    HW3 9083   1.423   3.430   0.951  1.0462  0.9284 -0.1449
 2259SOL    MW4 9084   1.436   3.418   0.866  0.1616  0.3362 -0.2028
 2260SOL     OW 9085   0.027   0.875   3.919 -0.0152 -0.7125 -0.0591
 2260SOL    HW2 9086   0.107   0.898   3.968 -0.7412  1.4914  0.1727
 2260SOL    HW3 9087   0.058   0.851   3.832  0.9476 -0.2146  0.1370
 2260SOL    MW4 9088   0.042   0.875   3.914  0.0161 -0.3560 -0.0029
 2261SOL     OW 9089   2.906   2.071   0.888 -0.0964  0.5325  0.0042
 2261SOL    HW2 9090   2.908   2.068   0.792 -0.4784  0.0835  0.0104
 2261SOL    HW3 9091   2.846   2.001   0.913  0.8148 -0.0419  0.6135
 2261SOL    MW4 9092   2.898   2.061   0.878 -0.0267  0.3974  0.0854
 2262SOL     OW 9093   3.826   1.319   0.514 -0.2036 -0.2647 -0.3511
 2262SOL    HW2 9094   3.862   1.404   0.489  1.3015 -1.5869 -2.9251
 2262SOL    HW3 9095   3.738   1.318   0.476  0.5134 -0.5935 -2.0729
 2262SOL    MW4 9096   3.819   1.330   0.506  0.0896 -0.4826 -0.9179
 2263SOL     OW 9097   2.904   0.727   4.222  0.0578  0.6622  0.0453
 2263SOL    HW2 9098   2.832   0.786   4.201  1.1609  2.1694  0.4207
 2263SOL    HW3 9099   2.905   0.664   4.149 -0.6877  1.5119 -0.7166
 2263SOL    MW4 9100   2.895   0.726   4.209  0.1047  0.9732 -0.0052
 2264SOL     OW 9101   0.279   4.615   3.011 -0.0016 -0.2001  0.1605
 2264SOL    HW2 9102   0.226   4.676   2.959 -1.0658 -1.3854 -0.1474
 2264SOL    HW3 9103   0.299   4.544   2.951  1.2560 -0.1637  0.5217
 2264SOL    MW4 9104   0.275   4.614   2.996  0.0239 -0.3519  0.1674
 2265SOL     OW 9105   3.508   4.581   4.159 -0.4074 -0.3028 -0.4821
 2265SOL    HW2 9106   3.576   4.577   4.226 -0.4117 -1.0486 -0.5216
 2265SOL    HW3 9107   3.456   4.502   4.171 -1.0733  0.0978 -0.6670
 2265SOL    MW4 9108   3.510   4.570   4.169 -0.4954 -0.3490 -0.5116
 2266SOL     OW 9109   3.183   3.883   1.397 -0.2561 -0.3207  0.0278
 2266SOL    HW2 9110   3.249   3.867   1.465  0.8606  2.0534 -0.4624
 2266SOL    HW3 9111   3.159   3.795   1.367  0.6073 -1.3308  2.1733
 2266SOL    MW4 9112   3.188   3.869   1.402  0.0052 -0.1409  0.2462
 2267SOL     OW 9113   4.012   1.254   3.905 -0.0120  0.2612  0.5125
 2267SOL    HW2 9114   4.053   1.280   3.987  0.0963 -1.3453  0.9807
 2267SOL    HW3 9115   3.951   1.184   3.929 -1.4244  1.1093 -0.4916
 2267SOL    MW4 9116   4.009   1.248   3.919 -0.1836  0.1613  0.4418
 2268SOL     OW 9117   0.559   2.565   1.295  0.6884 -0.0599  0.2516
 2268SOL    HW2 9118   0.598   2.605   1.217  1.6458  2.3967  1.9120
 2268SOL    HW3 9119   0.630   2.513   1.333  0.5780 -0.3157  0.1057
 2268SOL    MW4 9120   0.573   2.563   1.289  0.8001  0.2301  0.4514
 2269SOL     OW 9121   1.340   1.053   1.832 -0.1014 -0.2162  0.0072
 2269SOL    HW2 9122   1.431   1.082   1.843 -0.5974  0.5349  2.4142
 2269SOL    HW3 9123   1.294   1.131   1.802 -0.2216 -0.2222  0.1779
 2269SOL    MW4 9124   1.346   1.067   1.829 -0.1827 -0.1180  0.3473
 2270SOL     OW 9125   3.753   2.238   1.517 -0.2851  0.2183 -0.4976
 2270SOL    HW2 9126   3.831   2.239   1.573 -0.3368  0.5706 -0.4288
 2270SOL    HW3 9127   3.704   2.161   1.547 -0.4357  0.5474  0.1163
 2270SOL    MW4 9128   3.757   2.228   1.529 -0.3119  0.3080 -0.4075
 2271SOL     OW 9129   2.249   2.832   0.695  0.1180  0.1984  0.6299
 2271SOL    HW2 9130   2.250   2.748   0.649  0.4917  0.5051  0.0679
 2271SOL    HW3 9131   2.338   2.864   0.688  0.3841 -0.1376  2.3146
 2271SOL    MW4 9132   2.261   2.825   0.688  0.2022  0.1945  0.7780
 2272SOL     OW 9133   3.115   3.129   3.419 -0.3440  0.7763  0.6166
 2272SOL    HW2 9134   3.130   3.222   3.406 -0.5758  0.3612 -3.0676
 2272SOL    HW3 9135   3.103   3.094   3.331  0.3914 -2.8600  1.8826
 2272SOL    MW4 9136   3.115   3.137   3.406 -0.2780  0.2418  0.2975
 2273SOL     OW 9137   1.671   4.632   4.293 -0.2132  0.0191 -0.1669
 2273SOL    HW2 9138   1.713   4.546   4.285 -0.5370 -0.3708  1.9712
 2273SOL    HW3 9139   1.743   4.695   4.284  0.2890 -0.5339 -0.0298
 2273SOL    MW4 9140   1.686   4.629   4.291 -0.1897 -0.1054  0.1330
 2274SOL     OW 9141   3.254   0.366   1.466  0.2622  0.0837 -0.0205
 2274SOL    HW2 9142   3.205   0.350   1.386  0.5013  0.0973 -0.1707
 2274SOL    HW3 9143   3.229   0.293   1.524  0.0703  0.0888 -0.0971
 2274SOL    MW4 9144   3.244   0.354   1.463  0.2682  0.0862 -0.0505
 2275SOL     OW 9145   4.068   3.317   3.135 -0.0202 -0.2727 -0.0119
 2275SOL    HW2 9146   4.052   3.410   3.118 -2.8017 -0.1852  2.5516
 2275SOL    HW3 9147   4.153   3.315   3.178 -1.0592  1.4612  2.2693
 2275SOL    MW4 9148   4.077   3.329   3.139 -0.5245 -0.0322  0.6273
 2276SOL     OW 9149   4.262   3.132   4.201  0.1841 -0.2328 -0.4053
 2276SOL    HW2 9150   4.293   3.101   4.286  0.0786  1.0432  0.1037
 2276SOL    HW3 9151   4.303   3.218   4.190 -0.0504 -0.2513 -1.5034
 2276SOL    MW4 9152   4.271   3.139   4.211  0.1397 -0.0668 -0.4835
 2277SOL     OW 9153   0.970   0.159   1.869  0.1866 -0.4071  0.0161
 2277SOL    HW2 9154   0.948   0.072   1.836  0.2060 -0.4631  0.1545
 2277SOL    HW3 9155   1.047   0.146   1.924  1.2297 -0.0520 -1.3266
 2277SOL    MW4 9156   0.977   0.146   1.872  0.3268 -0.3677 -0.1428
 2278SOL     OW 9157   3.828   0.560   4.172  0.0405  0.2683 -0.6758
 2278SOL    HW2 9158   3.828   0.626   4.241 -2.6412  1.2299 -1.5245
 2278SOL    HW3 9159   3.824   0.610   4.090  0.6218 -0.8966 -1.4367
 2278SOL    MW4 9160   3.827   0.575   4.170 -0.2365  0.2414 -0.8879
 2279SOL     OW 9161   2.463   4.163   2.009 -0.4675  0.2643  0.2271
 2279SOL    HW2 9162   2.405   4.238   2.023 -0.8504  0.1003 -0.4493
 2279SOL    HW3 9163   2.507   4.182   1.926  1.2999  0.9222  1.2783
 2279SOL    MW4 9164   2.461   4.175   2.000 -0.2849  0.3290  0.2766
 2280SOL     OW 9165   3.253   3.680   4.293 -0.2579 -0.2372 -0.0148
 2280SOL    HW2 9166   3.347   3.681   4.273 -0.0778  0.1732  0.8222
 2280SOL    HW3 9167   3.222   3.766   4.266 -0.3544 -0.3021 -0.1083
 2280SOL    MW4 9168   3.262   3.691   4.287 -0.2468 -0.1915  0.0830
 2281SOL     OW 9169   3.997   2.876   0.623 -0.1024  0.0714 -0.2249
 2281SOL    HW2 9170   3.912   2.891   0.665  0.2096 -0.1684  0.5124
 2281SOL    HW3 9171   4.054   2.944   0.660 -0.5013  1.6397 -2.3658
 2281SOL    MW4 9172   3.993   2.887   0.634 -0.1137  0.2465 -0.4101
 2282SOL     OW 9173   0.630   0.105   2.798  0.1489  0.0951  0.3353
 2282SOL    HW2 9174   0.618   0.033   2.860 -1.1054  0.4815  0.5477
 2282SOL    HW3 9175   0.725   0.121   2.798  0.3898 -1.2469  0.6256
 2282SOL    MW4 9176   0.641   0.097   2.806  0.0153 -0.0310  0.4017
 2283SOL     OW 9177   0.125   2.975   4.205  0.4912 -0.4448 -0.2103
 2283SOL    HW2 9178   0.147   3.060   4.242  0.1441 -0.2216 -0.5178
 2283SOL    HW3 9179   0.178   2.913   4.255 -0.3982 -0.2015  1.0522
 2283SOL    MW4 9180   0.135   2.978   4.217  0.3281 -0.3831 -0.0839
 2284SOL     OW 9181   2.064   2.248   2.404 -0.2541  0.8478  0.4178
 2284SOL    HW2 9182   2.153   2.221   2.424 -0.6655 -2.1438 -1.4543
 2284SOL    HW3 9183   2.017   2.241   2.488  1.0411  1.5811  1.2134
 2284SOL    MW4 9184   2.069   2.243   2.418 -0.1373  0.5498  0.2756
 2285SOL     OW 9185   4.163   2.678   0.759  0.6944 -0.2345  0.1475
 2285SOL    HW2 9186   4.114   2.742   0.707  1.7863  1.8324  1.5704
 2285SOL    HW3 9187   4.100   2.608   0.776 -0.2002 -0.1100 -2.3867
 2285SOL    MW4 9188   4.148   2.678   0.754  0.7200  0.0544  0.0009
 2286SOL     OW 9189   3.430   0.989   3.057  0.8967  0.1281 -0.1629
 2286SOL    HW2 9190   3.519   0.962   3.080  1.5708  0.6437 -2.0663
 2286SOL    HW3 9191   3.375   0.917   3.086  2.2206 -1.4107 -1.3479
 2286SOL    MW4 9192   3.435   0.976   3.064  1.1601 -0.0069 -0.5703
 2287SOL     OW 9193   2.271   1.813   2.477 -0.8838 -0.5441 -0.3493
 2287SOL    HW2 9194   2.223   1.778   2.403 -1.0489 -0.4711 -0.2771
 2287SOL    HW3 9195   2.312   1.737   2.518  1.5777 -0.2701 -2.2081
 2287SOL    MW4 9196   2.270   1.799   2.473 -0.5808 -0.4984 -0.5851
 2288SOL     OW 9197   4.108   1.065   0.718  0.5220  1.0720 -0.4076
 2288SOL    HW2 9198   4.047   1.114   0.772 -0.1747  0.2101 -0.4049
 2288SOL    HW3 9199   4.180   1.126   0.702  0.2954  1.6442  0.7031
 2288SOL    MW4 9200   4.110   1.079   0.723  0.4001  1.0337 -0.2607
 2289SOL     OW 9201   4.426   3.290   2.451 -0.2759 -0.5301  0.6549
 2289SOL    HW2 9202   4.461   3.213   2.406  0.1686  0.5085 -0.8299
 2289SOL    HW3 9203   4.331   3.276   2.451 -0.3490 -0.1799 -1.3534
 2289SOL    MW4 9204   4.418   3.278   2.445 -0.2275 -0.3469  0.1938
 2290SOL     OW 9205   3.335   1.469   1.195 -0.4900  0.4137  0.6236
 2290SOL    HW2 9206   3.377   1.493   1.112 -1.8650 -1.9188 -0.8173
 2290SOL    HW3 9207   3.286   1.548   1.220 -0.4510  0.9899 -1.0372
 2290SOL    MW4 9208   3.334   1.483   1.187 -0.6664  0.1820  0.2142
 2291SOL     OW 9209   2.292   2.577   0.550  0.2652  0.1488 -0.1147
 2291SOL    HW2 9210   2.344   2.571   0.470 -0.7963  2.0414 -0.9964
 2291SOL    HW3 9211   2.228   2.506   0.542 -0.3115  0.7733 -1.3472
 2291SOL    MW4 9212   2.290   2.567   0.538  0.0489  0.4809 -0.3936
 2292SOL     OW 9213   4.064   3.849   0.567  0.0643  0.9052  0.0734
 2292SOL    HW2 9214   4.023   3.781   0.621  0.0959  0.2704 -0.6883
 2292SOL    HW3 9215   3.996   3.916   0.558 -0.4673  0.3276 -0.3359
 2292SOL    MW4 9216   4.049   3.849   0.573 -0.0014  0.7455 -0.0811
 2293SOL     OW 9217   1.199   1.673   4.182  0.6090 -0.0615  0.2166
 2293SOL    HW2 9218   1.250   1.598   4.151 -0.2623 -0.3333 -0.5926
 2293SOL    HW3 9219   1.109   1.653   4.154  0.2221  0.8419  0.8212
 2293SOL    MW4 9220   1.194   1.660   4.174  0.4430  0.0217  0.1893
 2294SOL     OW 9221   0.252   3.676   4.300  0.1193 -0.3778  0.0353
 2294SOL    HW2 9222   0.221   3.766   4.312 -0.2415 -0.6733  1.3741
 2294SOL    HW3 9223   0.342   3.677   4.333  0.6922 -0.1250 -1.4932
 2294SOL    MW4 9224   0.260   3.688   4.306  0.1473 -0.3834  0.0110
 2295SOL     OW 9225   1.493   0.107   1.456  0.0782  0.1934  0.4788
 2295SOL    HW2 9226   1.544   0.104   1.375  1.7590 -1.9988  1.5765
 2295SOL    HW3 9227   1.546   0.159   1.517  0.4171 -0.9796  1.2042
 2295SOL    MW4 9228   1.507   0.113   1.453  0.3446 -0.2506  0.7193
 2296SOL     OW 9229   2.593   2.515   3.035 -0.0014 -0.0050  0.1653
 2296SOL    HW2 9230   2.558   2.507   2.946  0.9925 -0.9294 -0.1607
 2296SOL    HW3 9231   2.518   2.500   3.091 -0.8149  1.4327 -0.5079
 2296SOL    MW4 9232   2.579   2.512   3.030  0.0226  0.0629  0.0336
 2297SOL     OW 9233   1.053   0.275   4.288 -0.5387 -0.2417  0.2580
 2297SOL    HW2 9234   1.135   0.325   4.292 -0.3249 -0.5483 -0.2805
 2297SOL    HW3 9235   0.987   0.336   4.319 -0.0003 -0.2283  1.4160
 2297SOL    MW4 9236   1.055   0.290   4.293 -0.4394 -0.2804  0.3395
 2298SOL     OW 9237   1.091   2.443   3.926  0.2271 -0.0686 -0.1926
 2298SOL    HW2 9238   1.145   2.398   3.862 -0.6129 -0.1552 -0.8387
 2298SOL    HW3 9239   1.091   2.535   3.897  1.1533  0.1839  0.5834
 2298SOL    MW4 9240   1.098   2.449   3.914  0.2383 -0.0465 -0.1757
 2299SOL     OW 9241   0.589   2.844   3.770  0.9450  0.3510  0.2887
 2299SOL    HW2 9242   0.661   2.828   3.831  1.0770  0.5367  0.1820
 2299SOL    HW3 9243   0.598   2.776   3.704  1.8497  1.1870 -0.4785
 2299SOL    MW4 9244   0.600   2.833   3.770  1.0818  0.4859  0.1733
 2300SOL     OW 9245   2.480   1.459   2.158  0.2674  0.0606 -0.0760
 2300SOL    HW2 9246   2.421   1.468   2.233 -0.4805 -0.1289 -0.6240
 2300SOL    HW3 9247   2.540   1.533   2.165 -0.8728  1.0257 -0.2203
 2300SOL    MW4 9248   2.480   1.470   2.169  0.0184  0.1628 -0.1674
 2301SOL     OW 9249   2.561   2.550   3.320 -0.6405 -0.0737  0.0082
 2301SOL    HW2 9250   2.503   2.626   3.313 -0.2634  0.4903  2.4249
 2301SOL    HW3 9251   2.642   2.579   3.279 -0.0525  1.3645  2.0700
 2301SOL    MW4 9252   2.564   2.564   3.314 -0.5133  0.1905  0.5989
 2302SOL     OW 9253   2.202   3.550   4.426  0.0343 -0.1584  0.3301
 2302SOL    HW2 9254   2.262   3.486   4.464  1.4967  0.6822 -0.5340
 2302SOL    HW3 9255   2.181   3.515   4.339  1.3748  0.8503 -0.4155
 2302SOL    MW4 9256   2.207   3.537   4.420  0.4041  0.0856  0.1183
 2303SOL     OW 9257   3.218   2.844   2.339 -0.0861 -0.0352 -0.1965
 2303SOL    HW2 9258   3.312   2.846   2.319 -0.1775 -2.7742 -1.0900
 2303SOL    HW3 9259   3.214   2.822   2.432  0.1453  0.8046  0.0218
 2303SOL    MW4 9260   3.230   2.841   2.348 -0.0675 -0.2859 -0.2854
 2304SOL     OW 9261   2.033   0.164   3.014 -0.2219  0.1263 -0.1252
 2304SOL    HW2 9262   2.057   0.096   2.951 -0.5279  1.0301 -1.2511
 2304SOL    HW3 9263   2.116   0.191   3.052  0.1020  0.3255 -0.9504
 2304SOL    MW4 9264   2.047   0.159   3.011 -0.2193  0.2718 -0.3829
 2305SOL     OW 9265   0.320   0.148   3.302 -0.0306  0.4289  0.2822
 2305SOL    HW2 9266   0.249   0.159   3.238 -0.5636  2.1407  1.1335
 2305SOL    HW3 9267   0.276   0.145   3.386  0.7578 -0.7046  0.6628
 2305SOL    MW4 9268   0.305   0.149   3.304  0.0031  0.5052  0.4449
 2306SOL     OW 9269   1.053   3.638   3.770 -0.6994 -0.2580  0.4089
 2306SOL    HW2 9270   1.068   3.590   3.688  0.2770  0.4695  0.1556
 2306SOL    HW3 9271   0.991   3.707   3.746  0.6290  0.7997 -0.0401
 2306SOL    MW4 9272   1.047   3.640   3.756 -0.3953 -0.0224  0.3164
 2307SOL     OW 9273   0.438   0.642   2.577  0.7688 -0.1006 -0.0452
 2307SOL    HW2 9274   0.461   0.626   2.669 -1.4657  0.5144  0.6734
 2307SOL    HW3 9275   0.469   0.731   2.560 -0.6829  0.6032  0.8106
 2307SOL    MW4 9276   0.445   0.652   2.587  0.2824  0.0734  0.1621
 2308SOL     OW 9277   2.503   2.182   4.434 -0.4267 -0.3851  0.0777
 2308SOL    HW2 9278   2.493   2.101   4.385  1.8337 -0.9799  0.5717
 2308SOL    HW3 9279   2.468   2.250   4.376 -1.4110 -1.5639 -0.7310
 2308SOL    MW4 9280   2.497   2.180   4.420 -0.2584 -0.6189  0.0362
 2309SOL     OW 9281   0.604   4.657   3.659 -0.3700 -0.0764 -0.1131
 2309SOL    HW2 9282   0.647   4.592   3.715 -0.7020 -0.9447 -0.8435
 2309SOL    HW3 9283   0.674   4.718   3.635 -0.3271  0.5661  1.6153
 2309SOL    MW4 9284   0.619   4.656   3.663 -0.4082 -0.1063  0.0186
 2310SOL     OW 9285   1.548   1.114   3.610  0.0112  0.2298 -0.2255
 2310SOL    HW2 9286   1.554   1.108   3.705  1.1740  3.2093 -0.0454
 2310SOL    HW3 9287   1.628   1.074   3.578  0.3692  0.6313  0.1534
 2310SOL    MW4 9288   1.559   1.108   3.618  0.2120  0.6759 -0.1519
 2311SOL     OW 9289   3.391   3.254   1.743  0.1640  0.4657 -0.3037
 2311SOL    HW2 9290   3.321   3.205   1.698  0.9477 -0.6745 -0.3106
 2311SOL    HW3 9291   3.462   3.257   1.680  0.7578  0.0882  0.3394
 2311SOL    MW4 9292   3.391   3.248   1.729  0.3462  0.2651 -0.2198
 2312SOL     OW 9293   3.299   2.298   2.614 -0.0059  0.5394 -0.4243
 2312SOL    HW2 9294   3.284   2.362   2.684  1.3086  0.6831 -0.2666
 2312SOL    HW3 9295   3.275   2.214   2.653 -1.1028  0.8443 -0.4219
 2312SOL    MW4 9296   3.294   2.296   2.628  0.0229  0.5987 -0.4032
 2313SOL     OW 9297   4.344   2.933   2.721 -0.7717 -0.4660 -0.2436
 2313SOL    HW2 9298   4.295   2.895   2.648  0.5970 -2.7708 -0.0005
 2313SOL    HW3 9299   4.316   2.884   2.798 -0.1749  0.1047  0.3487
 2313SOL    MW4 9300   4.334   2.922   2.721 -0.5131 -0.6948 -0.1330
 2314SOL     OW 9301   1.256   3.609   2.905 -0.0352 -0.7318  0.5848
 2314SOL    HW2 9302   1.190   3.646   2.963  0.2054  1.5864 -0.5759
 2314SOL    HW3 9303   1.311   3.683   2.881  1.7407 -2.2518 -0.1209
 2314SOL    MW4 9304   1.255   3.623   2.909  0.2308 -0.6263  0.3383
 2315SOL     OW 9305   3.888   3.125   2.788  0.2736 -0.1437 -0.2428
 2315SOL    HW2 9306   3.962   3.185   2.794  0.0407  0.2911 -1.5542
 2315SOL    HW3 9307   3.856   3.135   2.698  0.1642 -2.1615 -0.4477
 2315SOL    MW4 9308   3.894   3.134   2.777  0.2284 -0.3526 -0.4430
 2316SOL     OW 9309   1.290   2.907   2.741 -0.7082  0.2322 -0.2386
 2316SOL    HW2 9310   1.312   2.851   2.816 -2.5552  1.1372  1.0392
 2316SOL    HW3 9311   1.361   2.971   2.737 -0.4392 -0.0097  0.5643
 2316SOL    MW4 9312   1.302   2.908   2.751 -0.9165  0.3197  0.0358
 2317SOL     OW 9313   3.279   2.054   2.188  0.1769 -0.1505  0.6461
 2317SOL    HW2 9314   3.267   1.966   2.151  0.9169 -0.7281  1.7679
 2317SOL    HW3 9315   3.221   2.056   2.264  0.9197 -0.0437  1.2216
 2317SOL    MW4 9316   3.270   2.043   2.193  0.3726 -0.2127  0.8702
 2318SOL     OW 9317   1.891   0.222   0.918  0.0091  0.1044 -0.0250
 2318SOL    HW2 9318   1.925   0.255   0.834 -0.8267 -0.4262 -0.5805
 2318SOL    HW3 9319   1.902   0.127   0.912  1.6779  0.1994  1.2466
 2318SOL    MW4 9320   1.897   0.214   0.906  0.1191  0.0469  0.0696
 2319SOL     OW 9321   1.965   3.053   1.104 -0.0417 -0.7760  0.1169
 2319SOL    HW2 9322   2.000   2.966   1.124 -1.2805 -1.1251  0.7705
 2319SOL    HW3 9323   2.014   3.080   1.026  0.5546 -1.9300  0.0721
 2319SOL    MW4 9324   1.976   3.045   1.096 -0.1265 -0.9739  0.1973
 2320SOL     OW 9325   0.182   2.954   0.665  0.1875 -0.4558  0.5494
 2320SOL    HW2 9326   0.258   3.008   0.643  0.3839 -0.8812  0.1764
 2320SOL    HW3 9327   0.215   2.864   0.666 -0.1429 -0.5789  1.1472
 2320SOL    MW4 9328   0.196   2.949   0.662  0.1698 -0.5281  0.5791
 2321SOL     OW 9329   4.110   1.868   3.038 -0.2870  0.4568 -0.1496
 2321SOL    HW2 9330   4.054   1.932   3.083 -0.9643 -0.2896  0.0761
 2321SOL    HW3 9331   4.058   1.839   2.963  0.4299  0.9231 -0.8360
 2321SOL    MW4 9332   4.096   1.873   3.034 -0.2818  0.4199 -0.2105
 2322SOL     OW 9333   1.639   3.056   1.846 -0.0855 -0.5248 -0.4213
 2322SOL    HW2 9334   1.570   3.062   1.912 -2.2206  0.5949 -2.6483
 2322SOL    HW3 9335   1.619   2.976   1.798  1.5269 -1.4030  0.3593
 2322SOL    MW4 9336   1.627   3.046   1.848 -0.1545 -0.4930 -0.6120
 2323SOL     OW 9337   3.226   1.796   2.103 -0.0527  0.2276  0.0544
 2323SOL    HW2 9338   3.270   1.713   2.122  0.2332  0.4395  0.3231
 2323SOL    HW3 9339   3.155   1.773   2.044  0.7110 -0.0570 -0.7672
 2323SOL    MW4 9340   3.222   1.782   2.098  0.0861  0.2180 -0.0181
 2324SOL     OW 9341   2.400   2.113   1.736 -0.4386 -0.6719  0.0131
 2324SOL    HW2 9342   2.362   2.154   1.815 -0.7803 -0.1125 -0.4382
 2324SOL    HW3 9343   2.325   2.099   1.679 -0.0907 -0.4137 -0.5091
 2324SOL    MW4 9344   2.385   2.117   1.739 -0.4377 -0.5643 -0.1154
 2325SOL     OW 9345   2.490   3.769   3.946  0.1961 -0.3213 -0.2217
 2325SOL    HW2 9346   2.449   3.754   3.861  1.5636  0.6446 -1.0633
 2325SOL    HW3 9347   2.554   3.699   3.955 -0.9884 -1.3185  0.7111
 2325SOL    MW4 9348   2.493   3.758   3.936  0.2203 -0.3254 -0.2098
 2326SOL     OW 9349   0.586   1.668   1.696 -0.0440 -0.4916 -0.5699
 2326SOL    HW2 9350   0.576   1.758   1.725  0.6793 -0.2643 -1.0058
 2326SOL    HW3 9351   0.559   1.615   1.772  1.9919  0.1006  0.6158
 2326SOL    MW4 9352   0.581   1.673   1.710  0.3201 -0.3835 -0.4709
 2327SOL     OW 9353   2.873   1.745   4.685 -0.6505  0.0377  0.2438
 2327SOL    HW2 9354   2.808   1.724   4.752  0.6300  1.2376  1.9069
 2327SOL    HW3 9355   2.833   1.815   4.634 -0.1819  1.6933  2.0794
 2327SOL    MW4 9356   2.859   1.751   4.688 -0.4196  0.4145  0.7057
 2328SOL     OW 9357   3.056   2.565   1.007  0.4538 -0.3416 -0.1945
 2328SOL    HW2 9358   2.973   2.520   1.021  0.0582  0.1160 -0.9960
 2328SOL    HW3 9359   3.031   2.650   0.969  1.1520  0.7879  1.8037
 2328SOL    MW4 9360   3.042   2.570   1.004  0.4938 -0.1326 -0.0367
 2329SOL     OW 9361   3.084   0.675   3.893 -0.0948 -0.2890  0.4460
 2329SOL    HW2 9362   3.154   0.617   3.861  1.1093  0.3991  1.7940
 2329SOL    HW3 9363   3.103   0.759   3.852 -0.1805 -0.1194  0.7588
 2329SOL    MW4 9364   3.096   0.678   3.883  0.0529 -0.1758  0.6652
 2330SOL     OW 9365   4.381   1.380   3.715 -0.0839  0.2720 -0.4272
 2330SOL    HW2 9366   4.436   1.448   3.676  2.0017 -1.7830 -1.1523
 2330SOL    HW3 9367   4.381   1.310   3.651 -2.9152 -0.1030 -0.0500
 2330SOL    MW4 9368   4.388   1.380   3.702 -0.1826 -0.0484 -0.4730
 2331SOL     OW 9369   2.186   2.553   4.341  0.1694 -0.2862  0.2844
 2331SOL    HW2 9370   2.225   2.623   4.289 -0.2215  0.1658  0.5954
 2331SOL    HW3 9371   2.104   2.531   4.296 -0.0750 -0.0264  0.5986
 2331SOL    MW4 9372   2.180   2.559   4.328  0.0856 -0.1924  0.3672
 2332SOL     OW 9373   2.659   1.435   3.277  0.5863  0.3855  0.4326
 2332SOL    HW2 9374   2.634   1.374   3.208  0.5920 -1.0223  1.6597
 2332SOL    HW3 9375   2.743   1.471   3.249  0.1962  0.4387 -0.6788
 2332SOL    MW4 9376   2.667   1.432   3.264  0.5355  0.2068  0.4478
 2333SOL     OW 9377   0.040   0.772   1.475 -0.5058 -0.0219  0.4018
 2333SOL    HW2 9378  -0.001   0.800   1.393  0.6760  1.1040  0.1894
 2333SOL    HW3 9379   0.094   0.697   1.450 -1.5812 -0.8313  0.4884
 2333SOL    MW4 9380   0.042   0.766   1.461 -0.4918  0.0198  0.3852
 2334SOL     OW 9381   3.581   3.840   2.999  0.4579  0.2584 -0.5559
 2334SOL    HW2 9382   3.514   3.786   3.041  0.2518  2.0109  1.4457
 2334SOL    HW3 9383   3.663   3.808   3.036  0.3421  1.2516  0.5686
 2334SOL    MW4 9384   3.583   3.828   3.010  0.4153  0.6204 -0.1435
 2335SOL     OW 9385   0.429   4.035   0.620 -0.1304  0.3399 -0.3970
 2335SOL    HW2 9386   0.460   4.031   0.711 -0.6178 -2.3357 -0.3193
 2335SOL    HW3 9387   0.465   4.118   0.587  1.5057  0.5334  1.6970
 2335SOL    MW4 9388   0.438   4.046   0.628  0.0211  0.0124 -0.1105
 2336SOL     OW 9389   1.274   3.547   1.466 -0.1978  0.1523  0.0466
 2336SOL    HW2 9390   1.264   3.550   1.561  0.8714  0.2263  0.1631
 2336SOL    HW3 9391   1.369   3.541   1.452 -0.3207  0.5452 -1.0197
 2336SOL    MW4 9392   1.286   3.547   1.476 -0.0728  0.2139 -0.0787
 2337SOL     OW 9393   4.276   1.376   1.097  0.6813 -0.2513  0.4689
 2337SOL    HW2 9394   4.354   1.429   1.117  0.4322  0.5603 -0.6452
 2337SOL    HW3 9395   4.239   1.417   1.019  0.0008 -1.5701  0.0820
 2337SOL    MW4 9396   4.282   1.388   1.089  0.5589 -0.3183  0.2708
 2338SOL     OW 9397   3.122   0.947   3.839  0.1284 -0.3574  0.1156
 2338SOL    HW2 9398   3.119   0.950   3.743 -2.1668  0.9390  0.1956
 2338SOL    HW3 9399   3.188   1.012   3.863  0.6795 -0.6520 -0.5570
 2338SOL    MW4 9400   3.131   0.956   3.829 -0.1016 -0.2252  0.0374
 2339SOL     OW 9401   2.821   1.633   3.852 -0.5339 -0.0147  0.3450
 2339SOL    HW2 9402   2.863   1.701   3.800 -0.6619 -0.1661  0.0438
 2339SOL    HW3 9403   2.734   1.669   3.872 -0.4459  0.0882  0.5465
 2339SOL    MW4 9404   2.815   1.647   3.848 -0.5391 -0.0211  0.3314
 2340SOL     OW 9405   2.763   2.631   2.768 -0.0642  0.2389  0.1526
 2340SOL    HW2 9406   2.809   2.625   2.684  0.7200 -0.5547  0.6307
 2340SOL    HW3 9407   2.685   2.577   2.756  1.4482 -2.1837  0.8218
 2340SOL    MW4 9408   2.758   2.623   2.755  0.2387 -0.1853  0.3037
 2341SOL     OW 9409   3.014   3.355   3.823 -0.6171 -0.1731  0.1698
 2341SOL    HW2 9410   2.987   3.264   3.836 -0.3812 -0.7328 -3.0189
 2341SOL    HW3 9411   3.095   3.350   3.772  0.8581  1.7870  2.1934
 2341SOL    MW4 9412   3.021   3.342   3.818 -0.3912  0.0122  0.0160
 2342SOL     OW 9413   3.284   3.344   0.519 -0.3919  0.1006 -0.8529
 2342SOL    HW2 9414   3.370   3.379   0.544 -0.2581  0.5907 -1.9639
 2342SOL    HW3 9415   3.286   3.343   0.423 -2.0013  1.0796 -0.9152
 2342SOL    MW4 9416   3.296   3.349   0.510 -0.5867  0.2944 -1.0077
 2343SOL     OW 9417   3.111   4.362   3.871 -0.6217 -0.1235  0.3128
 2343SOL    HW2 9418   3.054   4.365   3.793 -1.2624  1.0163  0.8275
 2343SOL    HW3 9419   3.052   4.340   3.943 -0.3563  0.7274  0.7966
 2343SOL    MW4 9420   3.096   4.359   3.870 -0.6711  0.1392  0.4447
 2344SOL     OW 9421   1.259   2.379   4.372  0.2930  0.0413  0.2179
 2344SOL    HW2 9422   1.282   2.421   4.289 -0.3255  0.1997  0.1272
 2344SOL    HW3 9423   1.173   2.340   4.357 -0.1944  0.7779  1.0333
 2344SOL    MW4 9424   1.251   2.379   4.359  0.1470  0.1595  0.3138
 2345SOL     OW 9425   4.012   4.074   2.104 -0.1698 -0.0670  0.5524
 2345SOL    HW2 9426   3.923   4.078   2.069  0.3323  0.6756 -0.6972
 2345SOL    HW3 9427   4.038   3.983   2.095 -0.1066  0.0804 -0.9099
 2345SOL    MW4 9428   4.004   4.063   2.098 -0.0949  0.0505  0.1943
 2346SOL     OW 9429   3.431   0.180   4.193  0.7130  0.1144 -0.2773
 2346SOL    HW2 9430   3.405   0.200   4.283 -1.7386 -0.0448 -0.9115
 2346SOL    HW3 9431   3.428   0.084   4.188  1.7314  0.0801 -0.2822
 2346SOL    MW4 9432   3.427   0.170   4.204  0.5238  0.0888 -0.3614
 2347SOL     OW 9433   0.044   3.152   3.481 -0.0816  0.6392  0.1560
 2347SOL    HW2 9434   0.033   3.057   3.476 -1.8470  0.6591  2.5389
 2347SOL    HW3 9435   0.075   3.178   3.394  0.8655 -2.1567 -0.3841
 2347SOL    MW4 9436   0.047   3.143   3.469 -0.1895  0.2730  0.3989
 2348SOL     OW 9437   0.826   3.743   2.719  0.2357 -0.0881  0.1902
 2348SOL    HW2 9438   0.834   3.750   2.814 -0.0908  0.6337  0.1670
 2348SOL    HW3 9439   0.732   3.750   2.703  0.3843  0.8811 -0.2690
 2348SOL    MW4 9440   0.814   3.744   2.730  0.2122  0.1352  0.1268
 2349SOL     OW 9441   2.850   4.289   0.942  0.0491  0.2180  0.4256
 2349SOL    HW2 9442   2.945   4.284   0.940  0.0625 -0.0085  1.2067
 2349SOL    HW3 9443   2.830   4.378   0.912  0.6381  1.0927  2.5304
 2349SOL    MW4 9444   2.860   4.300   0.938  0.1283  0.3042  0.8064
 2350SOL     OW 9445   1.107   4.442   3.701 -0.3157  0.1408  0.1044
 2350SOL    HW2 9446   1.076   4.459   3.790  0.1907  1.2566  0.0720
 2350SOL    HW3 9447   1.036   4.474   3.645 -0.5368 -0.3536  0.1013
 2350SOL    MW4 9448   1.093   4.449   3.705 -0.2780  0.2232  0.0999
 2351SOL     OW 9449   2.194   1.465   4.354  0.7809  0.5689  0.3119
 2351SOL    HW2 9450   2.283   1.482   4.385  0.6995  1.6685 -0.0393
 2351SOL    HW3 9451   2.163   1.394   4.409  2.2636 -0.5700 -0.2827
 2351SOL    MW4 9452   2.202   1.458   4.365  0.9658  0.5636  0.1869
 2352SOL     OW 9453   4.312   1.257   2.870 -0.3915  0.0838 -0.0334
 2352SOL    HW2 9454   4.240   1.314   2.842  0.5425  2.2799  1.9029
 2352SOL    HW3 9455   4.277   1.210   2.946 -0.6772 -0.9280 -0.7700
 2352SOL    MW4 9456   4.298   1.258   2.877 -0.3061  0.2401  0.1249
 2353SOL     OW 9457   2.056   4.018   4.178  0.2918  0.4047  0.0644
 2353SOL    HW2 9458   2.127   3.959   4.156 -0.7102 -0.0986 -1.9910
 2353SOL    HW3 9459   2.008   3.974   4.249  1.3588  0.2380  0.6869
 2353SOL    MW4 9460   2.059   4.005   4.185  0.3002  0.3157 -0.1249
 2354SOL     OW 9461   0.880   3.062   2.415 -0.0293 -0.3538 -0.5659
 2354SOL    HW2 9462   0.926   3.090   2.494  1.6774 -2.0970 -0.9112
 2354SOL    HW3 9463   0.905   3.125   2.348  0.9864 -0.6465 -0.4648
 2354SOL    MW4 9464   0.889   3.074   2.416  0.3299 -0.6225 -0.5982
 2355SOL     OW 9465   1.046   4.437   2.157 -0.1566  0.0850  0.1835
 2355SOL    HW2 9466   1.123   4.470   2.109  1.9461 -1.6521  2.2307
 2355SOL    HW3 9467   0.971   4.472   2.109  1.9102  2.2069 -1.6300
 2355SOL    MW4 9468   1.047   4.446   2.144  0.3936  0.1359  0.2141
 2356SOL     OW 9469   0.227   1.178   4.269  0.3834 -0.0231  0.0126
 2356SOL    HW2 9470   0.202   1.086   4.258  0.5000 -0.2798  1.7220
 2356SOL    HW3 9471   0.306   1.188   4.216 -0.8557 -0.3213 -1.9610
 2356SOL    MW4 9472   0.234   1.167   4.261  0.2353 -0.0962 -0.0224
 2357SOL     OW 9473   1.820   3.870   3.704  0.1261  0.1660 -0.2203
 2357SOL    HW2 9474   1.858   3.921   3.775 -0.3465 -0.8821  0.8043
 2357SOL    HW3 9475   1.860   3.783   3.713 -0.1929 -0.0735 -1.0243
 2357SOL    MW4 9476   1.830   3.865   3.714  0.0217 -0.0041 -0.1912
 2358SOL     OW 9477   1.494   1.762   3.586  0.0170 -0.2509 -0.2288
 2358SOL    HW2 9478   1.443   1.708   3.526 -0.8538  0.0060  0.2615
 2358SOL    HW3 9479   1.582   1.726   3.583 -0.3177 -1.0314 -0.7004
 2358SOL    MW4 9480   1.499   1.750   3.578 -0.1420 -0.3200 -0.2265
 2359SOL     OW 9481   1.085   2.547   1.673  0.3609  0.0396 -0.1187
 2359SOL    HW2 9482   1.049   2.495   1.745  0.8575 -1.5345 -0.9746
 2359SOL    HW3 9483   1.168   2.503   1.653  1.5647  2.1268  0.1904
 2359SOL    MW4 9484   1.092   2.534   1.680  0.5853  0.1073 -0.1907
 2360SOL     OW 9485   0.896   1.823   4.505 -0.6338  0.1777  0.9689
 2360SOL    HW2 9486   0.872   1.747   4.451  0.8834  0.4018 -0.0475
 2360SOL    HW3 9487   0.969   1.793   4.559 -0.2199  0.8133  0.7769
 2360SOL    MW4 9488   0.902   1.809   4.505 -0.3790  0.2910  0.8097
 2361SOL     OW 9489   1.697   0.161   2.293  0.7090  0.1381  0.3700
 2361SOL    HW2 9490   1.686   0.076   2.250 -0.8579  1.4497 -1.9019
 2361SOL    HW3 9491   1.760   0.207   2.239 -0.9160  1.6299 -0.2869
 2361SOL    MW4 9492   1.704   0.156   2.281  0.2879  0.5080 -0.0165
 2362SOL     OW 9493   3.172   2.077   2.708 -0.0152  0.0678  0.2358
 2362SOL    HW2 9494   3.182   2.116   2.795 -0.6404  2.3065 -0.6510
 2362SOL    HW3 9495   3.177   1.983   2.723 -1.0514  0.3748  2.8298
 2362SOL    MW4 9496   3.174   2.070   2.721 -0.2344  0.4039  0.4613
 2363SOL     OW 9497   1.408   4.238   2.810  0.1908  0.8667 -0.2981
 2363SOL    HW2 9498   1.355   4.240   2.730  0.8684  2.7263 -0.7341
 2363SOL    HW3 9499   1.365   4.174   2.866 -0.9419  0.3651 -1.7146
 2363SOL    MW4 9500   1.395   4.230   2.806  0.1308  1.0457 -0.5424
 2364SOL     OW 9501   0.836   1.425   1.071 -0.0688 -0.1613 -0.1989
 2364SOL    HW2 9502   0.865   1.421   1.162  2.6049 -0.5147 -1.0487
 2364SOL    HW3 9503   0.826   1.519   1.054 -0.2553 -0.0797  0.3296
 2364SOL    MW4 9504   0.838   1.437   1.081  0.2593 -0.1972 -0.2413
 2365SOL     OW 9505   0.248   0.955   4.093  0.1483  0.2161  0.1476
 2365SOL    HW2 9506   0.273   0.863   4.091  0.7233  0.3797 -0.4688
 2365SOL    HW3 9507   0.322   1.001   4.053 -0.6883  0.8145 -0.7471
 2365SOL    MW4 9508   0.261   0.949   4.088  0.1138  0.3166 -0.0520
 2366SOL     OW 9509   0.680   4.068   2.500  0.4934 -0.0714 -0.1882
 2366SOL    HW2 9510   0.593   4.077   2.538  0.6347 -0.0568  0.1403
 2366SOL    HW3 9511   0.693   3.973   2.493  1.4020 -0.1510  2.0318
 2366SOL    MW4 9512   0.670   4.056   2.504  0.6320 -0.0801  0.1481
 2367SOL     OW 9513   4.473   1.362   1.575  0.0064  0.3161  0.2604
 2367SOL    HW2 9514   4.432   1.284   1.613 -1.9562  0.9802 -0.4273
 2367SOL    HW3 9515   4.507   1.409   1.651  1.7874 -1.4889  0.6376
 2367SOL    MW4 9516   4.472   1.358   1.590 -0.0181  0.1656  0.2195
 2368SOL     OW 9517   0.253   0.343   2.136  0.6522  0.2500 -0.7904
 2368SOL    HW2 9518   0.277   0.436   2.143 -0.2544  0.4771 -0.6154
 2368SOL    HW3 9519   0.306   0.300   2.203  0.3711  0.7934 -0.2001
 2368SOL    MW4 9520   0.263   0.350   2.146  0.4955  0.3516 -0.6895
 2369SOL     OW 9521   0.059   0.429   1.006 -0.2372  0.4530 -0.1336
 2369SOL    HW2 9522   0.124   0.434   1.077 -1.3834 -1.1965  1.0619
 2369SOL    HW3 9523   0.051   0.336   0.988 -0.9824  0.7729 -1.5065
 2369SOL    MW4 9524   0.067   0.417   1.013 -0.4868  0.2775 -0.1570
 2370SOL     OW 9525   1.114   1.787   4.666 -0.0109  0.0934 -0.0081
 2370SOL    HW2 9526   1.152   1.715   4.615  1.2390  1.0006 -0.3760
 2370SOL    HW3 9527   1.110   1.754   4.755  0.2841 -0.5415 -0.2288
 2370SOL    MW4 9528   1.118   1.773   4.671  0.1930  0.1293 -0.0858
 2371SOL     OW 9529   3.894   1.177   1.791 -0.3187 -0.2643  0.1502
 2371SOL    HW2 9530   3.979   1.219   1.794 -0.5558  0.3317 -1.2575
 2371SOL    HW3 9531   3.910   1.088   1.823  0.2761  0.6866  2.6461
 2371SOL    MW4 9532   3.907   1.170   1.796 -0.2716 -0.0603  0.2939
 2372SOL     OW 9533   0.048   1.306   3.167 -0.0437 -0.1902 -0.6979
 2372SOL    HW2 9534   0.084   1.273   3.085  1.8558 -1.1177  0.4688
 2372SOL    HW3 9535   0.001   1.231   3.205 -0.7188  0.1655 -0.8242
 2372SOL    MW4 9536   0.046   1.292   3.161  0.1179 -0.2655 -0.5608
 2373SOL     OW 9537   3.806   2.790   3.039 -0.3984  0.2424 -0.1698
 2373SOL    HW2 9538   3.872   2.814   2.973  0.3963  2.4596  1.3598
 2373SOL    HW3 9539   3.852   2.800   3.123 -2.0721 -0.3008  0.8289
 2373SOL    MW4 9540   3.821   2.794   3.042 -0.5143  0.4630  0.1638
 2374SOL     OW 9541   0.577   1.800   0.832  0.1646 -0.3537  0.1040
 2374SOL    HW2 9542   0.558   1.861   0.903 -0.9262 -0.6169  0.0441
 2374SOL    HW3 9543   0.502   1.807   0.773  0.9940 -0.2489 -0.9479
 2374SOL    MW4 9544   0.565   1.809   0.834  0.1301 -0.3744 -0.0427
 2375SOL     OW 9545   0.240   0.513   4.173 -0.2737 -0.1021  0.2893
 2375SOL    HW2 9546   0.311   0.480   4.118 -0.0171 -2.1190  1.7612
 2375SOL    HW3 9547   0.166   0.526   4.113  0.8263  0.3845 -0.9642
 2375SOL    MW4 9548   0.239   0.510   4.158 -0.0947 -0.3040  0.3176
 2376SOL     OW 9549   1.216   1.123   1.197 -0.3836 -0.1419 -0.0694
 2376SOL    HW2 9550   1.214   1.218   1.206  1.1082 -0.1088  0.1065
 2376SOL    HW3 9551   1.243   1.107   1.107  0.6465 -0.3762  0.2670
 2376SOL    MW4 9552   1.219   1.133   1.187 -0.0509 -0.1686 -0.0019
 2377SOL     OW 9553   1.700   3.576   2.898  0.2542  0.2898 -0.4557
 2377SOL    HW2 9554   1.796   3.581   2.899  0.3430 -1.2475 -0.5908
 2377SOL    HW3 9555   1.681   3.486   2.872 -1.2274 -0.4888  3.1405
 2377SOL    MW4 9556   1.711   3.565   2.894  0.0703 -0.0160  0.0010
 2378SOL     OW 9557   3.096   1.467   2.021 -0.6061 -0.5670  0.0414
 2378SOL    HW2 9558   3.167   1.475   2.085 -0.5171 -0.8903 -0.0169
 2378SOL    HW3 9559   3.129   1.405   1.956  0.4908  1.9871 -1.9309
 2378SOL    MW4 9560   3.110   1.460   2.021 -0.4497 -0.2726 -0.2263
 2379SOL     OW 9561   0.187   2.211   0.779  0.5075  0.4289  0.1183
 2379SOL    HW2 9562   0.164   2.142   0.717  0.7108  0.9512 -0.5510
 2379SOL    HW3 9563   0.171   2.293   0.731  1.4930  0.8284  0.4518
 2379SOL    MW4 9564   0.182   2.213   0.764  0.6643  0.5507  0.0740
 2380SOL     OW 9565   2.704   3.401   1.589  0.7791 -0.3242 -0.0848
 2380SOL    HW2 9566   2.754   3.473   1.626 -0.0592  0.1021  0.2175
 2380SOL    HW3 9567   2.763   3.362   1.524  0.3863  2.0955 -1.9793
 2380SOL    MW4 9568   2.718   3.405   1.585  0.6168  0.0510 -0.2948
 2381SOL     OW 9569   1.017   0.960   1.748  0.3715  0.3151 -0.4524
 2381SOL    HW2 9570   1.041   1.053   1.748  0.2489  0.3460 -0.0314
 2381SOL    HW3 9571   1.036   0.930   1.659  1.0977  0.5712 -0.3837
 2381SOL    MW4 9572   1.023   0.968   1.736  0.4512  0.3530 -0.3877
 2382SOL     OW 9573   1.547   0.167   0.404 -0.5392  0.1282 -0.6521
 2382SOL    HW2 9574   1.455   0.193   0.398 -0.7594 -0.2717  0.8645
 2382SOL    HW3 9575   1.589   0.237   0.454 -0.6464 -1.1815  1.3286
 2382SOL    MW4 9576   1.541   0.180   0.410 -0.5823 -0.0973 -0.1907
 2383SOL     OW 9577   4.408   0.867   1.257 -0.5101 -0.1221  0.6091
 2383SOL    HW2 9578   4.373   0.948   1.296 -0.4396 -0.4218  1.3080
 2383SOL    HW3 9579   4.331   0.813   1.242 -0.4723 -0.2806  0.9781
 2383SOL    MW4 9580   4.393   0.871   1.260 -0.4959 -0.1826  0.7501
 2384SOL     OW 9581   1.415   0.443   3.653 -0.0208  0.3388  0.1237
 2384SOL    HW2 9582   1.482   0.388   3.612  0.4595  1.2678 -0.3655
 2384SOL    HW3 9583   1.337   0.388   3.656  0.4170 -0.3270 -0.4649
 2384SOL    MW4 9584   1.414   0.428   3.648  0.1004  0.3735 -0.0184
 2385SOL     OW 9585   4.093   4.317   4.178  0.4676  0.0511  0.0089
 2385SOL    HW2 9586   4.067   4.228   4.153  2.6469 -0.5928 -0.0074
 2385SOL    HW3 9587   4.121   4.358   4.096 -0.8425  0.8842 -0.0399
 2385SOL    MW4 9588   4.093   4.311   4.164  0.5822  0.0768  0.0005
 2386SOL     OW 9589   0.723   0.282   0.638  0.8932 -0.5707 -0.1872
 2386SOL    HW2 9590   0.690   0.202   0.596  0.2163  0.4146 -1.5767
 2386SOL    HW3 9591   0.657   0.303   0.703 -0.2151  0.2538 -1.5604
 2386SOL    MW4 9592   0.710   0.274   0.641  0.6577 -0.3319 -0.5518
 2387SOL     OW 9593   4.036   0.467   2.365  0.4492  0.2100 -0.6578
 2387SOL    HW2 9594   4.058   0.428   2.280 -1.3672  1.9805 -2.0070
 2387SOL    HW3 9595   4.117   0.508   2.394  0.9382  0.0847 -1.8145
 2387SOL    MW4 9596   4.049   0.467   2.357  0.2742  0.4270 -0.9885
 2388SOL     OW 9597   1.694   2.463   1.069  0.1192 -0.4169 -0.1124
 2388SOL    HW2 9598   1.789   2.466   1.080  0.0072  3.7162  0.6015
 2388SOL    HW3 9599   1.660   2.448   1.157  0.0909 -2.9102 -0.5194
 2388SOL    MW4 9600   1.702   2.461   1.082  0.1007 -0.2005 -0.0718
 2389SOL     OW 9601   0.487   1.558   3.410 -0.4142  0.3326  0.2617
 2389SOL    HW2 9602   0.412   1.568   3.351  0.1764  0.5945 -0.4575
 2389SOL    HW3 9603   0.505   1.647   3.441  0.6813  0.5464 -0.9376
 2389SOL    MW4 9604   0.479   1.571   3.406 -0.1917  0.3953  0.0088
 2390SOL     OW 9605   2.406   4.410   0.673 -0.4220 -0.2900  0.2060
 2390SOL    HW2 9606   2.428   4.441   0.761  1.2026  0.7202 -0.5173
 2390SOL    HW3 9607   2.491   4.400   0.630 -1.1310 -2.0843 -0.8262
 2390SOL    MW4 9608   2.420   4.413   0.679 -0.3011 -0.3939 -0.0257
 2391SOL     OW 9609   0.095   2.102   4.375 -0.1962 -0.2213  0.0828
 2391SOL    HW2 9610   0.023   2.154   4.409 -0.3945  0.7814 -1.8291
 2391SOL    HW3 9611   0.135   2.156   4.307  1.0145 -1.6433 -0.3873
 2391SOL    MW4 9612   0.091   2.116   4.371 -0.0626 -0.2768 -0.2317
 2392SOL     OW 9613   0.355   1.577   1.029  0.3630 -0.4252  0.2975
 2392SOL    HW2 9614   0.322   1.526   1.103 -1.1692  0.7194  0.4442
 2392SOL    HW3 9615   0.288   1.645   1.015  2.3183  1.5166  0.0883
 2392SOL    MW4 9616   0.342   1.579   1.037  0.4189 -0.0179  0.2892
 2393SOL     OW 9617   0.468   2.151   2.395 -0.1620  0.5751  0.6756
 2393SOL    HW2 9618   0.520   2.192   2.464  0.8855  0.4380 -0.0065
 2393SOL    HW3 9619   0.454   2.221   2.331 -0.7484  0.5871  0.8127
 2393SOL    MW4 9620   0.473   2.165   2.395 -0.1012  0.5586  0.6037
 2394SOL     OW 9621   2.878   1.975   3.378 -0.2393 -0.3330  0.2881
 2394SOL    HW2 9622   2.926   1.892   3.380  1.1177  0.4379  0.4168
 2394SOL    HW3 9623   2.823   1.968   3.300 -0.4217 -1.5137  0.5121
 2394SOL    MW4 9624   2.877   1.963   3.368 -0.0844 -0.3871  0.3345
 2395SOL     OW 9625   3.948   2.167   4.362  0.3536  0.5222  0.2284
 2395SOL    HW2 9626   3.931   2.104   4.292  1.6897  1.1780 -0.6976
 2395SOL    HW3 9627   3.977   2.113   4.435 -1.3930 -0.1980  0.4231
 2395SOL    MW4 9628   3.949   2.151   4.362  0.2992  0.5136  0.1321
 2396SOL     OW 9629   0.615   4.143   3.892  0.1561 -0.0613 -0.7430
 2396SOL    HW2 9630   0.614   4.157   3.987 -1.7818 -1.1871 -0.5740
 2396SOL    HW3 9631   0.551   4.206   3.859 -0.1823 -0.6341 -1.1650
 2396SOL    MW4 9632   0.606   4.153   3.900 -0.1442 -0.2851 -0.7763
 2397SOL     OW 9633   3.490   4.558   2.783 -0.2537  0.3673  0.1754
 2397SOL    HW2 9634   3.423   4.512   2.733 -0.2711  0.8386 -0.2411
 2397SOL    HW3 9635   3.446   4.636   2.815  0.1570  0.7871 -0.2833
 2397SOL    MW4 9636   3.476   4.562   2.781 -0.2019  0.4854  0.0598
 2398SOL     OW 9637   0.750   2.446   1.689 -0.8146 -0.2375  0.0734
 2398SOL    HW2 9638   0.769   2.506   1.761  0.8365 -1.0850  0.3493
 2398SOL    HW3 9639   0.667   2.405   1.714  0.1466 -1.1218  1.9158
 2398SOL    MW4 9640   0.741   2.448   1.702 -0.4699 -0.4661  0.3529
 2399SOL     OW 9641   3.121   0.762   1.763 -0.2664 -0.4839 -0.1977
 2399SOL    HW2 9642   3.073   0.722   1.690 -2.1730 -0.6472  1.0971
 2399SOL    HW3 9643   3.053   0.802   1.817  1.2590  1.0251  0.6604
 2399SOL    MW4 9644   3.105   0.762   1.760 -0.3169 -0.3063  0.0864
 2400SOL     OW 9645   1.194   3.502   3.573  0.3146 -0.0168 -0.4966
 2400SOL    HW2 9646   1.275   3.452   3.559 -0.2506 -0.4968 -2.1912
 2400SOL    HW3 9647   1.165   3.526   3.485 -1.7769 -0.4896  0.0349
 2400SOL    MW4 9648   1.201   3.498   3.560 -0.0359 -0.1426 -0.6497
 2401SOL     OW 9649   4.191   2.566   3.042  0.6328 -0.0602 -0.3160
 2401SOL    HW2 9650   4.169   2.586   3.133  2.3630  1.5438 -0.2230
 2401SOL    HW3 9651   4.115   2.518   3.009 -1.9179  3.0444  0.7338
 2401SOL    MW4 9652   4.178   2.563   3.050  0.5250  0.5610 -0.1655
 2402SOL     OW 9653   4.183   0.015   1.154 -0.3594  0.0340 -0.6946
 2402SOL    HW2 9654   4.174   0.011   1.250 -1.0272 -0.9557 -0.7876
 2402SOL    HW3 9655   4.222  -0.069   1.130  0.1808  0.4451 -1.2531
 2402SOL    MW4 9656   4.187   0.003   1.164 -0.3753 -0.0424 -0.7805
 2403SOL     OW 9657   2.369   3.308   3.412 -0.2387 -0.2147 -0.3428
 2403SOL    HW2 9658   2.399   3.392   3.378 -0.0672  0.0359  0.4140
 2403SOL    HW3 9659   2.449   3.259   3.429 -0.3179 -0.2520 -0.0827
 2403SOL    MW4 9660   2.383   3.313   3.410 -0.2265 -0.1864 -0.2086
 2404SOL     OW 9661   0.190   2.174   4.101 -0.3189  0.3520 -0.0505
 2404SOL    HW2 9662   0.189   2.224   4.020  2.6857 -1.4466 -1.2989
 2404SOL    HW3 9663   0.279   2.186   4.136 -0.9326 -0.5215  1.9127
 2404SOL    MW4 9664   0.202   2.182   4.095 -0.0034 -0.0007  0.0439
 2405SOL     OW 9665   4.240   4.002   2.549 -0.1470 -0.5016  0.2705
 2405SOL    HW2 9666   4.175   4.009   2.479  2.4594 -1.2780 -2.3347
 2405SOL    HW3 9667   4.277   3.915   2.538 -0.2219 -0.9448  3.1780
 2405SOL    MW4 9668   4.236   3.991   2.539  0.1869 -0.6626  0.3107
 2406SOL     OW 9669   2.781   3.454   3.688  0.4072  1.0418  0.4819
 2406SOL    HW2 9670   2.831   3.511   3.630 -0.4304 -0.0608 -1.3585
 2406SOL    HW3 9671   2.846   3.418   3.748  1.4580  1.3483 -0.4471
 2406SOL    MW4 9672   2.796   3.457   3.688  0.4354  0.9367  0.1166
 2407SOL     OW 9673   2.386   0.504   3.149  0.3207  0.0159 -0.7674
 2407SOL    HW2 9674   2.330   0.572   3.186 -1.6807 -1.9570 -0.1105
 2407SOL    HW3 9675   2.367   0.504   3.056 -2.0257 -1.7442 -0.3202
 2407SOL    MW4 9676   2.376   0.513   3.142 -0.2525 -0.4767 -0.6220
 2408SOL     OW 9677   0.657   1.365   3.366  0.0578  0.0249 -0.0759
 2408SOL    HW2 9678   0.601   1.442   3.380  0.6598  0.1148  2.1017
 2408SOL    HW3 9679   0.596   1.295   3.344 -0.7879  0.4965  0.6888
 2408SOL    MW4 9680   0.641   1.366   3.365  0.0256  0.0989  0.3126
 2409SOL     OW 9681   2.202   4.067   4.495  0.3603  0.3743 -0.2333
 2409SOL    HW2 9682   2.285   4.097   4.530 -0.5120 -0.8942  3.0937
 2409SOL    HW3 9683   2.223   3.984   4.451  0.8426 -0.0587  0.7970
 2409SOL    MW4 9684   2.215   4.060   4.493  0.3085  0.1493  0.3414
 2410SOL     OW 9685   1.216   4.530   0.808  0.0245  0.6420 -0.2572
 2410SOL    HW2 9686   1.284   4.463   0.802 -1.2146 -0.5884 -1.1088
 2410SOL    HW3 9687   1.244   4.599   0.749  0.9936  0.5806  0.1186
 2410SOL    MW4 9688   1.228   4.530   0.800 -0.0112  0.4711 -0.3200
 2411SOL     OW 9689   2.631   4.583   1.045  0.0777  0.0960  0.7940
 2411SOL    HW2 9690   2.597   4.672   1.043 -2.6547 -0.9016 -0.1720
 2411SOL    HW3 9691   2.681   4.573   0.964  0.6568  0.8391  1.0614
 2411SOL    MW4 9692   2.633   4.593   1.034 -0.2062  0.0629  0.7018
 2412SOL     OW 9693   2.153   0.817   2.048  0.4209  0.1821  0.2252
 2412SOL    HW2 9694   2.219   0.762   2.005 -0.6752  0.0456 -1.3199
 2412SOL    HW3 9695   2.173   0.905   2.018  0.2196  0.2072  0.1650
 2412SOL    MW4 9696   2.164   0.821   2.038  0.2499  0.1673  0.0136
 2413SOL     OW 9697   0.872   4.240   4.558 -0.2167 -0.2423 -0.0819
 2413SOL    HW2 9698   0.892   4.333   4.573 -0.3280 -0.1813 -0.3014
 2413SOL    HW3 9699   0.935   4.193   4.612 -0.2922 -0.0347  0.1915
 2413SOL    MW4 9700   0.883   4.246   4.567 -0.2413 -0.2065 -0.0749
 2414SOL     OW 9701   1.310   1.410   3.732 -0.0306  0.3385 -0.1524
 2414SOL    HW2 9702   1.394   1.402   3.777  0.8568 -0.0395 -1.8228
 2414SOL    HW3 9703   1.294   1.505   3.728 -0.0310  0.3778  0.7863
 2414SOL    MW4 9704   1.319   1.422   3.737  0.0865  0.2939 -0.2487
 2415SOL     OW 9705   0.027   0.009   1.227  0.2791  0.1539  0.0685
 2415SOL    HW2 9706   0.022   0.049   1.140  1.7937  0.3188  0.0463
 2415SOL    HW3 9707  -0.030   0.063   1.282 -1.6247 -0.6419 -1.0591
 2415SOL    MW4 9708   0.018   0.021   1.222  0.2277  0.0707 -0.0832
 2416SOL     OW 9709   0.664   2.763   2.108 -0.5339 -0.1559  0.1572
 2416SOL    HW2 9710   0.759   2.771   2.115 -0.4544 -0.6960 -0.2584
 2416SOL    HW3 9711   0.640   2.825   2.039 -0.5361  0.3018  0.5678
 2416SOL    MW4 9712   0.673   2.772   2.099 -0.5236 -0.1667  0.1564
 2417SOL     OW 9713   2.859   1.914   1.791 -0.4939  0.2707  0.4998
 2417SOL    HW2 9714   2.912   1.865   1.854 -2.3413 -1.7793  0.5430
 2417SOL    HW3 9715   2.839   1.996   1.835  0.5841  0.0357  1.4514
 2417SOL    MW4 9716   2.863   1.918   1.805 -0.5956 -0.0308  0.6311
 2418SOL     OW 9717   3.187   1.120   2.824  0.3391 -0.6861  0.2464
 2418SOL    HW2 9718   3.209   1.202   2.868  0.5492 -0.0461 -1.0116
 2418SOL    HW3 9719   3.176   1.056   2.894 -0.8933  0.6724  1.3098
 2418SOL    MW4 9720   3.188   1.122   2.839  0.2041 -0.4225  0.2210
 2419SOL     OW 9721   3.504   3.445   2.516 -0.3483  0.9075  0.6923
 2419SOL    HW2 9722   3.498   3.529   2.561  2.1426  0.3550  2.1729
 2419SOL    HW3 9723   3.559   3.462   2.440 -2.5567  1.3071 -0.8449
 2419SOL    MW4 9724   3.510   3.458   2.512 -0.3114  0.8874  0.6850
 2420SOL     OW 9725   0.768   0.791   3.702  0.0392  0.3008 -0.0419
 2420SOL    HW2 9726   0.813   0.795   3.618  1.9583  0.2610  0.9473
 2420SOL    HW3 9727   0.811   0.719   3.748 -2.1263 -0.7884  0.3398
 2420SOL    MW4 9728   0.780   0.782   3.697  0.0066  0.1519  0.1390
 2421SOL     OW 9729   2.512   1.960   2.432  0.4271  0.0202  0.3103
 2421SOL    HW2 9730   2.444   1.897   2.457 -0.8969  1.3157  0.0689
 2421SOL    HW3 9731   2.481   1.995   2.348  0.5573  1.7992  0.9839
 2421SOL    MW4 9732   2.499   1.956   2.424  0.2697  0.4259  0.3674
 2422SOL     OW 9733   3.436   1.215   1.261 -0.2960 -0.2362 -0.3752
 2422SOL    HW2 9734   3.399   1.203   1.348  2.4434 -0.1273  0.8499
 2422SOL    HW3 9735   3.439   1.310   1.249  0.6194 -0.2125  0.0035
 2422SOL    MW4 9736   3.432   1.226   1.271  0.1862 -0.2187 -0.1637
 2423SOL     OW 9737   3.109   3.437   1.121  0.0739  0.8091  0.2815
 2423SOL    HW2 9738   3.166   3.490   1.065  0.2056 -0.7184 -1.0800
 2423SOL    HW3 9739   3.043   3.403   1.061 -0.2641 -0.1973  1.2192
 2423SOL    MW4 9740   3.108   3.439   1.106  0.0467  0.4747  0.2255
 2424SOL     OW 9741   1.534   3.400   3.162 -0.3235  0.2298  0.0951
 2424SOL    HW2 9742   1.626   3.395   3.138 -0.9228  0.9093 -2.5260
 2424SOL    HW3 9743   1.528   3.478   3.217  0.7109 -0.0389  0.6072
 2424SOL    MW4 9744   1.545   3.410   3.166 -0.2663  0.2840 -0.1829
 2425SOL     OW 9745   3.056   2.787   1.253 -0.1983 -0.1630 -0.0963
 2425SOL    HW2 9746   3.050   2.743   1.338  1.4961 -2.1524 -0.9664
 2425SOL    HW3 9747   3.061   2.716   1.190  0.9545  1.3067 -1.6915
 2425SOL    MW4 9748   3.056   2.772   1.256  0.1774 -0.2315 -0.4216
 2426SOL     OW 9749   1.581   2.006   0.440  0.2998 -0.2775 -0.8388
 2426SOL    HW2 9750   1.538   1.946   0.501  1.5321 -0.3551 -0.0247
 2426SOL    HW3 9751   1.511   2.062   0.407 -0.2312  0.4779  1.4744
 2426SOL    MW4 9752   1.566   2.005   0.444  0.3923 -0.1881 -0.4261
 2427SOL     OW 9753   1.900   3.862   4.324  0.0092  0.2845 -0.2570
 2427SOL    HW2 9754   1.900   3.790   4.261  0.1290 -0.7556  0.9111
 2427SOL    HW3 9755   1.816   3.854   4.369  0.2539  0.5413  0.2459
 2427SOL    MW4 9756   1.889   3.851   4.322  0.0575  0.1810 -0.0367
 2428SOL     OW 9757   2.961   0.927   2.267 -0.3270  0.3128  0.5304
 2428SOL    HW2 9758   2.870   0.917   2.239  0.3453 -0.5942 -1.3894
 2428SOL    HW3 9759   2.981   1.020   2.252 -0.8245  0.4411  0.6580
 2428SOL    MW4 9760   2.952   0.938   2.261 -0.3040  0.2100  0.2940
 2429SOL     OW 9761   0.968   2.617   1.422  0.0576  0.1447  0.0941
 2429SOL    HW2 9762   0.895   2.555   1.420 -0.7644  1.0631  0.7946
 2429SOL    HW3 9763   1.004   2.609   1.510  1.0376 -0.5568 -0.3636
 2429SOL    MW4 9764   0.963   2.608   1.433  0.0784  0.1736  0.1260
 2430SOL     OW 9765   2.360   1.794   0.671  0.1812 -0.1504 -0.2455
 2430SOL    HW2 9766   2.354   1.704   0.639 -0.3818 -0.1335 -0.1821
 2430SOL    HW3 9767   2.293   1.800   0.739  0.9780 -0.0157  0.5410
 2430SOL    MW4 9768   2.351   1.783   0.676  0.2120 -0.1303 -0.1335
 2431SOL     OW 9769   2.487   2.998   2.037 -0.6834  0.2571  0.0389
 2431SOL    HW2 9770   2.449   3.084   2.053 -0.7141  0.2847 -0.1810
 2431SOL    HW3 9771   2.489   2.956   2.123  2.7530  1.8551  0.8073
 2431SOL    MW4 9772   2.482   3.004   2.050 -0.2341  0.4714  0.1111
 2432SOL     OW 9773   4.005   1.904   1.583 -0.7140 -0.0104  0.1247
 2432SOL    HW2 9774   3.954   1.926   1.661 -0.2746 -0.5967  0.5779
 2432SOL    HW3 9775   3.969   1.961   1.515 -1.2274  0.3718  0.7048
 2432SOL    MW4 9776   3.993   1.914   1.585 -0.7236 -0.0372  0.2611
 2433SOL     OW 9777   0.863   3.451   0.545  0.0639  0.0312 -0.7241
 2433SOL    HW2 9778   0.922   3.526   0.536 -0.4888  0.5998  0.2868
 2433SOL    HW3 9779   0.872   3.424   0.636 -2.4051  1.1358 -0.0974
 2433SOL    MW4 9780   0.872   3.458   0.555 -0.3348  0.2522 -0.5081
 2434SOL     OW 9781   3.377   0.175   1.006 -0.2098  0.0652  0.1979
 2434SOL    HW2 9782   3.450   0.201   0.950 -0.4928 -1.7403 -1.0615
 2434SOL    HW3 9783   3.417   0.163   1.093  1.0142 -0.9640 -0.4887
 2434SOL    MW4 9784   3.392   0.177   1.010 -0.0856 -0.3088 -0.0589
 2435SOL     OW 9785   1.323   3.279   1.300  0.2468 -0.3204  0.1734
 2435SOL    HW2 9786   1.399   3.220   1.293  0.1519 -0.4021 -0.1541
 2435SOL    HW3 9787   1.248   3.220   1.309  0.3308 -0.2320  1.6437
 2435SOL    MW4 9788   1.323   3.264   1.301  0.2453 -0.3192  0.3240
 2436SOL     OW 9789   1.981   0.351   1.146  0.0423  0.0698  1.0152
 2436SOL    HW2 9790   1.941   0.307   1.071  0.1442  0.2086  0.8791
 2436SOL    HW3 9791   1.931   0.320   1.221  0.2713 -0.4691  0.9474
 2436SOL    MW4 9792   1.969   0.341   1.146  0.0859  0.0170  0.9884
 2437SOL     OW 9793   3.849   3.389   2.529 -0.2021 -0.4335  0.1894
 2437SOL    HW2 9794   3.791   3.441   2.473  0.7329  0.4655  0.0519
 2437SOL    HW3 9795   3.813   3.300   2.525 -0.7952 -0.1430 -0.9314
 2437SOL    MW4 9796   3.836   3.384   2.521 -0.1571 -0.2766  0.0234
 2438SOL     OW 9797   2.801   4.456   3.235 -0.5430 -0.7589 -0.0935
 2438SOL    HW2 9798   2.871   4.500   3.282 -0.5763  0.1657 -0.8896
 2438SOL    HW3 9799   2.839   4.373   3.206 -0.0006 -0.5783  0.1007
 2438SOL    MW4 9800   2.815   4.451   3.237 -0.4761 -0.6127 -0.1729
 2439SOL     OW 9801   3.205   0.514   2.923  0.3165  0.6408 -0.3273
 2439SOL    HW2 9802   3.233   0.470   2.843  2.1680 -0.7981  1.0759
 2439SOL    HW3 9803   3.265   0.588   2.932 -0.5815  1.4360 -0.8401
 2439SOL    MW4 9804   3.217   0.518   2.914  0.4425  0.5559 -0.2098
 2440SOL     OW 9805   3.741   0.909   1.907  0.8711  0.1598 -0.4403
 2440SOL    HW2 9806   3.748   0.914   2.003  1.7236 -1.4729 -0.3797
 2440SOL    HW3 9807   3.659   0.953   1.886  0.9026  0.9522  0.9992
 2440SOL    MW4 9808   3.731   0.915   1.917  0.9880  0.0490 -0.2424
 2441SOL     OW 9809   2.212   1.213   2.321  0.0853  0.1006 -0.2860
 2441SOL    HW2 9810   2.131   1.229   2.371  0.3286 -0.5939  0.3324
 2441SOL    HW3 9811   2.248   1.300   2.306 -0.0805  0.3283  0.6041
 2441SOL    MW4 9812   2.206   1.227   2.326  0.0956  0.0390 -0.0868
 2442SOL     OW 9813   3.337   0.736   2.673  0.0600  0.1310  0.5025
 2442SOL    HW2 9814   3.348   0.831   2.667  1.4482 -0.0742 -0.5294
 2442SOL    HW3 9815   3.380   0.713   2.755  1.4422  0.1679 -0.2016
 2442SOL    MW4 9816   3.344   0.746   2.683  0.4256  0.1088  0.2735
 2443SOL     OW 9817   1.778   0.490   1.856  0.1393  0.0467 -0.9198
 2443SOL    HW2 9818   1.808   0.557   1.916  0.1577 -1.1736  0.4623
 2443SOL    HW3 9819   1.686   0.511   1.841 -0.2338 -0.3983  0.6139
 2443SOL    MW4 9820   1.770   0.501   1.862  0.0926 -0.1731 -0.5351
 2444SOL     OW 9821   0.013   2.503   3.663  0.9938 -0.1683 -0.4970
 2444SOL    HW2 9822   0.087   2.555   3.631  0.1754  0.8329 -0.7847
 2444SOL    HW3 9823   0.030   2.415   3.631  0.7185  0.6006 -2.7889
 2444SOL    MW4 9824   0.025   2.498   3.655  0.8495  0.0656 -0.8376
 2445SOL     OW 9825   3.244   1.225   1.035  0.5798 -0.2250  0.1267
 2445SOL    HW2 9826   3.299   1.295   1.072 -0.7170  0.9369 -0.0913
 2445SOL    HW3 9827   3.272   1.146   1.080  1.0522  0.6836  1.4592
 2445SOL    MW4 9828   3.255   1.224   1.046  0.4711  0.0483  0.2738
 2446SOL     OW 9829   0.087   2.108   3.156 -0.0276 -0.0373  0.1991
 2446SOL    HW2 9830   0.128   2.034   3.200  1.0472  0.2314 -0.3319
 2446SOL    HW3 9831   0.018   2.070   3.102  1.6186 -0.8320 -1.3760
 2446SOL    MW4 9832   0.083   2.093   3.155  0.3314 -0.1068 -0.0784
 2447SOL     OW 9833   4.232   1.359   3.369 -0.9342  0.2446 -0.3813
 2447SOL    HW2 9834   4.290   1.296   3.413  0.3653  2.2131  0.7896
 2447SOL    HW3 9835   4.144   1.334   3.397 -0.3627 -0.5072  0.7929
 2447SOL    MW4 9836   4.228   1.347   3.378 -0.6871  0.4052 -0.0718
 2448SOL     OW 9837   1.319   0.999   3.532 -0.0522 -0.6215  0.3209
 2448SOL    HW2 9838   1.323   1.011   3.437 -0.5156 -1.9823  0.1218
 2448SOL    HW3 9839   1.402   1.035   3.564  0.0485 -0.0372 -0.5860
 2448SOL    MW4 9840   1.331   1.005   3.523 -0.1001 -0.7240  0.1748
 2449SOL     OW 9841   1.132   0.573   0.869  0.5965 -0.4797 -0.7052
 2449SOL    HW2 9842   1.192   0.641   0.840  1.5099 -0.4864  1.1015
 2449SOL    HW3 9843   1.146   0.566   0.964 -1.5020 -1.2149 -0.4026
 2449SOL    MW4 9844   1.141   0.581   0.878  0.4402 -0.5776 -0.4269
 2450SOL     OW 9845   2.631   2.560   2.433 -0.1717 -0.3768  0.1711
 2450SOL    HW2 9846   2.638   2.467   2.414 -2.4631  0.1538 -3.9899
 2450SOL    HW3 9847   2.542   2.570   2.468 -0.5911  0.4660 -1.1151
 2450SOL    MW4 9848   2.620   2.549   2.435 -0.5293 -0.1957 -0.5476
 2451SOL     OW 9849   0.221   2.757   0.895 -0.1335  0.3289  0.4110
 2451SOL    HW2 9850   0.284   2.817   0.934  1.0573 -1.2967  1.0678
 2451SOL    HW3 9851   0.267   2.673   0.890 -1.7127 -0.5190 -0.5610
 2451SOL    MW4 9852   0.235   2.754   0.899 -0.1848  0.0026  0.3694
 2452SOL     OW 9853   1.154   1.574   4.509 -0.4725  0.4717 -0.3271
 2452SOL    HW2 9854   1.151   1.481   4.532  0.5012  0.7462  1.0118
 2452SOL    HW3 9855   1.156   1.575   4.413 -0.8507 -0.8751 -0.3571
 2452SOL    MW4 9856   1.154   1.562   4.499 -0.3939  0.3303 -0.1540
 2453SOL     OW 9857   0.525   2.285   1.730  0.4068 -0.5334  0.2883
 2453SOL    HW2 9858   0.575   2.218   1.684  1.8125  2.5691 -3.0107
 2453SOL    HW3 9859   0.455   2.308   1.669  0.1392  1.1953  1.2200
 2453SOL    MW4 9860   0.522   2.279   1.716  0.5569  0.1042 -0.0241
 2454SOL     OW 9861   3.281   0.414   2.664 -0.0332 -0.3916 -0.4438
 2454SOL    HW2 9862   3.301   0.328   2.628 -3.0757 -0.4939 -1.9805
 2454SOL    HW3 9863   3.337   0.474   2.615 -1.1192 -1.0092 -2.4900
 2454SOL    MW4 9864   3.291   0.411   2.653 -0.5779 -0.4866 -0.9165
 2455SOL     OW 9865   2.532   4.645   2.244 -0.4139  0.0027 -0.4171
 2455SOL    HW2 9866   2.467   4.680   2.183  2.1285  1.1805 -2.5688
 2455SOL    HW3 9867   2.605   4.618   2.188  1.3264 -0.4233  1.9823
 2455SOL    MW4 9868   2.533   4.646   2.228  0.1509  0.1020 -0.3846
 2456SOL     OW 9869   0.223   2.549   2.084 -0.3857  0.1216 -0.6118
 2456SOL    HW2 9870   0.249   2.528   1.995  1.0116  0.8032 -0.3674
 2456SOL    HW3 9871   0.262   2.634   2.102 -0.3298 -0.1819  0.7823
 2456SOL    MW4 9872   0.231   2.557   2.075 -0.1940  0.1714 -0.3960
 2457SOL     OW 9873   2.648   4.342   3.440  0.1522 -0.7722  0.1903
 2457SOL    HW2 9874   2.682   4.253   3.448 -1.5846 -1.4166  0.7898
 2457SOL    HW3 9875   2.710   4.386   3.382  1.8852 -1.9151  1.1316
 2457SOL    MW4 9876   2.660   4.336   3.433  0.1516 -1.0085  0.3934
 2458SOL     OW 9877   4.424   2.712   0.901 -0.0501 -0.2856 -0.6191
 2458SOL    HW2 9878   4.514   2.736   0.877  0.0307 -0.0534 -0.0930
 2458SOL    HW3 9879   4.376   2.713   0.819  0.1844  0.6665 -0.7526
 2458SOL    MW4 9880   4.430   2.715   0.887 -0.0086 -0.1292 -0.5673
 2459SOL     OW 9881   2.482   2.728   2.190 -0.2857 -0.3166  0.4688
 2459SOL    HW2 9882   2.485   2.658   2.125  0.5763  0.9984 -0.9302
 2459SOL    HW3 9883   2.571   2.730   2.226 -0.4624 -0.3023  0.9047
 2459SOL    MW4 9884   2.494   2.719   2.187 -0.1953 -0.1414  0.3417
 2460SOL     OW 9885   3.038   0.710   2.640  0.2409  0.3543 -0.7465
 2460SOL    HW2 9886   3.114   0.695   2.696  0.1045  1.0014 -0.3844
 2460SOL    HW3 9887   3.054   0.795   2.599 -0.5428  0.7389 -0.2582
 2460SOL    MW4 9888   3.050   0.719   2.642  0.1199  0.4904 -0.6347
 2461SOL     OW 9889   3.455   3.454   4.443 -0.1356  0.2236 -0.1292
 2461SOL    HW2 9890   3.395   3.388   4.476  1.6061 -1.4461 -0.2229
 2461SOL    HW3 9891   3.421   3.537   4.478 -0.4540 -1.0684  2.7708
 2461SOL    MW4 9892   3.443   3.456   4.452  0.0522 -0.1671  0.2413
 2462SOL     OW 9893   4.084   1.333   4.158 -0.1479 -0.2449  0.6657
 2462SOL    HW2 9894   4.077   1.283   4.240  1.5338  1.5772  1.9853
 2462SOL    HW3 9895   4.174   1.319   4.129  0.1904  1.5756  0.7849
 2462SOL    MW4 9896   4.095   1.324   4.165  0.1183  0.2358  0.8554
 2463SOL     OW 9897   1.294   0.457   3.251 -0.3159  0.2832  0.2365
 2463SOL    HW2 9898   1.347   0.378   3.262 -0.6963  0.0058  0.0745
 2463SOL    HW3 9899   1.318   0.512   3.326 -0.2975 -0.1226  0.5344
 2463SOL    MW4 9900   1.305   0.454   3.262 -0.3637  0.1931  0.2544
 2464SOL     OW 9901   3.082   1.658   4.475 -0.5035  0.1450  0.0959
 2464SOL    HW2 9902   3.038   1.670   4.559  0.4103  0.4130  0.5403
 2464SOL    HW3 9903   3.028   1.594   4.429 -1.0180  0.0071  0.8764
 2464SOL    MW4 9904   3.069   1.651   4.480 -0.4511  0.1621  0.2575
 2465SOL     OW 9905   2.617   1.643   1.212 -0.5922 -0.0109  0.2734
 2465SOL    HW2 9906   2.576   1.696   1.144 -0.6682 -0.8810 -0.3650
 2465SOL    HW3 9907   2.621   1.701   1.289  0.5470  1.3720 -0.7899
 2465SOL    MW4 9908   2.612   1.658   1.214 -0.4520  0.0567  0.0489
 2466SOL     OW 9909   4.291   1.933   0.638 -0.2011 -0.2373  0.0199
 2466SOL    HW2 9910   4.259   1.930   0.548  0.2574 -0.5406 -0.1350
 2466SOL    HW3 9911   4.308   1.842   0.660 -1.6002 -0.2995  0.8868
 2466SOL    MW4 9912   4.289   1.921   0.629 -0.3252 -0.2854  0.1138
 2467SOL     OW 9913   0.524   0.625   1.366 -0.0443 -0.0049 -0.1239
 2467SOL    HW2 9914   0.619   0.623   1.364 -0.0120 -0.6184  1.5651
 2467SOL    HW3 9915   0.501   0.715   1.342  0.9070 -0.1642 -1.6820
 2467SOL    MW4 9916   0.533   0.637   1.362  0.0855 -0.1069 -0.1065
 2468SOL     OW 9917   1.590   1.914   3.188  0.5559 -0.5687  0.6142
 2468SOL    HW2 9918   1.682   1.938   3.173  0.2440  0.1748 -0.1470
 2468SOL    HW3 9919   1.545   1.943   3.109 -0.5546  0.2296  1.5357
 2468SOL    MW4 9920   1.596   1.921   3.175  0.3681 -0.3653  0.6351
 2469SOL     OW 9921   3.631   1.358   2.936  0.1342 -0.2406  0.0151
 2469SOL    HW2 9922   3.584   1.281   2.904 -0.5981  0.1567  0.1282
 2469SOL    HW3 9923   3.563   1.424   2.948  0.4755 -0.1935  1.8200
 2469SOL    MW4 9924   3.616   1.357   2.933  0.0825 -0.1819  0.2685
 2470SOL     OW 9925   1.871   4.107   0.594  0.3503 -0.1405 -0.4062
 2470SOL    HW2 9926   1.896   4.198   0.580 -1.1700  0.3659  0.1060
 2470SOL    HW3 9927   1.777   4.110   0.610  0.6599 -1.5487  1.9073
 2470SOL    MW4 9928   1.862   4.119   0.594  0.1906 -0.2594 -0.0333
 2471SOL     OW 9929   4.182   3.094   2.971 -0.1108 -0.0216 -0.3600
 2471SOL    HW2 9930   4.214   3.043   3.045 -2.6432 -0.7140  0.3075
 2471SOL    HW3 9931   4.126   3.161   3.009  0.9030  1.4952 -1.4555
 2471SOL    MW4 9932   4.179   3.096   2.985 -0.3114  0.0868 -0.4165
 2472SOL     OW 9933   0.827   2.870   1.443 -0.4784  0.3789 -0.1994
 2472SOL    HW2 9934   0.799   2.911   1.361 -0.3618  0.0192 -0.4211
 2472SOL    HW3 9935   0.872   2.791   1.416 -0.8772 -0.0034  0.2322
 2472SOL    MW4 9936   0.829   2.865   1.429 -0.5156  0.2809 -0.1718
 2473SOL     OW 9937   2.145   3.383   0.902 -0.0773 -0.2924  0.4412
 2473SOL    HW2 9938   2.240   3.396   0.898 -0.1748  0.1564 -0.5694
 2473SOL    HW3 9939   2.110   3.441   0.835 -1.1077 -0.1386  1.0936
 2473SOL    MW4 9940   2.153   3.392   0.893 -0.2265 -0.2129  0.3940
 2474SOL     OW 9941   3.851   0.168   1.771  0.3695  0.0753 -0.0290
 2474SOL    HW2 9942   3.806   0.194   1.851  0.1494  0.5661 -0.3076
 2474SOL    HW3 9943   3.860   0.073   1.778  0.2174  0.0983  0.5055
 2474SOL    MW4 9944   3.847   0.159   1.782  0.3204  0.1431  0.0048
 2475SOL     OW 9945   3.786   0.751   3.971 -0.2705 -0.1212  0.4487
 2475SOL    HW2 9946   3.814   0.837   4.000 -0.4780 -0.0644  0.4777
 2475SOL    HW3 9947   3.690   0.753   3.975 -0.2728 -0.4017  0.5911
 2475SOL    MW4 9948   3.777   0.762   3.975 -0.2983 -0.1507  0.4716
 2476SOL     OW 9949   2.972   4.233   2.555  0.0830  0.0441 -0.0068
 2476SOL    HW2 9950   3.061   4.229   2.520 -1.0116  0.6036 -2.9780
 2476SOL    HW3 9951   2.931   4.151   2.527 -0.3737 -0.1939  1.3031
 2476SOL    MW4 9952   2.978   4.222   2.546 -0.1214  0.0873 -0.2258
 2477SOL     OW 9953   4.344   1.355   4.388 -0.1321 -0.7421 -0.3590
 2477SOL    HW2 9954   4.349   1.437   4.339 -0.6974 -0.7164 -0.3778
 2477SOL    HW3 9955   4.254   1.351   4.418  0.8635  0.5856  3.0159
 2477SOL    MW4 9956   4.333   1.365   4.385 -0.0749 -0.5636  0.0844
 2478SOL     OW 9957   0.369   1.730   2.156 -0.1667  0.3283  0.1789
 2478SOL    HW2 9958   0.424   1.798   2.195 -0.1648  0.7621 -0.5737
 2478SOL    HW3 9959   0.415   1.648   2.177 -0.2099  0.5437  1.1528
 2478SOL    MW4 9960   0.383   1.728   2.164 -0.1722  0.4140  0.2079
 2479SOL     OW 9961   0.373   1.323   4.714  0.4086 -0.2323  0.1004
 2479SOL    HW2 9962   0.290   1.367   4.700 -0.5982 -1.7814  1.0447
 2479SOL    HW3 9963   0.375   1.254   4.647 -0.0265 -1.5144  1.3807
 2479SOL    MW4 9964   0.363   1.319   4.703  0.2184 -0.6059  0.3939
 2480SOL     OW 9965   2.051   3.927   3.411 -0.4953  0.1861 -0.5574
 2480SOL    HW2 9966   1.964   3.893   3.392 -1.6303  1.2768  2.3763
 2480SOL    HW3 9967   2.059   4.005   3.356 -2.2203  1.2304  0.6255
 2480SOL    MW4 9968   2.041   3.933   3.402 -0.8724  0.4675 -0.0143
 2481SOL     OW 9969   4.352   1.113   1.377  0.2059  0.2647  0.1797
 2481SOL    HW2 9970   4.280   1.159   1.333  1.4609 -0.2525 -2.5326
 2481SOL    HW3 9971   4.427   1.172   1.369  0.5653 -0.0211  1.3182
 2481SOL    MW4 9972   4.352   1.127   1.370  0.4187  0.1587 -0.0280
 2482SOL     OW 9973   3.776   4.625   2.425 -0.1180 -0.3896  0.1146
 2482SOL    HW2 9974   3.813   4.542   2.394  1.0245  0.0972  0.1681
 2482SOL    HW3 9975   3.736   4.604   2.509 -0.3952 -1.0225 -0.1708
 2482SOL    MW4 9976   3.776   4.611   2.432 -0.0038 -0.4091  0.0842
 2483SOL     OW 9977   3.009   4.419   2.169  0.1554  0.4799  0.1655
 2483SOL    HW2 9978   2.952   4.342   2.162 -0.6447  1.2623 -2.3034
 2483SOL    HW3 9979   3.096   4.387   2.144  0.1442  0.0565  0.6390
 2483SOL    MW4 9980   3.013   4.404   2.165  0.0484  0.5279 -0.0978
 2484SOL     OW 9981   4.400   0.964   2.022  0.7544  0.1525 -0.6406
 2484SOL    HW2 9982   4.336   0.985   1.953  1.3801  0.8243 -1.0269
 2484SOL    HW3 9983   4.359   0.894   2.073 -1.5779  2.5313  0.8810
 2484SOL    MW4 9984   4.386   0.958   2.019  0.5293  0.5550 -0.4907
 2485SOL     OW 9985   2.570   2.446   2.754 -0.7442 -0.2378 -0.1244
 2485SOL    HW2 9986   2.482   2.454   2.717 -1.9327 -1.8530  2.2285
 2485SOL    HW3 9987   2.592   2.354   2.742  0.4965  0.0877 -0.4023
 2485SOL    MW4 9988   2.561   2.435   2.748 -0.7374 -0.4079  0.1493
 2486SOL     OW 9989   2.885   3.934   3.198  0.2456 -0.1387  0.1370
 2486SOL    HW2 9990   2.800   3.920   3.240  0.2843 -1.7756 -0.2960
 2486SOL    HW3 9991   2.876   3.896   3.111  1.4691 -0.5103  0.1530
 2486SOL    MW4 9992   2.873   3.927   3.192  0.4122 -0.4036  0.0820
 2487SOL     OW 9993   0.041   2.818   1.291 -0.9179  0.2765 -0.2522
 2487SOL    HW2 9994   0.002   2.749   1.238 -0.3786  0.3153 -0.7182
 2487SOL    HW3 9995   0.052   2.780   1.378 -2.1625  0.3333 -0.0627
 2487SOL    MW4 9996   0.037   2.804   1.295 -1.0110  0.2890 -0.2886
 2488SOL     OW 9997   3.227   0.651   4.534 -0.5532  0.5827 -0.4841
 2488SOL    HW2 9998   3.172   0.606   4.470  0.3951  1.4227 -1.9283
 2488SOL    HW3 9999   3.312   0.606   4.529  0.2502  2.1605 -1.5824
 2488SOL    MW410000   3.231   0.639   4.524 -0.3219  0.9017 -0.8192
 2489SOL     OW10001   0.591   2.483   2.432 -0.5684 -0.1541  0.3158
 2489SOL    HW210002   0.648   2.560   2.425 -0.8842  0.1123  0.6774
 2489SOL    HW310003   0.634   2.417   2.377  0.5539 -0.2337  1.2826
 2489SOL    MW410004   0.605   2.484   2.423 -0.4620 -0.1295  0.4911
 2490SOL     OW10005   4.454   2.351   3.101 -0.4467  0.4263 -0.1682
 2490SOL    HW210006   4.389   2.357   3.031 -1.5904 -0.0373  0.8234
 2490SOL    HW310007   4.482   2.259   3.100 -0.6033  0.3744  0.0967
 2490SOL    MW410008   4.449   2.340   3.092 -0.6180  0.3583 -0.0026
 2491SOL     OW10009   2.857   4.163   3.501 -0.4307  0.0000  0.0113
 2491SOL    HW210010   2.931   4.164   3.441 -0.7450 -0.6384 -0.3903
 2491SOL    HW310011   2.872   4.087   3.557 -0.6324  0.0390  0.1223
 2491SOL    MW410012   2.869   4.153   3.501 -0.4988 -0.0792 -0.0274
 2492SOL     OW10013   0.026   4.330   1.863  0.2985 -0.1823 -0.0713
 2492SOL    HW210014   0.101   4.324   1.804  0.0111  2.5623 -0.7629
 2492SOL    HW310015   0.009   4.239   1.889  3.5096 -0.9141 -0.2973
 2492SOL    MW410016   0.034   4.317   1.859  0.6842  0.0834 -0.1923
 2493SOL     OW10017   2.504   3.575   1.505  0.1290  0.4455  0.5398
 2493SOL    HW210018   2.560   3.634   1.455 -0.5867  0.5877 -0.1008
 2493SOL    HW310019   2.562   3.503   1.530  0.3375  0.0129 -1.1155
 2493SOL    MW410020   2.519   3.573   1.502  0.0620  0.4072  0.2369
 2494SOL     OW10021   1.581   2.134   1.863  0.5315 -0.5870 -0.4702
 2494SOL    HW210022   1.672   2.108   1.880  0.7432 -0.6245 -1.6581
 2494SOL    HW310023   1.545   2.064   1.809 -0.0288 -0.2702 -0.5166
 2494SOL    MW410024   1.588   2.121   1.858  0.4854 -0.5503 -0.6330
 2495SOL     OW10025   1.545   3.210   3.378  0.0978  0.1055  0.4173
 2495SOL    HW210026   1.640   3.200   3.388 -0.0375 -2.6571 -0.4900
 2495SOL    HW310027   1.535   3.278   3.311  1.4506 -0.0851  0.0094
 2495SOL    MW410028   1.557   3.218   3.370  0.2583 -0.2840  0.2439
 2496SOL     OW10029   1.420   1.680   3.056  0.4085 -0.1579 -0.0529
 2496SOL    HW210030   1.478   1.718   2.990 -0.6561 -0.7246 -1.3257
 2496SOL    HW310031   1.403   1.591   3.025 -0.5765 -0.2265  0.6710
 2496SOL    MW410032   1.425   1.673   3.043  0.1380 -0.2418 -0.1254
 2497SOL     OW10033   2.737   4.480   1.835 -0.0431  0.4313 -0.2449
 2497SOL    HW210034   2.735   4.480   1.931  1.1833  0.1489 -0.2099
 2497SOL    HW310035   2.828   4.498   1.813 -0.3771  0.8069 -1.3657
 2497SOL    MW410036   2.749   4.482   1.845  0.0749  0.4439 -0.3883
 2498SOL     OW10037   4.396   1.406   2.280  0.3619  0.1563 -0.4591
 2498SOL    HW210038   4.304   1.394   2.256  0.6822 -1.2613 -1.0275
 2498SOL    HW310039   4.399   1.390   2.374 -0.1290  1.1772 -0.2628
 2498SOL    MW410040   4.384   1.402   2.289  0.3395  0.1040 -0.5081
 2499SOL     OW10041   3.038   1.230   2.591 -0.1896  0.0228 -0.0350
 2499SOL    HW210042   2.954   1.184   2.600 -1.0999  1.7170  0.3339
 2499SOL    HW310043   3.086   1.208   2.670 -0.1139 -1.2888 -0.4334
 2499SOL    MW410044   3.033   1.221   2.602 -0.2997  0.0732 -0.0391
 2500SOL     OW10045   2.314   2.752   4.189  0.8340 -0.1361  0.1081
 2500SOL    HW210046   2.385   2.731   4.128  0.1017 -0.0472 -0.7845
 2500SOL    HW310047   2.247   2.792   4.134 -0.3519 -1.2123  0.7626
 2500SOL    MW410048   2.315   2.754   4.173  0.5810 -0.2663  0.0768
 2501SOL     OW10049   4.186   3.552   2.839 -0.2625 -0.2245 -0.0091
 2501SOL    HW210050   4.279   3.531   2.848 -1.0063 -4.0830 -0.4194
 2501SOL    HW310051   4.179   3.589   2.751  1.0158  1.2080  0.4523
 2501SOL    MW410052   4.198   3.554   2.829 -0.1922 -0.5445 -0.0026
 2502SOL     OW10053   1.830   2.038   3.539 -0.0417 -0.1116 -0.4020
 2502SOL    HW210054   1.877   1.994   3.467  1.1958  0.5740 -0.0243
 2502SOL    HW310055   1.764   2.091   3.495  0.6375  0.2198 -1.0380
 2502SOL    MW410056   1.827   2.039   3.524  0.2112  0.0229 -0.4361
 2503SOL     OW10057   0.473   0.632   1.922  0.4222 -0.0103  0.1042
 2503SOL    HW210058   0.432   0.647   1.836  0.6109  0.6104  0.1222
 2503SOL    HW310059   0.492   0.539   1.923  1.1983  0.1229 -0.8778
 2503SOL    MW410060   0.470   0.622   1.911  0.5495  0.0892 -0.0229
 2504SOL     OW10061   0.774   0.428   2.959  0.3133 -0.2243  0.3411
 2504SOL    HW210062   0.840   0.358   2.954 -0.9746 -1.3924 -0.5583
 2504SOL    HW310063   0.722   0.406   3.037 -1.0617 -1.1546 -0.8173
 2504SOL    MW410064   0.776   0.416   2.969 -0.0381 -0.5012  0.0696
 2505SOL     OW10065   0.897   1.467   3.245  0.0167  0.1953 -0.0473
 2505SOL    HW210066   0.943   1.467   3.329  0.3653 -0.0571 -0.2337
 2505SOL    HW310067   0.813   1.426   3.263  0.1940 -0.0953  0.1255
 2505SOL    MW410068   0.892   1.461   3.259  0.0861  0.1236 -0.0491
 2506SOL     OW10069   2.115   2.835   4.007  0.3676  0.9848  0.1316
 2506SOL    HW210070   2.077   2.843   4.095  0.5277 -1.6065  0.4803
 2506SOL    HW310071   2.042   2.848   3.947 -0.5591 -1.1425  0.7498
 2506SOL    MW410072   2.101   2.838   4.011  0.2666  0.3624  0.2589
 2507SOL     OW10073   2.578   3.405   2.936 -0.0906 -0.6152 -0.5092
 2507SOL    HW210074   2.506   3.459   2.903  0.6320  0.5697 -0.2113
 2507SOL    HW310075   2.643   3.408   2.865  1.3006  1.6094  0.7780
 2507SOL    MW410076   2.577   3.413   2.922  0.1884 -0.1652 -0.3002
 2508SOL     OW10077   3.790   0.529   3.483  0.7612 -0.2927 -0.2225
 2508SOL    HW210078   3.826   0.616   3.462 -0.3440  0.1144 -0.4811
 2508SOL    HW310079   3.821   0.511   3.572  0.7362  0.5123 -0.0467
 2508SOL    MW410080   3.799   0.538   3.492  0.6123 -0.1328 -0.2337
 2509SOL     OW10081   3.791   4.543   3.783  0.4936  0.2920 -0.4611
 2509SOL    HW210082   3.739   4.509   3.856  0.8286  0.5631 -0.0998
 2509SOL    HW310083   3.729   4.591   3.729  0.1083 -0.4739 -0.7164
 2509SOL    MW410084   3.776   4.545   3.786  0.4871  0.2270 -0.4470
 2510SOL     OW10085   0.509   3.448   3.120  0.0259 -0.2378 -0.1870
 2510SOL    HW210086   0.501   3.461   3.215  0.7848  0.6892 -0.2360
 2510SOL    HW310087   0.487   3.356   3.106 -0.7353 -0.2180  0.8079
 2510SOL    MW410088   0.505   3.438   3.131  0.0256 -0.1128 -0.0620
 2511SOL     OW10089   2.143   4.448   4.740 -0.3065  0.3444 -0.0744
 2511SOL    HW210090   2.117   4.356   4.745 -1.0067  0.4124 -2.2551
 2511SOL    HW310091   2.060   4.497   4.741  0.0207  0.9020  0.1053
 2511SOL    MW410092   2.129   4.442   4.741 -0.3555  0.4268 -0.3386
 2512SOL     OW10093   3.816   1.622   4.605 -0.1327 -0.2249  0.0753
 2512SOL    HW210094   3.900   1.617   4.558 -0.6233  1.2635 -0.9978
 2512SOL    HW310095   3.773   1.539   4.585  0.1583 -0.0907 -1.1844
 2512SOL    MW410096   3.822   1.611   4.596 -0.1590 -0.0107 -0.2327
 2513SOL     OW10097   3.228   0.949   0.850  0.7844  0.0499 -0.3027
 2513SOL    HW210098   3.213   1.032   0.804 -0.6963  0.3483  0.6819
 2513SOL    HW310099   3.164   0.949   0.922  1.7525 -1.2834  0.5940
 2513SOL    MW410100   3.217   0.960   0.854  0.7167 -0.0865 -0.0545
 2514SOL     OW10101   4.344   3.509   3.792  0.0519  0.6838 -0.0134
 2514SOL    HW210102   4.336   3.602   3.814 -1.7667 -0.0416  2.6952
 2514SOL    HW310103   4.412   3.477   3.851  2.1356  0.6550 -2.3551
 2514SOL    MW410104   4.352   3.517   3.803  0.0868  0.5841  0.0350
 2515SOL     OW10105   2.684   0.748   1.005  0.3213 -0.1003 -0.1442
 2515SOL    HW210106   2.708   0.719   0.917 -2.6634 -1.5913 -0.4997
 2515SOL    HW310107   2.637   0.830   0.991  0.7154  0.1839  0.1645
 2515SOL    MW410108   2.681   0.755   0.992 -0.0207 -0.2594 -0.1504
 2516SOL     OW10109   4.218   4.064   1.617 -0.3865 -0.2255  0.0499
 2516SOL    HW210110   4.179   4.133   1.670 -0.7059 -0.9931  0.8398
 2516SOL    HW310111   4.246   3.998   1.680 -0.8743 -1.2066 -0.7308
 2516SOL    MW410112   4.217   4.064   1.632 -0.4926 -0.4563  0.0511
 2517SOL     OW10113   1.165   2.252   3.464  0.9456  0.0554 -0.1254
 2517SOL    HW210114   1.107   2.328   3.452  1.9903  0.6405 -1.7279
 2517SOL    HW310115   1.107   2.176   3.457  0.2295  0.6503 -0.7635
 2517SOL    MW410116   1.150   2.252   3.461  0.9891  0.2110 -0.4210
 2518SOL     OW10117   3.466   0.967   1.903 -0.2918 -0.1232  0.0020
 2518SOL    HW210118   3.409   0.934   1.834  0.3977 -0.3020 -0.4821
 2518SOL    HW310119   3.432   0.927   1.983  0.7925 -2.3184 -0.6196
 2518SOL    MW410120   3.454   0.958   1.904 -0.0579 -0.4363 -0.1438
 2519SOL     OW10121   2.229   0.116   4.279  0.6466  0.0307 -0.4654
 2519SOL    HW210122   2.142   0.078   4.284 -0.6710  2.3864 -3.7957
 2519SOL    HW310123   2.222   0.198   4.328  1.4247 -0.4447  0.4650
 2519SOL    MW410124   2.217   0.122   4.286  0.5755  0.2788 -0.7825
 2520SOL     OW10125   2.033   3.257   4.431  0.1510 -0.5660  0.3359
 2520SOL    HW210126   2.009   3.322   4.498 -1.1492 -0.9503  0.2399
 2520SOL    HW310127   2.127   3.270   4.419  0.3371 -0.2597  2.0021
 2520SOL    MW410128   2.042   3.268   4.438  0.0038 -0.5763  0.5436
 2521SOL     OW10129   2.630   0.388   3.761 -0.0644  0.4973  0.5319
 2521SOL    HW210130   2.572   0.339   3.820  0.4690  0.4199  0.9874
 2521SOL    HW310131   2.704   0.329   3.746 -0.6026  0.1541 -0.9098
 2521SOL    MW410132   2.632   0.374   3.767 -0.0653  0.4418  0.4017
 2522SOL     OW10133   3.702   2.592   1.181 -0.0386  0.0836 -0.7758
 2522SOL    HW210134   3.691   2.539   1.260 -0.6752  1.7781  0.3205
 2522SOL    HW310135   3.793   2.578   1.154  0.3948  0.0366  0.6787
 2522SOL    MW410136   3.712   2.584   1.188 -0.0653  0.3011 -0.4393
 2523SOL     OW10137   1.419   1.423   2.966  0.1404  0.4100 -0.1639
 2523SOL    HW210138   1.513   1.410   2.952  0.4363 -0.8718  2.7097
 2523SOL    HW310139   1.379   1.341   2.937  0.1353  0.1327  0.6173
 2523SOL    MW410140   1.426   1.411   2.960  0.1787  0.2044  0.3183
 2524SOL     OW10141   2.324   2.509   0.850  0.4754  0.1778  0.2569
 2524SOL    HW210142   2.318   2.505   0.754 -1.3228 -1.8362  0.4019
 2524SOL    HW310143   2.263   2.578   0.875  1.4297  1.1513 -0.0722
 2524SOL    MW410144   2.315   2.518   0.841  0.3638  0.0405  0.2326
 2525SOL     OW10145   1.068   4.355   1.738 -0.4449  0.0058 -0.1796
 2525SOL    HW210146   1.151   4.360   1.784  0.3374 -0.2465 -1.5387
 2525SOL    HW310147   1.013   4.298   1.792  0.8027 -1.1255 -0.0969
 2525SOL    MW410148   1.072   4.348   1.751 -0.1771 -0.1764 -0.3480
 2526SOL     OW10149   1.101   4.180   2.285 -0.2194  0.2380  0.3661
 2526SOL    HW210150   1.082   4.274   2.279 -1.9229 -0.1309 -0.3235
 2526SOL    HW310151   1.080   4.157   2.375  1.0097  0.6673  0.7798
 2526SOL    MW410152   1.096   4.189   2.296 -0.2819  0.2460  0.3297
 2527SOL     OW10153   0.649   2.143   4.625 -0.0665  0.7703 -0.3759
 2527SOL    HW210154   0.727   2.126   4.572  0.6253  1.9122  0.2459
 2527SOL    HW310155   0.665   2.230   4.663 -1.5837  0.9473 -0.1345
 2527SOL    MW410156   0.662   2.152   4.623 -0.1754  0.9444 -0.2618
 2528SOL     OW10157   1.841   3.595   0.975  0.0920  0.5253 -0.1126
 2528SOL    HW210158   1.805   3.620   1.060 -1.5941  0.0833 -0.6703
 2528SOL    HW310159   1.788   3.519   0.948  0.1467  1.0908 -1.8636
 2528SOL    MW410160   1.829   3.588   0.983 -0.1233  0.5414 -0.4172
 2529SOL     OW10161   2.721   1.587   1.567  0.1865 -0.6377  0.0503
 2529SOL    HW210162   2.727   1.492   1.563  1.0067 -0.6383  1.0935
 2529SOL    HW310163   2.809   1.618   1.546  0.6112 -0.2040  2.3235
 2529SOL    MW410164   2.733   1.579   1.564  0.3510 -0.5803  0.4878
 2530SOL     OW10165   4.022   2.217   3.965  0.3701 -0.2890  0.0611
 2530SOL    HW210166   3.997   2.125   3.972 -0.2495 -0.3446 -2.2350
 2530SOL    HW310167   3.939   2.265   3.974  0.4172 -0.0819 -0.5358
 2530SOL    MW410168   4.008   2.212   3.967  0.2947 -0.2692 -0.3204
 2531SOL     OW10169   1.180   0.119   2.802 -0.1855 -0.4321  0.3507
 2531SOL    HW210170   1.187   0.037   2.752 -0.2904 -0.8832  1.0701
 2531SOL    HW310171   1.236   0.105   2.878 -0.2393  0.1523  0.4997
 2531SOL    MW410172   1.188   0.106   2.805 -0.2064 -0.4145  0.4652
 2532SOL     OW10173   1.664   4.580   2.187  0.1769  0.3673 -0.0502
 2532SOL    HW210174   1.653   4.589   2.092 -0.3400 -0.1029 -0.0339
 2532SOL    HW310175   1.585   4.535   2.216  0.1109  0.9425  0.6698
 2532SOL    MW410176   1.652   4.576   2.178  0.1000  0.3815  0.0470
 2533SOL     OW10177   2.898   0.171   3.235 -0.2311 -0.6778 -0.6334
 2533SOL    HW210178   2.836   0.136   3.298  0.4241 -0.6613  0.0269
 2533SOL    HW310179   2.909   0.101   3.170 -0.2093 -1.0478 -0.2316
 2533SOL    MW410180   2.891   0.157   3.235 -0.1416 -0.7245 -0.4930
 2534SOL     OW10181   0.646   4.368   3.158 -0.3716 -0.4109  0.0679
 2534SOL    HW210182   0.613   4.394   3.244 -1.0516 -0.6024 -0.1364
 2534SOL    HW310183   0.582   4.305   3.126 -0.0809 -0.3877 -0.5504
 2534SOL    MW410184   0.633   4.363   3.165 -0.4230 -0.4330 -0.0405
 2535SOL     OW10185   4.391   2.967   0.539 -0.1508  0.0805  0.4573
 2535SOL    HW210186   4.416   2.973   0.447  0.8135  0.2204  0.7261
 2535SOL    HW310187   4.471   2.942   0.585 -0.4074  0.8646  1.3708
 2535SOL    MW410188   4.405   2.965   0.533 -0.0577  0.2024  0.6133
 2536SOL     OW10189   0.177   1.782   0.984 -0.1616  0.3116 -0.1431
 2536SOL    HW210190   0.084   1.775   0.963  0.2849  1.5619 -2.6830
 2536SOL    HW310191   0.181   1.843   1.058 -1.4034 -0.4936  0.6062
 2536SOL    MW410192   0.166   1.789   0.991 -0.2665  0.3703 -0.3794
 2537SOL     OW10193   3.833   1.065   4.278 -0.1273  0.1868 -0.3304
 2537SOL    HW210194   3.895   1.034   4.344  0.7434 -0.6894 -1.5396
 2537SOL    HW310195   3.817   1.156   4.302  0.4808  0.0014  0.8541
 2537SOL    MW410196   3.839   1.073   4.290  0.0682  0.0467 -0.3333
 2538SOL     OW10197   2.532   0.431   4.350  0.5559 -0.2146 -0.4707
 2538SOL    HW210198   2.499   0.448   4.261  0.7945 -2.8057 -1.0900
 2538SOL    HW310199   2.622   0.403   4.338  0.9507  0.4989  0.7074
 2538SOL    MW410200   2.539   0.430   4.337  0.6394 -0.4624 -0.3967
 2539SOL     OW10201   2.074   0.773   3.499 -0.0740  0.1028  0.2915
 2539SOL    HW210202   1.981   0.757   3.485 -0.7181  0.6762  3.5192
 2539SOL    HW310203   2.107   0.691   3.536  1.1934 -0.7954 -2.6655
 2539SOL    MW410204   2.066   0.760   3.502  0.0079  0.0600  0.3271
 2540SOL     OW10205   0.391   0.866   2.277  0.4373  0.4362  0.5158
 2540SOL    HW210206   0.358   0.780   2.252 -1.1770  0.5632  2.0963
 2540SOL    HW310207   0.411   0.859   2.370  3.3484  0.8754 -0.0237
 2540SOL    MW410208   0.389   0.854   2.286  0.6085  0.5109  0.6533
 2541SOL     OW10209   2.002   4.311   3.958  0.4246  0.5546  0.3795
 2541SOL    HW210210   2.080   4.303   4.013  0.1687  0.1492  0.6833
 2541SOL    HW310211   1.932   4.268   4.008  0.4131 -0.7214 -0.6942
 2541SOL    MW410212   2.003   4.304   3.972  0.3893  0.3324  0.2780
 2542SOL     OW10213   0.178   0.212   4.193  0.2253 -0.1814 -0.8003
 2542SOL    HW210214   0.179   0.307   4.184 -0.1884 -0.0230  0.6781
 2542SOL    HW310215   0.263   0.183   4.158 -0.0040  0.6376 -2.0551
 2542SOL    MW410216   0.190   0.220   4.187  0.1404 -0.0524 -0.7706
 2543SOL     OW10217   0.344   2.377   1.310 -0.0727  0.6823 -0.0578
 2543SOL    HW210218   0.396   2.453   1.286  0.8508 -0.8858 -3.2801
 2543SOL    HW310219   0.274   2.373   1.245 -1.8951  0.4452  1.8426
 2543SOL    MW410220   0.342   2.386   1.298 -0.1913  0.4439 -0.2322
 2544SOL     OW10221   3.620   3.442   2.022  0.2657 -0.2407 -0.3250
 2544SOL    HW210222   3.589   3.474   1.938 -1.9103 -1.3869 -0.0073
 2544SOL    HW310223   3.570   3.361   2.037  1.5622 -0.7572  1.4513
 2544SOL    MW410224   3.609   3.435   2.013  0.1497 -0.4601 -0.0486
 2545SOL     OW10225   2.096   2.123   4.398 -0.2049 -0.1585 -0.2208
 2545SOL    HW210226   2.021   2.088   4.350 -0.8996  2.1634 -0.8598
 2545SOL    HW310227   2.169   2.118   4.336 -0.6322  0.8860 -0.8125
 2545SOL    MW410228   2.096   2.118   4.384 -0.3529  0.2856 -0.3834
 2546SOL     OW10229   3.168   1.808   4.042  0.3323  0.0291  0.4123
 2546SOL    HW210230   3.142   1.824   4.133  0.4702  2.0156  0.1322
 2546SOL    HW310231   3.119   1.731   4.016 -1.4634  0.7875  1.4580
 2546SOL    MW410232   3.158   1.800   4.051  0.1137  0.3912  0.5131
 2547SOL     OW10233   0.436   1.194   3.659  0.3373  0.0615 -0.4351
 2547SOL    HW210234   0.506   1.256   3.677  0.0827  0.7852 -1.9265
 2547SOL    HW310235   0.477   1.124   3.608  0.4572 -0.6493  0.6074
 2547SOL    MW410236   0.451   1.193   3.655  0.3195  0.0631 -0.4942
 2548SOL     OW10237   1.900   3.489   4.592 -0.4613  0.0022 -0.2853
 2548SOL    HW210238   1.932   3.579   4.581 -0.0195 -0.1283 -0.0788
 2548SOL    HW310239   1.812   3.499   4.628  0.5946  0.3251  2.3346
 2548SOL    MW410240   1.892   3.502   4.595 -0.2637  0.0274  0.0873
 2549SOL     OW10241   1.161   2.769   1.810 -0.4475  0.3464 -0.2455
 2549SOL    HW210242   1.219   2.820   1.754 -0.0774 -0.0042 -0.1868
 2549SOL    HW310243   1.130   2.698   1.753  0.3695 -0.3344  0.1443
 2549SOL    MW410244   1.165   2.766   1.795 -0.2909  0.2103 -0.1864
 2550SOL     OW10245   3.482   1.585   3.042 -0.3761  0.3285  0.0600
 2550SOL    HW210246   3.433   1.586   3.124  0.3322  1.2728  0.4833
 2550SOL    HW310247   3.563   1.633   3.062  0.4035 -0.5991 -0.8214
 2550SOL    MW410248   3.486   1.592   3.056 -0.1798  0.3308 -0.0005
 2551SOL     OW10249   3.538   0.109   1.227 -0.5377 -0.0214 -0.3422
 2551SOL    HW210250   3.585   0.192   1.225 -1.8067  0.6993 -1.3314
 2551SOL    HW310251   3.595   0.047   1.182  0.9723 -0.0136  1.4743
 2551SOL    MW410252   3.551   0.112   1.221 -0.5059  0.0747 -0.2332
 2552SOL     OW10253   0.797   2.759   3.972  0.0362 -0.0543 -0.1669
 2552SOL    HW210254   0.774   2.811   4.049  2.7208 -1.1797  1.4548
 2552SOL    HW310255   0.746   2.679   3.981 -2.8397  1.5056 -1.8086
 2552SOL    MW410256   0.787   2.756   3.983  0.0109  0.0029 -0.1695
 2553SOL     OW10257   2.498   0.153   1.277  0.4109 -0.2174 -0.0770
 2553SOL    HW210258   2.591   0.176   1.288  0.0125  1.5860 -0.4086
 2553SOL    HW310259   2.486   0.148   1.182  0.3314 -1.2110 -0.0226
 2553SOL    MW410260   2.509   0.155   1.266  0.3479 -0.1105 -0.1136
 2554SOL     OW10261   2.101   1.298   1.960 -0.5693 -0.2003  0.2474
 2554SOL    HW210262   2.144   1.213   1.955  0.1833  0.1897  0.0188
 2554SOL    HW310263   2.041   1.299   1.885  0.1892 -0.1087 -0.3532
 2554SOL    MW410264   2.098   1.287   1.949 -0.3698 -0.1370  0.1379
 2555SOL     OW10265   0.458   0.775   4.386 -1.2740 -0.4308  0.4980
 2555SOL    HW210266   0.377   0.821   4.407 -1.3219 -0.4607  0.3781
 2555SOL    HW310267   0.442   0.737   4.299 -0.3354  1.3511 -0.4721
 2555SOL    MW410268   0.445   0.776   4.377 -1.1565 -0.1996  0.3543
 2556SOL     OW10269   0.330   2.186   1.900 -0.4755 -0.3043  0.1935
 2556SOL    HW210270   0.350   2.093   1.910  3.1139  0.3332 -0.2847
 2556SOL    HW310271   0.409   2.224   1.863 -1.7227  3.0297  0.7049
 2556SOL    MW410272   0.343   2.179   1.897 -0.1665  0.2196  0.1979
 2557SOL     OW10273   3.585   4.401   1.779  0.0579 -0.2560  0.3657
 2557SOL    HW210274   3.630   4.448   1.709 -1.8322  0.8729 -0.1177
 2557SOL    HW310275   3.509   4.361   1.736  0.5349 -2.1166  1.1719
 2557SOL    MW410276   3.581   4.402   1.764 -0.1285 -0.3519  0.4083
 2558SOL     OW10277   1.730   1.652   4.226  0.1061 -0.0812  1.2455
 2558SOL    HW210278   1.682   1.730   4.255  0.8756 -0.0014  2.3346
 2558SOL    HW310279   1.819   1.667   4.255  0.7817 -0.2939 -0.6616
 2558SOL    MW410280   1.735   1.664   4.233  0.2967 -0.0987  1.1373
 2559SOL     OW10281   2.677   2.407   4.487 -0.0695  0.4968 -0.6554
 2559SOL    HW210282   2.655   2.438   4.575  1.3791  1.3183 -0.5507
 2559SOL    HW310283   2.635   2.322   4.480  0.1085  0.2491  0.9917
 2559SOL    MW410284   2.669   2.400   4.498  0.1450  0.5724 -0.4244
 2560SOL     OW10285   0.681   2.048   2.917 -0.1846 -0.1785 -0.4433
 2560SOL    HW210286   0.727   1.965   2.902  0.7829  0.0950  0.8604
 2560SOL    HW310287   0.593   2.022   2.945 -0.1136 -0.7486 -0.7433
 2560SOL    MW410288   0.676   2.033   2.919 -0.0476 -0.2177 -0.3109
 2561SOL     OW10289   1.261   0.309   1.401  0.0799 -0.5180 -0.2348
 2561SOL    HW210290   1.193   0.269   1.456  1.5664  0.8918  2.7620
 2561SOL    HW310291   1.319   0.237   1.379 -0.5511 -1.1046 -0.0095
 2561SOL    MW410292   1.259   0.294   1.405  0.1930 -0.4094  0.1904
 2562SOL     OW10293   1.953   2.483   4.158 -0.3939 -0.3096  0.4306
 2562SOL    HW210294   1.906   2.418   4.211 -0.9415  1.5837  2.3267
 2562SOL    HW310295   1.885   2.544   4.129  0.5001  0.9436  0.9381
 2562SOL    MW410296   1.938   2.483   4.161 -0.3482  0.1059  0.7477
 2563SOL     OW10297   0.900   1.559   1.998  0.0510  0.1059 -0.0350
 2563SOL    HW210298   0.815   1.586   2.032  1.8427  4.2403  1.4400
 2563SOL    HW310299   0.930   1.490   2.057 -1.0115  0.6443  1.1351
 2563SOL    MW410300   0.893   1.554   2.010  0.1472  0.7225  0.3138
 2564SOL     OW10301   1.159   0.971   3.092  0.2239  0.3605  0.3146
 2564SOL    HW210302   1.129   0.928   3.172 -1.5109  1.3950  0.2376
 2564SOL    HW310303   1.089   1.033   3.070  0.4307 -0.2794 -2.3058
 2564SOL    MW410304   1.146   0.974   3.100  0.0223  0.4126 -0.0415
 2565SOL     OW10305   3.128   3.611   1.334  0.1612 -0.3343 -0.3883
 2565SOL    HW210306   3.076   3.560   1.271  1.1230 -1.3563 -0.3683
 2565SOL    HW310307   3.206   3.557   1.349  0.5957  0.5721  0.5997
 2565SOL    MW410308   3.132   3.597   1.328  0.3455 -0.3495 -0.2553
 2566SOL     OW10309   1.806   1.128   2.197  0.3333  0.4053 -0.4971
 2566SOL    HW210310   1.835   1.071   2.126  0.0426  0.4728 -0.6746
 2566SOL    HW310311   1.852   1.211   2.182 -0.6318  0.8185 -1.3206
 2566SOL    MW410312   1.816   1.132   2.186  0.1676  0.4687 -0.6292
 2567SOL     OW10313   3.678   4.274   1.404  0.3102  0.1343  0.1241
 2567SOL    HW210314   3.667   4.344   1.469 -0.9856 -0.1227  0.1914
 2567SOL    HW310315   3.621   4.300   1.332  2.0396  0.6159 -1.0986
 2567SOL    MW410316   3.669   4.287   1.403  0.3674  0.1640 -0.0283
 2568SOL     OW10317   2.854   4.159   1.583  1.0171  0.3575 -0.5087
 2568SOL    HW210318   2.883   4.128   1.497  0.6488 -0.2854 -0.4112
 2568SOL    HW310319   2.793   4.091   1.612 -0.5302  1.6428 -0.6860
 2568SOL    MW410320   2.850   4.146   1.575  0.7644  0.4425 -0.5192
 2569SOL     OW10321   2.163   0.924   0.765 -0.4247 -0.4604 -0.6419
 2569SOL    HW210322   2.092   0.870   0.729  0.6376 -1.9842 -0.5015
 2569SOL    HW310323   2.190   0.877   0.845 -0.1016  0.7762 -0.0122
 2569SOL    MW410324   2.157   0.911   0.771 -0.2418 -0.4984 -0.5403
 2570SOL     OW10325   3.615   3.904   1.658 -0.1017 -0.3043  0.0128
 2570SOL    HW210326   3.520   3.896   1.649 -0.2214  1.3734 -0.3230
 2570SOL    HW310327   3.650   3.830   1.608 -1.1686  0.7859 -2.4669
 2570SOL    MW410328   3.607   3.893   1.650 -0.2582  0.0608 -0.3587
 2571SOL     OW10329   1.871   3.173   1.333  0.3560  0.3436 -0.1870
 2571SOL    HW210330   1.916   3.147   1.253 -1.4925  0.2161 -1.2300
 2571SOL    HW310331   1.938   3.171   1.401  1.5800 -1.2171 -1.4128
 2571SOL    MW410332   1.886   3.169   1.331  0.2735  0.1209 -0.4863
 2572SOL     OW10333   1.604   0.715   4.564 -0.4077 -0.0573 -0.1603
 2572SOL    HW210334   1.524   0.766   4.547 -0.2548  0.2508  0.0438
 2572SOL    HW310335   1.675   0.780   4.558 -0.0760 -0.5295 -1.4196
 2572SOL    MW410336   1.603   0.731   4.561 -0.3436 -0.0790 -0.2995
 2573SOL     OW10337   1.263   2.016   1.486 -0.3593 -0.1397  0.0623
 2573SOL    HW210338   1.218   2.098   1.467 -1.1326 -0.2353  1.4279
 2573SOL    HW310339   1.355   2.035   1.471 -0.6851  0.5447 -1.0969
 2573SOL    MW410340   1.269   2.029   1.482 -0.5044 -0.0620  0.0894
 2574SOL     OW10341   4.170   2.221   4.194 -0.0256  0.0425 -0.4189
 2574SOL    HW210342   4.115   2.218   4.115  1.0794  0.4725 -1.2216
 2574SOL    HW310343   4.114   2.189   4.264 -0.9720 -0.5094 -1.4225
 2574SOL    MW410344   4.155   2.217   4.193 -0.0052  0.0265 -0.6576
 2575SOL     OW10345   0.664   3.227   1.545 -0.1479  0.4730 -0.6830
 2575SOL    HW210346   0.739   3.259   1.596 -1.3546  1.1519  0.7055
 2575SOL    HW310347   0.668   3.275   1.463  0.6953  0.8178 -0.4429
 2575SOL    MW410348   0.674   3.237   1.541 -0.1959  0.6082 -0.4681
 2576SOL     OW10349   2.289   0.348   1.380  1.0751 -0.4695  0.0591
 2576SOL    HW210350   2.348   0.313   1.313  0.6250 -0.7211 -0.2103
 2576SOL    HW310351   2.282   0.441   1.359  0.2605 -0.7096 -0.7638
 2576SOL    MW410352   2.296   0.356   1.368  0.9084 -0.5344 -0.0849
 2577SOL     OW10353   1.802   3.990   2.800  0.2154  0.3954  0.0952
 2577SOL    HW210354   1.786   3.969   2.893 -1.0073  0.7754 -0.0174
 2577SOL    HW310355   1.783   3.908   2.754 -0.1268  0.4697  0.0975
 2577SOL    MW410356   1.797   3.976   2.807  0.0091  0.4551  0.0806
 2578SOL     OW10357   2.647   2.185   2.736 -0.5639 -0.1682  0.0076
 2578SOL    HW210358   2.739   2.165   2.722 -0.0018  2.3643 -0.0305
 2578SOL    HW310359   2.636   2.182   2.831  0.3215  2.6629  0.2307
 2578SOL    MW410360   2.657   2.182   2.747 -0.3729  0.5393  0.0319
 2579SOL     OW10361   0.046   4.251   3.709 -0.4354  0.0253 -0.5602
 2579SOL    HW210362   0.021   4.342   3.696 -0.5418  0.1126  0.2262
 2579SOL    HW310363   0.131   4.242   3.666 -0.3864  0.5154 -0.5603
 2579SOL    MW410364   0.054   4.262   3.702 -0.4429  0.1020 -0.4563
 2580SOL     OW10365   0.222   3.053   3.957 -0.3292  0.8206 -0.2794
 2580SOL    HW210366   0.187   3.014   4.037 -1.7218 -0.4974 -1.4784
 2580SOL    HW310367   0.317   3.048   3.966 -0.4643  1.1823  1.5076
 2580SOL    MW410368   0.230   3.047   3.968 -0.5307  0.6945 -0.2019
 2581SOL     OW10369   3.961   1.990   0.744  0.5121 -0.0360  0.1474
 2581SOL    HW210370   3.924   1.958   0.661 -0.4971 -1.6803  1.2207
 2581SOL    HW310371   3.894   2.049   0.778  0.0144 -0.9902  0.8188
 2581SOL    MW410372   3.947   1.994   0.737  0.3130 -0.3788  0.3776
 2582SOL     OW10373   3.868   3.153   3.329  0.0190  0.3851  0.0567
 2582SOL    HW210374   3.920   3.183   3.254  2.0066 -2.2032  0.3388
 2582SOL    HW310375   3.917   3.186   3.405  0.4147 -0.7508  0.2948
 2582SOL    MW410376   3.881   3.162   3.329  0.3335 -0.1061  0.1252
 2583SOL     OW10377   1.330   1.166   2.884 -0.3622  0.0198  0.3961
 2583SOL    HW210378   1.265   1.100   2.907 -0.3284  0.4332  1.7489
 2583SOL    HW310379   1.313   1.186   2.792  1.2198 -3.6487 -0.7750
 2583SOL    MW410380   1.319   1.160   2.875 -0.1489 -0.4096  0.4201
 2584SOL     OW10381   2.041   1.002   1.366 -0.3076 -0.1287 -0.3239
 2584SOL    HW210382   2.001   1.089   1.368 -1.7473 -0.7336 -2.0643
 2584SOL    HW310383   1.972   0.943   1.395  1.3038 -0.5387  2.9905
 2584SOL    MW410384   2.027   1.006   1.370 -0.2847 -0.2626 -0.1162
 2585SOL     OW10385   1.734   1.443   1.329 -0.0934 -0.0573 -0.3373
 2585SOL    HW210386   1.708   1.441   1.237 -0.5983 -2.4033 -0.1785
 2585SOL    HW310387   1.672   1.384   1.372  1.5032 -0.6726  1.1417
 2585SOL    MW410388   1.722   1.435   1.323  0.0507 -0.4481 -0.1211
 2586SOL     OW10389   3.660   2.140   4.582  0.1497 -0.4223  0.1360
 2586SOL    HW210390   3.752   2.162   4.600 -0.3210 -0.4787  2.8301
 2586SOL    HW310391   3.656   2.045   4.595 -0.4155 -0.3239  0.7112
 2586SOL    MW410392   3.672   2.130   4.586  0.0131 -0.4165  0.5674
 2587SOL     OW10393   1.045   2.865   3.689 -0.0040  0.0573 -0.0149
 2587SOL    HW210394   1.115   2.837   3.629  0.1143  0.2564  0.0305
 2587SOL    HW310395   1.001   2.937   3.643 -1.2986 -1.2215 -0.8126
 2587SOL    MW410396   1.048   2.871   3.675 -0.1591 -0.0851 -0.1142
 2588SOL     OW10397   4.088   2.669   1.496 -0.6468  0.0066 -0.8195
 2588SOL    HW210398   4.055   2.747   1.452 -1.2652  0.2516  0.0753
 2588SOL    HW310399   4.098   2.605   1.426  1.1751  1.2928 -1.7796
 2588SOL    MW410400   4.085   2.671   1.481 -0.4878  0.2089 -0.8281
 2589SOL     OW10401   1.773   1.040   2.453 -0.7812  0.4198 -0.3602
 2589SOL    HW210402   1.777   1.076   2.364 -2.1966  0.4046 -0.4402
 2589SOL    HW310403   1.723   0.959   2.444  2.2032 -1.5219 -0.1475
 2589SOL    MW410404   1.767   1.034   2.440 -0.5744  0.1616 -0.3426
 2590SOL     OW10405   1.476   3.131   2.711 -0.2053 -0.4056  0.4419
 2590SOL    HW210406   1.517   3.093   2.634 -2.1597 -0.8167 -0.4389
 2590SOL    HW310407   1.411   3.192   2.676  1.1804  1.9402  1.8042
 2590SOL    MW410408   1.472   3.134   2.696 -0.2801 -0.1502  0.5054
 2591SOL     OW10409   1.907   2.223   2.610  0.3532  0.0026  0.1734
 2591SOL    HW210410   1.820   2.185   2.619 -0.1070  1.1096  0.5312
 2591SOL    HW310411   1.902   2.306   2.658  0.9231  1.1456 -1.6777
 2591SOL    MW410412   1.895   2.229   2.617  0.3678  0.2995 -0.0234
 2592SOL     OW10413   0.834   4.199   4.278  0.5030  0.3024 -0.1871
 2592SOL    HW210414   0.905   4.223   4.219  0.4113  0.8450 -0.0841
 2592SOL    HW310415   0.874   4.202   4.365 -0.0632  2.2844  0.0211
 2592SOL    MW410416   0.849   4.203   4.282  0.4162  0.6356 -0.1459
 2593SOL     OW10417   3.726   2.895   1.204 -0.0810 -0.1542 -0.0146
 2593SOL    HW210418   3.696   2.804   1.202  1.1176 -0.5403 -0.8936
 2593SOL    HW310419   3.772   2.907   1.121 -0.0470  1.1979  0.1883
 2593SOL    MW410420   3.728   2.884   1.193  0.0818 -0.0267 -0.1038
 2594SOL     OW10421   2.510   1.019   0.996 -0.0121 -0.2354 -0.1749
 2594SOL    HW210422   2.532   1.107   0.966 -0.1518 -0.1261  0.0380
 2594SOL    HW310423   2.496   1.029   1.090 -1.6402 -0.1655 -0.4092
 2594SOL    MW410424   2.511   1.032   1.004 -0.2451 -0.2118 -0.1776
 2595SOL     OW10425   0.768   2.404   1.417 -0.0149  0.8478 -0.0147
 2595SOL    HW210426   0.741   2.317   1.390  1.0141  0.7825 -0.8424
 2595SOL    HW310427   0.765   2.401   1.513  0.7251 -0.3209 -0.0252
 2595SOL    MW410428   0.764   2.392   1.426  0.2185  0.6850 -0.1254
 2596SOL     OW10429   0.763   1.058   0.680  0.1616  0.2283 -0.3185
 2596SOL    HW210430   0.830   1.124   0.662  0.3531  0.2181  0.3490
 2596SOL    HW310431   0.813   0.982   0.712 -0.1776  0.2601  0.2899
 2596SOL    MW410432   0.778   1.057   0.682  0.1421  0.2311 -0.1501
 2597SOL     OW10433   3.554   3.715   0.993 -0.1960 -0.2646 -0.2855
 2597SOL    HW210434   3.508   3.765   1.060  0.4847  1.3134 -0.9763
 2597SOL    HW310435   3.643   3.705   1.026 -1.1791 -4.1846  1.5130
 2597SOL    MW410436   3.560   3.720   1.006 -0.2358 -0.5734 -0.1395
 2598SOL     OW10437   1.480   3.745   4.698 -0.1511  0.1885  0.4847
 2598SOL    HW210438   1.542   3.799   4.648  0.3221  0.2721  1.1567
 2598SOL    HW310439   1.417   3.715   4.632  0.5486  0.1747 -0.1932
 2598SOL    MW410440   1.480   3.748   4.682  0.0035  0.1976  0.4840
 2599SOL     OW10441   1.369   1.070   3.259 -0.2291  0.1970  0.3236
 2599SOL    HW210442   1.343   1.162   3.250  1.4437  0.4380 -2.7366
 2599SOL    HW310443   1.317   1.023   3.195  0.5673 -0.6156  0.2556
 2599SOL    MW410444   1.359   1.076   3.250  0.0966  0.1216 -0.0894
 2600SOL     OW10445   2.543   0.400   0.945 -0.0583 -0.0380 -0.0203
 2600SOL    HW210446   2.477   0.447   0.895  1.1774  0.5298 -1.1516
 2600SOL    HW310447   2.555   0.452   1.025  0.0882  0.6573 -0.4922
 2600SOL    MW410448   2.536   0.413   0.949  0.1240  0.1287 -0.2317
 2601SOL     OW10449   0.343   2.325   2.229 -0.5810  0.4392  0.3122
 2601SOL    HW210450   0.295   2.399   2.191  0.1025  0.5334 -0.3722
 2601SOL    HW310451   0.277   2.257   2.239 -1.7067  1.8148  2.9310
 2601SOL    MW410452   0.328   2.326   2.225 -0.6393  0.6330  0.5677
 2602SOL     OW10453   2.445   2.665   1.734  0.7081  0.3581  0.2976
 2602SOL    HW210454   2.535   2.665   1.765  0.5468 -0.4388  0.7719
 2602SOL    HW310455   2.453   2.673   1.639  1.2496  1.1922  0.4152
 2602SOL    MW410456   2.458   2.666   1.725  0.7584  0.3629  0.3756
 2603SOL     OW10457   4.055   2.235   0.403  0.5914  0.2680  0.4510
 2603SOL    HW210458   4.062   2.208   0.494  0.3137 -2.1888 -0.2252
 2603SOL    HW310459   3.984   2.181   0.367  1.4720  0.3647 -1.4977
 2603SOL    MW410460   4.047   2.224   0.410  0.6709 -0.0432  0.1047
 2604SOL     OW10461   2.222   2.034   3.264  0.0792  0.0693  0.4146
 2604SOL    HW210462   2.274   1.964   3.225 -1.7852 -2.0592  1.6175
 2604SOL    HW310463   2.214   2.099   3.195 -0.2885 -2.0669 -1.6163
 2604SOL    MW410464   2.228   2.033   3.250 -0.2153 -0.4935  0.3054
 2605SOL     OW10465   1.644   2.335   1.576 -0.8285 -0.4520 -0.4482
 2605SOL    HW210466   1.606   2.247   1.574 -1.5111 -0.1678 -0.3920
 2605SOL    HW310467   1.729   2.325   1.618 -1.6787 -0.7854  1.1966
 2605SOL    MW410468   1.650   2.322   1.581 -1.0307 -0.4587 -0.2238
 2606SOL     OW10469   0.146   1.156   3.807 -0.6223 -0.5618  0.2942
 2606SOL    HW210470   0.234   1.193   3.805 -0.8477 -0.0211  0.1692
 2606SOL    HW310471   0.114   1.174   3.896 -0.4118 -1.2182  0.5012
 2606SOL    MW410472   0.153   1.164   3.819 -0.6243 -0.5772  0.3047
 2607SOL     OW10473   1.729   4.055   1.394  0.2072  0.3067 -0.1921
 2607SOL    HW210474   1.786   4.109   1.339 -0.0075  2.3471  1.5276
 2607SOL    HW310475   1.747   4.084   1.483 -0.6560 -1.8008  0.7040
 2607SOL    MW410476   1.739   4.066   1.398  0.0650  0.2980  0.1529
 2608SOL     OW10477   0.691   1.558   0.782  0.2516  0.0983  0.2028
 2608SOL    HW210478   0.623   1.499   0.750  0.6640  0.3667 -1.2421
 2608SOL    HW310479   0.645   1.640   0.800  0.0114 -0.0602  0.3138
 2608SOL    MW410480   0.676   1.561   0.780  0.2742  0.1128  0.0269
 2609SOL     OW10481   3.787   2.601   2.264  0.2244 -0.1220 -0.8246
 2609SOL    HW210482   3.859   2.578   2.204  1.7121 -0.3767  1.0312
 2609SOL    HW310483   3.782   2.697   2.259 -1.8379 -0.3270 -3.8095
 2609SOL    MW410484   3.796   2.611   2.255  0.1488 -0.1831 -0.9737
 2610SOL     OW10485   1.183   2.629   2.058  0.1690 -0.1000  0.5675
 2610SOL    HW210486   1.093   2.659   2.069  0.6898  1.2884  1.1365
 2610SOL    HW310487   1.212   2.670   1.977  0.0236 -1.2216 -0.0606
 2610SOL    MW410488   1.175   2.639   2.049  0.2187 -0.0646  0.5596
 2611SOL     OW10489   1.269   2.308   3.728 -0.2990  0.0413  0.5598
 2611SOL    HW210490   1.343   2.247   3.726 -1.4900 -1.4067 -0.2735
 2611SOL    HW310491   1.222   2.291   3.646 -2.0862  0.2737  1.5258
 2611SOL    MW410492   1.272   2.298   3.717 -0.6919 -0.1190  0.5777
 2612SOL     OW10493   2.478   0.123   1.782 -0.1747 -0.2030 -0.5222
 2612SOL    HW210494   2.505   0.060   1.715  2.2662 -0.7398  0.8973
 2612SOL    HW310495   2.442   0.197   1.733  1.3077 -0.7099 -2.4299
 2612SOL    MW410496   2.477   0.124   1.767  0.3431 -0.3407 -0.5866
 2613SOL     OW10497   2.745   3.859   0.943 -0.0270  0.2027  0.4602
 2613SOL    HW210498   2.812   3.902   0.890  0.3054  1.1495  1.6037
 2613SOL    HW310499   2.666   3.861   0.890  0.3777  0.8363 -0.1164
 2613SOL    MW410500   2.743   3.865   0.929  0.0701  0.4113  0.5350
 2614SOL     OW10501   2.286   1.837   4.115 -0.4094  0.3967  0.0530
 2614SOL    HW210502   2.228   1.814   4.042  0.4816  0.6298 -0.7440
 2614SOL    HW310503   2.339   1.758   4.129  0.0233  0.6513 -0.1393
 2614SOL    MW410504   2.286   1.823   4.107 -0.2348  0.4611 -0.0777
 2615SOL     OW10505   3.223   1.993   3.116  0.5316  0.2498  0.0933
 2615SOL    HW210506   3.148   1.949   3.156  0.1822 -0.7210 -1.5887
 2615SOL    HW310507   3.275   2.024   3.191 -0.5532 -0.7428  1.2864
 2615SOL    MW410508   3.220   1.991   3.131  0.3426 -0.0092  0.0288
 2616SOL     OW10509   2.636   0.232   1.992  0.0161 -0.1803  0.2749
 2616SOL    HW210510   2.718   0.184   1.998  0.0823 -0.2539 -1.2707
 2616SOL    HW310511   2.589   0.192   1.919 -0.5774  1.1227 -0.0730
 2616SOL    MW410512   2.640   0.221   1.983 -0.0534 -0.0181  0.0252
 2617SOL     OW10513   2.191   3.416   4.190 -0.2562 -0.1919 -0.0798
 2617SOL    HW210514   2.280   3.396   4.158 -1.3139 -2.8917 -1.5155
 2617SOL    HW310515   2.143   3.442   4.111 -0.8115  1.0893  0.6657
 2617SOL    MW410516   2.197   3.416   4.175 -0.4690 -0.3788 -0.1712
 2618SOL     OW10517   3.806   2.068   3.761 -0.3934 -0.2974  0.1007
 2618SOL    HW210518   3.770   2.048   3.847  0.5864  0.9872  0.8361
 2618SOL    HW310519   3.900   2.048   3.770 -0.5531 -1.6324 -1.1407
 2618SOL    MW410520   3.814   2.063   3.774 -0.2854 -0.3037  0.0339
 2619SOL     OW10521   4.376   0.609   1.881  0.6493 -0.1740  0.3524
 2619SOL    HW210522   4.293   0.608   1.930  0.1994 -1.8593 -0.4193
 2619SOL    HW310523   4.366   0.681   1.819 -0.7206 -1.0941 -0.5257
 2619SOL    MW410524   4.364   0.619   1.879  0.4091 -0.5177  0.1347
 2620SOL     OW10525   3.531   0.584   0.660  0.3281  0.1021  0.0786
 2620SOL    HW210526   3.541   0.673   0.627 -0.3560  0.0766 -0.2105
 2620SOL    HW310527   3.582   0.582   0.740 -1.0930  1.2703  1.0276
 2620SOL    MW410528   3.539   0.595   0.666  0.0505  0.2529  0.1657
 2621SOL     OW10529   3.733   0.810   3.594 -0.0783 -0.7015  0.5821
 2621SOL    HW210530   3.810   0.760   3.621  0.0222 -0.6054  0.4723
 2621SOL    HW310531   3.664   0.744   3.584 -0.4837 -0.5850  2.4063
 2621SOL    MW410532   3.734   0.794   3.597 -0.1185 -0.6734  0.8082
 2622SOL     OW10533   4.091   1.852   3.533 -0.1702 -0.0309  0.1499
 2622SOL    HW210534   4.106   1.946   3.521  1.1480 -0.2186  0.1842
 2622SOL    HW310535   4.088   1.818   3.443  3.1599 -0.4811  0.1278
 2622SOL    MW410536   4.093   1.860   3.519  0.4430 -0.1149  0.1516
 2623SOL     OW10537   0.339   2.173   4.553  0.1661 -0.5445 -0.1423
 2623SOL    HW210538   0.276   2.102   4.541  0.6352 -0.9454 -0.2677
 2623SOL    HW310539   0.417   2.130   4.590  0.4181 -0.0813 -0.1282
 2623SOL    MW410540   0.341   2.158   4.557  0.2613 -0.5367 -0.1569
 2624SOL     OW10541   0.153   3.684   1.584  0.0776 -0.1773  0.7226
 2624SOL    HW210542   0.138   3.770   1.544 -0.1263 -1.2465 -1.6003
 2624SOL    HW310543   0.066   3.651   1.605  0.0500 -0.4778  0.1455
 2624SOL    MW410544   0.140   3.691   1.581  0.0471 -0.3581  0.3400
 2625SOL     OW10545   4.251   0.639   2.418 -0.1493 -0.9997  0.3659
 2625SOL    HW210546   4.319   0.654   2.484  0.6271 -1.7151 -0.2575
 2625SOL    HW310547   4.258   0.714   2.359 -1.0384 -0.2075  1.2403
 2625SOL    MW410548   4.261   0.651   2.419 -0.1640 -0.9895  0.3991
 2626SOL     OW10549   2.023   2.731   2.317  0.2105  0.0847  0.2736
 2626SOL    HW210550   1.941   2.748   2.270  0.5830  0.6976 -0.1570
 2626SOL    HW310551   2.092   2.754   2.254  0.7191  1.9351  1.4767
 2626SOL    MW410552   2.021   2.736   2.302  0.3266  0.4096  0.3757
 2627SOL     OW10553   2.010   3.309   0.562  0.3182  0.0934 -0.4242
 2627SOL    HW210554   2.063   3.231   0.545  0.7437  0.2985 -0.0273
 2627SOL    HW310555   1.920   3.276   0.566  0.6523 -0.6304  1.4261
 2627SOL    MW410556   2.005   3.295   0.560  0.4184  0.0248 -0.1277
 2628SOL     OW10557   4.255   0.022   3.566  0.4510  0.2749  0.2998
 2628SOL    HW210558   4.321   0.085   3.595  2.1490 -0.8714 -0.9757
 2628SOL    HW310559   4.299  -0.029   3.498 -1.4768 -1.1045  0.0550
 2628SOL    MW410560   4.270   0.024   3.561  0.4206 -0.0583  0.0992
 2629SOL     OW10561   3.396   2.441   4.347 -0.0519 -0.0195  0.6989
 2629SOL    HW210562   3.420   2.422   4.438 -0.6784  1.3751  1.1652
 2629SOL    HW310563   3.390   2.536   4.343 -1.5051 -0.1376 -0.4262
 2629SOL    MW410564   3.398   2.451   4.358 -0.3264  0.1490  0.6123
 2630SOL     OW10565   1.222   1.323   2.161  0.1943  0.1233  0.3820
 2630SOL    HW210566   1.245   1.231   2.145 -1.4165 -0.3655  0.7131
 2630SOL    HW310567   1.212   1.361   2.074  1.4927  0.1508  0.2446
 2630SOL    MW410568   1.223   1.316   2.147  0.1531  0.0625  0.4077
 2631SOL     OW10569   3.612   0.759   2.295 -0.0997 -0.5895  0.2193
 2631SOL    HW210570   3.612   0.713   2.211 -0.0706  1.4119 -0.8935
 2631SOL    HW310571   3.698   0.742   2.332  1.1363  1.3162 -1.7220
 2631SOL    MW410572   3.623   0.751   2.289  0.0672 -0.0740 -0.1833
 2632SOL     OW10573   0.508   3.877   4.357  0.4512 -0.0429  0.1117
 2632SOL    HW210574   0.541   3.796   4.318  1.3155  0.0566  0.6372
 2632SOL    HW310575   0.565   3.894   4.432 -0.2408  0.6062  0.5077
 2632SOL    MW410576   0.520   3.869   4.362  0.4739  0.0563  0.2332
 2633SOL     OW10577   4.280   2.994   1.193  0.1554  0.1137  0.2235
 2633SOL    HW210578   4.209   2.942   1.232  1.3490 -0.3724  1.7785
 2633SOL    HW310579   4.360   2.955   1.227  1.1330  1.6267 -0.3070
 2633SOL    MW410580   4.281   2.982   1.202  0.4420  0.2491  0.3586
 2634SOL     OW10581   3.755   3.008   3.655  0.0307 -0.4239  0.4729
 2634SOL    HW210582   3.684   2.997   3.718 -0.7362  1.0684 -0.0914
 2634SOL    HW310583   3.733   2.948   3.584 -1.4581  1.0245 -0.3393
 2634SOL    MW410584   3.742   2.999   3.654 -0.2668 -0.0360  0.2911
 2635SOL     OW10585   2.014   1.161   0.789  0.1803 -0.1080 -0.0896
 2635SOL    HW210586   2.078   1.231   0.803 -1.1824  0.6246  2.7612
 2635SOL    HW310587   2.063   1.080   0.805  0.7366  0.3899  0.7512
 2635SOL    MW410588   2.029   1.159   0.793  0.0739  0.0544  0.3974
 2636SOL     OW10589   1.858   0.209   1.866 -0.1024 -0.0622  0.1663
 2636SOL    HW210590   1.886   0.229   1.955  0.1612  1.1708 -0.1838
 2636SOL    HW310591   1.828   0.293   1.831  0.5964 -0.3637 -1.1923
 2636SOL    MW410592   1.857   0.223   1.873  0.0246  0.0607 -0.0591
 2637SOL     OW10593   4.320   4.661   2.087 -0.2057  0.0030 -0.4758
 2637SOL    HW210594   4.359   4.611   2.159 -1.2755  0.8299  0.6823
 2637SOL    HW310595   4.384   4.729   2.068 -0.7243  0.9039  0.9273
 2637SOL    MW410596   4.334   4.663   2.094 -0.4148  0.2309 -0.1378
 2638SOL     OW10597   3.649   2.592   2.946  0.4653  0.1686 -0.2093
 2638SOL    HW210598   3.706   2.663   2.975 -0.6087  0.2000  1.9366
 2638SOL    HW310599   3.560   2.626   2.955  0.0394 -0.4757 -1.8712
 2638SOL    MW410600   3.645   2.606   2.951  0.2675  0.0877 -0.1454
 2639SOL     OW10601   3.112   1.445   0.619 -0.2579 -0.3062 -0.2025
 2639SOL    HW210602   3.021   1.420   0.633 -0.6943  1.3609  0.0760
 2639SOL    HW310603   3.134   1.499   0.696  1.2938 -1.5597  0.2707
 2639SOL    MW410604   3.103   1.449   0.631 -0.1106 -0.2518 -0.1033
 2640SOL     OW10605   0.607   4.136   2.871  0.3489 -0.2890 -0.1819
 2640SOL    HW210606   0.631   4.218   2.828 -0.6852 -0.1765 -0.5659
 2640SOL    HW310607   0.558   4.163   2.949  0.8251 -0.5274  0.2011
 2640SOL    MW410608   0.604   4.150   2.875  0.2754 -0.3061 -0.1819
 2641SOL     OW10609   2.865   2.063   1.561 -0.3475 -0.7060 -0.1912
 2641SOL    HW210610   2.856   2.018   1.645 -0.3395  0.8476  0.6465
 2641SOL    HW310611   2.778   2.100   1.544  0.4506  1.6586  0.6833
 2641SOL    MW410612   2.852   2.062   1.570 -0.2410 -0.1893  0.0347
 2642SOL     OW10613   1.797   1.676   0.944 -0.2537  0.0365  0.0149
 2642SOL    HW210614   1.762   1.749   0.893 -0.9524  0.4389  1.0466
 2642SOL    HW310615   1.840   1.718   1.019 -0.7863 -0.6092  0.6863
 2642SOL    MW410616   1.798   1.691   0.947 -0.4163  0.0043  0.2397
 2643SOL     OW10617   2.070   1.784   1.865  0.1111 -0.2105  0.2216
 2643SOL    HW210618   2.143   1.735   1.902 -1.4496 -2.1209  0.8313
 2643SOL    HW310619   2.081   1.873   1.900  1.6761 -0.6688  0.9408
 2643SOL    MW410620   2.081   1.789   1.874  0.1118 -0.5232  0.3968
 2644SOL     OW10621   1.325   2.224   3.073 -0.0812  0.4903 -0.5840
 2644SOL    HW210622   1.330   2.283   3.148  0.0330  0.2908 -0.4345
 2644SOL    HW310623   1.249   2.168   3.090 -0.5120  0.9487 -0.9862
 2644SOL    MW410624   1.316   2.225   3.085 -0.1230  0.5248 -0.6175
 2645SOL     OW10625   3.019   0.268   4.363  0.1927  0.1883  0.0903
 2645SOL    HW210626   3.037   0.201   4.297  0.8818 -0.7771  1.2326
 2645SOL    HW310627   2.925   0.261   4.379  0.1072  0.0982 -0.4401
 2645SOL    MW410628   3.009   0.258   4.357  0.2725  0.0490  0.1712
 2646SOL     OW10629   0.071   1.476   0.767 -0.0583  0.6605  0.1234
 2646SOL    HW210630   0.151   1.515   0.731  0.7152 -0.8994  0.1314
 2646SOL    HW310631   0.100   1.429   0.845 -0.7309 -1.1736 -0.7098
 2646SOL    MW410632   0.085   1.475   0.773 -0.0450  0.2127  0.0145
 2647SOL     OW10633   2.492   4.051   1.395  0.1974  0.0314 -0.4251
 2647SOL    HW210634   2.522   4.137   1.368  2.6827 -0.6073  0.1957
 2647SOL    HW310635   2.542   4.032   1.475 -0.1936 -2.0419 -0.6384
 2647SOL    MW410636   2.502   4.060   1.402  0.4735 -0.3266 -0.3713
 2648SOL     OW10637   2.638   4.132   3.000  0.5048 -0.8878 -0.4207
 2648SOL    HW210638   2.587   4.147   2.920  0.6261  0.6415 -0.2157
 2648SOL    HW310639   2.726   4.164   2.978  0.5733 -0.6049  0.2779
 2648SOL    MW410640   2.643   4.138   2.986  0.5300 -0.6485 -0.3018
 2649SOL     OW10641   2.266   1.462   1.802 -0.1472  0.2651 -0.1031
 2649SOL    HW210642   2.233   1.396   1.864 -1.6210  0.3772 -0.7449
 2649SOL    HW310643   2.277   1.541   1.855  1.0798 -0.3297  0.5526
 2649SOL    MW410644   2.263   1.463   1.818 -0.1798  0.2013 -0.1012
 2650SOL     OW10645   1.540   2.057   1.520 -0.4421 -0.4315  0.3669
 2650SOL    HW210646   1.581   1.986   1.570  0.0825 -0.8149 -0.5958
 2650SOL    HW310647   1.578   2.050   1.432 -0.6677  0.8123  0.1625
 2650SOL    MW410648   1.550   2.047   1.515 -0.4027 -0.3181  0.2129
 2651SOL     OW10649   1.661   2.104   2.673  0.1581  0.0201 -0.5298
 2651SOL    HW210650   1.654   2.015   2.640  0.4908  0.7033 -2.5179
 2651SOL    HW310651   1.616   2.158   2.608 -1.3972  1.1456  1.4269
 2651SOL    MW410652   1.654   2.100   2.660 -0.0033  0.2587 -0.5341
 2652SOL     OW10653   0.029   1.978   3.498  0.3775  0.3976 -0.3424
 2652SOL    HW210654   0.079   1.938   3.427 -0.9936 -2.3191  0.1929
 2652SOL    HW310655   0.013   1.908   3.560 -1.4034  1.9447  1.0191
 2652SOL    MW410656   0.033   1.964   3.497 -0.0384  0.2432 -0.0920
 2653SOL     OW10657   4.354   1.301   1.918  0.4563  0.0612  0.5480
 2653SOL    HW210658   4.431   1.259   1.953  0.1846  0.1811  1.3040
 2653SOL    HW310659   4.385   1.386   1.885  0.6950 -0.0169  0.5760
 2653SOL    MW410660   4.368   1.307   1.918  0.4525  0.0668  0.6516
 2654SOL     OW10661   1.097   0.496   2.565 -0.3488 -0.2714 -1.1780
 2654SOL    HW210662   1.058   0.418   2.526  0.3358 -0.6326 -1.1417
 2654SOL    HW310663   1.146   0.463   2.641 -1.4081  0.3866 -0.2023
 2654SOL    MW410664   1.099   0.481   2.570 -0.3983 -0.2322 -1.0445
 2655SOL     OW10665   1.072   4.085   4.706 -0.4080  0.2844  0.1754
 2655SOL    HW210666   1.160   4.088   4.742 -0.7427  0.3630  1.0012
 2655SOL    HW310667   1.080   4.030   4.628  0.2796 -0.0946  0.5071
 2655SOL    MW410668   1.085   4.078   4.700 -0.3613  0.2446  0.3276
 2656SOL     OW10669   0.136   3.574   1.341  0.5554  0.2469  0.1457
 2656SOL    HW210670   0.161   3.652   1.292  0.4993  0.1688 -0.0064
 2656SOL    HW310671   0.159   3.594   1.432  2.4164 -0.3528 -0.1843
 2656SOL    MW410672   0.142   3.587   1.346  0.7936  0.1576  0.0821
 2657SOL     OW10673   3.702   3.408   3.363 -0.3932 -0.2191  0.1975
 2657SOL    HW210674   3.665   3.349   3.429  0.6972  0.2900  1.2873
 2657SOL    HW310675   3.756   3.352   3.308 -0.5037 -0.4768  0.3499
 2657SOL    MW410676   3.704   3.393   3.365 -0.2637 -0.1857  0.3614
 2658SOL     OW10677   2.574   0.500   2.661 -0.3464 -0.1537  0.2251
 2658SOL    HW210678   2.575   0.405   2.655  1.7347  0.0202 -3.6008
 2658SOL    HW310679   2.646   0.529   2.605 -2.1991  3.7508 -0.3384
 2658SOL    MW410680   2.583   0.491   2.653 -0.3164  0.3844 -0.3536
 2659SOL     OW10681   1.574   4.490   1.612  0.1837  0.2589 -0.2670
 2659SOL    HW210682   1.557   4.582   1.589 -0.3701 -0.0409 -1.1008
 2659SOL    HW310683   1.669   4.483   1.615  0.2771  0.3708 -2.2928
 2659SOL    MW410684   1.584   4.501   1.609  0.1230  0.2341 -0.6443
 2660SOL     OW10685   1.837   0.864   1.507  0.2992 -0.3821 -0.4811
 2660SOL    HW210686   1.885   0.875   1.589 -1.9117 -1.2107  0.9913
 2660SOL    HW310687   1.853   0.774   1.481  1.9643  0.2229 -1.6342
 2660SOL    MW410688   1.845   0.854   1.514  0.2272 -0.4116 -0.4389
 2661SOL     OW10689   0.125   2.571   3.934 -0.0322 -0.5195  0.1321
 2661SOL    HW210690   0.046   2.538   3.975 -1.0843 -0.1585 -1.5472
 2661SOL    HW310691   0.108   2.566   3.840  0.9515  1.8792 -0.2337
 2661SOL    MW410692   0.112   2.566   3.927 -0.0412 -0.1557 -0.1376
 2662SOL     OW10693   2.590   1.731   2.133 -0.2061  0.8956  0.2411
 2662SOL    HW210694   2.594   1.761   2.042  0.6748  1.7533  0.5624
 2662SOL    HW310695   2.530   1.793   2.176 -2.0167 -0.5463 -0.1430
 2662SOL    MW410696   2.582   1.743   2.127 -0.3288  0.8185  0.2329
 2663SOL     OW10697   1.328   0.174   4.035  0.1026  0.2733 -0.2872
 2663SOL    HW210698   1.421   0.194   4.037 -0.0338  0.7697  1.6479
 2663SOL    HW310699   1.324   0.078   4.042  0.4505  0.2987  0.2697
 2663SOL    MW410700   1.339   0.164   4.036  0.1305  0.3421  0.0420
 2664SOL     OW10701   3.718   4.313   4.429 -0.0682  0.4628  0.6483
 2664SOL    HW210702   3.751   4.255   4.360  0.1512  2.0549 -0.6012
 2664SOL    HW310703   3.773   4.294   4.504 -0.4794 -1.4887  0.4992
 2664SOL    MW410704   3.729   4.303   4.430 -0.0935  0.4153  0.4644
 2665SOL     OW10705   3.586   1.944   0.509  0.0729 -0.0133 -0.6501
 2665SOL    HW210706   3.594   1.970   0.601 -0.9378 -1.1538 -0.2208
 2665SOL    HW310707   3.538   2.017   0.468  0.4217  0.4433 -0.2561
 2665SOL    MW410708   3.581   1.957   0.516 -0.0145 -0.1037 -0.5415
 2666SOL     OW10709   2.992   3.598   2.326 -0.2453 -0.1284  0.3162
 2666SOL    HW210710   2.899   3.600   2.350 -0.6116 -1.6999 -0.9146
 2666SOL    HW310711   3.035   3.558   2.401 -0.7863 -0.9221  0.2068
 2666SOL    MW410712   2.985   3.593   2.339 -0.3648 -0.4404  0.1392
 2667SOL     OW10713   4.116   2.583   3.334 -0.2880 -0.4286 -0.5115
 2667SOL    HW210714   4.031   2.540   3.345 -0.3474 -0.4682 -1.1101
 2667SOL    HW310715   4.124   2.640   3.410 -0.4270 -1.1294  0.0399
 2667SOL    MW410716   4.106   2.585   3.345 -0.3142 -0.5264 -0.5178
 2668SOL     OW10717   0.567   4.567   2.971 -0.2736 -0.5208  0.0867
 2668SOL    HW210718   0.485   4.604   3.004  0.6998 -0.4856  2.5484
 2668SOL    HW310719   0.600   4.513   3.043  0.8967 -2.0944 -1.5943
 2668SOL    MW410720   0.560   4.565   2.985  0.0091 -0.7234  0.1898
 2669SOL     OW10721   3.554   3.549   1.769  0.3576 -0.4863 -0.0271
 2669SOL    HW210722   3.588   3.505   1.692  0.5015 -1.9373  0.8357
 2669SOL    HW310723   3.464   3.573   1.746 -0.2177 -2.5402 -0.0425
 2669SOL    MW410724   3.546   3.546   1.756  0.3009 -0.9487  0.0848
 2670SOL     OW10725   0.289   3.158   2.365 -0.0069 -0.5279  0.1172
 2670SOL    HW210726   0.346   3.140   2.291  0.2884 -0.4788  0.3302
 2670SOL    HW310727   0.295   3.253   2.378 -0.5941 -0.4414 -0.2258
 2670SOL    MW410728   0.298   3.168   2.357 -0.0454 -0.5102  0.1001
 2671SOL     OW10729   1.595   1.748   1.334 -0.1893  0.1354 -0.0957
 2671SOL    HW210730   1.682   1.711   1.345  0.2348  0.4614 -2.1051
 2671SOL    HW310731   1.611   1.842   1.320 -1.0909  0.7430  2.7202
 2671SOL    MW410732   1.608   1.756   1.333 -0.2521  0.2584  0.0106
 2672SOL     OW10733   2.767   3.108   3.228 -0.2702 -0.3852  0.1571
 2672SOL    HW210734   2.708   3.141   3.160  0.8727  0.2011 -0.5596
 2672SOL    HW310735   2.725   3.132   3.310 -0.0128  1.8867 -0.3445
 2672SOL    MW410736   2.754   3.115   3.230 -0.0854 -0.0079 -0.0036
 2673SOL     OW10737   3.045   2.920   4.673 -0.2244 -0.0826 -0.2525
 2673SOL    HW210738   3.059   2.965   4.756  2.3328 -0.1401 -0.6150
 2673SOL    HW310739   2.954   2.939   4.649 -0.9637 -0.0327  2.5195
 2673SOL    MW410740   3.035   2.928   4.680  0.0155 -0.0834  0.0653
 2674SOL     OW10741   1.522   3.763   4.234  0.3941 -0.0673 -0.0669
 2674SOL    HW210742   1.436   3.721   4.231 -0.6120  1.9075  0.2936
 2674SOL    HW310743   1.551   3.751   4.325 -0.6725  1.5051  0.4985
 2674SOL    MW410744   1.514   3.756   4.246  0.1206  0.4005  0.0548
 2675SOL     OW10745   1.065   1.295   4.511 -0.2479 -0.1941  0.0343
 2675SOL    HW210746   1.060   1.266   4.420  0.7518  0.8641 -0.3645
 2675SOL    HW310747   0.973   1.310   4.536 -0.4655  0.5922 -1.1596
 2675SOL    MW410748   1.052   1.293   4.502 -0.1448  0.0492 -0.1764
 2676SOL     OW10749   0.617   0.641   0.718  0.2170 -0.2736  0.0501
 2676SOL    HW210750   0.605   0.702   0.791 -1.2126  1.9734 -1.9600
 2676SOL    HW310751   0.709   0.651   0.694 -0.1298  1.6248 -0.6340
 2676SOL    MW410752   0.628   0.651   0.724 -0.0174  0.2733 -0.3054
 2677SOL     OW10753   1.965   3.558   3.259 -0.0773 -0.4646  0.8045
 2677SOL    HW210754   1.911   3.636   3.269 -0.2747 -0.4623 -0.1878
 2677SOL    HW310755   1.905   3.492   3.225  0.3852 -0.6693  0.3828
 2677SOL    MW410756   1.950   3.559   3.256 -0.0422 -0.4911  0.6180
 2678SOL     OW10757   3.811   1.841   3.612  0.0868  0.5591 -0.1088
 2678SOL    HW210758   3.904   1.826   3.594  0.1330  0.5667  0.1343
 2678SOL    HW310759   3.809   1.905   3.682 -0.0725 -1.1202  1.4523
 2678SOL    MW410760   3.823   1.847   3.619  0.0720  0.3386  0.1295
 2679SOL     OW10761   3.570   2.214   0.407  0.3275 -0.5476  0.2259
 2679SOL    HW210762   3.585   2.283   0.471 -0.8613 -1.3763  1.4215
 2679SOL    HW310763   3.505   2.250   0.347  0.8595 -0.0601 -0.0584
 2679SOL    MW410764   3.563   2.228   0.407  0.2408 -0.5925  0.3462
 2680SOL     OW10765   2.333   3.847   0.972 -0.9685  0.5128 -0.7766
 2680SOL    HW210766   2.301   3.935   0.955 -1.6923  0.2361 -0.8331
 2680SOL    HW310767   2.261   3.789   0.949  0.0087 -0.1967 -2.1615
 2680SOL    MW410768   2.320   3.851   0.967 -0.9353  0.3827 -0.9667
 2681SOL     OW10769   4.153   0.756   4.561 -0.2891  0.1496 -0.2619
 2681SOL    HW210770   4.213   0.710   4.503 -0.4632 -0.9873  0.4411
 2681SOL    HW310771   4.097   0.687   4.598 -1.0641  1.0139  0.2082
 2681SOL    MW410772   4.153   0.741   4.558 -0.4144  0.1137 -0.1078
 2682SOL     OW10773   4.111   3.932   3.819  0.1169  0.3367  0.1959
 2682SOL    HW210774   4.139   3.931   3.728 -2.0283  0.8962 -0.4886
 2682SOL    HW310775   4.165   3.865   3.861  1.5181  0.4688 -1.3427
 2682SOL    MW410776   4.122   3.923   3.813  0.0186  0.4280 -0.0975
 2683SOL     OW10777   0.662   3.599   1.143  0.7575 -0.0937 -0.3153
 2683SOL    HW210778   0.655   3.673   1.203 -0.1324 -0.4279 -0.0038
 2683SOL    HW310779   0.692   3.638   1.061  0.4800  0.5931 -0.0940
 2683SOL    MW410780   0.665   3.614   1.140  0.6034 -0.0472 -0.2450
 2684SOL     OW10781   0.414   4.369   2.616  0.4439  0.5178  0.5322
 2684SOL    HW210782   0.377   4.452   2.586  0.3872  0.5318  0.6421
 2684SOL    HW310783   0.430   4.320   2.536 -0.3164  0.2938  0.5164
 2684SOL    MW410784   0.411   4.374   2.601  0.3361  0.4902  0.5448
 2685SOL     OW10785   1.265   4.504   2.024 -0.3899 -0.2351  0.0544
 2685SOL    HW210786   1.299   4.490   1.935  0.6466  0.0577  0.3978
 2685SOL    HW310787   1.339   4.483   2.081 -1.3821 -1.5229  0.9062
 2685SOL    MW410788   1.279   4.499   2.019 -0.3842 -0.3667  0.2122
 2686SOL     OW10789   1.370   2.703   2.919  0.7793  0.2806 -0.2412
 2686SOL    HW210790   1.441   2.695   2.983 -0.2281  1.0967  0.9962
 2686SOL    HW310791   1.332   2.616   2.915  1.1405  0.1135 -0.0796
 2686SOL    MW410792   1.375   2.691   2.927  0.6939  0.3664 -0.0565
 2687SOL     OW10793   2.083   0.286   3.407 -0.1001  0.1541 -0.0446
 2687SOL    HW210794   2.046   0.335   3.334 -1.7895  0.1928  0.8110
 2687SOL    HW310795   2.134   0.350   3.455 -0.0311  0.4235 -0.4742
 2687SOL    MW410796   2.085   0.301   3.404 -0.3140  0.1948  0.0117
 2688SOL     OW10797   3.754   1.497   1.725  0.8087 -0.5157 -0.3628
 2688SOL    HW210798   3.843   1.518   1.697  0.7720  0.1140 -0.0172
 2688SOL    HW310799   3.732   1.416   1.678  1.0444  0.0846 -1.5303
 2688SOL    MW410800   3.763   1.489   1.715  0.8349 -0.3533 -0.4714
 2689SOL     OW10801   1.426   2.017   4.219  0.2136  0.3316  0.0833
 2689SOL    HW210802   1.345   2.000   4.267  0.2844 -1.4329 -0.3816
 2689SOL    HW310803   1.412   1.978   4.133  1.0943  1.1229 -0.4361
 2689SOL    MW410804   1.414   2.010   4.214  0.3390  0.2031 -0.0458
 2690SOL     OW10805   2.781   3.840   2.958  0.3532  0.1128 -0.4412
 2690SOL    HW210806   2.846   3.884   2.902  0.9109  1.0860  0.9357
 2690SOL    HW310807   2.714   3.906   2.972 -0.1297 -0.3610 -0.5233
 2690SOL    MW410808   2.781   3.855   2.953  0.3633  0.1788 -0.2706
 2691SOL     OW10809   1.032   3.428   4.299  0.3429 -0.1704  0.7098
 2691SOL    HW210810   0.984   3.511   4.296 -0.2809 -0.6056 -1.5763
 2691SOL    HW310811   0.965   3.361   4.311  0.7545 -0.4505  1.5116
 2691SOL    MW410812   1.017   3.430   4.300  0.3150 -0.2649  0.5140
 2692SOL     OW10813   3.663   3.535   2.277 -0.6262  0.3484 -0.1727
 2692SOL    HW210814   3.597   3.602   2.258 -0.1122  0.5309 -1.3953
 2692SOL    HW310815   3.655   3.473   2.205  0.5888  0.4249 -0.3907
 2692SOL    MW410816   3.653   3.536   2.265 -0.3984  0.3824 -0.3629
 2693SOL     OW10817   4.381   0.319   2.724 -0.4020 -0.0415 -0.3254
 2693SOL    HW210818   4.438   0.385   2.765  0.3808 -0.4176 -0.7876
 2693SOL    HW310819   4.390   0.335   2.630 -1.0202 -0.1395 -0.3986
 2693SOL    MW410820   4.390   0.330   2.717 -0.3805 -0.1041 -0.3958
 2694SOL     OW10821   3.249   4.118   4.042 -0.2561 -0.0710 -0.1316
 2694SOL    HW210822   3.251   4.207   4.077  0.2245 -0.5615  1.1399
 2694SOL    HW310823   3.202   4.125   3.959 -0.7990  1.2500  0.2839
 2694SOL    MW410824   3.243   4.131   4.036 -0.2644  0.0386  0.0911
 2695SOL     OW10825   2.458   3.250   2.522  0.9476 -0.1410 -0.1659
 2695SOL    HW210826   2.388   3.219   2.465  1.4437 -2.1739  0.2792
 2695SOL    HW310827   2.445   3.201   2.604  2.8637 -0.5002 -0.0670
 2695SOL    MW410828   2.447   3.239   2.525  1.2658 -0.4566 -0.0944
 2696SOL     OW10829   1.575   0.690   3.147  0.5068 -0.0882 -0.2816
 2696SOL    HW210830   1.619   0.725   3.070  0.3335  1.2027  0.1897
 2696SOL    HW310831   1.482   0.705   3.129  0.6028  2.9822  1.4527
 2696SOL    MW410832   1.568   0.696   3.134  0.4966  0.4873  0.0093
 2697SOL     OW10833   1.861   2.152   2.143 -0.0068  0.1722  0.4018
 2697SOL    HW210834   1.867   2.247   2.151 -0.7401  0.1575  1.1581
 2697SOL    HW310835   1.863   2.120   2.233  0.5725 -0.5514  0.1341
 2697SOL    MW410836   1.862   2.160   2.156 -0.0272  0.0746  0.4666
 2698SOL     OW10837   1.844   0.562   4.251 -0.3834  0.1390  0.0964
 2698SOL    HW210838   1.914   0.505   4.220 -0.2201  0.3504  0.0764
 2698SOL    HW310839   1.832   0.537   4.343  0.9895  1.3721  0.6362
 2698SOL    MW410840   1.852   0.551   4.259 -0.1806  0.3295  0.1645
 2699SOL     OW10841   1.970   1.483   0.490  0.0222  0.5139 -0.1943
 2699SOL    HW210842   2.042   1.494   0.427  0.4470  1.2156  0.4063
 2699SOL    HW310843   1.973   1.390   0.513  0.4606  0.4457 -0.5081
 2699SOL    MW410844   1.980   1.472   0.485  0.1361  0.5972 -0.1564
 2700SOL     OW10845   1.330   3.458   1.095 -0.5236 -0.1980 -0.3143
 2700SOL    HW210846   1.328   3.393   1.165  0.1664 -0.2059 -0.2905
 2700SOL    HW310847   1.263   3.522   1.120 -0.5170 -0.3792  0.1799
 2700SOL    MW410848   1.321   3.458   1.108 -0.4318 -0.2229 -0.2459
 2701SOL     OW10849   2.276   1.478   2.366 -0.0786 -0.2624  0.1563
 2701SOL    HW210850   2.185   1.493   2.389 -0.2741 -0.0129 -0.7667
 2701SOL    HW310851   2.326   1.520   2.437 -0.6764 -0.1876  0.5309
 2701SOL    MW410852   2.271   1.486   2.378 -0.1831 -0.2196  0.0837
 2702SOL     OW10853   4.139   3.503   4.158 -0.1850  0.0050 -0.1955
 2702SOL    HW210854   4.120   3.531   4.069  1.1173 -0.9837 -0.7948
 2702SOL    HW310855   4.231   3.478   4.157 -0.4890 -1.2716  1.0954
 2702SOL    MW410856   4.149   3.503   4.146 -0.0534 -0.2937 -0.1044
 2703SOL     OW10857   3.756   3.672   1.193  0.1398 -0.2707  0.2802
 2703SOL    HW210858   3.726   3.747   1.245 -0.5600 -1.1010  1.0842
 2703SOL    HW310859   3.850   3.667   1.211  0.0562 -0.0385  0.7894
 2703SOL    MW410860   3.764   3.681   1.202  0.0360 -0.3498  0.4536
 2704SOL     OW10861   2.550   2.763   4.525  0.6685  0.2378 -0.3816
 2704SOL    HW210862   2.524   2.680   4.564 -0.3202  0.5357 -0.4144
 2704SOL    HW310863   2.469   2.802   4.494  1.0744  1.4154  0.0188
 2704SOL    MW410864   2.536   2.757   4.526  0.5915  0.4325 -0.3333
 2705SOL     OW10865   0.205   3.299   3.672  0.2970  0.0422 -0.3604
 2705SOL    HW210866   0.300   3.292   3.680  0.4954  0.5291 -2.0876
 2705SOL    HW310867   0.179   3.220   3.624 -0.3530 -0.7797  1.3020
 2705SOL    MW410868   0.214   3.288   3.667  0.2374 -0.0021 -0.3691
 2706SOL     OW10869   4.488   0.713   2.567 -0.4298  0.4030 -0.1167
 2706SOL    HW210870   4.488   0.807   2.549 -0.9541  0.2945 -0.6837
 2706SOL    HW310871   4.557   0.678   2.511  0.8873  0.6730  1.3024
 2706SOL    MW410872   4.497   0.721   2.557 -0.3252  0.4243 -0.0041
 2707SOL     OW10873   3.202   2.688   4.539 -0.0257  0.2391  0.2330
 2707SOL    HW210874   3.139   2.642   4.484 -0.9852  0.9411  0.7380
 2707SOL    HW310875   3.150   2.749   4.591  1.0519  0.7565  0.7391
 2707SOL    MW410876   3.187   2.690   4.539 -0.0100  0.4003  0.3662
 2708SOL     OW10877   2.211   0.476   2.499 -0.1061 -0.1391 -0.5894
 2708SOL    HW210878   2.196   0.501   2.590 -1.1645 -0.3378 -0.7024
 2708SOL    HW310879   2.249   0.555   2.459  1.3841 -0.4102  0.2730
 2708SOL    MW410880   2.214   0.490   2.506 -0.0491 -0.2011 -0.4904
 2709SOL     OW10881   2.613   2.728   3.647  0.2582  0.2220 -0.0932
 2709SOL    HW210882   2.558   2.766   3.715  2.0281  1.1581  0.8400
 2709SOL    HW310883   2.577   2.640   3.635  0.3761 -0.2592  2.6092
 2709SOL    MW410884   2.601   2.721   3.655  0.5071  0.2820  0.3862
 2710SOL     OW10885   2.409   3.654   1.137  0.4903 -0.1352 -0.2287
 2710SOL    HW210886   2.392   3.724   1.073  0.1598 -0.0830 -0.0862
 2710SOL    HW310887   2.325   3.608   1.144  0.8436 -0.8516 -0.6921
 2710SOL    MW410888   2.396   3.657   1.130  0.4933 -0.2227 -0.2711
 2711SOL     OW10889   2.398   0.153   3.591  0.1897  0.6549  0.1095
 2711SOL    HW210890   2.404   0.248   3.582  2.6759  0.3455 -1.7959
 2711SOL    HW310891   2.405   0.119   3.502  0.6419 -1.3871  0.8821
 2711SOL    MW410892   2.400   0.161   3.578  0.5774  0.3447 -0.0401
 2712SOL     OW10893   3.335   0.807   2.134 -0.2037  0.5017  0.4086
 2712SOL    HW210894   3.267   0.778   2.194 -1.0227  0.3041 -0.5984
 2712SOL    HW310895   3.401   0.737   2.136 -1.6038 -0.8940 -1.1105
 2712SOL    MW410896   3.335   0.794   2.142 -0.4966  0.2915  0.0753
 2713SOL     OW10897   0.461   1.119   3.254 -0.3575 -0.5897 -0.3476
 2713SOL    HW210898   0.370   1.122   3.283 -0.2356 -0.3723  0.0243
 2713SOL    HW310899   0.508   1.079   3.328  0.3904  2.4935  0.9297
 2713SOL    MW410900   0.455   1.114   3.268 -0.2427 -0.1543 -0.1302
 2714SOL     OW10901   3.780   4.133   2.486  0.1435 -0.1334  1.0651
 2714SOL    HW210902   3.756   4.042   2.465  0.3842 -0.0114  0.2541
 2714SOL    HW310903   3.803   4.131   2.578  0.6757 -1.0094  0.9169
 2714SOL    MW410904   3.780   4.121   2.495  0.2456 -0.2327  0.9384
 2715SOL     OW10905   1.947   1.964   2.373  0.2517 -0.6704 -0.6062
 2715SOL    HW210906   1.941   1.938   2.465 -1.2107 -1.0192 -0.7882
 2715SOL    HW310907   2.025   2.020   2.369 -0.5374  0.5978  1.1559
 2715SOL    MW410908   1.956   1.968   2.385 -0.0453 -0.5493 -0.3979
 2716SOL     OW10909   0.769   3.485   1.501 -0.1491  0.2605  0.8575
 2716SOL    HW210910   0.851   3.454   1.462  0.5583  3.3914 -0.2646
 2716SOL    HW310911   0.795   3.522   1.585 -0.5991  0.2861  0.9877
 2716SOL    MW410912   0.783   3.486   1.507 -0.1152  0.6771  0.7267
 2717SOL     OW10913   0.773   4.543   2.081 -0.1801  0.5415  0.2916
 2717SOL    HW210914   0.710   4.521   2.012 -0.3687  1.1011  0.2880
 2717SOL    HW310915   0.771   4.638   2.087  0.7378  0.5760  0.2239
 2717SOL    MW410916   0.765   4.552   2.073 -0.0838  0.6199  0.2820
 2718SOL     OW10917   1.028   1.682   2.422 -0.3659 -0.0186  0.3245
 2718SOL    HW210918   1.118   1.648   2.424  0.4755  2.1508  0.8683
 2718SOL    HW310919   1.035   1.769   2.461 -2.4620  0.7413 -0.9462
 2718SOL    MW410920   1.041   1.689   2.427 -0.5314  0.3679  0.2286
 2719SOL     OW10921   3.928   4.550   1.710 -0.2458  0.7804 -0.0203
 2719SOL    HW210922   4.020   4.576   1.697 -0.1500 -1.0331 -3.4563
 2719SOL    HW310923   3.932   4.455   1.723 -1.6345  0.7355  0.0840
 2719SOL    MW410924   3.941   4.541   1.710 -0.4160  0.5345 -0.4599
 2720SOL     OW10925   1.458   0.685   3.799 -0.3440 -0.1108 -0.3412
 2720SOL    HW210926   1.456   0.593   3.775  0.3521 -0.1978 -0.0625
 2720SOL    HW310927   1.551   0.705   3.812 -0.3675  0.9410 -1.6287
 2720SOL    MW410928   1.470   0.676   3.797 -0.2553  0.0165 -0.4745
 2721SOL     OW10929   2.759   1.081   1.830  0.6314  0.4765 -0.3685
 2721SOL    HW210930   2.810   1.005   1.857  1.4606  0.9089 -0.6858
 2721SOL    HW310931   2.825   1.145   1.801 -0.0810  1.1079 -0.6160
 2721SOL    MW410932   2.774   1.079   1.829  0.6471  0.6169 -0.4431
 2722SOL     OW10933   3.194   4.035   0.694 -0.7247 -0.5270 -0.3608
 2722SOL    HW210934   3.245   4.083   0.760 -0.8401 -0.1931 -0.5131
 2722SOL    HW310935   3.105   4.035   0.728 -0.9170  0.2637 -0.8616
 2722SOL    MW410936   3.189   4.041   0.707 -0.7656 -0.3781 -0.4469
 2723SOL     OW10937   0.311   3.802   2.248  0.1847  0.1883  0.3862
 2723SOL    HW210938   0.358   3.743   2.188 -0.8337  1.0696 -1.3266
 2723SOL    HW310939   0.362   3.883   2.246 -0.8722  0.8437 -0.7744
 2723SOL    MW410940   0.324   3.805   2.240 -0.0891  0.3910  0.0072
 2724SOL     OW10941   2.164   3.626   1.914 -0.2590  0.1112  0.3010
 2724SOL    HW210942   2.255   3.632   1.943  0.0959 -0.5053 -0.6789
 2724SOL    HW310943   2.115   3.609   1.995  0.5530 -0.0443  0.7671
 2724SOL    MW410944   2.170   3.624   1.929 -0.1049  0.0093  0.2333
 2725SOL     OW10945   1.593   4.255   1.029  0.1465  0.7576  0.7200
 2725SOL    HW210946   1.636   4.321   1.084 -1.2333  1.0921  1.4157
 2725SOL    HW310947   1.539   4.205   1.089  0.0244 -0.0458 -0.0561
 2725SOL    MW410948   1.591   4.257   1.044 -0.0517  0.6957  0.7094
 2726SOL     OW10949   2.982   3.601   4.546  0.0289 -0.5320 -0.3058
 2726SOL    HW210950   3.074   3.625   4.553 -0.9387  3.3671  0.3970
 2726SOL    HW310951   2.935   3.673   4.589 -3.2126 -4.0472  2.4364
 2726SOL    MW410952   2.988   3.614   4.553 -0.5264 -0.4816  0.1478
 2727SOL     OW10953   3.738   4.667   2.704 -0.0234  0.4685  0.2516
 2727SOL    HW210954   3.799   4.622   2.762 -0.8367  0.7737  1.3611
 2727SOL    HW310955   3.651   4.635   2.731 -0.4037  0.4797 -0.9129
 2727SOL    MW410956   3.734   4.657   2.715 -0.1812  0.5102  0.2444
 2728SOL     OW10957   1.220   3.275   2.662  0.2506 -0.0925 -0.1835
 2728SOL    HW210958   1.161   3.281   2.737 -0.2473  0.7685 -0.6377
 2728SOL    HW310959   1.227   3.365   2.630  0.1528 -0.5111 -1.3962
 2728SOL    MW410960   1.213   3.288   2.668  0.1719 -0.0343 -0.4034
 2729SOL     OW10961   1.408   2.561   3.674  0.1887  0.0031 -0.0658
 2729SOL    HW210962   1.335   2.608   3.634  0.3652  0.8761  0.6419
 2729SOL    HW310963   1.374   2.473   3.690 -0.8170  0.5080  0.5892
 2729SOL    MW410964   1.394   2.555   3.671  0.0794  0.1848  0.1135
 2730SOL     OW10965   2.368   3.316   4.466  0.5547 -0.0518  0.7733
 2730SOL    HW210966   2.380   3.256   4.393 -2.5242 -0.7488  0.7929
 2730SOL    HW310967   2.450   3.367   4.469  1.0852 -0.6264 -2.5578
 2730SOL    MW410968   2.381   3.315   4.457  0.2186 -0.2198  0.3366
 2731SOL     OW10969   1.733   1.610   3.245  0.1593  0.1261 -0.3536
 2731SOL    HW210970   1.668   1.545   3.272  1.7350 -0.9680  0.9199
 2731SOL    HW310971   1.716   1.685   3.302  0.8969 -0.6901  0.9752
 2731SOL    MW410972   1.723   1.612   3.256  0.4646 -0.1260 -0.0105
 2732SOL     OW10973   0.776   2.176   3.905 -0.6917  0.4576 -0.1344
 2732SOL    HW210974   0.686   2.158   3.932  0.1219 -1.9230  1.1889
 2732SOL    HW310975   0.788   2.125   3.826  0.0374 -0.6862  0.7049
 2732SOL    MW410976   0.766   2.167   3.898 -0.4882 -0.0072  0.1509
 2733SOL     OW10977   1.999   3.234   1.706 -0.4642 -0.1018  0.2201
 2733SOL    HW210978   2.046   3.174   1.647 -0.1761  0.8554 -0.5342
 2733SOL    HW310979   2.031   3.321   1.682  0.1399  0.2584  2.2354
 2733SOL    MW410980   2.010   3.237   1.695 -0.3464  0.0720  0.3866
 2734SOL     OW10981   2.766   4.413   2.452  0.3558 -0.4901  0.3108
 2734SOL    HW210982   2.758   4.491   2.507  0.3275  0.4047 -0.9408
 2734SOL    HW310983   2.826   4.355   2.500  1.4528  0.8661  0.5978
 2734SOL    MW410984   2.773   4.415   2.466  0.4971 -0.1931  0.1836
 2735SOL     OW10985   2.151   2.315   0.913  0.4968  0.1370 -0.1365
 2735SOL    HW210986   2.215   2.386   0.903  0.5366  0.3788  1.6907
 2735SOL    HW310987   2.077   2.342   0.858  0.9552  1.0742 -0.3093
 2735SOL    MW410988   2.149   2.328   0.904  0.5624  0.2923  0.0818
 2736SOL     OW10989   0.473   3.380   1.707 -0.3091  0.2563 -0.1060
 2736SOL    HW210990   0.471   3.318   1.780 -1.2339  1.0003  0.5109
 2736SOL    HW310991   0.536   3.343   1.646 -0.8205 -1.2723  0.2761
 2736SOL    MW410992   0.481   3.367   1.709 -0.4986  0.1528  0.0259
 2737SOL     OW10993   0.642   4.526   1.009  0.3308 -0.5627  0.1789
 2737SOL    HW210994   0.651   4.486   1.096  1.1933 -1.0684 -0.1277
 2737SOL    HW310995   0.723   4.576   0.998 -1.9428  3.6139  1.6904
 2737SOL    MW410996   0.654   4.527   1.019  0.1447 -0.0777  0.3378
 2738SOL     OW10997   2.444   3.716   2.692  0.2715 -0.3595 -0.0813
 2738SOL    HW210998   2.422   3.804   2.723 -0.9102 -0.7789  0.2864
 2738SOL    HW310999   2.539   3.712   2.698  0.3527  0.9532 -0.2513
 2738SOL    MW411000   2.454   3.727   2.697  0.1264 -0.2415 -0.0553
 2739SOL     OW11001   2.119   4.549   3.356 -0.5252 -0.0929 -0.2892
 2739SOL    HW211002   2.045   4.574   3.410 -1.3753  2.8279 -2.6440
 2739SOL    HW311003   2.189   4.610   3.379  1.2671 -2.8285  1.9272
 2739SOL    MW411004   2.119   4.560   3.366 -0.4008 -0.0687 -0.3076
 2740SOL     OW11005   1.247   3.362   3.163  0.4074  0.3973  0.1634
 2740SOL    HW211006   1.261   3.283   3.215 -0.9384  1.3244  1.9812
 2740SOL    HW311007   1.333   3.382   3.126  1.2171 -0.7035  1.4368
 2740SOL    MW411008   1.260   3.355   3.165  0.3368  0.3746  0.5713
 2741SOL     OW11009   1.680   4.061   0.832 -0.0140  0.7355 -0.3603
 2741SOL    HW211010   1.647   4.133   0.886  0.2080 -0.0147  0.7859
 2741SOL    HW311011   1.663   3.982   0.884  0.9080  0.0805 -1.0395
 2741SOL    MW411012   1.674   4.060   0.846  0.1369  0.5498 -0.2987
 2742SOL     OW11013   0.453   3.042   2.167  0.4045 -0.1399 -0.5327
 2742SOL    HW211014   0.398   2.963   2.164 -0.7806  0.6043  1.1209
 2742SOL    HW311015   0.525   3.018   2.225  1.1408 -0.6801 -1.6607
 2742SOL    MW411016   0.455   3.028   2.174  0.3453 -0.1130 -0.4632
 2743SOL     OW11017   2.865   4.345   4.036 -0.3964 -0.1304 -0.1037
 2743SOL    HW211018   2.841   4.258   4.066 -0.4624 -0.6089 -1.5129
 2743SOL    HW311019   2.790   4.374   3.984  0.2048  0.1905 -0.8034
 2743SOL    MW411020   2.852   4.338   4.033 -0.3257 -0.1512 -0.3819
 2744SOL     OW11021   1.719   0.535   3.332  0.4253 -0.0028 -0.1863
 2744SOL    HW211022   1.806   0.526   3.293  0.5833  2.0141 -0.3818
 2744SOL    HW311023   1.665   0.570   3.261 -0.1472  0.2831  0.3831
 2744SOL    MW411024   1.724   0.538   3.317  0.3707  0.3011 -0.1369
 2745SOL     OW11025   1.870   2.962   2.024  0.2055 -0.2053  0.4172
 2745SOL    HW211026   1.832   2.906   2.091 -0.0169  1.4748  1.7061
 2745SOL    HW311027   1.796   3.009   1.986  0.1964 -1.8455 -1.7190
 2745SOL    MW411028   1.855   2.961   2.028  0.1750 -0.2000  0.3057
 2746SOL     OW11029   1.455   0.840   2.173  0.2326  0.3489  0.0188
 2746SOL    HW211030   1.501   0.815   2.094  0.3300 -0.2833  0.2744
 2746SOL    HW311031   1.405   0.918   2.148 -1.1653 -0.9080 -1.1536
 2746SOL    MW411032   1.454   0.847   2.159  0.0612  0.0996 -0.1020
 2747SOL     OW11033   0.278   0.225   1.185  0.1045  0.4919  0.2752
 2747SOL    HW211034   0.235   0.159   1.239 -0.1109  0.5818  0.2175
 2747SOL    HW311035   0.342   0.267   1.243 -1.7514  2.1883  1.1589
 2747SOL    MW411036   0.281   0.222   1.200 -0.1688  0.7275  0.3841
 2748SOL     OW11037   0.672   2.598   1.012  0.0423 -0.3186  0.0640
 2748SOL    HW211038   0.592   2.594   0.959  1.6374 -2.5240 -2.2979
 2748SOL    HW311039   0.708   2.685   0.997 -0.4019 -0.3457 -1.1634
 2748SOL    MW411040   0.666   2.609   1.003  0.1941 -0.6132 -0.4096
 2749SOL     OW11041   0.225   1.508   2.313 -1.0253  0.2026  0.0358
 2749SOL    HW211042   0.207   1.431   2.367 -0.1725 -2.0112 -2.7405
 2749SOL    HW311043   0.320   1.510   2.305 -1.1139  0.7994 -0.9562
 2749SOL    MW411044   0.235   1.498   2.319 -0.9245 -0.0107 -0.4613
 2750SOL     OW11045   1.499   2.305   4.162  0.3276  0.9213  0.1603
 2750SOL    HW211046   1.415   2.348   4.148  0.0260  0.4121  0.4263
 2750SOL    HW311047   1.479   2.212   4.164  1.1777  0.6485 -1.9417
 2750SOL    MW411048   1.485   2.298   4.160  0.3999  0.8180 -0.0820
 2751SOL     OW11049   0.933   4.527   4.583  0.0560 -0.0270 -0.1393
 2751SOL    HW211050   0.937   4.621   4.596 -1.2288 -0.0040  0.0877
 2751SOL    HW311051   0.977   4.512   4.500 -1.0498  0.9276 -0.9056
 2751SOL    MW411052   0.940   4.537   4.574 -0.2595  0.1020 -0.2112
 2752SOL     OW11053   4.274   3.922   0.904 -0.1655  0.3274  0.4120
 2752SOL    HW211054   4.357   3.899   0.945 -0.1030 -0.0121  0.0967
 2752SOL    HW311055   4.256   3.851   0.842 -1.7121 -0.6411  1.9306
 2752SOL    MW411056   4.282   3.910   0.901 -0.3614  0.1547  0.5708
 2753SOL     OW11057   3.457   1.300   3.532 -0.2831  0.0992 -0.0628
 2753SOL    HW211058   3.419   1.326   3.448 -1.3833 -0.3374  0.3011
 2753SOL    HW311059   3.433   1.371   3.591 -0.5996 -0.2187  0.1874
 2753SOL    MW411060   3.449   1.313   3.528 -0.4699 -0.0004  0.0181
 2754SOL     OW11061   3.457   1.970   4.155 -0.3931  0.3705 -0.1278
 2754SOL    HW211062   3.480   2.055   4.194 -1.1647  0.6231 -0.2066
 2754SOL    HW311063   3.375   1.987   4.110 -0.4810 -0.3976 -0.2512
 2754SOL    MW411064   3.449   1.984   4.154 -0.5062  0.3026 -0.1545
 2755SOL     OW11065   2.419   3.514   2.460 -1.1615 -0.9923  0.4646
 2755SOL    HW211066   2.448   3.426   2.484  0.3430 -0.3617  0.9990
 2755SOL    HW311067   2.409   3.560   2.543  0.0301 -0.0506  0.0994
 2755SOL    MW411068   2.421   3.509   2.474 -0.8059 -0.7849  0.4866
 2756SOL     OW11069   0.534   2.119   4.015  0.1919  0.6021 -0.5537
 2756SOL    HW211070   0.467   2.185   4.000 -0.0990  0.6349  0.8151
 2756SOL    HW311071   0.551   2.123   4.109  1.7595  0.2582 -0.8067
 2756SOL    MW411072   0.528   2.128   4.026  0.3604  0.5612 -0.4063
 2757SOL     OW11073   0.712   2.909   1.856  0.2412  0.5254  0.0551
 2757SOL    HW211074   0.682   2.923   1.766 -0.1023  0.1911  0.1157
 2757SOL    HW311075   0.807   2.921   1.852  0.3019 -0.0692 -0.4720
 2757SOL    MW411076   0.721   2.912   1.844  0.2039  0.4029 -0.0064
 2758SOL     OW11077   3.594   4.542   2.031 -0.1505  0.3802  0.3592
 2758SOL    HW211078   3.641   4.502   1.958 -0.8590  0.5685 -0.2113
 2758SOL    HW311079   3.649   4.616   2.057 -0.7892  1.4560 -1.2231
 2758SOL    MW411080   3.607   4.547   2.025 -0.3283  0.5469  0.0751
 2759SOL     OW11081   0.774   1.488   1.580 -0.3476 -0.2208  0.1702
 2759SOL    HW211082   0.706   1.545   1.615  0.4022 -0.4504  2.0925
 2759SOL    HW311083   0.728   1.410   1.549 -1.2608  0.9408 -1.4496
 2759SOL    MW411084   0.759   1.485   1.581 -0.3693 -0.0979  0.2100
 2760SOL     OW11085   4.174   1.848   1.131 -0.0875  0.0274 -0.1583
 2760SOL    HW211086   4.194   1.898   1.052  0.5424  1.0941  0.6767
 2760SOL    HW311087   4.079   1.834   1.126  0.3627 -2.7040 -2.7278
 2760SOL    MW411088   4.164   1.853   1.120  0.0548 -0.1923 -0.3871
 2761SOL     OW11089   3.755   0.100   2.154  0.2968  0.1258 -0.2325
 2761SOL    HW211090   3.850   0.095   2.154  0.3894  1.6501 -0.0318
 2761SOL    HW311091   3.729   0.062   2.239  0.8694  1.8589  0.7346
 2761SOL    MW411092   3.764   0.094   2.165  0.3846  0.5556 -0.0784
 2762SOL     OW11093   2.315   2.507   3.135 -0.0957 -0.5364  0.3764
 2762SOL    HW211094   2.276   2.545   3.057  1.9742 -0.3502 -0.6028
 2762SOL    HW311095   2.296   2.570   3.204 -0.1066  0.3388 -0.4163
 2762SOL    MW411096   2.307   2.520   3.134  0.1762 -0.3965  0.1426
 2763SOL     OW11097   0.592   2.399   4.222  0.2242 -0.1964 -0.1845
 2763SOL    HW211098   0.680   2.438   4.224  0.0757  0.1243  2.9502
 2763SOL    HW311099   0.538   2.459   4.273 -1.6483 -0.8127 -1.4116
 2763SOL    MW411100   0.597   2.412   4.229 -0.0424 -0.2353  0.0672
 2764SOL     OW11101   0.674   1.216   2.517 -0.1098  0.2714  0.2928
 2764SOL    HW211102   0.652   1.167   2.438 -1.2536  0.1375  0.6896
 2764SOL    HW311103   0.620   1.295   2.512  0.0153  0.3876  0.8081
 2764SOL    MW411104   0.664   1.220   2.506 -0.2443  0.2692  0.4132
 2765SOL     OW11105   3.645   0.059   4.595 -0.1321 -0.4949 -0.5052
 2765SOL    HW211106   3.673   0.034   4.507  0.4772  1.7983 -0.9951
 2765SOL    HW311107   3.554   0.030   4.600 -0.0722 -0.9431 -1.7628
 2765SOL    MW411108   3.637   0.052   4.584 -0.0439 -0.2515 -0.7353
 2766SOL     OW11109   0.961   3.168   3.280 -0.8614 -0.0546  0.2140
 2766SOL    HW211110   0.935   3.250   3.322 -1.7704  0.6746 -1.7066
 2766SOL    HW311111   0.882   3.137   3.236 -0.8917 -2.6765  2.0093
 2766SOL    MW411112   0.947   3.174   3.280 -0.9853 -0.3045  0.1974
 2767SOL     OW11113   1.050   0.504   1.956  0.1989 -0.1264 -0.0782
 2767SOL    HW211114   1.071   0.595   1.932 -0.5347 -0.0730 -0.5333
 2767SOL    HW311115   0.982   0.512   2.022 -0.0400 -0.3555 -0.2965
 2767SOL    MW411116   1.044   0.517   1.962  0.0707 -0.1496 -0.1670
 2768SOL     OW11117   2.085   1.355   1.498 -0.0330  0.2678 -0.0667
 2768SOL    HW211118   2.179   1.371   1.488  0.2397 -0.6468  0.8891
 2768SOL    HW311119   2.053   1.343   1.409  1.0045 -0.6806 -0.3338
 2768SOL    MW411120   2.093   1.355   1.485  0.1400  0.0219  0.0241
 2769SOL     OW11121   0.606   3.263   2.423 -0.0161  0.4395 -0.7953
 2769SOL    HW211122   0.561   3.287   2.342 -0.5267  0.5555 -0.4822
 2769SOL    HW311123   0.592   3.169   2.431 -1.8828  0.7776  0.2972
 2769SOL    MW411124   0.598   3.254   2.413 -0.3297  0.4992 -0.6099
 2770SOL     OW11125   1.141   1.816   1.369 -0.2924  0.2153 -0.1951
 2770SOL    HW211126   1.176   1.896   1.410  1.8123 -0.3429 -0.8634
 2770SOL    HW311127   1.110   1.764   1.443  1.3772  0.2279  0.5550
 2770SOL    MW411128   1.142   1.820   1.384  0.2058  0.1433 -0.1843
 2771SOL     OW11129   2.312   2.175   1.101  0.4745 -0.0998 -0.1140
 2771SOL    HW211130   2.327   2.081   1.112 -0.3611 -0.0329  1.8035
 2771SOL    HW311131   2.258   2.181   1.022  1.4233 -1.1332 -0.8680
 2771SOL    MW411132   2.307   2.163   1.092  0.4892 -0.2275  0.0393
 2772SOL     OW11133   1.547   0.637   0.660 -0.9157 -0.0312  0.3379
 2772SOL    HW211134   1.592   0.636   0.745  1.7790  1.2666 -0.9809
 2772SOL    HW311135   1.592   0.706   0.611 -1.4875 -1.7006 -2.6434
 2772SOL    MW411136   1.559   0.646   0.665 -0.6356 -0.0802 -0.2294
 2773SOL     OW11137   2.913   2.841   2.910  0.2423 -0.3870 -0.6214
 2773SOL    HW211138   2.864   2.770   2.869  0.2057 -0.0379 -1.1905
 2773SOL    HW311139   2.980   2.796   2.962 -0.0701 -0.8465 -0.6096
 2773SOL    MW411140   2.915   2.825   2.911  0.1962 -0.4017 -0.6952
 2774SOL     OW11141   3.353   4.132   2.295 -0.5898 -0.5506 -0.5795
 2774SOL    HW211142   3.384   4.222   2.291 -0.1547 -0.4903  2.4707
 2774SOL    HW311143   3.433   4.079   2.299 -0.6905 -0.5997  3.8459
 2774SOL    MW411144   3.368   4.137   2.295 -0.5457 -0.5493  0.4070
 2775SOL     OW11145   2.398   4.352   3.566  0.0316  0.2227 -0.5619
 2775SOL    HW211146   2.423   4.422   3.626  0.1503  1.4775 -2.0461
 2775SOL    HW311147   2.474   4.341   3.508  0.5499 -2.0976  0.5278
 2775SOL    MW411148   2.411   4.360   3.566  0.1159  0.0825 -0.6142
 2776SOL     OW11149   2.279   1.656   2.000  0.5507  0.0105  0.7634
 2776SOL    HW211150   2.341   1.594   2.039  0.7559 -0.1505  0.1919
 2776SOL    HW311151   2.328   1.737   1.993  1.3193 -0.6270 -1.4470
 2776SOL    MW411152   2.294   1.658   2.004  0.6793 -0.0948  0.3965
 2777SOL     OW11153   0.734   0.728   2.493  0.2139 -0.1360 -0.6410
 2777SOL    HW211154   0.724   0.633   2.505 -0.0912  0.0295  0.4243
 2777SOL    HW311155   0.759   0.737   2.401  2.6021 -1.4273 -0.1761
 2777SOL    MW411156   0.736   0.716   2.482  0.4888 -0.2845 -0.4392
 2778SOL     OW11157   4.279   1.655   2.638 -0.1423  0.0852  0.2643
 2778SOL    HW211158   4.324   1.640   2.555  0.9477  2.1766  0.4301
 2778SOL    HW311159   4.349   1.679   2.699 -1.1483  0.4837  1.2869
 2778SOL    MW411160   4.295   1.656   2.635 -0.1311  0.4137  0.4210
 2779SOL     OW11161   3.226   2.210   1.933  0.9470 -0.5859 -0.0611
 2779SOL    HW211162   3.243   2.135   1.875 -0.3920 -2.1286  1.4835
 2779SOL    HW311163   3.207   2.170   2.018  0.0272  1.5239  0.7468
 2779SOL    MW411164   3.226   2.195   1.936  0.6490 -0.5109  0.2494
 2780SOL     OW11165   0.713   1.932   2.083  0.4391 -0.1940 -0.2819
 2780SOL    HW211166   0.711   2.024   2.056 -0.7526 -0.6196 -1.6618
 2780SOL    HW311167   0.657   1.929   2.160  1.4044  0.4488  0.4582
 2780SOL    MW411168   0.706   1.944   2.090  0.4092 -0.1653 -0.3662
 2781SOL     OW11169   4.043   3.467   0.974  0.5144 -0.4603  0.3992
 2781SOL    HW211170   4.135   3.466   0.946 -0.0134 -1.9386 -1.3829
 2781SOL    HW311171   4.046   3.501   1.063  2.5840  1.3709 -0.3320
 2781SOL    MW411172   4.056   3.471   0.982  0.7176 -0.4139  0.0676
 2782SOL     OW11173   1.887   1.120   1.047  0.0056  0.0683 -0.0962
 2782SOL    HW211174   1.799   1.148   1.022  0.8056  1.1513 -1.7059
 2782SOL    HW311175   1.935   1.112   0.965  1.7656  0.6557  0.8453
 2782SOL    MW411176   1.881   1.122   1.033  0.3434  0.2887 -0.1843
 2783SOL     OW11177   0.253   0.022   1.937  0.3622  0.2214 -0.0199
 2783SOL    HW211178   0.255  -0.009   1.847  0.5237  1.6609 -0.5223
 2783SOL    HW311179   0.171   0.070   1.944 -0.8810 -1.9696  1.3363
 2783SOL    MW411180   0.243   0.024   1.926  0.2195  0.1221  0.0927
 2784SOL     OW11181   0.270   0.548   1.183  0.3010 -0.3667  0.4533
 2784SOL    HW211182   0.253   0.602   1.106  1.2446 -0.6952  0.0036
 2784SOL    HW311183   0.365   0.552   1.195  0.6317 -3.3953 -0.6902
 2784SOL    MW411184   0.280   0.556   1.175  0.4691 -0.8096  0.2432
 2785SOL     OW11185   0.364   1.461   4.390  0.1572  0.1221 -0.3370
 2785SOL    HW211186   0.317   1.379   4.405  3.0308 -1.7784 -1.2797
 2785SOL    HW311187   0.430   1.464   4.459 -0.9385  2.4702  0.6556
 2785SOL    MW411188   0.367   1.451   4.401  0.3918  0.1811 -0.3300
 2786SOL     OW11189   1.078   2.012   3.927  0.1008 -0.3890 -0.5192
 2786SOL    HW211190   1.065   2.091   3.980 -1.7249  0.6738 -2.4531
 2786SOL    HW311191   0.999   1.960   3.942  0.3374 -0.8531 -0.8674
 2786SOL    MW411192   1.066   2.016   3.936 -0.1088 -0.3099 -0.8204
 2787SOL     OW11193   2.311   0.919   3.533 -0.7124  0.2691  0.0227
 2787SOL    HW211194   2.237   0.859   3.525  0.3360 -1.0672  0.1646
 2787SOL    HW311195   2.353   0.917   3.447 -0.2179  0.2013  0.2655
 2787SOL    MW411196   2.307   0.911   3.521 -0.5090  0.0839  0.0734
 2788SOL     OW11197   4.126   1.503   0.886 -0.0062 -0.1307 -0.6159
 2788SOL    HW211198   4.087   1.539   0.966  0.9525 -0.8877  0.2010
 2788SOL    HW311199   4.057   1.447   0.851  0.0273 -0.8141  0.3780
 2788SOL    MW411200   4.112   1.500   0.892  0.1249 -0.3207 -0.3770
 2789SOL     OW11201   4.325   1.604   3.983  0.0605  0.3383  0.4283
 2789SOL    HW211202   4.298   1.517   3.954  0.2385  0.4469 -0.0704
 2789SOL    HW311203   4.279   1.665   3.926 -2.6253  0.7102  2.8561
 2789SOL    MW411204   4.315   1.601   3.972 -0.2708  0.4017  0.6831
 2790SOL     OW11205   1.376   4.474   3.656  0.1356  0.6363 -0.3890
 2790SOL    HW211206   1.401   4.467   3.564  0.1375 -0.2279 -0.3313
 2790SOL    HW311207   1.283   4.451   3.657  0.2535  0.1745 -0.1112
 2790SOL    MW411208   1.367   4.470   3.644  0.1513  0.4616 -0.3450
 2791SOL     OW11209   2.006   2.082   2.824  0.0346  0.0525  0.0778
 2791SOL    HW211210   1.970   2.154   2.772  0.0244  0.8183  1.1333
 2791SOL    HW311211   2.096   2.109   2.842 -0.2177  0.1786  1.1559
 2791SOL    MW411212   2.013   2.095   2.819  0.0000  0.1705  0.3591
 2792SOL     OW11213   3.241   0.903   4.419 -0.0826 -0.2474 -0.4180
 2792SOL    HW211214   3.194   0.876   4.340  0.0525 -1.1375 -0.1942
 2792SOL    HW311215   3.265   0.822   4.462  1.6679  0.1902 -0.5283
 2792SOL    MW411216   3.238   0.889   4.414  0.1662 -0.3070 -0.4034
 2793SOL     OW11217   3.160   4.229   2.933  0.4012  0.1531  0.7896
 2793SOL    HW211218   3.069   4.228   2.905  0.2419  0.9911  1.2601
 2793SOL    HW311219   3.173   4.316   2.971  1.8454  0.6092 -0.7037
 2793SOL    MW411220   3.150   4.240   2.935  0.5705  0.3238  0.6547
 2794SOL     OW11221   4.378   4.082   4.397 -0.5082 -0.0875  0.5263
 2794SOL    HW211222   4.358   4.038   4.314 -0.0284 -0.5112  0.6355
 2794SOL    HW311223   4.371   4.175   4.376 -1.0918 -0.2003  0.1838
 2794SOL    MW411224   4.374   4.088   4.383 -0.5226 -0.1578  0.4954
 2795SOL     OW11225   0.549   0.814   0.930 -0.3351 -0.2690  0.0161
 2795SOL    HW211226   0.454   0.816   0.942 -0.3781  2.0472 -0.5922
 2795SOL    HW311227   0.576   0.905   0.936  1.8082 -0.8569 -0.3132
 2795SOL    MW411228   0.540   0.826   0.933 -0.0581 -0.0409 -0.1076
 2796SOL     OW11229   0.195   4.617   0.932 -0.3716 -0.2411  0.1367
 2796SOL    HW211230   0.192   4.530   0.890  2.4374  0.0531 -0.7749
 2796SOL    HW311231   0.234   4.600   1.018  0.5154  0.1360 -0.1820
 2796SOL    MW411232   0.200   4.603   0.938  0.1160 -0.1526 -0.0256
 2797SOL     OW11233   0.953   3.556   2.081  0.0045 -0.3284  0.0588
 2797SOL    HW211234   0.857   3.558   2.086  0.0777  1.5154  1.1094
 2797SOL    HW311235   0.983   3.591   2.165  1.6014 -0.3509 -0.4754
 2797SOL    MW411236   0.944   3.561   2.093  0.2249 -0.0882  0.1266
 2798SOL     OW11237   0.803   1.982   0.780 -0.3278  0.4495  0.0342
 2798SOL    HW211238   0.752   1.921   0.832  0.8223 -0.7364 -0.2016
 2798SOL    HW311239   0.780   1.962   0.689  0.5431 -0.0999 -0.0743
 2798SOL    MW411240   0.793   1.972   0.775 -0.0613  0.2204 -0.0111
 2799SOL     OW11241   0.209   4.297   0.929  0.2250  0.2111 -0.1965
 2799SOL    HW211242   0.209   4.264   1.019  0.8763 -1.3659 -0.7461
 2799SOL    HW311243   0.128   4.264   0.892 -0.7986  2.1619  0.2431
 2799SOL    MW411244   0.199   4.288   0.936  0.1759  0.2608 -0.2111
 2800SOL     OW11245   0.248   4.491   4.065  0.1767  0.3468 -0.0186
 2800SOL    HW211246   0.223   4.411   4.019 -0.7633  0.4626  0.2783
 2800SOL    HW311247   0.342   4.483   4.078  0.0171 -0.9440  0.4420
 2800SOL    MW411248   0.257   4.480   4.061  0.0317  0.1917  0.0815
 2801SOL     OW11249   2.908   2.118   2.592 -0.4108 -0.4096 -0.1688
 2801SOL    HW211250   2.995   2.112   2.631 -0.7021 -1.7041  0.3068
 2801SOL    HW311251   2.909   2.201   2.544  0.2838  0.7765  1.8156
 2801SOL    MW411252   2.919   2.128   2.591 -0.3576 -0.4237  0.1559
 2802SOL     OW11253   3.529   1.680   1.811  0.0020  0.4780  0.1732
 2802SOL    HW211254   3.534   1.718   1.899  0.8781  1.4580 -0.2937
 2802SOL    HW311255   3.605   1.622   1.805 -0.2129  0.1929  0.1516
 2802SOL    MW411256   3.540   1.677   1.822  0.0892  0.5696  0.1088
 2803SOL     OW11257   2.995   4.145   4.315 -0.3933 -0.4858 -0.2178
 2803SOL    HW211258   3.051   4.073   4.286 -0.6964 -1.3144  1.2496
 2803SOL    HW311259   2.967   4.121   4.403  1.0396  2.3061  1.0713
 2803SOL    MW411260   2.999   4.133   4.323 -0.2444 -0.2265  0.1464
 2804SOL     OW11261   3.348   3.080   3.572  0.2148 -0.3575 -0.3365
 2804SOL    HW211262   3.335   2.995   3.615  1.5599  0.3706  1.5760
 2804SOL    HW311263   3.275   3.087   3.511 -1.0314 -2.0325  0.9015
 2804SOL    MW411264   3.336   3.069   3.570  0.2277 -0.4826  0.0794
 2805SOL     OW11265   0.112   3.088   0.912 -1.1934 -0.7999 -0.7951
 2805SOL    HW211266   0.146   3.027   0.846  1.8105  1.7451 -1.7131
 2805SOL    HW311267   0.023   3.057   0.929 -0.5267 -4.1221 -2.8135
 2805SOL    MW411268   0.105   3.076   0.906 -0.7091 -0.9022 -1.1825
 2806SOL     OW11269   3.003   2.402   0.641 -0.1964  0.1887 -0.1645
 2806SOL    HW211270   2.954   2.320   0.637  1.7120 -0.9897 -0.3563
 2806SOL    HW311271   3.069   2.387   0.709  1.1880  0.9766 -1.2974
 2806SOL    MW411272   3.005   2.389   0.650  0.2379  0.1373 -0.3393
 2807SOL     OW11273   3.454   0.600   2.473  0.4547  0.0397  0.2205
 2807SOL    HW211274   3.407   0.658   2.534  0.3029 -0.6723  0.7988
 2807SOL    HW311275   3.505   0.658   2.418  0.3002  0.7249  0.7952
 2807SOL    MW411276   3.454   0.615   2.474  0.4141  0.0362  0.3724
 2808SOL     OW11277   1.164   3.095   4.513  0.1719 -0.1250 -0.4856
 2808SOL    HW211278   1.094   3.065   4.455  0.6242  0.9579 -1.6146
 2808SOL    HW311279   1.122   3.157   4.572  0.4124  1.5714 -2.0396
 2808SOL    MW411280   1.149   3.099   4.513  0.2633  0.2415 -0.8397
 2809SOL     OW11281   2.738   1.918   3.158 -0.1805  0.1484 -0.1601
 2809SOL    HW211282   2.654   1.961   3.171 -0.6777 -0.7074 -0.5302
 2809SOL    HW311283   2.771   1.952   3.075 -0.1465  0.4865 -0.0122
 2809SOL    MW411284   2.732   1.928   3.149 -0.2418  0.0800 -0.1893
 2810SOL     OW11285   1.848   0.038   2.759  0.2004  0.2829  0.3607
 2810SOL    HW211286   1.904  -0.034   2.788  1.1304  0.9801  0.3195
 2810SOL    HW311287   1.787   0.052   2.832  0.7268  0.1745  0.8226
 2810SOL    MW411288   1.847   0.031   2.773  0.3927  0.3605  0.4160
 2811SOL     OW11289   2.219   2.807   2.133  0.2989  0.0153 -0.3985
 2811SOL    HW211290   2.309   2.774   2.139  0.3110  0.3300  1.3563
 2811SOL    HW311291   2.180   2.757   2.061  2.1398  0.4959 -1.7752
 2811SOL    MW411292   2.226   2.796   2.124  0.5434  0.1202 -0.3486
 2812SOL     OW11293   1.339   3.926   1.173 -0.4482  0.2514  0.3489
 2812SOL    HW211294   1.316   3.875   1.250 -3.3623  0.1103 -0.5321
 2812SOL    HW311295   1.330   4.018   1.201  0.3071  0.2211  0.6856
 2812SOL    MW411296   1.335   3.932   1.187 -0.7330  0.2286  0.2770
 2813SOL     OW11297   1.202   1.920   0.500  0.0689 -0.6962 -0.6498
 2813SOL    HW211298   1.154   1.839   0.519  0.1955 -1.1198 -2.0430
 2813SOL    HW311299   1.289   1.906   0.538 -0.7435 -0.1058  1.4943
 2813SOL    MW411300   1.207   1.907   0.507 -0.0216 -0.6742 -0.5506
 2814SOL     OW11301   3.653   1.229   2.296 -0.9825  0.3337  0.1187
 2814SOL    HW211302   3.735   1.265   2.330 -0.5234 -0.4912 -0.1191
 2814SOL    HW311303   3.592   1.237   2.370 -0.3188 -0.3234  0.7436
 2814SOL    MW411304   3.656   1.235   2.311 -0.8347  0.1380  0.1700
 2815SOL     OW11305   2.836   1.925   2.893  0.0503 -0.1420 -0.0923
 2815SOL    HW211306   2.913   1.880   2.856  0.1213  0.1942 -0.3580
 2815SOL    HW311307   2.762   1.891   2.842 -0.1256 -1.3010  0.8985
 2815SOL    MW411308   2.837   1.914   2.881  0.0365 -0.2507  0.0033
 2816SOL     OW11309   3.937   2.059   1.367  0.1428  0.1088  0.2093
 2816SOL    HW211310   3.862   2.116   1.382 -0.1154 -0.3184  0.5787
 2816SOL    HW311311   4.011   2.118   1.355  0.2524  0.5135  2.5754
 2816SOL    MW411312   3.937   2.074   1.367  0.1230  0.1059  0.5701
 2817SOL     OW11313   0.091   3.496   3.126  0.7424  0.4860  0.2874
 2817SOL    HW211314   0.101   3.404   3.150  0.0734 -0.0429 -1.4019
 2817SOL    HW311315   0.168   3.516   3.073  0.3714  0.5931 -0.2195
 2817SOL    MW411316   0.102   3.487   3.122  0.6052  0.4301 -0.0024
 2818SOL     OW11317   2.531   2.723   4.014  0.5713  0.2038  0.8547
 2818SOL    HW211318   2.559   2.636   3.989  0.6009  0.3073  0.5220
 2818SOL    HW311319   2.494   2.760   3.934  0.0172  0.2796  1.1417
 2818SOL    MW411320   2.530   2.717   4.000  0.5026  0.2275  0.8490
 2819SOL     OW11321   2.020   4.176   1.355  0.0552 -0.3280  0.3985
 2819SOL    HW211322   2.093   4.164   1.415  0.5825 -1.4814 -0.4622
 2819SOL    HW311323   2.036   4.114   1.284 -1.3069  0.0127 -0.2303
 2819SOL    MW411324   2.032   4.166   1.353 -0.0551 -0.4354  0.2019
 2820SOL     OW11325   4.065   3.484   1.695  0.2027 -0.4114  0.3437
 2820SOL    HW211326   4.112   3.538   1.759  0.3795 -0.4768  0.2682
 2820SOL    HW311327   4.054   3.400   1.739 -0.1936 -0.2734  0.5145
 2820SOL    MW411328   4.070   3.480   1.710  0.1736 -0.4020  0.3562
 2821SOL     OW11329   2.815   0.570   3.427  0.5164  0.2975  0.8938
 2821SOL    HW211330   2.878   0.594   3.359 -0.0044 -2.3704 -0.6003
 2821SOL    HW311331   2.805   0.649   3.480  0.2348  2.7153 -2.6592
 2821SOL    MW411332   2.822   0.583   3.425  0.4106  0.2645  0.2279
 2822SOL     OW11333   0.499   3.332   3.673  0.2134  0.6578  0.4545
 2822SOL    HW211334   0.540   3.247   3.660  1.4005  1.3579 -0.5827
 2822SOL    HW311335   0.549   3.372   3.744  1.0873  1.3435 -0.5248
 2822SOL    MW411336   0.511   3.326   3.681  0.4853  0.8407  0.1886
 2823SOL     OW11337   1.364   0.562   2.684  0.2296  0.1174 -0.2196
 2823SOL    HW211338   1.332   0.482   2.726  1.8969 -0.4219  0.0449
 2823SOL    HW311339   1.321   0.633   2.733  0.2358 -0.5634  0.7951
 2823SOL    MW411340   1.354   0.561   2.696  0.4504 -0.0436 -0.0510
 2824SOL     OW11341   1.582   2.685   4.443 -0.1907  0.0231 -0.1253
 2824SOL    HW211342   1.599   2.596   4.473  0.4312 -0.0677 -0.7248
 2824SOL    HW311343   1.663   2.732   4.463 -1.0957  0.8643  1.6784
 2824SOL    MW411344   1.595   2.679   4.450 -0.2280  0.1221  0.0339
 2825SOL     OW11345   3.011   3.143   2.313 -0.6737 -0.2336  0.2112
 2825SOL    HW211346   2.957   3.069   2.284  1.1923 -0.1099 -4.0574
 2825SOL    HW311347   2.974   3.218   2.267  0.9896  0.4423 -0.0527
 2825SOL    MW411348   2.999   3.143   2.303 -0.2081 -0.1280 -0.3867
 2826SOL     OW11349   0.704   3.125   2.015  0.3008  0.8792 -0.7757
 2826SOL    HW211350   0.693   3.042   1.968  0.4889  0.1071  0.5252
 2826SOL    HW311351   0.632   3.126   2.078  1.6364  0.6068  0.7897
 2826SOL    MW411352   0.693   3.114   2.017  0.5018  0.7415 -0.3972
 2827SOL     OW11353   1.400   2.371   2.212  0.3795 -0.0758  0.2137
 2827SOL    HW211354   1.444   2.288   2.188 -0.2967 -0.3299 -0.1646
 2827SOL    HW311355   1.307   2.352   2.204  0.2402  1.1410 -1.3006
 2827SOL    MW411356   1.394   2.357   2.207  0.2720  0.0513 -0.0358
 2828SOL     OW11357   1.618   4.001   2.016  0.0637 -0.1806  0.2824
 2828SOL    HW211358   1.627   4.081   1.965 -0.1446 -0.8883 -0.8743
 2828SOL    HW311359   1.575   3.939   1.958  1.0075 -1.4160  0.8527
 2828SOL    MW411360   1.614   4.004   2.002  0.1608 -0.4373  0.2050
 2829SOL     OW11361   1.363   3.080   4.709  0.2507 -0.5613 -0.0089
 2829SOL    HW211362   1.306   3.068   4.633  1.0823 -3.0561 -0.2820
 2829SOL    HW311363   1.445   3.115   4.673 -0.1172  0.3331  0.0219
 2829SOL    MW411364   1.366   3.083   4.694  0.3117 -0.7722 -0.0401
 2830SOL     OW11365   2.582   3.074   3.713  0.4024 -0.5816 -0.4575
 2830SOL    HW211366   2.507   3.022   3.682  0.3224 -0.7782  0.0715
 2830SOL    HW311367   2.542   3.148   3.758  0.5323 -0.9493  0.2598
 2830SOL    MW411368   2.567   3.077   3.715  0.4089 -0.6561 -0.2930
 2831SOL     OW11369   2.342   1.981   0.469 -0.1844  0.2514  0.2322
 2831SOL    HW211370   2.254   1.966   0.436  0.2089 -0.6720 -0.4272
 2831SOL    HW311371   2.357   1.911   0.532  0.5585 -0.3930 -0.6444
 2831SOL    MW411372   2.333   1.970   0.473 -0.0346  0.0446  0.0296
 2832SOL     OW11373   0.831   4.162   2.182 -0.2949 -0.2163  0.7130
 2832SOL    HW211374   0.785   4.235   2.225  1.2818  1.0116  0.3591
 2832SOL    HW311375   0.920   4.166   2.217  0.4428 -0.4992 -1.0696
 2832SOL    MW411376   0.837   4.172   2.192  0.0105 -0.0916  0.4311
 2833SOL     OW11377   2.499   2.059   3.148  0.1487  0.0235 -0.2661
 2833SOL    HW211378   2.560   2.125   3.115  0.4730 -0.0232  0.2312
 2833SOL    HW311379   2.454   2.103   3.221  2.2900 -1.1570  1.8521
 2833SOL    MW411380   2.501   2.074   3.153  0.4742 -0.1383  0.0789
 2834SOL     OW11381   0.239   1.212   3.361  0.2783 -0.2245  0.1556
 2834SOL    HW211382   0.194   1.264   3.294 -2.5503 -0.8222  1.5129
 2834SOL    HW311383   0.235   1.266   3.440 -0.3425 -1.3643  0.9231
 2834SOL    MW411384   0.232   1.226   3.363 -0.1768 -0.4538  0.4356
 2835SOL     OW11385   1.193   4.588   1.086 -0.1372 -0.4000 -0.1272
 2835SOL    HW211386   1.203   4.580   0.991 -3.3294  1.1511 -0.6451
 2835SOL    HW311387   1.170   4.500   1.115 -0.9334 -0.5067 -1.0553
 2835SOL    MW411388   1.191   4.575   1.077 -0.6633 -0.2093 -0.3179
 2836SOL     OW11389   0.039   0.937   1.006 -0.2043  0.1439  0.0117
 2836SOL    HW211390   0.007   0.905   1.090  0.0518 -0.5449 -0.1431
 2836SOL    HW311391  -0.023   0.902   0.942 -0.2215  0.4026 -0.1133
 2836SOL    MW411392   0.026   0.928   1.008 -0.1728  0.0871 -0.0252
 2837SOL     OW11393   3.844   1.937   4.202 -1.0197 -0.1098  0.0249
 2837SOL    HW211394   3.809   1.927   4.114 -2.2664 -1.5255  0.6423
 2837SOL    HW311395   3.908   1.866   4.210 -1.1912 -0.2280  0.3733
 2837SOL    MW411396   3.847   1.926   4.192 -1.2069 -0.3122  0.1521
 2838SOL     OW11397   1.697   0.886   0.599 -0.4382 -0.1174  0.2495
 2838SOL    HW211398   1.698   0.969   0.551 -0.3863  0.5797  1.4318
 2838SOL    HW311399   1.715   0.911   0.690  0.8350 -1.5642  0.4162
 2838SOL    MW411400   1.700   0.900   0.604 -0.2633 -0.2163  0.4274
 2839SOL     OW11401   1.068   3.269   2.904  0.3586  0.1684 -0.1560
 2839SOL    HW211402   0.975   3.275   2.884 -0.1855  0.0010  2.2216
 2839SOL    HW311403   1.077   3.312   2.989  2.0550 -1.8703  0.7410
 2839SOL    MW411404   1.057   3.276   2.913  0.5107 -0.1225  0.2763
 2840SOL     OW11405   4.363   2.937   3.703 -0.1284 -0.0506 -0.0904
 2840SOL    HW211406   4.298   2.954   3.634  0.1501  1.1947 -0.0676
 2840SOL    HW311407   4.340   2.851   3.737 -2.6355  0.9123  0.8284
 2840SOL    MW411408   4.351   2.928   3.698 -0.4225  0.2406  0.0336
 2841SOL     OW11409   1.465   3.719   3.588 -0.6616  0.1897 -0.1684
 2841SOL    HW211410   1.468   3.661   3.664 -0.2799  0.0425 -0.2980
 2841SOL    HW311411   1.372   3.723   3.565 -0.6472 -0.6879 -0.4044
 2841SOL    MW411412   1.453   3.712   3.595 -0.6093  0.0546 -0.2170
 2842SOL     OW11413   0.564   1.781   2.707  0.1861 -0.1759  0.0040
 2842SOL    HW211414   0.500   1.719   2.742 -0.8815  0.8955 -0.0283
 2842SOL    HW311415   0.593   1.832   2.783 -0.1722  0.3853 -0.2302
 2842SOL    MW411416   0.559   1.780   2.722 -0.0020  0.0396 -0.0315
 2843SOL     OW11417   1.623   0.092   4.682 -0.2120  0.1239 -0.4083
 2843SOL    HW211418   1.585   0.110   4.768 -2.2037  1.7851 -1.5724
 2843SOL    HW311419   1.580   0.012   4.654 -1.7288  1.1283 -1.0335
 2843SOL    MW411420   1.612   0.084   4.690 -0.6750  0.4756 -0.6442
 2844SOL     OW11421   3.613   3.217   3.565  0.1813 -0.6518 -0.4563
 2844SOL    HW211422   3.676   3.151   3.594 -0.0758 -0.1018  1.4298
 2844SOL    HW311423   3.531   3.169   3.553  0.3733 -0.9439 -0.5978
 2844SOL    MW411424   3.611   3.202   3.567  0.1726 -0.6177 -0.2260
 2845SOL     OW11425   1.156   3.951   3.737  0.4889  0.3525  0.0015
 2845SOL    HW211426   1.235   4.003   3.756  0.2106  0.7620  0.0469
 2845SOL    HW311427   1.127   3.919   3.823  0.0729  0.9802  0.0989
 2845SOL    MW411428   1.163   3.954   3.751  0.3974  0.4892  0.0203
 2846SOL     OW11429   0.784   3.031   2.862 -0.0822 -0.1958  0.3367
 2846SOL    HW211430   0.704   3.075   2.833  1.0966  0.5370 -1.8708
 2846SOL    HW311431   0.854   3.074   2.814  1.5707 -1.4702  1.5484
 2846SOL    MW411432   0.783   3.042   2.852  0.2914 -0.2673  0.2055
 2847SOL     OW11433   0.212   4.069   3.205 -0.3425  0.1792 -0.0299
 2847SOL    HW211434   0.165   4.007   3.261  0.8800 -0.0162  0.7924
 2847SOL    HW311435   0.145   4.134   3.182 -1.1882 -0.4472  0.5902
 2847SOL    MW411436   0.197   4.069   3.210 -0.2928  0.0706  0.1605
 2848SOL     OW11437   3.040   1.773   3.164 -1.2761  0.1733 -0.6185
 2848SOL    HW211438   2.998   1.703   3.215  1.8337 -1.1470  0.2448
 2848SOL    HW311439   3.046   1.737   3.075  0.7882 -0.9718 -0.0695
 2848SOL    MW411440   3.035   1.759   3.159 -0.5934 -0.1520 -0.4323
 2849SOL     OW11441   2.422   1.523   0.513  0.2861 -0.4461 -0.0659
 2849SOL    HW211442   2.508   1.555   0.539 -0.5931 -0.1914  2.6280
 2849SOL    HW311443   2.424   1.429   0.533 -0.0872 -0.4276  0.0635
 2849SOL    MW411444   2.434   1.515   0.519  0.1204 -0.4101  0.3065
 2850SOL     OW11445   3.474   2.680   4.617 -0.6156 -0.0819  0.1850
 2850SOL    HW211446   3.505   2.590   4.631  0.1029  0.1352 -0.0082
 2850SOL    HW311447   3.379   2.671   4.609 -0.8865 -0.4657  3.2894
 2850SOL    MW411448   3.466   2.667   4.618 -0.5565 -0.1040  0.5689
 2851SOL     OW11449   2.314   2.906   1.355  0.8722  0.0524 -0.0329
 2851SOL    HW211450   2.339   2.973   1.420  1.5019 -0.0331 -0.1839
 2851SOL    HW311451   2.354   2.825   1.388  0.5981 -0.1379 -0.1617
 2851SOL    MW411452   2.323   2.904   1.368  0.9193  0.0160 -0.0697
 2852SOL     OW11453   4.155   4.438   3.932 -0.4758  0.5412  0.6994
 2852SOL    HW211454   4.111   4.438   3.848  0.6531  2.2032  0.0756
 2852SOL    HW311455   4.178   4.530   3.948  2.4743 -0.2009  1.1193
 2852SOL    MW411456   4.153   4.450   3.923  0.0620  0.6628  0.6723
 2853SOL     OW11457   3.590   3.005   3.892 -0.1253  0.0177 -0.1131
 2853SOL    HW211458   3.500   2.981   3.870  0.0663  0.3039 -1.2550
 2853SOL    HW311459   3.628   2.925   3.929 -1.0066  0.0542  0.8960
 2853SOL    MW411460   3.583   2.991   3.894 -0.2165  0.0603 -0.1304
 2854SOL     OW11461   0.292   4.276   3.587 -0.2152 -0.5736 -0.4643
 2854SOL    HW211462   0.337   4.203   3.546  0.1455 -0.6901  0.1330
 2854SOL    HW311463   0.283   4.341   3.517  1.0519 -0.4719 -0.5464
 2854SOL    MW411464   0.297   4.275   3.572 -0.0004 -0.5755 -0.3963
 2855SOL     OW11465   0.731   3.965   4.170 -0.0036  0.2494  0.5000
 2855SOL    HW211466   0.780   4.040   4.203  1.6459 -0.8646  0.7001
 2855SOL    HW311467   0.645   3.972   4.211  1.0486  0.4948  2.8042
 2855SOL    MW411468   0.726   3.976   4.180  0.3529  0.1345  0.8302
 2856SOL     OW11469   0.577   1.907   1.825 -0.0004  0.0430 -0.2224
 2856SOL    HW211470   0.608   1.977   1.767 -1.8022  0.6915 -0.4290
 2856SOL    HW311471   0.651   1.890   1.884  1.0380  0.9633 -1.2395
 2856SOL    MW411472   0.591   1.914   1.825 -0.1012  0.2500 -0.3839
 2857SOL     OW11473   1.004   3.303   3.627  0.1548  0.0649  0.3368
 2857SOL    HW211474   0.970   3.331   3.712 -1.1899  0.6024 -0.3579
 2857SOL    HW311475   1.071   3.368   3.604  0.2502  0.1293  0.8069
 2857SOL    MW411476   1.008   3.315   3.635 -0.0100  0.1442  0.3073
 2858SOL     OW11477   0.871   0.679   2.961 -0.2746 -0.0907  0.0670
 2858SOL    HW211478   0.936   0.681   2.891 -0.3075 -1.6790 -0.0260
 2858SOL    HW311479   0.834   0.591   2.957 -2.3480  0.7458  0.2177
 2858SOL    MW411480   0.875   0.668   2.951 -0.5525 -0.1899  0.0746
 2859SOL     OW11481   3.191   3.123   0.886  0.9128  0.0379  0.0267
 2859SOL    HW211482   3.252   3.184   0.929 -0.3048  1.4792 -0.2177
 2859SOL    HW311483   3.105   3.166   0.894  0.0066 -1.6934 -0.1034
 2859SOL    MW411484   3.187   3.137   0.893  0.6328 -0.0002 -0.0227
 2860SOL     OW11485   2.545   2.475   2.041 -0.2313 -0.3342  0.1497
 2860SOL    HW211486   2.629   2.458   2.084 -0.1020 -0.3394 -0.1040
 2860SOL    HW311487   2.557   2.444   1.951 -0.7210 -0.9401  0.2912
 2860SOL    MW411488   2.558   2.469   2.035 -0.2789 -0.4148  0.1347
 2861SOL     OW11489   3.298   1.555   0.412 -0.6915 -0.2401 -0.2064
 2861SOL    HW211490   3.252   1.526   0.491 -1.5447 -0.0697 -0.6332
 2861SOL    HW311491   3.229   1.564   0.346 -0.1621  0.8272 -0.6267
 2861SOL    MW411492   3.283   1.552   0.414 -0.7343 -0.0768 -0.3182
 2862SOL     OW11493   2.235   0.862   1.240  0.3899  0.2059 -0.1955
 2862SOL    HW211494   2.307   0.923   1.257  0.9205 -0.7222  0.8972
 2862SOL    HW311495   2.164   0.892   1.296  0.0306  0.9033 -1.0073
 2862SOL    MW411496   2.235   0.874   1.249  0.4125  0.1755 -0.1584
 2863SOL     OW11497   1.962   0.774   0.618  0.5554 -0.0848  0.1996
 2863SOL    HW211498   1.874   0.811   0.607  0.4031 -0.4801  0.0637
 2863SOL    HW311499   2.017   0.826   0.560  0.0401 -1.1325 -1.2535
 2863SOL    MW411500   1.958   0.785   0.609  0.4674 -0.2752 -0.0101
 2864SOL     OW11501   3.492   0.216   3.671  0.1815 -0.0912 -0.5642
 2864SOL    HW211502   3.524   0.128   3.652  0.2819 -0.0349 -0.6545
 2864SOL    HW311503   3.400   0.204   3.694  0.1474 -0.1980 -0.7553
 2864SOL    MW411504   3.484   0.203   3.672  0.1905 -0.0979 -0.6015
 2865SOL     OW11505   3.210   4.495   3.061  0.0281  0.0815  0.4882
 2865SOL    HW211506   3.213   4.454   3.147  0.0664  1.6005  1.2301
 2865SOL    HW311507   3.273   4.568   3.066  0.1486  0.0955 -0.8710
 2865SOL    MW411508   3.219   4.500   3.073  0.0494  0.2837  0.4063
 2866SOL     OW11509   3.086   3.462   2.773  0.2611 -0.1063 -0.0180
 2866SOL    HW211510   3.125   3.441   2.688  0.4413  1.7153 -0.4054
 2866SOL    HW311511   3.152   3.514   2.818 -0.3647  0.0756  0.6969
 2866SOL    MW411512   3.100   3.466   2.768  0.2022  0.1581  0.0250
 2867SOL     OW11513   4.058   0.453   4.060 -0.1588 -0.6236 -0.3013
 2867SOL    HW211514   4.110   0.414   4.131  2.3055  2.1140 -0.5042
 2867SOL    HW311515   3.974   0.474   4.101  0.3168 -1.4329  1.1442
 2867SOL    MW411516   4.054   0.451   4.075  0.2294 -0.3692 -0.1373
 2868SOL     OW11517   0.471   3.167   3.075 -0.0892  0.0152 -0.3064
 2868SOL    HW211518   0.470   3.121   2.991  4.0522 -0.4581 -0.2148
 2868SOL    HW311519   0.409   3.119   3.130 -1.9407 -0.4057 -2.6839
 2868SOL    MW411520   0.463   3.155   3.071  0.2129 -0.1030 -0.6080
 2869SOL     OW11521   4.305   1.648   0.718 -0.2005 -0.4406  0.3673
 2869SOL    HW211522   4.379   1.588   0.707 -1.6376 -1.9163 -1.9310
 2869SOL    HW311523   4.236   1.594   0.757 -0.3042  0.7371  1.8465
 2869SOL    MW411524   4.305   1.633   0.722 -0.4039 -0.4799  0.2592
 2870SOL     OW11525   0.020   0.124   3.742 -0.1545  0.2484 -0.1046
 2870SOL    HW211526   0.063   0.099   3.824  1.3714 -0.3263 -1.0509
 2870SOL    HW311527   0.090   0.119   3.677 -0.8129  2.9161 -1.0571
 2870SOL    MW411528   0.035   0.120   3.744 -0.0401  0.5245 -0.3555
 2871SOL     OW11529   0.457   0.500   4.490  0.1550 -0.3286  0.2735
 2871SOL    HW211530   0.447   0.456   4.406  2.9238  0.5837 -0.5732
 2871SOL    HW311531   0.474   0.592   4.467  0.0735  0.1006  1.8571
 2871SOL    MW411532   0.458   0.507   4.476  0.5095 -0.1516  0.3710
 2872SOL     OW11533   4.125   2.880   4.040  0.0387 -0.4530 -0.3421
 2872SOL    HW211534   4.145   2.942   4.110  0.1423 -0.2018 -0.5988
 2872SOL    HW311535   4.205   2.829   4.029  0.1310 -0.2644 -0.5200
 2872SOL    MW411536   4.138   2.881   4.048  0.0648 -0.3948 -0.3996
 2873SOL     OW11537   4.000   2.478   0.807 -0.1232 -0.0924 -0.1447
 2873SOL    HW211538   3.935   2.492   0.738  0.4482 -0.7472 -0.8220
 2873SOL    HW311539   4.041   2.394   0.785  0.1164 -0.2718  0.9491
 2873SOL    MW411540   3.996   2.469   0.795 -0.0162 -0.2024 -0.0898
 2874SOL     OW11541   0.354   1.433   3.863  0.0093 -0.2494 -0.0362
 2874SOL    HW211542   0.282   1.495   3.873  0.5022  0.7208 -2.1391
 2874SOL    HW311543   0.432   1.483   3.887  0.3845 -0.1167 -1.5133
 2874SOL    MW411544   0.355   1.448   3.868  0.1238 -0.1038 -0.5088
 2875SOL     OW11545   0.976   2.815   2.932  0.1471  0.6735  0.6831
 2875SOL    HW211546   0.906   2.881   2.931 -0.8912 -0.4188  1.1316
 2875SOL    HW311547   1.043   2.853   2.989 -1.0595  0.7274  2.0913
 2875SOL    MW411548   0.975   2.829   2.940 -0.1491  0.5364  0.9279
 2876SOL     OW11549   4.263   3.047   1.611  0.4641  0.2592 -0.0048
 2876SOL    HW211550   4.176   3.070   1.577  0.2708 -2.7331 -1.7358
 2876SOL    HW311551   4.323   3.074   1.542  0.5378 -1.1737 -0.5149
 2876SOL    MW411552   4.259   3.054   1.597  0.4482 -0.3247 -0.3006
 2877SOL     OW11553   2.086   0.697   2.676  0.0292 -0.3277 -0.1983
 2877SOL    HW211554   2.038   0.750   2.613  1.4411 -0.0355 -1.0478
 2877SOL    HW311555   2.041   0.713   2.759 -1.8547 -0.7428 -1.1087
 2877SOL    MW411556   2.074   0.706   2.679 -0.0329 -0.3439 -0.4306
 2878SOL     OW11557   3.294   1.997   1.762  0.2357 -0.2457 -0.6704
 2878SOL    HW211558   3.238   1.928   1.797 -0.6348  1.0833  0.6253
 2878SOL    HW311559   3.243   2.036   1.691 -0.2457  0.5756  0.1201
 2878SOL    MW411560   3.280   1.993   1.757  0.0577  0.0380 -0.3952
 2879SOL     OW11561   4.178   2.296   2.415  0.3586  0.1651 -0.1067
 2879SOL    HW211562   4.088   2.269   2.428  1.0349 -1.6178  0.9672
 2879SOL    HW311563   4.179   2.389   2.440 -1.0284  0.0491  0.4268
 2879SOL    MW411564   4.166   2.305   2.420  0.2651 -0.0854  0.1056
 2880SOL     OW11565   0.758   0.329   2.309  0.5663  0.4406  0.1374
 2880SOL    HW211566   0.677   0.346   2.358 -1.2860 -0.4813 -2.5229
 2880SOL    HW311567   0.777   0.411   2.264  3.0237  1.7327  3.2698
 2880SOL    MW411568   0.750   0.342   2.310  0.6462  0.4894  0.1998
 2881SOL     OW11569   0.014   2.865   4.527 -0.0198  0.1733 -0.2020
 2881SOL    HW211570   0.008   2.841   4.620  1.6632 -1.4329 -0.4633
 2881SOL    HW311571   0.004   2.782   4.480 -0.0921  0.8643 -1.4362
 2881SOL    MW411572   0.012   2.851   4.533  0.1927  0.0525 -0.3991
 2882SOL     OW11573   1.718   3.364   0.957  0.3122 -0.0971 -0.5693
 2882SOL    HW211574   1.623   3.371   0.969  0.3830  2.3532 -1.1716
 2882SOL    HW311575   1.734   3.270   0.952 -2.3606 -0.5281 -2.3541
 2882SOL    MW411576   1.708   3.352   0.958 -0.0311  0.1695 -0.8842
 2883SOL     OW11577   4.349   3.831   1.994  0.3596  0.8877 -0.3360
 2883SOL    HW211578   4.405   3.768   2.038 -0.8096 -0.0946 -0.2231
 2883SOL    HW311579   4.408   3.902   1.968  1.3134  0.7863  1.4789
 2883SOL    MW411580   4.364   3.832   1.997  0.3309  0.7448 -0.0817
 2884SOL     OW11581   0.937   4.195   2.545 -0.6168 -0.2921 -0.0079
 2884SOL    HW211582   0.947   4.120   2.603  0.1903 -1.1510 -1.2202
 2884SOL    HW311583   0.852   4.179   2.502 -0.4816 -0.4785 -0.2086
 2884SOL    MW411584   0.927   4.183   2.547 -0.4926 -0.4306 -0.1943
 2885NA      NA11585   1.017   0.351   1.763 -0.1379  0.0910  0.0344
   4.49070   4.66690  10.00000
