Gromacs Runs On Most of All Computer Systems in water
11558
    1RG35     P    1   3.046   2.536   4.420 -0.0581 -0.2049  0.1227
    1RG35   O1P    2   2.971   2.636   4.494 -0.2358  0.3680  0.2453
    1RG35   O2P    3   3.185   2.532   4.461 -0.0579 -0.3656 -0.0721
    1RG35   O5'    4   2.980   2.400   4.461 -0.2733  0.2366 -0.1474
    1RG35   C5'    5   3.043   2.281   4.435  0.0707  0.7970  0.1618
    1RG35  H5'1    6   3.112   2.252   4.515  0.1695 -3.3737 -1.3081
    1RG35  H5'2    7   3.098   2.299   4.343 -0.6441  0.9845 -0.2315
    1RG35   C4'    8   2.942   2.166   4.415 -0.6319 -0.3391  0.5649
    1RG35   H4'    9   2.993   2.070   4.409 -0.6100 -0.2056 -1.8106
    1RG35   O4'   10   2.842   2.163   4.510 -0.3334  0.2883  0.2049
    1RG35   C1'   11   2.723   2.098   4.454 -0.5884  0.1342  0.5385
    1RG35   H1'   12   2.708   1.996   4.489 -1.2873  0.2423  0.5525
    1RG35    N9   13   2.607   2.178   4.501 -0.2293  0.1735  0.1279
    1RG35    C8   14   2.581   2.309   4.484  0.2338  0.2775 -0.5859
    1RG35    H8   15   2.653   2.377   4.442  0.9335 -0.5892 -0.7936
    1RG35    N7   16   2.459   2.343   4.522 -0.4215  0.3503  0.2642
    1RG35    C5   17   2.404   2.221   4.562 -0.3660 -0.5067 -0.0614
    1RG35    C6   18   2.272   2.201   4.614  0.2583 -0.2441  0.3368
    1RG35    O6   19   2.177   2.277   4.626 -0.1268 -0.1318  0.3150
    1RG35    N1   20   2.251   2.068   4.634  0.1194 -0.6608  0.0756
    1RG35    H1   21   2.159   2.030   4.653  0.2253 -0.4409  1.0471
    1RG35    C2   22   2.343   1.974   4.608 -0.7249  0.7907  0.0302
    1RG35    N2   23   2.305   1.851   4.618 -0.0779  0.4822 -0.0277
    1RG35   H21   24   2.210   1.834   4.650 -0.0991  2.5351  1.1052
    1RG35   H22   25   2.361   1.779   4.573 -1.4094 -0.1535 -0.6953
    1RG35    N3   26   2.468   1.992   4.570 -0.1944  0.0154  0.3765
    1RG35    C4   27   2.494   2.120   4.545  0.0298 -0.3419  0.4672
    1RG35   C3'   28   2.865   2.182   4.284  0.3961 -0.8281  0.4772
    1RG35   H3'   29   2.840   2.288   4.280 -0.0566 -0.9547 -0.1147
    1RG35   C2'   30   2.743   2.091   4.307 -0.7475  0.3915 -0.0891
    1RG35  H2'1   31   2.659   2.129   4.250  0.1780  0.9174 -1.1220
    1RG35   O2'   32   2.776   1.957   4.267 -0.2603  0.1013  0.2303
    1RG35  HO'2   33   2.838   1.926   4.335 -1.7173 -0.1615  1.4651
    1RG35   O3'   34   2.930   2.147   4.162  0.2844  0.8005 -0.0270
    1RG35   H3T   35   2.887   2.071   4.123  3.0507 -0.4879 -0.6633
    1RG35   O3P   36   3.027   2.547   4.279  0.1302  0.0644 -0.2143
    1SOL     OW   37   3.006   0.309   0.368  0.0396 -0.1233  0.1611
    1SOL    HW2   38   3.074   0.259   0.413 -0.4153 -0.6416  0.2773
    1SOL    HW3   39   3.054   0.377   0.320  0.5987 -0.1725  0.6420
    1SOL    MW4   40   3.021   0.312   0.368  0.0534 -0.1982  0.2399
    1SOL     OW   41   2.028   2.481   0.494  0.0189  0.2303 -0.2881
    1SOL    HW2   42   1.934   2.487   0.477  0.3131  1.0302 -1.7084
    1SOL    HW3   43   2.069   2.505   0.411  1.4805 -0.1390  0.3133
    1SOL    MW4   44   2.021   2.485   0.481  0.2506  0.2871 -0.3962
    1SOL     OW   45   2.800   4.220   0.925 -0.1813 -0.0345  0.7353
    1SOL    HW2   46   2.739   4.279   0.881  0.9912  1.3498  0.9361
    1SOL    HW3   47   2.768   4.215   1.015 -2.3828 -2.5976 -0.1218
    1SOL    MW4   48   2.788   4.227   0.931 -0.3169 -0.1898  0.6487
    1SOL     OW   49   4.064   3.242   0.454  0.1827 -0.8538  0.2298
    1SOL    HW2   50   3.980   3.281   0.477 -0.8035 -1.9099 -1.4894
    1SOL    HW3   51   4.042   3.157   0.417  1.9261 -0.6231 -1.3988
    1SOL    MW4   52   4.050   3.236   0.452  0.2828 -0.9625 -0.2119
    1SOL     OW   53   1.206   4.289   0.784  0.6696  0.2317  0.1940
    1SOL    HW2   54   1.249   4.204   0.776 -1.2192 -0.6334 -1.3390
    1SOL    HW3   55   1.163   4.301   0.699 -0.5509  1.8983  1.0358
    1SOL    MW4   56   1.206   4.279   0.772  0.2593  0.3371  0.1028
    1SOL     OW   57   1.573   0.470   0.756  0.4092 -0.0639  0.3277
    1SOL    HW2   58   1.491   0.446   0.799  1.3333 -0.9309  1.6402
    1SOL    HW3   59   1.551   0.473   0.662 -1.3697  0.8168  0.7501
    1SOL    MW4   60   1.559   0.467   0.749  0.2962 -0.0621  0.5566
    1SOL     OW   61   4.292   2.858   0.828  0.0428  0.2587  0.2155
    1SOL    HW2   62   4.267   2.945   0.860  1.2314  0.7743 -0.2481
    1SOL    HW3   63   4.294   2.867   0.733  0.6609 -0.1417  0.1886
    1SOL    MW4   64   4.289   2.870   0.820  0.2813  0.2735  0.1507
    1SOL     OW   65   2.896   3.873   0.626  0.2818 -0.2241 -0.0676
    1SOL    HW2   66   2.822   3.925   0.658  0.0501  0.6392 -1.9300
    1SOL    HW3   67   2.898   3.796   0.683 -0.1671  1.2074  1.9024
    1SOL    MW4   68   2.886   3.870   0.637  0.1919  0.0787 -0.0535
    1SOL     OW   69   2.816   2.618   0.503 -0.0624 -0.3973  0.3931
    1SOL    HW2   70   2.784   2.707   0.519  0.6963 -0.1798  0.7291
    1SOL    HW3   71   2.857   2.593   0.586  0.9725 -0.5293 -0.1558
    1SOL    MW4   72   2.817   2.627   0.516  0.1740 -0.3858  0.3650
    1SOL     OW   73   2.943   1.341   0.411 -0.4742 -0.0278  0.6724
    1SOL    HW2   74   2.997   1.408   0.369 -1.3690 -0.1785 -0.7436
    1SOL    HW3   75   2.995   1.261   0.404 -1.1664 -0.3322 -1.3612
    1SOL    MW4   76   2.957   1.339   0.405 -0.6835 -0.0879  0.2173
    1SOL     OW   77   3.164   0.156   0.752 -0.0610  0.2714 -0.3980
    1SOL    HW2   78   3.216   0.111   0.817  1.1961 -0.5149 -1.9300
    1SOL    HW3   79   3.167   0.248   0.778  0.4224 -0.0383  0.6410
    1SOL    MW4   80   3.171   0.163   0.764  0.1690  0.1268 -0.4630
    1SOL     OW   81   2.923   1.587   0.842  0.1368  0.3348  0.3831
    1SOL    HW2   82   2.844   1.629   0.808  0.3673  1.2871  1.0312
    1SOL    HW3   83   2.995   1.632   0.797  0.2584 -2.6047 -2.6000
    1SOL    MW4   84   2.922   1.598   0.831  0.1836  0.0727  0.0750
    1SOL     OW   85   3.631   1.628   0.277  0.5818  0.0455  0.0168
    1SOL    HW2   86   3.582   1.693   0.327  0.3260  0.6131 -0.9670
    1SOL    HW3   87   3.718   1.668   0.265  0.4953  0.1103 -0.3927
    1SOL    MW4   88   3.636   1.642   0.282  0.5362  0.1291 -0.1670
    1SOL     OW   89   0.476   4.169   0.472 -0.2988  0.3229  0.4607
    1SOL    HW2   90   0.459   4.133   0.559  1.3895 -1.1226  0.2110
    1SOL    HW3   91   0.398   4.146   0.421 -1.1316  0.8606  1.4736
    1SOL    MW4   92   0.463   4.161   0.476 -0.1860  0.2031  0.5614
    1SOL     OW   93   2.007   1.548   1.124 -0.1353 -0.1943 -0.1387
    1SOL    HW2   94   1.988   1.547   1.030  0.6692  0.6485 -0.3162
    1SOL    HW3   95   2.007   1.456   1.150 -1.3982 -0.3757 -0.7559
    1SOL    MW4   96   2.004   1.536   1.115 -0.1957 -0.1070 -0.2435
    1SOL     OW   97   4.249   4.651   0.459  0.1861  0.1322  0.1325
    1SOL    HW2   98   4.313   4.720   0.478  0.5738 -0.0503 -0.4943
    1SOL    HW3   99   4.300   4.570   0.459 -0.2736 -0.1661  0.8980
    1SOL    MW4  100   4.264   4.649   0.462  0.1760  0.0687  0.1508
    1SOL     OW  101   2.129   0.633   0.488 -0.1717  0.2600  0.3770
    1SOL    HW2  102   2.189   0.666   0.421 -1.0824  1.6571  0.2322
    1SOL    HW3  103   2.052   0.689   0.481 -1.0122 -0.7398  1.3817
    1SOL    MW4  104   2.127   0.645   0.478 -0.4027  0.3124  0.4904
    1SOL     OW  105   2.085   3.645   0.466 -0.0320  0.0900  0.3259
    1SOL    HW2  106   2.052   3.719   0.415 -2.3460 -0.5044  0.9089
    1SOL    HW3  107   2.048   3.657   0.554  1.3129 -0.6117  1.0062
    1SOL    MW4  108   2.076   3.656   0.471 -0.1597 -0.0811  0.4925
    1SOL     OW  109   1.822   3.359   0.761  0.4728 -0.5104 -0.1118
    1SOL    HW2  110   1.756   3.300   0.797  0.6811  0.3264  1.7457
    1SOL    HW3  111   1.797   3.371   0.670 -0.7891 -1.7825  0.0518
    1SOL    MW4  112   1.810   3.353   0.754  0.3339 -0.5679  0.1548
    1SOL     OW  113   2.896   3.640   0.793 -0.0463  0.1885  0.2112
    1SOL    HW2  114   2.881   3.656   0.887 -0.9975 -0.0594  0.1070
    1SOL    HW3  115   2.834   3.570   0.771  0.8272 -0.3888 -0.3976
    1SOL    MW4  116   2.886   3.633   0.803 -0.0567  0.0794  0.1172
    1SOL     OW  117   2.506   4.616   0.888 -0.0496 -0.3386  0.2229
    1SOL    HW2  118   2.510   4.623   0.983  1.6198  0.0418  0.1448
    1SOL    HW3  119   2.546   4.532   0.868 -0.7675 -0.6019 -0.1241
    1SOL    MW4  120   2.511   4.606   0.898  0.0756 -0.3233  0.1668
    1SOL     OW  121   1.800   3.976   0.786  0.3589 -0.1944  0.0105
    1SOL    HW2  122   1.819   4.068   0.804  1.3781 -0.3539 -0.2197
    1SOL    HW3  123   1.711   3.964   0.818  0.1739  0.9000 -0.0516
    1SOL    MW4  124   1.791   3.987   0.793  0.4689 -0.0710 -0.0281
    1SOL     OW  125   0.949   0.131   0.514 -0.2394  1.3382  0.3301
    1SOL    HW2  126   0.958   0.220   0.548  1.4084  0.7224  1.6053
    1SOL    HW3  127   1.015   0.081   0.562  0.1079 -0.1969 -1.6856
    1SOL    MW4  128   0.959   0.136   0.525  0.0238  1.0544  0.2323
    1SOL     OW  129   2.593   4.360   0.801  0.3157  0.0679 -0.0406
    1SOL    HW2  130   2.507   4.336   0.836  0.7085  0.0718  0.9666
    1SOL    HW3  131   2.575   4.409   0.722 -0.5960 -0.5294 -0.2069
    1SOL    MW4  132   2.580   4.363   0.795  0.2475 -0.0105  0.0703
    1SOL     OW  133   1.330   3.533   0.856  0.3789 -0.4092  0.2256
    1SOL    HW2  134   1.402   3.578   0.813  0.1436 -1.3279 -1.1359
    1SOL    HW3  135   1.252   3.557   0.805  0.2262 -2.1699 -0.3813
    1SOL    MW4  136   1.329   3.542   0.844  0.3277 -0.7627 -0.0342
    1SOL     OW  137   2.522   3.627   0.770 -0.1194 -0.1439 -0.4200
    1SOL    HW2  138   2.584   3.556   0.788  0.5956  0.4742 -0.4377
    1SOL    HW3  139   2.438   3.594   0.803  0.4623 -0.4754  0.7662
    1SOL    MW4  140   2.519   3.613   0.777  0.0517 -0.1063 -0.2658
    1SOL     OW  141   1.765   1.098   0.857 -0.2558 -0.0614  0.0391
    1SOL    HW2  142   1.797   1.015   0.822 -0.8962  0.3803 -1.6171
    1SOL    HW3  143   1.790   1.096   0.950  2.3056 -0.7995 -0.6436
    1SOL    MW4  144   1.772   1.087   0.865 -0.0024 -0.1005 -0.2695
    1SOL     OW  145   2.361   3.307   0.668  0.0746  0.3627 -0.4457
    1SOL    HW2  146   2.312   3.364   0.728 -1.0982 -2.1743  1.0986
    1SOL    HW3  147   2.293   3.261   0.618  0.9560 -0.8830 -0.5037
    1SOL    MW4  148   2.345   3.309   0.669  0.0360 -0.1364 -0.2496
    1SOL     OW  149   1.553   0.528   0.479  0.2616 -0.0039 -0.1426
    1SOL    HW2  150   1.588   0.612   0.453  0.5097 -0.0221  0.1276
    1SOL    HW3  151   1.461   0.531   0.454  0.4293  0.0893 -0.7399
    1SOL    MW4  152   1.545   0.539   0.472  0.3165  0.0060 -0.1857
    1SOL     OW  153   2.382   3.336   0.292  0.3467  0.3702 -0.2355
    1SOL    HW2  154   2.342   3.424   0.293  0.2138  0.3426 -2.0263
    1SOL    HW3  155   2.463   3.347   0.342  0.4104  1.5593 -0.5720
    1SOL    MW4  156   2.387   3.349   0.299  0.3376  0.5236 -0.5161
    1SOL     OW  157   0.537   0.468   0.558 -0.2196 -0.1199 -0.0348
    1SOL    HW2  158   0.475   0.540   0.556  2.0015  1.8526  0.0195
    1SOL    HW3  159   0.557   0.455   0.651 -1.2057 -1.3663  0.0223
    1SOL    MW4  160   0.532   0.476   0.570 -0.0566 -0.0241 -0.0201
    1SOL     OW  161   0.234   1.563   0.817 -0.4035  0.0951  0.0993
    1SOL    HW2  162   0.238   1.552   0.912  0.1837 -0.2018  0.0384
    1SOL    HW3  163   0.315   1.609   0.795 -0.1147 -0.6433 -0.3710
    1SOL    MW4  164   0.245   1.568   0.827 -0.2879 -0.0415  0.0292
    1SOL     OW  165   1.580   0.767   0.867 -0.1277 -0.2031  0.0242
    1SOL    HW2  166   1.597   0.690   0.814  1.4821  0.8696 -1.0296
    1SOL    HW3  167   1.497   0.802   0.833 -1.5589 -2.1682  1.3724
    1SOL    MW4  168   1.571   0.762   0.856 -0.1043 -0.3209  0.0631
    1SOL     OW  169   2.674   1.200   0.798 -0.1162  0.4600 -0.2525
    1SOL    HW2  170   2.757   1.236   0.767 -0.3343  1.1285 -0.0635
    1SOL    HW3  171   2.680   1.106   0.777 -0.0555  0.8093 -1.8510
    1SOL    MW4  172   2.686   1.192   0.791 -0.1371  0.5945 -0.4385
    1SOL     OW  173   0.509   2.705   1.158 -0.0625 -0.0385  0.3332
    1SOL    HW2  174   0.431   2.745   1.198 -0.6990 -0.7063 -0.2201
    1SOL    HW3  175   0.500   2.612   1.175 -0.8442 -0.4652 -2.1218
    1SOL    MW4  176   0.497   2.698   1.166 -0.2496 -0.1831 -0.0638
    1SOL     OW  177   0.601   0.409   0.874  0.2901  0.2837  0.7018
    1SOL    HW2  178   0.687   0.368   0.879  0.2809  0.1579 -0.0969
    1SOL    HW3  179   0.541   0.336   0.861  0.1657  0.4639  0.2740
    1SOL    MW4  180   0.604   0.394   0.873  0.2725  0.2908  0.5400
    1SOL     OW  181   4.280   4.613   0.885 -0.1043  0.0283 -0.1463
    1SOL    HW2  182   4.288   4.624   0.980  0.7322 -0.6187 -0.1321
    1SOL    HW3  183   4.306   4.522   0.869 -0.1018  0.1742 -1.0175
    1SOL    MW4  184   4.284   4.602   0.895  0.0062 -0.0381 -0.2593
    1SOL     OW  185   1.772   3.905   0.529  0.1050 -0.2566  0.5206
    1SOL    HW2  186   1.707   3.967   0.496  0.1745  0.1649  1.1626
    1SOL    HW3  187   1.785   3.930   0.621  1.7723  0.1640  0.1790
    1SOL    MW4  188   1.765   3.916   0.537  0.3343 -0.1452  0.5602
    1SOL     OW  189   4.438   0.173   0.511 -0.0891 -0.4063 -0.4074
    1SOL    HW2  190   4.453   0.265   0.487 -0.0476 -0.5707 -1.0131
    1SOL    HW3  191   4.520   0.129   0.492  0.1981 -0.3994  0.7648
    1SOL    MW4  192   4.451   0.179   0.506 -0.0458 -0.4271 -0.3327
    1SOL     OW  193   3.156   4.572   0.402  0.3613 -0.0728  0.0244
    1SOL    HW2  194   3.113   4.541   0.481  0.7734 -1.3524 -0.2439
    1SOL    HW3  195   3.092   4.557   0.332  0.1040  0.7953  0.0703
    1SOL    MW4  196   3.142   4.566   0.403  0.3817 -0.1268 -0.0049
    1SOL     OW  197   0.648   3.942   0.845  0.7832 -0.2774 -0.2581
    1SOL    HW2  198   0.567   3.984   0.815 -0.3170 -0.3087  2.4757
    1SOL    HW3  199   0.642   3.852   0.813  0.2514  0.0165 -0.9869
    1SOL    MW4  200   0.637   3.936   0.837  0.5679 -0.2427  0.0064
    1SOL     OW  201   0.025   3.648   0.480  0.1627  0.1763  0.1855
    1SOL    HW2  202   0.008   3.736   0.448  1.5235  0.0348 -0.9384
    1SOL    HW3  203  -0.050   3.597   0.450  0.4266  0.4888 -1.0109
    1SOL    MW4  204   0.013   3.653   0.472  0.3771  0.1988 -0.1207
    1SOL     OW  205   3.274   4.100   0.529  0.2737 -0.2155 -0.1768
    1SOL    HW2  206   3.357   4.054   0.542  0.6983  0.6332  0.1371
    1SOL    HW3  207   3.299   4.191   0.513 -0.5474 -0.1450 -1.0808
    1SOL    MW4  208   3.288   4.106   0.529  0.2215 -0.0949 -0.2547
    1SOL     OW  209   1.626   3.165   0.851  0.0310 -0.0887 -0.4267
    1SOL    HW2  210   1.621   3.078   0.812  1.0840 -1.1461  1.6863
    1SOL    HW3  211   1.594   3.153   0.940 -2.2416  2.2430 -0.8707
    1SOL    MW4  212   1.621   3.152   0.857 -0.1299  0.0794 -0.2066
    1SOL     OW  213   3.955   3.782   0.365  0.9929 -0.0506  0.1120
    1SOL    HW2  214   3.922   3.780   0.275  1.0132  0.8087  0.0811
    1SOL    HW3  215   3.890   3.732   0.416  0.1962  0.7446 -0.1274
    1SOL    MW4  216   3.942   3.775   0.360  0.8905  0.1676  0.0764
    1SOL     OW  217   0.211   2.377   0.426  0.5290 -0.0844  0.3088
    1SOL    HW2  218   0.243   2.355   0.339  1.1571  1.0726  0.2356
    1SOL    HW3  219   0.286   2.416   0.471  0.2839 -0.9187  1.4656
    1SOL    MW4  220   0.225   2.379   0.420  0.5795 -0.0420  0.4517
    1SOL     OW  221   3.370   0.022   0.889  0.0103 -0.0685  0.3626
    1SOL    HW2  222   3.381   0.028   0.984  1.5247 -1.9874  0.3390
    1SOL    HW3  223   3.446   0.068   0.853  0.4440 -0.9865  0.0940
    1SOL    MW4  224   3.382   0.029   0.897  0.2673 -0.4428  0.3240
    1SOL     OW  225   0.250   0.445   0.764  0.2471 -0.0413 -0.0791
    1SOL    HW2  226   0.300   0.371   0.799  1.4061  0.3585 -0.8452
    1SOL    HW3  227   0.160   0.428   0.790  0.5163 -1.6782 -0.1686
    1SOL    MW4  228   0.245   0.433   0.772  0.4356 -0.2046 -0.1920
    1SOL     OW  229   1.549   1.549   0.871  0.1758  0.0486  0.2002
    1SOL    HW2  230   1.553   1.455   0.855  1.9699  0.3176 -1.0436
    1SOL    HW3  231   1.565   1.558   0.965 -0.3419 -0.9004  0.3820
    1SOL    MW4  232   1.551   1.538   0.881  0.3443 -0.0412  0.0600
    1SOL     OW  233   1.958   1.375   0.505  0.2684 -0.7536 -0.2679
    1SOL    HW2  234   1.875   1.369   0.457  0.0121  0.3107  0.0299
    1SOL    HW3  235   2.024   1.343   0.444 -0.2005 -0.4659 -0.9318
    1SOL    MW4  236   1.955   1.370   0.491  0.1727 -0.5753 -0.3162
    1SOL     OW  237   0.243   2.892   0.782  0.4371 -0.1657 -0.0639
    1SOL    HW2  238   0.172   2.852   0.832  0.2390  0.5925  0.2662
    1SOL    HW3  239   0.241   2.848   0.697  0.1357 -0.7553  0.2488
    1SOL    MW4  240   0.234   2.881   0.777  0.3712 -0.1435  0.0209
    1SOL     OW  241   3.307   1.221   0.262 -0.0144 -0.0154  0.2463
    1SOL    HW2  242   3.383   1.163   0.254  0.0078  0.0666 -0.1501
    1SOL    HW3  243   3.324   1.272   0.341  0.5982  0.3643 -0.1200
    1SOL    MW4  244   3.319   1.220   0.271  0.0696  0.0457  0.1456
    1SOL     OW  245   0.042   1.088   0.855 -0.3258  0.8388  0.3168
    1SOL    HW2  246   0.050   1.088   0.950  0.0383 -0.8490  0.3139
    1SOL    HW3  247   0.116   1.140   0.824  0.5773 -0.0810  0.9108
    1SOL    MW4  248   0.053   1.095   0.863 -0.1586  0.4947  0.3946
    1SOL     OW  249   2.687   1.694   0.765  0.5553 -0.0616  0.0481
    1SOL    HW2  250   2.606   1.654   0.795  0.6380 -0.3414 -0.1013
    1SOL    HW3  251   2.686   1.782   0.803  0.0924  0.0028 -0.1143
    1SOL    MW4  252   2.676   1.701   0.774  0.5050 -0.0901  0.0070
    1SOL     OW  253   1.110   3.072   0.500  0.5936  0.0226  0.6213
    1SOL    HW2  254   1.029   3.123   0.500  1.0568  0.8107 -2.3349
    1SOL    HW3  255   1.095   3.004   0.566 -1.7421  1.2702  1.4331
    1SOL    MW4  256   1.098   3.070   0.509  0.3467  0.2909  0.3384
    1SOL     OW  257   0.500   1.714   0.778 -0.2233  0.8858  0.3576
    1SOL    HW2  258   0.485   1.721   0.684 -0.1938 -0.6919  0.2190
    1SOL    HW3  259   0.481   1.802   0.812 -0.7374  1.3336 -1.0400
    1SOL    MW4  260   0.495   1.727   0.770 -0.2872  0.7367  0.1549
    1SOL     OW  261   2.029   3.915   0.415 -0.6041 -0.1595 -0.0755
    1SOL    HW2  262   1.950   3.925   0.469  0.4135  1.5698  1.1383
    1SOL    HW3  263   2.097   3.961   0.464  0.7618 -0.1387 -1.9682
    1SOL    MW4  264   2.028   3.922   0.429 -0.2894  0.0713 -0.1650
    1SOL     OW  265   0.517   3.521   0.434 -0.0610  0.0791  0.4238
    1SOL    HW2  266   0.425   3.511   0.460  0.2483  0.0737  1.5384
    1SOL    HW3  267   0.513   3.545   0.341 -1.2151  0.7590  0.6385
    1SOL    MW4  268   0.504   3.523   0.425 -0.1724  0.1681  0.5992
    1SOL     OW  269   2.225   1.705   0.756  0.3502  0.8423 -0.2728
    1SOL    HW2  270   2.147   1.654   0.778  1.1465 -0.1111  0.4210
    1SOL    HW3  271   2.249   1.675   0.668  0.4938  0.4104 -0.0898
    1SOL    MW4  272   2.218   1.694   0.748  0.4745  0.6596 -0.1571
    1SOL     OW  273   4.054   0.801   0.502  0.9065 -0.1891  0.4629
    1SOL    HW2  274   4.045   0.822   0.595 -0.1283 -0.0564  0.3482
    1SOL    HW3  275   4.086   0.711   0.500  0.2135 -0.4548  0.9565
    1SOL    MW4  276   4.057   0.792   0.514  0.6785 -0.2067  0.5129
    1SOL     OW  277   4.469   0.396   0.816 -0.3469 -0.0776  0.0765
    1SOL    HW2  278   4.468   0.300   0.822  0.7213  0.0033  1.7652
    1SOL    HW3  279   4.376   0.420   0.808 -0.6252 -1.2467 -0.2936
    1SOL    MW4  280   4.457   0.386   0.816 -0.2427 -0.2212  0.2505
    1SOL     OW  281   2.439   2.023   0.707  0.1299 -0.1924  0.0378
    1SOL    HW2  282   2.353   2.026   0.749 -0.1462 -0.9123 -0.4665
    1SOL    HW3  283   2.494   1.975   0.769  0.4923  1.3165  0.9150
    1SOL    MW4  284   2.435   2.017   0.721  0.1411 -0.0887  0.0870
    1SOL     OW  285   1.509   2.411   0.370 -0.2527 -0.0968 -0.0320
    1SOL    HW2  286   1.489   2.380   0.282 -0.1796 -0.2786  0.0165
    1SOL    HW3  287   1.427   2.452   0.400  0.1436  1.2581 -0.7382
    1SOL    MW4  288   1.496   2.413   0.362 -0.1909  0.0579 -0.1188
    1SOL     OW  289   0.024   0.187   1.249 -0.0708 -0.0905 -0.0306
    1SOL    HW2  290  -0.057   0.143   1.225 -1.1388  0.6093  2.1389
    1SOL    HW3  291   0.014   0.277   1.216  0.0582 -0.1543 -0.2443
    1SOL    MW4  292   0.012   0.193   1.242 -0.1945 -0.0066  0.2276
    1SOL     OW  293   2.729   0.417   0.889  0.1106  0.2179  0.2678
    1SOL    HW2  294   2.720   0.416   0.984  0.8384 -2.6599  0.3756
    1SOL    HW3  295   2.714   0.326   0.863 -0.6302  1.0685 -2.4318
    1SOL    MW4  296   2.726   0.405   0.898  0.1087 -0.0495 -0.0742
    1SOL     OW  297   0.604   1.474   0.455  0.1316  0.1911  0.1500
    1SOL    HW2  298   0.548   1.551   0.465  0.1061  0.2517 -0.4184
    1SOL    HW3  299   0.691   1.504   0.480 -0.0384  0.1749  0.7568
    1SOL    MW4  300   0.608   1.488   0.460  0.1059  0.1971  0.1551
    1SOL     OW  301   3.384   3.347   0.294 -0.6338 -0.4207  0.4427
    1SOL    HW2  302   3.321   3.363   0.223  0.0574 -1.2251 -0.3678
    1SOL    HW3  303   3.390   3.431   0.339 -0.9908  0.1444 -0.5321
    1SOL    MW4  304   3.376   3.360   0.290 -0.5898 -0.4523  0.2072
    1SOL     OW  305   2.046   0.710   0.882  0.2089 -0.1612 -0.5460
    1SOL    HW2  306   2.048   0.621   0.847 -1.0795 -0.1476 -0.6979
    1SOL    HW3  307   2.135   0.743   0.871  0.7923 -1.5709 -0.1178
    1SOL    MW4  308   2.058   0.703   0.876  0.1159 -0.3454 -0.5096
    1SOL     OW  309   3.784   3.111   0.851 -0.2858 -0.4920  0.0078
    1SOL    HW2  310   3.862   3.152   0.813 -0.2749  0.5986  1.1673
    1SOL    HW3  311   3.780   3.025   0.809  1.2861 -0.3979 -0.3937
    1SOL    MW4  312   3.794   3.105   0.840 -0.0768 -0.3359  0.1079
    1SOL     OW  313   4.302   2.363   0.861 -0.2420 -0.1872  0.0755
    1SOL    HW2  314   4.236   2.403   0.805  0.2406 -1.3805 -1.3688
    1SOL    HW3  315   4.384   2.405   0.837 -0.1393 -0.2072  0.3780
    1SOL    MW4  316   4.304   2.374   0.851 -0.1655 -0.3471 -0.0752
    1SOL     OW  317   2.051   3.894   0.910  0.4367  0.1940  0.3994
    1SOL    HW2  318   2.113   3.960   0.878 -0.2394  1.3879  1.5116
    1SOL    HW3  319   1.966   3.924   0.880 -0.0708  0.7229  2.3155
    1SOL    MW4  320   2.048   3.906   0.901  0.2804  0.4210  0.7989
    1SOL     OW  321   1.816   0.399   0.893 -0.3421  0.6113  0.4558
    1SOL    HW2  322   1.735   0.434   0.855 -0.5662 -0.3724  0.0153
    1SOL    HW3  323   1.794   0.384   0.985 -0.4766  0.9009  0.4736
    1SOL    MW4  324   1.802   0.402   0.900 -0.3893  0.5198  0.4001
    1SOL     OW  325   2.030   1.644   0.393  0.1142 -0.3129 -0.1808
    1SOL    HW2  326   2.010   1.565   0.443  0.1230  0.3988  0.9581
    1SOL    HW3  327   2.121   1.663   0.414  0.4779 -0.6612 -1.3864
    1SOL    MW4  328   2.040   1.636   0.403  0.1633 -0.2648 -0.1896
    1SOL     OW  329   2.724   3.182   0.662 -0.0716  0.1633 -0.0286
    1SOL    HW2  330   2.812   3.206   0.690  0.0742  0.6165 -0.8449
    1SOL    HW3  331   2.675   3.170   0.743  0.9697 -0.9682  0.4524
    1SOL    MW4  332   2.729   3.184   0.676  0.0856  0.0737 -0.0728
    1SOL     OW  333   4.490   2.545   0.512  0.0435  0.2391  0.0364
    1SOL    HW2  334   4.548   2.479   0.473  0.5413  0.7074 -0.0122
    1SOL    HW3  335   4.486   2.521   0.604 -2.1848 -1.6572 -0.5067
    1SOL    MW4  336   4.497   2.533   0.519 -0.1848  0.0508 -0.0417
    1SOL     OW  337   2.345   3.050   0.333 -0.0148  0.5169 -0.3315
    1SOL    HW2  338   2.381   3.127   0.289  1.8775 -0.2474 -0.1659
    1SOL    HW3  339   2.405   3.034   0.405 -1.9856  0.5676  1.3606
    1SOL    MW4  340   2.358   3.058   0.337 -0.0250  0.4225 -0.0864
    1SOL     OW  341   0.212   0.001   0.882  0.0338 -0.6603 -0.0491
    1SOL    HW2  342   0.220   0.005   0.978 -1.2573 -0.4788  0.0612
    1SOL    HW3  343   0.131   0.049   0.863 -0.0311 -1.2051 -1.1863
    1SOL    MW4  344   0.202   0.008   0.892 -0.1451 -0.7083 -0.1847
    1SOL     OW  345   3.101   1.111   0.387  0.2649 -0.4352  0.0105
    1SOL    HW2  346   3.156   1.149   0.319 -0.3380 -0.3264 -0.4208
    1SOL    HW3  347   3.146   1.031   0.413  0.5279 -0.4443 -0.4725
    1SOL    MW4  348   3.114   1.106   0.381  0.2201 -0.4221 -0.1101
    1SOL     OW  349   1.574   2.363   0.850  0.0648  0.0133 -0.2253
    1SOL    HW2  350   1.584   2.271   0.825  0.7780  0.5559 -2.0500
    1SOL    HW3  351   1.495   2.391   0.804  1.1567  0.9214 -1.5883
    1SOL    MW4  352   1.565   2.354   0.841  0.3030  0.2046 -0.6459
    1SOL     OW  353   0.860   3.489   0.862 -0.0185 -0.0705 -0.4508
    1SOL    HW2  354   0.785   3.520   0.812  0.7639  1.6966 -0.5764
    1SOL    HW3  355   0.876   3.400   0.830 -1.0986  0.1016 -1.4937
    1SOL    MW4  356   0.852   3.481   0.851 -0.0578  0.1857 -0.6050
    1SOL     OW  357   0.884   1.937   0.837  0.4846 -0.1211 -0.5198
    1SOL    HW2  358   0.873   1.948   0.932  0.6800 -1.2087 -0.3592
    1SOL    HW3  359   0.816   1.992   0.799  0.1982  0.0802  0.2648
    1SOL    MW4  360   0.873   1.946   0.844  0.4726 -0.2381 -0.3950
    1SOL     OW  361   3.290   2.659   0.330  0.2177 -0.2971  0.6672
    1SOL    HW2  362   3.194   2.654   0.323  0.2960 -0.1753 -0.5733
    1SOL    HW3  363   3.308   2.752   0.342  0.1286 -0.4251  1.8559
    1SOL    MW4  364   3.280   2.670   0.331  0.2162 -0.2978  0.6604
    1SOL     OW  365   0.281   2.365   0.859  0.4755  0.5718 -0.7370
    1SOL    HW2  366   0.266   2.275   0.830  2.3741  0.2997 -0.9152
    1SOL    HW3  367   0.249   2.366   0.950 -0.6474  0.0521 -1.1117
    1SOL    MW4  368   0.275   2.353   0.867  0.5779  0.4675 -0.8099
    1SOL     OW  369   1.407   3.675   0.485  0.1680 -0.6197  0.5169
    1SOL    HW2  370   1.378   3.762   0.456  1.5625 -0.0312  0.8496
    1SOL    HW3  371   1.333   3.617   0.464 -0.1728  0.3680 -1.1293
    1SOL    MW4  372   1.393   3.679   0.478  0.3071 -0.4115  0.3436
    1SOL     OW  373   1.586   2.181   0.498  0.0411  0.2105 -0.0925
    1SOL    HW2  374   1.576   2.273   0.472 -2.0063 -0.3351 -1.4335
    1SOL    HW3  375   1.662   2.150   0.449  0.2448  0.9794 -0.2666
    1SOL    MW4  376   1.594   2.189   0.488 -0.2022  0.2403 -0.2924
    1SOL     OW  377   3.879   2.369   0.921 -0.3547 -0.0042  0.5446
    1SOL    HW2  378   3.853   2.355   1.012 -1.3714 -0.1603  0.2428
    1SOL    HW3  379   3.801   2.409   0.881  0.3595  0.7991 -0.0644
    1SOL    MW4  380   3.865   2.373   0.928 -0.3948  0.0811  0.4244
    1SOL     OW  381   1.420   0.105   0.692  0.1237 -0.0152 -0.0867
    1SOL    HW2  382   1.469   0.034   0.732  0.4586 -0.4873 -1.3011
    1SOL    HW3  383   1.449   0.105   0.600 -0.2428  1.3563 -0.2189
    1SOL    MW4  384   1.431   0.096   0.685  0.1196  0.1035 -0.2644
    1SOL     OW  385   4.011   0.309   0.864 -0.0422 -0.0023 -0.2915
    1SOL    HW2  386   3.937   0.318   0.805  0.2529 -1.9684 -1.0192
    1SOL    HW3  387   4.073   0.377   0.838 -0.9245  0.6574 -0.6753
    1SOL    MW4  388   4.010   0.319   0.853 -0.1192 -0.1746 -0.4382
    1SOL     OW  389   2.288   2.134   0.446  0.2828 -0.0715 -0.1771
    1SOL    HW2  390   2.341   2.056   0.430  1.6130  0.9474 -0.8633
    1SOL    HW3  391   2.343   2.206   0.418 -0.5543  1.2018  1.3838
    1SOL    MW4  392   2.302   2.133   0.440  0.3476  0.2310 -0.0617
    1SOL     OW  393   3.860   1.237   0.787 -0.5782 -0.1025  0.2685
    1SOL    HW2  394   3.776   1.207   0.823 -1.2489  2.1733  0.6750
    1SOL    HW3  395   3.858   1.206   0.696 -0.9897 -1.7281  0.8067
    1SOL    MW4  396   3.848   1.229   0.779 -0.7212 -0.0167  0.3932
    1SOL     OW  397   3.064   4.293   0.867  0.2771 -0.2363 -0.0341
    1SOL    HW2  398   3.088   4.209   0.827  0.9268  0.4380 -1.1015
    1SOL    HW3  399   2.977   4.278   0.903  0.7473 -1.6313  0.5896
    1SOL    MW4  400   3.056   4.280   0.866  0.4246 -0.3314 -0.0926
    1SOL     OW  401   2.596   2.255   0.655  0.3789 -0.1044 -0.5453
    1SOL    HW2  402   2.546   2.176   0.675 -0.9173  0.9965  0.6791
    1SOL    HW3  403   2.669   2.254   0.717  0.7608 -0.7014 -1.0067
    1SOL    MW4  404   2.599   2.245   0.666  0.2584 -0.0379 -0.4447
    1SOL     OW  405   4.042   3.207   0.751 -0.0216  0.2657 -0.1111
    1SOL    HW2  406   4.046   3.299   0.776 -0.3631  0.1925  0.2218
    1SOL    HW3  407   4.041   3.208   0.656  2.3581  0.5010 -0.1559
    1SOL    MW4  408   4.043   3.219   0.742  0.2480  0.2868 -0.0731
    1SOL     OW  409   0.179   2.099   0.463 -0.1369 -0.6114 -0.0367
    1SOL    HW2  410   0.200   2.084   0.555 -1.7986 -0.7085  0.3326
    1SOL    HW3  411   0.196   2.193   0.450  2.0108 -0.9905 -0.1656
    1SOL    MW4  412   0.184   2.110   0.474 -0.0727 -0.6742 -0.0049
    1SOL     OW  413   1.592   4.109   0.469  0.2512  0.0192  0.2162
    1SOL    HW2  414   1.656   4.176   0.444 -0.0073  0.1795 -0.0193
    1SOL    HW3  415   1.529   4.156   0.523 -0.2997  0.1176 -0.5015
    1SOL    MW4  416   1.593   4.124   0.473  0.1444  0.0534  0.0905
    1SOL     OW  417   4.468   0.130   0.783  0.7358 -0.1245  0.1634
    1SOL    HW2  418   4.393   0.074   0.804  0.5824  0.1553  0.3737
    1SOL    HW3  419   4.470   0.134   0.687  2.6221 -3.0041  0.0237
    1SOL    MW4  420   4.459   0.123   0.773  0.9646 -0.4675  0.1727
    1SOL     OW  421   0.669   2.108   0.768 -0.5615  0.4842  0.3463
    1SOL    HW2  422   0.681   2.114   0.674  0.0187  0.9610  0.4486
    1SOL    HW3  423   0.693   2.195   0.801 -2.9089  1.0246  0.7063
    1SOL    MW4  424   0.674   2.120   0.760 -0.7946  0.6182  0.4073
    1SOL     OW  425   2.308   2.596   0.878 -0.5254 -0.2902 -0.5253
    1SOL    HW2  426   2.383   2.539   0.897 -0.5212  0.0383  0.4824
    1SOL    HW3  427   2.310   2.662   0.948 -0.4256  1.0532 -1.7724
    1SOL    MW4  428   2.318   2.597   0.890 -0.5119 -0.0701 -0.5569
    1SOL     OW  429   4.308   0.731   0.862  0.2743 -0.3823  0.0232
    1SOL    HW2  430   4.287   0.756   0.952  0.2991  0.6231 -0.2338
    1SOL    HW3  431   4.246   0.782   0.809  1.0704 -0.0227 -0.5747
    1SOL    MW4  432   4.297   0.741   0.867  0.3824 -0.2022 -0.0897
    1SOL     OW  433   4.307   0.906   0.460  0.2346  0.2047  0.3366
    1SOL    HW2  434   4.218   0.872   0.469  1.3182 -2.7038  0.5087
    1SOL    HW3  435   4.326   0.947   0.544 -0.0397 -1.4430  1.2132
    1SOL    MW4  436   4.298   0.907   0.472  0.3409 -0.3964  0.4750
    1SOL     OW  437   4.098   4.266   0.909  0.0914  0.1256  0.1195
    1SOL    HW2  438   4.078   4.190   0.855 -2.1335  1.4181 -0.9733
    1SOL    HW3  439   4.187   4.291   0.885  0.4617 -1.4865 -0.2465
    1SOL    MW4  440   4.107   4.259   0.899 -0.1540  0.0839 -0.0730
    1SOL     OW  441   2.858   0.961   0.369 -0.2885  0.3059  0.1722
    1SOL    HW2  442   2.942   1.007   0.370  0.0648 -0.3198 -0.1562
    1SOL    HW3  443   2.882   0.868   0.377 -0.9365  0.1022 -0.2627
    1SOL    MW4  444   2.872   0.955   0.370 -0.3273  0.1965  0.0716
    1SOL     OW  445   4.000   1.536   0.454 -0.1450  0.1609  0.1604
    1SOL    HW2  446   4.002   1.440   0.446 -1.2940  0.0943  0.5775
    1SOL    HW3  447   4.018   1.553   0.547  1.3063  0.4137 -0.1552
    1SOL    MW4  448   4.003   1.526   0.465 -0.1049  0.1855  0.1738
    1SOL     OW  449   1.783   1.945   0.849  0.2747  0.2094  0.3968
    1SOL    HW2  450   1.712   1.999   0.816 -0.8826 -1.2375  0.4839
    1SOL    HW3  451   1.781   1.866   0.795  2.6875  0.7096 -0.5079
    1SOL    MW4  452   1.774   1.941   0.838  0.4405  0.0844  0.2890
    1SOL     OW  453   3.289   3.595   0.444  0.5240  0.1280 -0.1301
    1SOL    HW2  454   3.221   3.657   0.417  0.0738 -0.3574 -0.1208
    1SOL    HW3  455   3.278   3.586   0.538  2.6502  2.4774  0.3921
    1SOL    MW4  456   3.278   3.602   0.453  0.7451  0.3736 -0.0600
    1SOL     OW  457   1.103   3.853   0.859 -0.3733 -0.6164 -0.1781
    1SOL    HW2  458   1.118   3.867   0.952 -0.5039 -1.9228  0.0534
    1SOL    HW3  459   1.036   3.917   0.835 -0.6343 -0.5494  0.7204
    1SOL    MW4  460   1.096   3.863   0.868 -0.4250 -0.7799 -0.0290
    1SOL     OW  461   0.890   1.146   0.915 -0.3267  0.1388 -0.1819
    1SOL    HW2  462   0.807   1.191   0.897  0.4676  2.3725  1.4888
    1SOL    HW3  463   0.954   1.192   0.862  0.3931  0.5764  1.0509
    1SOL    MW4  464   0.887   1.158   0.906 -0.1269  0.4913  0.2011
    1SOL     OW  465   1.755   3.375   0.474 -0.3015  0.6125 -0.1790
    1SOL    HW2  466   1.838   3.380   0.427 -1.5182  2.4299 -2.2407
    1SOL    HW3  467   1.730   3.466   0.489 -0.1656  0.0848  3.7032
    1SOL    MW4  468   1.762   3.387   0.470 -0.4442  0.7827  0.0612
    1SOL     OW  469   4.446   1.648   0.549 -0.6433 -0.0343  0.2104
    1SOL    HW2  470   4.447   1.674   0.641 -0.4301 -0.5248  0.3440
    1SOL    HW3  471   4.386   1.711   0.508  0.8592  1.4768  0.2962
    1SOL    MW4  472   4.438   1.660   0.556 -0.4168  0.1004  0.2394
    1SOL     OW  473   4.070   2.482   0.751 -0.0921  0.7389 -0.1332
    1SOL    HW2  474   4.012   2.427   0.805 -0.6034  0.9395 -0.4719
    1SOL    HW3  475   4.040   2.467   0.661  1.4903 -0.4842 -0.4943
    1SOL    MW4  476   4.058   2.473   0.746  0.0491  0.6042 -0.2255
    1SOL     OW  477   0.179   2.774   0.532  0.0798  0.0013 -0.1599
    1SOL    HW2  478   0.263   2.734   0.509  0.4517  0.5785  0.1872
    1SOL    HW3  479   0.115   2.703   0.520  0.7222 -0.6840  0.3735
    1SOL    MW4  480   0.182   2.759   0.528  0.2136 -0.0129 -0.0436
    1SOL     OW  481   3.609   1.700   0.721  0.1051  0.0949  0.2543
    1SOL    HW2  482   3.685   1.643   0.732  0.6993  0.4674 -1.7971
    1SOL    HW3  483   3.631   1.779   0.771 -0.0510 -0.7970  1.7815
    1SOL    MW4  484   3.622   1.703   0.729  0.1626  0.0265  0.1851
    1SOL     OW  485   2.833   0.483   0.534 -0.1200 -0.1495  0.0805
    1SOL    HW2  486   2.881   0.419   0.482 -1.0623 -0.2638 -0.6735
    1SOL    HW3  487   2.886   0.496   0.612  0.4107 -1.3553 -0.0717
    1SOL    MW4  488   2.846   0.476   0.537 -0.1745 -0.3237 -0.0391
    1SOL     OW  489   0.722   4.141   0.352 -0.1507  0.3288 -0.3348
    1SOL    HW2  490   0.757   4.059   0.386 -0.6625  0.1037 -0.3412
    1SOL    HW3  491   0.632   4.144   0.386 -0.3892  0.5036 -0.9724
    1SOL    MW4  492   0.714   4.130   0.361 -0.2497  0.3219 -0.4198
    1SOL     OW  493   0.455   2.506   0.484  0.0710 -0.4724  0.1187
    1SOL    HW2  494   0.531   2.455   0.455 -0.8281 -2.3386  0.9836
    1SOL    HW3  495   0.469   2.519   0.578 -0.5778 -0.6483  0.2407
    1SOL    MW4  496   0.467   2.501   0.492 -0.1332 -0.7422  0.2489
    1SOL     OW  497   2.813   0.119   0.298  0.2777 -0.3251  0.3565
    1SOL    HW2  498   2.879   0.188   0.310 -0.4956  0.1749  1.8827
    1SOL    HW3  499   2.732   0.166   0.278 -0.1840 -0.7906  1.0926
    1SOL    MW4  500   2.811   0.135   0.297  0.1147 -0.3205  0.6549
    1SOL     OW  501   0.205   1.549   0.386  0.2956  0.2217 -0.3872
    1SOL    HW2  502   0.225   1.638   0.416  1.1492 -0.5093  1.3383
    1SOL    HW3  503   0.288   1.517   0.349  0.4711 -0.4267  0.5397
    1SOL    MW4  504   0.219   1.556   0.385  0.4314  0.0398 -0.0372
    1SOL     OW  505   1.321   1.954   0.839  0.2155  0.8778 -0.3964
    1SOL    HW2  506   1.335   1.964   0.933  0.9319 -0.9441 -0.2847
    1SOL    HW3  507   1.237   1.997   0.822 -0.2310  0.6531  1.1918
    1SOL    MW4  508   1.312   1.961   0.849  0.2511  0.6077 -0.1722
    1SOL     OW  509   3.320   3.150   0.808  0.1859 -0.0835  0.0673
    1SOL    HW2  510   3.317   3.156   0.903  1.4295 -2.3430  0.2858
    1SOL    HW3  511   3.234   3.181   0.779 -0.3245  0.2947  1.9316
    1SOL    MW4  512   3.309   3.155   0.817  0.2825 -0.3316  0.3421
    1SOL     OW  513   1.126   0.721   0.900  0.4454 -0.1254  0.5383
    1SOL    HW2  514   1.060   0.771   0.852  1.2920  0.1365 -0.3691
    1SOL    HW3  515   1.107   0.739   0.992  0.4273  1.4819  0.2403
    1SOL    MW4  516   1.114   0.730   0.906  0.5547  0.1212  0.3793
    1SOL     OW  517   3.582   3.226   0.452  0.4463  0.2513  0.1499
    1SOL    HW2  518   3.506   3.257   0.403  0.1487 -0.6298  0.0426
    1SOL    HW3  519   3.564   3.251   0.543  0.1423  0.2677  0.0859
    1SOL    MW4  520   3.570   3.233   0.458  0.3667  0.1371  0.1273
    1SOL     OW  521   1.262   0.177   0.320 -0.0651  0.2467  0.1525
    1SOL    HW2  522   1.230   0.266   0.335 -0.6304 -0.0015  0.4313
    1SOL    HW3  523   1.187   0.130   0.284  0.6286  0.2370 -1.3320
    1SOL    MW4  524   1.248   0.183   0.317 -0.0483  0.2127 -0.0066
    1SOL     OW  525   3.634   1.338   0.365 -0.0368  0.1388 -0.2413
    1SOL    HW2  526   3.703   1.309   0.425 -0.0565 -1.3260 -0.8873
    1SOL    HW3  527   3.661   1.425   0.336  0.7718  0.1949  0.6752
    1SOL    MW4  528   3.646   1.345   0.369  0.0672 -0.0471 -0.2056
    1SOL     OW  529   0.170   3.647   0.769 -0.1283  0.0746  0.1384
    1SOL    HW2  530   0.145   3.659   0.677 -1.3504  0.3689  0.4986
    1SOL    HW3  531   0.205   3.733   0.795  0.0803  0.0354 -0.0120
    1SOL    MW4  532   0.171   3.660   0.760 -0.2620  0.1085  0.1661
    1SOL     OW  533   2.319   3.619   0.326  0.0793 -0.2763  0.0115
    1SOL    HW2  534   2.390   3.617   0.390  0.2735 -1.8873 -0.2382
    1SOL    HW3  535   2.241   3.637   0.378  0.5708  0.8900  0.3663
    1SOL    MW4  536   2.318   3.621   0.341  0.1698 -0.3347  0.0254
    1SOL     OW  537   2.683   3.429   0.873  0.0662  0.1337 -0.0768
    1SOL    HW2  538   2.645   3.341   0.873 -2.1237  1.0421 -1.3319
    1SOL    HW3  539   2.680   3.456   0.965  1.5520 -1.4072  0.4523
    1SOL    MW4  540   2.677   3.421   0.885 -0.0269  0.0501 -0.1726
    1SOL     OW  541   1.799   2.825   0.392  0.5481 -0.2505 -0.1769
    1SOL    HW2  542   1.757   2.832   0.306 -1.0116  0.8960  0.6470
    1SOL    HW3  543   1.792   2.732   0.414 -1.1183 -0.1809 -0.3018
    1SOL    MW4  544   1.792   2.813   0.383  0.1223 -0.0901 -0.0847
    1SOL     OW  545   4.402   3.021   0.380  0.4632 -0.3066  0.0812
    1SOL    HW2  546   4.399   3.111   0.412 -0.8523 -0.6201  0.8426
    1SOL    HW3  547   4.495   3.007   0.359  0.4118  1.7759 -1.6903
    1SOL    MW4  548   4.414   3.031   0.381  0.2828 -0.0730 -0.0520
    1SOL     OW  549   3.790   1.510   0.823 -0.1334  0.1037  0.0499
    1SOL    HW2  550   3.794   1.529   0.916  1.9131  0.8916 -0.1683
    1SOL    HW3  551   3.801   1.415   0.817 -1.1458 -0.0521  0.6499
    1SOL    MW4  552   3.792   1.500   0.834  0.0026  0.1869  0.1003
    1SOL     OW  553   0.760   2.110   0.500  0.2313 -0.0818 -0.0205
    1SOL    HW2  554   0.751   2.029   0.449 -0.2478 -0.5466  0.8046
    1SOL    HW3  555   0.853   2.133   0.491  0.2534 -0.4171 -0.7116
    1SOL    MW4  556   0.771   2.102   0.492  0.1710 -0.1874 -0.0028
    1SOL     OW  557   4.002   1.822   0.611 -0.5971  0.6190  0.2897
    1SOL    HW2  558   3.930   1.840   0.551 -0.0151 -1.3609 -1.0446
    1SOL    HW3  559   4.078   1.806   0.555  0.3213  0.2558  1.5955
    1SOL    MW4  560   4.002   1.822   0.596 -0.3991  0.3098  0.2860
    1SOL     OW  561   0.449   2.740   0.873 -0.3154 -0.0715  0.5238
    1SOL    HW2  562   0.378   2.803   0.859 -1.2271 -1.0929  0.5457
    1SOL    HW3  563   0.464   2.742   0.968  0.8465  1.3879  0.3281
    1SOL    MW4  564   0.441   2.749   0.884 -0.2824 -0.0136  0.5008
    1SOL     OW  565   4.224   1.115   0.266  0.2044 -0.0165  0.2393
    1SOL    HW2  566   4.191   1.060   0.196 -1.3023  0.6569  0.4008
    1SOL    HW3  567   4.254   1.053   0.333 -0.4260 -0.6391 -0.0529
    1SOL    MW4  568   4.224   1.099   0.266 -0.0777 -0.0097  0.2221
    1SOL     OW  569   4.397   1.344   0.295  0.0894 -0.0938 -0.4185
    1SOL    HW2  570   4.347   1.262   0.293  0.6055 -0.4026 -0.7087
    1SOL    HW3  571   4.333   1.412   0.273 -0.5260 -0.3229  0.6693
    1SOL    MW4  572   4.382   1.342   0.292  0.0763 -0.1649 -0.3132
    1SOL     OW  573   3.823   2.831   0.719 -0.1250  0.0866  0.0961
    1SOL    HW2  574   3.757   2.793   0.777  0.3993  0.8784  1.2295
    1SOL    HW3  575   3.907   2.803   0.755  0.1775 -0.7996 -1.2628
    1SOL    MW4  576   3.825   2.822   0.732 -0.0160  0.0739  0.0663
    1SOL     OW  577   1.991   2.090   0.723  0.2830  0.2855  0.2186
    1SOL    HW2  578   1.921   2.037   0.761  0.6544 -0.2771  0.1137
    1SOL    HW3  579   1.957   2.115   0.637  0.9660 -1.5607 -0.6178
    1SOL    MW4  580   1.977   2.086   0.717  0.4221 -0.0319  0.0944
    1SOL     OW  581   1.337   1.670   0.758  0.4116  0.3749  0.0103
    1SOL    HW2  582   1.329   1.750   0.810  0.5858 -0.6673  1.6694
    1SOL    HW3  583   1.414   1.625   0.794  0.5583 -0.3465 -1.1741
    1SOL    MW4  584   1.346   1.674   0.770  0.4539  0.1423  0.0730
    1SOL     OW  585   1.815   4.533   0.506 -0.7352 -0.1698 -0.2466
    1SOL    HW2  586   1.809   4.627   0.521 -1.1374 -0.0659 -1.0594
    1SOL    HW3  587   1.761   4.494   0.575 -0.5906  0.1951  0.0727
    1SOL    MW4  588   1.807   4.540   0.517 -0.7691 -0.1082 -0.3117
    1SOL     OW  589   3.442   2.924   0.723 -0.0985 -0.2063 -0.4000
    1SOL    HW2  590   3.465   2.933   0.630  0.3995  0.2055 -0.2359
    1SOL    HW3  591   3.403   3.008   0.746  1.7129  0.4445  0.3210
    1SOL    MW4  592   3.440   2.936   0.713  0.2060 -0.0663 -0.2832
    1SOL     OW  593   0.036   1.991   0.852  0.1694  0.0636  0.2889
    1SOL    HW2  594   0.027   1.900   0.825 -0.3608  0.2201 -0.0825
    1SOL    HW3  595  -0.044   2.034   0.819  2.1632  1.4820 -2.8560
    1SOL    MW4  596   0.024   1.985   0.844  0.3624  0.2716 -0.1749
    1SOL     OW  597   0.205   1.815   0.493 -0.2778 -0.5311 -0.1063
    1SOL    HW2  598   0.122   1.793   0.535 -0.2936  0.5658  0.4502
    1SOL    HW3  599   0.188   1.897   0.447  0.6058 -0.1071  0.3172
    1SOL    MW4  600   0.192   1.823   0.492 -0.1633 -0.3304  0.0230
    1SOL     OW  601   2.482   1.939   0.452 -0.0236  0.4722 -0.2675
    1SOL    HW2  602   2.561   1.992   0.441  0.1703  0.0530 -0.9825
    1SOL    HW3  603   2.453   1.956   0.542  0.2107  1.5292 -0.3884
    1SOL    MW4  604   2.489   1.948   0.463  0.0327  0.5565 -0.3778
    1SOL     OW  605   2.806   4.402   0.455 -0.1134  0.2574 -0.6348
    1SOL    HW2  606   2.766   4.319   0.482  0.8532 -0.5312 -1.5541
    1SOL    HW3  607   2.856   4.431   0.532 -1.0500  0.3657 -0.0633
    1SOL    MW4  608   2.807   4.395   0.469 -0.1092  0.1669 -0.6807
    1SOL     OW  609   4.239   1.810   0.456 -0.1343  0.2884 -0.3519
    1SOL    HW2  610   4.289   1.889   0.474  1.4402 -0.9481  0.8762
    1SOL    HW3  611   4.241   1.800   0.361  0.0339  1.4654 -0.4779
    1SOL    MW4  612   4.246   1.819   0.446  0.0954  0.2805 -0.2064
    1SOL     OW  613   1.279   2.836   0.443 -0.5120 -0.0298 -0.0058
    1SOL    HW2  614   1.228   2.916   0.456  0.1341  0.6068 -1.2472
    1SOL    HW3  615   1.368   2.860   0.470 -0.3942 -0.4464 -0.0174
    1SOL    MW4  616   1.284   2.850   0.448 -0.4112 -0.0007 -0.1711
    1SOL     OW  617   1.725   4.342   0.327 -0.1435  0.0242 -0.5385
    1SOL    HW2  618   1.758   4.412   0.384  0.0145 -0.6924  0.2554
    1SOL    HW3  619   1.803   4.309   0.282 -0.1477  0.0147 -0.5390
    1SOL    MW4  620   1.739   4.347   0.328 -0.1234 -0.0715 -0.4338
    1SOL     OW  621   0.658   4.511   0.509  0.6178 -0.1340 -0.2305
    1SOL    HW2  622   0.568   4.494   0.483  0.3217  0.7763  0.2062
    1SOL    HW3  623   0.685   4.432   0.556 -0.4095  0.1731  0.8736
    1SOL    MW4  624   0.650   4.498   0.512  0.4432  0.0272 -0.0272
    1SOL     OW  625   1.333   1.097   0.902  0.0938 -0.0552 -0.1892
    1SOL    HW2  626   1.260   1.129   0.850 -0.6311 -2.3665 -0.6579
    1SOL    HW3  627   1.406   1.154   0.879 -0.6918  0.1174 -2.3306
    1SOL    MW4  628   1.333   1.109   0.892 -0.1055 -0.3372 -0.5335
    1SOL     OW  629   3.794   2.202   0.497 -0.0037 -0.0260 -0.3817
    1SOL    HW2  630   3.866   2.257   0.467 -0.0411 -0.0590 -0.5287
    1SOL    HW3  631   3.716   2.256   0.486  0.3319  1.1840  2.6720
    1SOL    MW4  632   3.793   2.216   0.492  0.0358  0.1290  0.0018
    1SOL     OW  633   3.997   0.356   0.424  0.1859  0.4642  0.2792
    1SOL    HW2  634   3.906   0.376   0.404  0.3155  0.5450 -0.2246
    1SOL    HW3  635   4.000   0.260   0.423  0.3992  0.4753 -1.0282
    1SOL    MW4  636   3.985   0.346   0.421  0.2310  0.4763  0.0402
    1SOL     OW  637   3.316   1.633   0.327 -0.1606  0.4857  0.2674
    1SOL    HW2  638   3.402   1.659   0.294  0.1930  0.2154  0.9750
    1SOL    HW3  639   3.281   1.713   0.367 -0.7357  0.9099 -1.0306
    1SOL    MW4  640   3.323   1.647   0.328 -0.1898  0.5062  0.1895
    1SOL     OW  641   4.314   1.086   0.710  0.9198 -0.0509 -0.3346
    1SOL    HW2  642   4.234   1.103   0.759  0.2642  0.3557 -1.5269
    1SOL    HW3  643   4.385   1.115   0.767  0.0948  1.7008 -0.1934
    1SOL    MW4  644   4.313   1.092   0.724  0.7248  0.2339 -0.4733
    1SOL     OW  645   2.908   4.509   0.241 -0.0207  0.2702  0.5492
    1SOL    HW2  646   2.853   4.478   0.313 -0.1190  0.2816  0.4790
    1SOL    HW3  647   2.883   4.600   0.229 -0.2160  0.1849  0.3037
    1SOL    MW4  648   2.897   4.517   0.249 -0.0591  0.2604  0.5075
    1SOL     OW  649   2.677   1.950   0.876 -0.2348  0.1255 -0.5053
    1SOL    HW2  650   2.756   1.997   0.851 -1.4306  2.7755  0.4973
    1SOL    HW3  651   2.681   1.943   0.971 -0.3240 -1.3777 -0.5962
    1SOL    MW4  652   2.688   1.955   0.885 -0.4044  0.2767 -0.3850
    1SOL     OW  653   0.893   4.046   0.755 -0.3043 -0.5953 -0.4335
    1SOL    HW2  654   0.879   4.140   0.749  0.4302 -0.4676 -0.1719
    1SOL    HW3  655   0.821   4.015   0.809  0.1895  0.0053  0.5854
    1SOL    MW4  656   0.882   4.054   0.761 -0.1423 -0.4997 -0.2645
    1SOL     OW  657   3.565   3.501   0.856  0.6097 -0.5143 -0.2889
    1SOL    HW2  658   3.590   3.440   0.786 -1.0847  0.1048 -1.4873
    1SOL    HW3  659   3.492   3.551   0.818  0.3650  0.5606  1.5600
    1SOL    MW4  660   3.558   3.500   0.841  0.3536 -0.2906 -0.2030
    1SOL     OW  661   2.055   4.630   0.868  0.2305 -0.3521  0.0120
    1SOL    HW2  662   1.979   4.685   0.852  0.7363  0.1534 -0.6711
    1SOL    HW3  663   2.129   4.681   0.835  0.5283 -2.1094 -2.1983
    1SOL    MW4  664   2.055   4.644   0.861  0.3364 -0.5174 -0.3698
    1SOL     OW  665   2.678   4.030   0.750  0.3298  0.2280  0.3350
    1SOL    HW2  666   2.714   4.080   0.823 -1.9793  2.7912 -0.1522
    1SOL    HW3  667   2.660   4.097   0.683 -0.0720 -1.6991 -1.5373
    1SOL    MW4  668   2.680   4.046   0.751 -0.0279  0.3119  0.0237
    1SOL     OW  669   2.215   1.970   0.848 -0.1657 -0.3787 -0.2167
    1SOL    HW2  670   2.140   2.017   0.813  0.5715  0.5924 -0.5281
    1SOL    HW3  671   2.201   1.879   0.823 -2.0179 -0.4761  1.0917
    1SOL    MW4  672   2.204   1.964   0.840 -0.3128 -0.2635 -0.0852
    1SOL     OW  673   1.336   2.746   0.833  0.0637  0.2074 -0.7227
    1SOL    HW2  674   1.405   2.811   0.819 -1.0041  1.7916  1.0661
    1SOL    HW3  675   1.335   2.732   0.928 -0.4089 -1.6741 -0.9860
    1SOL    MW4  676   1.345   2.753   0.844 -0.1396  0.1683 -0.5214
    1SOL     OW  677   1.661   1.612   0.442 -0.0189 -0.3253  0.0629
    1SOL    HW2  678   1.691   1.669   0.371 -0.2136 -0.4274 -0.1002
    1SOL    HW3  679   1.571   1.638   0.458  0.1941  0.0616  0.6362
    1SOL    MW4  680   1.653   1.623   0.435 -0.0163 -0.2877  0.1170
    1SOL     OW  681   2.664   1.399   0.480 -0.0149  0.2915 -0.0653
    1SOL    HW2  682   2.753   1.393   0.446  0.5443  1.9321  1.0347
    1SOL    HW3  683   2.649   1.493   0.491 -0.3935 -0.1435  3.5702
    1SOL    MW4  684   2.673   1.411   0.477  0.0091  0.4505  0.5595
    1SOL     OW  685   0.925   0.365   0.647 -0.1505 -0.0852 -0.0558
    1SOL    HW2  686   0.894   0.343   0.734 -0.6537  1.9636  0.3124
    1SOL    HW3  687   1.010   0.406   0.661  0.9446 -2.0662 -0.7487
    1SOL    MW4  688   0.932   0.367   0.660 -0.0725 -0.0763 -0.0986
    1SOL     OW  689   1.151   2.364   0.848  0.2283 -0.0561  0.0844
    1SOL    HW2  690   1.145   2.361   0.943  0.9964  0.6155  0.1638
    1SOL    HW3  691   1.158   2.272   0.822  0.8968 -0.2045  0.7465
    1SOL    MW4  692   1.151   2.351   0.857  0.4178  0.0126  0.1822
    1SOL     OW  693   3.026   2.524   0.332 -0.3086 -0.5274 -0.6392
    1SOL    HW2  694   3.010   2.541   0.240 -0.3491  0.0715 -0.5244
    1SOL    HW3  695   2.956   2.571   0.378  0.2474 -0.0618 -0.2605
    1SOL    MW4  696   3.014   2.533   0.326 -0.2408 -0.3870 -0.5741
    1SOL     OW  697   0.861   2.747   0.816 -0.3122  0.1145  0.4770
    1SOL    HW2  698   0.880   2.662   0.775  2.2477  1.2159 -0.7866
    1SOL    HW3  699   0.789   2.783   0.764  0.2917 -0.2230 -0.6255
    1SOL    MW4  700   0.854   2.741   0.804  0.1053  0.2155  0.1649
    1SOL     OW  701   2.758   2.846   0.645  0.1582  0.1760 -0.1468
    1SOL    HW2  702   2.697   2.804   0.706 -1.0016  0.9703 -0.7374
    1SOL    HW3  703   2.705   2.911   0.599  0.9810 -0.5017 -2.1114
    1SOL    MW4  704   2.743   2.849   0.647  0.1135  0.1912 -0.4839
    1SOL     OW  705   2.578   3.377   0.489 -0.0059 -0.2317  0.3722
    1SOL    HW2  706   2.655   3.327   0.513  0.7454  1.5494  1.8372
    1SOL    HW3  707   2.512   3.353   0.554 -0.1418 -0.4964  0.1353
    1SOL    MW4  708   2.579   3.367   0.501  0.0753 -0.0315  0.5342
    1SOL     OW  709   2.657   3.907   0.409 -0.2664 -0.2960 -0.2339
    1SOL    HW2  710   2.731   3.882   0.352 -1.8908 -0.7486 -2.1895
    1SOL    HW3  711   2.632   3.826   0.452 -0.1695 -0.3225 -0.2275
    1SOL    MW4  712   2.664   3.893   0.407 -0.4680 -0.3591 -0.4911
    1SOL     OW  713   2.030   3.160   0.764  0.2967 -0.3791 -0.0344
    1SOL    HW2  714   1.959   3.224   0.762  0.2744 -0.3929  0.2077
    1SOL    HW3  715   2.074   3.169   0.680  0.5209  0.2172  0.1390
    1SOL    MW4  716   2.026   3.169   0.753  0.3231 -0.3026  0.0204
    1SOL     OW  717   0.780   1.093   0.181 -0.0890  0.5103 -0.3443
    1SOL    HW2  718   0.752   1.055   0.098  2.5461 -1.7218 -0.2908
    1SOL    HW3  719   0.726   1.050   0.247  1.6505 -1.9614 -0.4523
    1SOL    MW4  720   0.769   1.082   0.179  0.4882 -0.1104 -0.3515
    1SOL     OW  721   4.427   3.518   0.887  0.5130  0.3451  0.3225
    1SOL    HW2  722   4.356   3.567   0.845 -0.3618 -0.6192  0.6841
    1SOL    HW3  723   4.507   3.557   0.849 -0.2610 -1.8541 -3.8690
    1SOL    MW4  724   4.428   3.530   0.876  0.2956 -0.0720 -0.1828
    1SOL     OW  725   2.957   0.525   0.778 -0.2973 -0.6496 -0.1395
    1SOL    HW2  726   2.877   0.485   0.812 -1.0645  1.0142  0.0854
    1SOL    HW3  727   2.946   0.619   0.796  1.9394 -0.4547  0.3895
    1SOL    MW4  728   2.945   0.532   0.785 -0.1037 -0.4044 -0.0401
    1SOL     OW  729   2.295   4.152   0.222  0.1280 -0.4627 -0.4305
    1SOL    HW2  730   2.323   4.064   0.247 -1.2896 -0.9574 -0.5749
    1SOL    HW3  731   2.293   4.149   0.126  0.8460 -0.0194 -0.4682
    1SOL    MW4  732   2.299   4.140   0.212  0.0353 -0.4692 -0.4545
    1SOL     OW  733   2.679   0.162   0.807  0.1864  0.7037  0.1118
    1SOL    HW2  734   2.694   0.137   0.716 -1.2090  0.4600 -0.0614
    1SOL    HW3  735   2.607   0.106   0.836  0.8441  0.5355  1.4785
    1SOL    MW4  736   2.672   0.151   0.799  0.0889  0.6494  0.2692
    1SOL     OW  737   2.306   0.340   0.914 -0.1845 -0.4871  0.0488
    1SOL    HW2  738   2.222   0.372   0.881  0.5305  0.4732 -0.8514
    1SOL    HW3  739   2.371   0.398   0.875  0.6769  0.9536  3.4402
    1SOL    MW4  740   2.304   0.352   0.904  0.0236 -0.1703  0.3775
    1SOL     OW  741   3.566   0.409   1.064  0.8713  0.4820 -0.3855
    1SOL    HW2  742   3.494   0.446   1.115  0.0505 -1.4616 -0.1143
    1SOL    HW3  743   3.645   0.440   1.109  0.1794  0.3342  0.9593
    1SOL    MW4  744   3.567   0.418   1.077  0.6719  0.2061 -0.1723
    1SOL     OW  745   4.083   2.980   0.355 -0.4296 -0.1177 -0.2844
    1SOL    HW2  746   4.148   3.014   0.295 -0.7523  1.1365  0.0625
    1SOL    HW3  747   4.132   2.957   0.434 -0.1324 -0.9714 -0.7176
    1SOL    MW4  748   4.098   2.981   0.358 -0.4325 -0.0648 -0.2958
    1SOL     OW  749   1.124   1.209   0.753  0.0906  0.3952  0.3529
    1SOL    HW2  750   1.116   1.304   0.740 -0.6944  0.4566  1.2367
    1SOL    HW3  751   1.131   1.174   0.664  1.9182  1.4039  0.0746
    1SOL    MW4  752   1.124   1.217   0.739  0.2282  0.5364  0.4328
    1SOL     OW  753   3.421   2.326   0.848  0.2180 -0.1071  0.2435
    1SOL    HW2  754   3.402   2.345   0.940 -1.9902 -0.5790 -0.0883
    1SOL    HW3  755   3.498   2.379   0.827 -0.8529  2.0118  1.6362
    1SOL    MW4  756   3.429   2.335   0.857 -0.2146  0.1099  0.3835
    1SOL     OW  757   3.801   3.624   0.542  0.0811  0.0453 -0.1181
    1SOL    HW2  758   3.797   3.632   0.638 -0.1257  0.6313 -0.1715
    1SOL    HW3  759   3.718   3.661   0.512 -0.4685 -1.4399 -0.4503
    1SOL    MW4  760   3.789   3.630   0.551 -0.0186 -0.0734 -0.1690
    1SOL     OW  761   1.827   0.843   0.770  0.1618 -0.0010  0.2124
    1SOL    HW2  762   1.743   0.831   0.814  0.2602  1.9776  0.9947
    1SOL    HW3  763   1.890   0.797   0.826  0.0520  1.2193  1.3861
    1SOL    MW4  764   1.824   0.835   0.784  0.1603  0.4209  0.4705
    1SOL     OW  765   4.054   0.049   0.767 -0.0454 -0.3670 -0.1416
    1SOL    HW2  766   4.125   0.003   0.810 -1.3038 -0.9241  1.3927
    1SOL    HW3  767   4.051   0.135   0.810  1.5810  0.7783 -2.2355
    1SOL    MW4  768   4.063   0.054   0.778  0.0033 -0.2894 -0.2155
    1SOL     OW  769   3.325   4.430   0.796  0.3302  0.0016  0.7244
    1SOL    HW2  770   3.308   4.516   0.833 -1.0112 -0.3315  0.8952
    1SOL    HW3  771   3.251   4.376   0.824 -0.7089 -0.2677 -2.4068
    1SOL    MW4  772   3.313   4.434   0.805  0.0160 -0.0782  0.3338
    1SOL     OW  773   1.176   4.523   0.395 -0.5574  0.6077 -0.2430
    1SOL    HW2  774   1.146   4.602   0.351 -0.7611 -0.9602 -3.0692
    1SOL    HW3  775   1.262   4.504   0.355 -0.9134 -1.0446 -0.2845
    1SOL    MW4  776   1.184   4.531   0.384 -0.6313  0.1831 -0.6213
    1SOL     OW  777   3.347   3.623   0.738  0.0715 -0.2070  0.1587
    1SOL    HW2  778   3.272   3.570   0.767  0.0085  0.5463  1.4278
    1SOL    HW3  779   3.320   3.713   0.756  0.8577  0.1373 -0.3919
    1SOL    MW4  780   3.334   3.628   0.744  0.1667 -0.0620  0.2536
    1SOL     OW  781   1.159   3.525   0.477 -0.0798 -0.1394  0.0471
    1SOL    HW2  782   1.128   3.543   0.565 -2.6986 -1.8955 -0.4905
    1SOL    HW3  783   1.219   3.452   0.487 -0.1100 -0.1163  0.3993
    1SOL    MW4  784   1.163   3.518   0.490 -0.4294 -0.3681  0.0226
    1SOL     OW  785   4.369   4.141   0.315 -0.0956  0.0811 -0.5469
    1SOL    HW2  786   4.423   4.204   0.266 -1.1777  0.5562 -1.1688
    1SOL    HW3  787   4.289   4.190   0.335  0.3161 -0.1294  1.6840
    1SOL    MW4  788   4.365   4.156   0.311 -0.1841  0.1159 -0.3346
    1SOL     OW  789   3.139   1.803   0.487 -0.2037 -0.3312  0.0962
    1SOL    HW2  790   3.140   1.735   0.555 -0.3803 -0.2819  0.1482
    1SOL    HW3  791   3.058   1.787   0.439  1.0491 -1.8510 -1.6005
    1SOL    MW4  792   3.129   1.792   0.490 -0.0618 -0.5251 -0.1208
    1SOL     OW  793   2.564   2.458   0.926  0.1266  0.1171 -0.1764
    1SOL    HW2  794   2.548   2.417   1.011 -0.9976 -0.5209 -0.6675
    1SOL    HW3  795   2.629   2.402   0.884  0.5406  0.3250  0.1837
    1SOL    MW4  796   2.570   2.445   0.932  0.0329  0.0603 -0.1937
    1SOL     OW  797   0.236   1.264   0.775  0.1356  0.0558 -0.3353
    1SOL    HW2  798   0.262   1.355   0.790 -0.3115  0.2035 -0.4474
    1SOL    HW3  799   0.308   1.212   0.810  0.2325  0.4476  0.0462
    1SOL    MW4  800   0.249   1.269   0.782  0.0894  0.1271 -0.2997
    1SOL     OW  801   2.433   2.851   0.722 -0.7683 -0.0998  0.1683
    1SOL    HW2  802   2.369   2.904   0.769 -0.3458  0.3191  0.2823
    1SOL    HW3  803   2.381   2.788   0.673 -1.3378  1.0756 -0.7772
    1SOL    MW4  804   2.418   2.850   0.722 -0.7877  0.1109  0.0587
    1SOL     OW  805   0.871   0.855   0.546 -0.1987  0.3203  0.3473
    1SOL    HW2  806   0.846   0.764   0.531  2.2955 -0.1669 -1.0732
    1SOL    HW3  807   0.886   0.861   0.640 -1.4525 -0.4361  0.6115
    1SOL    MW4  808   0.870   0.844   0.556 -0.0350  0.1562  0.1948
    1SOL     OW  809   3.155   1.192   0.821 -0.3396  0.1493  0.1440
    1SOL    HW2  810   3.152   1.199   0.916  0.3225 -0.0252  0.1778
    1SOL    HW3  811   3.076   1.238   0.791  0.0493  1.2015  0.7186
    1SOL    MW4  812   3.144   1.199   0.829 -0.2010  0.2651  0.2242
    1SOL     OW  813   0.637   2.852   0.697  0.1141 -0.3340  0.2619
    1SOL    HW2  814   0.575   2.809   0.757 -0.5691  0.2882  0.0078
    1SOL    HW3  815   0.660   2.934   0.741 -0.9596  0.4741 -0.6492
    1SOL    MW4  816   0.632   2.857   0.711 -0.1177 -0.1452  0.1082
    1SOL     OW  817   1.030   1.461   0.367  0.0222  0.2487  0.2280
    1SOL    HW2  818   1.071   1.488   0.285  0.1507 -1.5918 -0.3514
    1SOL    HW3  819   0.999   1.372   0.350 -1.6284  0.5341  1.5930
    1SOL    MW4  820   1.032   1.453   0.354 -0.1785  0.0436  0.3316
    1SOL     OW  821   4.302   0.017   1.166  0.6674 -0.3610  0.4505
    1SOL    HW2  822   4.210   0.040   1.177  1.0576  1.1280  0.7609
    1SOL    HW3  823   4.310  -0.070   1.205 -0.4327 -0.1311  1.2208
    1SOL    MW4  824   4.291   0.009   1.173  0.5741 -0.1345  0.5932
    1SOL     OW  825   4.246   0.727   1.122 -0.4168 -0.0691  0.0850
    1SOL    HW2  826   4.332   0.757   1.152 -0.7100 -0.5649  1.4547
    1SOL    HW3  827   4.240   0.636   1.153 -1.0825 -0.3193 -0.7551
    1SOL    MW4  828   4.256   0.719   1.130 -0.5431 -0.1676  0.1547
    1SOL     OW  829   1.097   2.086   0.761  0.1316  0.2332  0.1001
    1SOL    HW2  830   1.028   2.034   0.802  0.1340  0.6503  0.6340
    1SOL    HW3  831   1.070   2.093   0.669  0.5225 -1.3543 -0.1630
    1SOL    MW4  832   1.085   2.080   0.754  0.1833  0.0787  0.1358
    1SOL     OW  833   0.694   0.066   0.658  0.2579  0.0168  0.0862
    1SOL    HW2  834   0.772   0.089   0.608 -1.1464  0.5205 -1.9425
    1SOL    HW3  835   0.658  -0.010   0.612 -0.5774 -0.0481  0.8451
    1SOL    MW4  836   0.700   0.059   0.645 -0.0376  0.0747 -0.0813
    1SOL     OW  837   3.649   1.948   0.869  0.1614  0.1694 -0.2296
    1SOL    HW2  838   3.708   2.009   0.823 -0.4559 -0.8526 -2.4205
    1SOL    HW3  839   3.562   1.985   0.857  0.0295  0.0821  0.4385
    1SOL    MW4  840   3.645   1.961   0.861  0.0625  0.0231 -0.4305
    1SOL     OW  841   2.381   1.371   0.503 -0.1935 -0.0045 -0.4305
    1SOL    HW2  842   2.387   1.341   0.594  0.1300 -1.0363 -0.7851
    1SOL    HW3  843   2.472   1.386   0.477 -0.2592 -0.1032 -0.7150
    1SOL    MW4  844   2.394   1.369   0.512 -0.1595 -0.1537 -0.5148
    1SOL     OW  845   2.960   0.680   0.374 -0.0554 -0.1768  0.1999
    1SOL    HW2  846   3.022   0.629   0.322  0.6316 -0.5701  1.3782
    1SOL    HW3  847   2.914   0.614   0.427 -1.7334  0.0748 -0.9144
    1SOL    MW4  848   2.962   0.664   0.374 -0.1860 -0.1956  0.2083
    1SOL     OW  849   1.745   0.152   0.552 -0.2592  0.5223  0.2256
    1SOL    HW2  850   1.777   0.227   0.502 -0.9513  0.2306 -0.6605
    1SOL    HW3  851   1.659   0.133   0.515  0.6245 -1.7831 -0.7484
    1SOL    MW4  852   1.738   0.159   0.540 -0.2339  0.1796 -0.0198
    1SOL     OW  853   2.637   1.703   0.480  0.4534 -0.3692  0.1626
    1SOL    HW2  854   2.574   1.775   0.478 -0.9999 -1.5953  0.2682
    1SOL    HW3  855   2.680   1.710   0.565  0.6130  0.6161 -0.0028
    1SOL    MW4  856   2.634   1.713   0.491  0.2825 -0.4011  0.1548
    1SOL     OW  857   3.798   3.630   0.822  0.1006 -0.0759  0.4811
    1SOL    HW2  858   3.861   3.558   0.814  1.2655  0.6601  2.5895
    1SOL    HW3  859   3.717   3.588   0.850 -0.3380 -1.0046 -2.0240
    1SOL    MW4  860   3.796   3.615   0.824  0.1965 -0.1011  0.4287
    1SOL     OW  861   4.206   1.534   0.249  0.2216  0.2503  0.1461
    1SOL    HW2  862   4.137   1.533   0.315  0.4961 -2.2579  0.4379
    1SOL    HW3  863   4.199   1.620   0.208 -1.1002  1.1617  2.2289
    1SOL    MW4  864   4.196   1.545   0.252  0.0834  0.0395  0.4595
    1SOL     OW  865   2.567   2.502   0.524  0.1667  0.1387 -0.0289
    1SOL    HW2  866   2.654   2.542   0.520  0.0112  0.3870 -1.4496
    1SOL    HW3  867   2.581   2.419   0.568  1.1147  0.2011 -0.1863
    1SOL    MW4  868   2.580   2.497   0.529  0.2711  0.1798 -0.2371
    1SOL     OW  869   3.361   0.476   0.398 -0.3717  0.2746 -0.5285
    1SOL    HW2  870   3.347   0.507   0.487  0.4330  1.8611 -0.9325
    1SOL    HW3  871   3.410   0.394   0.408  1.0849  1.2529  0.4292
    1SOL    MW4  872   3.365   0.469   0.411 -0.0734  0.6130 -0.4554
    1SOL     OW  873   3.106   0.923   0.749 -0.7605  0.5398 -0.4864
    1SOL    HW2  874   3.187   0.882   0.778 -1.6256 -0.8189  0.0344
    1SOL    HW3  875   3.118   1.016   0.770  1.0587  0.5113 -1.3420
    1SOL    MW4  876   3.118   0.930   0.756 -0.6344  0.3569 -0.5306
    1SOL     OW  877   3.770   2.589   0.360  0.1005  0.3479 -0.0257
    1SOL    HW2  878   3.712   2.610   0.287  0.1885 -0.9595 -0.4739
    1SOL    HW3  879   3.786   2.674   0.402 -1.8245  0.7903 -0.1124
    1SOL    MW4  880   3.764   2.603   0.356 -0.1419  0.2341 -0.0963
    1SOL     OW  881   3.046   2.744   0.865 -0.5593 -0.4360 -0.1970
    1SOL    HW2  882   3.000   2.828   0.866  0.2263  0.0155 -1.0398
    1SOL    HW3  883   3.095   2.744   0.782 -1.3705 -2.1651 -0.7057
    1SOL    MW4  884   3.047   2.755   0.854 -0.5627 -0.6046 -0.3753
    1SOL     OW  885   2.888   2.040   0.467  0.0800  0.5170  0.0681
    1SOL    HW2  886   2.893   2.022   0.561 -0.8644 -0.3514 -0.0352
    1SOL    HW3  887   2.925   1.962   0.425 -0.7500  0.3186 -0.3093
    1SOL    MW4  888   2.893   2.027   0.474 -0.1545  0.3762  0.0047
    1SOL     OW  889   1.692   1.309   0.402  0.3592  0.1564  0.0072
    1SOL    HW2  890   1.640   1.260   0.465 -0.9507 -1.7658 -2.4981
    1SOL    HW3  891   1.640   1.387   0.384  0.3949  0.3505  0.7181
    1SOL    MW4  892   1.678   1.313   0.408  0.1909 -0.0715 -0.2295
    1SOL     OW  893   2.635   4.187   0.534  0.1308  0.2649  0.0207
    1SOL    HW2  894   2.540   4.198   0.534 -0.0202 -0.7572  2.1016
    1SOL    HW3  895   2.650   4.109   0.480 -0.3542 -0.4118  0.8405
    1SOL    MW4  896   2.624   4.178   0.527  0.0467  0.0405  0.4035
    1SOL     OW  897   0.967   4.198   0.201  0.1277  0.0450  0.5891
    1SOL    HW2  898   0.879   4.167   0.220 -0.0963  0.1529 -0.2673
    1SOL    HW3  899   0.971   4.284   0.243 -0.7708  0.8016 -0.8463
    1SOL    MW4  900   0.956   4.205   0.209 -0.0204  0.1593  0.2867
    1SOL     OW  901   0.004   1.714   0.811 -0.0278  0.0492 -0.5215
    1SOL    HW2  902   0.078   1.655   0.797  0.1285  0.1491 -0.1017
    1SOL    HW3  903  -0.061   1.660   0.856  0.4928  0.4632  0.7487
    1SOL    MW4  904   0.005   1.699   0.815  0.0615  0.1171 -0.2986
    1SOL     OW  905   1.815   1.812   0.316  0.2304  0.4813 -0.1384
    1SOL    HW2  906   1.879   1.750   0.350  0.1189  0.3833 -0.1050
    1SOL    HW3  907   1.859   1.857   0.244 -0.0139 -0.3252 -0.7983
    1SOL    MW4  908   1.829   1.810   0.311  0.1836  0.3619 -0.2211
    1SOL     OW  909   3.956   4.021   0.491  0.0739 -0.5854 -0.0873
    1SOL    HW2  910   3.875   4.065   0.466  0.0239 -0.6770 -0.0879
    1SOL    HW3  911   3.957   3.940   0.439  0.3298 -0.4242 -0.3336
    1SOL    MW4  912   3.945   4.016   0.481  0.1011 -0.5760 -0.1199
    1SOL     OW  913   2.360   0.980   0.438 -0.1686  0.4363  0.0937
    1SOL    HW2  914   2.390   0.889   0.445 -1.4768 -0.1634 -1.7007
    1SOL    HW3  915   2.440   1.032   0.436  0.6107 -0.7502  0.1561
    1SOL    MW4  916   2.375   0.975   0.439 -0.2387  0.2006 -0.1348
    1SOL     OW  917   0.887   1.669   0.762 -0.0277  0.2375  0.1257
    1SOL    HW2  918   0.821   1.631   0.820 -2.3793  0.1355 -2.5434
    1SOL    HW3  919   0.887   1.763   0.784 -1.3406  0.3003 -0.1120
    1SOL    MW4  920   0.878   1.677   0.773 -0.5112  0.2322 -0.2578
    1SOL     OW  921   3.401   1.316   0.752 -0.6698 -0.0660  0.3908
    1SOL    HW2  922   3.408   1.344   0.661  0.8930  2.4500  1.2439
    1SOL    HW3  923   3.320   1.265   0.755 -0.8890  0.0334 -2.3320
    1SOL    MW4  924   3.392   1.313   0.740 -0.4930  0.2789  0.1442
    1SOL     OW  925   1.138   4.364   1.055  0.1595  0.1042  0.0066
    1SOL    HW2  926   1.158   4.337   0.965 -0.8169  2.0926 -0.8432
    1SOL    HW3  927   1.046   4.342   1.066  0.1425  0.3466  0.3429
    1SOL    MW4  928   1.129   4.358   1.045  0.0284  0.3982 -0.0612
    1SOL     OW  929   4.169   1.826   0.184 -0.2827 -0.6091 -0.0296
    1SOL    HW2  930   4.075   1.823   0.202 -0.2469 -0.4876  0.1793
    1SOL    HW3  931   4.188   1.919   0.169  0.1290 -0.3766  1.7309
    1SOL    MW4  932   4.159   1.838   0.185 -0.2232 -0.5623  0.2302
    1SOL     OW  933   2.254   3.516   0.827  0.1430  0.2233  0.2064
    1SOL    HW2  934   2.232   3.519   0.920 -1.2301 -1.3774 -0.0492
    1SOL    HW3  935   2.190   3.573   0.786  0.2757  0.3300  0.1464
    1SOL    MW4  936   2.243   3.524   0.834 -0.0207  0.0262  0.1648
    1SOL     OW  937   2.190   1.188   0.839  0.5467 -0.0593 -0.0311
    1SOL    HW2  938   2.203   1.110   0.785  0.1826  0.1664 -0.4492
    1SOL    HW3  939   2.107   1.225   0.809 -0.4372 -0.7639  1.7158
    1SOL    MW4  940   2.181   1.182   0.828  0.3686 -0.1227  0.1442
    1SOL     OW  941   2.566   4.510   0.580 -0.1449 -0.0192  0.3207
    1SOL    HW2  942   2.622   4.466   0.516  1.8879  2.4339  0.3330
    1SOL    HW3  943   2.487   4.532   0.532 -0.0680 -1.2481 -0.3985
    1SOL    MW4  944   2.563   4.507   0.565  0.1335  0.1421  0.2275
    1SOL     OW  945   0.796   0.578   0.504 -0.2283 -0.0252  0.1057
    1SOL    HW2  946   0.829   0.509   0.562 -0.0651 -1.7136 -1.9729
    1SOL    HW3  947   0.701   0.568   0.507 -0.2654  0.4739  0.7682
    1SOL    MW4  948   0.788   0.567   0.512 -0.2117 -0.1821 -0.0811
    1SOL     OW  949   0.680   1.532   0.893 -0.0788 -0.1580  0.7531
    1SOL    HW2  950   0.606   1.587   0.866 -1.0155 -1.6201  0.2321
    1SOL    HW3  951   0.672   1.525   0.988 -0.4576 -0.0727  0.7281
    1SOL    MW4  952   0.669   1.538   0.902 -0.2524 -0.3397  0.6811
    1SOL     OW  953   2.220   2.535   0.294  0.0965  0.3365 -0.1897
    1SOL    HW2  954   2.237   2.618   0.249  1.7020  0.3633  0.4380
    1SOL    HW3  955   2.297   2.482   0.276  1.0469  0.5476  2.9731
    1SOL    MW4  956   2.232   2.539   0.286  0.4339  0.3679  0.3104
    1SOL     OW  957   0.894   3.237   0.774 -0.1700 -0.5299  0.5933
    1SOL    HW2  958   0.864   3.229   0.683 -0.0530  0.5678  0.4458
    1SOL    HW3  959   0.972   3.182   0.778 -0.2574 -0.6949  0.0591
    1SOL    MW4  960   0.901   3.229   0.762 -0.1661 -0.4067  0.5034
    1SOL     OW  961   1.797   2.715   0.798  0.4384  0.7020 -0.2239
    1SOL    HW2  962   1.888   2.738   0.782  1.6473 -2.7916  1.0479
    1SOL    HW3  963   1.788   2.627   0.762 -2.0032  0.3928  1.0403
    1SOL    MW4  964   1.808   2.706   0.791  0.2757  0.2003  0.1107
    1SOL     OW  965   3.207   2.747   0.641  0.5233 -0.0530  0.1461
    1SOL    HW2  966   3.277   2.784   0.695 -0.3097  1.1481  0.4219
    1SOL    HW3  967   3.225   2.653   0.640  2.2253  0.2626  0.0738
    1SOL    MW4  968   3.218   2.739   0.648  0.6380  0.1473  0.1730
    1SOL     OW  969   3.753   4.191   0.415 -0.0232  0.3107 -0.2603
    1SOL    HW2  970   3.805   4.202   0.336  1.3228  0.1087  0.5709
    1SOL    HW3  971   3.731   4.280   0.442  1.1111  0.4866  0.1442
    1SOL    MW4  972   3.757   4.204   0.408  0.3040  0.3076 -0.0973
    1SOL     OW  973   1.350   0.921   0.496 -0.0903 -0.4549 -0.1813
    1SOL    HW2  974   1.355   0.883   0.584 -0.0052  0.9629  0.4426
    1SOL    HW3  975   1.414   0.872   0.445  1.6144  0.3242  1.1717
    1SOL    MW4  976   1.359   0.909   0.501  0.1459 -0.1650  0.0795
    1SOL     OW  977   3.651   2.456   0.766  0.2852  0.1810 -0.8163
    1SOL    HW2  978   3.624   2.437   0.676  1.5579 -0.2853 -1.0978
    1SOL    HW3  979   3.631   2.549   0.777 -2.6206 -0.4127 -0.6050
    1SOL    MW4  980   3.644   2.466   0.755  0.0699  0.0410 -0.8256
    1SOL     OW  981   2.467   0.719   0.396  0.0742  0.1078 -0.1168
    1SOL    HW2  982   2.532   0.741   0.329 -0.8573 -0.1262 -1.1065
    1SOL    HW3  983   2.474   0.624   0.407 -0.8075 -0.0635 -0.9751
    1SOL    MW4  984   2.476   0.709   0.389 -0.1650  0.0544 -0.3606
    1SOL     OW  985   4.283   1.497   0.846  0.3831  0.3403  0.0322
    1SOL    HW2  986   4.288   1.501   0.942 -0.6811 -1.0972  0.1589
    1SOL    HW3  987   4.192   1.519   0.826 -0.1695 -2.2849 -0.4514
    1SOL    MW4  988   4.272   1.501   0.856  0.1698 -0.1957 -0.0148
    1SOL     OW  989   0.737   2.363   0.829  0.0801  0.1730  0.3678
    1SOL    HW2  990   0.725   2.379   0.922  0.0264 -1.2752  0.6235
    1SOL    HW3  991   0.666   2.411   0.786 -1.4724 -1.2933  1.2561
    1SOL    MW4  992   0.726   2.371   0.835 -0.1318 -0.2115  0.5188
    1SOL     OW  993   2.105   4.357   0.787 -0.2376 -0.2739  0.4581
    1SOL    HW2  994   2.076   4.444   0.815 -0.1762 -0.1659  0.1829
    1SOL    HW3  995   2.074   4.349   0.697  2.2622  0.6143 -0.5212
    1SOL    MW4  996   2.097   4.368   0.779  0.1001 -0.1431  0.2926
    1SOL     OW  997   2.532   0.214   0.409 -0.2088 -0.4706 -0.0715
    1SOL    HW2  998   2.440   0.194   0.428  0.0627 -1.8744 -0.1647
    1SOL    HW3  999   2.581   0.166   0.476  0.4512  0.5491  0.1907
    1SOL    MW4 1000   2.526   0.205   0.420 -0.0858 -0.5213 -0.0492
    1SOL     OW 1001   3.458   0.886   0.490 -0.5390 -0.0370 -0.1634
    1SOL    HW2 1002   3.369   0.857   0.472 -0.8690  0.7183  0.2201
    1SOL    HW3 1003   3.478   0.947   0.419 -0.5076  0.1750  0.0286
    1SOL    MW4 1004   3.449   0.890   0.478 -0.5782  0.0906 -0.0874
    1SOL     OW 1005   1.667   4.406   0.709  0.0408  0.8972  0.2694
    1SOL    HW2 1006   1.654   4.484   0.763  0.2736  0.8844  0.3438
    1SOL    HW3 1007   1.735   4.356   0.754  1.6561  1.8291 -1.0456
    1SOL    MW4 1008   1.674   4.410   0.722  0.2846  1.0185  0.1057
    1SOL     OW 1009   1.332   0.849   0.771 -0.2666 -0.1920 -0.4098
    1SOL    HW2 1010   1.340   0.935   0.813 -2.3044  0.4312 -1.2573
    1SOL    HW3 1011   1.275   0.799   0.828  1.4300 -1.2273  0.4132
    1SOL    MW4 1012   1.326   0.854   0.784 -0.3116 -0.2464 -0.4129
    1SOL     OW 1013   3.153   0.536   0.220 -0.0538  0.6068 -0.3812
    1SOL    HW2 1014   3.228   0.517   0.276 -0.8378 -0.5168  0.3204
    1SOL    HW3 1015   3.190   0.576   0.142  1.3979 -1.0429 -0.5705
    1SOL    MW4 1016   3.168   0.539   0.217  0.0341  0.2409 -0.3136
    1SOL     OW 1017   3.710   0.431   0.429  0.1510  0.0195  0.4776
    1SOL    HW2 1018   3.633   0.375   0.440  0.7195 -0.9248 -0.1917
    1SOL    HW3 1019   3.675   0.516   0.404 -0.6052 -0.9435 -1.8274
    1SOL    MW4 1020   3.696   0.435   0.427  0.1264 -0.2322  0.0852
    1SOL     OW 1021   0.659   3.684   0.727  0.1623  0.2171  0.2584
    1SOL    HW2 1022   0.695   3.671   0.639  0.5741 -0.2915  0.5005
    1SOL    HW3 1023   0.577   3.634   0.727 -0.3470  1.0478 -0.1636
    1SOL    MW4 1024   0.653   3.676   0.715  0.1495  0.2596  0.2347
    1SOL     OW 1025   3.111   3.823   0.437  0.4867 -0.5008  0.5419
    1SOL    HW2 1026   3.036   3.824   0.497 -0.4889 -1.4277 -0.6227
    1SOL    HW3 1027   3.146   3.912   0.440  0.5822 -0.5878  2.6310
    1SOL    MW4 1028   3.105   3.835   0.445  0.3705 -0.6344  0.6638
    1SOL     OW 1029   3.644   0.531   0.804  0.3150 -0.4672  0.4289
    1SOL    HW2 1030   3.614   0.479   0.879 -0.2210 -0.8726 -0.0626
    1SOL    HW3 1031   3.703   0.596   0.842 -0.5520 -0.1783  1.3003
    1SOL    MW4 1032   3.648   0.532   0.819  0.1299 -0.4827  0.4790
    1SOL     OW 1033   4.209   3.700   0.459 -0.3037  0.4957  0.0255
    1SOL    HW2 1034   4.115   3.714   0.447 -0.4195 -1.4670 -1.6368
    1SOL    HW3 1035   4.227   3.618   0.413  2.0275  0.2741  1.2748
    1SOL    MW4 1036   4.199   3.691   0.451 -0.0114  0.2077 -0.0289
    1SOL     OW 1037   2.655   2.143   0.398  0.3076 -0.3705  0.4701
    1SOL    HW2 1038   2.638   2.188   0.481 -1.3214  0.2560 -0.1824
    1SOL    HW3 1039   2.742   2.106   0.409  0.8505  1.2126  1.8058
    1SOL    MW4 1040   2.664   2.144   0.410  0.1643 -0.0792  0.5603
    1SOL     OW 1041   4.087   1.268   0.466  0.3606 -0.1158 -0.2652
    1SOL    HW2 1042   4.160   1.287   0.525  1.4046 -0.1989 -1.5227
    1SOL    HW3 1043   4.125   1.218   0.395 -1.0198 -0.5714 -0.7001
    1SOL    MW4 1044   4.102   1.264   0.464  0.3161 -0.1869 -0.4885
    1SOL     OW 1045   1.103   1.037   0.517  0.0332 -0.0349  0.6014
    1SOL    HW2 1046   1.039   0.974   0.549 -1.1575  0.4019 -0.8918
    1SOL    HW3 1047   1.178   0.984   0.491 -1.2835 -0.9489 -1.4442
    1SOL    MW4 1048   1.105   1.022   0.518 -0.2977 -0.0978  0.1345
    1SOL     OW 1049   3.413   1.427   0.491  0.1342 -0.0101  0.4288
    1SOL    HW2 1050   3.393   1.512   0.454 -1.2122 -0.9200 -0.9869
    1SOL    HW3 1051   3.490   1.397   0.443 -0.0463 -0.0682  0.1789
    1SOL    MW4 1052   3.421   1.434   0.480 -0.0670 -0.1379  0.2090
    1SOL     OW 1053   0.218   3.487   0.361 -1.0304 -0.0689 -1.0573
    1SOL    HW2 1054   0.196   3.402   0.400  0.1670  0.2234  0.2843
    1SOL    HW3 1055   0.157   3.549   0.401 -0.2861  0.1067 -0.1771
    1SOL    MW4 1056   0.207   3.484   0.371 -0.7742 -0.0069 -0.7642
    1SOL     OW 1057   2.670   0.940   0.709 -0.1225  0.2806 -0.0165
    1SOL    HW2 1058   2.683   0.963   0.617  0.6844 -0.0472  0.0128
    1SOL    HW3 1059   2.744   0.884   0.731 -0.8462 -0.4797  0.5506
    1SOL    MW4 1060   2.681   0.936   0.700 -0.1113  0.1370  0.0621
    1SOL     OW 1061   0.428   4.057   0.732  0.0788 -0.0388 -0.0865
    1SOL    HW2 1062   0.375   3.986   0.769  0.4758  0.0407  0.6470
    1SOL    HW3 1063   0.416   4.130   0.793  1.8214 -0.3320  0.6126
    1SOL    MW4 1064   0.419   4.058   0.745  0.3611 -0.0672  0.1024
    1SOL     OW 1065   3.111   3.477   0.819  0.4468  0.0250 -0.5553
    1SOL    HW2 1066   3.047   3.544   0.796 -0.8146 -1.5327 -1.7249
    1SOL    HW3 1067   3.109   3.473   0.915 -0.3992  0.7509 -0.5415
    1SOL    MW4 1068   3.103   3.485   0.828  0.1686 -0.0846 -0.7079
    1SOL     OW 1069   4.140   4.262   0.446  0.1599 -0.1042  0.4133
    1SOL    HW2 1070   4.103   4.316   0.516 -1.7073  0.2311 -0.7831
    1SOL    HW3 1071   4.105   4.174   0.462  0.7343 -0.2909  0.6273
    1SOL    MW4 1072   4.130   4.257   0.457 -0.0110 -0.0839  0.2837
    1SOL     OW 1073   4.296   3.424   0.437  0.5162 -0.5994  0.0163
    1SOL    HW2 1074   4.369   3.364   0.453  0.2437 -0.3752  2.3230
    1SOL    HW3 1075   4.219   3.368   0.437  0.4584 -0.5211  0.1261
    1SOL    MW4 1076   4.296   3.409   0.439  0.4725 -0.5596  0.3351
    1SOL     OW 1077   1.802   3.609   0.877 -0.4066 -0.3631 -0.3266
    1SOL    HW2 1078   1.810   3.528   0.827  2.9281 -0.0813 -0.3303
    1SOL    HW3 1079   1.788   3.580   0.967 -0.5328 -0.9173 -0.5212
    1SOL    MW4 1080   1.801   3.594   0.882  0.0168 -0.3991 -0.3528
    1SOL     OW 1081   1.158   0.490   0.716 -0.4669  0.1907 -0.1050
    1SOL    HW2 1082   1.198   0.429   0.777 -2.3352  0.2305  1.2187
    1SOL    HW3 1083   1.149   0.571   0.765 -0.7349  0.6372 -0.8757
    1SOL    MW4 1084   1.162   0.492   0.730 -0.7488  0.2549 -0.0321
    1SOL     OW 1085   3.022   3.224   0.695  0.1584 -0.3172 -0.1578
    1SOL    HW2 1086   3.072   3.215   0.614 -0.1575  0.1500 -0.4020
    1SOL    HW3 1087   3.047   3.310   0.730 -0.0474 -0.3250  0.0099
    1SOL    MW4 1088   3.032   3.234   0.689  0.0896 -0.2568 -0.1678
    1SOL     OW 1089   4.477   4.013   0.737  0.3509 -0.2891 -0.1223
    1SOL    HW2 1090   4.474   3.984   0.646 -1.3167  1.3144 -0.6183
    1SOL    HW3 1091   4.404   3.968   0.779  1.2340 -1.1735  0.4830
    1SOL    MW4 1092   4.467   4.003   0.730  0.2475 -0.1941 -0.1079
    1SOL     OW 1093   3.795   0.345   0.691  0.2164 -0.1351  0.1663
    1SOL    HW2 1094   3.744   0.407   0.743  1.8270  0.1398  1.4865
    1SOL    HW3 1095   3.796   0.382   0.603 -1.1221  0.2875  0.3161
    1SOL    MW4 1096   3.789   0.358   0.686  0.2525 -0.0430  0.3602
    1SOL     OW 1097   3.121   4.040   0.748 -0.4890 -0.3791  0.1690
    1SOL    HW2 1098   3.173   4.053   0.668 -0.2418  0.0919  0.4065
    1SOL    HW3 1099   3.049   3.984   0.720 -0.5852  0.0503 -0.4622
    1SOL    MW4 1100   3.119   4.034   0.733 -0.4690 -0.2604  0.1171
    1SOL     OW 1101   1.429   4.301   0.623  0.3815  0.2051 -0.0612
    1SOL    HW2 1102   1.366   4.303   0.695  1.2960 -2.1025  0.8525
    1SOL    HW3 1103   1.501   4.358   0.652  0.2533  0.1367  0.3979
    1SOL    MW4 1104   1.430   4.309   0.636  0.4852 -0.1087  0.1198
    1SOL     OW 1105   0.516   0.838   0.742 -0.0533  0.4637  0.3784
    1SOL    HW2 1106   0.438   0.800   0.782  1.0430 -3.2843 -0.8214
    1SOL    HW3 1107   0.498   0.837   0.648  1.0208  0.5610  0.1671
    1SOL    MW4 1108   0.503   0.833   0.735  0.2331 -0.0179  0.1922
    1SOL     OW 1109   0.248   2.119   0.723  0.1614  0.5239 -0.0917
    1SOL    HW2 1110   0.331   2.082   0.752 -0.6426 -1.9867 -0.8749
    1SOL    HW3 1111   0.181   2.070   0.771 -0.9100  1.4113 -0.6461
    1SOL    MW4 1112   0.250   2.108   0.733 -0.0861  0.3099 -0.2682
    1SOL     OW 1113   2.074   0.374   0.568  0.0328 -0.6666 -0.3064
    1SOL    HW2 1114   1.984   0.364   0.536 -0.7325  1.7678  0.9515
    1SOL    HW3 1115   2.102   0.459   0.535  1.2351 -0.5970  0.8531
    1SOL    MW4 1116   2.066   0.384   0.559  0.0906 -0.3362  0.0126
    1SOL     OW 1117   1.882   0.794   0.496 -0.0706  0.0924 -0.0646
    1SOL    HW2 1118   1.911   0.883   0.477 -0.3992 -0.0659 -1.2991
    1SOL    HW3 1119   1.868   0.794   0.591 -0.1877  1.3805 -0.0701
    1SOL    MW4 1120   1.884   0.806   0.506 -0.1292  0.2414 -0.2282
    1SOL     OW 1121   4.052   1.571   0.732 -0.4291 -0.4803  0.3017
    1SOL    HW2 1122   3.971   1.531   0.762 -0.8363  1.0937  1.3510
    1SOL    HW3 1123   4.029   1.662   0.714  1.3099  0.2610  1.6196
    1SOL    MW4 1124   4.038   1.577   0.734 -0.2537 -0.1748  0.6140
    1SOL     OW 1125   0.661   1.496   1.170 -0.2630  0.1689  0.2424
    1SOL    HW2 1126   0.731   1.548   1.211 -0.2610  0.2295  0.1613
    1SOL    HW3 1127   0.585   1.555   1.169  0.5563  1.2639 -2.6382
    1SOL    MW4 1128   0.660   1.511   1.175 -0.1546  0.3214 -0.1484
    1SOL     OW 1129   3.823   4.635   0.905  0.1864  0.1531  0.0930
    1SOL    HW2 1130   3.803   4.555   0.858  1.1060  0.2217 -0.4267
    1SOL    HW3 1131   3.903   4.668   0.864  0.0936  1.0713  0.6284
    1SOL    MW4 1132   3.831   4.629   0.894  0.2956  0.2832  0.0950
    1SOL     OW 1133   2.026   2.365   0.808  0.2754 -0.5291  0.6868
    1SOL    HW2 1134   2.025   2.372   0.904  0.3148  1.3549  0.5605
    1SOL    HW3 1135   2.024   2.271   0.791 -0.8736 -0.8521  2.5209
    1SOL    MW4 1136   2.026   2.353   0.818  0.1290 -0.3235  0.9121
    1SOL     OW 1137   3.901   1.760   0.291  0.2515  0.1076 -0.3194
    1SOL    HW2 1138   3.942   1.689   0.339 -0.2757  1.4348  2.1719
    1SOL    HW3 1139   3.850   1.807   0.357 -0.6634  1.8581 -2.2288
    1SOL    MW4 1140   3.900   1.757   0.306  0.0613  0.5137 -0.2426
    1SOL     OW 1141   0.181   3.032   0.384 -0.3801  0.2708  0.2795
    1SOL    HW2 1142   0.267   3.069   0.365 -0.4203  0.0902 -0.2570
    1SOL    HW3 1143   0.200   2.950   0.430 -0.1953 -0.9781 -1.9339
    1SOL    MW4 1144   0.195   3.026   0.388 -0.3610  0.0820 -0.0833
    1SOL     OW 1145   1.042   2.163   0.488  0.0462  0.2280  0.4105
    1SOL    HW2 1146   1.052   2.255   0.463  0.0078  0.2114  0.3308
    1SOL    HW3 1147   1.130   2.126   0.477 -0.0737  0.1080 -0.1762
    1SOL    MW4 1148   1.055   2.170   0.483  0.0254  0.2103  0.3226
    1SOL     OW 1149   2.881   0.771   0.815 -0.2646 -0.1395 -0.1761
    1SOL    HW2 1150   2.881   0.765   0.910  1.3054 -1.5138 -0.2425
    1SOL    HW3 1151   2.949   0.835   0.795  1.5078 -2.0353 -0.4442
    1SOL    MW4 1152   2.890   0.779   0.825  0.1764 -0.5709 -0.2202
    1SOL     OW 1153   2.174   1.213   0.390 -0.3473  0.0260 -0.2474
    1SOL    HW2 1154   2.215   1.128   0.403 -0.9250  0.0293  1.7955
    1SOL    HW3 1155   2.242   1.276   0.414 -0.5496  0.0923  0.1571
    1SOL    MW4 1156   2.189   1.210   0.395 -0.4501  0.0350  0.0755
    1SOL     OW 1157   0.692   2.370   0.402 -0.3307  0.6149 -0.2573
    1SOL    HW2 1158   0.774   2.402   0.440 -0.0676  0.2132 -0.4849
    1SOL    HW3 1159   0.686   2.279   0.431 -0.6285  0.6052 -0.3517
    1SOL    MW4 1160   0.702   2.362   0.411 -0.3352  0.5608 -0.2998
    1SOL     OW 1161   3.399   2.054   0.816  0.0584 -0.5538  0.0762
    1SOL    HW2 1162   3.409   2.147   0.835  1.2440 -0.7858  0.6144
    1SOL    HW3 1163   3.373   2.051   0.724  0.4237  0.2917 -0.0600
    1SOL    MW4 1164   3.397   2.066   0.807  0.2630 -0.4730  0.1292
    1SOL     OW 1165   3.982   0.075   0.485  0.0830 -0.1250  0.3304
    1SOL    HW2 1166   4.062   0.036   0.451 -0.4432 -0.8960 -0.0547
    1SOL    HW3 1167   3.995   0.080   0.580  0.8933  0.4916  0.1938
    1SOL    MW4 1168   3.994   0.071   0.493  0.1204 -0.1454  0.2616
    1SOL     OW 1169   1.560   3.167   0.408  0.0663  0.4639 -0.0229
    1SOL    HW2 1170   1.630   3.224   0.439 -0.1757  0.7459  0.0118
    1SOL    HW3 1171   1.481   3.221   0.414 -0.1648  0.1242  0.0105
    1SOL    MW4 1172   1.559   3.181   0.413  0.0039  0.4566 -0.0139
    1SOL     OW 1173   0.093   1.236   0.111 -0.0137 -0.0380 -0.3829
    1SOL    HW2 1174   0.070   1.282   0.030  1.1756 -0.0865 -0.7640
    1SOL    HW3 1175   0.031   1.270   0.176 -0.7808  0.2277 -1.2348
    1SOL    MW4 1176   0.082   1.247   0.109  0.0420 -0.0093 -0.5456
    1SOL     OW 1177   1.286   2.543   0.465 -0.3797 -0.0678  0.4021
    1SOL    HW2 1178   1.311   2.532   0.557 -0.9042  1.4248  0.7407
    1SOL    HW3 1179   1.275   2.638   0.454  0.3221 -0.1701 -1.3771
    1SOL    MW4 1180   1.288   2.554   0.476 -0.3562  0.1159  0.2120
    1SOL     OW 1181   2.907   3.003   0.827 -0.4387 -0.7270 -0.8059
    1SOL    HW2 1182   2.863   2.962   0.753 -0.1314 -0.7137 -0.9951
    1SOL    HW3 1183   2.966   3.067   0.788 -1.9418  0.9191 -0.4654
    1SOL    MW4 1184   2.909   3.006   0.812 -0.5965 -0.5081 -0.7859
    1SOL     OW 1185   2.910   1.779   0.338  0.2071 -0.1384 -0.4398
    1SOL    HW2 1186   2.816   1.767   0.346  0.3956 -1.3932 -0.0281
    1SOL    HW3 1187   2.939   1.712   0.276  0.8849 -0.0389 -0.2442
    1SOL    MW4 1188   2.902   1.769   0.331  0.3214 -0.2909 -0.3597
    1SOL     OW 1189   0.445   0.191   0.558 -0.1649 -0.0768  0.1028
    1SOL    HW2 1190   0.458   0.286   0.550 -0.6145 -0.0710 -0.5866
    1SOL    HW3 1191   0.533   0.155   0.565 -0.0455  0.5289  1.9706
    1SOL    MW4 1192   0.458   0.199   0.558 -0.2085  0.0039  0.2583
    1SOL     OW 1193   2.535   3.662   0.505 -0.0610  0.2888  0.1498
    1SOL    HW2 1194   2.506   3.662   0.596  0.0513  0.4660  0.1856
    1SOL    HW3 1195   2.577   3.577   0.493 -0.6881 -0.0103  0.0677
    1SOL    MW4 1196   2.537   3.651   0.515 -0.1290  0.2728  0.1436
    1SOL     OW 1197   1.158   4.638   1.086  0.3031  0.0884 -0.3158
    1SOL    HW2 1198   1.156   4.549   1.051  1.7445  0.1331 -0.5576
    1SOL    HW3 1199   1.135   4.694   1.011 -1.3782 -0.1152  0.0303
    1SOL    MW4 1200   1.155   4.634   1.071  0.2714  0.0672 -0.3021
    1SOL     OW 1201   1.588   2.082   0.743  0.1350  0.1309 -0.5112
    1SOL    HW2 1202   1.562   2.120   0.659 -0.9744  0.3994 -0.0492
    1SOL    HW3 1203   1.508   2.045   0.779  0.4549  0.6081  0.7395
    1SOL    MW4 1204   1.574   2.082   0.737  0.0308  0.2294 -0.2852
    1SOL     OW 1205   0.045   0.841   0.733 -0.1750 -0.2345 -0.1252
    1SOL    HW2 1206   0.042   0.927   0.773 -1.3593 -0.0364 -0.6359
    1SOL    HW3 1207  -0.026   0.792   0.773 -0.6848 -0.3805 -1.1829
    1SOL    MW4 1208   0.035   0.846   0.743 -0.3985 -0.2277 -0.3321
    1SOL     OW 1209   3.828   3.349   0.575 -0.3121 -0.2661 -0.1647
    1SOL    HW2 1210   3.754   3.313   0.526 -1.3447  0.8891  0.5042
    1SOL    HW3 1211   3.822   3.443   0.561 -0.2468  0.0239  1.6442
    1SOL    MW4 1212   3.817   3.357   0.567 -0.4396 -0.0753  0.1622
    1SOL     OW 1213   1.748   2.544   0.428  0.2664 -0.2603 -0.3311
    1SOL    HW2 1214   1.672   2.505   0.387  0.5716 -0.6602 -0.5205
    1SOL    HW3 1215   1.731   2.537   0.522 -0.2128  0.2214 -0.3827
    1SOL    MW4 1216   1.736   2.538   0.435  0.2435 -0.2496 -0.3629
    1SOL     OW 1217   2.167   3.183   0.517  0.0137 -0.4630  0.2146
    1SOL    HW2 1218   2.225   3.151   0.448  0.5476 -0.4519  0.6467
    1SOL    HW3 1219   2.125   3.261   0.481 -1.0202 -1.4340 -0.7213
    1SOL    MW4 1220   2.169   3.189   0.503 -0.0525 -0.5898  0.1481
    1SOL     OW 1221   3.827   1.165   0.523  0.0608 -0.1120 -0.0868
    1SOL    HW2 1222   3.808   1.082   0.479 -0.9214 -0.1920  0.4627
    1SOL    HW3 1223   3.916   1.187   0.496 -0.1306 -0.7017 -1.2521
    1SOL    MW4 1224   3.836   1.157   0.513 -0.0942 -0.2004 -0.1681
    1SOL     OW 1225   4.037   2.740   0.863  0.0964  0.0782 -0.5118
    1SOL    HW2 1226   4.122   2.786   0.864 -0.3135  0.8679 -1.0865
    1SOL    HW3 1227   4.056   2.657   0.819  1.5334 -1.7502  3.3241
    1SOL    MW4 1228   4.051   2.735   0.857  0.2322 -0.0587 -0.0816
    1SOL     OW 1229   1.152   3.134   0.835 -0.2330  0.1317  0.0685
    1SOL    HW2 1230   1.231   3.170   0.795  0.1172 -0.0106  0.6113
    1SOL    HW3 1231   1.147   3.045   0.802  0.5617 -0.2846  1.0310
    1SOL    MW4 1232   1.162   3.127   0.826 -0.0819  0.0579  0.2671
    1SOL     OW 1233   2.923   2.057   0.759 -0.1330 -0.5089  0.4385
    1SOL    HW2 1234   2.996   2.030   0.815 -0.5049 -0.9359  0.7226
    1SOL    HW3 1235   2.911   2.150   0.778  0.6854 -0.3040 -0.0079
    1SOL    MW4 1236   2.931   2.066   0.768 -0.0741 -0.5383  0.4171
    1SOL     OW 1237   4.048   4.429   0.670  0.0217  0.1578  0.2641
    1SOL    HW2 1238   4.088   4.384   0.745  0.3335  0.0915  0.0568
    1SOL    HW3 1239   4.078   4.520   0.677 -0.7310  0.3769  0.7691
    1SOL    MW4 1240   4.057   4.435   0.681 -0.0367  0.1779  0.3033
    1SOL     OW 1241   2.001   1.581   0.849 -0.1074 -0.1511  0.2760
    1SOL    HW2 1242   1.988   1.490   0.823 -1.0694 -0.2597  1.0588
    1SOL    HW3 1243   1.920   1.625   0.822  0.8418  0.7123 -1.1358
    1SOL    MW4 1244   1.988   1.574   0.842 -0.1091 -0.0515  0.1931
    1SOL     OW 1245   3.080   1.535   0.246  0.2099 -0.0896  0.1201
    1SOL    HW2 1246   3.166   1.577   0.252 -0.1464  0.5414  0.7468
    1SOL    HW3 1247   3.094   1.462   0.186  1.1596  0.0878  0.1175
    1SOL    MW4 1248   3.093   1.531   0.239  0.2882  0.0170  0.2024
    1SOL     OW 1249   0.448   0.765   0.464  0.1293  0.0194  0.0690
    1SOL    HW2 1250   0.507   0.835   0.435 -0.4886  0.3901 -0.2936
    1SOL    HW3 1251   0.368   0.780   0.414  0.0445 -1.0248 -0.1103
    1SOL    MW4 1252   0.445   0.776   0.453  0.0366 -0.0694 -0.0025
    1SOL     OW 1253   0.282   1.122   0.326 -0.1308 -0.0796  0.4414
    1SOL    HW2 1254   0.257   1.030   0.314  0.3047  0.0370 -1.5151
    1SOL    HW3 1255   0.231   1.169   0.261  0.1600  0.9970  0.9822
    1SOL    MW4 1256   0.272   1.116   0.316 -0.0350  0.0777  0.2546
    1SOL     OW 1257   4.002   2.461   0.475  0.0826 -0.0050 -0.4614
    1SOL    HW2 1258   3.919   2.497   0.445 -0.2505 -1.2604 -1.0644
    1SOL    HW3 1259   4.068   2.515   0.432 -0.4043  0.9694 -0.0100
    1SOL    MW4 1260   4.000   2.473   0.466 -0.0257 -0.0422 -0.4814
    1SOL     OW 1261   1.357   3.948   0.500  0.2278 -0.4333  0.1594
    1SOL    HW2 1262   1.289   4.007   0.466  0.5869  0.3805  0.8452
    1SOL    HW3 1263   1.439   3.982   0.465  0.2220 -2.0693 -1.5912
    1SOL    MW4 1264   1.359   3.960   0.491  0.2745 -0.5417  0.0189
    1SOL     OW 1265   0.994   0.042   0.864 -0.3479  0.3713 -0.2034
    1SOL    HW2 1266   0.919  -0.017   0.866 -0.9909  1.0985 -1.8109
    1SOL    HW3 1267   1.047   0.009   0.791  1.5248 -0.8616  1.6511
    1SOL    MW4 1268   0.991   0.030   0.854 -0.1855  0.3045 -0.1708
    1SOL     OW 1269   0.936   1.203   0.380  0.1753 -0.5136 -0.2044
    1SOL    HW2 1270   1.003   1.136   0.395  0.5710 -0.3396 -1.2225
    1SOL    HW3 1271   0.884   1.168   0.308 -0.1149 -0.0922 -0.1966
    1SOL    MW4 1272   0.938   1.189   0.373  0.1892 -0.4349 -0.3377
    1SOL     OW 1273   1.807   0.400   0.447  0.4324 -0.5187 -0.0501
    1SOL    HW2 1274   1.844   0.471   0.394  0.5794  0.3307  1.1833
    1SOL    HW3 1275   1.722   0.432   0.475  0.7424 -0.5864  0.9946
    1SOL    MW4 1276   1.801   0.414   0.444  0.4928 -0.4155  0.2505
    1SOL     OW 1277   2.069   0.437   0.822 -0.2033 -1.0417  0.1268
    1SOL    HW2 1278   1.984   0.402   0.850  0.4821 -1.6033  1.6016
    1SOL    HW3 1279   2.074   0.417   0.729 -2.0595 -0.2123 -0.1676
    1SOL    MW4 1280   2.058   0.429   0.813 -0.3579 -1.0064  0.2826
    1SOL     OW 1281   0.467   3.243   0.765  0.5915  0.1991 -0.3114
    1SOL    HW2 1282   0.459   3.338   0.770  1.9369  0.2883  0.2038
    1SOL    HW3 1283   0.383   3.210   0.796  0.7509  1.1863  1.2215
    1SOL    MW4 1284   0.455   3.251   0.769  0.7901  0.3409 -0.0412
    1SOL     OW 1285   1.769   2.089   0.326  0.0267  0.4363  0.0937
    1SOL    HW2 1286   1.774   1.994   0.341 -0.5129  0.6178  1.4592
    1SOL    HW3 1287   1.854   2.122   0.356  0.3841  0.3348 -0.7974
    1SOL    MW4 1288   1.781   2.080   0.332  0.0026  0.4468  0.1563
    1SOL     OW 1289   1.300   2.058   0.467  0.6289 -0.7285  0.2290
    1SOL    HW2 1290   1.316   2.001   0.542  2.7748 -2.7266 -1.6814
    1SOL    HW3 1291   1.383   2.102   0.452  0.0417  0.0978 -0.6348
    1SOL    MW4 1292   1.313   2.056   0.475  0.8346 -0.8831 -0.1370
    1SOL     OW 1293   2.451   0.784   1.148 -0.0279 -0.5088 -0.3430
    1SOL    HW2 1294   2.447   0.695   1.183  3.2903 -1.1193 -1.3572
    1SOL    HW3 1295   2.415   0.777   1.059 -1.2814 -0.4883  0.1535
    1SOL    MW4 1296   2.445   0.771   1.141  0.2446 -0.5866 -0.4112
    1SOL     OW 1297   3.832   2.142   0.769 -0.0489 -0.1209 -0.0040
    1SOL    HW2 1298   3.849   2.222   0.819 -0.6374 -0.3621  0.5875
    1SOL    HW3 1299   3.814   2.173   0.680 -2.0402  0.5596  0.5978
    1SOL    MW4 1300   3.832   2.157   0.764 -0.3891 -0.0632  0.1535
    1SOL     OW 1301   0.838   4.471   0.294 -0.2343  0.1602  0.2615
    1SOL    HW2 1302   0.777   4.489   0.365 -1.0376 -0.6376 -0.2185
    1SOL    HW3 1303   0.786   4.424   0.229  0.6712  0.2564 -0.5427
    1SOL    MW4 1304   0.823   4.467   0.295 -0.2208  0.0677  0.0921
    1SOL     OW 1305   0.436   4.267   0.899  0.4459 -0.0897  0.1200
    1SOL    HW2 1306   0.417   4.256   0.992 -1.7780  0.6800 -0.2012
    1SOL    HW3 1307   0.531   4.262   0.892  0.6140 -0.3143  2.4072
    1SOL    MW4 1308   0.446   4.265   0.910  0.1747 -0.0176  0.3793
    1SOL     OW 1309   2.039   4.382   0.507 -0.1789  0.0501 -0.1743
    1SOL    HW2 1310   2.013   4.306   0.455  1.5084 -0.8312  0.2278
    1SOL    HW3 1311   1.964   4.441   0.503 -1.4088 -1.5128 -0.7390
    1SOL    MW4 1312   2.026   4.379   0.500 -0.1185 -0.2723 -0.1958
    1SOL     OW 1313   3.227   3.184   0.494 -0.1762  0.1509 -0.4369
    1SOL    HW2 1314   3.242   3.094   0.467 -0.0925  0.4804 -1.4991
    1SOL    HW3 1315   3.258   3.237   0.421 -0.9922  1.0200 -0.1679
    1SOL    MW4 1316   3.233   3.179   0.481 -0.2732  0.3090 -0.5416
    1SOL     OW 1317   3.710   0.060   0.508  0.3883  0.1310  0.3088
    1SOL    HW2 1318   3.704   0.067   0.603  1.4993 -0.3976  0.4290
    1SOL    HW3 1319   3.804   0.065   0.490  0.2648 -0.8955 -0.6599
    1SOL    MW4 1320   3.721   0.062   0.518  0.5186 -0.0742  0.1969
    1SOL     OW 1321   4.403   3.906   0.468  0.1053  0.4922 -0.0244
    1SOL    HW2 1322   4.397   3.967   0.395  1.5893 -1.6022 -1.9644
    1SOL    HW3 1323   4.325   3.852   0.461 -0.1176  0.7573  0.3900
    1SOL    MW4 1324   4.392   3.907   0.457  0.2718  0.2508 -0.2257
    1SOL     OW 1325   2.280   4.534   0.476  0.4154  0.1864  0.1078
    1SOL    HW2 1326   2.283   4.627   0.456 -0.7332  0.1844 -0.0970
    1SOL    HW3 1327   2.192   4.519   0.510  1.2179 -0.4623  1.9665
    1SOL    MW4 1328   2.269   4.544   0.478  0.3698  0.1006  0.3260
    1SOL     OW 1329   2.282   4.035   0.811  0.2375 -0.0881  0.6211
    1SOL    HW2 1330   2.269   4.029   0.717 -1.0013 -0.8324  0.8219
    1SOL    HW3 1331   2.342   3.963   0.832  0.5321  0.0952  0.3845
    1SOL    MW4 1332   2.288   4.024   0.802  0.1128 -0.1616  0.6164
    1SOL     OW 1333   4.242   3.117   0.900  0.1640 -0.1502 -0.1367
    1SOL    HW2 1334   4.317   3.162   0.861  0.0556  1.2369  1.1708
    1SOL    HW3 1335   4.167   3.141   0.845  0.3617  0.0494 -0.3159
    1SOL    MW4 1336   4.242   3.126   0.888  0.1764  0.0589  0.0121
    1SOL     OW 1337   1.929   1.315   0.772  0.3035 -0.0928  0.3038
    1SOL    HW2 1338   1.875   1.237   0.779 -0.6018  0.4646 -0.4008
    1SOL    HW3 1339   1.935   1.332   0.678  1.0559  0.3045  0.4134
    1SOL    MW4 1340   1.923   1.307   0.760  0.2832  0.0333  0.2253
    1SOL     OW 1341   1.296   1.401   0.456  0.1991  0.0082 -0.4944
    1SOL    HW2 1342   1.203   1.400   0.432  0.3822  1.6880 -1.3310
    1SOL    HW3 1343   1.324   1.492   0.442  1.8693 -0.3846  0.1461
    1SOL    MW4 1344   1.287   1.413   0.451  0.4436  0.1780 -0.5202
    1SOL     OW 1345   0.988   0.464   0.319  0.1072 -0.4536 -0.4578
    1SOL    HW2 1346   0.940   0.411   0.255 -0.6575 -0.6937  0.2934
    1SOL    HW3 1347   0.919   0.500   0.376  0.6743  0.7977 -0.5546
    1SOL    MW4 1348   0.973   0.462   0.318  0.0811 -0.3202 -0.3715
    1SOL     OW 1349   1.509   0.072   0.416 -0.4289  0.3557 -0.2115
    1SOL    HW2 1350   1.434   0.109   0.370 -0.7446  0.5260  0.4274
    1SOL    HW3 1351   1.490  -0.021   0.422 -1.2754  0.6004  1.1893
    1SOL    MW4 1352   1.497   0.065   0.411 -0.5822  0.4104  0.0576
    1SOL     OW 1353   0.937   3.462   0.319 -0.1229 -0.9932 -0.3519
    1SOL    HW2 1354   1.012   3.486   0.374 -0.5747 -0.1751 -0.0796
    1SOL    HW3 1355   0.967   3.478   0.229 -0.4175  0.6379 -0.1737
    1SOL    MW4 1356   0.951   3.467   0.314 -0.2214 -0.6704 -0.2925
    1SOL     OW 1357   0.487   2.794   0.456 -0.2712 -0.2585 -0.6393
    1SOL    HW2 1358   0.479   2.713   0.406  0.5230 -0.8198  0.1361
    1SOL    HW3 1359   0.569   2.785   0.504 -1.2667  0.0183  1.1734
    1SOL    MW4 1360   0.496   2.782   0.456 -0.2978 -0.2959 -0.2978
    1SOL     OW 1361   3.174   1.713   0.748 -0.4743  0.2617  0.1441
    1SOL    HW2 1362   3.250   1.659   0.767 -0.3356  0.1423 -0.7233
    1SOL    HW3 1363   3.177   1.783   0.813  1.1796  1.0809 -0.7937
    1SOL    MW4 1364   3.184   1.715   0.759 -0.2379  0.3541 -0.0941
    1SOL     OW 1365   2.037   3.379   0.378 -0.0569  0.2240 -0.0850
    1SOL    HW2 1366   2.090   3.359   0.301  1.5383  1.3087  0.7064
    1SOL    HW3 1367   2.053   3.471   0.396 -0.2907 -0.0503  1.6441
    1SOL    MW4 1368   2.046   3.388   0.371  0.1228  0.3312  0.2476
    1SOL     OW 1369   3.407   1.577   0.849 -0.2331 -0.1081  0.0545
    1SOL    HW2 1370   3.483   1.615   0.803  1.3070  1.0611  3.4082
    1SOL    HW3 1371   3.398   1.490   0.811  2.1489  0.1015 -1.1279
    1SOL    MW4 1372   3.416   1.571   0.838  0.2847  0.0738  0.3409
    1SOL     OW 1373   1.929   1.072   0.430 -0.2070  0.0061  0.6844
    1SOL    HW2 1374   1.864   1.142   0.424 -0.9647 -0.7972 -1.0468
    1SOL    HW3 1375   2.013   1.117   0.420 -0.6595  0.7308  0.0033
    1SOL    MW4 1376   1.931   1.087   0.428 -0.3666 -0.0042  0.3661
    1SOL     OW 1377   4.325   1.341   0.635 -0.6393  0.1052  0.1965
    1SOL    HW2 1378   4.320   1.393   0.715 -1.7663 -0.3045  0.3918
    1SOL    HW3 1379   4.326   1.250   0.664 -1.2285 -0.0514 -0.2550
    1SOL    MW4 1380   4.325   1.336   0.649 -0.8659  0.0306  0.1627
    1SOL     OW 1381   2.364   4.263   0.466 -0.2606 -0.1297 -0.0940
    1SOL    HW2 1382   2.339   4.355   0.463  3.0826  0.8554  0.8834
    1SOL    HW3 1383   2.353   4.232   0.376  0.3382  1.6901 -0.8049
    1SOL    MW4 1384   2.359   4.271   0.454  0.2594  0.2408 -0.0589
    1SOL     OW 1385   0.685   1.857   0.391  0.2766  0.3773  0.0897
    1SOL    HW2 1386   0.743   1.783   0.409  0.1717  0.0702 -0.8176
    1SOL    HW3 1387   0.695   1.873   0.297 -0.8037  0.5739  0.0042
    1SOL    MW4 1388   0.694   1.849   0.381  0.1202  0.3626 -0.0413
    1SOL     OW 1389   0.461   1.749   0.503  0.0767 -0.0147 -0.3632
    1SOL    HW2 1390   0.378   1.797   0.503  0.0835 -0.0005 -0.9170
    1SOL    HW3 1391   0.526   1.813   0.474  0.1045 -0.3248 -0.9952
    1SOL    MW4 1392   0.459   1.764   0.499  0.0813 -0.0538 -0.5196
    1SOL     OW 1393   1.608   4.637   0.841 -0.1098  0.6396  0.2318
    1SOL    HW2 1394   1.676   4.702   0.824 -0.8716  1.5546  0.6187
    1SOL    HW3 1395   1.600   4.636   0.937  0.2416 -0.3836  0.2528
    1SOL    MW4 1396   1.616   4.646   0.852 -0.1639  0.6251  0.2856
    1SOL     OW 1397   2.922   1.310   0.718 -0.1687  0.0112 -0.0281
    1SOL    HW2 1398   2.910   1.397   0.755 -0.8684 -0.1624  0.1503
    1SOL    HW3 1399   2.943   1.325   0.626  0.1308  0.3796  0.0986
    1SOL    MW4 1400   2.923   1.323   0.711 -0.2217  0.0368  0.0122
    1SOL     OW 1401   2.944   2.508   0.739 -0.5058 -0.1156  0.1536
    1SOL    HW2 1402   2.988   2.555   0.810 -1.1941  0.2685  0.3261
    1SOL    HW3 1403   3.015   2.460   0.695 -0.0088 -0.0031  0.8179
    1SOL    MW4 1404   2.959   2.508   0.743 -0.5312 -0.0503  0.2641
    1SOL     OW 1405   3.304   3.874   0.860  0.5146 -0.7994  1.1015
    1SOL    HW2 1406   3.229   3.931   0.844  1.5904  0.3195 -0.1449
    1SOL    HW3 1407   3.315   3.874   0.955 -0.6767 -0.4779  1.2461
    1SOL    MW4 1408   3.296   3.882   0.870  0.4995 -0.6094  0.9561
    1SOL     OW 1409   0.867   3.223   0.500  0.3276  0.3979 -0.2417
    1SOL    HW2 1410   0.773   3.221   0.484 -0.0871  0.7499  2.0466
    1SOL    HW3 1411   0.898   3.299   0.450 -0.9138  1.4400  0.5521
    1SOL    MW4 1412   0.859   3.233   0.491  0.1091  0.5817  0.1649
    1SOL     OW 1413   0.787   4.266   0.601 -0.3002 -0.2500  0.1464
    1SOL    HW2 1414   0.749   4.218   0.527  0.0400 -1.0626  0.4988
    1SOL    HW3 1415   0.879   4.278   0.577 -0.0044 -1.1929  0.7733
    1SOL    MW4 1416   0.794   4.261   0.588 -0.2163 -0.4816  0.2756
    1SOL     OW 1417   0.491   2.502   0.753 -0.8633 -0.3688 -0.0033
    1SOL    HW2 1418   0.471   2.579   0.806 -1.0764 -0.8941  0.7013
    1SOL    HW3 1419   0.419   2.441   0.773 -1.2595 -0.3632 -1.3384
    1SOL    MW4 1420   0.479   2.504   0.763 -0.9437 -0.4373 -0.0865
    1SOL     OW 1421   1.557   3.655   0.770 -0.1572  0.0565 -0.4681
    1SOL    HW2 1422   1.593   3.667   0.682  1.0589  1.1467  0.1630
    1SOL    HW3 1423   1.633   3.630   0.823 -0.9736 -1.1094  0.1720
    1SOL    MW4 1424   1.572   3.653   0.765 -0.1044  0.0470 -0.3003
    1SOL     OW 1425   3.635   0.126   0.778  0.1566 -0.2500 -0.2411
    1SOL    HW2 1426   3.703   0.084   0.832  0.2177  1.1356  0.7948
    1SOL    HW3 1427   3.679   0.202   0.740  0.3011 -1.5832 -2.8335
    1SOL    MW4 1428   3.650   0.131   0.780  0.1838 -0.2430 -0.4464
    1SOL     OW 1429   0.433   3.512   0.816  0.2664 -0.2858 -0.2680
    1SOL    HW2 1430   0.342   3.539   0.809  0.6268  0.4121 -2.4665
    1SOL    HW3 1431   0.446   3.497   0.910 -2.0372 -0.2046  0.0883
    1SOL    MW4 1432   0.423   3.514   0.828  0.0100 -0.1829 -0.5110
    1SOL     OW 1433   0.681   3.080   0.862  0.0256  0.1004  0.2626
    1SOL    HW2 1434   0.601   3.128   0.839 -0.1139 -0.9181 -1.4316
    1SOL    HW3 1435   0.752   3.138   0.834 -0.1183  0.4852  0.6822
    1SOL    MW4 1436   0.679   3.094   0.855 -0.0117  0.0169  0.0944
    1SOL     OW 1437   0.443   1.979   0.857 -0.0217  0.0506 -0.2521
    1SOL    HW2 1438   0.522   2.031   0.840 -0.5945  1.0161 -0.0213
    1SOL    HW3 1439   0.437   1.975   0.952  0.0023 -0.4247 -0.2689
    1SOL    MW4 1440   0.453   1.985   0.867 -0.0941  0.1153 -0.2239
    1SOL     OW 1441   2.274   2.339   0.636  0.2393 -0.4210 -0.1222
    1SOL    HW2 1442   2.367   2.347   0.659 -0.0088  1.1961  0.3775
    1SOL    HW3 1443   2.266   2.251   0.599  1.7656 -0.9682  0.7957
    1SOL    MW4 1444   2.285   2.328   0.634  0.4079 -0.2797  0.0649
    1SOL     OW 1445   3.495   1.822   0.476 -0.3810  0.3760 -0.1867
    1SOL    HW2 1446   3.507   1.771   0.556  1.5300  2.6137  0.9965
    1SOL    HW3 1447   3.429   1.888   0.500 -1.0832 -0.0203 -0.9983
    1SOL    MW4 1448   3.488   1.824   0.490 -0.2215  0.6188 -0.1377
    1SOL     OW 1449   3.753   1.910   0.470 -0.2697  0.6393 -0.1029
    1SOL    HW2 1450   3.763   2.005   0.462  0.2095  0.6434  0.4919
    1SOL    HW3 1451   3.658   1.896   0.476 -0.3843  1.0053 -1.1016
    1SOL    MW4 1452   3.742   1.921   0.470 -0.2215  0.6882 -0.1563
    1SOL     OW 1453   1.294   3.274   0.490 -0.2405  0.3815  0.5381
    1SOL    HW2 1454   1.243   3.193   0.481  1.4777 -0.6303 -0.5411
    1SOL    HW3 1455   1.326   3.273   0.580 -0.5562  0.0624  0.6480
    1SOL    MW4 1456   1.291   3.263   0.500 -0.0553  0.2060  0.4102
    1SOL     OW 1457   0.079   4.368   0.250 -0.0450  0.3610  0.2820
    1SOL    HW2 1458   0.077   4.427   0.175 -0.3534 -0.0976 -0.0777
    1SOL    HW3 1459   0.023   4.410   0.315  0.1157  0.6950  0.2045
    1SOL    MW4 1460   0.071   4.381   0.248 -0.0645  0.3448  0.2243
    1SOL     OW 1461   2.054   3.674   0.736  0.1214 -0.2770  0.1163
    1SOL    HW2 1462   2.060   3.760   0.779  0.4252 -0.1877 -0.1050
    1SOL    HW3 1463   1.984   3.629   0.784 -0.4782  0.3315 -0.1736
    1SOL    MW4 1464   2.046   3.680   0.748  0.0823 -0.1848  0.0488
    1SOL     OW 1465   2.493   0.547   0.781  0.1851 -0.5012 -0.4895
    1SOL    HW2 1466   2.497   0.537   0.686 -0.1647 -1.1449 -0.4403
    1SOL    HW3 1467   2.581   0.522   0.811  0.3833 -0.0155 -0.6690
    1SOL    MW4 1468   2.505   0.542   0.773  0.1650 -0.5221 -0.5066
    1SOL     OW 1469   1.785   2.455   0.692 -0.3898 -0.2419 -0.3231
    1SOL    HW2 1470   1.714   2.422   0.748 -0.5825  0.5584 -0.0889
    1SOL    HW3 1471   1.865   2.421   0.731 -0.5198  0.3584  0.4699
    1SOL    MW4 1472   1.786   2.446   0.704 -0.4324 -0.0575 -0.1875
    1SOL     OW 1473   3.648   4.443   0.477 -0.1570 -0.1978  0.5086
    1SOL    HW2 1474   3.553   4.434   0.465 -0.2436 -0.2235  1.2165
    1SOL    HW3 1475   3.663   4.537   0.480 -0.0112 -0.1684 -0.7552
    1SOL    MW4 1476   3.637   4.454   0.476 -0.1490 -0.1974  0.4353
    1SOL     OW 1477   0.915   0.881   0.812  0.4456 -0.2317 -0.0939
    1SOL    HW2 1478   0.829   0.838   0.813  0.0438  0.4604 -2.4583
    1SOL    HW3 1479   0.898   0.969   0.845  0.4005 -0.3908  0.3022
    1SOL    MW4 1480   0.901   0.887   0.816  0.3867 -0.1614 -0.3536
    1SOL     OW 1481   0.655   0.982   0.409 -0.4181  0.0392  0.1141
    1SOL    HW2 1482   0.650   1.062   0.462 -0.1282 -0.8978  1.6079
    1SOL    HW3 1483   0.728   0.933   0.448 -1.4588 -1.5594  0.0999
    1SOL    MW4 1484   0.664   0.986   0.421 -0.5172 -0.2953  0.3093
    1SOL     OW 1485   2.555   2.998   0.518  0.6444  0.1575  0.6557
    1SOL    HW2 1486   2.592   3.073   0.563  0.1393  0.2761  0.8754
    1SOL    HW3 1487   2.504   2.952   0.585 -0.3836  0.5219  0.1404
    1SOL    MW4 1488   2.553   3.002   0.533  0.4420  0.2213  0.6167
    1SOL     OW 1489   2.015   4.188   0.333 -0.1189 -0.1243  0.1860
    1SOL    HW2 1490   2.005   4.093   0.339  0.9888 -0.2022  1.0609
    1SOL    HW3 1491   2.104   4.200   0.301 -1.3353  0.5886 -3.1120
    1SOL    MW4 1492   2.025   4.177   0.330 -0.1333 -0.0410 -0.1337
    1SOL     OW 1493   1.134   4.080   0.385  0.1848  0.0146  0.1603
    1SOL    HW2 1494   1.093   4.091   0.299 -0.1549 -0.0396  0.3157
    1SOL    HW3 1495   1.076   4.021   0.432 -0.0418  0.6719  0.7076
    1SOL    MW4 1496   1.121   4.073   0.380  0.1101  0.0944  0.2530
    1SOL     OW 1497   2.067   2.752   0.725 -0.1828  0.6187  0.0553
    1SOL    HW2 1498   2.041   2.801   0.647  0.0464  0.6244 -0.0172
    1SOL    HW3 1499   2.124   2.812   0.772  0.4436  0.2611 -0.2489
    1SOL    MW4 1500   2.071   2.767   0.721 -0.0701  0.5722  0.0056
    1SOL     OW 1501   2.432   1.313   0.753  0.5430 -0.2179  0.4701
    1SOL    HW2 1502   2.372   1.262   0.806 -0.1512  0.7003  0.5729
    1SOL    HW3 1503   2.515   1.266   0.758 -0.0168 -1.1645  0.8059
    1SOL    MW4 1504   2.435   1.300   0.761  0.3774 -0.2217  0.5279
    1SOL     OW 1505   2.939   0.027   0.888 -0.1731 -0.2623 -0.0272
    1SOL    HW2 1506   2.996   0.090   0.845 -0.0571  0.6381  1.4393
    1SOL    HW3 1507   2.851   0.049   0.856 -0.0096 -0.0619 -0.3440
    1SOL    MW4 1508   2.935   0.038   0.878 -0.1361 -0.1171  0.1246
    1SOL     OW 1509   1.162   4.649   0.642  0.4023  0.2476  0.1637
    1SOL    HW2 1510   1.248   4.687   0.657  0.5929 -0.2553  0.3260
    1SOL    HW3 1511   1.168   4.610   0.554  0.0704  0.9746 -0.1849
    1SOL    MW4 1512   1.174   4.649   0.632  0.3837  0.2775  0.1392
    1SOL     OW 1513   2.533   3.159   0.863  0.8201  0.0610  0.6417
    1SOL    HW2 1514   2.463   3.198   0.810  0.8657 -0.4977  0.1619
    1SOL    HW3 1515   2.494   3.148   0.949  0.0114 -1.0938  0.1421
    1SOL    MW4 1516   2.518   3.163   0.867  0.7193 -0.1652  0.5125
    1SOL     OW 1517   0.771   3.645   0.457  0.1446 -0.6215  0.1725
    1SOL    HW2 1518   0.695   3.591   0.433  0.4921 -1.0722  0.0860
    1SOL    HW3 1519   0.845   3.602   0.415  0.3079  0.4241 -0.6493
    1SOL    MW4 1520   0.770   3.633   0.448  0.2120 -0.5431  0.0527
    1SOL     OW 1521   3.550   3.996   0.494  0.0187 -0.0278 -0.0807
    1SOL    HW2 1522   3.602   4.068   0.460 -2.0085  1.6894  0.3382
    1SOL    HW3 1523   3.570   3.993   0.588  0.0586  0.0486 -0.0869
    1SOL    MW4 1524   3.559   4.005   0.502 -0.2437  0.2089 -0.0263
    1SOL     OW 1525   2.546   0.480   0.519 -0.5085 -0.2869 -0.2312
    1SOL    HW2 1526   2.543   0.389   0.488  0.8657 -0.5536  0.3790
    1SOL    HW3 1527   2.638   0.496   0.538 -0.9932  0.6038  1.5463
    1SOL    MW4 1528   2.557   0.470   0.518 -0.3915 -0.2046  0.0839
    1SOL     OW 1529   0.449   3.074   0.377  0.1207  0.3379  0.5121
    1SOL    HW2 1530   0.461   2.984   0.407 -0.2068  0.0549 -0.2145
    1SOL    HW3 1531   0.505   3.126   0.436  1.6943 -0.5241 -0.1940
    1SOL    MW4 1532   0.458   3.069   0.389  0.2851  0.1869  0.3231
    1SOL     OW 1533   2.249   2.755   1.098  0.0137  0.1607  0.4544
    1SOL    HW2 1534   2.172   2.798   1.135  1.0601  3.1579 -0.7262
    1SOL    HW3 1535   2.321   2.781   1.155  0.3546 -1.6758  0.8748
    1SOL    MW4 1536   2.248   2.764   1.110  0.1967  0.3135  0.3542
    1SOL     OW 1537   3.577   4.273   0.895  0.6044 -0.3588  0.4962
    1SOL    HW2 1538   3.655   4.304   0.850 -0.5667  0.5843 -0.9481
    1SOL    HW3 1539   3.506   4.329   0.861 -0.6502 -1.0496  1.9294
    1SOL    MW4 1540   3.578   4.285   0.884  0.2844 -0.3257  0.4948
    1SOL     OW 1541   3.275   2.068   0.554 -0.2851  0.2778  0.1423
    1SOL    HW2 1542   3.246   2.132   0.489  0.4075  1.1453  0.6824
    1SOL    HW3 1543   3.228   1.988   0.531 -0.7362  0.8261 -0.8741
    1SOL    MW4 1544   3.265   2.066   0.543 -0.2530  0.4644  0.0795
    1SOL     OW 1545   3.334   2.385   0.409  0.0654 -0.0452 -0.0238
    1SOL    HW2 1546   3.257   2.351   0.365 -1.1763  1.3774  0.9761
    1SOL    HW3 1547   3.335   2.478   0.387 -0.0622  0.5079  2.1426
    1SOL    MW4 1548   3.324   2.393   0.400 -0.1152  0.2153  0.3939
    1SOL     OW 1549   1.079   3.618   0.733 -0.7093 -0.2271 -0.2977
    1SOL    HW2 1550   1.076   3.710   0.761  0.8500 -0.0713 -0.6167
    1SOL    HW3 1551   1.011   3.576   0.785 -0.6230  0.8791  0.7411
    1SOL    MW4 1552   1.070   3.625   0.744 -0.4921 -0.0608 -0.2028
    1SOL     OW 1553   4.389   2.054   0.488 -0.3511  0.5099 -0.0616
    1SOL    HW2 1554   4.477   2.089   0.475 -0.5152  0.6149 -0.8917
    1SOL    HW3 1555   4.366   2.081   0.577  0.5076  0.3593  0.2101
    1SOL    MW4 1556   4.397   2.062   0.498 -0.2604  0.5038 -0.1352
    1SOL     OW 1557   4.082   1.095   0.876 -0.1716  0.5592 -0.3953
    1SOL    HW2 1558   4.013   1.140   0.828  0.2431  0.0929 -1.4309
    1SOL    HW3 1559   4.074   1.128   0.966 -0.1894  2.3366 -1.0292
    1SOL    MW4 1560   4.072   1.105   0.882 -0.1197  0.7323 -0.6155
    1SOL     OW 1561   0.365   4.460   0.488 -0.6368  0.2688 -0.1019
    1SOL    HW2 1562   0.347   4.469   0.582  1.6810 -0.2444  0.4122
    1SOL    HW3 1563   0.358   4.366   0.471  0.0729  0.2298 -0.1928
    1SOL    MW4 1564   0.362   4.449   0.498 -0.2374  0.1955 -0.0461
    1SOL     OW 1565   1.857   4.248   0.842 -0.4000 -0.4915  0.2379
    1SOL    HW2 1566   1.833   4.263   0.933 -1.7534  3.3063 -0.6394
    1SOL    HW3 1567   1.947   4.281   0.836 -0.9833  1.0799 -0.1778
    1SOL    MW4 1568   1.866   4.255   0.853 -0.6557  0.2170  0.0672
    1SOL     OW 1569   1.545   3.915   0.882  0.0119 -0.2186 -0.0142
    1SOL    HW2 1570   1.471   3.961   0.844 -0.0234  0.5694  0.9928
    1SOL    HW3 1571   1.541   3.827   0.844 -0.6677  0.2199 -0.9597
    1SOL    MW4 1572   1.535   3.910   0.872 -0.0825 -0.0567 -0.0061
    1SOL     OW 1573   2.805   2.288   0.855 -0.0253  0.2675 -0.1922
    1SOL    HW2 1574   2.852   2.364   0.822 -2.2754  2.2264  0.9002
    1SOL    HW3 1575   2.822   2.287   0.950  0.5945 -1.0533 -0.2994
    1SOL    MW4 1576   2.813   2.298   0.863 -0.2406  0.3517 -0.0623
    1SOL     OW 1577   3.601   2.404   0.503 -0.1425 -0.3084 -0.3616
    1SOL    HW2 1578   3.520   2.388   0.454 -0.8677 -1.3806  1.1538
    1SOL    HW3 1579   3.639   2.481   0.462 -2.3229  0.6728 -0.6089
    1SOL    MW4 1580   3.596   2.412   0.491 -0.5255 -0.3202 -0.1943
    1SOL     OW 1581   0.841   0.290   0.904  0.3105 -0.0879 -0.2116
    1SOL    HW2 1582   0.886   0.207   0.888  1.4522  0.4730  0.0254
    1SOL    HW3 1583   0.868   0.315   0.992  0.7707  1.0305 -0.6619
    1SOL    MW4 1584   0.850   0.282   0.914  0.5218  0.1337 -0.2397
    1SOL     OW 1585   1.542   1.267   0.834 -0.0660 -0.6467 -0.2264
    1SOL    HW2 1586   1.517   1.260   0.742  0.8070 -1.0370 -0.4383
    1SOL    HW3 1587   1.617   1.208   0.844  0.2414 -0.1402  0.5863
    1SOL    MW4 1588   1.549   1.258   0.823  0.0898 -0.6315 -0.1472
    1SOL     OW 1589   0.027   2.507   0.798  0.0542 -0.1506  0.0201
    1SOL    HW2 1590   0.030   2.583   0.856 -0.2233 -0.7841  0.8717
    1SOL    HW3 1591   0.116   2.472   0.801  0.6849  1.2518 -1.8773
    1SOL    MW4 1592   0.039   2.512   0.806  0.1008 -0.0489 -0.1178
    1SOL     OW 1593   3.597   1.144   0.846 -0.2449  0.0003  0.0431
    1SOL    HW2 1594   3.531   1.203   0.810  0.3362  0.5617 -0.1079
    1SOL    HW3 1595   3.574   1.135   0.938 -0.2832  0.5267  0.0823
    1SOL    MW4 1596   3.585   1.150   0.853 -0.1733  0.1439  0.0284
    1SOL     OW 1597   4.057   1.982   0.822 -0.1328 -0.0223 -0.8762
    1SOL    HW2 1598   4.040   1.921   0.750 -2.3327 -0.1234 -0.3137
    1SOL    HW3 1599   3.991   2.050   0.812 -1.6551 -0.9810  2.0795
    1SOL    MW4 1600   4.046   1.983   0.811 -0.6242 -0.1622 -0.4120
    1SOL     OW 1601   4.245   3.914   0.857  0.0115 -0.1568 -0.6055
    1SOL    HW2 1602   4.236   3.885   0.948 -0.2946  0.0520 -0.5709
    1SOL    HW3 1603   4.166   3.964   0.839  0.7058  0.9730 -0.5562
    1SOL    MW4 1604   4.233   3.917   0.866  0.0625  0.0200 -0.5944
    1SOL     OW 1605   0.934   2.486   0.705 -0.4703  0.1344 -0.1524
    1SOL    HW2 1606   1.007   2.460   0.761 -0.1208  0.4912 -0.4383
    1SOL    HW3 1607   0.859   2.438   0.739  0.2062 -1.4298 -0.7937
    1SOL    MW4 1608   0.933   2.476   0.717 -0.3349 -0.0248 -0.2748
    1SOL     OW 1609   2.733   0.082   0.555  0.1641 -0.4465  0.3263
    1SOL    HW2 1610   2.763   0.096   0.465 -0.1585  1.5962  0.5239
    1SOL    HW3 1611   2.691  -0.004   0.553 -0.0234 -0.3214 -1.5240
    1SOL    MW4 1612   2.731   0.072   0.543  0.0970 -0.1605  0.1084
    1SOL     OW 1613   2.257   4.012   0.533 -0.1410  0.5109  0.0864
    1SOL    HW2 1614   2.327   3.970   0.482  0.5915  0.6719  0.9433
    1SOL    HW3 1615   2.274   4.106   0.524 -0.5086  0.5642 -0.0610
    1SOL    MW4 1616   2.269   4.019   0.525 -0.0927  0.5393  0.1800
    1SOL     OW 1617   0.224   3.901   0.840 -0.1778 -0.0908 -0.2322
    1SOL    HW2 1618   0.215   3.899   0.935 -0.3629  0.3195 -0.2380
    1SOL    HW3 1619   0.141   3.938   0.809  0.7320  1.8368 -0.4221
    1SOL    MW4 1620   0.212   3.906   0.848 -0.0822  0.2177 -0.2581
    1SOL     OW 1621   1.261   0.475   0.431 -0.2045 -0.0943  0.1000
    1SOL    HW2 1622   1.174   0.497   0.397 -0.2457  1.2921  1.0696
    1SOL    HW3 1623   1.251   0.480   0.526  0.9172 -0.0185  0.2148
    1SOL    MW4 1624   1.248   0.479   0.439 -0.0619  0.0986  0.2431
    1SOL     OW 1625   3.545   4.015   0.769  0.3878  0.1362  0.3250
    1SOL    HW2 1626   3.555   4.108   0.790  0.0645 -0.1079  1.6170
    1SOL    HW3 1627   3.463   3.990   0.813 -0.0743 -0.5069 -0.8881
    1SOL    MW4 1628   3.535   4.024   0.778  0.2842  0.0186  0.3355
    1SOL     OW 1629   0.194   0.050   0.503  0.0012 -0.3698  0.1918
    1SOL    HW2 1630   0.219  -0.041   0.485  0.0682 -0.0796 -1.2369
    1SOL    HW3 1631   0.278   0.096   0.512  0.0141  0.0999 -2.0071
    1SOL    MW4 1632   0.209   0.044   0.502  0.0118 -0.2696 -0.2868
    1SOL     OW 1633   3.536   2.942   0.451  0.0676  0.3610  0.2003
    1SOL    HW2 1634   3.628   2.913   0.449  0.6805  2.2831 -2.0966
    1SOL    HW3 1635   3.542   3.037   0.453 -1.9259  0.4834  0.9438
    1SOL    MW4 1636   3.549   2.950   0.451 -0.1147  0.6306 -0.0046
    1SOL     OW 1637   3.600   0.900   0.747 -0.1627 -0.7389  0.0499
    1SOL    HW2 1638   3.607   0.990   0.781 -1.3983 -0.3620 -0.6778
    1SOL    HW3 1639   3.575   0.911   0.655 -1.3871 -1.8466  0.2382
    1SOL    MW4 1640   3.598   0.913   0.739 -0.4873 -0.8354 -0.0212
    1SOL     OW 1641   4.217   3.664   0.737 -0.4108 -0.3666 -0.0779
    1SOL    HW2 1642   4.211   3.675   0.642 -0.0112  1.6695  0.1096
    1SOL    HW3 1643   4.239   3.752   0.770 -1.7599 -0.7661  1.9964
    1SOL    MW4 1644   4.219   3.677   0.729 -0.5355 -0.1507  0.2205
    1SOL     OW 1645   0.049   4.271   0.653  0.0352  0.5009  0.2905
    1SOL    HW2 1646   0.028   4.180   0.675  1.7350 -0.0698 -0.3591
    1SOL    HW3 1647   0.122   4.293   0.710 -0.7520  1.6744  0.8657
    1SOL    MW4 1648   0.056   4.262   0.664  0.1556  0.5808  0.2807
    1SOL     OW 1649   1.483   1.200   0.566 -0.1157  0.2243  0.4321
    1SOL    HW2 1650   1.459   1.108   0.574 -0.0202  0.1710  0.0768
    1SOL    HW3 1651   1.419   1.237   0.505 -0.5652  0.5437  1.0825
    1SOL    MW4 1652   1.472   1.193   0.559 -0.1626  0.2595  0.4711
    1SOL     OW 1653   3.795   0.881   0.401  0.4254 -0.0454  0.5709
    1SOL    HW2 1654   3.877   0.844   0.434  0.8207 -1.1206 -1.5199
    1SOL    HW3 1655   3.744   0.805   0.373 -1.1223  0.6451  1.4331
    1SOL    MW4 1656   3.799   0.866   0.402  0.2735 -0.0961  0.4088
    1SOL     OW 1657   1.558   2.904   0.485  0.2950 -0.1131  0.0038
    1SOL    HW2 1658   1.648   2.888   0.456  0.1809 -0.5157 -0.1322
    1SOL    HW3 1659   1.540   2.994   0.459  1.2462  0.5601  1.5495
    1SOL    MW4 1660   1.568   2.914   0.478  0.4054 -0.0777  0.1898
    1SOL     OW 1661   4.068   0.847   0.771  0.1274  0.2266 -0.1611
    1SOL    HW2 1662   4.078   0.927   0.822  1.0697  0.2049 -0.3027
    1SOL    HW3 1663   3.989   0.805   0.806 -0.6064  1.4239 -0.3776
    1SOL    MW4 1664   4.058   0.852   0.782  0.1550  0.3817 -0.2083
    1SOL     OW 1665   1.777   1.684   0.726 -0.3152 -0.2426 -0.6460
    1SOL    HW2 1666   1.715   1.641   0.785 -0.3105  0.5794 -0.0373
    1SOL    HW3 1667   1.753   1.652   0.639 -2.9811  1.6877 -0.6690
    1SOL    MW4 1668   1.766   1.674   0.723 -0.6664  0.1203 -0.5687
    1SOL     OW 1669   0.600   3.254   0.529  0.0679  0.2560  0.6409
    1SOL    HW2 1670   0.569   3.336   0.492 -1.6118 -0.9256 -0.6370
    1SOL    HW3 1671   0.556   3.248   0.614 -0.9709 -0.0078  0.0980
    1SOL    MW4 1672   0.590   3.264   0.536 -0.2908  0.0656  0.4007
    1SOL     OW 1673   0.839   1.625   0.488 -0.6502 -0.5789  0.0585
    1SOL    HW2 1674   0.864   1.646   0.578  0.4826  1.1046 -0.6099
    1SOL    HW3 1675   0.911   1.570   0.456 -1.0609 -1.1917  0.1743
    1SOL    MW4 1676   0.852   1.620   0.495 -0.5549 -0.4376 -0.0144
    1SOL     OW 1677   4.009   4.044   0.777  0.0745  0.1586 -0.6079
    1SOL    HW2 1678   3.994   4.029   0.683  0.2178  1.3179 -0.8190
    1SOL    HW3 1679   3.927   4.016   0.818  0.4358 -1.4418 -0.9679
    1SOL    MW4 1680   3.996   4.038   0.770  0.1409  0.1001 -0.6832
    1SOL     OW 1681   2.237   2.975   0.860  0.2410 -0.0718 -0.3931
    1SOL    HW2 1682   2.173   3.041   0.833  1.8355  0.4850 -2.8604
    1SOL    HW3 1683   2.241   2.984   0.956 -2.5128  0.6488 -0.3028
    1SOL    MW4 1684   2.229   2.985   0.869  0.0877  0.0966 -0.7067
    1SOL     OW 1685   4.236   2.651   0.386 -0.3458  0.4832 -0.2182
    1SOL    HW2 1686   4.307   2.606   0.431 -0.0603  0.6205 -0.5311
    1SOL    HW3 1687   4.255   2.640   0.293 -0.3501  1.1287 -0.2986
    1SOL    MW4 1688   4.248   2.644   0.379 -0.3090  0.5863 -0.2701
    1SOL     OW 1689   3.341   0.584   0.678  0.1054  0.2868  0.4960
    1SOL    HW2 1690   3.290   0.520   0.729  0.7638 -1.2914 -0.7803
    1SOL    HW3 1691   3.431   0.570   0.705  0.2571  0.6654  0.1877
    1SOL    MW4 1692   3.346   0.574   0.689  0.2122  0.1285  0.2869
    1SOL     OW 1693   1.628   0.819   0.372  0.0143 -0.2747 -0.5204
    1SOL    HW2 1694   1.634   0.815   0.276 -0.3298 -1.0304 -0.5203
    1SOL    HW3 1695   1.719   0.830   0.401  0.0474  0.6580 -0.9550
    1SOL    MW4 1696   1.641   0.820   0.363 -0.0266 -0.2512 -0.5777
    1SOL     OW 1697   2.365   0.969   0.722  0.1409  0.3865  0.3011
    1SOL    HW2 1698   2.458   0.984   0.736  0.0206  1.6311 -0.1583
    1SOL    HW3 1699   2.354   0.970   0.627 -0.4347  0.8584  0.3653
    1SOL    MW4 1700   2.376   0.971   0.711  0.0494  0.6130  0.2490
    1SOL     OW 1701   3.768   4.427   0.739 -0.8332 -0.9782 -0.1883
    1SOL    HW2 1702   3.861   4.411   0.724 -0.9011 -0.9859 -0.6079
    1SOL    HW3 1703   3.729   4.427   0.651 -1.3634 -1.7836  0.0400
    1SOL    MW4 1704   3.775   4.425   0.725 -0.9122 -1.0858 -0.2136
    1SOL     OW 1705   1.060   4.314   0.543 -0.1291 -0.0624 -0.1493
    1SOL    HW2 1706   1.086   4.387   0.488 -1.7977  0.6427 -0.0497
    1SOL    HW3 1707   1.073   4.237   0.489 -0.1901  0.4893 -0.9601
    1SOL    MW4 1708   1.065   4.313   0.529 -0.3572  0.1030 -0.2431
    1SOL     OW 1709   2.268   0.153   0.513  0.3093  0.1480  0.2056
    1SOL    HW2 1710   2.269   0.130   0.606 -0.0418 -0.8203 -0.0239
    1SOL    HW3 1711   2.197   0.216   0.505 -1.4654 -1.7923  0.1464
    1SOL    MW4 1712   2.259   0.158   0.524  0.0288 -0.2358  0.1675
    1SOL     OW 1713   0.701   0.673   0.869 -0.0507 -0.0621  0.0925
    1SOL    HW2 1714   0.633   0.723   0.825  0.7991  1.0356  0.0010
    1SOL    HW3 1715   0.670   0.583   0.867 -0.5632  0.1330 -1.7411
    1SOL    MW4 1716   0.688   0.668   0.863 -0.0061  0.1085 -0.1615
    1SOL     OW 1717   3.551   1.077   0.313  0.0550 -0.3749 -0.4348
    1SOL    HW2 1718   3.582   1.167   0.324  0.5778 -0.7091  0.9020
    1SOL    HW3 1719   3.629   1.023   0.321 -0.3976 -1.0174 -0.3074
    1SOL    MW4 1720   3.565   1.082   0.315  0.0644 -0.5038 -0.2416
    1SOL     OW 1721   0.895   3.952   0.501 -0.1103 -0.3033 -0.2439
    1SOL    HW2 1722   0.879   3.993   0.586  1.6615 -0.0421 -0.0194
    1SOL    HW3 1723   0.864   3.862   0.511 -1.0946  0.0884  0.2669
    1SOL    MW4 1724   0.889   3.946   0.513 -0.0064 -0.2170 -0.1469
    1SOL     OW 1725   3.138   2.738   1.127  0.0349  0.2150 -0.0962
    1SOL    HW2 1726   3.070   2.793   1.167  0.6676  1.1335 -0.2563
    1SOL    HW3 1727   3.121   2.745   1.033 -0.8042 -1.0927 -0.0581
    1SOL    MW4 1728   3.127   2.747   1.120  0.0079  0.1638 -0.1123
    1SOL     OW 1729   0.953   2.427   0.444  0.3117 -0.1938  0.0910
    1SOL    HW2 1730   0.967   2.463   0.532  0.5859  0.7115 -0.3215
    1SOL    HW3 1731   0.978   2.497   0.385 -0.1417 -0.7083 -0.7197
    1SOL    MW4 1732   0.958   2.441   0.448  0.2880 -0.1423 -0.0704
    1SOL     OW 1733   4.460   0.458   0.526  0.1188 -0.2656  0.4558
    1SOL    HW2 1734   4.508   0.539   0.506  0.1329  0.0358  1.6587
    1SOL    HW3 1735   4.490   0.434   0.613 -1.1190 -0.6689  0.7703
    1SOL    MW4 1736   4.471   0.466   0.535 -0.0424 -0.2790  0.6560
    1SOL     OW 1737   0.762   4.592   0.892  0.0353 -0.2253  0.2485
    1SOL    HW2 1738   0.719   4.626   0.970  0.5247 -0.1450  0.4848
    1SOL    HW3 1739   0.722   4.640   0.819  1.0406  1.1940  0.6118
    1SOL    MW4 1740   0.751   4.602   0.892  0.2325 -0.0277  0.3276
    1SOL     OW 1741   0.689   1.222   0.532 -0.1202  0.5246 -0.0200
    1SOL    HW2 1742   0.639   1.297   0.499 -1.2825 -0.3827 -0.3810
    1SOL    HW3 1743   0.769   1.222   0.479 -0.4433  1.0742 -0.5266
    1SOL    MW4 1744   0.693   1.232   0.520 -0.3161  0.4774 -0.1345
    1SOL     OW 1745   3.072   2.252   0.377  0.0128 -0.3163  0.2878
    1SOL    HW2 1746   2.995   2.196   0.387 -0.8690  0.9468  0.7726
    1SOL    HW3 1747   3.036   2.341   0.371  1.4454  0.3302  0.9542
    1SOL    MW4 1748   3.057   2.257   0.378  0.0856 -0.0644  0.4397
    1SOL     OW 1749   3.003   4.537   0.643  0.1301 -0.3959 -0.2335
    1SOL    HW2 1750   2.988   4.610   0.703  2.0967  0.7932 -1.1561
    1SOL    HW3 1751   3.035   4.466   0.698 -0.9725 -0.2970  0.5447
    1SOL    MW4 1752   3.005   4.537   0.658  0.2439 -0.2260 -0.2525
    1SOL     OW 1753   2.344   4.294   0.898 -0.4922  0.6595  0.5769
    1SOL    HW2 1754   2.267   4.333   0.856 -0.5854 -0.3028 -0.1673
    1SOL    HW3 1755   2.332   4.199   0.886  0.2574  0.4523  1.4263
    1SOL    MW4 1756   2.332   4.286   0.891 -0.4055  0.5050  0.5908
    1SOL     OW 1757   2.209   2.813   0.307 -0.1241 -0.1730  0.1896
    1SOL    HW2 1758   2.123   2.832   0.346 -1.3536 -0.9739 -2.0220
    1SOL    HW3 1759   2.239   2.898   0.274 -1.3640 -0.3367 -1.4572
    1SOL    MW4 1760   2.201   2.827   0.307 -0.4499 -0.3002 -0.3195
    1SOL     OW 1761   4.288   2.112   0.738  0.1530  0.0301  0.1565
    1SOL    HW2 1762   4.291   2.193   0.788  0.1316 -0.1483  0.4536
    1SOL    HW3 1763   4.208   2.068   0.768  0.0441  0.0078 -0.1694
    1SOL    MW4 1764   4.278   2.117   0.749  0.1354  0.0038  0.1526
    1SOL     OW 1765   4.244   2.871   0.556 -0.2304  0.6644  0.6086
    1SOL    HW2 1766   4.221   2.792   0.507  0.3028  1.1323 -0.3950
    1SOL    HW3 1767   4.313   2.912   0.505  1.1801  0.5436  2.3692
    1SOL    MW4 1768   4.250   2.866   0.543  0.0257  0.7102  0.7084
    1SOL     OW 1769   4.220   0.482   0.771  0.2658  0.1459 -0.2174
    1SOL    HW2 1770   4.240   0.569   0.804 -0.3367  0.7104 -1.3380
    1SOL    HW3 1771   4.186   0.496   0.683 -0.9285 -1.1214  0.0118
    1SOL    MW4 1772   4.218   0.495   0.764  0.0286  0.0532 -0.3351
    1SOL     OW 1773   0.106   1.225   0.512  0.1208 -0.0159  0.0061
    1SOL    HW2 1774   0.167   1.180   0.453  0.0925 -0.4545  0.3140
    1SOL    HW3 1775   0.155   1.236   0.594  0.8123  2.2116 -0.6583
    1SOL    MW4 1776   0.121   1.221   0.515  0.2083  0.2203 -0.0409
    1SOL     OW 1777   0.399   0.210   0.827  0.0808  0.1135 -0.0762
    1SOL    HW2 1778   0.425   0.204   0.735  0.8287 -1.1709  0.2032
    1SOL    HW3 1779   0.336   0.139   0.839  0.4482 -0.1090  0.5520
    1SOL    MW4 1780   0.394   0.200   0.816  0.2280 -0.0853  0.0436
    1SOL     OW 1781   3.565   0.669   0.350 -0.3632 -0.2542  0.0305
    1SOL    HW2 1782   3.499   0.607   0.320 -1.6142  0.4641  1.2449
    1SOL    HW3 1783   3.521   0.721   0.417  1.6176 -0.1467  1.2903
    1SOL    MW4 1784   3.550   0.668   0.355 -0.2668 -0.1452  0.3569
    1SOL     OW 1785   1.380   3.261   0.767  0.3022  0.2392 -0.0993
    1SOL    HW2 1786   1.470   3.233   0.785 -0.3778 -1.2253  1.1557
    1SOL    HW3 1787   1.373   3.347   0.807  1.0326  0.1821  0.1500
    1SOL    MW4 1788   1.391   3.268   0.775  0.3089  0.0389  0.0992
    1SOL     OW 1789   3.201   0.414   0.843 -0.0391  0.1319 -0.0056
    1SOL    HW2 1790   3.116   0.456   0.829  0.5702  1.1042 -0.8590
    1SOL    HW3 1791   3.216   0.424   0.937 -0.6426  0.3992  0.0695
    1SOL    MW4 1792   3.192   0.421   0.854 -0.0384  0.2955 -0.1083
    1SOL     OW 1793   0.032   2.755   0.935  0.2260 -0.0121 -0.2174
    1SOL    HW2 1794   0.027   2.739   1.029  1.3515  0.9401  0.0270
    1SOL    HW3 1795  -0.055   2.785   0.910 -0.3370 -1.1797  0.3367
    1SOL    MW4 1796   0.020   2.757   0.944  0.2999 -0.0403 -0.1120
    1SOL     OW 1797   2.434   2.332   0.334 -0.0130 -0.0218 -0.1580
    1SOL    HW2 1798   2.466   2.402   0.390  0.6134  0.1255 -0.6969
    1SOL    HW3 1799   2.511   2.277   0.317 -0.3219 -0.3817 -0.4053
    1SOL    MW4 1800   2.448   2.334   0.339  0.0288 -0.0501 -0.2617
    1SOL     OW 1801   4.474   3.261   0.789 -0.2842 -0.2732  0.3603
    1SOL    HW2 1802   4.557   3.235   0.830  0.8073  2.0167 -0.2977
    1SOL    HW3 1803   4.453   3.344   0.831 -1.6737 -0.2884 -0.3088
    1SOL    MW4 1804   4.482   3.268   0.800 -0.3233  0.0265  0.1852
    1SOL     OW 1805   0.673   1.278   0.802  0.1481 -0.0305  0.7543
    1SOL    HW2 1806   0.701   1.259   0.712 -0.3817 -0.4555  0.6729
    1SOL    HW3 1807   0.679   1.373   0.810 -1.8942  0.2325 -0.4474
    1SOL    MW4 1808   0.678   1.288   0.791 -0.1912 -0.0519  0.5851
    1SOL     OW 1809   2.305   1.644   0.508 -0.3709 -0.0696  0.3899
    1SOL    HW2 1810   2.397   1.669   0.511 -0.3227 -0.0790 -0.5889
    1SOL    HW3 1811   2.307   1.551   0.483 -0.6666  0.2026 -0.6621
    1SOL    MW4 1812   2.318   1.635   0.505 -0.4034 -0.0349  0.1220
    1SOL     OW 1813   4.170   0.551   0.513  0.1532  0.2688 -0.5457
    1SOL    HW2 1814   4.109   0.486   0.479  0.3915 -0.5338  0.5244
    1SOL    HW3 1815   4.253   0.531   0.469  0.1568  0.0193 -0.4291
    1SOL    MW4 1816   4.173   0.539   0.503  0.1855  0.1300 -0.3892
    1SOL     OW 1817   3.206   0.153   0.482 -0.0680  0.5504  0.4583
    1SOL    HW2 1818   3.191   0.149   0.577 -0.7762 -0.8413  0.3052
    1SOL    HW3 1819   3.170   0.070   0.449 -0.2958  1.2567 -1.0937
    1SOL    MW4 1820   3.199   0.141   0.491 -0.1915  0.4600  0.2333
    1SOL     OW 1821   1.309   4.023   0.764  0.6487  0.1854 -0.0151
    1SOL    HW2 1822   1.242   3.964   0.799  0.3569  0.5722  0.0911
    1SOL    HW3 1823   1.321   3.995   0.674  1.0538 -0.5119  0.2531
    1SOL    MW4 1824   1.301   4.012   0.757  0.6636  0.1445  0.0343
    1SOL     OW 1825   3.572   3.258   0.717 -0.1925  0.1311 -0.0262
    1SOL    HW2 1826   3.644   3.209   0.758 -1.2860 -0.5905  1.0750
    1SOL    HW3 1827   3.493   3.224   0.759 -1.2519  0.3113 -1.8458
    1SOL    MW4 1828   3.571   3.247   0.728 -0.4766  0.0596 -0.1208
    1SOL     OW 1829   3.172   0.852   0.483 -0.4574 -0.0011  0.1984
    1SOL    HW2 1830   3.142   0.863   0.573 -0.2358 -0.5554  0.3400
    1SOL    HW3 1831   3.112   0.788   0.445  0.8803 -1.5653  0.6536
    1SOL    MW4 1832   3.160   0.845   0.490 -0.2515 -0.2806  0.2771
    1SOL     OW 1833   3.276   2.909   0.410  0.0815  0.4072 -0.1588
    1SOL    HW2 1834   3.370   2.921   0.429 -0.2167  2.0245  0.3345
    1SOL    HW3 1835   3.244   2.855   0.483  0.3697  0.8850  0.3233
    1SOL    MW4 1836   3.284   2.903   0.422  0.0801  0.6833 -0.0301
    1SOL     OW 1837   4.015   3.471   0.821  0.1479  0.8100  0.3168
    1SOL    HW2 1838   4.067   3.541   0.782  0.6174  0.3945  0.1848
    1SOL    HW3 1839   4.040   3.470   0.913 -0.4139  1.3046  0.4790
    1SOL    MW4 1840   4.025   3.480   0.828  0.1359  0.8204  0.3208
    1SOL     OW 1841   3.805   0.745   0.871  0.2094 -0.5145  0.5647
    1SOL    HW2 1842   3.798   0.765   0.964 -0.1507  1.5124  0.1286
    1SOL    HW3 1843   3.735   0.795   0.830 -0.1333 -2.0161 -0.7169
    1SOL    MW4 1844   3.795   0.754   0.878  0.1171 -0.4452  0.3380
    1SOL     OW 1845   2.499   3.878   0.889 -0.2727 -0.1247 -0.0519
    1SOL    HW2 1846   2.571   3.925   0.845  1.3041 -0.0816  2.4837
    1SOL    HW3 1847   2.514   3.786   0.867  0.6535 -0.1270  0.5406
    1SOL    MW4 1848   2.511   3.872   0.880  0.0577 -0.1197  0.3608
    1SOL     OW 1849   1.098   2.883   0.734  0.3364  0.0038 -0.4739
    1SOL    HW2 1850   1.167   2.825   0.766  1.0491  0.7804 -0.5737
    1SOL    HW3 1851   1.019   2.853   0.779  0.8969 -0.3539  0.2937
    1SOL    MW4 1852   1.097   2.871   0.745  0.5044  0.0591 -0.3858
    1SOL     OW 1853   2.626   2.714   0.873  0.4622 -0.2539 -0.0411
    1SOL    HW2 1854   2.550   2.754   0.829  0.5389  0.3101  0.3321
    1SOL    HW3 1855   2.605   2.620   0.876 -0.9441  0.0717  1.4326
    1SOL    MW4 1856   2.613   2.707   0.868  0.2868 -0.1366  0.2026
    1SOL     OW 1857   0.031   1.105   1.138  0.1244 -0.0210 -0.1662
    1SOL    HW2 1858  -0.038   1.164   1.168 -0.4223 -1.4387  1.4547
    1SOL    HW3 1859   0.004   1.019   1.168  3.8004 -0.2994  2.7482
    1SOL    MW4 1860   0.018   1.102   1.146  0.5373 -0.2447  0.4323
    1SOL     OW 1861   2.622   1.120   0.463  0.2940  0.8041 -0.1865
    1SOL    HW2 1862   2.693   1.101   0.402 -0.6023  2.4901 -1.8026
    1SOL    HW3 1863   2.620   1.215   0.469 -1.2398  0.7399  0.5289
    1SOL    MW4 1864   2.631   1.130   0.456 -0.0265  1.0180 -0.3053
    1SOL     OW 1865   2.033   2.912   0.506 -0.0531 -0.4445 -0.3048
    1SOL    HW2 1866   2.044   3.007   0.502 -0.6799 -0.3578  0.0430
    1SOL    HW3 1867   1.942   2.897   0.478 -0.1623 -0.8888  0.2755
    1SOL    MW4 1868   2.022   2.923   0.501 -0.1502 -0.4916 -0.1824
    1SOL     OW 1869   0.203   4.180   0.425  0.4612 -0.0113  0.0196
    1SOL    HW2 1870   0.160   4.205   0.507  1.3189 -1.4492  0.9304
    1SOL    HW3 1871   0.171   4.244   0.361  0.6629  1.8283  1.7083
    1SOL    MW4 1872   0.193   4.192   0.427  0.6010  0.0415  0.3626
    1SOL     OW 1873   0.454   1.091   0.847 -0.0219  0.8172 -0.2630
    1SOL    HW2 1874   0.478   1.009   0.804 -0.5437  0.4210  0.2053
    1SOL    HW3 1875   0.518   1.154   0.814 -0.1214  0.4155 -1.2625
    1SOL    MW4 1876   0.466   1.089   0.837 -0.1039  0.7119 -0.3331
    1SOL     OW 1877   1.391   1.667   0.462 -0.7853 -0.0097 -0.7090
    1SOL    HW2 1878   1.374   1.756   0.434  0.7320  0.6289  0.3268
    1SOL    HW3 1879   1.361   1.663   0.552  1.3887  0.1908  0.0575
    1SOL    MW4 1880   1.385   1.678   0.470 -0.2981  0.1009 -0.4712
    1SOL     OW 1881   1.575   2.898   0.767  0.4276 -0.8928  0.5363
    1SOL    HW2 1882   1.563   2.897   0.672 -0.6315 -0.7871  0.6645
    1SOL    HW3 1883   1.654   2.846   0.782  1.9783  1.0691 -0.5866
    1SOL    MW4 1884   1.584   2.891   0.756  0.4925 -0.6196  0.4051
    1SOL     OW 1885   4.087   1.172   1.146 -0.0436  0.2603 -0.1629
    1SOL    HW2 1886   4.000   1.204   1.170 -0.6673 -1.2779 -0.3655
    1SOL    HW3 1887   4.090   1.083   1.180  0.5890 -0.5091 -2.2174
    1SOL    MW4 1888   4.076   1.165   1.154 -0.0429 -0.0442 -0.4607
    1SOL     OW 1889   1.826   0.138   0.808 -0.1764  0.3543 -0.0890
    1SOL    HW2 1890   1.836   0.227   0.842 -2.3909 -0.0646  1.7131
    1SOL    HW3 1891   1.805   0.151   0.715  1.4304  1.6149 -0.3191
    1SOL    MW4 1892   1.825   0.152   0.800 -0.2565  0.4654  0.1184
    1SOL     OW 1893   1.345   0.345   0.847  0.0130 -0.0307  0.7337
    1SOL    HW2 1894   1.358   0.256   0.814  0.5273  0.5529 -0.6695
    1SOL    HW3 1895   1.310   0.333   0.935  0.7665 -1.6210  0.8297
    1SOL    MW4 1896   1.342   0.331   0.854  0.1802 -0.1635  0.5612
    1SOL     OW 1897   3.497   0.238   0.426 -0.3330  0.1260 -0.5015
    1SOL    HW2 1898   3.416   0.189   0.442  0.0227  0.1447  1.4473
    1SOL    HW3 1899   3.567   0.179   0.452  0.2916  0.2055 -1.9550
    1SOL    MW4 1900   3.495   0.224   0.431 -0.2034  0.1389 -0.4362
    1SOL     OW 1901   2.000   2.205   0.465 -0.6331 -0.4314 -0.2506
    1SOL    HW2 1902   2.088   2.171   0.453 -0.2356  0.4701  0.0763
    1SOL    HW3 1903   2.011   2.300   0.471 -1.4722 -0.4172  1.1716
    1SOL    MW4 1904   2.013   2.213   0.464 -0.6912 -0.3104 -0.0199
    1SOL     OW 1905   4.256   2.305   1.145  0.3797  0.3280  0.1162
    1SOL    HW2 1906   4.190   2.367   1.176 -0.7538 -0.7472 -0.1354
    1SOL    HW3 1907   4.257   2.317   1.050  0.1167 -0.0986  0.0626
    1SOL    MW4 1908   4.248   2.315   1.136  0.1955  0.1299  0.0761
    1SOL     OW 1909   3.150   1.950   0.915  0.1795 -0.7282  0.1867
    1SOL    HW2 1910   3.236   1.981   0.887  0.1766 -1.1638 -0.3135
    1SOL    HW3 1911   3.165   1.916   1.004  0.1772  0.6856  0.7301
    1SOL    MW4 1912   3.164   1.949   0.923  0.1793 -0.5990  0.1924
    1SOL     OW 1913   0.023   3.254   0.515  0.2086 -0.1002  0.6101
    1SOL    HW2 1914   0.066   3.170   0.497  0.7402 -0.0492  1.6296
    1SOL    HW3 1915   0.030   3.264   0.610  1.0152  1.5871  0.3773
    1SOL    MW4 1916   0.029   3.244   0.525  0.3851  0.1295  0.7139
    1SOL     OW 1917   2.459   1.564   0.870 -0.0975  0.1993  0.5648
    1SOL    HW2 1918   2.440   1.480   0.830 -0.4299  0.1582  0.8061
    1SOL    HW3 1919   2.391   1.623   0.838  0.6144  0.5857 -0.2607
    1SOL    MW4 1920   2.448   1.561   0.861 -0.0474  0.2447  0.4877
    1SOL     OW 1921   1.128   3.884   1.137 -0.0412  0.6834 -0.0311
    1SOL    HW2 1922   1.099   3.798   1.168 -1.3425  1.5764  1.2805
    1SOL    HW3 1923   1.056   3.942   1.157  1.3886  2.3616  0.3276
    1SOL    MW4 1924   1.115   3.880   1.144 -0.0243  1.0226  0.1893
    1SOL     OW 1925   2.311   2.671   0.538  0.0211  0.1173 -0.1389
    1SOL    HW2 1926   2.377   2.614   0.500 -1.3902 -0.3022 -2.0298
    1SOL    HW3 1927   2.267   2.711   0.463 -3.7604 -1.8037  0.9319
    1SOL    MW4 1928   2.314   2.669   0.523 -0.6638 -0.1915 -0.2471
    1SOL     OW 1929   3.576   3.736   0.424  0.0566 -0.0002  0.1155
    1SOL    HW2 1930   3.489   3.702   0.444 -0.3299  0.1582 -1.2124
    1SOL    HW3 1931   3.567   3.831   0.433 -0.3457  0.1348 -1.5838
    1SOL    MW4 1932   3.563   3.744   0.428 -0.0474  0.0384 -0.2839
    1SOL     OW 1933   3.345   0.811   0.837 -0.5495  0.2474 -0.1166
    1SOL    HW2 1934   3.430   0.852   0.820 -0.1569 -0.3935  0.2540
    1SOL    HW3 1935   3.346   0.731   0.783 -0.5677 -0.1913  0.5249
    1SOL    MW4 1936   3.356   0.806   0.828 -0.5000  0.1050  0.0170
    1SOL     OW 1937   0.239   0.836   0.306 -0.5046  0.0360  0.0606
    1SOL    HW2 1938   0.160   0.795   0.342 -0.5496 -0.1032 -0.1977
    1SOL    HW3 1939   0.231   0.825   0.212 -0.0972 -0.1215  0.0444
    1SOL    MW4 1940   0.228   0.829   0.299 -0.4568 -0.0032  0.0244
    1SOL     OW 1941   1.022   0.051   0.259  0.2184  0.1945  0.2213
    1SOL    HW2 1942   0.965  -0.024   0.248  0.7828  0.0406 -1.7857
    1SOL    HW3 1943   0.991   0.094   0.339 -2.0695 -0.4152 -0.3315
    1SOL    MW4 1944   1.011   0.047   0.268 -0.0091  0.0937 -0.1164
    1SOL     OW 1945   1.360   2.487   0.722 -0.2689  0.0427 -0.2967
    1SOL    HW2 1946   1.293   2.449   0.779  1.2955 -0.4515  1.2703
    1SOL    HW3 1947   1.364   2.579   0.748 -0.6222  0.1569 -0.6566
    1SOL    MW4 1948   1.352   2.494   0.733 -0.1091 -0.0074 -0.1374
    1SOL     OW 1949   3.785   3.922   0.889 -0.1322 -0.3218 -0.0939
    1SOL    HW2 1950   3.706   3.942   0.839 -1.5330 -0.4233  1.9907
    1SOL    HW3 1951   3.803   3.830   0.869  0.4025  0.1377 -1.8059
    1SOL    MW4 1952   3.777   3.912   0.880 -0.2463 -0.2747 -0.0448
    1SOL     OW 1953   2.396   3.906   0.306  0.5570 -0.2691  0.1554
    1SOL    HW2 1954   2.384   3.812   0.322  0.9586 -0.8302 -2.5113
    1SOL    HW3 1955   2.489   3.921   0.320  0.8176 -0.6603 -1.0270
    1SOL    MW4 1956   2.407   3.895   0.310  0.6447 -0.3946 -0.3524
    1SOL     OW 1957   0.258   4.430   0.751 -0.3063  0.2417  0.6286
    1SOL    HW2 1958   0.325   4.390   0.806 -0.0790  0.0272  0.1983
    1SOL    HW3 1959   0.232   4.509   0.797 -0.7010 -0.3652  1.4562
    1SOL    MW4 1960   0.263   4.435   0.764 -0.3284  0.1330  0.6810
    1SOL     OW 1961   0.225   0.011   1.160  0.0691  0.5773 -0.3176
    1SOL    HW2 1962   0.157   0.068   1.195  1.3068  0.8501  1.6942
    1SOL    HW3 1963   0.304   0.034   1.208  1.3863 -0.4206 -1.9337
    1SOL    MW4 1964   0.226   0.021   1.171  0.4062  0.4816 -0.2655
    1SOL     OW 1965   0.020   0.428   1.108  0.1322  0.2554 -0.3412
    1SOL    HW2 1966   0.003   0.422   1.014  0.7253 -0.4408 -0.4134
    1SOL    HW3 1967  -0.065   0.447   1.147 -0.6719 -2.2698 -0.7657
    1SOL    MW4 1968   0.007   0.430   1.101  0.1044 -0.1696 -0.4067
    1SOL     OW 1969   0.245   0.507   1.232  0.3617  0.0050 -0.5160
    1SOL    HW2 1970   0.239   0.599   1.207  0.0220  0.2554  0.4779
    1SOL    HW3 1971   0.168   0.467   1.191 -0.3189  0.4589  0.3047
    1SOL    MW4 1972   0.234   0.514   1.223  0.2271  0.0979 -0.2767
    1SOL     OW 1973   0.216   0.762   1.120 -0.3169 -0.7287  0.3979
    1SOL    HW2 1974   0.297   0.805   1.149 -0.3450 -1.4768  1.5954
    1SOL    HW3 1975   0.239   0.723   1.035  0.5864 -0.9208  0.7232
    1SOL    MW4 1976   0.230   0.762   1.113 -0.2014 -0.8528  0.5989
    1SOL     OW 1977   4.472   0.829   1.236  0.2695  0.5238  0.0503
    1SOL    HW2 1978   4.476   0.827   1.331  0.1894 -0.4333  0.0410
    1SOL    HW3 1979   4.558   0.796   1.208 -0.1330 -0.3468 -0.1981
    1SOL    MW4 1980   4.484   0.824   1.245  0.2058  0.2826  0.0163
    1SOL     OW 1981   0.035   0.750   0.462 -0.3533 -0.2079  0.8397
    1SOL    HW2 1982   0.061   0.779   0.550  0.0720  0.5121  0.4759
    1SOL    HW3 1983  -0.044   0.799   0.443 -0.4521 -0.3734  0.8231
    1SOL    MW4 1984   0.028   0.760   0.471 -0.3102 -0.1348  0.7895
    1SOL     OW 1985   0.286   1.251   1.235  0.1799  0.2082 -0.2309
    1SOL    HW2 1986   0.211   1.219   1.185 -0.2235 -0.5749  0.8693
    1SOL    HW3 1987   0.356   1.188   1.215  0.2602  0.3677 -0.4579
    1SOL    MW4 1988   0.286   1.238   1.226  0.1372  0.1258 -0.1155
    1SOL     OW 1989   0.262   1.490   1.106 -0.1916  0.2041  0.4651
    1SOL    HW2 1990   0.323   1.553   1.145  1.4783 -0.7378 -0.5236
    1SOL    HW3 1991   0.282   1.407   1.151 -0.4966 -0.1833 -0.1064
    1SOL    MW4 1992   0.273   1.487   1.117 -0.0115  0.0286  0.2592
    1SOL     OW 1993   0.043   1.632   1.184  0.2092 -0.1641  0.3801
    1SOL    HW2 1994   0.059   1.721   1.153 -0.6276 -0.0671  0.2162
    1SOL    HW3 1995   0.109   1.579   1.139  1.3785  0.5117  1.2704
    1SOL    MW4 1996   0.054   1.637   1.174  0.2531 -0.0620  0.4759
    1SOL     OW 1997   0.033   1.916   1.122  0.3103  0.0027 -0.2995
    1SOL    HW2 1998  -0.051   1.942   1.161  0.8780  1.5003 -0.0230
    1SOL    HW3 1999   0.025   1.942   1.030  0.8628  1.1855 -0.0320
    1SOL    MW4 2000   0.020   1.923   1.115  0.4582  0.3563 -0.2277
    1SOL     OW 2001   3.221   2.465   0.669 -0.2687 -0.2424  0.4074
    1SOL    HW2 2002   3.266   2.421   0.741 -1.0723 -1.6525  0.0843
    1SOL    HW3 2003   3.242   2.413   0.592  0.4838  1.1895 -0.3649
    1SOL    MW4 2004   3.229   2.452   0.669 -0.2754 -0.2396  0.2629
    1SOL     OW 2005   0.215   2.304   1.129 -0.2933  0.0821  0.0455
    1SOL    HW2 2006   0.129   2.331   1.159 -0.2724  1.4753 -1.0848
    1SOL    HW3 2007   0.228   2.217   1.167 -2.3345 -0.2996 -0.0694
    1SOL    MW4 2008   0.206   2.296   1.138 -0.5599  0.2155 -0.1189
    1SOL     OW 2009   4.481   2.439   1.194 -0.0412  0.3594 -0.2007
    1SOL    HW2 2010   4.472   2.440   1.290  1.1951 -1.5425 -0.0459
    1SOL    HW3 2011   4.396   2.410   1.163 -0.3654  0.7242  0.3299
    1SOL    MW4 2012   4.469   2.435   1.203  0.0792  0.1569 -0.1103
    1SOL     OW 2013   0.022   2.701   1.195  0.2210  0.2166 -0.2831
    1SOL    HW2 2014  -0.058   2.728   1.238 -1.5039 -2.8409 -1.3700
    1SOL    HW3 2015   0.021   2.605   1.201  2.7519  0.0198 -2.1059
    1SOL    MW4 2016   0.011   2.692   1.201  0.3271 -0.2127 -0.6669
    1SOL     OW 2017   0.258   2.846   1.264  0.6199  1.1217 -0.2392
    1SOL    HW2 2018   0.242   2.855   1.358  1.2547 -0.4133  0.0380
    1SOL    HW3 2019   0.181   2.800   1.231  1.4737 -0.5165 -0.0228
    1SOL    MW4 2020   0.246   2.841   1.272  0.8163  0.7029 -0.1740
    1SOL     OW 2021   0.249   3.100   1.149 -0.1313  0.4418 -0.0810
    1SOL    HW2 2022   0.315   3.153   1.194  0.3198  0.4668 -0.7691
    1SOL    HW3 2023   0.265   3.011   1.180 -1.1313  0.7414  1.3684
    1SOL    MW4 2024   0.260   3.095   1.159 -0.2037  0.4847  0.0196
    1SOL     OW 2025   0.015   3.207   1.229  0.0759 -0.8860 -0.3187
    1SOL    HW2 2026  -0.067   3.169   1.196  0.2477 -1.4834 -0.0589
    1SOL    HW3 2027   0.084   3.154   1.188  0.3727  0.3964 -1.5174
    1SOL    MW4 2028   0.013   3.195   1.219  0.1377 -0.7954 -0.4427
    1SOL     OW 2029   4.465   3.479   1.173 -0.4640 -0.0906  0.1687
    1SOL    HW2 2030   4.478   3.386   1.190  0.4901 -0.3182 -1.6262
    1SOL    HW3 2031   4.456   3.485   1.077 -3.0789  1.3778  0.4544
    1SOL    MW4 2032   4.466   3.468   1.162 -0.6833  0.0732 -0.0304
    1SOL     OW 2033   0.219   3.601   1.197 -0.8725  0.4745  0.8333
    1SOL    HW2 2034   0.212   3.612   1.292  0.5380 -2.5827  1.3541
    1SOL    HW3 2035   0.147   3.542   1.174 -0.9863  0.9033  0.0635
    1SOL    MW4 2036   0.208   3.595   1.206 -0.7014  0.1278  0.8004
    1SOL     OW 2037   0.207   3.866   1.117 -0.0383 -0.3915  0.3633
    1SOL    HW2 2038   0.124   3.906   1.142 -1.3876 -1.8692 -1.5883
    1SOL    HW3 2039   0.196   3.773   1.138  0.2466 -0.9836 -1.9327
    1SOL    MW4 2040   0.195   3.859   1.123 -0.1788 -0.6645 -0.1971
    1SOL     OW 2041   4.439   3.991   1.207 -0.0502  0.3565  0.1832
    1SOL    HW2 2042   4.448   3.988   1.302 -0.0024 -0.6792  0.1546
    1SOL    HW3 2043   4.355   3.948   1.189 -1.4117  2.9910 -0.0798
    1SOL    MW4 2044   4.429   3.985   1.217 -0.2236  0.5674  0.1447
    1SOL     OW 2045   4.451   4.258   1.113 -0.0336 -0.2779 -0.6215
    1SOL    HW2 2046   4.534   4.285   1.152 -1.2441 -0.3330  2.0914
    1SOL    HW3 2047   4.438   4.168   1.144 -1.2755 -0.1371 -0.7168
    1SOL    MW4 2048   4.461   4.250   1.122 -0.3572 -0.2666 -0.2763
    1SOL     OW 2049   0.174   4.389   1.222  0.2553 -0.4035  0.5252
    1SOL    HW2 2050   0.166   4.393   1.317  1.3655  1.3626  0.5659
    1SOL    HW3 2051   0.166   4.480   1.193  1.1275 -0.7760 -0.9665
    1SOL    MW4 2052   0.172   4.402   1.231  0.5168 -0.2198  0.3337
    1SOL     OW 2053   0.675   4.665   1.151 -0.2505 -0.8431 -0.3851
    1SOL    HW2 2054   0.769   4.670   1.171 -0.0511  0.9760 -1.6548
    1SOL    HW3 2055   0.650   4.577   1.178  1.8183 -1.3585 -0.0126
    1SOL    MW4 2056   0.684   4.654   1.157  0.0487 -0.6711 -0.5035
    1SOL     OW 2057   0.467   0.126   1.270 -0.1819  0.1789 -0.4523
    1SOL    HW2 2058   0.481   0.212   1.231  1.9722 -0.0674 -0.3073
    1SOL    HW3 2059   0.542   0.074   1.240  0.7814 -0.4296  2.8236
    1SOL    MW4 2060   0.479   0.130   1.261  0.2294  0.0661 -0.0010
    1SOL     OW 2061   0.500   0.383   1.166  0.1696  0.4995  0.0238
    1SOL    HW2 2062   0.519   0.382   1.072  0.5627  0.9737  0.0996
    1SOL    HW3 2063   0.414   0.426   1.172 -0.0179  0.1503 -0.1476
    1SOL    MW4 2064   0.491   0.389   1.154  0.1967  0.5159  0.0113
    1SOL     OW 2065   0.723   0.510   1.281  0.4061  0.6762 -0.4194
    1SOL    HW2 2066   0.728   0.589   1.226  0.5366 -0.5821 -2.2426
    1SOL    HW3 2067   0.650   0.460   1.245  1.0940 -0.6156 -0.0388
    1SOL    MW4 2068   0.714   0.514   1.269  0.5141  0.3398 -0.6098
    1SOL     OW 2069   0.735   0.749   1.152 -0.3446 -0.1990  0.1484
    1SOL    HW2 2070   0.647   0.773   1.182 -0.1869  1.4045 -0.6367
    1SOL    HW3 2071   0.720   0.710   1.065 -0.2141  0.8149 -0.3361
    1SOL    MW4 2072   0.721   0.747   1.144 -0.3066  0.1462 -0.0192
    1SOL     OW 2073   0.473   0.827   1.215 -0.4623 -0.3151 -0.4134
    1SOL    HW2 2074   0.465   0.814   1.309 -3.3643 -1.3465 -0.7812
    1SOL    HW3 2075   0.484   0.922   1.205  0.4018 -0.2568  0.9763
    1SOL    MW4 2076   0.474   0.838   1.226 -0.7312 -0.4435 -0.2786
    1SOL     OW 2077   0.482   1.080   1.145 -0.4380  0.4678 -0.3394
    1SOL    HW2 2078   0.480   1.091   1.050 -0.5673 -0.2481 -0.4231
    1SOL    HW3 2079   0.561   1.126   1.173 -0.1701  0.3220 -0.8444
    1SOL    MW4 2080   0.492   1.087   1.136 -0.4197  0.3541 -0.4170
    1SOL     OW 2081   0.701   1.227   1.231  0.2752 -0.2517 -0.0139
    1SOL    HW2 2082   0.796   1.218   1.226  0.2889 -0.7020  1.0068
    1SOL    HW3 2083   0.684   1.315   1.196  1.1038  0.0137  0.2251
    1SOL    MW4 2084   0.711   1.237   1.226  0.3863 -0.2761  0.1522
    1SOL     OW 2085   0.889   1.672   1.202 -0.0040  0.1771 -0.1641
    1SOL    HW2 2086   0.883   1.766   1.186  0.6050  0.4835  1.3301
    1SOL    HW3 2087   0.965   1.644   1.152 -1.3109  0.0972 -2.1874
    1SOL    MW4 2088   0.898   1.681   1.193 -0.0961  0.2069 -0.2339
    1SOL     OW 2089   0.457   1.936   1.141 -0.3252 -0.7957  0.0242
    1SOL    HW2 2090   0.535   1.986   1.165  0.9506 -2.1719 -1.1401
    1SOL    HW3 2091   0.385   1.982   1.184  1.0345  0.9121  0.5518
    1SOL    MW4 2092   0.457   1.949   1.149  0.0225 -0.7520 -0.0597
    1SOL     OW 2093   0.237   2.048   1.256 -0.5312 -0.6863  0.0495
    1SOL    HW2 2094   0.227   2.040   1.351 -0.7093 -1.3238 -0.0225
    1SOL    HW3 2095   0.163   1.998   1.220 -0.1467 -0.9094 -0.4307
    1SOL    MW4 2096   0.226   2.040   1.264 -0.5039 -0.7999 -0.0234
    1SOL     OW 2097   0.657   2.099   1.253  0.0916  0.0392 -0.1691
    1SOL    HW2 2098   0.637   2.122   1.344 -1.8991  1.0741 -0.8456
    1SOL    HW3 2099   0.683   2.182   1.213  0.4292 -0.3148 -0.6796
    1SOL    MW4 2100   0.658   2.113   1.260 -0.1264  0.1290 -0.3256
    1SOL     OW 2101   0.719   2.331   1.130  0.0350 -0.2321 -0.0094
    1SOL    HW2 2102   0.780   2.383   1.183  0.0914 -1.0023  0.6866
    1SOL    HW3 2103   0.633   2.365   1.153  0.1894  0.8303 -0.9612
    1SOL    MW4 2104   0.716   2.343   1.140  0.0628 -0.1934 -0.0433
    1SOL     OW 2105   0.464   2.437   1.198  0.0387  0.3549  0.1887
    1SOL    HW2 2106   0.380   2.398   1.173  0.1789  0.7072 -0.8369
    1SOL    HW3 2107   0.461   2.440   1.294 -0.8536 -0.2163  0.1885
    1SOL    MW4 2108   0.452   2.432   1.208 -0.0606  0.3259  0.0534
    1SOL     OW 2109   1.676   3.635   0.525  0.2020  0.3629 -0.3799
    1SOL    HW2 2110   1.712   3.722   0.512  0.0183  0.4767 -0.1259
    1SOL    HW3 2111   1.585   3.642   0.496  0.3459  0.1067 -0.9061
    1SOL    MW4 2112   1.669   3.647   0.519  0.1967  0.3440 -0.4158
    1SOL     OW 2113   0.697   2.888   1.270  0.5202  0.2686  0.5667
    1SOL    HW2 2114   0.672   2.971   1.229  0.7717 -0.4430 -1.0506
    1SOL    HW3 2115   0.637   2.824   1.232  1.3239 -0.5462  0.6591
    1SOL    MW4 2116   0.685   2.891   1.259  0.6594  0.0672  0.3654
    1SOL     OW 2117   0.651   3.118   1.130 -0.1509 -0.1268 -0.3284
    1SOL    HW2 2118   0.730   3.161   1.164  1.3521 -3.4033  0.5176
    1SOL    HW3 2119   0.670   3.103   1.037 -0.2909  0.1821 -0.4076
    1SOL    MW4 2120   0.664   3.122   1.122  0.0290 -0.5183 -0.2272
    1SOL     OW 2121   0.442   3.260   1.242 -0.2663 -0.2750  0.1458
    1SOL    HW2 2122   0.436   3.340   1.189 -0.2154 -1.0181 -0.9948
    1SOL    HW3 2123   0.520   3.216   1.209 -1.4669 -1.8293 -0.6778
    1SOL    MW4 2124   0.451   3.265   1.231 -0.4180 -0.5779 -0.1134
    1SOL     OW 2125   0.442   3.497   1.089  0.1798  0.2555  0.3912
    1SOL    HW2 2126   0.506   3.540   1.147 -0.2226  0.5280  0.6402
    1SOL    HW3 2127   0.358   3.533   1.117  0.0957  1.2703 -1.1532
    1SOL    MW4 2128   0.439   3.508   1.100  0.1156  0.4253  0.2203
    1SOL     OW 2129   0.642   3.638   1.241 -0.1442 -0.2481  0.2739
    1SOL    HW2 2130   0.640   3.658   1.335  1.8052 -0.3848  0.3644
    1SOL    HW3 2131   0.657   3.723   1.199  0.9686 -0.4732  0.2131
    1SOL    MW4 2132   0.644   3.652   1.248  0.2598 -0.2959  0.2780
    1SOL     OW 2133   0.673   3.881   1.112 -0.5695  0.3895  0.0463
    1SOL    HW2 2134   0.592   3.912   1.152 -0.6414  0.0526  0.1694
    1SOL    HW3 2135   0.656   3.881   1.018 -0.7189  0.3014  0.0737
    1SOL    MW4 2136   0.660   3.885   1.105 -0.5987  0.3333  0.0662
    1SOL     OW 2137   0.435   3.981   1.235  0.5143  0.0891 -0.3557
    1SOL    HW2 2138   0.437   4.070   1.199  0.6828  0.0453 -0.4520
    1SOL    HW3 2139   0.349   3.947   1.210 -0.6483  1.1820  1.9470
    1SOL    MW4 2140   0.424   3.988   1.227  0.3831  0.2277 -0.0645
    1SOL     OW 2141   0.418   4.254   1.166 -0.0692 -0.1092 -0.2271
    1SOL    HW2 2142   0.493   4.309   1.190 -0.7076  0.7132 -0.0904
    1SOL    HW3 2143   0.341   4.307   1.190 -0.6913 -1.0581 -0.0951
    1SOL    MW4 2144   0.418   4.269   1.173 -0.2355 -0.1259 -0.1917
    1SOL     OW 2145   0.636   4.419   1.239  0.2120 -0.0674 -0.0535
    1SOL    HW2 2146   0.638   4.411   1.334 -0.2468  0.5851  0.0111
    1SOL    HW3 2147   0.717   4.376   1.210  0.6345  0.2282  0.6681
    1SOL    MW4 2148   0.647   4.412   1.248  0.2072  0.0577  0.0502
    1SOL     OW 2149   1.306   4.270   1.268 -0.2228  0.0243 -0.1925
    1SOL    HW2 2150   1.264   4.291   1.352  1.3416 -0.2887  0.7074
    1SOL    HW3 2151   1.254   4.316   1.203 -0.2124  2.0490  1.1693
    1SOL    MW4 2152   1.294   4.279   1.271 -0.0151  0.2499  0.1060
    1SOL     OW 2153   0.945   0.090   1.227  0.0330 -0.3471 -0.0235
    1SOL    HW2 2154   0.971   0.088   1.319  0.1336 -0.8679 -0.0634
    1SOL    HW3 2155   1.011   0.038   1.182  1.3788  1.8890 -0.7424
    1SOL    MW4 2156   0.957   0.083   1.233  0.2239 -0.1208 -0.1235
    1SOL     OW 2157   0.919   0.368   1.166  0.3789 -0.3134  0.4141
    1SOL    HW2 2158   0.909   0.280   1.203  2.6879 -0.1261  1.5831
    1SOL    HW3 2159   0.844   0.417   1.201  0.2280 -1.2500  1.4481
    1SOL    MW4 2160   0.908   0.363   1.175  0.6636 -0.4123  0.7048
    1SOL     OW 2161   1.127   0.513   1.254  0.1506  0.1995 -0.0158
    1SOL    HW2 2162   1.133   0.503   1.349  0.4416  0.8609  0.0409
    1SOL    HW3 2163   1.055   0.455   1.228 -0.2890  0.4296  0.6733
    1SOL    MW4 2164   1.118   0.504   1.263  0.1310  0.3171  0.0827
    1SOL     OW 2165   1.111   0.768   1.167 -0.0441 -0.0950 -0.0797
    1SOL    HW2 2166   1.051   0.831   1.206  0.6272  0.2028  0.4995
    1SOL    HW3 2167   1.093   0.686   1.213  1.8468  0.6182  2.0609
    1SOL    MW4 2168   1.101   0.765   1.178  0.2940  0.0383  0.2792
    1SOL     OW 2169   0.913   0.910   1.281  0.6220  0.1774 -0.5390
    1SOL    HW2 2170   0.923   0.994   1.236 -0.7373  0.9108  0.5019
    1SOL    HW3 2171   0.839   0.868   1.238  1.0327 -0.3188 -0.7739
    1SOL    MW4 2172   0.905   0.916   1.269  0.4969  0.2087 -0.4327
    1SOL     OW 2173   0.967   1.174   1.169 -0.3242  0.3175 -0.0928
    1SOL    HW2 2174   1.047   1.226   1.173 -0.8107  1.1099 -0.7064
    1SOL    HW3 2175   0.955   1.156   1.076 -0.0010 -1.1504  0.1327
    1SOL    MW4 2176   0.976   1.178   1.157 -0.3457  0.2283 -0.1439
    1SOL     OW 2177   1.187   1.333   1.220  0.4862  0.4068  0.4085
    1SOL    HW2 2178   1.163   1.340   1.313  0.9101 -0.0245  0.5560
    1SOL    HW3 2179   1.261   1.273   1.220  2.9344  3.3270  0.1893
    1SOL    MW4 2180   1.194   1.326   1.232  0.8651  0.7352  0.3991
    1SOL     OW 2181   1.135   1.542   1.052 -0.2269  0.2922 -0.0990
    1SOL    HW2 2182   1.177   1.469   1.098 -0.5480  0.0039 -0.2639
    1SOL    HW3 2183   1.130   1.514   0.961  1.6337  1.4116 -0.5729
    1SOL    MW4 2184   1.140   1.529   1.046 -0.0240  0.4017 -0.1833
    1SOL     OW 2185   0.880   1.678   1.476 -0.3962 -0.3332 -0.0553
    1SOL    HW2 2186   0.898   1.669   1.382  0.2950 -2.2679  0.2415
    1SOL    HW3 2187   0.953   1.634   1.519  0.0316  1.7614  1.4534
    1SOL    MW4 2188   0.892   1.671   1.469 -0.2486 -0.3123  0.1829
    1SOL     OW 2189   0.886   1.974   1.130  0.1109 -0.3217  0.0462
    1SOL    HW2 2190   0.962   2.015   1.170 -0.1698  1.3912 -1.1453
    1SOL    HW3 2191   0.811   2.011   1.177 -0.0700 -0.8299  0.1694
    1SOL    MW4 2192   0.886   1.984   1.142  0.0501 -0.1628 -0.0947
    1SOL     OW 2193   1.117   2.086   1.214  0.5424  0.2333 -0.1740
    1SOL    HW2 2194   1.117   2.097   1.309 -0.1610 -1.9716  0.1163
    1SOL    HW3 2195   1.129   2.174   1.180  0.3369  1.1255  1.9571
    1SOL    MW4 2196   1.118   2.099   1.222  0.4226  0.0601  0.1454
    1SOL     OW 2197   1.110   2.348   1.119  0.3115  0.3681  0.0353
    1SOL    HW2 2198   1.183   2.385   1.168  0.9026 -1.2386  0.3986
    1SOL    HW3 2199   1.034   2.401   1.146  1.4567  2.6415 -1.0523
    1SOL    MW4 2200   1.110   2.360   1.129  0.5406  0.4559 -0.0602
    1SOL     OW 2201   0.911   2.493   1.240  0.0609  0.2753 -0.0005
    1SOL    HW2 2202   0.884   2.577   1.203  0.4176  0.1688 -0.5103
    1SOL    HW3 2203   0.884   2.497   1.331  2.6182  2.0663  0.7279
    1SOL    MW4 2204   0.903   2.504   1.247  0.4454  0.4976  0.0284
    1SOL     OW 2205   0.887   2.747   1.114  0.0707  0.6026  0.0873
    1SOL    HW2 2206   0.873   2.748   1.019 -0.3477 -2.5639  0.0802
    1SOL    HW3 2207   0.824   2.811   1.147 -0.8470  0.6265 -1.6252
    1SOL    MW4 2208   0.877   2.756   1.106 -0.1056  0.1876 -0.1396
    1SOL     OW 2209   1.096   2.881   1.223 -0.0956  0.5067  0.0874
    1SOL    HW2 2210   1.113   2.872   1.317 -0.3543  1.0824  0.1910
    1SOL    HW3 2211   1.029   2.816   1.204  0.2927  0.0676  0.2063
    1SOL    MW4 2212   1.090   2.871   1.233 -0.0786  0.5248  0.1167
    1SOL     OW 2213   1.087   3.143   1.120 -0.2384 -0.2966  0.6265
    1SOL    HW2 2214   1.107   3.052   1.145 -0.3310  0.1429  2.3149
    1SOL    HW3 2215   1.106   3.146   1.026  0.0377 -1.9922  0.6095
    1SOL    MW4 2216   1.092   3.131   1.111 -0.2142 -0.4623  0.8470
    1SOL     OW 2217   0.867   3.239   1.248  0.2849  0.4399 -0.3221
    1SOL    HW2 2218   0.863   3.329   1.216  1.6424  1.5134  2.3859
    1SOL    HW3 2219   0.944   3.202   1.204  1.3871  1.5019  0.6589
    1SOL    MW4 2220   0.877   3.246   1.238  0.6094  0.7219  0.1646
    1SOL     OW 2221   0.876   3.500   1.150 -0.6374 -0.0255 -0.2024
    1SOL    HW2 2222   0.809   3.560   1.183 -1.1877 -1.5152  1.4499
    1SOL    HW3 2223   0.859   3.495   1.056 -1.9547  0.7225 -0.0152
    1SOL    MW4 2224   0.865   3.507   1.142 -0.8838 -0.1233  0.0402
    1SOL     OW 2225   1.093   3.635   1.243 -0.4009 -0.0383  0.1503
    1SOL    HW2 2226   1.167   3.614   1.185 -1.1302  1.0276 -1.1832
    1SOL    HW3 2227   1.022   3.578   1.213 -0.2254 -0.8340  1.2290
    1SOL    MW4 2228   1.094   3.624   1.231 -0.4740 -0.0029  0.1168
    1SOL     OW 2229   1.325   3.994   1.297  0.0084  0.1695 -0.0225
    1SOL    HW2 2230   1.308   4.087   1.278  0.1954  0.2394  0.1487
    1SOL    HW3 2231   1.267   3.947   1.237  2.1998  0.3664 -2.4033
    1SOL    MW4 2232   1.315   4.000   1.287  0.3222  0.2048 -0.3141
    1SOL     OW 2233   0.882   4.043   1.196 -0.1954 -0.1041 -0.2639
    1SOL    HW2 2234   0.888   4.018   1.288  1.4281 -2.5197 -0.9764
    1SOL    HW3 2235   0.813   3.987   1.160 -0.4321  0.4246 -0.6489
    1SOL    MW4 2236   0.874   4.033   1.203 -0.0125 -0.3529 -0.4088
    1SOL     OW 2237   0.220   3.166   0.874 -0.3225  0.0358  0.0203
    1SOL    HW2 2238   0.222   3.141   0.967 -1.4986  0.3617  0.1367
    1SOL    HW3 2239   0.235   3.084   0.827  0.9048 -0.0226  0.5110
    1SOL    MW4 2240   0.222   3.152   0.880 -0.3158  0.0710  0.1003
    1SOL     OW 2241   0.856   4.286   1.098  0.2393 -0.0780  0.2929
    1SOL    HW2 2242   0.859   4.199   1.137 -0.7470 -0.3790 -0.2940
    1SOL    HW3 2243   0.807   4.275   1.017 -0.2894  1.1016  0.4343
    1SOL    MW4 2244   0.850   4.273   1.093  0.0395  0.0386  0.2340
    1SOL     OW 2245   1.582   4.642   1.125 -0.1454  0.1836  0.1949
    1SOL    HW2 2246   1.664   4.678   1.160  0.0521 -0.4698  0.4134
    1SOL    HW3 2247   1.572   4.558   1.169 -0.0648 -0.5101 -1.0970
    1SOL    MW4 2248   1.591   4.636   1.136 -0.1087  0.0057  0.0533
    1SOL     OW 2249   1.350   0.084   1.241 -0.0067 -0.3786  0.2066
    1SOL    HW2 2250   1.431   0.060   1.195 -0.0195  1.9935 -1.1100
    1SOL    HW3 2251   1.281   0.035   1.196  0.1749  0.7903 -1.3762
    1SOL    MW4 2252   1.352   0.075   1.229  0.0156  0.0886 -0.1760
    1SOL     OW 2253   1.309   0.343   1.152  0.1311  0.5770  0.4593
    1SOL    HW2 2254   1.306   0.262   1.204  2.7891 -0.3350 -0.7077
    1SOL    HW3 2255   1.243   0.399   1.192 -2.3239 -2.4299  0.8420
    1SOL    MW4 2256   1.300   0.340   1.164  0.1580  0.0599  0.3557
    1SOL     OW 2257   1.557   0.464   1.234 -0.2786 -0.0474  0.3541
    1SOL    HW2 2258   1.550   0.548   1.189  1.3918 -0.1744 -0.1782
    1SOL    HW3 2259   1.480   0.415   1.205  0.1184  0.3288 -1.4081
    1SOL    MW4 2260   1.546   0.469   1.224 -0.0058 -0.0145  0.0515
    1SOL     OW 2261   1.544   0.733   1.136 -0.5675 -0.2074 -0.3170
    1SOL    HW2 2262   1.623   0.776   1.168 -1.0034 -0.2024  0.7715
    1SOL    HW3 2263   1.543   0.751   1.042  0.8806 -0.4579 -0.3896
    1SOL    MW4 2264   1.554   0.741   1.128 -0.4340 -0.2398 -0.1830
    1SOL     OW 2265   1.346   0.866   1.284  0.6218  0.4158 -0.4761
    1SOL    HW2 2266   1.414   0.826   1.230  0.9947 -0.0792  0.3566
    1SOL    HW3 2267   1.264   0.827   1.252  0.8828 -0.2189 -0.3803
    1SOL    MW4 2268   1.344   0.855   1.272  0.7055  0.2667 -0.3536
    1SOL     OW 2269   1.385   1.131   1.177 -1.0064 -0.5223 -0.2283
    1SOL    HW2 2270   1.376   1.047   1.222  1.5603 -1.0303 -0.5460
    1SOL    HW3 2271   1.374   1.110   1.084 -2.3539 -0.1592 -0.1516
    1SOL    MW4 2272   1.383   1.117   1.171 -0.8456 -0.5416 -0.2601
    1SOL     OW 2273   1.593   1.305   1.253  0.2048 -0.0437  0.3194
    1SOL    HW2 2274   1.600   1.297   1.349  1.0085 -2.5257  0.0958
    1SOL    HW3 2275   1.517   1.252   1.230  0.5314 -0.1701 -0.4875
    1SOL    MW4 2276   1.584   1.297   1.263  0.3539 -0.3879  0.1832
    1SOL     OW 2277   1.569   1.577   1.170  0.3109  0.0775 -0.0101
    1SOL    HW2 2278   1.645   1.616   1.215  0.8842  0.3896 -1.2338
    1SOL    HW3 2279   1.574   1.484   1.192  0.8849  0.1407  0.1563
    1SOL    MW4 2280   1.580   1.570   1.179  0.4622  0.1271 -0.1495
    1SOL     OW 2281   1.324   1.686   1.215 -0.3479  0.4154 -0.3755
    1SOL    HW2 2282   1.413   1.655   1.198  0.1876  1.2453  0.8361
    1SOL    HW3 2283   1.268   1.627   1.165  0.7506 -1.3926  0.4707
    1SOL    MW4 2284   1.328   1.674   1.206 -0.1323  0.2862 -0.1040
    1SOL     OW 2285   1.360   1.963   1.130 -0.0778 -0.1084 -0.5016
    1SOL    HW2 2286   1.338   1.870   1.137  0.9462 -0.3132  0.1403
    1SOL    HW3 2287   1.284   2.008   1.168 -0.2259 -0.7194 -0.0569
    1SOL    MW4 2288   1.347   1.957   1.136  0.0378 -0.2159 -0.3583
    1SOL     OW 2289   1.594   2.073   1.233  0.3060 -0.0451 -0.0709
    1SOL    HW2 2290   1.589   2.163   1.201 -1.5402  0.1196  0.5928
    1SOL    HW3 2291   1.522   2.028   1.189  1.6588 -1.3775 -0.9322
    1SOL    MW4 2292   1.584   2.079   1.223  0.2407 -0.1993 -0.0969
    1SOL     OW 2293   1.569   2.333   1.120  0.1304  0.0479 -0.8417
    1SOL    HW2 2294   1.484   2.365   1.150  0.1012  0.4336 -1.3375
    1SOL    HW3 2295   1.575   2.361   1.029  1.3472  1.1540 -0.4372
    1SOL    MW4 2296   1.559   2.341   1.112  0.2872  0.2449 -0.8537
    1SOL     OW 2297   1.325   2.452   1.238  0.0523 -0.3269  0.0685
    1SOL    HW2 2298   1.318   2.447   1.333  0.9101 -1.6029  0.0825
    1SOL    HW3 2299   1.324   2.545   1.219  1.1424 -0.0174  1.4350
    1SOL    MW4 2300   1.324   2.463   1.248  0.3092 -0.4544  0.2507
    1SOL     OW 2301   1.314   2.722   1.121 -0.0709 -0.4478  0.4514
    1SOL    HW2 2302   1.399   2.763   1.135 -0.3830  0.8995 -1.3484
    1SOL    HW3 2303   1.251   2.783   1.160 -0.3751 -0.2228 -0.3708
    1SOL    MW4 2304   1.317   2.735   1.128 -0.1521 -0.2403  0.1054
    1SOL     OW 2305   1.559   2.849   1.186 -0.0829 -0.2153 -0.6551
    1SOL    HW2 2306   1.637   2.803   1.154  0.9816  0.8630  0.3180
    1SOL    HW3 2307   1.560   2.932   1.139  0.5735  0.6954  0.9344
    1SOL    MW4 2308   1.569   2.854   1.176  0.1442  0.0470 -0.3171
    1SOL     OW 2309   1.533   3.125   1.117  0.3324  0.4202  0.1547
    1SOL    HW2 2310   1.603   3.173   1.161 -0.2549  1.5059 -0.0737
    1SOL    HW3 2311   1.453   3.174   1.139 -0.1696  0.0091 -0.7376
    1SOL    MW4 2312   1.532   3.138   1.126  0.1885  0.5093  0.0070
    1SOL     OW 2313   1.325   3.271   1.195  0.4751 -0.1256  0.2546
    1SOL    HW2 2314   1.318   3.277   1.291  1.0273  0.3550  0.2651
    1SOL    HW3 2315   1.238   3.240   1.167  0.4894 -0.8146  0.9514
    1SOL    MW4 2316   1.312   3.268   1.204  0.5499 -0.1531  0.3480
    1SOL     OW 2317   1.343   3.556   1.138  0.2696 -0.0048  0.4783
    1SOL    HW2 2318   1.350   3.466   1.170  0.8029 -0.2055 -0.1733
    1SOL    HW3 2319   1.353   3.548   1.043  0.6454  0.7721  0.4487
    1SOL    MW4 2320   1.345   3.543   1.129  0.3896  0.0713  0.3884
    1SOL     OW 2321   1.586   3.619   1.248 -0.1938 -0.3066  0.0671
    1SOL    HW2 2322   1.577   3.715   1.246 -0.7836 -0.3201  1.5074
    1SOL    HW3 2323   1.500   3.587   1.220  0.3388 -0.4365 -1.4963
    1SOL    MW4 2324   1.573   3.628   1.244 -0.2012 -0.3257  0.0508
    1SOL     OW 2325   1.559   3.909   1.175  0.4840  0.0523 -0.3015
    1SOL    HW2 2326   1.550   3.909   1.080  0.6352  0.8851 -0.3184
    1SOL    HW3 2327   1.475   3.942   1.207  1.2130  1.9255 -0.2381
    1SOL    MW4 2328   1.547   3.914   1.167  0.6000  0.4094 -0.2954
    1SOL     OW 2329   4.359   4.352   0.849  0.1626  0.2316  0.5708
    1SOL    HW2 2330   4.421   4.336   0.777  0.8333  2.4616  0.6317
    1SOL    HW3 2331   4.397   4.306   0.924 -1.1234 -3.1096 -0.6956
    1SOL    MW4 2332   4.372   4.344   0.849  0.0815  0.0844  0.4117
    1SOL     OW 2333   0.714   4.311   0.860  0.0839  0.4134 -0.1564
    1SOL    HW2 2334   0.742   4.284   0.773 -0.3083  0.0634 -0.1787
    1SOL    HW3 2335   0.731   4.405   0.863 -2.4992  0.9855 -1.6445
    1SOL    MW4 2336   0.720   4.320   0.849 -0.3086  0.4420 -0.3557
    1SOL     OW 2337   1.530   4.385   1.233 -0.2993  0.3199  0.1109
    1SOL    HW2 2338   1.567   4.383   1.321 -0.4051 -0.1526  0.1475
    1SOL    HW3 2339   1.446   4.340   1.242 -0.1474 -0.0465 -0.3046
    1SOL    MW4 2340   1.524   4.379   1.246 -0.2933  0.2093  0.0608
    1SOL     OW 2341   1.816   0.088   1.248 -0.1520  0.3815 -0.2018
    1SOL    HW2 2342   1.804   0.173   1.206 -0.4198  0.7866  0.6825
    1SOL    HW3 2343   1.897   0.054   1.210 -0.2841  0.8284 -0.8929
    1SOL    MW4 2344   1.825   0.095   1.238 -0.2047  0.4939 -0.1763
    1SOL     OW 2345   2.049   4.663   1.134  0.3611  0.1968  0.4833
    1SOL    HW2 2346   2.061   4.652   1.039 -0.4220  0.3168  0.3701
    1SOL    HW3 2347   2.053   4.574   1.168  0.0001  0.0902  0.2574
    1SOL    MW4 2348   2.051   4.650   1.126  0.2103  0.1984  0.4385
    1SOL     OW 2349   1.795   0.346   1.159  0.2447  0.4706 -0.5223
    1SOL    HW2 2350   1.715   0.390   1.190  0.8720  0.2729  1.4300
    1SOL    HW3 2351   1.865   0.384   1.213  1.1944 -0.8165 -0.8435
    1SOL    MW4 2352   1.794   0.357   1.170  0.4528  0.2747 -0.3071
    1SOL     OW 2353   1.978   0.493   1.292  0.0512  0.2460 -0.3685
    1SOL    HW2 2354   1.974   0.578   1.250  0.8968  0.6234  0.2899
    1SOL    HW3 2355   2.001   0.513   1.383 -0.2385 -0.6466 -0.0980
    1SOL    MW4 2356   1.981   0.507   1.299  0.1246  0.1780 -0.2460
    1SOL     OW 2357   2.230   0.373   1.202 -0.5055  0.7938  0.1324
    1SOL    HW2 2358   2.142   0.409   1.216 -0.7723  0.0272  0.4415
    1SOL    HW3 2359   2.241   0.374   1.106 -1.4916 -0.6211 -0.0028
    1SOL    MW4 2360   2.220   0.378   1.191 -0.6704  0.5060  0.1553
    1SOL     OW 2361   1.752   0.856   1.260 -0.6944  0.1854  0.1717
    1SOL    HW2 2362   1.768   0.886   1.349 -1.0928 -0.1026  0.3370
    1SOL    HW3 2363   1.835   0.816   1.233  0.5070  3.1382 -0.7377
    1SOL    MW4 2364   1.765   0.855   1.268 -0.5884  0.5370  0.0734
    1SOL     OW 2365   1.780   1.117   1.165 -0.1012 -0.1203  0.0532
    1SOL    HW2 2366   1.706   1.166   1.201 -0.0098 -0.1134  0.2289
    1SOL    HW3 2367   1.762   1.026   1.188 -1.1658 -0.4121 -1.7731
    1SOL    MW4 2368   1.768   1.112   1.173 -0.2296 -0.1580 -0.1646
    1SOL     OW 2369   2.003   1.277   1.222 -0.1434  0.0641 -0.6708
    1SOL    HW2 2370   1.930   1.217   1.211 -0.0850 -0.1297 -0.0275
    1SOL    HW3 2371   2.077   1.233   1.181 -0.7334  0.9858 -2.8238
    1SOL    MW4 2372   2.003   1.263   1.215 -0.2136  0.1602 -0.8700
    1SOL     OW 2373   2.205   1.688   1.244 -0.3203  0.3960 -0.3010
    1SOL    HW2 2374   2.134   1.653   1.190 -0.1632  0.4645 -0.5552
    1SOL    HW3 2375   2.220   1.776   1.209 -0.3306  0.5013 -0.0366
    1SOL    MW4 2376   2.197   1.695   1.232 -0.3009  0.4189 -0.2996
    1SOL     OW 2377   1.801   1.700   1.229  0.0743  0.0351  0.2830
    1SOL    HW2 2378   1.815   1.788   1.195  0.1650 -0.1789 -0.2424
    1SOL    HW3 2379   1.869   1.647   1.187 -0.6093 -0.4786 -0.1952
    1SOL    MW4 2380   1.812   1.704   1.219 -0.0038 -0.0610  0.1507
    1SOL     OW 2381   1.836   1.954   1.135  0.0383  0.3519  0.1224
    1SOL    HW2 2382   1.757   1.997   1.168 -0.6841 -1.1100  0.3117
    1SOL    HW3 2383   1.826   1.957   1.039  0.1330  0.8585  0.1254
    1SOL    MW4 2384   1.824   1.960   1.126 -0.0446  0.2258  0.1477
    1SOL     OW 2385   2.009   2.127   1.254 -0.0372 -0.4856  0.0480
    1SOL    HW2 2386   2.010   2.094   1.344 -2.1960  0.2383  0.3847
    1SOL    HW3 2387   1.933   2.084   1.214  2.2194 -2.5758 -2.1630
    1SOL    MW4 2388   1.999   2.117   1.260 -0.0244 -0.6654 -0.1993
    1SOL     OW 2389   1.992   2.375   1.115 -0.1429  0.0992  0.0664
    1SOL    HW2 2390   2.069   2.430   1.129 -0.4505  0.8299 -0.9522
    1SOL    HW3 2391   2.011   2.293   1.160  1.1288  0.3583  0.0176
    1SOL    MW4 2392   2.004   2.372   1.122 -0.0157  0.2301 -0.0744
    1SOL     OW 2393   1.769   2.488   1.237 -0.1888 -0.4393 -0.3443
    1SOL    HW2 2394   1.851   2.454   1.202 -0.6379 -1.6873 -0.1956
    1SOL    HW3 2395   1.701   2.437   1.193 -0.7346 -2.8932  3.1578
    1SOL    MW4 2396   1.771   2.477   1.227 -0.3201 -0.9277  0.1374
    1SOL     OW 2397   1.792   2.730   1.077  0.3831  0.1337  0.2110
    1SOL    HW2 2398   1.806   2.708   0.985  1.3748  0.2562  0.3286
    1SOL    HW3 2399   1.792   2.646   1.122 -0.5431  0.0389  0.0512
    1SOL    MW4 2400   1.794   2.716   1.071  0.3918  0.1376  0.2054
    1SOL     OW 2401   2.014   2.870   1.174  0.0856 -0.0149 -0.1819
    1SOL    HW2 2402   1.998   2.962   1.151  0.7717  0.0599 -0.3642
    1SOL    HW3 2403   1.939   2.823   1.137 -0.8212  0.6002  0.8295
    1SOL    MW4 2404   2.002   2.876   1.166  0.0565  0.0763 -0.0726
    1SOL     OW 2405   1.992   3.131   1.073  0.2410 -0.2874 -0.1909
    1SOL    HW2 2406   1.916   3.168   1.118  0.7559 -0.0566  0.5090
    1SOL    HW3 2407   1.986   3.162   0.983  0.2429  0.8588  0.1972
    1SOL    MW4 2408   1.981   3.140   1.067  0.3092 -0.1056 -0.0474
    1SOL     OW 2409   1.758   3.256   1.210  0.4652 -0.3753  0.0627
    1SOL    HW2 2410   1.754   3.270   1.305  0.9712 -0.4098  0.0885
    1SOL    HW3 2411   1.777   3.342   1.174 -1.1190 -0.0843 -0.1106
    1SOL    MW4 2412   1.760   3.269   1.218  0.3228 -0.3412  0.0432
    1SOL     OW 2413   1.816   3.511   1.126  0.4011 -0.1894 -0.1582
    1SOL    HW2 2414   1.895   3.550   1.163  0.5835  0.2945 -1.0473
    1SOL    HW3 2415   1.744   3.561   1.165  0.6839  2.3875 -2.7323
    1SOL    MW4 2416   1.817   3.523   1.136  0.4624  0.2146 -0.6152
    1SOL     OW 2417   2.015   3.661   1.244  0.4511 -0.0941  0.2762
    1SOL    HW2 2418   2.013   3.651   1.339 -1.9832 -1.1103  0.1450
    1SOL    HW3 2419   2.023   3.756   1.230  2.1985 -0.0369  1.4656
    1SOL    MW4 2420   2.016   3.672   1.254  0.3605 -0.2205  0.4159
    1SOL     OW 2421   2.037   3.937   1.192  0.3728 -0.0421  0.1865
    1SOL    HW2 2422   1.954   3.982   1.207  0.3200 -0.2097  0.4117
    1SOL    HW3 2423   2.042   3.927   1.097  0.2671  0.2137  0.1533
    1SOL    MW4 2424   2.027   3.941   1.182  0.3519 -0.0305  0.2117
    1SOL     OW 2425   1.789   4.051   1.238  0.0476 -0.3273  0.1362
    1SOL    HW2 2426   1.782   4.040   1.333 -1.6753  0.1717  0.0917
    1SOL    HW3 2427   1.713   4.003   1.203  0.3508 -0.0252 -0.9474
    1SOL    MW4 2428   1.778   4.043   1.246 -0.1396 -0.2217 -0.0125
    1SOL     OW 2429   1.767   4.290   1.104 -0.5283 -0.3846 -0.3729
    1SOL    HW2 2430   1.681   4.322   1.130  0.7008  1.0623  2.1457
    1SOL    HW3 2431   1.777   4.207   1.153  0.7791  1.0948  1.9834
    1SOL    MW4 2432   1.757   4.283   1.114 -0.1936  0.0014  0.2702
    1SOL     OW 2433   2.032   4.407   1.219 -0.2003 -0.3575 -0.0325
    1SOL    HW2 2434   2.026   4.399   1.314 -0.8783  0.1247 -0.0273
    1SOL    HW3 2435   1.942   4.396   1.188 -0.0326 -0.2028 -0.5950
    1SOL    MW4 2436   2.019   4.404   1.227 -0.2677 -0.2732 -0.1061
    1SOL     OW 2437   2.463   4.657   1.153 -0.5802  0.5602 -0.5462
    1SOL    HW2 2438   2.538   4.706   1.186  0.4525 -0.7513 -0.8881
    1SOL    HW3 2439   2.386   4.708   1.180  0.5131  3.6421 -2.9783
    1SOL    MW4 2440   2.462   4.670   1.161 -0.2997  0.7935 -0.9122
    1SOL     OW 2441   2.249   0.112   1.269  0.1933 -0.2224 -0.1306
    1SOL    HW2 2442   2.250   0.198   1.227 -1.1996  0.5227  1.3100
    1SOL    HW3 2443   2.178   0.065   1.225  0.0649 -0.1617  0.0128
    1SOL    MW4 2444   2.240   0.117   1.257 -0.0072 -0.1161  0.0783
    1SOL     OW 2445   2.346   0.747   0.886  0.4575  0.9967 -0.2950
    1SOL    HW2 2446   2.399   0.675   0.852  0.0399 -0.1014  1.3101
    1SOL    HW3 2447   2.368   0.822   0.830  1.3625 -0.2153 -1.5935
    1SOL    MW4 2448   2.356   0.748   0.875  0.5219  0.6921 -0.2546
    1SOL     OW 2449   2.456   0.532   1.253  0.5057 -0.0835 -0.4347
    1SOL    HW2 2450   2.460   0.537   1.349  1.2250  0.2827 -0.4843
    1SOL    HW3 2451   2.376   0.483   1.235 -0.6971  1.5436  0.3230
    1SOL    MW4 2452   2.446   0.526   1.263  0.4418  0.1795 -0.3413
    1SOL     OW 2453   2.208   0.911   1.233 -0.1428 -0.7851 -0.1898
    1SOL    HW2 2454   2.290   0.874   1.198  0.3072  0.0523 -0.0436
    1SOL    HW3 2455   2.202   0.998   1.193 -0.3687 -0.3897  0.6935
    1SOL    MW4 2456   2.218   0.918   1.223 -0.1132 -0.6225 -0.0540
    1SOL     OW 2457   2.007   0.727   1.161  0.4590 -0.4440  0.0644
    1SOL    HW2 2458   2.060   0.802   1.189 -0.7978  0.6264 -0.3806
    1SOL    HW3 2459   2.024   0.719   1.067  1.7763 -1.6981  0.3860
    1SOL    MW4 2460   2.016   0.736   1.152  0.4668 -0.4682  0.0482
    1SOL     OW 2461   2.241   1.162   1.115  0.5792 -0.2875  0.1691
    1SOL    HW2 2462   2.307   1.225   1.144  1.0642 -0.6651 -0.1189
    1SOL    HW3 2463   2.233   1.178   1.021 -0.8331  0.7877  0.4547
    1SOL    MW4 2464   2.248   1.173   1.106  0.4568 -0.1955  0.1687
    1SOL     OW 2465   2.439   1.320   1.231 -0.1680 -0.1649 -0.0080
    1SOL    HW2 2466   2.524   1.292   1.197 -1.2424 -0.6211 -2.4280
    1SOL    HW3 2467   2.430   1.411   1.201 -1.8562 -1.1035 -2.5262
    1SOL    MW4 2468   2.449   1.329   1.222 -0.5324 -0.3490 -0.6597
    1SOL     OW 2469   2.452   1.575   1.152  0.2894  0.1743 -0.1043
    1SOL    HW2 2470   2.362   1.605   1.165  0.7510  0.9701  1.3936
    1SOL    HW3 2471   2.460   1.565   1.057 -1.3930  0.0224 -0.2498
    1SOL    MW4 2472   2.441   1.578   1.141  0.1283  0.2594  0.0740
    1SOL     OW 2473   1.103   1.500   0.770  0.2052  0.3693  0.1446
    1SOL    HW2 2474   1.022   1.551   0.770 -0.3287 -0.4603  0.2017
    1SOL    HW3 2475   1.173   1.564   0.757 -0.4119  1.1774  0.7640
    1SOL    MW4 2476   1.102   1.515   0.768  0.0532  0.3664  0.2338
    1SOL     OW 2477   2.207   1.957   1.144 -0.6064 -0.2790  0.1278
    1SOL    HW2 2478   2.218   1.991   1.056  0.3118  0.0348  0.3587
    1SOL    HW3 2479   2.136   2.009   1.181 -1.8831 -1.2914 -0.8596
    1SOL    MW4 2480   2.199   1.968   1.138 -0.6535 -0.3712  0.0280
    1SOL     OW 2481   2.456   2.052   1.265 -0.0944 -0.3446  0.1006
    1SOL    HW2 2482   2.532   2.004   1.234  0.2425  0.9969 -1.2412
    1SOL    HW3 2483   2.382   2.014   1.218  0.0792 -0.0499 -0.4205
    1SOL    MW4 2484   2.456   2.041   1.254 -0.0274 -0.1290 -0.1452
    1SOL     OW 2485   2.467   2.300   1.149  0.4015 -0.2616 -0.2397
    1SOL    HW2 2486   2.378   2.335   1.158  0.5137 -0.0631  0.0824
    1SOL    HW3 2487   2.466   2.218   1.197  0.7424  0.3491  0.8259
    1SOL    MW4 2488   2.455   2.294   1.156  0.4611 -0.1550 -0.0566
    1SOL     OW 2489   2.236   2.479   1.194  0.0748  0.0412  0.5442
    1SOL    HW2 2490   2.229   2.572   1.171 -1.5758 -0.7096 -2.2058
    1SOL    HW3 2491   2.219   2.477   1.288  0.7099  2.5740  0.7660
    1SOL    MW4 2492   2.233   2.491   1.203 -0.0594  0.2763  0.2106
    1SOL     OW 2493   1.455   4.455   0.380  0.0266 -0.2566 -0.4364
    1SOL    HW2 2494   1.428   4.391   0.446  0.5471 -0.5385 -0.4912
    1SOL    HW3 2495   1.530   4.413   0.336  0.3843  0.3983 -0.4522
    1SOL    MW4 2496   1.461   4.441   0.383  0.1425 -0.2074 -0.4457
    1SOL     OW 2497   2.468   2.881   1.253  0.2007  0.0401 -0.0769
    1SOL    HW2 2498   2.467   2.890   1.348 -0.4692 -0.5962 -0.0135
    1SOL    HW3 2499   2.546   2.829   1.235 -0.2277 -0.7211  0.2230
    1SOL    MW4 2500   2.478   2.875   1.263  0.0558 -0.1442 -0.0291
    1SOL     OW 2501   2.420   3.103   1.103 -0.1267  0.2942 -0.6826
    1SOL    HW2 2502   2.347   3.150   1.143 -1.1094 -1.3958 -0.4243
    1SOL    HW3 2503   2.442   3.034   1.165  1.2911  0.3812 -1.0489
    1SOL    MW4 2504   2.414   3.100   1.116 -0.0691  0.0827 -0.6968
    1SOL     OW 2505   2.200   3.267   1.214  0.1248  0.6627  0.1753
    1SOL    HW2 2506   2.212   3.354   1.178 -2.1313  1.1220  0.4735
    1SOL    HW3 2507   2.131   3.227   1.161 -0.0873 -0.2987  1.1436
    1SOL    MW4 2508   2.193   3.273   1.203 -0.2010  0.5965  0.3425
    1SOL     OW 2509   2.224   3.528   1.098  0.5445  0.1685  0.4131
    1SOL    HW2 2510   2.169   3.583   1.154 -0.2293  0.3666 -0.5291
    1SOL    HW3 2511   2.314   3.551   1.123  0.2092  0.4721  1.3570
    1SOL    MW4 2512   2.228   3.538   1.109  0.3982  0.2346  0.4133
    1SOL     OW 2513   2.462   3.621   1.210 -0.1803  0.4427  0.3520
    1SOL    HW2 2514   2.470   3.632   1.305 -1.0473  0.7995  0.3938
    1SOL    HW3 2515   2.486   3.707   1.174  0.4629  0.2122  0.2265
    1SOL    MW4 2516   2.466   3.634   1.218 -0.2098  0.4597  0.3409
    1SOL     OW 2517   2.504   3.914   1.187 -0.0720 -0.2394 -0.1920
    1SOL    HW2 2518   2.431   3.966   1.221 -1.4751 -1.4133 -1.3259
    1SOL    HW3 2519   2.488   3.911   1.093  0.1154 -2.5047 -0.1629
    1SOL    MW4 2520   2.492   3.921   1.179 -0.2325 -0.6931 -0.3378
    1SOL     OW 2521   2.278   4.037   1.313 -0.2456  0.7154  0.3902
    1SOL    HW2 2522   2.269   4.117   1.262 -1.8825  0.5097  0.3229
    1SOL    HW3 2523   2.212   3.978   1.277  0.9922 -0.6952  0.3960
    1SOL    MW4 2524   2.268   4.040   1.302 -0.2980  0.5021  0.3822
    1SOL     OW 2525   2.273   4.269   1.164  0.0895  0.2796 -0.1696
    1SOL    HW2 2526   2.189   4.309   1.185 -0.8831 -0.8051 -1.9301
    1SOL    HW3 2527   2.278   4.269   1.069  1.6895 -0.4704 -0.1144
    1SOL    MW4 2528   2.263   4.274   1.154  0.1721  0.0381 -0.3947
    1SOL     OW 2529   2.483   4.415   1.270  0.5028 -0.4345 -0.1430
    1SOL    HW2 2530   2.414   4.364   1.227 -0.0628  0.9665 -0.9305
    1SOL    HW3 2531   2.483   4.499   1.223  1.0815  0.4711  1.4468
    1SOL    MW4 2532   2.474   4.419   1.258  0.5045 -0.1302 -0.0372
    1SOL     OW 2533   2.914   0.007   1.166 -0.2330  0.1184 -0.3800
    1SOL    HW2 2534   2.911  -0.082   1.202  0.9029  0.2015 -0.0521
    1SOL    HW3 2535   2.922  -0.006   1.071 -2.1605 -0.1066 -0.5235
    1SOL    MW4 2536   2.915  -0.007   1.158 -0.3376  0.0997 -0.3556
    1SOL     OW 2537   2.685   0.118   1.250  0.0832 -0.0735  0.1176
    1SOL    HW2 2538   2.707   0.133   1.342 -0.4212  1.0826  0.0601
    1SOL    HW3 2539   2.765   0.083   1.211  0.9386  1.4006  0.5300
    1SOL    MW4 2540   2.698   0.115   1.257  0.1299  0.2735  0.1645
    1SOL     OW 2541   2.702   0.387   1.178  0.0328 -0.4870  0.3132
    1SOL    HW2 2542   2.698   0.299   1.215 -0.3974  0.2229  2.0080
    1SOL    HW3 2543   2.616   0.425   1.197  0.4581  0.5386  0.2032
    1SOL    MW4 2544   2.690   0.380   1.185  0.0322 -0.2580  0.5223
    1SOL     OW 2545   2.918   0.525   1.268 -0.1521 -0.3381  0.0718
    1SOL    HW2 2546   2.898   0.610   1.228  1.2928  0.8882  1.8448
    1SOL    HW3 2547   2.837   0.475   1.259 -0.8942  1.0574 -1.4101
    1SOL    MW4 2548   2.904   0.530   1.262 -0.0591  0.0079  0.1100
    1SOL     OW 2549   2.888   0.760   1.115 -0.2091  0.5401  0.2664
    1SOL    HW2 2550   2.969   0.806   1.139 -0.4366  1.4072 -0.6059
    1SOL    HW3 2551   2.818   0.819   1.142 -0.5128  0.5346 -0.5003
    1SOL    MW4 2552   2.889   0.773   1.122 -0.2792  0.6537  0.0501
    1SOL     OW 2553   2.676   0.937   1.228 -0.1702 -0.0888 -0.0883
    1SOL    HW2 2554   2.664   1.016   1.175  0.5540  0.6066  0.7757
    1SOL    HW3 2555   2.600   0.883   1.207  0.9678 -0.6020 -3.1465
    1SOL    MW4 2556   2.664   0.940   1.218  0.0753 -0.0647 -0.3778
    1SOL     OW 2557   2.670   1.197   1.090  0.6832 -0.7900 -0.3746
    1SOL    HW2 2558   2.759   1.231   1.100  0.6149 -0.3386 -1.1623
    1SOL    HW3 2559   2.651   1.211   0.997  0.3482 -2.2805 -0.5350
    1SOL    MW4 2560   2.679   1.204   1.079  0.6301 -0.9272 -0.4997
    1SOL     OW 2561   2.907   1.307   1.185  0.1469  0.1998  0.3903
    1SOL    HW2 2562   2.929   1.304   1.278 -1.5484 -0.5005  0.7958
    1SOL    HW3 2563   2.908   1.400   1.163  1.8963  0.2849  0.7624
    1SOL    MW4 2564   2.910   1.319   1.194  0.1538  0.1187  0.4928
    1SOL     OW 2565   2.896   1.573   1.127  0.0153  0.1406  0.1641
    1SOL    HW2 2566   2.971   1.628   1.151 -0.9533  1.6473 -0.2168
    1SOL    HW3 2567   2.899   1.569   1.032 -0.9444  1.0067  0.0927
    1SOL    MW4 2568   2.906   1.580   1.118 -0.2394  0.4536  0.1043
    1SOL     OW 2569   2.695   1.672   1.275  0.2073 -0.3621  0.0550
    1SOL    HW2 2570   2.761   1.626   1.223 -0.6015  0.8787 -2.1418
    1SOL    HW3 2571   2.613   1.630   1.254  0.0459 -0.7941  1.4851
    1SOL    MW4 2572   2.693   1.661   1.265  0.0796 -0.2555 -0.0461
    1SOL     OW 2573   2.682   1.926   1.167  0.1524  0.0322  0.2148
    1SOL    HW2 2574   2.769   1.965   1.169  0.4900 -0.6378 -1.0350
    1SOL    HW3 2575   2.694   1.838   1.203 -0.2845  0.4628  1.4194
    1SOL    MW4 2576   2.695   1.920   1.172  0.1392  0.0005  0.2089
    1SOL     OW 2577   2.939   2.044   1.206  0.0450 -0.3552 -0.2117
    1SOL    HW2 2578   2.953   2.048   1.301 -1.3357  0.7937 -0.0380
    1SOL    HW3 2579   2.930   2.135   1.179 -0.3962 -0.7200 -1.3165
    1SOL    MW4 2580   2.940   2.056   1.215 -0.1953 -0.2520 -0.3345
    1SOL     OW 2581   2.915   2.311   1.112  0.1052 -0.1592  0.7162
    1SOL    HW2 2582   2.995   2.353   1.143  0.5972  0.4651 -1.2624
    1SOL    HW3 2583   2.844   2.367   1.142  0.5973  0.6891  0.3093
    1SOL    MW4 2584   2.916   2.324   1.120  0.2346  0.0353  0.4015
    1SOL     OW 2585   2.678   2.445   1.223  0.4267 -0.1906  0.4166
    1SOL    HW2 2586   2.674   2.452   1.319 -0.9875  2.6668  0.1841
    1SOL    HW3 2587   2.589   2.420   1.197  0.6109 -0.1712 -0.2349
    1SOL    MW4 2588   2.666   2.442   1.232  0.2644  0.1893  0.3000
    1SOL     OW 2589   3.592   2.715   0.841 -0.4332  0.2686  0.3603
    1SOL    HW2 2590   3.581   2.704   0.935 -0.5385  1.0345  0.4332
    1SOL    HW3 2591   3.534   2.788   0.818  1.5780  1.8241  0.1331
    1SOL    MW4 2592   3.583   2.723   0.850 -0.1819  0.5746  0.3400
    1SOL     OW 2593   2.676   2.702   1.138 -0.1793 -0.0915 -0.0971
    1SOL    HW2 2594   2.656   2.711   1.045  1.5290  0.6510 -0.4032
    1SOL    HW3 2595   2.691   2.608   1.150  0.0520 -0.1280 -0.6581
    1SOL    MW4 2596   2.675   2.691   1.127  0.0768  0.0019 -0.2115
    1SOL     OW 2597   2.873   3.134   1.084 -0.0115  0.5058 -0.4536
    1SOL    HW2 2598   2.874   3.044   1.119 -0.3814  0.3546 -0.8269
    1SOL    HW3 2599   2.899   3.123   0.993 -2.4185  0.4990 -1.1500
    1SOL    MW4 2600   2.877   3.120   1.077 -0.3777  0.4849 -0.5947
    1SOL     OW 2601   2.642   3.217   1.210  0.3502  0.2549  0.4479
    1SOL    HW2 2602   2.715   3.182   1.160 -0.1206 -1.4054  0.8890
    1SOL    HW3 2603   2.564   3.185   1.164 -0.0950  1.3865  0.4039
    1SOL    MW4 2604   2.641   3.208   1.197  0.2294  0.1850  0.5004
    1SOL     OW 2605   2.691   3.487   1.152 -0.3898  0.1578  0.3449
    1SOL    HW2 2606   2.686   3.397   1.183 -1.3834  0.0203 -0.2009
    1SOL    HW3 2607   2.608   3.526   1.180 -1.1067  0.1617 -1.7086
    1SOL    MW4 2608   2.680   3.480   1.160 -0.6154  0.1402  0.0020
    1SOL     OW 2609   2.895   3.642   1.067  0.1405  0.2430  0.3303
    1SOL    HW2 2610   2.913   3.702   1.140 -0.9690  1.1162 -0.0836
    1SOL    HW3 2611   2.821   3.589   1.098  0.6853 -0.4464  0.4373
    1SOL    MW4 2612   2.887   3.643   1.081  0.0663  0.2673  0.2898
    1SOL     OW 2613   2.956   3.809   1.271 -0.0112  0.1708  0.7278
    1SOL    HW2 2614   3.036   3.859   1.286  0.5796 -0.6598  0.4060
    1SOL    HW3 2615   2.947   3.755   1.350  1.0678 -1.4783 -0.2307
    1SOL    MW4 2616   2.966   3.808   1.283  0.2091 -0.1564  0.5589
    1SOL     OW 2617   2.747   3.989   1.293  0.5135  0.1558  0.2381
    1SOL    HW2 2618   2.816   3.925   1.275 -0.2725 -0.5789 -0.1554
    1SOL    HW3 2619   2.669   3.954   1.250  0.3000  1.8417 -0.7504
    1SOL    MW4 2620   2.746   3.976   1.285  0.3817  0.2813  0.0558
    1SOL     OW 2621   2.676   4.243   1.193  0.7550  0.1427  0.1982
    1SOL    HW2 2622   2.696   4.177   1.259 -0.0463 -0.2618  0.0376
    1SOL    HW3 2623   2.602   4.292   1.229 -0.8837 -1.2540 -1.2023
    1SOL    MW4 2624   2.669   4.241   1.206  0.4332 -0.0954 -0.0077
    1SOL     OW 2625   2.888   4.408   1.259 -0.0964  0.5879 -0.1201
    1SOL    HW2 2626   2.962   4.354   1.230  0.2808  0.3500  1.2805
    1SOL    HW3 2627   2.811   4.355   1.241  0.2333 -0.1491  0.6323
    1SOL    MW4 2628   2.887   4.394   1.253 -0.0031  0.4592  0.1640
    1SOL     OW 2629   3.373   0.025   1.160 -0.2604  0.4582  0.0371
    1SOL    HW2 2630   3.442   0.083   1.193  0.3922 -0.2634 -0.0454
    1SOL    HW3 2631   3.292   0.064   1.192  0.3693 -0.5361  2.9975
    1SOL    MW4 2632   3.372   0.038   1.168 -0.0913  0.2318  0.4168
    1SOL     OW 2633   3.143   0.146   1.255 -0.4470  0.1487 -0.1161
    1SOL    HW2 2634   3.150   0.147   1.350  0.5261 -0.6108 -0.1704
    1SOL    HW3 2635   3.060   0.103   1.237 -0.9572  0.9109  0.4022
    1SOL    MW4 2636   3.133   0.141   1.265 -0.3858  0.1491 -0.0548
    1SOL     OW 2637   3.152   0.414   1.134 -0.4377  0.0178  0.1629
    1SOL    HW2 2638   3.156   0.324   1.164 -0.2884 -0.7081 -1.9417
    1SOL    HW3 2639   3.069   0.448   1.167 -0.2515 -0.7279  1.3967
    1SOL    MW4 2640   3.142   0.407   1.142 -0.3934 -0.1764  0.0478
    1SOL     OW 2641   3.368   0.528   1.220  0.0304 -0.1503 -0.0283
    1SOL    HW2 2642   3.365   0.622   1.208 -1.1930  0.2432  2.8635
    1SOL    HW3 2643   3.280   0.498   1.198  0.2961 -0.5834 -0.5302
    1SOL    MW4 2644   3.356   0.536   1.216 -0.0958 -0.1556  0.2871
    1SOL     OW 2645   3.356   0.804   1.121 -0.0208  0.3640  0.1131
    1SOL    HW2 2646   3.347   0.780   1.029 -0.3243 -0.8295  0.4530
    1SOL    HW3 2647   3.274   0.847   1.143 -1.3383 -2.3635  0.7281
    1SOL    MW4 2648   3.344   0.807   1.112 -0.2346 -0.1534  0.2391
    1SOL     OW 2649   3.110   0.905   1.201 -0.4575  0.3469  0.2170
    1SOL    HW2 2650   3.116   0.926   1.294  0.8487  0.9648  0.0116
    1SOL    HW3 2651   3.115   0.990   1.157  1.8405 -0.1388 -0.5115
    1SOL    MW4 2652   3.111   0.919   1.207  0.0181  0.3644  0.0936
    1SOL     OW 2653   3.139   1.167   1.096  0.1250  0.0523 -0.0552
    1SOL    HW2 2654   3.211   1.208   1.143  0.0962 -1.0859  1.0118
    1SOL    HW3 2655   3.061   1.210   1.128  0.2764  0.8451 -0.7415
    1SOL    MW4 2656   3.138   1.178   1.106  0.1411  0.0067 -0.0049
    1SOL     OW 2657   3.386   1.557   1.133  0.0441 -0.0331 -0.7618
    1SOL    HW2 2658   3.303   1.596   1.158 -0.5079 -0.9796 -1.0899
    1SOL    HW3 2659   3.383   1.552   1.038 -0.2675 -1.6394 -0.6881
    1SOL    MW4 2660   3.375   1.562   1.124 -0.0703 -0.3699 -0.7954
    1SOL     OW 2661   3.613   1.675   1.245 -0.1053  0.1471 -0.2604
    1SOL    HW2 2662   3.596   1.764   1.214  0.9322  0.0785 -1.0504
    1SOL    HW3 2663   3.534   1.625   1.221 -1.5687  1.2862  1.9948
    1SOL    MW4 2664   3.600   1.680   1.238 -0.1612  0.2884 -0.0671
    1SOL     OW 2665   3.128   1.673   1.223 -0.3831  0.0619 -0.3019
    1SOL    HW2 2666   3.121   1.646   1.315 -2.7752 -0.9100 -0.7224
    1SOL    HW3 2667   3.149   1.766   1.227 -1.3328  0.2370  1.2637
    1SOL    MW4 2668   3.130   1.682   1.236 -0.8242 -0.0432 -0.1508
    1SOL     OW 2669   3.200   1.940   1.185  0.2848  0.3170  0.1692
    1SOL    HW2 2670   3.269   1.997   1.219 -0.6894  1.4809  0.2537
    1SOL    HW3 2671   3.120   1.992   1.195 -0.2339  0.0659 -2.4923
    1SOL    MW4 2672   3.198   1.955   1.191  0.0880  0.4374 -0.1708
    1SOL     OW 2673   3.414   2.098   1.257  0.8093 -0.4679  0.0276
    1SOL    HW2 2674   3.490   2.058   1.214  0.1676  0.0103 -1.5901
    1SOL    HW3 2675   3.406   2.184   1.217 -0.8151 -0.6656 -0.1043
    1SOL    MW4 2676   3.423   2.104   1.246  0.5105 -0.4311 -0.2033
    1SOL     OW 2677   3.374   2.328   1.125 -0.2559 -0.5554  0.1871
    1SOL    HW2 2678   3.442   2.365   1.181  0.2636  0.3101 -0.9979
    1SOL    HW3 2679   3.293   2.371   1.152  0.3267  1.4325 -1.1336
    1SOL    MW4 2680   3.372   2.338   1.136 -0.1106 -0.1788 -0.1435
    1SOL     OW 2681   3.149   2.461   1.227 -0.5207 -0.1395 -0.0742
    1SOL    HW2 2682   3.138   2.470   1.322 -1.2231  1.5342 -0.3040
    1SOL    HW3 2683   3.122   2.546   1.191 -0.0751 -0.6914 -1.7601
    1SOL    MW4 2684   3.144   2.473   1.235 -0.5546  0.0083 -0.3271
    1SOL     OW 2685   2.911   2.878   1.214 -0.0261 -0.5741  0.1957
    1SOL    HW2 2686   2.919   2.870   1.309  0.3131 -0.8125  0.1483
    1SOL    HW3 2687   2.836   2.823   1.191  0.6490 -1.4953  0.1834
    1SOL    MW4 2688   2.902   2.869   1.223  0.1075 -0.7269  0.1879
    1SOL     OW 2689   3.363   2.884   1.227 -0.0397 -0.2787  0.2557
    1SOL    HW2 2690   3.351   2.963   1.174 -0.0869 -0.7993 -0.5194
    1SOL    HW3 2691   3.285   2.831   1.208 -0.7818  0.1856  1.9921
    1SOL    MW4 2692   3.351   2.888   1.217 -0.1442 -0.2861  0.3825
    1SOL     OW 2693   3.336   3.134   1.095  0.2496 -0.3684  0.5304
    1SOL    HW2 2694   3.403   3.176   1.150  1.2055 -0.9471 -0.1722
    1SOL    HW3 2695   3.253   3.165   1.131  0.9124  1.1553  0.7838
    1SOL    MW4 2696   3.334   3.143   1.107  0.4632 -0.2437  0.4711
    1SOL     OW 2697   3.092   3.232   1.208 -0.2121 -0.5033  0.1041
    1SOL    HW2 2698   3.095   3.321   1.174 -0.1147 -0.5631 -0.0456
    1SOL    HW3 2699   3.009   3.197   1.176  0.4320 -0.9684 -1.1117
    1SOL    MW4 2700   3.082   3.239   1.199 -0.1142 -0.5727 -0.0759
    1SOL     OW 2701   3.103   3.471   1.100 -0.1606  0.2020 -0.9624
    1SOL    HW2 2702   3.167   3.527   1.144 -0.3768 -0.8405  0.7303
    1SOL    HW3 2703   3.024   3.525   1.093 -0.1518  0.3535  0.0219
    1SOL    MW4 2704   3.101   3.485   1.104 -0.1879  0.0846 -0.6092
    1SOL     OW 2705   3.321   3.608   1.222  0.1893  0.1511  0.1531
    1SOL    HW2 2706   3.343   3.648   1.306  0.0403  1.0152 -0.2239
    1SOL    HW3 2707   3.403   3.567   1.193  1.0591  2.4355 -0.7317
    1SOL    MW4 2708   3.335   3.608   1.229  0.2844  0.5665 -0.0134
    1SOL     OW 2709   3.382   3.877   1.128 -0.2126  0.4149  0.2596
    1SOL    HW2 2710   3.316   3.922   1.181  0.0067  1.3473 -0.2608
    1SOL    HW3 2711   3.367   3.784   1.147 -1.1641  0.6540  0.7506
    1SOL    MW4 2712   3.371   3.870   1.138 -0.3092  0.5696  0.2557
    1SOL     OW 2713   3.194   3.994   1.277  0.2258  0.2559  0.0203
    1SOL    HW2 2714   3.182   4.001   1.372 -0.2910  0.9346 -0.0949
    1SOL    HW3 2715   3.169   4.079   1.243 -0.3793 -0.2504 -0.8146
    1SOL    MW4 2716   3.189   4.006   1.285  0.0777  0.2785 -0.1051
    1SOL     OW 2717   3.117   4.258   1.179  0.1569  0.7392  0.4331
    1SOL    HW2 2718   3.197   4.307   1.195  0.8174 -0.1522 -0.0643
    1SOL    HW3 2719   3.112   4.251   1.083  0.3062 -0.5163  0.5062
    1SOL    MW4 2720   3.127   4.264   1.168  0.2635  0.4563  0.3771
    1SOL     OW 2721   3.355   4.413   1.245  0.2574 -0.5393 -0.9064
    1SOL    HW2 2722   3.441   4.381   1.218  0.1261 -0.6111 -1.2383
    1SOL    HW3 2723   3.355   4.506   1.223  0.6624 -0.2895  0.1159
    1SOL    MW4 2724   3.366   4.421   1.239  0.2935 -0.5159 -0.8153
    1SOL     OW 2725   3.585   0.186   1.260 -0.6440 -0.1436 -0.1248
    1SOL    HW2 2726   3.655   0.126   1.235 -1.2298 -0.7509 -0.3158
    1SOL    HW3 2727   3.598   0.262   1.204  0.2292  0.0021  0.2667
    1SOL    MW4 2728   3.596   0.188   1.249 -0.6061 -0.2045 -0.0983
    1SOL     OW 2729   3.366   4.402   0.512  0.0928  0.2599  0.3771
    1SOL    HW2 2730   3.315   4.463   0.459 -0.6479  0.6460  1.5165
    1SOL    HW3 2731   3.359   4.436   0.601  0.0603 -1.2108  0.9573
    1SOL    MW4 2732   3.358   4.415   0.517 -0.0093  0.1168  0.6040
    1SOL     OW 2733   4.402   4.416   0.468 -0.1341 -0.4847  0.3366
    1SOL    HW2 2734   4.450   4.360   0.529 -0.2016 -2.6238 -1.4936
    1SOL    HW3 2735   4.328   4.362   0.440 -1.5435  1.4321  0.3386
    1SOL    MW4 2736   4.399   4.401   0.472 -0.3290 -0.5136  0.0954
    1SOL     OW 2737   3.784   0.496   1.218  0.2336 -0.3384 -0.2290
    1SOL    HW2 2738   3.866   0.458   1.185  0.9904  0.9423  0.1630
    1SOL    HW3 2739   3.788   0.588   1.194 -0.9552 -0.1870  0.0927
    1SOL    MW4 2740   3.795   0.503   1.211  0.1767 -0.1495 -0.1348
    1SOL     OW 2741   3.797   0.772   1.163  0.2486 -0.1033  0.3986
    1SOL    HW2 2742   3.878   0.821   1.174  0.0155  0.2019  0.7546
    1SOL    HW3 2743   3.731   0.822   1.211 -0.5656  0.7017 -1.4917
    1SOL    MW4 2744   3.799   0.785   1.171  0.1106  0.0432  0.1961
    1SOL     OW 2745   3.574   0.899   1.258 -0.0977 -0.0663 -0.0597
    1SOL    HW2 2746   3.581   0.978   1.204 -0.6339  0.0572  0.0536
    1SOL    HW3 2747   3.504   0.848   1.219  1.0433 -1.0565 -0.8456
    1SOL    MW4 2748   3.566   0.903   1.246 -0.0176 -0.1807 -0.1485
    1SOL     OW 2749   3.370   1.292   1.195 -0.4643 -0.2871  0.4534
    1SOL    HW2 2750   3.392   1.382   1.171  0.2785 -0.2885  1.1028
    1SOL    HW3 2751   3.399   1.284   1.286 -0.7201 -1.1171  0.4634
    1SOL    MW4 2752   3.377   1.303   1.204 -0.4003 -0.3968  0.5405
    1SOL     OW 2753   3.598   1.144   1.108 -0.7535 -0.5883  0.1880
    1SOL    HW2 2754   3.529   1.200   1.142 -0.1075 -0.2028  0.9028
    1SOL    HW3 2755   3.679   1.188   1.134 -0.2419 -1.4646  0.1019
    1SOL    MW4 2756   3.600   1.157   1.116 -0.6011 -0.6531  0.2710
    1SOL     OW 2757   3.845   2.845   0.446 -0.3727  0.2369 -0.1318
    1SOL    HW2 2758   3.846   2.854   0.542  0.7122 -1.3747  0.0327
    1SOL    HW3 2759   3.916   2.902   0.417 -0.5603  0.5620  0.0454
    1SOL    MW4 2760   3.855   2.853   0.455 -0.2544  0.0672 -0.0867
    1SOL     OW 2761   3.815   1.564   1.098 -0.2818  0.1249 -0.3745
    1SOL    HW2 2762   3.745   1.601   1.152 -0.7215 -0.8040 -0.2958
    1SOL    HW3 2763   3.895   1.605   1.131 -0.8311  1.6698 -0.8723
    1SOL    MW4 2764   3.816   1.575   1.109 -0.4122  0.2061 -0.4296
    1SOL     OW 2765   3.615   1.954   1.137 -0.0374  0.0326 -0.0417
    1SOL    HW2 2766   3.701   1.951   1.177  0.2906  1.7627 -0.5938
    1SOL    HW3 2767   3.632   1.964   1.043 -0.8209 -0.9488 -0.2979
    1SOL    MW4 2768   3.628   1.955   1.130 -0.0973  0.1315 -0.1483
    1SOL     OW 2769   3.863   2.012   1.244  0.4655  0.0459 -0.5838
    1SOL    HW2 2770   3.886   2.040   1.333  0.7671  1.1293 -0.9916
    1SOL    HW3 2771   3.947   1.993   1.203  0.5915  2.8120 -1.6873
    1SOL    MW4 2772   3.877   2.013   1.250  0.5219  0.5541 -0.7831
    1SOL     OW 2773   3.831   2.308   1.193 -0.2105  0.3072  0.1802
    1SOL    HW2 2774   3.909   2.341   1.238  0.1988 -1.2155  0.5981
    1SOL    HW3 2775   3.839   2.213   1.197 -1.2882  0.1504 -1.1866
    1SOL    MW4 2776   3.842   2.300   1.200 -0.2985  0.0856  0.0551
    1SOL     OW 2777   3.580   2.460   1.260 -0.1514  0.4777  0.2532
    1SOL    HW2 2778   3.571   2.463   1.356 -1.5427  1.3654  0.1057
    1SOL    HW3 2779   3.662   2.412   1.246  0.3113  0.7286  1.8946
    1SOL    MW4 2780   3.590   2.454   1.271 -0.2742  0.6278  0.4503
    1SOL     OW 2781   3.549   2.710   1.131 -0.3594 -0.7299 -0.2110
    1SOL    HW2 2782   3.561   2.633   1.187  1.2326 -0.6897 -0.4747
    1SOL    HW3 2783   3.477   2.759   1.172 -0.5781 -1.7341  0.6331
    1SOL    MW4 2784   3.541   2.706   1.144 -0.1781 -0.8571 -0.1345
    1SOL     OW 2785   3.774   2.863   1.255  0.6739  0.3161 -0.4547
    1SOL    HW2 2786   3.765   2.882   1.348  0.0867  1.0201 -0.6515
    1SOL    HW3 2787   3.699   2.809   1.234  0.7239  0.2834 -0.5486
    1SOL    MW4 2788   3.763   2.859   1.265  0.6030  0.4048 -0.4930
    1SOL     OW 2789   3.790   3.108   1.130 -0.5137 -0.3314 -0.0429
    1SOL    HW2 2790   3.774   3.018   1.158 -2.7838 -0.6376 -2.1554
    1SOL    HW3 2791   3.791   3.104   1.034 -0.8531  1.9035 -0.1778
    1SOL    MW4 2792   3.788   3.096   1.121 -0.8578 -0.0770 -0.3393
    1SOL     OW 2793   3.557   3.226   1.226  0.2685 -0.0324  0.7057
    1SOL    HW2 2794   3.556   3.315   1.189  0.4731 -0.3217 -0.0028
    1SOL    HW3 2795   3.641   3.190   1.198 -0.3800 -0.9143 -0.1194
    1SOL    MW4 2796   3.568   3.233   1.217  0.2100 -0.1869  0.5034
    1SOL     OW 2797   3.541   3.473   1.130  0.1715 -0.0883  0.2825
    1SOL    HW2 2798   3.625   3.514   1.152  0.4793 -0.2461 -0.5855
    1SOL    HW3 2799   3.541   3.467   1.034 -0.8087 -0.1338  0.2764
    1SOL    MW4 2800   3.552   3.478   1.120  0.0830 -0.1152  0.1673
    1SOL     OW 2801   3.789   3.604   1.218  0.0457  0.3672 -0.2127
    1SOL    HW2 2802   3.786   3.597   1.313 -0.7385 -0.2523 -0.2739
    1SOL    HW3 2803   3.791   3.698   1.200  0.7904  0.4788  0.4278
    1SOL    MW4 2804   3.789   3.615   1.228  0.0405  0.3002 -0.1363
    1SOL     OW 2805   3.785   3.885   1.163 -0.4778  0.0556  0.3293
    1SOL    HW2 2806   3.712   3.940   1.190 -0.7566 -0.8762  1.4993
    1SOL    HW3 2807   3.780   3.885   1.067 -1.7738  0.3001  0.3835
    1SOL    MW4 2808   3.775   3.893   1.154 -0.6855 -0.0353  0.4908
    1SOL     OW 2809   3.569   4.041   1.232  0.4096  0.5434 -0.3581
    1SOL    HW2 2810   3.573   4.035   1.328  0.5838  0.7246 -0.3519
    1SOL    HW3 2811   3.515   3.967   1.205  0.0239  0.7298 -0.0901
    1SOL    MW4 2812   3.563   4.030   1.241  0.3817  0.5922 -0.3219
    1SOL     OW 2813   3.602   4.310   1.175  0.1288 -0.5590  0.5607
    1SOL    HW2 2814   3.573   4.222   1.199  0.9723 -0.9310  0.2341
    1SOL    HW3 2815   3.590   4.315   1.080 -0.9854  0.0859  0.7219
    1SOL    MW4 2816   3.597   4.299   1.166  0.0930 -0.5231  0.5389
    1SOL     OW 2817   3.833   4.388   1.294 -0.1496  0.7421  0.3921
    1SOL    HW2 2818   3.812   4.393   1.387 -0.4814 -1.4047  0.4542
    1SOL    HW3 2819   3.751   4.361   1.252  0.3687  0.2914 -0.3560
    1SOL    MW4 2820   3.819   4.385   1.300 -0.1247  0.3991  0.3015
    1SOL     OW 2821   4.031   0.105   1.246 -0.3555  0.3430 -0.4827
    1SOL    HW2 2822   3.950   0.053   1.241  0.8971 -1.8828  1.1806
    1SOL    HW3 2823   4.054   0.104   1.339  1.9196  0.4145 -1.0112
    1SOL    MW4 2824   4.023   0.098   1.258  0.1097  0.0588 -0.3330
    1SOL     OW 2825   3.787   4.658   1.211 -0.0353  0.2276 -0.4316
    1SOL    HW2 2826   3.777   4.649   1.116  1.6523 -0.8522 -0.5321
    1SOL    HW3 2827   3.800   4.568   1.242  2.7586  0.8393  0.3831
    1SOL    MW4 2828   3.788   4.645   1.202  0.5560  0.1659 -0.3374
    1SOL     OW 2829   3.999   0.354   1.136 -0.0087  0.3229 -0.4194
    1SOL    HW2 2830   4.007   0.264   1.170 -2.2181 -0.4152 -1.7484
    1SOL    HW3 2831   3.989   0.342   1.042  0.3814  2.0361 -0.6812
    1SOL    MW4 2832   3.999   0.340   1.128 -0.2489  0.4515 -0.6293
    1SOL     OW 2833   4.253   0.468   1.224  0.2919  0.3778  0.3891
    1SOL    HW2 2834   4.261   0.465   1.319  0.0227  0.8366  0.4265
    1SOL    HW3 2835   4.173   0.418   1.205 -0.4170  1.4475  0.5098
    1SOL    MW4 2836   4.244   0.461   1.234  0.1636  0.5795  0.4101
    1SOL     OW 2837   0.295   0.708   0.831 -0.0343 -0.3177  0.5625
    1SOL    HW2 2838   0.211   0.746   0.805 -1.1682 -2.2119  1.3784
    1SOL    HW3 2839   0.287   0.615   0.809  1.6566 -0.6087  1.1328
    1SOL    MW4 2840   0.283   0.701   0.825  0.0392 -0.6060  0.7454
    1SOL     OW 2841   4.063   0.911   1.236 -0.3559  0.3149 -0.5748
    1SOL    HW2 2842   4.084   0.897   1.329 -0.9596  0.3498 -0.4338
    1SOL    HW3 2843   4.123   0.853   1.189  1.9101  2.3105 -0.2955
    1SOL    MW4 2844   4.074   0.902   1.242 -0.1364  0.5828 -0.5194
    1SOL     OW 2845   3.826   1.286   1.165  0.1238 -0.1133  0.6377
    1SOL    HW2 2846   3.841   1.306   1.257  0.8415  2.7908 -0.0682
    1SOL    HW3 2847   3.824   1.371   1.122 -0.1375 -1.4369 -2.0530
    1SOL    MW4 2848   3.828   1.300   1.172  0.1843  0.0951  0.1894
    1SOL     OW 2849   4.327   1.292   1.227  0.4048  0.4224 -0.0011
    1SOL    HW2 2850   4.322   1.299   1.322  0.3421  1.5974 -0.0852
    1SOL    HW3 2851   4.246   1.247   1.202  1.3007 -1.5846  0.6490
    1SOL    MW4 2852   4.315   1.287   1.236  0.5145  0.3126  0.0738
    1SOL     OW 2853   4.283   1.530   1.127 -0.2397 -0.3018 -0.1997
    1SOL    HW2 2854   4.302   1.444   1.164  1.4364 -0.5651 -1.5814
    1SOL    HW3 2855   4.364   1.579   1.139 -1.4635  1.3923  1.3647
    1SOL    MW4 2856   4.296   1.525   1.133 -0.1802 -0.1130 -0.1755
    1SOL     OW 2857   4.072   1.678   1.206 -0.5064 -0.1458  0.6713
    1SOL    HW2 2858   4.073   1.684   1.301 -0.7698 -0.6108  0.7063
    1SOL    HW3 2859   4.149   1.625   1.185 -1.3834 -1.4511  0.7339
    1SOL    MW4 2860   4.082   1.672   1.215 -0.6576 -0.3794  0.6841
    1SOL     OW 2861   4.082   1.928   1.107 -0.1748 -0.0514  0.0815
    1SOL    HW2 2862   4.090   1.835   1.128  0.0164  0.1318  0.8341
    1SOL    HW3 2863   4.062   1.930   1.014  1.6961 -0.7735 -0.3554
    1SOL    MW4 2864   4.080   1.916   1.098  0.0978 -0.1225  0.1231
    1SOL     OW 2865   4.296   2.030   1.239  0.2949  0.3915 -0.2611
    1SOL    HW2 2866   4.297   2.119   1.204 -0.1535  1.0404  1.3705
    1SOL    HW3 2867   4.209   1.996   1.217 -0.8207  1.5901  2.1586
    1SOL    MW4 2868   4.285   2.037   1.231  0.0882  0.6351  0.2733
    1SOL     OW 2869   2.291   0.084   0.780 -0.1368 -0.3835  0.0768
    1SOL    HW2 2870   2.357   0.023   0.812  0.1280  0.0400  0.3570
    1SOL    HW3 2871   2.295   0.158   0.841 -0.3881 -0.0463 -0.3065
    1SOL    MW4 2872   2.300   0.086   0.792 -0.1349 -0.2831  0.0632
    1SOL     OW 2873   4.051   2.469   1.242 -0.1943 -0.0631  0.1964
    1SOL    HW2 2874   4.034   2.503   1.330 -0.7591 -0.1339  0.1197
    1SOL    HW3 2875   4.051   2.547   1.186  0.1511 -0.0191  0.2570
    1SOL    MW4 2876   4.049   2.484   1.246 -0.2232 -0.0670  0.1943
    1SOL     OW 2877   4.025   2.717   1.145  0.3002 -0.1014 -0.2962
    1SOL    HW2 2878   4.025   2.719   1.050  0.6851  0.7181 -0.2724
    1SOL    HW3 2879   3.947   2.767   1.170  1.5050  1.7014 -0.1235
    1SOL    MW4 2880   4.014   2.724   1.136  0.5097  0.2446 -0.2704
    1SOL     OW 2881   4.266   2.821   1.243 -0.2786 -0.0549 -0.4229
    1SOL    HW2 2882   4.278   2.910   1.211 -1.5888  0.2060 -0.2414
    1SOL    HW3 2883   4.186   2.791   1.200  0.0625 -1.0835 -0.3538
    1SOL    MW4 2884   4.257   2.828   1.233 -0.4058 -0.1564 -0.3897
    1SOL     OW 2885   4.249   3.077   1.166 -0.2905 -0.1943  0.1667
    1SOL    HW2 2886   4.176   3.125   1.205  0.4278  0.9450  0.1301
    1SOL    HW3 2887   4.231   3.078   1.072 -1.4266 -1.9493  0.3385
    1SOL    MW4 2888   4.237   3.084   1.159 -0.3457 -0.2756  0.1845
    1SOL     OW 2889   4.016   3.232   1.219 -0.0436 -0.2466  0.2180
    1SOL    HW2 2890   4.017   3.248   1.314 -0.2948 -1.9886  0.5411
    1SOL    HW3 2891   3.933   3.188   1.204  0.2485 -0.4789 -0.7215
    1SOL    MW4 2892   4.005   3.228   1.230 -0.0377 -0.5069  0.1366
    1SOL     OW 2893   4.032   3.478   1.103 -0.2064  0.2937  0.0762
    1SOL    HW2 2894   3.949   3.512   1.137 -0.6636  0.9156 -1.6177
    1SOL    HW3 2895   4.027   3.383   1.120 -1.2193  0.3378  0.0617
    1SOL    MW4 2896   4.020   3.470   1.110 -0.4005  0.3815 -0.1490
    1SOL     OW 2897   4.220   3.599   1.252  0.2965 -0.2901  0.0330
    1SOL    HW2 2898   4.156   3.554   1.197 -1.1888  1.2157  0.4904
    1SOL    HW3 2899   4.304   3.559   1.229 -0.5853 -1.1392 -1.7871
    1SOL    MW4 2900   4.223   3.588   1.242 -0.0157 -0.2036 -0.1467
    1SOL     OW 2901   4.220   3.847   1.122 -0.3644  0.7474 -0.7928
    1SOL    HW2 2902   4.137   3.884   1.152 -0.1246  1.1346 -0.6149
    1SOL    HW3 2903   4.218   3.756   1.154 -0.9333  0.6091 -1.2055
    1SOL    MW4 2904   4.209   3.840   1.130 -0.4072  0.7803 -0.8239
    1SOL     OW 2905   4.017   3.980   1.238  0.3170 -0.1895  0.0250
    1SOL    HW2 2906   4.019   4.075   1.227 -0.4077 -0.1589  0.1356
    1SOL    HW3 2907   3.931   3.953   1.205  0.1563 -0.6922  0.8291
    1SOL    MW4 2908   4.006   3.989   1.232  0.2007 -0.2518  0.1457
    1SOL     OW 2909   4.063   4.255   1.187  0.3749  0.2840  0.0900
    1SOL    HW2 2910   3.991   4.313   1.215  1.0461  0.3712  1.6952
    1SOL    HW3 2911   4.073   4.273   1.094 -0.6653  1.4168  0.1772
    1SOL    MW4 2912   4.055   4.265   1.179  0.3262  0.4449  0.3133
    1SOL     OW 2913   4.276   4.411   1.259  0.6175  0.3315 -0.4700
    1SOL    HW2 2914   4.202   4.364   1.223  0.9242  0.3616 -1.1361
    1SOL    HW3 2915   4.353   4.372   1.217  0.9089  1.0319 -0.5976
    1SOL    MW4 2916   4.277   4.400   1.249  0.6967  0.4272 -0.5747
    1SOL     OW 2917   0.245   4.653   1.640 -0.6638 -0.2615  0.1987
    1SOL    HW2 2918   0.329   4.687   1.609 -1.7777  0.7282 -1.8512
    1SOL    HW3 2919   0.180   4.715   1.607 -2.2885 -1.5643  0.8692
    1SOL    MW4 2920   0.248   4.665   1.631 -1.0251 -0.3028  0.0167
    1SOL     OW 2921   0.041   0.134   1.538  0.2055  0.1864  0.2721
    1SOL    HW2 2922  -0.034   0.086   1.572  0.4465  0.6545  1.4902
    1SOL    HW3 2923   0.028   0.135   1.444 -1.6287  0.7740  0.5125
    1SOL    MW4 2924   0.030   0.128   1.530 -0.0047  0.3257  0.4646
    1SOL     OW 2925   0.021   0.402   1.617 -0.0626 -0.0645  0.1743
    1SOL    HW2 2926  -0.006   0.376   1.705 -1.4295 -1.6037 -0.6559
    1SOL    HW3 2927   0.043   0.319   1.574  2.0013  0.7927 -0.5015
    1SOL    MW4 2928   0.020   0.387   1.623  0.0286 -0.1545 -0.0244
    1SOL     OW 2929   0.260   0.488   1.535 -0.2155 -0.2429 -0.2225
    1SOL    HW2 2930   0.172   0.476   1.571 -0.5575  0.0938 -0.9407
    1SOL    HW3 2931   0.246   0.506   1.442  0.6083 -0.1118 -0.3263
    1SOL    MW4 2932   0.246   0.489   1.528 -0.1519 -0.1812 -0.3309
    1SOL     OW 2933   0.267   0.756   1.630 -0.6103 -0.1805  0.0698
    1SOL    HW2 2934   0.264   0.743   1.725 -0.7662 -0.4388  0.0310
    1SOL    HW3 2935   0.283   0.668   1.595  0.3678  0.0496 -0.0980
    1SOL    MW4 2936   0.269   0.743   1.638 -0.5018 -0.1842  0.0427
    1SOL     OW 2937   0.024   0.834   1.517 -0.3121  0.2682  0.2451
    1SOL    HW2 2938   0.007   0.921   1.555  0.2953  0.2344  0.6013
    1SOL    HW3 2939   0.113   0.813   1.544 -1.0364 -1.2087  1.5776
    1SOL    MW4 2940   0.033   0.843   1.526 -0.3275  0.0688  0.4678
    1SOL     OW 2941   0.021   1.088   1.610 -0.5946  0.5590  0.2734
    1SOL    HW2 2942   0.017   1.097   1.706  1.5745 -0.4856  0.5004
    1SOL    HW3 2943   0.086   1.153   1.583 -0.5527  0.2352 -0.4092
    1SOL    MW4 2944   0.029   1.098   1.619 -0.3029  0.3785  0.2133
    1SOL     OW 2945   0.223   1.252   1.510  0.0321 -0.2884 -0.3433
    1SOL    HW2 2946   0.229   1.254   1.415 -1.2895 -1.6069 -0.4678
    1SOL    HW3 2947   0.207   1.343   1.535 -0.5389 -0.0826 -1.4424
    1SOL    MW4 2948   0.222   1.264   1.501 -0.2176 -0.4352 -0.5047
    1SOL     OW 2949   0.225   1.528   1.560 -0.7028  0.4937 -0.2976
    1SOL    HW2 2950   0.230   1.545   1.654 -1.2445  0.4920 -0.2661
    1SOL    HW3 2951   0.141   1.565   1.533 -0.4944  0.6008 -0.8045
    1SOL    MW4 2952   0.215   1.535   1.569 -0.7468  0.5075 -0.3605
    1SOL     OW 2953   4.490   1.659   1.481  0.1603 -0.6203  0.3781
    1SOL    HW2 2954   4.483   1.752   1.504 -0.4924 -0.6307  0.2176
    1SOL    HW3 2955   4.531   1.659   1.394 -0.2541 -0.4702  0.1846
    1SOL    MW4 2956   4.495   1.671   1.472  0.0195 -0.6020  0.3315
    1SOL     OW 2957   4.483   1.933   1.618  0.0442 -0.2872  0.0616
    1SOL    HW2 2958   4.483   1.922   1.713 -2.3563  0.3938  0.1708
    1SOL    HW3 2959   4.411   1.994   1.601  0.0212 -0.9176 -2.2426
    1SOL    MW4 2960   4.473   1.940   1.628 -0.2751 -0.2806 -0.2280
    1SOL     OW 2961   0.228   2.061   1.536  0.3817  0.5642  0.3359
    1SOL    HW2 2962   0.300   2.016   1.579  0.8390  0.4954 -0.5006
    1SOL    HW3 2963   0.150   2.014   1.565  0.8341 -0.6543 -0.3748
    1SOL    MW4 2964   0.227   2.049   1.546  0.5017  0.3943  0.1318
    1SOL     OW 2965   0.179   2.318   1.599  0.0427  0.2979  0.2998
    1SOL    HW2 2966   0.185   2.330   1.694  1.0015  2.6624  0.0035
    1SOL    HW3 2967   0.192   2.224   1.585  1.1556  0.1006  2.4339
    1SOL    MW4 2968   0.182   2.307   1.610  0.3160  0.5839  0.5423
    1SOL     OW 2969   4.449   2.458   1.477  0.6390  0.2885 -0.1227
    1SOL    HW2 2970   4.376   2.414   1.520  1.1132 -1.1673 -0.7748
    1SOL    HW3 2971   4.527   2.413   1.509  1.0529 -0.2243 -1.7879
    1SOL    MW4 2972   4.450   2.446   1.487  0.7558  0.0286 -0.4284
    1SOL     OW 2973   0.004   2.708   1.647  0.2592 -0.1454  0.2890
    1SOL    HW2 2974  -0.073   2.758   1.617 -0.6535 -1.0110  1.1552
    1SOL    HW3 2975  -0.001   2.626   1.597 -0.6068 -1.1031  1.8973
    1SOL    MW4 2976  -0.007   2.704   1.636  0.0243 -0.3860  0.6154
    1SOL     OW 2977   0.220   2.874   1.527  0.0539  0.1493 -0.0857
    1SOL    HW2 2978   0.305   2.843   1.555  0.0790  1.5664  1.4656
    1SOL    HW3 2979   0.157   2.823   1.578 -0.0174 -0.1674 -0.4816
    1SOL    MW4 2980   0.223   2.863   1.537  0.0478  0.2942  0.0666
    1SOL     OW 2981   0.230   3.141   1.617 -0.1720 -0.8169  0.8299
    1SOL    HW2 2982   0.149   3.183   1.586 -0.0555 -1.3282 -0.1818
    1SOL    HW3 2983   0.216   3.048   1.601  0.9048 -0.8322  0.0059
    1SOL    MW4 2984   0.217   3.135   1.611 -0.0145 -0.8862  0.5877
    1SOL     OW 2985   0.000   3.224   1.497 -0.0032  0.3171 -0.1555
    1SOL    HW2 2986   0.004   3.317   1.520  0.0308  0.0780  0.8401
    1SOL    HW3 2987   0.015   3.222   1.403 -0.4067  1.3545 -0.2476
    1SOL    MW4 2988   0.003   3.236   1.488 -0.0520  0.4227 -0.0364
    1SOL     OW 2989   4.466   3.478   1.595  0.1700 -0.7527 -0.0306
    1SOL    HW2 2990   4.475   3.490   1.690  1.1831 -0.9908 -0.0930
    1SOL    HW3 2991   4.385   3.524   1.573  0.4315  0.1178  0.7982
    1SOL    MW4 2992   4.456   3.486   1.605  0.3376 -0.6690  0.0706
    1SOL     OW 2993   0.187   3.628   1.488  0.1988 -0.1053 -0.0425
    1SOL    HW2 2994   0.158   3.715   1.515  0.6010 -0.1756  0.6403
    1SOL    HW3 2995   0.122   3.568   1.524  0.1576 -0.1149 -0.1346
    1SOL    MW4 2996   0.175   3.631   1.497  0.2464 -0.1161  0.0354
    1SOL     OW 2997   0.199   3.888   1.606  0.3157  0.0659 -0.1508
    1SOL    HW2 2998   0.204   3.896   1.701  0.6249 -0.2908 -0.1336
    1SOL    HW3 2999   0.287   3.911   1.575 -0.0345  1.0794 -0.4196
    1SOL    MW4 3000   0.212   3.892   1.614  0.3103  0.1523 -0.1841
    1SOL     OW 3001   4.479   4.009   1.469  0.3509  0.2041 -0.0386
    1SOL    HW2 3002   4.459   4.088   1.520 -1.5444 -0.8268  0.8817
    1SOL    HW3 3003   4.557   3.972   1.511  0.9054  1.2717 -0.1126
    1SOL    MW4 3004   4.487   4.015   1.481  0.1740  0.2093  0.0731
    1SOL     OW 3005   4.482   4.255   1.619  0.2567  0.4934 -0.1356
    1SOL    HW2 3006   4.485   4.270   1.713  0.3018 -0.0389 -0.0522
    1SOL    HW3 3007   4.405   4.304   1.589  0.1017  0.4573  0.2102
    1SOL    MW4 3008   4.472   4.264   1.627  0.2418  0.4177 -0.0789
    1SOL     OW 3009   0.203   4.409   1.489  0.2336  0.1364 -0.3563
    1SOL    HW2 3010   0.141   4.368   1.549 -0.2099  0.0450 -0.8769
    1SOL    HW3 3011   0.216   4.497   1.525 -2.2466  1.1156 -1.6601
    1SOL    MW4 3012   0.197   4.415   1.501 -0.1521  0.2537 -0.5970
    1SOL     OW 3013   0.718   4.628   1.622 -0.1624  0.3649  0.1153
    1SOL    HW2 3014   0.794   4.670   1.581  0.5804  0.2578  1.3325
    1SOL    HW3 3015   0.643   4.675   1.587  0.4171  0.0639 -1.5866
    1SOL    MW4 3016   0.718   4.640   1.612  0.0120  0.3114  0.0514
    1SOL     OW 3017   0.491   0.087   1.547  0.6778 -0.1732 -0.0057
    1SOL    HW2 3018   0.486   0.173   1.589 -0.0895 -0.1969 -0.0423
    1SOL    HW3 3019   0.495   0.107   1.453  0.2191 -0.1764 -0.0304
    1SOL    MW4 3020   0.491   0.101   1.540  0.5161 -0.1767 -0.0137
    1SOL     OW 3021   0.469   0.335   1.650 -0.0153 -0.0276  0.3759
    1SOL    HW2 3022   0.540   0.385   1.610 -0.6658 -0.0282 -0.8329
    1SOL    HW3 3023   0.389   0.376   1.616 -0.5674 -1.5296 -0.1979
    1SOL    MW4 3024   0.468   0.347   1.640 -0.1740 -0.2259  0.1408
    1SOL     OW 3025   0.679   0.491   1.559  0.2899  0.1216 -0.3235
    1SOL    HW2 3026   0.683   0.577   1.601 -0.2374 -0.2391  0.4932
    1SOL    HW3 3027   0.661   0.509   1.467 -0.9244  0.8498  0.0465
    1SOL    MW4 3028   0.677   0.504   1.553  0.0601  0.1701 -0.1670
    1SOL     OW 3029   0.686   0.745   1.633  0.0865 -0.0105 -0.4437
    1SOL    HW2 3030   0.675   0.772   1.725 -1.0206 -0.1794 -0.5195
    1SOL    HW3 3031   0.765   0.789   1.605 -0.5615  1.5028  0.0602
    1SOL    MW4 3032   0.695   0.754   1.642 -0.1451  0.1669 -0.3872
    1SOL     OW 3033   0.466   0.858   1.489  0.1925 -0.1260 -0.0453
    1SOL    HW2 3034   0.392   0.838   1.546 -0.5436 -0.2050 -1.0350
    1SOL    HW3 3035   0.540   0.813   1.530 -0.4125 -0.5106  0.6319
    1SOL    MW4 3036   0.466   0.850   1.502  0.0155 -0.1872 -0.0867
    1SOL     OW 3037   0.474   1.130   1.562 -0.3643 -0.3565  0.3185
    1SOL    HW2 3038   0.476   1.041   1.529 -0.9682  0.0306 -0.7908
    1SOL    HW3 3039   0.382   1.156   1.555 -0.7230 -0.6077  3.2717
    1SOL    MW4 3040   0.462   1.122   1.557 -0.4913 -0.3384  0.5620
    1SOL     OW 3041   0.712   1.261   1.504  0.3007 -0.2474 -0.1785
    1SOL    HW2 3042   0.647   1.198   1.535  2.3002 -2.7483 -0.8506
    1SOL    HW3 3043   0.704   1.259   1.409 -0.1506  1.1439 -0.1811
    1SOL    MW4 3044   0.702   1.252   1.496  0.5049 -0.3937 -0.2674
    1SOL     OW 3045   0.426   1.686   1.508 -0.1604  0.4457 -0.3266
    1SOL    HW2 3046   0.503   1.634   1.531 -0.2708  0.3764 -0.1064
    1SOL    HW3 3047   0.353   1.623   1.512 -0.2388  0.5290 -0.4526
    1SOL    MW4 3048   0.426   1.671   1.512 -0.1853  0.4476 -0.3141
    1SOL     OW 3049   0.449   1.662   1.213  0.0298 -0.1870 -0.3382
    1SOL    HW2 3050   0.448   1.755   1.188 -0.5590  0.1554  0.9005
    1SOL    HW3 3051   0.451   1.664   1.308 -0.3060 -1.4596 -0.3051
    1SOL    MW4 3052   0.449   1.675   1.222 -0.0922 -0.3097 -0.1705
    1SOL     OW 3053   0.441   1.925   1.637 -0.4325  0.0440  0.2355
    1SOL    HW2 3054   0.447   1.903   1.730 -2.8730 -1.8999 -0.0036
    1SOL    HW3 3055   0.426   1.841   1.594 -0.6143  1.0843 -1.7696
    1SOL    MW4 3056   0.440   1.911   1.644 -0.7785 -0.0752 -0.0606
    1SOL     OW 3057   0.634   2.070   1.552  0.1036 -0.0152  0.4624
    1SOL    HW2 3058   0.716   2.022   1.564  0.3183  0.6112  1.5071
    1SOL    HW3 3059   0.567   2.010   1.584 -0.0693 -1.2825 -2.0978
    1SOL    MW4 3060   0.636   2.056   1.558  0.1091 -0.0994  0.2627
    1SOL     OW 3061   0.649   2.354   1.585  0.5041 -0.0296  0.2346
    1SOL    HW2 3062   0.563   2.376   1.551  0.7614 -0.2164 -0.5520
    1SOL    HW3 3063   0.654   2.258   1.580  1.0284  0.0232 -0.4128
    1SOL    MW4 3064   0.639   2.344   1.580  0.6073 -0.0472  0.0454
    1SOL     OW 3065   0.417   2.452   1.483 -0.1121 -0.7817 -0.0732
    1SOL    HW2 3066   0.421   2.545   1.507 -0.1865 -0.2386 -2.0481
    1SOL    HW3 3067   0.347   2.416   1.537  1.3942 -0.1998  2.2997
    1SOL    MW4 3068   0.408   2.460   1.493  0.0768 -0.6330 -0.0207
    1SOL     OW 3069   0.429   2.715   1.625 -0.1226  1.1958 -0.0097
    1SOL    HW2 3070   0.433   2.731   1.719  0.4228 -0.2453  0.2116
    1SOL    HW3 3071   0.506   2.761   1.590 -0.5095  2.0131  0.1906
    1SOL    MW4 3072   0.440   2.723   1.633 -0.1017  1.1134  0.0459
    1SOL     OW 3073   0.649   2.871   1.539  0.0989 -0.0232 -0.0092
    1SOL    HW2 3074   0.630   2.961   1.564  0.4108  0.2854 -0.8399
    1SOL    HW3 3075   0.674   2.877   1.446  1.2538 -0.8077  0.2367
    1SOL    MW4 3076   0.650   2.883   1.530  0.2924 -0.0861 -0.0863
    1SOL     OW 3077   0.613   3.140   1.654  0.0468 -0.0382  0.5104
    1SOL    HW2 3078   0.692   3.178   1.616 -0.4163  1.2081  0.7658
    1SOL    HW3 3079   0.541   3.190   1.614 -0.5979 -0.9308  0.5301
    1SOL    MW4 3080   0.614   3.152   1.644 -0.0993  0.0083  0.5468
    1SOL     OW 3081   0.434   3.292   1.519 -0.0469 -0.2811 -0.2196
    1SOL    HW2 3082   0.355   3.239   1.532 -0.3985  0.1108 -0.7277
    1SOL    HW3 3083   0.441   3.299   1.424  1.1737 -1.1745 -0.2041
    1SOL    MW4 3084   0.424   3.286   1.508  0.0678 -0.3474 -0.2844
    1SOL     OW 3085   0.392   3.535   1.648 -0.2580 -0.2568  0.5905
    1SOL    HW2 3086   0.394   3.445   1.617  1.1741 -0.3345  0.8746
    1SOL    HW3 3087   0.318   3.575   1.602 -0.6191 -1.4500  0.1266
    1SOL    MW4 3088   0.383   3.529   1.638 -0.1167 -0.4246  0.5667
    1SOL     OW 3089   0.624   3.653   1.536  0.0698 -0.1378  0.4613
    1SOL    HW2 3090   0.703   3.602   1.552  0.7838  0.6283 -0.5565
    1SOL    HW3 3091   0.555   3.606   1.583  0.9363 -1.3674  0.5263
    1SOL    MW4 3092   0.626   3.640   1.544  0.2783 -0.1991  0.3358
    1SOL     OW 3093   0.677   3.925   1.574 -0.0465 -0.2698  0.0523
    1SOL    HW2 3094   0.768   3.938   1.546 -0.5558 -0.2033 -1.5932
    1SOL    HW3 3095   0.662   3.831   1.565 -0.3783 -0.1730 -0.4024
    1SOL    MW4 3096   0.687   3.914   1.569 -0.1575 -0.2480 -0.2247
    1SOL     OW 3097   0.421   4.019   1.505 -0.0004  0.2270  0.3786
    1SOL    HW2 3098   0.508   3.988   1.532  0.0402 -0.0266 -0.0327
    1SOL    HW3 3099   0.417   3.998   1.411 -0.9836 -0.8810  0.6570
    1SOL    MW4 3100   0.432   4.012   1.496 -0.1248  0.0472  0.3611
    1SOL     OW 3101   0.449   4.237   1.651  0.0871 -0.4698 -0.3644
    1SOL    HW2 3102   0.445   4.152   1.606  0.0009 -0.6857  0.0516
    1SOL    HW3 3103   0.378   4.288   1.611  1.3915  0.1025 -2.0289
    1SOL    MW4 3104   0.439   4.233   1.640  0.2478 -0.4230 -0.5292
    1SOL     OW 3105   0.642   4.372   1.499  0.0590  0.2346 -0.0923
    1SOL    HW2 3106   0.585   4.329   1.563 -0.8603  0.5043 -0.7186
    1SOL    HW3 3107   0.668   4.454   1.540 -0.9189  0.6300 -0.2471
    1SOL    MW4 3108   0.638   4.377   1.513 -0.1913  0.3223 -0.1955
    1SOL     OW 3109   1.127   4.648   1.604  0.0576  0.3425  0.2490
    1SOL    HW2 3110   1.116   4.651   1.699 -0.7620  0.8456  0.1489
    1SOL    HW3 3111   1.215   4.683   1.589 -0.4023  1.7478  0.7229
    1SOL    MW4 3112   1.137   4.653   1.615 -0.1112  0.5937  0.2984
    1SOL     OW 3113   0.908   0.097   1.491 -0.3824  0.1236 -0.5340
    1SOL    HW2 3114   0.916   0.186   1.523  1.8949 -0.2318  0.0162
    1SOL    HW3 3115   0.983   0.051   1.530 -1.6614 -2.0843 -0.5876
    1SOL    MW4 3116   0.919   0.102   1.501 -0.2507 -0.2146 -0.4685
    1SOL     OW 3117   0.910   0.357   1.607 -0.1092  0.2166 -0.0122
    1SOL    HW2 3118   0.898   0.370   1.701  1.4557  1.9831 -0.0321
    1SOL    HW3 3119   0.832   0.395   1.567 -0.4007  0.1835  0.5240
    1SOL    MW4 3120   0.898   0.364   1.614  0.0588  0.4453  0.0559
    1SOL     OW 3121   1.133   0.491   1.515 -0.0586 -0.0697 -0.2495
    1SOL    HW2 3122   1.125   0.579   1.552  1.2554 -0.7602  1.7860
    1SOL    HW3 3123   1.055   0.445   1.545 -0.5801  0.3106 -1.0313
    1SOL    MW4 3124   1.122   0.497   1.524  0.0460 -0.1106 -0.0842
    1SOL     OW 3125   1.139   0.748   1.614 -0.6328 -0.2234 -0.6065
    1SOL    HW2 3126   1.144   0.751   1.709 -0.7259 -1.2628 -0.5571
    1SOL    HW3 3127   1.224   0.779   1.584  0.0809 -1.6491 -0.1349
    1SOL    MW4 3128   1.151   0.752   1.623 -0.5510 -0.5487 -0.5378
    1SOL     OW 3129   0.899   0.901   1.565  0.0829  0.1285  0.3418
    1SOL    HW2 3130   0.986   0.865   1.585 -0.2573 -0.2191  1.2521
    1SOL    HW3 3131   0.896   0.906   1.470  0.5842 -1.1718  0.2508
    1SOL    MW4 3132   0.910   0.897   1.555  0.1042 -0.0889  0.4499
    1SOL     OW 3133   0.934   1.186   1.652 -0.2789  0.2422 -0.2899
    1SOL    HW2 3134   0.938   1.092   1.631 -0.8406 -0.1563  1.3146
    1SOL    HW3 3135   0.856   1.217   1.605  0.1089 -0.0128 -1.1150
    1SOL    MW4 3136   0.924   1.177   1.643 -0.3018  0.1560 -0.1872
    1SOL     OW 3137   1.136   1.288   1.500 -0.2173 -0.1057 -0.1144
    1SOL    HW2 3138   1.214   1.250   1.541  0.3312  0.2221 -0.8336
    1SOL    HW3 3139   1.063   1.257   1.554  0.3324 -1.1431  0.0552
    1SOL    MW4 3140   1.137   1.279   1.512 -0.0725 -0.1992 -0.1869
    1SOL     OW 3141   1.086   1.549   1.594  0.3977 -0.2551  0.0498
    1SOL    HW2 3142   1.149   1.617   1.569  0.2149  0.0159  0.3315
    1SOL    HW3 3143   1.123   1.468   1.557 -0.0376  0.1931 -1.3789
    1SOL    MW4 3144   1.099   1.547   1.586  0.3161 -0.1602 -0.1017
    1SOL     OW 3145   0.656   1.546   1.592  0.2924 -0.0295 -0.5646
    1SOL    HW2 3146   0.729   1.601   1.562  0.1807  0.3327 -0.1668
    1SOL    HW3 3147   0.675   1.460   1.554  0.8845  0.0819 -0.5328
    1SOL    MW4 3148   0.668   1.542   1.583  0.3558  0.0330 -0.5078
    1SOL     OW 3149   0.885   1.920   1.601  0.0662 -0.0208 -0.6096
    1SOL    HW2 3150   0.946   1.974   1.550  0.9402  0.6054  1.0673
    1SOL    HW3 3151   0.876   1.840   1.549  1.8220  0.1347 -1.2175
    1SOL    MW4 3152   0.892   1.917   1.587  0.4131  0.0824 -0.4686
    1SOL     OW 3153   1.116   2.095   1.484  0.1402 -0.2843  0.5098
    1SOL    HW2 3154   1.198   2.053   1.507 -0.0294 -0.6244  0.5089
    1SOL    HW3 3155   1.116   2.178   1.531  0.2371 -0.5284  0.9409
    1SOL    MW4 3156   1.127   2.100   1.493  0.1305 -0.3612  0.5667
    1SOL     OW 3157   1.087   2.354   1.631  0.2598  0.4986 -0.2988
    1SOL    HW2 3158   1.163   2.398   1.594  0.7116  0.7880  0.9374
    1SOL    HW3 3159   1.012   2.398   1.591  0.7351 -0.0924 -1.8675
    1SOL    MW4 3160   1.087   2.365   1.621  0.3822  0.4590 -0.3427
    1SOL     OW 3161   0.877   2.499   1.518  0.0806  0.2103  0.2841
    1SOL    HW2 3162   0.877   2.586   1.557  2.1265 -0.4412  1.8174
    1SOL    HW3 3163   0.791   2.463   1.540 -0.7935  1.8320 -0.4092
    1SOL    MW4 3164   0.866   2.506   1.526  0.2352  0.3381  0.3949
    1SOL     OW 3165   0.870   2.741   1.631 -0.0001  0.2986 -0.3135
    1SOL    HW2 3166   0.897   2.737   1.723  0.7644 -1.4872 -0.5921
    1SOL    HW3 3167   0.795   2.801   1.631  0.4373  0.8840  1.3527
    1SOL    MW4 3168   0.863   2.748   1.643  0.1585  0.1404 -0.1303
    1SOL     OW 3169   1.093   2.891   1.517 -0.0940  0.3620  0.5628
    1SOL    HW2 3170   1.089   2.973   1.566 -0.9394  0.4669  0.3248
    1SOL    HW3 3171   1.022   2.838   1.553  0.9696 -0.5851  1.2844
    1SOL    MW4 3172   1.083   2.895   1.528 -0.0653  0.2508  0.6266
    1SOL     OW 3173   1.099   3.145   1.619  0.2627 -0.1649  0.5028
    1SOL    HW2 3174   1.123   3.143   1.712 -1.2594  2.9402  1.0300
    1SOL    HW3 3175   1.164   3.203   1.579 -1.6020  1.9852  0.4868
    1SOL    MW4 3176   1.111   3.152   1.626 -0.1842  0.5286  0.5703
    1SOL     OW 3177   0.852   3.238   1.554 -0.4001 -0.1662 -0.1425
    1SOL    HW2 3178   0.932   3.195   1.584 -0.1843 -0.7945 -1.5635
    1SOL    HW3 3179   0.858   3.235   1.458 -1.1201  1.6752 -0.2603
    1SOL    MW4 3180   0.863   3.232   1.545 -0.4667 -0.0064 -0.3453
    1SOL     OW 3181   0.841   3.496   1.626  0.1848 -0.0372 -0.2697
    1SOL    HW2 3182   0.921   3.535   1.590  0.5927 -1.4330 -0.8777
    1SOL    HW3 3183   0.843   3.405   1.597 -2.1063  0.1342 -1.1038
    1SOL    MW4 3184   0.852   3.489   1.617 -0.0637 -0.1988 -0.4600
    1SOL     OW 3185   1.064   3.606   1.513  0.2379  0.3961 -0.3722
    1SOL    HW2 3186   1.148   3.564   1.532  0.8606  1.0642 -1.5931
    1SOL    HW3 3187   1.062   3.615   1.417 -1.0767  0.6845 -0.3349
    1SOL    MW4 3188   1.075   3.602   1.503  0.1466  0.5221 -0.5283
    1SOL     OW 3189   1.107   3.854   1.633 -0.3882  0.5629  0.5131
    1SOL    HW2 3190   1.197   3.869   1.604 -1.1340  2.1174 -1.1810
    1SOL    HW3 3191   1.089   3.763   1.611  0.6648  0.3480  0.5314
    1SOL    MW4 3192   1.117   3.844   1.626 -0.3477  0.7396  0.2918
    1SOL     OW 3193   0.916   4.002   1.479  0.1342 -0.4400  0.0241
    1SOL    HW2 3194   0.913   4.096   1.499 -1.3180 -0.6925  1.1552
    1SOL    HW3 3195   0.991   3.970   1.528  1.8847  0.4570 -1.9872
    1SOL    MW4 3196   0.925   4.010   1.488  0.1736 -0.3548 -0.0920
    1SOL     OW 3197   0.913   4.263   1.549 -0.1683 -0.4203  0.3396
    1SOL    HW2 3198   0.909   4.263   1.644  2.6860  2.2820  0.5649
    1SOL    HW3 3199   0.830   4.300   1.521 -0.5264 -0.0594  1.8358
    1SOL    MW4 3200   0.902   4.268   1.558  0.1611 -0.0157  0.5666
    1SOL     OW 3201   1.175   4.374   1.502  0.0237  0.3243  0.1116
    1SOL    HW2 3202   1.085   4.344   1.509  0.1054 -0.2990 -1.2782
    1SOL    HW3 3203   1.171   4.468   1.518 -1.1144  0.5885 -1.5944
    1SOL    MW4 3204   1.163   4.382   1.505 -0.1158  0.2775 -0.2968
    1SOL     OW 3205   1.569   4.610   1.611 -0.4732  0.2154  0.0287
    1SOL    HW2 3206   1.575   4.627   1.705  1.8221 -0.2127 -0.0075
    1SOL    HW3 3207   1.497   4.666   1.581 -1.8070 -0.2722  2.1592
    1SOL    MW4 3208   1.560   4.619   1.620 -0.3463  0.0949  0.3051
    1SOL     OW 3209   1.359   0.099   1.502  0.1646 -0.1687  0.1374
    1SOL    HW2 3210   1.362   0.193   1.514 -0.9552 -0.0536 -0.3373
    1SOL    HW3 3211   1.362   0.087   1.407 -0.4959 -0.5521  0.1559
    1SOL    MW4 3212   1.360   0.109   1.491 -0.0702 -0.2041  0.0772
    1SOL     OW 3213   1.364   0.375   1.616  0.3233 -0.1108  0.1275
    1SOL    HW2 3214   1.438   0.432   1.597 -0.2631  0.0865 -1.7685
    1SOL    HW3 3215   1.288   0.424   1.583 -0.5083 -0.7821  1.0372
    1SOL    MW4 3216   1.364   0.389   1.609  0.1363 -0.1733 -0.0025
    1SOL     OW 3217   1.582   0.511   1.516 -0.6094 -0.2749 -0.0548
    1SOL    HW2 3218   1.660   0.466   1.549 -1.3595 -1.5380 -0.0155
    1SOL    HW3 3219   1.581   0.493   1.423  0.1310  1.2525 -0.3843
    1SOL    MW4 3220   1.592   0.503   1.508 -0.6107 -0.2400 -0.0931
    1SOL     OW 3221   1.606   0.763   1.632 -0.0908  0.4965 -0.4306
    1SOL    HW2 3222   1.590   0.756   1.726 -0.9272 -0.3006 -0.6241
    1SOL    HW3 3223   1.592   0.674   1.599 -0.8559  0.9942 -1.4627
    1SOL    MW4 3224   1.602   0.750   1.640 -0.3022  0.4571 -0.5924
    1SOL     OW 3225   1.376   0.896   1.565 -0.4212  0.2391  0.2576
    1SOL    HW2 3226   1.454   0.843   1.583 -0.3494  0.5221  0.7886
    1SOL    HW3 3227   1.377   0.907   1.470 -0.6178 -0.9857  0.0974
    1SOL    MW4 3228   1.387   0.890   1.555 -0.4376  0.1149  0.3065
    1SOL     OW 3229   1.359   1.175   1.625 -0.6347  0.0717  0.7221
    1SOL    HW2 3230   1.368   1.177   1.720  0.0390  0.6272  0.6482
    1SOL    HW3 3231   1.364   1.083   1.602  1.6213  0.1161  0.9975
    1SOL    MW4 3232   1.361   1.163   1.634 -0.2483  0.1508  0.7486
    1SOL     OW 3233   1.570   1.315   1.523  0.5828  0.1468 -0.1951
    1SOL    HW2 3234   1.502   1.254   1.552  0.8702 -0.1090 -0.0570
    1SOL    HW3 3235   1.652   1.275   1.552  0.7734  0.5946 -0.1161
    1SOL    MW4 3236   1.572   1.302   1.531  0.6458  0.1721 -0.1665
    1SOL     OW 3237   1.533   1.591   1.600 -0.0368  0.2729  0.3037
    1SOL    HW2 3238   1.562   1.606   1.691 -0.8184  0.7041  0.4828
    1SOL    HW3 3239   1.546   1.497   1.587  1.0695  0.3884  0.5156
    1SOL    MW4 3240   1.539   1.580   1.610  0.0060  0.3451  0.3552
    1SOL     OW 3241   1.308   1.708   1.499  0.2243 -0.0404 -0.2654
    1SOL    HW2 3242   1.378   1.664   1.548 -0.5099 -0.5336  0.3481
    1SOL    HW3 3243   1.334   1.699   1.408  0.7870 -0.5356 -0.0618
    1SOL    MW4 3244   1.321   1.701   1.494  0.2018 -0.1707 -0.1577
    1SOL     OW 3245   1.348   1.974   1.579 -0.3028 -0.1091  0.0473
    1SOL    HW2 3246   1.333   1.978   1.673 -0.8948  0.5064 -0.0732
    1SOL    HW3 3247   1.329   1.883   1.556 -0.5971 -0.1516  0.4477
    1SOL    MW4 3248   1.344   1.962   1.588 -0.4196 -0.0334  0.0843
    1SOL     OW 3249   1.591   2.093   1.508 -0.0768  0.0468 -0.2919
    1SOL    HW2 3250   1.519   2.036   1.535  0.0687 -0.1779 -0.3770
    1SOL    HW3 3251   1.599   2.080   1.414  0.8870 -0.8699 -0.0894
    1SOL    MW4 3252   1.583   2.084   1.500  0.0696 -0.1035 -0.2763
    1SOL     OW 3253   1.553   2.336   1.638  0.1743  0.2349  0.0171
    1SOL    HW2 3254   1.623   2.382   1.592  0.5924  0.5098  0.9208
    1SOL    HW3 3255   1.553   2.249   1.600  0.5478  0.4445 -0.4745
    1SOL    MW4 3256   1.562   2.331   1.627  0.2788  0.2987  0.0714
    1SOL     OW 3257   1.315   2.465   1.519 -0.3284  0.1822 -0.4107
    1SOL    HW2 3258   1.313   2.553   1.554 -1.4317  0.4742 -1.1816
    1SOL    HW3 3259   1.383   2.420   1.569 -0.9123  0.9787  1.1234
    1SOL    MW4 3260   1.324   2.470   1.530 -0.5511  0.3257 -0.3099
    1SOL     OW 3261   1.324   2.746   1.596  0.0943 -0.3161 -0.0574
    1SOL    HW2 3262   1.401   2.784   1.554  0.4706 -0.0238  0.8790
    1SOL    HW3 3263   1.253   2.805   1.573  0.6284  0.8469  1.1701
    1SOL    MW4 3264   1.325   2.759   1.588  0.2143 -0.1242  0.2282
    1SOL     OW 3265   1.509   2.879   1.462 -0.0982 -0.0002 -0.0387
    1SOL    HW2 3266   1.593   2.846   1.493 -0.1564  0.4066  0.5595
    1SOL    HW3 3267   1.509   2.861   1.368  0.7613  0.2477 -0.0877
    1SOL    MW4 3268   1.520   2.872   1.454  0.0074  0.0861  0.0337
    1SOL     OW 3269   1.504   3.130   1.579  0.3169 -0.0579  0.0690
    1SOL    HW2 3270   1.581   3.173   1.542 -0.4948  1.4767  0.1078
    1SOL    HW3 3271   1.505   3.042   1.543  2.4738 -0.2614  0.6119
    1SOL    MW4 3272   1.514   3.124   1.570  0.4945  0.1175  0.1457
    1SOL     OW 3273   1.298   3.306   1.482  0.0370  0.5160 -0.5262
    1SOL    HW2 3274   1.327   3.394   1.507 -0.1569  0.2535  0.6377
    1SOL    HW3 3275   1.363   3.247   1.521  0.0397  0.1307 -1.1118
    1SOL    MW4 3276   1.311   3.310   1.491  0.0118  0.4306 -0.4499
    1SOL     OW 3277   1.336   3.572   1.582 -0.4466 -0.0093  0.2768
    1SOL    HW2 3278   1.331   3.578   1.677  0.8995  1.7791  0.2762
    1SOL    HW3 3279   1.428   3.593   1.562 -0.9139  0.4624 -1.4628
    1SOL    MW4 3280   1.348   3.575   1.592 -0.3306  0.2890  0.0472
    1SOL     OW 3281   1.610   3.620   1.510  0.0445 -0.7088 -0.2909
    1SOL    HW2 3282   1.621   3.713   1.532  0.4749 -0.9511  0.5210
    1SOL    HW3 3283   1.611   3.618   1.414 -1.8683  0.3535 -0.3525
    1SOL    MW4 3284   1.612   3.632   1.500 -0.1512 -0.6006 -0.1919
    1SOL     OW 3285   1.596   3.890   1.649  0.4685 -0.0306 -0.2339
    1SOL    HW2 3286   1.602   3.894   1.744  1.7591  0.1581 -0.3168
    1SOL    HW3 3287   1.505   3.913   1.629 -0.3280 -1.9841  1.0557
    1SOL    MW4 3288   1.585   3.894   1.659  0.5336 -0.2635 -0.0746
    1SOL     OW 3289   1.341   3.990   1.565  0.0385  0.0201 -0.3277
    1SOL    HW2 3290   1.352   4.080   1.597  0.3812  0.1435 -0.7840
    1SOL    HW3 3291   1.346   3.998   1.470 -2.5403 -0.1346 -0.5098
    1SOL    MW4 3292   1.344   4.003   1.557 -0.2565  0.0157 -0.4120
    1SOL     OW 3293   1.376   4.273   1.663  0.2670  0.3258  0.0901
    1SOL    HW2 3294   1.444   4.294   1.599  0.8722 -0.9944  0.2935
    1SOL    HW3 3295   1.295   4.303   1.621  0.5774 -1.0540 -1.5822
    1SOL    MW4 3296   1.374   4.280   1.649  0.3879 -0.0300 -0.1036
    1SOL     OW 3297   1.594   4.350   1.510  0.4541 -0.4772 -0.0035
    1SOL    HW2 3298   1.674   4.321   1.553  1.7519  1.2721 -1.1950
    1SOL    HW3 3299   1.576   4.436   1.548  0.4182  0.1346 -1.3938
    1SOL    MW4 3300   1.602   4.357   1.521  0.6207 -0.1659 -0.3443
    1SOL     OW 3301   2.004   4.661   1.622  0.0281  0.0708 -0.0726
    1SOL    HW2 3302   1.985   4.668   1.716  1.0244  1.2717  0.0594
    1SOL    HW3 3303   1.942   4.722   1.582  0.4640  0.5156 -0.0720
    1SOL    MW4 3304   1.993   4.670   1.629  0.2168  0.2885 -0.0551
    1SOL     OW 3305   1.785   0.120   1.532  0.0567  0.1478  0.6905
    1SOL    HW2 3306   1.732   0.049   1.569  1.4527 -1.0257  0.4904
    1SOL    HW3 3307   1.777   0.109   1.437  1.1018 -0.4055  0.6520
    1SOL    MW4 3308   1.777   0.109   1.524  0.3787 -0.0800  0.6590
    1SOL     OW 3309   1.797   0.374   1.605  0.0188 -0.3794  0.4194
    1SOL    HW2 3310   1.883   0.407   1.580 -0.3250 -0.0606 -0.3682
    1SOL    HW3 3311   1.800   0.280   1.585 -0.6666  0.0766 -2.0845
    1SOL    MW4 3312   1.809   0.366   1.599 -0.1171 -0.2772 -0.0148
    1SOL     OW 3313   2.030   0.535   1.553 -0.4492 -0.2187  0.0174
    1SOL    HW2 3314   2.108   0.490   1.584 -0.4835 -0.3887 -0.1374
    1SOL    HW3 3315   2.043   0.627   1.576  0.3931 -0.0248 -1.1657
    1SOL    MW4 3316   2.042   0.541   1.560 -0.3426 -0.2155 -0.1589
    1SOL     OW 3317   2.099   0.808   1.638  0.2153 -0.3537 -0.3330
    1SOL    HW2 3318   2.167   0.840   1.579 -1.4517  0.6659 -1.7577
    1SOL    HW3 3319   2.017   0.843   1.602 -1.1687 -2.2414  0.8559
    1SOL    MW4 3320   2.097   0.817   1.626 -0.1872 -0.4682 -0.3641
    1SOL     OW 3321   1.843   0.896   1.527  0.1177 -0.2658 -0.7670
    1SOL    HW2 3322   1.822   0.989   1.532 -0.7964 -0.4284 -1.4924
    1SOL    HW3 3323   1.771   0.852   1.574 -0.6639 -0.7607 -2.4119
    1SOL    MW4 3324   1.830   0.902   1.534 -0.1060 -0.3526 -1.0797
    1SOL     OW 3325   1.797   1.167   1.564  0.0506  0.2858  0.0747
    1SOL    HW2 3326   1.881   1.202   1.533  1.5739 -2.6255  0.6651
    1SOL    HW3 3327   1.804   1.168   1.659 -1.1136  1.2110  0.1527
    1SOL    MW4 3328   1.809   1.172   1.572  0.0979  0.0237  0.1630
    1SOL     OW 3329   2.030   1.288   1.502 -0.6704 -0.0979  0.5137
    1SOL    HW2 3330   2.017   1.382   1.518 -0.4985  0.1259 -0.5920
    1SOL    HW3 3331   2.030   1.280   1.407  2.0200 -0.8121  0.5220
    1SOL    MW4 3332   2.028   1.300   1.491 -0.2925 -0.1626  0.3690
    1SOL     OW 3333   1.981   1.535   1.581 -0.1506 -0.2505  0.3547
    1SOL    HW2 3334   2.066   1.576   1.566 -0.9698  2.3960  2.4978
    1SOL    HW3 3335   1.918   1.601   1.553 -1.5074 -1.2080  1.1358
    1SOL    MW4 3336   1.984   1.549   1.575 -0.4377 -0.0277  0.7405
    1SOL     OW 3337   1.784   1.698   1.506 -0.0655 -0.4752 -0.3024
    1SOL    HW2 3338   1.697   1.661   1.522 -0.3053 -0.2302 -0.9879
    1SOL    HW3 3339   1.785   1.716   1.412  1.2306 -1.7084 -0.5379
    1SOL    MW4 3340   1.773   1.696   1.496  0.0739 -0.6056 -0.4239
    1SOL     OW 3341   1.823   1.949   1.633  0.4453 -0.1018  0.5172
    1SOL    HW2 3342   1.805   1.859   1.603  0.6781 -0.3946  1.2381
    1SOL    HW3 3343   1.747   1.999   1.605  0.3376 -0.5161  0.0566
    1SOL    MW4 3344   1.811   1.944   1.625  0.4618 -0.1950  0.5516
    1SOL     OW 3345   2.041   2.078   1.529 -0.2134  0.1514  0.6829
    1SOL    HW2 3346   2.118   2.039   1.569 -0.6882 -1.4316  0.0700
    1SOL    HW3 3347   1.968   2.024   1.558 -0.8959  0.6712 -0.0383
    1SOL    MW4 3348   2.042   2.066   1.538 -0.3662  0.0112  0.5068
    1SOL     OW 3349   1.987   2.352   1.588  0.0637 -0.1120  0.4068
    1SOL    HW2 3350   1.988   2.370   1.682  0.6374 -0.0691  0.3918
    1SOL    HW3 3351   2.005   2.259   1.581  1.0831  0.0832  0.2948
    1SOL    MW4 3352   1.990   2.342   1.600  0.2739 -0.0808  0.3901
    1SOL     OW 3353   1.747   2.464   1.501  0.2586  0.5088 -0.2332
    1SOL    HW2 3354   1.833   2.439   1.534  0.2547 -0.1227 -0.6996
    1SOL    HW3 3355   1.761   2.480   1.408 -0.0719  0.6831 -0.2548
    1SOL    MW4 3356   1.760   2.463   1.493  0.2146  0.4482 -0.2975
    1SOL     OW 3357   1.752   2.741   1.550 -0.1490  0.1226 -0.5464
    1SOL    HW2 3358   1.834   2.764   1.505 -0.5173  0.2491 -1.1539
    1SOL    HW3 3359   1.738   2.649   1.529 -0.4415  0.2423 -0.8838
    1SOL    MW4 3360   1.761   2.732   1.541 -0.2363  0.1552 -0.6710
    1SOL     OW 3361   2.012   2.817   1.461  0.1500 -0.5800  0.5480
    1SOL    HW2 3362   2.002   2.905   1.498  1.2063 -0.1238 -0.2263
    1SOL    HW3 3363   2.007   2.830   1.366  2.8871 -0.9796  0.3213
    1SOL    MW4 3364   2.010   2.831   1.453  0.6506 -0.5724  0.4158
    1SOL     OW 3365   1.951   3.086   1.541  0.0246 -0.2770  0.3877
    1SOL    HW2 3366   1.963   3.090   1.636  0.4789  1.2569  0.2816
    1SOL    HW3 3367   2.032   3.121   1.506 -1.5925  2.7987 -0.4911
    1SOL    MW4 3368   1.963   3.091   1.549 -0.1290  0.3314  0.2578
    1SOL     OW 3369   1.738   3.262   1.497 -0.0779 -0.2289  0.3920
    1SOL    HW2 3370   1.767   3.335   1.552  0.4723 -0.1748  0.0365
    1SOL    HW3 3371   1.805   3.195   1.510  0.7872  0.2821 -1.2476
    1SOL    MW4 3372   1.751   3.263   1.506  0.1088 -0.1545  0.1289
    1SOL     OW 3373   1.809   3.488   1.635  0.4027 -0.0723 -0.1380
    1SOL    HW2 3374   1.805   3.511   1.728  0.2618 -0.1044 -0.1373
    1SOL    HW3 3375   1.736   3.535   1.596  1.9206  1.9492 -0.6432
    1SOL    MW4 3376   1.799   3.497   1.642  0.5845  0.1900 -0.2046
    1SOL     OW 3377   2.038   3.642   1.536 -0.0590  0.4934 -0.1768
    1SOL    HW2 3378   2.109   3.579   1.545 -0.6185 -0.0582  0.5016
    1SOL    HW3 3379   1.961   3.595   1.568 -1.1985  0.2430 -3.1065
    1SOL    MW4 3380   2.037   3.627   1.542 -0.2835  0.3877 -0.4740
    1SOL     OW 3381   2.039   3.895   1.640  0.0681  0.2986  0.1323
    1SOL    HW2 3382   2.115   3.939   1.601  0.9720 -0.9211  0.5038
    1SOL    HW3 3383   2.044   3.805   1.608 -0.0045 -0.3397  1.8634
    1SOL    MW4 3384   2.049   3.889   1.630  0.1779  0.0534  0.4098
    1SOL     OW 3385   1.812   3.995   1.505 -0.1834  0.2884 -0.2572
    1SOL    HW2 3386   1.893   3.959   1.541 -0.7966 -1.2478 -0.3795
    1SOL    HW3 3387   1.742   3.951   1.554 -0.9627  0.7635 -0.9291
    1SOL    MW4 3388   1.813   3.985   1.516 -0.3672  0.1485 -0.3622
    1SOL     OW 3389   1.843   4.254   1.603 -0.0514  0.1646  0.0772
    1SOL    HW2 3390   1.925   4.293   1.573  0.8128 -1.0967  0.7468
    1SOL    HW3 3391   1.844   4.166   1.566 -1.2434  0.2251 -0.1228
    1SOL    MW4 3392   1.854   4.248   1.594 -0.0947  0.0062  0.1391
    1SOL     OW 3393   2.042   4.406   1.502  0.1257  0.3289  0.2808
    1SOL    HW2 3394   2.110   4.367   1.558 -1.6650 -0.3804  2.0322
    1SOL    HW3 3395   2.022   4.490   1.544  0.0850  0.6376 -0.3579
    1SOL    MW4 3396   2.048   4.412   1.515 -0.1159  0.2761  0.4276
    1SOL     OW 3397   2.488   0.039   1.630 -0.4292  0.3474 -0.1155
    1SOL    HW2 3398   2.491   0.048   1.725 -0.4197 -0.1619 -0.0692
    1SOL    HW3 3399   2.400   0.069   1.606 -1.0647 -1.2283  0.2319
    1SOL    MW4 3400   2.477   0.044   1.639 -0.5119  0.0723 -0.0634
    1SOL     OW 3401   2.242   0.136   1.554 -0.0461 -0.3987 -0.1361
    1SOL    HW2 3402   2.170   0.088   1.595 -0.5015 -0.6116 -1.1865
    1SOL    HW3 3403   2.230   0.122   1.460  1.0026  0.0833 -0.3454
    1SOL    MW4 3404   2.231   0.127   1.547  0.0322 -0.3632 -0.3023
    1SOL     OW 3405   2.254   0.402   1.641  0.0110  0.1107  0.5451
    1SOL    HW2 3406   2.256   0.394   1.736 -0.9873  1.5530  0.7026
    1SOL    HW3 3407   2.252   0.311   1.610 -0.0874 -0.3707  1.9077
    1SOL    MW4 3408   2.254   0.389   1.649 -0.1335  0.2374  0.7458
    1SOL     OW 3409   2.471   0.551   1.538 -0.4073 -0.4489 -0.1373
    1SOL    HW2 3410   2.553   0.508   1.562 -1.1666 -1.3509  0.9190
    1SOL    HW3 3411   2.403   0.488   1.563 -1.4816  0.8738  0.3390
    1SOL    MW4 3412   2.473   0.537   1.545 -0.6495 -0.3935  0.0648
    1SOL     OW 3413   2.501   0.799   1.652 -0.1926  0.2520  0.2842
    1SOL    HW2 3414   2.427   0.836   1.604 -1.3324  0.6762  2.3201
    1SOL    HW3 3415   2.494   0.705   1.638  0.4414  0.4793 -1.7003
    1SOL    MW4 3416   2.490   0.792   1.644 -0.2594  0.3380  0.2909
    1SOL     OW 3417   2.312   0.919   1.500 -0.0007  0.1729  0.5395
    1SOL    HW2 3418   2.291   1.007   1.531 -2.2432 -0.1762  0.1293
    1SOL    HW3 3419   2.285   0.919   1.408 -3.4195 -1.9830  1.4473
    1SOL    MW4 3420   2.305   0.930   1.492 -0.7477 -0.1577  0.6052
    1SOL     OW 3421   2.276   1.186   1.590 -0.5041  0.3072 -0.5346
    1SOL    HW2 3422   2.292   1.191   1.684  0.7483  3.4878 -0.8611
    1SOL    HW3 3423   2.192   1.231   1.578 -1.3438 -1.2998 -0.8102
    1SOL    MW4 3424   2.267   1.193   1.601 -0.4497  0.5149 -0.6140
    1SOL     OW 3425   2.489   1.327   1.495  0.2901  0.5830  0.2034
    1SOL    HW2 3426   2.413   1.288   1.540  0.2362  0.3333 -0.0998
    1SOL    HW3 3427   2.466   1.323   1.402  0.2334  1.4518  0.1742
    1SOL    MW4 3428   2.476   1.321   1.489  0.2756  0.6648  0.1595
    1SOL     OW 3429   2.436   1.568   1.617  0.1441 -0.1667  0.7925
    1SOL    HW2 3430   2.509   1.627   1.595  0.5525 -0.2155  1.9682
    1SOL    HW3 3431   2.461   1.484   1.580  0.4720 -0.0629  0.7767
    1SOL    MW4 3432   2.449   1.565   1.609  0.2413 -0.1595  0.9457
    1SOL     OW 3433   2.207   1.660   1.524 -0.0842 -0.5316  0.1342
    1SOL    HW2 3434   2.294   1.635   1.552 -0.0235  0.7047  1.1088
    1SOL    HW3 3435   2.214   1.673   1.430  0.0947 -3.1627 -0.2535
    1SOL    MW4 3436   2.219   1.659   1.515 -0.0527 -0.7155  0.2117
    1SOL     OW 3437   2.257   1.922   1.613 -0.1926 -0.0677 -0.4371
    1SOL    HW2 3438   2.255   1.918   1.708  0.1429 -0.0550 -0.4292
    1SOL    HW3 3439   2.241   1.831   1.585  1.0762 -0.3383 -0.3445
    1SOL    MW4 3440   2.255   1.909   1.622  0.0191 -0.1017 -0.4239
    1SOL     OW 3441   2.467   2.081   1.535  0.1125  0.0120 -0.3664
    1SOL    HW2 3442   2.390   2.031   1.564  0.2467  0.3841  0.6528
    1SOL    HW3 3443   2.469   2.068   1.440 -0.9207 -0.4079 -0.3429
    1SOL    MW4 3444   2.457   2.072   1.526 -0.0060  0.0055 -0.2288
    1SOL     OW 3445   2.430   2.333   1.598 -0.0744 -0.3038 -0.4404
    1SOL    HW2 3446   2.445   2.348   1.691 -0.1851  0.8386 -0.5925
    1SOL    HW3 3447   2.438   2.239   1.587 -0.2249 -0.4685  0.7551
    1SOL    MW4 3448   2.433   2.323   1.609 -0.1087 -0.1745 -0.3027
    1SOL     OW 3449   2.216   2.478   1.490 -0.7952  0.3573  0.2688
    1SOL    HW2 3450   2.291   2.427   1.520  0.0928  1.0597 -0.7410
    1SOL    HW3 3451   2.140   2.434   1.529 -0.1400 -2.2670 -1.3002
    1SOL    MW4 3452   2.216   2.465   1.499 -0.5915  0.1040 -0.0715
    1SOL     OW 3453   2.222   2.720   1.596 -0.5577 -0.2624 -0.0059
    1SOL    HW2 3454   2.232   2.627   1.574 -0.5110 -0.1842 -0.3172
    1SOL    HW3 3455   2.150   2.750   1.541 -0.7543 -0.1784  0.2950
    1SOL    MW4 3456   2.214   2.712   1.586 -0.5774 -0.2410 -0.0073
    1SOL     OW 3457   2.446   2.848   1.526  0.0934  0.2123 -0.3577
    1SOL    HW2 3458   2.446   2.923   1.586  0.0000 -0.4739  0.5113
    1SOL    HW3 3459   2.362   2.804   1.544  0.5458 -0.6009 -0.2275
    1SOL    MW4 3460   2.435   2.852   1.536  0.1407  0.0145 -0.2258
    1SOL     OW 3461   2.418   3.100   1.643 -0.1525 -0.7746 -0.4368
    1SOL    HW2 3462   2.495   3.142   1.604 -0.1112 -2.9133 -2.8039
    1SOL    HW3 3463   2.345   3.134   1.591 -0.2948 -2.2322 -1.2255
    1SOL    MW4 3464   2.418   3.110   1.631 -0.1659 -1.2491 -0.8531
    1SOL     OW 3465   2.198   3.193   1.485 -0.8265  0.1223 -0.2962
    1SOL    HW2 3466   2.207   3.278   1.528  1.6276 -0.2135 -0.0956
    1SOL    HW3 3467   2.191   3.213   1.392 -1.1637  0.5867 -0.1695
    1SOL    MW4 3468   2.198   3.207   1.479 -0.5472  0.1392 -0.2530
    1SOL     OW 3469   2.249   3.451   1.571  0.0213  1.1110  0.1249
    1SOL    HW2 3470   2.273   3.451   1.663 -0.3798  0.9007  0.2309
    1SOL    HW3 3471   2.322   3.494   1.527  0.0363  1.5620  0.5860
    1SOL    MW4 3472   2.262   3.457   1.577 -0.0296  1.1427  0.1997
    1SOL     OW 3473   2.486   3.595   1.475 -0.1264 -0.1599  0.0369
    1SOL    HW2 3474   2.570   3.559   1.504 -0.0524 -0.2784 -0.3199
    1SOL    HW3 3475   2.472   3.672   1.531 -0.3803 -0.8558  0.9311
    1SOL    MW4 3476   2.495   3.601   1.487 -0.1502 -0.2675  0.1076
    1SOL     OW 3477   2.501   3.832   1.636  0.5541  0.3485 -0.0818
    1SOL    HW2 3478   2.490   3.830   1.731 -0.8235  1.7299 -0.1843
    1SOL    HW3 3479   2.555   3.909   1.619  1.0268 -0.0500 -0.4012
    1SOL    MW4 3480   2.507   3.842   1.646  0.4346  0.4783 -0.1376
    1SOL     OW 3481   2.297   4.038   1.593 -0.0364  0.1951 -0.1017
    1SOL    HW2 3482   2.363   3.970   1.608 -0.5888  0.2304  2.8352
    1SOL    HW3 3483   2.284   4.039   1.498  0.6930 -3.1142 -0.2891
    1SOL    MW4 3484   2.304   4.029   1.583 -0.0131 -0.2360  0.2611
    1SOL     OW 3485   2.222   4.294   1.691  0.1523 -0.0379  0.0573
    1SOL    HW2 3486   2.297   4.348   1.666 -0.2690  0.3848 -0.3058
    1SOL    HW3 3487   2.247   4.205   1.665  0.9993 -0.0799  0.9935
    1SOL    MW4 3488   2.235   4.290   1.685  0.2084  0.0124  0.1329
    1SOL     OW 3489   2.443   4.434   1.577  0.0421  0.5636 -0.5573
    1SOL    HW2 3490   2.465   4.524   1.601  0.0848  0.4279 -0.0934
    1SOL    HW3 3491   2.450   4.433   1.481 -2.0897  1.6112 -0.7550
    1SOL    MW4 3492   2.447   4.446   1.567 -0.2334  0.6843 -0.5221
    1SOL     OW 3493   2.937   0.001   1.638  0.1670 -0.0877  0.3134
    1SOL    HW2 3494   2.935   0.004   1.734  0.5292 -1.2409  0.3595
    1SOL    HW3 3495   2.864   0.057   1.611  0.9048  1.3674  1.2436
    1SOL    MW4 3496   2.927   0.009   1.647  0.3121 -0.0482  0.4420
    1SOL     OW 3497   2.717   0.166   1.541 -0.5872  0.2482 -0.3020
    1SOL    HW2 3498   2.716   0.256   1.573  1.3833  0.2219 -0.1097
    1SOL    HW3 3499   2.634   0.129   1.570 -0.7247  1.5240  0.9919
    1SOL    MW4 3500   2.706   0.173   1.549 -0.3455  0.4130 -0.1057
    1SOL     OW 3501   2.709   0.422   1.620 -0.1260  0.3787 -0.0671
    1SOL    HW2 3502   2.713   0.395   1.712  0.7129 -0.6576 -0.3993
    1SOL    HW3 3503   2.796   0.457   1.602 -0.2239  0.3786 -0.5308
    1SOL    MW4 3504   2.721   0.423   1.630 -0.0281  0.2420 -0.1720
    1SOL     OW 3505   2.971   0.498   1.533  0.0940 -0.1315  0.2011
    1SOL    HW2 3506   2.985   0.586   1.569  3.9544 -0.7862  0.5002
    1SOL    HW3 3507   2.965   0.511   1.439  0.3878  0.4500  0.2617
    1SOL    MW4 3508   2.972   0.511   1.526  0.6423 -0.1411  0.2484
    1SOL     OW 3509   2.940   0.784   1.628  0.2668 -0.0473  0.3338
    1SOL    HW2 3510   2.923   0.785   1.722 -0.3556 -0.2535  0.2288
    1SOL    HW3 3511   2.864   0.828   1.589  0.1627 -0.6236 -0.1237
    1SOL    MW4 3512   2.928   0.790   1.635  0.1709 -0.1505  0.2595
    1SOL     OW 3513   2.721   0.893   1.505  0.3525 -0.3372 -0.2222
    1SOL    HW2 3514   2.642   0.862   1.549  0.3547  1.2167  0.9280
    1SOL    HW3 3515   2.697   0.897   1.412 -0.7366 -0.4183  0.0502
    1SOL    MW4 3516   2.707   0.890   1.498  0.2089 -0.1429 -0.0346
    1SOL     OW 3517   2.729   1.171   1.624 -0.5280  0.1636 -0.0595
    1SOL    HW2 3518   2.729   1.086   1.580 -0.4752 -1.1739  2.3960
    1SOL    HW3 3519   2.646   1.211   1.599 -1.0229 -1.0750 -0.4423
    1SOL    MW4 3520   2.718   1.165   1.615 -0.5860 -0.1764  0.2140
    1SOL     OW 3521   2.927   1.313   1.466  0.2217  0.2752  0.0927
    1SOL    HW2 3522   3.002   1.260   1.492  0.3055  1.2083  1.7779
    1SOL    HW3 3523   2.852   1.270   1.509  0.0417  0.4356 -0.0626
    1SOL    MW4 3524   2.927   1.300   1.475  0.2089  0.4196  0.2946
    1SOL     OW 3525   2.947   1.542   1.610  0.2085 -0.0380 -0.0698
    1SOL    HW2 3526   2.863   1.582   1.588 -0.3672 -0.2540  1.6848
    1SOL    HW3 3527   2.946   1.457   1.565 -0.6807 -0.1967  0.2348
    1SOL    MW4 3528   2.936   1.536   1.601  0.0150 -0.0875  0.2019
    1SOL     OW 3529   2.689   1.671   1.542  0.0249 -0.3800  0.1799
    1SOL    HW2 3530   2.699   1.765   1.559  0.3167 -0.5043  0.7220
    1SOL    HW3 3531   2.693   1.663   1.447 -0.4981  0.2128  0.0999
    1SOL    MW4 3532   2.691   1.683   1.532 -0.0057 -0.3183  0.2409
    1SOL     OW 3533   2.698   1.958   1.633 -0.1473 -0.4593 -0.2695
    1SOL    HW2 3534   2.679   1.935   1.724  0.6403 -0.5312 -0.1201
    1SOL    HW3 3535   2.618   2.000   1.602 -0.5322 -0.7143  0.3615
    1SOL    MW4 3536   2.685   1.960   1.641 -0.0942 -0.5025 -0.1667
    1SOL     OW 3537   2.928   2.047   1.523  0.3550 -0.2251  0.2680
    1SOL    HW2 3538   2.925   2.138   1.551  1.1538 -0.0950 -0.0415
    1SOL    HW3 3539   2.853   2.005   1.566 -0.4738  0.7502 -0.2102
    1SOL    MW4 3540   2.918   2.053   1.532  0.3510 -0.0794  0.1642
    1SOL     OW 3541   2.904   2.309   1.608  0.1173  0.4393 -0.8066
    1SOL    HW2 3542   2.923   2.312   1.702  1.1303  1.2987 -1.0283
    1SOL    HW3 3543   2.823   2.359   1.598 -0.0484  0.2538 -0.3755
    1SOL    MW4 3544   2.896   2.316   1.619  0.2291  0.5283 -0.7790
    1SOL     OW 3545   2.669   2.447   1.516 -0.1561  0.0590 -0.1070
    1SOL    HW2 3546   2.661   2.538   1.543  0.6265 -0.1845  1.0314
    1SOL    HW3 3547   2.589   2.405   1.549  0.6331 -0.1624  1.6060
    1SOL    MW4 3548   2.658   2.453   1.524  0.0513 -0.0024  0.2692
    1SOL     OW 3549   2.669   2.715   1.592 -0.1497 -0.2185 -0.2629
    1SOL    HW2 3550   2.742   2.755   1.545  0.0065  0.2683  0.3908
    1SOL    HW3 3551   2.599   2.780   1.586  0.4090  0.5882  1.6269
    1SOL    MW4 3552   2.669   2.729   1.585 -0.0553 -0.0482  0.0727
    1SOL     OW 3553   2.904   2.826   1.492  0.1250 -0.1700  0.3213
    1SOL    HW2 3554   2.976   2.791   1.545  1.4655  0.8470 -0.7884
    1SOL    HW3 3555   2.895   2.916   1.522 -1.6753 -0.6942  1.4533
    1SOL    MW4 3556   2.912   2.833   1.503  0.0639 -0.1049  0.3244
    1SOL     OW 3557   2.907   3.090   1.568 -0.4907 -0.2736  0.2490
    1SOL    HW2 3558   2.904   3.101   1.663  0.1947  0.4214  0.1902
    1SOL    HW3 3559   2.979   3.146   1.539  0.0040 -1.3036 -0.5657
    1SOL    MW4 3560   2.916   3.099   1.577 -0.3352 -0.3178  0.1338
    1SOL     OW 3561   2.642   3.212   1.490 -0.6089  0.4121 -0.4168
    1SOL    HW2 3562   2.728   3.172   1.502  0.1750  1.8227 -1.1189
    1SOL    HW3 3563   2.626   3.207   1.396 -1.3538  0.0217 -0.2676
    1SOL    MW4 3564   2.651   3.206   1.479 -0.6037  0.5465 -0.4897
    1SOL     OW 3565   2.709   3.465   1.581 -0.1645  0.0544 -0.2701
    1SOL    HW2 3566   2.717   3.458   1.676  0.8941 -1.3121 -0.4541
    1SOL    HW3 3567   2.689   3.376   1.552 -0.5278  0.4794 -1.3267
    1SOL    MW4 3568   2.708   3.453   1.590 -0.0725 -0.0696 -0.4337
    1SOL     OW 3569   2.901   3.642   1.465  0.7648  0.1635 -0.7947
    1SOL    HW2 3570   2.830   3.587   1.498  0.5615  2.4988  2.9254
    1SOL    HW3 3571   2.980   3.602   1.501  0.7998  1.0238  0.0936
    1SOL    MW4 3572   2.902   3.629   1.474  0.7427  0.5851 -0.1868
    1SOL     OW 3573   2.896   3.872   1.640 -0.1734  0.7395  0.1423
    1SOL    HW2 3574   2.825   3.930   1.613 -1.2856 -0.5145  0.3272
    1SOL    HW3 3575   2.889   3.796   1.583  0.9789  0.5688  0.2113
    1SOL    MW4 3576   2.886   3.870   1.629 -0.1678  0.5515  0.1757
    1SOL     OW 3577   2.663   4.018   1.556 -0.4438 -0.4130  0.1468
    1SOL    HW2 3578   2.666   4.111   1.579  0.9757 -0.4740  0.2881
    1SOL    HW3 3579   2.697   4.014   1.467 -0.1916 -0.8205  0.2559
    1SOL    MW4 3580   2.668   4.030   1.548 -0.2236 -0.4749  0.1799
    1SOL     OW 3581   2.686   4.284   1.664 -0.2350 -0.3594 -0.2015
    1SOL    HW2 3582   2.761   4.331   1.626 -0.3258  1.0108  1.2543
    1SOL    HW3 3583   2.610   4.339   1.643 -0.1017  1.2756  3.2336
    1SOL    MW4 3584   2.686   4.298   1.656 -0.2296  0.0372  0.4437
    1SOL     OW 3585   2.909   4.415   1.544  0.1416  0.0739  0.3566
    1SOL    HW2 3586   2.907   4.503   1.581  1.0238 -0.0694  0.7770
    1SOL    HW3 3587   2.909   4.427   1.449 -2.8285  0.4365  0.3633
    1SOL    MW4 3588   2.909   4.428   1.537 -0.1340  0.1025  0.4129
    1SOL     OW 3589   3.370   4.601   1.648 -0.1387 -0.3648 -0.1834
    1SOL    HW2 3590   3.429   4.655   1.594  1.0954 -1.4308  0.0602
    1SOL    HW3 3591   3.375   4.514   1.608 -1.2742 -0.5533  0.0718
    1SOL    MW4 3592   3.379   4.597   1.635 -0.1254 -0.5302 -0.1178
    1SOL     OW 3593   3.166   0.122   1.540 -0.4953 -0.1361  0.2620
    1SOL    HW2 3594   3.232   0.078   1.593 -0.7799  1.0039  1.6043
    1SOL    HW3 3595   3.083   0.084   1.568 -0.4926 -0.9656 -0.8224
    1SOL    MW4 3596   3.164   0.112   1.550 -0.5324 -0.0951  0.2960
    1SOL     OW 3597   3.196   0.375   1.622 -0.0467  0.3499  0.0152
    1SOL    HW2 3598   3.184   0.283   1.603 -0.8161  0.2164  1.0685
    1SOL    HW3 3599   3.112   0.416   1.600 -0.2245  0.5334  0.9863
    1SOL    MW4 3600   3.184   0.369   1.617 -0.1717  0.3565  0.2824
    1SOL     OW 3601   3.399   0.533   1.497  0.4180  0.0451  0.1682
    1SOL    HW2 3602   3.326   0.482   1.531  1.0914 -1.1863 -0.1897
    1SOL    HW3 3603   3.396   0.518   1.402  0.9001  0.2950  0.1114
    1SOL    MW4 3604   3.389   0.524   1.489  0.5703 -0.0844  0.1135
    1SOL     OW 3605   3.373   0.780   1.584 -0.5055  0.4752  0.0084
    1SOL    HW2 3606   3.376   0.771   1.679  0.2321  0.8880  0.0334
    1SOL    HW3 3607   3.373   0.690   1.551 -1.7558  0.3143  0.4121
    1SOL    MW4 3608   3.374   0.767   1.592 -0.5732  0.5084  0.0650
    1SOL     OW 3609   3.133   0.903   1.479 -0.5648  0.0252  0.1830
    1SOL    HW2 3610   3.219   0.870   1.508 -0.4962  0.2679  0.2610
    1SOL    HW3 3611   3.070   0.845   1.522 -0.4150 -0.8548 -0.7728
    1SOL    MW4 3612   3.136   0.891   1.489 -0.5360 -0.0589  0.0672
    1SOL     OW 3613   3.145   1.161   1.564  0.1037 -0.8988 -0.6033
    1SOL    HW2 3614   3.136   1.157   1.659  1.8869 -1.4616 -0.4422
    1SOL    HW3 3615   3.158   1.070   1.537 -1.2242 -0.8438 -1.4914
    1SOL    MW4 3616   3.145   1.149   1.573  0.1640 -0.9657 -0.6993
    1SOL     OW 3617   3.408   1.300   1.493  0.3404 -0.0006 -0.0231
    1SOL    HW2 3618   3.471   1.244   1.538  0.3304 -0.8826 -1.0878
    1SOL    HW3 3619   3.322   1.271   1.523  0.3808  0.2357  0.3229
    1SOL    MW4 3620   3.405   1.289   1.503  0.3443 -0.0858 -0.1180
    1SOL     OW 3621   3.401   1.554   1.586  0.0281  0.2362  0.1521
    1SOL    HW2 3622   3.387   1.557   1.680 -0.2595  0.7428  0.0979
    1SOL    HW3 3623   3.436   1.467   1.569 -1.4691 -0.4437  0.5229
    1SOL    MW4 3624   3.404   1.543   1.596 -0.2077  0.2133  0.1940
    1SOL     OW 3625   3.172   1.679   1.512 -0.0687 -0.2721  0.0942
    1SOL    HW2 3626   3.246   1.623   1.535  0.7036  0.9890  0.7885
    1SOL    HW3 3627   3.097   1.639   1.555  0.5052 -0.6845  0.7317
    1SOL    MW4 3628   3.172   1.667   1.521  0.1087 -0.1600  0.2700
    1SOL     OW 3629   3.178   1.932   1.601  0.2894  0.0991 -0.2130
    1SOL    HW2 3630   3.171   1.843   1.568 -3.1220 -0.5672  2.0533
    1SOL    HW3 3631   3.109   1.980   1.555 -0.4072  0.6287  1.3598
    1SOL    MW4 3632   3.168   1.927   1.591 -0.2522  0.0812  0.2935
    1SOL     OW 3633   3.415   2.067   1.538  0.5110  0.3000  0.5805
    1SOL    HW2 3634   3.349   2.004   1.565  0.2790  0.4974  0.4841
    1SOL    HW3 3635   3.403   2.073   1.443 -0.3117  1.4209  0.7410
    1SOL    MW4 3636   3.404   2.060   1.529  0.3717  0.4740  0.5889
    1SOL     OW 3637   3.328   2.329   1.597  0.2011 -0.1832  0.4024
    1SOL    HW2 3638   3.411   2.374   1.582  0.4734 -0.3348  1.4269
    1SOL    HW3 3639   3.350   2.236   1.593  0.0086 -0.2263  0.3119
    1SOL    MW4 3640   3.342   2.322   1.595  0.2115 -0.2089  0.5255
    1SOL     OW 3641   3.106   2.472   1.519  0.0109 -0.4531 -0.3576
    1SOL    HW2 3642   3.176   2.412   1.543  0.4046  0.0995 -0.1223
    1SOL    HW3 3643   3.029   2.417   1.511  0.3808 -0.9976 -0.1831
    1SOL    MW4 3644   3.105   2.457   1.521  0.1116 -0.4518 -0.3035
    1SOL     OW 3645   3.115   2.717   1.614 -0.3365  0.1348 -0.5354
    1SOL    HW2 3646   3.189   2.761   1.573  0.6573  0.8444  1.9153
    1SOL    HW3 3647   3.122   2.626   1.585  1.7537  0.1082 -0.0101
    1SOL    MW4 3648   3.126   2.711   1.605  0.0703  0.2248 -0.1427
    1SOL     OW 3649   3.344   2.876   1.508  0.0636 -0.5085 -0.0565
    1SOL    HW2 3650   3.326   2.965   1.539  1.1442 -0.0886 -0.6124
    1SOL    HW3 3651   3.348   2.883   1.413  0.5688 -1.0747 -0.0807
    1SOL    MW4 3652   3.342   2.889   1.500  0.2728 -0.5276 -0.1329
    1SOL     OW 3653   3.303   3.158   1.606 -0.1302 -0.7269  0.0447
    1SOL    HW2 3654   3.312   3.148   1.700  1.8418  0.4496  0.0128
    1SOL    HW3 3655   3.377   3.214   1.580 -1.5365  0.2816 -1.9713
    1SOL    MW4 3656   3.314   3.164   1.615 -0.0558 -0.4387 -0.2255
    1SOL     OW 3657   3.092   3.266   1.480 -0.7339  0.7571  0.1367
    1SOL    HW2 3658   3.174   3.224   1.509 -0.3987  0.6337 -0.9723
    1SOL    HW3 3659   3.088   3.248   1.386 -2.5042 -0.0164  0.3422
    1SOL    MW4 3660   3.103   3.258   1.472 -0.9229  0.6387  0.0173
    1SOL     OW 3661   3.127   3.510   1.579  0.4278 -0.0572  0.6431
    1SOL    HW2 3662   3.099   3.421   1.557  0.4357 -0.2899  1.5318
    1SOL    HW3 3663   3.139   3.508   1.674  0.0458  0.9993  0.7189
    1SOL    MW4 3664   3.125   3.498   1.589  0.3784  0.0513  0.7703
    1SOL     OW 3665   3.362   3.639   1.496  0.3324  0.6014 -0.0870
    1SOL    HW2 3666   3.436   3.590   1.532  0.8546  0.3077 -1.5206
    1SOL    HW3 3667   3.286   3.585   1.514  0.7581 -0.1823 -0.6077
    1SOL    MW4 3668   3.362   3.625   1.503  0.4575  0.4592 -0.3448
    1SOL     OW 3669   3.378   3.875   1.635 -0.5386 -0.2227 -0.8581
    1SOL    HW2 3670   3.299   3.923   1.612 -0.0940 -0.0082 -1.9404
    1SOL    HW3 3671   3.371   3.792   1.588  0.8745  0.6500 -2.6566
    1SOL    MW4 3672   3.367   3.871   1.626 -0.2937 -0.0792 -1.2381
    1SOL     OW 3673   3.125   3.987   1.552 -0.4209  0.1155 -0.2349
    1SOL    HW2 3674   3.133   4.075   1.589  1.1476 -0.6581  1.3206
    1SOL    HW3 3675   3.054   3.946   1.601 -1.4987  0.6749 -1.3109
    1SOL    MW4 3676   3.117   3.993   1.563 -0.3560  0.0875 -0.1717
    1SOL     OW 3677   3.142   4.248   1.627  0.2400  0.2555 -0.1526
    1SOL    HW2 3678   3.153   4.257   1.722 -0.2919 -1.3810  0.0878
    1SOL    HW3 3679   3.064   4.299   1.607 -0.4118 -0.4608  0.5140
    1SOL    MW4 3680   3.133   4.256   1.637  0.0839 -0.0548 -0.0329
    1SOL     OW 3681   3.360   4.354   1.516  0.1286  0.2605  0.4587
    1SOL    HW2 3682   3.275   4.319   1.541 -1.0473  2.4987 -0.1832
    1SOL    HW3 3683   3.353   4.369   1.422  0.8533  1.3817  0.5610
    1SOL    MW4 3684   3.348   4.352   1.507  0.0694  0.7043  0.3873
    1SOL     OW 3685   3.816   0.011   1.616  0.3926  0.2035 -0.3789
    1SOL    HW2 3686   3.818  -0.001   1.711 -0.6646  0.9933 -0.2421
    1SOL    HW3 3687   3.900   0.052   1.595 -0.7570  3.2944  0.7111
    1SOL    MW4 3688   3.827   0.015   1.626  0.1016  0.7157 -0.2170
    1SOL     OW 3689   3.555   0.092   1.513 -0.3498  0.9597  0.1694
    1SOL    HW2 3690   3.642   0.066   1.543 -0.2642  1.9331  0.7964
    1SOL    HW3 3691   3.568   0.123   1.424 -0.1261  0.6829  0.1048
    1SOL    MW4 3692   3.568   0.092   1.505 -0.3092  1.0516  0.2437
    1SOL     OW 3693   3.586   0.379   1.622 -0.1498 -0.0251  0.2799
    1SOL    HW2 3694   3.563   0.290   1.594 -0.7889 -0.0032  0.7246
    1SOL    HW3 3695   3.518   0.434   1.583  0.5720  0.3403 -0.4736
    1SOL    MW4 3696   3.574   0.374   1.613 -0.1388  0.0260  0.2391
    1SOL     OW 3697   3.810   0.488   1.501  0.3253  0.6136 -0.3138
    1SOL    HW2 3698   3.733   0.441   1.534  1.8362 -2.1292 -0.4901
    1SOL    HW3 3699   3.802   0.485   1.406  0.3889  0.7370 -0.3225
    1SOL    MW4 3700   3.799   0.481   1.493  0.5331  0.2680 -0.3382
    1SOL     OW 3701   3.868   0.744   1.585  0.0879 -0.7099  0.4833
    1SOL    HW2 3702   3.788   0.786   1.552  1.1774  0.4712 -0.6956
    1SOL    HW3 3703   3.862   0.653   1.556  0.8444  0.2065 -2.7154
    1SOL    MW4 3704   3.856   0.738   1.577  0.3316 -0.4332 -0.0943
    1SOL     OW 3705   3.644   0.903   1.521 -0.3612  0.4029  0.5847
    1SOL    HW2 3706   3.565   0.864   1.558  0.3782 -0.8695  0.8270
    1SOL    HW3 3707   3.622   0.917   1.429 -0.2769 -1.5626  0.2527
    1SOL    MW4 3708   3.631   0.900   1.514 -0.2525 -0.0243  0.5729
    1SOL     OW 3709   3.638   1.181   1.611  0.7959 -0.4820 -0.0094
    1SOL    HW2 3710   3.700   1.235   1.563 -0.3652 -0.0963 -1.0980
    1SOL    HW3 3711   3.652   1.092   1.578  1.3559 -0.5299  0.3622
    1SOL    MW4 3712   3.648   1.176   1.600  0.7164 -0.4375 -0.1038
    1SOL     OW 3713   3.858   1.311   1.451 -0.2712  0.0656  0.2792
    1SOL    HW2 3714   3.934   1.277   1.499 -0.6103  0.5757  1.1820
    1SOL    HW3 3715   3.844   1.399   1.487 -0.5989  0.4107 -0.6789
    1SOL    MW4 3716   3.866   1.318   1.462 -0.3593  0.1785  0.2717
    1SOL     OW 3717   3.826   1.548   1.580 -0.0153  0.4936  0.0766
    1SOL    HW2 3718   3.846   1.542   1.673 -1.4918  0.6844  0.4168
    1SOL    HW3 3719   3.750   1.606   1.576 -0.1186  0.2759 -1.2262
    1SOL    MW4 3720   3.819   1.555   1.592 -0.2236  0.4901 -0.0504
    1SOL     OW 3721   3.613   1.718   1.508  0.1828 -0.0397  0.0557
    1SOL    HW2 3722   3.527   1.695   1.543 -0.3481  1.3440 -0.3055
    1SOL    HW3 3723   3.608   1.695   1.415  0.2398 -0.0633  0.0586
    1SOL    MW4 3724   3.601   1.712   1.500  0.1202  0.1396  0.0085
    1SOL     OW 3725   3.656   1.971   1.615 -0.4679 -0.2004  0.0455
    1SOL    HW2 3726   3.652   1.893   1.559 -1.1150 -1.4257  1.7701
    1SOL    HW3 3727   3.572   2.015   1.601 -0.4140 -0.2166 -0.3363
    1SOL    MW4 3728   3.644   1.967   1.606 -0.5460 -0.3643  0.2226
    1SOL     OW 3729   3.869   2.108   1.513 -0.1136 -0.5630 -0.1568
    1SOL    HW2 3730   3.840   2.197   1.535  0.1246 -0.4688 -0.2209
    1SOL    HW3 3731   3.798   2.052   1.543  0.1188 -0.4185  0.6782
    1SOL    MW4 3732   3.856   2.113   1.520 -0.0513 -0.5314 -0.0551
    1SOL     OW 3733   3.779   2.362   1.607 -0.1924  0.0555  0.0889
    1SOL    HW2 3734   3.772   2.361   1.703 -0.7413 -1.0137  0.0380
    1SOL    HW3 3735   3.858   2.414   1.590 -0.2098  0.4305  1.1123
    1SOL    MW4 3736   3.789   2.369   1.618 -0.2673 -0.0360  0.2172
    1SOL     OW 3737   3.555   2.481   1.530  0.1568 -0.2193  1.1164
    1SOL    HW2 3738   3.557   2.574   1.556 -0.6287 -0.0484  0.5812
    1SOL    HW3 3739   3.636   2.445   1.566  0.3528  0.6206  1.5426
    1SOL    MW4 3740   3.566   2.489   1.538  0.0789 -0.0858  1.1020
    1SOL     OW 3741   3.554   2.736   1.622  0.0207  0.3328 -0.2813
    1SOL    HW2 3742   3.550   2.738   1.717 -0.5981  1.5348 -0.3213
    1SOL    HW3 3743   3.472   2.778   1.594  0.0780 -0.2490 -1.3429
    1SOL    MW4 3744   3.542   2.742   1.631 -0.0534  0.4146 -0.4267
    1SOL     OW 3745   3.766   2.881   1.531  0.4007 -0.8040  0.0464
    1SOL    HW2 3746   3.847   2.838   1.558  0.5928 -0.0480  0.6747
    1SOL    HW3 3747   3.697   2.829   1.572  0.6051 -0.8705  0.3078
    1SOL    MW4 3748   3.767   2.868   1.540  0.4530 -0.7131  0.1637
    1SOL     OW 3749   3.772   3.128   1.611  0.1441  0.1396 -0.0708
    1SOL    HW2 3750   3.850   3.163   1.567 -1.5992  0.1384 -3.2749
    1SOL    HW3 3751   3.767   3.037   1.581 -0.2039 -0.3485  1.4237
    1SOL    MW4 3752   3.782   3.120   1.601 -0.1316  0.0749 -0.2964
    1SOL     OW 3753   3.556   3.256   1.503  0.5592 -0.0009 -0.6008
    1SOL    HW2 3754   3.633   3.216   1.542 -0.0411 -0.9826 -0.4021
    1SOL    HW3 3755   3.563   3.236   1.410  0.2450 -0.6220 -0.4982
    1SOL    MW4 3756   3.567   3.248   1.496  0.4387 -0.2124 -0.5610
    1SOL     OW 3757   3.575   3.519   1.626 -0.3807 -0.0065 -0.0482
    1SOL    HW2 3758   3.658   3.546   1.586 -0.8752  1.5523 -0.0836
    1SOL    HW3 3759   3.565   3.427   1.603  1.7410 -0.4252  0.6343
    1SOL    MW4 3760   3.585   3.511   1.618 -0.1662  0.1442  0.0373
    1SOL     OW 3761   3.793   3.619   1.494 -0.7010 -0.5234  0.5049
    1SOL    HW2 3762   3.859   3.569   1.542  1.1647  0.3590 -1.0819
    1SOL    HW3 3763   3.796   3.706   1.533  0.7497  0.1675 -1.0804
    1SOL    MW4 3764   3.802   3.624   1.506 -0.2635 -0.3159  0.0863
    1SOL     OW 3765   3.794   3.871   1.610  0.0645 -0.0990 -0.5325
    1SOL    HW2 3766   3.878   3.910   1.585  0.2436 -0.6537 -0.7994
    1SOL    HW3 3767   3.729   3.922   1.562  0.3088 -0.2273 -1.0015
    1SOL    MW4 3768   3.797   3.883   1.600  0.1202 -0.1888 -0.6295
    1SOL     OW 3769   3.574   4.012   1.504  0.1982  0.2187 -0.2516
    1SOL    HW2 3770   3.593   4.089   1.558  0.5773 -0.9281  1.2663
    1SOL    HW3 3771   3.515   3.959   1.557  0.6077 -0.9385 -0.9457
    1SOL    MW4 3772   3.569   4.015   1.518  0.3018 -0.0849 -0.1429
    1SOL     OW 3773   3.596   4.265   1.632  0.1281  0.1963 -0.6917
    1SOL    HW2 3774   3.581   4.252   1.726 -0.1699 -1.7577 -0.9850
    1SOL    HW3 3775   3.516   4.306   1.600  0.4827  1.4707  0.0073
    1SOL    MW4 3776   3.583   4.268   1.640  0.1354  0.1059 -0.6382
    1SOL     OW 3777   3.828   4.400   1.558 -0.1941  0.3971  0.0986
    1SOL    HW2 3778   3.745   4.371   1.596  0.2567 -1.4187 -0.2619
    1SOL    HW3 3779   3.833   4.494   1.579 -1.3769  0.0804  1.8667
    1SOL    MW4 3780   3.818   4.409   1.566 -0.2906  0.1163  0.2842
    1SOL     OW 3781   4.311   4.656   1.627  0.5691 -0.1439 -0.2704
    1SOL    HW2 3782   4.304   4.644   1.721 -2.7179 -0.9536 -0.5780
    1SOL    HW3 3783   4.292   4.569   1.591 -1.3559  0.8767 -1.7745
    1SOL    MW4 3784   4.308   4.643   1.634 -0.1187 -0.1161 -0.5095
    1SOL     OW 3785   4.064   0.096   1.546  0.7817 -0.7054  0.3828
    1SOL    HW2 3786   4.063   0.186   1.579 -0.4453 -0.1769 -1.0466
    1SOL    HW3 3787   4.143   0.057   1.584  0.6570  0.5872  2.0101
    1SOL    MW4 3788   4.074   0.102   1.555  0.6037 -0.4652  0.4089
    1SOL     OW 3789   4.038   0.381   1.598  0.2044 -0.0324 -0.1282
    1SOL    HW2 3790   4.021   0.387   1.692 -0.3238 -0.5971 -0.1858
    1SOL    HW3 3791   3.955   0.404   1.557  0.0533 -1.0958 -0.4368
    1SOL    MW4 3792   4.025   0.385   1.605  0.1144 -0.2472 -0.1765
    1SOL     OW 3793   4.273   0.483   1.510  0.5073  0.1393  0.0798
    1SOL    HW2 3794   4.204   0.435   1.555  0.6418 -1.0336 -0.9551
    1SOL    HW3 3795   4.354   0.456   1.554  0.4971  0.0684  0.0546
    1SOL    MW4 3796   4.275   0.473   1.522  0.5236 -0.0248 -0.0601
    1SOL     OW 3797   4.293   0.725   1.629 -0.2394 -0.2607 -0.0190
    1SOL    HW2 3798   4.267   0.643   1.587  0.8375 -0.1870 -0.8387
    1SOL    HW3 3799   4.375   0.749   1.586  0.8072 -0.1078  2.0171
    1SOL    MW4 3800   4.300   0.717   1.618  0.0410 -0.2308  0.1415
    1SOL     OW 3801   4.099   0.870   1.494  0.1235  0.3824  0.2337
    1SOL    HW2 3802   4.162   0.820   1.546  0.0089 -0.3636 -0.3317
    1SOL    HW3 3803   4.015   0.827   1.511  0.1465 -0.1057 -0.8705
    1SOL    MW4 3804   4.096   0.858   1.503  0.1111  0.2196  0.0135
    1SOL     OW 3805   4.069   1.132   1.591 -0.3083  0.5479  0.5075
    1SOL    HW2 3806   4.084   1.121   1.685 -1.9316 -0.3049  0.6939
    1SOL    HW3 3807   4.067   1.043   1.557  0.2940  0.8607 -0.3431
    1SOL    MW4 3808   4.070   1.119   1.599 -0.4430  0.4766  0.4199
    1SOL     OW 3809   4.291   1.261   1.510  0.0819 -0.0769  0.4905
    1SOL    HW2 3810   4.208   1.218   1.531 -1.5807  3.5236  1.8538
    1SOL    HW3 3811   4.358   1.199   1.538 -2.1435 -2.6302  0.3492
    1SOL    MW4 3812   4.288   1.247   1.517 -0.4311  0.0613  0.6518
    1SOL     OW 3813   4.274   1.533   1.617  0.1695 -0.0717 -0.1490
    1SOL    HW2 3814   4.273   1.443   1.584 -1.5395 -0.2281  0.2902
    1SOL    HW3 3815   4.343   1.576   1.566  0.6969 -1.4945 -0.6874
    1SOL    MW4 3816   4.283   1.527   1.606  0.0138 -0.2800 -0.1621
    1SOL     OW 3817   4.079   1.695   1.495 -0.4420 -0.4259  0.4605
    1SOL    HW2 3818   4.140   1.648   1.553  0.0239 -0.3101  0.0633
    1SOL    HW3 3819   3.992   1.667   1.524 -0.1550 -2.1488 -0.2915
    1SOL    MW4 3820   4.076   1.685   1.507 -0.3424 -0.6380  0.3089
    1SOL     OW 3821   4.067   1.965   1.627 -0.2171 -0.9938 -0.0287
    1SOL    HW2 3822   4.060   1.886   1.574 -0.0186 -1.1775  0.2238
    1SOL    HW3 3823   3.998   2.022   1.593  0.4695 -0.7696 -1.0754
    1SOL    MW4 3824   4.057   1.962   1.615 -0.1001 -0.9884 -0.1335
    1SOL     OW 3825   4.287   2.084   1.525  0.5317 -0.3421 -0.1714
    1SOL    HW2 3826   4.209   2.035   1.552 -0.2968  0.0656 -1.7462
    1SOL    HW3 3827   4.299   2.061   1.432  1.1569  1.0586 -0.4532
    1SOL    MW4 3828   4.278   2.075   1.516  0.5050 -0.1037 -0.4165
    1SOL     OW 3829   4.213   2.343   1.597  0.3626  0.3257  0.1919
    1SOL    HW2 3830   4.222   2.349   1.692 -0.9672  0.7656  0.2966
    1SOL    HW3 3831   4.248   2.257   1.575 -0.6511 -0.3685  1.2510
    1SOL    MW4 3832   4.219   2.332   1.607  0.0539  0.2921  0.3455
    1SOL     OW 3833   4.019   2.508   1.509  0.3458  0.5538  0.6145
    1SOL    HW2 3834   4.019   2.595   1.550  1.4251  0.3873  0.9813
    1SOL    HW3 3835   4.099   2.466   1.541 -0.3870 -0.7458  0.7926
    1SOL    MW4 3836   4.029   2.514   1.518  0.3915  0.3603  0.6864
    1SOL     OW 3837   4.007   2.772   1.625 -0.2682 -0.4237 -0.0211
    1SOL    HW2 3838   4.006   2.769   1.721  0.8613 -0.6032 -0.0163
    1SOL    HW3 3839   4.095   2.800   1.602 -0.2421 -1.2965 -1.0350
    1SOL    MW4 3840   4.018   2.775   1.634 -0.1159 -0.5627 -0.1543
    1SOL     OW 3841   4.272   2.839   1.537 -0.0197  0.0540 -0.6330
    1SOL    HW2 3842   4.257   2.821   1.444  1.2317  1.4095 -1.1314
    1SOL    HW3 3843   4.267   2.935   1.543  0.9045  0.0439  0.4938
    1SOL    MW4 3844   4.270   2.849   1.525  0.2670  0.2315 -0.5502
    1SOL     OW 3845   4.258   3.131   1.565  0.2953 -0.2881  0.4504
    1SOL    HW2 3846   4.270   3.136   1.660  0.0385  0.1174  0.4630
    1SOL    HW3 3847   4.340   3.166   1.529  0.0110  0.4640  0.5273
    1SOL    MW4 3848   4.271   3.137   1.573  0.2236 -0.1352  0.4622
    1SOL     OW 3849   4.024   3.246   1.488 -0.4375  0.4877  0.3747
    1SOL    HW2 3850   4.014   3.326   1.540  0.4126  0.1709  1.0390
    1SOL    HW3 3851   4.107   3.209   1.517 -0.9076 -0.7261  0.1767
    1SOL    MW4 3852   4.034   3.252   1.498 -0.3867  0.2859  0.4362
    1SOL     OW 3853   4.001   3.492   1.621  0.5587 -0.3583 -0.1220
    1SOL    HW2 3854   4.003   3.506   1.716  0.0422 -0.9266 -0.0267
    1SOL    HW3 3855   4.081   3.534   1.590  0.3593  0.4786  0.4717
    1SOL    MW4 3856   4.012   3.499   1.629  0.4640 -0.3231 -0.0311
    1SOL     OW 3857   4.231   3.591   1.531 -0.1772  0.3697  0.0317
    1SOL    HW2 3858   4.249   3.684   1.546  1.2144  0.0282  0.5161
    1SOL    HW3 3859   4.220   3.584   1.436  2.5539  0.5713 -0.3362
    1SOL    MW4 3860   4.232   3.602   1.520  0.3667  0.3514  0.0471
    1SOL     OW 3861   4.291   3.851   1.631 -0.4605 -0.1139 -0.3391
    1SOL    HW2 3862   4.211   3.887   1.594 -0.7855  0.8573  1.2476
    1SOL    HW3 3863   4.361   3.907   1.598 -0.1764 -2.0495 -3.1983
    1SOL    MW4 3864   4.290   3.863   1.622 -0.4659 -0.2410 -0.5070
    1SOL     OW 3865   4.043   3.941   1.530 -0.1310 -0.0065 -0.0509
    1SOL    HW2 3866   4.026   4.035   1.535 -3.4198 -0.4574 -1.2728
    1SOL    HW3 3867   4.059   3.925   1.437  2.2212 -0.4141  0.4014
    1SOL    MW4 3868   4.043   3.951   1.518 -0.2546 -0.1197 -0.1525
    1SOL     OW 3869   4.044   4.222   1.582 -0.1672 -0.6384 -0.1924
    1SOL    HW2 3870   4.041   4.226   1.678  0.6533 -0.7237 -0.1635
    1SOL    HW3 3871   3.967   4.272   1.554 -0.4183 -0.6249  0.5112
    1SOL    MW4 3872   4.033   4.229   1.591 -0.0925 -0.6475 -0.0958
    1SOL     OW 3873   4.255   4.391   1.541 -0.3103  0.0771  0.1526
    1SOL    HW2 3874   4.177   4.339   1.561  0.3637 -0.4719  1.4648
    1SOL    HW3 3875   4.264   4.387   1.446 -0.5064 -1.8871  0.2008
    1SOL    MW4 3876   4.246   4.384   1.531 -0.2470 -0.2542  0.3322
    1SOL     OW 3877   0.231   4.653   1.910 -0.0627  0.2510 -0.2597
    1SOL    HW2 3878   0.299   4.709   1.946  1.4509 -0.7896 -1.4337
    1SOL    HW3 3879   0.232   4.670   1.816 -0.8444 -0.4003 -0.3990
    1SOL    MW4 3880   0.240   4.663   1.903  0.0339  0.0277 -0.4328
    1SOL     OW 3881   0.001   0.103   2.015 -0.2286  0.4759 -0.0878
    1SOL    HW2 3882  -0.004   0.190   1.974 -0.9180  0.6599  0.3910
    1SOL    HW3 3883   0.080   0.064   1.977  0.5095  1.5966  0.2545
    1SOL    MW4 3884   0.011   0.109   2.004 -0.2222  0.6481  0.0207
    1SOL     OW 3885   4.471   0.345   1.882  0.2370 -0.1883 -0.6500
    1SOL    HW2 3886   4.390   0.379   1.919  0.2714 -0.8505  0.0595
    1SOL    HW3 3887   4.539   0.403   1.914  0.1621 -0.2412 -0.3945
    1SOL    MW4 3888   4.469   0.357   1.891  0.2317 -0.2827 -0.5226
    1SOL     OW 3889   0.190   0.486   1.984 -0.5890 -0.0505  0.3184
    1SOL    HW2 3890   0.276   0.445   1.974 -0.8491 -0.5313  0.0423
    1SOL    HW3 3891   0.208   0.580   1.981  0.0413 -0.1370  1.1998
    1SOL    MW4 3892   0.204   0.493   1.982 -0.5402 -0.1254  0.3984
    1SOL     OW 3893   0.253   0.736   1.907  0.0386  0.3721 -0.1326
    1SOL    HW2 3894   0.338   0.778   1.925  0.4949  0.2875 -2.0687
    1SOL    HW3 3895   0.191   0.788   1.958  1.1672  0.7754  0.8790
    1SOL    MW4 3896   0.256   0.749   1.916  0.2477  0.4143 -0.2546
    1SOL     OW 3897   0.025   0.885   1.990 -0.1557  0.4331  0.3348
    1SOL    HW2 3898  -0.047   0.842   1.942  1.2579 -3.7173  1.6952
    1SOL    HW3 3899  -0.006   0.890   2.080  0.7123 -0.1429  0.6717
    1SOL    MW4 3900   0.011   0.880   1.995  0.1450 -0.1905  0.5589
    1SOL     OW 3901   0.021   1.139   1.872 -0.2546 -0.0230  0.6399
    1SOL    HW2 3902  -0.059   1.174   1.912  0.0881  0.1728  1.1737
    1SOL    HW3 3903   0.033   1.053   1.912 -0.3425 -0.1635  0.3641
    1SOL    MW4 3904   0.012   1.133   1.883 -0.2210 -0.0156  0.6740
    1SOL     OW 3905   0.242   1.290   1.924 -0.1766 -0.7809  0.5901
    1SOL    HW2 3906   0.241   1.382   1.898  0.2739 -0.6473  1.0571
    1SOL    HW3 3907   0.153   1.259   1.905 -0.3643 -0.2198  0.5482
    1SOL    MW4 3908   0.230   1.298   1.918 -0.1419 -0.6893  0.6461
    1SOL     OW 3909   0.220   1.559   1.844 -0.2281 -0.3731 -0.2605
    1SOL    HW2 3910   0.287   1.604   1.896  0.1747 -0.8554 -0.3532
    1SOL    HW3 3911   0.137   1.593   1.877  0.0708  0.3714 -0.2748
    1SOL    MW4 3912   0.218   1.569   1.856 -0.1356 -0.3386 -0.2747
    1SOL     OW 3913   4.476   1.671   1.965  0.1597 -0.5266 -0.2737
    1SOL    HW2 3914   4.497   1.678   2.058  1.0397  2.3160 -0.6492
    1SOL    HW3 3915   4.399   1.615   1.962  0.4033 -1.0284  2.1207
    1SOL    MW4 3916   4.469   1.665   1.977  0.3080 -0.2178 -0.0074
    1SOL     OW 3917   0.021   1.951   1.891 -0.2957  0.3187  0.1441
    1SOL    HW2 3918  -0.054   2.000   1.925 -0.2744  0.6403 -0.2668
    1SOL    HW3 3919   0.003   1.860   1.916 -1.3273  0.2443 -0.8185
    1SOL    MW4 3920   0.009   1.946   1.899 -0.4289  0.3512 -0.0372
    1SOL     OW 3921   0.238   2.071   2.019 -0.2834  0.2191  0.0556
    1SOL    HW2 3922   0.220   2.156   1.979 -0.5162 -0.2655 -0.8840
    1SOL    HW3 3923   0.159   2.019   2.002  0.5949 -0.7902 -1.0239
    1SOL    MW4 3924   0.225   2.075   2.011 -0.1982  0.0222 -0.2105
    1SOL     OW 3925   0.224   2.322   1.879 -0.0683 -0.0445  0.2244
    1SOL    HW2 3926   0.290   2.382   1.913 -0.1812 -0.1221  0.5782
    1SOL    HW3 3927   0.142   2.349   1.920  0.1700 -1.5201  1.7375
    1SOL    MW4 3928   0.222   2.333   1.889 -0.0518 -0.2496  0.4706
    1SOL     OW 3929   0.011   2.445   1.997  0.2196  0.1360  0.0975
    1SOL    HW2 3930   0.024   2.435   2.091  0.1276  1.5738  0.2864
    1SOL    HW3 3931   0.001   2.540   1.985  1.6365  0.1059 -1.5267
    1SOL    MW4 3932   0.011   2.456   2.008  0.3944  0.3216 -0.0918
    1SOL     OW 3933   4.486   2.707   1.937  0.2149  0.2679 -0.1229
    1SOL    HW2 3934   4.413   2.762   1.966  0.1262 -0.5792  1.2527
    1SOL    HW3 3935   4.483   2.713   1.841 -0.5619  1.6583 -0.0299
    1SOL    MW4 3936   4.476   2.715   1.928  0.1007  0.3397  0.0709
    1SOL     OW 3937   0.236   2.849   1.988  0.0588  0.0682 -0.2371
    1SOL    HW2 3938   0.218   2.937   1.955 -0.6578  0.4229  1.0808
    1SOL    HW3 3939   0.153   2.802   1.976  0.4118 -0.4133 -0.8504
    1SOL    MW4 3940   0.223   2.854   1.982  0.0108  0.0515 -0.1441
    1SOL     OW 3941   0.212   3.111   1.896 -0.2781 -0.1066  0.3022
    1SOL    HW2 3942   0.277   3.168   1.938  0.0836 -0.7209  0.5676
    1SOL    HW3 3943   0.227   3.124   1.802 -0.5620  0.6578  0.3524
    1SOL    MW4 3944   0.222   3.120   1.889 -0.2678 -0.0868  0.3439
    1SOL     OW 3945   4.471   3.248   1.954 -0.5897 -0.3313 -0.0592
    1SOL    HW2 3946   4.390   3.205   1.927 -0.0993 -1.9043  0.9339
    1SOL    HW3 3947   4.540   3.185   1.935  0.5486  1.4356 -1.9456
    1SOL    MW4 3948   4.470   3.234   1.948 -0.3747 -0.3057 -0.1769
    1SOL     OW 3949   4.490   3.501   1.862 -0.1659  0.4076  0.4217
    1SOL    HW2 3950   4.560   3.544   1.910 -0.3879 -0.6344  1.7132
    1SOL    HW3 3951   4.489   3.412   1.895 -1.9165  0.3292  0.2459
    1SOL    MW4 3952   4.499   3.495   1.873 -0.4263  0.2601  0.5690
    1SOL     OW 3953   0.186   3.628   1.999 -0.1003  0.1142  0.0624
    1SOL    HW2 3954   0.192   3.619   2.094  0.1224 -0.2459  0.0166
    1SOL    HW3 3955   0.272   3.601   1.967 -0.1756  0.2337 -0.2410
    1SOL    MW4 3956   0.198   3.623   2.008 -0.0809  0.0827  0.0165
    1SOL     OW 3957   0.225   3.868   1.883  0.4315 -0.1106  0.7416
    1SOL    HW2 3958   0.301   3.913   1.920  1.7010 -0.6718 -1.0853
    1SOL    HW3 3959   0.231   3.779   1.915  0.1552  0.0171  1.1502
    1SOL    MW4 3960   0.236   3.862   1.892  0.5625 -0.1681  0.5546
    1SOL     OW 3961   0.010   4.003   1.997  0.2233 -0.1342  0.1811
    1SOL    HW2 3962   0.013   4.089   1.955 -0.4128 -0.2189 -0.0468
    1SOL    HW3 3963   0.065   3.948   1.942 -0.5768 -0.2361 -0.5353
    1SOL    MW4 3964   0.018   4.007   1.984  0.0339 -0.1588  0.0564
    1SOL     OW 3965   0.002   4.259   1.892  0.3023 -0.2144 -0.0735
    1SOL    HW2 3966  -0.077   4.311   1.912  0.2751 -0.1044 -0.4700
    1SOL    HW3 3967   0.072   4.305   1.938  0.1638 -0.2067  0.1318
    1SOL    MW4 3968   0.001   4.272   1.901  0.2803 -0.1988 -0.0988
    1SOL     OW 3969   0.231   4.377   2.002 -0.2749  0.2528 -0.5133
    1SOL    HW2 3970   0.195   4.381   2.091  0.2784  1.3667 -0.3366
    1SOL    HW3 3971   0.231   4.467   1.972 -1.2956 -0.2380 -1.9963
    1SOL    MW4 3972   0.227   4.389   2.010 -0.3365  0.3352 -0.6857
    1SOL     OW 3973   0.666   4.643   1.889  0.0070 -0.0626  0.1713
    1SOL    HW2 3974   0.668   4.554   1.926 -1.0802 -0.4801 -0.7253
    1SOL    HW3 3975   0.668   4.629   1.794 -1.2539  0.8344  0.0063
    1SOL    MW4 3976   0.667   4.629   1.882 -0.3028  0.0005  0.0314
    1SOL     OW 3977   0.439   0.144   1.993 -0.1360  0.0524 -0.3044
    1SOL    HW2 3978   0.457   0.238   1.981  0.4130 -0.1050 -0.7183
    1SOL    HW3 3979   0.515   0.100   1.956 -0.3832 -0.5626 -0.0882
    1SOL    MW4 3980   0.451   0.151   1.987 -0.0962 -0.0495 -0.3304
    1SOL     OW 3981   0.448   0.421   1.933 -0.1546 -0.6376 -0.5399
    1SOL    HW2 3982   0.530   0.468   1.951 -1.6893  1.8179  0.3206
    1SOL    HW3 3983   0.453   0.400   1.840  0.5948  1.2857 -0.9702
    1SOL    MW4 3984   0.460   0.425   1.923 -0.2582 -0.0599 -0.4832
    1SOL     OW 3985   0.678   0.562   1.993 -0.2169 -0.3305 -0.8564
    1SOL    HW2 3986   0.679   0.551   2.088 -0.6183  0.8011 -0.7110
    1SOL    HW3 3987   0.745   0.501   1.961 -0.1116 -0.7460  0.1482
    1SOL    MW4 3988   0.687   0.553   2.001 -0.2559 -0.2360 -0.7045
    1SOL     OW 3989   0.682   0.834   1.907  0.3274  0.0455 -0.2458
    1SOL    HW2 3990   0.772   0.867   1.904  0.3759  0.0367  0.9367
    1SOL    HW3 3991   0.690   0.745   1.942 -0.3218  0.7678  1.8118
    1SOL    MW4 3992   0.695   0.827   1.911  0.2481  0.1396  0.1816
    1SOL     OW 3993   0.457   0.931   2.013 -0.3175 -0.4137  0.3542
    1SOL    HW2 3994   0.465   1.012   1.963 -1.4982 -0.9099 -0.6639
    1SOL    HW3 3995   0.542   0.888   2.003  0.0968  0.4014  0.3697
    1SOL    MW4 3996   0.469   0.936   2.005 -0.4186 -0.3717  0.2217
    1SOL     OW 3997   0.496   1.167   1.831  0.2732  0.1847  0.0649
    1SOL    HW2 3998   0.408   1.204   1.840  1.0223  1.6317  1.8930
    1SOL    HW3 3999   0.506   1.152   1.737 -1.4669  1.1613 -0.3135
    1SOL    MW4 4000   0.485   1.170   1.820  0.1425  0.5044  0.2561
    1SOL     OW 4001   0.683   1.285   2.004 -0.3401 -0.4314 -0.5252
    1SOL    HW2 4002   0.672   1.284   2.099 -0.8761  0.5663 -0.5639
    1SOL    HW3 4003   0.609   1.234   1.971 -0.0730 -0.8980 -0.3940
    1SOL    MW4 4004   0.671   1.278   2.013 -0.3756 -0.3613 -0.5128
    1SOL     OW 4005   0.682   1.527   1.864 -0.0141  0.0042  0.0694
    1SOL    HW2 4006   0.698   1.438   1.894  0.6045  0.1161  0.0879
    1SOL    HW3 4007   0.666   1.518   1.770 -2.3070 -0.3852  0.4709
    1SOL    MW4 4008   0.682   1.514   1.856 -0.2350 -0.0324  0.1251
    1SOL     OW 4009   0.444   1.653   1.974 -0.0126  0.0535 -0.2953
    1SOL    HW2 4010   0.439   1.632   2.068  1.3833  0.8187 -0.0336
    1SOL    HW3 4011   0.518   1.601   1.942 -0.2302  0.1058 -0.8869
    1SOL    MW4 4012   0.453   1.644   1.983  0.1429  0.1614 -0.3388
    1SOL     OW 4013   0.467   1.936   1.917  0.0820  0.4092 -0.2384
    1SOL    HW2 4014   0.469   1.850   1.958  0.7297  0.6220  0.1885
    1SOL    HW3 4015   0.387   1.977   1.950  0.2007  0.2843  0.2095
    1SOL    MW4 4016   0.457   1.930   1.927  0.1831  0.4208 -0.1229
    1SOL     OW 4017   0.695   2.093   1.969  0.4486  0.3197 -0.1465
    1SOL    HW2 4018   0.632   2.031   1.932  1.6973 -0.6690 -0.6236
    1SOL    HW3 4019   0.687   2.081   2.063 -0.0663  0.1822 -0.2033
    1SOL    MW4 4020   0.685   2.083   1.976  0.5454  0.1712 -0.2168
    1SOL     OW 4021   0.658   2.359   1.888 -0.1472  0.0007 -0.3785
    1SOL    HW2 4022   0.673   2.268   1.910 -2.7559 -0.3596  0.0843
    1SOL    HW3 4023   0.661   2.362   1.792  0.7729 -0.4032 -0.3643
    1SOL    MW4 4024   0.660   2.348   1.878 -0.3700 -0.0999 -0.3155
    1SOL     OW 4025   0.422   2.483   1.983  0.0989 -0.6791 -0.4111
    1SOL    HW2 4026   0.432   2.488   2.078  1.1487 -1.1213 -0.4962
    1SOL    HW3 4027   0.502   2.440   1.952  0.2076  0.3383 -1.5831
    1SOL    MW4 4028   0.434   2.478   1.991  0.2518 -0.6032 -0.5770
    1SOL     OW 4029   0.462   2.733   1.891 -0.8579 -0.1481 -0.0502
    1SOL    HW2 4030   0.466   2.643   1.925 -1.3374  0.1259  0.7412
    1SOL    HW3 4031   0.381   2.768   1.927 -0.7766  0.5430 -0.5344
    1SOL    MW4 4032   0.452   2.726   1.900 -0.9104 -0.0207 -0.0098
    1SOL     OW 4033   0.694   2.871   1.959  0.2908  0.1042 -0.0175
    1SOL    HW2 4034   0.693   2.865   2.055 -0.5309 -1.6164 -0.1050
    1SOL    HW3 4035   0.615   2.823   1.932  0.6414  0.3946 -1.5545
    1SOL    MW4 4036   0.683   2.864   1.968  0.2287 -0.0846 -0.2317
    1SOL     OW 4037   0.662   3.134   1.926 -0.0757 -0.2866 -0.2837
    1SOL    HW2 4038   0.684   3.042   1.943 -0.4268 -0.1924  0.7070
    1SOL    HW3 4039   0.636   3.136   1.834  0.1141 -1.1450 -0.3603
    1SOL    MW4 4040   0.662   3.122   1.916 -0.0970 -0.3874 -0.1631
    1SOL     OW 4041   0.412   3.245   2.016 -0.3056  0.6089  0.3464
    1SOL    HW2 4042   0.413   3.340   2.002  0.2734  0.4811 -0.4984
    1SOL    HW3 4043   0.496   3.215   1.981  0.2334 -0.0055  2.1093
    1SOL    MW4 4044   0.423   3.254   2.010 -0.1581  0.5107  0.4675
    1SOL     OW 4045   0.425   3.520   1.926  0.1119  0.0954  0.3689
    1SOL    HW2 4046   0.507   3.555   1.962  0.6520 -0.8634  0.1019
    1SOL    HW3 4047   0.428   3.544   1.833 -0.6026  1.3245  0.6596
    1SOL    MW4 4048   0.436   3.527   1.918  0.0889  0.1311  0.3722
    1SOL     OW 4049   0.671   3.634   1.984  0.2469  0.3079  0.1405
    1SOL    HW2 4050   0.754   3.590   1.966 -0.4005 -0.9047  0.0499
    1SOL    HW3 4051   0.677   3.717   1.938  1.0584 -0.1651 -0.6185
    1SOL    MW4 4052   0.682   3.639   1.976  0.2685  0.0856  0.0284
    1SOL     OW 4053   0.691   3.893   1.858 -0.3925 -0.2569 -0.2290
    1SOL    HW2 4054   0.771   3.940   1.882  0.3612 -1.0302 -1.1746
    1SOL    HW3 4055   0.688   3.899   1.762 -1.1733 -0.7057 -0.2358
    1SOL    MW4 4056   0.702   3.900   1.848 -0.3961 -0.4182 -0.3546
    1SOL     OW 4057   0.460   3.979   1.985 -0.0652 -0.2327 -0.2682
    1SOL    HW2 4058   0.464   4.072   1.964  1.1022 -0.2671 -0.2372
    1SOL    HW3 4059   0.547   3.945   1.963 -0.6565 -1.4285 -0.8168
    1SOL    MW4 4060   0.472   3.987   1.980  0.0108 -0.3951 -0.3366
    1SOL     OW 4061   0.470   4.264   1.923  0.1181 -0.0169 -0.3424
    1SOL    HW2 4062   0.391   4.308   1.953  0.7994  0.7918  0.2703
    1SOL    HW3 4063   0.456   4.251   1.829  0.0853  1.8716 -0.6160
    1SOL    MW4 4064   0.458   4.268   1.914  0.2036  0.3386 -0.2975
    1SOL     OW 4065   0.708   4.384   1.992 -0.2060 -0.2322 -0.2057
    1SOL    HW2 4066   0.770   4.345   1.930 -0.3643 -1.5582  0.4393
    1SOL    HW3 4067   0.625   4.341   1.972 -0.1309 -1.1306  1.2980
    1SOL    MW4 4068   0.705   4.373   1.981 -0.2170 -0.5255  0.0778
    1SOL     OW 4069   1.103   0.029   1.899 -0.1697 -0.1393  0.5015
    1SOL    HW2 4070   1.184   0.067   1.936 -0.5151  0.6995  0.4145
    1SOL    HW3 4071   1.105  -0.063   1.926  0.7385 -0.0834  0.6365
    1SOL    MW4 4072   1.114   0.022   1.908 -0.0955 -0.0212  0.5080
    1SOL     OW 4073   0.877   0.128   1.996  0.0086  0.0623 -0.1091
    1SOL    HW2 4074   0.958   0.087   1.966  0.7782  0.5421  1.2755
    1SOL    HW3 4075   0.807   0.071   1.963  0.9775 -1.2164  0.0214
    1SOL    MW4 4076   0.878   0.115   1.988  0.2379 -0.0431  0.0908
    1SOL     OW 4077   0.878   0.399   1.891  0.3077 -0.1305  0.2822
    1SOL    HW2 4078   0.968   0.431   1.892  0.6956 -1.1526 -0.2964
    1SOL    HW3 4079   0.885   0.308   1.919 -0.6128 -0.0691  0.7208
    1SOL    MW4 4080   0.891   0.391   1.895  0.2374 -0.2572  0.2638
    1SOL     OW 4081   1.128   0.520   1.963  0.1386 -0.8493  0.3322
    1SOL    HW2 4082   1.197   0.463   1.929  0.6948  0.1805 -0.2792
    1SOL    HW3 4083   1.147   0.606   1.926 -2.1175 -0.7904 -0.7422
    1SOL    MW4 4084   1.139   0.524   1.954 -0.0857 -0.7057  0.1097
    1SOL     OW 4085   1.170   0.764   1.880  0.1604  0.3470 -0.3716
    1SOL    HW2 4086   1.240   0.818   1.917  0.7830 -0.5185 -0.2738
    1SOL    HW3 4087   1.090   0.799   1.919  0.7755 -0.3561  1.5853
    1SOL    MW4 4088   1.169   0.776   1.890  0.3238  0.1401 -0.1006
    1SOL     OW 4089   0.948   0.889   1.983 -0.0723 -0.4011 -0.3168
    1SOL    HW2 4090   0.937   0.894   2.078  1.3319  1.5719 -0.2171
    1SOL    HW3 4091   0.946   0.980   1.954 -0.4424 -0.9804 -2.1822
    1SOL    MW4 4092   0.946   0.902   1.992  0.0641 -0.2171 -0.5499
    1SOL     OW 4093   0.922   1.170   1.925  0.2509 -0.2110  0.0406
    1SOL    HW2 4094   0.841   1.211   1.954  0.8287  0.2878  0.9894
    1SOL    HW3 4095   0.924   1.184   1.831 -0.1504  0.8953  0.1938
    1SOL    MW4 4096   0.912   1.177   1.917  0.2742  0.0007  0.1858
    1SOL     OW 4097   1.131   1.322   1.998 -0.2614 -0.0452  0.3337
    1SOL    HW2 4098   1.130   1.401   1.944  0.5233  0.0079  0.3870
    1SOL    HW3 4099   1.048   1.279   1.980  0.0369 -0.0803 -0.9829
    1SOL    MW4 4100   1.120   1.327   1.989 -0.1185 -0.0429  0.1671
    1SOL     OW 4101   1.125   1.569   1.868  0.4066  0.1655  0.3260
    1SOL    HW2 4102   1.046   1.594   1.915  0.7213  0.6668  0.6013
    1SOL    HW3 4103   1.104   1.583   1.776  0.5447  1.3758  0.4710
    1SOL    MW4 4104   1.112   1.574   1.862  0.4665  0.3914  0.3815
    1SOL     OW 4105   0.886   1.672   1.984  0.4637 -0.1661 -0.6047
    1SOL    HW2 4106   0.895   1.760   1.948  0.0337  0.3310  0.4684
    1SOL    HW3 4107   0.804   1.639   1.949  0.6555 -0.1654 -1.0551
    1SOL    MW4 4108   0.876   1.679   1.975  0.4323 -0.1005 -0.5226
    1SOL     OW 4109   0.924   1.969   1.897 -0.0639  0.3237 -0.2230
    1SOL    HW2 4110   0.845   2.009   1.934 -0.8791 -1.0987 -0.3956
    1SOL    HW3 4111   0.913   1.976   1.802 -0.7285 -1.2476 -0.2813
    1SOL    MW4 4112   0.912   1.975   1.889 -0.2591 -0.0713 -0.2537
    1SOL     OW 4113   1.136   2.093   2.023 -0.4075  0.0227  0.0474
    1SOL    HW2 4114   1.127   2.179   1.981  0.6015  0.0217 -0.1870
    1SOL    HW3 4115   1.062   2.043   1.990 -0.0446  0.2614 -1.1867
    1SOL    MW4 4116   1.125   2.098   2.013 -0.2264  0.0539 -0.1464
    1SOL     OW 4117   1.108   2.343   1.914  0.4475  0.2621 -0.6526
    1SOL    HW2 4118   1.193   2.385   1.927 -0.1728  1.2212  0.4508
    1SOL    HW3 4119   1.103   2.329   1.820  2.2528 -0.7426 -0.6294
    1SOL    MW4 4120   1.119   2.347   1.903  0.6038  0.2558 -0.5039
    1SOL     OW 4121   0.875   2.462   2.027  0.3999 -0.3590 -0.3782
    1SOL    HW2 4122   0.949   2.416   1.986  0.1404 -0.4494 -0.7479
    1SOL    HW3 4123   0.799   2.439   1.973 -0.3851 -2.3630  1.5126
    1SOL    MW4 4124   0.875   2.453   2.015  0.2621 -0.6354 -0.1776
    1SOL     OW 4125   0.908   2.702   1.905  0.1317  0.3283 -0.5949
    1SOL    HW2 4126   0.890   2.620   1.950 -0.8854 -0.2019 -1.9363
    1SOL    HW3 4127   0.835   2.759   1.928  0.9495  0.9438  0.5127
    1SOL    MW4 4128   0.896   2.698   1.914  0.1054  0.3395 -0.6257
    1SOL     OW 4129   1.120   2.860   1.976  0.0204  0.0128 -0.2970
    1SOL    HW2 4130   1.128   2.874   2.070  1.8182 -0.7532 -0.3152
    1SOL    HW3 4131   1.044   2.803   1.967 -0.9115  1.1051  0.5932
    1SOL    MW4 4132   1.111   2.854   1.987  0.1348  0.0560 -0.1819
    1SOL     OW 4133   1.152   3.119   1.883 -0.5979  0.2703 -0.2670
    1SOL    HW2 4134   1.074   3.159   1.921 -0.1826  0.9910 -0.1668
    1SOL    HW3 4135   1.150   3.028   1.913 -1.0177  0.4744  0.3264
    1SOL    MW4 4136   1.142   3.112   1.892 -0.5985  0.3924 -0.1754
    1SOL     OW 4137   0.921   3.227   1.960  0.0556  0.3264 -0.5632
    1SOL    HW2 4138   0.913   3.243   2.054  0.8121 -1.3107 -0.1832
    1SOL    HW3 4139   0.839   3.184   1.936 -0.6370  1.8400 -0.9046
    1SOL    MW4 4140   0.909   3.223   1.969  0.0640  0.3099 -0.5583
    1SOL     OW 4141   0.906   3.493   1.905  0.2539  0.2632  0.4826
    1SOL    HW2 4142   0.902   3.403   1.937 -0.6896  0.3092  0.5168
    1SOL    HW3 4143   0.884   3.486   1.812  1.3957  0.3183  0.2022
    1SOL    MW4 4144   0.902   3.480   1.897  0.2801  0.2763  0.4503
    1SOL     OW 4145   1.129   3.628   2.010  0.2232 -0.1348  0.5124
    1SOL    HW2 4146   1.118   3.618   2.104  1.1337 -1.5153  0.4883
    1SOL    HW3 4147   1.054   3.581   1.972  0.2705 -0.2329  0.5397
    1SOL    MW4 4148   1.118   3.620   2.017  0.3495 -0.3302  0.5128
    1SOL     OW 4149   1.168   3.878   1.904  0.7482 -0.1361  0.1374
    1SOL    HW2 4150   1.130   3.797   1.938  0.6813  0.2326  0.9488
    1SOL    HW3 4151   1.150   3.875   1.810 -1.1964 -0.0228  0.4915
    1SOL    MW4 4152   1.161   3.867   1.896  0.4828 -0.0722  0.2911
    1SOL     OW 4153   0.939   4.022   1.976 -0.2044 -0.2146  0.2636
    1SOL    HW2 4154   0.903   4.012   2.064 -0.4240 -1.0305  0.0884
    1SOL    HW3 4155   1.021   3.973   1.978 -0.5317 -0.7922 -0.1714
    1SOL    MW4 4156   0.945   4.014   1.988 -0.2766 -0.3982  0.1831
    1SOL     OW 4157   0.919   4.262   1.827 -0.6533 -0.4357 -0.1697
    1SOL    HW2 4158   0.978   4.317   1.878 -1.2689  0.1863 -0.1255
    1SOL    HW3 4159   0.923   4.177   1.871 -3.2467  0.8023  2.6110
    1SOL    MW4 4160   0.927   4.258   1.840 -1.0767 -0.1898  0.2030
    1SOL     OW 4161   1.109   4.433   1.956  0.6110 -0.5279  0.4063
    1SOL    HW2 4162   1.104   4.412   2.049 -0.5837 -1.8727  0.0489
    1SOL    HW3 4163   1.185   4.384   1.924  0.4377 -0.8454  0.4786
    1SOL    MW4 4164   1.119   4.424   1.964  0.4305 -0.7472  0.3686
    1SOL     OW 4165   1.571   4.635   1.886  0.1814 -0.1533  0.1340
    1SOL    HW2 4166   1.649   4.672   1.928  0.6040 -0.6229 -0.2252
    1SOL    HW3 4167   1.574   4.542   1.908  0.2251 -0.3437 -0.6561
    1SOL    MW4 4168   1.582   4.627   1.895  0.2429 -0.2403 -0.0176
    1SOL     OW 4169   1.357   0.114   1.983 -0.6297  0.3323  0.0111
    1SOL    HW2 4170   1.355   0.125   2.078 -0.9609  0.4438 -0.0056
    1SOL    HW3 4171   1.438   0.067   1.965 -0.0891  1.1763  0.2587
    1SOL    MW4 4172   1.367   0.109   1.993 -0.6019  0.4584  0.0416
    1SOL     OW 4173   1.342   0.378   1.891 -0.1163 -0.0113 -0.3683
    1SOL    HW2 4174   1.355   0.288   1.922 -2.3559  0.1833  1.2138
    1SOL    HW3 4175   1.371   0.376   1.800  1.1973 -1.9831  0.0490
    1SOL    MW4 4176   1.348   0.366   1.883 -0.2385 -0.2458 -0.1045
    1SOL     OW 4177   1.556   0.514   2.005  0.0796 -1.1914 -0.4665
    1SOL    HW2 4178   1.642   0.479   1.981  0.2830 -1.1484  0.1871
    1SOL    HW3 4179   1.493   0.461   1.956  0.4901 -1.1014 -1.0868
    1SOL    MW4 4180   1.559   0.503   1.995  0.1606 -1.1739 -0.4622
    1SOL     OW 4181   1.563   0.764   1.900 -0.2387  0.2723 -0.3017
    1SOL    HW2 4182   1.652   0.795   1.917  0.0163 -0.8059  0.3650
    1SOL    HW3 4183   1.559   0.678   1.942 -1.5260  0.2158 -0.5237
    1SOL    MW4 4184   1.574   0.757   1.908 -0.3748  0.1225 -0.2431
    1SOL     OW 4185   1.342   0.934   1.995  0.4048 -0.2651  0.5403
    1SOL    HW2 4186   1.346   0.920   2.089  0.6575  1.0154  0.7275
    1SOL    HW3 4187   1.423   0.894   1.962  0.0274 -1.2475  0.7815
    1SOL    MW4 4188   1.354   0.926   2.003  0.3884 -0.2258  0.5968
    1SOL     OW 4189   1.347   1.190   1.913  0.6107 -0.1147 -0.2830
    1SOL    HW2 4190   1.327   1.100   1.940  0.4916 -0.4051 -1.3046
    1SOL    HW3 4191   1.266   1.238   1.925  0.6839 -0.1414  0.2972
    1SOL    MW4 4192   1.334   1.184   1.918  0.6047 -0.1565 -0.3412
    1SOL     OW 4193   1.602   1.295   1.981  0.1940 -0.2560 -0.3685
    1SOL    HW2 4194   1.590   1.383   1.946  1.5349  0.5389  1.0763
    1SOL    HW3 4195   1.514   1.258   1.984 -0.3896  1.0483 -0.9648
    1SOL    MW4 4196   1.589   1.302   1.977  0.2939  0.0211 -0.2565
    1SOL     OW 4197   1.584   1.563   1.869  0.0269  0.1391 -0.4484
    1SOL    HW2 4198   1.657   1.607   1.913 -0.6319  1.2302 -0.4343
    1SOL    HW3 4199   1.506   1.603   1.907 -0.5746 -0.4494 -1.0549
    1SOL    MW4 4200   1.584   1.574   1.880 -0.1394  0.2053 -0.5264
    1SOL     OW 4201   1.376   1.697   1.988  0.6230  0.2565  0.4349
    1SOL    HW2 4202   1.383   1.690   2.083 -0.8513 -0.4957  0.5014
    1SOL    HW3 4203   1.299   1.645   1.965  1.5393 -0.4181 -1.2769
    1SOL    MW4 4204   1.367   1.689   1.997  0.5493  0.0682  0.2177
    1SOL     OW 4205   1.345   1.970   1.881 -0.0268  0.5606  0.0646
    1SOL    HW2 4206   1.354   1.887   1.928  0.7717  1.4433  1.5059
    1SOL    HW3 4207   1.269   2.013   1.922 -1.4315 -0.1322 -1.7427
    1SOL    MW4 4208   1.336   1.965   1.893 -0.1068  0.5857  0.0162
    1SOL     OW 4209   1.578   2.079   2.005  0.2254 -0.4121  0.1350
    1SOL    HW2 4210   1.574   2.172   1.983  0.0874 -0.1954  1.0196
    1SOL    HW3 4211   1.502   2.041   1.961  0.0422 -0.0253  0.1150
    1SOL    MW4 4212   1.567   2.086   1.997  0.1831 -0.3326  0.2489
    1SOL     OW 4213   1.559   2.346   1.933 -0.0836  0.7951 -0.2583
    1SOL    HW2 4214   1.627   2.409   1.957 -0.5312  1.4581 -0.6804
    1SOL    HW3 4215   1.545   2.361   1.839 -1.7592  1.6326  0.0901
    1SOL    MW4 4216   1.566   2.357   1.924 -0.3637  0.9928 -0.2680
    1SOL     OW 4217   1.332   2.487   1.996  0.3315  0.3192  0.2821
    1SOL    HW2 4218   1.348   2.575   1.962 -0.2177  0.8873  1.4514
    1SOL    HW3 4219   1.414   2.440   1.980  0.6369  1.0425 -0.3417
    1SOL    MW4 4220   1.345   2.493   1.989  0.2993  0.4895  0.3541
    1SOL     OW 4221   1.345   2.737   1.867  0.3792 -0.0781  0.2850
    1SOL    HW2 4222   1.267   2.788   1.891  0.9786  0.7806  0.4378
    1SOL    HW3 4223   1.351   2.745   1.772 -0.8256 -1.7725  0.0511
    1SOL    MW4 4224   1.335   2.745   1.858  0.2993 -0.1886  0.2743
    1SOL     OW 4225   1.573   2.909   1.953 -0.3734  0.5248 -0.0125
    1SOL    HW2 4226   1.645   2.863   1.909 -1.3729 -0.2672 -0.8442
    1SOL    HW3 4227   1.498   2.852   1.942 -1.8834  2.7596 -1.8810
    1SOL    MW4 4228   1.573   2.896   1.945 -0.7045  0.7150 -0.3688
    1SOL     OW 4229   1.545   3.160   1.848 -0.0000 -0.2059 -0.3557
    1SOL    HW2 4230   1.555   3.073   1.888 -0.5859  0.4802  1.3195
    1SOL    HW3 4231   1.539   3.142   1.754 -0.5123 -2.0263 -0.0036
    1SOL    MW4 4232   1.545   3.146   1.840 -0.1448 -0.3555 -0.0883
    1SOL     OW 4233   1.345   3.263   2.021  0.1348  0.0272 -0.1998
    1SOL    HW2 4234   1.425   3.251   1.970  0.3921  1.5618 -0.1778
    1SOL    HW3 4235   1.280   3.206   1.978  0.7432  0.1743 -1.3343
    1SOL    MW4 4236   1.347   3.254   2.008  0.2490  0.2494 -0.3467
    1SOL     OW 4237   1.363   3.527   1.908 -0.1725  0.2255 -0.0372
    1SOL    HW2 4238   1.367   3.435   1.933 -2.5583  0.0260 -0.2189
    1SOL    HW3 4239   1.278   3.557   1.940  0.3096  2.2004 -0.5154
    1SOL    MW4 4240   1.352   3.519   1.915 -0.4236  0.4599 -0.1242
    1SOL     OW 4241   1.621   3.663   2.017  0.0419  0.4531  0.1008
    1SOL    HW2 4242   1.608   3.646   2.111 -1.1566  0.1086 -0.1193
    1SOL    HW3 4243   1.543   3.626   1.975  1.2550 -0.7099 -1.1765
    1SOL    MW4 4244   1.609   3.656   2.024  0.0437  0.2539 -0.0968
    1SOL     OW 4245   1.612   3.912   1.929 -0.1797  0.2082  0.0539
    1SOL    HW2 4246   1.683   3.952   1.979 -0.0915  1.0285 -0.7231
    1SOL    HW3 4247   1.614   3.819   1.954  0.9546  0.2926  0.2878
    1SOL    MW4 4248   1.622   3.905   1.939 -0.0185  0.3276 -0.0178
    1SOL     OW 4249   1.364   4.012   2.027 -0.1086 -0.4283 -0.3883
    1SOL    HW2 4250   1.448   3.984   1.992 -0.4869  0.1080 -1.7252
    1SOL    HW3 4251   1.299   3.957   1.982 -0.4998 -0.7246  0.5093
    1SOL    MW4 4252   1.366   4.001   2.017 -0.2102 -0.3967 -0.4463
    1SOL     OW 4253   1.319   4.257   1.919 -0.1670  0.0348 -0.2810
    1SOL    HW2 4254   1.300   4.168   1.948 -0.7466  0.4712  0.7217
    1SOL    HW3 4255   1.337   4.249   1.825  0.7004 -1.2634 -0.0106
    1SOL    MW4 4256   1.319   4.244   1.910 -0.1291 -0.0792 -0.1129
    1SOL     OW 4257   1.577   4.364   1.972 -0.1502  0.1889 -0.6885
    1SOL    HW2 4258   1.588   4.372   2.066  0.6500  0.3422 -0.7958
    1SOL    HW3 4259   1.492   4.321   1.961 -0.8923  1.4516  0.0685
    1SOL    MW4 4260   1.567   4.359   1.983 -0.1425  0.3757 -0.6028
    1SOL     OW 4261   2.013   4.662   1.907 -0.0507  0.2093 -0.3555
    1SOL    HW2 4262   2.083   4.710   1.950 -0.7551  1.1385 -0.2356
    1SOL    HW3 4263   2.019   4.574   1.944  0.0431  0.7041  0.8395
    1SOL    MW4 4264   2.023   4.657   1.917 -0.1314  0.3972 -0.1819
    1SOL     OW 4265   1.774   0.120   1.981 -0.1097 -0.7454 -0.3213
    1SOL    HW2 4266   1.784   0.099   2.074  0.6033 -0.3279 -0.3026
    1SOL    HW3 4267   1.850   0.080   1.939 -0.6763 -1.3379 -0.7945
    1SOL    MW4 4268   1.785   0.112   1.988 -0.0905 -0.7684 -0.3811
    1SOL     OW 4269   1.784   0.393   1.889 -0.1578  0.1526  0.2278
    1SOL    HW2 4270   1.785   0.302   1.919 -1.0022  0.2915  0.6969
    1SOL    HW3 4271   1.784   0.386   1.793  1.5487 -0.3058  0.2464
    1SOL    MW4 4272   1.784   0.380   1.880 -0.0440  0.1104  0.2922
    1SOL     OW 4273   2.028   0.488   1.968  0.3907  0.2549  0.3814
    1SOL    HW2 4274   2.028   0.581   1.947  0.3796  0.6076  1.9079
    1SOL    HW3 4275   1.945   0.456   1.934  0.1022  0.9337  0.4428
    1SOL    MW4 4276   2.017   0.496   1.961  0.3512  0.3910  0.5907
    1SOL     OW 4277   2.032   0.743   1.909  0.2118 -0.4056  0.0478
    1SOL    HW2 4278   2.076   0.815   1.954  2.0803 -2.1117  1.0286
    1SOL    HW3 4279   2.064   0.748   1.819  0.9895 -0.5131  0.3169
    1SOL    MW4 4280   2.042   0.753   1.903  0.5608 -0.6449  0.2128
    1SOL     OW 4281   1.803   0.905   1.972  0.4079 -0.8343 -0.2014
    1SOL    HW2 4282   1.806   0.987   1.922  0.2903 -1.2991 -0.9802
    1SOL    HW3 4283   1.879   0.855   1.940  0.6551 -0.9051  0.4923
    1SOL    MW4 4284   1.814   0.909   1.961  0.4250 -0.9050 -0.2127
    1SOL     OW 4285   1.814   1.158   1.853 -0.4066 -0.2304  0.1551
    1SOL    HW2 4286   1.740   1.210   1.885  1.1435  1.1217  1.6598
    1SOL    HW3 4287   1.891   1.211   1.874  1.0215 -1.7771 -1.0548
    1SOL    MW4 4288   1.814   1.172   1.860 -0.0138 -0.2562  0.1940
    1SOL     OW 4289   2.021   1.297   1.967 -0.1425  0.1305 -0.3863
    1SOL    HW2 4290   2.108   1.261   1.947  0.8678  1.9959  0.5124
    1SOL    HW3 4291   2.022   1.311   2.062 -0.9467  1.3967 -0.5520
    1SOL    MW4 4292   2.033   1.294   1.977 -0.1152  0.5438 -0.2897
    1SOL     OW 4293   2.009   1.543   1.860 -0.5024  0.2158  0.3008
    1SOL    HW2 4294   1.998   1.541   1.765 -0.5650  1.7664  0.2661
    1SOL    HW3 4295   2.011   1.451   1.886  0.4590 -0.2365 -1.3157
    1SOL    MW4 4296   2.008   1.531   1.851 -0.3839  0.3606  0.0830
    1SOL     OW 4297   1.811   1.692   1.995  0.1270 -0.2201 -0.0591
    1SOL    HW2 4298   1.818   1.782   1.963  1.7375  0.2744  1.5363
    1SOL    HW3 4299   1.883   1.646   1.953 -0.6313 -0.7550 -0.7894
    1SOL    MW4 4300   1.821   1.698   1.986  0.2394 -0.2255  0.0550
    1SOL     OW 4301   1.815   1.960   1.920  0.1624  0.7437  0.2152
    1SOL    HW2 4302   1.734   2.008   1.942 -0.7706 -1.0298  0.7836
    1SOL    HW3 4303   1.816   1.958   1.825 -1.5524 -0.9559  0.2033
    1SOL    MW4 4304   1.804   1.966   1.911 -0.1870  0.2855  0.2887
    1SOL     OW 4305   2.040   2.113   1.957  0.5692  0.0226 -0.5648
    1SOL    HW2 4306   2.113   2.055   1.935  0.1974  0.2477 -2.4312
    1SOL    HW3 4307   1.962   2.063   1.936  0.1644 -0.1219  1.2083
    1SOL    MW4 4308   2.039   2.099   1.952  0.4668  0.0334 -0.5772
    1SOL     OW 4309   2.007   2.364   1.848 -0.2231  0.5244  0.5160
    1SOL    HW2 4310   2.095   2.402   1.853  0.3101 -0.1914 -2.4761
    1SOL    HW3 4311   2.016   2.276   1.885  0.4850  0.1952 -0.4329
    1SOL    MW4 4312   2.020   2.358   1.854 -0.0594  0.3865 -0.0038
    1SOL     OW 4313   1.799   2.506   1.978  0.0075 -0.2339 -0.0213
    1SOL    HW2 4314   1.798   2.492   2.072 -0.2317 -0.7485 -0.0997
    1SOL    HW3 4315   1.865   2.445   1.945 -0.5881 -0.7334 -0.2937
    1SOL    MW4 4316   1.808   2.496   1.986 -0.1026 -0.3676 -0.0675
    1SOL     OW 4317   1.762   2.744   1.829  0.6900  0.0686  0.3125
    1SOL    HW2 4318   1.794   2.669   1.879 -1.0731 -1.2589 -0.4905
    1SOL    HW3 4319   1.765   2.716   1.738  0.3019  1.0945 -0.0274
    1SOL    MW4 4320   1.767   2.731   1.823  0.4060  0.0291  0.1618
    1SOL     OW 4321   1.960   2.864   1.970 -0.0942  0.3715 -0.2763
    1SOL    HW2 4322   1.956   2.846   2.063 -0.0141  0.4750 -0.2522
    1SOL    HW3 4323   1.885   2.817   1.933  1.7540 -2.3622 -0.6308
    1SOL    MW4 4324   1.950   2.856   1.977  0.1601  0.0246 -0.3198
    1SOL     OW 4325   1.984   3.104   1.823  0.6350  0.0936 -0.5305
    1SOL    HW2 4326   1.926   3.163   1.871  1.7646  0.1556  0.7995
    1SOL    HW3 4327   1.974   3.020   1.868  0.4789 -0.2554 -1.2136
    1SOL    MW4 4328   1.975   3.101   1.835  0.7634  0.0560 -0.4452
    1SOL     OW 4329   1.791   3.260   1.956 -0.1450  0.4599  0.2957
    1SOL    HW2 4330   1.702   3.238   1.927 -0.1859 -0.2076  0.9127
    1SOL    HW3 4331   1.789   3.244   2.050  1.1169 -1.2234  0.0629
    1SOL    MW4 4332   1.779   3.255   1.964  0.0160  0.1495  0.3464
    1SOL     OW 4333   1.845   3.542   1.917 -0.2425  0.0983 -0.3969
    1SOL    HW2 4334   1.823   3.456   1.953  1.4139 -0.0749  0.2504
    1SOL    HW3 4335   1.767   3.595   1.935 -1.7527 -1.5585 -1.8894
    1SOL    MW4 4336   1.832   3.538   1.924 -0.2232 -0.1435 -0.5085
    1SOL     OW 4337   2.098   3.637   1.983  0.8864 -0.1982  0.8784
    1SOL    HW2 4338   2.084   3.731   1.972  1.0653 -0.2785 -0.0644
    1SOL    HW3 4339   2.012   3.598   1.966  1.3424 -0.3855 -1.0816
    1SOL    MW4 4340   2.084   3.644   1.979  0.9704 -0.2337  0.4953
    1SOL     OW 4341   2.054   3.896   1.915 -0.1694 -0.3027 -0.2378
    1SOL    HW2 4342   2.132   3.945   1.942 -1.5730  1.9768 -0.1455
    1SOL    HW3 4343   2.054   3.903   1.819 -0.7707  0.5217 -0.1791
    1SOL    MW4 4344   2.064   3.904   1.906 -0.4342  0.1066 -0.2178
    1SOL     OW 4345   1.856   4.036   2.049  0.0786 -0.3258  0.0531
    1SOL    HW2 4346   1.846   4.113   1.993  1.3009  0.2592  0.6278
    1SOL    HW3 4347   1.923   3.983   2.006  1.6307  0.5305  1.3857
    1SOL    MW4 4348   1.864   4.039   2.036  0.4447 -0.1354  0.3049
    1SOL     OW 4349   1.821   4.268   1.881 -0.5184 -0.3000  0.2891
    1SOL    HW2 4350   1.737   4.304   1.911 -1.1044  0.1523 -1.7852
    1SOL    HW3 4351   1.820   4.282   1.786  1.2158 -1.7459  0.0350
    1SOL    MW4 4352   1.810   4.274   1.872 -0.3668 -0.4311 -0.0181
    1SOL     OW 4353   2.025   4.400   2.023 -0.1711 -0.4185 -0.0486
    1SOL    HW2 4354   2.107   4.356   2.002 -0.2659 -0.9550  0.6848
    1SOL    HW3 4355   1.960   4.359   1.966 -0.0697 -0.5174 -0.0927
    1SOL    MW4 4356   2.027   4.389   2.013 -0.1702 -0.5026  0.0422
    1SOL     OW 4357   2.461   0.026   1.901  0.2921 -0.2779 -0.1243
    1SOL    HW2 4358   2.541   0.071   1.928  0.6189  0.5120 -2.2305
    1SOL    HW3 4359   2.466  -0.060   1.942  1.6812  0.1590  0.6679
    1SOL    MW4 4360   2.472   0.021   1.910  0.5186 -0.1161 -0.2977
    1SOL     OW 4361   2.239   0.130   2.022 -0.5892 -0.0455  0.2142
    1SOL    HW2 4362   2.270   0.127   2.113  0.0980 -1.2468 -0.0526
    1SOL    HW3 4363   2.306   0.084   1.972 -1.9913 -1.2444 -0.6076
    1SOL    MW4 4364   2.252   0.124   2.027 -0.6835 -0.3622  0.0706
    1SOL     OW 4365   2.276   0.379   1.922 -0.6900  0.2078  0.4451
    1SOL    HW2 4366   2.275   0.289   1.955 -1.2444 -0.3188 -0.9653
    1SOL    HW3 4367   2.188   0.412   1.938 -0.8755  0.0471 -0.2123
    1SOL    MW4 4368   2.265   0.372   1.928 -0.7875  0.1171  0.1723
    1SOL     OW 4369   2.509   0.507   1.990 -0.6531 -0.1477  0.0027
    1SOL    HW2 4370   2.593   0.465   1.969 -0.3320  0.8334 -0.7409
    1SOL    HW3 4371   2.444   0.460   1.938 -0.4581 -0.4470  0.0301
    1SOL    MW4 4372   2.512   0.495   1.980 -0.5848 -0.0577 -0.0918
    1SOL     OW 4373   2.473   0.785   1.939 -0.1371 -0.2971  0.1054
    1SOL    HW2 4374   2.473   0.693   1.964  0.6176 -0.1283  0.7584
    1SOL    HW3 4375   2.459   0.785   1.845  0.7781 -1.1231 -0.0387
    1SOL    MW4 4376   2.471   0.773   1.930  0.0830 -0.3837  0.1726
    1SOL     OW 4377   2.236   0.911   2.009  0.1077 -0.3330 -0.2460
    1SOL    HW2 4378   2.233   0.915   2.105 -0.2760  0.5821 -0.2857
    1SOL    HW3 4379   2.313   0.858   1.989  0.9853  0.6142  0.5634
    1SOL    MW4 4380   2.246   0.905   2.019  0.1726 -0.0873 -0.1445
    1SOL     OW 4381   2.243   1.159   1.884 -0.7671 -0.6356 -0.1814
    1SOL    HW2 4382   2.234   1.072   1.924 -0.5033 -0.8998 -0.6878
    1SOL    HW3 4383   2.324   1.194   1.921 -0.9784 -0.5236  0.1747
    1SOL    MW4 4384   2.253   1.152   1.894 -0.7601 -0.6558 -0.2011
    1SOL     OW 4385   2.474   1.249   1.991  0.1209 -0.2426 -0.5456
    1SOL    HW2 4386   2.467   1.268   2.084  0.9732 -1.0189 -0.3119
    1SOL    HW3 4387   2.499   1.332   1.951  0.0247  0.0235 -0.0496
    1SOL    MW4 4388   2.476   1.262   1.998  0.2205 -0.3099 -0.4493
    1SOL     OW 4389   2.464   1.502   1.879  0.1291  0.0954  0.1192
    1SOL    HW2 4390   2.397   1.560   1.916  0.9049  1.5066 -0.6249
    1SOL    HW3 4391   2.457   1.515   1.785  0.6262 -0.7039 -0.0312
    1SOL    MW4 4392   2.454   1.511   1.872  0.2973  0.1762  0.0013
    1SOL     OW 4393   2.252   1.642   1.976 -0.4890 -0.1547 -0.2491
    1SOL    HW2 4394   2.239   1.661   2.069  0.8863 -0.9376  0.1121
    1SOL    HW3 4395   2.169   1.603   1.948 -0.3848 -1.3072  1.0200
    1SOL    MW4 4396   2.239   1.639   1.985 -0.2935 -0.4098 -0.0340
    1SOL     OW 4397   2.218   1.912   1.891 -0.1395 -0.1230 -0.0652
    1SOL    HW2 4398   2.301   1.953   1.915 -0.8596  1.3093  0.0324
    1SOL    HW3 4399   2.222   1.825   1.931  1.2920 -0.0595 -0.0346
    1SOL    MW4 4400   2.230   1.906   1.899 -0.0455  0.0743 -0.0483
    1SOL     OW 4401   2.436   2.063   1.993 -0.4528 -0.1466 -0.0358
    1SOL    HW2 4402   2.512   2.015   1.961  0.3914 -0.0119  1.7033
    1SOL    HW3 4403   2.450   2.153   1.962 -0.6552 -0.4391 -0.9759
    1SOL    MW4 4404   2.448   2.069   1.985 -0.3679 -0.1676  0.0697
    1SOL     OW 4405   2.480   2.347   1.872  0.1684 -0.3067  0.0910
    1SOL    HW2 4406   2.556   2.401   1.896  0.0712  0.7665 -1.9031
    1SOL    HW3 4407   2.406   2.391   1.913  0.4074 -0.3167  0.5316
    1SOL    MW4 4408   2.480   2.360   1.880  0.1869 -0.1664 -0.1138
    1SOL     OW 4409   2.247   2.474   1.937 -0.0523 -0.1218 -0.3136
    1SOL    HW2 4410   2.216   2.467   2.027  2.2737 -0.7275  0.4959
    1SOL    HW3 4411   2.258   2.568   1.923  0.5026 -0.0745  0.3924
    1SOL    MW4 4412   2.245   2.486   1.947  0.3278 -0.1955 -0.1136
    1SOL     OW 4413   2.221   2.751   1.888  0.1668 -0.1708  0.0537
    1SOL    HW2 4414   2.145   2.798   1.922  0.7051  0.3873  0.4850
    1SOL    HW3 4415   2.210   2.754   1.793 -0.0689  0.3747  0.0995
    1SOL    MW4 4416   2.209   2.758   1.880  0.2067 -0.0253  0.1165
    1SOL     OW 4417   2.470   2.863   1.983  0.7399  0.3628 -0.1186
    1SOL    HW2 4418   2.455   2.954   1.956 -1.5067  0.4714  1.4302
    1SOL    HW3 4419   2.395   2.815   1.950  0.4563 -0.3959  1.5717
    1SOL    MW4 4420   2.458   2.869   1.975  0.4060  0.2768  0.3089
    1SOL     OW 4421   2.446   3.140   1.912 -0.0747  0.0900 -0.0436
    1SOL    HW2 4422   2.367   3.169   1.956 -0.1248  1.9216 -1.3177
    1SOL    HW3 4423   2.428   3.150   1.819  2.0845  1.7333 -0.3208
    1SOL    MW4 4424   2.433   3.145   1.906  0.2038  0.5486 -0.2483
    1SOL     OW 4425   2.199   3.232   1.969  0.4951  0.2231 -0.0426
    1SOL    HW2 4426   2.170   3.216   2.059 -0.3744  1.5553 -0.0733
    1SOL    HW3 4427   2.141   3.177   1.915  0.4371  0.0958  0.1497
    1SOL    MW4 4428   2.187   3.223   1.974  0.3729  0.3819 -0.0212
    1SOL     OW 4429   2.279   3.460   1.850  0.3676  0.2219  0.0848
    1SOL    HW2 4430   2.246   3.378   1.888 -0.5229 -0.3671 -1.8250
    1SOL    HW3 4431   2.227   3.528   1.891  0.1292 -0.3031  0.6640
    1SOL    MW4 4432   2.267   3.458   1.860  0.2186  0.0749 -0.0907
    1SOL     OW 4433   2.490   3.579   1.986 -0.3415 -0.2494  0.2201
    1SOL    HW2 4434   2.485   3.581   2.082 -1.1969  0.7807  0.1605
    1SOL    HW3 4435   2.402   3.554   1.958  0.5364 -2.9478 -0.2398
    1SOL    MW4 4436   2.478   3.576   1.995 -0.3386 -0.4694  0.1515
    1SOL     OW 4437   2.472   3.855   1.923  0.1543 -1.0403 -0.2153
    1SOL    HW2 4438   2.389   3.896   1.947 -0.2042 -1.7871 -0.1595
    1SOL    HW3 4439   2.465   3.765   1.955  1.2291 -0.9464  0.3214
    1SOL    MW4 4440   2.460   3.849   1.930  0.2487 -1.1265 -0.1371
    1SOL     OW 4441   2.280   4.012   2.011 -0.1593 -0.4271  0.2834
    1SOL    HW2 4442   2.309   4.007   2.102 -0.0691 -0.5226  0.2503
    1SOL    HW3 4443   2.277   4.105   1.991 -1.0888 -0.3674  0.6723
    1SOL    MW4 4444   2.283   4.024   2.020 -0.2701 -0.4320  0.3302
    1SOL     OW 4445   2.265   4.284   1.955 -0.3742  0.1495  0.4979
    1SOL    HW2 4446   2.330   4.351   1.975  0.9268 -0.8216 -0.3574
    1SOL    HW3 4447   2.252   4.290   1.860 -0.6262 -0.4652  0.4904
    1SOL    MW4 4448   2.272   4.294   1.945 -0.2358 -0.0596  0.3841
    1SOL     OW 4449   2.488   4.443   1.999 -0.1547 -0.1730  0.2160
    1SOL    HW2 4450   2.503   4.433   2.093 -0.0265 -1.5826  0.0560
    1SOL    HW3 4451   2.562   4.398   1.959 -0.8774 -0.6673 -0.5660
    1SOL    MW4 4452   2.500   4.436   2.006 -0.2332 -0.4244  0.0920
    1SOL     OW 4453   2.926   0.001   1.913  0.0038  0.1431  0.1878
    1SOL    HW2 4454   2.999   0.049   1.950 -0.4136 -0.1194  1.4113
    1SOL    HW3 4455   2.931  -0.086   1.954 -1.1168  0.2000  0.4826
    1SOL    MW4 4456   2.936  -0.004   1.924 -0.1991  0.1160  0.3880
    1SOL     OW 4457   2.701   0.127   2.003 -0.1214 -0.1083 -0.2736
    1SOL    HW2 4458   2.698   0.118   2.099 -2.1695 -2.6007 -0.4954
    1SOL    HW3 4459   2.777   0.076   1.976 -1.0314 -1.5646 -0.1351
    1SOL    MW4 4460   2.710   0.119   2.012 -0.5116 -0.6293 -0.2844
    1SOL     OW 4461   2.720   0.378   1.897  0.3438  0.0806  0.0842
    1SOL    HW2 4462   2.793   0.418   1.944 -0.8983  1.2383  1.0507
    1SOL    HW3 4463   2.709   0.292   1.938  1.7205 -0.4740 -0.6638
    1SOL    MW4 4464   2.728   0.372   1.908  0.3614  0.1602  0.1129
    1SOL     OW 4465   2.906   0.508   2.043  0.3744  0.1553  0.1674
    1SOL    HW2 4466   2.987   0.479   2.002  1.2138  1.4750  0.8831
    1SOL    HW3 4467   2.900   0.601   2.022 -1.4711 -0.1341 -0.7375
    1SOL    MW4 4468   2.916   0.517   2.035  0.2415  0.2913  0.1426
    1SOL     OW 4469   2.921   0.765   1.901 -0.5276 -0.2691 -0.0445
    1SOL    HW2 4470   3.006   0.799   1.928 -0.7223 -0.6247  1.0669
    1SOL    HW3 4471   2.858   0.827   1.937 -0.7418 -0.0710 -0.7629
    1SOL    MW4 4472   2.924   0.778   1.910 -0.5817 -0.2899  0.0074
    1SOL     OW 4473   2.720   0.919   2.010 -0.2746 -0.1796  0.2514
    1SOL    HW2 4474   2.711   1.007   1.975  0.4005  0.0212  0.5666
    1SOL    HW3 4475   2.639   0.874   1.985  0.4726 -0.2589 -2.1466
    1SOL    MW4 4476   2.708   0.925   2.002 -0.0870 -0.1636 -0.0234
    1SOL     OW 4477   2.727   1.174   1.902  0.2992  0.0923  0.0941
    1SOL    HW2 4478   2.639   1.200   1.931 -0.2187 -2.1770  0.6347
    1SOL    HW3 4479   2.720   1.168   1.807 -0.2755 -0.5885  0.1763
    1SOL    MW4 4480   2.715   1.177   1.894  0.1550 -0.2968  0.1763
    1SOL     OW 4481   2.938   1.325   2.030 -0.2080 -0.3428  0.0888
    1SOL    HW2 4482   2.927   1.408   1.983 -0.4737 -0.6490 -0.3969
    1SOL    HW3 4483   2.877   1.265   1.986  1.3351 -1.3134 -0.7861
    1SOL    MW4 4484   2.928   1.328   2.018 -0.0396 -0.5113 -0.0908
    1SOL     OW 4485   2.913   1.565   1.890  0.3890  0.4927  0.4620
    1SOL    HW2 4486   2.981   1.628   1.913  0.0025  0.6908  1.0654
    1SOL    HW3 4487   2.926   1.549   1.796  2.8374 -1.3379  1.0707
    1SOL    MW4 4488   2.924   1.571   1.881  0.6609  0.2774  0.6219
    1SOL     OW 4489   2.682   1.681   1.982 -0.1977 -0.4033  0.4458
    1SOL    HW2 4490   2.763   1.646   1.945  0.0165  1.0426 -0.4736
    1SOL    HW3 4491   2.612   1.629   1.942  0.0530  0.9420 -1.7724
    1SOL    MW4 4492   2.683   1.669   1.972 -0.1364 -0.0349  0.0319
    1SOL     OW 4493   2.659   1.938   1.900  0.2720  0.0900 -0.1117
    1SOL    HW2 4494   2.740   1.984   1.922 -0.5500  1.2236  0.6690
    1SOL    HW3 4495   2.670   1.851   1.938  1.2365  0.1347 -0.2670
    1SOL    MW4 4496   2.671   1.933   1.908  0.2906  0.2456 -0.0292
    1SOL     OW 4497   2.892   2.067   1.972 -0.2451  0.7506  0.1714
    1SOL    HW2 4498   2.903   2.078   2.066 -0.5464 -1.4174  0.4939
    1SOL    HW3 4499   2.978   2.038   1.941 -0.5785 -0.1701  0.0707
    1SOL    MW4 4500   2.905   2.064   1.980 -0.3290  0.3431  0.2007
    1SOL     OW 4501   2.893   2.331   1.880 -0.3074 -0.3159  0.1153
    1SOL    HW2 4502   2.973   2.370   1.916 -0.2732  0.1992 -0.5150
    1SOL    HW3 4503   2.889   2.245   1.921 -0.0617  0.1058  1.0602
    1SOL    MW4 4504   2.903   2.325   1.890 -0.2706 -0.1924  0.1568
    1SOL     OW 4505   2.687   2.484   1.989  0.2057 -0.1602 -0.1697
    1SOL    HW2 4506   2.708   2.571   1.956  0.7433 -0.2923 -0.1707
    1SOL    HW3 4507   2.753   2.427   1.951 -0.7783 -0.7512 -1.0433
    1SOL    MW4 4508   2.698   2.488   1.979  0.1466 -0.2556 -0.2851
    1SOL     OW 4509   2.688   2.741   1.870 -0.1436 -0.2189 -0.4389
    1SOL    HW2 4510   2.606   2.779   1.902  0.1922  1.0288 -1.0212
    1SOL    HW3 4511   2.675   2.733   1.775  0.9599  1.4577 -0.7668
    1SOL    MW4 4512   2.676   2.745   1.861  0.0463  0.1669 -0.5590
    1SOL     OW 4513   2.928   2.851   1.979  0.2416  0.1415 -0.3803
    1SOL    HW2 4514   2.941   2.940   1.947  0.8673 -0.0960 -0.8126
    1SOL    HW3 4515   2.841   2.826   1.947  0.3427  0.3570 -0.8327
    1SOL    MW4 4516   2.918   2.859   1.971  0.3376  0.1385 -0.4970
    1SOL     OW 4517   2.900   3.107   1.854 -0.1032 -0.0830 -0.5502
    1SOL    HW2 4518   2.975   3.161   1.879  0.1599 -0.2731 -0.9265
    1SOL    HW3 4519   2.826   3.145   1.902  0.4183 -0.5225  0.6226
    1SOL    MW4 4520   2.900   3.119   1.864  0.0005 -0.1659 -0.4452
    1SOL     OW 4521   2.702   3.225   2.034 -0.0004 -0.4003  0.2839
    1SOL    HW2 4522   2.721   3.307   1.988 -0.9014 -0.7693 -0.7566
    1SOL    HW3 4523   2.615   3.200   2.003  0.1044 -1.5468  0.9048
    1SOL    MW4 4524   2.693   3.233   2.024 -0.1056 -0.6006  0.2284
    1SOL     OW 4525   2.718   3.439   1.874 -0.4046 -0.2774  0.6138
    1SOL    HW2 4526   2.776   3.504   1.914 -0.5435  0.5378 -0.4716
    1SOL    HW3 4527   2.631   3.462   1.906 -0.1612 -1.5137  2.2602
    1SOL    MW4 4528   2.715   3.451   1.884 -0.3908 -0.3328  0.6880
    1SOL     OW 4529   2.898   3.625   2.009  0.6854 -0.1535 -0.7072
    1SOL    HW2 4530   2.896   3.640   2.103  0.1289 -1.7885 -0.4533
    1SOL    HW3 4531   2.897   3.713   1.971 -2.1171  0.4961  0.7534
    1SOL    MW4 4532   2.898   3.639   2.016  0.2422 -0.2835 -0.4809
    1SOL     OW 4533   2.888   3.880   1.922 -0.3484  0.4141  0.6031
    1SOL    HW2 4534   2.814   3.928   1.959 -1.5412 -1.6704  0.9773
    1SOL    HW3 4535   2.862   3.861   1.832 -0.7516 -1.2533  1.0557
    1SOL    MW4 4536   2.875   3.884   1.915 -0.5591 -0.0806  0.7122
    1SOL     OW 4537   2.685   4.036   1.994 -0.2760  0.2725  0.4330
    1SOL    HW2 4538   2.615   3.981   1.959  0.3963  0.0351 -0.5350
    1SOL    HW3 4539   2.674   4.031   2.089 -0.5201 -1.1292  0.3284
    1SOL    MW4 4540   2.674   4.028   2.002 -0.2193  0.0567  0.2913
    1SOL     OW 4541   2.733   4.304   1.935 -0.2560  0.6024 -0.5894
    1SOL    HW2 4542   2.712   4.216   1.966 -2.1340  1.5206  0.8635
    1SOL    HW3 4543   2.721   4.300   1.840  0.5287 -0.9180 -0.6385
    1SOL    MW4 4544   2.728   4.292   1.927 -0.4001  0.5231 -0.4044
    1SOL     OW 4545   2.968   4.424   2.011  0.3920 -0.3726  0.1570
    1SOL    HW2 4546   2.985   4.408   2.104  0.8082 -3.1695 -0.3727
    1SOL    HW3 4547   2.888   4.376   1.991  0.5207 -0.1203 -1.0416
    1SOL    MW4 4548   2.960   4.416   2.020  0.4640 -0.7086 -0.0710
    1SOL     OW 4549   3.321   4.637   1.911  0.2939 -0.0377  0.4369
    1SOL    HW2 4550   3.314   4.557   1.963 -2.0511 -0.7024 -0.8116
    1SOL    HW3 4551   3.341   4.607   1.823 -1.8366  0.6368 -0.3042
    1SOL    MW4 4552   3.323   4.622   1.906 -0.2966 -0.0367  0.1744
    1SOL     OW 4553   3.124   0.147   2.010 -0.0896  0.1493 -0.1708
    1SOL    HW2 4554   3.130   0.149   2.106 -1.0869  0.5183 -0.1150
    1SOL    HW3 4555   3.193   0.086   1.984  0.9927  0.9660  0.7096
    1SOL    MW4 4556   3.134   0.139   2.019 -0.0784  0.3057 -0.0474
    1SOL     OW 4557   3.123   0.394   1.886 -0.1437 -0.4076  0.3468
    1SOL    HW2 4558   3.126   0.313   1.937  0.0687 -1.2025 -0.8931
    1SOL    HW3 4559   3.148   0.367   1.797 -1.2067  0.7999 -0.3392
    1SOL    MW4 4560   3.127   0.380   1.881 -0.2558 -0.3531  0.0926
    1SOL     OW 4561   3.350   0.494   2.000 -0.3189  0.0001  0.7464
    1SOL    HW2 4562   3.414   0.436   1.958 -0.4882  0.8024 -0.6621
    1SOL    HW3 4563   3.267   0.472   1.957 -0.0673  2.5521 -1.1629
    1SOL    MW4 4564   3.348   0.483   1.989 -0.3080  0.4426  0.3086
    1SOL     OW 4565   3.356   0.759   1.862 -0.0438  0.0547 -0.2548
    1SOL    HW2 4566   3.277   0.804   1.891 -0.4689 -0.4987 -0.5518
    1SOL    HW3 4567   3.351   0.673   1.902 -0.9029 -0.9214 -2.3670
    1SOL    MW4 4568   3.345   0.754   1.871 -0.2129 -0.1470 -0.5728
    1SOL     OW 4569   3.134   0.917   1.958  0.0250  0.2501 -0.0065
    1SOL    HW2 4570   3.138   0.912   2.053 -0.1216  1.6484  0.0861
    1SOL    HW3 4571   3.115   1.009   1.939  0.9914  0.1877 -1.4136
    1SOL    MW4 4572   3.132   0.928   1.968  0.1333  0.4263 -0.1798
    1SOL     OW 4573   3.129   1.178   1.874 -0.1885 -0.2394 -0.0266
    1SOL    HW2 4574   3.213   1.213   1.905 -0.4933  1.0489 -0.6288
    1SOL    HW3 4575   3.064   1.232   1.918 -0.7315 -1.6882  0.9839
    1SOL    MW4 4576   3.132   1.190   1.884 -0.3002 -0.2606  0.0272
    1SOL     OW 4577   3.359   1.304   1.970  0.2466  0.0723  0.0372
    1SOL    HW2 4578   3.369   1.317   2.064 -0.2804  1.4137 -0.0756
    1SOL    HW3 4579   3.354   1.393   1.934 -0.0276 -0.4308 -1.2055
    1SOL    MW4 4580   3.360   1.318   1.977  0.1407  0.1830 -0.1416
    1SOL     OW 4581   3.354   1.581   1.858  0.4211  0.2532  0.5351
    1SOL    HW2 4582   3.433   1.618   1.897 -0.1962  1.9817  0.1955
    1SOL    HW3 4583   3.286   1.646   1.876 -0.9782 -1.2976  0.9888
    1SOL    MW4 4584   3.355   1.595   1.866  0.1550  0.2767  0.5502
    1SOL     OW 4585   3.134   1.724   1.947 -0.4088  0.1789  0.2481
    1SOL    HW2 4586   3.144   1.716   2.042  0.5253 -0.9139  0.0677
    1SOL    HW3 4587   3.136   1.819   1.931  2.2124  0.2806  1.0327
    1SOL    MW4 4588   3.135   1.736   1.958  0.0601  0.0482  0.3277
    1SOL     OW 4589   3.125   1.988   1.860  0.4016 -0.0948 -0.1901
    1SOL    HW2 4590   3.212   2.011   1.890  0.0173 -1.3173  1.9938
    1SOL    HW3 4591   3.134   1.972   1.766  2.6208 -0.6645  0.1092
    1SOL    MW4 4592   3.137   1.989   1.851  0.6435 -0.3313  0.1376
    1SOL     OW 4593   3.385   2.074   1.962  0.0023 -0.2214  0.3535
    1SOL    HW2 4594   3.479   2.058   1.953  0.2890  0.9766  1.1311
    1SOL    HW3 4595   3.374   2.166   1.938 -0.8315 -0.0921  1.2155
    1SOL    MW4 4596   3.396   2.084   1.957 -0.0699 -0.0463  0.5697
    1SOL     OW 4597   3.389   2.349   1.872 -0.2198  0.0161 -0.1459
    1SOL    HW2 4598   3.304   2.373   1.908 -0.0882  1.1037 -0.5435
    1SOL    HW3 4599   3.374   2.339   1.778 -0.2067 -1.2008 -0.0307
    1SOL    MW4 4600   3.376   2.351   1.865 -0.2007 -0.0010 -0.1832
    1SOL     OW 4601   3.151   2.428   1.988 -0.4907  0.0981 -0.2226
    1SOL    HW2 4602   3.145   2.440   2.083  0.4448 -0.2508 -0.1132
    1SOL    HW3 4603   3.151   2.516   1.953  0.5822  0.2741  0.2008
    1SOL    MW4 4604   3.150   2.441   1.996 -0.2260  0.0753 -0.1522
    1SOL     OW 4605   3.154   2.714   1.887  0.2787  0.3241 -0.3259
    1SOL    HW2 4606   3.073   2.746   1.925  1.3408  1.3174  1.1314
    1SOL    HW3 4607   3.138   2.712   1.793 -1.7516 -0.4177  0.0202
    1SOL    MW4 4608   3.141   2.718   1.879  0.1512  0.3576 -0.0881
    1SOL     OW 4609   3.332   2.892   1.998 -0.6200 -0.0021 -0.1349
    1SOL    HW2 4610   3.333   2.875   2.092  1.3384  0.7699  0.0009
    1SOL    HW3 4611   3.274   2.825   1.962  0.6888 -1.9607  1.3130
    1SOL    MW4 4612   3.324   2.881   2.005 -0.1888 -0.1585  0.0739
    1SOL     OW 4613   3.306   3.128   1.880  0.5971  0.0500  0.5096
    1SOL    HW2 4614   3.378   3.174   1.924 -0.2865  1.2443  0.7457
    1SOL    HW3 4615   3.305   3.041   1.920  2.9386 -0.5593 -0.6496
    1SOL    MW4 4616   3.316   3.123   1.891  0.7894  0.1273  0.3878
    1SOL     OW 4617   3.094   3.257   1.984 -0.1384  0.2216  0.0434
    1SOL    HW2 4618   3.111   3.345   1.952 -0.8366 -0.1777 -1.4600
    1SOL    HW3 4619   3.164   3.204   1.947  1.0388  0.3366  1.9927
    1SOL    MW4 4620   3.105   3.262   1.975 -0.0753  0.1841  0.1023
    1SOL     OW 4621   3.133   3.526   1.871 -0.2481  0.0353  0.0272
    1SOL    HW2 4622   3.210   3.536   1.926 -0.2390  0.0711  0.0076
    1SOL    HW3 4623   3.060   3.554   1.926 -0.3179 -0.6042  0.2638
    1SOL    MW4 4624   3.133   3.531   1.885 -0.2561 -0.0441  0.0558
    1SOL     OW 4625   3.348   3.588   2.062  0.4229  0.0875 -0.1828
    1SOL    HW2 4626   3.427   3.545   2.031 -0.0744  0.5751 -2.2361
    1SOL    HW3 4627   3.355   3.678   2.029 -1.1564  0.0159 -0.7941
    1SOL    MW4 4628   3.359   3.594   2.053  0.1488  0.1423 -0.5341
    1SOL     OW 4629   3.358   3.822   1.912  0.1227  0.4149  0.3075
    1SOL    HW2 4630   3.288   3.877   1.947  0.4056  0.1972  1.2350
    1SOL    HW3 4631   3.356   3.836   1.818 -1.6642 -0.1540  0.2490
    1SOL    MW4 4632   3.349   3.831   1.904 -0.0756  0.3109  0.4224
    1SOL     OW 4633   3.142   3.993   1.972  0.8466 -0.2298 -0.3638
    1SOL    HW2 4634   3.148   3.995   2.067  0.5259  1.9167 -0.3688
    1SOL    HW3 4635   3.061   3.946   1.953 -0.1326  1.1191  0.4695
    1SOL    MW4 4636   3.132   3.987   1.982  0.6752  0.2313 -0.2544
    1SOL     OW 4637   3.178   4.250   1.907  0.3826 -0.0314 -0.0855
    1SOL    HW2 4638   3.171   4.156   1.922  0.8047 -0.0367  0.0838
    1SOL    HW3 4639   3.096   4.286   1.941 -0.9555 -0.6228 -2.5721
    1SOL    MW4 4640   3.166   4.243   1.913  0.2615 -0.1106 -0.3914
    1SOL     OW 4641   3.357   4.398   2.048  0.2885 -0.0035  0.2081
    1SOL    HW2 4642   3.442   4.369   2.015  0.1304  0.6356 -0.7889
    1SOL    HW3 4643   3.293   4.348   1.997  0.0628 -0.4710  0.9425
    1SOL    MW4 4644   3.360   4.387   2.037  0.2377  0.0186  0.1736
    1SOL     OW 4645   3.814   4.651   1.892 -0.0986 -0.0815  0.1792
    1SOL    HW2 4646   3.814   4.559   1.920 -1.4067 -0.2832 -0.4062
    1SOL    HW3 4647   3.731   4.686   1.927 -0.5194  0.3483 -1.2294
    1SOL    MW4 4648   3.803   4.643   1.901 -0.3269 -0.0514 -0.0839
    1SOL     OW 4649   3.578   0.089   1.999 -0.0984 -0.1384  0.0537
    1SOL    HW2 4650   3.593   0.082   2.093  1.6671 -0.0541 -0.2010
    1SOL    HW3 4651   3.495   0.044   1.984  0.7353 -2.1601  1.3335
    1SOL    MW4 4652   3.569   0.082   2.009  0.2446 -0.3940  0.1888
    1SOL     OW 4653   3.580   0.362   1.909  0.2244  0.2544  0.0494
    1SOL    HW2 4654   3.574   0.270   1.936  0.6148  0.4287  0.7313
    1SOL    HW3 4655   3.588   0.358   1.813 -1.3820 -0.3580 -0.0853
    1SOL    MW4 4656   3.580   0.349   1.900  0.0641  0.1966  0.1215
    1SOL     OW 4657   3.803   0.493   1.988  0.1101  0.2352  0.0596
    1SOL    HW2 4658   3.792   0.580   1.950  0.3582  0.1730 -0.1563
    1SOL    HW3 4659   3.728   0.443   1.955 -0.2620  0.4869  0.5276
    1SOL    MW4 4660   3.791   0.498   1.978  0.0937  0.2602  0.0929
    1SOL     OW 4661   3.827   0.753   1.871  0.0757 -0.2800 -0.4148
    1SOL    HW2 4662   3.743   0.795   1.889  0.0351 -0.2722 -0.6196
    1SOL    HW3 4663   3.832   0.749   1.776  1.4409  1.9797 -0.4778
    1SOL    MW4 4664   3.817   0.758   1.861  0.2506  0.0191 -0.4501
    1SOL     OW 4665   3.588   0.879   1.929 -0.6046 -0.5726  0.5127
    1SOL    HW2 4666   3.563   0.970   1.916 -2.0018 -1.1419 -0.8816
    1SOL    HW3 4667   3.512   0.829   1.902  0.6020 -2.2133  0.0589
    1SOL    MW4 4668   3.575   0.884   1.924 -0.6294 -0.8641  0.2688
    1SOL     OW 4669   3.580   1.163   1.885 -0.1452  0.0854 -0.2797
    1SOL    HW2 4670   3.513   1.222   1.920 -0.1766 -0.1060 -0.0134
    1SOL    HW3 4671   3.593   1.192   1.795  0.1282  0.7552 -0.0291
    1SOL    MW4 4672   3.573   1.174   1.878 -0.1135  0.1485 -0.2116
    1SOL     OW 4673   3.832   1.258   1.964 -0.2673  0.2159 -0.1056
    1SOL    HW2 4674   3.819   1.251   2.059 -0.6530 -0.0453 -0.1791
    1SOL    HW3 4675   3.768   1.198   1.926 -0.1295  0.3380 -0.5337
    1SOL    MW4 4676   3.822   1.249   1.972 -0.3002  0.1976 -0.1717
    1SOL     OW 4677   3.821   1.536   1.861 -0.2425 -0.0195 -0.1677
    1SOL    HW2 4678   3.895   1.579   1.904 -0.6511  0.5966 -0.0792
    1SOL    HW3 4679   3.820   1.447   1.898  0.4310 -0.0210 -0.1497
    1SOL    MW4 4680   3.830   1.530   1.871 -0.2077  0.0616 -0.1537
    1SOL     OW 4681   3.594   1.683   1.939 -0.5638  0.3999 -0.1611
    1SOL    HW2 4682   3.603   1.774   1.911 -0.4938  1.4205  2.9666
    1SOL    HW3 4683   3.670   1.639   1.902 -0.3683  1.7082 -1.3560
    1SOL    MW4 4684   3.605   1.690   1.931 -0.5291  0.7071  0.0938
    1SOL     OW 4685   3.637   1.977   1.897 -0.1455  0.2842 -0.2352
    1SOL    HW2 4686   3.713   2.026   1.928  0.1892 -0.8494  0.7545
    1SOL    HW3 4687   3.645   1.977   1.801 -0.3716  2.4916 -0.2887
    1SOL    MW4 4688   3.648   1.984   1.888 -0.1311  0.4259 -0.1116
    1SOL     OW 4689   3.856   2.121   1.990  0.3885 -0.2458 -0.1270
    1SOL    HW2 4690   3.929   2.072   1.951  0.2666  1.2923 -2.4106
    1SOL    HW3 4691   3.863   2.209   1.951 -1.5475  0.4767  1.0849
    1SOL    MW4 4692   3.867   2.126   1.980  0.1171  0.0525 -0.2686
    1SOL     OW 4693   3.814   2.381   1.884  0.4030 -0.1206  0.0053
    1SOL    HW2 4694   3.891   2.430   1.915  0.0935  0.2406  0.2041
    1SOL    HW3 4695   3.744   2.407   1.943 -0.0896  0.2230 -0.7230
    1SOL    MW4 4696   3.815   2.391   1.896  0.2975 -0.0277 -0.0645
    1SOL     OW 4697   3.585   2.472   2.021 -0.2524  0.5770 -0.3750
    1SOL    HW2 4698   3.583   2.559   1.981 -0.7233  0.5923 -0.3168
    1SOL    HW3 4699   3.518   2.422   1.974 -0.7955  0.5924  0.3846
    1SOL    MW4 4700   3.576   2.477   2.010 -0.3862  0.5813 -0.2670
    1SOL     OW 4701   3.547   2.719   1.912  0.1805  0.3391  0.1566
    1SOL    HW2 4702   3.625   2.762   1.947  0.7389  0.5294 -1.2774
    1SOL    HW3 4703   3.473   2.767   1.949  0.7572  0.6962  0.8483
    1SOL    MW4 4704   3.547   2.731   1.922  0.3304  0.4110  0.0588
    1SOL     OW 4705   3.804   2.851   2.026  0.0984  0.3142  0.3432
    1SOL    HW2 4706   3.808   2.850   2.121  0.5239  0.1077  0.3233
    1SOL    HW3 4707   3.796   2.944   2.003  2.2686  0.5547  0.4934
    1SOL    MW4 4708   3.803   2.863   2.035  0.4411  0.3185  0.3605
    1SOL     OW 4709   3.794   3.113   1.913 -0.1105 -0.3954 -0.2957
    1SOL    HW2 4710   3.711   3.158   1.929 -0.6996 -1.4081 -0.4571
    1SOL    HW3 4711   3.795   3.096   1.819  0.3509 -0.2597 -0.3181
    1SOL    MW4 4712   3.784   3.117   1.903 -0.1273 -0.5114 -0.3201
    1SOL     OW 4713   3.551   3.230   1.986  0.1162  0.1861 -0.9255
    1SOL    HW2 4714   3.560   3.225   2.081 -0.9654  0.4563 -0.7964
    1SOL    HW3 4715   3.564   3.322   1.965  0.5423  0.0953 -1.0598
    1SOL    MW4 4716   3.554   3.241   1.996  0.0298  0.2100 -0.9261
    1SOL     OW 4717   3.573   3.504   1.911  0.2629  0.1701 -0.3721
    1SOL    HW2 4718   3.657   3.534   1.945  0.3307  0.4553 -0.7859
    1SOL    HW3 4719   3.582   3.508   1.816  0.7389 -2.4232 -0.4935
    1SOL    MW4 4720   3.585   3.508   1.903  0.3345 -0.1342 -0.4426
    1SOL     OW 4721   3.805   3.596   2.006 -0.0725 -0.1079 -0.0977
    1SOL    HW2 4722   3.883   3.548   1.977  0.1235 -0.2285  0.6231
    1SOL    HW3 4723   3.810   3.680   1.960  0.2954 -0.2475 -0.3165
    1SOL    MW4 4724   3.816   3.601   1.996  0.0017 -0.1423 -0.0316
    1SOL     OW 4725   3.828   3.856   1.895 -0.3142 -0.2052 -0.3580
    1SOL    HW2 4726   3.744   3.883   1.932 -0.2343 -0.0093 -0.3190
    1SOL    HW3 4727   3.815   3.863   1.800  0.1192  1.2427 -0.3215
    1SOL    MW4 4728   3.815   3.861   1.887 -0.2465  0.0114 -0.3482
    1SOL     OW 4729   3.590   3.951   2.024 -0.0833  0.6329 -0.0980
    1SOL    HW2 4730   3.562   3.979   2.110 -1.2495  0.1327 -0.3099
    1SOL    HW3 4731   3.517   3.900   1.990  0.3980  0.7566 -1.3492
    1SOL    MW4 4732   3.577   3.948   2.031 -0.1736  0.5832 -0.2909
    1SOL     OW 4733   3.588   4.259   1.953  0.4923 -0.0760 -0.3453
    1SOL    HW2 4734   3.674   4.297   1.969  0.3229 -0.3125  1.2526
    1SOL    HW3 4735   3.601   4.165   1.965 -0.0593 -0.0748  0.2908
    1SOL    MW4 4736   3.601   4.252   1.957  0.3974 -0.1073 -0.0505
    1SOL     OW 4737   3.840   4.388   1.994  0.5799 -0.6378 -0.0398
    1SOL    HW2 4738   3.853   4.393   2.089  0.1502  0.9016 -0.0556
    1SOL    HW3 4739   3.908   4.327   1.964 -0.0299 -2.0610  1.3886
    1SOL    MW4 4740   3.851   4.381   2.003  0.4425 -0.6227  0.1466
    1SOL     OW 4741   4.275   4.651   1.919 -0.3968 -0.0124 -0.2640
    1SOL    HW2 4742   4.197   4.706   1.928 -0.6635 -0.4926  0.3635
    1SOL    HW3 4743   4.346   4.704   1.955 -0.2125  0.8963 -1.8920
    1SOL    MW4 4744   4.274   4.665   1.925 -0.4082  0.0443 -0.3960
    1SOL     OW 4745   4.036   0.116   1.965 -0.4682 -0.5630  0.0894
    1SOL    HW2 4746   4.032   0.113   2.061 -1.0461 -0.5584  0.0676
    1SOL    HW3 4747   3.956   0.074   1.936 -0.9583  0.6550 -0.3733
    1SOL    MW4 4748   4.025   0.110   1.974 -0.6084 -0.4017  0.0254
    1SOL     OW 4749   4.016   0.372   1.863 -0.1227 -0.3032  0.3607
    1SOL    HW2 4750   4.032   0.290   1.909  0.0145 -0.5070 -0.0467
    1SOL    HW3 4751   3.942   0.412   1.909 -0.7897 -1.0911 -0.0085
    1SOL    MW4 4752   4.008   0.367   1.875 -0.1926 -0.4341  0.2583
    1SOL     OW 4753   4.248   0.472   2.003  0.4336  0.4125 -0.1718
    1SOL    HW2 4754   4.232   0.466   2.098  2.3067 -0.3383  0.1103
    1SOL    HW3 4755   4.174   0.425   1.964 -0.4527  0.8838  0.8893
    1SOL    MW4 4756   4.236   0.465   2.011  0.5641  0.3757  0.0052
    1SOL     OW 4757   4.268   0.743   1.904 -0.0593  0.6531 -0.5522
    1SOL    HW2 4758   4.271   0.655   1.940  1.2416  1.1808  0.6808
    1SOL    HW3 4759   4.265   0.731   1.809  1.4186 -0.6759 -0.4353
    1SOL    MW4 4760   4.268   0.730   1.896  0.3076  0.5474 -0.3742
    1SOL     OW 4761   4.045   0.893   1.975 -0.4924 -0.7095  0.2004
    1SOL    HW2 4762   4.116   0.835   1.946  0.0464 -1.1808  2.4082
    1SOL    HW3 4763   3.966   0.857   1.935  0.6229  0.5701 -3.3686
    1SOL    MW4 4764   4.044   0.881   1.966 -0.2737 -0.6029  0.0209
    1SOL     OW 4765   4.074   1.160   1.883 -1.0303 -0.2088  0.1993
    1SOL    HW2 4766   4.066   1.072   1.919 -2.4067 -0.2798 -0.2779
    1SOL    HW3 4767   3.998   1.208   1.916 -0.8476  0.5005 -0.3786
    1SOL    MW4 4768   4.063   1.155   1.892 -1.1878 -0.1246  0.0601
    1SOL     OW 4769   4.305   1.260   2.001 -0.0487 -0.0269 -0.5986
    1SOL    HW2 4770   4.294   1.277   2.094  1.3174 -1.2864 -0.2033
    1SOL    HW3 4771   4.227   1.210   1.976  0.4060 -1.1586  0.2397
    1SOL    MW4 4772   4.293   1.256   2.010  0.1917 -0.3422 -0.4356
    1SOL     OW 4773   4.227   1.524   1.901 -0.0924  0.6185  0.2785
    1SOL    HW2 4774   4.239   1.434   1.932  1.3588  0.6272 -0.2306
    1SOL    HW3 4775   4.262   1.524   1.812 -0.3564  1.6257  0.1694
    1SOL    MW4 4776   4.233   1.512   1.894  0.0639  0.7526  0.1968
    1SOL     OW 4777   4.020   1.691   1.967 -0.0625  0.1541  0.4226
    1SOL    HW2 4778   4.039   1.704   2.061 -0.3118 -0.2706  0.5291
    1SOL    HW3 4779   4.085   1.626   1.939 -1.0367 -0.9307  0.6717
    1SOL    MW4 4780   4.031   1.684   1.976 -0.2241 -0.0452  0.4694
    1SOL     OW 4781   4.074   1.962   1.899 -0.4660 -0.3748 -0.0524
    1SOL    HW2 4782   4.042   1.879   1.933 -0.1277 -0.0977  0.9587
    1SOL    HW3 4783   4.067   1.953   1.804 -0.5582 -1.5032  0.0530
    1SOL    MW4 4784   4.069   1.950   1.891 -0.4339 -0.4871  0.0950
    1SOL     OW 4785   4.290   2.086   2.002  0.0788 -0.4890  0.0474
    1SOL    HW2 4786   4.279   2.084   2.097 -1.6019  0.5288 -0.0918
    1SOL    HW3 4787   4.220   2.031   1.968 -1.8591  2.3187 -0.7199
    1SOL    MW4 4788   4.279   2.079   2.010 -0.3986  0.0157 -0.0720
    1SOL     OW 4789   4.253   2.356   1.888 -0.2861  0.1742 -0.1323
    1SOL    HW2 4790   4.258   2.265   1.919  0.5577  0.7531  1.4662
    1SOL    HW3 4791   4.329   2.399   1.927 -2.5788  2.4352  2.0531
    1SOL    MW4 4792   4.264   2.350   1.898 -0.4773  0.5488  0.3668
    1SOL     OW 4793   4.045   2.491   1.977  0.1843  0.2454 -0.1206
    1SOL    HW2 4794   4.039   2.476   2.071 -2.3191 -2.2414 -0.5919
    1SOL    HW3 4795   4.124   2.446   1.950  0.9136  0.9722  0.7694
    1SOL    MW4 4796   4.054   2.483   1.986 -0.0501  0.0134 -0.0653
    1SOL     OW 4797   4.022   2.748   1.900 -0.1071  0.0350  0.0466
    1SOL    HW2 4798   4.017   2.655   1.923 -0.6332 -0.4871 -1.9919
    1SOL    HW3 4799   3.951   2.789   1.949 -1.2663 -1.0371 -0.7062
    1SOL    MW4 4800   4.012   2.741   1.909 -0.3295 -0.1752 -0.3217
    1SOL     OW 4801   4.264   2.870   1.951 -0.0422  0.6737  0.1815
    1SOL    HW2 4802   4.255   2.886   2.045  1.2238 -0.8863  0.5929
    1SOL    HW3 4803   4.188   2.816   1.928  0.6909 -0.6048  0.7263
    1SOL    MW4 4804   4.253   2.865   1.960  0.2208  0.2990  0.3077
    1SOL     OW 4805   4.258   3.132   1.842 -0.1593  0.2280  0.5285
    1SOL    HW2 4806   4.180   3.170   1.884 -0.4447 -0.0366  0.2441
    1SOL    HW3 4807   4.257   3.041   1.869  0.2879  0.3201  0.8602
    1SOL    MW4 4808   4.247   3.125   1.851 -0.1378  0.2053  0.5348
    1SOL     OW 4809   4.036   3.221   1.964  0.1112 -0.0488  0.4060
    1SOL    HW2 4810   4.046   3.216   2.059 -1.0264 -3.0349  0.4336
    1SOL    HW3 4811   3.950   3.183   1.947  0.1201  0.8433 -1.7865
    1SOL    MW4 4812   4.026   3.215   1.974 -0.0377 -0.3247  0.1203
    1SOL     OW 4813   4.025   3.482   1.894 -0.1798 -0.2195  0.2760
    1SOL    HW2 4814   4.109   3.514   1.927 -1.1078  2.6695 -0.0619
    1SOL    HW3 4815   4.029   3.388   1.909  3.7951 -0.4097 -1.2478
    1SOL    MW4 4816   4.037   3.474   1.901  0.2222  0.1364  0.0303
    1SOL     OW 4817   4.258   3.603   1.975  0.1510 -0.1544 -0.2844
    1SOL    HW2 4818   4.246   3.694   1.948  1.7394  0.0635 -0.3003
    1SOL    HW3 4819   4.345   3.580   1.943  0.8224 -0.8552  1.9392
    1SOL    MW4 4820   4.268   3.612   1.967  0.4492 -0.2182  0.0069
    1SOL     OW 4821   4.263   3.899   1.911 -0.1139  0.5532  0.2609
    1SOL    HW2 4822   4.343   3.935   1.949 -0.6338  1.3043  0.6618
    1SOL    HW3 4823   4.283   3.888   1.818  0.5637  0.4211  0.4200
    1SOL    MW4 4824   4.276   3.902   1.904 -0.0935  0.6351  0.3349
    1SOL     OW 4825   4.019   4.013   2.001 -0.2775 -0.0410  0.3682
    1SOL    HW2 4826   4.096   3.964   1.972  0.0148  0.6414 -0.0148
    1SOL    HW3 4827   3.945   3.966   1.964 -0.1374 -1.5765  1.9775
    1SOL    MW4 4828   4.020   4.001   1.993 -0.2203 -0.1535  0.5299
    1SOL     OW 4829   4.042   4.243   1.863 -0.0046  0.0380 -0.0717
    1SOL    HW2 4830   4.105   4.293   1.915  0.2839 -0.5878  0.1905
    1SOL    HW3 4831   4.038   4.158   1.906  0.6905 -0.6921 -1.4090
    1SOL    MW4 4832   4.050   4.238   1.876  0.1254 -0.1411 -0.2135
    1SOL     OW 4833   4.235   4.381   1.974 -0.5928  0.3488  0.4577
    1SOL    HW2 4834   4.219   4.362   2.066  0.4347 -0.8855  0.3998
    1SOL    HW3 4835   4.244   4.476   1.970 -1.8541  0.5163  1.4215
    1SOL    MW4 4836   4.234   4.391   1.985 -0.6237  0.2074  0.5772
    1SOL     OW 4837   0.227   4.638   2.381  0.2002  0.0020 -0.1958
    1SOL    HW2 4838   0.208   4.663   2.471 -0.8874 -0.2637 -0.3457
    1SOL    HW3 4839   0.287   4.705   2.349 -0.9799  1.2161  0.0969
    1SOL    MW4 4840   0.232   4.650   2.388 -0.0990  0.1273 -0.1769
    1SOL     OW 4841   0.019   0.115   2.298  0.1728 -0.0562 -0.0021
    1SOL    HW2 4842   0.090   0.054   2.318 -0.0239 -0.3572 -0.2255
    1SOL    HW3 4843   0.017   0.120   2.203 -0.0042  0.0743  0.0066
    1SOL    MW4 4844   0.028   0.108   2.288  0.1235 -0.0787 -0.0305
    1SOL     OW 4845   4.461   0.369   2.395 -0.1233  0.2472  0.3267
    1SOL    HW2 4846   4.529   0.428   2.364 -0.5877  0.4846 -0.2508
    1SOL    HW3 4847   4.490   0.282   2.367 -0.0886  0.3547  0.0316
    1SOL    MW4 4848   4.474   0.365   2.387 -0.1798  0.2927  0.2110
    1SOL     OW 4849   0.170   0.523   2.260  0.3806 -0.2193  0.3193
    1SOL    HW2 4850   0.253   0.486   2.294  0.9062 -0.6493 -1.3925
    1SOL    HW3 4851   0.168   0.496   2.168  0.3103  3.2594 -0.7546
    1SOL    MW4 4852   0.181   0.514   2.253  0.4406  0.1829 -0.0479
    1SOL     OW 4853   0.231   0.770   2.369 -0.1667 -0.0624 -0.1476
    1SOL    HW2 4854   0.226   0.766   2.465 -2.8175 -0.1080 -0.2470
    1SOL    HW3 4855   0.229   0.678   2.341  3.0425 -0.1836 -0.2212
    1SOL    MW4 4856   0.230   0.757   2.378 -0.0930 -0.0845 -0.1702
    1SOL     OW 4857   4.488   0.872   2.270  0.2510 -0.1743  0.2652
    1SOL    HW2 4858   4.414   0.819   2.300  0.0147  0.7107  1.2483
    1SOL    HW3 4859   4.564   0.830   2.310 -0.0543  0.9505  2.0628
    1SOL    MW4 4860   4.488   0.859   2.279  0.1796  0.0909  0.6320
    1SOL     OW 4861   4.469   1.142   2.347 -0.2571 -0.8569 -0.1797
    1SOL    HW2 4862   4.475   1.130   2.442 -0.4628 -1.6892 -0.2617
    1SOL    HW3 4863   4.453   1.054   2.314  0.9556 -0.7459 -1.0902
    1SOL    MW4 4864   4.468   1.129   2.355 -0.1243 -0.9521 -0.3107
    1SOL     OW 4865   0.219   1.278   2.226  0.0015  0.1139 -0.3863
    1SOL    HW2 4866   0.155   1.210   2.246  0.2551  0.1501  0.5376
    1SOL    HW3 4867   0.236   1.267   2.132 -1.3644  0.1166 -0.6500
    1SOL    MW4 4868   0.213   1.268   2.216 -0.1453  0.1191 -0.2992
    1SOL     OW 4869   0.201   1.528   2.347  0.1904  0.4443 -0.3889
    1SOL    HW2 4870   0.220   1.525   2.441  1.4836 -0.3801 -0.6680
    1SOL    HW3 4871   0.201   1.437   2.319 -0.0613  0.6910 -1.2155
    1SOL    MW4 4872   0.204   1.516   2.356  0.3279  0.3679 -0.5348
    1SOL     OW 4873   0.003   1.681   2.265 -0.2381  0.1854 -0.4666
    1SOL    HW2 4874   0.022   1.765   2.305  1.8574 -0.7045  0.4542
    1SOL    HW3 4875   0.073   1.623   2.295  0.1996 -1.0564 -3.7155
    1SOL    MW4 4876   0.015   1.684   2.274  0.0961 -0.0958 -0.7737
    1SOL     OW 4877   0.011   1.930   2.354  0.4886  0.3489 -0.1820
    1SOL    HW2 4878  -0.063   1.985   2.327  0.6406  0.2937 -0.7237
    1SOL    HW3 4879   0.088   1.985   2.341  0.5774  0.2694  0.0032
    1SOL    MW4 4880   0.011   1.945   2.348  0.5204  0.3313 -0.2291
    1SOL     OW 4881   0.252   2.083   2.285  0.4657 -0.5303  0.1183
    1SOL    HW2 4882   0.332   2.035   2.308  0.4023 -0.6531  0.0853
    1SOL    HW3 4883   0.250   2.081   2.189  1.1375  0.6482  0.0724
    1SOL    MW4 4884   0.262   2.076   2.275  0.5460 -0.3912  0.1082
    1SOL     OW 4885   0.236   2.350   2.392 -0.6842 -0.1227 -0.1748
    1SOL    HW2 4886   0.229   2.344   2.487  0.0022 -0.2476 -0.1283
    1SOL    HW3 4887   0.236   2.259   2.362  1.6209 -0.1796 -0.0937
    1SOL    MW4 4888   0.235   2.337   2.400 -0.2895 -0.1469 -0.1578
    1SOL     OW 4889   0.008   2.451   2.272  0.0579  0.4466  0.7527
    1SOL    HW2 4890   0.005   2.543   2.299  0.8055  0.8742 -0.5454
    1SOL    HW3 4891   0.088   2.418   2.311  0.0330  0.4751  0.8293
    1SOL    MW4 4892   0.018   2.459   2.280  0.1533  0.5069  0.5918
    1SOL     OW 4893   0.019   2.719   2.364  0.5445 -0.4220 -0.2268
    1SOL    HW2 4894   0.019   2.723   2.460 -0.1324 -0.0882 -0.2422
    1SOL    HW3 4895   0.098   2.768   2.338  0.9795 -0.9027  0.1697
    1SOL    MW4 4896   0.030   2.726   2.373  0.5126 -0.4418 -0.1764
    1SOL     OW 4897   0.267   2.857   2.268 -0.4725  0.3943 -0.0452
    1SOL    HW2 4898   0.354   2.829   2.296  0.0214  1.5852 -0.3174
    1SOL    HW3 4899   0.266   2.840   2.174 -0.7271 -0.0976  0.0461
    1SOL    MW4 4900   0.279   2.851   2.259 -0.4409  0.4864 -0.0691
    1SOL     OW 4901   0.219   3.117   2.363  0.1192 -0.1665  0.6485
    1SOL    HW2 4902   0.128   3.142   2.343  0.4925  0.5359 -0.1993
    1SOL    HW3 4903   0.226   3.026   2.334 -1.1969 -1.2732  3.5801
    1SOL    MW4 4904   0.208   3.108   2.357 -0.0052 -0.2198  0.9232
    1SOL     OW 4905   4.467   3.209   2.240  0.3579  0.4091  0.0120
    1SOL    HW2 4906   4.468   3.299   2.269 -0.9045  0.5935 -0.4951
    1SOL    HW3 4907   4.462   3.214   2.144 -0.4515 -0.1931  0.0138
    1SOL    MW4 4908   4.466   3.221   2.231  0.0845  0.3538 -0.0548
    1SOL     OW 4909   0.008   3.469   2.367  0.2824  0.2607  0.7851
    1SOL    HW2 4910   0.013   3.465   2.463  0.6917  0.8732  0.7888
    1SOL    HW3 4911  -0.071   3.520   2.349  0.1002 -0.0167  0.7954
    1SOL    MW4 4912  -0.002   3.475   2.377  0.3123  0.3045  0.7870
    1SOL     OW 4913   0.208   3.619   2.270  0.2520 -0.1425 -0.0899
    1SOL    HW2 4914   0.287   3.584   2.311 -0.5951 -1.1600  0.6909
    1SOL    HW3 4915   0.139   3.556   2.292 -0.4803 -0.0720 -2.0188
    1SOL    MW4 4916   0.209   3.606   2.278  0.0436 -0.2673 -0.2413
    1SOL     OW 4917   0.230   3.876   2.375 -0.7741  0.2530 -0.0045
    1SOL    HW2 4918   0.159   3.924   2.331  0.3557  0.4999 -1.6025
    1SOL    HW3 4919   0.220   3.786   2.344 -0.8363  0.1384  0.3478
    1SOL    MW4 4920   0.219   3.870   2.365 -0.6332  0.2706 -0.1690
    1SOL     OW 4921   0.029   4.021   2.279  0.5004  0.3185  0.0220
    1SOL    HW2 4922  -0.014   4.101   2.312 -1.6821 -0.6913 -0.2892
    1SOL    HW3 4923   0.020   4.027   2.184 -0.7392 -0.8318  0.0430
    1SOL    MW4 4924   0.022   4.033   2.271  0.0489  0.0334 -0.0162
    1SOL     OW 4925   4.449   4.272   2.385  0.2254 -0.2873  0.7144
    1SOL    HW2 4926   4.452   4.277   2.480 -0.0811 -0.3543  0.7270
    1SOL    HW3 4927   4.534   4.307   2.357  0.8306 -1.4532  1.0516
    1SOL    MW4 4928   4.461   4.278   2.394  0.2646 -0.4497  0.7606
    1SOL     OW 4929   0.191   4.363   2.282 -0.1774 -0.0270  0.4145
    1SOL    HW2 4930   0.261   4.316   2.328  0.3129  0.2204 -0.0640
    1SOL    HW3 4931   0.194   4.451   2.319  1.2550  0.6197 -1.1618
    1SOL    MW4 4932   0.201   4.369   2.293  0.0763  0.0911  0.1431
    1SOL     OW 4933   0.642   0.004   2.322 -0.3073  0.0453 -0.3731
    1SOL    HW2 4934   0.654  -0.002   2.416 -0.3036 -0.4218 -0.4034
    1SOL    HW3 4935   0.714   0.058   2.291  1.6562 -2.5523 -0.5351
    1SOL    MW4 4936   0.653   0.010   2.330 -0.0478 -0.3591 -0.3986
    1SOL     OW 4937   0.426   0.158   2.271  0.1977 -0.4134  0.0526
    1SOL    HW2 4938   0.502   0.105   2.295 -0.3845 -1.0851  0.3934
    1SOL    HW3 4939   0.424   0.155   2.176  1.2874  0.5679 -0.0228
    1SOL    MW4 4940   0.436   0.151   2.262  0.2646 -0.3725  0.0877
    1SOL     OW 4941   0.408   0.435   2.374  0.4631 -0.4404 -0.3767
    1SOL    HW2 4942   0.415   0.423   2.468  0.0663 -2.3500 -0.5722
    1SOL    HW3 4943   0.417   0.347   2.337 -1.7973 -0.0463 -1.9785
    1SOL    MW4 4944   0.410   0.422   2.381  0.1125 -0.6404 -0.6137
    1SOL     OW 4945   0.650   0.524   2.271  0.2614 -0.1222 -0.1741
    1SOL    HW2 4946   0.661   0.618   2.283 -1.2402  0.0961 -0.4198
    1SOL    HW3 4947   0.564   0.505   2.309  0.3065 -1.3019 -0.6351
    1SOL    MW4 4948   0.640   0.534   2.278  0.0693 -0.2490 -0.2673
    1SOL     OW 4949   0.672   0.802   2.353  0.0198  0.1128  0.2076
    1SOL    HW2 4950   0.672   0.796   2.448 -0.1980  1.6855  0.3233
    1SOL    HW3 4951   0.590   0.846   2.332  0.9352  1.5017 -0.5631
    1SOL    MW4 4952   0.661   0.807   2.363  0.1119  0.5036  0.1211
    1SOL     OW 4953   0.441   0.938   2.283 -0.1516  0.2054  0.1321
    1SOL    HW2 4954   0.386   0.862   2.298  0.3120 -0.2101 -0.2341
    1SOL    HW3 4955   0.450   0.942   2.187  0.1605  0.4788  0.1715
    1SOL    MW4 4956   0.435   0.929   2.272 -0.0492  0.1867  0.0889
    1SOL     OW 4957   0.457   1.187   2.396  0.3200 -0.2171 -0.2127
    1SOL    HW2 4958   0.453   1.095   2.370  0.6246  0.1107 -1.4517
    1SOL    HW3 4959   0.382   1.227   2.353  1.4181  0.5446 -1.4368
    1SOL    MW4 4960   0.447   1.180   2.387  0.5051 -0.0733 -0.5379
    1SOL     OW 4961   0.687   1.277   2.281  0.3646  0.0648  0.4343
    1SOL    HW2 4962   0.691   1.361   2.326  0.4231  0.5648 -0.4792
    1SOL    HW3 4963   0.610   1.233   2.318  1.2594 -0.1617  2.0537
    1SOL    MW4 4964   0.677   1.282   2.292  0.4904  0.1010  0.5274
    1SOL     OW 4965   0.668   1.526   2.372  0.1733  0.0443  0.0559
    1SOL    HW2 4966   0.655   1.541   2.466 -0.1797  0.0952 -0.0004
    1SOL    HW3 4967   0.749   1.573   2.351  1.1104 -1.2474  0.6575
    1SOL    MW4 4968   0.677   1.534   2.382  0.2504 -0.1193  0.1278
    1SOL     OW 4969   0.459   1.644   2.249 -0.6408 -0.1451  0.3359
    1SOL    HW2 4970   0.535   1.615   2.300 -0.7694  0.6493  0.9828
    1SOL    HW3 4971   0.384   1.617   2.302 -0.7607  1.8061  1.2134
    1SOL    MW4 4972   0.460   1.636   2.263 -0.6736  0.2172  0.5374
    1SOL     OW 4973   0.449   1.912   2.382  0.9057 -0.5043 -0.1444
    1SOL    HW2 4974   0.523   1.953   2.338  0.1381  0.6416 -0.3865
    1SOL    HW3 4975   0.433   1.832   2.332  2.3007 -1.0166  0.2272
    1SOL    MW4 4976   0.457   1.907   2.370  0.9885 -0.4208 -0.1271
    1SOL     OW 4977   0.649   2.066   2.258 -0.2078 -0.1474 -0.1046
    1SOL    HW2 4978   0.719   2.023   2.307  2.1913  1.3581 -2.0633
    1SOL    HW3 4979   0.662   2.160   2.275 -0.3196  0.2945 -2.3104
    1SOL    MW4 4980   0.660   2.073   2.267  0.0941  0.1097 -0.6540
    1SOL     OW 4981   0.661   2.318   2.324  0.1544  0.0811 -0.2173
    1SOL    HW2 4982   0.662   2.312   2.420 -3.2796  1.9393  0.0054
    1SOL    HW3 4983   0.735   2.374   2.303 -0.0459  1.0097  1.4849
    1SOL    MW4 4984   0.671   2.324   2.334 -0.3250  0.4487  0.0367
    1SOL     OW 4985   0.456   2.479   2.257  0.4150 -0.5300  0.0517
    1SOL    HW2 4986   0.533   2.440   2.297 -0.3565 -0.6100  1.4791
    1SOL    HW3 4987   0.382   2.432   2.296 -0.4532  1.3200  0.6756
    1SOL    MW4 4988   0.456   2.468   2.267  0.1987 -0.2966  0.3221
    1SOL     OW 4989   0.501   2.745   2.346 -0.5170  0.1049 -0.1828
    1SOL    HW2 4990   0.503   2.743   2.441  0.3418  0.7272 -0.1760
    1SOL    HW3 4991   0.489   2.654   2.319 -1.7901  0.0559  0.5304
    1SOL    MW4 4992   0.500   2.733   2.355 -0.5716  0.1807 -0.0877
    1SOL     OW 4993   0.706   2.881   2.229 -0.0875  0.8174  0.2215
    1SOL    HW2 4994   0.776   2.840   2.280 -0.9710 -0.8889  0.0920
    1SOL    HW3 4995   0.626   2.836   2.257 -0.8421  1.2109 -1.2623
    1SOL    MW4 4996   0.704   2.870   2.240 -0.3036  0.6440  0.0088
    1SOL     OW 4997   0.712   3.112   2.378 -0.2237  0.1413 -0.0122
    1SOL    HW2 4998   0.636   3.153   2.338  0.2102  0.5318 -0.4479
    1SOL    HW3 4999   0.725   3.031   2.328 -0.2619  0.1534 -0.0420
    1SOL    MW4 5000   0.704   3.106   2.366 -0.1715  0.1943 -0.0739
    1SOL     OW 5001   0.477   3.220   2.296 -0.1526 -0.0631 -0.0595
    1SOL    HW2 5002   0.389   3.196   2.326 -1.1101  1.8773 -1.2599
    1SOL    HW3 5003   0.468   3.230   2.201  1.1466  1.0765 -0.0739
    1SOL    MW4 5004   0.464   3.218   2.287 -0.1075  0.3428 -0.2198
    1SOL     OW 5005   0.448   3.489   2.373  0.0508 -0.2891 -0.6646
    1SOL    HW2 5006   0.525   3.542   2.351  0.0981  0.1847  0.6208
    1SOL    HW3 5007   0.470   3.401   2.342  0.3002  0.2546 -2.0758
    1SOL    MW4 5008   0.461   3.484   2.366  0.0899 -0.1547 -0.6814
    1SOL     OW 5009   0.678   3.610   2.280  0.0475 -0.1595 -0.3122
    1SOL    HW2 5010   0.680   3.696   2.321 -0.8291 -0.6254  0.7472
    1SOL    HW3 5011   0.672   3.628   2.186  3.6992  0.9449 -0.4101
    1SOL    MW4 5012   0.677   3.624   2.273  0.4137 -0.0753 -0.1850
    1SOL     OW 5013   0.664   3.849   2.400 -0.3816 -0.1914 -0.1687
    1SOL    HW2 5014   0.680   3.857   2.495  0.5040  0.7821 -0.3925
    1SOL    HW3 5015   0.603   3.920   2.380  1.0222  0.8784 -0.6863
    1SOL    MW4 5016   0.658   3.859   2.410 -0.0795  0.0782 -0.2663
    1SOL     OW 5017   0.456   3.999   2.268  0.2867 -0.0807  0.1379
    1SOL    HW2 5018   0.374   3.962   2.302  1.5343 -2.8007  0.2593
    1SOL    HW3 5019   0.446   3.997   2.173  0.5165 -1.1116  0.1368
    1SOL    MW4 5020   0.444   3.994   2.260  0.4816 -0.5753  0.1538
    1SOL     OW 5021   0.436   4.276   2.395  0.2158  0.5841 -0.0297
    1SOL    HW2 5022   0.518   4.312   2.362  0.7876 -0.6387  0.0191
    1SOL    HW3 5023   0.432   4.188   2.357 -0.0225 -0.1658  1.6856
    1SOL    MW4 5024   0.446   4.269   2.386  0.2598  0.3242  0.2029
    1SOL     OW 5025   0.680   4.395   2.277 -0.0558 -0.1963 -0.6486
    1SOL    HW2 5026   0.659   4.487   2.296 -1.5466 -0.9135  1.3452
    1SOL    HW3 5027   0.682   4.390   2.182 -2.9608  1.2639 -0.8333
    1SOL    MW4 5028   0.678   4.407   2.267 -0.6358 -0.0978 -0.4103
    1SOL     OW 5029   1.098   4.614   2.368 -0.1310 -0.1182  0.2139
    1SOL    HW2 5030   1.104   4.614   2.463  0.7238  0.5012  0.1670
    1SOL    HW3 5031   1.023   4.671   2.349 -0.1343 -0.0253  0.5021
    1SOL    MW4 5032   1.089   4.622   2.378 -0.0186 -0.0238  0.2458
    1SOL     OW 5033   0.896   0.112   2.262  0.5978 -0.0689 -0.0966
    1SOL    HW2 5034   0.908   0.202   2.293  1.0082  0.0381 -0.5613
    1SOL    HW3 5035   0.887   0.120   2.167  1.2095 -0.5747 -0.2007
    1SOL    MW4 5036   0.896   0.125   2.253  0.7327 -0.1215 -0.1714
    1SOL     OW 5037   0.874   0.388   2.367  0.2089 -0.2475  0.0230
    1SOL    HW2 5038   0.942   0.409   2.302 -1.1370 -0.7102 -1.5796
    1SOL    HW3 5039   0.797   0.437   2.337 -0.6349 -1.0301  0.8800
    1SOL    MW4 5040   0.873   0.397   2.354 -0.0800 -0.4118 -0.0756
    1SOL     OW 5041   1.110   0.497   2.243  0.6762  0.2647 -0.0919
    1SOL    HW2 5042   1.187   0.456   2.283 -0.2011 -0.8671  0.4512
    1SOL    HW3 5043   1.129   0.498   2.149  0.2169 -2.4345 -0.2372
    1SOL    MW4 5044   1.123   0.492   2.236  0.4997 -0.2407 -0.0393
    1SOL     OW 5045   1.118   0.746   2.380 -0.0869  0.4404 -0.3701
    1SOL    HW2 5046   1.049   0.794   2.333 -0.1446  0.5488 -0.1759
    1SOL    HW3 5047   1.133   0.668   2.328  0.2915  0.8672 -0.9048
    1SOL    MW4 5048   1.111   0.742   2.367 -0.0446  0.5110 -0.4151
    1SOL     OW 5049   0.916   0.898   2.253  0.1884  0.3044  0.2312
    1SOL    HW2 5050   0.915   0.986   2.290 -1.3056  0.2429  0.3532
    1SOL    HW3 5051   0.841   0.854   2.293  0.5678 -0.8348 -0.2891
    1SOL    MW4 5052   0.906   0.904   2.263  0.0413  0.1460  0.1786
    1SOL     OW 5053   0.927   1.168   2.351 -0.0555 -0.5920 -0.4761
    1SOL    HW2 5054   0.995   1.234   2.339  0.2888 -0.7969  0.3684
    1SOL    HW3 5055   0.845   1.214   2.329  0.1551  0.1686  0.3060
    1SOL    MW4 5056   0.925   1.183   2.346  0.0177 -0.5187 -0.2611
    1SOL     OW 5057   1.141   1.331   2.266 -0.2727 -0.3490 -0.3843
    1SOL    HW2 5058   1.222   1.287   2.294  0.1436  0.2028 -0.7115
    1SOL    HW3 5059   1.142   1.324   2.170  1.0964  2.5781 -0.6483
    1SOL    MW4 5060   1.152   1.324   2.257 -0.0371  0.1099 -0.4623
    1SOL     OW 5061   1.137   1.580   2.370 -0.2922 -0.4619  0.8086
    1SOL    HW2 5062   1.050   1.612   2.345  0.1574 -0.2661 -0.5895
    1SOL    HW3 5063   1.145   1.495   2.326  1.1627  0.6357 -1.1272
    1SOL    MW4 5064   1.126   1.573   2.361 -0.0410 -0.2913  0.3688
    1SOL     OW 5065   0.895   1.680   2.283 -0.5040 -0.2443  0.0822
    1SOL    HW2 5066   0.890   1.769   2.318  2.1358  0.2415 -0.6605
    1SOL    HW3 5067   0.901   1.691   2.188  0.6934 -1.1528  0.0361
    1SOL    MW4 5068   0.895   1.693   2.275  0.0023 -0.3002 -0.0217
    1SOL     OW 5069   0.858   1.932   2.376  0.1527 -0.1559  0.0095
    1SOL    HW2 5070   0.855   1.937   2.472 -0.1440 -0.7690  0.0356
    1SOL    HW3 5071   0.919   2.001   2.351 -0.1059  0.3054  0.6130
    1SOL    MW4 5072   0.866   1.942   2.385  0.0795 -0.1758  0.0927
    1SOL     OW 5073   1.080   2.106   2.291 -0.0113  0.0536  0.0117
    1SOL    HW2 5074   1.150   2.053   2.330  1.3029  1.3740 -0.4938
    1SOL    HW3 5075   1.105   2.113   2.199  0.3033  2.2567  0.2440
    1SOL    MW4 5076   1.093   2.100   2.284  0.2037  0.5186 -0.0246
    1SOL     OW 5077   1.064   2.370   2.386 -0.6782 -0.0421  0.1956
    1SOL    HW2 5078   1.133   2.412   2.334  1.2706 -0.6152  2.2619
    1SOL    HW3 5079   1.054   2.284   2.346 -0.1076 -0.0132 -0.0158
    1SOL    MW4 5080   1.072   2.365   2.374 -0.3457 -0.1140  0.4404
    1SOL     OW 5081   0.856   2.525   2.292  0.3914  0.0269 -0.3400
    1SOL    HW2 5082   0.930   2.472   2.324  1.0599  0.3312 -1.3482
    1SOL    HW3 5083   0.859   2.514   2.197 -0.6972  0.2800 -0.4095
    1SOL    MW4 5084   0.866   2.516   2.284  0.3359  0.1004 -0.4823
    1SOL     OW 5085   0.914   2.771   2.385  0.2321  0.0843  0.0080
    1SOL    HW2 5086   0.910   2.745   2.477  0.2576  0.1787  0.0356
    1SOL    HW3 5087   0.909   2.688   2.337 -0.2449  0.0706  0.0841
    1SOL    MW4 5088   0.913   2.757   2.391  0.1726  0.0949  0.0215
    1SOL     OW 5089   1.122   2.887   2.252 -0.1317  0.1375  0.9891
    1SOL    HW2 5090   1.202   2.848   2.288  0.3239  0.3575  0.2165
    1SOL    HW3 5091   1.051   2.850   2.306  0.4542 -0.3425  1.4369
    1SOL    MW4 5092   1.123   2.877   2.264  0.0057  0.1030  0.9465
    1SOL     OW 5093   1.109   3.126   2.400 -0.1159 -0.0391  0.1674
    1SOL    HW2 5094   1.043   3.178   2.354  1.1186 -0.4046 -2.0909
    1SOL    HW3 5095   1.106   3.040   2.357  1.1924 -0.3371  0.6568
    1SOL    MW4 5096   1.100   3.121   2.388  0.2197 -0.1268 -0.0660
    1SOL     OW 5097   0.897   3.276   2.254 -0.3811  0.1763 -0.3051
    1SOL    HW2 5098   0.891   3.364   2.292  0.0826 -0.1004  0.4429
    1SOL    HW3 5099   0.825   3.228   2.294  0.8685 -0.4676  1.2286
    1SOL    MW4 5100   0.887   3.282   2.265 -0.1550  0.0546 -0.0041
    1SOL     OW 5101   0.908   3.503   2.395 -0.3299 -0.5494  0.2377
    1SOL    HW2 5102   0.905   3.496   2.490 -0.0928  1.8307  0.4579
    1SOL    HW3 5103   0.833   3.558   2.372  0.5801  0.3200 -0.7628
    1SOL    MW4 5104   0.898   3.509   2.405 -0.1785 -0.1206  0.1347
    1SOL     OW 5105   1.156   3.614   2.277  0.1241 -0.6353 -0.2428
    1SOL    HW2 5106   1.236   3.575   2.314  0.6899  0.3023 -0.4481
    1SOL    HW3 5107   1.085   3.576   2.328  0.7919 -0.5260  0.7893
    1SOL    MW4 5108   1.157   3.604   2.289  0.2869 -0.4973 -0.1335
    1SOL     OW 5109   1.123   3.866   2.358 -0.2715  0.1310  0.3143
    1SOL    HW2 5110   1.209   3.903   2.337  0.3705 -1.8462 -0.6038
    1SOL    HW3 5111   1.131   3.773   2.337 -3.0811  0.1739 -1.0673
    1SOL    MW4 5112   1.136   3.859   2.353 -0.5575 -0.1242  0.0107
    1SOL     OW 5113   0.856   3.962   2.252 -0.0144 -0.3804  0.1953
    1SOL    HW2 5114   0.941   3.926   2.277 -0.3806 -0.2986  1.6039
    1SOL    HW3 5115   0.793   3.905   2.296 -0.6614  0.0401 -0.1938
    1SOL    MW4 5116   0.859   3.950   2.261 -0.1482 -0.3142  0.3300
    1SOL     OW 5117   0.879   4.230   2.364 -0.1872  0.2130  0.0244
    1SOL    HW2 5118   0.863   4.149   2.317  0.7881  0.3384 -0.5408
    1SOL    HW3 5119   0.809   4.289   2.337 -0.1757 -0.0295 -0.5258
    1SOL    MW4 5120   0.868   4.227   2.354 -0.0570  0.1974 -0.1230
    1SOL     OW 5121   1.111   4.371   2.239  0.0859 -0.0271  0.5631
    1SOL    HW2 5122   1.030   4.323   2.255 -0.2986  0.1801 -0.7241
    1SOL    HW3 5123   1.098   4.455   2.283 -0.6183  0.2078 -0.0827
    1SOL    MW4 5124   1.099   4.376   2.247 -0.0578  0.0315  0.3080
    1SOL     OW 5125   1.566   4.625   2.387 -0.1885 -0.2702  0.5824
    1SOL    HW2 5126   1.642   4.675   2.359 -1.2632  0.8926 -0.3084
    1SOL    HW3 5127   1.492   4.666   2.343 -1.4991 -0.5873  2.3954
    1SOL    MW4 5128   1.566   4.637   2.378 -0.5033 -0.1588  0.7045
    1SOL     OW 5129   1.336   0.096   2.264  0.0939 -0.1871  0.6269
    1SOL    HW2 5130   1.368   0.176   2.305 -0.2341  0.4886 -0.4161
    1SOL    HW3 5131   1.250   0.082   2.302 -0.5917  0.9328 -0.4520
    1SOL    MW4 5132   1.329   0.105   2.274 -0.0399  0.0498  0.3467
    1SOL     OW 5133   1.345   0.357   2.368  0.1955 -0.0278  0.3956
    1SOL    HW2 5134   1.352   0.350   2.463  3.0626  0.6187  0.2648
    1SOL    HW3 5135   1.418   0.413   2.342 -1.1228  0.6238 -2.1066
    1SOL    MW4 5136   1.356   0.363   2.377  0.3998  0.1435  0.0486
    1SOL     OW 5137   1.559   0.513   2.293 -0.0226 -0.2764 -0.7837
    1SOL    HW2 5138   1.638   0.476   2.331 -0.1913 -0.1955 -0.3467
    1SOL    HW3 5139   1.571   0.506   2.199 -0.1842 -1.7002 -0.6969
    1SOL    MW4 5140   1.571   0.507   2.286 -0.0663 -0.4535 -0.7145
    1SOL     OW 5141   1.551   0.779   2.392 -0.2675  0.4723  0.0739
    1SOL    HW2 5142   1.631   0.820   2.358 -0.6042  0.9802 -0.1039
    1SOL    HW3 5143   1.550   0.692   2.351  0.8408 -0.0089  1.0435
    1SOL    MW4 5144   1.562   0.773   2.382 -0.1656  0.4759  0.1786
    1SOL     OW 5145   1.326   0.906   2.297 -0.2767  0.1107 -0.1397
    1SOL    HW2 5146   1.395   0.868   2.352 -1.9348 -1.3327  1.0271
    1SOL    HW3 5147   1.247   0.859   2.323 -1.5472  1.1185 -2.0740
    1SOL    MW4 5148   1.325   0.895   2.308 -0.6630  0.0532 -0.2410
    1SOL     OW 5149   1.376   1.176   2.361 -0.2440  0.3999 -0.3385
    1SOL    HW2 5150   1.368   1.166   2.456 -1.1128  1.4131 -0.2990
    1SOL    HW3 5151   1.358   1.088   2.327  0.6547 -0.1092  0.4551
    1SOL    MW4 5152   1.373   1.163   2.369 -0.2400  0.4666 -0.2284
    1SOL     OW 5153   1.610   1.286   2.270 -0.6246  0.1620  0.0636
    1SOL    HW2 5154   1.529   1.244   2.299 -1.2553  0.0171 -1.7905
    1SOL    HW3 5155   1.620   1.257   2.178  0.9267  1.0765 -0.0733
    1SOL    MW4 5156   1.601   1.276   2.261 -0.5031  0.2636 -0.1991
    1SOL     OW 5157   1.568   1.530   2.372  0.1774 -0.6109 -0.3312
    1SOL    HW2 5158   1.640   1.581   2.336 -0.4774 -1.0457 -2.3407
    1SOL    HW3 5159   1.574   1.446   2.328 -1.9570 -0.4079 -1.0727
    1SOL    MW4 5160   1.578   1.526   2.362 -0.1907 -0.6413 -0.6940
    1SOL     OW 5161   1.355   1.678   2.278 -0.3654 -0.1439  0.2128
    1SOL    HW2 5162   1.429   1.630   2.316  0.2157  1.1757  0.7829
    1SOL    HW3 5163   1.278   1.644   2.325  0.1169 -0.0313  1.0957
    1SOL    MW4 5164   1.354   1.667   2.289 -0.2251  0.0451  0.4048
    1SOL     OW 5165   1.281   1.928   2.367  0.0293  0.4664 -0.6011
    1SOL    HW2 5166   1.355   1.981   2.337  2.1168 -1.6022  0.7244
    1SOL    HW3 5167   1.290   1.846   2.319 -0.5750 -0.3235  0.6333
    1SOL    MW4 5168   1.292   1.924   2.356  0.2248  0.0893 -0.2635
    1SOL     OW 5169   1.506   2.103   2.287  0.1287  0.0639  0.1716
    1SOL    HW2 5170   1.568   2.043   2.328 -1.0224 -1.7825 -0.7245
    1SOL    HW3 5171   1.526   2.098   2.193 -1.8295 -1.1494 -0.2179
    1SOL    MW4 5172   1.517   2.094   2.280 -0.2816 -0.3400  0.0021
    1SOL     OW 5173   1.545   2.360   2.371  0.0947 -0.0941 -0.1524
    1SOL    HW2 5174   1.549   2.345   2.465  0.9245  0.9568 -0.0111
    1SOL    HW3 5175   1.533   2.273   2.333 -0.0126 -0.5451  0.9095
    1SOL    MW4 5176   1.544   2.347   2.378  0.1901 -0.0148  0.0064
    1SOL     OW 5177   1.291   2.480   2.265 -0.3503  0.3657  0.5511
    1SOL    HW2 5178   1.365   2.426   2.293 -0.7249  0.2245  1.2900
    1SOL    HW3 5179   1.302   2.490   2.171 -0.2171 -0.8949  0.4348
    1SOL    MW4 5180   1.302   2.474   2.256 -0.3821  0.1812  0.6332
    1SOL     OW 5181   1.342   2.772   2.338  0.0670 -0.1336  0.5876
    1SOL    HW2 5182   1.427   2.808   2.311 -0.1923  0.5979  0.7185
    1SOL    HW3 5183   1.344   2.681   2.309  0.9771 -0.1819  0.7609
    1SOL    MW4 5184   1.354   2.765   2.331  0.1529 -0.0432  0.6280
    1SOL     OW 5185   1.591   2.876   2.235  0.5986  0.2455  0.2181
    1SOL    HW2 5186   1.598   2.957   2.286  1.2799  0.0818  0.3833
    1SOL    HW3 5187   1.588   2.906   2.144  0.3284  0.4855  0.3035
    1SOL    MW4 5188   1.591   2.891   2.229  0.6529  0.2556  0.2511
    1SOL     OW 5189   1.598   3.122   2.341 -0.2458 -0.1219 -0.4908
    1SOL    HW2 5190   1.609   3.136   2.435 -0.9703  0.0440 -0.4325
    1SOL    HW3 5191   1.516   3.166   2.319  0.2032  0.3186 -1.3046
    1SOL    MW4 5192   1.589   3.130   2.351 -0.2822 -0.0417 -0.5903
    1SOL     OW 5193   1.345   3.244   2.289  0.0299  0.1160  0.4097
    1SOL    HW2 5194   1.262   3.206   2.318 -0.4444  1.2097  0.4747
    1SOL    HW3 5195   1.339   3.247   2.194  0.6783 -1.3498  0.2968
    1SOL    MW4 5196   1.334   3.239   2.281  0.0528  0.0670  0.4034
    1SOL     OW 5197   1.358   3.486   2.438 -0.2328  0.0634 -0.2205
    1SOL    HW2 5198   1.354   3.465   2.532 -0.6405  0.9111 -0.0440
    1SOL    HW3 5199   1.360   3.401   2.395 -0.6652 -0.3389  0.5359
    1SOL    MW4 5200   1.358   3.472   2.445 -0.3438  0.1223 -0.0973
    1SOL     OW 5201   1.590   3.592   2.291  0.5537  0.5250  0.2277
    1SOL    HW2 5202   1.613   3.678   2.325 -0.8994  1.5770 -1.4188
    1SOL    HW3 5203   1.509   3.568   2.337  0.0534  0.7626 -0.5339
    1SOL    MW4 5204   1.583   3.600   2.302  0.2959  0.6950 -0.0899
    1SOL     OW 5205   1.612   3.853   2.368  0.4792  0.3503 -0.1154
    1SOL    HW2 5206   1.617   3.858   2.463 -0.1533  1.1334 -0.1157
    1SOL    HW3 5207   1.672   3.922   2.338 -1.2022  1.7937 -0.2438
    1SOL    MW4 5208   1.620   3.863   2.376  0.1739  0.6440 -0.1326
    1SOL     OW 5209   1.367   3.980   2.307 -0.1719  0.5201 -0.4509
    1SOL    HW2 5210   1.453   3.940   2.321  0.4317  1.1619 -2.1250
    1SOL    HW3 5211   1.367   4.002   2.213 -1.2855  2.5415  0.0010
    1SOL    MW4 5212   1.379   3.978   2.296 -0.2393  0.8712 -0.6125
    1SOL     OW 5213   1.338   4.258   2.380  0.0235 -0.5523 -0.1316
    1SOL    HW2 5214   1.337   4.163   2.365  1.8139 -0.4037 -1.4164
    1SOL    HW3 5215   1.261   4.291   2.333 -1.4509 -1.5073  1.5492
    1SOL    MW4 5216   1.328   4.250   2.372  0.0652 -0.6590 -0.0794
    1SOL     OW 5217   1.600   4.376   2.281 -0.2095  0.4457 -0.8989
    1SOL    HW2 5218   1.527   4.330   2.322  0.9800 -0.5528  0.1621
    1SOL    HW3 5219   1.594   4.466   2.315 -0.1342  0.0110  0.2904
    1SOL    MW4 5220   1.590   4.382   2.291 -0.0427  0.2561 -0.6020
    1SOL     OW 5221   2.017   4.646   2.371 -0.4037 -0.0967  0.2859
    1SOL    HW2 5222   2.014   4.643   2.466 -1.4581  0.9582  0.3006
    1SOL    HW3 5223   2.036   4.556   2.344  0.3576 -0.3105  1.4900
    1SOL    MW4 5224   2.019   4.634   2.380 -0.4423  0.0138  0.4466
    1SOL     OW 5225   1.779   0.088   2.276  0.3769 -0.3023 -0.2246
    1SOL    HW2 5226   1.788   0.173   2.318 -0.0998  1.2211 -3.1090
    1SOL    HW3 5227   1.860   0.041   2.298  0.3192  0.6089  1.9661
    1SOL    MW4 5228   1.791   0.093   2.284  0.3062  0.0189 -0.3161
    1SOL     OW 5229   1.773   0.342   2.380 -0.5580  0.1577  0.6946
    1SOL    HW2 5230   1.792   0.361   2.472 -0.2592  0.9192  0.4757
    1SOL    HW3 5231   1.843   0.385   2.331 -1.1289  0.3731  0.0650
    1SOL    MW4 5232   1.785   0.350   2.386 -0.5939  0.2866  0.5825
    1SOL     OW 5233   1.996   0.438   2.244 -0.2012 -0.0171 -0.0892
    1SOL    HW2 5234   1.994   0.527   2.281  2.0121 -0.1140  0.3077
    1SOL    HW3 5235   2.003   0.452   2.150  0.2323  0.2380 -0.0203
    1SOL    MW4 5236   1.996   0.452   2.237  0.1479  0.0038 -0.0279
    1SOL     OW 5237   1.988   0.712   2.331  0.4389 -0.9427  0.2652
    1SOL    HW2 5238   2.067   0.765   2.325 -0.7467  0.9027  0.6757
    1SOL    HW3 5239   1.917   0.771   2.308 -0.9241 -2.3338  0.7805
    1SOL    MW4 5240   1.989   0.727   2.327  0.1028 -0.8828  0.3872
    1SOL     OW 5241   1.774   0.889   2.256 -0.5322 -0.1129 -0.3367
    1SOL    HW2 5242   1.796   0.977   2.287 -0.1062  0.1781 -1.4512
    1SOL    HW3 5243   1.782   0.894   2.161 -0.4807 -1.3636 -0.4089
    1SOL    MW4 5244   1.778   0.901   2.247 -0.4692 -0.2395 -0.4933
    1SOL     OW 5245   1.812   1.121   2.393  0.0353 -0.1069  0.1031
    1SOL    HW2 5246   1.887   1.152   2.343 -1.2043 -1.8630 -3.0543
    1SOL    HW3 5247   1.740   1.178   2.367 -0.1501  0.3737  1.6374
    1SOL    MW4 5248   1.812   1.132   2.383 -0.1527 -0.2753 -0.1111
    1SOL     OW 5249   2.003   1.291   2.274  0.6160  0.2872 -0.0151
    1SOL    HW2 5250   1.988   1.374   2.319  0.0617  0.2958 -0.2102
    1SOL    HW3 5251   2.087   1.260   2.308 -0.0441  0.0311  1.4035
    1SOL    MW4 5252   2.012   1.298   2.284  0.4559  0.2548  0.1464
    1SOL     OW 5253   2.006   1.566   2.338 -0.0070  0.0615  0.0467
    1SOL    HW2 5254   2.001   1.550   2.432  2.1084  1.2196  0.3983
    1SOL    HW3 5255   1.932   1.624   2.320  0.0267  0.4729  1.1597
    1SOL    MW4 5256   1.996   1.571   2.348  0.2766  0.2686  0.2401
    1SOL     OW 5257   1.775   1.699   2.270  0.5117 -0.2340 -0.3406
    1SOL    HW2 5258   1.751   1.786   2.300  3.1086  0.0500  1.0695
    1SOL    HW3 5259   1.786   1.708   2.176 -2.9749  0.0067 -0.7989
    1SOL    MW4 5260   1.773   1.712   2.262  0.3943 -0.1647 -0.2146
    1SOL     OW 5261   1.722   1.956   2.355  0.2346  0.7861  0.3027
    1SOL    HW2 5262   1.745   1.954   2.448  0.6568  0.8885  0.2054
    1SOL    HW3 5263   1.790   2.011   2.315 -1.2705  2.6675  0.2911
    1SOL    MW4 5264   1.734   1.963   2.362  0.0918  1.0478  0.2885
    1SOL     OW 5265   1.987   2.106   2.240 -0.1203 -0.1516 -0.4765
    1SOL    HW2 5266   2.062   2.074   2.291  0.4518  0.4536 -0.9427
    1SOL    HW3 5267   2.014   2.097   2.149 -1.6518 -2.4979 -0.7417
    1SOL    MW4 5268   2.000   2.100   2.235 -0.2470 -0.3815 -0.5729
    1SOL     OW 5269   2.016   2.359   2.368 -0.3974  0.1041  0.3187
    1SOL    HW2 5270   2.079   2.411   2.319 -1.2943  1.1825  0.2655
    1SOL    HW3 5271   2.007   2.278   2.319  2.8736 -1.1881  1.7135
    1SOL    MW4 5272   2.023   2.355   2.355 -0.0842  0.0761  0.4954
    1SOL     OW 5273   1.783   2.488   2.269 -0.0016  0.1467 -0.2664
    1SOL    HW2 5274   1.862   2.451   2.308 -0.2131 -0.9376 -0.8512
    1SOL    HW3 5275   1.712   2.433   2.301 -0.5826  1.3594  0.5770
    1SOL    MW4 5276   1.784   2.476   2.278 -0.1061  0.1638 -0.2322
    1SOL     OW 5277   1.775   2.721   2.399  0.4357 -0.1532  0.4731
    1SOL    HW2 5278   1.769   2.641   2.346  0.5133 -0.4880  0.9740
    1SOL    HW3 5279   1.727   2.787   2.348  0.7452 -0.4024 -0.1539
    1SOL    MW4 5280   1.768   2.719   2.385  0.4867 -0.2301  0.4566
    1SOL     OW 5281   1.979   2.813   2.241 -0.4110 -0.1174 -0.0709
    1SOL    HW2 5282   2.063   2.784   2.277  0.1888  2.2271  0.4595
    1SOL    HW3 5283   1.913   2.774   2.299  0.4619  1.3760  1.9752
    1SOL    MW4 5284   1.981   2.804   2.253 -0.2168  0.3889  0.2689
    1SOL     OW 5285   1.981   3.048   2.391 -0.1584  0.3712 -0.0899
    1SOL    HW2 5286   2.064   3.087   2.361  1.0953 -1.3699  0.9849
    1SOL    HW3 5287   1.974   2.967   2.340 -1.0104  0.3164  0.1186
    1SOL    MW4 5288   1.991   3.042   2.380 -0.1055  0.1345  0.0794
    1SOL     OW 5289   1.822   3.218   2.227 -0.2387 -0.2385 -0.1229
    1SOL    HW2 5290   1.884   3.161   2.272 -0.7251 -0.5720  0.1284
    1SOL    HW3 5291   1.737   3.199   2.268 -0.4925  0.2804 -0.3981
    1SOL    MW4 5292   1.819   3.208   2.238 -0.3363 -0.2143 -0.1259
    1SOL     OW 5293   1.832   3.476   2.338  0.2850  0.6463 -0.3685
    1SOL    HW2 5294   1.838   3.392   2.293  0.3758  0.4954 -0.0751
    1SOL    HW3 5295   1.743   3.507   2.318  0.0488  0.2148 -0.0144
    1SOL    MW4 5296   1.821   3.469   2.330  0.2656  0.5696 -0.2830
    1SOL     OW 5297   2.067   3.632   2.263 -0.4048 -0.2855 -0.0900
    1SOL    HW2 5298   1.993   3.572   2.274 -0.4750 -0.1458  0.2053
    1SOL    HW3 5299   2.088   3.627   2.170 -0.4558 -0.7138 -0.0792
    1SOL    MW4 5300   2.060   3.623   2.252 -0.4208 -0.3235 -0.0496
    1SOL     OW 5301   2.066   3.882   2.397 -0.5605 -0.2275 -0.0123
    1SOL    HW2 5302   2.071   3.876   2.492 -1.0110 -2.1166 -0.0817
    1SOL    HW3 5303   2.059   3.791   2.368  0.9886  0.2366 -1.9318
    1SOL    MW4 5304   2.065   3.869   2.406 -0.4153 -0.4158 -0.2747
    1SOL     OW 5305   1.831   4.024   2.314  0.1301  0.1698  0.2265
    1SOL    HW2 5306   1.916   3.992   2.344  1.0395  2.6086  0.3584
    1SOL    HW3 5307   1.840   4.032   2.219 -0.7978 -1.9579 -0.0517
    1SOL    MW4 5308   1.843   4.021   2.305  0.1278  0.2112  0.2072
    1SOL     OW 5309   1.827   4.277   2.389 -0.3125 -0.0354  0.2222
    1SOL    HW2 5310   1.823   4.187   2.356 -0.2962 -0.0314  0.2098
    1SOL    HW3 5311   1.751   4.320   2.349  0.5209  0.3610 -0.9705
    1SOL    MW4 5312   1.816   4.271   2.379 -0.2004  0.0176  0.0629
    1SOL     OW 5313   2.071   4.368   2.301 -0.0751 -0.0455 -0.1319
    1SOL    HW2 5314   1.990   4.354   2.349  0.4586  2.5147  1.6006
    1SOL    HW3 5315   2.044   4.374   2.209 -1.8123  0.7669  0.4218
    1SOL    MW4 5316   2.057   4.367   2.295 -0.2341  0.3996  0.1698
    1SOL     OW 5317   2.510   4.632   2.401  0.3172  0.1394  0.0506
    1SOL    HW2 5318   2.584   4.680   2.364  0.1194 -1.4293 -2.4609
    1SOL    HW3 5319   2.433   4.674   2.362 -0.0701  0.6351  1.3100
    1SOL    MW4 5320   2.509   4.644   2.391  0.2398 -0.0019 -0.1144
    1SOL     OW 5321   2.277   0.091   2.291 -0.4181  0.0078 -0.7597
    1SOL    HW2 5322   2.283   0.184   2.314  0.3863 -0.3699  0.6298
    1SOL    HW3 5323   2.186   0.067   2.312 -0.3817  0.2724 -0.2960
    1SOL    MW4 5324   2.266   0.100   2.297 -0.3068 -0.0071 -0.5152
    1SOL     OW 5325   2.232   0.349   2.357  0.1747 -0.3449 -0.9027
    1SOL    HW2 5326   2.301   0.405   2.322  1.0472  0.3794  1.9065
    1SOL    HW3 5327   2.152   0.380   2.315  0.9700  1.4611 -1.1106
    1SOL    MW4 5328   2.231   0.360   2.347  0.3946 -0.0111 -0.5598
    1SOL     OW 5329   2.457   0.491   2.274 -0.4976 -0.1396  0.4656
    1SOL    HW2 5330   2.541   0.452   2.297 -0.1834  0.0070 -0.4513
    1SOL    HW3 5331   2.457   0.497   2.179 -0.6170  1.9166  0.5577
    1SOL    MW4 5332   2.468   0.487   2.265 -0.4721  0.1510  0.3569
    1SOL     OW 5333   2.460   0.753   2.371 -0.3848 -0.2184  0.2268
    1SOL    HW2 5334   2.535   0.797   2.331 -0.7890  0.9594  0.7369
    1SOL    HW3 5335   2.465   0.663   2.340  0.8289  0.0338 -0.3212
    1SOL    MW4 5336   2.470   0.747   2.362 -0.2778 -0.0297  0.2217
    1SOL     OW 5337   2.212   0.880   2.291  0.2064  0.2826 -0.1940
    1SOL    HW2 5338   2.219   0.973   2.314  0.3376  0.3741 -0.5873
    1SOL    HW3 5339   2.289   0.840   2.330  0.7490  0.5447 -0.9857
    1SOL    MW4 5340   2.223   0.887   2.299  0.2952  0.3293 -0.3502
    1SOL     OW 5341   2.229   1.154   2.349  0.3075  0.5078  0.1136
    1SOL    HW2 5342   2.291   1.208   2.299  0.2549  0.2748 -0.2046
    1SOL    HW3 5343   2.250   1.172   2.441 -0.1523  1.5823  0.0139
    1SOL    MW4 5344   2.240   1.164   2.355  0.2401  0.6189  0.0584
    1SOL     OW 5345   2.460   1.282   2.269  0.1189  0.5949  0.2594
    1SOL    HW2 5346   2.534   1.241   2.312 -0.8942 -0.3793  1.1061
    1SOL    HW3 5347   2.464   1.374   2.295  1.0192  0.5453  0.2967
    1SOL    MW4 5348   2.470   1.289   2.278  0.1040  0.4599  0.3762
    1SOL     OW 5349   2.470   1.556   2.337  0.3395 -0.1328 -0.3127
    1SOL    HW2 5350   2.453   1.573   2.430  0.7897 -0.0794 -0.2387
    1SOL    HW3 5351   2.555   1.597   2.320 -0.1547  0.6341 -0.9727
    1SOL    MW4 5352   2.479   1.563   2.347  0.3335 -0.0246 -0.3901
    1SOL     OW 5353   2.223   1.703   2.254 -0.4130 -0.1210  0.6531
    1SOL    HW2 5354   2.297   1.654   2.289 -1.2285 -1.5591  0.4306
    1SOL    HW3 5355   2.147   1.649   2.275 -1.2722  0.7639 -0.1400
    1SOL    MW4 5356   2.223   1.689   2.261 -0.6340 -0.1942  0.5193
    1SOL     OW 5357   2.202   1.961   2.361 -0.1663  0.0802 -0.2332
    1SOL    HW2 5358   2.287   2.003   2.346 -0.3117  0.2343 -0.6456
    1SOL    HW3 5359   2.212   1.874   2.322 -0.3385  0.2550 -0.6731
    1SOL    MW4 5360   2.215   1.955   2.354 -0.2081  0.1236 -0.3457
    1SOL     OW 5361   2.440   2.072   2.273 -0.1237  0.2549  0.0721
    1SOL    HW2 5362   2.529   2.039   2.282 -1.2217 -2.4856  1.5843
    1SOL    HW3 5363   2.417   2.054   2.182  0.3197 -0.4947  0.1060
    1SOL    MW4 5364   2.448   2.065   2.262 -0.2100 -0.2058  0.2761
    1SOL     OW 5365   2.426   2.328   2.361 -0.0807  0.0923  0.2373
    1SOL    HW2 5366   2.505   2.371   2.329  0.1531 -0.8090 -0.4111
    1SOL    HW3 5367   2.438   2.236   2.339 -1.6923  0.0724 -0.6312
    1SOL    MW4 5368   2.438   2.322   2.354 -0.2623 -0.0293  0.0372
    1SOL     OW 5369   2.210   2.486   2.220 -0.4687  0.5541 -0.1347
    1SOL    HW2 5370   2.216   2.560   2.281 -1.1917  0.6551 -0.1848
    1SOL    HW3 5371   2.269   2.420   2.257 -0.3042  0.9133  0.2519
    1SOL    MW4 5372   2.218   2.487   2.233 -0.5424  0.6146 -0.0899
    1SOL     OW 5373   2.193   2.702   2.384 -0.2116 -0.4804  0.1583
    1SOL    HW2 5374   2.216   2.687   2.476 -0.1297  2.1291  0.5862
    1SOL    HW3 5375   2.263   2.756   2.350 -1.5027  0.6357 -0.7788
    1SOL    MW4 5376   2.205   2.707   2.392 -0.3712  0.0112  0.0911
    1SOL     OW 5377   2.403   2.813   2.235 -0.0038 -0.4310  0.0063
    1SOL    HW2 5378   2.477   2.772   2.280  0.9119  0.4960 -0.6624
    1SOL    HW3 5379   2.437   2.838   2.150 -1.3958 -0.9981 -0.7367
    1SOL    MW4 5380   2.417   2.811   2.230 -0.0663 -0.3834 -0.1802
    1SOL     OW 5381   2.408   3.069   2.380  0.4872 -0.2470 -0.0619
    1SOL    HW2 5382   2.492   3.106   2.352  0.3955 -0.9537 -1.3224
    1SOL    HW3 5383   2.407   2.981   2.342  0.4564 -1.3673  2.4047
    1SOL    MW4 5384   2.419   3.062   2.371  0.4709 -0.4880  0.0970
    1SOL     OW 5385   2.179   3.195   2.258 -0.5298  0.0966  0.1781
    1SOL    HW2 5386   2.197   3.286   2.281 -0.1660  0.1748 -0.4071
    1SOL    HW3 5387   2.245   3.145   2.307 -0.8642  0.1276  0.6664
    1SOL    MW4 5388   2.190   3.201   2.267 -0.5260  0.1111  0.1655
    1SOL     OW 5389   2.248   3.452   2.349 -0.1887 -0.1018 -0.6511
    1SOL    HW2 5390   2.263   3.474   2.441  1.1820  1.3363 -1.1885
    1SOL    HW3 5391   2.178   3.511   2.321 -1.9851 -1.8796 -0.0478
    1SOL    MW4 5392   2.241   3.463   2.358 -0.2449 -0.1464 -0.6423
    1SOL     OW 5393   2.480   3.590   2.255  0.0096  0.3696  0.3279
    1SOL    HW2 5394   2.478   3.681   2.283  0.4413  0.4873 -0.0208
    1SOL    HW3 5395   2.404   3.550   2.298  0.8456  0.4683  1.8914
    1SOL    MW4 5396   2.470   3.597   2.264  0.1769  0.3984  0.4883
    1SOL     OW 5397   2.491   3.831   2.394 -0.2000  0.4559 -0.6431
    1SOL    HW2 5398   2.465   3.838   2.486  0.4143  2.8038 -0.6032
    1SOL    HW3 5399   2.435   3.896   2.350  0.7992  0.6532 -1.6206
    1SOL    MW4 5400   2.480   3.841   2.401  0.0126  0.7920 -0.7668
    1SOL     OW 5401   2.312   3.987   2.270  0.3889 -0.1928  0.4782
    1SOL    HW2 5402   2.308   4.079   2.298 -0.4287  0.2994 -1.2065
    1SOL    HW3 5403   2.240   3.945   2.316  0.2271  0.1951  0.5785
    1SOL    MW4 5404   2.302   3.994   2.280  0.2596 -0.0770  0.2689
    1SOL     OW 5405   2.315   4.257   2.367 -0.0430  0.3541 -0.3720
    1SOL    HW2 5406   2.316   4.263   2.463 -1.6762 -0.1361 -0.3033
    1SOL    HW3 5407   2.230   4.295   2.342 -0.2923 -0.9269 -1.5067
    1SOL    MW4 5408   2.304   4.263   2.376 -0.2911  0.1206 -0.5126
    1SOL     OW 5409   2.538   4.399   2.265  0.2419 -0.3180 -0.8503
    1SOL    HW2 5410   2.542   4.489   2.296  0.6680 -0.6559  0.0953
    1SOL    HW3 5411   2.453   4.366   2.294  0.6199 -0.6192 -0.0817
    1SOL    MW4 5412   2.528   4.406   2.273  0.3479 -0.4029 -0.6239
    1SOL     OW 5413   2.954   4.623   2.386  0.4493  0.1749 -0.6314
    1SOL    HW2 5414   3.037   4.663   2.359  0.8002 -0.5025 -0.5774
    1SOL    HW3 5415   2.962   4.532   2.358 -0.2799  0.1102 -0.6204
    1SOL    MW4 5416   2.966   4.616   2.379  0.3991  0.0768 -0.6230
    1SOL     OW 5417   2.725   0.093   2.282 -0.2137 -0.6140  0.1594
    1SOL    HW2 5418   2.723   0.179   2.325 -1.5621 -1.6283  2.2413
    1SOL    HW3 5419   2.800   0.048   2.321  0.4638 -0.4116 -0.8943
    1SOL    MW4 5420   2.735   0.098   2.293 -0.3023 -0.7211  0.2952
    1SOL     OW 5421   2.689   0.350   2.378 -0.1681 -0.3740 -0.2307
    1SOL    HW2 5422   2.668   0.345   2.472  0.4638  0.3909 -0.0415
    1SOL    HW3 5423   2.768   0.404   2.374  0.0048 -0.6868 -1.1833
    1SOL    MW4 5424   2.697   0.356   2.390 -0.0618 -0.3144 -0.3316
    1SOL     OW 5425   2.915   0.492   2.319  0.0661  0.6027 -0.3336
    1SOL    HW2 5426   2.911   0.585   2.340 -0.1065  0.6444 -0.5539
    1SOL    HW3 5427   2.913   0.488   2.224 -0.3530  0.3545 -0.3162
    1SOL    MW4 5428   2.915   0.504   2.309 -0.0122  0.5754 -0.3605
    1SOL     OW 5429   2.916   0.762   2.373 -0.3550  0.3733 -0.0979
    1SOL    HW2 5430   2.917   0.764   2.469 -0.0214 -0.3020 -0.0851
    1SOL    HW3 5431   2.843   0.820   2.349 -0.9911 -0.1341  0.5866
    1SOL    MW4 5432   2.906   0.770   2.383 -0.3951  0.2172 -0.0060
    1SOL     OW 5433   2.698   0.899   2.285 -0.3102 -0.1497  0.1308
    1SOL    HW2 5434   2.685   0.985   2.325  2.2507  0.2794  0.1136
    1SOL    HW3 5435   2.698   0.917   2.191 -1.0148 -0.3598  0.0903
    1SOL    MW4 5436   2.696   0.913   2.278 -0.0653 -0.1208  0.1233
    1SOL     OW 5437   2.678   1.145   2.380 -0.1247 -0.2751 -0.2124
    1SOL    HW2 5438   2.676   1.143   2.475 -1.4453  0.4238 -0.2189
    1SOL    HW3 5439   2.754   1.199   2.359 -0.7992  0.9583  0.4672
    1SOL    MW4 5440   2.688   1.152   2.390 -0.3877 -0.0201 -0.1237
    1SOL     OW 5441   2.926   1.299   2.311  0.1673 -0.0330  0.2395
    1SOL    HW2 5442   3.006   1.258   2.345  0.5343  1.1256  0.8383
    1SOL    HW3 5443   2.934   1.292   2.216  0.3194 -1.1387  0.3300
    1SOL    MW4 5444   2.938   1.293   2.303  0.2358 -0.0260  0.3302
    1SOL     OW 5445   2.967   1.570   2.360  0.2371 -0.6527 -0.3494
    1SOL    HW2 5446   2.953   1.572   2.454  2.0697 -0.7301 -0.0587
    1SOL    HW3 5447   2.959   1.478   2.336  1.5240 -0.8627  0.0157
    1SOL    MW4 5448   2.964   1.558   2.369  0.6487 -0.6905 -0.2627
    1SOL     OW 5449   2.702   1.679   2.279  0.2844 -0.3170 -0.3536
    1SOL    HW2 5450   2.790   1.658   2.311  0.2563 -0.0653 -0.1143
    1SOL    HW3 5451   2.708   1.669   2.184 -0.0225 -2.5100 -0.1593
    1SOL    MW4 5452   2.714   1.675   2.271  0.2403 -0.5732 -0.2961
    1SOL     OW 5453   2.678   1.963   2.341 -0.2681 -0.3408 -0.1763
    1SOL    HW2 5454   2.663   1.972   2.435 -0.0310  0.5996 -0.2256
    1SOL    HW3 5455   2.677   1.869   2.325  2.2597 -0.6321  1.1968
    1SOL    MW4 5456   2.676   1.952   2.351  0.0966 -0.2552 -0.0017
    1SOL     OW 5457   2.925   2.079   2.256 -0.0182 -0.2907 -0.4235
    1SOL    HW2 5458   2.975   2.005   2.289  0.3828  0.3220  0.3806
    1SOL    HW3 5459   2.834   2.051   2.263  0.1667 -0.9778 -0.8037
    1SOL    MW4 5460   2.919   2.066   2.261  0.0591 -0.3004 -0.3679
    1SOL     OW 5461   2.877   2.338   2.365  0.1685 -0.4645 -0.0759
    1SOL    HW2 5462   2.924   2.349   2.448  0.7057 -2.4350 -0.0902
    1SOL    HW3 5463   2.898   2.248   2.338  0.1018  0.1953 -2.4048
    1SOL    MW4 5464   2.886   2.327   2.372  0.2303 -0.6378 -0.3853
    1SOL     OW 5465   2.650   2.456   2.271 -0.3769 -0.3718  0.1531
    1SOL    HW2 5466   2.726   2.411   2.308  0.3407 -0.1166 -0.9753
    1SOL    HW3 5467   2.669   2.460   2.177 -1.4563  0.3321 -0.0375
    1SOL    MW4 5468   2.663   2.450   2.263 -0.4246 -0.2453 -0.0207
    1SOL     OW 5469   2.623   2.714   2.371 -0.2847 -0.3821  0.0646
    1SOL    HW2 5470   2.701   2.754   2.332  0.1204 -0.9276  0.3135
    1SOL    HW3 5471   2.625   2.623   2.342  0.1868 -0.8685  1.6081
    1SOL    MW4 5472   2.634   2.707   2.362 -0.1690 -0.5183  0.3011
    1SOL     OW 5473   2.862   2.829   2.250 -0.0695 -0.0316  0.1670
    1SOL    HW2 5474   2.877   2.913   2.292  0.3008 -0.0387  0.0525
    1SOL    HW3 5475   2.890   2.842   2.159  0.1460 -0.3229  0.1898
    1SOL    MW4 5476   2.868   2.841   2.243  0.0079 -0.0708  0.1547
    1SOL     OW 5477   2.892   3.067   2.393 -0.4191 -0.4509  0.0280
    1SOL    HW2 5478   2.962   3.129   2.370 -0.3491 -0.5524 -0.0298
    1SOL    HW3 5479   2.812   3.113   2.370 -0.4578  0.4482  1.8942
    1SOL    MW4 5480   2.891   3.082   2.387 -0.4153 -0.3457  0.2668
    1SOL     OW 5481   2.659   3.183   2.296  0.3037  0.0261 -0.1273
    1SOL    HW2 5482   2.672   3.274   2.323  0.0730  1.0345 -3.2629
    1SOL    HW3 5483   2.673   3.184   2.201 -0.5839 -3.0541 -0.3259
    1SOL    MW4 5484   2.663   3.195   2.287  0.1564 -0.2470 -0.5670
    1SOL     OW 5485   2.719   3.460   2.362 -0.1410  0.4182 -0.4057
    1SOL    HW2 5486   2.796   3.502   2.324 -0.4225 -0.1023 -1.5913
    1SOL    HW3 5487   2.646   3.516   2.336 -0.0879  1.4920  1.6034
    1SOL    MW4 5488   2.720   3.473   2.354 -0.1714  0.4914 -0.2971
    1SOL     OW 5489   2.930   3.622   2.286  0.1804 -0.0901  0.1902
    1SOL    HW2 5490   3.008   3.584   2.327  0.1023  0.8523  1.2232
    1SOL    HW3 5491   2.934   3.715   2.308 -0.3701  0.2565 -1.1461
    1SOL    MW4 5492   2.941   3.629   2.294  0.0973  0.0799  0.1504
    1SOL     OW 5493   2.920   3.905   2.331 -0.3126 -0.0978 -0.7367
    1SOL    HW2 5494   2.905   3.891   2.425  0.4540  2.0962 -0.2549
    1SOL    HW3 5495   2.844   3.956   2.303 -0.2849 -0.3151 -1.2112
    1SOL    MW4 5496   2.908   3.910   2.340 -0.2077  0.1633 -0.7360
    1SOL     OW 5497   2.678   4.006   2.267  0.0195 -0.3243 -0.2819
    1SOL    HW2 5498   2.693   4.087   2.315 -0.8668  0.0050 -0.5476
    1SOL    HW3 5499   2.620   3.955   2.323 -0.1027 -0.4164 -0.4891
    1SOL    MW4 5500   2.672   4.010   2.280 -0.1135 -0.2933 -0.3443
    1SOL     OW 5501   2.737   4.251   2.387  0.4821 -0.1189 -0.1318
    1SOL    HW2 5502   2.661   4.305   2.365  0.4624  0.4390  1.2233
    1SOL    HW3 5503   2.745   4.259   2.482  1.1706 -1.6109 -0.0560
    1SOL    MW4 5504   2.728   4.259   2.396  0.5703 -0.2418  0.0570
    1SOL     OW 5505   2.965   4.373   2.277  0.3480 -0.0380 -0.4703
    1SOL    HW2 5506   2.881   4.343   2.311  0.1026 -0.5037 -1.4546
    1SOL    HW3 5507   3.031   4.326   2.328  0.0121  0.2948  0.2713
    1SOL    MW4 5508   2.963   4.363   2.288  0.2713 -0.0558 -0.5023
    1SOL     OW 5509   3.385   4.664   2.377  0.1603  0.2492 -0.3302
    1SOL    HW2 5510   3.388   4.684   2.470  1.9778  1.2722 -0.5962
    1SOL    HW3 5511   3.464   4.705   2.341 -0.4733 -0.2252 -2.2951
    1SOL    MW4 5512   3.396   4.672   2.384  0.3164  0.3219 -0.6247
    1SOL     OW 5513   3.162   0.134   2.280 -0.1882 -0.2090  0.2418
    1SOL    HW2 5514   3.150   0.209   2.338 -1.7492 -0.2757  0.0127
    1SOL    HW3 5515   3.244   0.094   2.310 -0.5477  0.2351  1.8660
    1SOL    MW4 5516   3.171   0.138   2.292 -0.4416 -0.1592  0.4256
    1SOL     OW 5517   3.150   0.385   2.418  0.0500  0.1276  0.2602
    1SOL    HW2 5518   3.227   0.426   2.380 -0.0530  0.4700  0.4197
    1SOL    HW3 5519   3.078   0.446   2.400 -0.2003 -0.2220  0.0454
    1SOL    MW4 5520   3.150   0.398   2.410  0.0036  0.1267  0.2527
    1SOL     OW 5521   3.356   0.504   2.271  0.0145  0.3810  0.3321
    1SOL    HW2 5522   3.438   0.463   2.297 -0.0229  1.2727  1.9310
    1SOL    HW3 5523   3.352   0.493   2.176  1.1689 -1.1322  0.4479
    1SOL    MW4 5524   3.366   0.497   2.262  0.1619  0.2990  0.5584
    1SOL     OW 5525   3.376   0.787   2.334  0.3237  0.1405 -0.1066
    1SOL    HW2 5526   3.445   0.840   2.294 -0.3052  0.5616 -0.6355
    1SOL    HW3 5527   3.396   0.697   2.306 -0.7145  0.5478 -2.2674
    1SOL    MW4 5528   3.388   0.782   2.325  0.1042  0.2499 -0.4613
    1SOL     OW 5529   3.119   0.914   2.262  0.0892  0.5204  0.0143
    1SOL    HW2 5530   3.201   0.875   2.292 -0.3759 -0.7561 -0.3635
    1SOL    HW3 5531   3.051   0.857   2.296 -0.5665  0.6495 -1.0643
    1SOL    MW4 5532   3.121   0.901   2.270 -0.0589  0.3690 -0.1781
    1SOL     OW 5533   3.173   1.149   2.393 -0.4987 -0.1580  0.1288
    1SOL    HW2 5534   3.229   1.199   2.334 -1.0861  0.8634  0.4299
    1SOL    HW3 5535   3.148   1.072   2.342  1.2563 -0.6810  0.0309
    1SOL    MW4 5536   3.177   1.145   2.378 -0.3445 -0.0924  0.1559
    1SOL     OW 5537   3.361   1.312   2.242  0.3319  0.4397 -0.7447
    1SOL    HW2 5538   3.445   1.268   2.249 -0.1809 -0.6981 -1.6810
    1SOL    HW3 5539   3.379   1.401   2.273  1.9169  0.2646 -1.0884
    1SOL    MW4 5540   3.375   1.318   2.247  0.4733  0.2664 -0.9139
    1SOL     OW 5541   3.369   1.566   2.309  0.3027 -0.4502  0.1540
    1SOL    HW2 5542   3.340   1.555   2.400 -0.2345  0.7072  0.1284
    1SOL    HW3 5543   3.307   1.627   2.271 -0.0700 -1.7264 -1.3037
    1SOL    MW4 5544   3.357   1.573   2.316  0.1822 -0.4658 -0.0417
    1SOL     OW 5545   3.148   1.710   2.222  0.0977 -0.0199  0.0027
    1SOL    HW2 5546   3.136   1.792   2.271 -2.1140  1.0079 -2.1310
    1SOL    HW3 5547   3.088   1.648   2.264 -0.2951  0.2673 -0.1310
    1SOL    MW4 5548   3.139   1.713   2.234 -0.2458  0.1535 -0.2966
    1SOL     OW 5549   3.140   1.942   2.375  0.1372  0.2685  0.1632
    1SOL    HW2 5550   3.165   1.943   2.467 -1.5264  0.2246  0.6309
    1SOL    HW3 5551   3.202   2.002   2.333  1.7810 -0.7545  1.0531
    1SOL    MW4 5552   3.151   1.950   2.382  0.1345  0.1276  0.3424
    1SOL     OW 5553   3.356   2.070   2.228 -0.0438 -0.0994 -0.4758
    1SOL    HW2 5554   3.430   2.028   2.273  0.9128  0.6039 -1.3816
    1SOL    HW3 5555   3.376   2.062   2.135 -0.2822  1.5719 -0.6890
    1SOL    MW4 5556   3.368   2.063   2.222  0.0513  0.2141 -0.6232
    1SOL     OW 5557   3.331   2.326   2.371 -0.3410  0.0232  0.2574
    1SOL    HW2 5558   3.249   2.366   2.341 -0.8796 -0.4831  1.0103
    1SOL    HW3 5559   3.343   2.250   2.314 -1.5015 -1.0905  1.4447
    1SOL    MW4 5560   3.322   2.321   2.360 -0.5653 -0.1905  0.5133
    1SOL     OW 5561   3.104   2.458   2.260 -0.2140 -0.2838 -0.3036
    1SOL    HW2 5562   3.097   2.549   2.290  0.9035 -0.7367  1.4487
    1SOL    HW3 5563   3.023   2.417   2.290 -0.1628 -0.1481  0.0284
    1SOL    MW4 5564   3.093   2.464   2.268 -0.0598 -0.3257 -0.0286
    1SOL     OW 5565   3.128   2.725   2.347 -0.0552 -0.1655 -0.3470
    1SOL    HW2 5566   3.139   2.736   2.442  1.4437 -0.1891 -0.5030
    1SOL    HW3 5567   3.047   2.771   2.326  0.6766  1.6020  0.6289
    1SOL    MW4 5568   3.118   2.733   2.357  0.2391  0.0648 -0.2389
    1SOL     OW 5569   3.365   2.849   2.271  0.0753 -0.0827  0.2511
    1SOL    HW2 5570   3.356   2.941   2.297 -0.9457  0.2809 -1.3078
    1SOL    HW3 5571   3.281   2.809   2.293 -0.0410 -0.2620 -0.4904
    1SOL    MW4 5572   3.353   2.856   2.277 -0.0749 -0.0582 -0.0525
    1SOL     OW 5573   3.341   3.114   2.361  0.0864  0.1973  0.0924
    1SOL    HW2 5574   3.424   3.152   2.330  0.3098  0.5750  1.1273
    1SOL    HW3 5575   3.273   3.163   2.314  0.4241  0.5800 -0.0039
    1SOL    MW4 5576   3.343   3.126   2.351  0.1607  0.2975  0.2162
    1SOL     OW 5577   3.087   3.225   2.276  0.2528  0.1535  0.1351
    1SOL    HW2 5578   3.097   3.308   2.321 -0.1641  0.1290  0.2707
    1SOL    HW3 5579   3.087   3.248   2.183  0.8706  0.2275  0.1524
    1SOL    MW4 5580   3.089   3.239   2.270  0.2794  0.1602  0.1552
    1SOL     OW 5581   3.140   3.456   2.426  0.3803  0.0258 -0.0814
    1SOL    HW2 5582   3.144   3.445   2.521  1.7922  0.4054 -0.0818
    1SOL    HW3 5583   3.227   3.489   2.403  0.1373 -0.3551 -1.5432
    1SOL    MW4 5584   3.152   3.459   2.436  0.5343  0.0257 -0.2742
    1SOL     OW 5585   3.368   3.577   2.352  0.1062 -0.0612  0.0841
    1SOL    HW2 5586   3.453   3.538   2.374 -0.5550 -1.5781  0.0548
    1SOL    HW3 5587   3.367   3.580   2.256  0.3810  0.5483  0.0995
    1SOL    MW4 5588   3.379   3.572   2.342  0.0551 -0.1807  0.0823
    1SOL     OW 5589   3.342   3.850   2.414 -0.3818  0.0388  0.0253
    1SOL    HW2 5590   3.408   3.897   2.362 -1.3776  0.3094 -0.9978
    1SOL    HW3 5591   3.352   3.759   2.389 -1.0119  0.1964 -0.8246
    1SOL    MW4 5592   3.352   3.844   2.404 -0.5965  0.0951 -0.2217
    1SOL     OW 5593   3.170   3.993   2.241  0.2708 -0.0353 -0.3202
    1SOL    HW2 5594   3.226   3.931   2.287  0.9328  1.8406  1.4472
    1SOL    HW3 5595   3.084   3.982   2.281  0.4923  0.5099  0.3052
    1SOL    MW4 5596   3.166   3.983   2.252  0.3874  0.2840 -0.0045
    1SOL     OW 5597   3.164   4.237   2.387  0.5260 -0.1030 -0.5274
    1SOL    HW2 5598   3.245   4.282   2.364  0.4166 -0.2417 -1.1908
    1SOL    HW3 5599   3.168   4.154   2.338  0.9531 -1.0269  1.0486
    1SOL    MW4 5600   3.175   4.232   2.377  0.5679 -0.2432 -0.4070
    1SOL     OW 5601   3.393   4.376   2.311  0.3999  0.1835 -0.2037
    1SOL    HW2 5602   3.391   4.466   2.344  0.3607  0.3225 -0.5796
    1SOL    HW3 5603   3.379   4.385   2.216  1.4864 -0.1371 -0.4020
    1SOL    MW4 5604   3.391   4.389   2.303  0.5381  0.1593 -0.2794
    1SOL     OW 5605   3.835   4.603   2.395  0.1001  0.0792  0.2540
    1SOL    HW2 5606   3.851   4.605   2.489  2.5592  1.2325 -0.1489
    1SOL    HW3 5607   3.902   4.661   2.358 -2.3229  1.5273 -2.0126
    1SOL    MW4 5608   3.846   4.611   2.402  0.1047  0.4225 -0.0985
    1SOL     OW 5609   3.625   0.088   2.275  0.2766  0.3735  0.3526
    1SOL    HW2 5610   3.617   0.178   2.307  0.5171  0.4043  0.3275
    1SOL    HW3 5611   3.698   0.051   2.326 -0.0452  0.0867  0.6060
    1SOL    MW4 5612   3.634   0.095   2.286  0.2661  0.3397  0.3827
    1SOL     OW 5613   3.580   0.360   2.367 -0.1540  0.2466 -0.0277
    1SOL    HW2 5614   3.571   0.373   2.461 -0.2387 -0.2787  0.0380
    1SOL    HW3 5615   3.658   0.410   2.343 -0.5355  0.9570  0.1973
    1SOL    MW4 5616   3.589   0.369   2.376 -0.2153  0.2711  0.0105
    1SOL     OW 5617   3.795   0.525   2.261  0.0333 -0.2298 -0.2615
    1SOL    HW2 5618   3.803   0.617   2.283 -0.0616 -0.1321 -0.6255
    1SOL    HW3 5619   3.784   0.524   2.165 -0.0462 -0.6084 -0.2504
    1SOL    MW4 5620   3.794   0.537   2.251  0.0103 -0.2668 -0.3083
    1SOL     OW 5621   3.787   0.801   2.331 -0.3155  0.1150 -0.2315
    1SOL    HW2 5622   3.787   0.776   2.424  1.0275  1.6590  0.2131
    1SOL    HW3 5623   3.874   0.839   2.316 -0.4047 -0.4031 -2.2185
    1SOL    MW4 5624   3.798   0.803   2.341 -0.1502  0.2503 -0.4351
    1SOL     OW 5625   3.577   0.921   2.205 -0.0687 -0.0262 -0.3726
    1SOL    HW2 5626   3.654   0.878   2.244 -1.2990 -0.8157  1.2077
    1SOL    HW3 5627   3.590   0.909   2.111  2.2183  0.6758 -0.1971
    1SOL    MW4 5628   3.589   0.913   2.198  0.0708 -0.0377 -0.1411
    1SOL     OW 5629   3.589   1.173   2.305 -0.1508 -0.2756 -0.2567
    1SOL    HW2 5630   3.586   1.158   2.400  0.6556  0.0319 -0.1790
    1SOL    HW3 5631   3.590   1.085   2.267 -1.3665 -0.4064 -0.0199
    1SOL    MW4 5632   3.589   1.160   2.312 -0.2050 -0.2522 -0.2153
    1SOL     OW 5633   3.841   1.267   2.250 -0.1553 -0.3282  0.1155
    1SOL    HW2 5634   3.841   1.362   2.259  0.1880 -0.3254  0.0928
    1SOL    HW3 5635   3.754   1.240   2.280 -0.7465  0.1080 -1.1976
    1SOL    MW4 5636   3.830   1.276   2.255 -0.1881 -0.2701 -0.0606
    1SOL     OW 5637   3.838   1.541   2.313 -0.1105 -0.2173 -0.1948
    1SOL    HW2 5638   3.817   1.527   2.405  2.6168  1.1921  0.6671
    1SOL    HW3 5639   3.767   1.598   2.281 -0.2061  0.5897  1.4212
    1SOL    MW4 5640   3.826   1.547   2.321  0.2367  0.0751  0.1321
    1SOL     OW 5641   3.613   1.696   2.211  0.1691  0.4495  0.4330
    1SOL    HW2 5642   3.530   1.660   2.243  0.2171 -0.1118 -0.0638
    1SOL    HW3 5643   3.606   1.691   2.116  1.1791 -0.5566  0.3948
    1SOL    MW4 5644   3.601   1.690   2.203  0.3088  0.2427  0.3624
    1SOL     OW 5645   3.588   1.948   2.332 -0.2929 -0.1407 -0.0371
    1SOL    HW2 5646   3.670   1.995   2.319 -0.5242 -0.0168 -1.1255
    1SOL    HW3 5647   3.602   1.863   2.292 -0.6252 -0.1970 -0.0397
    1SOL    MW4 5648   3.600   1.943   2.325 -0.3672 -0.1317 -0.1810
    1SOL     OW 5649   3.812   2.080   2.265 -0.1479 -0.4594 -0.4266
    1SOL    HW2 5650   3.883   2.038   2.312 -0.2033 -0.7880 -0.6379
    1SOL    HW3 5651   3.848   2.100   2.179  0.0354  0.3783 -0.1621
    1SOL    MW4 5652   3.826   2.077   2.260 -0.1314 -0.3920 -0.4196
    1SOL     OW 5653   3.803   2.349   2.349  0.3200 -0.1195  0.4034
    1SOL    HW2 5654   3.728   2.402   2.319  0.4352  0.0954  0.4922
    1SOL    HW3 5655   3.786   2.262   2.314 -0.0226 -0.0956  0.5063
    1SOL    MW4 5656   3.791   2.345   2.340  0.2902 -0.0880  0.4287
    1SOL     OW 5657   3.568   2.486   2.313 -0.0031  0.5399 -0.2634
    1SOL    HW2 5658   3.505   2.425   2.350  0.8850  0.2945  0.8893
    1SOL    HW3 5659   3.563   2.472   2.218  0.8081 -1.9459  0.0366
    1SOL    MW4 5660   3.559   2.476   2.305  0.2210  0.1795 -0.0720
    1SOL     OW 5661   3.583   2.743   2.385  0.6917 -0.4765 -0.3609
    1SOL    HW2 5662   3.577   2.649   2.368  0.8635 -0.5224 -0.1687
    1SOL    HW3 5663   3.502   2.779   2.349 -0.2298 -0.9484  1.1810
    1SOL    MW4 5664   3.571   2.735   2.378  0.5929 -0.5448 -0.1323
    1SOL     OW 5665   3.834   2.841   2.299  0.4834 -0.1278  0.6328
    1SOL    HW2 5666   3.831   2.935   2.315 -0.3717 -0.2909  1.4525
    1SOL    HW3 5667   3.757   2.806   2.344  0.4601 -1.1440 -0.1705
    1SOL    MW4 5668   3.824   2.849   2.307  0.3679 -0.2835  0.6349
    1SOL     OW 5669   3.819   3.102   2.345  0.4480 -0.0620 -0.1981
    1SOL    HW2 5670   3.833   3.109   2.439  0.4451  1.0581 -0.2810
    1SOL    HW3 5671   3.884   3.161   2.306 -0.3802  0.4419 -0.8417
    1SOL    MW4 5672   3.829   3.111   2.352  0.3386  0.1523 -0.2940
    1SOL     OW 5673   3.590   3.228   2.265  0.1587 -0.0421  0.2395
    1SOL    HW2 5674   3.585   3.310   2.314  0.2018  1.1410 -1.7044
    1SOL    HW3 5675   3.671   3.188   2.295  1.1779  1.5941 -0.2603
    1SOL    MW4 5676   3.600   3.233   2.275  0.2990  0.3295 -0.0827
    1SOL     OW 5677   3.617   3.450   2.413 -0.3120  0.4901 -0.0894
    1SOL    HW2 5678   3.619   3.458   2.509  2.0533  0.1944 -0.0937
    1SOL    HW3 5679   3.688   3.505   2.383  1.3981 -2.3127 -1.4310
    1SOL    MW4 5680   3.626   3.458   2.422  0.2258  0.0813 -0.2670
    1SOL     OW 5681   3.802   3.624   2.282  0.0411  0.5374  0.0332
    1SOL    HW2 5682   3.805   3.719   2.291  0.2163  0.6609 -1.2212
    1SOL    HW3 5683   3.809   3.608   2.188 -0.1757 -0.7109  0.2103
    1SOL    MW4 5684   3.803   3.634   2.271  0.0355  0.3889 -0.1090
    1SOL     OW 5685   3.777   3.895   2.363  0.1265 -0.1255 -0.3721
    1SOL    HW2 5686   3.792   3.875   2.456  1.5396 -0.7170 -0.7175
    1SOL    HW3 5687   3.856   3.941   2.335 -1.4339  2.5642 -0.6017
    1SOL    MW4 5688   3.789   3.899   2.372  0.1073  0.1514 -0.4478
    1SOL     OW 5689   3.548   4.002   2.290 -0.1197 -0.2573 -0.3733
    1SOL    HW2 5690   3.557   4.093   2.318 -0.6737 -0.3740  0.1807
    1SOL    HW3 5691   3.630   3.960   2.319 -0.7289 -0.3985  1.1706
    1SOL    MW4 5692   3.560   4.008   2.298 -0.2732 -0.2918 -0.0963
    1SOL     OW 5693   3.609   4.262   2.400  0.4107 -0.4970  0.0071
    1SOL    HW2 5694   3.676   4.294   2.338 -0.6844 -1.9626 -2.0082
    1SOL    HW3 5695   3.528   4.305   2.372 -0.3623 -2.2210 -0.4681
    1SOL    MW4 5696   3.608   4.272   2.388  0.1645 -0.9174 -0.3214
    1SOL     OW 5697   3.831   4.361   2.268 -0.2512  0.2589 -0.3292
    1SOL    HW2 5698   3.907   4.320   2.310  0.0680  1.3280  0.1721
    1SOL    HW3 5699   3.820   4.444   2.315 -0.2945  1.1891 -1.9353
    1SOL    MW4 5700   3.840   4.366   2.280 -0.2146  0.5231 -0.4749
    1SOL     OW 5701   4.261   4.659   2.339  0.1073 -0.5139  0.1743
    1SOL    HW2 5702   4.244   4.639   2.431 -0.2944 -0.5196  0.0988
    1SOL    HW3 5703   4.346   4.702   2.339 -0.4886  0.6689  0.6867
    1SOL    MW4 5704   4.270   4.662   2.351 -0.0243 -0.3586  0.2317
    1SOL     OW 5705   4.015   0.103   2.252 -0.0506  0.1869 -0.0581
    1SOL    HW2 5706   3.999   0.194   2.279  2.0196  0.4176  0.4467
    1SOL    HW3 5707   4.089   0.075   2.306 -1.1037 -2.0480  0.2825
    1SOL    MW4 5708   4.023   0.112   2.263  0.0830 -0.0775  0.0534
    1SOL     OW 5709   3.986   0.352   2.372 -0.4027 -0.0635 -0.2577
    1SOL    HW2 5710   4.068   0.396   2.351 -1.1959  1.3362 -0.4984
    1SOL    HW3 5711   3.919   0.405   2.331 -1.7327  0.7754  2.8349
    1SOL    MW4 5712   3.988   0.364   2.364 -0.6828  0.2319  0.1187
    1SOL     OW 5713   4.229   0.469   2.281  0.0296 -0.5119  0.1543
    1SOL    HW2 5714   4.237   0.561   2.304 -0.9697 -0.4928  0.4138
    1SOL    HW3 5715   4.308   0.429   2.317  0.0255  0.0816  0.8341
    1SOL    MW4 5716   4.241   0.476   2.289 -0.1025 -0.4311  0.2780
    1SOL     OW 5717   4.272   0.725   2.352  0.2189 -0.1105  0.4497
    1SOL    HW2 5718   4.200   0.776   2.315  0.6468 -0.5427 -1.0103
    1SOL    HW3 5719   4.265   0.738   2.446 -1.6009  0.0754  0.2954
    1SOL    MW4 5720   4.262   0.734   2.359  0.0348 -0.1431  0.2370
    1SOL     OW 5721   4.059   0.886   2.279 -0.0604 -0.1142 -0.1345
    1SOL    HW2 5722   4.048   0.964   2.333  0.6472 -0.3981  0.4257
    1SOL    HW3 5723   4.046   0.918   2.189 -1.8641  0.2391  0.2153
    1SOL    MW4 5724   4.056   0.901   2.274 -0.2046 -0.1051 -0.0143
    1SOL     OW 5725   4.036   1.135   2.409  0.3399  0.5790  0.0316
    1SOL    HW2 5726   4.023   1.157   2.501  0.7306  1.6438 -0.1511
    1SOL    HW3 5727   3.976   1.193   2.362  0.7921  0.6831 -0.4301
    1SOL    MW4 5728   4.026   1.146   2.415  0.4516  0.7334 -0.0536
    1SOL     OW 5729   4.267   1.300   2.269 -0.3892  0.3557 -0.0327
    1SOL    HW2 5730   4.202   1.248   2.316 -0.4268  0.0724 -0.3968
    1SOL    HW3 5731   4.346   1.246   2.270  0.0552  0.9920  1.0174
    1SOL    MW4 5732   4.269   1.286   2.276 -0.3352  0.4022  0.0577
    1SOL     OW 5733   4.253   1.566   2.346 -0.2008 -0.6768  0.2126
    1SOL    HW2 5734   4.272   1.479   2.311  0.0377  0.6430 -3.1471
    1SOL    HW3 5735   4.328   1.620   2.320 -0.9242  0.8354  1.1529
    1SOL    MW4 5736   4.266   1.562   2.338 -0.2646 -0.3033 -0.1068
    1SOL     OW 5737   4.051   1.721   2.236  0.0623 -0.1916  0.1472
    1SOL    HW2 5738   4.131   1.674   2.261 -0.7148 -1.0456  1.1095
    1SOL    HW3 5739   3.980   1.665   2.269 -0.9564  0.0259 -1.6257
    1SOL    MW4 5740   4.052   1.707   2.244 -0.1750 -0.2755  0.0401
    1SOL     OW 5741   4.030   1.964   2.375 -0.4085  0.3652  0.5211
    1SOL    HW2 5742   4.033   1.934   2.466 -0.6887  0.1017  0.4484
    1SOL    HW3 5743   4.038   1.883   2.324  0.0854  0.5453  0.3075
    1SOL    MW4 5744   4.032   1.949   2.380 -0.3800  0.3543  0.4833
    1SOL     OW 5745   4.289   2.069   2.294 -0.1746  0.4817 -0.3428
    1SOL    HW2 5746   4.288   2.162   2.319  0.0437 -0.3879  3.1559
    1SOL    HW3 5747   4.204   2.036   2.322 -0.1464 -0.4535 -1.3339
    1SOL    MW4 5748   4.278   2.077   2.301 -0.1416  0.2437 -0.0119
    1SOL     OW 5749   4.274   2.340   2.374 -0.2212 -0.1410 -0.2322
    1SOL    HW2 5750   4.197   2.387   2.340 -1.1569 -1.0899  0.5587
    1SOL    HW3 5751   4.348   2.387   2.336 -1.1680  1.1711 -0.5283
    1SOL    MW4 5752   4.273   2.353   2.364 -0.4692 -0.0930 -0.1669
    1SOL     OW 5753   4.036   2.452   2.253 -0.1564  0.0092 -0.3076
    1SOL    HW2 5754   4.036   2.537   2.297 -0.4301  0.1132 -0.5047
    1SOL    HW3 5755   3.963   2.405   2.292 -0.3947  0.0995 -0.6484
    1SOL    MW4 5756   4.027   2.457   2.264 -0.2246  0.0350 -0.3784
    1SOL     OW 5757   4.043   2.682   2.392 -0.3512 -0.0067  0.5254
    1SOL    HW2 5758   4.042   2.701   2.486 -0.5461  1.3822  0.2466
    1SOL    HW3 5759   3.966   2.726   2.358 -0.2933 -0.5362 -0.2889
    1SOL    MW4 5760   4.033   2.690   2.400 -0.3691  0.1068  0.3812
    1SOL     OW 5761   4.250   2.827   2.276  0.2523  0.0527 -0.2743
    1SOL    HW2 5762   4.186   2.763   2.306 -0.6204  0.9928 -0.0869
    1SOL    HW3 5763   4.334   2.796   2.309 -0.4480  0.1255  1.5954
    1SOL    MW4 5764   4.252   2.815   2.284  0.0453  0.1864 -0.0026
    1SOL     OW 5765   4.250   3.078   2.363 -0.4811 -0.2846  0.5656
    1SOL    HW2 5766   4.247   2.982   2.355 -0.9390 -0.2011 -0.2698
    1SOL    HW3 5767   4.326   3.103   2.310 -0.8942 -0.1136  0.0481
    1SOL    MW4 5768   4.260   3.069   2.355 -0.5956 -0.2513  0.3872
    1SOL     OW 5769   4.054   3.215   2.233  0.3149  0.2187  0.0960
    1SOL    HW2 5770   4.075   3.305   2.258  1.5693 -0.2661  0.8212
    1SOL    HW3 5771   4.113   3.161   2.287 -0.1728 -1.0119 -0.5999
    1SOL    MW4 5772   4.065   3.220   2.244  0.4163 -0.0079  0.0997
    1SOL     OW 5773   4.066   3.496   2.331  0.1736 -0.0029  0.4157
    1SOL    HW2 5774   4.137   3.548   2.293  0.1598 -1.4678 -1.7173
    1SOL    HW3 5775   3.987   3.549   2.316  0.3909  0.1645 -0.1483
    1SOL    MW4 5776   4.065   3.510   2.324  0.2003 -0.1740  0.0601
    1SOL     OW 5777   4.317   3.638   2.247 -0.2173  0.3494 -0.0540
    1SOL    HW2 5778   4.288   3.726   2.272  1.2454  1.0747 -0.8088
    1SOL    HW3 5779   4.295   3.633   2.153 -1.8693 -0.7543  0.3805
    1SOL    MW4 5780   4.310   3.649   2.238 -0.2418  0.2997 -0.0966
    1SOL     OW 5781   4.272   3.911   2.318  0.3300 -0.3585 -0.0693
    1SOL    HW2 5782   4.292   3.892   2.409  2.0052 -0.4436 -0.4370
    1SOL    HW3 5783   4.355   3.940   2.280 -0.7744  1.6051 -1.0842
    1SOL    MW4 5784   4.286   3.912   2.325  0.4048 -0.1106 -0.2515
    1SOL     OW 5785   4.017   3.989   2.273  0.5297 -0.2277  0.0990
    1SOL    HW2 5786   4.101   3.952   2.300  0.9003  1.0871  0.8160
    1SOL    HW3 5787   4.023   3.999   2.178  1.2507  0.0065  0.1700
    1SOL    MW4 5788   4.029   3.986   2.264  0.6738 -0.0231  0.2031
    1SOL     OW 5789   4.039   4.243   2.399 -0.7505  0.2702  0.1951
    1SOL    HW2 5790   4.117   4.286   2.363 -1.2442  0.5278 -0.5816
    1SOL    HW3 5791   4.032   4.161   2.350 -0.3192 -0.2994  1.0613
    1SOL    MW4 5792   4.048   4.238   2.388 -0.7586  0.2289  0.2067
    1SOL     OW 5793   4.238   4.401   2.282 -0.1888 -0.1033  0.1861
    1SOL    HW2 5794   4.255   4.494   2.294  2.7823 -0.5664 -0.2286
    1SOL    HW3 5795   4.314   4.357   2.320  0.0391 -2.2402 -2.5977
    1SOL    MW4 5796   4.250   4.407   2.289  0.2327 -0.4458 -0.2360
    1SOL     OW 5797   0.215   0.003   2.656  0.4561  0.2783  0.2944
    1SOL    HW2 5798   0.230  -0.080   2.700 -1.3616 -0.7183 -0.8934
    1SOL    HW3 5799   0.120   0.016   2.660  0.6105  1.7844 -0.4402
    1SOL    MW4 5800   0.205  -0.006   2.662  0.2366  0.3462  0.0405
    1SOL     OW 5801   4.445   0.080   2.743  0.1096  0.5754 -0.2121
    1SOL    HW2 5802   4.439   0.068   2.837  0.5268 -0.6208 -0.3297
    1SOL    HW3 5803   4.459   0.174   2.731 -0.3721  0.7881  0.8865
    1SOL    MW4 5804   4.446   0.091   2.754  0.1016  0.4456 -0.0825
    1SOL     OW 5805   0.003   0.340   2.678  0.0071  0.2570  0.7544
    1SOL    HW2 5806   0.085   0.382   2.705  0.9351 -1.3028  0.4385
    1SOL    HW3 5807   0.004   0.343   2.583  0.3348 -0.9282  0.7120
    1SOL    MW4 5808   0.014   0.346   2.669  0.1726 -0.1051  0.7069
    1SOL     OW 5809   0.221   0.523   2.756  0.3920  0.3923 -0.5417
    1SOL    HW2 5810   0.207   0.509   2.850 -0.2669  0.1142 -0.6799
    1SOL    HW3 5811   0.307   0.485   2.739  0.5836  0.5809 -0.0229
    1SOL    MW4 5812   0.231   0.516   2.767  0.3303  0.3805 -0.4916
    1SOL     OW 5813   0.206   0.762   2.634 -0.0839  0.3399 -0.0350
    1SOL    HW2 5814   0.288   0.795   2.671 -0.6701  0.2019  1.4053
    1SOL    HW3 5815   0.196   0.675   2.671 -0.0764 -0.2980 -1.4809
    1SOL    MW4 5816   0.216   0.755   2.644 -0.1603  0.2375 -0.0358
    1SOL     OW 5817   4.476   0.892   2.737  0.4597  0.4233  0.1446
    1SOL    HW2 5818   4.402   0.849   2.695  1.1170  1.1847 -1.8661
    1SOL    HW3 5819   4.553   0.851   2.697  1.0964  2.0559 -0.3334
    1SOL    MW4 5820   4.477   0.881   2.726  0.6304  0.7391 -0.1838
    1SOL     OW 5821   0.016   1.151   2.626  0.5776  0.4686  0.2651
    1SOL    HW2 5822   0.098   1.188   2.658  1.3324  0.2924 -1.4528
    1SOL    HW3 5823   0.012   1.064   2.666  1.0586  0.6096  0.6216
    1SOL    MW4 5824   0.026   1.144   2.636  0.7405  0.4638  0.0856
    1SOL     OW 5825   0.237   1.261   2.718 -0.2256  0.0605  0.4435
    1SOL    HW2 5826   0.326   1.227   2.717 -0.3731 -0.3159 -0.1556
    1SOL    HW3 5827   0.244   1.349   2.682 -0.1584 -0.1268 -0.0016
    1SOL    MW4 5828   0.250   1.268   2.713 -0.2362 -0.0137  0.3057
    1SOL     OW 5829   0.253   1.523   2.617 -0.2052 -0.3544  0.3721
    1SOL    HW2 5830   0.311   1.579   2.669 -0.4825  2.1314 -1.8712
    1SOL    HW3 5831   0.165   1.547   2.646 -0.3694  1.1648 -1.2722
    1SOL    MW4 5832   0.249   1.534   2.628 -0.2635  0.1739 -0.1409
    1SOL     OW 5833   0.003   1.615   2.702 -0.3907  0.3894  0.2311
    1SOL    HW2 5834  -0.011   1.607   2.796 -0.0586  1.1309  0.3528
    1SOL    HW3 5835   0.008   1.710   2.687 -1.1000  0.2934 -0.6285
    1SOL    MW4 5836   0.002   1.627   2.712 -0.4405  0.4745  0.1338
    1SOL     OW 5837   4.471   1.898   2.642  0.1662  0.0705  0.0317
    1SOL    HW2 5838   4.546   1.943   2.681  0.7391  0.3540 -1.3523
    1SOL    HW3 5839   4.479   1.916   2.548 -1.7598  0.2812 -0.1016
    1SOL    MW4 5840   4.482   1.906   2.634 -0.0124  0.1355 -0.1686
    1SOL     OW 5841   0.196   2.031   2.751  0.3301 -0.2768  0.0204
    1SOL    HW2 5842   0.274   1.978   2.736  0.2963 -0.4412  0.4352
    1SOL    HW3 5843   0.215   2.115   2.708  1.1157  0.0152  0.9266
    1SOL    MW4 5844   0.209   2.035   2.743  0.4293 -0.2601  0.1945
    1SOL     OW 5845   0.217   2.308   2.668  0.1833 -0.2344  0.3886
    1SOL    HW2 5846   0.298   2.350   2.698  0.4068 -0.5903  0.2908
    1SOL    HW3 5847   0.150   2.375   2.678  1.0178  1.1016 -2.4664
    1SOL    MW4 5848   0.219   2.322   2.673  0.3229 -0.1051 -0.0012
    1SOL     OW 5849   0.014   2.473   2.727 -0.0222 -0.2179 -0.2326
    1SOL    HW2 5850   0.025   2.484   2.822  0.3215 -0.6680 -0.2189
    1SOL    HW3 5851  -0.062   2.416   2.719 -0.1539 -0.0423 -0.2320
    1SOL    MW4 5852   0.005   2.467   2.739  0.0057 -0.2542 -0.2308
    1SOL     OW 5853   0.005   2.732   2.643  0.0181  0.1606 -0.4589
    1SOL    HW2 5854  -0.080   2.766   2.671  0.4261  0.0680  0.9087
    1SOL    HW3 5855   0.005   2.640   2.670  0.7040  0.2603 -0.1113
    1SOL    MW4 5856  -0.006   2.724   2.650  0.1626  0.1614 -0.2327
    1SOL     OW 5857   0.213   2.828   2.788 -0.3756  0.0649  0.2731
    1SOL    HW2 5858   0.240   2.907   2.741  1.4229 -0.3914  0.5081
    1SOL    HW3 5859   0.134   2.798   2.742  0.7802  0.1776 -1.8209
    1SOL    MW4 5860   0.206   2.834   2.776  0.0142  0.0193  0.0277
    1SOL     OW 5861   0.270   3.050   2.634  0.1134 -0.0579 -0.2807
    1SOL    HW2 5862   0.335   3.108   2.675 -1.2192  1.3562 -0.0838
    1SOL    HW3 5863   0.278   3.068   2.541 -0.8413  1.1032 -0.1683
    1SOL    MW4 5864   0.279   3.060   2.627 -0.1884  0.2820 -0.2398
    1SOL     OW 5865   0.023   3.174   2.756 -0.1498 -0.5295 -0.2667
    1SOL    HW2 5866  -0.049   3.151   2.697 -1.1407 -1.6413  1.3528
    1SOL    HW3 5867   0.100   3.136   2.714 -0.8798 -1.5382 -0.7221
    1SOL    MW4 5868   0.024   3.166   2.742 -0.3768 -0.8090 -0.1132
    1SOL     OW 5869   0.016   3.431   2.640  0.3266  0.2131 -0.6118
    1SOL    HW2 5870   0.086   3.483   2.681 -1.0232  1.3236  0.3395
    1SOL    HW3 5871   0.016   3.349   2.689  0.6519  0.4015 -0.2898
    1SOL    MW4 5872   0.025   3.427   2.652  0.1914  0.3843 -0.4442
    1SOL     OW 5873   0.205   3.625   2.740  0.2663  0.0120 -0.0452
    1SOL    HW2 5874   0.203   3.625   2.835  0.2836  1.1225 -0.0407
    1SOL    HW3 5875   0.296   3.602   2.718  0.4871  0.6284  0.2138
    1SOL    MW4 5876   0.217   3.622   2.749  0.2977  0.2396 -0.0103
    1SOL     OW 5877   0.173   3.900   2.652 -0.0453 -0.4488 -0.0158
    1SOL    HW2 5878   0.160   3.808   2.676 -0.4047 -1.0764 -2.4009
    1SOL    HW3 5879   0.191   3.897   2.558 -1.7828  2.0410 -0.4829
    1SOL    MW4 5880   0.173   3.888   2.643 -0.3219 -0.2031 -0.3920
    1SOL     OW 5881   4.441   4.034   2.729 -0.3147 -0.2989  0.1047
    1SOL    HW2 5882   4.433   4.123   2.696  0.6043  0.3728  1.6696
    1SOL    HW3 5883   4.523   4.001   2.692  0.7971  0.5097  1.8053
    1SOL    MW4 5884   4.450   4.041   2.720 -0.0463 -0.1030  0.5355
    1SOL     OW 5885   4.478   4.293   2.645 -0.3270 -0.3331  0.3759
    1SOL    HW2 5886   4.408   4.350   2.679 -0.4600 -0.2100 -0.1084
    1SOL    HW3 5887   4.559   4.331   2.679 -0.3639  0.5088 -0.4532
    1SOL    MW4 5888   4.479   4.305   2.654 -0.3494 -0.2055  0.2029
    1SOL     OW 5889   0.229   4.410   2.749 -0.1092 -0.2049  0.2224
    1SOL    HW2 5890   0.247   4.420   2.842 -0.8948 -0.2328  0.3796
    1SOL    HW3 5891   0.300   4.355   2.716  0.9137  0.9074  0.5413
    1SOL    MW4 5892   0.240   4.404   2.757 -0.0779 -0.0620  0.2851
    1SOL     OW 5893   0.661   4.656   2.596 -0.3524 -0.3803 -0.3875
    1SOL    HW2 5894   0.743   4.695   2.627 -0.5899 -0.9088  0.9189
    1SOL    HW3 5895   0.592   4.701   2.645 -0.5927 -2.8755  1.6639
    1SOL    MW4 5896   0.663   4.667   2.607 -0.4154 -0.7801  0.0556
    1SOL     OW 5897   0.457   0.144   2.725 -0.1727  0.1014  0.1203
    1SOL    HW2 5898   0.458   0.133   2.820  1.5886 -1.1164  0.0008
    1SOL    HW3 5899   0.379   0.098   2.696 -0.0630 -0.5678  0.8740
    1SOL    MW4 5900   0.447   0.137   2.733  0.0741 -0.1476  0.2041
    1SOL     OW 5901   0.444   0.419   2.646  0.2559 -0.2323 -0.3060
    1SOL    HW2 5902   0.532   0.454   2.658 -0.8417  2.2897  0.7201
    1SOL    HW3 5903   0.449   0.329   2.679  1.9905  0.4955  1.4784
    1SOL    MW4 5904   0.456   0.412   2.652  0.3400  0.1965  0.0648
    1SOL     OW 5905   0.680   0.512   2.761  0.3700  0.0487 -0.3587
    1SOL    HW2 5906   0.683   0.509   2.856 -1.4810 -0.7316 -0.2919
    1SOL    HW3 5907   0.758   0.465   2.732  0.5233 -0.3939  0.7748
    1SOL    MW4 5908   0.690   0.506   2.770  0.1461 -0.1127 -0.2003
    1SOL     OW 5909   0.682   0.764   2.642 -0.5618  0.4795  0.4837
    1SOL    HW2 5910   0.760   0.808   2.675 -0.5448  1.9206 -1.3765
    1SOL    HW3 5911   0.692   0.673   2.670  1.0450  0.9596  1.5452
    1SOL    MW4 5912   0.694   0.758   2.650 -0.3476  0.7330  0.3779
    1SOL     OW 5913   0.447   0.868   2.735 -0.0906 -0.5429  0.1492
    1SOL    HW2 5914   0.460   0.959   2.709  0.2932 -0.7084 -0.2545
    1SOL    HW3 5915   0.526   0.823   2.705  0.1244 -0.8412  1.1466
    1SOL    MW4 5916   0.459   0.874   2.728 -0.0116 -0.6041  0.2277
    1SOL     OW 5917   0.503   1.130   2.681  0.0180  0.2837  0.0668
    1SOL    HW2 5918   0.577   1.179   2.718 -1.1668  1.4971  0.8534
    1SOL    HW3 5919   0.509   1.147   2.587  0.3291  0.9496  0.2016
    1SOL    MW4 5920   0.514   1.139   2.673 -0.0973  0.5317  0.1881
    1SOL     OW 5921   0.694   1.325   2.754 -0.4644  0.0997  0.3791
    1SOL    HW2 5922   0.688   1.318   2.850 -1.4030 -2.0076  0.2033
    1SOL    HW3 5923   0.775   1.280   2.732  0.2700  1.4704  0.2514
    1SOL    MW4 5924   0.704   1.318   2.764 -0.4913  0.0024  0.3390
    1SOL     OW 5925   0.674   1.574   2.636 -0.1714 -0.1855  0.0162
    1SOL    HW2 5926   0.603   1.612   2.688 -0.9165 -0.5820 -0.6950
    1SOL    HW3 5927   0.679   1.483   2.665  0.1738 -0.1090  0.1968
    1SOL    MW4 5928   0.665   1.567   2.647 -0.2242 -0.2276 -0.0539
    1SOL     OW 5929   0.464   1.670   2.757 -0.1526  0.7949 -0.1061
    1SOL    HW2 5930   0.460   1.677   2.852 -1.8135 -0.4291 -0.0730
    1SOL    HW3 5931   0.445   1.758   2.725  2.0535  1.6058  0.6917
    1SOL    MW4 5932   0.461   1.682   2.765 -0.0807  0.7405  0.0041
    1SOL     OW 5933   0.430   1.921   2.657  0.0835  0.5644 -0.2146
    1SOL    HW2 5934   0.505   1.967   2.694  0.7300  0.5340 -1.4347
    1SOL    HW3 5935   0.450   1.914   2.563 -0.4137 -1.3907 -0.2125
    1SOL    MW4 5936   0.442   1.926   2.649  0.1032  0.3026 -0.3750
    1SOL     OW 5937   0.652   2.065   2.747 -0.0177  0.0072 -0.5802
    1SOL    HW2 5938   0.658   2.061   2.842 -1.7435  0.8447 -0.4253
    1SOL    HW3 5939   0.718   2.003   2.717 -1.5579 -2.6501  1.2233
    1SOL    MW4 5940   0.661   2.056   2.756 -0.4486 -0.2327 -0.3216
    1SOL     OW 5941   0.686   2.320   2.609 -0.2256 -0.1893 -0.1042
    1SOL    HW2 5942   0.763   2.351   2.656 -0.9411  0.5950  0.5695
    1SOL    HW3 5943   0.672   2.230   2.640  0.4483 -0.3614 -0.2887
    1SOL    MW4 5944   0.694   2.312   2.619 -0.2311 -0.1085 -0.0398
    1SOL     OW 5945   0.461   2.455   2.723  0.0888 -0.1648 -0.3273
    1SOL    HW2 5946   0.446   2.542   2.685 -0.3186  0.9059  2.1296
    1SOL    HW3 5947   0.548   2.430   2.691 -0.1469  0.7730 -1.7422
    1SOL    MW4 5948   0.471   2.463   2.714  0.0039  0.1001 -0.1898
    1SOL     OW 5949   0.428   2.713   2.621  0.3587 -0.0640 -0.1040
    1SOL    HW2 5950   0.506   2.743   2.666 -0.1445  0.7785  0.2170
    1SOL    HW3 5951   0.356   2.757   2.665 -0.1595  0.5928 -1.5784
    1SOL    MW4 5952   0.429   2.722   2.632  0.2239  0.1338 -0.2563
    1SOL     OW 5953   0.664   2.847   2.687 -0.2422 -0.8346  0.2272
    1SOL    HW2 5954   0.664   2.847   2.782  0.8062 -0.0152  0.2364
    1SOL    HW3 5955   0.677   2.939   2.663  2.1985 -1.3676 -0.6640
    1SOL    MW4 5956   0.666   2.859   2.696  0.2182 -0.7968  0.1109
    1SOL     OW 5957   0.671   3.134   2.652 -0.2828  0.3205 -0.1186
    1SOL    HW2 5958   0.759   3.152   2.684 -0.0918 -0.0748 -0.4154
    1SOL    HW3 5959   0.677   3.141   2.557 -0.3279 -0.7330 -0.2043
    1SOL    MW4 5960   0.683   3.137   2.644 -0.2636  0.1292 -0.1690
    1SOL     OW 5961   0.429   3.243   2.764 -0.3757  0.6561 -0.4745
    1SOL    HW2 5962   0.427   3.232   2.859 -1.5224 -4.6269 -0.9566
    1SOL    HW3 5963   0.519   3.220   2.739 -0.0087  2.2591 -0.7349
    1SOL    MW4 5964   0.441   3.239   2.773 -0.4786  0.1709 -0.5724
    1SOL     OW 5965   0.429   3.493   2.648  0.0595 -0.3797  0.3508
    1SOL    HW2 5966   0.414   3.405   2.681 -1.1409  0.1098  1.1407
    1SOL    HW3 5967   0.435   3.483   2.553 -2.0988 -1.0299  0.2721
    1SOL    MW4 5968   0.428   3.480   2.640 -0.3836 -0.4008  0.4449
    1SOL     OW 5969   0.665   3.606   2.736  0.1221  0.3149  0.1010
    1SOL    HW2 5970   0.662   3.604   2.832 -0.1178 -2.1309  0.0660
    1SOL    HW3 5971   0.589   3.555   2.708  0.6540  0.3053 -1.3831
    1SOL    MW4 5972   0.655   3.599   2.745  0.1606 -0.0091 -0.0997
    1SOL     OW 5973   0.647   3.904   2.670  0.2046  0.2072  0.4219
    1SOL    HW2 5974   0.561   3.940   2.691  0.2738  0.6857 -0.1097
    1SOL    HW3 5975   0.642   3.813   2.699 -0.5961  0.1416  0.0971
    1SOL    MW4 5976   0.635   3.896   2.676  0.1081  0.2620  0.3088
    1SOL     OW 5977   0.404   4.001   2.758 -0.5821  0.2443 -0.0753
    1SOL    HW2 5978   0.398   4.086   2.714  0.2084  0.4308  0.1783
    1SOL    HW3 5979   0.329   3.952   2.724 -0.8394  0.9144 -0.4958
    1SOL    MW4 5980   0.393   4.006   2.748 -0.5118  0.3572 -0.0975
    1SOL     OW 5981   0.436   4.259   2.662 -0.2256 -0.3884 -0.8234
    1SOL    HW2 5982   0.520   4.298   2.684 -1.2642  1.6025 -0.2663
    1SOL    HW3 5983   0.432   4.263   2.566 -0.2863  0.8017 -0.7730
    1SOL    MW4 5984   0.446   4.264   2.652 -0.3706  0.0305 -0.7432
    1SOL     OW 5985   0.681   4.419   2.746  0.2788 -0.1513 -0.0441
    1SOL    HW2 5986   0.753   4.363   2.718  0.2680 -0.0026 -0.3710
    1SOL    HW3 5987   0.694   4.501   2.700 -1.0435 -0.6909 -1.4281
    1SOL    MW4 5988   0.692   4.423   2.736  0.1029 -0.2022 -0.2697
    1SOL     OW 5989   1.124   4.611   2.666 -0.1779 -0.3069  0.2947
    1SOL    HW2 5990   1.202   4.662   2.686  0.3496 -1.0189  0.0692
    1SOL    HW3 5991   1.130   4.534   2.722 -0.2976 -0.7703 -0.3180
    1SOL    MW4 5992   1.135   4.607   2.676 -0.1241 -0.4616  0.1841
    1SOL     OW 5993   0.893   0.103   2.692  0.2727 -0.2017  0.0971
    1SOL    HW2 5994   0.881   0.098   2.787  1.2779  0.3891  0.2650
    1SOL    HW3 5995   0.973   0.053   2.676  1.7454  2.1724 -0.0772
    1SOL    MW4 5996   0.902   0.096   2.703  0.5996  0.1895  0.0961
    1SOL     OW 5997   0.905   0.379   2.647  0.2746  0.2865 -0.2818
    1SOL    HW2 5998   0.889   0.287   2.670 -1.3202  0.5127 -0.3783
    1SOL    HW3 5999   0.884   0.384   2.554 -0.3761  0.8977 -0.1066
    1SOL    MW4 6000   0.900   0.367   2.638 -0.0217  0.3970 -0.2711
    1SOL     OW 6001   1.132   0.512   2.740 -0.0238  0.5765 -0.5977
    1SOL    HW2 6002   1.135   0.598   2.697 -1.3170  1.5853  1.2591
    1SOL    HW3 6003   1.051   0.472   2.709 -0.3310  0.7837 -0.0640
    1SOL    MW4 6004   1.122   0.518   2.730 -0.2351  0.7370 -0.2825
    1SOL     OW 6005   1.132   0.785   2.650 -0.5423 -0.0614 -0.7003
    1SOL    HW2 6006   1.220   0.805   2.680 -0.4630 -1.9550  0.4019
    1SOL    HW3 6007   1.138   0.783   2.554  0.6036 -0.1740 -0.6251
    1SOL    MW4 6008   1.144   0.788   2.641 -0.3806 -0.3262 -0.5450
    1SOL     OW 6009   0.904   0.910   2.725  0.1264  0.0279  0.4563
    1SOL    HW2 6010   0.914   0.905   2.820  2.0765 -0.5158  0.2566
    1SOL    HW3 6011   0.982   0.865   2.691 -0.3702  0.5356 -1.3947
    1SOL    MW4 6012   0.916   0.903   2.733  0.3181  0.0232  0.1855
    1SOL     OW 6013   0.913   1.171   2.635 -0.1065  0.1129 -0.6875
    1SOL    HW2 6014   0.910   1.083   2.674 -1.3490  0.6821  0.5419
    1SOL    HW3 6015   0.907   1.155   2.541  0.5008 -1.1685 -0.5174
    1SOL    MW4 6016   0.912   1.157   2.628 -0.1903  0.0190 -0.5028
    1SOL     OW 6017   1.136   1.280   2.749  0.6528 -0.0775 -0.1934
    1SOL    HW2 6018   1.140   1.363   2.702 -1.2818  2.4078  3.7672
    1SOL    HW3 6019   1.058   1.237   2.714  0.4732  0.7246 -0.7967
    1SOL    MW4 6020   1.126   1.285   2.738  0.3738  0.3562  0.2496
    1SOL     OW 6021   1.146   1.526   2.640 -0.1285 -0.7432 -0.0420
    1SOL    HW2 6022   1.059   1.552   2.669  0.0180 -1.4564  1.0849
    1SOL    HW3 6023   1.149   1.549   2.548 -1.9741 -1.8905 -0.4188
    1SOL    MW4 6024   1.135   1.532   2.632 -0.3526 -0.9887  0.0572
    1SOL     OW 6025   0.916   1.658   2.728  0.1819  0.1241 -0.4846
    1SOL    HW2 6026   0.898   1.687   2.817  0.2246  1.8298 -1.0143
    1SOL    HW3 6027   0.838   1.609   2.702  0.1959 -0.4237  0.4986
    1SOL    MW4 6028   0.903   1.655   2.736  0.1895  0.2768 -0.4246
    1SOL     OW 6029   0.868   1.927   2.648  0.2295 -0.3191 -0.3921
    1SOL    HW2 6030   0.932   1.982   2.694 -1.5618  1.0524  0.5345
    1SOL    HW3 6031   0.888   1.838   2.678  2.8493 -0.1550 -1.5223
    1SOL    MW4 6032   0.879   1.923   2.658  0.3388 -0.1165 -0.4187
    1SOL     OW 6033   1.092   2.061   2.774 -0.3448 -0.3327  0.0437
    1SOL    HW2 6034   1.160   2.010   2.730 -0.4484 -0.3817 -0.0609
    1SOL    HW3 6035   1.108   2.151   2.746  0.3427 -0.1901  0.8793
    1SOL    MW4 6036   1.103   2.066   2.764 -0.2677 -0.3204  0.1404
    1SOL     OW 6037   1.124   2.328   2.684 -0.1009 -0.0676 -0.0098
    1SOL    HW2 6038   1.184   2.391   2.725  0.3207 -0.6866  0.3241
    1SOL    HW3 6039   1.141   2.337   2.590  0.1353  0.1339  0.0504
    1SOL    MW4 6040   1.134   2.338   2.677 -0.0141 -0.1228  0.0422
    1SOL     OW 6041   0.894   2.430   2.772 -0.7114 -0.5228  0.3369
    1SOL    HW2 6042   0.899   2.515   2.729 -1.3053  0.4356  2.1149
    1SOL    HW3 6043   0.967   2.380   2.736 -0.5818  0.6108 -0.9946
    1SOL    MW4 6044   0.904   2.435   2.762 -0.7727 -0.2468  0.3958
    1SOL     OW 6045   0.887   2.671   2.651  0.6483  0.2392  0.1914
    1SOL    HW2 6046   0.944   2.723   2.708 -0.0708  0.2114  0.9395
    1SOL    HW3 6047   0.801   2.711   2.659  0.5936  0.3999 -1.0932
    1SOL    MW4 6048   0.883   2.683   2.659  0.5463  0.2565  0.1206
    1SOL     OW 6049   1.083   2.832   2.752  0.0000  0.0000 -0.1632
    1SOL    HW2 6050   1.106   2.825   2.845  0.0000  0.0000 -0.1655
    1SOL    HW3 6051   1.159   2.795   2.706  0.0000  0.0000 -0.1716
    1SOL    MW4 6052   1.096   2.826   2.758  0.0000  0.0000 -0.1645
    1SOL     OW 6053   1.148   3.096   2.658  0.0000  0.0000 -0.6240
    1SOL    HW2 6054   1.122   3.007   2.680  0.0000  0.0000 -0.6317
    1SOL    HW3 6055   1.136   3.101   2.563  0.0000  0.0000 -0.6241
    1SOL    MW4 6056   1.143   3.085   2.648  0.0000  0.0000 -0.6249
    1SOL     OW 6057   0.919   3.208   2.785  0.0000  0.0000 -0.3102
    1SOL    HW2 6058   0.903   3.287   2.733  0.0000  0.0000 -0.3000
    1SOL    HW3 6059   1.006   3.179   2.757  0.0000  0.0000 -0.3287
    1SOL    MW4 6060   0.928   3.215   2.774  0.0000  0.0000 -0.3111
    1SOL     OW 6061   0.887   3.462   2.676  0.0000  0.0000  0.8814
    1SOL    HW2 6062   0.961   3.509   2.717  0.0000  0.0000  0.9268
    1SOL    HW3 6063   0.810   3.512   2.703  0.0000  0.0000  0.8239
    1SOL    MW4 6064   0.887   3.475   2.685  0.0000  0.0000  0.8800
    1SOL     OW 6065   1.102   3.599   2.770  0.0000  0.0000  0.1197
    1SOL    HW2 6066   1.101   3.626   2.862  0.0000  0.0000  0.1211
    1SOL    HW3 6067   1.100   3.681   2.721  0.0000  0.0000  0.1235
    1SOL    MW4 6068   1.102   3.613   2.775  0.0000  0.0000  0.1204
    1SOL     OW 6069   1.098   3.851   2.647  0.0000  0.0000  0.4542
    1SOL    HW2 6070   1.178   3.889   2.684  0.0000  0.0000  0.4509
    1SOL    HW3 6071   1.110   3.859   2.552  0.0000  0.0000  0.4536
    1SOL    MW4 6072   1.110   3.857   2.639  0.0000  0.0000  0.4535
    1SOL     OW 6073   0.893   4.008   2.758  0.0000  0.0000  0.4781
    1SOL    HW2 6074   0.957   3.963   2.703  0.0000  0.0000  0.4775
    1SOL    HW3 6075   0.809   3.969   2.733  0.0000  0.0000  0.4841
    1SOL    MW4 6076   0.890   3.997   2.748  0.0000  0.0000  0.4790
    1SOL     OW 6077   0.888   4.266   2.649  0.0000  0.0000  0.3919
    1SOL    HW2 6078   0.892   4.173   2.673  0.0000  0.0000  0.3948
    1SOL    HW3 6079   0.884   4.265   2.553  0.0000  0.0000  0.3919
    1SOL    MW4 6080   0.888   4.254   2.639  0.0000  0.0000  0.3922
    1SOL     OW 6081   1.144   4.351   2.783  0.0000  0.0000  0.7137
    1SOL    HW2 6082   1.137   4.378   2.874  0.0000  0.0000  0.7150
    1SOL    HW3 6083   1.055   4.327   2.757  0.0000  0.0000  0.7168
    1SOL    MW4 6084   1.131   4.351   2.791  0.0000  0.0000  0.7143
    1SOL     OW 6085   1.586   4.644   2.658 -0.2986 -0.0657 -0.1109
    1SOL    HW2 6086   1.581   4.553   2.687  0.1370 -0.3986 -1.0410
    1SOL    HW3 6087   1.567   4.639   2.564 -2.4511  1.0630  0.2382
    1SOL    MW4 6088   1.583   4.631   2.649 -0.5251  0.0386 -0.1876
    1SOL     OW 6089   1.347   0.110   2.763 -0.1722 -0.0251 -0.4509
    1SOL    HW2 6090   1.344   0.195   2.721  0.4476 -0.5227 -1.5293
    1SOL    HW3 6091   1.427   0.069   2.729  0.8292 -0.0988  1.8814
    1SOL    MW4 6092   1.357   0.116   2.753  0.0418 -0.1005 -0.2856
    1SOL     OW 6093   1.344   0.345   2.634  0.5122  0.1111 -0.2308
    1SOL    HW2 6094   1.417   0.378   2.685  0.3068 -0.4578  0.4493
    1SOL    HW3 6095   1.268   0.392   2.667  0.4860  0.2515 -0.4970
    1SOL    MW4 6096   1.344   0.355   2.645  0.4816  0.0546 -0.1762
    1SOL     OW 6097   1.583   0.479   2.752 -0.1850 -0.2789 -0.4702
    1SOL    HW2 6098   1.670   0.454   2.720 -0.3373 -0.9151 -0.4046
    1SOL    HW3 6099   1.575   0.571   2.731 -0.5802 -0.8560 -2.9635
    1SOL    MW4 6100   1.593   0.488   2.745 -0.2571 -0.4390 -0.7906
    1SOL     OW 6101   1.593   0.756   2.665  0.2805  0.2951  0.1368
    1SOL    HW2 6102   1.516   0.800   2.702  1.1961  1.4587  0.7033
    1SOL    HW3 6103   1.573   0.746   2.572 -0.5266  0.6592  0.2731
    1SOL    MW4 6104   1.580   0.761   2.657  0.2948  0.4967  0.2298
    1SOL     OW 6105   1.361   0.886   2.765  0.1913 -0.2847 -0.3263
    1SOL    HW2 6106   1.348   0.883   2.860  1.6367 -1.3467 -0.1391
    1SOL    HW3 6107   1.342   0.976   2.741  1.5667  0.4532  1.2485
    1SOL    MW4 6108   1.356   0.897   2.774  0.5635 -0.3275 -0.0939
    1SOL     OW 6109   1.344   1.144   2.629  0.3194  0.0958 -0.7992
    1SOL    HW2 6110   1.408   1.196   2.677 -1.0417 -0.9829  2.2770
    1SOL    HW3 6111   1.259   1.177   2.657 -0.5289 -2.1393 -0.6209
    1SOL    MW4 6112   1.341   1.155   2.639  0.0279 -0.3414 -0.3700
    1SOL     OW 6113   1.565   1.271   2.750  0.3481 -0.2893 -0.2888
    1SOL    HW2 6114   1.566   1.271   2.845 -0.0196  0.5116 -0.2754
    1SOL    HW3 6115   1.619   1.196   2.725  0.7864 -0.2623  0.5452
    1SOL    MW4 6116   1.572   1.261   2.759  0.3573 -0.1802 -0.1769
    1SOL     OW 6117   1.590   1.531   2.657 -0.1653  0.5436  0.2880
    1SOL    HW2 6118   1.592   1.441   2.689 -0.7894  0.4954  0.1887
    1SOL    HW3 6119   1.580   1.523   2.562  2.1261  0.6763  0.0044
    1SOL    MW4 6120   1.589   1.518   2.649  0.0547  0.5547  0.2377
    1SOL     OW 6121   1.372   1.670   2.711 -0.1877 -0.1902 -0.0794
    1SOL    HW2 6122   1.442   1.616   2.674 -0.0657  0.9891 -1.6030
    1SOL    HW3 6123   1.292   1.619   2.696  0.0647 -0.4951 -0.4063
    1SOL    MW4 6124   1.371   1.656   2.705 -0.1382 -0.0749 -0.3233
    1SOL     OW 6125   1.311   1.933   2.657 -0.6188  0.4767 -0.2725
    1SOL    HW2 6126   1.339   1.845   2.682 -0.7433  0.8925  1.3840
    1SOL    HW3 6127   1.303   1.930   2.561 -1.0051 -1.4191 -0.1960
    1SOL    MW4 6128   1.313   1.921   2.647 -0.6862  0.2816 -0.0436
    1SOL     OW 6129   1.560   2.049   2.765  0.3889 -0.2087 -0.0717
    1SOL    HW2 6130   1.634   2.009   2.720  0.6032 -0.0757  0.1654
    1SOL    HW3 6131   1.485   1.995   2.739  0.6439 -0.6415  0.0845
    1SOL    MW4 6132   1.560   2.037   2.756  0.4507 -0.2484 -0.0193
    1SOL     OW 6133   1.544   2.329   2.649  0.0292  0.2649  0.2411
    1SOL    HW2 6134   1.619   2.369   2.693  1.1873 -0.2127 -1.2671
    1SOL    HW3 6135   1.546   2.237   2.677 -1.5944  0.8043  2.3025
    1SOL    MW4 6136   1.554   2.322   2.659 -0.0323  0.2735  0.3142
    1SOL     OW 6137   1.345   2.475   2.767 -0.2677  0.1278 -0.0051
    1SOL    HW2 6138   1.331   2.560   2.724  1.3126  0.6164  0.3967
    1SOL    HW3 6139   1.411   2.432   2.713 -0.1102 -0.3000  0.5248
    1SOL    MW4 6140   1.352   2.481   2.754 -0.0384  0.1361  0.1180
    1SOL     OW 6141   1.319   2.741   2.620 -0.2484  0.4617 -0.2420
    1SOL    HW2 6142   1.395   2.785   2.659 -0.5517  0.4503  0.3748
    1SOL    HW3 6143   1.324   2.763   2.527  0.7152  0.1482 -0.2649
    1SOL    MW4 6144   1.330   2.750   2.613 -0.1613  0.4191 -0.1633
    1SOL     OW 6145   1.537   2.852   2.750 -0.2337  0.1293 -0.1340
    1SOL    HW2 6146   1.552   2.866   2.844 -1.1433  1.3371 -0.1691
    1SOL    HW3 6147   1.613   2.799   2.722  0.0737 -0.1938  1.2577
    1SOL    MW4 6148   1.549   2.847   2.759 -0.3132  0.2460  0.0453
    1SOL     OW 6149   1.578   3.104   2.626 -0.0262  0.2927 -0.8807
    1SOL    HW2 6150   1.656   3.143   2.666  0.0905 -1.1809  0.3326
    1SOL    HW3 6151   1.574   3.015   2.660 -4.1917  1.3782  1.8472
    1SOL    MW4 6152   1.588   3.098   2.636 -0.5604  0.2418 -0.3607
    1SOL     OW 6153   1.368   3.186   2.790  0.3599  0.2932  0.0054
    1SOL    HW2 6154   1.448   3.161   2.745 -0.2762 -1.3061 -0.2565
    1SOL    HW3 6155   1.299   3.137   2.746 -0.6365  0.8532  0.9073
    1SOL    MW4 6156   1.369   3.176   2.778  0.1445  0.1559  0.0899
    1SOL     OW 6157   1.343   3.444   2.705  0.3419  0.2850 -0.2650
    1SOL    HW2 6158   1.333   3.354   2.736  0.3469  0.0449 -0.9635
    1SOL    HW3 6159   1.256   3.483   2.718  0.2588  0.0947 -0.2487
    1SOL    MW4 6160   1.330   3.437   2.711  0.3318  0.2279 -0.3550
    1SOL     OW 6161   1.585   3.606   2.732 -0.0569  0.4950  0.3952
    1SOL    HW2 6162   1.650   3.560   2.679 -0.8297  0.1040 -0.2267
    1SOL    HW3 6163   1.506   3.552   2.725 -0.0318  0.1295  2.3878
    1SOL    MW4 6164   1.583   3.593   2.724 -0.1554  0.3951  0.5760
    1SOL     OW 6165   1.606   3.867   2.653  0.5984  0.2078  0.4928
    1SOL    HW2 6166   1.526   3.916   2.673  0.2526  0.2360 -0.8824
    1SOL    HW3 6167   1.591   3.780   2.690 -0.5176 -0.1072 -0.6338
    1SOL    MW4 6168   1.593   3.862   2.661  0.4054  0.1702  0.1626
    1SOL     OW 6169   1.345   3.969   2.726  0.1222 -0.2463  0.0505
    1SOL    HW2 6170   1.345   3.976   2.821 -1.6383  0.7119 -0.0070
    1SOL    HW3 6171   1.343   4.059   2.694  1.1332 -0.5429 -0.9183
    1SOL    MW4 6172   1.345   3.982   2.734  0.0235 -0.1590 -0.0849
    1SOL     OW 6173   1.369   4.242   2.667 -0.2165  0.4407  0.5673
    1SOL    HW2 6174   1.289   4.276   2.708 -0.7702 -1.5573  1.1947
    1SOL    HW3 6175   1.351   4.244   2.573 -1.6810 -1.5463  0.7677
    1SOL    MW4 6176   1.356   4.247   2.660 -0.4828 -0.0849  0.6766
    1SOL     OW 6177   1.568   4.377   2.757  0.3296  0.2342  0.1953
    1SOL    HW2 6178   1.572   4.366   2.852  0.3704 -0.3050  0.1335
    1SOL    HW3 6179   1.490   4.328   2.731  0.7458 -0.2513 -0.1354
    1SOL    MW4 6180   1.558   4.369   2.766  0.3899  0.0992  0.1433
    1SOL     OW 6181   2.023   4.635   2.651 -0.2918 -0.0958  0.1452
    1SOL    HW2 6182   2.095   4.686   2.687  0.5032 -0.5765 -0.7586
    1SOL    HW3 6183   2.042   4.545   2.678 -0.4109 -0.2625 -0.3277
    1SOL    MW4 6184   2.035   4.630   2.660 -0.2027 -0.1812 -0.0362
    1SOL     OW 6185   1.806   0.129   2.726 -0.2090  0.0778 -0.4476
    1SOL    HW2 6186   1.872   0.062   2.710 -1.1134 -1.2404  1.2349
    1SOL    HW3 6187   1.723   0.087   2.705 -0.7318  0.8907 -0.0396
    1SOL    MW4 6188   1.804   0.115   2.721 -0.3973  0.0111 -0.1717
    1SOL     OW 6189   1.830   0.395   2.652 -0.2821  0.1553  0.1865
    1SOL    HW2 6190   1.909   0.434   2.689 -0.8589  0.3262  1.2827
    1SOL    HW3 6191   1.836   0.302   2.674 -0.5191  0.2174  0.5164
    1SOL    MW4 6192   1.841   0.388   2.660 -0.3895  0.1860  0.3748
    1SOL     OW 6193   2.069   0.495   2.752  0.4685 -0.1699  0.0702
    1SOL    HW2 6194   2.139   0.442   2.714  0.0507 -0.1727 -0.7129
    1SOL    HW3 6195   2.077   0.579   2.708 -0.2503 -0.2870 -0.2902
    1SOL    MW4 6196   2.079   0.499   2.741  0.3185 -0.1857 -0.0806
    1SOL     OW 6197   2.040   0.746   2.627  0.0437 -0.1880 -0.1577
    1SOL    HW2 6198   1.962   0.774   2.674  0.3085 -1.2708  0.9589
    1SOL    HW3 6199   2.013   0.741   2.535 -0.6909  1.1758 -0.0300
    1SOL    MW4 6200   2.026   0.749   2.621 -0.0181 -0.1509  0.0064
    1SOL     OW 6201   1.821   0.848   2.773  0.2299  0.3419 -0.4547
    1SOL    HW2 6202   1.829   0.939   2.747  0.5704  1.1333  2.3030
    1SOL    HW3 6203   1.742   0.817   2.728  1.0233  1.4775 -2.7237
    1SOL    MW4 6204   1.812   0.856   2.764  0.3794  0.5962 -0.3903
    1SOL     OW 6205   1.796   1.112   2.670 -0.2331 -0.0531 -0.2584
    1SOL    HW2 6206   1.859   1.182   2.686  0.5372 -0.5571 -1.0069
    1SOL    HW3 6207   1.802   1.096   2.575  0.0608 -1.5465 -0.0086
    1SOL    MW4 6208   1.805   1.119   2.659 -0.0927 -0.3166 -0.3240
    1SOL     OW 6209   2.027   1.254   2.771 -0.4236  0.1867 -0.1896
    1SOL    HW2 6210   2.027   1.347   2.749  0.7823  0.4140  0.7176
    1SOL    HW3 6211   2.011   1.252   2.865  0.3942 -0.4772 -0.0634
    1SOL    MW4 6212   2.025   1.266   2.781 -0.1569  0.1290 -0.0532
    1SOL     OW 6213   1.991   1.535   2.649  0.6815  0.2556  0.0068
    1SOL    HW2 6214   1.925   1.585   2.697  0.7116 -0.2039  0.5319
    1SOL    HW3 6215   2.075   1.572   2.678  0.7447 -0.7049  1.1045
    1SOL    MW4 6216   1.993   1.546   2.660  0.6937  0.0682  0.2208
    1SOL     OW 6217   1.786   1.698   2.783 -0.0998 -0.0589  0.3095
    1SOL    HW2 6218   1.789   1.689   2.878 -1.4420 -0.5643  0.3176
    1SOL    HW3 6219   1.703   1.657   2.758  0.5274 -0.4737 -1.1382
    1SOL    MW4 6220   1.775   1.692   2.792 -0.1942 -0.1804  0.1197
    1SOL     OW 6221   1.775   1.929   2.638 -0.2241  0.3008  0.0504
    1SOL    HW2 6222   1.853   1.977   2.667 -1.3962  1.6701  1.0301
    1SOL    HW3 6223   1.774   1.850   2.692  0.9752 -0.1762 -0.6098
    1SOL    MW4 6224   1.785   1.925   2.649 -0.2205  0.4187  0.0925
    1SOL     OW 6225   1.968   2.059   2.783  0.0980 -0.0417 -0.1524
    1SOL    HW2 6226   1.979   2.062   2.878 -0.5863 -1.3284 -0.0186
    1SOL    HW3 6227   1.956   2.150   2.758  0.3790  0.3202  0.9865
    1SOL    MW4 6228   1.968   2.071   2.793  0.0448 -0.1636  0.0153
    1SOL     OW 6229   2.004   2.309   2.654  0.0979 -0.6729  0.6767
    1SOL    HW2 6230   2.084   2.344   2.693  0.9682 -1.0251 -0.7418
    1SOL    HW3 6231   2.017   2.320   2.559 -1.7899 -0.1695  0.4558
    1SOL    MW4 6232   2.016   2.315   2.646 -0.0362 -0.6533  0.4606
    1SOL     OW 6233   1.773   2.428   2.753  0.0523  0.0497  0.1737
    1SOL    HW2 6234   1.792   2.418   2.846 -1.7390 -1.9344  0.3709
    1SOL    HW3 6235   1.854   2.403   2.709  0.9629  1.1843  1.2034
    1SOL    MW4 6236   1.786   2.423   2.759 -0.0638 -0.0625  0.3357
    1SOL     OW 6237   1.762   2.708   2.717 -0.6906 -0.2934 -0.1973
    1SOL    HW2 6238   1.744   2.620   2.751 -0.1275 -0.3317  0.0158
    1SOL    HW3 6239   1.762   2.697   2.622  1.3951 -0.9635 -0.1586
    1SOL    MW4 6240   1.760   2.695   2.709 -0.3411 -0.3867 -0.1640
    1SOL     OW 6241   2.013   2.818   2.756 -0.2455  0.0179 -0.5780
    1SOL    HW2 6242   2.074   2.754   2.718 -0.2801 -1.0628  1.0820
    1SOL    HW3 6243   1.926   2.781   2.740 -0.1933 -1.6116  2.3753
    1SOL    MW4 6244   2.009   2.804   2.749 -0.2432 -0.3395  0.0308
    1SOL     OW 6245   2.033   3.081   2.664 -0.2130 -0.5855  0.0416
    1SOL    HW2 6246   2.031   2.989   2.688 -1.3875 -0.8029 -0.8516
    1SOL    HW3 6247   2.018   3.082   2.569  0.8273  0.4623 -0.1248
    1SOL    MW4 6248   2.031   3.069   2.655 -0.2310 -0.4759 -0.0982
    1SOL     OW 6249   1.796   3.201   2.760 -0.1216 -0.1472  0.4487
    1SOL    HW2 6250   1.807   3.287   2.720 -1.5195  0.3164  1.0312
    1SOL    HW3 6251   1.877   3.154   2.740  0.8944  1.5082  0.6147
    1SOL    MW4 6252   1.808   3.206   2.752 -0.1718  0.1326  0.5476
    1SOL     OW 6253   1.821   3.454   2.632 -0.2065 -0.7747 -0.1166
    1SOL    HW2 6254   1.892   3.499   2.679  1.4456 -3.0561 -0.3164
    1SOL    HW3 6255   1.839   3.470   2.540 -1.2041  0.4441 -0.1042
    1SOL    MW4 6256   1.833   3.462   2.626 -0.1200 -0.9148 -0.1414
    1SOL     OW 6257   2.023   3.591   2.761 -0.6287 -0.2099 -0.6039
    1SOL    HW2 6258   2.037   3.566   2.852 -2.3634 -0.9778 -0.5218
    1SOL    HW3 6259   2.096   3.550   2.714  1.2117  1.5761  0.6264
    1SOL    MW4 6260   2.034   3.582   2.767 -0.6149 -0.0758 -0.4308
    1SOL     OW 6261   2.053   3.865   2.666 -0.1927  0.0677  0.3331
    1SOL    HW2 6262   1.976   3.907   2.706 -0.3915  0.6243 -0.6301
    1SOL    HW3 6263   2.045   3.773   2.691 -0.3149  0.3983  1.5838
    1SOL    MW4 6264   2.041   3.859   2.675 -0.2351  0.1845  0.3712
    1SOL     OW 6265   1.820   3.998   2.768  0.3019  0.4920 -0.1153
    1SOL    HW2 6266   1.822   4.085   2.730 -0.6780  1.4104  1.8751
    1SOL    HW3 6267   1.744   3.956   2.728  0.5087  0.6903 -0.7249
    1SOL    MW4 6268   1.810   4.004   2.758  0.1999  0.6394  0.0670
    1SOL     OW 6269   1.814   4.269   2.652  0.2444  0.5270 -0.0815
    1SOL    HW2 6270   1.739   4.321   2.679 -0.2716 -0.3073  0.0908
    1SOL    HW3 6271   1.813   4.274   2.556  0.4965  1.2511 -0.0502
    1SOL    MW4 6272   1.804   4.276   2.643  0.2097  0.5131 -0.0548
    1SOL     OW 6273   2.055   4.370   2.727 -0.4626  0.1688  0.2901
    1SOL    HW2 6274   1.970   4.338   2.696 -0.8453  0.9508  0.5252
    1SOL    HW3 6275   2.039   4.395   2.818  0.5206 -1.6069  0.9736
    1SOL    MW4 6276   2.042   4.369   2.735 -0.3829  0.0381  0.4113
    1SOL     OW 6277   2.483   4.656   2.693  0.6421  0.4271  0.4164
    1SOL    HW2 6278   2.563   4.705   2.713  0.0485  1.3108  0.6853
    1SOL    HW3 6279   2.483   4.646   2.598  1.0949  0.3998  0.4202
    1SOL    MW4 6280   2.493   4.662   2.683  0.6237  0.5403  0.4525
    1SOL     OW 6281   2.246   0.095   2.772 -0.3135  0.2087 -0.1388
    1SOL    HW2 6282   2.246   0.086   2.868 -1.0744 -0.3967 -0.1893
    1SOL    HW3 6283   2.330   0.059   2.744 -0.7063 -0.9642  0.1831
    1SOL    MW4 6284   2.257   0.089   2.781 -0.4659 -0.0259 -0.1028
    1SOL     OW 6285   2.276   0.352   2.656  0.4867 -0.2480  0.0351
    1SOL    HW2 6286   2.250   0.264   2.682  1.7892 -0.3681  0.9603
    1SOL    HW3 6287   2.266   0.353   2.561  0.7263 -1.4731 -0.0109
    1SOL    MW4 6288   2.271   0.341   2.647  0.6902 -0.4255  0.1512
    1SOL     OW 6289   2.456   0.503   2.799 -0.3975  0.0073  0.4744
    1SOL    HW2 6290   2.459   0.582   2.745  1.6267 -1.1511 -1.2156
    1SOL    HW3 6291   2.380   0.455   2.765 -1.5298  1.1038  1.3899
    1SOL    MW4 6292   2.446   0.507   2.787 -0.2799 -0.0009  0.3719
    1SOL     OW 6293   2.473   0.714   2.633  0.0032 -0.1638  0.0763
    1SOL    HW2 6294   2.407   0.779   2.655  0.7078  0.6028 -0.0622
    1SOL    HW3 6295   2.483   0.720   2.538 -0.0117 -0.5462  0.0499
    1SOL    MW4 6296   2.466   0.723   2.624  0.0942 -0.1131  0.0546
    1SOL     OW 6297   2.271   0.888   2.706  0.1695 -0.3179 -0.0731
    1SOL    HW2 6298   2.274   0.859   2.797 -1.7026 -1.5819 -0.3796
    1SOL    HW3 6299   2.206   0.831   2.665  0.9617  0.2549 -2.2012
    1SOL    MW4 6300   2.263   0.877   2.713  0.0269 -0.4091 -0.3946
    1SOL     OW 6301   2.261   1.155   2.635 -0.0466 -0.4795  0.6320
    1SOL    HW2 6302   2.277   1.067   2.668  1.1413 -0.3189  0.5282
    1SOL    HW3 6303   2.173   1.177   2.664 -0.5089 -1.8599  0.3082
    1SOL    MW4 6304   2.252   1.146   2.643  0.0494 -0.6404  0.5758
    1SOL     OW 6305   2.475   1.289   2.740 -0.1790  0.0641 -0.0633
    1SOL    HW2 6306   2.546   1.231   2.716 -0.3537 -0.5768  0.9402
    1SOL    HW3 6307   2.395   1.243   2.714 -0.3518 -0.4786  1.3686
    1SOL    MW4 6308   2.474   1.276   2.734 -0.2251 -0.0921  0.2577
    1SOL     OW 6309   2.458   1.535   2.626  0.1294  0.0893 -0.1186
    1SOL    HW2 6310   2.375   1.563   2.665  0.1549 -1.1231  0.8395
    1SOL    HW3 6311   2.463   1.441   2.646  1.0068 -0.1694 -1.4879
    1SOL    MW4 6312   2.447   1.526   2.634  0.2487 -0.1048 -0.1729
    1SOL     OW 6313   2.227   1.647   2.748 -0.0724  0.0173 -0.0616
    1SOL    HW2 6314   2.213   1.737   2.719  0.9608  0.0553 -0.4353
    1SOL    HW3 6315   2.264   1.656   2.836  0.4923 -0.0389 -0.2957
    1SOL    MW4 6316   2.230   1.660   2.756  0.1383  0.0149 -0.1419
    1SOL     OW 6317   2.160   1.888   2.637 -0.2195  0.0719  0.1973
    1SOL    HW2 6318   2.096   1.939   2.686 -1.3809 -1.2224  0.0430
    1SOL    HW3 6319   2.148   1.914   2.546 -0.3244  0.0492  0.2044
    1SOL    MW4 6320   2.150   1.898   2.632 -0.3867 -0.1017  0.1776
    1SOL     OW 6321   2.400   2.030   2.727  0.1625 -0.0103  0.0113
    1SOL    HW2 6322   2.391   2.116   2.687 -0.5305 -0.1726 -0.1854
    1SOL    HW3 6323   2.324   1.980   2.695 -0.1679 -0.2744  1.1868
    1SOL    MW4 6324   2.389   2.035   2.717  0.0274 -0.0668  0.1404
    1SOL     OW 6325   2.393   2.305   2.624 -0.0814 -0.1545  0.1313
    1SOL    HW2 6326   2.478   2.325   2.666 -0.0730 -2.7020  1.4264
    1SOL    HW3 6327   2.410   2.314   2.531  2.0244 -1.9453  0.2945
    1SOL    MW4 6328   2.407   2.309   2.617  0.1976 -0.7269  0.3238
    1SOL     OW 6329   2.214   2.433   2.784 -0.0168  0.2989 -0.1724
    1SOL    HW2 6330   2.219   2.418   2.878 -0.3342 -0.6353 -0.3030
    1SOL    HW3 6331   2.284   2.380   2.747 -0.7113 -0.3523 -0.5729
    1SOL    MW4 6332   2.224   2.424   2.792 -0.1504  0.0896 -0.2427
    1SOL     OW 6333   2.242   2.670   2.651  0.4261  0.1199 -0.2733
    1SOL    HW2 6334   2.313   2.717   2.696  0.0058  0.1224  0.3965
    1SOL    HW3 6335   2.233   2.588   2.700  0.5578 -0.2726 -0.8981
    1SOL    MW4 6336   2.250   2.666   2.663  0.3881  0.0687 -0.2675
    1SOL     OW 6337   2.466   2.812   2.759 -0.3001 -0.4018 -0.7879
    1SOL    HW2 6338   2.531   2.766   2.707 -0.6110 -1.4278 -0.2804
    1SOL    HW3 6339   2.471   2.903   2.729  2.1740 -0.2268  0.0626
    1SOL    MW4 6340   2.475   2.818   2.749 -0.0148 -0.5140 -0.6089
    1SOL     OW 6341   2.460   3.084   2.648 -0.0403  0.3438  0.0041
    1SOL    HW2 6342   2.383   3.132   2.679 -1.2514 -0.9211 -0.9841
    1SOL    HW3 6343   2.447   3.075   2.554 -0.0305 -2.2011  0.2115
    1SOL    MW4 6344   2.448   3.089   2.640 -0.1988 -0.1588 -0.0989
    1SOL     OW 6345   2.228   3.252   2.751 -0.1794  0.4382 -0.0973
    1SOL    HW2 6346   2.224   3.263   2.846 -0.2039  1.4551 -0.2181
    1SOL    HW3 6347   2.147   3.206   2.729 -0.0964  0.0518  0.3898
    1SOL    MW4 6348   2.217   3.247   2.760 -0.1714  0.5214 -0.0489
    1SOL     OW 6349   2.253   3.488   2.617  0.2668 -0.4750  0.1206
    1SOL    HW2 6350   2.336   3.522   2.651 -1.1221  0.7396  2.3904
    1SOL    HW3 6351   2.246   3.401   2.656  0.5981 -0.6904 -0.2949
    1SOL    MW4 6352   2.263   3.481   2.627  0.1276 -0.3431  0.3655
    1SOL     OW 6353   2.493   3.582   2.716 -0.2530  0.0684 -0.1261
    1SOL    HW2 6354   2.488   3.584   2.812 -0.9535 -1.3471 -0.1280
    1SOL    HW3 6355   2.498   3.675   2.691 -2.6442  0.5843  1.1529
    1SOL    MW4 6356   2.493   3.595   2.725 -0.6607 -0.0505  0.0424
    1SOL     OW 6357   2.461   3.854   2.663  0.2227  0.2167 -0.0149
    1SOL    HW2 6358   2.536   3.904   2.695  0.7219 -1.1988  1.0564
    1SOL    HW3 6359   2.385   3.895   2.705  0.4190  1.3834 -0.7724
    1SOL    MW4 6360   2.461   3.866   2.672  0.3142  0.1841  0.0262
    1SOL     OW 6361   2.269   4.006   2.781  0.2397  0.8339  0.5342
    1SOL    HW2 6362   2.289   4.007   2.875  0.2259  2.3067  0.5328
    1SOL    HW3 6363   2.191   3.952   2.773  0.6058  0.1905  1.3019
    1SOL    MW4 6364   2.262   3.999   2.792  0.2861  0.9434  0.6354
    1SOL     OW 6365   2.300   4.257   2.648 -0.2369 -0.0458  0.3467
    1SOL    HW2 6366   2.297   4.168   2.682 -2.5390 -1.1276 -2.5701
    1SOL    HW3 6367   2.221   4.299   2.682  0.3289  0.6167  0.8856
    1SOL    MW4 6368   2.289   4.251   2.657 -0.4659 -0.1011  0.0329
    1SOL     OW 6369   2.491   4.395   2.786  0.2246  0.2839  0.1081
    1SOL    HW2 6370   2.429   4.342   2.736  0.9701 -0.4955 -0.0009
    1SOL    HW3 6371   2.480   4.484   2.753  0.0919 -0.0792 -0.8247
    1SOL    MW4 6372   2.482   4.400   2.775  0.3054  0.1330 -0.0293
    1SOL     OW 6373   2.925   4.647   2.671 -0.4211  0.1636  0.0347
    1SOL    HW2 6374   2.990   4.694   2.723 -1.4695 -0.6571  2.1301
    1SOL    HW3 6375   2.957   4.653   2.581  1.3499  1.7264  0.7501
    1SOL    MW4 6376   2.938   4.654   2.666 -0.3259  0.2618  0.4058
    1SOL     OW 6377   2.709   0.130   2.749 -0.0895  0.0296 -0.6386
    1SOL    HW2 6378   2.715   0.127   2.844  0.1081 -1.9264 -0.6895
    1SOL    HW3 6379   2.785   0.080   2.719 -0.3247  0.3647 -1.8333
    1SOL    MW4 6380   2.720   0.123   2.758 -0.0944 -0.1843 -0.8030
    1SOL     OW 6381   2.651   0.382   2.648  0.7526  0.4322  0.4868
    1SOL    HW2 6382   2.667   0.300   2.696 -0.7072 -0.2742 -0.1929
    1SOL    HW3 6383   2.568   0.415   2.684  0.6195  0.8794 -0.2271
    1SOL    MW4 6384   2.642   0.375   2.659  0.5424  0.3980  0.3028
    1SOL     OW 6385   2.884   0.508   2.736 -0.0081  0.1205  0.1079
    1SOL    HW2 6386   2.900   0.595   2.701  0.2180  0.1582  0.3065
    1SOL    HW3 6387   2.805   0.478   2.691  1.6961 -0.8647 -2.3691
    1SOL    MW4 6388   2.875   0.515   2.725  0.2468 -0.0045 -0.1926
    1SOL     OW 6389   2.911   0.776   2.643 -0.3398  0.0062  0.0119
    1SOL    HW2 6390   2.970   0.836   2.689  0.2947 -0.6517  0.0699
    1SOL    HW3 6391   2.823   0.807   2.665 -0.0210  0.8380  0.1348
    1SOL    MW4 6392   2.907   0.788   2.652 -0.2141  0.0291  0.0360
    1SOL     OW 6393   2.671   0.884   2.736  0.4713  0.2476 -0.4979
    1SOL    HW2 6394   2.673   0.884   2.832 -0.7269 -0.7492 -0.4436
    1SOL    HW3 6395   2.604   0.818   2.715  0.7791  0.4183 -2.0162
    1SOL    MW4 6396   2.662   0.875   2.746  0.3541  0.1386 -0.6909
    1SOL     OW 6397   2.703   1.150   2.656 -0.5298 -0.5512  0.2390
    1SOL    HW2 6398   2.785   1.195   2.678 -0.2896 -1.0477  0.3587
    1SOL    HW3 6399   2.717   1.060   2.684 -1.8938 -0.1650  2.2046
    1SOL    MW4 6400   2.716   1.144   2.663 -0.6781 -0.5656  0.5140
    1SOL     OW 6401   2.899   1.313   2.767 -0.0344 -0.0893  0.0495
    1SOL    HW2 6402   2.891   1.272   2.853 -1.9157 -1.1941 -0.6285
    1SOL    HW3 6403   2.968   1.263   2.723 -0.1009 -0.4619  0.3682
    1SOL    MW4 6404   2.907   1.301   2.773 -0.2916 -0.2843  0.0021
    1SOL     OW 6405   2.911   1.561   2.636  0.0070  0.2292  0.3178
    1SOL    HW2 6406   2.832   1.613   2.653  0.4426  1.4127 -1.1933
    1SOL    HW3 6407   2.904   1.487   2.697 -1.6758  0.9370  1.0246
    1SOL    MW4 6408   2.900   1.558   2.646 -0.1576  0.4787  0.2115
    1SOL     OW 6409   2.671   1.696   2.719  0.5852 -0.8323  0.6187
    1SOL    HW2 6410   2.676   1.688   2.814  0.0399 -0.5042  0.6764
    1SOL    HW3 6411   2.595   1.644   2.694  0.0480 -0.0007  0.4851
    1SOL    MW4 6412   2.662   1.688   2.728  0.4425 -0.6794  0.6087
    1SOL     OW 6413   2.660   1.965   2.626  0.0133  0.1774 -0.1306
    1SOL    HW2 6414   2.647   1.876   2.659 -0.0811 -0.4676 -1.8408
    1SOL    HW3 6415   2.584   2.013   2.657 -0.4733 -0.6086 -0.0819
    1SOL    MW4 6416   2.649   1.959   2.635 -0.0637 -0.0113 -0.3498
    1SOL     OW 6417   2.926   2.049   2.730 -0.0551  0.2274  0.1452
    1SOL    HW2 6418   2.935   2.140   2.701 -0.5524  0.0941 -0.4255
    1SOL    HW3 6419   2.836   2.026   2.710  0.0766 -0.4031  0.2735
    1SOL    MW4 6420   2.916   2.058   2.724 -0.1032  0.1268  0.0868
    1SOL     OW 6421   2.935   2.330   2.691 -0.2001  0.0320  0.1641
    1SOL    HW2 6422   2.989   2.403   2.721 -0.0992 -0.0342  0.1443
    1SOL    HW3 6423   2.846   2.365   2.687  0.1927  0.8538 -2.1473
    1SOL    MW4 6424   2.930   2.344   2.694 -0.1349  0.1316 -0.1435
    1SOL     OW 6425   2.641   2.380   2.708  0.0594 -0.1070 -0.3172
    1SOL    HW2 6426   2.663   2.392   2.800 -1.3493  1.6172 -0.1738
    1SOL    HW3 6427   2.654   2.466   2.668  1.3661 -1.0018 -1.9042
    1SOL    MW4 6428   2.646   2.393   2.715  0.0460  0.0026 -0.5078
    1SOL     OW 6429   2.675   2.675   2.637 -1.6272 -0.6690  0.3196
    1SOL    HW2 6430   2.758   2.716   2.662 -1.3929 -1.0343  0.1469
    1SOL    HW3 6431   2.663   2.699   2.545 -2.0834 -0.0017  0.5484
    1SOL    MW4 6432   2.684   2.684   2.628 -1.6568 -0.6289  0.3271
    1SOL     OW 6433   2.918   2.801   2.714  0.0201 -0.0567  0.0793
    1SOL    HW2 6434   2.928   2.792   2.809 -0.7239  0.9769  0.2562
    1SOL    HW3 6435   2.908   2.895   2.699  0.8521 -0.1439 -1.1029
    1SOL    MW4 6436   2.918   2.812   2.725  0.0317  0.0684 -0.0534
    1SOL     OW 6437   2.906   3.082   2.663  0.2391  0.0611  0.3130
    1SOL    HW2 6438   2.831   3.126   2.704  0.3876  0.7599 -0.1572
    1SOL    HW3 6439   2.884   3.079   2.570  0.0330 -1.2655  0.3893
    1SOL    MW4 6440   2.893   3.087   2.656  0.2313 -0.0217  0.2608
    1SOL     OW 6441   2.677   3.205   2.760 -0.0135  0.1812  0.0400
    1SOL    HW2 6442   2.693   3.290   2.719  2.1388 -0.6303 -0.8418
    1SOL    HW3 6443   2.595   3.175   2.721  0.5868  0.6534 -1.6190
    1SOL    MW4 6444   2.668   3.212   2.749  0.3498  0.1361 -0.2952
    1SOL     OW 6445   2.710   3.447   2.651 -0.0555 -0.1094  0.3945
    1SOL    HW2 6446   2.628   3.494   2.664  1.1677  2.0301  0.5922
    1SOL    HW3 6447   2.724   3.447   2.557  0.3361  0.6307  0.4499
    1SOL    MW4 6448   2.701   3.453   2.641  0.1576  0.2708  0.4277
    1SOL     OW 6449   2.902   3.632   2.714 -0.0376  0.2520  0.0095
    1SOL    HW2 6450   2.912   3.637   2.809 -0.6555  1.6851  0.0043
    1SOL    HW3 6451   2.829   3.571   2.701 -0.4864  0.6966  0.4703
    1SOL    MW4 6452   2.894   3.624   2.725 -0.1783  0.4997  0.0696
    1SOL     OW 6453   2.910   3.906   2.606 -0.2906  0.0230  0.1530
    1SOL    HW2 6454   2.989   3.931   2.654 -0.0978  0.7715 -0.5464
    1SOL    HW3 6455   2.899   3.813   2.624  0.7676 -0.0865  0.2412
    1SOL    MW4 6456   2.919   3.897   2.614 -0.1254  0.1073  0.0722
    1SOL     OW 6457   2.691   3.989   2.752 -0.4891  0.1272  0.3674
    1SOL    HW2 6458   2.689   4.084   2.738  0.6106  0.0118 -0.6444
    1SOL    HW3 6459   2.765   3.959   2.699 -2.6045 -1.6752 -1.6556
    1SOL    MW4 6460   2.700   3.998   2.743 -0.6230 -0.1256 -0.0329
    1SOL     OW 6461   2.710   4.265   2.677 -0.1159  0.6385 -0.3072
    1SOL    HW2 6462   2.789   4.302   2.715 -0.3703  1.6620 -0.7590
    1SOL    HW3 6463   2.639   4.304   2.728 -0.3779  0.6272 -0.6653
    1SOL    MW4 6464   2.711   4.275   2.689 -0.1841  0.7715 -0.4141
    1SOL     OW 6465   2.918   4.391   2.787  0.0174  0.1349  0.3645
    1SOL    HW2 6466   2.919   4.386   2.882 -0.7353  0.3655  0.3887
    1SOL    HW3 6467   2.927   4.485   2.768 -0.7594  0.1880  0.2317
    1SOL    MW4 6468   2.920   4.403   2.797 -0.1845  0.1721  0.3502
    1SOL     OW 6469   3.379   4.661   2.667 -0.7325  0.1372 -0.0012
    1SOL    HW2 6470   3.369   4.571   2.699 -0.3525  1.0576  2.9249
    1SOL    HW3 6471   3.300   4.706   2.698  0.4957  1.4980  1.2160
    1SOL    MW4 6472   3.367   4.655   2.676 -0.5202  0.4387  0.5453
    1SOL     OW 6473   3.145   0.105   2.782 -0.6012  0.2714  0.0497
    1SOL    HW2 6474   3.170   0.114   2.874 -1.3967 -1.0036  0.4059
    1SOL    HW3 6475   3.122   0.194   2.755 -1.2148  0.5219  1.3409
    1SOL    MW4 6476   3.145   0.118   2.791 -0.7870  0.1362  0.2670
    1SOL     OW 6477   3.125   0.367   2.682 -0.0468  0.0706 -0.1006
    1SOL    HW2 6478   3.051   0.422   2.708 -0.0629 -0.3181  0.6706
    1SOL    HW3 6479   3.126   0.373   2.586 -2.3132 -1.4883 -0.2723
    1SOL    MW4 6480   3.115   0.375   2.673 -0.3479 -0.1864 -0.0217
    1SOL     OW 6481   3.339   0.518   2.754 -0.1782  0.4252 -0.1895
    1SOL    HW2 6482   3.318   0.601   2.710 -0.7175  0.1372 -0.4844
    1SOL    HW3 6483   3.275   0.456   2.718 -0.0345 -0.0211  0.3347
    1SOL    MW4 6484   3.328   0.521   2.743 -0.2303  0.3283 -0.1593
    1SOL     OW 6485   3.338   0.778   2.623  0.2075 -0.0022  0.6109
    1SOL    HW2 6486   3.419   0.816   2.658  0.8069 -0.8601  0.1998
    1SOL    HW3 6487   3.342   0.795   2.529 -0.0333 -0.1334  0.5764
    1SOL    MW4 6488   3.349   0.785   2.615  0.2551 -0.1327  0.5522
    1SOL     OW 6489   3.123   0.911   2.758 -0.2315  0.3999 -0.3219
    1SOL    HW2 6490   3.119   0.880   2.849 -0.5292 -0.5237 -0.6433
    1SOL    HW3 6491   3.191   0.857   2.718  0.1912  1.0938 -0.5466
    1SOL    MW4 6492   3.131   0.900   2.765 -0.2151  0.3695 -0.3939
    1SOL     OW 6493   3.105   1.170   2.657 -0.1235 -0.0388 -0.1347
    1SOL    HW2 6494   3.112   1.084   2.700  2.0079  0.9821  1.6446
    1SOL    HW3 6495   3.131   1.153   2.567 -1.3850 -1.5695 -0.2527
    1SOL    MW4 6496   3.109   1.156   2.651 -0.0088 -0.1061  0.0846
    1SOL     OW 6497   3.366   1.267   2.728 -0.2677  0.2903  0.4791
    1SOL    HW2 6498   3.373   1.269   2.823 -0.7885 -0.2478  0.5282
    1SOL    HW3 6499   3.276   1.241   2.710  0.3288 -1.4070 -0.1432
    1SOL    MW4 6500   3.355   1.264   2.738 -0.2577 -0.0044  0.4034
    1SOL     OW 6501   3.381   1.515   2.592 -0.1292  0.1779  0.0513
    1SOL    HW2 6502   3.305   1.559   2.630 -1.2080  0.3829 -2.3079
    1SOL    HW3 6503   3.376   1.425   2.626 -2.3045 -0.2447 -1.2927
    1SOL    MW4 6504   3.370   1.509   2.602 -0.5589  0.1493 -0.4375
    1SOL     OW 6505   3.162   1.667   2.703 -0.1149  0.1727 -0.1554
    1SOL    HW2 6506   3.151   1.760   2.686  0.2017  0.0329 -1.2122
    1SOL    HW3 6507   3.084   1.626   2.666 -0.9208  0.1451  1.5594
    1SOL    MW4 6508   3.151   1.674   2.696 -0.1793  0.1507 -0.0687
    1SOL     OW 6509   3.165   1.928   2.642 -0.1334  0.1832 -0.1335
    1SOL    HW2 6510   3.219   1.986   2.695 -1.2575  0.3242  0.8735
    1SOL    HW3 6511   3.075   1.959   2.657 -0.5900 -0.7495 -0.9081
    1SOL    MW4 6512   3.160   1.940   2.651 -0.3421  0.0788 -0.1028
    1SOL     OW 6513   3.387   2.091   2.715  0.0142  0.3113  0.2764
    1SOL    HW2 6514   3.405   2.085   2.809 -1.1830 -0.7859  0.4563
    1SOL    HW3 6515   3.372   2.184   2.700 -0.2651  0.4417  1.2774
    1SOL    MW4 6516   3.387   2.103   2.726 -0.1805  0.1841  0.4323
    1SOL     OW 6517   3.348   2.351   2.655  0.0259 -0.3673  0.2562
    1SOL    HW2 6518   3.435   2.384   2.679 -0.1209 -0.6672  1.2334
    1SOL    HW3 6519   3.356   2.326   2.563  1.2246 -1.1896  0.5646
    1SOL    MW4 6520   3.361   2.352   2.646  0.1645 -0.5155  0.4258
    1SOL     OW 6521   3.142   2.513   2.753 -0.1498 -0.0613  0.0039
    1SOL    HW2 6522   3.133   2.591   2.700 -0.4890  0.9714  1.5462
    1SOL    HW3 6523   3.209   2.461   2.709  0.5032  1.3604 -0.7108
    1SOL    MW4 6524   3.150   2.516   2.740 -0.1082  0.2625  0.1130
    1SOL     OW 6525   3.167   2.748   2.617 -0.1801 -0.4909 -0.2231
    1SOL    HW2 6526   3.235   2.789   2.670 -0.1969 -0.2968 -0.3491
    1SOL    HW3 6527   3.085   2.783   2.653 -0.2301 -0.9540  0.1223
    1SOL    MW4 6528   3.165   2.758   2.629 -0.1888 -0.5262 -0.1941
    1SOL     OW 6529   3.394   2.868   2.770 -0.0039 -0.2961  0.3132
    1SOL    HW2 6530   3.394   2.872   2.866  1.0536 -0.2999  0.3117
    1SOL    HW3 6531   3.462   2.805   2.748  0.5147  0.5200 -0.4761
    1SOL    MW4 6532   3.403   2.861   2.780  0.2043 -0.1888  0.2089
    1SOL     OW 6533   3.387   3.106   2.628 -0.0739  0.4098  0.0997
    1SOL    HW2 6534   3.376   3.020   2.668 -0.0073  0.0574 -0.6401
    1SOL    HW3 6535   3.365   3.093   2.536  0.1734  1.1307 -0.0644
    1SOL    MW4 6536   3.383   3.093   2.621 -0.0329  0.4585 -0.0196
    1SOL     OW 6537   3.156   3.171   2.770 -0.2735 -0.4233 -0.5017
    1SOL    HW2 6538   3.229   3.148   2.712  0.5949  1.6401 -0.2929
    1SOL    HW3 6539   3.081   3.124   2.735  1.1877 -2.8169 -0.5659
    1SOL    MW4 6540   3.156   3.162   2.758  0.0341 -0.4671 -0.4823
    1SOL     OW 6541   3.140   3.456   2.723  0.0945  0.4084  0.0020
    1SOL    HW2 6542   3.136   3.369   2.764 -0.9945 -0.4176 -1.8189
    1SOL    HW3 6543   3.051   3.491   2.732  0.0877  0.6151 -0.8136
    1SOL    MW4 6544   3.128   3.449   2.730 -0.0498  0.3266 -0.3459
    1SOL     OW 6545   3.371   3.595   2.775  0.3862 -0.0240 -0.1150
    1SOL    HW2 6546   3.392   3.589   2.868 -1.0128 -0.1095  0.2013
    1SOL    HW3 6547   3.287   3.550   2.766  0.7816 -0.5164 -1.5133
    1SOL    MW4 6548   3.362   3.588   2.786  0.2537 -0.1001 -0.2577
    1SOL     OW 6549   3.386   3.865   2.687 -0.1277  0.5925 -0.0539
    1SOL    HW2 6550   3.379   3.772   2.711 -0.2169  0.4197 -0.7429
    1SOL    HW3 6551   3.376   3.866   2.592 -0.9678  1.4030  0.0435
    1SOL    MW4 6552   3.384   3.853   2.678 -0.2503  0.6769 -0.1318
    1SOL     OW 6553   3.146   3.979   2.739 -0.0609 -0.3243  0.2224
    1SOL    HW2 6554   3.156   4.073   2.726  2.4930 -0.5144  0.7388
    1SOL    HW3 6555   3.233   3.943   2.726 -0.9166 -2.5835  0.4948
    1SOL    MW4 6556   3.159   3.987   2.735  0.1633 -0.6478  0.3266
    1SOL     OW 6557   3.159   4.243   2.687 -0.5213 -0.2724 -0.0392
    1SOL    HW2 6558   3.076   4.272   2.725 -0.2160 -0.0230  0.4355
    1SOL    HW3 6559   3.139   4.229   2.594 -0.7609  1.0992 -0.2067
    1SOL    MW4 6560   3.145   4.245   2.680 -0.5126 -0.0582  0.0014
    1SOL     OW 6561   3.392   4.387   2.728  0.0924 -0.1220  0.5313
    1SOL    HW2 6562   3.402   4.377   2.822  0.5616  0.0396  0.4976
    1SOL    HW3 6563   3.315   4.334   2.706  1.1081 -1.7005  0.7149
    1SOL    MW4 6564   3.383   4.379   2.737  0.2882 -0.3090  0.5512
    1SOL     OW 6565   3.833   4.610   2.671 -0.3936 -0.3403  0.4359
    1SOL    HW2 6566   3.833   4.528   2.721 -1.3403  0.8693  2.4767
    1SOL    HW3 6567   3.751   4.653   2.696  0.2723  1.4117 -0.3333
    1SOL    MW4 6568   3.822   4.605   2.681 -0.4308  0.0501  0.6037
    1SOL     OW 6569   3.611   0.100   2.722 -0.2714 -0.1427  0.1592
    1SOL    HW2 6570   3.602   0.194   2.707  0.5945 -0.1568 -0.4402
    1SOL    HW3 6571   3.528   0.063   2.690  0.0700  0.2285 -1.1671
    1SOL    MW4 6572   3.599   0.108   2.716 -0.1121 -0.0956 -0.0947
    1SOL     OW 6573   3.566   0.379   2.643  0.6520 -0.4906  0.0755
    1SOL    HW2 6574   3.644   0.413   2.688  0.4041  0.2866 -0.0702
    1SOL    HW3 6575   3.493   0.425   2.685  0.3972  0.0057 -0.9178
    1SOL    MW4 6576   3.567   0.390   2.655  0.5858 -0.3226 -0.0749
    1SOL     OW 6577   3.813   0.478   2.721 -0.1621 -0.6465 -0.5500
    1SOL    HW2 6578   3.819   0.490   2.816 -1.8426  0.0881 -0.5174
    1SOL    HW3 6579   3.883   0.417   2.700  0.7093 -0.2247  1.0619
    1SOL    MW4 6580   3.823   0.472   2.731 -0.2689 -0.4939 -0.3331
    1SOL     OW 6581   3.793   0.723   2.600 -0.2292 -0.6425 -0.1347
    1SOL    HW2 6582   3.722   0.769   2.645  0.5489 -0.0495  0.4898
    1SOL    HW3 6583   3.806   0.642   2.650  0.7785  0.1143  0.8503
    1SOL    MW4 6584   3.785   0.718   2.612  0.0064 -0.4644  0.0777
    1SOL     OW 6585   3.583   0.858   2.722 -0.3650  0.0790 -0.2672
    1SOL    HW2 6586   3.572   0.855   2.817  1.9144  1.7850  0.1040
    1SOL    HW3 6587   3.581   0.951   2.701  1.5221 -0.1407 -1.5514
    1SOL    MW4 6588   3.581   0.870   2.732  0.1845  0.2751 -0.3877
    1SOL     OW 6589   3.566   1.113   2.602 -0.0469 -0.3404 -0.1633
    1SOL    HW2 6590   3.636   1.156   2.652  0.4763  0.3235 -1.4315
    1SOL    HW3 6591   3.485   1.149   2.638  0.3553  0.8661 -0.4524
    1SOL    MW4 6592   3.565   1.123   2.613  0.0751 -0.0937 -0.3688
    1SOL     OW 6593   3.786   1.261   2.730  0.0626  0.0379 -0.0928
    1SOL    HW2 6594   3.869   1.216   2.713 -0.4799 -0.1771 -2.3456
    1SOL    HW3 6595   3.792   1.342   2.680 -1.7192 -0.7359 -1.6311
    1SOL    MW4 6596   3.798   1.265   2.721 -0.2441 -0.0926 -0.5929
    1SOL     OW 6597   3.787   1.513   2.593 -0.3423  0.1502  0.1323
    1SOL    HW2 6598   3.864   1.545   2.639 -0.6723  1.0444  0.0615
    1SOL    HW3 6599   3.715   1.568   2.624 -0.8110 -0.1392 -0.4208
    1SOL    MW4 6600   3.788   1.524   2.604 -0.4478  0.2301  0.0501
    1SOL     OW 6601   3.583   1.664   2.699 -0.3057  0.3290 -0.0402
    1SOL    HW2 6602   3.567   1.755   2.671  0.0198  0.4455  0.1469
    1SOL    HW3 6603   3.512   1.614   2.658 -1.3021  0.8671  1.0093
    1SOL    MW4 6604   3.572   1.669   2.690 -0.3941  0.4153  0.1230
    1SOL     OW 6605   3.556   1.906   2.610  0.3546 -0.5395 -0.1537
    1SOL    HW2 6606   3.481   1.961   2.634  0.8122 -0.5716  1.4097
    1SOL    HW3 6607   3.578   1.934   2.521 -0.2257  0.9192  0.1411
    1SOL    MW4 6608   3.549   1.917   2.601  0.3383 -0.3512  0.0916
    1SOL     OW 6609   3.796   2.012   2.739 -0.1837  0.1257 -0.1887
    1SOL    HW2 6610   3.858   1.968   2.682  0.8435 -0.0766  1.0626
    1SOL    HW3 6611   3.716   1.959   2.733 -0.5932  0.9357 -2.5581
    1SOL    MW4 6612   3.793   1.999   2.731 -0.1023  0.2061 -0.3362
    1SOL     OW 6613   3.816   2.278   2.646 -0.1094 -0.1685 -0.6868
    1SOL    HW2 6614   3.794   2.186   2.660  2.0704 -0.8041 -1.1662
    1SOL    HW3 6615   3.799   2.294   2.554  1.6297 -0.7452 -1.1294
    1SOL    MW4 6616   3.811   2.268   2.636  0.4075 -0.3285 -0.8085
    1SOL     OW 6617   3.619   2.433   2.730 -0.0689 -0.1881 -0.1976
    1SOL    HW2 6618   3.632   2.438   2.825 -1.1169 -0.4639 -0.0291
    1SOL    HW3 6619   3.680   2.365   2.701  2.0136  1.6078 -0.0814
    1SOL    MW4 6620   3.629   2.425   2.739  0.0679  0.0124 -0.1600
    1SOL     OW 6621   3.590   2.700   2.666  0.1130  0.3081 -0.1981
    1SOL    HW2 6622   3.603   2.607   2.685 -1.9158  0.1205  0.3957
    1SOL    HW3 6623   3.605   2.708   2.572  1.5495 -0.3659 -0.0501
    1SOL    MW4 6624   3.594   2.689   2.656  0.0346  0.1943 -0.1001
    1SOL     OW 6625   3.802   2.853   2.778 -0.3484  0.0452 -0.0631
    1SOL    HW2 6626   3.868   2.806   2.727 -0.1171  0.4782 -0.1596
    1SOL    HW3 6627   3.719   2.821   2.743 -0.2397 -2.6512  1.9978
    1SOL    MW4 6628   3.800   2.843   2.767 -0.3037 -0.2534  0.1960
    1SOL     OW 6629   3.834   3.096   2.629  0.4911 -0.2804  0.2507
    1SOL    HW2 6630   3.761   3.147   2.665  0.6076  1.2163 -1.5460
    1SOL    HW3 6631   3.822   3.008   2.666 -1.2111  0.3817  1.3612
    1SOL    MW4 6632   3.823   3.091   2.638  0.2816  0.0043  0.1602
    1SOL     OW 6633   3.619   3.214   2.746  0.4740 -0.0268 -0.2076
    1SOL    HW2 6634   3.621   3.306   2.720 -0.0085  0.2946  0.8473
    1SOL    HW3 6635   3.542   3.178   2.704  1.9211 -0.5433 -2.5014
    1SOL    MW4 6636   3.609   3.221   2.737  0.6013 -0.0527 -0.3710
    1SOL     OW 6637   3.620   3.483   2.699  0.6258  0.0984 -0.2277
    1SOL    HW2 6638   3.672   3.556   2.733  0.1860  1.1442 -1.7499
    1SOL    HW3 6639   3.530   3.503   2.727  0.0930  1.5071 -2.8085
    1SOL    MW4 6640   3.615   3.496   2.707  0.4976  0.4225 -0.7689
    1SOL     OW 6641   3.848   3.635   2.779  0.0134  0.1652  0.5123
    1SOL    HW2 6642   3.921   3.595   2.731 -0.6108  0.2739 -0.5364
    1SOL    HW3 6643   3.837   3.721   2.738 -0.8508  0.0605  0.5177
    1SOL    MW4 6644   3.856   3.641   2.767 -0.1829  0.1657  0.3748
    1SOL     OW 6645   3.846   3.876   2.636 -0.3118  0.1763 -0.0756
    1SOL    HW2 6646   3.925   3.923   2.662 -1.5141  2.1395  0.1025
    1SOL    HW3 6647   3.774   3.932   2.664 -1.7619 -1.0816 -1.1850
    1SOL    MW4 6648   3.847   3.890   2.643 -0.6618  0.2692 -0.1986
    1SOL     OW 6649   3.611   3.979   2.760 -0.0413  0.1946  0.3218
    1SOL    HW2 6650   3.609   4.071   2.732 -1.2340  0.3633  0.9529
    1SOL    HW3 6651   3.526   3.944   2.733  0.2495 -0.6171  0.4528
    1SOL    MW4 6652   3.599   3.987   2.753 -0.1602  0.1101  0.4227
    1SOL     OW 6653   3.622   4.242   2.666 -0.4225  0.1267  0.0476
    1SOL    HW2 6654   3.550   4.300   2.691 -1.3754 -1.4571  1.0961
    1SOL    HW3 6655   3.622   4.244   2.571 -1.5545  0.5280  0.0428
    1SOL    MW4 6656   3.612   4.250   2.657 -0.6976 -0.0291  0.1853
    1SOL     OW 6657   3.859   4.348   2.784  0.2811  0.0992 -0.4100
    1SOL    HW2 6658   3.934   4.299   2.750  0.7087  1.8858 -2.1359
    1SOL    HW3 6659   3.783   4.304   2.747  0.5325 -1.0665  0.4610
    1SOL    MW4 6660   3.859   4.336   2.774  0.3710  0.1812 -0.5229
    1SOL     OW 6661   4.229   4.627   2.613  0.4904 -0.0314  0.3490
    1SOL    HW2 6662   4.160   4.673   2.662 -0.0406  0.0970 -0.5126
    1SOL    HW3 6663   4.311   4.666   2.644  0.0295  1.8272 -0.6947
    1SOL    MW4 6664   4.231   4.638   2.624  0.3595  0.2308  0.0975
    1SOL     OW 6665   4.039   0.105   2.749 -0.1756  0.0826  0.2395
    1SOL    HW2 6666   4.050   0.107   2.844 -0.0071  2.6499  0.1936
    1SOL    HW3 6667   3.969   0.041   2.734 -0.2948 -0.2363  2.0747
    1SOL    MW4 6668   4.031   0.097   2.759 -0.1688  0.3792  0.4754
    1SOL     OW 6669   4.049   0.366   2.666 -0.0934  0.2439  0.2811
    1SOL    HW2 6670   4.041   0.275   2.694  0.4083  0.2855  0.5701
    1SOL    HW3 6671   4.035   0.365   2.572  2.7240 -0.5233 -0.1785
    1SOL    MW4 6672   4.046   0.354   2.658  0.3443  0.1482  0.2587
    1SOL     OW 6673   4.285   0.504   2.759  0.3106 -0.0084  0.1112
    1SOL    HW2 6674   4.205   0.458   2.733  0.0968  0.4408 -0.0504
    1SOL    HW3 6675   4.356   0.447   2.731  0.0398 -0.4980  0.4256
    1SOL    MW4 6676   4.284   0.491   2.752  0.2460 -0.0138  0.1311
    1SOL     OW 6677   4.272   0.749   2.623  0.7695  0.3307  0.6455
    1SOL    HW2 6678   4.191   0.793   2.649 -0.0489 -1.2602  0.8563
    1SOL    HW3 6679   4.268   0.663   2.666  2.2073 -0.0523  0.0491
    1SOL    MW4 6680   4.261   0.743   2.632  0.8516  0.0703  0.5946
    1SOL     OW 6681   4.034   0.864   2.705  0.3844  0.1603  0.1974
    1SOL    HW2 6682   4.026   0.830   2.794  0.8759  0.3042  0.3016
    1SOL    HW3 6683   3.976   0.810   2.652 -0.1672  0.2939  0.6681
    1SOL    MW4 6684   4.025   0.853   2.710  0.3767  0.1969  0.2732
    1SOL     OW 6685   4.015   1.126   2.701  0.3662 -0.4831 -0.0005
    1SOL    HW2 6686   4.103   1.152   2.727 -0.5468  0.8808  1.9138
    1SOL    HW3 6687   4.005   1.037   2.734  0.4368 -0.0101  1.3342
    1SOL    MW4 6688   4.025   1.118   2.708  0.2551 -0.2408  0.4280
    1SOL     OW 6689   4.281   1.271   2.729  0.4935 -0.2124  0.1786
    1SOL    HW2 6690   4.262   1.356   2.688  0.0382 -0.0998  0.6268
    1SOL    HW3 6691   4.353   1.236   2.677 -0.4278 -0.3067 -1.0568
    1SOL    MW4 6692   4.288   1.278   2.717  0.3119 -0.2099  0.0746
    1SOL     OW 6693   4.244   1.520   2.619 -0.1395 -0.3270  0.5395
    1SOL    HW2 6694   4.327   1.547   2.658  0.6851 -2.1349  0.1044
    1SOL    HW3 6695   4.249   1.548   2.528 -0.8686  1.3590  1.0044
    1SOL    MW4 6696   4.256   1.527   2.612 -0.1268 -0.3431  0.5431
    1SOL     OW 6697   4.019   1.624   2.734  0.3270  0.6075  0.0506
    1SOL    HW2 6698   4.035   1.625   2.829 -1.4869 -0.0221  0.3824
    1SOL    HW3 6699   4.099   1.586   2.697  0.3042 -0.9268  1.4980
    1SOL    MW4 6700   4.032   1.619   2.742  0.0849  0.3221  0.2854
    1SOL     OW 6701   4.030   1.878   2.638 -0.2729  0.3178  0.1409
    1SOL    HW2 6702   4.103   1.923   2.679  0.0382 -0.1387  0.0869
    1SOL    HW3 6703   4.017   1.799   2.690  0.2750 -0.3843 -0.7674
    1SOL    MW4 6704   4.038   1.873   2.650 -0.1593  0.1651  0.0138
    1SOL     OW 6705   4.266   2.042   2.737  0.4449  0.0708 -0.1154
    1SOL    HW2 6706   4.276   2.135   2.714 -0.1185  0.4042  0.9363
    1SOL    HW3 6707   4.341   1.999   2.697 -0.0121  0.7704 -1.7541
    1SOL    MW4 6708   4.277   2.049   2.729  0.3104  0.2072 -0.1929
    1SOL     OW 6709   4.269   2.327   2.667  0.1146  0.0284 -0.2473
    1SOL    HW2 6710   4.188   2.368   2.697 -0.9685 -2.0861 -0.2052
    1SOL    HW3 6711   4.267   2.337   2.572  0.0714  0.4595 -0.2015
    1SOL    MW4 6712   4.258   2.334   2.659 -0.0339 -0.1938 -0.2358
    1SOL     OW 6713   4.024   2.436   2.750 -0.1119 -0.2008  0.4384
    1SOL    HW2 6714   4.031   2.427   2.845 -1.3832  0.9151  0.6616
    1SOL    HW3 6715   3.948   2.382   2.726 -2.2426  2.6266  0.6089
    1SOL    MW4 6716   4.015   2.428   2.759 -0.5608  0.3192  0.4902
    1SOL     OW 6717   4.002   2.699   2.676 -0.3674  0.0059  0.1010
    1SOL    HW2 6718   4.088   2.741   2.689 -0.7760  0.6943  0.6432
    1SOL    HW3 6719   4.012   2.612   2.714  0.1418  0.0225  0.0140
    1SOL    MW4 6720   4.015   2.693   2.683 -0.3543  0.0989  0.1609
    1SOL     OW 6721   4.250   2.819   2.725 -0.3902  0.4767 -0.6885
    1SOL    HW2 6722   4.257   2.813   2.820 -1.7107 -0.5246 -0.6376
    1SOL    HW3 6723   4.260   2.912   2.706  1.6477  0.4682  0.2650
    1SOL    MW4 6724   4.252   2.831   2.735 -0.2961  0.3436 -0.5562
    1SOL     OW 6725   4.266   3.091   2.637 -0.1656 -0.1490 -0.1320
    1SOL    HW2 6726   4.200   3.154   2.667  0.0374 -0.6477  1.4040
    1SOL    HW3 6727   4.256   3.090   2.542 -1.9558  0.2504  0.0234
    1SOL    MW4 6728   4.256   3.100   2.629 -0.3757 -0.1621  0.0911
    1SOL     OW 6729   4.062   3.231   2.737 -0.6957 -0.3142  0.8043
    1SOL    HW2 6730   4.063   3.310   2.683 -0.1320 -1.5784 -1.0705
    1SOL    HW3 6731   3.981   3.186   2.713  0.1220 -1.4619  0.0997
    1SOL    MW4 6732   4.051   3.235   2.727 -0.5136 -0.6323  0.4640
    1SOL     OW 6733   4.078   3.489   2.640  0.3382 -0.2156  0.3796
    1SOL    HW2 6734   4.157   3.535   2.669  0.2744  0.4647 -0.5153
    1SOL    HW3 6735   4.093   3.471   2.547 -0.6646  0.1476  0.1398
    1SOL    MW4 6736   4.091   3.493   2.632  0.1974 -0.0780  0.2298
    1SOL     OW 6737   4.315   3.599   2.739  0.0901 -0.5599  0.3323
    1SOL    HW2 6738   4.300   3.602   2.834 -0.2702  0.6853  0.2473
    1SOL    HW3 6739   4.394   3.546   2.729 -1.5119 -3.2088  1.1215
    1SOL    MW4 6740   4.324   3.592   2.750 -0.1683 -0.7451  0.4251
    1SOL     OW 6741   4.290   3.847   2.597  0.5616  0.3744  0.0435
    1SOL    HW2 6742   4.300   3.760   2.637 -2.5496 -0.3936 -0.6764
    1SOL    HW3 6743   4.341   3.905   2.653  3.1385 -1.9769  0.2535
    1SOL    MW4 6744   4.298   3.843   2.610  0.4911 -0.0370 -0.0238
    1SOL     OW 6745   4.068   3.993   2.730 -0.5666 -0.1805 -0.0403
    1SOL    HW2 6746   4.087   3.982   2.823 -0.9868 -1.0350 -0.0474
    1SOL    HW3 6747   4.145   3.958   2.685 -0.3997  0.1547 -0.0111
    1SOL    MW4 6748   4.081   3.987   2.736 -0.5994 -0.2487 -0.0374
    1SOL     OW 6749   4.107   4.259   2.681 -0.1988 -0.3293 -0.1118
    1SOL    HW2 6750   4.099   4.166   2.704  1.0039 -0.3280  0.3653
    1SOL    HW3 6751   4.085   4.263   2.588 -1.6417 -0.8737  0.1940
    1SOL    MW4 6752   4.103   4.247   2.672 -0.2308 -0.4010 -0.0086
    1SOL     OW 6753   4.286   4.438   2.805 -0.5454 -0.1597 -0.5283
    1SOL    HW2 6754   4.222   4.374   2.773 -2.2101  1.0785  0.3111
    1SOL    HW3 6755   4.276   4.513   2.746  0.1093  0.0574 -0.3648
    1SOL    MW4 6756   4.276   4.439   2.793 -0.6790  0.0319 -0.3960
    1SOL     OW 6757   0.223   4.659   3.114  0.3537 -0.0132  0.1781
    1SOL    HW2 6758   0.204   4.654   3.208 -0.2824  3.6218  0.3385
    1SOL    HW3 6759   0.140   4.685   3.074  1.3846  1.6321 -0.9621
    1SOL    MW4 6760   0.210   4.662   3.121  0.4058  0.6833  0.0486
    1SOL     OW 6761   4.462   0.076   3.025  0.1950 -0.7176  0.0877
    1SOL    HW2 6762   4.387   0.046   3.076  0.6508 -0.4142  0.9468
    1SOL    HW3 6763   4.479   0.164   3.058 -0.2243 -0.0550 -1.3932
    1SOL    MW4 6764   4.454   0.084   3.036  0.2003 -0.5902  0.0057
    1SOL     OW 6765   0.014   0.333   3.145 -0.4258  0.5048 -0.0993
    1SOL    HW2 6766   0.009   0.338   3.240 -1.1280  0.3637 -0.1292
    1SOL    HW3 6767  -0.062   0.383   3.114  0.3051  1.3384 -0.5991
    1SOL    MW4 6768   0.003   0.340   3.153 -0.4220  0.5962 -0.1695
    1SOL     OW 6769   0.214   0.475   3.032 -0.1179 -0.1854  0.2148
    1SOL    HW2 6770   0.296   0.432   3.058  0.1260  1.4072  2.1662
    1SOL    HW3 6771   0.145   0.421   3.070  0.0468 -0.8035 -0.3432
    1SOL    MW4 6772   0.216   0.462   3.040 -0.0640 -0.0568  0.3986
    1SOL     OW 6773   0.229   0.746   3.098 -0.2479 -0.1666  0.0565
    1SOL    HW2 6774   0.210   0.751   3.192 -0.6350 -0.2463 -0.0145
    1SOL    HW3 6775   0.228   0.652   3.078 -0.9688 -0.1151 -0.1812
    1SOL    MW4 6776   0.226   0.734   3.107 -0.3941 -0.1704  0.0157
    1SOL     OW 6777   0.001   0.845   3.004 -0.4623 -0.3505  0.0924
    1SOL    HW2 6778   0.091   0.820   3.027 -0.0912  0.5964 -0.2903
    1SOL    HW3 6779   0.004   0.861   2.909 -0.9918 -0.1441  0.1083
    1SOL    MW4 6780   0.013   0.844   2.994 -0.4832 -0.1983  0.0441
    1SOL     OW 6781   0.011   1.100   3.089  0.5210 -0.3448 -0.1511
    1SOL    HW2 6782  -0.064   1.147   3.052  0.9551  0.4235 -0.0916
    1SOL    HW3 6783  -0.008   1.008   3.075 -0.9345 -0.2028  0.8452
    1SOL    MW4 6784  -0.001   1.094   3.082  0.3862 -0.2247 -0.0117
    1SOL     OW 6785   0.236   1.234   3.014  0.2287 -0.6424  0.2344
    1SOL    HW2 6786   0.150   1.197   3.031 -0.4885  1.3946  1.2174
    1SOL    HW3 6787   0.245   1.229   2.919 -1.7372  0.6994 -0.0583
    1SOL    MW4 6788   0.226   1.229   3.003 -0.1253 -0.1967  0.3257
    1SOL     OW 6789   0.206   1.517   3.093  0.7037 -0.2472 -0.0511
    1SOL    HW2 6790   0.131   1.553   3.045  1.0193  0.3719 -0.0858
    1SOL    HW3 6791   0.211   1.426   3.065  0.1749 -0.1953 -0.3143
    1SOL    MW4 6792   0.197   1.510   3.083  0.6756 -0.1585 -0.0904
    1SOL     OW 6793   4.463   1.613   2.986  0.2266 -0.1809  0.2865
    1SOL    HW2 6794   4.411   1.553   3.040 -0.1081 -0.3112 -0.1752
    1SOL    HW3 6795   4.460   1.696   3.033  1.0637 -0.6386  1.1653
    1SOL    MW4 6796   4.456   1.616   2.999  0.2928 -0.2584  0.3417
    1SOL     OW 6797   0.013   1.858   3.093 -0.0707  0.2002  0.4838
    1SOL    HW2 6798  -0.064   1.912   3.074 -0.1959  0.6378  2.1477
    1SOL    HW3 6799   0.086   1.905   3.052 -0.5929  0.0994 -0.5810
    1SOL    MW4 6800   0.012   1.872   3.085 -0.1554  0.2446  0.5629
    1SOL     OW 6801   0.229   2.048   3.024  0.2316  0.6276 -0.3544
    1SOL    HW2 6802   0.215   2.139   3.049 -0.2874  0.4523  0.0221
    1SOL    HW3 6803   0.221   2.047   2.929 -0.2385  0.8961 -0.3192
    1SOL    MW4 6804   0.226   2.060   3.015  0.1011  0.6399 -0.2999
    1SOL     OW 6805   0.221   2.324   3.086 -0.1739  0.3249 -0.3465
    1SOL    HW2 6806   0.224   2.320   3.181 -0.2595  0.4220 -0.3398
    1SOL    HW3 6807   0.302   2.370   3.061  0.0775 -0.1187 -0.3448
    1SOL    MW4 6808   0.232   2.330   3.095 -0.1520  0.2794 -0.3452
    1SOL     OW 6809   0.000   2.463   3.019 -0.0752  0.0771  0.4015
    1SOL    HW2 6810   0.000   2.552   3.056 -1.6778 -0.0290  0.6859
    1SOL    HW3 6811   0.085   2.427   3.044  0.1343  1.1281  1.2685
    1SOL    MW4 6812   0.011   2.470   3.027 -0.2590  0.2017  0.5534
    1SOL     OW 6813   0.012   2.705   3.148 -0.3626 -0.2092  0.0984
    1SOL    HW2 6814   0.012   2.696   3.243  2.3459  1.8044  0.3468
    1SOL    HW3 6815   0.102   2.729   3.126 -0.9167 -0.7402 -2.9962
    1SOL    MW4 6816   0.024   2.707   3.158 -0.0792 -0.0134 -0.2773
    1SOL     OW 6817   0.240   2.831   3.055 -0.0381 -0.4230 -0.4403
    1SOL    HW2 6818   0.324   2.787   3.066  0.1254 -0.1759 -0.6764
    1SOL    HW3 6819   0.229   2.838   2.960 -0.2314 -0.2766 -0.4089
    1SOL    MW4 6820   0.249   2.826   3.044 -0.0420 -0.3712 -0.4675
    1SOL     OW 6821   0.214   3.071   3.173 -0.5842 -0.2741  0.5951
    1SOL    HW2 6822   0.145   3.117   3.125 -0.9812  0.3703  1.7700
    1SOL    HW3 6823   0.214   2.983   3.136  0.4230  0.7284 -1.9299
    1SOL    MW4 6824   0.205   3.066   3.162 -0.5036 -0.0572  0.4170
    1SOL     OW 6825   4.486   3.198   3.042  0.3334 -0.0020 -0.1789
    1SOL    HW2 6826   4.413   3.151   3.083 -0.5161  2.2635  0.9915
    1SOL    HW3 6827   4.472   3.189   2.948 -2.2005  1.4801  0.0252
    1SOL    MW4 6828   4.475   3.190   3.035 -0.1135  0.4923  0.0026
    1SOL     OW 6829   0.060   3.477   3.102 -0.2803  0.2774  0.2270
    1SOL    HW2 6830  -0.016   3.534   3.093 -2.1946 -1.8716  2.1358
    1SOL    HW3 6831   0.028   3.390   3.077  1.6359 -0.5821  0.6705
    1SOL    MW4 6832   0.046   3.473   3.098 -0.2800 -0.1194  0.5376
    1SOL     OW 6833   0.282   3.600   3.015 -0.1061 -0.1531  0.1291
    1SOL    HW2 6834   0.269   3.691   3.043 -1.3467  0.5588 -2.5716
    1SOL    HW3 6835   0.205   3.554   3.048 -0.3399  0.1636  0.0378
    1SOL    MW4 6836   0.270   3.606   3.023 -0.3006 -0.0174 -0.2396
    1SOL     OW 6837   0.220   3.876   3.096 -0.5036  0.0141 -0.4846
    1SOL    HW2 6838   0.227   3.849   3.188  1.1486 -2.3565 -1.2517
    1SOL    HW3 6839   0.294   3.936   3.083  0.9021 -1.7465 -0.9051
    1SOL    MW4 6840   0.231   3.880   3.107 -0.1002 -0.5312 -0.6411
    1SOL     OW 6841   4.457   3.994   3.023 -0.1134  0.2134 -0.1149
    1SOL    HW2 6842   4.549   3.971   3.038 -0.7995 -2.0069  0.8808
    1SOL    HW3 6843   4.447   3.991   2.928  0.7834  0.2369 -0.2164
    1SOL    MW4 6844   4.468   3.990   3.012 -0.0856 -0.0765  0.0031
    1SOL     OW 6845   0.039   4.261   3.088 -0.4259 -0.0635  0.0799
    1SOL    HW2 6846   0.040   4.265   3.183 -0.0704 -0.8008  0.1104
    1SOL    HW3 6847   0.007   4.173   3.067 -0.1037 -0.0551 -0.4760
    1SOL    MW4 6848   0.035   4.250   3.098 -0.3365 -0.1588  0.0103
    1SOL     OW 6849   0.288   4.397   3.045 -0.2596  0.0484 -0.3934
    1SOL    HW2 6850   0.195   4.372   3.044 -0.5547  1.0971 -0.6154
    1SOL    HW3 6851   0.287   4.491   3.063  0.6525  0.4656 -2.3328
    1SOL    MW4 6852   0.275   4.406   3.047 -0.1782  0.2418 -0.6785
    1SOL     OW 6853   0.708   4.654   3.155 -0.2458 -0.8034 -0.5048
    1SOL    HW2 6854   0.713   4.560   3.137 -0.0853 -0.6351 -1.3821
    1SOL    HW3 6855   0.632   4.684   3.104 -1.4386 -0.7860  1.2538
    1SOL    MW4 6856   0.699   4.646   3.146 -0.3821 -0.7789 -0.3884
    1SOL     OW 6857   0.467   0.090   2.987  0.0605  0.1931  0.1084
    1SOL    HW2 6858   0.476   0.173   3.034  0.1519  0.1018  0.2493
    1SOL    HW3 6859   0.398   0.043   3.034  0.9659 -0.3903  0.8513
    1SOL    MW4 6860   0.459   0.095   2.999  0.1920  0.1041  0.2251
    1SOL     OW 6861   0.460   0.346   3.124  0.3094 -0.0716  0.0154
    1SOL    HW2 6862   0.452   0.368   3.217 -0.4036  2.1311 -0.5453
    1SOL    HW3 6863   0.544   0.384   3.098 -0.2843  0.7801 -0.6457
    1SOL    MW4 6864   0.470   0.354   3.133  0.1370  0.3313 -0.1457
    1SOL     OW 6865   0.696   0.496   3.049 -0.0961 -0.1095  0.3202
    1SOL    HW2 6866   0.770   0.441   3.076  0.5170  1.2330  1.4381
    1SOL    HW3 6867   0.717   0.583   3.082 -1.8047  0.4722 -0.0515
    1SOL    MW4 6868   0.708   0.500   3.057 -0.2406  0.1444  0.4187
    1SOL     OW 6869   0.718   0.775   3.146  0.2881 -0.4827  0.1740
    1SOL    HW2 6870   0.683   0.790   3.234 -1.0094 -2.8205  0.1237
    1SOL    HW3 6871   0.644   0.795   3.088  0.5000 -0.9080 -0.2411
    1SOL    MW4 6872   0.703   0.779   3.150  0.1448 -0.8472  0.1125
    1SOL     OW 6873   0.485   0.866   2.998 -0.3550  0.4818 -0.0590
    1SOL    HW2 6874   0.400   0.826   3.020  0.5459 -1.4659 -0.0250
    1SOL    HW3 6875   0.482   0.877   2.903 -0.3738 -0.2472 -0.1472
    1SOL    MW4 6876   0.473   0.862   2.989 -0.2386  0.1286 -0.0660
    1SOL     OW 6877   0.455   1.121   3.119 -0.3682  0.1173  0.5508
    1SOL    HW2 6878   0.467   1.034   3.079 -2.0988 -0.3359  0.9714
    1SOL    HW3 6879   0.373   1.153   3.082 -0.2915  1.1111  1.2365
    1SOL    MW4 6880   0.446   1.113   3.109 -0.5865  0.1887  0.6967
    1SOL     OW 6881   0.641   1.297   3.030  0.3268  0.0412  0.0840
    1SOL    HW2 6882   0.711   1.235   3.047 -0.3851 -1.3699 -1.8965
    1SOL    HW3 6883   0.561   1.251   3.057 -0.1071  0.4436 -0.4888
    1SOL    MW4 6884   0.640   1.283   3.036  0.1757 -0.0920 -0.2530
    1SOL     OW 6885   0.653   1.553   3.134  0.2635 -0.3623  0.2249
    1SOL    HW2 6886   0.661   1.529   3.226  0.3128 -0.8016  0.1077
    1SOL    HW3 6887   0.653   1.469   3.088  0.1190 -0.1475 -0.1644
    1SOL    MW4 6888   0.654   1.539   3.140  0.2510 -0.3920  0.1581
    1SOL     OW 6889   0.429   1.664   3.031 -0.0143  0.0465  0.4044
    1SOL    HW2 6890   0.510   1.626   3.064  1.3301  0.6312 -2.0816
    1SOL    HW3 6891   0.362   1.599   3.051  1.2073 -0.8417  1.7021
    1SOL    MW4 6892   0.431   1.651   3.038  0.3242  0.0064  0.2475
    1SOL     OW 6893   0.459   1.916   3.140  0.0570 -0.5129 -0.5941
    1SOL    HW2 6894   0.438   1.826   3.114  0.2363 -0.5258 -0.6985
    1SOL    HW3 6895   0.387   1.969   3.105 -0.4078 -0.6991  0.0638
    1SOL    MW4 6896   0.447   1.911   3.132  0.0193 -0.5392 -0.5212
    1SOL     OW 6897   0.657   2.049   3.022 -0.2303  0.1541 -0.1940
    1SOL    HW2 6898   0.735   2.011   3.064  0.2798  0.8935 -0.4610
    1SOL    HW3 6899   0.584   2.000   3.059  0.3656 -0.5958  0.0125
    1SOL    MW4 6900   0.658   2.038   3.032 -0.0844  0.1526 -0.2019
    1SOL     OW 6901   0.676   2.310   3.124 -0.1768  0.2306  0.4019
    1SOL    HW2 6902   0.669   2.315   3.219 -0.2728 -0.4882  0.4359
    1SOL    HW3 6903   0.671   2.216   3.105 -1.9794  0.4793 -0.4431
    1SOL    MW4 6904   0.674   2.298   3.134 -0.4274  0.1683  0.2944
    1SOL     OW 6905   0.453   2.442   2.999 -0.4772  0.0529 -0.7376
    1SOL    HW2 6906   0.525   2.385   3.026  0.0406  0.6859 -0.7801
    1SOL    HW3 6907   0.453   2.438   2.903 -0.0930  0.5562 -0.7579
    1SOL    MW4 6908   0.462   2.434   2.990 -0.3582  0.2029 -0.7458
    1SOL     OW 6909   0.449   2.687   3.108  0.1034 -0.1212 -0.0243
    1SOL    HW2 6910   0.511   2.742   3.060 -0.4314  0.1197 -0.4423
    1SOL    HW3 6911   0.457   2.601   3.066 -0.2953  0.0655 -0.4860
    1SOL    MW4 6912   0.458   2.683   3.096 -0.0198 -0.0651 -0.1404
    1SOL     OW 6913   0.628   2.831   2.975  0.3545  0.0247  0.3383
    1SOL    HW2 6914   0.700   2.778   3.008  0.7449 -0.6261 -1.5139
    1SOL    HW3 6915   0.637   2.915   3.020  1.4796 -0.4968  1.0854
    1SOL    MW4 6916   0.638   2.835   2.985  0.5544 -0.1299  0.1924
    1SOL     OW 6917   0.649   3.073   3.133  0.0479 -0.2516 -0.2905
    1SOL    HW2 6918   0.661   3.094   3.226  0.0669  0.1031 -0.3751
    1SOL    HW3 6919   0.567   3.115   3.109 -0.5135 -1.2624 -0.1551
    1SOL    MW4 6920   0.640   3.081   3.142 -0.0236 -0.3383 -0.2840
    1SOL     OW 6921   0.422   3.208   3.047 -0.4078 -0.8017  0.2782
    1SOL    HW2 6922   0.428   3.300   3.073  2.0336 -1.4492  2.1547
    1SOL    HW3 6923   0.343   3.176   3.090 -0.8417  0.2039  0.2487
    1SOL    MW4 6924   0.412   3.216   3.056 -0.1429 -0.7544  0.5221
    1SOL     OW 6925   0.476   3.461   3.160 -0.3397  0.3812 -0.1492
    1SOL    HW2 6926   0.475   3.483   3.253  0.9884 -0.0593 -0.0235
    1SOL    HW3 6927   0.404   3.513   3.123  0.2987  1.9742  0.8032
    1SOL    MW4 6928   0.466   3.471   3.167 -0.0803  0.5331 -0.0067
    1SOL     OW 6929   0.665   3.616   3.034  0.2742  0.1389  0.7505
    1SOL    HW2 6930   0.749   3.575   3.054  0.9122  0.8587 -0.4110
    1SOL    HW3 6931   0.599   3.554   3.066  1.2443 -0.3705  1.7655
    1SOL    MW4 6932   0.667   3.603   3.041  0.4863  0.1667  0.7310
    1SOL     OW 6933   0.671   3.871   3.104  0.1337  0.5726 -0.3307
    1SOL    HW2 6934   0.677   3.859   3.199 -0.6513 -0.1353 -0.3680
    1SOL    HW3 6935   0.683   3.784   3.067 -0.2102  0.7440 -0.8561
    1SOL    MW4 6936   0.673   3.858   3.112 -0.0153  0.5019 -0.4051
    1SOL     OW 6937   0.447   4.019   3.025  0.2199 -0.4967  0.1083
    1SOL    HW2 6938   0.523   3.961   3.038 -0.4214 -1.4664 -0.4023
    1SOL    HW3 6939   0.436   4.022   2.930  0.2386  0.4685  0.1331
    1SOL    MW4 6940   0.456   4.012   3.014  0.1377 -0.4973  0.0443
    1SOL     OW 6941   0.503   4.257   3.129 -0.1106 -0.2907 -0.2417
    1SOL    HW2 6942   0.485   4.176   3.082 -0.2140  0.1972 -1.0561
    1SOL    HW3 6943   0.435   4.318   3.100  0.6204  0.4280 -0.4983
    1SOL    MW4 6944   0.492   4.255   3.119 -0.0277 -0.1316 -0.3829
    1SOL     OW 6945   0.712   4.390   3.028  0.0670 -0.4169 -0.5218
    1SOL    HW2 6946   0.645   4.330   3.062  0.7627 -1.1397 -0.4058
    1SOL    HW3 6947   0.704   4.383   2.933 -0.1202 -0.3858 -0.5092
    1SOL    MW4 6948   0.702   4.381   3.020  0.1341 -0.5083 -0.5047
    1SOL     OW 6949   1.103   4.657   3.108 -0.3807  0.4935 -0.1000
    1SOL    HW2 6950   1.188   4.691   3.080 -0.7216  1.4285 -0.0113
    1SOL    HW3 6951   1.041   4.692   3.045 -0.4380 -1.9551 -1.4436
    1SOL    MW4 6952   1.106   4.666   3.096 -0.4333  0.2933 -0.2656
    1SOL     OW 6953   0.896   0.100   2.980  0.6615 -0.2108 -0.6955
    1SOL    HW2 6954   0.902   0.192   3.004 -0.3616 -0.0153 -1.1591
    1SOL    HW3 6955   0.827   0.065   3.037  0.1619 -0.3882 -1.4095
    1SOL    MW4 6956   0.888   0.107   2.991  0.4606 -0.2084 -0.8507
    1SOL     OW 6957   0.902   0.336   3.130 -0.3974  0.8187  0.3023
    1SOL    HW2 6958   0.897   0.336   3.226 -0.8925 -0.4829  0.2870
    1SOL    HW3 6959   0.984   0.380   3.110  0.3193 -0.0093  1.3684
    1SOL    MW4 6960   0.912   0.342   3.140 -0.3681  0.5378  0.4406
    1SOL     OW 6961   1.144   0.496   3.041  0.6240  0.0029 -0.0797
    1SOL    HW2 6962   1.224   0.447   3.060  1.1859  0.8537 -0.2470
    1SOL    HW3 6963   1.139   0.497   2.945  0.5187  0.1274 -0.0728
    1SOL    MW4 6964   1.154   0.489   3.031  0.6843  0.1316 -0.1009
    1SOL     OW 6965   1.147   0.783   3.129 -0.0199 -0.2082  0.0562
    1SOL    HW2 6966   1.158   0.780   3.224  4.0130 -1.4631 -0.3607
    1SOL    HW3 6967   1.131   0.692   3.103 -1.5610  0.1921 -0.4458
    1SOL    MW4 6968   1.147   0.771   3.138  0.3090 -0.3210 -0.0648
    1SOL     OW 6969   0.933   0.894   3.003  0.2323  0.1721 -0.3331
    1SOL    HW2 6970   1.019   0.871   3.038  1.0543  1.0645 -1.7226
    1SOL    HW3 6971   0.871   0.848   3.060  1.5596  0.6604  1.5659
    1SOL    MW4 6972   0.936   0.885   3.015  0.5158  0.3543 -0.2658
    1SOL     OW 6973   0.867   1.147   3.060  0.5771 -0.0265 -0.0700
    1SOL    HW2 6974   0.949   1.189   3.031  0.6394 -0.5167 -0.6045
    1SOL    HW3 6975   0.879   1.055   3.039 -0.7888  0.1484 -1.6946
    1SOL    MW4 6976   0.880   1.141   3.053  0.4051 -0.0681 -0.3548
    1SOL     OW 6977   1.124   1.286   3.019 -0.3114 -0.7447 -0.4357
    1SOL    HW2 6978   1.190   1.229   3.058 -0.1828  0.0486  0.5246
    1SOL    HW3 6979   1.137   1.277   2.924  0.8085 -1.0112 -0.2616
    1SOL    MW4 6980   1.134   1.277   3.012 -0.1467 -0.6752 -0.2861
    1SOL     OW 6981   1.090   1.547   3.108 -0.7379 -0.1429 -0.1090
    1SOL    HW2 6982   1.165   1.587   3.065 -0.4359  0.6632  1.1397
    1SOL    HW3 6983   1.093   1.455   3.081  1.1125 -0.2751  0.4853
    1SOL    MW4 6984   1.101   1.540   3.099 -0.4539 -0.0539  0.1342
    1SOL     OW 6985   0.875   1.683   3.003  0.1060 -0.0538  0.4717
    1SOL    HW2 6986   0.955   1.636   3.027  0.4491  1.0101  1.4363
    1SOL    HW3 6987   0.807   1.641   3.055  0.0897 -0.6984 -0.0550
    1SOL    MW4 6988   0.877   1.671   3.013  0.1491  0.0017  0.5293
    1SOL     OW 6989   0.878   1.933   3.136 -0.8633 -0.1139 -0.0704
    1SOL    HW2 6990   0.878   1.940   3.232  0.9987  0.0512 -0.0624
    1SOL    HW3 6991   0.896   1.841   3.118 -0.2852  0.0292 -0.2488
    1SOL    MW4 6992   0.881   1.922   3.146 -0.5414 -0.0732 -0.0930
    1SOL     OW 6993   1.102   2.078   3.048 -0.0292  0.1281 -0.0337
    1SOL    HW2 6994   1.031   2.019   3.073  0.3948 -0.4012 -0.0758
    1SOL    HW3 6995   1.100   2.078   2.952  0.2896 -0.2035 -0.0398
    1SOL    MW4 6996   1.092   2.070   3.039  0.0687  0.0148 -0.0401
    1SOL     OW 6997   1.109   2.329   3.136 -0.4519 -0.3016  0.1229
    1SOL    HW2 6998   1.041   2.382   3.095 -0.5147 -0.6973 -0.2899
    1SOL    HW3 6999   1.106   2.246   3.089  0.2557 -0.3553  0.1674
    1SOL    MW4 7000   1.099   2.325   3.125 -0.3668 -0.3607  0.0741
    1SOL     OW 7001   0.884   2.449   3.043 -0.0572 -0.2645 -0.0709
    1SOL    HW2 7002   0.813   2.394   3.076  1.1570 -1.5324  0.4851
    1SOL    HW3 7003   0.878   2.442   2.948 -0.1538 -1.0443 -0.0103
    1SOL    MW4 7004   0.874   2.441   3.035  0.0902 -0.5348  0.0103
    1SOL     OW 7005   0.868   2.733   3.091 -0.1448  0.5050  0.0715
    1SOL    HW2 7006   0.853   2.735   3.186 -0.8579  0.6262 -0.0428
    1SOL    HW3 7007   0.871   2.640   3.069  0.7041  0.4691  0.3161
    1SOL    MW4 7008   0.867   2.721   3.101 -0.1268  0.5162  0.0885
    1SOL     OW 7009   1.122   2.819   3.036  0.0815 -0.2754  0.1059
    1SOL    HW2 7010   1.145   2.908   3.063  0.2624 -0.9688  2.3290
    1SOL    HW3 7011   1.029   2.812   3.053  0.1826 -0.7091  0.4827
    1SOL    MW4 7012   1.113   2.830   3.042  0.1187 -0.4244  0.4492
    1SOL     OW 7013   1.145   3.087   3.143 -0.1865  0.2627 -0.3836
    1SOL    HW2 7014   1.219   3.137   3.108 -0.3665 -1.1471 -2.9216
    1SOL    HW3 7015   1.068   3.135   3.113 -0.3337 -0.4684 -1.1932
    1SOL    MW4 7016   1.145   3.100   3.134 -0.2296 -0.0198 -0.8252
    1SOL     OW 7017   0.893   3.193   3.056  0.5600  0.3116  0.1103
    1SOL    HW2 7018   0.815   3.148   3.087  0.6003  0.3547  0.2771
    1SOL    HW3 7019   0.879   3.204   2.962  0.5800 -0.1058  0.0570
    1SOL    MW4 7020   0.881   3.189   3.048  0.5680  0.2620  0.1249
    1SOL     OW 7021   0.891   3.469   3.122  0.0904 -0.0492 -0.1643
    1SOL    HW2 7022   0.983   3.495   3.113  0.5626 -1.2697  0.8108
    1SOL    HW3 7023   0.891   3.375   3.103 -0.7688 -0.2782  0.8751
    1SOL    MW4 7024   0.903   3.460   3.118  0.0393 -0.2406  0.1016
    1SOL     OW 7025   1.111   3.618   3.048  0.1394 -0.3802 -0.0791
    1SOL    HW2 7026   1.197   3.576   3.055  0.5795  0.4694 -0.3524
    1SOL    HW3 7027   1.115   3.690   3.110  0.5003  1.1347 -1.8369
    1SOL    MW4 7028   1.123   3.622   3.057  0.2451 -0.0684 -0.3467
    1SOL     OW 7029   1.118   3.870   3.168 -0.7153 -0.7797 -0.0317
    1SOL    HW2 7030   1.099   3.874   3.262 -1.2369  1.5151 -0.2033
    1SOL    HW3 7031   1.037   3.900   3.127  0.4444  0.8855 -1.1123
    1SOL    MW4 7032   1.105   3.874   3.175 -0.6312 -0.2575 -0.1969
    1SOL     OW 7033   0.901   3.990   3.033 -0.4341  0.2781  0.0376
    1SOL    HW2 7034   0.814   3.958   3.055 -0.1971 -0.3753  0.0105
    1SOL    HW3 7035   0.899   4.000   2.938 -0.0983 -0.8601 -0.0952
    1SOL    MW4 7036   0.889   3.987   3.023 -0.3585  0.0415  0.0165
    1SOL     OW 7037   0.902   4.247   3.173 -0.4958  0.1004  0.0593
    1SOL    HW2 7038   0.921   4.162   3.135  0.7184  0.6455 -0.5570
    1SOL    HW3 7039   0.829   4.280   3.121  0.4750  0.3886 -1.1347
    1SOL    MW4 7040   0.895   4.240   3.161 -0.2076  0.2103 -0.1795
    1SOL     OW 7041   1.127   4.376   3.063  0.4087  0.5026 -0.4890
    1SOL    HW2 7042   1.053   4.337   3.109  0.3326  0.9599 -0.2137
    1SOL    HW3 7043   1.133   4.465   3.099  0.9458  0.5448 -0.6766
    1SOL    MW4 7044   1.118   4.383   3.074  0.4697  0.5689 -0.4776
    1SOL     OW 7045   1.565   4.620   3.105  0.4796 -0.0417  0.2362
    1SOL    HW2 7046   1.573   4.633   3.199  0.9742 -0.1523  0.2134
    1SOL    HW3 7047   1.486   4.668   3.080  0.9831  0.9429  0.5202
    1SOL    MW4 7048   1.556   4.628   3.114  0.6113  0.0730  0.2706
    1SOL     OW 7049   1.343   0.105   3.031 -0.4209 -0.3354  0.1677
    1SOL    HW2 7050   1.360   0.197   3.048  0.8277 -0.3033 -1.1476
    1SOL    HW3 7051   1.340   0.099   2.936  2.1087 -2.0848  0.1522
    1SOL    MW4 7052   1.345   0.116   3.021  0.0775 -0.5620 -0.0081
    1SOL     OW 7053   1.373   0.360   3.099 -0.3296 -0.1096 -0.0084
    1SOL    HW2 7054   1.376   0.368   3.195  0.7892 -1.9502  0.1360
    1SOL    HW3 7055   1.453   0.404   3.069 -0.4400  0.0515 -0.0654
    1SOL    MW4 7056   1.384   0.367   3.108 -0.1966 -0.3312  0.0033
    1SOL     OW 7057   1.630   0.462   3.028  0.0015 -0.0872 -0.2503
    1SOL    HW2 7058   1.647   0.552   3.056  0.8929 -0.3321  0.0173
    1SOL    HW3 7059   1.627   0.466   2.932  0.1228  0.2127 -0.2404
    1SOL    MW4 7060   1.632   0.474   3.019  0.1351 -0.0799 -0.2134
    1SOL     OW 7061   1.622   0.746   3.122  0.0275 -0.1702  0.8090
    1SOL    HW2 7062   1.611   0.751   3.216  0.4646  1.3845  0.8067
    1SOL    HW3 7063   1.542   0.783   3.086  0.0907 -0.2486  0.5861
    1SOL    MW4 7064   1.610   0.752   3.129  0.0936  0.0246  0.7794
    1SOL     OW 7065   1.398   0.866   3.040  0.5595 -0.0540  0.2004
    1SOL    HW2 7066   1.390   0.955   3.073 -1.4278  0.1410 -0.7586
    1SOL    HW3 7067   1.324   0.819   3.077  1.0339 -1.0557 -0.0938
    1SOL    MW4 7068   1.387   0.872   3.049  0.3600 -0.1605  0.0348
    1SOL     OW 7069   1.341   1.118   3.124  0.4953  0.1723 -0.0823
    1SOL    HW2 7070   1.337   1.128   3.219  0.8501  1.0693 -0.1514
    1SOL    HW3 7071   1.423   1.162   3.099  0.3115  0.1008 -0.8146
    1SOL    MW4 7072   1.351   1.125   3.133  0.5180  0.2812 -0.1881
    1SOL     OW 7073   1.571   1.237   3.010  0.1520 -0.2751  0.4153
    1SOL    HW2 7074   1.641   1.196   3.060  0.5415 -0.8209 -0.5766
    1SOL    HW3 7075   1.567   1.327   3.045  0.8406 -0.4549  0.9782
    1SOL    MW4 7076   1.580   1.244   3.022  0.2942 -0.3709  0.3588
    1SOL     OW 7077   1.557   1.505   3.122 -0.3566  0.1131  0.2265
    1SOL    HW2 7078   1.628   1.562   3.095  0.3185 -0.8857 -0.1210
    1SOL    HW3 7079   1.477   1.554   3.101  0.2135  0.8718 -0.1646
    1SOL    MW4 7080   1.556   1.519   3.116 -0.1924  0.0814  0.1292
    1SOL     OW 7081   1.319   1.674   2.998 -0.0321 -0.4997  0.1433
    1SOL    HW2 7082   1.304   1.764   3.027 -2.7912 -0.7945 -0.2657
    1SOL    HW3 7083   1.352   1.683   2.908  0.6335  0.1129  0.4411
    1SOL    MW4 7084   1.322   1.687   2.990 -0.3084 -0.4578  0.1283
    1SOL     OW 7085   1.318   1.930   3.114 -0.4821  0.1656 -0.1803
    1SOL    HW2 7086   1.335   1.947   3.207 -0.9696  0.3790 -0.1310
    1SOL    HW3 7087   1.238   1.978   3.095 -0.9283 -0.6897 -0.4617
    1SOL    MW4 7088   1.310   1.938   3.124 -0.6053  0.0811 -0.2105
    1SOL     OW 7089   1.572   2.044   3.043  0.2131  0.3224  0.1638
    1SOL    HW2 7090   1.490   1.996   3.056  0.0402  0.9215  1.3307
    1SOL    HW3 7091   1.579   2.055   2.949 -0.6404 -0.4487  0.0069
    1SOL    MW4 7092   1.562   2.039   3.033  0.0776  0.2999  0.2971
    1SOL     OW 7093   1.583   2.311   3.139  0.4657  0.2222  0.4829
    1SOL    HW2 7094   1.499   2.344   3.105 -0.7648 -0.0710  3.0837
    1SOL    HW3 7095   1.587   2.220   3.110 -0.0283  0.2884  0.2009
    1SOL    MW4 7096   1.572   2.304   3.131  0.2383  0.1924  0.7889
    1SOL     OW 7097   1.349   2.419   3.047  0.2236 -0.3664 -0.1109
    1SOL    HW2 7098   1.268   2.392   3.090  0.1324  0.8597  0.5093
    1SOL    HW3 7099   1.335   2.402   2.954  0.0776 -2.1999  0.2138
    1SOL    MW4 7100   1.337   2.413   3.041  0.1922 -0.4468  0.0136
    1SOL     OW 7101   1.366   2.697   3.118  0.1392  0.1892  0.1404
    1SOL    HW2 7102   1.376   2.602   3.111 -0.8808 -0.0243  1.5516
    1SOL    HW3 7103   1.277   2.714   3.087  0.3135  0.6968 -0.0912
    1SOL    MW4 7104   1.356   2.687   3.113  0.0275  0.2279  0.2961
    1SOL     OW 7105   1.588   2.819   3.034  0.0124  0.1583 -0.4041
    1SOL    HW2 7106   1.656   2.770   3.081  0.8127  1.7182  0.0951
    1SOL    HW3 7107   1.507   2.773   3.055  0.6886 -0.7120  0.3931
    1SOL    MW4 7108   1.586   2.806   3.043  0.2072  0.2494 -0.2332
    1SOL     OW 7109   1.599   3.079   3.154  0.5108 -0.3296  0.2790
    1SOL    HW2 7110   1.582   3.083   3.248  1.4715  0.1572  0.4346
    1SOL    HW3 7111   1.572   2.990   3.129 -1.3440  0.0971  0.6758
    1SOL    MW4 7112   1.593   3.067   3.163  0.3928 -0.2091  0.3519
    1SOL     OW 7113   1.362   3.205   3.051 -0.5956  0.0141  0.8068
    1SOL    HW2 7114   1.440   3.159   3.080 -1.2984 -0.8488  1.3478
    1SOL    HW3 7115   1.356   3.185   2.958  1.0849  1.9460  0.2360
    1SOL    MW4 7116   1.371   3.196   3.043 -0.4666  0.1550  0.8028
    1SOL     OW 7117   1.353   3.479   3.096  0.2103  0.3877  0.4703
    1SOL    HW2 7118   1.366   3.483   3.191  1.6458  0.2528  0.2970
    1SOL    HW3 7119   1.360   3.386   3.075  0.5767  0.4867  0.1490
    1SOL    MW4 7120   1.356   3.468   3.106  0.4480  0.3829  0.4051
    1SOL     OW 7121   1.592   3.615   3.033 -0.1671  0.0778  0.0584
    1SOL    HW2 7122   1.507   3.572   3.043 -0.4671  0.3134 -1.4185
    1SOL    HW3 7123   1.604   3.625   2.938  0.6050  1.8577  0.3191
    1SOL    MW4 7124   1.583   3.611   3.022 -0.1049  0.3440 -0.1020
    1SOL     OW 7125   1.586   3.874   3.126  0.0703  0.2194  0.0339
    1SOL    HW2 7126   1.674   3.910   3.121  0.3316 -0.4284 -0.1319
    1SOL    HW3 7127   1.593   3.787   3.086 -0.4957 -0.0952  0.5926
    1SOL    MW4 7128   1.598   3.867   3.120  0.0300  0.0923  0.0858
    1SOL     OW 7129   1.334   3.960   3.006 -0.5610  0.3527 -0.0224
    1SOL    HW2 7130   1.419   3.938   3.044 -0.3343 -1.8551 -1.7414
    1SOL    HW3 7131   1.270   3.924   3.068 -0.2051 -1.0706 -0.4675
    1SOL    MW4 7132   1.336   3.953   3.019 -0.4841 -0.1266 -0.3080
    1SOL     OW 7133   1.344   4.221   3.117  0.2244  0.1773 -0.2604
    1SOL    HW2 7134   1.337   4.141   3.064  0.7369  0.2821 -0.4917
    1SOL    HW3 7135   1.265   4.271   3.095  0.8506  0.6066 -1.5845
    1SOL    MW4 7136   1.333   4.217   3.107  0.3747  0.2480 -0.4656
    1SOL     OW 7137   1.574   4.347   3.031  0.1838 -0.3286  0.4516
    1SOL    HW2 7138   1.494   4.306   3.064 -0.3707 -0.9416 -1.6280
    1SOL    HW3 7139   1.569   4.437   3.065 -1.3758 -0.3552  0.3595
    1SOL    MW4 7140   1.562   4.353   3.040 -0.0951 -0.4125  0.1650
    1SOL     OW 7141   2.037   4.639   3.136 -0.0844  0.2728  0.0251
    1SOL    HW2 7142   2.019   4.640   3.230  0.3740  1.9804  0.1123
    1SOL    HW3 7143   1.960   4.680   3.096  0.0900  0.3231 -0.2660
    1SOL    MW4 7144   2.024   4.645   3.143 -0.0012  0.5050 -0.0017
    1SOL     OW 7145   1.824   0.082   2.996 -0.4470 -0.2814 -0.4115
    1SOL    HW2 7146   1.741   0.035   3.006 -0.7912  0.4198  0.1208
    1SOL    HW3 7147   1.826   0.106   2.904 -1.2309  0.3876 -0.2689
    1SOL    MW4 7148   1.813   0.079   2.986 -0.5958 -0.1006 -0.3223
    1SOL     OW 7149   1.860   0.353   3.128 -0.0496  0.0233 -0.1827
    1SOL    HW2 7150   1.844   0.260   3.112  0.0869 -0.3033  1.4605
    1SOL    HW3 7151   1.780   0.397   3.099 -0.2970 -0.6533 -0.5245
    1SOL    MW4 7152   1.847   0.347   3.122 -0.0643 -0.1090 -0.0110
    1SOL     OW 7153   2.064   0.492   3.017 -0.1375  0.2592  0.4774
    1SOL    HW2 7154   2.004   0.421   3.042 -0.4237  0.5226  0.5457
    1SOL    HW3 7155   2.058   0.496   2.922 -1.1584  1.0891  0.5691
    1SOL    MW4 7156   2.055   0.483   3.008 -0.3099  0.4035  0.4983
    1SOL     OW 7157   2.061   0.728   3.156  0.6315  0.3310 -0.3122
    1SOL    HW2 7158   1.978   0.773   3.139 -0.0849 -0.0827  1.9159
    1SOL    HW3 7159   2.054   0.646   3.107 -0.9331 -0.3728  1.0272
    1SOL    MW4 7160   2.049   0.723   3.148  0.3304  0.1836  0.1585
    1SOL     OW 7161   1.845   0.882   3.056  0.2875 -0.1334 -0.0910
    1SOL    HW2 7162   1.773   0.831   3.095  0.0057  0.2235 -0.1483
    1SOL    HW3 7163   1.835   0.870   2.962  0.2160  0.0365 -0.1047
    1SOL    MW4 7164   1.835   0.874   3.049  0.2408 -0.0638 -0.1004
    1SOL     OW 7165   1.780   1.135   3.140  0.0072 -0.2042  0.3855
    1SOL    HW2 7166   1.788   1.146   3.234  0.2562  0.7705  0.2535
    1SOL    HW3 7167   1.802   1.043   3.124  0.8942 -0.1286  1.1684
    1SOL    MW4 7168   1.784   1.124   3.150  0.1570 -0.0658  0.4714
    1SOL     OW 7169   1.984   1.285   3.046  0.1314 -0.1923 -0.0521
    1SOL    HW2 7170   2.064   1.236   3.064 -0.0501  0.0561  1.4476
    1SOL    HW3 7171   1.914   1.229   3.077 -0.2346 -0.0573 -0.6290
    1SOL    MW4 7172   1.986   1.271   3.052  0.0591 -0.1417  0.0699
    1SOL     OW 7173   2.019   1.540   3.121  0.4346 -0.2855 -0.2371
    1SOL    HW2 7174   2.030   1.551   3.216  0.1973 -0.8187 -0.1447
    1SOL    HW3 7175   2.011   1.446   3.109 -0.8008 -0.1346 -0.6484
    1SOL    MW4 7176   2.020   1.529   3.132  0.2403 -0.3359 -0.2792
    1SOL     OW 7177   1.786   1.646   3.047 -0.4292 -0.1387 -0.1695
    1SOL    HW2 7178   1.790   1.738   3.073 -2.8630  0.1510 -0.6805
    1SOL    HW3 7179   1.866   1.607   3.082 -0.0977  1.8531  1.3401
    1SOL    MW4 7180   1.797   1.653   3.055 -0.7067  0.1622 -0.0377
    1SOL     OW 7181   1.772   1.886   3.143  0.5353  0.1710 -0.0996
    1SOL    HW2 7182   1.843   1.948   3.122  0.9569  0.2420  1.4775
    1SOL    HW3 7183   1.693   1.928   3.108  0.9775  1.0888 -0.0256
    1SOL    MW4 7184   1.771   1.900   3.135  0.6492  0.3015  0.1180
    1SOL     OW 7185   2.004   2.035   3.062  0.2459 -0.3387  0.5133
    1SOL    HW2 7186   2.089   1.998   3.089  0.4966  1.1459  1.8048
    1SOL    HW3 7187   2.004   2.124   3.096 -1.4841 -0.0198 -0.2515
    1SOL    MW4 7188   2.015   2.042   3.070  0.0505 -0.1006  0.5829
    1SOL     OW 7189   2.037   2.283   3.160 -0.3052  0.1450  0.1694
    1SOL    HW2 7190   2.113   2.341   3.152 -0.8635  1.1016  1.5575
    1SOL    HW3 7191   1.966   2.328   3.115 -0.9364  0.9423  1.9031
    1SOL    MW4 7192   2.038   2.297   3.153 -0.4623  0.3765  0.5813
    1SOL     OW 7193   1.817   2.422   3.030  0.0714  0.2585 -0.0176
    1SOL    HW2 7194   1.820   2.514   3.057 -1.1142  0.5296 -0.7640
    1SOL    HW3 7195   1.742   2.386   3.077  0.0819 -0.1364 -0.2971
    1SOL    MW4 7196   1.807   2.429   3.040 -0.0836  0.2422 -0.1531
    1SOL     OW 7197   1.807   2.677   3.121  0.1510  0.3369 -0.6512
    1SOL    HW2 7198   1.808   2.696   3.215 -0.7904  0.3000 -0.6302
    1SOL    HW3 7199   1.871   2.738   3.084 -1.3895  2.2087 -0.3264
    1SOL    MW4 7200   1.816   2.688   3.128 -0.1764  0.5789 -0.6056
    1SOL     OW 7201   2.040   2.843   3.043 -0.1782 -0.2601  0.0188
    1SOL    HW2 7202   2.049   2.937   3.056 -0.8623 -0.2760  0.6406
    1SOL    HW3 7203   2.030   2.831   2.949  1.3687  0.1679 -0.2088
    1SOL    MW4 7204   2.040   2.854   3.032 -0.0641 -0.2058  0.0710
    1SOL     OW 7205   2.015   3.124   3.159 -0.2995 -0.0816 -0.1407
    1SOL    HW2 7206   1.997   3.103   3.251  1.0731  0.2395  0.1991
    1SOL    HW3 7207   1.930   3.150   3.124 -0.7070  0.4606  1.2142
    1SOL    MW4 7208   2.001   3.125   3.166 -0.1719  0.0324  0.0832
    1SOL     OW 7209   1.781   3.253   3.049 -0.1195  0.0793 -0.3495
    1SOL    HW2 7210   1.713   3.199   3.089 -0.4889 -0.5450 -1.7863
    1SOL    HW3 7211   1.784   3.224   2.958 -0.6386  2.8007 -1.2710
    1SOL    MW4 7212   1.773   3.242   3.042 -0.2367  0.3557 -0.6607
    1SOL     OW 7213   1.825   3.503   3.149  0.4526 -0.0262  0.5392
    1SOL    HW2 7214   1.822   3.418   3.105  1.6006 -0.1890  0.7586
    1SOL    HW3 7215   1.754   3.553   3.109  0.5915 -0.6525 -0.5070
    1SOL    MW4 7216   1.816   3.498   3.138  0.6224 -0.1304  0.4301
    1SOL     OW 7217   2.064   3.595   3.047  0.0202  0.4275  0.5448
    1SOL    HW2 7218   2.072   3.686   3.075  1.3250  0.3573  0.4547
    1SOL    HW3 7219   1.982   3.564   3.087  0.2581  1.2509  1.6930
    1SOL    MW4 7220   2.054   3.603   3.056  0.2236  0.5269  0.6843
    1SOL     OW 7221   2.083   3.866   3.139  0.2076 -0.2729  0.3938
    1SOL    HW2 7222   2.085   3.868   3.234 -0.5694 -1.3682  0.4510
    1SOL    HW3 7223   1.997   3.902   3.116 -0.6077 -2.2389  0.2282
    1SOL    MW4 7224   2.072   3.871   3.148 -0.0024 -0.6769  0.3793
    1SOL     OW 7225   1.832   3.964   3.049  0.3713  0.2272  0.2522
    1SOL    HW2 7226   1.829   4.057   3.073  0.8733  0.5007 -0.7389
    1SOL    HW3 7227   1.822   3.963   2.954  0.7896 -0.7002  0.2129
    1SOL    MW4 7228   1.831   3.976   3.040  0.4928  0.1407  0.1163
    1SOL     OW 7229   1.809   4.256   3.139 -0.3201  0.3208 -0.0495
    1SOL    HW2 7230   1.868   4.322   3.101  0.0853  0.1577  0.2970
    1SOL    HW3 7231   1.721   4.288   3.117 -0.1960  2.0142  1.7999
    1SOL    MW4 7232   1.805   4.269   3.131 -0.2502  0.5231  0.2403
    1SOL     OW 7233   2.048   4.406   3.010 -0.2573  0.6505 -0.1433
    1SOL    HW2 7234   2.052   4.491   3.053  1.9807  0.8388 -0.6607
    1SOL    HW3 7235   2.114   4.353   3.055 -1.6854 -0.8539  0.2386
    1SOL    MW4 7236   2.057   4.410   3.021 -0.1507  0.4773 -0.1612
    1SOL     OW 7237   2.493   0.017   3.166 -0.5632  0.2870  0.4039
    1SOL    HW2 7238   2.509  -0.066   3.121 -0.2662 -0.0966  1.2075
    1SOL    HW3 7239   2.410   0.048   3.130 -1.0447 -0.7248  0.6408
    1SOL    MW4 7240   2.484   0.010   3.155 -0.5877  0.1029  0.5412
    1SOL     OW 7241   2.258   0.129   3.055  0.0780  0.1139  0.4291
    1SOL    HW2 7242   2.260   0.219   3.087 -1.3551 -0.3350  1.8515
    1SOL    HW3 7243   2.175   0.093   3.088  0.0042 -1.3270 -1.2229
    1SOL    MW4 7244   2.247   0.136   3.064 -0.1209 -0.1355  0.3989
    1SOL     OW 7245   2.272   0.408   3.164 -0.4779  0.6165 -0.1917
    1SOL    HW2 7246   2.251   0.408   3.258  0.1927 -0.1072 -0.0391
    1SOL    HW3 7247   2.201   0.458   3.124 -0.3223  1.6651  0.8004
    1SOL    MW4 7248   2.260   0.415   3.171 -0.3688  0.6593 -0.0405
    1SOL     OW 7249   2.505   0.532   3.083  0.4210 -0.1514 -0.6525
    1SOL    HW2 7250   2.432   0.475   3.109  0.8298 -0.5186 -0.3121
    1SOL    HW3 7251   2.503   0.531   2.987 -0.5097  0.4659 -0.6483
    1SOL    MW4 7252   2.495   0.524   3.074  0.3521 -0.1184 -0.6073
    1SOL     OW 7253   2.446   0.795   3.145  0.0901  0.4355  0.2175
    1SOL    HW2 7254   2.516   0.826   3.086 -0.3610  1.0493 -0.0016
    1SOL    HW3 7255   2.444   0.700   3.132  0.1061  0.5484 -0.6281
    1SOL    MW4 7256   2.455   0.787   3.135  0.0327  0.5314  0.0772
    1SOL     OW 7257   2.248   0.863   2.983  0.2035 -0.3556 -0.1018
    1SOL    HW2 7258   2.316   0.848   3.048  0.0701  0.7435  0.2967
    1SOL    HW3 7259   2.169   0.823   3.021  0.5185 -1.2822 -0.3921
    1SOL    MW4 7260   2.247   0.855   2.997  0.2275 -0.3328 -0.0873
    1SOL     OW 7261   2.215   1.140   3.078  0.3194  0.2511  0.1712
    1SOL    HW2 7262   2.219   1.131   3.173 -0.1007 -0.7352  0.0974
    1SOL    HW3 7263   2.212   1.050   3.045 -0.8406  0.5980 -0.7090
    1SOL    MW4 7264   2.215   1.127   3.086  0.1109  0.1669  0.0455
    1SOL     OW 7265   2.409   1.316   3.010  0.0712  0.7311 -0.1945
    1SOL    HW2 7266   2.337   1.255   3.023  1.1708 -0.8260 -1.2041
    1SOL    HW3 7267   2.427   1.313   2.916  0.5040  2.2092 -0.1836
    1SOL    MW4 7268   2.402   1.308   2.999  0.2735  0.7207 -0.3262
    1SOL     OW 7269   2.476   1.556   3.112  0.0671  0.2661  0.7838
    1SOL    HW2 7270   2.564   1.575   3.078  0.1489 -0.2630  0.7019
    1SOL    HW3 7271   2.462   1.464   3.092 -0.4557  0.3160  0.9194
    1SOL    MW4 7272   2.486   1.547   3.105  0.0091  0.2030  0.7908
    1SOL     OW 7273   2.243   1.670   3.038  1.1092  0.1031  0.1167
    1SOL    HW2 7274   2.162   1.629   3.069  0.6644  1.7823  1.2406
    1SOL    HW3 7275   2.312   1.627   3.087  0.7806 -0.3488  0.1876
    1SOL    MW4 7276   2.241   1.659   3.048  1.0071  0.2650  0.2744
    1SOL     OW 7277   2.246   1.942   3.127  0.1989 -0.1716 -0.0939
    1SOL    HW2 7278   2.317   1.981   3.077  1.0840 -1.2341  0.3345
    1SOL    HW3 7279   2.246   1.850   3.103 -0.6947 -0.2886  0.3146
    1SOL    MW4 7280   2.255   1.935   3.117  0.1976 -0.3273  0.0165
    1SOL     OW 7281   2.466   2.064   3.012 -0.1980 -0.0750  0.3552
    1SOL    HW2 7282   2.535   2.002   3.036 -0.7050 -0.5673  0.5699
    1SOL    HW3 7283   2.459   2.055   2.917  0.0813  0.0271  0.3245
    1SOL    MW4 7284   2.474   2.054   3.002 -0.2279 -0.1266  0.3796
    1SOL     OW 7285   2.504   2.307   3.180  0.5094  0.3120  0.4128
    1SOL    HW2 7286   2.492   2.290   3.273 -1.0790 -0.4649  0.0890
    1SOL    HW3 7287   2.499   2.221   3.139  0.0236  0.7637 -0.4980
    1SOL    MW4 7288   2.502   2.293   3.186  0.2358  0.2689  0.2501
    1SOL     OW 7289   2.265   2.418   3.063  0.3990  0.0018  0.1808
    1SOL    HW2 7290   2.270   2.509   3.091 -0.4633  0.1201 -0.0374
    1SOL    HW3 7291   2.340   2.376   3.104  1.0138  0.8953 -0.0252
    1SOL    MW4 7292   2.275   2.425   3.072  0.3660  0.1352  0.1247
    1SOL     OW 7293   2.269   2.688   3.128 -0.1954 -0.3060 -0.1850
    1SOL    HW2 7294   2.347   2.720   3.082 -0.0978  0.7845  0.7052
    1SOL    HW3 7295   2.198   2.742   3.092 -0.3315 -0.4084 -0.0661
    1SOL    MW4 7296   2.270   2.700   3.117 -0.2005 -0.1755 -0.0517
    1SOL     OW 7297   2.518   2.786   3.029  0.1493 -0.2364  0.1546
    1SOL    HW2 7298   2.495   2.874   3.055  1.5781 -0.0252  0.7622
    1SOL    HW3 7299   2.520   2.788   2.933 -1.5477 -0.0789  0.1183
    1SOL    MW4 7300   2.515   2.798   3.020  0.1137 -0.1879  0.2298
    1SOL     OW 7301   2.454   3.041   3.100  0.0838  0.3934 -0.1224
    1SOL    HW2 7302   2.538   3.085   3.082  0.7903 -0.8994 -0.0719
    1SOL    HW3 7303   2.388   3.102   3.069  1.1289  0.2386 -2.8603
    1SOL    MW4 7304   2.457   3.055   3.093  0.3150  0.2024 -0.4771
    1SOL     OW 7305   2.252   3.231   3.028  0.1493  0.0429 -0.2400
    1SOL    HW2 7306   2.280   3.316   3.062  0.6054 -0.0706 -0.3171
    1SOL    HW3 7307   2.179   3.206   3.084  0.2890  0.2901  0.0620
    1SOL    MW4 7308   2.246   3.239   3.040  0.2279  0.0603 -0.2105
    1SOL     OW 7309   2.315   3.473   3.122  0.2181 -0.0376  0.3195
    1SOL    HW2 7310   2.377   3.514   3.062 -0.5147 -0.2493 -0.5771
    1SOL    HW3 7311   2.232   3.516   3.105 -0.8388 -2.6001 -1.4292
    1SOL    MW4 7312   2.312   3.484   3.112 -0.0181 -0.4036 -0.0293
    1SOL     OW 7313   2.493   3.623   2.999  0.2762 -0.0619  0.0342
    1SOL    HW2 7314   2.574   3.583   3.030  0.2180 -0.3595 -0.1988
    1SOL    HW3 7315   2.481   3.699   3.056 -0.0957 -0.8962  1.0848
    1SOL    MW4 7316   2.502   3.628   3.011  0.2193 -0.2115  0.1421
    1SOL     OW 7317   2.504   3.853   3.148 -0.9363  0.1579  0.2532
    1SOL    HW2 7318   2.478   3.823   3.235 -2.3554 -0.0870 -0.2440
    1SOL    HW3 7319   2.583   3.905   3.163  0.2491 -1.8820  1.4155
    1SOL    MW4 7320   2.511   3.856   3.161 -0.9670 -0.1438  0.3409
    1SOL     OW 7321   2.298   4.024   3.052 -0.1751 -0.0579 -0.1868
    1SOL    HW2 7322   2.380   3.977   3.065 -0.1980 -0.3151 -0.9107
    1SOL    HW3 7323   2.231   3.968   3.092 -0.2039 -0.6604 -1.0561
    1SOL    MW4 7324   2.300   4.011   3.059 -0.1819 -0.1717 -0.3970
    1SOL     OW 7325   2.239   4.272   3.144  0.0513  0.3424  0.1005
    1SOL    HW2 7326   2.251   4.181   3.117 -0.5684  0.5406 -0.8737
    1SOL    HW3 7327   2.237   4.269   3.240  0.7369 -0.5735  0.0888
    1SOL    MW4 7328   2.240   4.260   3.153  0.0598  0.2475 -0.0296
    1SOL     OW 7329   2.468   4.407   3.054  0.2401 -0.0560  0.1425
    1SOL    HW2 7330   2.383   4.370   3.079 -0.6174  1.1665 -0.9020
    1SOL    HW3 7331   2.462   4.419   2.960  2.4599 -2.1306 -0.3241
    1SOL    MW4 7332   2.456   4.404   3.045  0.4199 -0.1683 -0.0567
    1SOL     OW 7333   2.939   0.007   3.143  0.3758  0.1330 -0.1199
    1SOL    HW2 7334   3.022   0.043   3.115  0.8021 -0.6926  0.0551
    1SOL    HW3 7335   2.941  -0.084   3.113 -1.0068  0.4486 -1.2602
    1SOL    MW4 7336   2.950  -0.000   3.135  0.2496  0.0658 -0.2472
    1SOL     OW 7337   2.702   0.125   3.034  0.1394  0.0267  0.2483
    1SOL    HW2 7338   2.772   0.076   3.077 -0.2328 -2.2236 -1.6633
    1SOL    HW3 7339   2.621   0.092   3.074 -0.1593 -1.5035 -1.5673
    1SOL    MW4 7340   2.700   0.114   3.045  0.0505 -0.4721 -0.2434
    1SOL     OW 7341   2.716   0.379   3.165  0.6175 -0.2694  0.4193
    1SOL    HW2 7342   2.709   0.297   3.118  0.8791 -0.2458  0.3344
    1SOL    HW3 7343   2.636   0.426   3.145  0.8545 -0.1410 -0.2279
    1SOL    MW4 7344   2.705   0.374   3.156  0.6833 -0.2494  0.3226
    1SOL     OW 7345   2.935   0.455   3.014 -0.0327 -0.1770  0.1582
    1SOL    HW2 7346   2.857   0.425   3.061  0.5457 -1.3479  0.3911
    1SOL    HW3 7347   2.905   0.467   2.924 -0.3062 -1.4222  0.0657
    1SOL    MW4 7348   2.921   0.453   3.008  0.0076 -0.4958  0.1769
    1SOL     OW 7349   2.899   0.723   3.120 -0.5869  0.1007  0.0373
    1SOL    HW2 7350   2.891   0.718   3.216  0.1703  0.6670  0.1355
    1SOL    HW3 7351   2.884   0.634   3.090 -0.7356 -0.1009  0.6957
    1SOL    MW4 7352   2.896   0.711   3.129 -0.5066  0.1488  0.1371
    1SOL     OW 7353   2.667   0.874   3.008 -0.1410 -0.9821 -0.3765
    1SOL    HW2 7354   2.675   0.961   3.047  1.5359 -1.2707 -0.0188
    1SOL    HW3 7355   2.735   0.822   3.052 -0.3223 -2.1427 -1.4474
    1SOL    MW4 7356   2.677   0.879   3.019  0.0563 -1.1733 -0.4706
    1SOL     OW 7357   2.615   1.138   3.099 -0.2028 -0.3836  0.6798
    1SOL    HW2 7358   2.684   1.192   3.060  0.9184 -3.1727 -1.4017
    1SOL    HW3 7359   2.533   1.174   3.064  0.5076  0.1396 -0.4985
    1SOL    MW4 7360   2.613   1.149   3.089  0.0389 -0.6825  0.2496
    1SOL     OW 7361   2.867   1.231   3.030 -0.0374  0.1510  0.1746
    1SOL    HW2 7362   2.944   1.186   3.066 -1.0434 -0.1793  1.9637
    1SOL    HW3 7363   2.881   1.323   3.051 -0.2925  0.0457  0.8190
    1SOL    MW4 7364   2.879   1.237   3.037 -0.2036  0.0935  0.4957
    1SOL     OW 7365   2.911   1.497   3.089  0.3607 -0.0495 -0.3566
    1SOL    HW2 7366   2.918   1.500   3.185  0.2969 -0.2947 -0.3439
    1SOL    HW3 7367   2.995   1.531   3.058  0.2599  0.3362 -0.2146
    1SOL    MW4 7368   2.923   1.502   3.098  0.3390 -0.0310 -0.3362
    1SOL     OW 7369   2.710   1.664   2.988  0.0416  0.0454  0.3940
    1SOL    HW2 7370   2.779   1.612   3.029  0.2040  0.1484  0.2467
    1SOL    HW3 7371   2.713   1.748   3.034  0.6076  0.3671 -0.2243
    1SOL    MW4 7372   2.719   1.668   3.000  0.1378  0.1014  0.2928
    1SOL     OW 7373   2.685   1.914   3.104  0.3830 -0.6033  0.2531
    1SOL    HW2 7374   2.678   1.924   3.199 -1.0403  1.2451 -0.0013
    1SOL    HW3 7375   2.766   1.960   3.081 -0.5701  1.1597  0.3193
    1SOL    MW4 7376   2.695   1.922   3.113  0.0694 -0.1268  0.2282
    1SOL     OW 7377   2.913   2.038   3.010 -0.4369 -0.4013 -0.3119
    1SOL    HW2 7378   2.923   2.128   3.043 -0.4550 -0.1192 -1.0551
    1SOL    HW3 7379   2.920   2.047   2.915 -0.3816 -1.1998 -0.3859
    1SOL    MW4 7380   2.916   2.051   3.001 -0.4323 -0.4694 -0.4196
    1SOL     OW 7381   2.930   2.304   3.089 -0.0796  0.3463  0.2105
    1SOL    HW2 7382   2.999   2.369   3.074  0.9552 -1.0035 -1.1883
    1SOL    HW3 7383   2.852   2.343   3.050  1.0907 -0.2475 -2.9392
    1SOL    MW4 7384   2.929   2.318   3.082  0.2117  0.0896 -0.3893
    1SOL     OW 7385   2.705   2.413   3.002  0.0397  0.2334 -0.3967
    1SOL    HW2 7386   2.733   2.500   3.031  0.7133  0.1715 -0.8379
    1SOL    HW3 7387   2.643   2.384   3.069  0.7342  0.5453  0.3991
    1SOL    MW4 7388   2.700   2.421   3.015  0.2203  0.2661 -0.3498
    1SOL     OW 7389   2.767   2.671   3.139  0.8074 -0.3908 -0.1048
    1SOL    HW2 7390   2.751   2.675   3.233  1.1562 -0.6485 -0.0334
    1SOL    HW3 7391   2.684   2.699   3.099  0.7211 -0.1006  0.2790
    1SOL    MW4 7392   2.754   2.675   3.146  0.8423 -0.3867 -0.0448
    1SOL     OW 7393   2.955   2.817   2.985  0.2692 -0.7720 -0.4825
    1SOL    HW2 7394   3.041   2.788   3.016 -0.1300 -0.4055  1.0069
    1SOL    HW3 7395   2.893   2.771   3.042 -0.4346  1.0938  0.2980
    1SOL    MW4 7396   2.958   2.807   2.997  0.1235 -0.4776 -0.1831
    1SOL     OW 7397   2.953   3.078   3.089  0.2548  0.2977  0.5290
    1SOL    HW2 7398   2.866   3.115   3.072 -0.2281 -0.5607  1.0726
    1SOL    HW3 7399   2.951   2.992   3.048  0.7827  0.2005  0.7062
    1SOL    MW4 7400   2.941   3.072   3.082  0.2608  0.1717  0.6242
    1SOL     OW 7401   2.698   3.188   3.048 -0.3051  0.0854  0.1199
    1SOL    HW2 7402   2.690   3.278   3.081  0.5369 -0.1829  1.0862
    1SOL    HW3 7403   2.694   3.197   2.953 -1.0002  1.0645  0.2279
    1SOL    MW4 7404   2.696   3.201   3.040 -0.2859  0.1791  0.2618
    1SOL     OW 7405   2.690   3.460   3.110  0.6069  0.5301 -0.1795
    1SOL    HW2 7406   2.683   3.446   3.204  1.2898  0.1130 -0.1818
    1SOL    HW3 7407   2.783   3.479   3.096  0.3949  1.2341 -0.6857
    1SOL    MW4 7408   2.702   3.461   3.120  0.6690  0.5682 -0.2465
    1SOL     OW 7409   2.925   3.577   2.989  0.4581  0.1538  0.1534
    1SOL    HW2 7410   2.990   3.534   3.046  0.8677  0.5649 -0.0074
    1SOL    HW3 7411   2.915   3.664   3.026 -1.0247 -0.3513  1.0011
    1SOL    MW4 7412   2.932   3.583   3.001  0.3164  0.1414  0.2439
    1SOL     OW 7413   2.920   3.831   3.111  0.0509 -0.5128  0.1653
    1SOL    HW2 7414   2.940   3.827   3.204  1.9450  1.1614 -0.1262
    1SOL    HW3 7415   2.855   3.900   3.102  1.4625  0.8171  0.0238
    1SOL    MW4 7416   2.914   3.840   3.122  0.4871 -0.1163  0.1082
    1SOL     OW 7417   2.715   4.024   3.076  0.2061 -0.2757 -0.1225
    1SOL    HW2 7418   2.711   4.118   3.090  0.6993 -0.3528  0.6125
    1SOL    HW3 7419   2.680   4.010   2.988 -1.4372  0.4180  0.4013
    1SOL    MW4 7420   2.710   4.034   3.066  0.0544 -0.1941  0.0436
    1SOL     OW 7421   2.697   4.286   3.147  0.4268 -0.1388 -0.1249
    1SOL    HW2 7422   2.688   4.253   3.236 -0.2526  1.6894  0.4940
    1SOL    HW3 7423   2.614   4.329   3.129 -0.2508 -2.2555 -2.4117
    1SOL    MW4 7424   2.685   4.287   3.156  0.2480 -0.1764 -0.3450
    1SOL     OW 7425   2.924   4.394   3.056  0.3543 -0.3108  0.1388
    1SOL    HW2 7426   2.997   4.337   3.081  0.2812 -0.0367  0.9857
    1SOL    HW3 7427   2.847   4.355   3.099 -0.2331 -1.3424 -1.7976
    1SOL    MW4 7428   2.923   4.381   3.065  0.2675 -0.4110 -0.0050
    1SOL     OW 7429   3.397   4.620   3.115  0.3561  0.0920 -0.1734
    1SOL    HW2 7430   3.480   4.658   3.085 -0.8808  1.2066 -2.2608
    1SOL    HW3 7431   3.394   4.534   3.074 -0.0728  0.5278 -1.0569
    1SOL    MW4 7432   3.408   4.614   3.106  0.1364  0.2961 -0.5653
    1SOL     OW 7433   3.168   0.105   3.061 -0.4227 -0.1718 -0.1512
    1SOL    HW2 7434   3.187   0.197   3.080 -1.4942 -0.1203  0.6592
    1SOL    HW3 7435   3.250   0.059   3.083  0.5019  0.7199 -1.6546
    1SOL    MW4 7436   3.181   0.111   3.066 -0.4423 -0.0473 -0.2427
    1SOL     OW 7437   3.160   0.361   3.145  0.1052  0.0316 -0.0992
    1SOL    HW2 7438   3.086   0.394   3.094  0.4007  0.7038 -0.1030
    1SOL    HW3 7439   3.129   0.361   3.235  0.5221  1.5656  0.0640
    1SOL    MW4 7440   3.146   0.365   3.150  0.1988  0.3227 -0.0780
    1SOL     OW 7441   3.369   0.484   3.035  0.1718 -0.4938  0.6780
    1SOL    HW2 7442   3.296   0.443   3.081 -0.0391 -0.5075  0.3359
    1SOL    HW3 7443   3.344   0.480   2.942  0.5501 -0.3901  0.5694
    1SOL    MW4 7444   3.356   0.478   3.029  0.1938 -0.4819  0.6187
    1SOL     OW 7445   3.361   0.744   3.121  0.1889  0.0889 -0.1055
    1SOL    HW2 7446   3.356   0.752   3.216 -1.2954  0.5927 -0.2008
    1SOL    HW3 7447   3.364   0.650   3.105  0.6238  0.0055  0.4415
    1SOL    MW4 7448   3.361   0.733   3.131  0.0508  0.1444 -0.0458
    1SOL     OW 7449   3.118   0.865   3.033 -0.4603 -0.0501 -0.2183
    1SOL    HW2 7450   3.195   0.817   3.063 -0.9799  0.5302  2.1417
    1SOL    HW3 7451   3.044   0.812   3.060 -0.9790  1.0987  0.6569
    1SOL    MW4 7452   3.118   0.852   3.041 -0.5972  0.1780  0.2086
    1SOL     OW 7453   3.101   1.141   3.131 -0.2379 -0.2607  0.0478
    1SOL    HW2 7454   3.183   1.185   3.109 -0.3019  0.0489  0.4203
    1SOL    HW3 7455   3.116   1.049   3.110 -0.2848  0.0218 -1.2815
    1SOL    MW4 7456   3.114   1.135   3.125 -0.2525 -0.1824 -0.0787
    1SOL     OW 7457   3.328   1.254   3.040 -0.0155  0.1628  0.2426
    1SOL    HW2 7458   3.414   1.215   3.057  0.0411  0.3575  0.4015
    1SOL    HW3 7459   3.338   1.346   3.061 -0.3947  0.0981  0.7327
    1SOL    MW4 7460   3.341   1.261   3.045 -0.0579  0.1801  0.3281
    1SOL     OW 7461   3.372   1.527   3.109  0.2090 -0.1933 -0.1075
    1SOL    HW2 7462   3.374   1.540   3.204  1.1870  1.6699 -0.3616
    1SOL    HW3 7463   3.453   1.567   3.078 -1.3896  1.6886 -2.0054
    1SOL    MW4 7464   3.383   1.534   3.118  0.1273  0.3009 -0.3915
    1SOL     OW 7465   3.138   1.628   2.990  0.4043 -0.2699  0.4971
    1SOL    HW2 7466   3.224   1.613   3.029  0.8466 -0.0530 -0.3661
    1SOL    HW3 7467   3.155   1.628   2.895 -0.8087 -1.8551  0.2591
    1SOL    MW4 7468   3.152   1.626   2.982  0.3028 -0.4504  0.3519
    1SOL     OW 7469   3.130   1.893   3.100 -0.6245 -0.0041 -0.5875
    1SOL    HW2 7470   3.112   1.802   3.076  0.0227 -0.2612 -0.0916
    1SOL    HW3 7471   3.051   1.940   3.073 -1.8147 -1.0330  1.0258
    1SOL    MW4 7472   3.117   1.887   3.093 -0.6962 -0.1739 -0.3092
    1SOL     OW 7473   3.370   2.046   2.999  0.1302 -0.0722 -0.2053
    1SOL    HW2 7474   3.447   2.000   3.034 -0.2198  0.2776  1.0512
    1SOL    HW3 7475   3.296   1.995   3.030 -0.2228  0.7813  0.3605
    1SOL    MW4 7476   3.371   2.033   3.008  0.0374  0.0865  0.0353
    1SOL     OW 7477   3.358   2.296   3.095 -0.3026 -0.4406 -0.2415
    1SOL    HW2 7478   3.367   2.282   3.190  1.8772  1.0421 -0.1855
    1SOL    HW3 7479   3.360   2.208   3.058 -2.3405 -1.1126  1.1635
    1SOL    MW4 7480   3.360   2.282   3.103 -0.2840 -0.3335 -0.0489
    1SOL     OW 7481   3.147   2.473   3.051 -0.2173  0.1026  0.0282
    1SOL    HW2 7482   3.222   2.415   3.064  0.9751  1.4356 -0.7185
    1SOL    HW3 7483   3.145   2.489   2.956 -0.6530  1.0986  0.1974
    1SOL    MW4 7484   3.156   2.467   3.040 -0.1173  0.4098 -0.0482
    1SOL     OW 7485   3.195   2.731   3.138 -0.5600 -0.5946 -0.4487
    1SOL    HW2 7486   3.162   2.745   3.227 -1.9504 -0.3817 -0.9699
    1SOL    HW3 7487   3.196   2.636   3.128  0.7988 -0.6543  0.2182
    1SOL    MW4 7488   3.191   2.720   3.148 -0.5641 -0.5744 -0.4294
    1SOL     OW 7489   3.432   2.836   3.041  0.0715 -0.0581 -0.1876
    1SOL    HW2 7490   3.456   2.910   3.097 -0.5363 -0.1265  0.1608
    1SOL    HW3 7491   3.345   2.810   3.071  0.4728 -1.2107 -0.0014
    1SOL    MW4 7492   3.424   2.842   3.052  0.0443 -0.2191 -0.1171
    1SOL     OW 7493   3.446   3.066   3.172  0.0391 -0.9791 -0.1643
    1SOL    HW2 7494   3.421   3.072   3.264 -0.8837 -0.6008 -0.4337
    1SOL    HW3 7495   3.370   3.099   3.124  0.6645 -0.7943 -1.0440
    1SOL    MW4 7496   3.432   3.071   3.178 -0.0002 -0.9046 -0.3157
    1SOL     OW 7497   3.210   3.166   3.050  0.3554  0.1401 -0.0683
    1SOL    HW2 7498   3.124   3.128   3.069  0.5351  0.0296  0.5177
    1SOL    HW3 7499   3.226   3.143   2.958 -0.5688  0.8064 -0.4000
    1SOL    MW4 7500   3.201   3.158   3.040  0.2570  0.2134 -0.0346
    1SOL     OW 7501   3.166   3.456   3.103  0.4406  0.3339 -0.4759
    1SOL    HW2 7502   3.238   3.506   3.063 -0.0642  0.6069 -1.0471
    1SOL    HW3 7503   3.188   3.364   3.084  1.0441  0.3713  0.0319
    1SOL    MW4 7504   3.179   3.450   3.095  0.4537  0.3750 -0.4842
    1SOL     OW 7505   3.412   3.568   3.040 -0.1197  0.2433  0.0265
    1SOL    HW2 7506   3.486   3.516   3.072 -0.6165 -0.5135 -0.0536
    1SOL    HW3 7507   3.434   3.658   3.066  1.9790  0.4162 -2.0977
    1SOL    MW4 7508   3.425   3.573   3.048  0.0918  0.1659 -0.2644
    1SOL     OW 7509   3.394   3.854   3.100  0.1899  0.2748 -0.2785
    1SOL    HW2 7510   3.408   3.883   3.190  1.6942 -2.2434  0.3258
    1SOL    HW3 7511   3.309   3.891   3.077 -0.8714 -0.1735  2.6631
    1SOL    MW4 7512   3.384   3.863   3.109  0.2482 -0.1166  0.1893
    1SOL     OW 7513   3.140   3.973   3.012  0.0572  0.0417 -0.2537
    1SOL    HW2 7514   3.055   3.942   3.043 -0.5602  0.8400 -1.1201
    1SOL    HW3 7515   3.143   3.949   2.920  0.8107 -0.0618 -0.2057
    1SOL    MW4 7516   3.129   3.966   3.004  0.0753  0.1335 -0.3617
    1SOL     OW 7517   3.140   4.235   3.112 -0.0909 -0.1521 -0.0903
    1SOL    HW2 7518   3.123   4.222   3.205  1.9708  0.6942  0.4239
    1SOL    HW3 7519   3.134   4.147   3.074 -1.6699 -0.4023  0.6953
    1SOL    MW4 7520   3.137   4.221   3.119 -0.0272 -0.0730  0.0813
    1SOL     OW 7521   3.364   4.373   2.996  0.1055 -0.3942  0.4201
    1SOL    HW2 7522   3.433   4.334   3.052  0.8610  0.6643  0.2386
    1SOL    HW3 7523   3.282   4.339   3.033  0.6569 -0.6563  1.4441
    1SOL    MW4 7524   3.363   4.363   3.009  0.2780 -0.2890  0.5307
    1SOL     OW 7525   3.827   4.640   3.170  0.6035 -0.6536 -0.2642
    1SOL    HW2 7526   3.836   4.546   3.151  2.3868 -0.0457 -2.7966
    1SOL    HW3 7527   3.755   4.669   3.114  0.3021 -0.4425  0.2347
    1SOL    MW4 7528   3.819   4.631   3.160  0.7989 -0.5455 -0.5326
    1SOL     OW 7529   3.638   0.070   3.004  0.1706 -0.0903  0.3084
    1SOL    HW2 7530   3.627   0.158   3.037 -0.1694 -0.4432  1.1258
    1SOL    HW3 7531   3.630   0.079   2.909 -0.7641  0.6143  0.4491
    1SOL    MW4 7532   3.636   0.083   2.996  0.0024 -0.0439  0.4346
    1SOL     OW 7533   3.593   0.354   3.117 -0.0196  0.4042 -0.1567
    1SOL    HW2 7534   3.602   0.349   3.212  1.0190  0.9877 -0.2222
    1SOL    HW3 7535   3.511   0.402   3.104 -0.2732  0.1464  0.4360
    1SOL    MW4 7536   3.583   0.360   3.128  0.0842  0.4472 -0.0870
    1SOL     OW 7537   3.819   0.466   2.988 -0.2716 -0.0792  0.0047
    1SOL    HW2 7538   3.741   0.423   3.023 -1.1169 -0.0372 -1.7859
    1SOL    HW3 7539   3.893   0.423   3.033 -1.2546 -0.8927  0.8660
    1SOL    MW4 7540   3.819   0.455   2.999 -0.5128 -0.1810 -0.1178
    1SOL     OW 7541   3.785   0.736   3.100  0.0721  0.1158 -0.0686
    1SOL    HW2 7542   3.795   0.741   3.195 -0.4256  0.2057 -0.0160
    1SOL    HW3 7543   3.784   0.642   3.081 -0.4733  0.0866  0.0924
    1SOL    MW4 7544   3.786   0.724   3.110 -0.0653  0.1238 -0.0403
    1SOL     OW 7545   3.562   0.860   3.002  0.3813  0.2633  0.5193
    1SOL    HW2 7546   3.636   0.814   3.041  1.3355  1.4486  0.1576
    1SOL    HW3 7547   3.486   0.826   3.049  1.1277 -1.1043  0.7794
    1SOL    MW4 7548   3.562   0.850   3.014  0.6056  0.2392  0.5062
    1SOL     OW 7549   3.558   1.132   3.112 -0.5916 -0.5809 -0.1849
    1SOL    HW2 7550   3.640   1.166   3.075 -1.6589 -0.2062 -2.2613
    1SOL    HW3 7551   3.559   1.039   3.090 -0.0123 -0.9055  1.1563
    1SOL    MW4 7552   3.569   1.125   3.104 -0.6559 -0.5742 -0.2820
    1SOL     OW 7553   3.818   1.233   3.014  0.1044 -0.6295 -0.2858
    1SOL    HW2 7554   3.808   1.324   3.042  2.7110 -0.4911  0.3514
    1SOL    HW3 7555   3.795   1.234   2.921 -1.0936  0.4438  0.0153
    1SOL    MW4 7556   3.814   1.245   3.005  0.2902 -0.4696 -0.1619
    1SOL     OW 7557   3.841   1.524   3.120  0.0345  0.2332  0.4435
    1SOL    HW2 7558   3.844   1.555   3.211 -0.6978 -1.0321  0.9195
    1SOL    HW3 7559   3.757   1.556   3.087 -0.2621 -0.3664  0.6123
    1SOL    MW4 7560   3.830   1.532   3.128 -0.1016 -0.0129  0.5283
    1SOL     OW 7561   3.614   1.641   2.995 -0.1215 -0.0055  0.1397
    1SOL    HW2 7562   3.606   1.735   3.014  0.2128  0.1394 -0.4389
    1SOL    HW3 7563   3.601   1.635   2.900 -0.5736 -0.5942  0.2365
    1SOL    MW4 7564   3.611   1.653   2.985 -0.1369 -0.0640  0.0758
    1SOL     OW 7565   3.597   1.908   3.081 -0.0692 -0.1853 -0.5680
    1SOL    HW2 7566   3.600   1.883   3.173  0.3844 -0.9316 -0.7776
    1SOL    HW3 7567   3.684   1.943   3.063 -0.5914  1.2428 -0.3684
    1SOL    MW4 7568   3.609   1.909   3.091 -0.0784 -0.0954 -0.5696
    1SOL     OW 7569   3.848   2.027   3.035  0.0682  0.1510  0.3378
    1SOL    HW2 7570   3.841   2.117   3.065  0.1059  0.7113 -1.2961
    1SOL    HW3 7571   3.838   2.032   2.940 -0.5820 -1.6349  0.2836
    1SOL    MW4 7572   3.845   2.039   3.026 -0.0129 -0.0110  0.1149
    1SOL     OW 7573   3.803   2.293   3.140 -0.1219 -0.5262 -0.3264
    1SOL    HW2 7574   3.804   2.299   3.236  1.5243  1.0895 -0.4087
    1SOL    HW3 7575   3.733   2.353   3.113 -0.3803 -0.7429 -0.1277
    1SOL    MW4 7576   3.794   2.302   3.149  0.0613 -0.3417 -0.3111
    1SOL     OW 7577   3.605   2.436   3.023 -0.2780  0.3018  0.3059
    1SOL    HW2 7578   3.613   2.517   3.074 -2.0077  0.5534  0.2055
    1SOL    HW3 7579   3.522   2.399   3.050  0.1526 -1.0676 -0.2224
    1SOL    MW4 7580   3.595   2.442   3.033 -0.4494  0.1547  0.2232
    1SOL     OW 7581   3.623   2.676   3.168 -0.1274 -0.1830 -0.2295
    1SOL    HW2 7582   3.708   2.712   3.144 -0.5050  0.4598 -0.6226
    1SOL    HW3 7583   3.560   2.730   3.120 -0.9053  0.9504  2.0115
    1SOL    MW4 7584   3.626   2.688   3.158 -0.2797  0.0513  0.0143
    1SOL     OW 7585   3.848   2.810   3.053  0.1022  0.3112 -0.1968
    1SOL    HW2 7586   3.845   2.903   3.076  1.9828  0.7625 -1.6064
    1SOL    HW3 7587   3.828   2.808   2.960  0.0724 -0.6974 -0.1718
    1SOL    MW4 7588   3.845   2.822   3.044  0.3464  0.2379 -0.3796
    1SOL     OW 7589   3.849   3.085   3.129 -0.2662  0.5100  0.1004
    1SOL    HW2 7590   3.930   3.121   3.092 -0.0589 -1.5075 -1.4972
    1SOL    HW3 7591   3.779   3.129   3.080 -0.0888  0.9762  0.2642
    1SOL    MW4 7592   3.851   3.095   3.117 -0.2153  0.3054 -0.0889
    1SOL     OW 7593   3.640   3.213   3.028  0.4306 -0.2541  0.1086
    1SOL    HW2 7594   3.563   3.169   3.063  0.5094  0.1852  0.8416
    1SOL    HW3 7595   3.628   3.211   2.933  0.1430 -1.3144  0.1671
    1SOL    MW4 7596   3.628   3.207   3.020  0.4029 -0.3362  0.2131
    1SOL     OW 7597   3.648   3.468   3.136 -0.2345  0.1221  0.3659
    1SOL    HW2 7598   3.735   3.503   3.116 -1.0446  1.1322 -1.5773
    1SOL    HW3 7599   3.652   3.377   3.107  0.4396 -0.1108  1.1432
    1SOL    MW4 7600   3.660   3.461   3.130 -0.2522  0.2246  0.2122
    1SOL     OW 7601   3.894   3.597   3.045 -0.2470 -0.2358 -0.0306
    1SOL    HW2 7602   3.870   3.678   3.091 -0.5227 -0.0200 -0.5524
    1SOL    HW3 7603   3.894   3.621   2.953  0.1880 -0.7045 -0.1509
    1SOL    MW4 7604   3.891   3.611   3.039 -0.2258 -0.2689 -0.1156
    1SOL     OW 7605   3.845   3.855   3.155 -0.1238 -0.0743  0.4167
    1SOL    HW2 7606   3.843   3.871   3.249 -0.9385  0.2574  0.3452
    1SOL    HW3 7607   3.769   3.902   3.121 -0.1987 -0.7289 -0.3237
    1SOL    MW4 7608   3.835   3.864   3.163 -0.2410 -0.1166  0.3097
    1SOL     OW 7609   3.634   3.972   3.036  0.0778 -0.2806 -0.7179
    1SOL    HW2 7610   3.554   3.925   3.058  0.4013 -0.8395 -0.7188
    1SOL    HW3 7611   3.641   3.963   2.940  0.2506 -0.4131 -0.6928
    1SOL    MW4 7612   3.624   3.964   3.026  0.1433 -0.3719 -0.7148
    1SOL     OW 7613   3.592   4.252   3.119 -0.2332  0.5172 -0.4470
    1SOL    HW2 7614   3.661   4.310   3.088 -0.3767  0.2416 -1.2836
    1SOL    HW3 7615   3.607   4.169   3.073 -1.1172  0.4588 -0.6336
    1SOL    MW4 7616   3.603   4.248   3.109 -0.3688  0.4725 -0.5820
    1SOL     OW 7617   3.836   4.386   3.060  0.1237  0.5385 -0.5573
    1SOL    HW2 7618   3.901   4.335   3.108 -2.1279 -1.5419  0.3093
    1SOL    HW3 7619   3.866   4.382   2.969  0.1420 -2.1012 -0.4663
    1SOL    MW4 7620   3.849   4.379   3.054 -0.1712 -0.0844 -0.4313
    1SOL     OW 7621   4.248   4.619   3.171 -0.0760 -0.3098  0.6328
    1SOL    HW2 7622   4.261   4.609   3.265 -1.5481 -1.3857  0.7483
    1SOL    HW3 7623   4.257   4.531   3.136  0.1804  0.0418 -0.1885
    1SOL    MW4 7624   4.251   4.606   3.179 -0.2360 -0.4058  0.5400
    1SOL     OW 7625   4.059   0.072   3.021 -0.0628 -0.1931 -0.4119
    1SOL    HW2 7626   4.130   0.032   3.072  0.6980 -0.7020 -1.8394
    1SOL    HW3 7627   3.979   0.045   3.065  0.5687 -0.9882  0.2607
    1SOL    MW4 7628   4.058   0.063   3.033  0.1211 -0.3651 -0.5114
    1SOL     OW 7629   4.035   0.337   3.110  0.2445 -0.3501 -0.0585
    1SOL    HW2 7630   4.114   0.384   3.083 -0.6953  0.2321 -1.8380
    1SOL    HW3 7631   4.040   0.254   3.063  0.6538 -1.0480  1.1808
    1SOL    MW4 7632   4.046   0.332   3.100  0.1745 -0.3654 -0.1297
    1SOL     OW 7633   4.276   0.477   3.022 -0.4699 -0.2599  0.3500
    1SOL    HW2 7634   4.279   0.561   3.068  3.2561  0.1387 -0.4259
    1SOL    HW3 7635   4.282   0.500   2.929  1.8801 -1.3649  0.1867
    1SOL    MW4 7636   4.277   0.491   3.016  0.3319 -0.3531  0.2260
    1SOL     OW 7637   4.276   0.744   3.128 -0.0447 -0.5618 -0.1890
    1SOL    HW2 7638   4.350   0.778   3.078  0.3403  0.5436  1.1091
    1SOL    HW3 7639   4.199   0.773   3.079  0.3292  0.5641 -0.1271
    1SOL    MW4 7640   4.275   0.752   3.115  0.0548 -0.2674 -0.0098
    1SOL     OW 7641   4.026   0.832   2.987  0.4078 -0.0998  0.1228
    1SOL    HW2 7642   4.029   0.922   3.018  1.0657 -0.1301  0.1516
    1SOL    HW3 7643   3.949   0.795   3.028 -0.7240  0.8857 -1.0582
    1SOL    MW4 7644   4.016   0.839   2.996  0.3452  0.0262 -0.0291
    1SOL     OW 7645   4.068   1.082   3.084 -0.2665 -0.4673 -0.1333
    1SOL    HW2 7646   4.065   1.090   3.180 -0.3759 -1.1992 -0.0671
    1SOL    HW3 7647   3.999   1.141   3.053 -0.4202 -0.4378  0.2545
    1SOL    MW4 7648   4.058   1.091   3.093 -0.3014 -0.5599 -0.0734
    1SOL     OW 7649   4.292   1.241   3.006  0.6273 -0.2306  0.1614
    1SOL    HW2 7650   4.226   1.173   3.019  0.7817 -0.0620  1.9165
    1SOL    HW3 7651   4.301   1.247   2.910 -1.1317 -0.9793 -0.0824
    1SOL    MW4 7652   4.284   1.233   2.995  0.4158 -0.3071  0.3607
    1SOL     OW 7653   4.273   1.485   3.161  0.1999  0.0679 -0.1948
    1SOL    HW2 7654   4.205   1.534   3.115  1.5169  0.5971 -1.6346
    1SOL    HW3 7655   4.275   1.400   3.117  1.6479  0.6689 -1.2952
    1SOL    MW4 7656   4.264   1.480   3.149  0.5651  0.2170 -0.5300
    1SOL     OW 7657   4.079   1.612   3.002 -0.5575 -0.1063 -0.0571
    1SOL    HW2 7658   4.077   1.702   3.037 -1.0096 -0.7769  1.6952
    1SOL    HW3 7659   4.001   1.571   3.039  0.3297 -1.5986  0.1855
    1SOL    MW4 7660   4.069   1.619   3.012 -0.4997 -0.3917  0.2060
    1SOL     OW 7661   4.072   1.884   3.125 -0.4725 -0.3219 -0.1539
    1SOL    HW2 7662   4.139   1.939   3.085 -1.3711  1.1334  0.2981
    1SOL    HW3 7663   3.993   1.939   3.125 -1.1157 -1.2213  1.2910
    1SOL    MW4 7664   4.070   1.899   3.120 -0.6762 -0.2486  0.0963
    1SOL     OW 7665   4.291   2.027   3.033 -0.1923 -0.1598 -0.5177
    1SOL    HW2 7666   4.290   2.119   3.061 -0.3905 -0.2956 -0.0700
    1SOL    HW3 7667   4.295   2.031   2.937  0.3760  0.3110 -0.4761
    1SOL    MW4 7668   4.291   2.040   3.024 -0.1435 -0.1156 -0.4530
    1SOL     OW 7669   4.291   2.293   3.108 -0.6256 -0.1084  0.1970
    1SOL    HW2 7670   4.207   2.320   3.070 -0.7828 -0.0747  0.5687
    1SOL    HW3 7671   4.356   2.347   3.062 -0.7749 -0.3568 -0.3145
    1SOL    MW4 7672   4.288   2.304   3.097 -0.6661 -0.1369  0.1786
    1SOL     OW 7673   4.043   2.399   3.033 -0.1291  0.3457  0.1467
    1SOL    HW2 7674   4.052   2.474   3.091  1.3547  0.5067 -0.2701
    1SOL    HW3 7675   3.970   2.349   3.069 -0.2023  1.2430  1.2568
    1SOL    MW4 7676   4.035   2.402   3.046  0.0572  0.4852  0.2384
    1SOL     OW 7677   4.061   2.672   3.158  0.8140  0.6270  0.3928
    1SOL    HW2 7678   4.054   2.665   3.253 -1.5208 -1.7992  0.0915
    1SOL    HW3 7679   3.991   2.732   3.133  0.8469  0.5461  0.1071
    1SOL    MW4 7680   4.051   2.679   3.167  0.5102  0.2961  0.3154
    1SOL     OW 7681   4.276   2.792   3.007  0.5018 -0.1944 -0.6726
    1SOL    HW2 7682   4.203   2.765   3.063 -0.7469  0.5504 -1.9052
    1SOL    HW3 7683   4.354   2.762   3.054 -0.5107  0.2189  1.3561
    1SOL    MW4 7684   4.276   2.785   3.021  0.2036 -0.0417 -0.5677
    1SOL     OW 7685   4.256   3.059   3.106  0.2085  0.5295 -0.4572
    1SOL    HW2 7686   4.191   3.118   3.068 -0.9389 -0.4807 -0.1031
    1SOL    HW3 7687   4.247   2.977   3.057 -0.2644 -0.3062  0.9717
    1SOL    MW4 7688   4.246   3.056   3.095 -0.0052  0.2859 -0.2224
    1SOL     OW 7689   4.067   3.213   3.021  0.0076 -0.3765  0.0398
    1SOL    HW2 7690   4.075   3.301   3.057  1.3627 -0.6447  0.4438
    1SOL    HW3 7691   4.057   3.226   2.927 -0.6437  0.2365  0.1923
    1SOL    MW4 7692   4.067   3.226   3.013  0.1006 -0.3312  0.1130
    1SOL     OW 7693   4.120   3.467   3.148  0.5200  0.5181  0.0428
    1SOL    HW2 7694   4.092   3.453   3.239 -1.2395 -1.2601 -0.7422
    1SOL    HW3 7695   4.047   3.512   3.107  0.6197 -0.2085 -0.9372
    1SOL    MW4 7696   4.107   3.471   3.155  0.3009  0.1876 -0.1900
    1SOL     OW 7697   4.322   3.597   3.044 -0.2170  0.3616 -0.8190
    1SOL    HW2 7698   4.302   3.680   3.088 -0.2306  0.1076 -0.3390
    1SOL    HW3 7699   4.256   3.536   3.078  1.6006 -0.5929  1.1042
    1SOL    MW4 7700   4.311   3.600   3.054  0.0210  0.2024 -0.5019
    1SOL     OW 7701   4.251   3.845   3.146  0.1844  0.4742  0.7167
    1SOL    HW2 7702   4.178   3.881   3.095  1.1323 -0.3739 -1.2850
    1SOL    HW3 7703   4.325   3.903   3.126  0.9681 -0.8263 -0.1786
    1SOL    MW4 7704   4.251   3.858   3.136  0.4129  0.1907  0.3345
    1SOL     OW 7705   4.065   3.984   3.005  0.2245 -0.1358  0.1331
    1SOL    HW2 7706   4.072   4.061   3.061  1.3172  0.6894 -1.1140
    1SOL    HW3 7707   3.993   3.933   3.043 -0.6027  1.5592  0.8927
    1SOL    MW4 7708   4.056   3.987   3.018  0.2594  0.1969  0.0687
    1SOL     OW 7709   4.062   4.226   3.157  0.2696  0.2241  0.6559
    1SOL    HW2 7710   4.074   4.216   3.252  0.6731 -0.7844  0.5031
    1SOL    HW3 7711   4.133   4.284   3.130  0.0451  0.6627  1.0013
    1SOL    MW4 7712   4.073   4.232   3.166  0.2928  0.1488  0.6812
    1SOL     OW 7713   4.268   4.375   3.062 -0.4554 -0.3705  0.0132
    1SOL    HW2 7714   4.358   4.344   3.059 -0.6562 -0.7812 -2.8511
    1SOL    HW3 7715   4.246   4.395   2.971 -3.3035 -0.4262  0.6343
    1SOL    MW4 7716   4.277   4.374   3.049 -0.8578 -0.4320 -0.2830
    1SOL     OW 7717   0.229   4.644   3.392 -0.1227 -0.6600 -0.0067
    1SOL    HW2 7718   0.288   4.713   3.424 -0.0397 -0.0204 -1.4684
    1SOL    HW3 7719   0.255   4.566   3.440  0.6204  0.0556  0.7806
    1SOL    MW4 7720   0.241   4.643   3.402 -0.0137 -0.4816 -0.0956
    1SOL     OW 7721   4.482   0.109   3.505 -0.3039 -0.2319 -0.1633
    1SOL    HW2 7722   4.483   0.197   3.467  0.2198 -0.6652 -1.1673
    1SOL    HW3 7723   4.561   0.067   3.470  0.7235 -0.3328  2.1591
    1SOL    MW4 7724   4.493   0.115   3.496 -0.0992 -0.3024  0.0105
    1SOL     OW 7725   0.010   0.365   3.415  0.7032  0.1207 -0.4064
    1SOL    HW2 7726  -0.072   0.402   3.449  0.6544  0.9304 -1.3820
    1SOL    HW3 7727   0.079   0.410   3.464  0.5507 -1.3428  1.1862
    1SOL    MW4 7728   0.008   0.376   3.426  0.6766  0.0345 -0.3252
    1SOL     OW 7729   0.239   0.524   3.510 -0.7839 -0.3889  0.2792
    1SOL    HW2 7730   0.322   0.487   3.480  0.9818  2.0621  1.9264
    1SOL    HW3 7731   0.230   0.605   3.460 -1.7304 -0.1762  0.7920
    1SOL    MW4 7732   0.249   0.530   3.499 -0.6758 -0.0375  0.5641
    1SOL     OW 7733   0.190   0.776   3.369  0.1006  0.1033 -0.4009
    1SOL    HW2 7734   0.254   0.839   3.403  0.6069  0.2059 -1.5141
    1SOL    HW3 7735   0.106   0.805   3.405  0.5462  0.5518  0.2722
    1SOL    MW4 7736   0.187   0.788   3.378  0.2262  0.1760 -0.4592
    1SOL     OW 7737   4.450   0.861   3.533  0.3169 -0.4652 -0.2639
    1SOL    HW2 7738   4.458   0.879   3.627 -0.6445  0.5720 -0.3666
    1SOL    HW3 7739   4.464   0.945   3.491  1.2561 -1.0269 -1.0967
    1SOL    MW4 7740   4.453   0.874   3.540  0.3138 -0.4025 -0.3874
    1SOL     OW 7741   0.011   1.077   3.369  0.2050 -0.1784  0.1769
    1SOL    HW2 7742   0.069   1.142   3.408  1.1087 -1.2154  0.6013
    1SOL    HW3 7743   0.012   1.096   3.275 -0.2820  0.9936  0.4054
    1SOL    MW4 7744   0.019   1.088   3.362  0.2599 -0.1607  0.2632
    1SOL     OW 7745   0.185   1.271   3.495 -0.1375  0.0628  0.2704
    1SOL    HW2 7746   0.263   1.224   3.464 -0.6842 -0.6791  0.0117
    1SOL    HW3 7747   0.199   1.362   3.467  0.6430 -0.0658  0.2438
    1SOL    MW4 7748   0.197   1.277   3.487 -0.1066 -0.0520  0.2327
    1SOL     OW 7749   0.252   1.518   3.377  0.0578 -0.0928  0.0011
    1SOL    HW2 7750   0.325   1.576   3.403  2.0777 -2.5114 -0.0816
    1SOL    HW3 7751   0.257   1.515   3.282 -1.1021  0.9162 -0.0935
    1SOL    MW4 7752   0.263   1.525   3.368  0.1713 -0.2787 -0.0224
    1SOL     OW 7753   0.036   1.640   3.545 -0.5591 -0.2070 -0.1223
    1SOL    HW2 7754  -0.035   1.586   3.510 -0.2336 -0.8951  0.2715
    1SOL    HW3 7755   0.115   1.607   3.501 -0.1673 -0.9875  1.1403
    1SOL    MW4 7756   0.037   1.628   3.534 -0.4645 -0.4008  0.0961
    1SOL     OW 7757   4.487   1.890   3.410  0.0378 -0.0381  0.2240
    1SOL    HW2 7758   4.496   1.810   3.461  2.5580  0.2476  0.2542
    1SOL    HW3 7759   4.503   1.864   3.320 -3.6729 -0.3932 -0.4067
    1SOL    MW4 7760   4.490   1.876   3.405 -0.1197 -0.0473  0.1450
    1SOL     OW 7761   0.223   2.023   3.463  0.5274  0.2362 -0.0804
    1SOL    HW2 7762   0.225   2.018   3.559 -0.4492  2.0445  0.0420
    1SOL    HW3 7763   0.140   1.980   3.439  1.1220 -0.8792 -0.1743
    1SOL    MW4 7764   0.212   2.016   3.473  0.4770  0.3273 -0.0765
    1SOL     OW 7765   0.230   2.283   3.375 -0.0747 -0.0272  0.3242
    1SOL    HW2 7766   0.169   2.316   3.442  0.6684  1.1772  0.4269
    1SOL    HW3 7767   0.234   2.189   3.391 -1.4920 -0.0534  0.6626
    1SOL    MW4 7768   0.222   2.275   3.386 -0.1637  0.1280  0.3824
    1SOL     OW 7769   0.048   2.401   3.525  0.4754 -0.0072  0.0973
    1SOL    HW2 7770   0.024   2.404   3.617  0.1518 -1.9856  0.0867
    1SOL    HW3 7771  -0.027   2.361   3.481  0.4395  1.3376 -1.1001
    1SOL    MW4 7772   0.035   2.396   3.531  0.4279 -0.0908 -0.0622
    1SOL     OW 7773   0.015   2.686   3.427 -0.0669 -0.2520  0.3411
    1SOL    HW2 7774   0.096   2.733   3.442  0.1585  0.5113 -2.7956
    1SOL    HW3 7775   0.029   2.599   3.464  1.5795  0.3884  1.2289
    1SOL    MW4 7776   0.027   2.680   3.434  0.1801 -0.0670  0.0441
    1SOL     OW 7777   0.242   2.837   3.532  0.6475 -0.0911  0.3169
    1SOL    HW2 7778   0.307   2.780   3.491 -0.8650 -0.2827 -1.8626
    1SOL    HW3 7779   0.249   2.920   3.485 -0.6314 -0.0948  0.0918
    1SOL    MW4 7780   0.251   2.841   3.521  0.2792 -0.1168 -0.0002
    1SOL     OW 7781   0.247   3.093   3.438  0.3873 -0.1214 -0.2879
    1SOL    HW2 7782   0.173   3.144   3.471  1.1461  1.0538 -0.3656
    1SOL    HW3 7783   0.231   3.087   3.344 -0.1646 -0.7937 -0.1515
    1SOL    MW4 7784   0.235   3.099   3.430  0.4146 -0.0551 -0.2799
    1SOL     OW 7785   0.008   3.230   3.568  0.2477 -0.5989  0.5227
    1SOL    HW2 7786  -0.052   3.178   3.514  0.7623 -0.6964  0.0411
    1SOL    HW3 7787   0.020   3.312   3.519 -1.0047  0.2211  1.5500
    1SOL    MW4 7788   0.002   3.234   3.554  0.1497 -0.5035  0.5951
    1SOL     OW 7789   0.030   3.441   3.393  0.1741  0.2202  0.2350
    1SOL    HW2 7790  -0.055   3.475   3.419 -0.9402 -3.3080  1.5349
    1SOL    HW3 7791   0.025   3.436   3.297 -1.3555 -0.5111  0.3285
    1SOL    MW4 7792   0.018   3.445   3.383 -0.1748 -0.3417  0.4184
    1SOL     OW 7793   0.225   3.598   3.498  0.3225 -0.4258 -0.0455
    1SOL    HW2 7794   0.208   3.606   3.592 -2.2696 -0.0402 -0.5215
    1SOL    HW3 7795   0.154   3.544   3.464  1.7700 -1.3805 -1.6479
    1SOL    MW4 7796   0.214   3.592   3.506  0.1715 -0.5009 -0.3197
    1SOL     OW 7797   0.244   3.847   3.382 -0.6208  0.3301  0.3301
    1SOL    HW2 7798   0.161   3.888   3.408 -0.8566 -0.3759  0.7081
    1SOL    HW3 7799   0.246   3.765   3.430 -0.8878 -0.8198 -1.5587
    1SOL    MW4 7800   0.233   3.842   3.392 -0.6871  0.0854  0.1307
    1SOL     OW 7801   0.004   3.971   3.485  0.1351  0.2874  0.0713
    1SOL    HW2 7802   0.001   3.977   3.581 -0.3820  1.5402 -0.0087
    1SOL    HW3 7803   0.030   4.058   3.457 -1.5432  0.4664 -0.9977
    1SOL    MW4 7804   0.007   3.983   3.494 -0.1545  0.4764 -0.0803
    1SOL     OW 7805   0.031   4.253   3.398  0.1182  0.5507  0.2852
    1SOL    HW2 7806  -0.043   4.297   3.439  0.0607  0.7451 -0.0202
    1SOL    HW3 7807   0.108   4.302   3.427  0.2264 -0.2941  1.4493
    1SOL    MW4 7808   0.031   4.265   3.407  0.1245  0.4644  0.3984
    1SOL     OW 7809   0.228   4.395   3.510  0.2798  0.0799  0.5307
    1SOL    HW2 7810   0.228   4.402   3.606  0.6708  0.0068  0.5365
    1SOL    HW3 7811   0.307   4.345   3.490  1.0055  1.4040  0.0746
    1SOL    MW4 7812   0.238   4.389   3.520  0.4271  0.2446  0.4714
    1SOL     OW 7813   0.649   4.658   3.427 -0.0895 -0.4571  0.1180
    1SOL    HW2 7814   0.727   4.702   3.461 -0.2718  0.0542 -0.1118
    1SOL    HW3 7815   0.667   4.645   3.334 -1.7417  2.9852 -0.7612
    1SOL    MW4 7816   0.662   4.662   3.419 -0.3316  0.0645 -0.0284
    1SOL     OW 7817   0.413   0.149   3.506 -0.2335  0.1713  0.4133
    1SOL    HW2 7818   0.409   0.142   3.601 -0.4304 -2.3919  0.2573
    1SOL    HW3 7819   0.498   0.112   3.483 -0.4340  0.2468 -0.4543
    1SOL    MW4 7820   0.424   0.143   3.516 -0.2860 -0.1570  0.2785
    1SOL     OW 7821   0.479   0.405   3.399  0.3239 -0.1120 -0.0591
    1SOL    HW2 7822   0.562   0.435   3.437  0.4711 -0.3213 -0.2091
    1SOL    HW3 7823   0.467   0.317   3.434  1.1228 -0.8129 -1.5036
    1SOL    MW4 7824   0.489   0.397   3.409  0.4487 -0.2321 -0.2694
    1SOL     OW 7825   0.698   0.534   3.518  0.1778 -0.5192 -0.0221
    1SOL    HW2 7826   0.687   0.524   3.613 -0.1080 -0.5023 -0.0525
    1SOL    HW3 7827   0.781   0.491   3.499 -0.1061 -1.1351  0.1295
    1SOL    MW4 7828   0.708   0.527   3.528  0.1027 -0.5981 -0.0062
    1SOL     OW 7829   0.645   0.800   3.416 -0.1821 -0.1362  0.3443
    1SOL    HW2 7830   0.554   0.823   3.437  0.0887 -0.8296  2.3700
    1SOL    HW3 7831   0.652   0.708   3.439  1.3572  0.2144  1.3434
    1SOL    MW4 7832   0.634   0.791   3.422  0.0567 -0.1814  0.7434
    1SOL     OW 7833   0.401   0.924   3.470  0.3755  0.0280 -0.1112
    1SOL    HW2 7834   0.400   0.924   3.565 -0.5921 -1.8568 -0.0951
    1SOL    HW3 7835   0.418   1.015   3.446  0.0196  0.6346  1.8557
    1SOL    MW4 7836   0.403   0.936   3.479  0.2008 -0.1407  0.1507
    1SOL     OW 7837   0.450   1.186   3.398  0.2808 -0.3466  0.5011
    1SOL    HW2 7838   0.540   1.196   3.429  0.1587  1.5620  0.2803
    1SOL    HW3 7839   0.458   1.171   3.304  0.2733  2.5742 -0.0023
    1SOL    MW4 7840   0.463   1.185   3.390  0.2636  0.2906  0.4058
    1SOL     OW 7841   0.690   1.255   3.510  0.4181  0.3998  0.3792
    1SOL    HW2 7842   0.765   1.231   3.457 -0.1732 -0.6298  0.0054
    1SOL    HW3 7843   0.673   1.347   3.487  0.5915  0.1666 -0.6938
    1SOL    MW4 7844   0.698   1.264   3.500  0.3630  0.2332  0.1884
    1SOL     OW 7845   0.681   1.508   3.413  0.2001  0.3568 -0.0154
    1SOL    HW2 7846   0.758   1.557   3.442  0.5695  0.8879 -1.8773
    1SOL    HW3 7847   0.607   1.561   3.445  0.6053  1.1771 -0.4040
    1SOL    MW4 7848   0.681   1.522   3.421  0.3024  0.5350 -0.3123
    1SOL     OW 7849   0.478   1.668   3.512 -0.0657  0.3923  0.3361
    1SOL    HW2 7850   0.490   1.675   3.607 -1.2866  1.7890  0.4102
    1SOL    HW3 7851   0.491   1.757   3.480 -0.8666  0.1535 -0.6648
    1SOL    MW4 7852   0.481   1.681   3.521 -0.3324  0.5451  0.2141
    1SOL     OW 7853   0.473   1.927   3.406  0.2391 -0.3380  0.0490
    1SOL    HW2 7854   0.385   1.950   3.435  0.5170  1.1187 -0.2154
    1SOL    HW3 7855   0.466   1.923   3.310  0.2859 -1.0309  0.0678
    1SOL    MW4 7856   0.460   1.929   3.397  0.2820 -0.2372  0.0167
    1SOL     OW 7857   0.683   2.082   3.512 -0.2921  0.1679 -0.3725
    1SOL    HW2 7858   0.664   2.105   3.603 -1.6582  1.1405 -0.8806
    1SOL    HW3 7859   0.603   2.037   3.483  0.4739 -0.9008 -0.8429
    1SOL    MW4 7860   0.670   2.079   3.520 -0.3713  0.1550 -0.5019
    1SOL     OW 7861   0.681   2.352   3.396  0.0868 -0.1305  0.0887
    1SOL    HW2 7862   0.766   2.374   3.435  0.3846 -2.6059  0.9345
    1SOL    HW3 7863   0.669   2.259   3.416 -2.3612 -0.0651 -0.9090
    1SOL    MW4 7864   0.691   2.342   3.404 -0.1969 -0.4485  0.0687
    1SOL     OW 7865   0.458   2.461   3.488  0.3587 -0.1122 -0.1039
    1SOL    HW2 7866   0.534   2.403   3.478 -0.1559 -0.6258 -1.1259
    1SOL    HW3 7867   0.384   2.408   3.457 -0.0308  1.3042 -1.6472
    1SOL    MW4 7868   0.458   2.446   3.482  0.2394  0.0069 -0.4425
    1SOL     OW 7869   0.421   2.702   3.388 -0.5432  0.1427  0.4579
    1SOL    HW2 7870   0.447   2.613   3.412 -1.9462 -0.1178  1.0661
    1SOL    HW3 7871   0.431   2.706   3.293 -0.8603 -0.7878  0.3836
    1SOL    MW4 7872   0.426   2.691   3.379 -0.7702 -0.0145  0.5281
    1SOL     OW 7873   0.642   2.844   3.469  0.0100 -0.4820  0.5379
    1SOL    HW2 7874   0.719   2.806   3.428 -0.2240  0.5823 -0.9198
    1SOL    HW3 7875   0.570   2.785   3.444  0.3156 -1.4263  1.8255
    1SOL    MW4 7876   0.642   2.831   3.460  0.0194 -0.4663  0.5152
    1SOL     OW 7877   0.698   3.112   3.396 -0.2198 -0.2485 -0.0996
    1SOL    HW2 7878   0.631   3.162   3.444  1.1881  0.8828  0.7143
    1SOL    HW3 7879   0.674   3.021   3.410 -0.9040  0.1137  1.2046
    1SOL    MW4 7880   0.686   3.107   3.404 -0.1243 -0.0513  0.1800
    1SOL     OW 7881   0.461   3.238   3.537  0.0293  0.1663 -0.3169
    1SOL    HW2 7882   0.449   3.230   3.632 -1.2645  1.3163 -0.3624
    1SOL    HW3 7883   0.404   3.171   3.500  0.0684  0.1193 -0.2907
    1SOL    MW4 7884   0.452   3.228   3.545 -0.1362  0.3121 -0.3195
    1SOL     OW 7885   0.454   3.503   3.430 -0.2353  0.2513  0.1322
    1SOL    HW2 7886   0.458   3.415   3.469 -0.9390 -0.1280 -0.6323
    1SOL    HW3 7887   0.373   3.541   3.464  0.3898  0.8516  0.9621
    1SOL    MW4 7888   0.444   3.496   3.440 -0.2456  0.2804  0.1407
    1SOL     OW 7889   0.671   3.632   3.523  0.5184  0.2076 -0.3535
    1SOL    HW2 7890   0.742   3.578   3.489 -0.1302 -0.5932 -0.4582
    1SOL    HW3 7891   0.591   3.587   3.493 -0.0616 -0.2830  1.8884
    1SOL    MW4 7892   0.669   3.619   3.514  0.3563  0.0370 -0.0715
    1SOL     OW 7893   0.657   3.865   3.388 -0.0824  0.1007 -1.0015
    1SOL    HW2 7894   0.590   3.924   3.422 -0.4385  0.5349 -2.4159
    1SOL    HW3 7895   0.647   3.785   3.439  0.6237  1.3380  1.1886
    1SOL    MW4 7896   0.647   3.863   3.399 -0.0362  0.3211 -0.8991
    1SOL     OW 7897   0.437   4.005   3.510 -0.1227 -0.5316 -0.3174
    1SOL    HW2 7898   0.436   4.094   3.476 -0.7032 -1.1674 -1.9991
    1SOL    HW3 7899   0.373   3.958   3.458 -0.0774 -1.8651  0.7917
    1SOL    MW4 7900   0.429   4.010   3.499 -0.1933 -0.7911 -0.3932
    1SOL     OW 7901   0.445   4.251   3.412  0.0684  0.0807  0.3015
    1SOL    HW2 7902   0.518   4.299   3.453 -0.1483  0.2986  0.4312
    1SOL    HW3 7903   0.471   4.242   3.320 -0.2303  1.0940  0.1161
    1SOL    MW4 7904   0.458   4.256   3.406  0.0004  0.2437  0.2944
    1SOL     OW 7905   0.635   4.403   3.551 -0.2206  0.0309 -0.1153
    1SOL    HW2 7906   0.719   4.360   3.535  0.3559  1.4092 -0.8838
    1SOL    HW3 7907   0.643   4.488   3.508 -1.5457  0.6850  0.8839
    1SOL    MW4 7908   0.647   4.409   3.543 -0.3194  0.2990 -0.0849
    1SOL     OW 7909   1.097   4.652   3.387 -0.0098  0.4993 -0.3813
    1SOL    HW2 7910   1.188   4.671   3.409 -0.1557 -0.4050  1.0573
    1SOL    HW3 7911   1.093   4.662   3.292  1.1388  2.4331 -0.2608
    1SOL    MW4 7912   1.109   4.656   3.377  0.1225  0.6351 -0.1757
    1SOL     OW 7913   0.865   0.108   3.519 -0.2218 -0.1342 -0.8115
    1SOL    HW2 7914   0.869   0.118   3.614 -0.0969  0.8560 -0.9221
    1SOL    HW3 7915   0.944   0.057   3.497 -0.6112 -0.9574 -0.3128
    1SOL    MW4 7916   0.876   0.102   3.528 -0.2567 -0.1122 -0.7603
    1SOL     OW 7917   0.893   0.369   3.414 -0.1871  0.0135 -1.3270
    1SOL    HW2 7918   0.987   0.384   3.426 -0.5605  0.6143  0.9810
    1SOL    HW3 7919   0.876   0.285   3.457 -1.2124  1.3327  0.9590
    1SOL    MW4 7920   0.903   0.360   3.421 -0.3717  0.2668 -0.7207
    1SOL     OW 7921   1.134   0.460   3.491 -0.2110 -0.2074  0.0900
    1SOL    HW2 7922   1.135   0.453   3.586 -0.6213 -0.9875  0.0452
    1SOL    HW3 7923   1.132   0.554   3.473 -1.1271 -0.0763  0.8663
    1SOL    MW4 7924   1.134   0.472   3.501 -0.3860 -0.2930  0.1867
    1SOL     OW 7925   1.115   0.730   3.413  0.0801  0.0460 -0.1038
    1SOL    HW2 7926   1.188   0.788   3.436 -0.4835  1.1956 -1.1328
    1SOL    HW3 7927   1.037   0.778   3.442 -0.2442 -1.5924  1.8586
    1SOL    MW4 7928   1.114   0.744   3.420 -0.0371 -0.0185  0.0193
    1SOL     OW 7929   0.904   0.886   3.498  0.2424  0.5295 -0.0077
    1SOL    HW2 7930   0.893   0.960   3.438 -0.1151  0.7139  0.2884
    1SOL    HW3 7931   0.824   0.835   3.489  1.0149 -0.5243 -1.1734
    1SOL    MW4 7932   0.892   0.889   3.489  0.2971  0.4148 -0.1225
    1SOL     OW 7933   0.874   1.135   3.335 -0.2472 -0.2925 -0.3265
    1SOL    HW2 7934   0.967   1.152   3.353 -0.3973 -0.5620  0.7442
    1SOL    HW3 7935   0.865   1.148   3.240  0.9387 -0.5416 -0.4803
    1SOL    MW4 7936   0.885   1.139   3.325 -0.1106 -0.3610 -0.2053
    1SOL     OW 7937   1.101   1.264   3.475  0.0428  0.3053 -0.1182
    1SOL    HW2 7938   1.114   1.277   3.569 -2.4602  0.2829  0.2697
    1SOL    HW3 7939   1.104   1.352   3.438  1.4763  0.2765 -0.1078
    1SOL    MW4 7940   1.103   1.277   3.483 -0.0982  0.2985 -0.0656
    1SOL     OW 7941   1.110   1.531   3.388  0.2677 -0.1375  0.1045
    1SOL    HW2 7942   1.194   1.574   3.405 -0.5358  1.1087  1.0005
    1SOL    HW3 7943   1.102   1.531   3.293  1.2840 -0.2683  0.0113
    1SOL    MW4 7944   1.120   1.537   3.378  0.2956  0.0097  0.2103
    1SOL     OW 7945   0.899   1.672   3.488 -0.1665 -0.1365  0.0531
    1SOL    HW2 7946   0.924   1.763   3.473  0.1066 -0.2131  0.0311
    1SOL    HW3 7947   0.975   1.621   3.458  0.3267 -0.3004  1.5219
    1SOL    MW4 7948   0.912   1.677   3.482 -0.0654 -0.1682  0.2439
    1SOL     OW 7949   0.924   1.965   3.429  0.1078  0.0076 -0.5901
    1SOL    HW2 7950   0.991   1.987   3.494 -0.1290 -0.0083 -0.3393
    1SOL    HW3 7951   0.845   2.007   3.462 -0.6909 -2.3978  0.6242
    1SOL    MW4 7952   0.923   1.974   3.442 -0.0288 -0.3117 -0.3967
    1SOL     OW 7953   1.156   2.043   3.552 -0.5356 -0.0022 -0.0167
    1SOL    HW2 7954   1.232   2.004   3.508  0.2417 -1.1617  2.2891
    1SOL    HW3 7955   1.137   2.122   3.501  1.3265 -0.4400 -1.4509
    1SOL    MW4 7956   1.163   2.048   3.539 -0.1873 -0.2129  0.0985
    1SOL     OW 7957   1.109   2.283   3.424 -0.4117  0.5996 -0.0691
    1SOL    HW2 7958   1.192   2.329   3.435  1.0794 -2.3498  1.5422
    1SOL    HW3 7959   1.098   2.275   3.329  1.0518  1.1191 -0.2941
    1SOL    MW4 7960   1.119   2.288   3.413 -0.0218  0.2792  0.1137
    1SOL     OW 7961   0.899   2.448   3.529  0.0811 -0.1538 -0.3742
    1SOL    HW2 7962   0.894   2.460   3.623 -2.7729  1.0977 -0.6585
    1SOL    HW3 7963   0.979   2.395   3.516  0.1889 -0.8356  2.7344
    1SOL    MW4 7964   0.909   2.443   3.539 -0.2812 -0.0784 -0.0017
    1SOL     OW 7965   0.876   2.693   3.369  0.3917  0.5434  0.4248
    1SOL    HW2 7966   0.946   2.747   3.406  0.4545  0.1179  0.9409
    1SOL    HW3 7967   0.873   2.615   3.426 -0.7934  0.7615  0.6833
    1SOL    MW4 7968   0.884   2.690   3.381  0.2436  0.5162  0.5271
    1SOL     OW 7969   1.085   2.827   3.487  0.0986 -0.0531  0.0929
    1SOL    HW2 7970   1.085   2.833   3.583  1.7761 -0.9705  0.1711
    1SOL    HW3 7971   1.156   2.766   3.467 -0.8216 -0.5649 -1.7038
    1SOL    MW4 7972   1.095   2.820   3.497  0.1985 -0.2415 -0.1338
    1SOL     OW 7973   1.124   3.087   3.410  0.4785  1.0476  0.1148
    1SOL    HW2 7974   1.111   2.998   3.444  0.3370  1.3668  0.9259
    1SOL    HW3 7975   1.132   3.076   3.316 -1.4150  0.3594  0.0062
    1SOL    MW4 7976   1.123   3.074   3.402  0.2100  0.9987  0.2077
    1SOL     OW 7977   0.900   3.222   3.517 -0.0432  0.3060 -0.7294
    1SOL    HW2 7978   0.968   3.176   3.467  0.2141  0.8438 -0.8769
    1SOL    HW3 7979   0.818   3.179   3.491  0.3844 -1.3848  0.6148
    1SOL    MW4 7980   0.898   3.210   3.507  0.0471  0.1538 -0.5715
    1SOL     OW 7981   0.874   3.481   3.418  0.1863  0.4129  0.2808
    1SOL    HW2 7982   0.881   3.394   3.459  1.3756  0.3126 -0.0942
    1SOL    HW3 7983   0.860   3.463   3.326 -0.5126  0.6280  0.3452
    1SOL    MW4 7984   0.873   3.467   3.411  0.2510  0.4277  0.2401
    1SOL     OW 7985   1.112   3.599   3.562 -0.3510 -0.5999 -0.5397
    1SOL    HW2 7986   1.093   3.566   3.649 -1.3172 -0.5904 -0.7433
    1SOL    HW3 7987   1.040   3.566   3.507  0.2573 -0.6360 -1.3361
    1SOL    MW4 7988   1.100   3.590   3.566 -0.3982 -0.6037 -0.6714
    1SOL     OW 7989   1.123   3.865   3.474  0.3903 -0.4023  0.2181
    1SOL    HW2 7990   1.208   3.909   3.483  0.3152 -0.4169  1.0387
    1SOL    HW3 7991   1.137   3.779   3.513 -0.2056 -0.1389  1.0252
    1SOL    MW4 7992   1.136   3.859   3.480  0.3017 -0.3695  0.4327
    1SOL     OW 7993   0.873   3.999   3.486  0.2446  0.3459 -0.1286
    1SOL    HW2 7994   0.960   3.961   3.474 -0.1905  0.1916 -3.2893
    1SOL    HW3 7995   0.814   3.938   3.443 -1.0532  2.0502 -0.8308
    1SOL    MW4 7996   0.877   3.986   3.479  0.0160  0.5505 -0.6382
    1SOL     OW 7997   0.859   4.272   3.460 -0.2111  0.1940  0.2077
    1SOL    HW2 7998   0.838   4.181   3.480  2.7237 -0.3111  1.2561
    1SOL    HW3 7999   0.880   4.271   3.366 -1.1426  0.0056 -0.0075
    1SOL    MW4 8000   0.859   4.260   3.450  0.0532  0.1025  0.3176
    1SOL     OW 8001   1.106   4.414   3.517  0.3706 -0.1427 -0.6229
    1SOL    HW2 8002   1.015   4.388   3.499 -0.2980  1.2371  0.6626
    1SOL    HW3 8003   1.117   4.497   3.471  0.5755  0.3295  0.2672
    1SOL    MW4 8004   1.095   4.422   3.509  0.3096  0.1016 -0.3359
    1SOL     OW 8005   1.588   4.647   3.368 -0.0719 -0.0098  0.0236
    1SOL    HW2 8006   1.593   4.576   3.431  0.5666 -0.7336 -0.8101
    1SOL    HW3 8007   1.510   4.696   3.391 -0.2198 -0.6726  0.9358
    1SOL    MW4 8008   1.579   4.644   3.379 -0.0072 -0.1926  0.0341
    1SOL     OW 8009   1.353   0.100   3.473 -0.5846 -0.6717 -0.0350
    1SOL    HW2 8010   1.355   0.116   3.567 -0.5765 -1.7306  0.1543
    1SOL    HW3 8011   1.350   0.187   3.433  2.1141 -0.1448  0.8562
    1SOL    MW4 8012   1.353   0.113   3.480 -0.2276 -0.7419  0.1075
    1SOL     OW 8013   1.366   0.365   3.381  0.0846  0.0248  0.1646
    1SOL    HW2 8014   1.441   0.402   3.428 -0.8743  0.6075  1.2594
    1SOL    HW3 8015   1.290   0.409   3.419 -0.9879 -2.1157  0.5712
    1SOL    MW4 8016   1.366   0.376   3.392 -0.1833 -0.1807  0.3629
    1SOL     OW 8017   1.585   0.483   3.492 -0.2083  0.4240  0.3176
    1SOL    HW2 8018   1.585   0.494   3.587 -0.2528  0.4744  0.3120
    1SOL    HW3 8019   1.670   0.444   3.472 -0.4977 -0.2892  0.4597
    1SOL    MW4 8020   1.596   0.479   3.502 -0.2524  0.3366  0.3357
    1SOL     OW 8021   1.596   0.749   3.401 -0.5799 -0.6115 -0.7072
    1SOL    HW2 8022   1.518   0.793   3.435 -0.6717 -0.6202 -0.9070
    1SOL    HW3 8023   1.591   0.661   3.437 -0.1919 -0.3436  0.0136
    1SOL    MW4 8024   1.585   0.743   3.410 -0.5409 -0.5773 -0.6380
    1SOL     OW 8025   1.349   0.867   3.495  0.1289 -0.2987 -0.0734
    1SOL    HW2 8026   1.362   0.869   3.590  2.3366  1.6972 -0.3719
    1SOL    HW3 8027   1.341   0.959   3.470 -0.2418 -0.7838 -1.8506
    1SOL    MW4 8028   1.350   0.880   3.504  0.3712 -0.0993 -0.3471
    1SOL     OW 8029   1.337   1.145   3.397  0.1805 -0.4718  0.0117
    1SOL    HW2 8030   1.404   1.192   3.448 -0.0877 -0.5266  0.4169
    1SOL    HW3 8031   1.255   1.187   3.423  0.0136 -0.7015 -0.1550
    1SOL    MW4 8032   1.335   1.157   3.408  0.1231 -0.5095  0.0429
    1SOL     OW 8033   1.554   1.270   3.503 -0.0201  0.1157  0.0875
    1SOL    HW2 8034   1.561   1.298   3.594  0.0176  1.9906 -0.4849
    1SOL    HW3 8035   1.640   1.234   3.482  0.0769  0.0014  0.6791
    1SOL    MW4 8036   1.566   1.269   3.512 -0.0024  0.3481  0.0901
    1SOL     OW 8037   1.580   1.533   3.396  0.1060 -0.0616  0.0664
    1SOL    HW2 8038   1.570   1.444   3.429 -2.4478 -0.0796 -0.6334
    1SOL    HW3 8039   1.569   1.524   3.301  1.5378  0.7830 -0.1951
    1SOL    MW4 8040   1.577   1.520   3.388 -0.0421  0.0474 -0.0603
    1SOL     OW 8041   1.356   1.659   3.450  0.2790 -0.0824  0.0503
    1SOL    HW2 8042   1.344   1.662   3.545  0.0748 -1.0646  0.0561
    1SOL    HW3 8043   1.431   1.603   3.436  0.3621  0.1284 -0.3697
    1SOL    MW4 8044   1.364   1.652   3.461  0.2631 -0.1841 -0.0045
    1SOL     OW 8045   1.346   1.930   3.383  0.1243  0.1084 -0.5501
    1SOL    HW2 8046   1.426   1.958   3.429  0.6863 -0.5392 -1.1197
    1SOL    HW3 8047   1.341   1.836   3.399 -0.2779  0.0703 -0.9082
    1SOL    MW4 8048   1.356   1.921   3.391  0.1454  0.0179 -0.6723
    1SOL     OW 8049   1.541   2.047   3.525  0.1209  0.0803  0.2265
    1SOL    HW2 8050   1.618   1.994   3.505  0.4320  0.0720  1.3725
    1SOL    HW3 8051   1.563   2.135   3.493  0.0454 -0.2339 -0.6905
    1SOL    MW4 8052   1.555   2.052   3.518  0.1520  0.0379  0.2568
    1SOL     OW 8053   1.566   2.290   3.410 -0.3852  0.3600  0.1988
    1SOL    HW2 8054   1.491   2.346   3.430 -1.4250 -0.5941 -0.9792
    1SOL    HW3 8055   1.571   2.289   3.315  1.6664  1.0986  0.2764
    1SOL    MW4 8056   1.557   2.297   3.400 -0.2518  0.3316  0.0534
    1SOL     OW 8057   1.346   2.430   3.495 -0.1033 -0.4337  0.3630
    1SOL    HW2 8058   1.325   2.429   3.589  1.9272  0.1539  0.8400
    1SOL    HW3 8059   1.335   2.521   3.469  1.2650 -0.2256  0.4914
    1SOL    MW4 8060   1.342   2.442   3.504  0.3450 -0.3285  0.4430
    1SOL     OW 8061   1.304   2.696   3.389  0.0679 -0.6564 -0.0193
    1SOL    HW2 8062   1.371   2.755   3.424 -1.0021  0.4926  0.1223
    1SOL    HW3 8063   1.320   2.696   3.294  0.7019 -0.9506  0.0808
    1SOL    MW4 8064   1.315   2.704   3.381  0.0103 -0.5436  0.0126
    1SOL     OW 8065   1.537   2.825   3.479  0.1243 -0.3010 -0.1329
    1SOL    HW2 8066   1.621   2.788   3.451  0.9282  0.9015  0.6269
    1SOL    HW3 8067   1.551   2.920   3.478 -1.9290  0.0050 -2.1117
    1SOL    MW4 8068   1.550   2.833   3.475 -0.0405 -0.1020 -0.2937
    1SOL     OW 8069   1.546   3.094   3.424 -0.3368 -0.1527 -0.3041
    1SOL    HW2 8070   1.622   3.144   3.454 -0.7109  0.6843 -0.7393
    1SOL    HW3 8071   1.471   3.149   3.445 -0.7710 -0.6217 -0.6084
    1SOL    MW4 8072   1.547   3.107   3.431 -0.4435 -0.1042 -0.4015
    1SOL     OW 8073   1.326   3.255   3.467  0.1392  0.1599 -0.6070
    1SOL    HW2 8074   1.316   3.258   3.563  0.5057  1.9814 -0.6037
    1SOL    HW3 8075   1.258   3.194   3.438 -1.2023  1.0167  0.6508
    1SOL    MW4 8076   1.316   3.247   3.476  0.0105  0.5133 -0.4406
    1SOL     OW 8077   1.323   3.511   3.386 -0.0085  0.2564  0.0736
    1SOL    HW2 8078   1.328   3.420   3.415 -1.6554  0.1450  0.0619
    1SOL    HW3 8079   1.255   3.550   3.442 -0.4039  1.0638 -0.9560
    1SOL    MW4 8080   1.314   3.504   3.398 -0.2779  0.3481 -0.0639
    1SOL     OW 8081   1.563   3.626   3.492 -0.4013 -0.9409 -0.1836
    1SOL    HW2 8082   1.560   3.639   3.587 -1.8680  0.7247 -0.4331
    1SOL    HW3 8083   1.476   3.592   3.471 -0.7672  0.5730 -1.1749
    1SOL    MW4 8084   1.551   3.623   3.502 -0.6430 -0.5212 -0.3471
    1SOL     OW 8085   1.536   3.894   3.395 -0.7846 -0.0191 -0.0778
    1SOL    HW2 8086   1.543   3.805   3.429  0.2469  0.5836  1.3586
    1SOL    HW3 8087   1.553   3.886   3.301  3.1361 -0.8404  0.6340
    1SOL    MW4 8088   1.539   3.882   3.387 -0.1312 -0.0477  0.2055
    1SOL     OW 8089   1.341   4.012   3.536  0.0250  0.3195  0.0656
    1SOL    HW2 8090   1.336   4.104   3.509  1.2041  0.2051 -0.5486
    1SOL    HW3 8091   1.410   3.974   3.482 -0.1711 -0.8367  0.6025
    1SOL    MW4 8092   1.349   4.019   3.525  0.1547  0.1516  0.0553
    1SOL     OW 8093   1.360   4.265   3.393  0.1750  0.2990 -0.2304
    1SOL    HW2 8094   1.277   4.310   3.413 -0.1334 -0.4195  0.1099
    1SOL    HW3 8095   1.355   4.246   3.300 -0.6009 -0.8661  0.0383
    1SOL    MW4 8096   1.348   4.269   3.383  0.0319  0.0501 -0.1500
    1SOL     OW 8097   1.557   4.407   3.504 -0.3526  0.2748  0.0496
    1SOL    HW2 8098   1.634   4.364   3.469 -0.8810 -0.4024 -0.3066
    1SOL    HW3 8099   1.484   4.352   3.474 -0.8549 -0.0120  1.7216
    1SOL    MW4 8100   1.557   4.394   3.496 -0.4886  0.1473  0.2234
    1SOL     OW 8101   2.014   4.627   3.406 -0.4335  0.0761  0.3475
    1SOL    HW2 8102   2.087   4.679   3.439 -1.1675  1.5898 -0.3824
    1SOL    HW3 8103   1.936   4.672   3.438 -1.0817 -0.4125 -0.5294
    1SOL    MW4 8104   2.014   4.640   3.415 -0.6158  0.2117  0.1357
    1SOL     OW 8105   1.805   0.101   3.482  0.3699 -0.2342  0.2156
    1SOL    HW2 8106   1.786   0.082   3.574  2.6789 -0.7747  0.6135
    1SOL    HW3 8107   1.739   0.051   3.433 -0.6022 -0.2922  1.5459
    1SOL    MW4 8108   1.794   0.092   3.488  0.5463 -0.3131  0.4437
    1SOL     OW 8109   1.829   0.361   3.405 -0.1025 -0.0401 -0.0832
    1SOL    HW2 8110   1.808   0.270   3.423  0.3022 -0.0564  0.3120
    1SOL    HW3 8111   1.845   0.363   3.310 -0.6212 -0.2757 -0.1750
    1SOL    MW4 8112   1.828   0.349   3.395 -0.1174 -0.0734 -0.0432
    1SOL     OW 8113   2.034   0.493   3.552  0.1310  0.3117  0.0071
    1SOL    HW2 8114   2.030   0.584   3.524  0.5815  0.7380  1.2943
    1SOL    HW3 8115   1.967   0.449   3.501  0.4779  1.1969 -1.2326
    1SOL    MW4 8116   2.025   0.499   3.542  0.2360  0.4847  0.0136
    1SOL     OW 8117   2.030   0.763   3.433  0.2632  0.3365 -0.6962
    1SOL    HW2 8118   2.094   0.821   3.476 -1.2729  2.5676 -1.3200
    1SOL    HW3 8119   2.058   0.761   3.341  0.9944 -0.8823 -0.4540
    1SOL    MW4 8120   2.042   0.771   3.426  0.1569  0.4700 -0.7465
    1SOL     OW 8121   1.808   0.887   3.541  0.6296  0.1523 -0.2430
    1SOL    HW2 8122   1.885   0.847   3.501  1.1452  0.4195  0.4667
    1SOL    HW3 8123   1.733   0.847   3.496  1.2084  1.1144 -2.0791
    1SOL    MW4 8124   1.808   0.876   3.530  0.7739  0.3145 -0.3917
    1SOL     OW 8125   1.807   1.149   3.418  0.2615  0.1255 -0.0188
    1SOL    HW2 8126   1.879   1.199   3.458 -0.2334 -0.7739  2.0815
    1SOL    HW3 8127   1.812   1.063   3.460 -1.4384 -0.2532 -0.5613
    1SOL    MW4 8128   1.817   1.144   3.429 -0.0281 -0.0432  0.1867
    1SOL     OW 8129   2.031   1.299   3.486 -0.4406 -0.3567  0.0324
    1SOL    HW2 8130   2.050   1.290   3.579  0.7412  0.1930 -0.1535
    1SOL    HW3 8131   2.020   1.393   3.473 -0.9008 -0.4578 -0.3374
    1SOL    MW4 8132   2.032   1.310   3.497 -0.3455 -0.2974 -0.0410
    1SOL     OW 8133   2.028   1.563   3.409 -0.2437  0.0802 -0.1847
    1SOL    HW2 8134   2.101   1.604   3.455 -0.1100  1.3852 -1.5337
    1SOL    HW3 8135   1.950   1.597   3.454 -0.0417 -1.1962  1.1549
    1SOL    MW4 8136   2.027   1.573   3.421 -0.1996  0.0838 -0.1857
    1SOL     OW 8137   1.797   1.649   3.532  0.0071 -0.3645  0.4063
    1SOL    HW2 8138   1.802   1.742   3.512  0.5875 -0.5350 -0.2841
    1SOL    HW3 8139   1.723   1.617   3.480  1.2119 -0.7133 -1.1413
    1SOL    MW4 8140   1.788   1.657   3.522  0.2426 -0.4330  0.1111
    1SOL     OW 8141   1.784   1.914   3.433 -0.1912 -0.0730  0.1273
    1SOL    HW2 8142   1.867   1.945   3.469 -0.7433  0.3785  1.0393
    1SOL    HW3 8143   1.800   1.903   3.339  1.0566 -0.5371  0.3885
    1SOL    MW4 8144   1.797   1.916   3.425 -0.0994 -0.0745  0.2823
    1SOL     OW 8145   1.995   2.034   3.526 -0.1360  0.1788  0.1763
    1SOL    HW2 8146   2.084   2.012   3.499  0.1788 -0.6166  1.8182
    1SOL    HW3 8147   1.983   2.125   3.498  1.7402  0.8013  1.3327
    1SOL    MW4 8148   2.005   2.043   3.518  0.1528  0.1559  0.5457
    1SOL     OW 8149   2.002   2.308   3.449 -0.4113 -0.3172 -0.2160
    1SOL    HW2 8150   2.080   2.347   3.488 -1.0412 -0.9107  1.6890
    1SOL    HW3 8151   2.016   2.315   3.354  1.9016 -0.3458  0.1108
    1SOL    MW4 8152   2.014   2.314   3.441 -0.1893 -0.3994  0.0782
    1SOL     OW 8153   1.769   2.454   3.501 -0.1891 -0.3600  0.3233
    1SOL    HW2 8154   1.854   2.422   3.469 -0.4469  0.2725 -1.0184
    1SOL    HW3 8155   1.705   2.397   3.460 -0.5240  0.4264 -0.2447
    1SOL    MW4 8156   1.772   2.443   3.492 -0.2673 -0.1729  0.0715
    1SOL     OW 8157   1.813   2.721   3.400 -0.2741 -0.0965  0.2478
    1SOL    HW2 8158   1.887   2.738   3.457 -0.7820 -1.9243  1.5316
    1SOL    HW3 8159   1.793   2.628   3.414 -1.5015 -0.1525 -1.6165
    1SOL    MW4 8160   1.820   2.711   3.409 -0.5031 -0.3450  0.1712
    1SOL     OW 8161   2.074   2.777   3.515  0.1521  0.1208 -0.1506
    1SOL    HW2 8162   2.068   2.792   3.609 -0.1260 -0.5147 -0.0702
    1SOL    HW3 8163   2.072   2.865   3.477 -0.1329  0.3573  0.4082
    1SOL    MW4 8164   2.073   2.791   3.522  0.0780  0.0679 -0.0663
    1SOL     OW 8165   1.994   3.064   3.421 -0.6993 -0.1918 -0.1116
    1SOL    HW2 8166   2.062   3.122   3.455 -0.8556 -0.6441  1.0083
    1SOL    HW3 8167   1.917   3.084   3.474 -1.1033 -0.5346 -0.5614
    1SOL    MW4 8168   1.992   3.074   3.432 -0.7733 -0.2966 -0.0234
    1SOL     OW 8169   1.772   3.227   3.553 -0.0890 -0.1224 -0.3114
    1SOL    HW2 8170   1.752   3.239   3.646 -2.1361  0.0027 -0.7449
    1SOL    HW3 8171   1.795   3.314   3.522 -1.5706  0.2614 -0.3934
    1SOL    MW4 8172   1.772   3.240   3.562 -0.5546 -0.0556 -0.3796
    1SOL     OW 8173   1.787   3.471   3.437 -0.0388  0.0919  0.6690
    1SOL    HW2 8174   1.705   3.513   3.464  0.3124  1.7288 -0.7079
    1SOL    HW3 8175   1.791   3.485   3.342  1.5362 -0.5015  0.6385
    1SOL    MW4 8176   1.777   3.478   3.428  0.2153  0.2296  0.4833
    1SOL     OW 8177   2.023   3.630   3.494  0.0223  0.4085 -0.2276
    1SOL    HW2 8178   2.088   3.570   3.456 -0.6642  0.1898 -1.0755
    1SOL    HW3 8179   1.940   3.585   3.481 -0.1911  0.1482  1.9097
    1SOL    MW4 8180   2.021   3.616   3.487 -0.0966  0.3452 -0.0575
    1SOL     OW 8181   2.027   3.894   3.397  0.1443  0.0155 -0.1999
    1SOL    HW2 8182   1.946   3.938   3.423  0.9837  0.8713  1.0292
    1SOL    HW3 8183   2.013   3.802   3.419 -1.5278 -0.3147 -2.5407
    1SOL    MW4 8184   2.015   3.887   3.403  0.0343  0.0849 -0.3467
    1SOL     OW 8185   1.771   4.002   3.489 -0.2190  0.1026  0.2496
    1SOL    HW2 8186   1.763   4.003   3.584  0.1600 -0.7121  0.2946
    1SOL    HW3 8187   1.688   3.964   3.458  0.3590 -1.2977  0.3533
    1SOL    MW4 8188   1.759   3.997   3.497 -0.0926 -0.1893  0.2692
    1SOL     OW 8189   1.770   4.274   3.405  0.2824 -0.3000  0.0901
    1SOL    HW2 8190   1.771   4.186   3.442 -0.2213 -0.4334 -0.2035
    1SOL    HW3 8191   1.800   4.264   3.315  0.3856 -0.1508  0.1076
    1SOL    MW4 8192   1.774   4.261   3.398  0.2296 -0.2980  0.0536
    1SOL     OW 8193   2.009   4.352   3.515 -0.3149  0.4349 -0.0716
    1SOL    HW2 8194   1.934   4.310   3.473 -0.1141  0.4965 -0.4833
    1SOL    HW3 8195   2.005   4.443   3.488 -0.9825  0.7886  1.1457
    1SOL    MW4 8196   1.998   4.358   3.506 -0.3765  0.4892  0.0346
    1SOL     OW 8197   2.420   4.624   3.416 -0.4448 -0.2265  0.8800
    1SOL    HW2 8198   2.444   4.532   3.414  0.8327  0.1085  0.2051
    1SOL    HW3 8199   2.436   4.655   3.326 -1.1222  0.5786  1.0280
    1SOL    MW4 8200   2.425   4.616   3.404 -0.3657 -0.0758  0.8104
    1SOL     OW 8201   2.212   0.113   3.517  0.7699  0.3832 -0.1849
    1SOL    HW2 8202   2.240   0.193   3.472  0.2624  0.9493  0.5096
    1SOL    HW3 8203   2.273   0.046   3.486  0.6207  0.8357 -1.4828
    1SOL    MW4 8204   2.224   0.115   3.507  0.6833  0.5176 -0.2644
    1SOL     OW 8205   2.270   0.389   3.445 -0.0566  0.3933 -0.0994
    1SOL    HW2 8206   2.341   0.435   3.488  0.5429 -0.1814 -0.4594
    1SOL    HW3 8207   2.192   0.412   3.495  0.2935  1.4828 -0.0525
    1SOL    MW4 8208   2.269   0.398   3.457  0.0687  0.4613 -0.1407
    1SOL     OW 8209   2.473   0.526   3.568 -0.3076  0.5170 -0.1952
    1SOL    HW2 8210   2.539   0.469   3.528 -0.0847  0.5055  0.1820
    1SOL    HW3 8211   2.465   0.599   3.508  1.0224  1.1708  0.3997
    1SOL    MW4 8212   2.481   0.528   3.555 -0.1025  0.6017 -0.0670
    1SOL     OW 8213   2.455   0.765   3.430 -0.3044  0.1595  0.4398
    1SOL    HW2 8214   2.549   0.778   3.441 -0.4394  0.7949  0.8583
    1SOL    HW3 8215   2.442   0.764   3.335  0.0699  0.4292  0.3848
    1SOL    MW4 8216   2.466   0.766   3.419 -0.2730  0.2789  0.4876
    1SOL     OW 8217   2.236   0.914   3.555  0.3559  0.1307 -0.4150
    1SOL    HW2 8218   2.214   0.973   3.484  0.2419  0.2908 -0.2459
    1SOL    HW3 8219   2.307   0.860   3.520  0.5733  0.4784 -0.5079
    1SOL    MW4 8220   2.242   0.914   3.541  0.3695  0.1977 -0.4053
    1SOL     OW 8221   2.232   1.125   3.348  0.0701 -0.1199 -0.1796
    1SOL    HW2 8222   2.315   1.148   3.388 -0.4075  0.0124  0.7484
    1SOL    HW3 8223   2.171   1.193   3.377 -0.2280  0.1230 -1.3383
    1SOL    MW4 8224   2.235   1.137   3.357 -0.0322 -0.0703 -0.2100
    1SOL     OW 8225   2.442   1.261   3.441  0.1713 -0.2305 -0.6865
    1SOL    HW2 8226   2.430   1.271   3.535  0.2643  0.2316 -0.7231
    1SOL    HW3 8227   2.524   1.213   3.432 -0.2399 -0.9922 -0.5136
    1SOL    MW4 8228   2.451   1.256   3.452  0.1292 -0.2700 -0.6688
    1SOL     OW 8229   2.451   1.538   3.392  0.5371  0.2025 -0.5359
    1SOL    HW2 8230   2.468   1.444   3.400 -0.4907  0.0715  0.0969
    1SOL    HW3 8231   2.476   1.559   3.302  0.8497 -0.6581 -0.6508
    1SOL    MW4 8232   2.457   1.528   3.381  0.4430  0.0715 -0.4675
    1SOL     OW 8233   2.247   1.680   3.516  0.2589 -0.1352  0.3462
    1SOL    HW2 8234   2.253   1.671   3.611 -1.1824 -0.8292  0.3798
    1SOL    HW3 8235   2.304   1.612   3.482  1.0536  0.3397  0.7075
    1SOL    MW4 8236   2.255   1.670   3.524  0.1736 -0.1640  0.3984
    1SOL     OW 8237   2.233   1.945   3.423 -0.4148 -0.1049 -0.3425
    1SOL    HW2 8238   2.251   1.852   3.437  0.4357  0.1526  0.2852
    1SOL    HW3 8239   2.252   1.960   3.330 -1.6830 -0.8049 -0.7308
    1SOL    MW4 8240   2.238   1.935   3.412 -0.4702 -0.1632 -0.3107
    1SOL     OW 8241   2.476   1.996   3.555 -0.1721 -0.4041  0.6031
    1SOL    HW2 8242   2.396   1.986   3.502  0.1151  1.0560 -0.1076
    1SOL    HW3 8243   2.446   2.040   3.634  0.1409  1.4424 -0.2713
    1SOL    MW4 8244   2.461   2.000   3.558 -0.0930  0.0322  0.3939
    1SOL     OW 8245   2.527   2.293   3.466  0.1694  0.0625  0.1969
    1SOL    HW2 8246   2.605   2.340   3.496  0.1262 -0.1703  0.6835
    1SOL    HW3 8247   2.530   2.210   3.513 -0.9148  0.4646  1.0017
    1SOL    MW4 8248   2.538   2.288   3.476  0.0205  0.0851  0.3674
    1SOL     OW 8249   2.264   2.397   3.552 -0.1917 -0.2129  0.0884
    1SOL    HW2 8250   2.263   2.479   3.504  0.2782  0.5318  1.3167
    1SOL    HW3 8251   2.347   2.355   3.528  0.5297  0.6489  1.0532
    1SOL    MW4 8252   2.275   2.402   3.543 -0.0346 -0.0007  0.3779
    1SOL     OW 8253   2.226   2.600   3.383 -0.3643 -0.2825 -0.2305
    1SOL    HW2 8254   2.162   2.661   3.419  0.2238 -0.3328  0.9314
    1SOL    HW3 8255   2.232   2.623   3.290 -1.1478  0.5312 -0.0856
    1SOL    MW4 8256   2.219   2.611   3.375 -0.3903 -0.1814 -0.0584
    1SOL     OW 8257   2.452   2.749   3.485  0.1110  0.0626  0.3615
    1SOL    HW2 8258   2.437   2.840   3.459 -0.8231 -0.2734 -0.3198
    1SOL    HW3 8259   2.377   2.701   3.449  0.5416 -0.9616  0.7980
    1SOL    MW4 8260   2.440   2.755   3.477  0.0446 -0.1171  0.3290
    1SOL     OW 8261   2.425   3.017   3.401 -0.1467 -0.2629 -0.0562
    1SOL    HW2 8262   2.518   3.021   3.425 -0.5189  0.8858  1.2702
    1SOL    HW3 8263   2.424   3.026   3.306  0.9959  1.4401  0.0735
    1SOL    MW4 8264   2.437   3.018   3.392 -0.0451  0.1135  0.1359
    1SOL     OW 8265   2.254   3.213   3.519 -0.1500 -0.3839  0.0907
    1SOL    HW2 8266   2.254   3.219   3.615  1.2585 -0.9866  0.1373
    1SOL    HW3 8267   2.302   3.132   3.500 -1.6004 -0.9868 -1.0953
    1SOL    MW4 8268   2.260   3.203   3.529 -0.1554 -0.5429 -0.0596
    1SOL     OW 8269   2.219   3.461   3.391  0.3518  0.3927 -0.2122
    1SOL    HW2 8270   2.227   3.377   3.437 -0.4644  0.5859  0.2862
    1SOL    HW3 8271   2.263   3.446   3.307 -1.3771 -1.1040 -0.8834
    1SOL    MW4 8272   2.226   3.448   3.386  0.0157  0.2208 -0.2348
    1SOL     OW 8273   2.453   3.542   3.513  0.1138  0.4429  0.1820
    1SOL    HW2 8274   2.446   3.529   3.608 -1.0844 -0.2248  0.0106
    1SOL    HW3 8275   2.365   3.523   3.480  0.1578  2.0509 -0.9061
    1SOL    MW4 8276   2.440   3.538   3.521 -0.0384  0.5672  0.0155
    1SOL     OW 8277   2.445   3.799   3.426 -0.1368 -0.0337 -0.0171
    1SOL    HW2 8278   2.516   3.853   3.459  0.2266 -0.5974  0.1265
    1SOL    HW3 8279   2.455   3.715   3.471  0.8718 -1.1029 -2.1238
    1SOL    MW4 8280   2.456   3.795   3.436  0.0443 -0.2491 -0.2759
    1SOL     OW 8281   2.248   3.990   3.526 -0.0351 -0.3717  0.0567
    1SOL    HW2 8282   2.312   3.931   3.487 -0.6715 -0.1886 -1.2871
    1SOL    HW3 8283   2.165   3.966   3.485 -0.8612 -0.6576  1.8213
    1SOL    MW4 8284   2.245   3.979   3.516 -0.2282 -0.3850  0.1121
    1SOL     OW 8285   2.246   4.241   3.432  0.2213 -0.0133 -0.2826
    1SOL    HW2 8286   2.166   4.282   3.467  2.1307  2.4836  1.3113
    1SOL    HW3 8287   2.255   4.161   3.483 -1.3630 -0.4264 -0.6108
    1SOL    MW4 8288   2.236   4.236   3.444  0.2642  0.2618 -0.1159
    1SOL     OW 8289   2.481   4.379   3.478 -0.3706  0.4442  0.2187
    1SOL    HW2 8290   2.477   4.405   3.570 -0.9839  1.6035 -0.1291
    1SOL    HW3 8291   2.400   4.331   3.463 -0.4600  0.6044  0.1834
    1SOL    MW4 8292   2.470   4.376   3.488 -0.4632  0.6180  0.1683
    1SOL     OW 8293   2.902   4.620   3.401  0.2727 -0.0347 -0.2770
    1SOL    HW2 8294   2.827   4.666   3.439  0.3573 -0.2340  0.1329
    1SOL    HW3 8295   2.903   4.648   3.310  0.6216  1.1879  0.0845
    1SOL    MW4 8296   2.893   4.630   3.394  0.3300  0.1006 -0.1752
    1SOL     OW 8297   2.666   0.087   3.506 -0.2689  0.8321 -0.1788
    1SOL    HW2 8298   2.655   0.179   3.481 -0.5865  0.8521  0.0273
    1SOL    HW3 8299   2.577   0.051   3.501 -0.5862  1.1708  2.2591
    1SOL    MW4 8300   2.653   0.095   3.502 -0.3529  0.8795  0.1700
    1SOL     OW 8301   2.659   0.354   3.432  0.0027 -0.1602 -0.5520
    1SOL    HW2 8302   2.741   0.386   3.470  0.4150 -2.2742  0.4534
    1SOL    HW3 8303   2.670   0.366   3.338  0.9212  0.8087 -0.3373
    1SOL    MW4 8304   2.672   0.359   3.425  0.1783 -0.3113 -0.3910
    1SOL     OW 8305   2.893   0.457   3.521 -0.3185  0.3272 -0.1072
    1SOL    HW2 8306   2.919   0.472   3.611 -0.6677  0.2198  0.0118
    1SOL    HW3 8307   2.892   0.544   3.481  1.4515  0.2197 -0.4542
    1SOL    MW4 8308   2.896   0.470   3.527 -0.1309  0.2988 -0.1376
    1SOL     OW 8309   2.913   0.715   3.404 -0.6527 -0.3107 -0.3536
    1SOL    HW2 8310   2.988   0.767   3.435 -0.7790  0.0718 -0.6922
    1SOL    HW3 8311   2.837   0.756   3.445 -0.8715  0.5084 -1.5660
    1SOL    MW4 8312   2.913   0.728   3.414 -0.6983 -0.1522 -0.5579
    1SOL     OW 8313   2.711   0.865   3.504 -0.1446  0.0850  0.0973
    1SOL    HW2 8314   2.681   0.942   3.455  2.1519  0.6793 -0.4414
    1SOL    HW3 8315   2.696   0.888   3.596 -1.1414  0.4286 -0.1414
    1SOL    MW4 8316   2.705   0.878   3.510  0.0269  0.2087 -0.0052
    1SOL     OW 8317   2.666   1.095   3.366  0.1430 -0.0458 -0.1866
    1SOL    HW2 8318   2.744   1.140   3.399 -0.1491 -0.2551  0.7997
    1SOL    HW3 8319   2.663   1.117   3.273  1.6692 -0.4622 -0.3393
    1SOL    MW4 8320   2.676   1.104   3.358  0.3061 -0.1283 -0.0763
    1SOL     OW 8321   2.889   1.248   3.462 -0.1896 -0.6019 -0.0930
    1SOL    HW2 8322   2.894   1.266   3.556  0.6170  1.2277 -0.4689
    1SOL    HW3 8323   2.973   1.207   3.442  0.0956  0.0246 -0.2081
    1SOL    MW4 8324   2.901   1.245   3.472 -0.0458 -0.2780 -0.1576
    1SOL     OW 8325   2.922   1.492   3.384  0.2822  0.1806  0.3634
    1SOL    HW2 8326   2.845   1.539   3.413  0.2165  0.3072 -0.0139
    1SOL    HW3 8327   2.906   1.401   3.410 -0.0494  0.1842  0.1756
    1SOL    MW4 8328   2.910   1.486   3.391  0.2296  0.1978  0.2887
    1SOL     OW 8329   2.708   1.665   3.463  0.6172 -0.1532  0.2472
    1SOL    HW2 8330   2.704   1.756   3.433  0.5861 -0.4481 -0.6624
    1SOL    HW3 8331   2.618   1.633   3.450  0.7282 -0.4324  0.1813
    1SOL    MW4 8332   2.695   1.673   3.457  0.6278 -0.2289  0.1187
    1SOL     OW 8333   2.673   1.920   3.378  0.0822  0.6445  0.0406
    1SOL    HW2 8334   2.758   1.962   3.393  0.0396  0.2166  1.6069
    1SOL    HW3 8335   2.615   1.959   3.443 -0.5735 -0.0376 -0.1276
    1SOL    MW4 8336   2.677   1.931   3.388 -0.0098  0.4981  0.2253
    1SOL     OW 8337   2.907   2.052   3.442 -0.2576  0.1423 -0.2233
    1SOL    HW2 8338   2.987   2.000   3.432 -0.9042 -1.0757  0.8231
    1SOL    HW3 8339   2.894   2.058   3.537 -0.7054  1.4253 -0.3571
    1SOL    MW4 8340   2.916   2.046   3.453 -0.4020  0.1507 -0.1030
    1SOL     OW 8341   2.915   2.333   3.358 -0.4964  0.2332  0.2225
    1SOL    HW2 8342   2.913   2.244   3.391  1.0939  0.5084  1.0935
    1SOL    HW3 8343   2.913   2.323   3.262  2.6268 -0.8956  0.2070
    1SOL    MW4 8344   2.915   2.320   3.349  0.1254  0.1206  0.3352
    1SOL     OW 8345   2.762   2.456   3.559  0.0034  0.5528  0.0639
    1SOL    HW2 8346   2.803   2.440   3.643 -0.4320 -0.5170  0.0813
    1SOL    HW3 8347   2.825   2.424   3.495  0.5463  1.8223 -0.0380
    1SOL    MW4 8348   2.776   2.450   3.561  0.0176  0.5794  0.0527
    1SOL     OW 8349   2.708   2.681   3.406  0.1458  0.0654 -0.4982
    1SOL    HW2 8350   2.733   2.608   3.463  0.3119  0.2808 -0.2969
    1SOL    HW3 8351   2.618   2.702   3.432  0.3640  0.4290 -0.0428
    1SOL    MW4 8352   2.699   2.674   3.417  0.1965  0.1421 -0.4117
    1SOL     OW 8353   2.916   2.867   3.542 -0.4454  0.0682 -0.2770
    1SOL    HW2 8354   2.913   2.841   3.634 -0.3148 -0.3311 -0.3817
    1SOL    HW3 8355   2.839   2.825   3.503 -1.2895  1.3998 -0.0598
    1SOL    MW4 8356   2.906   2.858   3.549 -0.5393  0.1912 -0.2620
    1SOL     OW 8357   2.955   3.079   3.370  0.2084  0.7250 -0.7884
    1SOL    HW2 8358   2.940   2.992   3.406 -0.2997  1.0602 -0.1895
    1SOL    HW3 8359   2.942   3.068   3.276  1.3968 -0.1155 -0.8736
    1SOL    MW4 8360   2.951   3.066   3.362  0.2980  0.6580 -0.7210
    1SOL     OW 8361   2.689   3.151   3.457  0.2975 -0.0024  0.1441
    1SOL    HW2 8362   2.711   3.179   3.546 -1.4438 -0.3450  0.6967
    1SOL    HW3 8363   2.772   3.123   3.420  0.8880 -0.8340  2.0179
    1SOL    MW4 8364   2.703   3.151   3.464  0.1459 -0.1574  0.4642
    1SOL     OW 8365   2.661   3.411   3.374  0.7843 -0.2204  0.0399
    1SOL    HW2 8366   2.667   3.319   3.400 -0.3906 -0.5126 -0.6892
    1SOL    HW3 8367   2.602   3.450   3.438  1.8961  0.2167  0.8160
    1SOL    MW4 8368   2.654   3.404   3.386  0.7761 -0.2015  0.0463
    1SOL     OW 8369   2.901   3.547   3.462 -0.1298  0.1839 -0.1604
    1SOL    HW2 8370   2.914   3.636   3.430 -0.7636  0.1590 -0.4862
    1SOL    HW3 8371   2.818   3.519   3.424 -0.1060 -0.4215  0.2206
    1SOL    MW4 8372   2.892   3.555   3.453 -0.2103  0.1009 -0.1533
    1SOL     OW 8373   2.902   3.812   3.407  0.3834  0.1716 -0.4353
    1SOL    HW2 8374   2.980   3.861   3.433  0.2071  0.2980 -0.1485
    1SOL    HW3 8375   2.833   3.843   3.465  0.0667  0.2140 -0.8323
    1SOL    MW4 8376   2.903   3.822   3.418  0.3185  0.1938 -0.4501
    1SOL     OW 8377   2.673   3.940   3.512 -0.3472 -0.1711  0.3376
    1SOL    HW2 8378   2.685   3.949   3.606  0.3872  0.0633  0.2214
    1SOL    HW3 8379   2.685   4.028   3.477 -1.1812 -0.1557  0.0839
    1SOL    MW4 8380   2.676   3.953   3.519 -0.3600 -0.1383  0.2887
    1SOL     OW 8381   2.684   4.204   3.418  0.0589 -0.1877  0.2257
    1SOL    HW2 8382   2.754   4.253   3.460 -0.4027 -0.1229  0.9376
    1SOL    HW3 8383   2.604   4.249   3.446 -0.2956 -0.6167 -0.0971
    1SOL    MW4 8384   2.682   4.217   3.427 -0.0486 -0.2360  0.2773
    1SOL     OW 8385   2.909   4.357   3.507 -0.1120 -0.0408  0.0450
    1SOL    HW2 8386   2.914   4.364   3.602  0.7842  1.1046 -0.0679
    1SOL    HW3 8387   2.909   4.448   3.476  0.4943 -0.4128 -1.0781
    1SOL    MW4 8388   2.910   4.370   3.515  0.0863  0.0615 -0.1180
    1SOL     OW 8389   3.378   4.646   3.393  0.2775  0.2547  0.0780
    1SOL    HW2 8390   3.291   4.684   3.406  0.2345 -0.0992  0.8043
    1SOL    HW3 8391   3.386   4.636   3.298 -1.1207 -1.2310  0.1081
    1SOL    MW4 8392   3.368   4.650   3.382  0.0875  0.0119  0.1779
    1SOL     OW 8393   3.132   0.085   3.483 -0.0027 -0.2941  0.6960
    1SOL    HW2 8394   3.123   0.176   3.453  1.8463 -0.3222  0.0058
    1SOL    HW3 8395   3.057   0.040   3.444 -0.1914  0.6527 -0.0645
    1SOL    MW4 8396   3.121   0.091   3.474  0.2165 -0.1729  0.5045
    1SOL     OW 8397   3.125   0.364   3.417 -0.0039  0.2026 -0.1417
    1SOL    HW2 8398   3.047   0.399   3.462 -0.6511 -0.4582 -0.7390
    1SOL    HW3 8399   3.198   0.412   3.456 -0.6835  0.6339  0.6281
    1SOL    MW4 8400   3.124   0.375   3.428 -0.1788  0.1723 -0.1190
    1SOL     OW 8401   3.348   0.505   3.482  0.4703 -0.3147  0.1449
    1SOL    HW2 8402   3.354   0.488   3.576 -1.9343  0.5341  0.5070
    1SOL    HW3 8403   3.412   0.447   3.443  3.0313  0.8327  2.4538
    1SOL    MW4 8404   3.357   0.495   3.490  0.4909 -0.0514  0.4973
    1SOL     OW 8405   3.335   0.769   3.394 -0.3008 -0.0604 -0.4716
    1SOL    HW2 8406   3.417   0.807   3.425  0.1787 -0.2512 -1.4701
    1SOL    HW3 8407   3.334   0.681   3.429  0.2882 -0.3115 -1.0779
    1SOL    MW4 8408   3.345   0.763   3.403 -0.1600 -0.1187 -0.6833
    1SOL     OW 8409   3.115   0.869   3.504  0.2498 -0.0366 -0.3587
    1SOL    HW2 8410   3.125   0.953   3.460 -1.5010 -0.5200 -1.7510
    1SOL    HW3 8411   3.185   0.815   3.469  0.5410  0.4234 -0.4943
    1SOL    MW4 8412   3.125   0.873   3.494  0.0575 -0.0397 -0.5605
    1SOL     OW 8413   3.132   1.118   3.412  0.3076 -0.4711 -0.4929
    1SOL    HW2 8414   3.213   1.163   3.438 -1.4198  1.5726  1.5606
    1SOL    HW3 8415   3.126   1.133   3.318  1.2391  1.2002 -0.3155
    1SOL    MW4 8416   3.142   1.126   3.403  0.2029  0.0190 -0.1986
    1SOL     OW 8417   3.362   1.263   3.473 -0.6686  0.0071  0.2168
    1SOL    HW2 8418   3.367   1.252   3.568 -1.0229  1.4503  0.4139
    1SOL    HW3 8419   3.440   1.219   3.439  0.3272  0.9001  1.3018
    1SOL    MW4 8420   3.373   1.256   3.481 -0.5836  0.3153  0.3860
    1SOL     OW 8421   3.380   1.540   3.383 -0.2502  0.3867  0.7936
    1SOL    HW2 8422   3.470   1.562   3.409 -0.0474  0.3186  0.1523
    1SOL    HW3 8423   3.363   1.456   3.425  0.4375 -0.2084 -0.1141
    1SOL    MW4 8424   3.390   1.532   3.392 -0.1328  0.2993  0.5891
    1SOL     OW 8425   3.138   1.656   3.472 -0.3627 -0.2223 -0.0555
    1SOL    HW2 8426   3.218   1.614   3.442  0.8466  0.2033  2.4707
    1SOL    HW3 8427   3.068   1.594   3.449  0.9179 -1.6141 -0.2424
    1SOL    MW4 8428   3.139   1.642   3.465 -0.0343 -0.3499  0.2534
    1SOL     OW 8429   3.136   1.918   3.374  0.0595  0.0754 -0.0360
    1SOL    HW2 8430   3.133   1.826   3.400 -1.8737  0.2049  0.2297
    1SOL    HW3 8431   3.148   1.915   3.279  1.5467 -0.4128  0.1378
    1SOL    MW4 8432   3.137   1.905   3.365  0.0007  0.0281  0.0217
    1SOL     OW 8433   3.390   2.034   3.480 -0.4087  0.0116 -1.1313
    1SOL    HW2 8434   3.382   2.121   3.439 -0.4950  0.1918 -0.7371
    1SOL    HW3 8435   3.306   1.991   3.461 -0.7662  0.3987 -0.4474
    1SOL    MW4 8436   3.378   2.040   3.472 -0.4673  0.0863 -0.9892
    1SOL     OW 8437   3.362   2.286   3.372 -0.0679  0.1480 -0.2311
    1SOL    HW2 8438   3.441   2.329   3.403 -0.6720  1.9250 -1.0760
    1SOL    HW3 8439   3.290   2.337   3.411 -0.8266 -1.5374  0.6667
    1SOL    MW4 8440   3.363   2.299   3.382 -0.2477  0.1597 -0.2239
    1SOL     OW 8441   3.150   2.469   3.455 -0.3304 -0.2768  0.0363
    1SOL    HW2 8442   3.146   2.563   3.439 -1.5033 -0.1460  0.9551
    1SOL    HW3 8443   3.073   2.434   3.410 -0.0240 -0.7609 -0.1109
    1SOL    MW4 8444   3.139   2.477   3.447 -0.4447 -0.3231  0.1383
    1SOL     OW 8445   3.133   2.750   3.412 -0.0182 -0.0678  0.0421
    1SOL    HW2 8446   3.217   2.768   3.455 -0.1943 -0.8508  0.7329
    1SOL    HW3 8447   3.068   2.789   3.471 -0.1039  1.2205 -0.8824
    1SOL    MW4 8448   3.136   2.758   3.426 -0.0529 -0.0010  0.0112
    1SOL     OW 8449   3.380   2.827   3.522 -0.3340  0.1158  0.4837
    1SOL    HW2 8450   3.461   2.783   3.495 -1.2488 -0.5413 -1.2429
    1SOL    HW3 8451   3.389   2.917   3.489 -0.8491 -0.3074 -0.8352
    1SOL    MW4 8452   3.392   2.833   3.514 -0.5229 -0.0265  0.0818
    1SOL     OW 8453   3.405   3.075   3.447  0.1974  0.2938 -0.4108
    1SOL    HW2 8454   3.483   3.121   3.478  0.6136 -2.5386  2.9510
    1SOL    HW3 8455   3.332   3.131   3.474  0.8518  0.6814  0.5713
    1SOL    MW4 8456   3.405   3.089   3.454  0.3388 -0.0286  0.1624
    1SOL     OW 8457   3.174   3.203   3.475 -0.0212  0.4319 -0.1135
    1SOL    HW2 8458   3.174   3.296   3.455  1.1282  0.4260 -0.1475
    1SOL    HW3 8459   3.094   3.170   3.432  0.2486  1.1605 -1.2042
    1SOL    MW4 8460   3.163   3.211   3.467  0.1662  0.5271 -0.2620
    1SOL     OW 8461   3.155   3.450   3.380 -0.0899  0.5748 -0.1021
    1SOL    HW2 8462   3.064   3.472   3.401 -0.9596 -2.5934 -0.3368
    1SOL    HW3 8463   3.160   3.461   3.285 -0.4201  0.0271 -0.1808
    1SOL    MW4 8464   3.143   3.455   3.370 -0.2482  0.0846 -0.1433
    1SOL     OW 8465   3.378   3.586   3.465  0.0178 -0.2401 -0.1495
    1SOL    HW2 8466   3.362   3.673   3.428 -1.3820 -0.0316  0.9229
    1SOL    HW3 8467   3.308   3.531   3.429  0.1625 -0.6326  0.1610
    1SOL    MW4 8468   3.367   3.590   3.455 -0.1478 -0.2644  0.0329
    1SOL     OW 8469   3.376   3.856   3.379 -0.1548  0.5916 -0.3781
    1SOL    HW2 8470   3.441   3.911   3.423 -0.8382  0.5061  0.7742
    1SOL    HW3 8471   3.292   3.895   3.403 -0.7253 -1.5984  1.4183
    1SOL    MW4 8472   3.373   3.868   3.388 -0.3204  0.2916  0.0110
    1SOL     OW 8473   3.127   3.955   3.467  0.2478  0.1714  0.2151
    1SOL    HW2 8474   3.140   3.940   3.560 -1.4304  0.2478  0.4741
    1SOL    HW3 8475   3.116   4.050   3.459  0.7469  0.2015 -0.1018
    1SOL    MW4 8476   3.127   3.966   3.478  0.0925  0.1850  0.2074
    1SOL     OW 8477   3.117   4.214   3.383  0.3999  0.1785  0.0125
    1SOL    HW2 8478   3.195   4.267   3.397  0.7753 -1.0221  2.7712
    1SOL    HW3 8479   3.049   4.254   3.438  0.0430 -0.8181  0.3109
    1SOL    MW4 8480   3.118   4.226   3.392  0.4027 -0.1111  0.4160
    1SOL     OW 8481   3.347   4.358   3.463 -0.2572 -0.6923  0.0190
    1SOL    HW2 8482   3.357   4.353   3.558 -0.5568 -1.3000  0.0208
    1SOL    HW3 8483   3.348   4.452   3.444 -0.2572 -0.5659  0.6268
    1SOL    MW4 8484   3.349   4.370   3.473 -0.2968 -0.7558  0.0994
    1SOL     OW 8485   3.819   4.638   3.448  0.0203 -0.1104 -0.0990
    1SOL    HW2 8486   3.896   4.685   3.480  1.0966 -1.1285 -1.1212
    1SOL    HW3 8487   3.816   4.658   3.354 -0.8957 -0.1674 -0.0867
    1SOL    MW4 8488   3.829   4.646   3.440  0.0417 -0.2522 -0.2325
    1SOL     OW 8489   3.590   0.100   3.535 -0.2735  0.0701 -0.0695
    1SOL    HW2 8490   3.666   0.057   3.495 -0.7485 -0.3173 -0.5683
    1SOL    HW3 8491   3.515   0.059   3.492 -0.7384  1.3014 -0.4383
    1SOL    MW4 8492   3.590   0.089   3.524 -0.3977  0.1815 -0.1841
    1SOL     OW 8493   3.544   0.345   3.392 -0.2028  0.1391 -0.3805
    1SOL    HW2 8494   3.612   0.397   3.435 -0.1455  1.0672 -1.5754
    1SOL    HW3 8495   3.546   0.261   3.438  0.4474  0.8082  0.8450
    1SOL    MW4 8496   3.553   0.341   3.404 -0.1094  0.3498 -0.3765
    1SOL     OW 8497   3.792   0.733   3.392  0.6455 -0.0083 -0.2481
    1SOL    HW2 8498   3.865   0.789   3.420 -0.4207  0.3868  1.8417
    1SOL    HW3 8499   3.819   0.645   3.419  1.2452 -0.1623 -1.3328
    1SOL    MW4 8500   3.805   0.729   3.399  0.5839  0.0235 -0.1156
    1SOL     OW 8501   4.009   0.886   3.469 -0.1798  0.1660  0.1110
    1SOL    HW2 8502   4.006   0.978   3.440  0.7700  0.3302  0.4998
    1SOL    HW3 8503   4.093   0.854   3.438 -0.7152 -0.7319 -0.4380
    1SOL    MW4 8504   4.020   0.894   3.461 -0.1254  0.0692  0.0899
    1SOL     OW 8505   3.566   0.874   3.512 -0.2892 -0.0764  0.0397
    1SOL    HW2 8506   3.551   0.872   3.606  0.2290 -0.3895  0.1142
    1SOL    HW3 8507   3.648   0.826   3.499 -1.1292 -1.3623 -0.7135
    1SOL    MW4 8508   3.575   0.867   3.522 -0.3319 -0.2874 -0.0501
    1SOL     OW 8509   3.593   1.134   3.396 -0.0374 -0.1565  0.4398
    1SOL    HW2 8510   3.587   1.042   3.420  3.4692 -0.6582 -0.3948
    1SOL    HW3 8511   3.578   1.135   3.301  1.6789 -0.1329  0.1480
    1SOL    MW4 8512   3.590   1.122   3.386  0.6514 -0.2195  0.2911
    1SOL     OW 8513   3.829   1.212   3.525  0.4647  0.2327  0.3067
    1SOL    HW2 8514   3.811   1.216   3.619 -1.1923 -0.7837  0.0460
    1SOL    HW3 8515   3.744   1.193   3.485  1.5032 -1.3879 -1.2204
    1SOL    MW4 8516   3.815   1.210   3.532  0.3831 -0.1153  0.0706
    1SOL     OW 8517   3.862   1.503   3.407 -0.1559 -0.2956 -0.2880
    1SOL    HW2 8518   3.939   1.541   3.449 -0.7287 -0.4786  0.9571
    1SOL    HW3 8519   3.860   1.412   3.438  0.0879 -0.7927 -1.6826
    1SOL    MW4 8520   3.872   1.496   3.417 -0.1993 -0.3854 -0.3078
    1SOL     OW 8521   3.630   1.626   3.487 -0.4481  0.1542 -0.1118
    1SOL    HW2 8522   3.618   1.716   3.455  1.5548  0.3952 -0.2803
    1SOL    HW3 8523   3.720   1.604   3.462 -0.2627 -1.1932  1.6298
    1SOL    MW4 8524   3.640   1.635   3.480 -0.1595  0.0081  0.0956
    1SOL     OW 8525   3.600   1.876   3.360 -0.1838  0.3406  0.4380
    1SOL    HW2 8526   3.674   1.929   3.388  0.3076  0.6370 -1.3109
    1SOL    HW3 8527   3.523   1.923   3.392  0.3377  0.8347  0.9683
    1SOL    MW4 8528   3.599   1.889   3.368 -0.0501  0.4449  0.2770
    1SOL     OW 8529   3.839   2.008   3.489  0.3336  0.0246  0.3131
    1SOL    HW2 8530   3.830   1.980   3.580 -0.5127 -1.3446 -0.1848
    1SOL    HW3 8531   3.929   1.985   3.465  0.1169 -0.8831  0.3705
    1SOL    MW4 8532   3.850   2.001   3.498  0.1934 -0.2761  0.2549
    1SOL     OW 8533   3.845   2.275   3.425  0.4459 -0.3333 -0.0900
    1SOL    HW2 8534   3.924   2.311   3.466 -0.1485  0.1513  0.6582
    1SOL    HW3 8535   3.839   2.186   3.459 -0.6048  0.3961  1.7412
    1SOL    MW4 8536   3.854   2.268   3.435  0.2289 -0.1729  0.2506
    1SOL     OW 8537   3.601   2.412   3.437  0.0380 -0.0654  0.2121
    1SOL    HW2 8538   3.620   2.505   3.437 -1.4557  0.2562 -0.8636
    1SOL    HW3 8539   3.686   2.370   3.423  0.7499  1.1051  0.9994
    1SOL    MW4 8540   3.615   2.419   3.435 -0.0651  0.1316  0.1743
    1SOL     OW 8541   3.612   2.680   3.446 -0.1339 -0.2588 -0.1595
    1SOL    HW2 8542   3.682   2.742   3.464 -0.0386 -0.5457  0.4745
    1SOL    HW3 8543   3.604   2.680   3.351 -1.0324  1.7225 -0.1090
    1SOL    MW4 8544   3.620   2.688   3.436 -0.2401 -0.0353 -0.0691
    1SOL     OW 8545   3.836   2.833   3.520 -0.2868  0.0671 -0.0821
    1SOL    HW2 8546   3.840   2.846   3.615 -0.8033  0.8184 -0.1661
    1SOL    HW3 8547   3.858   2.918   3.483 -1.4241  0.1247 -0.6319
    1SOL    MW4 8548   3.840   2.846   3.527 -0.5050  0.1740 -0.1659
    1SOL     OW 8549   3.883   3.088   3.428  0.4314  0.2056  0.7370
    1SOL    HW2 8550   3.970   3.116   3.456  0.8040 -0.1583 -0.0510
    1SOL    HW3 8551   3.883   3.099   3.333 -1.4187  3.0879  0.9909
    1SOL    MW4 8552   3.894   3.093   3.419  0.2365  0.5379  0.6666
    1SOL     OW 8553   3.632   3.196   3.556  0.4155  0.5719  0.0709
    1SOL    HW2 8554   3.628   3.280   3.509  0.4632  0.2118 -0.5929
    1SOL    HW3 8555   3.715   3.157   3.528 -0.0992 -0.1656 -0.4624
    1SOL    MW4 8556   3.642   3.202   3.546  0.3538  0.4270 -0.0873
    1SOL     OW 8557   3.617   3.447   3.406  0.1906 -0.4230  0.6859
    1SOL    HW2 8558   3.534   3.492   3.414  0.0720 -0.4376 -0.3076
    1SOL    HW3 8559   3.626   3.430   3.312  1.5047 -0.0395  0.7289
    1SOL    MW4 8560   3.608   3.451   3.394  0.3483 -0.3746  0.5603
    1SOL     OW 8561   3.826   3.635   3.532 -0.2337 -0.5357 -0.2410
    1SOL    HW2 8562   3.812   3.633   3.626  1.1154 -0.8084 -0.0316
    1SOL    HW3 8563   3.762   3.574   3.496 -1.6749  0.5768  0.3583
    1SOL    MW4 8564   3.816   3.627   3.540 -0.2460 -0.4251 -0.1342
    1SOL     OW 8565   3.824   3.892   3.435 -0.1952  0.3301 -0.0854
    1SOL    HW2 8566   3.737   3.920   3.461  0.3768  1.0380  1.0889
    1SOL    HW3 8567   3.833   3.804   3.472 -0.3920  0.2645 -0.1904
    1SOL    MW4 8568   3.814   3.884   3.443 -0.1457  0.4146  0.0558
    1SOL     OW 8569   3.574   4.005   3.511 -0.4942 -0.2939  0.1872
    1SOL    HW2 8570   3.581   4.013   3.607 -0.6115  1.6094  0.0509
    1SOL    HW3 8571   3.580   4.095   3.479 -0.9560 -0.8759 -1.5766
    1SOL    MW4 8572   3.576   4.018   3.520 -0.5705 -0.1197 -0.0634
    1SOL     OW 8573   3.604   4.257   3.402 -0.0560 -0.3177 -0.4207
    1SOL    HW2 8574   3.513   4.281   3.419  0.3579  0.3719  0.8957
    1SOL    HW3 8575   3.611   4.256   3.307 -1.2813  0.2407 -0.5250
    1SOL    MW4 8576   3.593   4.260   3.392 -0.1631 -0.1535 -0.2608
    1SOL     OW 8577   3.837   4.369   3.504  0.1068 -0.1440  0.1957
    1SOL    HW2 8578   3.752   4.333   3.478  0.7526 -1.3776 -0.2915
    1SOL    HW3 8579   3.829   4.463   3.492 -0.6463 -0.4106 -1.5007
    1SOL    MW4 8580   3.825   4.376   3.499  0.0925 -0.3419 -0.0923
    1SOL     OW 8581   4.255   4.629   3.446 -0.2319 -0.3685 -0.4150
    1SOL    HW2 8582   4.277   4.549   3.494  0.9075 -0.9790 -1.8959
    1SOL    HW3 8583   4.325   4.691   3.469 -0.1535 -0.3787 -0.6312
    1SOL    MW4 8584   4.267   4.627   3.455 -0.0710 -0.4501 -0.6392
    1SOL     OW 8585   4.041   0.110   3.537  0.4650  0.1027  0.4177
    1SOL    HW2 8586   4.118   0.072   3.494  0.0862 -0.5950  0.3477
    1SOL    HW3 8587   4.055   0.095   3.630  1.1018  1.2732  0.5267
    1SOL    MW4 8588   4.053   0.103   3.544  0.4983  0.1651  0.4232
    1SOL     OW 8589   4.010   0.356   3.394  0.7308 -0.3147 -0.4673
    1SOL    HW2 8590   3.994   0.277   3.445  0.4235  0.6688  0.9905
    1SOL    HW3 8591   4.017   0.325   3.304 -1.9090 -1.7092 -0.2468
    1SOL    MW4 8592   4.009   0.341   3.389  0.3419 -0.3689 -0.2460
    1SOL     OW 8593   4.260   0.475   3.474 -0.0615  0.8763  0.1223
    1SOL    HW2 8594   4.244   0.566   3.447 -0.8232  1.0779  1.2002
    1SOL    HW3 8595   4.182   0.427   3.449  0.7237  0.3079 -1.2876
    1SOL    MW4 8596   4.248   0.481   3.467 -0.0582  0.8279  0.0784
    1SOL     OW 8597   4.238   0.745   3.393 -0.2263 -0.1270  0.2908
    1SOL    HW2 8598   4.311   0.787   3.438  0.0555 -0.9960  0.6562
    1SOL    HW3 8599   4.260   0.750   3.300  0.2442 -0.2883  0.3934
    1SOL    MW4 8600   4.250   0.751   3.387 -0.1268 -0.2629  0.3526
    1SOL     OW 8601   4.049   0.846   3.732  0.5057 -0.8147 -0.0655
    1SOL    HW2 8602   4.027   0.935   3.762  1.8879  0.1457 -1.7835
    1SOL    HW3 8603   4.029   0.848   3.639  0.3530 -2.3949 -0.0664
    1SOL    MW4 8604   4.043   0.858   3.724  0.6676 -0.8965 -0.2923
    1SOL     OW 8605   4.026   1.133   3.350  0.3046  0.3202  0.0144
    1SOL    HW2 8606   4.106   1.180   3.374  0.8757 -0.7440  0.2151
    1SOL    HW3 8607   3.961   1.162   3.415  1.1991 -0.7208  1.4078
    1SOL    MW4 8608   4.028   1.143   3.362  0.4983  0.0424  0.2248
    1SOL     OW 8609   4.261   1.243   3.475  0.2001  0.2244 -0.0346
    1SOL    HW2 8610   4.267   1.336   3.455  0.7871  0.1864 -0.0262
    1SOL    HW3 8611   4.344   1.206   3.446  0.3656 -0.1280  0.8614
    1SOL    MW4 8612   4.273   1.250   3.468  0.2995  0.1730  0.0844
    1SOL     OW 8613   4.311   1.516   3.440 -0.0667  0.3232  0.6598
    1SOL    HW2 8614   4.231   1.563   3.463 -0.4365  0.1769 -0.3097
    1SOL    HW3 8615   4.308   1.508   3.345  0.1064 -1.4645  0.7877
    1SOL    MW4 8616   4.300   1.521   3.431 -0.0925  0.0682  0.5488
    1SOL     OW 8617   4.081   1.634   3.519  0.6699 -0.1087  0.0226
    1SOL    HW2 8618   4.062   1.640   3.613 -1.9835 -0.3979 -0.4651
    1SOL    HW3 8619   4.079   1.725   3.489  1.1728 -0.0456  0.1733
    1SOL    MW4 8620   4.078   1.647   3.528  0.3867 -0.1385 -0.0217
    1SOL     OW 8621   4.096   1.909   3.411  0.1128  0.3428 -0.2108
    1SOL    HW2 8622   4.166   1.969   3.434 -0.4142  1.5092 -1.5857
    1SOL    HW3 8623   4.095   1.908   3.316 -0.1127 -1.5880 -0.2068
    1SOL    MW4 8624   4.105   1.917   3.402  0.0129  0.2419 -0.3915
    1SOL     OW 8625   4.302   2.064   3.509  0.1021 -0.3014  0.2936
    1SOL    HW2 8626   4.300   2.144   3.457 -1.4248 -1.6715 -1.8540
    1SOL    HW3 8627   4.373   2.012   3.471 -1.2865 -1.4844 -0.7209
    1SOL    MW4 8628   4.311   2.068   3.497 -0.2837 -0.6382 -0.1235
    1SOL     OW 8629   4.318   2.306   3.391 -0.1262 -0.2341  0.3774
    1SOL    HW2 8630   4.238   2.350   3.420 -0.4406 -1.7656  1.8996
    1SOL    HW3 8631   4.314   2.309   3.296 -0.9926  1.4619  0.4456
    1SOL    MW4 8632   4.307   2.312   3.382 -0.2823 -0.2124  0.5870
    1SOL     OW 8633   4.081   2.409   3.480 -0.1455 -0.0076  0.2920
    1SOL    HW2 8634   4.083   2.408   3.576  3.4277  0.1968  0.2758
    1SOL    HW3 8635   4.061   2.500   3.458 -2.2958 -0.3233  0.8013
    1SOL    MW4 8636   4.078   2.421   3.490  0.0420 -0.0224  0.3569
    1SOL     OW 8637   4.042   2.685   3.421  0.0550  0.0756 -0.2820
    1SOL    HW2 8638   4.121   2.734   3.444 -0.1043 -0.2148  0.9247
    1SOL    HW3 8639   3.972   2.730   3.468 -0.0712 -1.4001  0.9767
    1SOL    MW4 8640   4.043   2.697   3.430  0.0172 -0.1574  0.0432
    1SOL     OW 8641   4.271   2.811   3.509  0.3496  0.1633  0.1867
    1SOL    HW2 8642   4.273   2.815   3.604 -1.5047  1.0427  0.2119
    1SOL    HW3 8643   4.348   2.759   3.485  1.5050  0.9554  2.0932
    1SOL    MW4 8644   4.282   2.805   3.518  0.2575  0.3839  0.4413
    1SOL     OW 8645   4.344   3.066   3.393 -0.3312  0.0911 -0.0419
    1SOL    HW2 8646   4.338   2.976   3.425  2.7836 -1.0213 -2.2202
    1SOL    HW3 8647   4.311   3.061   3.303  0.6140  0.9391 -0.4407
    1SOL    MW4 8648   4.339   3.053   3.385  0.2041  0.0565 -0.3817
    1SOL     OW 8649   4.123   3.214   3.529  0.3918 -0.3339  0.3043
    1SOL    HW2 8650   4.102   3.300   3.491  0.6625 -0.2950  0.2431
    1SOL    HW3 8651   4.215   3.200   3.506  0.6043 -0.2308  1.0992
    1SOL    MW4 8652   4.133   3.224   3.521  0.4554 -0.3154  0.4013
    1SOL     OW 8653   4.050   3.474   3.433 -0.2629  0.0768  0.0744
    1SOL    HW2 8654   4.130   3.515   3.465  0.6080 -1.0743 -0.5726
    1SOL    HW3 8655   3.979   3.528   3.468  0.7374  0.2408  1.9126
    1SOL    MW4 8656   4.051   3.487   3.442 -0.0157 -0.0534  0.2315
    1SOL     OW 8657   4.289   3.559   3.520  0.4420  0.5543  0.6973
    1SOL    HW2 8658   4.283   3.556   3.615 -0.2044  1.2449  0.6894
    1SOL    HW3 8659   4.285   3.653   3.499 -1.4069  0.3213 -0.1154
    1SOL    MW4 8660   4.287   3.571   3.530  0.1121  0.6146  0.5891
    1SOL     OW 8661   4.269   3.834   3.419 -0.2543  0.2387 -0.1830
    1SOL    HW2 8662   4.343   3.891   3.441  0.5104 -1.3065  1.3648
    1SOL    HW3 8663   4.270   3.831   3.323  2.7294 -1.0391 -0.1813
    1SOL    MW4 8664   4.279   3.842   3.409  0.2398 -0.1340  0.0215
    1SOL     OW 8665   4.060   3.964   3.563 -0.2056  0.3114  0.0280
    1SOL    HW2 8666   4.132   3.918   3.519 -0.9747 -1.2717  0.3657
    1SOL    HW3 8667   3.983   3.942   3.511 -1.0633 -1.2799  1.9042
    1SOL    MW4 8668   4.060   3.955   3.550 -0.4206 -0.1073  0.3202
    1SOL     OW 8669   4.072   4.214   3.436  0.1561  0.1583  0.6564
    1SOL    HW2 8670   4.051   4.126   3.467  0.4396  0.1131  0.7168
    1SOL    HW3 8671   3.993   4.265   3.457  0.6268  0.3089  2.1344
    1SOL    MW4 8672   4.059   4.209   3.443  0.2551  0.1721  0.8593
    1SOL     OW 8673   4.288   4.365   3.539  0.3207 -0.2725 -0.0654
    1SOL    HW2 8674   4.295   4.358   3.634 -0.3435  0.1191  0.0136
    1SOL    HW3 8675   4.209   4.316   3.516  0.0319  0.3051 -0.3232
    1SOL    MW4 8676   4.279   4.358   3.548  0.1950 -0.1445 -0.0892
    1SOL     OW 8677   0.223   4.630   3.873 -0.1139  0.4000 -0.1682
    1SOL    HW2 8678   0.228   4.630   3.969 -1.8575  0.2801 -0.0678
    1SOL    HW3 8679   0.141   4.675   3.854  0.1262  0.2309 -1.6129
    1SOL    MW4 8680   0.213   4.636   3.883 -0.3123  0.3624 -0.3455
    1SOL     OW 8681   0.003   0.131   3.787  0.4776 -0.4642 -0.5646
    1SOL    HW2 8682   0.016   0.225   3.800  2.4034 -0.5237 -1.8208
    1SOL    HW3 8683  -0.011   0.122   3.693 -2.9135 -1.1324 -0.0813
    1SOL    MW4 8684   0.003   0.143   3.776  0.2843 -0.5602 -0.6666
    1SOL     OW 8685   0.043   0.400   3.833 -0.6216  0.2220 -0.0133
    1SOL    HW2 8686  -0.034   0.448   3.802 -0.0700  0.5806 -0.8334
    1SOL    HW3 8687   0.118   0.454   3.808 -0.0101 -0.8699 -0.6152
    1SOL    MW4 8688   0.043   0.413   3.826 -0.4681  0.1253 -0.2007
    1SOL     OW 8689   0.276   0.540   3.779 -0.1606 -0.2611 -0.1640
    1SOL    HW2 8690   0.258   0.631   3.800  0.0024 -0.2207 -0.1957
    1SOL    HW3 8691   0.283   0.539   3.683  0.2897 -0.2215 -0.1333
    1SOL    MW4 8692   0.275   0.552   3.769 -0.0797 -0.2505 -0.1640
    1SOL     OW 8693   0.222   0.792   3.869 -0.4956  0.6919  0.1927
    1SOL    HW2 8694   0.235   0.787   3.964 -1.3874 -0.0116  0.2847
    1SOL    HW3 8695   0.146   0.849   3.859 -2.2221 -1.5489  0.0600
    1SOL    MW4 8696   0.213   0.799   3.881 -0.8411  0.3034  0.1874
    1SOL     OW 8697   4.481   0.937   3.796 -0.3009 -0.1654  0.3434
    1SOL    HW2 8698   4.413   0.881   3.833 -0.1945 -0.1131  0.6265
    1SOL    HW3 8699   4.469   1.021   3.841  0.5898 -0.4521  1.1442
    1SOL    MW4 8700   4.470   0.941   3.807 -0.1698 -0.1963  0.4864
    1SOL     OW 8701   4.469   1.182   3.916 -0.2376  0.0283 -0.0763
    1SOL    HW2 8702   4.392   1.222   3.876 -0.5623 -1.2600 -0.7377
    1SOL    HW3 8703   4.543   1.221   3.870 -0.5072  0.6504  0.0034
    1SOL    MW4 8704   4.469   1.192   3.905 -0.3160 -0.0595 -0.1531
    1SOL     OW 8705   0.209   1.293   3.793 -0.5923 -0.6979  0.3914
    1SOL    HW2 8706   0.229   1.384   3.812 -2.6675 -0.3103  0.8596
    1SOL    HW3 8707   0.212   1.287   3.698 -1.6709  0.1784  0.2902
    1SOL    MW4 8708   0.212   1.304   3.783 -1.0084 -0.5311  0.4399
    1SOL     OW 8709   0.246   1.542   3.916  0.4835  0.0574 -0.3666
    1SOL    HW2 8710   0.246   1.528   4.010 -0.3159  0.1695 -0.3437
    1SOL    HW3 8711   0.158   1.576   3.897 -0.0313 -1.8014 -1.4209
    1SOL    MW4 8712   0.234   1.545   3.926  0.3101 -0.1730 -0.5028
    1SOL     OW 8713   4.475   1.650   3.834  0.0320 -0.1406 -0.0624
    1SOL    HW2 8714   4.490   1.744   3.843  1.0050 -0.2420 -0.5567
    1SOL    HW3 8715   4.469   1.635   3.740 -1.3903 -0.3944  0.0519
    1SOL    MW4 8716   4.476   1.660   3.823 -0.0272 -0.1874 -0.1125
    1SOL     OW 8717   0.017   1.918   3.876  0.0872 -0.1435 -0.2593
    1SOL    HW2 8718   0.007   1.930   3.971 -0.5939  2.3671 -0.6143
    1SOL    HW3 8719  -0.071   1.933   3.841  0.1744 -1.8310 -1.2416
    1SOL    MW4 8720   0.004   1.921   3.884  0.0089 -0.0349 -0.4358
    1SOL     OW 8721   0.222   2.054   3.741 -0.1422 -0.2894 -0.0906
    1SOL    HW2 8722   0.219   2.145   3.771  1.2239  0.2792 -1.6455
    1SOL    HW3 8723   0.152   2.011   3.791 -1.8971  1.9628 -0.4934
    1SOL    MW4 8724   0.212   2.060   3.751 -0.1935  0.0827 -0.3490
    1SOL     OW 8725   0.232   2.284   3.864 -0.0413 -0.1950 -0.5518
    1SOL    HW2 8726   0.228   2.264   3.958 -1.1273 -0.9735 -0.7588
    1SOL    HW3 8727   0.147   2.324   3.844  1.2198  2.5636 -0.6382
    1SOL    MW4 8728   0.220   2.287   3.874 -0.0182  0.0660 -0.5906
    1SOL     OW 8729   4.474   2.402   3.798 -0.3787  0.3096 -0.7145
    1SOL    HW2 8730   4.402   2.348   3.830 -1.4638  1.5336 -1.0634
    1SOL    HW3 8731   4.473   2.480   3.854  0.5107  0.4521 -0.8840
    1SOL    MW4 8732   4.464   2.405   3.810 -0.4044  0.4900 -0.7830
    1SOL     OW 8733   4.469   2.651   3.907 -0.3018 -0.0311  0.3339
    1SOL    HW2 8734   4.448   2.669   3.999 -1.4182 -0.3385  0.1528
    1SOL    HW3 8735   4.534   2.717   3.884  0.2527 -0.1689  1.4482
    1SOL    MW4 8736   4.475   2.662   3.916 -0.3757 -0.0899  0.4568
    1SOL     OW 8737   0.206   2.791   3.816 -0.0556 -0.1196 -0.6065
    1SOL    HW2 8738   0.290   2.765   3.855 -1.3359 -0.2876  2.0776
    1SOL    HW3 8739   0.230   2.822   3.728  2.5256 -2.5584 -0.8639
    1SOL    MW4 8740   0.220   2.791   3.809  0.1160 -0.4635 -0.2866
    1SOL     OW 8741   0.231   3.052   3.922 -0.3319 -0.0060 -0.4702
    1SOL    HW2 8742   0.222   3.052   4.017  1.0961 -0.6045 -0.3257
    1SOL    HW3 8743   0.232   2.959   3.897  2.8604 -0.0053 -0.6685
    1SOL    MW4 8744   0.230   3.040   3.931  0.2777 -0.0849 -0.4771
    1SOL     OW 8745   4.476   3.127   3.815  0.6521 -0.0226  0.1148
    1SOL    HW2 8746   4.564   3.094   3.835  1.5004  1.5054 -1.0323
    1SOL    HW3 8747   4.486   3.170   3.730 -0.7394  2.0163  0.9709
    1SOL    MW4 8748   4.489   3.128   3.806  0.5803  0.4482  0.0763
    1SOL     OW 8749   4.457   3.423   3.887 -0.3010  0.2959 -0.1756
    1SOL    HW2 8750   4.543   3.465   3.882 -0.4140  0.5056 -0.3456
    1SOL    HW3 8751   4.472   3.334   3.856 -0.2466  0.4827 -0.6855
    1SOL    MW4 8752   4.470   3.417   3.882 -0.3090  0.3483 -0.2654
    1SOL     OW 8753   0.207   3.591   3.804  0.2865 -0.1899  0.2300
    1SOL    HW2 8754   0.290   3.564   3.843  0.0449  1.7582  2.1966
    1SOL    HW3 8755   0.192   3.679   3.837 -1.5317  0.3079 -1.8019
    1SOL    MW4 8756   0.216   3.599   3.813  0.0147  0.1328  0.2210
    1SOL     OW 8757   0.182   3.847   3.885  0.3868  0.3962  0.2164
    1SOL    HW2 8758   0.164   3.845   3.979  0.1759 -2.3682  0.1520
    1SOL    HW3 8759   0.265   3.896   3.879  1.7807 -1.5986  2.1165
    1SOL    MW4 8760   0.191   3.854   3.897  0.5429 -0.2320  0.4587
    1SOL     OW 8761   4.479   3.984   3.773  0.3624 -0.1860  0.3271
    1SOL    HW2 8762   4.403   3.945   3.817  0.7041  1.4103  2.4253
    1SOL    HW3 8763   4.553   3.929   3.800  0.3739 -0.0216  0.6283
    1SOL    MW4 8764   4.478   3.972   3.782  0.4091  0.0460  0.6435
    1SOL     OW 8765   0.004   4.222   3.917  1.0846  0.2793  0.2288
    1SOL    HW2 8766   0.081   4.265   3.880  0.5212  1.0160 -0.1227
    1SOL    HW3 8767  -0.009   4.145   3.862 -0.0996  1.6801 -1.5544
    1SOL    MW4 8768   0.012   4.218   3.905  0.8540  0.5608 -0.0527
    1SOL     OW 8769   0.219   4.364   3.796  0.1628 -0.4648  0.4075
    1SOL    HW2 8770   0.284   4.322   3.852 -0.0542 -0.6279  0.5354
    1SOL    HW3 8771   0.219   4.456   3.823  1.2512 -0.1970 -0.4483
    1SOL    MW4 8772   0.228   4.371   3.807  0.2777 -0.4506  0.3116
    1SOL     OW 8773   0.696   4.647   3.872  0.2492  0.1221  0.0322
    1SOL    HW2 8774   0.697   4.555   3.842  0.1028 -0.2530  1.1648
    1SOL    HW3 8775   0.613   4.681   3.840 -0.2395 -0.4907  0.6469
    1SOL    MW4 8776   0.685   4.639   3.864  0.1654 -0.0076  0.2630
    1SOL     OW 8777   0.449   0.094   3.775 -0.2531  0.3136 -0.3480
    1SOL    HW2 8778   0.454   0.179   3.818 -0.2331  0.9868 -1.6376
    1SOL    HW3 8779   0.371   0.052   3.812 -0.6355  1.1661 -0.1872
    1SOL    MW4 8780   0.439   0.100   3.785 -0.3009  0.5149 -0.4969
    1SOL     OW 8781   0.455   0.351   3.907 -0.0407  0.2113 -0.6969
    1SOL    HW2 8782   0.516   0.406   3.857  0.9960 -1.0787 -0.8750
    1SOL    HW3 8783   0.373   0.400   3.907  0.2311  0.7123 -2.7870
    1SOL    MW4 8784   0.452   0.365   3.901  0.1320  0.1073 -0.9966
    1SOL     OW 8785   0.654   0.519   3.784  0.1652 -0.3511 -0.0342
    1SOL    HW2 8786   0.733   0.476   3.815  0.5594 -0.1973 -0.8165
    1SOL    HW3 8787   0.650   0.602   3.832  0.3043 -0.5030  0.2378
    1SOL    MW4 8788   0.664   0.524   3.795  0.2357 -0.3508 -0.1016
    1SOL     OW 8789   0.652   0.798   3.891 -0.0408 -0.7160 -0.0185
    1SOL    HW2 8790   0.733   0.830   3.850  0.2925  0.8625  1.7492
    1SOL    HW3 8791   0.582   0.842   3.843  0.2560 -0.4416 -0.2107
    1SOL    MW4 8792   0.654   0.808   3.880  0.0423 -0.4716  0.1895
    1SOL     OW 8793   0.436   0.904   3.764 -0.4248 -0.0552  0.4759
    1SOL    HW2 8794   0.436   0.989   3.809 -0.3579 -0.0595  0.4838
    1SOL    HW3 8795   0.356   0.861   3.794 -1.0398  0.4669 -0.3875
    1SOL    MW4 8796   0.425   0.910   3.774 -0.4971  0.0131  0.3633
    1SOL     OW 8797   0.428   1.155   3.899 -0.1023 -0.3025  0.3865
    1SOL    HW2 8798   0.507   1.183   3.854  0.0989 -0.6575  0.5202
    1SOL    HW3 8799   0.362   1.220   3.873 -0.2694 -1.0990 -1.2833
    1SOL    MW4 8800   0.430   1.167   3.889 -0.0978 -0.4543  0.1838
    1SOL     OW 8801   0.707   1.253   3.809  0.3520  0.3353  0.2651
    1SOL    HW2 8802   0.786   1.205   3.834  0.7342  0.6607 -0.3333
    1SOL    HW3 8803   0.705   1.248   3.713  0.0041  0.8966  0.2424
    1SOL    MW4 8804   0.717   1.246   3.800  0.3565  0.4523  0.1831
    1SOL     OW 8805   0.668   1.534   3.853 -0.2031  0.5322  0.6092
    1SOL    HW2 8806   0.750   1.568   3.816 -1.1029  0.9810 -1.0123
    1SOL    HW3 8807   0.676   1.439   3.844 -0.9507  0.6719 -2.0088
    1SOL    MW4 8808   0.680   1.526   3.847 -0.4204  0.6099  0.0501
    1SOL     OW 8809   0.448   1.698   3.799  0.2834  0.0767  0.0693
    1SOL    HW2 8810   0.515   1.631   3.816 -0.8801 -1.2349 -0.4558
    1SOL    HW3 8811   0.366   1.658   3.826 -0.2981  1.7235  0.8026
    1SOL    MW4 8812   0.446   1.684   3.804  0.0532  0.1210  0.0970
    1SOL     OW 8813   0.442   1.955   3.878 -0.2188  0.1461 -0.0984
    1SOL    HW2 8814   0.444   1.862   3.856 -0.7436  0.0782  0.1401
    1SOL    HW3 8815   0.363   1.989   3.835 -1.3706 -0.0312  1.8078
    1SOL    MW4 8816   0.432   1.947   3.870 -0.4400  0.1137  0.1845
    1SOL     OW 8817   0.684   2.062   3.786  0.1942  0.4111  0.4462
    1SOL    HW2 8818   0.699   2.150   3.820 -0.7890  0.6063  0.3817
    1SOL    HW3 8819   0.609   2.029   3.835  0.7797 -0.5390  0.7326
    1SOL    MW4 8820   0.676   2.069   3.797  0.1416  0.3114  0.4754
    1SOL     OW 8821   0.691   2.311   3.851  0.0785 -0.2681  0.2005
    1SOL    HW2 8822   0.767   2.366   3.831  0.3692 -1.0133 -0.8158
    1SOL    HW3 8823   0.616   2.364   3.827  0.3608 -0.3740 -0.9306
    1SOL    MW4 8824   0.691   2.325   3.846  0.1541 -0.3808 -0.0827
    1SOL     OW 8825   0.447   2.459   3.800 -0.2603  0.4473 -0.1957
    1SOL    HW2 8826   0.366   2.414   3.825 -0.1083  0.2040 -0.1340
    1SOL    HW3 8827   0.447   2.458   3.704 -0.6459  1.0222 -0.2054
    1SOL    MW4 8828   0.436   2.453   3.791 -0.2911  0.4914 -0.1891
    1SOL     OW 8829   0.453   2.701   3.906  0.8756  0.2945  0.2266
    1SOL    HW2 8830   0.516   2.755   3.858 -0.6771  1.2172 -0.8329
    1SOL    HW3 8831   0.457   2.616   3.862  1.1454  0.4449 -0.0456
    1SOL    MW4 8832   0.462   2.697   3.894  0.7063  0.4361  0.0508
    1SOL     OW 8833   0.623   2.866   3.759 -0.0660  0.0422 -0.0155
    1SOL    HW2 8834   0.693   2.815   3.799 -1.4205  0.0948  2.5189
    1SOL    HW3 8835   0.634   2.853   3.665  3.4624  0.2620  0.3365
    1SOL    MW4 8836   0.633   2.857   3.752  0.2210  0.0782  0.3655
    1SOL     OW 8837   0.661   3.112   3.875 -0.2091  0.1197 -0.2164
    1SOL    HW2 8838   0.665   3.100   3.970 -0.7847 -0.2110 -0.2272
    1SOL    HW3 8839   0.648   3.024   3.841  0.3811  0.1929 -0.6298
    1SOL    MW4 8840   0.659   3.099   3.883 -0.2071  0.0856 -0.2725
    1SOL     OW 8841   0.419   3.228   3.805  0.0630 -0.0167 -0.2780
    1SOL    HW2 8842   0.499   3.186   3.837  0.3612 -0.6933 -1.8890
    1SOL    HW3 8843   0.349   3.181   3.851  0.5793  0.4912  1.0384
    1SOL    MW4 8844   0.420   3.216   3.815  0.1704 -0.0389 -0.3169
    1SOL     OW 8845   0.448   3.500   3.907  0.2168  0.4938  0.2946
    1SOL    HW2 8846   0.503   3.563   3.860 -1.0439 -0.2613 -2.3070
    1SOL    HW3 8847   0.434   3.429   3.844 -0.5996 -1.1298  2.2438
    1SOL    MW4 8848   0.453   3.499   3.893 -0.0573  0.1800  0.2084
    1SOL     OW 8849   0.671   3.636   3.806  0.3688 -0.3924 -0.0285
    1SOL    HW2 8850   0.667   3.723   3.845  1.3939 -0.8537  1.1294
    1SOL    HW3 8851   0.693   3.651   3.714  0.0076  0.5944  0.0496
    1SOL    MW4 8852   0.673   3.649   3.799  0.4565 -0.3228  0.1345
    1SOL     OW 8853   0.654   3.879   3.923  0.0286 -0.2161  0.1200
    1SOL    HW2 8854   0.674   3.855   4.014  1.1353  0.1638 -0.0130
    1SOL    HW3 8855   0.727   3.936   3.897  0.3421 -1.2867 -1.4019
    1SOL    MW4 8856   0.666   3.884   3.932  0.2160 -0.3071 -0.0985
    1SOL     OW 8857   0.418   3.995   3.805 -0.2064 -0.3378 -0.2468
    1SOL    HW2 8858   0.493   3.951   3.846  1.0454  2.0365  0.0959
    1SOL    HW3 8859   0.439   3.993   3.711  0.4422  0.5575 -0.1299
    1SOL    MW4 8860   0.431   3.989   3.798  0.0443  0.0935 -0.1860
    1SOL     OW 8861   0.413   4.259   3.954  0.1153  0.3036  0.0369
    1SOL    HW2 8862   0.488   4.295   3.905 -0.3352  1.6989  0.3598
    1SOL    HW3 8863   0.403   4.171   3.920  2.4558 -0.2176  0.5761
    1SOL    MW4 8864   0.422   4.252   3.943  0.3646  0.4187  0.1507
    1SOL     OW 8865   0.649   4.348   3.809 -0.1914 -0.6751  0.5307
    1SOL    HW2 8866   0.741   4.323   3.817  0.1412  0.5179  0.5183
    1SOL    HW3 8867   0.638   4.370   3.716  0.0306  1.1553  0.9266
    1SOL    MW4 8868   0.660   4.347   3.798 -0.1182 -0.2766  0.5810
    1SOL     OW 8869   1.116   4.390   3.796  0.2979 -0.0763  0.0185
    1SOL    HW2 8870   1.122   4.386   3.700 -1.2365 -2.4545 -0.0307
    1SOL    HW3 8871   1.038   4.339   3.817  0.1637  1.0703  2.5162
    1SOL    MW4 8872   1.107   4.383   3.786  0.0778 -0.2389  0.3417
    1SOL     OW 8873   0.907   0.131   3.790  0.4369 -0.2925 -0.0465
    1SOL    HW2 8874   0.983   0.101   3.838  0.2042 -1.0766 -0.1589
    1SOL    HW3 8875   0.836   0.073   3.818  0.0762 -0.1082 -0.5655
    1SOL    MW4 8876   0.908   0.120   3.800  0.3586 -0.3717 -0.1299
    1SOL     OW 8877   0.894   0.394   3.894  0.2015 -0.3872 -0.1510
    1SOL    HW2 8878   0.896   0.402   3.990 -2.6492  0.1474 -0.1026
    1SOL    HW3 8879   0.896   0.299   3.878  0.9390 -0.4737  0.3987
    1SOL    MW4 8880   0.895   0.382   3.905 -0.0774 -0.3281 -0.0720
    1SOL     OW 8881   1.367   0.361   3.881  0.0685 -0.0103  0.1829
    1SOL    HW2 8882   1.441   0.409   3.844 -0.4404  0.9846  0.4351
    1SOL    HW3 8883   1.378   0.367   3.976  0.1561 -0.6375  0.2148
    1SOL    MW4 8884   1.378   0.368   3.889  0.0128  0.0382  0.2203
    1SOL     OW 8885   1.161   0.728   3.868 -0.2815  0.3274  0.7118
    1SOL    HW2 8886   1.160   0.723   3.964  0.6456  0.5424  0.7374
    1SOL    HW3 8887   1.142   0.638   3.840 -1.1772  0.3973  1.0940
    1SOL    MW4 8888   1.158   0.715   3.877 -0.2774  0.3650  0.7656
    1SOL     OW 8889   0.927   0.857   3.783  0.0111 -0.2796 -0.1640
    1SOL    HW2 8890   1.011   0.811   3.788 -0.6981 -1.5458  0.4393
    1SOL    HW3 8891   0.916   0.876   3.690  0.6602 -0.6909 -0.3302
    1SOL    MW4 8892   0.936   0.853   3.772  0.0032 -0.5009 -0.1063
    1SOL     OW 8893   0.936   1.114   3.896 -0.1009  0.2990  0.2685
    1SOL    HW2 8894   0.941   1.106   3.991  0.1558 -0.4020  0.2049
    1SOL    HW3 8895   0.926   1.023   3.865  0.8866  0.4196 -0.4266
    1SOL    MW4 8896   0.935   1.101   3.904  0.0632  0.2223  0.1686
    1SOL     OW 8897   1.132   1.246   3.749  0.5605 -0.3954 -0.7039
    1SOL    HW2 8898   1.134   1.336   3.779 -0.5106 -0.2195 -1.1371
    1SOL    HW3 8899   1.076   1.200   3.812  1.1577 -0.7751 -0.4424
    1SOL    MW4 8900   1.124   1.252   3.761  0.4981 -0.4222 -0.7265
    1SOL     OW 8901   1.102   1.495   3.818  0.1532 -0.6234 -0.1014
    1SOL    HW2 8902   1.117   1.485   3.912  1.0118  0.5254 -0.1073
    1SOL    HW3 8903   1.183   1.535   3.785 -0.2866 -0.6739 -1.2714
    1SOL    MW4 8904   1.115   1.499   3.826  0.2085 -0.4784 -0.2563
    1SOL     OW 8905   0.902   1.658   3.761  0.3143 -0.0955  0.4088
    1SOL    HW2 8906   0.971   1.597   3.787  0.8576  0.0136 -0.7512
    1SOL    HW3 8907   0.909   1.664   3.666 -0.5836  0.7673  0.3810
    1SOL    MW4 8908   0.912   1.651   3.752  0.2676  0.0328  0.2522
    1SOL     OW 8909   0.901   1.915   3.874 -0.3029 -0.1920 -0.1937
    1SOL    HW2 8910   0.913   1.830   3.831 -0.4073 -0.5852  0.5515
    1SOL    HW3 8911   0.817   1.946   3.842 -0.0351 -0.1325 -0.8594
    1SOL    MW4 8912   0.892   1.908   3.864 -0.2813 -0.2360 -0.1831
    1SOL     OW 8913   1.126   2.072   3.828  0.1442 -0.5130  0.4153
    1SOL    HW2 8914   1.048   2.021   3.848 -0.1588  0.0363  0.6461
    1SOL    HW3 8915   1.130   2.073   3.732 -0.9267  0.6388  0.3708
    1SOL    MW4 8916   1.116   2.066   3.818 -0.0371 -0.2882  0.4399
    1SOL     OW 8917   1.076   2.331   3.951 -0.3944  0.2088  0.1149
    1SOL    HW2 8918   1.121   2.332   4.036 -2.0005 -0.0018  0.9951
    1SOL    HW3 8919   1.076   2.238   3.926  0.5238  0.3346 -0.3657
    1SOL    MW4 8920   1.082   2.319   3.959 -0.4849  0.1976  0.1676
    1SOL     OW 8921   0.891   2.478   3.802 -0.0408  0.5913 -0.5933
    1SOL    HW2 8922   0.880   2.569   3.830 -0.4768  0.4311 -0.2497
    1SOL    HW3 8923   0.965   2.446   3.855 -1.2662  0.0973  0.8545
    1SOL    MW4 8924   0.900   2.486   3.813 -0.2600  0.5052 -0.3572
    1SOL     OW 8925   0.830   2.738   3.893  0.2541  0.2226  0.4045
    1SOL    HW2 8926   0.848   2.713   3.983 -0.5338  0.0954  0.5289
    1SOL    HW3 8927   0.910   2.782   3.864  0.8353 -0.5053  0.8800
    1SOL    MW4 8928   0.843   2.741   3.901  0.2267  0.1097  0.4835
    1SOL     OW 8929   1.094   2.831   3.786  0.6949  0.0921  0.1654
    1SOL    HW2 8930   1.159   2.781   3.835  2.4094  0.5763 -1.5668
    1SOL    HW3 8931   1.099   2.920   3.822 -0.4139 -0.3122  1.3613
    1SOL    MW4 8932   1.103   2.836   3.797  0.7746  0.1025  0.0947
    1SOL     OW 8933   1.143   3.105   3.925  0.0008 -0.4729 -0.1848
    1SOL    HW2 8934   1.205   3.156   3.873  0.0304 -1.0032 -0.6779
    1SOL    HW3 8935   1.057   3.139   3.901  0.0302 -0.5387 -0.3807
    1SOL    MW4 8936   1.140   3.116   3.915  0.0086 -0.5517 -0.2756
    1SOL     OW 8937   0.919   3.212   3.793 -0.6470  0.6323 -0.2672
    1SOL    HW2 8938   0.830   3.178   3.797 -0.3601 -0.1670 -0.5665
    1SOL    HW3 8939   0.935   3.228   3.700  0.2529 -1.2327 -0.4615
    1SOL    MW4 8940   0.910   3.209   3.782 -0.4904  0.2809 -0.3324
    1SOL     OW 8941   0.861   3.473   3.921 -0.4432 -0.3489 -0.0215
    1SOL    HW2 8942   0.855   3.391   3.871 -1.4788  0.4306 -1.1868
    1SOL    HW3 8943   0.782   3.521   3.898  0.6028  1.3850 -0.0746
    1SOL    MW4 8944   0.850   3.468   3.911 -0.4418 -0.0174 -0.1822
    1SOL     OW 8945   1.104   3.577   3.836  0.3672 -0.1565 -0.4788
    1SOL    HW2 8946   1.095   3.669   3.859  0.9426  0.1384 -1.4260
    1SOL    HW3 8947   1.028   3.535   3.875  0.7970  0.4953  1.1282
    1SOL    MW4 8948   1.093   3.584   3.844  0.4998 -0.0317 -0.3917
    1SOL     OW 8949   1.108   3.847   3.894 -0.1736 -0.1513  0.2606
    1SOL    HW2 8950   1.123   3.850   3.988 -0.1580 -1.0558  0.2956
    1SOL    HW3 8951   1.185   3.888   3.855  0.1398 -0.4022  0.6158
    1SOL    MW4 8952   1.120   3.852   3.901 -0.1301 -0.3035  0.3121
    1SOL     OW 8953   0.877   3.971   3.770 -0.1779 -0.0080  0.5971
    1SOL    HW2 8954   0.958   3.921   3.779  0.2183  0.5143  0.0357
    1SOL    HW3 8955   0.870   3.988   3.676 -0.1474  1.2446  0.8093
    1SOL    MW4 8956   0.886   3.966   3.759 -0.1216  0.2263  0.5510
    1SOL     OW 8957   0.893   4.233   3.858  0.3325  0.1928  0.1650
    1SOL    HW2 8958   0.876   4.234   3.952  3.7838 -0.6547  0.8917
    1SOL    HW3 8959   0.892   4.140   3.834  0.7309  0.3176 -0.3622
    1SOL    MW4 8960   0.891   4.221   3.867  0.8405  0.0973  0.1912
    1SOL     OW 8961   1.324   4.231   3.904 -0.4425 -0.7898 -0.4942
    1SOL    HW2 8962   1.249   4.287   3.882  0.6052  0.4670 -0.8696
    1SOL    HW3 8963   1.401   4.282   3.878  0.6034 -1.5914  1.0086
    1SOL    MW4 8964   1.324   4.245   3.897 -0.1663 -0.7300 -0.3455
    1SOL     OW 8965   1.564   4.636   3.878 -0.0129 -0.2996 -0.4604
    1SOL    HW2 8966   1.491   4.673   3.829  0.6505 -0.8120 -1.8943
    1SOL    HW3 8967   1.570   4.546   3.847  1.7754 -0.0023 -1.0322
    1SOL    MW4 8968   1.555   4.629   3.867  0.3105 -0.3281 -0.7250
    1SOL     OW 8969   1.330   0.123   3.757 -0.4386  0.7844 -0.5257
    1SOL    HW2 8970   1.260   0.075   3.801  0.9247 -0.7811 -0.0292
    1SOL    HW3 8971   1.336   0.205   3.805 -0.5000  0.0375  0.7974
    1SOL    MW4 8972   1.322   0.127   3.769 -0.2668  0.4793 -0.2856
    1SOL     OW 8973   1.134   0.467   3.773 -0.2002  0.0430 -0.5260
    1SOL    HW2 8974   1.056   0.433   3.817 -0.4660 -0.1620 -1.1439
    1SOL    HW3 8975   1.207   0.428   3.821 -0.4974 -1.1387 -0.9989
    1SOL    MW4 8976   1.133   0.457   3.785 -0.2744 -0.1400 -0.6697
    1SOL     OW 8977   1.593   0.477   3.775 -0.1044  0.2486  0.1540
    1SOL    HW2 8978   1.668   0.427   3.807 -0.7499 -0.8271  0.0344
    1SOL    HW3 8979   1.601   0.563   3.816  2.4445  0.9279 -1.6825
    1SOL    MW4 8980   1.604   0.481   3.785  0.1466  0.1963 -0.1037
    1SOL     OW 8981   1.599   0.729   3.873  0.0557  0.1488  0.1465
    1SOL    HW2 8982   1.676   0.785   3.861  0.6970 -1.2181 -2.5468
    1SOL    HW3 8983   1.524   0.787   3.854  0.4672  1.1229  1.4169
    1SOL    MW4 8984   1.599   0.744   3.869  0.1947  0.0969 -0.0412
    1SOL     OW 8985   1.386   0.859   3.773  0.1316  0.3688  0.0919
    1SOL    HW2 8986   1.366   0.949   3.799 -0.1225  0.0356  1.0502
    1SOL    HW3 8987   1.312   0.808   3.805 -0.0284 -0.0909 -1.0028
    1SOL    MW4 8988   1.374   0.864   3.781  0.0769  0.2643  0.0741
    1SOL     OW 8989   1.371   1.142   3.864  0.4989  0.0820 -0.5074
    1SOL    HW2 8990   1.290   1.181   3.831  1.0152  0.4509 -1.3920
    1SOL    HW3 8991   1.439   1.205   3.839  1.0432 -0.1733  0.3124
    1SOL    MW4 8992   1.370   1.156   3.856  0.6390  0.0969 -0.5162
    1SOL     OW 8993   1.581   1.304   3.775  0.1979 -0.5639 -0.0524
    1SOL    HW2 8994   1.666   1.276   3.809 -0.0375 -0.3269  0.7450
    1SOL    HW3 8995   1.579   1.399   3.789  0.7385 -0.2122 -2.1791
    1SOL    MW4 8996   1.592   1.313   3.781  0.2382 -0.4864 -0.2277
    1SOL     OW 8997   1.570   1.567   3.829 -0.1974 -0.2944 -0.1107
    1SOL    HW2 8998   1.565   1.571   3.925  0.5063 -1.3451 -0.0219
    1SOL    HW3 8999   1.657   1.600   3.809 -0.3896  0.0368 -0.4042
    1SOL    MW4 9000   1.581   1.572   3.839 -0.1299 -0.3893 -0.1376
    1SOL     OW 9001   1.317   1.638   3.728 -0.7685 -0.3021 -0.2047
    1SOL    HW2 9002   1.303   1.722   3.771 -1.5359 -0.9505  0.8617
    1SOL    HW3 9003   1.406   1.613   3.751 -0.7235 -0.0303 -0.0843
    1SOL    MW4 9004   1.327   1.646   3.736 -0.8638 -0.3519 -0.0482
    1SOL     OW 9005   1.320   1.876   3.874  0.1422 -0.0158 -0.2002
    1SOL    HW2 9006   1.327   1.887   3.969  2.0797  1.3916 -0.4699
    1SOL    HW3 9007   1.252   1.938   3.848  1.2579  1.3166  0.0019
    1SOL    MW4 9008   1.312   1.886   3.883  0.5450  0.3457 -0.2089
    1SOL     OW 9009   1.534   2.043   3.791  0.4659 -0.3162 -0.1467
    1SOL    HW2 9010   1.450   2.009   3.820 -0.4349  0.0198 -2.2971
    1SOL    HW3 9011   1.532   2.035   3.696  1.9338  1.8158 -0.3937
    1SOL    MW4 9012   1.523   2.037   3.782  0.5409  0.0093 -0.4630
    1SOL     OW 9013   1.766   2.499   4.232  0.1253 -0.1891 -0.3153
    1SOL    HW2 9014   1.695   2.439   4.209  0.2683 -0.3637 -0.3041
    1SOL    HW3 9015   1.771   2.495   4.327  0.7111 -0.8319 -0.3625
    1SOL    MW4 9016   1.758   2.490   4.241  0.2214 -0.2971 -0.3195
    1SOL     OW 9017   1.557   2.328   3.867 -0.6152  0.1464 -0.6490
    1SOL    HW2 9018   1.630   2.379   3.833 -0.2868  0.8868  1.1119
    1SOL    HW3 9019   1.563   2.244   3.822  2.0725 -0.2576  0.3562
    1SOL    MW4 9020   1.567   2.323   3.857 -0.2171  0.1907 -0.2842
    1SOL     OW 9021   1.283   2.410   3.767  0.2426 -0.0065 -0.2865
    1SOL    HW2 9022   1.362   2.381   3.812 -0.2563 -2.8077 -1.1062
    1SOL    HW3 9023   1.210   2.375   3.819 -0.4130  0.3227 -0.9657
    1SOL    MW4 9024   1.284   2.402   3.780  0.0902 -0.3328 -0.4842
    1SOL     OW 9025   1.561   2.832   3.752  0.3277 -0.3171 -0.3434
    1SOL    HW2 9026   1.484   2.790   3.791 -0.8641  1.9981 -0.1165
    1SOL    HW3 9027   1.548   2.823   3.658  0.1643 -0.5999 -0.2951
    1SOL    MW4 9028   1.549   2.825   3.745  0.1489 -0.0491 -0.3071
    1SOL     OW 9029   1.529   3.097   3.860  0.7175  0.5631  0.2752
    1SOL    HW2 9030   1.614   3.140   3.850  1.3699 -0.8517 -0.4325
    1SOL    HW3 9031   1.535   3.019   3.805 -0.5817 -0.2151  1.1974
    1SOL    MW4 9032   1.541   3.092   3.852  0.6322  0.2737  0.3035
    1SOL     OW 9033   1.326   3.254   3.760 -0.4652  0.2436 -0.0802
    1SOL    HW2 9034   1.328   3.342   3.798  1.0158  0.9493 -1.7514
    1SOL    HW3 9035   1.387   3.203   3.814 -0.0884  0.6443 -0.1342
    1SOL    MW4 9036   1.334   3.258   3.772 -0.2201  0.3898 -0.3078
    1SOL     OW 9037   1.340   3.469   3.926  0.3666 -0.1001  0.0487
    1SOL    HW2 9038   1.400   3.526   3.879  0.1373  1.7267  1.8962
    1SOL    HW3 9039   1.254   3.510   3.915 -0.3764 -2.0116 -1.5262
    1SOL    MW4 9040   1.337   3.482   3.918  0.2384 -0.1113  0.0849
    1SOL     OW 9041   1.544   3.614   3.771 -0.4634 -0.2770  0.1013
    1SOL    HW2 9042   1.621   3.570   3.805 -0.3101 -0.2787 -0.2466
    1SOL    HW3 9043   1.543   3.699   3.816 -0.5834 -0.5086  0.5348
    1SOL    MW4 9044   1.554   3.620   3.781 -0.4588 -0.3078  0.1125
    1SOL     OW 9045   1.551   3.878   3.888  0.3251  0.0998 -0.2128
    1SOL    HW2 9046   1.540   3.875   3.983  0.7193  0.0771 -0.1700
    1SOL    HW3 9047   1.471   3.922   3.856  1.4827  2.7362  0.3554
    1SOL    MW4 9048   1.539   3.884   3.896  0.5300  0.4444 -0.1321
    1SOL     OW 9049   1.309   3.986   3.807 -0.1289 -0.2150  0.4378
    1SOL    HW2 9050   1.315   4.074   3.843  1.4147 -0.3029  0.4580
    1SOL    HW3 9051   1.312   3.999   3.712 -1.6152 -0.1421  0.3993
    1SOL    MW4 9052   1.310   3.999   3.799 -0.1214 -0.2170  0.4356
    1SOL     OW 9053   0.929   1.419   4.821  0.2309  0.0914 -0.1726
    1SOL    HW2 9054   0.942   1.405   4.915 -1.5355 -0.5066  0.0084
    1SOL    HW3 9055   0.851   1.474   4.816 -0.0279 -0.3672 -1.3033
    1SOL    MW4 9056   0.921   1.424   4.832 -0.0363 -0.0479 -0.2980
    1SOL     OW 9057   1.556   4.372   3.799  0.6734  0.2827 -0.0982
    1SOL    HW2 9058   1.639   4.338   3.830  0.1234 -1.3674 -0.4090
    1SOL    HW3 9059   1.558   4.360   3.704  0.7902  1.8385 -0.3063
    1SOL    MW4 9060   1.567   4.366   3.790  0.6163  0.2708 -0.1664
    1SOL     OW 9061   2.021   4.646   3.885  0.1015 -0.2703 -0.0324
    1SOL    HW2 9062   2.092   4.692   3.841 -0.2335 -0.0747 -0.3757
    1SOL    HW3 9063   2.034   4.554   3.863  1.1374 -0.4141  1.1730
    1SOL    MW4 9064   2.032   4.640   3.876  0.1941 -0.2632  0.0811
    1SOL     OW 9065   1.781   0.051   3.743 -0.2361 -0.0075  0.0419
    1SOL    HW2 9066   1.844   0.009   3.801 -0.0970 -0.3540 -0.3575
    1SOL    HW3 9067   1.696   0.024   3.778 -0.1502 -0.3924 -0.0433
    1SOL    MW4 9068   1.778   0.042   3.755 -0.2065 -0.1040 -0.0222
    1SOL     OW 9069   1.805   0.312   3.864 -0.0494  0.2587 -0.1966
    1SOL    HW2 9070   1.818   0.314   3.959 -1.2012  0.1929 -0.0393
    1SOL    HW3 9071   1.783   0.221   3.844 -2.4854  0.8228 -0.1690
    1SOL    MW4 9072   1.804   0.300   3.874 -0.5229  0.3244 -0.1721
    1SOL     OW 9073   2.035   0.449   3.815  0.2700  0.1188 -0.3550
    1SOL    HW2 9074   1.953   0.400   3.819  0.0721  0.4960  0.2569
    1SOL    HW3 9075   2.049   0.466   3.722  0.2841 -1.0145 -0.5637
    1SOL    MW4 9076   2.026   0.445   3.803  0.2460  0.0190 -0.3016
    1SOL     OW 9077   2.011   0.720   3.903 -0.4378  0.3301 -0.0732
    1SOL    HW2 9078   2.051   0.720   3.989  0.9640 -0.5816 -0.7113
    1SOL    HW3 9079   2.008   0.628   3.877 -0.5581  0.6171 -1.1280
    1SOL    MW4 9080   2.016   0.708   3.911 -0.2685  0.2477 -0.2964
    1SOL     OW 9081   1.804   0.897   3.811 -0.3868  0.6233 -0.4479
    1SOL    HW2 9082   1.874   0.837   3.839  0.0167  1.8208  1.2006
    1SOL    HW3 9083   1.798   0.885   3.717  0.4505 -1.1989 -0.2956
    1SOL    MW4 9084   1.812   0.887   3.803 -0.2230  0.5409 -0.2103
    1SOL     OW 9085   1.830   1.186   3.871 -0.3100 -0.6392  0.1078
    1SOL    HW2 9086   1.827   1.198   3.966  1.4285 -1.0416  0.2336
    1SOL    HW3 9087   1.837   1.091   3.858 -1.7142 -0.6757 -0.4714
    1SOL    MW4 9088   1.831   1.175   3.882 -0.2658 -0.6973  0.0482
    1SOL     OW 9089   2.060   1.271   3.758 -0.3808  0.6471  0.2167
    1SOL    HW2 9090   2.130   1.217   3.794 -0.3101  0.5070 -0.1301
    1SOL    HW3 9091   1.980   1.237   3.797 -0.2601  0.7897  0.5929
    1SOL    MW4 9092   2.059   1.260   3.767 -0.3555  0.6474  0.2208
    1SOL     OW 9093   2.048   1.513   3.906  0.2829  0.0525 -0.0640
    1SOL    HW2 9094   1.968   1.556   3.873  0.2545  0.7229  0.8770
    1SOL    HW3 9095   2.060   1.439   3.846 -0.6515  0.3451 -0.6464
    1SOL    MW4 9096   2.039   1.509   3.893  0.1557  0.1795 -0.0167
    1SOL     OW 9097   1.832   1.642   3.798  0.2661  0.2715  0.1179
    1SOL    HW2 9098   1.853   1.733   3.821  0.9811 -0.0182  0.5947
    1SOL    HW3 9099   1.828   1.642   3.702 -0.9069  1.0659  0.1462
    1SOL    MW4 9100   1.834   1.654   3.788  0.2058  0.3381  0.1845
    1SOL     OW 9101   1.795   1.917   3.884 -0.3188  0.2404 -0.3075
    1SOL    HW2 9102   1.797   1.930   3.979 -1.3052  0.4795 -0.3097
    1SOL    HW3 9103   1.717   1.964   3.856  0.7274  1.3376 -1.4268
    1SOL    MW4 9104   1.785   1.925   3.893 -0.3109  0.4169 -0.4554
    1SOL     OW 9105   2.013   2.038   3.793  0.4052  0.1113  0.2615
    1SOL    HW2 9106   1.929   2.006   3.827 -0.4688  1.6912 -0.3152
    1SOL    HW3 9107   2.005   2.028   3.698  0.5208  1.0099  0.1458
    1SOL    MW4 9108   2.001   2.033   3.785  0.3052  0.4382  0.1700
    1SOL     OW 9109   2.009   2.300   3.891  0.4111  0.3657 -0.0777
    1SOL    HW2 9110   2.011   2.209   3.861  2.5986  0.7833 -1.3044
    1SOL    HW3 9111   1.944   2.342   3.835  0.7694 -0.0221 -0.7926
    1SOL    MW4 9112   2.001   2.293   3.879  0.7472  0.3698 -0.3340
    1SOL     OW 9113   1.803   2.450   3.776 -0.3458 -0.2388  0.0216
    1SOL    HW2 9114   1.795   2.542   3.801 -1.4519 -0.1676 -0.5561
    1SOL    HW3 9115   1.798   2.450   3.681  0.2930 -0.8424 -0.0152
    1SOL    MW4 9116   1.801   2.462   3.767 -0.4075 -0.3090 -0.0596
    1SOL     OW 9117   1.789   2.716   3.835 -0.1372 -0.5321  0.2013
    1SOL    HW2 9118   1.790   2.726   3.930 -1.0065  0.1696  0.1475
    1SOL    HW3 9119   1.708   2.760   3.807 -0.4941 -1.7719 -0.7507
    1SOL    MW4 9120   1.778   2.723   3.844 -0.2989 -0.6032  0.0687
    1SOL     OW 9121   2.026   2.832   3.776 -0.1508 -0.1624  0.5575
    1SOL    HW2 9122   2.087   2.785   3.834 -1.2263 -1.4905  0.6351
    1SOL    HW3 9123   1.941   2.792   3.794 -0.9169  1.1384 -0.1298
    1SOL    MW4 9124   2.023   2.821   3.786 -0.3939 -0.1659  0.4771
    1SOL     OW 9125   2.009   3.087   3.879  0.0138 -0.3041  0.4088
    1SOL    HW2 9126   2.078   3.142   3.841 -0.4428 -0.2045 -0.2821
    1SOL    HW3 9127   2.024   3.000   3.842 -2.0380  0.3656 -2.1388
    1SOL    MW4 9128   2.020   3.083   3.869 -0.3169 -0.2027 -0.0188
    1SOL     OW 9129   1.763   3.221   3.826  0.3462 -0.2404 -0.0297
    1SOL    HW2 9130   1.843   3.183   3.862  1.1449  1.0068 -0.4627
    1SOL    HW3 9131   1.776   3.316   3.834 -1.6970 -0.0366  1.2408
    1SOL    MW4 9132   1.775   3.229   3.832  0.1820 -0.0489  0.0808
    1SOL     OW 9133   1.771   3.505   3.872  0.2989 -0.4209  0.2604
    1SOL    HW2 9134   1.853   3.548   3.847  0.5581 -0.4351  1.0830
    1SOL    HW3 9135   1.772   3.504   3.968 -0.7682 -0.2179  0.2840
    1SOL    MW4 9136   1.782   3.511   3.881  0.1923 -0.3960  0.3719
    1SOL     OW 9137   2.027   3.603   3.788 -0.2696 -0.4078 -0.0303
    1SOL    HW2 9138   2.105   3.552   3.809  1.3038  1.8582 -0.2223
    1SOL    HW3 9139   2.043   3.635   3.700 -1.1245  0.6026  0.1801
    1SOL    MW4 9140   2.039   3.601   3.779 -0.1748  0.0243 -0.0279
    1SOL     OW 9141   1.983   3.844   3.890  0.1300 -0.3686 -0.1819
    1SOL    HW2 9142   2.062   3.894   3.868 -0.6018  1.3934  1.1074
    1SOL    HW3 9143   2.006   3.754   3.870  2.2331  0.2119 -0.4950
    1SOL    MW4 9144   1.997   3.839   3.884  0.3108 -0.0594 -0.0532
    1SOL     OW 9145   1.783   4.014   3.782 -0.6323  0.1457 -0.2083
    1SOL    HW2 9146   1.857   3.960   3.810  0.1005  0.2196 -1.9159
    1SOL    HW3 9147   1.709   3.983   3.835  0.7361  0.5194  1.9854
    1SOL    MW4 9148   1.783   4.003   3.793 -0.3551  0.2050 -0.1440
    1SOL     OW 9149   1.806   4.260   3.888  0.6482  0.2966  0.1520
    1SOL    HW2 9150   1.811   4.175   3.845 -0.8016  1.5541 -2.5763
    1SOL    HW3 9151   1.888   4.303   3.865  0.4440  0.4603 -0.2776
    1SOL    MW4 9152   1.817   4.254   3.880  0.4299  0.4835 -0.2646
    1SOL     OW 9153   2.277   4.240   3.892  0.0885 -0.3868  0.2000
    1SOL    HW2 9154   2.249   4.239   3.984 -1.9974  0.0546 -0.4061
    1SOL    HW3 9155   2.252   4.153   3.859  0.0724 -0.2469 -0.1613
    1SOL    MW4 9156   2.270   4.228   3.900 -0.1888 -0.3099  0.0727
    1SOL     OW 9157   2.479   4.630   3.873  0.4376  0.2017  0.2072
    1SOL    HW2 9158   2.458   4.631   3.967 -2.3548  1.0589 -0.3705
    1SOL    HW3 9159   2.550   4.692   3.863 -0.2576  1.2351  1.5606
    1SOL    MW4 9160   2.486   4.638   3.884 -0.0226  0.4506  0.3097
    1SOL     OW 9161   2.255   0.094   3.793 -0.6190  0.3295  0.6996
    1SOL    HW2 9162   2.332   0.039   3.810 -0.1547  1.2318  1.5196
    1SOL    HW3 9163   2.253   0.104   3.698  0.0402 -0.0259  0.6466
    1SOL    MW4 9164   2.265   0.088   3.783 -0.4709  0.4017  0.8011
    1SOL     OW 9165   2.241   0.324   3.958  0.0170  0.2405  0.3528
    1SOL    HW2 9166   2.248   0.245   3.906  0.4177  0.3568  0.2228
    1SOL    HW3 9167   2.163   0.368   3.926 -0.2918 -0.1784  0.5335
    1SOL    MW4 9168   2.232   0.320   3.947  0.0293  0.2006  0.3595
    1SOL     OW 9169   2.428   0.527   3.861 -0.1855 -0.0994 -0.5677
    1SOL    HW2 9170   2.372   0.463   3.903 -1.4601  1.4689  0.1621
    1SOL    HW3 9171   2.422   0.507   3.767 -2.0347  0.0870 -0.5052
    1SOL    MW4 9172   2.420   0.516   3.854 -0.5972  0.1320 -0.4632
    1SOL     OW 9173   2.465   0.806   3.943  0.3394  0.3174 -0.2206
    1SOL    HW2 9174   2.379   0.836   3.912 -0.1833 -1.0256 -0.0845
    1SOL    HW3 9175   2.469   0.715   3.916  0.8565 -0.2140  1.6223
    1SOL    MW4 9176   2.454   0.798   3.935  0.3388  0.0700  0.0408
    1SOL     OW 9177   2.226   0.906   3.831 -0.0328  0.0805 -0.1183
    1SOL    HW2 9178   2.147   0.852   3.842  0.2691 -0.7578 -1.9121
    1SOL    HW3 9179   2.241   0.906   3.737  1.7229  0.8239  0.1598
    1SOL    MW4 9180   2.217   0.899   3.820  0.2389  0.0681 -0.3181
    1SOL     OW 9181   2.272   1.166   3.892  0.2278  0.0445 -0.0177
    1SOL    HW2 9182   2.282   1.183   3.985  0.5382 -0.0627 -0.0291
    1SOL    HW3 9183   2.240   1.076   3.887  0.4385 -0.0310 -0.0215
    1SOL    MW4 9184   2.269   1.157   3.903  0.2964  0.0201 -0.0200
    1SOL     OW 9185   2.447   1.275   3.716 -0.0699 -0.3679 -0.4376
    1SOL    HW2 9186   2.465   1.357   3.762  0.6532 -0.1377 -1.1122
    1SOL    HW3 9187   2.387   1.228   3.773  1.7407 -0.5972  1.3165
    1SOL    MW4 9188   2.442   1.280   3.729  0.2644 -0.3678 -0.2952
    1SOL     OW 9189   2.694   1.691   3.736 -0.6076  0.5032 -0.4699
    1SOL    HW2 9190   2.775   1.649   3.765 -0.6714  0.6761 -0.0297
    1SOL    HW3 9191   2.698   1.689   3.641 -0.3888 -0.0730 -0.4505
    1SOL    MW4 9192   2.705   1.685   3.728 -0.5872  0.4501 -0.4091
    1SOL     OW 9193   2.252   1.654   3.788  0.0854 -0.0385 -0.3799
    1SOL    HW2 9194   2.254   1.742   3.826 -0.0101  0.1175 -0.7326
    1SOL    HW3 9195   2.176   1.613   3.829 -0.6003  0.4665 -1.1330
    1SOL    MW4 9196   2.242   1.660   3.798 -0.0176  0.0488 -0.5257
    1SOL     OW 9197   2.217   1.906   3.910  0.0570  0.3093  0.4026
    1SOL    HW2 9198   2.211   1.920   4.005 -0.0228  1.6347  0.2003
    1SOL    HW3 9199   2.141   1.952   3.874  1.1515  1.4263 -0.4804
    1SOL    MW4 9200   2.206   1.914   3.918  0.1910  0.6317  0.2592
    1SOL     OW 9201   2.413   2.086   3.794  0.0913  0.5139 -0.1146
    1SOL    HW2 9202   2.424   2.157   3.856 -0.5104  1.0491 -0.6079
    1SOL    HW3 9203   2.337   2.038   3.825  0.9597 -0.3792  0.6521
    1SOL    MW4 9204   2.404   2.089   3.806  0.1266  0.4668 -0.0784
    1SOL     OW 9205   2.423   2.301   3.964 -0.0108  0.3686  0.5273
    1SOL    HW2 9206   2.356   2.348   3.915 -0.1034  0.4841  0.7694
    1SOL    HW3 9207   2.497   2.362   3.969  1.1454 -0.7006 -2.0875
    1SOL    MW4 9208   2.424   2.315   3.958  0.1295  0.2427  0.2143
    1SOL     OW 9209   2.236   2.441   3.833 -0.1512 -0.1505  0.0486
    1SOL    HW2 9210   2.153   2.402   3.860 -0.6907  0.2167 -1.0567
    1SOL    HW3 9211   2.237   2.432   3.738  0.4231  1.1179 -0.0731
    1SOL    MW4 9212   2.225   2.435   3.824 -0.1466  0.0656 -0.1135
    1SOL     OW 9213   2.240   2.722   3.943 -0.4266  0.1960 -0.6220
    1SOL    HW2 9214   2.307   2.756   3.883  0.3362 -0.1438  0.0259
    1SOL    HW3 9215   2.239   2.628   3.926  0.0756  0.0411  0.1632
    1SOL    MW4 9216   2.249   2.714   3.932 -0.2596  0.1307 -0.4330
    1SOL     OW 9217   2.450   2.806   3.771  0.3318 -0.1103  0.7306
    1SOL    HW2 9218   2.521   2.761   3.815  1.3643  1.1146  0.3498
    1SOL    HW3 9219   2.449   2.769   3.682  0.9839  0.4061  0.5080
    1SOL    MW4 9220   2.459   2.795   3.765  0.5541  0.1192  0.6511
    1SOL     OW 9221   2.470   3.077   3.871  0.0145  0.0885  0.1638
    1SOL    HW2 9222   2.560   3.109   3.857  0.6074 -1.2382  0.8839
    1SOL    HW3 9223   2.466   2.995   3.821 -0.3367 -0.6044  1.3215
    1SOL    MW4 9224   2.481   3.070   3.862  0.0463 -0.1779  0.4115
    1SOL     OW 9225   2.253   3.215   3.789 -0.0173 -0.3760 -0.1515
    1SOL    HW2 9226   2.242   3.290   3.847 -1.4868 -0.2551 -0.5843
    1SOL    HW3 9227   2.329   3.168   3.824 -0.0659  0.4457  1.0480
    1SOL    MW4 9228   2.262   3.218   3.801 -0.2177 -0.2515 -0.0505
    1SOL     OW 9229   2.231   3.443   3.920  0.4615  0.0624  0.1842
    1SOL    HW2 9230   2.239   3.441   4.016  0.8051 -0.0163  0.1546
    1SOL    HW3 9231   2.311   3.487   3.890 -0.5294  1.8001  0.0376
    1SOL    MW4 9232   2.243   3.448   3.929  0.3762  0.2813  0.1609
    1SOL     OW 9233   2.445   3.564   3.799 -0.1077  0.2800 -0.0512
    1SOL    HW2 9234   2.529   3.529   3.830 -1.1979 -0.4905  2.1460
    1SOL    HW3 9235   2.447   3.656   3.824  0.5449  0.5284 -1.0101
    1SOL    MW4 9236   2.456   3.571   3.806 -0.1655  0.2112  0.1121
    1SOL     OW 9237   2.438   3.827   3.887 -0.1409  0.0254  0.4594
    1SOL    HW2 9238   2.448   3.832   3.982  1.9307 -0.8268  0.2994
    1SOL    HW3 9239   2.523   3.854   3.852 -0.8196  0.1287 -1.1531
    1SOL    MW4 9240   2.450   3.831   3.895  0.0427 -0.0734  0.2258
    1SOL     OW 9241   2.209   3.990   3.803 -0.1007  0.0822  0.0532
    1SOL    HW2 9242   2.280   3.940   3.844 -0.6878 -0.4006  0.4916
    1SOL    HW3 9243   2.233   3.992   3.710  1.4773  1.6026  0.4738
    1SOL    MW4 9244   2.222   3.984   3.796  0.0303  0.2191  0.1667
    1SOL     OW 9245   2.045   4.372   3.802  0.5305 -0.0485  0.1650
    1SOL    HW2 9246   2.041   4.367   3.706  1.0660  1.0566  0.0694
    1SOL    HW3 9247   2.133   4.342   3.823  0.5497  0.0860  0.2761
    1SOL    MW4 9248   2.056   4.367   3.792  0.6034  0.1144  0.1671
    1SOL     OW 9249   2.462   4.383   3.750 -0.0984  0.2007 -0.0104
    1SOL    HW2 9250   2.401   4.332   3.804  0.0194  0.1397  0.0662
    1SOL    HW3 9251   2.472   4.466   3.797  2.4138 -1.0177  1.7107
    1SOL    MW4 9252   2.455   4.387   3.764  0.2487  0.0319  0.2267
    1SOL     OW 9253   2.893   4.604   3.870 -0.2359  0.2242  0.2669
    1SOL    HW2 9254   2.900   4.610   3.965  0.8965 -0.1896  0.2189
    1SOL    HW3 9255   2.973   4.646   3.837  0.2748 -1.2819 -0.4502
    1SOL    MW4 9256   2.905   4.611   3.878 -0.0188 -0.0286  0.1659
    1SOL     OW 9257   2.700   0.131   3.776 -0.5176 -0.1201  0.2549
    1SOL    HW2 9258   2.764   0.064   3.800 -0.6235  0.0645  1.0777
    1SOL    HW3 9259   2.693   0.125   3.681 -0.3917 -1.1576  0.3040
    1SOL    MW4 9260   2.707   0.122   3.767 -0.5147 -0.2326  0.3700
    1SOL     OW 9261   2.689   0.387   3.876  0.2658  0.4508 -0.5698
    1SOL    HW2 9262   2.682   0.297   3.843  1.8697  0.2482 -0.4038
    1SOL    HW3 9263   2.608   0.429   3.847 -0.2251 -0.8720 -1.1857
    1SOL    MW4 9264   2.677   0.381   3.868  0.4125  0.2496 -0.6292
    1SOL     OW 9265   2.933   0.516   3.784 -0.2806  0.0532 -0.5439
    1SOL    HW2 9266   2.933   0.603   3.824 -1.1998 -0.4041  0.4708
    1SOL    HW3 9267   2.848   0.479   3.807  0.0762 -1.0871 -1.0452
    1SOL    MW4 9268   2.922   0.523   3.792 -0.3543 -0.1576 -0.4761
    1SOL     OW 9269   2.906   0.776   3.893 -0.0961 -0.4732 -0.2758
    1SOL    HW2 9270   2.967   0.844   3.863 -0.8204  0.4248  0.2624
    1SOL    HW3 9271   2.916   0.774   3.988  0.2726 -1.4640 -0.3328
    1SOL    MW4 9272   2.915   0.785   3.901 -0.1433 -0.4854 -0.2124
    1SOL     OW 9273   2.665   0.911   3.790 -0.1986 -0.5928  0.3457
    1SOL    HW2 9274   2.744   0.880   3.834 -0.1904 -1.0263  0.0340
    1SOL    HW3 9275   2.593   0.875   3.843 -0.1873 -0.7582  0.2498
    1SOL    MW4 9276   2.666   0.902   3.803 -0.1960 -0.6718  0.2918
    1SOL     OW 9277   2.659   1.188   3.849 -0.2051 -0.3306 -0.0664
    1SOL    HW2 9278   2.588   1.239   3.812  0.0954 -0.6974 -1.1641
    1SOL    HW3 9279   2.631   1.097   3.841 -0.3370 -0.4019  1.0430
    1SOL    MW4 9280   2.646   1.183   3.843 -0.1831 -0.3884 -0.0648
    1SOL     OW 9281   2.892   1.301   3.752  0.0882 -0.0901  0.2609
    1SOL    HW2 9282   2.893   1.390   3.787 -0.7867 -0.2016  0.5785
    1SOL    HW3 9283   2.813   1.261   3.789  0.4908 -1.0077  0.1503
    1SOL    MW4 9284   2.882   1.308   3.762  0.0260 -0.2258  0.2882
    1SOL     OW 9285   2.928   1.566   3.849 -0.0621 -0.1366 -0.2421
    1SOL    HW2 9286   2.905   1.609   3.932  1.2488 -0.0866  0.0979
    1SOL    HW3 9287   2.997   1.620   3.812  0.2482 -0.8743 -0.7536
    1SOL    MW4 9288   2.934   1.579   3.855  0.1519 -0.2273 -0.2649
    1SOL     OW 9289   0.701   2.794   4.316 -0.1353  0.2012 -0.1064
    1SOL    HW2 9290   0.685   2.836   4.400  2.2455  2.6087 -0.7889
    1SOL    HW3 9291   0.616   2.757   4.291 -1.3951  1.3749  2.2755
    1SOL    MW4 9292   0.688   2.794   4.324  0.0126  0.6738  0.1183
    1SOL     OW 9293   2.659   1.951   3.844  0.2158 -0.1400 -0.0548
    1SOL    HW2 9294   2.656   1.865   3.802 -0.2193  0.2236 -0.7752
    1SOL    HW3 9295   2.577   1.994   3.819  1.1417  1.1053 -1.0411
    1SOL    MW4 9296   2.648   1.946   3.835  0.2804  0.0722 -0.2797
    1SOL     OW 9297   2.880   2.087   3.722  0.0394 -0.0833 -0.2467
    1SOL    HW2 9298   2.810   2.043   3.771  0.4267 -0.5376 -0.1008
    1SOL    HW3 9299   2.961   2.052   3.759  0.3523  0.7971 -0.0876
    1SOL    MW4 9300   2.882   2.076   3.733  0.1316 -0.0274 -0.2065
    1SOL     OW 9301   2.662   2.435   3.979  0.3349 -0.2265  0.5501
    1SOL    HW2 9302   2.749   2.415   3.945  0.4602 -1.5626  1.6207
    1SOL    HW3 9303   2.678   2.477   4.064 -0.0507 -0.6247  0.8275
    1SOL    MW4 9304   2.676   2.438   3.986  0.3004 -0.4554  0.7277
    1SOL     OW 9305   2.862   2.379   3.792  0.3018  0.5436 -0.3770
    1SOL    HW2 9306   2.948   2.394   3.831  0.7714  0.1516 -1.2651
    1SOL    HW3 9307   2.859   2.284   3.777 -0.4569  0.4932  0.0385
    1SOL    MW4 9308   2.873   2.368   3.795  0.2635  0.4852 -0.4392
    1SOL     OW 9309   2.672   2.701   3.892 -0.3025  0.5365  0.5566
    1SOL    HW2 9310   2.661   2.742   3.978 -0.4526 -0.4200  0.9980
    1SOL    HW3 9311   2.689   2.609   3.912  0.5291  0.4765 -0.4035
    1SOL    MW4 9312   2.673   2.695   3.906 -0.2127  0.4025  0.4880
    1SOL     OW 9313   2.930   2.792   3.803  0.2590 -0.1955 -0.0200
    1SOL    HW2 9314   2.930   2.880   3.841 -1.2131 -0.0887 -0.2393
    1SOL    HW3 9315   2.848   2.753   3.832  1.3813 -1.8872  0.9365
    1SOL    MW4 9316   2.919   2.799   3.812  0.2129 -0.4046  0.0772
    1SOL     OW 9317   2.906   3.074   3.860 -0.4616  0.0678 -0.1463
    1SOL    HW2 9318   2.989   3.114   3.835 -0.9856 -0.0017 -2.1031
    1SOL    HW3 9319   2.909   3.069   3.955  0.9555  1.8536 -0.0664
    1SOL    MW4 9320   2.917   3.079   3.869 -0.3436  0.2942 -0.3939
    1SOL     OW 9321   2.709   3.209   3.761  0.5868 -0.2342  0.1891
    1SOL    HW2 9322   2.701   3.297   3.797  0.2396 -0.5758  0.9408
    1SOL    HW3 9323   2.780   3.168   3.811  0.8516 -0.3337 -0.2596
    1SOL    MW4 9324   2.717   3.215   3.772  0.5760 -0.2925  0.2291
    1SOL     OW 9325   2.697   3.462   3.878  0.4715 -0.0656  0.1926
    1SOL    HW2 9326   2.708   3.454   3.973  0.7295  1.0242  0.2643
    1SOL    HW3 9327   2.775   3.509   3.848  0.5744 -0.7339 -0.6165
    1SOL    MW4 9328   2.709   3.467   3.887  0.5190 -0.0100  0.0949
    1SOL     OW 9329   2.939   3.583   3.744  0.0994 -0.0309  0.0161
    1SOL    HW2 9330   2.997   3.519   3.785  0.7124  0.2215 -0.4517
    1SOL    HW3 9331   2.939   3.560   3.651  0.3576  0.6725 -0.1642
    1SOL    MW4 9332   2.946   3.572   3.737  0.2143  0.0954 -0.0694
    1SOL     OW 9333   2.942   3.830   3.852 -0.4109 -0.3272 -0.0429
    1SOL    HW2 9334   2.940   3.825   3.947  0.1660 -2.1243 -0.0952
    1SOL    HW3 9335   2.951   3.738   3.824  0.1151  0.2431 -1.7912
    1SOL    MW4 9336   2.943   3.817   3.861 -0.2651 -0.4890 -0.2801
    1SOL     OW 9337   2.681   3.918   3.804  0.2265 -0.1555  0.5690
    1SOL    HW2 9338   2.768   3.884   3.821  0.3598  0.1615  0.5382
    1SOL    HW3 9339   2.683   4.008   3.838 -0.1396 -0.2010  0.7220
    1SOL    MW4 9340   2.693   3.926   3.811  0.1960 -0.1197  0.5851
    1SOL     OW 9341   2.685   4.203   3.808 -0.0935 -0.1400 -0.2814
    1SOL    HW2 9342   2.764   4.257   3.802 -0.2885  0.3118  1.0292
    1SOL    HW3 9343   2.615   4.259   3.773  0.0194 -0.2264 -0.6452
    1SOL    MW4 9344   2.686   4.218   3.803 -0.1044 -0.0920 -0.1559
    1SOL     OW 9345   2.923   4.358   3.776 -0.6903  0.2506 -0.1489
    1SOL    HW2 9346   3.002   4.310   3.803 -1.2706 -0.1550  0.8718
    1SOL    HW3 9347   2.925   4.439   3.828 -0.8441  0.3225 -0.2558
    1SOL    MW4 9348   2.934   4.362   3.787 -0.7875  0.2065 -0.0284
    1SOL     OW 9349   3.375   4.637   3.817 -0.6936  0.1539 -0.0950
    1SOL    HW2 9350   3.371   4.630   3.912  1.3855 -0.4257 -0.0164
    1SOL    HW3 9351   3.459   4.681   3.800 -0.0906 -1.5711 -1.7389
    1SOL    MW4 9352   3.386   4.642   3.827 -0.3397 -0.1502 -0.3014
    1SOL     OW 9353   3.123   0.076   3.780 -0.3785 -0.1049  0.1979
    1SOL    HW2 9354   3.208   0.033   3.790 -1.4953 -2.7970 -1.3996
    1SOL    HW3 9355   3.114   0.090   3.686 -2.0209 -0.5304  0.2749
    1SOL    MW4 9356   3.133   0.072   3.769 -0.7427 -0.5162 -0.0026
    1SOL     OW 9357   3.146   0.338   3.859  0.5126 -0.5164 -0.0167
    1SOL    HW2 9358   3.144   0.243   3.842  1.9544 -0.2996 -1.5700
    1SOL    HW3 9359   3.063   0.370   3.824  0.0526 -1.1964  0.4338
    1SOL    MW4 9360   3.135   0.330   3.852  0.6423 -0.5775 -0.1624
    1SOL     OW 9361   3.368   0.465   3.757  0.0561 -0.1046 -0.3098
    1SOL    HW2 9362   3.444   0.427   3.802  0.6256 -1.4707 -2.3617
    1SOL    HW3 9363   3.293   0.416   3.792  0.3946 -0.5271 -0.1681
    1SOL    MW4 9364   3.368   0.454   3.768  0.1760 -0.3406 -0.5617
    1SOL     OW 9365   3.337   0.743   3.860 -0.0351  0.0193 -0.1340
    1SOL    HW2 9366   3.318   0.739   3.954  0.7474 -0.9655 -0.0138
    1SOL    HW3 9367   3.361   0.653   3.837  0.9454  0.5061 -1.0304
    1SOL    MW4 9368   3.337   0.731   3.870  0.1974 -0.0464 -0.2365
    1SOL     OW 9369   3.103   0.921   3.774  0.3747 -0.0949  0.4867
    1SOL    HW2 9370   3.177   0.862   3.792 -0.4679 -0.8775  1.4045
    1SOL    HW3 9371   3.089   0.913   3.680 -0.3155 -2.0810  0.7365
    1SOL    MW4 9372   3.111   0.912   3.764  0.1724 -0.4601  0.6409
    1SOL     OW 9373   3.145   1.197   3.843  0.8120  0.6306  0.2584
    1SOL    HW2 9374   3.134   1.107   3.812  1.1923  0.8175 -0.4291
    1SOL    HW3 9375   3.069   1.244   3.809  1.0063  0.7366 -0.0394
    1SOL    MW4 9376   3.134   1.192   3.835  0.8879  0.6691  0.1280
    1SOL     OW 9377   3.391   1.278   3.749 -0.2585 -0.0263 -0.5228
    1SOL    HW2 9378   3.388   1.371   3.774 -1.9130 -0.5120  1.2114
    1SOL    HW3 9379   3.312   1.241   3.787  1.1007 -2.4670  0.0130
    1SOL    MW4 9380   3.380   1.286   3.757 -0.2973 -0.4125 -0.2236
    1SOL     OW 9381   3.354   1.515   3.880  0.0107 -0.4135 -0.4332
    1SOL    HW2 9382   3.278   1.572   3.872 -0.1617 -0.9578 -3.2181
    1SOL    HW3 9383   3.424   1.562   3.834  1.1963 -0.2189  1.5196
    1SOL    MW4 9384   3.354   1.529   3.873  0.1442 -0.4597 -0.5431
    1SOL     OW 9385   3.109   1.962   3.828  0.0954  0.1927 -0.5096
    1SOL    HW2 9386   3.199   1.973   3.798 -0.3275  0.9852 -1.5193
    1SOL    HW3 9387   3.117   1.945   3.922  1.2420  1.3066 -0.3955
    1SOL    MW4 9388   3.122   1.961   3.837  0.1907  0.4442 -0.6278
    1SOL     OW 9389   3.136   1.687   3.746 -0.4398 -0.0744  0.1325
    1SOL    HW2 9390   3.135   1.697   3.651  0.5414 -0.8312  0.0309
    1SOL    HW3 9391   3.113   1.774   3.779  1.0341  0.6904 -0.7858
    1SOL    MW4 9392   3.133   1.700   3.738 -0.1159 -0.0734 -0.0021
    1SOL     OW 9393   3.371   2.021   3.760 -0.2318  0.1247  0.4131
    1SOL    HW2 9394   3.351   2.108   3.794  1.2185  1.2333 -1.4728
    1SOL    HW3 9395   3.367   2.030   3.665  0.2861 -1.7830  0.1883
    1SOL    MW4 9396   3.368   2.033   3.752  0.0279  0.0191  0.1349
    1SOL     OW 9397   3.347   2.286   3.832  0.0110  0.0528 -0.5567
    1SOL    HW2 9398   3.433   2.317   3.802  0.7826 -1.3143  0.1922
    1SOL    HW3 9399   3.340   2.319   3.921 -0.7141  1.0426 -0.9650
    1SOL    MW4 9400   3.358   2.294   3.839  0.0172  0.0029 -0.5116
    1SOL     OW 9401   3.167   2.684   3.909 -0.0667 -0.4250 -0.9106
    1SOL    HW2 9402   3.085   2.727   3.887 -0.4438 -0.7113 -0.0943
    1SOL    HW3 9403   3.161   2.598   3.868  0.3679  0.0092 -1.9075
    1SOL    MW4 9404   3.156   2.678   3.901 -0.0587 -0.4055 -0.9344
    1SOL     OW 9405   3.165   2.464   3.736  0.2706 -0.1553  0.1139
    1SOL    HW2 9406   3.165   2.467   3.640 -0.1185 -0.8781  0.0890
    1SOL    HW3 9407   3.221   2.390   3.758 -0.0392 -0.2945  0.4330
    1SOL    MW4 9408   3.172   2.455   3.726  0.1786 -0.2689  0.1528
    1SOL     OW 9409   3.386   2.809   3.801 -0.0235 -0.2991  0.0388
    1SOL    HW2 9410   3.381   2.814   3.706 -0.4626  1.1793  0.1181
    1SOL    HW3 9411   3.305   2.765   3.827 -0.4957  0.4102 -0.2094
    1SOL    MW4 9412   3.375   2.804   3.792 -0.1438 -0.0103  0.0165
    1SOL     OW 9413   3.361   3.093   3.881  0.0034 -0.0684  0.3565
    1SOL    HW2 9414   3.361   3.004   3.846 -1.2108  0.0681 -0.0231
    1SOL    HW3 9415   3.447   3.128   3.859  0.0492 -0.7382 -0.5637
    1SOL    MW4 9416   3.372   3.086   3.873 -0.1509 -0.1388  0.1850
    1SOL     OW 9417   3.130   3.188   3.757  0.2951  0.0789 -0.2883
    1SOL    HW2 9418   3.211   3.148   3.788  0.3509 -0.2546 -0.8563
    1SOL    HW3 9419   3.129   3.171   3.663 -0.4936 -0.0228 -0.2682
    1SOL    MW4 9420   3.140   3.181   3.749  0.1986  0.0215 -0.3607
    1SOL     OW 9421   3.134   3.433   3.893  0.3713  0.2626 -0.4816
    1SOL    HW2 9422   3.207   3.478   3.851  0.0731  0.9175 -0.2896
    1SOL    HW3 9423   3.124   3.352   3.843  2.3857 -0.6868  0.5839
    1SOL    MW4 9424   3.142   3.428   3.881  0.5980  0.2236 -0.3157
    1SOL     OW 9425   3.374   3.596   3.760 -0.1547 -0.2773  0.6440
    1SOL    HW2 9426   3.375   3.687   3.789  1.7029  0.1341 -0.6047
    1SOL    HW3 9427   3.369   3.602   3.665 -0.0770 -1.4717  0.5606
    1SOL    MW4 9428   3.374   3.609   3.751  0.1009 -0.3805  0.4683
    1SOL     OW 9429   3.388   3.854   3.891  0.2322  0.4316 -0.1827
    1SOL    HW2 9430   3.462   3.905   3.859  0.8031 -0.3263 -0.0778
    1SOL    HW3 9431   3.313   3.888   3.842  0.9148  0.0703 -1.5046
    1SOL    MW4 9432   3.388   3.865   3.880  0.3977  0.2840 -0.3431
    1SOL     OW 9433   3.173   3.932   3.747 -0.0433 -0.1389  0.0892
    1SOL    HW2 9434   3.165   4.027   3.758 -0.5239 -0.0580 -0.8813
    1SOL    HW3 9435   3.092   3.897   3.784  0.0059 -0.1435  0.1912
    1SOL    MW4 9436   3.161   3.940   3.753 -0.1001 -0.1290 -0.0253
    1SOL     OW 9437   3.140   4.200   3.846 -0.1433  0.0500  0.1727
    1SOL    HW2 9438   3.148   4.198   3.941 -0.1942  0.7013  0.1925
    1SOL    HW3 9439   3.220   4.244   3.816  0.6123 -1.5333 -0.1809
    1SOL    MW4 9440   3.152   4.206   3.854 -0.0501 -0.0734  0.1285
    1SOL     OW 9441   3.370   4.364   3.761 -0.2391 -0.2605 -0.7267
    1SOL    HW2 9442   3.451   4.334   3.802 -0.7148 -0.5762 -0.0244
    1SOL    HW3 9443   3.365   4.457   3.782  0.1462 -0.1457 -1.1215
    1SOL    MW4 9444   3.380   4.373   3.769 -0.2511 -0.2871 -0.6862
    1SOL     OW 9445   3.841   4.660   3.905  0.2495  0.5290  0.1115
    1SOL    HW2 9446   3.829   4.646   3.999 -1.2079 -0.1105 -0.1711
    1SOL    HW3 9447   3.827   4.574   3.865  0.5925  0.8545 -0.7290
    1SOL    MW4 9448   3.838   4.647   3.912  0.1025  0.4873 -0.0365
    1SOL     OW 9449   3.622   0.115   3.804 -0.2850  0.8519 -0.0190
    1SOL    HW2 9450   3.696   0.067   3.841 -0.9923  1.2993  2.0489
    1SOL    HW3 9451   3.634   0.108   3.710  2.9249  1.7508  0.2672
    1SOL    MW4 9452   3.633   0.108   3.797  0.0453  1.0296  0.2913
    1SOL     OW 9453   3.840   0.475   3.773 -0.0203  0.7824 -0.3559
    1SOL    HW2 9454   3.832   0.554   3.826  1.4362  0.4367  0.3956
    1SOL    HW3 9455   3.927   0.442   3.792 -0.4235 -0.7247 -1.0610
    1SOL    MW4 9456   3.850   0.481   3.783  0.1187  0.5380 -0.3498
    1SOL     OW 9457   3.769   0.473   3.505  0.1263  0.3345 -0.0079
    1SOL    HW2 9458   3.839   0.419   3.468 -2.1505 -2.5687 -0.2699
    1SOL    HW3 9459   3.780   0.466   3.600 -1.2243 -2.1614  0.0039
    1SOL    MW4 9460   3.780   0.465   3.513 -0.3524 -0.3778 -0.0410
    1SOL     OW 9461   3.819   0.724   3.883  0.6703 -0.2918 -0.4695
    1SOL    HW2 9462   3.873   0.773   3.820 -1.1073  1.5864 -0.5765
    1SOL    HW3 9463   3.733   0.765   3.878  0.0793 -1.1208  2.0833
    1SOL    MW4 9464   3.815   0.736   3.874  0.3576 -0.1534 -0.1469
    1SOL     OW 9465   3.601   0.865   3.800 -0.0332 -0.1579 -0.0418
    1SOL    HW2 9466   3.599   0.952   3.839 -0.9153 -0.5112  0.7318
    1SOL    HW3 9467   3.523   0.821   3.835  1.1276 -1.7248  0.6786
    1SOL    MW4 9468   3.590   0.870   3.810  0.0036 -0.4112  0.1552
    1SOL     OW 9469   3.565   1.116   3.905 -0.3115  0.0657  0.1519
    1SOL    HW2 9470   3.649   1.162   3.898 -0.8665  1.1459  0.5416
    1SOL    HW3 9471   3.513   1.152   3.833 -0.5969 -0.2898  0.1815
    1SOL    MW4 9472   3.570   1.127   3.894 -0.4225  0.1613  0.2074
    1SOL     OW 9473   3.800   1.228   3.814 -0.0725 -0.1645  0.5054
    1SOL    HW2 9474   3.875   1.181   3.849  0.0043 -0.7981 -0.4672
    1SOL    HW3 9475   3.800   1.312   3.858  1.6168  0.1109 -0.0014
    1SOL    MW4 9476   3.810   1.233   3.824  0.1602 -0.2118  0.3104
    1SOL     OW 9477   3.775   1.517   3.908 -0.1492  0.0879 -0.3840
    1SOL    HW2 9478   3.849   1.553   3.859 -0.5976  0.1603 -1.0154
    1SOL    HW3 9479   3.698   1.536   3.853 -0.6150 -0.1392  0.1821
    1SOL    MW4 9480   3.774   1.524   3.894 -0.2697  0.0675 -0.3924
    1SOL     OW 9481   3.573   1.622   3.754  0.2493  0.3940  0.4352
    1SOL    HW2 9482   3.581   1.712   3.788 -1.1919  0.9075 -0.5305
    1SOL    HW3 9483   3.588   1.631   3.660  1.3150 -0.5812  0.5070
    1SOL    MW4 9484   3.576   1.635   3.746  0.1998  0.3330  0.3176
    1SOL     OW 9485   3.599   1.873   3.833 -0.0036  0.2561 -0.2419
    1SOL    HW2 9486   3.530   1.929   3.797 -1.5791 -1.6539 -0.2207
    1SOL    HW3 9487   3.586   1.876   3.928 -0.2169 -0.2958 -0.2511
    1SOL    MW4 9488   3.588   1.881   3.841 -0.2396 -0.0687 -0.2403
    1SOL     OW 9489   3.838   1.991   3.755 -0.6009  0.2426 -0.3406
    1SOL    HW2 9490   3.816   2.080   3.782 -0.3021  0.1187  0.3277
    1SOL    HW3 9491   3.764   1.937   3.783 -0.2814  0.1106  0.2554
    1SOL    MW4 9492   3.825   1.995   3.762 -0.5193  0.2089 -0.1738
    1SOL     OW 9493   3.792   2.252   3.828 -0.6837 -0.2452 -0.0118
    1SOL    HW2 9494   3.763   2.274   3.916  0.0672 -0.7979  0.3786
    1SOL    HW3 9495   3.731   2.298   3.770 -0.1647  1.4856  0.7780
    1SOL    MW4 9496   3.780   2.261   3.832 -0.5162 -0.0896  0.1438
    1SOL     OW 9497   3.576   2.373   3.724  0.5412  0.1563 -0.3556
    1SOL    HW2 9498   3.594   2.462   3.752  0.9213  0.0486 -0.2488
    1SOL    HW3 9499   3.567   2.379   3.629 -1.5241  0.6463 -0.1408
    1SOL    MW4 9500   3.577   2.385   3.715  0.3190  0.2067 -0.3133
    1SOL     OW 9501   3.596   2.643   3.820 -0.1481  0.0584 -0.7512
    1SOL    HW2 9502   3.587   2.624   3.913  0.3563  1.4806 -0.4019
    1SOL    HW3 9503   3.529   2.709   3.802  0.5550  0.6823 -1.1165
    1SOL    MW4 9504   3.586   2.649   3.830  0.0112  0.3283 -0.7532
    1SOL     OW 9505   3.831   2.812   3.790 -0.3321  0.0246 -0.2543
    1SOL    HW2 9506   3.823   2.897   3.833 -1.1432 -0.2704  0.1894
    1SOL    HW3 9507   3.746   2.770   3.804 -0.6477 -0.0418 -2.2269
    1SOL    MW4 9508   3.819   2.817   3.797 -0.4807 -0.0234 -0.4563
    1SOL     OW 9509   4.254   2.850   4.232 -0.2267  0.4698 -0.3968
    1SOL    HW2 9510   4.328   2.801   4.197 -0.8620 -0.4646 -0.4552
    1SOL    HW3 9511   4.177   2.808   4.194 -0.9086 -0.2037  1.6389
    1SOL    MW4 9512   4.254   2.838   4.222 -0.4005  0.2577 -0.1359
    1SOL     OW 9513   3.608   3.208   3.833 -0.1182 -0.3715  0.4461
    1SOL    HW2 9514   3.587   3.296   3.865 -0.1919 -0.3767  0.4123
    1SOL    HW3 9515   3.616   3.219   3.739  0.7397 -0.2284  0.5337
    1SOL    MW4 9516   3.606   3.221   3.825 -0.0150 -0.3533  0.4535
    1SOL     OW 9517   3.575   3.487   3.908 -0.3745  0.0944  0.2796
    1SOL    HW2 9518   3.542   3.493   3.997 -1.1741 -0.4216  0.0136
    1SOL    HW3 9519   3.503   3.516   3.853  0.5391  1.6750 -0.1391
    1SOL    MW4 9520   3.561   3.492   3.912 -0.3593  0.2348  0.1893
    1SOL     OW 9521   3.786   3.599   3.812  0.3422  0.3045  0.2882
    1SOL    HW2 9522   3.789   3.688   3.845 -0.2482  1.1989 -1.9717
    1SOL    HW3 9523   3.707   3.562   3.851  0.0676  1.0718  0.4666
    1SOL    MW4 9524   3.776   3.605   3.822  0.2279  0.5238  0.0138
    1SOL     OW 9525   3.827   3.863   3.894 -0.1794 -0.5485  0.2001
    1SOL    HW2 9526   3.815   3.889   3.985  0.7710  0.0407  0.1559
    1SOL    HW3 9527   3.916   3.888   3.873 -1.0369  1.1717 -1.5056
    1SOL    MW4 9528   3.837   3.870   3.903 -0.1671 -0.2437 -0.0305
    1SOL     OW 9529   3.607   4.009   3.782 -0.1430 -0.0561  0.3019
    1SOL    HW2 9530   3.612   4.083   3.842 -0.7370 -2.0699  2.9399
    1SOL    HW3 9531   3.680   3.953   3.806  0.4437 -0.2716 -1.8190
    1SOL    MW4 9532   3.617   4.011   3.793 -0.1440 -0.3500  0.3700
    1SOL     OW 9533   3.592   4.250   3.901 -0.0373 -0.6701  0.1295
    1SOL    HW2 9534   3.593   4.262   3.996  0.0213  0.8620 -0.0403
    1SOL    HW3 9535   3.660   4.310   3.869 -0.5058 -0.6916 -0.9229
    1SOL    MW4 9536   3.601   4.260   3.910 -0.0913 -0.4706 -0.0319
    1SOL     OW 9537   3.798   4.417   3.783  0.1797  0.5462  0.4665
    1SOL    HW2 9538   3.869   4.363   3.818  0.8666  1.1393 -0.0215
    1SOL    HW3 9539   3.799   4.400   3.689 -0.2177  0.6904  0.4360
    1SOL    MW4 9540   3.807   4.407   3.775  0.2177  0.6437  0.3979
    1SOL     OW 9541   4.305   4.629   3.929 -0.1287  0.0087 -0.6660
    1SOL    HW2 9542   4.371   4.678   3.879  0.9346  0.1843  0.8928
    1SOL    HW3 9543   4.307   4.667   4.016 -0.8772 -1.3448 -0.0440
    1SOL    MW4 9544   4.314   4.641   3.934 -0.0873 -0.1469 -0.3784
    1SOL     OW 9545   4.082   0.092   3.809 -0.2035 -0.2757 -0.1979
    1SOL    HW2 9546   4.004   0.056   3.853 -0.9736  0.0750 -1.2512
    1SOL    HW3 9547   4.153   0.035   3.837 -0.7348 -0.2689  1.2300
    1SOL    MW4 9548   4.081   0.079   3.818 -0.3748 -0.2285 -0.1483
    1SOL     OW 9549   4.092   0.369   3.873  0.5273  0.0087 -0.1452
    1SOL    HW2 9550   4.068   0.379   3.966  0.6994  0.9662 -0.2023
    1SOL    HW3 9551   4.095   0.274   3.860 -0.1108 -0.1358  0.6729
    1SOL    MW4 9552   4.089   0.358   3.884  0.4654  0.1160 -0.0446
    1SOL     OW 9553   4.294   0.513   3.761  0.2651  0.4503 -0.4805
    1SOL    HW2 9554   4.231   0.456   3.804  0.2379  1.3612  0.7343
    1SOL    HW3 9555   4.281   0.498   3.668 -0.5344 -0.6610 -0.1974
    1SOL    MW4 9556   4.284   0.504   3.754  0.1564  0.4238 -0.2830
    1SOL     OW 9557   4.269   0.752   3.904  0.3919  0.3062 -0.3153
    1SOL    HW2 9558   4.192   0.800   3.873 -0.3339 -0.5443  0.1499
    1SOL    HW3 9559   4.277   0.678   3.843  1.1425  0.6623 -0.6605
    1SOL    MW4 9560   4.260   0.749   3.892  0.3948  0.2409 -0.2995
    1SOL     OW 9561   4.019   1.095   3.903 -0.3384  0.1332  0.1261
    1SOL    HW2 9562   4.028   1.114   3.996 -0.6614  0.5666  0.0700
    1SOL    HW3 9563   4.094   1.139   3.862 -1.1811  1.4653 -0.0245
    1SOL    MW4 9564   4.030   1.104   3.910 -0.4921  0.3661  0.0989
    1SOL     OW 9565   4.029   1.143   4.201 -0.2140  0.1137  0.1238
    1SOL    HW2 9566   3.961   1.204   4.231 -0.1548  0.2199  0.0437
    1SOL    HW3 9567   4.110   1.178   4.238 -0.0724  0.5302 -0.5749
    1SOL    MW4 9568   4.031   1.156   4.210 -0.1869  0.1826  0.0210
    1SOL     OW 9569   4.226   1.263   3.766 -0.0234 -0.1957 -0.1948
    1SOL    HW2 9570   4.228   1.357   3.786  2.0392 -0.2775  0.1304
    1SOL    HW3 9571   4.215   1.259   3.671 -2.4716  0.3128  0.0307
    1SOL    MW4 9572   4.225   1.275   3.756 -0.0744 -0.1394 -0.1223
    1SOL     OW 9573   4.246   1.523   3.901  0.6110  0.4490  0.1007
    1SOL    HW2 9574   4.254   1.522   3.997  1.4509 -0.1093  0.0341
    1SOL    HW3 9575   4.333   1.549   3.871  0.0053  1.8486 -0.4855
    1SOL    MW4 9576   4.259   1.527   3.910  0.6418  0.5600  0.0148
    1SOL     OW 9577   4.016   1.643   3.796 -0.1386 -0.1126 -0.1657
    1SOL    HW2 9578   4.084   1.591   3.839 -0.4651 -1.4476 -1.2105
    1SOL    HW3 9579   4.030   1.732   3.827  0.7646 -0.7399  1.2617
    1SOL    MW4 9580   4.027   1.648   3.806 -0.0620 -0.3713 -0.1152
    1SOL     OW 9581   4.054   1.891   3.886  0.1728 -0.3793  0.1924
    1SOL    HW2 9582   3.991   1.939   3.833 -1.6757 -1.4420  1.3850
    1SOL    HW3 9583   4.139   1.932   3.866 -0.8769  1.0226 -1.4605
    1SOL    MW4 9584   4.057   1.903   3.877 -0.2103 -0.3346  0.1316
    1SOL     OW 9585   4.270   2.015   3.768  0.3029  0.0523 -0.3559
    1SOL    HW2 9586   4.283   2.033   3.675  0.4776  0.3852 -0.2665
    1SOL    HW3 9587   4.245   2.100   3.806  1.1484  0.1192  0.0678
    1SOL    MW4 9588   4.268   2.029   3.761  0.4377  0.1049 -0.2880
    1SOL     OW 9589   4.244   2.262   3.876 -0.0244 -0.3141 -0.3920
    1SOL    HW2 9590   4.177   2.322   3.844 -0.4187 -0.8657 -0.6077
    1SOL    HW3 9591   4.251   2.280   3.969 -0.1327  0.0718 -0.4574
    1SOL    MW4 9592   4.236   2.272   3.884 -0.0906 -0.3359 -0.4294
    1SOL     OW 9593   4.032   2.380   3.767 -0.6442 -0.1079 -0.3118
    1SOL    HW2 9594   4.019   2.465   3.810 -0.5800 -0.0706 -0.3661
    1SOL    HW3 9595   3.951   2.332   3.784 -0.1302 -0.5557  0.9006
    1SOL    MW4 9596   4.019   2.385   3.775 -0.5679 -0.1621 -0.1590
    1SOL     OW 9597   4.021   2.632   3.885  0.0052  0.0972 -0.0311
    1SOL    HW2 9598   3.953   2.693   3.854  0.0985  0.0608 -0.3069
    1SOL    HW3 9599   4.103   2.670   3.854  0.1751  0.5135  0.9038
    1SOL    MW4 9600   4.023   2.645   3.877  0.0401  0.1471  0.0560
    1SOL     OW 9601   4.246   2.760   3.782 -0.1250  0.0360  0.2421
    1SOL    HW2 9602   4.244   2.840   3.835 -0.8022  0.3075 -0.1767
    1SOL    HW3 9603   4.321   2.710   3.815 -0.1649  0.4907  1.0256
    1SOL    MW4 9604   4.256   2.764   3.793 -0.2198  0.1321  0.2904
    1SOL     OW 9605   4.235   3.013   3.892  0.3429  0.1167 -0.1140
    1SOL    HW2 9606   4.167   3.078   3.873  0.1774  0.0276  0.1677
    1SOL    HW3 9607   4.317   3.061   3.880  0.2135  0.5377  0.6376
    1SOL    MW4 9608   4.237   3.028   3.888  0.3042  0.1607  0.0224
    1SOL     OW 9609   4.048   3.197   3.785  0.5900 -0.2926  0.0339
    1SOL    HW2 9610   4.054   3.283   3.826 -0.3620 -0.4602  0.5666
    1SOL    HW3 9611   4.097   3.205   3.704  0.1035  0.8952 -0.1580
    1SOL    MW4 9612   4.055   3.209   3.780  0.4005 -0.1581  0.0787
    1SOL     OW 9613   4.031   3.450   3.900 -0.0238 -0.4046  0.2317
    1SOL    HW2 9614   4.097   3.495   3.848 -0.2960  0.1838  0.3879
    1SOL    HW3 9615   3.948   3.484   3.867 -0.2244 -0.6949  0.4406
    1SOL    MW4 9616   4.029   3.461   3.889 -0.0858 -0.3653  0.2799
    1SOL     OW 9617   4.247   3.601   3.793 -0.0204  0.4267  0.5123
    1SOL    HW2 9618   4.322   3.551   3.825 -0.1128  0.3431  0.6007
    1SOL    HW3 9619   4.261   3.690   3.825  0.1700  0.4701  0.3145
    1SOL    MW4 9620   4.258   3.606   3.801 -0.0076  0.4215  0.4981
    1SOL     OW 9621   4.272   3.850   3.905  0.0449 -0.5142 -0.2438
    1SOL    HW2 9622   4.286   3.865   3.999 -0.1938 -0.7694 -0.1671
    1SOL    HW3 9623   4.189   3.895   3.886 -0.1045 -0.7890 -0.2486
    1SOL    MW4 9624   4.263   3.858   3.915 -0.0067 -0.5841 -0.2344
    1SOL     OW 9625   4.062   4.004   3.845 -0.2195 -0.3527  0.3655
    1SOL    HW2 9626   4.016   4.084   3.871  0.6159  0.3543 -0.3081
    1SOL    HW3 9627   4.069   4.010   3.750 -0.3675 -1.3532  0.2855
    1SOL    MW4 9628   4.057   4.016   3.836 -0.1287 -0.3910  0.2661
    1SOL     OW 9629   4.006   4.274   3.884 -0.1441 -0.4063  0.1417
    1SOL    HW2 9630   4.023   4.294   3.976  0.4609  0.7051 -0.1970
    1SOL    HW3 9631   4.092   4.281   3.842 -0.7070  0.8862 -0.8182
    1SOL    MW4 9632   4.020   4.278   3.891 -0.1388 -0.0896 -0.0298
    1SOL     OW 9633   4.269   4.353   3.822  0.2459  0.1110  0.0111
    1SOL    HW2 9634   4.291   4.442   3.847 -1.4011  0.2342  1.0839
    1SOL    HW3 9635   4.338   4.299   3.860  1.3144  0.9190 -0.7486
    1SOL    MW4 9636   4.281   4.358   3.830  0.1698  0.2341  0.0525
    1SOL     OW 9637   1.670   1.346   4.467  0.2787 -0.3212  0.0487
    1SOL    HW2 9638   1.633   1.337   4.379  0.8684 -0.8353 -0.1484
    1SOL    HW3 9639   1.661   1.439   4.487 -1.7212 -0.5498  0.2683
    1SOL    MW4 9640   1.664   1.357   4.458  0.0926 -0.4191  0.0515
    1SOL     OW 9641   1.999   3.865   4.173  0.5225  0.1568  0.4960
    1SOL    HW2 9642   2.001   3.856   4.077  1.5593 -0.6966  0.5869
    1SOL    HW3 9643   1.914   3.904   4.191  0.5507  0.8800 -0.8268
    1SOL    MW4 9644   1.988   3.869   4.162  0.6630  0.1395  0.3333
    1SOL     OW 9645   1.371   2.591   4.139  0.1953 -0.4959  0.4023
    1SOL    HW2 9646   1.295   2.642   4.169 -0.1731 -1.0603  0.4384
    1SOL    HW3 9647   1.447   2.640   4.171 -0.1562  0.0521  0.4008
    1SOL    MW4 9648   1.371   2.604   4.147  0.1004 -0.4981  0.4067
    1SOL     OW 9649   4.014   3.739   4.596  0.2384  0.0718  0.3812
    1SOL    HW2 9650   4.058   3.654   4.590  1.3812  0.7219 -0.8410
    1SOL    HW3 9651   4.042   3.774   4.681  1.1093 -0.0682  0.1633
    1SOL    MW4 9652   4.024   3.732   4.607  0.5040  0.1395  0.1907
    1SOL     OW 9653   3.758   1.226   4.306  0.1814  0.2888 -0.1884
    1SOL    HW2 9654   3.718   1.303   4.345  1.3646  0.6965  0.2439
    1SOL    HW3 9655   3.793   1.176   4.380 -0.1686 -0.4264 -0.4976
    1SOL    MW4 9656   3.758   1.229   4.321  0.2916  0.2481 -0.1721
    1SOL     OW 9657   3.604   4.248   4.177 -0.0124  0.6485 -0.7574
    1SOL    HW2 9658   3.676   4.287   4.225  0.4658 -0.2741 -0.7173
    1SOL    HW3 9659   3.621   4.154   4.179 -1.1722  0.4216 -0.8121
    1SOL    MW4 9660   3.616   4.241   4.183 -0.1025  0.4964 -0.7591
    1SOL     OW 9661   0.021   1.134   4.181  0.1312 -0.6043 -0.1679
    1SOL    HW2 9662   0.022   1.038   4.185  3.6034 -0.7059 -1.8944
    1SOL    HW3 9663   0.005   1.154   4.089 -0.6348  0.5157  0.1940
    1SOL    MW4 9664   0.019   1.124   4.169  0.4878 -0.4699 -0.3476
    1SOL     OW 9665   0.012   1.644   4.263  0.0271 -0.7990 -0.2097
    1SOL    HW2 9666   0.031   1.728   4.219 -1.8587  0.3502  1.0983
    1SOL    HW3 9667  -0.071   1.616   4.226  0.5053 -1.9761 -0.4192
    1SOL    MW4 9668   0.004   1.652   4.252 -0.1588 -0.8028 -0.0648
    1SOL     OW 9669   4.275   1.238   4.263  0.1683 -0.3615 -0.1338
    1SOL    HW2 9670   4.352   1.197   4.224 -0.4797 -2.1241  0.4145
    1SOL    HW3 9671   4.290   1.233   4.358  0.2902  1.0948 -0.0594
    1SOL    MW4 9672   4.287   1.232   4.271  0.0992 -0.4017 -0.0520
    1SOL     OW 9673   3.806   3.013   4.578  0.0307 -0.2850  0.2056
    1SOL    HW2 9674   3.865   2.939   4.591  1.0998  0.5080 -0.0871
    1SOL    HW3 9675   3.859   3.079   4.534 -1.4004  0.0035 -1.1252
    1SOL    MW4 9676   3.821   3.012   4.574 -0.0172 -0.1423 -0.0086
    1SOL     OW 9677   3.812   2.538   4.734 -0.0145 -0.1274 -0.0327
    1SOL    HW2 9678   3.864   2.611   4.702 -1.9021  1.3999  0.2581
    1SOL    HW3 9679   3.738   2.533   4.673 -1.3674  0.0364  1.5364
    1SOL    MW4 9680   3.809   2.547   4.722 -0.4420  0.0956  0.2127
    1SOL     OW 9681   0.675   3.538   4.304  0.1311 -0.6211  0.5542
    1SOL    HW2 9682   0.611   3.487   4.254 -0.8754  0.3623  0.8294
    1SOL    HW3 9683   0.759   3.497   4.283 -0.4567 -1.2479 -0.6469
    1SOL    MW4 9684   0.678   3.526   4.295 -0.0792 -0.5739  0.4320
    1SOL     OW 9685   0.254   1.894   4.528 -0.1615  0.0303  0.0901
    1SOL    HW2 9686   0.173   1.866   4.571 -1.0644  1.9602 -0.2870
    1SOL    HW3 9687   0.286   1.966   4.582  2.0265 -1.5541  0.9511
    1SOL    MW4 9688   0.247   1.900   4.540  0.0081  0.0757  0.1531
    1SOL     OW 9689   4.298   4.062   4.678 -0.3485  0.8041 -0.1831
    1SOL    HW2 9690   4.270   3.998   4.744  0.3958  0.3903 -0.2633
    1SOL    HW3 9691   4.253   4.036   4.598 -0.5454  0.7640 -0.0596
    1SOL    MW4 9692   4.288   4.050   4.676 -0.2766  0.7443 -0.1774
    1SOL     OW 9693   2.755   1.543   4.722 -0.1778 -0.2231 -0.2553
    1SOL    HW2 9694   2.834   1.577   4.765  1.0991 -1.8689 -1.2516
    1SOL    HW3 9695   2.713   1.621   4.686  1.4321  0.5997 -0.4061
    1SOL    MW4 9696   2.760   1.558   4.723  0.2031 -0.3318 -0.4067
    1SOL     OW 9697   2.930   4.587   4.603  0.1769 -0.1045 -0.0491
    1SOL    HW2 9698   2.844   4.598   4.563 -0.4234  0.0688  1.2557
    1SOL    HW3 9699   2.956   4.498   4.582 -0.6391 -0.3898  0.1508
    1SOL    MW4 9700   2.922   4.577   4.595 -0.0098 -0.1197  0.1493
    1SOL     OW 9701   0.182   4.374   4.315  0.0674 -0.1748 -0.0314
    1SOL    HW2 9702   0.176   4.374   4.411 -0.6471  0.3158 -0.0723
    1SOL    HW3 9703   0.253   4.312   4.295  0.9739  0.5642  0.8635
    1SOL    MW4 9704   0.191   4.366   4.325  0.0927 -0.0124  0.0811
    1SOL     OW 9705   1.119   3.586   4.271 -0.4016 -0.0980 -0.2103
    1SOL    HW2 9706   1.125   3.575   4.366  0.5538 -1.4131 -0.4069
    1SOL    HW3 9707   1.041   3.536   4.246  0.4257 -1.3406 -0.3414
    1SOL    MW4 9708   1.110   3.578   4.281 -0.1664 -0.4356 -0.2532
    1SOL     OW 9709   0.403   2.669   4.641  0.1862 -0.3362  0.2632
    1SOL    HW2 9710   0.477   2.730   4.639  0.2998 -0.4409  1.1920
    1SOL    HW3 9711   0.438   2.588   4.603  0.3928 -0.2193  0.2063
    1SOL    MW4 9712   0.418   2.666   4.636  0.2285 -0.3345  0.3786
    1SOL     OW 9713   1.420   0.085   4.276  0.2554 -0.1178  0.0386
    1SOL    HW2 9714   1.441   0.098   4.369  0.0715  2.5143 -0.2424
    1SOL    HW3 9715   1.504   0.060   4.236  1.3496  3.0997  0.1894
    1SOL    MW4 9716   1.434   0.083   4.283  0.3755  0.6540  0.0215
    1SOL     OW 9717   2.867   3.570   4.552 -0.3327 -0.2230 -0.1855
    1SOL    HW2 9718   2.817   3.490   4.536  0.1548 -0.4745 -0.4797
    1SOL    HW3 9719   2.958   3.541   4.552 -0.2442 -0.0088  1.7648
    1SOL    MW4 9720   2.873   3.556   4.550 -0.2565 -0.2277  0.0334
    1SOL     OW 9721   4.435   4.248   4.187 -0.0979  0.0666  0.2619
    1SOL    HW2 9722   4.519   4.284   4.213 -0.0418 -0.1496  0.3801
    1SOL    HW3 9723   4.445   4.228   4.094  0.2624 -0.7627  0.4801
    1SOL    MW4 9724   4.447   4.250   4.178 -0.0434 -0.0715  0.3066
    1SOL     OW 9725   4.206   3.072   4.668 -0.1326  0.2984  0.3174
    1SOL    HW2 9726   4.154   3.129   4.611  1.4189  1.3492 -0.1030
    1SOL    HW3 9727   4.200   2.985   4.628 -0.6320  0.6353 -0.3446
    1SOL    MW4 9728   4.199   3.068   4.655  0.0057  0.4818  0.1740
    1SOL     OW 9729   0.936   1.100   4.166  0.2035 -0.1556  0.0810
    1SOL    HW2 9730   1.006   1.156   4.201  0.0759 -0.4770  0.8670
    1SOL    HW3 9731   0.857   1.154   4.173  0.0925 -0.4009  0.7732
    1SOL    MW4 9732   0.935   1.115   4.172  0.1720 -0.2304  0.2756
    1SOL     OW 9733   4.051   0.878   4.259  0.3852  0.0381  0.0545
    1SOL    HW2 9734   4.134   0.842   4.229  0.6835  1.3598 -0.7040
    1SOL    HW3 9735   4.060   0.973   4.250  0.0744  0.4332  3.2078
    1SOL    MW4 9736   4.063   0.886   4.254  0.3839  0.2646  0.3700
    1SOL     OW 9737   4.311   0.762   4.644  0.0409 -0.3477 -0.0821
    1SOL    HW2 9738   4.234   0.768   4.588  0.0416 -0.9301 -0.1492
    1SOL    HW3 9739   4.276   0.764   4.733 -0.0611 -0.7150 -0.1128
    1SOL    MW4 9740   4.296   0.763   4.648  0.0277 -0.4730 -0.0954
    1SOL     OW 9741   0.227   1.273   4.309  0.1112 -0.1723 -0.0231
    1SOL    HW2 9742   0.303   1.239   4.263 -0.1269 -0.7805  0.0401
    1SOL    HW3 9743   0.152   1.229   4.270 -0.2720  0.8631 -0.4926
    1SOL    MW4 9744   0.228   1.263   4.298  0.0292 -0.1160 -0.0772
    1SOL     OW 9745   0.912   2.968   4.622  0.5576 -0.3695  0.3736
    1SOL    HW2 9746   0.938   2.975   4.714  1.5895 -1.1040  0.1514
    1SOL    HW3 9747   0.943   3.049   4.582  2.5470 -1.2129  0.1225
    1SOL    MW4 9748   0.920   2.980   4.629  0.9562 -0.5779  0.3109
    1SOL     OW 9749   0.455   0.936   4.257  0.2802 -0.1146 -0.2993
    1SOL    HW2 9750   0.537   0.896   4.227  0.7724  0.2516  0.5565
    1SOL    HW3 9751   0.449   0.912   4.349 -0.5677 -0.1204 -0.3526
    1SOL    MW4 9752   0.465   0.927   4.265  0.2333 -0.0670 -0.1936
    1SOL     OW 9753   2.637   2.811   4.155 -0.0898  0.2599  0.0354
    1SOL    HW2 9754   2.720   2.830   4.199  1.0141 -0.2650 -1.7751
    1SOL    HW3 9755   2.575   2.875   4.191  1.4951  1.7107  0.2094
    1SOL    MW4 9756   2.640   2.822   4.166  0.2649  0.3819 -0.1802
    1SOL     OW 9757   3.729   1.870   4.802  0.1494 -0.0037  0.4600
    1SOL    HW2 9758   3.697   1.803   4.861 -0.4263 -0.7309 -0.6555
    1SOL    HW3 9759   3.783   1.823   4.738 -0.4164  0.5431 -0.4390
    1SOL    MW4 9760   3.732   1.855   4.801 -0.0012 -0.0275  0.1945
    1SOL     OW 9761   0.468   1.212   4.181  0.5616 -0.4650  0.1426
    1SOL    HW2 9762   0.459   1.123   4.216 -0.9893 -0.4698 -0.2473
    1SOL    HW3 9763   0.447   1.204   4.088 -2.0663  0.7272  0.5924
    1SOL    MW4 9764   0.464   1.199   4.174  0.0103 -0.3083  0.1502
    1SOL     OW 9765   3.785   3.370   4.542  0.0358  0.1089 -0.3965
    1SOL    HW2 9766   3.705   3.334   4.580 -0.0367  0.9279  0.2460
    1SOL    HW3 9767   3.764   3.463   4.526  0.6842  0.2044 -0.7082
    1SOL    MW4 9768   3.771   3.378   4.545  0.1118  0.2296 -0.3533
    1SOL     OW 9769   1.539   2.107   4.239 -0.0611  0.7002 -0.2552
    1SOL    HW2 9770   1.524   2.107   4.334 -0.1207  0.8258 -0.2643
    1SOL    HW3 9771   1.529   2.199   4.213  0.1670  0.6977 -0.3516
    1SOL    MW4 9772   1.535   2.119   4.248 -0.0389  0.7162 -0.2694
    1SOL     OW 9773   0.233   2.037   4.290  0.7322 -0.3904  0.0766
    1SOL    HW2 9774   0.312   2.013   4.242  1.2905 -0.1664  0.8661
    1SOL    HW3 9775   0.249   2.006   4.379 -1.7210 -3.9675 -0.6085
    1SOL    MW4 9776   0.246   2.030   4.296  0.4822 -0.8328  0.0906
    1SOL     OW 9777   0.465   1.420   4.634 -0.3856  0.1254  0.1860
    1SOL    HW2 9778   0.538   1.382   4.586  0.5239  0.8152  0.9843
    1SOL    HW3 9779   0.445   1.501   4.587 -0.0676  0.3590  0.4414
    1SOL    MW4 9780   0.472   1.426   4.622 -0.2236  0.2474  0.3252
    1SOL     OW 9781   1.176   2.402   4.776  0.2316 -0.4553  0.0378
    1SOL    HW2 9782   1.224   2.327   4.739  0.1088  0.0401 -1.1508
    1SOL    HW3 9783   1.224   2.479   4.744 -0.3732 -0.0029  0.2174
    1SOL    MW4 9784   1.189   2.402   4.767  0.1355 -0.3302 -0.0958
    1SOL     OW 9785   1.992   2.795   4.288 -0.0772 -0.2582  0.0410
    1SOL    HW2 9786   2.077   2.790   4.245  0.5664  1.2192  1.0700
    1SOL    HW3 9787   2.012   2.826   4.377 -1.7149  0.6747  0.1127
    1SOL    MW4 9788   2.006   2.799   4.294 -0.2086  0.0596  0.1860
    1SOL     OW 9789   2.734   0.910   4.319  0.7072 -0.6801  0.3761
    1SOL    HW2 9790   2.812   0.857   4.302  1.9467  1.1140  0.3961
    1SOL    HW3 9791   2.737   0.980   4.254 -1.5325 -1.2553 -0.3949
    1SOL    MW4 9792   2.744   0.912   4.308  0.5751 -0.5193  0.2775
    1SOL     OW 9793   0.475   2.688   4.189 -0.6547  0.0957  0.3237
    1SOL    HW2 9794   0.488   2.692   4.095  0.2391 -0.0350  0.4382
    1SOL    HW3 9795   0.384   2.714   4.202 -0.3712  1.5084 -0.4577
    1SOL    MW4 9796   0.465   2.692   4.179 -0.4993  0.2649  0.2356
    1SOL     OW 9797   0.928   3.411   4.717  0.0836 -0.4483 -0.4929
    1SOL    HW2 9798   0.833   3.423   4.710  0.1074  0.0492 -0.0260
    1SOL    HW3 9799   0.945   3.414   4.811  0.3424 -2.2592 -0.4783
    1SOL    MW4 9800   0.917   3.413   4.728  0.1209 -0.6213 -0.4292
    1SOL     OW 9801   0.200   3.074   4.191 -0.1407  0.2805  0.7032
    1SOL    HW2 9802   0.129   3.115   4.241 -0.0412 -0.2273  1.2671
    1SOL    HW3 9803   0.277   3.125   4.214 -0.4173  1.1537 -0.3093
    1SOL    MW4 9804   0.201   3.086   4.201 -0.1641  0.3288  0.6437
    1SOL     OW 9805   1.998   0.487   4.568 -0.0594  0.0262  0.0255
    1SOL    HW2 9806   2.003   0.480   4.473  2.3313 -0.8368  0.1947
    1SOL    HW3 9807   2.001   0.396   4.599 -0.7712  0.3012  0.9431
    1SOL    MW4 9808   1.999   0.474   4.560  0.1621 -0.0514  0.1688
    1SOL     OW 9809   0.486   4.109   4.657  0.3591 -0.0195  0.3307
    1SOL    HW2 9810   0.426   4.173   4.693  0.5330  0.0231  0.5491
    1SOL    HW3 9811   0.555   4.161   4.615  0.7331 -0.0545  0.8932
    1SOL    MW4 9812   0.487   4.124   4.657  0.4314 -0.0186  0.4334
    1SOL     OW 9813   0.202   3.828   4.179 -0.2467 -0.3723 -0.5031
    1SOL    HW2 9814   0.138   3.879   4.228 -1.3183 -1.9365 -0.2318
    1SOL    HW3 9815   0.216   3.750   4.232  1.3720 -0.3698 -0.9086
    1SOL    MW4 9816   0.195   3.825   4.192 -0.1745 -0.5782 -0.5202
    1SOL     OW 9817   4.116   2.506   4.523  0.0745 -0.1966  0.3422
    1SOL    HW2 9818   4.092   2.420   4.560  0.7320 -0.1751  0.8232
    1SOL    HW3 9819   4.054   2.567   4.564 -0.1597 -0.3892  0.2769
    1SOL    MW4 9820   4.105   2.503   4.534  0.1302 -0.2193  0.3972
    1SOL     OW 9821   0.074   4.076   4.568  0.2331 -0.0568 -0.2273
    1SOL    HW2 9822   0.101   4.167   4.575 -0.2882  0.1115 -0.4390
    1SOL    HW3 9823  -0.012   4.073   4.612 -1.0060  0.0961 -2.5713
    1SOL    MW4 9824   0.066   4.087   4.575  0.0008 -0.0148 -0.5651
    1SOL     OW 9825   2.918   1.477   4.205 -0.0939 -0.4834  0.0559
    1SOL    HW2 9826   2.970   1.408   4.163  1.3303 -0.5294  1.8216
    1SOL    HW3 9827   2.977   1.513   4.272 -1.9712  0.2261  1.3501
    1SOL    MW4 9828   2.933   1.472   4.208 -0.1538 -0.3958  0.4597
    1SOL     OW 9829   1.539   0.414   4.582 -0.9124  0.4311  0.1580
    1SOL    HW2 9830   1.464   0.470   4.601 -2.6571 -1.2896 -1.3632
    1SOL    HW3 9831   1.611   0.474   4.567 -2.0491  2.1373  1.4455
    1SOL    MW4 9832   1.538   0.429   4.582 -1.2925  0.4292  0.1273
    1SOL     OW 9833   3.396   2.688   4.540 -0.3979  0.2822 -0.2695
    1SOL    HW2 9834   3.323   2.635   4.506  0.1225  1.0931 -2.7877
    1SOL    HW3 9835   3.357   2.740   4.611 -1.6508 -1.1610  0.1287
    1SOL    MW4 9836   3.381   2.688   4.545 -0.4947  0.1991 -0.5488
    1SOL     OW 9837   3.906   2.303   4.871 -0.0872 -0.2363 -0.4253
    1SOL    HW2 9838   3.885   2.391   4.841  1.1044  0.5111  0.8974
    1SOL    HW3 9839   3.896   2.307   4.966  1.2324 -1.1726 -0.2345
    1SOL    MW4 9840   3.902   2.315   4.880  0.2439 -0.2613 -0.2260
    1SOL     OW 9841   2.611   1.817   4.092  0.5706 -0.2881 -0.3629
    1SOL    HW2 9842   2.647   1.874   4.160 -0.5769 -0.3695  0.3114
    1SOL    HW3 9843   2.606   1.873   4.014 -0.1911  0.4257  0.1957
    1SOL    MW4 9844   2.615   1.832   4.091  0.3185 -0.2047 -0.2003
    1SOL     OW 9845   0.114   0.213   4.535 -0.8529 -0.4823  0.2423
    1SOL    HW2 9846   0.086   0.199   4.445 -1.1135 -0.6739  0.3506
    1SOL    HW3 9847   0.132   0.307   4.540 -0.0588 -0.6113 -0.2215
    1SOL    MW4 9848   0.113   0.223   4.524 -0.7825 -0.5246  0.1955
    1SOL     OW 9849   1.162   0.708   4.136 -0.1428 -0.1834 -0.2514
    1SOL    HW2 9850   1.168   0.632   4.194  2.1355  0.3743  0.2867
    1SOL    HW3 9851   1.080   0.751   4.161  0.7254 -0.0402  2.4809
    1SOL    MW4 9852   1.152   0.704   4.147  0.2724 -0.0910  0.1802
    1SOL     OW 9853   0.724   1.276   4.236 -0.5254 -0.0042 -0.2700
    1SOL    HW2 9854   0.630   1.269   4.220 -0.6190 -0.1024  0.3149
    1SOL    HW3 9855   0.731   1.291   4.330  0.0881 -0.9320 -0.1685
    1SOL    MW4 9856   0.712   1.277   4.246 -0.4568 -0.1396 -0.1793
    1SOL     OW 9857   3.608   1.456   4.333 -0.1811 -0.1893  0.3512
    1SOL    HW2 9858   3.568   1.488   4.413 -1.8147 -1.2188 -0.0329
    1SOL    HW3 9859   3.541   1.465   4.266  0.4641 -1.2227 -0.4691
    1SOL    MW4 9860   3.594   1.461   4.334 -0.3114 -0.4615  0.1922
    1SOL     OW 9861   1.322   1.141   4.137  0.4523  0.0560 -0.0617
    1SOL    HW2 9862   1.336   1.130   4.043  1.7334 -0.3566  0.1591
    1SOL    HW3 9863   1.336   1.053   4.174 -0.5338  0.1112  0.4519
    1SOL    MW4 9864   1.326   1.128   4.130  0.4913  0.0088  0.0358
    1SOL     OW 9865   3.556   3.224   4.255 -0.2583 -0.0550  0.5297
    1SOL    HW2 9866   3.539   3.215   4.349 -0.7797 -0.3037  0.4099
    1SOL    HW3 9867   3.477   3.192   4.213  0.4920 -1.1987 -0.0233
    1SOL    MW4 9868   3.543   3.219   4.262 -0.2282 -0.2387  0.4411
    1SOL     OW 9869   0.913   1.935   4.141  0.0803  0.5924 -0.0979
    1SOL    HW2 9870   0.907   1.934   4.045 -0.1469  0.6471 -0.0839
    1SOL    HW3 9871   0.832   1.976   4.170  0.0551  0.3837  0.1274
    1SOL    MW4 9872   0.902   1.940   4.132  0.0470  0.5720 -0.0663
    1SOL     OW 9873   1.102   1.557   4.635 -0.4550 -0.1474 -0.7203
    1SOL    HW2 9874   1.044   1.561   4.712 -0.1473  1.6790 -0.5545
    1SOL    HW3 9875   1.120   1.464   4.624 -1.0351 -0.5023  1.0290
    1SOL    MW4 9876   1.097   1.546   4.644 -0.4910  0.0467 -0.4678
    1SOL     OW 9877   1.470   1.825   4.614  0.1059  0.4600 -0.0183
    1SOL    HW2 9878   1.385   1.794   4.583 -0.1237  1.6165 -0.5757
    1SOL    HW3 9879   1.533   1.762   4.581 -0.5074 -0.2809  0.2054
    1SOL    MW4 9880   1.467   1.813   4.606 -0.0052  0.5149 -0.0625
    1SOL     OW 9881   2.619   0.717   4.638 -0.0208  0.0047  0.0211
    1SOL    HW2 9882   2.558   0.643   4.627 -0.3708  0.4692 -1.1967
    1SOL    HW3 9883   2.659   0.702   4.724 -3.1051  0.6130  1.6361
    1SOL    MW4 9884   2.616   0.705   4.648 -0.4742  0.1463  0.0734
    1SOL     OW 9885   0.888   1.592   4.471  0.5148  0.3041  0.6567
    1SOL    HW2 9886   0.965   1.590   4.528  1.2555  4.1186 -0.1135
    1SOL    HW3 9887   0.922   1.620   4.386 -1.5312  0.5972 -0.0853
    1SOL    MW4 9888   0.903   1.595   4.467  0.3425  0.8459  0.4573
    1SOL     OW 9889   0.423   0.632   4.568  0.4159 -0.2662  0.0710
    1SOL    HW2 9890   0.396   0.635   4.660  1.2729  0.5286  0.3006
    1SOL    HW3 9891   0.437   0.724   4.544  0.7541 -0.5118 -0.6940
    1SOL    MW4 9892   0.421   0.644   4.577  0.5736 -0.1938  0.0010
    1SOL     OW 9893   2.357   1.346   4.578  0.3369 -0.6557  0.1117
    1SOL    HW2 9894   2.425   1.349   4.645  1.0697  0.7494 -0.6622
    1SOL    HW3 9895   2.403   1.319   4.498 -0.4021 -1.6759  0.0244
    1SOL    MW4 9896   2.372   1.343   4.576  0.3362 -0.6049 -0.0019
    1SOL     OW 9897   0.020   3.996   4.303  0.1464 -0.0943 -0.4290
    1SOL    HW2 9898   0.041   4.021   4.393  2.5297 -0.2337 -0.9154
    1SOL    HW3 9899  -0.018   4.075   4.264 -2.1769 -0.4416  1.0741
    1SOL    MW4 9900   0.018   4.010   4.310  0.1545 -0.1583 -0.2952
    1SOL     OW 9901   0.901   3.439   4.191  0.2047  0.5472  0.0106
    1SOL    HW2 9902   0.906   3.344   4.200 -0.2572  0.6590  1.5880
    1SOL    HW3 9903   0.894   3.454   4.097 -0.1150 -0.9931 -0.2190
    1SOL    MW4 9904   0.901   3.429   4.180  0.1015  0.3586  0.1888
    1SOL     OW 9905   1.351   3.429   4.209  0.2246 -0.0874  0.0371
    1SOL    HW2 9906   1.272   3.478   4.233 -0.6521 -0.8237 -1.2997
    1SOL    HW3 9907   1.348   3.423   4.113  0.9332 -1.7409  0.0971
    1SOL    MW4 9908   1.340   3.435   4.199  0.2025 -0.4027 -0.1316
    1SOL     OW 9909   1.997   4.186   4.571  0.1590 -0.5405  0.2974
    1SOL    HW2 9910   1.976   4.278   4.559 -1.2299 -1.0265 -1.0799
    1SOL    HW3 9911   1.921   4.139   4.536  0.8839 -2.2061  0.9136
    1SOL    MW4 9912   1.984   4.192   4.565  0.0714 -0.8245  0.1974
    1SOL     OW 9913   1.357   3.449   4.635 -0.1620  0.2530 -0.3735
    1SOL    HW2 9914   1.369   3.358   4.663 -0.1676  0.1235 -0.7877
    1SOL    HW3 9915   1.443   3.475   4.602 -0.0883  0.4874  0.0133
    1SOL    MW4 9916   1.370   3.440   4.634 -0.1532  0.2668 -0.3772
    1SOL     OW 9917   0.661   4.365   4.286  0.4312 -0.0155 -0.4429
    1SOL    HW2 9918   0.577   4.329   4.259  0.1659 -0.1124  0.4884
    1SOL    HW3 9919   0.669   4.448   4.239  1.1288 -1.3572 -2.7551
    1SOL    MW4 9920   0.651   4.371   4.276  0.4882 -0.2055 -0.6256
    1SOL     OW 9921   4.436   4.469   4.682 -0.0672 -0.1103  0.3939
    1SOL    HW2 9922   4.411   4.551   4.639 -0.4475 -1.1113 -1.3594
    1SOL    HW3 9923   4.371   4.406   4.651  0.5364 -1.1839  1.3200
    1SOL    MW4 9924   4.424   4.472   4.672 -0.0372 -0.3843  0.2847
    1SOL     OW 9925   0.932   1.672   4.218  0.0552 -0.1416 -0.1529
    1SOL    HW2 9926   0.848   1.647   4.180 -1.0422  0.0797  2.0203
    1SOL    HW3 9927   0.940   1.765   4.202 -1.9366  0.6292  2.8509
    1SOL    MW4 9928   0.922   1.681   4.211 -0.3523 -0.0107  0.5298
    1SOL     OW 9929   3.168   0.768   4.527 -0.0136 -0.5407 -0.4425
    1SOL    HW2 9930   3.080   0.731   4.536  0.0571 -0.4925  0.5528
    1SOL    HW3 9931   3.188   0.761   4.434 -1.0550 -0.5950 -0.6657
    1SOL    MW4 9932   3.159   0.762   4.516 -0.1416 -0.5414 -0.3405
    1SOL     OW 9933   0.022   0.867   4.237  0.4268 -0.4875  0.4203
    1SOL    HW2 9934   0.028   0.893   4.329  1.3158  2.4942 -0.4294
    1SOL    HW3 9935   0.110   0.837   4.215  0.3790 -0.5916  0.3749
    1SOL    MW4 9936   0.034   0.867   4.247  0.5374 -0.1078  0.3023
    1SOL     OW 9937   1.299   0.815   4.512  0.1105  0.0603 -0.0506
    1SOL    HW2 9938   1.320   0.882   4.578  0.5429 -1.7630  1.7343
    1SOL    HW3 9939   1.338   0.848   4.431  2.3436  0.8798  1.3056
    1SOL    MW4 9940   1.307   0.828   4.510  0.4622 -0.0722  0.3638
    1SOL     OW 9941   1.586   0.749   4.149  0.5302  0.0619 -0.6872
    1SOL    HW2 9942   1.585   0.746   4.054  0.6271  1.4421 -0.7437
    1SOL    HW3 9943   1.612   0.661   4.176  0.6346 -0.2939 -1.9293
    1SOL    MW4 9944   1.589   0.737   4.140  0.5567  0.1971 -0.8578
    1SOL     OW 9945   2.477   4.363   4.201 -0.0450  0.0052  0.2599
    1SOL    HW2 9946   2.473   4.458   4.191  0.6856 -0.0078 -0.2037
    1SOL    HW3 9947   2.394   4.331   4.165  0.5797  0.3156 -1.4833
    1SOL    MW4 9948   2.466   4.371   4.195  0.1338  0.0439 -0.0315
    1SOL     OW 9949   1.105   3.553   4.548 -0.2784  0.4600  0.0896
    1SOL    HW2 9950   1.194   3.529   4.575  0.1569  0.6406 -1.1478
    1SOL    HW3 9951   1.048   3.513   4.614  0.5679 -1.9185 -0.5654
    1SOL    MW4 9952   1.109   3.545   4.560 -0.1094  0.1700 -0.1597
    1SOL     OW 9953   1.559   1.309   4.211 -0.1792  0.2264  0.0169
    1SOL    HW2 9954   1.472   1.269   4.203 -0.4124  0.6603  0.3462
    1SOL    HW3 9955   1.557   1.382   4.150 -0.2238  0.5421  0.3945
    1SOL    MW4 9956   1.547   1.313   4.202 -0.2158  0.3253  0.1101
    1SOL     OW 9957   1.556   1.571   4.100  0.5490 -0.0066  0.4163
    1SOL    HW2 9958   1.630   1.612   4.145  0.2379 -0.9147  1.8013
    1SOL    HW3 9959   1.478   1.605   4.145 -0.0359  2.6369 -2.4341
    1SOL    MW4 9960   1.555   1.581   4.112  0.4307  0.2223  0.2232
    1SOL     OW 9961   1.741   0.584   4.518  0.6134 -0.4016  0.6076
    1SOL    HW2 9962   1.826   0.559   4.554  0.5988 -0.5263  0.5569
    1SOL    HW3 9963   1.736   0.679   4.532  1.4616 -0.1239 -0.8664
    1SOL    MW4 9964   1.751   0.594   4.524  0.7232 -0.3814  0.4067
    1SOL     OW 9965   1.352   1.948   4.144  0.4568  0.2166  0.2537
    1SOL    HW2 9966   1.420   2.007   4.175 -0.5692  0.6751  1.6889
    1SOL    HW3 9967   1.270   1.987   4.175 -0.3273 -1.2647  0.1000
    1SOL    MW4 9968   1.350   1.961   4.152  0.2179  0.0815  0.4230
    1SOL     OW 9969   3.555   0.180   4.571 -0.0782  0.1222 -0.2232
    1SOL    HW2 9970   3.515   0.093   4.575  0.6499 -0.2894 -1.6572
    1SOL    HW3 9971   3.483   0.240   4.590 -0.3568 -0.8290  1.9167
    1SOL    MW4 9972   3.540   0.176   4.574 -0.0188 -0.0576 -0.1297
    1SOL     OW 9973   2.012   1.903   4.702  0.5508 -0.1154  0.4691
    1SOL    HW2 9974   1.974   1.816   4.691 -0.9038  0.4715  0.7356
    1SOL    HW3 9975   1.941   1.963   4.680  1.4542  1.0086  0.5842
    1SOL    MW4 9976   1.997   1.900   4.698  0.4780  0.1103  0.5198
    1SOL     OW 9977   1.227   1.771   4.484  0.2864  0.4779  0.1586
    1SOL    HW2 9978   1.162   1.840   4.490  0.9772  1.1699 -0.3572
    1SOL    HW3 9979   1.192   1.701   4.540 -0.5772  1.0962  0.4021
    1SOL    MW4 9980   1.214   1.771   4.492  0.2637  0.6509  0.1225
    1SOL     OW 9981   1.324   2.669   3.859  0.5892 -0.2840  0.0894
    1SOL    HW2 9982   1.307   2.587   3.811 -0.5574  0.5934 -1.0433
    1SOL    HW3 9983   1.340   2.641   3.949  1.1485 -1.8354 -0.4799
    1SOL    MW4 9984   1.324   2.654   3.864  0.5118 -0.3726 -0.1352
    1SOL     OW 9985   2.919   3.076   4.150  0.2200  0.0969 -0.5879
    1SOL    HW2 9986   2.926   2.985   4.180 -0.8344  0.2186  0.0140
    1SOL    HW3 9987   2.982   3.124   4.204 -0.2275 -0.0331  0.0450
    1SOL    MW4 9988   2.928   3.070   4.161  0.0219  0.0956 -0.4249
    1SOL     OW 9989   1.533   3.622   4.293  0.1538  0.0154 -0.2992
    1SOL    HW2 9990   1.610   3.607   4.239  0.0403  1.2125 -0.8154
    1SOL    HW3 9991   1.475   3.547   4.275  0.5605 -0.1192 -1.0366
    1SOL    MW4 9992   1.535   3.610   4.284  0.1924  0.1554 -0.4644
    1SOL     OW 9993   3.588   2.497   4.555 -0.3969  0.4056 -0.0365
    1SOL    HW2 9994   3.639   2.532   4.482  0.0168  0.4527  0.2789
    1SOL    HW3 9995   3.520   2.563   4.571 -0.3073  0.5321 -0.1812
    1SOL    MW4 9996   3.585   2.510   4.547 -0.3304  0.4282 -0.0143
    1SOL     OW 9997   1.285   2.869   4.654 -0.0104 -0.0457 -0.0684
    1SOL    HW2 9998   1.344   2.809   4.700 -0.4638 -0.5239 -0.1064
    1SOL    HW3 9999   1.232   2.812   4.598  1.2524  0.6065 -1.9996
    1SOL    MW410000   1.286   2.853   4.652  0.0962 -0.0229 -0.3285
    1SOL     OW10001   3.091   2.885   4.498  0.2329  0.0358  0.1086
    1SOL    HW210002   3.052   2.798   4.502 -0.9738  0.5765  0.3361
    1SOL    HW310003   3.164   2.876   4.438 -0.6212 -0.8469 -0.8106
    1SOL    MW410004   3.095   2.872   4.491 -0.0386 -0.0091  0.0172
    1SOL     OW10005   1.254   4.146   4.547  0.3401 -0.2089 -0.0097
    1SOL    HW210006   1.344   4.152   4.579  0.8550  0.7646 -1.5789
    1SOL    HW310007   1.256   4.075   4.483 -0.2247 -0.8316  0.6665
    1SOL    MW410008   1.266   4.137   4.543  0.3337 -0.1621 -0.1278
    1SOL     OW10009   0.855   0.258   4.390 -0.2908  0.2230  0.1720
    1SOL    HW210010   0.867   0.163   4.381 -0.0926  0.2217  0.4423
    1SOL    HW310011   0.785   0.267   4.455 -0.8623  0.2515 -0.4399
    1SOL    MW410012   0.848   0.247   4.397 -0.3401  0.2266  0.1273
    1SOL     OW10013   1.940   0.206   4.645  0.5878 -0.1140 -0.2305
    1SOL    HW210014   1.976   0.119   4.664 -0.4205 -0.0241  2.3678
    1SOL    HW310015   1.849   0.190   4.621  0.4232  0.2147  0.1715
    1SOL    MW410016   1.933   0.192   4.645  0.4330 -0.0588  0.1650
    1SOL     OW10017   3.010   4.318   4.501  0.2230 -0.1006 -0.3488
    1SOL    HW210018   3.024   4.223   4.509  2.1220  0.0909 -1.2090
    1SOL    HW310019   2.975   4.330   4.413 -2.2796 -0.2051  0.5743
    1SOL    MW410020   3.007   4.307   4.491  0.1433 -0.0892 -0.3405
    1SOL     OW10021   2.055   3.596   4.553 -0.6838 -0.7720 -0.3740
    1SOL    HW210022   2.038   3.506   4.579  0.6975 -0.9866 -0.1864
    1SOL    HW310023   2.150   3.605   4.555 -0.7679  0.5044 -1.0118
    1SOL    MW410024   2.065   3.585   4.557 -0.5124 -0.6320 -0.4334
    1SOL     OW10025   0.397   0.141   4.540 -0.0411  0.0024 -0.3157
    1SOL    HW210026   0.314   0.186   4.557 -0.4811 -0.6702 -0.6536
    1SOL    HW310027   0.401   0.132   4.445 -0.6225 -1.8945 -0.1720
    1SOL    MW410028   0.387   0.146   4.530 -0.1759 -0.3366 -0.3414
    1SOL     OW10029   2.226   4.248   4.164 -0.2283  0.1525 -0.7705
    1SOL    HW210030   2.233   4.153   4.178  1.4498  0.2249 -1.0587
    1SOL    HW310031   2.149   4.274   4.215  0.4456 -1.0530  0.8908
    1SOL    MW410032   2.217   4.239   4.173  0.0820  0.0029 -0.5898
    1SOL     OW10033   1.791   3.255   4.213  0.4624  0.2264 -0.2076
    1SOL    HW210034   1.724   3.200   4.173 -0.1550  0.2864  0.7256
    1SOL    HW310035   1.869   3.200   4.217 -0.0202 -0.4346  0.2844
    1SOL    MW410036   1.792   3.241   4.209  0.3173  0.1471 -0.0191
    1SOL     OW10037   2.469   1.586   4.136 -0.1402 -0.3288  0.0205
    1SOL    HW210038   2.525   1.663   4.123  0.4025 -0.0446  3.5839
    1SOL    HW310039   2.460   1.548   4.049  0.0980  3.4145 -1.7317
    1SOL    MW410040   2.475   1.591   4.123 -0.0370  0.2027  0.2599
    1SOL     OW10041   1.822   0.898   4.246  0.0636 -0.2375 -0.1344
    1SOL    HW210042   1.755   0.845   4.201 -0.1689  0.3691 -0.5034
    1SOL    HW310043   1.810   0.877   4.339 -1.5811  0.9444 -0.0622
    1SOL    MW410044   1.811   0.888   4.252 -0.1841 -0.0015 -0.1736
    1SOL     OW10045   2.032   1.034   4.646 -0.1308 -0.1877  0.0821
    1SOL    HW210046   2.113   0.983   4.650  0.4713  0.5927 -1.7797
    1SOL    HW310047   2.056   1.115   4.601 -2.2585 -0.6200 -1.9614
    1SOL    MW410048   2.045   1.038   4.641 -0.3324 -0.1416 -0.4330
    1SOL     OW10049   0.473   1.664   4.238  0.7208 -0.6189  0.2429
    1SOL    HW210050   0.408   1.597   4.219  0.2744 -0.2806  0.5838
    1SOL    HW310051   0.556   1.625   4.210  0.3084 -0.8273 -0.7080
    1SOL    MW410052   0.476   1.650   4.232  0.6075 -0.6019  0.1621
    1SOL     OW10053   3.503   1.937   4.135 -0.0822 -0.2207 -0.2367
    1SOL    HW210054   3.433   1.895   4.185  0.1249 -0.0379  0.2107
    1SOL    HW310055   3.489   2.031   4.149 -1.0623 -0.0831 -1.9276
    1SOL    MW410056   3.492   1.944   4.143 -0.1841 -0.1785 -0.4010
    1SOL     OW10057   2.285   0.901   4.582 -0.0574  0.2411  0.2496
    1SOL    HW210058   2.380   0.910   4.580 -0.1082  1.1126  1.2513
    1SOL    HW310059   2.270   0.813   4.615  0.3995  0.1857  0.3148
    1SOL    MW410060   2.296   0.891   4.586 -0.0038  0.3488  0.3905
    1SOL     OW10061   1.997   2.109   4.291  0.6525 -0.0584  0.0317
    1SOL    HW210062   2.008   2.193   4.246  0.4093  0.4875  0.9778
    1SOL    HW310063   2.072   2.057   4.262  0.3316  0.1737 -1.2406
    1SOL    MW410064   2.008   2.114   4.281  0.5779  0.0443 -0.0110
    1SOL     OW10065   4.404   2.597   4.569 -0.5465 -0.1895  0.0842
    1SOL    HW210066   4.461   2.520   4.561  0.1419  0.0359  2.3864
    1SOL    HW310067   4.316   2.564   4.550 -0.0398 -1.2027 -0.5481
    1SOL    MW410068   4.400   2.582   4.566 -0.3891 -0.2933  0.3047
    1SOL     OW10069   2.909   3.829   4.602 -0.0740 -0.3769 -0.0186
    1SOL    HW210070   2.891   3.735   4.598 -0.6980 -0.2766  0.4713
    1SOL    HW310071   2.828   3.871   4.575  0.2753  0.0272 -0.4715
    1SOL    MW410072   2.896   3.822   4.598 -0.1104 -0.3104 -0.0134
    1SOL     OW10073   2.864   0.435   4.535 -0.1128  0.1539  0.1958
    1SOL    HW210074   2.885   0.521   4.572  0.2075 -0.6361  1.9144
    1SOL    HW310075   2.937   0.379   4.562 -0.3255 -0.6592 -0.9038
    1SOL    MW410076   2.877   0.439   4.544 -0.0985 -0.0576  0.2775
    1SOL     OW10077   3.024   1.613   4.784 -0.4338 -0.3433 -0.3082
    1SOL    HW210078   3.098   1.576   4.737  0.4781 -0.4693  1.2065
    1SOL    HW310079   3.037   1.708   4.778 -1.0267 -0.3194 -1.4048
    1SOL    MW410080   3.035   1.621   4.777 -0.3917 -0.3569 -0.2527
    1SOL     OW10081   3.689   2.150   4.754  0.3028  0.4487  0.1918
    1SOL    HW210082   3.755   2.205   4.797  0.6273  0.8868 -0.8660
    1SOL    HW310083   3.713   2.060   4.779  1.6517  0.5574 -0.6553
    1SOL    MW410084   3.701   2.145   4.763  0.5240  0.5207 -0.0587
    1SOL     OW10085   2.205   2.428   4.335 -0.6008  0.1035 -0.4954
    1SOL    HW210086   2.160   2.474   4.406 -0.3833  0.2546 -0.4542
    1SOL    HW310087   2.136   2.407   4.272 -0.5444  1.3566 -0.9903
    1SOL    MW410088   2.190   2.431   4.336 -0.5648  0.2887 -0.5555
    1SOL     OW10089   3.594   1.047   4.174 -0.4094 -0.0609  0.0578
    1SOL    HW210090   3.661   1.102   4.215 -0.7972  0.2895  0.2318
    1SOL    HW310091   3.585   1.083   4.086 -0.6955  0.1842  0.1865
    1SOL    MW410092   3.602   1.059   4.168 -0.4983  0.0179  0.0973
    1SOL     OW10093   2.085   2.529   4.571  0.3180 -0.0416 -0.1548
    1SOL    HW210094   2.123   2.446   4.600  1.0852  0.1317 -0.6530
    1SOL    HW310095   2.149   2.595   4.600 -0.5444  0.4206  0.7062
    1SOL    MW410096   2.099   2.527   4.579  0.3054  0.0424 -0.1073
    1SOL     OW10097   3.389   0.471   4.302 -0.2657  0.0760 -0.4729
    1SOL    HW210098   3.310   0.431   4.265 -0.0915 -1.2422  0.5548
    1SOL    HW310099   3.461   0.428   4.257 -0.0537 -1.4993  1.3402
    1SOL    MW410100   3.388   0.460   4.291 -0.2151 -0.3057 -0.0978
    1SOL     OW10101   2.563   0.961   4.537 -0.7818 -0.6548  0.2598
    1SOL    HW210102   2.576   0.871   4.567  0.5172 -0.4915  0.2273
    1SOL    HW310103   2.626   0.972   4.466 -0.8496  0.3110  0.3443
    1SOL    MW410104   2.573   0.951   4.532 -0.6194 -0.5058  0.2670
    1SOL     OW10105   2.708   1.110   4.731  0.3608 -0.0200 -0.4015
    1SOL    HW210106   2.655   1.051   4.677  0.4983  0.8915 -1.5309
    1SOL    HW310107   2.651   1.185   4.748  0.5739  0.0293  0.1168
    1SOL    MW410108   2.693   1.112   4.726  0.4072  0.1068 -0.4826
    1SOL     OW10109   2.291   3.032   4.794 -0.2904  0.1882  0.0314
    1SOL    HW210110   2.314   3.118   4.828 -0.0575  0.6061 -1.1968
    1SOL    HW310111   2.371   2.980   4.806  0.3573  0.8232 -1.5024
    1SOL    MW410112   2.305   3.036   4.800 -0.1745  0.3269 -0.3333
    1SOL     OW10113   0.239   1.531   4.184 -0.1859 -0.0133  0.0480
    1SOL    HW210114   0.240   1.450   4.235 -0.1530 -0.1841 -0.2258
    1SOL    HW310115   0.158   1.575   4.210  0.2054  0.2674  0.8277
    1SOL    MW410116   0.228   1.526   4.194 -0.1299  0.0013  0.1140
    1SOL     OW10117   1.515   4.188   4.644  0.0104 -0.6979 -0.1774
    1SOL    HW210118   1.568   4.265   4.624  1.5668 -1.9747 -1.1044
    1SOL    HW310119   1.504   4.191   4.739 -0.1143  0.7656 -0.2268
    1SOL    MW410120   1.521   4.199   4.654  0.1992 -0.6728 -0.3061
    1SOL     OW10121   0.248   2.277   4.149  0.1243  0.5848  0.1540
    1SOL    HW210122   0.253   2.196   4.199 -0.0393  0.0011 -0.7546
    1SOL    HW310123   0.309   2.336   4.193  0.0119  0.0665  1.0048
    1SOL    MW410124   0.257   2.274   4.161  0.0879  0.4396  0.1454
    1SOL     OW10125   1.107   3.850   4.162  0.0057 -0.3417 -0.1091
    1SOL    HW210126   1.029   3.894   4.197 -0.1795 -0.1324 -0.7890
    1SOL    HW310127   1.105   3.763   4.201 -0.5064 -0.2985 -0.0425
    1SOL    MW410128   1.097   3.844   4.172 -0.0863 -0.3083 -0.1898
    1SOL     OW10129   3.240   2.651   4.171 -0.0238  0.2117  0.2404
    1SOL    HW210130   3.218   2.651   4.078 -1.1637 -0.7919  0.5043
    1SOL    HW310131   3.167   2.606   4.213  0.6715  0.3207  1.5779
    1SOL    MW410132   3.228   2.645   4.164 -0.0825  0.0939  0.4516
    1SOL     OW10133   2.914   1.838   4.480  0.0887 -0.3061 -0.2487
    1SOL    HW210134   2.974   1.894   4.529 -0.8097  0.3943  0.0705
    1SOL    HW310135   2.852   1.806   4.545 -0.2745 -0.4919 -0.6871
    1SOL    MW410136   2.914   1.841   4.495 -0.0780 -0.2382 -0.2642
    1SOL     OW10137   1.670   0.501   4.245 -0.3827  0.3311 -0.4439
    1SOL    HW210138   1.740   0.448   4.207  0.2199  1.7506 -1.3594
    1SOL    HW310139   1.698   0.516   4.335 -1.5494 -2.5942  0.4478
    1SOL    MW410140   1.683   0.496   4.252 -0.4570  0.1325 -0.4473
    1SOL     OW10141   4.105   1.579   4.491 -0.0580 -0.1526  0.0733
    1SOL    HW210142   4.083   1.632   4.415  0.0516 -2.1305 -1.3730
    1SOL    HW310143   4.195   1.604   4.513 -0.1769  0.5967 -0.2944
    1SOL    MW410144   4.114   1.589   4.484 -0.0591 -0.3147 -0.1659
    1SOL     OW10145   0.029   3.414   4.761  0.0968 -0.0356  0.2726
    1SOL    HW210146   0.080   3.370   4.829 -0.2626 -0.1937  0.4386
    1SOL    HW310147  -0.027   3.345   4.724 -0.6593  0.3402  0.7148
    1SOL    MW410148   0.028   3.399   4.765 -0.0504 -0.0069  0.3529
    1SOL     OW10149   2.494   1.506   3.845 -0.1752 -0.6775 -0.0682
    1SOL    HW210150   2.554   1.571   3.808  0.0247 -1.5838 -1.3777
    1SOL    HW310151   2.407   1.536   3.819 -0.1528 -0.3960  0.1821
    1SOL    MW410152   2.491   1.519   3.837 -0.1459 -0.7598 -0.2081
    1SOL     OW10153   1.583   2.778   4.523 -0.7784  0.1838 -0.6229
    1SOL    HW210154   1.627   2.857   4.555  0.4244 -0.3217 -0.9949
    1SOL    HW310155   1.647   2.708   4.536 -1.0281 -0.3603 -2.3018
    1SOL    MW410156   1.597   2.779   4.529 -0.6527  0.0455 -0.8936
    1SOL     OW10157   1.252   2.453   4.430  0.1252 -0.1789  0.0626
    1SOL    HW210158   1.312   2.523   4.455 -1.0007  1.2128 -1.0442
    1SOL    HW310159   1.165   2.488   4.448 -0.4291 -1.5979  0.2234
    1SOL    MW410160   1.248   2.467   4.436 -0.0964 -0.1826 -0.0625
    1SOL     OW10161   1.342   1.674   4.249  0.4634 -0.7222 -0.2224
    1SOL    HW210162   1.344   1.762   4.211  0.8571 -1.0703 -1.0322
    1SOL    HW310163   1.311   1.687   4.338 -1.5887 -0.0025 -1.0062
    1SOL    MW410164   1.338   1.688   4.255  0.2445 -0.6732 -0.4320
    1SOL     OW10165   0.692   3.049   4.149 -0.1655  0.0595 -0.6273
    1SOL    HW210166   0.770   3.095   4.178 -0.0028  0.1116 -1.1354
    1SOL    HW310167   0.684   2.974   4.208 -0.1028  0.4160 -0.1665
    1SOL    MW410168   0.701   3.045   4.160 -0.1357  0.1132 -0.6337
    1SOL     OW10169   2.284   0.931   4.300 -0.4528  0.3103 -0.0354
    1SOL    HW210170   2.363   0.876   4.296 -1.3797 -1.0504  0.0145
    1SOL    HW310171   2.270   0.946   4.393 -0.1817  0.6693 -0.0503
    1SOL    MW410172   2.293   0.926   4.312 -0.5395  0.1782 -0.0305
    1SOL     OW10173   3.133   4.242   4.137 -0.1709  0.3572 -0.2908
    1SOL    HW210174   3.132   4.151   4.166 -0.0455 -0.0117 -1.3866
    1SOL    HW310175   3.202   4.283   4.188 -0.1703 -0.1846  0.1515
    1SOL    MW410176   3.142   4.235   4.147 -0.1543  0.2370 -0.3772
    1SOL     OW10177   1.015   0.819   4.540  0.3524 -0.2836  0.4530
    1SOL    HW210178   1.109   0.828   4.554  0.5160 -1.3480  0.0531
    1SOL    HW310179   0.994   0.732   4.573 -0.3106 -0.4601 -0.4325
    1SOL    MW410180   1.025   0.809   4.546  0.2866 -0.4473  0.2832
    1SOL     OW10181   1.668   3.033   4.613 -0.2628  0.1849  0.7966
    1SOL    HW210182   1.722   3.101   4.572 -0.9833  0.8094  0.8703
    1SOL    HW310183   1.578   3.061   4.596 -0.6092 -2.0781 -1.3896
    1SOL    MW410184   1.663   3.046   4.606 -0.4035 -0.0315  0.5174
    1SOL     OW10185   2.010   3.320   4.596  0.2698  0.0079  0.0263
    1SOL    HW210186   2.018   3.243   4.653  0.1359 -0.6584 -0.8458
    1SOL    HW310187   2.067   3.301   4.522  1.1226  1.2629  0.3568
    1SOL    MW410188   2.018   3.307   4.594  0.3648  0.0856 -0.0453
    1SOL     OW10189   1.406   3.123   4.592 -0.3178 -0.0553  0.1112
    1SOL    HW210190   1.367   3.040   4.621 -1.3427 -0.1498 -1.4910
    1SOL    HW310191   1.396   3.122   4.497  1.2310  1.1354 -0.0752
    1SOL    MW410192   1.400   3.112   4.584 -0.2487  0.0894 -0.1249
    1SOL     OW10193   2.020   4.625   4.166  0.2429  0.3232  0.2733
    1SOL    HW210194   2.011   4.648   4.073  0.9442  1.6690  0.5189
    1SOL    HW310195   1.950   4.675   4.208  0.0748 -0.1047  0.4928
    1SOL    MW410196   2.009   4.635   4.159  0.3133  0.4449  0.3347
    1SOL     OW10197   3.833   3.070   3.907 -0.6179  0.3769 -0.0554
    1SOL    HW210198   3.906   3.111   3.860 -2.2614  0.1926 -2.8962
    1SOL    HW310199   3.757   3.123   3.882 -1.8682 -0.9996  0.7877
    1SOL    MW410200   3.833   3.083   3.897 -0.9999  0.1712 -0.3190
    1SOL     OW10201   1.635   4.431   4.525  0.0199 -0.0204  0.0479
    1SOL    HW210202   1.565   4.491   4.551 -0.4847 -0.6015  0.0366
    1SOL    HW310203   1.607   4.395   4.441  0.1914 -0.4797  0.1844
    1SOL    MW410204   1.622   4.434   4.517 -0.0241 -0.1574  0.0644
    1SOL     OW10205   0.937   3.794   4.545  0.2924 -0.0623 -0.3026
    1SOL    HW210206   0.851   3.752   4.552  0.3604 -0.0715  0.5254
    1SOL    HW310207   0.999   3.721   4.541  0.4765 -0.0561  1.9961
    1SOL    MW410208   0.934   3.779   4.545  0.3257 -0.0629  0.1101
    1SOL     OW10209   1.804   1.171   4.163  0.3985  0.1903 -0.1826
    1SOL    HW210210   1.823   1.082   4.193  0.1413  0.3043  0.3320
    1SOL    HW310211   1.719   1.192   4.202  0.4571  0.6618 -0.2978
    1SOL    MW410212   1.795   1.162   4.172  0.3724  0.2676 -0.1297
    1SOL     OW10213   3.333   2.863   4.317 -0.9773  0.0404  0.5990
    1SOL    HW210214   3.385   2.821   4.385  0.7339  0.3328 -0.4916
    1SOL    HW310215   3.307   2.791   4.259 -1.0212  0.0097  0.6571
    1SOL    MW410216   3.337   2.848   4.318 -0.7572  0.0749  0.4630
    1SOL     OW10217   3.131   3.272   4.589 -0.2457 -0.2079 -0.3193
    1SOL    HW210218   3.054   3.216   4.601 -0.0695 -0.6613 -1.2222
    1SOL    HW310219   3.202   3.223   4.631 -0.1178 -0.5946 -0.9906
    1SOL    MW410220   3.130   3.258   4.596 -0.2053 -0.3188 -0.5269
    1SOL     OW10221   2.048   0.502   4.302  0.2603 -0.1999  0.1558
    1SOL    HW210222   2.132   0.459   4.282  0.8547  0.4090  1.2690
    1SOL    HW310223   2.054   0.587   4.259 -0.4480 -0.7705 -1.0911
    1SOL    MW410224   2.060   0.508   4.294  0.2453 -0.1948  0.1383
    1SOL     OW10225   0.278   0.508   4.248 -0.1625 -0.3656 -0.1124
    1SOL    HW210226   0.208   0.455   4.211  0.0327 -0.5272 -0.2491
    1SOL    HW310227   0.354   0.450   4.250 -0.6350 -0.9530  2.2747
    1SOL    MW410228   0.279   0.494   4.243 -0.1991 -0.4644  0.1845
    1SOL     OW10229   2.276   2.832   4.201  0.0128  0.0499 -0.4509
    1SOL    HW210230   2.273   2.790   4.115 -1.0106 -0.7135 -0.0455
    1SOL    HW310231   2.331   2.775   4.254 -0.5333 -0.2458 -0.1955
    1SOL    MW410232   2.283   2.819   4.197 -0.1943 -0.0901 -0.3638
    1SOL     OW10233   4.264   3.118   4.163 -0.1643  0.3149  0.2440
    1SOL    HW210234   4.261   3.033   4.206 -0.3026 -1.1783 -2.5739
    1SOL    HW310235   4.287   3.098   4.072  3.2529  3.5627  0.2653
    1SOL    MW410236   4.267   3.104   4.156  0.2685  0.5462 -0.1249
    1SOL     OW10237   0.880   4.005   4.253  0.1755 -0.0299 -0.0362
    1SOL    HW210238   0.860   4.087   4.208  1.3357  0.2201 -0.1148
    1SOL    HW310239   0.891   4.030   4.345 -1.3594 -0.4093  0.2743
    1SOL    MW410240   0.879   4.019   4.259  0.1261 -0.0472 -0.0057
    1SOL     OW10241   0.467   2.356   4.539  0.0598 -0.0006 -0.2934
    1SOL    HW210242   0.551   2.335   4.578  0.1943  0.9332 -0.0643
    1SOL    HW310243   0.485   2.370   4.446  0.4087  1.5274 -0.0179
    1SOL    MW410244   0.480   2.355   4.532  0.1236  0.3240 -0.2265
    1SOL     OW10245   2.864   1.300   4.576  0.0538  0.0495  0.2710
    1SOL    HW210246   2.815   1.234   4.625  0.8235  0.2132  1.2913
    1SOL    HW310247   2.845   1.382   4.621  0.8535  0.1897  0.3702
    1SOL    MW410248   2.855   1.302   4.588  0.2608  0.0896  0.4187
    1SOL     OW10249   3.787   1.617   4.173 -0.3461  0.5282 -0.3113
    1SOL    HW210250   3.717   1.568   4.216 -2.2101  3.3736  0.0347
    1SOL    HW310251   3.799   1.573   4.089 -1.4509 -0.9486  0.2860
    1SOL    MW410252   3.780   1.605   4.168 -0.7379  0.7086 -0.1864
    1SOL     OW10253   1.196   0.490   4.317  0.3745 -0.2297  0.2126
    1SOL    HW210254   1.252   0.507   4.393  0.4916 -1.3889  0.3935
    1SOL    HW310255   1.248   0.434   4.260  0.2799  0.6247 -0.7368
    1SOL    MW410256   1.210   0.485   4.320  0.3774 -0.2699  0.1111
    1SOL     OW10257   3.009   2.388   4.050  0.3234  0.1071 -0.0346
    1SOL    HW210258   2.996   2.442   4.129 -1.6208  0.3727 -0.5035
    1SOL    HW310259   2.976   2.302   4.075  1.6342 -0.3580  0.0942
    1SOL    MW410260   3.003   2.384   4.064  0.2396  0.0808 -0.0801
    1SOL     OW10261   2.267   2.743   4.615  0.5901 -0.3149 -0.2967
    1SOL    HW210262   2.313   2.724   4.533  1.5610  1.7494 -0.2588
    1SOL    HW310263   2.336   2.750   4.680 -0.2461 -2.8736  0.9490
    1SOL    MW410264   2.282   2.741   4.613  0.6080 -0.3803 -0.1268
    1SOL     OW10265   3.619   0.797   4.303 -0.4014 -0.4041  0.2478
    1SOL    HW210266   3.618   0.879   4.252  0.2740  0.5806  1.7823
    1SOL    HW310267   3.694   0.748   4.268  0.3742  0.4964  0.6166
    1SOL    MW410268   3.629   0.802   4.291 -0.2100 -0.1554  0.4992
    1SOL     OW10269   3.881   1.681   4.627  0.0159  0.2722  0.6419
    1SOL    HW210270   3.968   1.647   4.609 -0.2404  0.3039 -0.6679
    1SOL    HW310271   3.827   1.604   4.643  0.4478  0.2835  2.2768
    1SOL    MW410272   3.885   1.667   4.627  0.0391  0.2779  0.6852
    1SOL     OW10273   3.096   4.035   4.496 -0.1175  0.2043 -0.6545
    1SOL    HW210274   3.041   3.967   4.535  0.5829 -0.0831 -0.1495
    1SOL    HW310275   3.108   4.006   4.405  1.3993 -1.1324 -0.0458
    1SOL    MW410276   3.090   4.022   4.489  0.1752 -0.0100 -0.5074
    1SOL     OW10277   3.394   4.170   4.729 -0.1611  0.4867 -0.3816
    1SOL    HW210278   3.401   4.079   4.699 -0.4769  0.5530 -0.6620
    1SOL    HW310279   3.352   4.163   4.815  1.5869  0.2284  0.4721
    1SOL    MW410280   3.389   4.157   4.736  0.0279  0.4611 -0.3061
    1SOL     OW10281   0.421   4.237   4.221  0.1116 -0.3183 -0.6344
    1SOL    HW210282   0.422   4.144   4.245  1.1517  0.1437  1.2262
    1SOL    HW310283   0.423   4.237   4.125 -0.7325 -2.2118 -0.6814
    1SOL    MW410284   0.421   4.224   4.211  0.1374 -0.5069 -0.3953
    1SOL     OW10285   3.601   0.751   4.584 -0.3109  0.4305 -0.3398
    1SOL    HW210286   3.519   0.704   4.596 -0.0399  0.1280  0.3455
    1SOL    HW310287   3.612   0.757   4.489  0.4854 -2.3667 -0.4686
    1SOL    MW410288   3.592   0.746   4.573 -0.1700  0.0215 -0.2661
    1SOL     OW10289   3.101   3.223   4.298 -0.1663 -0.0830 -0.5631
    1SOL    HW210290   3.120   3.221   4.392 -1.2701 -3.0945 -0.3523
    1SOL    HW310291   3.180   3.186   4.257 -0.1410  0.1632 -0.7390
    1SOL    MW410292   3.114   3.217   4.305 -0.3088 -0.4478 -0.5589
    1SOL     OW10293   1.339   1.077   4.643  0.1449  0.1544  0.6392
    1SOL    HW210294   1.431   1.102   4.631  0.2612 -0.1439  0.9044
    1SOL    HW310295   1.327   1.073   4.738 -0.2862  0.7037  0.6162
    1SOL    MW410296   1.350   1.080   4.654  0.1034  0.1876  0.6709
    1SOL     OW10297   1.151   1.529   4.103  0.1325 -0.2523  0.3425
    1SOL    HW210298   1.220   1.572   4.153 -0.3124 -0.8127  1.4373
    1SOL    HW310299   1.070   1.571   4.132 -0.2062 -1.1385  0.6765
    1SOL    MW410300   1.149   1.540   4.113  0.0292 -0.4430  0.5317
    1SOL     OW10301   3.178   0.095   4.190 -0.4758 -0.5656  0.3849
    1SOL    HW210302   3.180   0.187   4.166 -0.0913 -0.4271  0.9534
    1SOL    HW310303   3.252   0.056   4.142 -1.3398 -0.8126 -0.7833
    1SOL    MW410304   3.188   0.102   4.180 -0.5391 -0.5799  0.3057
    1SOL     OW10305   3.952   2.752   4.552 -0.3056  0.6204  0.2144
    1SOL    HW210306   4.044   2.774   4.540  0.4167 -2.0205  0.4486
    1SOL    HW310307   3.910   2.776   4.470  1.0785 -0.3883 -0.8145
    1SOL    MW410308   3.959   2.758   4.540 -0.0279  0.1390  0.1092
    1SOL     OW10309   0.777   2.329   4.534 -0.0659  0.1475  0.1760
    1SOL    HW210310   0.798   2.236   4.541  0.3670  0.3495  1.7576
    1SOL    HW310311   0.803   2.353   4.445  0.2054 -1.1483 -0.0974
    1SOL    MW410312   0.784   2.320   4.523  0.0271  0.0033  0.3495
    1SOL     OW10313   3.145   1.234   4.545 -0.1416 -0.0165  0.0559
    1SOL    HW210314   3.171   1.157   4.596 -0.9936 -0.9427 -0.8791
    1SOL    HW310315   3.052   1.244   4.561  0.1281  1.3413  0.8301
    1SOL    MW410316   3.136   1.225   4.554 -0.2182  0.0405  0.0348
    1SOL     OW10317   3.190   0.853   4.241 -0.0576  0.5257  0.0173
    1SOL    HW210318   3.260   0.808   4.194  0.1213  1.1658 -0.3469
    1SOL    HW310319   3.234   0.919   4.293 -0.4291  1.3593 -0.7037
    1SOL    MW410320   3.205   0.856   4.241 -0.0830  0.7201 -0.1259
    1SOL     OW10321   3.591   0.361   3.887 -0.6016  0.1782 -0.5332
    1SOL    HW210322   3.599   0.270   3.860 -1.2593  0.6566 -2.4287
    1SOL    HW310323   3.680   0.396   3.882 -0.1560 -0.6556  1.3403
    1SOL    MW410324   3.604   0.354   3.883 -0.6294  0.1313 -0.5362
    1SOL     OW10325   4.042   2.253   4.619  0.1283  0.0133 -0.0889
    1SOL    HW210326   4.029   2.250   4.714 -0.3458 -0.6465 -0.1690
    1SOL    HW310327   3.961   2.217   4.583  0.6605 -0.5757 -0.7159
    1SOL    MW410328   4.030   2.248   4.627  0.1359 -0.1514 -0.1822
    1SOL     OW10329   2.402   2.644   4.382 -0.3622  0.0101 -0.1868
    1SOL    HW210330   2.495   2.623   4.370 -0.1085  0.2682  1.2290
    1SOL    HW310331   2.357   2.560   4.370  0.2435 -0.5152  1.0881
    1SOL    MW410332   2.409   2.630   4.379 -0.2489 -0.0250  0.1683
    1SOL     OW10333   2.912   2.674   4.743  0.2721 -0.4864 -0.0436
    1SOL    HW210334   2.939   2.652   4.654  0.6313  1.9420 -0.5825
    1SOL    HW310335   2.991   2.666   4.795  0.7169  0.8484 -0.4972
    1SOL    MW410336   2.926   2.670   4.738  0.3781  0.0100 -0.1745
    1SOL     OW10337   3.504   1.820   4.443 -0.4114  0.1626  0.3592
    1SOL    HW210338   3.595   1.848   4.454 -0.0651 -0.8266  0.0030
    1SOL    HW310339   3.453   1.893   4.479  0.5210  0.5424  0.9431
    1SOL    MW410340   3.509   1.834   4.449 -0.2427  0.0823  0.3896
    1SOL     OW10341   2.714   4.270   4.529  0.0683  0.0645  0.1502
    1SOL    HW210342   2.803   4.306   4.531  0.1258  0.2342 -2.9624
    1SOL    HW310343   2.726   4.175   4.535  0.5284  0.0567 -0.7384
    1SOL    MW410344   2.727   4.262   4.530  0.1366  0.0863 -0.3777
    1SOL     OW10345   2.669   0.290   4.647 -0.0215  0.1380 -0.0844
    1SOL    HW210346   2.720   0.238   4.710 -0.5190 -0.2558 -0.0015
    1SOL    HW310347   2.733   0.350   4.609  0.1352  0.9194  1.3618
    1SOL    MW410348   2.685   0.291   4.651 -0.0663  0.1892  0.1173
    1SOL     OW10349   3.773   1.865   4.448 -0.4340 -0.1706  0.3816
    1SOL    HW210350   3.787   1.861   4.353  0.8986  1.5705  0.4805
    1SOL    HW310351   3.816   1.787   4.482 -0.8131 -0.7386 -0.4235
    1SOL    MW410352   3.780   1.854   4.440 -0.3083 -0.0159  0.2880
    1SOL     OW10353   3.564   0.035   4.265 -0.1546 -0.2780 -0.2491
    1SOL    HW210354   3.546   0.127   4.244 -2.1675 -0.2868  1.1998
    1SOL    HW310355   3.523   0.023   4.351  2.6705 -1.7513  0.9499
    1SOL    MW410356   3.556   0.046   4.274 -0.0474 -0.4735  0.1001
    1SOL     OW10357   3.654   2.353   4.065  0.0327  0.1717  0.0641
    1SOL    HW210358   3.606   2.284   4.110 -1.8319  0.7417 -1.0135
    1SOL    HW310359   3.609   2.434   4.089 -0.8154  0.5160 -2.5455
    1SOL    MW410360   3.642   2.355   4.074 -0.3250  0.2923 -0.4220
    1SOL     OW10361   2.435   0.513   4.587 -0.3175 -0.3507  0.5479
    1SOL    HW210362   2.478   0.431   4.614 -2.0871 -1.6374 -0.4484
    1SOL    HW310363   2.442   0.513   4.492  1.1409  1.5246  0.6150
    1SOL    MW410364   2.442   0.502   4.578 -0.3586 -0.2730  0.4249
    1SOL     OW10365   3.803   3.077   4.202  0.1763  0.1246 -0.2130
    1SOL    HW210366   3.800   3.082   4.106  0.5694  0.4087 -0.2152
    1SOL    HW310367   3.720   3.115   4.231  0.1925  0.3306 -0.4340
    1SOL    MW410368   3.792   3.083   4.193  0.2303  0.1893 -0.2422
    1SOL     OW10369   3.354   4.340   4.258 -0.3279  0.0122  0.3084
    1SOL    HW210370   3.368   4.344   4.353 -0.0138  2.3840  0.1862
    1SOL    HW310371   3.437   4.306   4.223  0.3098  1.1261  0.7163
    1SOL    MW410372   3.367   4.336   4.266 -0.2024  0.4716  0.3462
    1SOL     OW10373   3.309   3.585   4.311  0.0376  0.0766  0.0610
    1SOL    HW210374   3.391   3.572   4.263 -0.0384 -1.9149  0.4591
    1SOL    HW310375   3.244   3.535   4.262 -0.8010  1.0398  0.1782
    1SOL    MW410376   3.311   3.577   4.298 -0.0832 -0.0589  0.1292
    1SOL     OW10377   3.816   4.629   4.196  0.3078  0.6407 -0.2134
    1SOL    HW210378   3.742   4.673   4.240  0.8057 -0.1530  1.4753
    1SOL    HW310379   3.893   4.678   4.226  0.5840  0.5834 -0.8426
    1SOL    MW410380   3.816   4.641   4.206  0.4101  0.5279 -0.0739
    1SOL     OW10381   2.819   2.412   4.697  0.2276  0.0519 -0.0567
    1SOL    HW210382   2.882   2.410   4.625  1.4839  0.2229  1.0170
    1SOL    HW310383   2.840   2.492   4.745  0.7357 -1.0762  1.6557
    1SOL    MW410384   2.830   2.422   4.694  0.4604 -0.0741  0.3109
    1SOL     OW10385   3.533   3.494   4.169 -0.2815  0.1988  0.3895
    1SOL    HW210386   3.615   3.540   4.187 -0.2188  0.7516 -1.2763
    1SOL    HW310387   3.549   3.404   4.199  0.7999  0.3979  0.4186
    1SOL    MW410388   3.546   3.488   4.176 -0.1307  0.2978  0.1736
    1SOL     OW10389   0.675   0.236   4.596  0.2373 -0.1220 -0.3214
    1SOL    HW210390   0.584   0.208   4.592  0.4211 -0.5810 -1.3950
    1SOL    HW310391   0.671   0.331   4.591 -0.1799 -0.1407 -0.3943
    1SOL    MW410392   0.662   0.245   4.595  0.2065 -0.1850 -0.4725
    1SOL     OW10393   4.314   1.178   4.547 -0.0975  0.0984 -0.3454
    1SOL    HW210394   4.364   1.251   4.583  0.9752 -0.5302 -0.5273
    1SOL    HW310395   4.225   1.191   4.579 -0.0506  1.8216 -0.8811
    1SOL    MW410396   4.309   1.189   4.556  0.0501  0.2428 -0.4406
    1SOL     OW10397   3.122   3.974   4.227  0.0938  0.0076 -0.2023
    1SOL    HW210398   3.210   3.939   4.212 -0.3675 -1.3244  0.1649
    1SOL    HW310399   3.063   3.908   4.191 -0.7838  0.5680  0.1919
    1SOL    MW410400   3.126   3.961   4.220 -0.0825 -0.0944 -0.1020
    1SOL     OW10401   0.709   1.781   4.604 -0.2578 -0.5548  0.0670
    1SOL    HW210402   0.622   1.752   4.576 -0.1901 -0.3560 -0.3560
    1SOL    HW310403   0.769   1.725   4.556 -0.1469 -0.4333  0.0638
    1SOL    MW410404   0.705   1.770   4.594 -0.2342 -0.5126  0.0110
    1SOL     OW10405   0.312   2.139   4.647 -0.3530  0.1537  0.3897
    1SOL    HW210406   0.370   2.208   4.616 -1.1150  0.3028 -0.7095
    1SOL    HW310407   0.315   2.147   4.743  0.4735  0.9384  0.3048
    1SOL    MW410408   0.320   2.149   4.656 -0.3445  0.2768  0.2327
    1SOL     OW10409   2.479   2.826   4.835 -0.5124 -0.4342  0.1261
    1SOL    HW210410   2.505   2.744   4.794  1.0509  0.3623 -0.5146
    1SOL    HW310411   2.485   2.809   4.929  0.4174 -0.8793 -0.0102
    1SOL    MW410412   2.483   2.813   4.842 -0.1833 -0.3877  0.0234
    1SOL     OW10413   0.674   3.685   4.540  0.1244  0.4336  0.0545
    1SOL    HW210414   0.669   3.630   4.461 -1.1834 -0.7291  0.9422
    1SOL    HW310415   0.591   3.733   4.542  1.2929  2.5854 -0.7753
    1SOL    MW410416   0.662   3.684   4.530  0.1060  0.5641  0.0625
    1SOL     OW10417   3.329   2.038   4.506 -0.3218 -0.2934  0.0899
    1SOL    HW210418   3.361   2.115   4.552 -0.6042  0.9285 -1.7225
    1SOL    HW310419   3.298   2.071   4.421  1.0515 -2.6050 -1.3770
    1SOL    MW410420   3.329   2.052   4.501 -0.1779 -0.4373 -0.3433
    1SOL     OW10421   3.265   2.865   4.715  0.2821 -0.5366  0.2027
    1SOL    HW210422   3.229   2.799   4.775 -0.0550 -0.0014  0.5904
    1SOL    HW310423   3.196   2.879   4.651 -0.4732  0.9538  1.3070
    1SOL    MW410424   3.251   2.858   4.715  0.1378 -0.2694  0.4001
    1SOL     OW10425   2.953   0.909   4.767  0.1638  0.2102  0.0722
    1SOL    HW210426   3.044   0.941   4.770  0.5611 -0.8415 -0.4254
    1SOL    HW310427   2.901   0.983   4.797  1.1089  1.1502 -0.5528
    1SOL    MW410428   2.958   0.923   4.772  0.3409  0.1954 -0.0763
    1SOL     OW10429   4.048   3.253   4.533 -0.0512 -0.3909 -0.0719
    1SOL    HW210430   4.051   3.253   4.437  0.4116 -2.1019 -0.0725
    1SOL    HW310431   3.964   3.292   4.554 -0.1730 -0.0245 -1.1690
    1SOL    MW410432   4.038   3.258   4.523 -0.0062 -0.5682 -0.2165
    1SOL     OW10433   3.710   4.074   4.628 -0.3382  0.3399  0.4014
    1SOL    HW210434   3.670   4.006   4.573 -1.3463 -0.0027  1.5363
    1SOL    HW310435   3.637   4.128   4.657  0.3480  1.3428  0.3077
    1SOL    MW410436   3.695   4.072   4.625 -0.3808  0.4268  0.5388
    1SOL     OW10437   3.413   4.619   4.504  0.0243 -0.4151  0.0242
    1SOL    HW210438   3.319   4.640   4.507 -0.2933 -1.7321 -0.2905
    1SOL    HW310439   3.416   4.523   4.507  1.4091 -0.3510  0.9936
    1SOL    MW410440   3.401   4.609   4.505  0.1650 -0.5808  0.1106
    1SOL     OW10441   1.992   4.383   4.267  0.6521  0.2277 -0.4290
    1SOL    HW210442   1.992   4.471   4.228 -1.2849  0.1297 -0.6678
    1SOL    HW310443   1.983   4.399   4.361  2.4627  0.3494 -0.2577
    1SOL    MW410444   1.991   4.397   4.275  0.6355  0.2303 -0.4382
    1SOL     OW10445   4.198   3.840   4.823 -0.2501  0.1268 -0.5446
    1SOL    HW210446   4.261   3.779   4.785 -1.2464 -1.6086  0.5286
    1SOL    HW310447   4.217   3.838   4.917 -1.1098  0.5088 -0.3586
    1SOL    MW410448   4.209   3.832   4.831 -0.4954 -0.0520 -0.3791
    1SOL     OW10449   1.569   4.369   4.267 -0.0747  0.2432  0.0491
    1SOL    HW210450   1.496   4.323   4.225 -0.7944  0.9327  0.5184
    1SOL    HW310451   1.647   4.328   4.231 -0.6966 -0.6866 -0.2634
    1SOL    MW410452   1.570   4.358   4.256 -0.2517  0.2117  0.0696
    1SOL     OW10453   3.848   2.821   4.298 -0.1966  0.1764  0.2011
    1SOL    HW210454   3.918   2.791   4.240 -0.9752 -0.1763 -0.5695
    1SOL    HW310455   3.821   2.906   4.263 -3.3570 -1.7601 -2.4066
    1SOL    MW410456   3.853   2.828   4.286 -0.7162 -0.1254 -0.2441
    1SOL     OW10457   0.692   1.549   4.136 -0.5398  0.3742  0.2905
    1SOL    HW210458   0.719   1.459   4.153 -2.5589 -0.0123  1.6850
    1SOL    HW310459   0.680   1.552   4.041  1.0810 -0.3554  0.0419
    1SOL    MW410460   0.694   1.537   4.126 -0.5924  0.2271  0.4425
    1SOL     OW10461   3.397   0.692   4.145  0.2695  0.3493  0.0022
    1SOL    HW210462   3.381   0.614   4.198  0.1848  0.5751  0.3073
    1SOL    HW310463   3.481   0.726   4.176 -0.1196  0.8759  0.4654
    1SOL    MW410464   3.406   0.686   4.156  0.2069  0.4486  0.1040
    1SOL     OW10465   1.245   2.206   4.604  0.1814  0.7506  0.3531
    1SOL    HW210466   1.242   2.263   4.527 -0.5010  0.5446  0.2164
    1SOL    HW310467   1.321   2.151   4.590  0.0966  0.7578 -0.1511
    1SOL    MW410468   1.254   2.206   4.592  0.0801  0.7246  0.2689
    1SOL     OW10469   0.965   0.544   4.597 -0.2565  0.7261 -0.4217
    1SOL    HW210470   0.872   0.526   4.609 -0.1877 -0.2377 -1.2808
    1SOL    HW310471   1.007   0.458   4.601  0.4203  0.9886 -1.6444
    1SOL    MW410472   0.959   0.530   4.599 -0.1581  0.6336 -0.6962
    1SOL     OW10473   4.483   2.303   4.480 -0.0379  0.0367 -0.5436
    1SOL    HW210474   4.411   2.245   4.505 -0.2409 -0.6700 -2.7048
    1SOL    HW310475   4.562   2.259   4.512 -0.5021  0.7376  1.6921
    1SOL    MW410476   4.484   2.290   4.488 -0.1259  0.0358 -0.5336
    1SOL     OW10477   0.017   2.421   4.224 -0.5435 -0.4061  0.3359
    1SOL    HW210478   0.087   2.364   4.193 -0.7788 -1.0653  0.9950
    1SOL    HW310479   0.001   2.393   4.314 -0.6048  0.7577  0.6992
    1SOL    MW410480   0.024   2.410   4.232 -0.5827 -0.3397  0.4711
    1SOL     OW10481   2.924   4.365   4.245 -0.2889  0.1030 -0.3409
    1SOL    HW210482   2.988   4.315   4.195 -0.7725  0.6706 -1.5461
    1SOL    HW310483   2.839   4.333   4.213 -0.6099 -0.4995  1.0907
    1SOL    MW410484   2.921   4.354   4.234 -0.3951  0.0987 -0.3109
    1SOL     OW10485   0.211   1.273   4.586  0.0548  0.1401  0.5470
    1SOL    HW210486   0.294   1.305   4.622 -0.6068  0.7301  1.5811
    1SOL    HW310487   0.219   1.285   4.491  1.0023  0.5332  0.6744
    1SOL    MW410488   0.223   1.279   4.578  0.0925  0.2699  0.7010
    1SOL     OW10489   2.878   1.720   4.075 -0.1661  0.4446  0.0790
    1SOL    HW210490   2.788   1.751   4.069 -0.5857 -0.9202 -1.0347
    1SOL    HW310491   2.871   1.637   4.123  0.5805  0.6414  0.5376
    1SOL    MW410492   2.865   1.713   4.080 -0.1230  0.2905 -0.0076
    1SOL     OW10493   3.354   3.834   4.183 -0.3319  0.2710 -0.4026
    1SOL    HW210494   3.360   3.808   4.091  0.5663  1.8301 -0.8037
    1SOL    HW310495   3.332   3.753   4.229  1.5913 -1.0290 -1.6913
    1SOL    MW410496   3.351   3.820   4.177  0.0408  0.3052 -0.6261
    1SOL     OW10497   2.933   3.800   4.124  0.0661  0.0248  0.0758
    1SOL    HW210498   2.858   3.858   4.139  0.5029  0.5382  0.2889
    1SOL    HW310499   2.928   3.736   4.195 -0.3246 -0.0979 -0.0630
    1SOL    MW410500   2.922   3.800   4.135  0.0722  0.0763  0.0858
    1SOL     OW10501   1.090   4.348   4.215 -0.1728  0.4325  0.0254
    1SOL    HW210502   1.162   4.289   4.192 -1.2558 -0.4521 -1.1881
    1SOL    HW310503   1.118   4.434   4.183 -0.5307 -0.2960 -2.4213
    1SOL    MW410504   1.103   4.351   4.207 -0.3628  0.2193 -0.4573
    1SOL     OW10505   1.508   3.872   4.192  0.1618 -0.5768  0.2031
    1SOL    HW210506   1.590   3.899   4.235  0.0781 -1.6148  1.0495
    1SOL    HW310507   1.496   3.781   4.220 -1.3100 -0.4141  0.1136
    1SOL    MW410508   1.517   3.863   4.202 -0.0434 -0.6924  0.3028
    1SOL     OW10509   0.395   3.345   4.690  0.2937  0.0535 -0.0195
    1SOL    HW210510   0.352   3.315   4.770  0.0313 -0.9227 -0.5113
    1SOL    HW310511   0.328   3.394   4.643  0.7885  1.6361  0.8930
    1SOL    MW410512   0.381   3.347   4.695  0.3243  0.1338  0.0362
    1SOL     OW10513   4.075   0.386   4.153 -0.5838 -0.0234 -0.6938
    1SOL    HW210514   4.148   0.423   4.203 -0.4247 -0.1077 -0.8616
    1SOL    HW310515   3.997   0.411   4.202 -0.4288 -0.1024 -0.4071
    1SOL    MW410516   4.074   0.394   4.166 -0.5422 -0.0449 -0.6781
    1SOL     OW10517   4.393   0.507   4.565  0.0914 -0.2083 -0.2895
    1SOL    HW210518   4.385   0.601   4.583  0.7505 -0.1497 -0.2838
    1SOL    HW310519   4.487   0.493   4.553  0.1050 -1.0704  0.7875
    1SOL    MW410520   4.404   0.518   4.566  0.1802 -0.3144 -0.1469
    1SOL     OW10521   2.723   3.955   4.194  0.2049  0.0089 -0.1333
    1SOL    HW210522   2.706   4.047   4.177  0.7180  0.1943  0.3514
    1SOL    HW310523   2.637   3.913   4.189  0.0667  0.3888 -1.0777
    1SOL    MW410524   2.709   3.961   4.191  0.2546  0.0834 -0.1941
    1SOL     OW10525   4.229   3.599   4.287 -0.0702 -0.1191  0.3806
    1SOL    HW210526   4.307   3.563   4.244  1.0632  0.5012  1.8549
    1SOL    HW310527   4.156   3.566   4.236  1.1335 -1.3460 -0.5901
    1SOL    MW410528   4.230   3.590   4.275  0.2384 -0.1993  0.4468
    1SOL     OW10529   2.183   3.253   4.349  0.3314  0.2744 -0.6169
    1SOL    HW210530   2.148   3.183   4.293 -0.8678  0.3532  0.0241
    1SOL    HW310531   2.244   3.208   4.408 -1.0850 -0.3975  0.3734
    1SOL    MW410532   2.187   3.238   4.349 -0.0138  0.1962 -0.4010
    1SOL     OW10533   0.190   3.811   4.516  0.2507  0.2058  0.3514
    1SOL    HW210534   0.284   3.825   4.524  0.2565  0.1347  0.4040
    1SOL    HW310535   0.151   3.896   4.541  0.3151  0.3601 -0.0777
    1SOL    MW410536   0.197   3.824   4.521  0.2600  0.2165  0.3018
    1SOL     OW10537   2.071   0.759   4.186  0.0252  0.0542 -0.3354
    1SOL    HW210538   2.143   0.804   4.230  1.1859 -1.4042 -0.6826
    1SOL    HW310539   1.993   0.809   4.209  1.1900  1.8405 -0.1984
    1SOL    MW410540   2.070   0.771   4.195  0.3321  0.0975 -0.3629
    1SOL     OW10541   2.571   2.919   4.493 -0.4065 -0.0794  0.3209
    1SOL    HW210542   2.614   2.838   4.466  1.1590  0.5878  0.7405
    1SOL    HW310543   2.609   2.938   4.579 -1.6213  0.4905  0.7416
    1SOL    MW410544   2.582   2.911   4.501 -0.3603  0.0837  0.4315
    1SOL     OW10545   1.590   3.050   4.120  0.1684 -0.6749 -0.1242
    1SOL    HW210546   1.568   3.047   4.027 -0.4830 -1.9636  0.0562
    1SOL    HW310547   1.596   2.958   4.146 -0.5044 -0.3260  1.3131
    1SOL    MW410548   1.588   3.037   4.111 -0.0063 -0.7987  0.0887
    1SOL     OW10549   0.784   2.049   4.533 -0.6572  0.1226  0.1846
    1SOL    HW210550   0.757   2.050   4.441 -0.2249  0.2755  0.0603
    1SOL    HW310551   0.776   1.957   4.559  2.1854 -0.4872 -0.8831
    1SOL    MW410552   0.779   2.037   4.524 -0.2251  0.0625  0.0277
    1SOL     OW10553   0.442   3.126   4.521 -0.3813  0.1931  0.2468
    1SOL    HW210554   0.441   3.205   4.575 -0.0457  1.1436 -1.1070
    1SOL    HW310555   0.468   3.157   4.434 -0.9510 -1.2998 -0.4706
    1SOL    MW410556   0.445   3.140   4.516 -0.4122  0.1216 -0.0272
    1SOL     OW10557   2.331   3.074   4.513 -0.2370 -0.0065  0.2505
    1SOL    HW210558   2.312   3.051   4.604 -1.1525  0.7342  0.2495
    1SOL    HW310559   2.385   3.001   4.481  0.2307 -0.1885  1.4269
    1SOL    MW410560   2.336   3.061   4.521 -0.2961  0.0672  0.4053
    1SOL     OW10561   4.312   0.474   4.295  0.4578  0.4611 -0.3555
    1SOL    HW210562   4.297   0.565   4.271 -0.4484  0.6318  0.8673
    1SOL    HW310563   4.331   0.476   4.389 -1.2140 -0.7727  0.0365
    1SOL    MW410564   4.313   0.486   4.304  0.1178  0.3209 -0.1426
    1SOL     OW10565   0.930   3.183   4.272  0.5538  0.4102  0.1462
    1SOL    HW210566   0.953   3.200   4.363  0.8007  0.1104  0.1419
    1SOL    HW310567   0.998   3.123   4.241  0.3185  0.2965 -0.1546
    1SOL    MW410568   0.942   3.177   4.280  0.5552  0.3557  0.1063
    1SOL     OW10569   4.002   3.478   4.172 -0.1488  0.2422 -0.1081
    1SOL    HW210570   4.016   3.391   4.211  0.4377 -0.2940 -1.4752
    1SOL    HW310571   4.029   3.467   4.081 -1.8060  1.3927 -0.7445
    1SOL    MW410572   4.007   3.465   4.165 -0.2894  0.3231 -0.3724
    1SOL     OW10573   2.680   3.181   4.244 -0.4302  0.2508 -0.0746
    1SOL    HW210574   2.608   3.120   4.229  0.0904 -0.2113 -0.7050
    1SOL    HW310575   2.756   3.140   4.203  0.5673 -0.0132  1.9612
    1SOL    MW410576   2.680   3.168   4.237 -0.2301  0.1550  0.1111
    1SOL     OW10577   0.788   0.962   4.554  0.2265  0.3957 -0.4434
    1SOL    HW210578   0.836   1.042   4.577 -1.2167  1.2321 -0.2991
    1SOL    HW310579   0.854   0.893   4.557  0.9712  1.1705  1.9873
    1SOL    MW410580   0.803   0.964   4.558  0.1343  0.6083 -0.1040
    1SOL     OW10581   1.833   0.107   4.310  0.0381 -0.4640  0.7694
    1SOL    HW210582   1.803   0.124   4.399  0.0474 -1.2750  0.9397
    1SOL    HW310583   1.768   0.046   4.274  0.7983 -1.2662  0.7220
    1SOL    MW410584   1.821   0.101   4.317  0.1396 -0.6768  0.7854
    1SOL     OW10585   0.689   0.508   4.242 -0.3389 -0.1673  0.4628
    1SOL    HW210586   0.777   0.482   4.213 -0.2867 -1.3736  1.6704
    1SOL    HW310587   0.685   0.602   4.224  1.2087 -0.0968  0.4357
    1SOL    MW410588   0.700   0.517   4.236 -0.1277 -0.3172  0.6185
    1SOL     OW10589   3.769   1.898   4.172  0.3781  0.3057  0.4536
    1SOL    HW210590   3.677   1.923   4.181  0.3446  1.0185 -1.5642
    1SOL    HW310591   3.768   1.803   4.164 -0.0064  0.1378  2.3510
    1SOL    MW410592   3.757   1.889   4.172  0.3231  0.3775  0.4377
    1SOL     OW10593   4.372   1.652   4.555 -0.1985 -0.3124  0.2799
    1SOL    HW210594   4.388   1.582   4.618 -0.1466 -0.7537 -0.2120
    1SOL    HW310595   4.428   1.630   4.480  0.6837  0.8827  0.5786
    1SOL    MW410596   4.381   1.640   4.553 -0.0744 -0.2131  0.2546
    1SOL     OW10597   3.344   3.916   4.600  0.0958  0.0863  0.3502
    1SOL    HW210598   3.275   3.969   4.561 -0.8319 -1.4548 -0.1739
    1SOL    HW310599   3.297   3.854   4.657  1.1424 -0.1549  0.9592
    1SOL    MW410600   3.329   3.915   4.603  0.1113 -0.1490  0.3614
    1SOL     OW10601   2.472   3.833   4.154 -0.1680 -0.0134 -0.1048
    1SOL    HW210602   2.465   3.748   4.197  0.8892  0.6641  1.4421
    1SOL    HW310603   2.398   3.884   4.188  1.8040  1.2017  2.5646
    1SOL    MW410604   2.461   3.829   4.164  0.2317  0.2360  0.4520
    1SOL     OW10605   0.997   2.486   4.582 -0.1459  0.0122  0.3310
    1SOL    HW210606   1.051   2.446   4.651 -0.3452 -0.0363  0.4580
    1SOL    HW310607   0.915   2.437   4.585  0.7345 -1.7029 -1.6195
    1SOL    MW410608   0.993   2.474   4.592 -0.0561 -0.2208  0.0901
    1SOL     OW10609   0.693   4.621   4.168  0.2460 -0.1773  0.2370
    1SOL    HW210610   0.609   4.648   4.205 -0.1125  0.1405 -0.7960
    1SOL    HW310611   0.681   4.628   4.073  0.8486 -1.8917  0.0208
    1SOL    MW410612   0.680   4.625   4.160  0.2782 -0.3614  0.0725
    1SOL     OW10613   1.670   0.157   4.556 -0.1724  0.6688 -0.5585
    1SOL    HW210614   1.623   0.239   4.565 -0.4534  0.6688 -1.8813
    1SOL    HW310615   1.606   0.090   4.581 -0.5137  0.7434 -1.2219
    1SOL    MW410616   1.656   0.159   4.560 -0.2543  0.6787 -0.8206
    1SOL     OW10617   2.748   1.304   4.323  0.1929  0.5317  0.0994
    1SOL    HW210618   2.797   1.380   4.291 -1.5716  2.0950  1.0343
    1SOL    HW310619   2.782   1.289   4.411  1.5814 -0.7023 -0.6333
    1SOL    MW410620   2.759   1.312   4.330  0.1431  0.5751  0.1264
    1SOL     OW10621   3.156   2.653   4.853 -0.4148  0.1184 -0.0769
    1SOL    HW210622   3.194   2.583   4.799  3.0512  1.5041  0.4459
    1SOL    HW310623   3.160   2.618   4.942 -0.3207  0.2799 -0.0191
    1SOL    MW410624   3.162   2.639   4.858  0.0551  0.3226 -0.0005
    1SOL     OW10625   4.461   1.401   4.671 -0.3188 -0.3663 -0.3241
    1SOL    HW210626   4.458   1.371   4.762 -2.0315  1.4336  0.2397
    1SOL    HW310627   4.543   1.365   4.637  0.8448 -0.2270  2.2231
    1SOL    MW410628   4.471   1.392   4.678 -0.3913 -0.1105  0.0863
    1SOL     OW10629   1.913   2.168   4.578  0.1161  0.3732 -0.2216
    1SOL    HW210630   1.989   2.218   4.608  1.0932 -0.9068 -0.5395
    1SOL    HW310631   1.921   2.167   4.482  0.4278 -0.8990 -0.1854
    1SOL    MW410632   1.924   2.175   4.569  0.2861  0.0362 -0.2584
    1SOL     OW10633   0.709   4.289   4.553 -0.3350 -0.0680  0.2270
    1SOL    HW210634   0.782   4.226   4.551 -0.7903 -0.6721  2.0425
    1SOL    HW310635   0.696   4.313   4.461  0.0567 -2.3831 -0.4597
    1SOL    MW410636   0.717   4.284   4.541 -0.3434 -0.4535  0.3762
    1SOL     OW10637   1.135   2.056   4.268 -0.5545 -0.0638 -0.7360
    1SOL    HW210638   1.069   2.009   4.218  0.5363 -1.2147 -1.0975
    1SOL    HW310639   1.107   2.047   4.360 -0.1588 -1.7191 -0.7714
    1SOL    MW410640   1.122   2.049   4.274 -0.3583 -0.4342 -0.7882
    1SOL     OW10641   0.497   0.308   4.192  0.0036 -0.5125  0.3997
    1SOL    HW210642   0.576   0.360   4.206 -1.6335  1.7016  1.6855
    1SOL    HW310643   0.475   0.322   4.100 -0.4890  1.1980  0.7656
    1SOL    MW410644   0.505   0.316   4.182 -0.2773  0.0053  0.6180
    1SOL     OW10645   2.711   0.101   4.217  0.0649  0.0006 -0.6006
    1SOL    HW210646   2.786   0.047   4.191  0.8105  0.9514 -0.4416
    1SOL    HW310647   2.708   0.092   4.312 -1.0919 -1.4229 -0.7606
    1SOL    MW410648   2.721   0.092   4.226  0.0107 -0.0618 -0.6008
    1SOL     OW10649   2.505   0.779   4.235  0.4082  0.1121  0.4653
    1SOL    HW210650   2.585   0.822   4.265  0.1715  0.3464  0.7592
    1SOL    HW310651   2.509   0.783   4.140  1.3137 -0.9001  0.4490
    1SOL    MW410652   2.516   0.785   4.227  0.4964  0.0094  0.5021
    1SOL     OW10653   4.428   3.211   4.587  0.1408  0.0002 -0.0375
    1SOL    HW210654   4.509   3.160   4.591  0.1280 -0.0361 -0.2397
    1SOL    HW310655   4.361   3.150   4.618  0.1539 -0.0451 -0.0974
    1SOL    MW410656   4.430   3.196   4.592  0.1407 -0.0105 -0.0720
    1SOL     OW10657   1.763   3.983   4.261 -0.3182  0.2106  0.0685
    1SOL    HW210658   1.782   4.069   4.224 -0.8660  0.4009  0.2204
    1SOL    HW310659   1.771   3.995   4.355 -0.5329  0.1299  0.0970
    1SOL    MW410660   1.767   3.996   4.268 -0.4189  0.2251  0.0925
    1SOL     OW10661   0.176   4.341   4.615 -0.1719  0.1188  0.2240
    1SOL    HW210662   0.099   4.390   4.644  0.8281  1.3332  0.8636
    1SOL    HW310663   0.241   4.408   4.593  0.6531 -0.8878 -0.4835
    1SOL    MW410664   0.175   4.356   4.616  0.0689  0.1469  0.2151
    1SOL     OW10665   3.564   3.182   4.557  0.1428 -0.0153  0.1248
    1SOL    HW210666   3.488   3.158   4.611 -0.7502  1.7193 -0.3399
    1SOL    HW310667   3.621   3.104   4.560 -0.7657 -0.6383  2.0108
    1SOL    MW410668   3.562   3.168   4.564 -0.0949  0.1314  0.3119
    1SOL     OW10669   2.707   4.241   4.130  0.0166  0.0194  0.3208
    1SOL    HW210670   2.626   4.282   4.160  0.0211 -0.4070  0.9230
    1SOL    HW310671   2.694   4.228   4.036 -0.6952 -0.2288  0.4528
    1SOL    MW410672   2.695   4.244   4.121 -0.0765 -0.0701  0.4182
    1SOL     OW10673   3.557   2.199   4.268 -0.1025  0.0536 -0.1946
    1SOL    HW210674   3.489   2.260   4.297 -1.4366 -1.1706 -0.7429
    1SOL    HW310675   3.592   2.162   4.349 -1.4882 -0.8321  0.0005
    1SOL    MW410676   3.553   2.202   4.282 -0.4613 -0.2248 -0.2413
    1SOL     OW10677   0.474   2.418   4.271 -0.0527  0.0828  0.4718
    1SOL    HW210678   0.479   2.513   4.261  0.0317  0.0074 -0.2224
    1SOL    HW310679   0.559   2.386   4.242 -0.3951 -0.2745 -0.1362
    1SOL    MW410680   0.486   2.427   4.266 -0.0868  0.0257  0.2999
    1SOL     OW10681   2.948   4.623   4.135  0.7545  0.0444 -0.0491
    1SOL    HW210682   3.034   4.664   4.147  0.7206 -0.4494  1.9753
    1SOL    HW310683   2.955   4.538   4.179 -0.2399 -0.7538 -1.3612
    1SOL    MW410684   2.960   4.617   4.142  0.6187 -0.1259  0.0448
    1SOL     OW10685   0.646   3.475   4.722 -0.5269 -0.1317 -0.1063
    1SOL    HW210686   0.563   3.428   4.721 -0.3936 -0.3424 -2.0585
    1SOL    HW310687   0.628   3.557   4.677  0.1723  0.0687 -0.0219
    1SOL    MW410688   0.633   3.479   4.716 -0.4171 -0.1330 -0.3529
    1SOL     OW10689   3.080   0.287   4.633  0.2996 -0.4999  0.3878
    1SOL    HW210690   3.093   0.224   4.562  0.4677 -1.0904  0.9337
    1SOL    HW310691   3.168   0.310   4.661  0.2413  0.3092 -0.0971
    1SOL    MW410692   3.093   0.281   4.627  0.3140 -0.4711  0.3963
    1SOL     OW10693   3.798   0.328   4.537  0.3445 -0.0594  0.1748
    1SOL    HW210694   3.869   0.272   4.570  1.0559  0.7331  0.0148
    1SOL    HW310695   3.722   0.270   4.534  0.6784 -0.6077  1.5493
    1SOL    MW410696   3.798   0.313   4.541  0.4826 -0.0271  0.3347
    1SOL     OW10697   2.434   3.867   4.555  0.4553 -0.7369  0.0056
    1SOL    HW210698   2.362   3.927   4.572  1.5710  0.3018  1.1866
    1SOL    HW310699   2.396   3.780   4.567 -0.8196 -0.2309 -0.2954
    1SOL    MW410700   2.420   3.863   4.559  0.4342 -0.5331  0.1216
    1SOL     OW10701   4.041   2.720   4.141  0.3484  0.1608  0.0980
    1SOL    HW210702   4.033   2.694   4.050  1.2851 -0.4301  0.1846
    1SOL    HW310703   4.058   2.638   4.188  1.1127  0.6252  0.6416
    1SOL    MW410704   4.042   2.706   4.135  0.5727  0.1440  0.1812
    1SOL     OW10705   2.706   2.683   4.468 -0.1178  0.6900  0.0739
    1SOL    HW210706   2.669   2.631   4.539 -0.1301  2.4207  1.3572
    1SOL    HW310707   2.798   2.656   4.463 -0.0945  0.6413  0.8145
    1SOL    MW410708   2.713   2.673   4.477 -0.1166  0.9120  0.3414
    1SOL     OW10709   1.825   1.162   4.807 -0.2427 -0.0951 -0.4665
    1SOL    HW210710   1.902   1.115   4.774  1.3286  1.5234  0.7855
    1SOL    HW310711   1.833   1.250   4.770 -0.1794  0.7938  1.6104
    1SOL    MW410712   1.836   1.168   4.798 -0.0269  0.2357 -0.0267
    1SOL     OW10713   1.763   3.006   4.860 -0.3843 -0.3500 -0.4834
    1SOL    HW210714   1.701   3.054   4.914 -0.3847  0.7675 -1.4637
    1SOL    HW310715   1.727   3.010   4.771  0.7778 -0.1920 -0.9616
    1SOL    MW410716   1.750   3.013   4.855 -0.2310 -0.1817 -0.6757
    1SOL     OW10717   2.701   0.374   4.167  0.3241 -0.2747 -0.0257
    1SOL    HW210718   2.686   0.385   4.073 -0.0881  0.1790  0.0891
    1SOL    HW310719   2.719   0.281   4.178 -0.9334 -0.5756 -0.3880
    1SOL    MW410720   2.701   0.364   4.156  0.1040 -0.2545 -0.0587
    1SOL     OW10721   3.497   1.573   4.579  0.3347 -0.6475 -0.4432
    1SOL    HW210722   3.510   1.661   4.543  0.5475 -0.3774  0.2907
    1SOL    HW310723   3.404   1.570   4.601 -0.3274 -1.6441 -3.2029
    1SOL    MW410724   3.486   1.584   4.577  0.2754 -0.7433 -0.7105
    1SOL     OW10725   3.123   3.465   4.171  0.6187 -0.2527  0.3282
    1SOL    HW210726   3.141   3.455   4.078  2.3864 -0.8414  0.7029
    1SOL    HW310727   3.119   3.375   4.205 -2.7333 -0.1316  0.3581
    1SOL    MW410728   3.125   3.452   4.163  0.4096 -0.3145  0.3815
    1SOL     OW10729   1.810   0.863   4.528  0.4032 -0.0952 -0.0944
    1SOL    HW210730   1.891   0.898   4.565  0.0984  0.3734  0.1378
    1SOL    HW310731   1.748   0.936   4.535 -0.2555 -0.7086  0.4664
    1SOL    MW410732   1.812   0.878   4.534  0.2760 -0.1143  0.0100
    1SOL     OW10733   1.800   2.516   4.501  0.0839 -0.2810  0.1913
    1SOL    HW210734   1.762   2.434   4.532 -0.2743 -0.4484 -0.6726
    1SOL    HW310735   1.889   2.516   4.536 -0.6634  0.0615  2.1289
    1SOL    MW410736   1.807   2.505   4.510 -0.0619 -0.2577  0.3333
    1SOL     OW10737   4.072   2.461   4.263  0.3536 -0.5354 -0.2512
    1SOL    HW210738   4.105   2.456   4.352 -1.2535  1.3908  0.4819
    1SOL    HW310739   3.983   2.426   4.268  0.2315 -0.3635 -1.0724
    1SOL    MW410740   4.065   2.456   4.275  0.1259 -0.2587 -0.2627
    1SOL     OW10741   3.141   3.540   4.535  0.3337  0.0571 -0.2281
    1SOL    HW210742   3.156   3.449   4.561 -1.6643 -0.1938  0.0968
    1SOL    HW310743   3.214   3.559   4.475 -0.3658 -2.4374 -1.9513
    1SOL    MW410744   3.153   3.531   4.530 -0.0222 -0.3049 -0.4125
    1SOL     OW10745   1.064   2.010   4.534 -0.2003  0.4025  0.3434
    1SOL    HW210746   1.120   2.069   4.585  0.9020  0.0842 -0.4934
    1SOL    HW310747   0.975   2.035   4.559  0.2863  1.4955  1.0311
    1SOL    MW410748   1.059   2.021   4.544  0.0093  0.5047  0.3233
    1SOL     OW10749   3.900   1.050   4.510 -0.3142 -0.2527 -0.1064
    1SOL    HW210750   3.970   1.103   4.548 -0.4124 -0.6058  0.5859
    1SOL    HW310751   3.938   0.963   4.502 -0.5339 -0.3469 -0.1272
    1SOL    MW410752   3.914   1.045   4.514 -0.3562 -0.3119 -0.0176
    1SOL     OW10753   1.785   3.742   4.605 -0.2397  0.4036  0.2176
    1SOL    HW210754   1.733   3.662   4.592  0.0649  0.0855  0.9158
    1SOL    HW310755   1.876   3.712   4.602 -0.1022  0.9313 -0.8013
    1SOL    MW410756   1.790   3.727   4.603 -0.1812  0.4313  0.1755
    1SOL     OW10757   0.502   0.892   4.527  0.2768  0.3514  0.2798
    1SOL    HW210758   0.444   0.959   4.563 -0.7082 -0.4109  0.1504
    1SOL    HW310759   0.589   0.930   4.532  0.0356  0.6833  2.5391
    1SOL    MW410760   0.506   0.906   4.533  0.1150  0.2947  0.5612
    1SOL     OW10761   0.450   3.181   4.242  0.0541  0.2903  0.1921
    1SOL    HW210762   0.521   3.125   4.210  0.8699  0.1115  2.1810
    1SOL    HW310763   0.470   3.268   4.209  1.3188  0.2693  0.8757
    1SOL    MW410764   0.462   3.185   4.234  0.3286  0.2637  0.5445
    1SOL     OW10765   4.164   3.504   4.550 -0.1577  0.3512 -0.3864
    1SOL    HW210766   4.182   3.538   4.463 -0.3288  2.1688  0.2574
    1SOL    HW310767   4.142   3.412   4.537  1.2328  0.2498 -2.0892
    1SOL    MW410768   4.163   3.496   4.537  0.0024  0.5774 -0.5264
    1SOL     OW10769   1.833   1.693   4.702  0.5351 -0.0430  0.2081
    1SOL    HW210770   1.766   1.717   4.766  0.8788 -0.2522  0.6494
    1SOL    HW310771   1.866   1.608   4.733  3.4161  1.6501  1.9388
    1SOL    MW410772   1.828   1.685   4.715  0.9606  0.1527  0.4950
    1SOL     OW10773   0.694   2.056   4.254  0.0040  0.4247 -0.1584
    1SOL    HW210774   0.679   2.147   4.226 -1.0563  0.8569  1.6825
    1SOL    HW310775   0.613   2.011   4.230  0.6249 -0.0830 -1.2809
    1SOL    MW410776   0.681   2.062   4.247 -0.0540  0.4146 -0.0639
    1SOL     OW10777   3.771   3.645   4.500 -0.3401  0.2387 -0.1231
    1SOL    HW210778   3.847   3.678   4.547 -0.3396 -0.4260  0.3444
    1SOL    HW310779   3.710   3.719   4.498 -0.1669  0.4019  0.5383
    1SOL    MW410780   3.773   3.659   4.506 -0.3171  0.1724  0.0257
    1SOL     OW10781   4.087   3.981   4.494 -0.5200  0.0912  0.0888
    1SOL    HW210782   4.053   3.904   4.538  0.1623 -0.2428  0.0370
    1SOL    HW310783   4.025   4.051   4.516 -0.2566 -0.0954  1.4860
    1SOL    MW410784   4.074   3.980   4.503 -0.3953  0.0224  0.2666
    1SOL     OW10785   3.676   2.609   4.320 -0.1275  0.0932 -0.1330
    1SOL    HW210786   3.739   2.538   4.306  0.6575  0.7984 -0.1592
    1SOL    HW310787   3.728   2.689   4.316 -0.6995  0.5794  1.7814
    1SOL    MW410788   3.691   2.610   4.318 -0.0994  0.2506  0.1159
    1SOL     OW10789   1.646   1.077   4.609 -0.0599  0.0741 -0.1720
    1SOL    HW210790   1.644   1.152   4.548  0.2069 -0.0967 -0.3897
    1SOL    HW310791   1.697   1.108   4.683  0.6610 -0.1309 -0.5778
    1SOL    MW410792   1.652   1.091   4.611  0.0703  0.0246 -0.2546
    1SOL     OW10793   2.466   1.324   4.321 -0.2680  0.2223  0.7980
    1SOL    HW210794   2.464   1.403   4.268  0.7680  0.2377  0.7630
    1SOL    HW310795   2.558   1.297   4.321 -0.8912 -2.0382 -0.7675
    1SOL    MW410796   2.478   1.331   4.314 -0.2136 -0.0739  0.5865
    1SOL     OW10797   1.356   0.887   4.250  0.0396 -0.6140  0.1101
    1SOL    HW210798   1.433   0.832   4.234  0.9754  0.9525 -0.9170
    1SOL    HW310799   1.283   0.836   4.215  0.7606 -1.6281  0.0565
    1SOL    MW410800   1.357   0.873   4.243  0.2582 -0.5411 -0.0319
    1SOL     OW10801   2.037   1.579   4.174 -0.4648 -0.0957  0.5778
    1SOL    HW210802   2.045   1.568   4.080  2.2129 -0.4340  0.7856
    1SOL    HW310803   2.029   1.490   4.208  0.3738 -0.1062  0.7725
    1SOL    MW410804   2.037   1.566   4.166 -0.0010 -0.1419  0.6309
    1SOL     OW10805   2.003   2.859   4.556 -0.2401 -0.3753  0.0727
    1SOL    HW210806   1.993   2.948   4.590  0.0043 -0.3396  0.0474
    1SOL    HW310807   2.073   2.821   4.609 -1.8352 -1.2881  1.5992
    1SOL    MW410808   2.011   2.866   4.568 -0.4182 -0.4911  0.2713
    1SOL     OW10809   0.172   0.485   4.504 -0.0159 -0.2661 -0.4310
    1SOL    HW210810   0.192   0.485   4.411  0.8679 -0.3399 -0.2476
    1SOL    HW310811   0.249   0.525   4.545 -0.7211  0.4507  0.1967
    1SOL    MW410812   0.185   0.490   4.497  0.0077 -0.1813 -0.3242
    1SOL     OW10813   3.101   1.961   4.635  0.3194 -0.1309  0.2438
    1SOL    HW210814   3.070   2.044   4.671 -0.3099 -0.6996  1.0166
    1SOL    HW310815   3.184   1.984   4.592  0.3882  0.8136  0.8448
    1SOL    MW410816   3.108   1.975   4.634  0.2453 -0.0813  0.4244
    1SOL     OW10817   2.087   1.299   4.526 -0.3709  0.5785 -0.0504
    1SOL    HW210818   2.068   1.313   4.433  0.4559  0.8289 -0.1849
    1SOL    HW310819   2.180   1.317   4.534 -0.5138  0.9105  0.9015
    1SOL    MW410820   2.097   1.303   4.514 -0.2806  0.6554  0.0577
    1SOL     OW10821   4.072   4.298   4.142 -0.0705  0.1529  0.3865
    1SOL    HW210822   4.126   4.358   4.194 -1.7988 -1.0698  3.7688
    1SOL    HW310823   4.091   4.211   4.179  0.0064 -1.0447 -2.3060
    1SOL    MW410824   4.082   4.294   4.154 -0.2880 -0.1669  0.4773
    1SOL     OW10825   0.650   3.792   4.199  0.1378  0.4151 -0.1934
    1SOL    HW210826   0.730   3.837   4.227  0.1686  1.1359 -1.4110
    1SOL    HW310827   0.660   3.703   4.232  0.7419  0.9105  0.9934
    1SOL    MW410828   0.662   3.786   4.207  0.2216  0.5755 -0.1979
    1SOL     OW10829   4.049   0.809   4.526  0.3939 -0.1748 -0.4790
    1SOL    HW210830   4.061   0.819   4.432 -0.4633  0.8160 -0.5022
    1SOL    HW310831   3.979   0.744   4.536 -0.2975  0.5429 -0.5671
    1SOL    MW410832   4.041   0.802   4.515  0.1898  0.0506 -0.4940
    1SOL     OW10833   1.784   1.964   4.170  0.3390 -0.8306 -0.2898
    1SOL    HW210834   1.700   1.991   4.207 -0.3431 -0.6585 -1.9432
    1SOL    HW310835   1.848   2.026   4.205 -0.4750  0.0011 -0.2844
    1SOL    MW410836   1.782   1.976   4.179  0.1415 -0.6981 -0.5069
    1SOL     OW10837   2.363   4.614   4.546 -0.2695  0.1211  0.0273
    1SOL    HW210838   2.328   4.634   4.459 -0.5072 -0.2675  0.0336
    1SOL    HW310839   2.382   4.520   4.543  1.8375  0.5280 -0.3639
    1SOL    MW410840   2.361   4.604   4.534 -0.0226  0.1230 -0.0234
    1SOL     OW10841   0.383   4.516   4.552 -0.3281 -0.0251 -0.0202
    1SOL    HW210842   0.450   4.518   4.483  1.3634 -0.0521  1.5877
    1SOL    HW310843   0.379   4.607   4.583  0.4083 -0.4164  1.2377
    1SOL    MW410844   0.391   4.529   4.547 -0.0077 -0.0806  0.3581
    1SOL     OW10845   1.755   3.301   4.483  0.0865 -0.1258 -0.1475
    1SOL    HW210846   1.758   3.301   4.388 -0.7962  2.5601 -0.2400
    1SOL    HW310847   1.841   3.332   4.511  0.1795 -0.4376 -0.0853
    1SOL    MW410848   1.766   3.305   4.474 -0.0176  0.1874 -0.1516
    1SOL     OW10849   1.838   1.412   4.679 -0.1964  0.3562 -0.2960
    1SOL    HW210850   1.926   1.395   4.646 -0.7585  1.1096 -2.2942
    1SOL    HW310851   1.780   1.371   4.614 -1.3179 -0.9166  1.4582
    1SOL    MW410852   1.842   1.404   4.666 -0.4184  0.2875 -0.3285
    1SOL     OW10853   0.001   0.955   4.517  0.6048 -0.1863 -0.3541
    1SOL    HW210854  -0.048   0.889   4.566  1.5634 -0.0870  0.7623
    1SOL    HW310855  -0.055   1.032   4.517  0.3912 -0.3423  0.1847
    1SOL    MW410856  -0.013   0.956   4.524  0.7033 -0.1938 -0.1354
    1SOL     OW10857   2.086   4.640   4.651 -0.0118  0.3110 -0.3784
    1SOL    HW210858   2.174   4.647   4.614  0.3924  1.3230  0.7525
    1SOL    HW310859   2.099   4.602   4.738 -0.8479 -0.9911 -0.8083
    1SOL    MW410860   2.100   4.636   4.658 -0.0687  0.2728 -0.2866
    1SOL     OW10861   0.638   2.908   4.547  0.1606  0.0714 -0.1193
    1SOL    HW210862   0.725   2.935   4.575 -0.1256  0.0229  0.8274
    1SOL    HW310863   0.586   2.988   4.550 -0.0627 -0.0868  0.2478
    1SOL    MW410864   0.643   2.922   4.551  0.0933  0.0441  0.0539
    1SOL     OW10865   3.385   4.585   4.087 -0.4450  0.2851 -0.3709
    1SOL    HW210866   3.439   4.629   4.153  1.2924 -0.5195 -1.2186
    1SOL    HW310867   3.371   4.497   4.123  2.1863 -0.8161 -1.9369
    1SOL    MW410868   3.391   4.579   4.101  0.1316  0.0339 -0.6895
    1SOL     OW10869   0.947   0.438   4.180 -0.3070  0.1383  0.3431
    1SOL    HW210870   1.029   0.469   4.218 -0.8285  0.5353  1.1508
    1SOL    HW310871   0.906   0.386   4.250 -1.3878  1.0902  0.4183
    1SOL    MW410872   0.952   0.435   4.194 -0.5184  0.3163  0.4601
    1SOL     OW10873   2.406   3.288   4.843  0.4190  0.0650  0.0432
    1SOL    HW210874   2.446   3.299   4.757  0.3329 -1.4030 -0.2103
    1SOL    HW310875   2.404   3.376   4.881  0.3753  0.7282 -1.4799
    1SOL    MW410876   2.411   3.301   4.837  0.4017 -0.0412 -0.1912
    1SOL     OW10877   3.808   2.138   4.502  0.1336 -0.0534  0.0663
    1SOL    HW210878   3.813   2.045   4.479  0.1876  0.4019 -1.8435
    1SOL    HW310879   3.759   2.140   4.584 -0.3825 -1.7201 -0.1832
    1SOL    MW410880   3.802   2.126   4.510  0.0725 -0.2131 -0.2184
    1SOL     OW10881   2.255   4.102   4.490  0.4629  0.4849 -0.1165
    1SOL    HW210882   2.170   4.144   4.496  0.6032  1.0842 -2.0392
    1SOL    HW310883   2.318   4.172   4.510  0.5291  0.0914  1.1032
    1SOL    MW410884   2.252   4.117   4.494  0.4902  0.5121 -0.2093
    1SOL     OW10885   4.293   0.042   4.215 -0.0976 -0.0628 -0.1036
    1SOL    HW210886   4.208   0.082   4.234 -0.0474 -0.1513  0.3221
    1SOL    HW310887   4.284  -0.049   4.242 -0.2043 -0.3424 -1.0628
    1SOL    MW410888   4.281   0.036   4.221 -0.1054 -0.1114 -0.1745
    1SOL     OW10889   0.455   1.689   4.516  0.0079  0.0766 -0.0532
    1SOL    HW210890   0.388   1.757   4.522  0.5346  0.7293 -1.3220
    1SOL    HW310891   0.467   1.676   4.423  0.4846 -1.2049  0.1863
    1SOL    MW410892   0.448   1.696   4.505  0.1402 -0.0063 -0.1888
    1SOL     OW10893   3.762   3.651   4.220 -0.6504  0.0574  0.6587
    1SOL    HW210894   3.833   3.597   4.187  0.3462  1.4774  0.4541
    1SOL    HW310895   3.767   3.641   4.315 -0.3728 -0.0750  0.6307
    1SOL    MW410896   3.772   3.642   4.228 -0.4826  0.2275  0.6275
    1SOL     OW10897   2.945   0.479   4.251  0.4292  0.1290 -0.0961
    1SOL    HW210898   2.862   0.463   4.206  0.6040 -0.0175 -0.3723
    1SOL    HW310899   2.926   0.464   4.343 -0.2481  1.6511  0.0339
    1SOL    MW410900   2.931   0.475   4.257  0.3626  0.3105 -0.1159
    1SOL     OW10901   0.737   1.358   4.491  0.0068  0.3643 -0.0801
    1SOL    HW210902   0.783   1.441   4.488 -1.2642  1.1100  0.7218
    1SOL    HW310903   0.787   1.304   4.551  1.0318  0.4214 -0.8743
    1SOL    MW410904   0.749   1.362   4.498 -0.0257  0.4703 -0.0792
    1SOL     OW10905   4.437   3.480   4.160  0.4876 -0.3946  0.0274
    1SOL    HW210906   4.461   3.405   4.215  0.5575 -0.5748 -0.2480
    1SOL    HW310907   4.447   3.448   4.071 -0.0872 -0.2475 -0.0883
    1SOL    MW410908   4.442   3.466   4.156  0.4206 -0.3991 -0.0238
    1SOL     OW10909   1.811   2.733   4.109  0.5864  0.1295 -0.4229
    1SOL    HW210910   1.873   2.777   4.166 -0.1746  0.2836  0.2834
    1SOL    HW310911   1.797   2.647   4.150  2.0808 -0.8133 -1.7987
    1SOL    MW410912   1.817   2.727   4.122  0.6831  0.0255 -0.5107
    1SOL     OW10913   0.886   2.656   4.147 -0.5911  0.4710  0.8394
    1SOL    HW210914   0.821   2.686   4.211 -1.4571  0.5207 -0.0493
    1SOL    HW310915   0.968   2.697   4.175 -0.7755 -0.1753  2.4033
    1SOL    MW410916   0.888   2.666   4.159 -0.7297  0.3922  0.9289
    1SOL     OW10917   3.038   1.242   4.090 -0.0046 -0.0694 -0.2416
    1SOL    HW210918   3.080   1.221   4.007  0.1612  1.4581 -0.5725
    1SOL    HW310919   2.954   1.196   4.088 -0.2162  0.3506 -1.4852
    1SOL    MW410920   3.032   1.233   4.079 -0.0105  0.1876 -0.4497
    1SOL     OW10921   3.469   2.251   4.632  0.1384 -0.2966  0.2905
    1SOL    HW210922   3.507   2.318   4.575 -0.5396 -0.5619 -0.4724
    1SOL    HW310923   3.544   2.212   4.676  0.5542  0.8953  0.6721
    1SOL    MW410924   3.484   2.255   4.631  0.1037 -0.1745  0.2403
    1SOL     OW10925   2.661   0.043   4.492  0.2327  0.0926 -0.1919
    1SOL    HW210926   2.667   0.129   4.536  1.5667 -0.4390  0.6908
    1SOL    HW310927   2.577   0.008   4.522 -0.2647  1.0186 -0.4491
    1SOL    MW410928   2.650   0.050   4.502  0.3431  0.1447 -0.1097
    1SOL     OW10929   1.531   2.367   4.152  0.1182  0.0122 -0.3214
    1SOL    HW210930   1.455   2.424   4.154  0.7712  0.9733 -2.0523
    1SOL    HW310931   1.537   2.338   4.061  1.4228 -0.5855 -0.0568
    1SOL    MW410932   1.522   2.371   4.140  0.3765  0.0601 -0.5150
    1SOL     OW10933   2.692   3.980   4.491  0.0794 -0.0018  0.0419
    1SOL    HW210934   2.606   3.949   4.518  1.0802 -1.4143  1.7316
    1SOL    HW310935   2.699   3.953   4.399 -1.1250 -0.1997 -0.0038
    1SOL    MW410936   2.682   3.972   4.482  0.0522 -0.2146  0.2589
    1SOL     OW10937   0.266   0.763   4.142  0.2517 -0.2285 -0.3220
    1SOL    HW210938   0.348   0.805   4.168  0.5836 -0.3740 -1.1126
    1SOL    HW310939   0.276   0.672   4.169  0.6212 -0.3939 -1.0020
    1SOL    MW410940   0.279   0.756   4.149  0.3442 -0.2695 -0.5159
    1SOL     OW10941   0.219   2.810   4.291  0.1555  0.0495 -0.0878
    1SOL    HW210942   0.193   2.796   4.382  0.7209  1.8372  0.3821
    1SOL    HW310943   0.204   2.904   4.276  0.2097 -0.1949 -1.7889
    1SOL    MW410944   0.214   2.821   4.301  0.2372  0.2530 -0.2499
    1SOL     OW10945   1.309   0.541   4.584  0.0122 -0.4958 -0.2036
    1SOL    HW210946   1.293   0.633   4.561 -0.2841 -0.9912 -2.0204
    1SOL    HW310947   1.249   0.523   4.656 -0.7702  0.3989 -0.6246
    1SOL    MW410948   1.299   0.551   4.590 -0.1303 -0.4432 -0.4988
    1SOL     OW10949   2.016   3.085   4.733 -0.2179  0.2409 -0.0775
    1SOL    HW210950   1.953   3.077   4.805 -0.9245 -0.7751 -0.8055
    1SOL    HW310951   2.100   3.067   4.773 -0.6106 -0.3451  0.4926
    1SOL    MW410952   2.018   3.082   4.748 -0.3631  0.0298 -0.0982
    1SOL     OW10953   0.004   3.244   4.302  0.0996  0.0600 -0.4566
    1SOL    HW210954  -0.078   3.203   4.277 -0.5848  2.0533 -1.5998
    1SOL    HW310955  -0.007   3.265   4.395 -0.2963 -0.5424 -0.3626
    1SOL    MW410956  -0.008   3.241   4.311 -0.0434  0.2434 -0.5946
    1SOL     OW10957   1.780   1.692   4.265  0.1208  0.3395 -0.1951
    1SOL    HW210958   1.791   1.781   4.231 -0.6703  1.8264  3.2462
    1SOL    HW310959   1.867   1.652   4.256  0.5706  1.5596 -1.4283
    1SOL    MW410960   1.793   1.698   4.259  0.0758  0.6968  0.0963
    1SOL     OW10961   1.148   1.279   4.542  0.5917  0.0656 -0.0066
    1SOL    HW210962   1.158   1.285   4.447 -0.2171  0.7319 -0.0652
    1SOL    HW310963   1.217   1.220   4.571  0.3102 -0.8037 -1.1070
    1SOL    MW410964   1.158   1.272   4.534  0.4479  0.0390 -0.1597
    1SOL     OW10965   1.075   0.275   4.577 -0.3367 -0.1083 -0.4007
    1SOL    HW210966   1.013   0.282   4.504 -1.4131 -1.2029  0.3722
    1SOL    HW310967   1.039   0.204   4.630  0.8861  0.1424  0.7583
    1SOL    MW410968   1.062   0.266   4.574 -0.3173 -0.2197 -0.1454
    1SOL     OW10969   1.610   1.764   4.887  0.3408 -0.3004 -0.1260
    1SOL    HW210970   1.551   1.793   4.818  2.0193  0.1167 -1.3944
    1SOL    HW310971   1.563   1.691   4.929 -1.2518  0.3025 -0.8136
    1SOL    MW410972   1.596   1.758   4.884  0.3521 -0.1657 -0.3839
    1SOL     OW10973   4.052   1.690   4.249 -0.6277  0.2811  0.5498
    1SOL    HW210974   3.971   1.649   4.218 -0.6087 -0.8027  1.8473
    1SOL    HW310975   4.053   1.776   4.209 -0.4897 -1.1243 -2.5626
    1SOL    MW410976   4.041   1.696   4.240 -0.6070 -0.0473  0.3104
    1SOL     OW10977   0.238   3.164   4.833  0.4915  0.5521 -0.8806
    1SOL    HW210978   0.202   3.122   4.755  0.0945  1.4971 -1.2219
    1SOL    HW310979   0.256   3.092   4.893  0.4154 -0.1548 -1.6840
    1SOL    MW410980   0.235   3.149   4.830  0.4291  0.5834 -1.0314
    1SOL     OW10981   1.664   2.273   4.653  0.2930  0.0713 -0.3188
    1SOL    HW210982   1.677   2.347   4.713 -1.3979 -0.5837  0.8908
    1SOL    HW310983   1.752   2.242   4.635  1.1440  3.2222 -1.9276
    1SOL    MW410984   1.677   2.279   4.659  0.1820  0.4003 -0.3710
    1SOL     OW10985   4.310   0.222   4.644 -0.0280 -0.2068  0.4791
    1SOL    HW210986   4.395   0.179   4.639 -0.5884 -1.0801 -2.0811
    1SOL    HW310987   4.330   0.316   4.642  0.8846 -0.4068  0.4578
    1SOL    MW410988   4.324   0.229   4.643  0.0191 -0.3484  0.1383
    1SOL     OW10989   1.649   1.615   4.504 -0.1905 -0.3685  0.2126
    1SOL    HW210990   1.701   1.640   4.428 -0.0487 -2.2585 -0.3470
    1SOL    HW310991   1.705   1.634   4.579 -0.9956  3.1446 -0.0024
    1SOL    MW410992   1.663   1.621   4.504 -0.2780 -0.1543  0.1101
    1SOL     OW10993   2.259   0.345   4.236  0.0032 -0.3173  0.3282
    1SOL    HW210994   2.253   0.320   4.144 -0.4138 -1.6034  0.7039
    1SOL    HW310995   2.339   0.398   4.241  0.1548 -0.4443 -0.7181
    1SOL    MW410996   2.269   0.349   4.224 -0.0317 -0.5037  0.2398
    1SOL     OW10997   2.878   0.139   4.778  0.1977  0.0590  0.1172
    1SOL    HW210998   2.950   0.188   4.738  0.2450  0.7930  1.0854
    1SOL    HW310999   2.888   0.050   4.744  1.1818  0.3013 -0.2517
    1SOL    MW411000   2.889   0.134   4.768  0.3335  0.1878  0.1965
    1SOL     OW11001   0.679   0.777   4.169 -0.2228 -0.5829 -0.3953
    1SOL    HW211002   0.766   0.805   4.198 -0.5846  0.9217 -0.7324
    1SOL    HW311003   0.683   0.785   4.073 -1.0907  0.5428 -0.3360
    1SOL    MW411004   0.691   0.782   4.160 -0.3850 -0.2359 -0.4320
    1SOL     OW11005   3.225   1.513   4.598  0.3944  0.0286 -0.0352
    1SOL    HW211006   3.207   1.419   4.602  0.5068 -0.0604 -1.4823
    1SOL    HW311007   3.163   1.547   4.533 -0.1589  1.0887  1.0229
    1SOL    MW411008   3.214   1.505   4.590  0.3362  0.1566 -0.0868
    1SOL     OW11009   3.518   2.593   4.102 -0.6315 -0.2371  0.1620
    1SOL    HW211010   3.563   2.621   4.181  0.3600  1.4840 -0.9662
    1SOL    HW311011   3.425   2.603   4.122 -0.4049 -0.2643  1.2545
    1SOL    MW411012   3.512   2.598   4.115 -0.4709 -0.0134  0.1574
    1SOL     OW11013   1.799   4.235   4.157  0.4109 -0.2296  0.3820
    1SOL    HW211014   1.866   4.289   4.199  1.3436 -0.4527 -0.8167
    1SOL    HW311015   1.814   4.246   4.063 -1.2317 -0.2792  0.0992
    1SOL    MW411016   1.810   4.243   4.150  0.3173 -0.2656  0.1869
    1SOL     OW11017   1.493   2.113   4.523 -0.1090 -0.2765 -0.2361
    1SOL    HW211018   1.513   2.025   4.555  0.4038 -0.1187 -0.1233
    1SOL    HW311019   1.549   2.170   4.575  0.3618  0.0253 -1.0764
    1SOL    MW411020   1.503   2.109   4.534  0.0209 -0.2158 -0.3319
    1SOL     OW11021   2.214   0.641   4.684 -0.0523  0.1410 -0.0413
    1SOL    HW211022   2.287   0.585   4.658 -0.3617  0.0709 -0.7616
    1SOL    HW311023   2.137   0.600   4.644 -0.5160  0.1214  0.8472
    1SOL    MW411024   2.213   0.628   4.676 -0.1543  0.1292 -0.0196
    1SOL     OW11025   2.441   1.627   4.514  0.0910 -0.4812 -0.0397
    1SOL    HW211026   2.397   1.665   4.437  1.1440 -2.0071 -1.4355
    1SOL    HW311027   2.397   1.543   4.526  1.0686 -0.9896 -0.0128
    1SOL    MW411028   2.429   1.621   4.505  0.3588 -0.7496 -0.2203
    1SOL     OW11029   1.762   4.029   4.522  0.1591  0.2705 -0.2642
    1SOL    HW211030   1.680   4.062   4.560 -0.1407 -1.9666  1.1480
    1SOL    HW311031   1.754   3.934   4.529  2.3249 -0.0148 -1.3610
    1SOL    MW411032   1.750   4.021   4.528  0.4053 -0.0625 -0.2232
    1SOL     OW11033   2.221   1.960   4.185 -0.1390  0.1444  0.1781
    1SOL    HW211034   2.274   2.027   4.228 -1.0382 -0.1252  1.7127
    1SOL    HW311035   2.247   1.878   4.225 -1.1427 -0.0865  0.3750
    1SOL    MW411036   2.231   1.958   4.196 -0.3903  0.0784  0.4067
    1SOL     OW11037   1.676   2.504   4.804  0.0558  0.0726  0.2968
    1SOL    HW211038   1.671   2.520   4.898 -1.5505  0.4203  0.1799
    1SOL    HW311039   1.738   2.569   4.771 -1.7316  2.0177  0.6965
    1SOL    MW411040   1.683   2.515   4.812 -0.3920  0.3750  0.3347
    1SOL     OW11041   2.448   3.044   4.141  0.2466 -0.2001  0.4113
    1SOL    HW211042   2.443   3.051   4.046 -0.4617 -0.6302  0.4062
    1SOL    HW311043   2.374   2.987   4.164 -1.0796  1.8918  1.4402
    1SOL    MW411044   2.437   3.037   4.131 -0.0222  0.0191  0.5465
    1SOL     OW11045   0.235   3.552   4.277 -0.0399  0.2622 -0.1428
    1SOL    HW211046   0.212   3.528   4.366 -0.5168 -0.9644 -0.5812
    1SOL    HW311047   0.161   3.521   4.224  0.3770  0.6928 -0.9965
    1SOL    MW411048   0.222   3.545   4.282 -0.0478  0.1574 -0.3138
    1SOL     OW11049   3.319   1.755   4.252  0.5552  0.0963 -0.5839
    1SOL    HW211050   3.388   1.770   4.317 -0.4325 -0.0899  0.5240
    1SOL    HW311051   3.335   1.665   4.221  0.4298 -0.1881  0.1514
    1SOL    MW411052   3.330   1.745   4.257  0.4084  0.0342 -0.3405
    1SOL     OW11053   2.768   3.304   4.494  0.0550 -0.3459 -0.0893
    1SOL    HW211054   2.810   3.233   4.543  1.0874 -0.6165 -1.3632
    1SOL    HW311055   2.753   3.268   4.407 -3.0283 -0.3263  0.3705
    1SOL    MW411056   2.772   3.289   4.489 -0.2155 -0.3791 -0.1969
    1SOL     OW11057   0.461   1.935   4.169  0.4824  0.0335  0.2792
    1SOL    HW211058   0.459   1.842   4.190 -1.1208 -0.1067 -0.4013
    1SOL    HW311059   0.452   1.938   4.073 -2.5122  0.9346  0.5248
    1SOL    MW411060   0.459   1.923   4.159 -0.1242  0.1339  0.2217
    1SOL     OW11061   4.020   0.142   4.588 -0.0000  0.2274  0.3326
    1SOL    HW211062   3.976   0.119   4.670 -0.1304  2.5500  0.9399
    1SOL    HW311063   4.112   0.153   4.613 -0.0017  0.7248  0.1247
    1SOL    MW411064   4.026   0.141   4.602 -0.0172  0.5995  0.3858
    1SOL     OW11065   2.872   3.550   4.271  0.3251  0.1452  0.0069
    1SOL    HW211066   2.948   3.507   4.230  0.6266  1.0865 -0.4220
    1SOL    HW311067   2.901   3.567   4.360  0.7960  0.9489 -0.2979
    1SOL    MW411068   2.886   3.546   4.277  0.4270  0.3755 -0.0906
    1SOL     OW11069   4.282   2.296   4.153 -0.1338 -1.0191 -0.0626
    1SOL    HW211070   4.362   2.348   4.160  0.4668 -1.8453 -0.6522
    1SOL    HW311071   4.214   2.350   4.193  0.5463  0.0651 -0.3663
    1SOL    MW411072   4.283   2.310   4.159  0.0353 -0.9849 -0.1807
    1SOL     OW11073   4.035   3.224   4.267  0.0414  0.2358 -0.0329
    1SOL    HW211074   3.961   3.167   4.248 -0.0563 -0.1821  1.5216
    1SOL    HW311075   4.105   3.192   4.210 -1.0173  0.7914 -1.7029
    1SOL    MW411076   4.034   3.212   4.257 -0.1111  0.2537 -0.0482
    1SOL     OW11077   1.142   3.036   4.202  0.3097 -0.3989 -0.0562
    1SOL    HW211078   1.218   3.076   4.244  0.0842  0.6036 -0.5797
    1SOL    HW311079   1.157   3.047   4.108 -0.0012 -1.1056 -0.1955
    1SOL    MW411080   1.154   3.043   4.195  0.2388 -0.3600 -0.1435
    1SOL     OW11081   4.284   2.098   4.540 -0.5372  0.0373  0.1404
    1SOL    HW211082   4.279   2.076   4.447  1.1302  0.2345 -0.0073
    1SOL    HW311083   4.204   2.147   4.557 -0.4431  0.7450 -1.3919
    1SOL    MW411084   4.273   2.101   4.530 -0.3047  0.1566 -0.0811
    1SOL     OW11085   2.241   0.066   4.287 -0.0012 -0.1293  0.4103
    1SOL    HW211086   2.166   0.042   4.233 -0.5245  1.3715  0.4521
    1SOL    HW311087   2.245   0.161   4.281  1.6624 -0.1715  0.7292
    1SOL    MW411088   2.232   0.075   4.279  0.1493  0.0631  0.4582
    1SOL     OW11089   2.471   4.633   4.149 -0.2863 -0.3632  0.1307
    1SOL    HW211090   2.552   4.683   4.158 -0.2544 -0.0490 -1.6027
    1SOL    HW311091   2.407   4.680   4.203 -0.2443  1.5531 -1.4358
    1SOL    MW411092   2.473   4.646   4.157 -0.2766 -0.0687 -0.3047
    1SOL     OW11093   3.391   2.398   4.354  0.1325 -0.2319  0.6434
    1SOL    HW211094   3.312   2.432   4.398  0.4766 -0.8345  1.7456
    1SOL    HW311095   3.459   2.462   4.375 -0.0193  0.1905 -0.1516
    1SOL    MW411096   3.389   2.411   4.363  0.1578 -0.2558  0.6838
    1SOL     OW11097   2.567   1.338   4.765  0.4385  0.1886 -0.4434
    1SOL    HW211098   2.629   1.407   4.742 -1.0961  1.1485 -1.8086
    1SOL    HW311099   2.553   1.348   4.859  1.1177  0.9747 -0.4201
    1SOL    MW411100   2.574   1.348   4.774  0.3257  0.4189 -0.6208
    1SOL     OW11101   2.036   1.299   4.252  0.1858  0.0117 -0.2769
    1SOL    HW211102   2.113   1.265   4.206  0.7003  1.1080 -0.2396
    1SOL    HW311103   1.964   1.243   4.223  1.0756 -1.3280  0.0492
    1SOL    MW411104   2.037   1.287   4.243  0.3712 -0.0205 -0.2289
    1SOL     OW11105   2.272   1.707   4.287  0.0633  0.1619  0.0944
    1SOL    HW211106   2.192   1.656   4.275  0.1619  0.1055 -0.3399
    1SOL    HW311107   2.335   1.666   4.228  0.7624 -0.5475  1.3190
    1SOL    MW411108   2.270   1.695   4.277  0.1686  0.0609  0.1988
    1SOL     OW11109   3.865   0.609   4.553  0.2392  0.2341 -0.2847
    1SOL    HW211110   3.854   0.514   4.552  2.7483 -0.0810 -1.1146
    1SOL    HW311111   3.776   0.643   4.568 -0.9924 -2.1747 -1.7159
    1SOL    MW411112   3.851   0.601   4.555  0.4079 -0.1252 -0.5832
    1SOL     OW11113   2.900   0.704   4.590  0.1081  0.3002 -0.4946
    1SOL    HW211114   2.818   0.739   4.554 -0.4104 -0.5621 -0.1781
    1SOL    HW311115   2.920   0.762   4.664 -1.9818 -1.3942  1.4640
    1SOL    MW411116   2.892   0.717   4.595 -0.2360 -0.0372 -0.1945
    1SOL     OW11117   4.470   1.904   4.621 -0.5997  0.0295  0.4917
    1SOL    HW211118   4.406   1.975   4.610  0.5302  0.7465 -1.6446
    1SOL    HW311119   4.422   1.825   4.597 -0.8493  0.4985 -0.5715
    1SOL    MW411120   4.455   1.903   4.616 -0.4840  0.1858  0.0701
    1SOL     OW11121   3.733   1.453   4.684  0.3428 -0.1276  0.3461
    1SOL    HW211122   3.716   1.359   4.684 -0.2697 -0.0280  1.6754
    1SOL    HW311123   3.648   1.493   4.668  1.0961  0.1612 -3.2792
    1SOL    MW411124   3.720   1.446   4.682  0.3614 -0.0763  0.0434
    1SOL     OW11125   3.377   1.506   4.170 -0.7661  0.1844 -0.4541
    1SOL    HW211126   3.309   1.445   4.198 -0.4779 -0.6007 -1.4316
    1SOL    HW311127   3.372   1.505   4.074  0.6405  0.0950 -0.5381
    1SOL    MW411128   3.368   1.498   4.161 -0.5424  0.0689 -0.5946
    1SOL     OW11129   2.787   1.119   4.120 -0.0410  0.6999  0.2156
    1SOL    HW211130   2.777   1.186   4.188  2.1365  0.1490  1.1442
    1SOL    HW311131   2.748   1.157   4.042 -2.0458  1.6007  1.6277
    1SOL    MW411132   2.781   1.133   4.119 -0.0179  0.7460  0.5245
    1SOL     OW11133   0.897   2.390   4.272 -0.2285  0.2675 -0.1940
    1SOL    HW211134   0.989   2.366   4.263  0.0069  0.3715  1.6987
    1SOL    HW311135   0.893   2.481   4.241  0.3333  0.2936 -0.2038
    1SOL    MW411136   0.909   2.399   4.267 -0.1232  0.2844  0.0539
    1SOL     OW11137   3.848   0.698   4.174  0.8316  0.3701 -0.1335
    1SOL    HW211138   3.913   0.758   4.213 -0.3841  2.6029 -1.4495
    1SOL    HW311139   3.861   0.708   4.080 -0.4454 -0.2766 -0.3725
    1SOL    MW411140   3.859   0.708   4.167  0.5031  0.5793 -0.3381
    1SOL     OW11141   3.228   2.401   4.708  0.4826 -0.4536  0.5547
    1SOL    HW211142   3.317   2.366   4.695  0.7327  0.4464 -0.2421
    1SOL    HW311143   3.205   2.439   4.623 -0.0398  0.7399  1.2209
    1SOL    MW411144   3.237   2.401   4.695  0.4468 -0.1771  0.5374
    1SOL     OW11145   3.213   0.997   4.674 -0.3762  0.7000  0.0424
    1SOL    HW211146   3.185   0.925   4.617 -0.9248  0.6436  0.3830
    1SOL    HW311147   3.308   1.003   4.660 -0.2851 -0.2722  0.2203
    1SOL    MW411148   3.222   0.988   4.665 -0.4368  0.5643  0.1116
    1SOL     OW11149   1.959   3.624   4.279 -0.4307 -0.0203 -0.0114
    1SOL    HW211150   1.983   3.622   4.372 -2.4271  0.7024  0.5392
    1SOL    HW311151   1.989   3.710   4.249  0.3142 -0.2965 -0.0755
    1SOL    MW411152   1.966   3.635   4.288 -0.5958  0.0384  0.0525
    1SOL     OW11153   1.080   2.743   4.499  0.9440  0.1668  0.8584
    1SOL    HW211154   1.025   2.670   4.528  1.1306 -0.2494  0.1722
    1SOL    HW311155   1.025   2.820   4.511 -0.2230 -0.3550 -0.8503
    1SOL    MW411156   1.065   2.743   4.504  0.8148  0.0432  0.5426
    1SOL     OW11157   0.209   3.511   4.554 -0.3163 -0.3039  0.4933
    1SOL    HW211158   0.211   3.606   4.552  0.6328 -0.3309 -1.5549
    1SOL    HW311159   0.136   3.489   4.611 -2.5227  1.6662 -1.4604
    1SOL    MW411160   0.200   3.520   4.561 -0.4822 -0.0477 -0.0343
    1SOL     OW11161   0.169   3.043   4.594 -0.1670  0.6813  0.1929
    1SOL    HW211162   0.157   2.948   4.597 -0.0390  0.6534 -0.1787
    1SOL    HW311163   0.254   3.055   4.552 -0.2764  0.9662  0.0545
    1SOL    MW411164   0.178   3.032   4.589 -0.1646  0.7153  0.1254
    1SOL     OW11165   3.379   0.592   4.559  0.1684  0.0378 -0.0136
    1SOL    HW211166   3.300   0.647   4.556 -0.5301 -0.9264  0.3640
    1SOL    HW311167   3.383   0.551   4.472  0.5771  0.5217 -0.2266
    1SOL    MW411168   3.369   0.594   4.547  0.1302 -0.0256  0.0081
    1SOL     OW11169   2.645   3.441   4.150  0.4810  0.3815 -0.0316
    1SOL    HW211170   2.716   3.481   4.200 -0.7447  0.9025  1.2928
    1SOL    HW311171   2.650   3.348   4.171  1.3414  0.2645 -0.6775
    1SOL    MW411172   2.655   3.434   4.159  0.4327  0.4349  0.0587
    1SOL     OW11173   1.181   2.315   4.200 -0.3538 -0.3870  0.1423
    1SOL    HW211174   1.162   2.223   4.217  0.8490 -0.8247 -0.8082
    1SOL    HW311175   1.224   2.346   4.279 -0.1365 -0.8250  0.1966
    1SOL    MW411176   1.184   2.307   4.212 -0.1663 -0.5026  0.0238
    1SOL     OW11177   1.872   0.332   4.158 -0.4741 -0.0969 -0.1900
    1SOL    HW211178   1.845   0.255   4.209 -1.7971 -0.0013 -0.7287
    1SOL    HW311179   1.937   0.376   4.213  0.6010 -1.8225 -0.0516
    1SOL    MW411180   1.877   0.328   4.172 -0.5069 -0.3119 -0.2427
    1SOL     OW11181   2.911   3.079   4.603 -0.1136  0.2782 -0.1623
    1SOL    HW211182   2.846   3.034   4.657  0.3271 -0.3948 -0.1885
    1SOL    HW311183   2.973   3.010   4.578  1.1859  1.1078  0.7270
    1SOL    MW411184   2.910   3.064   4.607  0.1161  0.2990 -0.0486
    1SOL     OW11185   1.653   4.627   4.163 -0.0374 -0.1544  0.2611
    1SOL    HW211186   1.619   4.542   4.191  1.4081 -0.5933  0.7892
    1SOL    HW311187   1.647   4.626   4.068  0.2172 -0.9691  0.2490
    1SOL    MW411188   1.648   4.616   4.154  0.1869 -0.3200  0.3290
    1SOL     OW11189   0.916   4.062   4.522 -0.6329 -0.2684 -0.0009
    1SOL    HW211190   0.997   4.091   4.564 -0.5446 -0.7384  0.1608
    1SOL    HW311191   0.922   3.967   4.523 -1.5395 -0.3273  0.7286
    1SOL    MW411192   0.927   4.054   4.528 -0.7408 -0.3381  0.1163
    1SOL     OW11193   1.738   3.517   4.153  0.4491 -0.0931  0.1157
    1SOL    HW211194   1.751   3.422   4.155  0.4215 -0.0990 -0.0248
    1SOL    HW311195   1.820   3.552   4.188 -0.0639 -0.2137  1.4726
    1SOL    MW411196   1.751   3.509   4.158  0.3778 -0.1097  0.2766
    1SOL     OW11197   0.022   1.907   4.163 -0.3276 -0.0975  0.2319
    1SOL    HW211198   0.095   1.933   4.219 -0.7768 -0.6523  1.0957
    1SOL    HW311199  -0.054   1.949   4.203 -0.3997  0.9281 -0.9849
    1SOL    MW411200   0.021   1.916   4.176 -0.3965 -0.0355  0.1860
    1SOL     OW11201   4.057   1.299   4.588 -0.0901 -0.4737 -0.1741
    1SOL    HW211202   4.053   1.372   4.527 -0.6758  0.0840  0.5216
    1SOL    HW311203   3.976   1.306   4.639  0.2688 -1.0916  0.4856
    1SOL    MW411204   4.046   1.310   4.587 -0.1202 -0.4816  0.0052
    1SOL     OW11205   0.951   0.837   4.248  0.5220  0.1946 -0.2910
    1SOL    HW211206   0.970   0.828   4.341  1.7144  0.6957 -0.4901
    1SOL    HW311207   0.946   0.931   4.233  0.6384  0.1215 -0.7974
    1SOL    MW411208   0.952   0.848   4.258  0.6946  0.2511 -0.3839
    1SOL     OW11209   3.573   3.986   4.261  0.1031 -0.3008  0.0034
    1SOL    HW211210   3.495   3.949   4.220 -1.0067  1.0204  0.8332
    1SOL    HW311211   3.646   3.955   4.208 -0.9751 -1.6634 -0.7227
    1SOL    MW411212   3.572   3.977   4.249 -0.1857 -0.3064  0.0167
    1SOL     OW11213   2.010   3.089   4.179  0.1444  0.4079 -0.2501
    1SOL    HW211214   2.010   2.998   4.206  0.7691  0.4042 -0.2578
    1SOL    HW311215   2.008   3.087   4.084  3.1055  0.3612 -0.3456
    1SOL    MW411216   2.010   3.077   4.170  0.6177  0.4015 -0.2642
    1SOL     OW11217   3.347   0.357   4.690  0.1333  0.3313  0.4903
    1SOL    HW211218   3.349   0.448   4.660 -0.8390  0.3277  0.4224
    1SOL    HW311219   3.409   0.355   4.763 -1.2425  1.4850  1.7182
    1SOL    MW411220   3.356   0.368   4.695 -0.1767  0.4831  0.6433
    1SOL     OW11221   1.387   3.165   4.296  0.1350  0.1853 -0.3536
    1SOL    HW211222   1.447   3.121   4.236  0.2313 -0.6152  0.3155
    1SOL    HW311223   1.388   3.257   4.268  1.3354  0.1026 -0.6319
    1SOL    MW411224   1.395   3.171   4.285  0.3061  0.0689 -0.3018
    1SOL     OW11225   2.761   2.512   4.219 -0.0959 -0.0799 -0.3214
    1SOL    HW211226   2.853   2.507   4.246 -0.5873 -0.8139  1.2548
    1SOL    HW311227   2.733   2.600   4.245 -0.8166 -1.0726  2.5316
    1SOL    MW411228   2.770   2.523   4.226 -0.2558 -0.3076  0.2632
    1SOL     OW11229   4.044   0.129   4.278 -0.1016  0.2636  0.1057
    1SOL    HW211230   4.033   0.216   4.240  1.4220  0.5206  0.2195
    1SOL    HW311231   4.041   0.144   4.373  0.0548  0.1755  0.1245
    1SOL    MW411232   4.042   0.143   4.286  0.1202  0.2859  0.1230
    1SOL     OW11233   1.126   1.285   4.263  0.4048 -0.2710 -0.4108
    1SOL    HW211234   1.192   1.239   4.211  0.3195 -0.0923 -0.6787
    1SOL    HW311235   1.129   1.375   4.230  2.1311  0.4709  1.5854
    1SOL    MW411236   1.135   1.291   4.252  0.6213 -0.1494 -0.1826
    1SOL     OW11237   2.260   3.996   4.244 -0.1209  0.3554  0.0316
    1SOL    HW211238   2.176   3.954   4.228  0.3609 -0.3100 -0.7780
    1SOL    HW311239   2.253   4.031   4.333 -1.1110 -0.0133  0.1026
    1SOL    MW411240   2.248   3.995   4.254 -0.1879  0.2189 -0.0663
    1SOL     OW11241   0.913   4.511   4.579  0.3532 -0.1595  0.1195
    1SOL    HW211242   0.990   4.457   4.565  1.5023  1.7121 -0.9606
    1SOL    HW311243   0.839   4.453   4.561  1.5388 -1.4813 -0.5527
    1SOL    MW411244   0.913   4.497   4.575  0.6613 -0.0868 -0.1116
    1SOL     OW11245   3.085   1.646   4.371  0.1856 -0.6744 -0.1689
    1SOL    HW211246   3.158   1.702   4.346  1.0464 -1.3091  0.8761
    1SOL    HW311247   3.017   1.707   4.401 -0.1242 -0.0236 -2.1075
    1SOL    MW411248   3.085   1.662   4.372  0.2584 -0.6721 -0.2871
    1SOL     OW11249   3.320   4.358   4.539 -0.0957 -0.0986 -0.3723
    1SOL    HW211250   3.225   4.347   4.539  0.0234 -1.1804 -0.0417
    1SOL    HW311251   3.351   4.303   4.611  0.6518  1.5398  0.5805
    1SOL    MW411252   3.311   4.349   4.548  0.0188 -0.0248 -0.2027
    1SOL     OW11253   3.379   1.046   4.330  0.4926 -0.2803  0.0865
    1SOL    HW211254   3.457   1.053   4.275  0.1172  0.0587 -0.3993
    1SOL    HW311255   3.338   1.132   4.324  1.0290  0.1091  1.7625
    1SOL    MW411256   3.384   1.058   4.322  0.5138 -0.1842  0.2437
    1SOL     OW11257   3.325   3.118   4.160  0.4245  0.0702  0.3507
    1SOL    HW211258   3.355   3.097   4.072 -0.3060 -1.0256  0.3525
    1SOL    HW311259   3.317   3.033   4.204 -0.9249  0.4729  0.9112
    1SOL    MW411260   3.328   3.104   4.154  0.1502 -0.0212  0.4253
    1SOL     OW11261   0.850   4.253   4.124 -0.2183  0.1882  0.3996
    1SOL    HW211262   0.788   4.299   4.180  0.3601  2.1800 -0.5344
    1SOL    HW311263   0.936   4.287   4.150  0.4147 -1.8551  1.0504
    1SOL    MW411264   0.853   4.263   4.135 -0.0585  0.1812  0.3624
    1SOL     OW11265   0.001   2.697   4.175 -0.3056  0.4742  0.5754
    1SOL    HW211266   0.020   2.610   4.209  0.0381  0.1340 -0.4663
    1SOL    HW311267   0.075   2.751   4.205  0.8517 -0.1939 -1.0024
    1SOL    MW411268   0.014   2.693   4.183 -0.1076  0.3412  0.2303
    1SOL     OW11269   3.238   2.097   4.245 -0.3547 -0.4375  0.1676
    1SOL    HW211270   3.192   2.033   4.190 -1.0161 -0.4107  0.6794
    1SOL    HW311271   3.256   2.171   4.187  0.9440 -1.3354 -0.5787
    1SOL    MW411272   3.234   2.098   4.230 -0.2708 -0.5524  0.1359
    1SOL     OW11273   1.408   4.596   4.557  0.0696  0.7517  0.0072
    1SOL    HW211274   1.369   4.684   4.565  0.4500  0.8656  0.6949
    1SOL    HW311275   1.334   4.539   4.536 -0.5296  0.9369  1.5233
    1SOL    MW411276   1.393   4.600   4.556  0.0408  0.7915  0.2980
    1SOL     OW11277   4.220   2.811   4.511  0.3520  0.1274  0.3583
    1SOL    HW211278   4.291   2.755   4.540  1.7068  1.7142  0.1976
    1SOL    HW311279   4.244   2.836   4.421 -0.1403  1.0612  0.4739
    1SOL    MW411280   4.233   2.807   4.503  0.4659  0.4599  0.3524
    1SOL     OW11281   2.948   0.758   4.167  0.0753  0.0114 -0.4192
    1SOL    HW211282   3.029   0.803   4.192 -0.8062  1.5299 -0.2023
    1SOL    HW311283   2.964   0.666   4.188  1.5980  0.3507 -0.0120
    1SOL    MW411284   2.961   0.752   4.173  0.1600  0.2565 -0.3371
    1SOL     OW11285   4.280   1.516   4.186  0.3057  0.1347 -0.1976
    1SOL    HW211286   4.209   1.567   4.226  0.9585  1.4153 -0.6339
    1SOL    HW311287   4.275   1.431   4.229 -0.6812  0.6229  0.7028
    1SOL    MW411288   4.270   1.512   4.197  0.2613  0.3681 -0.1369
    1SOL     OW11289   1.412   0.366   4.160  0.8653 -0.0808 -0.0131
    1SOL    HW211290   1.490   0.407   4.198  0.3871  0.6107  0.2319
    1SOL    HW311291   1.423   0.273   4.179  0.6954  0.2353  1.7385
    1SOL    MW411292   1.424   0.359   4.168  0.7797  0.0522  0.2499
    1SOL     OW11293   0.045   0.143   4.269 -0.3618  0.4232 -0.0976
    1SOL    HW211294   0.047   0.227   4.224 -0.3649  0.3315 -0.2665
    1SOL    HW311295  -0.046   0.115   4.265 -0.3281  0.3256 -0.1987
    1SOL    MW411296   0.033   0.150   4.263 -0.3578  0.3982 -0.1335
    1SOL     OW11297   1.105   4.647   3.904 -0.4040 -0.0540 -0.3062
    1SOL    HW211298   1.114   4.653   4.000  0.3292  1.1571 -0.4484
    1SOL    HW311299   1.125   4.555   3.885 -1.3665 -0.5188  0.7795
    1SOL    MW411300   1.109   4.635   3.914 -0.4342  0.0443 -0.1814
    1SOL     OW11301   3.596   3.859   4.486  0.1767 -0.1119 -0.5372
    1SOL    HW211302   3.509   3.870   4.524  0.1135  0.1385 -0.7497
    1SOL    HW311303   3.589   3.901   4.400 -0.0261 -1.7072 -1.3046
    1SOL    MW411304   3.584   3.866   4.480  0.1416 -0.2894 -0.6661
    1SOL     OW11305   3.222   1.295   4.298 -0.2250 -0.2171 -0.1233
    1SOL    HW211306   3.181   1.274   4.382 -0.0926  2.5578  0.6603
    1SOL    HW311307   3.159   1.263   4.233 -1.1365 -0.8209  1.0250
    1SOL    MW411308   3.208   1.288   4.300 -0.3276  0.0694  0.1311
    1SOL     OW11309   3.577   0.318   4.170  0.6179  0.1687  0.2986
    1SOL    HW211310   3.659   0.345   4.210  1.3306 -1.2731 -0.1455
    1SOL    HW311311   3.592   0.328   4.076  0.2085  0.1044  0.2260
    1SOL    MW411312   3.590   0.323   4.163  0.6580 -0.0300  0.2303
    1SOL     OW11313   3.124   1.883   4.093 -0.0238 -0.1421 -0.4040
    1SOL    HW211314   3.050   1.829   4.066  0.6804 -0.9672 -0.7220
    1SOL    HW311315   3.190   1.820   4.122  0.3268  0.6107  0.4465
    1SOL    MW411316   3.123   1.868   4.093  0.1154 -0.1516 -0.3338
    1SOL     OW11317   1.169   4.624   4.180 -0.0734  0.3650 -0.1098
    1SOL    HW211318   1.097   4.649   4.238 -0.1874 -0.5258  0.1450
    1SOL    HW311319   1.248   4.650   4.227 -0.1886  0.2725  0.1343
    1SOL    MW411320   1.170   4.631   4.194 -0.1036  0.2351 -0.0443
    1SOL     OW11321   2.481   0.517   4.312  0.1816  0.2171 -0.5022
    1SOL    HW211322   2.556   0.476   4.270 -0.0719  0.6859 -1.4381
    1SOL    HW311323   2.481   0.607   4.279 -1.5665 -0.1487 -1.6038
    1SOL    MW411324   2.491   0.524   4.302 -0.0823  0.2307 -0.7710
    1SOL     OW11325   1.612   3.518   4.549 -0.0662 -0.1747  0.4190
    1SOL    HW211326   1.652   3.439   4.515 -0.2181  0.3501 -1.0315
    1SOL    HW311327   1.585   3.567   4.471 -1.1136  0.7115  1.3121
    1SOL    MW411328   1.614   3.514   4.534 -0.2244  0.0114  0.3452
    1SOL     OW11329   2.908   2.803   4.250 -0.1349 -0.1142  0.3774
    1SOL    HW211330   2.935   2.826   4.339 -0.0598 -1.3964  0.7038
    1SOL    HW311331   2.941   2.714   4.238 -3.6070 -1.5188  0.5553
    1SOL    MW411332   2.916   2.794   4.260 -0.5827 -0.4685  0.4439
    1SOL     OW11333   1.351   4.208   4.172 -0.4125 -0.4309 -0.2113
    1SOL    HW211334   1.349   4.193   4.077  1.3297 -0.7134 -0.2247
    1SOL    HW311335   1.327   4.124   4.210  0.0931 -0.6600 -0.3928
    1SOL    MW411336   1.348   4.195   4.164 -0.1160 -0.4983 -0.2365
    1SOL     OW11337   0.911   1.218   4.650  0.2947  0.2398  0.0795
    1SOL    HW211338   0.991   1.238   4.601 -1.1586  3.6615 -1.0604
    1SOL    HW311339   0.911   1.281   4.722  0.1472 -1.8052  1.9109
    1SOL    MW411340   0.922   1.229   4.653  0.0834  0.4215  0.1707
    1SOL     OW11341   0.468   3.866   4.531 -0.2591 -0.4143  0.0491
    1SOL    HW211342   0.458   3.931   4.602 -0.7186 -1.3379  0.8353
    1SOL    HW311343   0.459   3.917   4.451 -0.1843  0.5783  0.6574
    1SOL    MW411344   0.466   3.882   4.530 -0.3099 -0.4053  0.2332
    1SOL     OW11345   1.818   2.755   4.734 -1.0423 -0.0347  0.2741
    1SOL    HW211346   1.867   2.795   4.663  0.1244 -0.0457  1.0473
    1SOL    HW311347   1.799   2.828   4.794 -1.5190 -0.1194  0.2239
    1SOL    MW411348   1.822   2.770   4.733 -0.9513 -0.0474  0.3695
    1SOL     OW11349   3.153   0.087   4.465  0.0333  0.6629 -0.0152
    1SOL    HW211350   3.073   0.039   4.488  1.1113 -1.5626 -0.7052
    1SOL    HW311351   3.162   0.074   4.371  0.8118  1.5351 -0.0623
    1SOL    MW411352   3.144   0.079   4.456  0.2785  0.4844 -0.1125
    1SOL     OW11353   2.574   2.546   4.693 -0.0230  0.0689 -0.7387
    1SOL    HW211354   2.519   2.476   4.659  0.0141 -0.0469 -0.5594
    1SOL    HW311355   2.660   2.505   4.706 -0.0052  0.1422 -0.6192
    1SOL    MW411356   2.578   2.531   4.690 -0.0155  0.0634 -0.6990
    1SOL     OW11357   1.151   2.750   4.227  0.4327  0.5113  0.2030
    1SOL    HW211358   1.141   2.733   4.321  0.4839  0.3401  0.1771
    1SOL    HW311359   1.156   2.845   4.221 -0.3007  0.5593  0.3051
    1SOL    MW411360   1.150   2.760   4.239  0.3426  0.4954  0.2127
    1SOL     OW11361   0.416   3.963   4.280 -0.1483  0.2868 -0.4138
    1SOL    HW211362   0.491   3.916   4.244 -0.0613  0.5258 -0.5486
    1SOL    HW311363   0.340   3.924   4.236 -0.0522  0.4862 -0.7626
    1SOL    MW411364   0.416   3.952   4.270 -0.1242  0.3443 -0.4778
    1SOL     OW11365   1.002   3.221   4.529  0.1495 -0.2374  0.1403
    1SOL    HW211366   1.086   3.262   4.508  0.0639 -0.9421 -1.7097
    1SOL    HW311367   0.963   3.278   4.594  1.3369  1.0037 -0.2009
    1SOL    MW411368   1.008   3.234   4.535  0.2949 -0.1667 -0.1493
    1SOL     OW11369   0.684   1.570   4.782  0.1488  0.1367 -0.1030
    1SOL    HW211370   0.613   1.522   4.741 -0.9831  0.9439  0.8818
    1SOL    HW311371   0.692   1.650   4.730  0.4850 -0.0557 -0.3469
    1SOL    MW411372   0.676   1.574   4.770  0.0439  0.2178 -0.0048
    1SOL     OW11373   3.915   4.219   4.507 -0.0215 -0.0547 -0.1409
    1SOL    HW211374   3.833   4.185   4.543  0.1159 -0.3573 -0.1133
    1SOL    HW311375   3.889   4.267   4.428 -0.0352 -1.6381 -1.1062
    1SOL    MW411376   3.901   4.221   4.501 -0.0052 -0.3037 -0.2651
    1SOL     OW11377   0.202   4.608   4.152  0.0186  0.3347 -0.0922
    1SOL    HW211378   0.139   4.670   4.190  0.7778  0.6674  0.6217
    1SOL    HW311379   0.191   4.528   4.204  1.1539  0.8342  0.9144
    1SOL    MW411380   0.192   4.605   4.163  0.2686  0.4444  0.1340
    1SOL     OW11381   4.270   0.725   4.177 -0.0239  0.0055 -0.1491
    1SOL    HW211382   4.258   0.710   4.084  1.6681  1.1015 -0.5589
    1SOL    HW311383   4.360   0.756   4.185 -0.5206  1.0269  1.7177
    1SOL    MW411384   4.280   0.727   4.166  0.1330  0.2849  0.0434
    1SOL     OW11385   2.436   3.584   4.273 -0.3264 -0.0033  0.9539
    1SOL    HW211386   2.498   3.526   4.231 -0.2386  0.8900 -0.1638
    1SOL    HW311387   2.350   3.557   4.239 -0.2506  0.7491  0.1697
    1SOL    MW411388   2.433   3.573   4.263 -0.3049  0.2136  0.7029
    1SOL     OW11389   1.276   3.978   4.328 -0.5035  0.0550 -0.0686
    1SOL    HW211390   1.216   3.921   4.279  1.0347 -0.4731 -1.3554
    1SOL    HW311391   1.363   3.942   4.311  0.3715  2.0148  0.1683
    1SOL    MW411392   1.279   3.965   4.319 -0.1851  0.2437 -0.2074
    1SOL     OW11393   0.147   2.763   4.559  0.2551  0.0880  0.5507
    1SOL    HW211394   0.220   2.714   4.596 -0.0801 -0.6208  0.2797
    1SOL    HW311395   0.071   2.705   4.570 -0.3281  0.9398  1.1180
    1SOL    MW411396   0.146   2.749   4.565  0.1340  0.1068  0.5898
    1SOL     OW11397   0.676   0.517   4.533 -0.1224  0.2112  0.4305
    1SOL    HW211398   0.587   0.549   4.549 -1.4213 -3.2294  0.5740
    1SOL    HW311399   0.690   0.531   4.440 -2.1319 -2.1026 -0.2937
    1SOL    MW411400   0.666   0.523   4.523 -0.5589 -0.5480  0.3538
    1SOL     OW11401   3.031   2.199   4.747 -0.5935  0.1786  0.0613
    1SOL    HW211402   3.089   2.275   4.743 -1.3991  0.8485  1.0461
    1SOL    HW311403   2.944   2.234   4.728 -1.0819 -0.3654  1.2631
    1SOL    MW411404   3.027   2.214   4.744 -0.7641  0.1953  0.3490
    1SOL     OW11405   1.348   0.209   4.571 -0.6947 -0.2010  0.8263
    1SOL    HW211406   1.394   0.292   4.567 -0.5867 -0.2069  1.7281
    1SOL    HW311407   1.255   0.232   4.573 -0.6708 -0.1080  0.8269
    1SOL    MW411408   1.341   0.223   4.571 -0.6773 -0.1895  0.9451
    1SOL     OW11409   4.097   4.029   4.216  0.0284  0.1900 -0.4165
    1SOL    HW211410   4.166   3.968   4.190  0.2425 -0.2189  1.0635
    1SOL    HW311411   4.096   4.025   4.312 -3.5959 -1.5560 -0.4254
    1SOL    MW411412   4.106   4.021   4.225 -0.4210 -0.0944 -0.2227
    1SOL     OW11413   1.429   2.596   4.649 -0.3719  0.1427 -0.0744
    1SOL    HW211414   1.503   2.542   4.675 -0.1748  0.7816  0.6962
    1SOL    HW311415   1.466   2.664   4.593 -0.5237 -0.1083 -0.4871
    1SOL    MW411416   1.443   2.597   4.645 -0.3659  0.1941 -0.0272
    1SOL     OW11417   2.450   4.346   4.473  0.7735  0.0871  0.1211
    1SOL    HW211418   2.540   4.323   4.496  1.0320  0.3086 -0.6269
    1SOL    HW311419   2.448   4.339   4.377 -0.0185  0.0377  0.1393
    1SOL    MW411420   2.462   4.342   4.463  0.7031  0.1097  0.0248
    1SOL     OW11421   4.275   4.443   4.302 -0.1492 -0.0823 -0.1055
    1SOL    HW211422   4.265   4.401   4.387 -0.5154 -0.5064 -0.3553
    1SOL    HW311423   4.345   4.394   4.259  0.8939  0.9091  0.4238
    1SOL    MW411424   4.283   4.431   4.307 -0.0601 -0.0076 -0.0682
    1SOL     OW11425   1.991   2.367   4.167 -0.2569 -0.6536 -0.0741
    1SOL    HW211426   1.909   2.411   4.188 -0.3018 -0.8705  0.1917
    1SOL    HW311427   1.984   2.347   4.074 -0.2491 -0.1208 -0.1948
    1SOL    MW411428   1.979   2.370   4.157 -0.2618 -0.6120 -0.0553
    1SOL     OW11429   0.268   0.996   4.619  0.4723  0.9568 -0.1457
    1SOL    HW211430   0.182   0.966   4.590 -0.0841  0.1163  2.2930
    1SOL    HW311431   0.256   1.090   4.635  0.0403  0.8615  0.0967
    1SOL    MW411432   0.255   1.005   4.617  0.3419  0.8334  0.2079
    1SOL     OW11433   1.197   4.416   4.482 -0.3463 -0.0037 -0.3558
    1SOL    HW211434   1.170   4.402   4.391 -0.3433 -0.3213 -0.3101
    1SOL    HW311435   1.233   4.331   4.509  0.4228  0.3284 -0.3229
    1SOL    MW411436   1.199   4.403   4.474 -0.2445 -0.0014 -0.3452
    1SOL     OW11437   0.039   0.394   4.144  0.0716  0.1387 -0.0394
    1SOL    HW211438  -0.040   0.426   4.188 -0.1130 -3.0747  2.0695
    1SOL    HW311439   0.012   0.384   4.052 -1.6476  0.1571  0.4433
    1SOL    MW411440   0.025   0.397   4.137 -0.1796 -0.2828  0.3023
    1SOL     OW11441   0.907   0.101   4.701  0.3888 -0.4573 -0.2530
    1SOL    HW211442   0.819   0.138   4.696  0.1895 -0.5241  2.1277
    1SOL    HW311443   0.898   0.012   4.666 -0.0233  0.2495 -1.9922
    1SOL    MW411444   0.895   0.094   4.696  0.3082 -0.3729 -0.1683
    1SOL     OW11445   2.737   2.904   4.728 -0.0735  0.0405  0.2993
    1SOL    HW211446   2.665   2.879   4.786 -0.3685  0.0807 -0.0448
    1SOL    HW311447   2.798   2.831   4.733 -0.2617 -0.1112  0.3985
    1SOL    MW411448   2.735   2.891   4.736 -0.1371  0.0257  0.2670
    1SOL     OW11449   4.355   3.630   4.727 -0.0112  0.1526  0.1437
    1SOL    HW211450   4.294   3.581   4.672 -0.1653  0.0480  0.4033
    1SOL    HW311451   4.419   3.565   4.756  2.1116  0.8696 -2.7072
    1SOL    MW411452   4.355   3.615   4.724  0.2489  0.2332 -0.1984
    1SOL     OW11453   4.315   3.847   4.176  0.0965  0.3070 -0.1655
    1SOL    HW211454   4.279   3.775   4.227 -0.3204  1.3576  1.0487
    1SOL    HW311455   4.381   3.887   4.234 -1.1296  2.1594 -0.0121
    1SOL    MW411456   4.319   3.843   4.191 -0.1197  0.6900  0.0153
    1SOL     OW11457   1.936   4.442   4.530 -0.2393 -0.4660 -0.4166
    1SOL    HW211458   1.974   4.515   4.579 -1.0059 -1.5901  1.9330
    1SOL    HW311459   1.842   4.450   4.544 -0.3415 -1.7794 -0.2934
    1SOL    MW411460   1.929   4.453   4.538 -0.3541 -0.7877 -0.0901
    1SOL     OW11461   2.342   3.545   4.551 -0.2802  0.1334 -0.3192
    1SOL    HW211462   2.389   3.463   4.569 -1.6211 -0.6680 -0.3669
    1SOL    HW311463   2.383   3.579   4.472 -0.8813 -1.4245 -1.3217
    1SOL    MW411464   2.353   3.539   4.543 -0.5364 -0.1776 -0.4573
    1SOL     OW11465   2.660   1.791   4.601 -0.1342 -0.1547  0.7064
    1SOL    HW211466   2.609   1.869   4.622  0.0046  0.1458 -0.0757
    1SOL    HW311467   2.604   1.741   4.542  0.0290 -0.3464  0.7136
    1SOL    MW411468   2.646   1.795   4.596 -0.0944 -0.1404  0.6042
    1SOL     OW11469   4.030   1.955   4.160 -0.4329 -0.2143  0.2945
    1SOL    HW211470   3.935   1.959   4.156 -0.4374  0.3572  1.0084
    1SOL    HW311471   4.057   1.926   4.073 -1.3478 -1.9715  0.5722
    1SOL    MW411472   4.021   1.952   4.148 -0.5541 -0.3707  0.4253
    1SOL     OW11473   2.283   1.180   4.177 -0.0650  0.1520  0.6088
    1SOL    HW211474   2.339   1.227   4.239  1.6509 -0.3153 -0.5573
    1SOL    HW311475   2.285   1.089   4.207 -0.8072  0.2647  1.0037
    1SOL    MW411476   2.291   1.174   4.189  0.0637  0.1054  0.5069
    1SOL     OW11477   3.835   4.361   4.269 -0.2831 -0.0062 -0.2642
    1SOL    HW211478   3.913   4.335   4.220 -0.8816 -0.5653 -0.9421
    1SOL    HW311479   3.830   4.456   4.257  0.5304  0.0898  0.1440
    1SOL    MW411480   3.845   4.371   4.261 -0.2549 -0.0672 -0.3004
    1SOL     OW11481   3.726   1.168   4.690  0.6607  0.2435 -0.1068
    1SOL    HW211482   3.646   1.116   4.703  1.6338 -1.3550 -0.3367
    1SOL    HW311483   3.778   1.116   4.628  1.6942  1.4733 -0.2820
    1SOL    MW411484   3.722   1.154   4.684  0.9253  0.1949 -0.1602
    1SOL     OW11485   3.176   0.375   4.148  0.0663 -0.0712 -0.0198
    1SOL    HW211486   3.086   0.391   4.175  0.7500  2.2009  1.0340
    1SOL    HW311487   3.174   0.378   4.053 -0.7344  1.4695  0.0307
    1SOL    MW411488   3.164   0.377   4.139  0.0510  0.4318  0.1259
    1SOL     OW11489   3.161   3.731   4.740  0.2140 -0.1050 -0.1027
    1SOL    HW211490   3.162   3.656   4.681  0.3531  0.6640 -1.1085
    1SOL    HW311491   3.073   3.769   4.728  0.6050  0.6613 -0.6219
    1SOL    MW411492   3.149   3.726   4.731  0.2840  0.0978 -0.3037
    1SOL     OW11493   0.675   2.304   4.140  0.0591  0.3737  0.2210
    1SOL    HW211494   0.687   2.299   4.045 -0.5405 -1.3533  0.2243
    1SOL    HW311495   0.761   2.329   4.173  0.7234 -0.6672 -0.6596
    1SOL    MW411496   0.688   2.306   4.131  0.0676  0.0083  0.1054
    1SOL     OW11497   0.930   4.656   4.344  0.2613 -0.6634 -0.1169
    1SOL    HW211498   0.865   4.622   4.282 -0.1121 -0.7147  0.3063
    1SOL    HW311499   0.919   4.603   4.422 -0.1130  0.2287  0.4423
    1SOL    MW411500   0.920   4.645   4.346  0.1626 -0.5527  0.0124
    1SOL     OW11501   3.283   2.335   4.097 -0.1594  0.0315 -0.2082
    1SOL    HW211502   3.311   2.381   4.177 -0.6765 -0.9451  0.5511
    1SOL    HW311503   3.191   2.359   4.086  0.2148  1.0496 -1.1447
    1SOL    MW411504   3.275   2.344   4.106 -0.1781  0.0370 -0.2313
    1SOL     OW11505   2.187   3.492   4.196  0.0220  0.2199  0.2119
    1SOL    HW211506   2.181   3.416   4.254 -1.3846 -0.0131 -0.2108
    1SOL    HW311507   2.106   3.541   4.213  1.1170  1.8555  0.7950
    1SOL    MW411508   2.175   3.489   4.206 -0.0191  0.4051  0.2332
    1SOL     OW11509   1.557   2.766   4.240  0.4567 -0.4293  0.0064
    1SOL    HW211510   1.646   2.735   4.223  1.3068  1.4116  0.9914
    1SOL    HW311511   1.558   2.793   4.332 -1.1251 -0.3644  0.0230
    1SOL    MW411512   1.569   2.765   4.250  0.3600 -0.1779  0.1392
    1SOL     OW11513   4.287   2.043   4.263 -0.1093  0.6489  0.2813
    1SOL    HW211514   4.294   2.135   4.238 -0.8948  0.8856  0.9120
    1SOL    HW311515   4.196   2.021   4.245 -0.1649  0.2645  1.0470
    1SOL    MW411516   4.276   2.052   4.257 -0.2208  0.6294  0.4659
    1SOL     OW11517   3.813   2.370   4.302 -0.0146  0.7337 -0.1723
    1SOL    HW211518   3.812   2.298   4.365  1.8728  1.3545  0.6194
    1SOL    HW311519   3.767   2.337   4.225  0.0943 -1.0196  0.5129
    1SOL    MW411520   3.807   2.357   4.300  0.2487  0.5844  0.0234
    1SOL     OW11521   2.495   3.312   4.584 -0.0644 -0.0916  0.1820
    1SOL    HW211522   2.578   3.328   4.540 -0.6648  2.4928 -0.1012
    1SOL    HW311523   2.463   3.230   4.547  1.4507 -0.1428 -1.0586
    1SOL    MW411524   2.502   3.303   4.573  0.0563  0.2425 -0.0186
    1SOL     OW11525   0.465   3.432   4.165  0.0819  0.5683  0.2281
    1SOL    HW211526   0.454   3.458   4.074  0.6006  0.0360  0.0082
    1SOL    HW311527   0.395   3.478   4.212 -0.8246  0.0482 -0.5929
    1SOL    MW411528   0.454   3.441   4.159  0.0308  0.4292  0.0911
    1SOL     OW11529   0.449   0.037   4.283  0.1432 -0.2185 -0.7484
    1SOL    HW211530   0.372  -0.001   4.241 -0.1021  0.4644 -0.9127
    1SOL    HW311531   0.454   0.126   4.248  0.0347  0.2979  0.5385
    1SOL    MW411532   0.440   0.044   4.273  0.0966 -0.0602 -0.6008
    1SOL     OW11533   3.832   0.426   4.277 -0.1234 -0.1275 -0.2664
    1SOL    HW211534   3.842   0.420   4.372  2.8393 -0.0783 -0.5320
    1SOL    HW311535   3.839   0.520   4.258 -3.3377  0.1439 -0.3127
    1SOL    MW411536   3.834   0.437   4.287 -0.1562 -0.0852 -0.3080
    1SOL     OW11537   3.343   3.134   4.698  0.4505 -0.2255  0.2864
    1SOL    HW211538   3.334   3.167   4.788  0.2441 -0.2779  0.2836
    1SOL    HW311539   3.335   3.039   4.707 -0.8454 -0.1471  0.0479
    1SOL    MW411540   3.341   3.125   4.711  0.2525 -0.2222  0.2546
    1SOL     OW11541   3.495   1.000   4.607  0.2197  0.2736  0.4249
    1SOL    HW211542   3.464   1.010   4.517  1.1562  2.1795  0.3047
    1SOL    HW311543   3.540   0.915   4.607  0.1709  0.2294 -0.8775
    1SOL    MW411544   3.497   0.990   4.595  0.3369  0.5192  0.2370
    1SOL     OW11545   3.820   3.916   4.155 -0.5107 -0.0414  0.2170
    1SOL    HW211546   3.802   3.828   4.188  0.1277 -0.9396 -1.7278
    1SOL    HW311547   3.907   3.937   4.188  0.6949 -1.4846 -1.9249
    1SOL    MW411548   3.829   3.907   4.164 -0.2675 -0.3505 -0.3223
    1SOL     OW11549   4.227   4.299   4.560 -0.1147 -0.3039 -0.2715
    1SOL    HW211550   4.251   4.232   4.624 -0.6865  0.5139  0.8075
    1SOL    HW311551   4.131   4.300   4.561 -0.1364 -0.6745 -1.5481
    1SOL    MW411552   4.218   4.290   4.569 -0.1926 -0.2451 -0.2980
    1SOL     OW11553   2.362   2.194   4.222  0.0416 -0.3935 -0.1962
    1SOL    HW211554   2.354   2.230   4.134 -0.1907  0.7126  0.2721
    1SOL    HW311555   2.322   2.260   4.279  1.0777 -0.6351  0.8352
    1SOL    MW411556   2.356   2.207   4.218  0.1478 -0.2794  0.0019
    1NA      NA11557   2.171   2.542   0.675 -0.0939  0.0948 -0.1374
    1NA      NA11558   0.002   1.427   0.503 -0.0773  0.6606  0.0082
   4.49070   4.66690  10.00000
