Gromacs Runs On Most of All Computer Systems
   36
    3RG35     P    1  -0.314  -0.342   0.026
    3RG35   O1P    2  -0.354  -0.420   0.145
    3RG35   O2P    3  -0.176  -0.355  -0.028
    3RG35   O5'    4  -0.417  -0.375  -0.093
    3RG35   C5'    5  -0.554  -0.405  -0.065
    3RG35  H5'1    6  -0.592  -0.330  -0.011
    3RG35  H5'2    7  -0.558  -0.490  -0.012
    3RG35   C4'    8  -0.629  -0.421  -0.195
    3RG35   H4'    9  -0.724  -0.444  -0.175
    3RG35   O4'   10  -0.625  -0.297  -0.270
    3RG35   C1'   11  -0.616  -0.332  -0.408
    3RG35   H1'   12  -0.700  -0.299  -0.452
    3RG35    N9   13  -0.498  -0.265  -0.465
    3RG35    C8   14  -0.368  -0.265  -0.418
    3RG35    H8   15  -0.339  -0.314  -0.335
    3RG35    N7   16  -0.286  -0.195  -0.492
    3RG35    C5   17  -0.367  -0.146  -0.594
    3RG35    C6   18  -0.339  -0.064  -0.705
    3RG35    O6   19  -0.227  -0.020  -0.729
    3RG35    N1   20  -0.450  -0.037  -0.785
    3RG35    H1   21  -0.435   0.021  -0.865
    3RG35    C2   22  -0.583  -0.083  -0.764
    3RG35    N2   23  -0.686  -0.054  -0.845
    3RG35   H21   24  -0.672   0.003  -0.926
    3RG35   H22   25  -0.777  -0.090  -0.825
    3RG35    N3   26  -0.602  -0.160  -0.658
    3RG35    C4   27  -0.496  -0.188  -0.578
    3RG35   C3'   28  -0.558  -0.524  -0.282
    3RG35   H3'   29  -0.460  -0.532  -0.267
    3RG35   C2'   30  -0.600  -0.483  -0.423
    3RG35  H2'1   31  -0.541  -0.514  -0.498
    3RG35   O2'   32  -0.726  -0.540  -0.452
    3RG35  HO'2   33  -0.716  -0.639  -0.462
    3RG35   O3'   34  -0.608  -0.654  -0.253
    3RG35   H3T   35  -0.561  -0.721  -0.310
    3RG35   O3P   36  -0.340  -0.186   0.058
   0.60121   0.74182   1.07077
