Gromacs Runs On Most of All Computer Systems
   36
    3RG35     P    1  -0.026  -0.314   0.342
    3RG35   OP1    2  -0.145  -0.354   0.420
    3RG35   OP2    3   0.028  -0.176   0.355
    3RG35   O3P    4  -0.058  -0.340   0.186
    3RG35   O5'    5   0.093  -0.417   0.375
    3RG35   C5'    6   0.065  -0.554   0.405
    3RG35  H5'1    7   0.007  -0.598   0.321
    3RG35  H5'2    8   0.006  -0.560   0.499
    3RG35   C4'    9   0.195  -0.629   0.421
    3RG35   H4'   10   0.173  -0.735   0.448
    3RG35   O4'   11   0.270  -0.625   0.297
    3RG35   C3'   12   0.282  -0.558   0.524
    3RG35   H3'   13   0.262  -0.449   0.520
    3RG35   O3'   14   0.253  -0.608   0.654
    3RG35   C2'   15   0.423  -0.600   0.483
    3RG35   C1'   16   0.408  -0.616   0.332
    3RG35   H1'   17   0.456  -0.710   0.299
    3RG35   H2'   18   0.495  -0.518   0.505
    3RG35   O2'   19   0.452  -0.726   0.540
    3RG35  HO'2   20   0.401  -0.736   0.621
    3RG35    N9   21   0.465  -0.498   0.265
    3RG35    C8   22   0.418  -0.368   0.265
    3RG35    H8   23   0.329  -0.338   0.318
    3RG35    N7   24   0.492  -0.286   0.195
    3RG35    C5   25   0.594  -0.367   0.146
    3RG35    C4   26   0.578  -0.496   0.188
    3RG35    C6   27   0.705  -0.339   0.064
    3RG35    N3   28   0.658  -0.602   0.160
    3RG35    C2   29   0.764  -0.583   0.083
    3RG35    N1   30   0.785  -0.450   0.037
    3RG35    H1   31   0.866  -0.434  -0.021
    3RG35    N2   32   0.845  -0.686   0.054
    3RG35   H21   33   0.824  -0.778   0.090
    3RG35   H22   34   0.926  -0.672  -0.004
    3RG35    O6   35   0.729  -0.227   0.020
    3RG35   H3T   36   0.175  -0.577   0.700
   0.00000   0.00000   0.00000
