Gromacs Runs On Most of All Computer Systems
   36
    3RG35     P    1  -0.314  -0.342   0.026
    3RG35   OP1    2  -0.354  -0.420   0.145
    3RG35   OP2    3  -0.176  -0.355  -0.028
    3RG35   O3P    4  -0.340  -0.186   0.058
    3RG35   O5'    5  -0.417  -0.375  -0.093
    3RG35   C5'    6  -0.554  -0.405  -0.065
    3RG35  H5'1    7  -0.598  -0.321  -0.007
    3RG35  H5'2    8  -0.560  -0.499  -0.006
    3RG35   C4'    9  -0.629  -0.421  -0.195
    3RG35   H4'   10  -0.735  -0.448  -0.173
    3RG35   O4'   11  -0.625  -0.297  -0.270
    3RG35   C3'   12  -0.558  -0.524  -0.282
    3RG35   H3'   13  -0.449  -0.520  -0.262
    3RG35   O3'   14  -0.608  -0.654  -0.253
    3RG35   C2'   15  -0.600  -0.483  -0.423
    3RG35   C1'   16  -0.616  -0.332  -0.408
    3RG35   H1'   17  -0.710  -0.299  -0.456
    3RG35   H2'   18  -0.518  -0.505  -0.495
    3RG35   O2'   19  -0.726  -0.540  -0.452
    3RG35  HO'2   20  -0.736  -0.621  -0.401
    3RG35    N9   21  -0.498  -0.265  -0.465
    3RG35    C8   22  -0.368  -0.265  -0.418
    3RG35    H8   23  -0.338  -0.318  -0.329
    3RG35    N7   24  -0.286  -0.195  -0.492
    3RG35    C5   25  -0.367  -0.146  -0.594
    3RG35    C4   26  -0.496  -0.188  -0.578
    3RG35    C6   27  -0.339  -0.064  -0.705
    3RG35    N3   28  -0.602  -0.160  -0.658
    3RG35    C2   29  -0.583  -0.083  -0.764
    3RG35    N1   30  -0.450  -0.037  -0.785
    3RG35    H1   31  -0.434   0.021  -0.866
    3RG35    N2   32  -0.686  -0.054  -0.845
    3RG35   H21   33  -0.778  -0.090  -0.824
    3RG35   H22   34  -0.672   0.004  -0.926
    3RG35    O6   35  -0.227  -0.020  -0.729
    3RG35   H3T   36  -0.577  -0.700  -0.175
   0.00000   0.00000   0.00000
