Gromacs Runs On Most of All Computer Systems
   36
    3RG35     P    1   2.354   2.122   5.888
    3RG35   O1P    2   2.314   2.044   6.007
    3RG35   O2P    3   2.492   2.109   5.834
    3RG35   O5'    4   2.251   2.089   5.769
    3RG35   C5'    5   2.114   2.059   5.797
    3RG35  H5'1    6   2.076   2.134   5.851
    3RG35  H5'2    7   2.110   1.974   5.850
    3RG35   C4'    8   2.039   2.043   5.667
    3RG35   H4'    9   1.944   2.020   5.687
    3RG35   O4'   10   2.043   2.167   5.592
    3RG35   C1'   11   2.052   2.132   5.454
    3RG35   H1'   12   1.968   2.165   5.410
    3RG35    N9   13   2.170   2.199   5.397
    3RG35    C8   14   2.300   2.199   5.444
    3RG35    H8   15   2.329   2.150   5.527
    3RG35    N7   16   2.382   2.269   5.370
    3RG35    C5   17   2.301   2.318   5.268
    3RG35    C6   18   2.329   2.400   5.157
    3RG35    O6   19   2.441   2.444   5.133
    3RG35    N1   20   2.218   2.427   5.077
    3RG35    H1   21   2.233   2.485   4.997
    3RG35    C2   22   2.085   2.381   5.098
    3RG35    N2   23   1.982   2.410   5.017
    3RG35   H21   24   1.996   2.467   4.936
    3RG35   H22   25   1.891   2.374   5.037
    3RG35    N3   26   2.066   2.304   5.204
    3RG35    C4   27   2.172   2.276   5.284
    3RG35   C3'   28   2.110   1.940   5.580
    3RG35   H3'   29   2.208   1.932   5.595
    3RG35   C2'   30   2.068   1.981   5.439
    3RG35  H2'1   31   2.127   1.950   5.364
    3RG35   O2'   32   1.942   1.924   5.410
    3RG35  HO'2   33   1.952   1.825   5.400
    3RG35   O3'   34   2.060   1.810   5.609
    3RG35   H3T   35   2.107   1.743   5.552
    3RG35   O3P   36   2.328   2.278   5.920
   4.49070   4.66690  10.00000
