Gromacs Runs On Most of All Computer Systems
11556
    3RG35     P    1   2.354   2.122   5.888
    3RG35   O1P    2   2.314   2.044   6.007
    3RG35   O2P    3   2.492   2.109   5.834
    3RG35   O5'    4   2.251   2.089   5.769
    3RG35   C5'    5   2.114   2.059   5.797
    3RG35  H5'1    6   2.076   2.134   5.851
    3RG35  H5'2    7   2.110   1.974   5.850
    3RG35   C4'    8   2.039   2.043   5.667
    3RG35   H4'    9   1.944   2.020   5.687
    3RG35   O4'   10   2.043   2.167   5.592
    3RG35   C1'   11   2.052   2.132   5.454
    3RG35   H1'   12   1.968   2.165   5.410
    3RG35    N9   13   2.170   2.199   5.397
    3RG35    C8   14   2.300   2.199   5.444
    3RG35    H8   15   2.329   2.150   5.527
    3RG35    N7   16   2.382   2.269   5.370
    3RG35    C5   17   2.301   2.318   5.268
    3RG35    C6   18   2.329   2.400   5.157
    3RG35    O6   19   2.441   2.444   5.133
    3RG35    N1   20   2.218   2.427   5.077
    3RG35    H1   21   2.233   2.485   4.997
    3RG35    C2   22   2.085   2.381   5.098
    3RG35    N2   23   1.982   2.410   5.017
    3RG35   H21   24   1.996   2.467   4.936
    3RG35   H22   25   1.891   2.374   5.037
    3RG35    N3   26   2.066   2.304   5.204
    3RG35    C4   27   2.172   2.276   5.284
    3RG35   C3'   28   2.110   1.940   5.580
    3RG35   H3'   29   2.208   1.932   5.595
    3RG35   C2'   30   2.068   1.981   5.439
    3RG35  H2'1   31   2.127   1.950   5.364
    3RG35   O2'   32   1.942   1.924   5.410
    3RG35  HO'2   33   1.952   1.825   5.400
    3RG35   O3'   34   2.060   1.810   5.609
    3RG35   H3T   35   2.107   1.743   5.552
    3RG35   O3P   36   2.328   2.278   5.920
    4SOL     OW   37   0.355   0.147   0.481
    4SOL    HW2   38   0.448   0.161   0.466
    4SOL    HW3   39   0.312   0.218   0.433
    4SOL    MW4   40   0.361   0.158   0.472
    5SOL     OW   41   3.984   0.231   0.489
    5SOL    HW2   42   4.062   0.181   0.469
    5SOL    HW3   43   3.990   0.309   0.433
    5SOL    MW4   44   3.995   0.235   0.479
    6SOL     OW   45   3.790   0.311   0.132
    6SOL    HW2   46   3.714   0.293   0.075
    6SOL    HW3   47   3.773   0.260   0.211
    6SOL    MW4   48   3.777   0.302   0.135
    7SOL     OW   49   4.462   1.673   0.514
    7SOL    HW2   50   4.486   1.657   0.606
    7SOL    HW3   51   4.537   1.641   0.464
    7SOL    MW4   52   4.475   1.667   0.520
    8SOL     OW   53   1.324   0.826   0.288
    8SOL    HW2   54   1.230   0.835   0.306
    8SOL    HW3   55   1.328   0.792   0.199
    8SOL    MW4   56   1.312   0.822   0.279
    9SOL     OW   57   0.166   0.552   0.486
    9SOL    HW2   58   0.179   0.549   0.581
    9SOL    HW3   59   0.146   0.461   0.462
    9SOL    MW4   60   0.165   0.539   0.496
   10SOL     OW   61   0.416   0.913   0.476
   10SOL    HW2   62   0.438   0.886   0.565
   10SOL    HW3   63   0.397   0.831   0.430
   10SOL    MW4   64   0.416   0.898   0.482
   11SOL     OW   65   0.782   0.858   0.443
   11SOL    HW2   66   0.823   0.895   0.521
   11SOL    HW3   67   0.748   0.935   0.396
   11SOL    MW4   68   0.783   0.873   0.447
   12SOL     OW   69   0.624   1.042   0.308
   12SOL    HW2   70   0.594   1.056   0.219
   12SOL    HW3   71   0.545   1.018   0.357
   12SOL    MW4   72   0.610   1.041   0.303
   13SOL     OW   73   4.284   1.808   0.172
   13SOL    HW2   74   4.260   1.753   0.247
   13SOL    HW3   75   4.248   1.895   0.194
   13SOL    MW4   76   4.276   1.812   0.185
   14SOL     OW   77   4.213   1.628   0.400
   14SOL    HW2   78   4.153   1.695   0.432
   14SOL    HW3   79   4.295   1.643   0.448
   14SOL    MW4   80   4.216   1.639   0.411
   15SOL     OW   81   0.051   1.930   0.377
   15SOL    HW2   82   0.014   1.862   0.433
   15SOL    HW3   83   0.037   1.899   0.288
   15SOL    MW4   84   0.045   1.917   0.373
   16SOL     OW   85   0.157   2.495   0.334
   16SOL    HW2   86   0.106   2.477   0.255
   16SOL    HW3   87   0.248   2.491   0.306
   16SOL    MW4   88   0.162   2.492   0.320
   17SOL     OW   89   4.310   2.814   0.476
   17SOL    HW2   90   4.402   2.787   0.475
   17SOL    HW3   91   4.314   2.910   0.479
   17SOL    MW4   92   4.323   2.823   0.477
   18SOL     OW   93   4.284   3.411   0.438
   18SOL    HW2   94   4.223   3.343   0.468
   18SOL    HW3   95   4.356   3.362   0.399
   18SOL    MW4   96   4.285   3.395   0.437
   19SOL     OW   97   0.328   3.212   0.323
   19SOL    HW2   98   0.357   3.204   0.414
   19SOL    HW3   99   0.404   3.247   0.276
   19SOL    MW4  100   0.342   3.216   0.329
   20SOL     OW  101   0.844   3.411   0.387
   20SOL    HW2  102   0.892   3.457   0.317
   20SOL    HW3  103   0.818   3.480   0.448
   20SOL    MW4  104   0.847   3.426   0.386
   21SOL     OW  105   0.972   3.808   0.287
   21SOL    HW2  106   1.030   3.884   0.296
   21SOL    HW3  107   0.890   3.835   0.328
   21SOL    MW4  108   0.969   3.821   0.294
   22SOL     OW  109   3.815   3.350   0.431
   22SOL    HW2  110   3.817   3.439   0.468
   22SOL    HW3  111   3.905   3.334   0.403
   22SOL    MW4  112   3.827   3.360   0.432
   23SOL     OW  113   4.479   3.850   0.448
   23SOL    HW2  114   4.403   3.795   0.467
   23SOL    HW3  115   4.446   3.939   0.455
   23SOL    MW4  116   4.465   3.854   0.451
   24SOL     OW  117   0.203   4.545   0.507
   24SOL    HW2  118   0.251   4.623   0.480
   24SOL    HW3  119   0.199   4.490   0.429
   24SOL    MW4  120   0.208   4.548   0.493
   25SOL     OW  121   0.108   4.393   0.282
   25SOL    HW2  122   0.020   4.370   0.312
   25SOL    HW3  123   0.100   4.402   0.187
   25SOL    MW4  124   0.095   4.392   0.273
   26SOL     OW  125   4.335   4.323   0.397
   26SOL    HW2  126   4.310   4.244   0.445
   26SOL    HW3  127   4.254   4.374   0.391
   26SOL    MW4  128   4.321   4.319   0.403
   27SOL     OW  129   0.432   3.669   0.499
   27SOL    HW2  130   0.526   3.654   0.501
   27SOL    HW3  131   0.423   3.763   0.483
   27SOL    MW4  132   0.443   3.679   0.497
   28SOL     OW  133   0.737   0.008   0.357
   28SOL    HW2  134   0.830   0.006   0.378
   28SOL    HW3  135   0.727  -0.055   0.285
   28SOL    MW4  136   0.748  -0.001   0.350
   29SOL     OW  137   0.106   0.263   0.398
   29SOL    HW2  138   0.070   0.199   0.459
   29SOL    HW3  139   0.042   0.270   0.328
   29SOL    MW4  140   0.093   0.256   0.397
   30SOL     OW  141   4.378   0.566   0.482
   30SOL    HW2  142   4.473   0.565   0.479
   30SOL    HW3  143   4.354   0.656   0.463
   30SOL    MW4  144   4.387   0.577   0.479
   31SOL     OW  145   1.049   4.435   0.524
   31SOL    HW2  146   0.966   4.387   0.526
   31SOL    HW3  147   1.096   4.405   0.601
   31SOL    MW4  148   1.044   4.425   0.534
   32SOL     OW  149   1.062   0.803   0.358
   32SOL    HW2  150   0.968   0.813   0.374
   32SOL    HW3  151   1.087   0.727   0.411
   32SOL    MW4  152   1.053   0.794   0.367
   33SOL     OW  153   0.583   0.469   0.258
   33SOL    HW2  154   0.666   0.496   0.219
   33SOL    HW3  155   0.606   0.395   0.314
   33SOL    MW4  156   0.597   0.463   0.260
   34SOL     OW  157   0.180   1.083   0.496
   34SOL    HW2  158   0.101   1.029   0.496
   34SOL    HW3  159   0.252   1.021   0.485
   34SOL    MW4  160   0.179   1.068   0.495
   35SOL     OW  161   0.459   1.626   0.480
   35SOL    HW2  162   0.526   1.557   0.476
   35SOL    HW3  163   0.389   1.595   0.422
   35SOL    MW4  164   0.458   1.613   0.472
   36SOL     OW  165   0.205   1.625   0.337
   36SOL    HW2  166   0.162   1.539   0.338
   36SOL    HW3  167   0.173   1.667   0.257
   36SOL    MW4  168   0.195   1.619   0.326
   37SOL     OW  169   0.418   2.496   0.222
   37SOL    HW2  170   0.496   2.449   0.253
   37SOL    HW3  171   0.440   2.588   0.233
   37SOL    MW4  172   0.431   2.502   0.228
   38SOL     OW  173   0.072   2.732   0.489
   38SOL    HW2  174   0.086   2.654   0.435
   38SOL    HW3  175   0.135   2.796   0.456
   38SOL    MW4  176   0.083   2.730   0.477
   39SOL     OW  177   3.868   2.281   0.268
   39SOL    HW2  178   3.893   2.371   0.289
   39SOL    HW3  179   3.882   2.274   0.173
   39SOL    MW4  180   3.873   2.292   0.258
   40SOL     OW  181   0.589   2.540   0.526
   40SOL    HW2  182   0.563   2.462   0.477
   40SOL    HW3  183   0.679   2.557   0.497
   40SOL    MW4  184   0.598   2.532   0.516
   41SOL     OW  185   0.499   2.739   0.330
   41SOL    HW2  186   0.528   2.680   0.400
   41SOL    HW3  187   0.555   2.816   0.339
   41SOL    MW4  188   0.510   2.741   0.341
   42SOL     OW  189   4.342   3.085   0.482
   42SOL    HW2  190   4.259   3.131   0.491
   42SOL    HW3  191   4.404   3.137   0.533
   42SOL    MW4  192   4.340   3.098   0.490
   43SOL     OW  193   0.288   2.917   0.374
   43SOL    HW2  194   0.305   3.000   0.329
   43SOL    HW3  195   0.366   2.864   0.357
   43SOL    MW4  196   0.301   2.921   0.366
   44SOL     OW  197   0.802   4.452   0.208
   44SOL    HW2  198   0.784   4.429   0.117
   44SOL    HW3  199   0.895   4.434   0.219
   44SOL    MW4  200   0.812   4.446   0.197
   45SOL     OW  201   0.105   3.350   0.414
   45SOL    HW2  202   0.125   3.443   0.423
   45SOL    HW3  203   0.175   3.315   0.360
   45SOL    MW4  204   0.117   3.357   0.408
   46SOL     OW  205   0.722   3.623   0.529
   46SOL    HW2  206   0.714   3.712   0.494
   46SOL    HW3  207   0.704   3.632   0.622
   46SOL    MW4  208   0.718   3.636   0.537
   47SOL     OW  209   1.156   3.639   0.447
   47SOL    HW2  210   1.071   3.672   0.417
   47SOL    HW3  211   1.173   3.563   0.391
   47SOL    MW4  212   1.147   3.633   0.436
   48SOL     OW  213   0.450   3.956   0.441
   48SOL    HW2  214   0.436   3.994   0.527
   48SOL    HW3  215   0.367   3.968   0.395
   48SOL    MW4  216   0.437   3.962   0.446
   49SOL     OW  217   0.987   3.567   0.198
   49SOL    HW2  218   0.954   3.557   0.108
   49SOL    HW3  219   0.980   3.661   0.215
   49SOL    MW4  220   0.982   3.578   0.188
   50SOL     OW  221   0.746   4.395   0.504
   50SOL    HW2  222   0.712   4.462   0.445
   50SOL    HW3  223   0.725   4.427   0.591
   50SOL    MW4  224   0.739   4.408   0.508
   51SOL     OW  225   0.613   0.237   0.450
   51SOL    HW2  226   0.665   0.165   0.415
   51SOL    HW3  227   0.662   0.266   0.527
   51SOL    MW4  228   0.627   0.232   0.456
   52SOL     OW  229   0.681   0.602   0.514
   52SOL    HW2  230   0.717   0.688   0.495
   52SOL    HW3  231   0.628   0.580   0.437
   52SOL    MW4  232   0.679   0.610   0.501
   53SOL     OW  233   0.363   0.665   0.328
   53SOL    HW2  234   0.289   0.635   0.381
   53SOL    HW3  235   0.420   0.588   0.321
   53SOL    MW4  236   0.361   0.651   0.334
   54SOL     OW  237   1.378   0.555   0.329
   54SOL    HW2  238   1.365   0.650   0.329
   54SOL    HW3  239   1.469   0.543   0.358
   54SOL    MW4  240   1.389   0.566   0.333
   55SOL     OW  241   1.799   0.693   0.263
   55SOL    HW2  242   1.782   0.787   0.271
   55SOL    HW3  243   1.735   0.653   0.323
   55SOL    MW4  244   1.788   0.700   0.272
   56SOL     OW  245   1.487   0.972   0.458
   56SOL    HW2  246   1.427   0.935   0.393
   56SOL    HW3  247   1.445   0.955   0.542
   56SOL    MW4  248   1.474   0.965   0.460
   57SOL     OW  249   0.678   1.451   0.522
   57SOL    HW2  250   0.694   1.362   0.489
   57SOL    HW3  251   0.766   1.488   0.532
   57SOL    MW4  252   0.692   1.444   0.519
   58SOL     OW  253   0.781   1.202   0.487
   58SOL    HW2  254   0.745   1.160   0.409
   58SOL    HW3  255   0.869   1.230   0.461
   58SOL    MW4  256   0.788   1.200   0.473
   59SOL     OW  257   1.737   1.395   0.446
   59SOL    HW2  258   1.776   1.482   0.440
   59SOL    HW3  259   1.812   1.335   0.446
   59SOL    MW4  260   1.752   1.398   0.445
   60SOL     OW  261   1.036   1.368   0.480
   60SOL    HW2  262   1.124   1.377   0.445
   60SOL    HW3  263   1.005   1.459   0.489
   60SOL    MW4  264   1.043   1.381   0.476
   61SOL     OW  265   0.928   1.619   0.533
   61SOL    HW2  266   1.016   1.654   0.518
   61SOL    HW3  267   0.916   1.625   0.628
   61SOL    MW4  268   0.938   1.625   0.544
   62SOL     OW  269   0.315   1.900   0.430
   62SOL    HW2  270   0.223   1.905   0.406
   62SOL    HW3  271   0.331   1.806   0.443
   62SOL    MW4  272   0.305   1.888   0.428
   63SOL     OW  273   0.700   1.790   0.465
   63SOL    HW2  274   0.769   1.728   0.486
   63SOL    HW3  275   0.620   1.737   0.465
   63SOL    MW4  276   0.698   1.774   0.468
   64SOL     OW  277   0.856   2.546   0.468
   64SOL    HW2  278   0.863   2.460   0.428
   64SOL    HW3  279   0.893   2.535   0.555
   64SOL    MW4  280   0.862   2.533   0.474
   65SOL     OW  281   0.565   2.041   0.464
   65SOL    HW2  282   0.620   1.966   0.440
   65SOL    HW3  283   0.477   2.015   0.439
   65SOL    MW4  284   0.561   2.028   0.457
   66SOL     OW  285   1.096   2.685   0.417
   66SOL    HW2  286   1.023   2.624   0.410
   66SOL    HW3  287   1.058   2.771   0.399
   66SOL    MW4  288   1.081   2.688   0.414
   67SOL     OW  289   0.608   2.314   0.346
   67SOL    HW2  290   0.694   2.301   0.306
   67SOL    HW3  291   0.581   2.225   0.372
   67SOL    MW4  292   0.616   2.300   0.344
   68SOL     OW  293   0.695   2.937   0.454
   68SOL    HW2  294   0.731   2.915   0.540
   68SOL    HW3  295   0.674   3.030   0.460
   68SOL    MW4  296   0.697   2.946   0.466
   69SOL     OW  297   1.014   3.236   0.479
   69SOL    HW2  298   0.989   3.217   0.569
   69SOL    HW3  299   0.948   3.298   0.448
   69SOL    MW4  300   1.002   3.242   0.486
   70SOL     OW  301   1.395   3.779   0.506
   70SOL    HW2  302   1.465   3.717   0.486
   70SOL    HW3  303   1.316   3.737   0.472
   70SOL    MW4  304   1.394   3.765   0.499
   71SOL     OW  305   1.079   4.063   0.381
   71SOL    HW2  306   1.097   4.138   0.323
   71SOL    HW3  307   1.000   4.088   0.428
   71SOL    MW4  308   1.071   4.077   0.379
   72SOL     OW  309   0.711   3.890   0.411
   72SOL    HW2  310   0.767   3.958   0.448
   72SOL    HW3  311   0.622   3.924   0.420
   72SOL    MW4  312   0.706   3.903   0.417
   73SOL     OW  313   1.088   4.422   0.261
   73SOL    HW2  314   1.169   4.448   0.217
   73SOL    HW3  315   1.108   4.426   0.354
   73SOL    MW4  316   1.101   4.426   0.267
   74SOL     OW  317   1.145   0.505   0.461
   74SOL    HW2  318   1.139   0.409   0.468
   74SOL    HW3  319   1.229   0.520   0.417
   74SOL    MW4  320   1.156   0.494   0.456
   75SOL     OW  321   0.982   0.037   0.485
   75SOL    HW2  322   1.020  -0.051   0.490
   75SOL    HW3  323   0.947   0.053   0.572
   75SOL    MW4  324   0.983   0.028   0.497
   76SOL     OW  325   1.449   0.272   0.283
   76SOL    HW2  326   1.544   0.282   0.293
   76SOL    HW3  327   1.418   0.362   0.268
   76SOL    MW4  328   1.458   0.285   0.283
   77SOL     OW  329   1.635   0.537   0.443
   77SOL    HW2  330   1.678   0.456   0.416
   77SOL    HW3  331   1.623   0.528   0.537
   77SOL    MW4  332   1.639   0.525   0.452
   78SOL     OW  333   1.178   0.226   0.482
   78SOL    HW2  334   1.106   0.163   0.478
   78SOL    HW3  335   1.238   0.199   0.413
   78SOL    MW4  336   1.177   0.214   0.473
   79SOL     OW  337   1.969   0.469   0.244
   79SOL    HW2  338   2.014   0.437   0.165
   79SOL    HW3  339   1.920   0.546   0.214
   79SOL    MW4  340   1.969   0.475   0.229
   80SOL     OW  341   2.214   0.802   0.477
   80SOL    HW2  342   2.178   0.713   0.471
   80SOL    HW3  343   2.298   0.797   0.432
   80SOL    MW4  344   2.220   0.789   0.470
   81SOL     OW  345   1.761   0.950   0.439
   81SOL    HW2  346   1.784   0.904   0.520
   81SOL    HW3  347   1.665   0.949   0.438
   81SOL    MW4  348   1.751   0.944   0.450
   82SOL     OW  349   1.483   1.269   0.461
   82SOL    HW2  350   1.474   1.173   0.464
   82SOL    HW3  351   1.570   1.283   0.425
   82SOL    MW4  352   1.493   1.258   0.457
   83SOL     OW  353   1.304   1.462   0.361
   83SOL    HW2  354   1.374   1.411   0.401
   83SOL    HW3  355   1.303   1.433   0.270
   83SOL    MW4  356   1.313   1.451   0.354
   84SOL     OW  357   1.200   1.694   0.486
   84SOL    HW2  358   1.248   1.659   0.561
   84SOL    HW3  359   1.221   1.634   0.414
   84SOL    MW4  360   1.209   1.681   0.486
   85SOL     OW  361   1.151   2.178   0.286
   85SOL    HW2  362   1.225   2.233   0.312
   85SOL    HW3  363   1.174   2.090   0.317
   85SOL    MW4  364   1.164   2.173   0.293
   86SOL     OW  365   1.340   2.548   0.466
   86SOL    HW2  366   1.258   2.596   0.452
   86SOL    HW3  367   1.408   2.615   0.461
   86SOL    MW4  368   1.338   2.563   0.463
   87SOL     OW  369   1.950   2.149   0.450
   87SOL    HW2  370   1.960   2.114   0.538
   87SOL    HW3  371   2.007   2.094   0.396
   87SOL    MW4  372   1.959   2.137   0.455
   88SOL     OW  373   1.517   2.044   0.487
   88SOL    HW2  374   1.511   2.130   0.444
   88SOL    HW3  375   1.430   2.005   0.474
   88SOL    MW4  376   1.504   2.050   0.480
   89SOL     OW  377   0.898   2.280   0.359
   89SOL    HW2  378   0.905   2.226   0.439
   89SOL    HW3  379   0.982   2.268   0.315
   89SOL    MW4  380   0.910   2.271   0.364
   90SOL     OW  381   1.007   2.961   0.405
   90SOL    HW2  382   0.921   2.946   0.366
   90SOL    HW3  383   1.006   3.053   0.431
   90SOL    MW4  384   0.996   2.971   0.403
   91SOL     OW  385   2.107   2.419   0.433
   91SOL    HW2  386   2.199   2.405   0.453
   91SOL    HW3  387   2.067   2.332   0.439
   91SOL    MW4  388   2.114   2.406   0.437
   92SOL     OW  389   1.720   4.107   0.510
   92SOL    HW2  390   1.656   4.160   0.463
   92SOL    HW3  391   1.710   4.019   0.473
   92SOL    MW4  392   1.710   4.102   0.499
   93SOL     OW  393   1.350   4.038   0.434
   93SOL    HW2  394   1.368   3.950   0.467
   93SOL    HW3  395   1.257   4.037   0.412
   93SOL    MW4  396   1.340   4.026   0.436
   94SOL     OW  397   1.748   2.837   0.347
   94SOL    HW2  398   1.661   2.804   0.368
   94SOL    HW3  399   1.808   2.778   0.394
   94SOL    MW4  400   1.745   2.825   0.356
   95SOL     OW  401   1.678   3.620   0.256
   95SOL    HW2  402   1.763   3.578   0.243
   95SOL    HW3  403   1.621   3.550   0.286
   95SOL    MW4  404   1.682   3.605   0.258
   96SOL     OW  405   1.294   3.251   0.476
   96SOL    HW2  406   1.315   3.164   0.444
   96SOL    HW3  407   1.199   3.258   0.468
   96SOL    MW4  408   1.284   3.241   0.470
   97SOL     OW  409   1.583   3.392   0.440
   97SOL    HW2  410   1.504   3.371   0.488
   97SOL    HW3  411   1.616   3.307   0.409
   97SOL    MW4  412   1.577   3.378   0.442
   98SOL     OW  413   0.846   4.128   0.489
   98SOL    HW2  414   0.831   4.096   0.578
   98SOL    HW3  415   0.797   4.210   0.485
   98SOL    MW4  416   0.837   4.135   0.500
   99SOL     OW  417   2.274   0.001   0.605
   99SOL    HW2  418   2.242  -0.085   0.578
   99SOL    HW3  419   2.370  -0.005   0.597
   99SOL    MW4  420   2.283  -0.011   0.600
  100SOL     OW  421   1.840   4.515   0.398
  100SOL    HW2  422   1.748   4.492   0.409
  100SOL    HW3  423   1.884   4.431   0.382
  100SOL    MW4  424   1.834   4.501   0.398
  101SOL     OW  425   1.888   0.112   0.465
  101SOL    HW2  426   1.860   0.119   0.556
  101SOL    HW3  427   1.871   0.021   0.441
  101SOL    MW4  428   1.882   0.101   0.474
  102SOL     OW  429   1.398   0.015   0.351
  102SOL    HW2  430   1.423   0.102   0.322
  102SOL    HW3  431   1.468  -0.012   0.411
  102SOL    MW4  432   1.410   0.023   0.355
  103SOL     OW  433   2.149   0.458   0.451
  103SOL    HW2  434   2.135   0.365   0.474
  103SOL    HW3  435   2.109   0.467   0.365
  103SOL    MW4  436   2.142   0.447   0.443
  104SOL     OW  437   2.382   1.531   0.435
  104SOL    HW2  438   2.325   1.475   0.488
  104SOL    HW3  439   2.326   1.604   0.408
  104SOL    MW4  440   2.367   1.533   0.439
  105SOL     OW  441   2.182   1.082   0.447
  105SOL    HW2  442   2.275   1.097   0.466
  105SOL    HW3  443   2.172   0.987   0.447
  105SOL    MW4  444   2.193   1.071   0.450
  106SOL     OW  445   1.918   1.169   0.487
  106SOL    HW2  446   1.865   1.091   0.472
  106SOL    HW3  447   2.005   1.146   0.455
  106SOL    MW4  448   1.923   1.156   0.481
  107SOL     OW  449   2.598   1.349   0.364
  107SOL    HW2  450   2.675   1.403   0.345
  107SOL    HW3  451   2.530   1.412   0.389
  107SOL    MW4  452   2.599   1.365   0.365
  108SOL     OW  453   2.160   1.719   0.471
  108SOL    HW2  454   2.164   1.811   0.446
  108SOL    HW3  455   2.067   1.701   0.483
  108SOL    MW4  456   2.149   1.729   0.470
  109SOL     OW  457   1.773   1.930   0.412
  109SOL    HW2  458   1.811   2.017   0.402
  109SOL    HW3  459   1.680   1.945   0.425
  109SOL    MW4  460   1.766   1.943   0.412
  110SOL     OW  461   2.373   2.406   0.534
  110SOL    HW2  462   2.450   2.462   0.525
  110SOL    HW3  463   2.328   2.441   0.612
  110SOL    MW4  464   2.377   2.418   0.543
  111SOL     OW  465   1.914   3.262   0.484
  111SOL    HW2  466   1.976   3.194   0.460
  111SOL    HW3  467   1.929   3.331   0.419
  111SOL    MW4  468   1.924   3.262   0.472
  112SOL     OW  469   1.495   2.771   0.443
  112SOL    HW2  470   1.444   2.851   0.433
  112SOL    HW3  471   1.535   2.779   0.530
  112SOL    MW4  472   1.494   2.783   0.453
  113SOL     OW  473   1.318   2.993   0.370
  113SOL    HW2  474   1.363   3.010   0.287
  113SOL    HW3  475   1.227   2.976   0.343
  113SOL    MW4  476   1.312   2.993   0.355
  114SOL     OW  477   1.245   1.977   0.479
  114SOL    HW2  478   1.191   1.987   0.557
  114SOL    HW3  479   1.245   1.883   0.462
  114SOL    MW4  480   1.238   1.966   0.487
  115SOL     OW  481   3.601   2.339   0.388
  115SOL    HW2  482   3.662   2.301   0.325
  115SOL    HW3  483   3.595   2.274   0.458
  115SOL    MW4  484   3.608   2.325   0.389
  116SOL     OW  485   1.923   2.661   0.473
  116SOL    HW2  486   1.956   2.712   0.546
  116SOL    HW3  487   1.992   2.596   0.457
  116SOL    MW4  488   1.937   2.659   0.480
  117SOL     OW  489   1.513   2.305   0.402
  117SOL    HW2  490   1.607   2.325   0.409
  117SOL    HW3  491   1.470   2.388   0.420
  117SOL    MW4  492   1.520   2.319   0.406
  118SOL     OW  493   1.673   3.113   0.414
  118SOL    HW2  494   1.699   3.025   0.387
  118SOL    HW3  495   1.753   3.153   0.449
  118SOL    MW4  496   1.687   3.107   0.415
  119SOL     OW  497   2.273   3.191   0.479
  119SOL    HW2  498   2.206   3.124   0.467
  119SOL    HW3  499   2.255   3.227   0.566
  119SOL    MW4  500   2.262   3.187   0.489
  120SOL     OW  501   1.788   3.836   0.420
  120SOL    HW2  502   1.756   3.789   0.343
  120SOL    HW3  503   1.883   3.821   0.420
  120SOL    MW4  504   1.796   3.828   0.410
  121SOL     OW  505   1.508   4.249   0.352
  121SOL    HW2  506   1.464   4.177   0.397
  121SOL    HW3  507   1.442   4.284   0.292
  121SOL    MW4  508   1.494   4.244   0.350
  122SOL     OW  509   1.580   4.497   0.469
  122SOL    HW2  510   1.588   4.475   0.562
  122SOL    HW3  511   1.559   4.413   0.427
  122SOL    MW4  512   1.578   4.483   0.476
  123SOL     OW  513   1.351   4.471   0.188
  123SOL    HW2  514   1.370   4.533   0.258
  123SOL    HW3  515   1.369   4.520   0.107
  123SOL    MW4  516   1.356   4.486   0.186
  124SOL     OW  517   2.419   0.193   0.351
  124SOL    HW2  518   2.453   0.136   0.420
  124SOL    HW3  519   2.324   0.190   0.361
  124SOL    MW4  520   2.411   0.185   0.361
  125SOL     OW  521   2.151   0.178   0.458
  125SOL    HW2  522   2.175   0.107   0.518
  125SOL    HW3  523   2.056   0.169   0.448
  125SOL    MW4  524   2.142   0.167   0.464
  126SOL     OW  525   2.690   0.929   0.499
  126SOL    HW2  526   2.639   0.855   0.465
  126SOL    HW3  527   2.772   0.927   0.451
  126SOL    MW4  528   2.694   0.919   0.488
  127SOL     OW  529   2.477   0.746   0.390
  127SOL    HW2  530   2.468   0.652   0.409
  127SOL    HW3  531   2.522   0.748   0.305
  127SOL    MW4  532   2.482   0.734   0.381
  128SOL     OW  533   2.905   0.897   0.131
  128SOL    HW2  534   2.915   0.933   0.219
  128SOL    HW3  535   2.982   0.842   0.118
  128SOL    MW4  536   2.916   0.894   0.141
  129SOL     OW  537   2.946   1.000   0.397
  129SOL    HW2  538   3.017   0.981   0.458
  129SOL    HW3  539   2.914   1.086   0.423
  129SOL    MW4  540   2.951   1.009   0.408
  130SOL     OW  541   2.960   1.247   0.503
  130SOL    HW2  542   2.934   1.336   0.479
  130SOL    HW3  543   2.926   1.235   0.592
  130SOL    MW4  544   2.952   1.257   0.511
  131SOL     OW  545   2.732   1.664   0.429
  131SOL    HW2  546   2.717   1.696   0.518
  131SOL    HW3  547   2.694   1.732   0.373
  131SOL    MW4  548   2.725   1.677   0.433
  132SOL     OW  549   2.809   0.674   0.366
  132SOL    HW2  550   2.892   0.714   0.341
  132SOL    HW3  551   2.750   0.692   0.293
  132SOL    MW4  552   2.812   0.681   0.353
  133SOL     OW  553   2.212   2.003   0.336
  133SOL    HW2  554   2.287   2.045   0.378
  133SOL    HW3  555   2.234   1.999   0.244
  133SOL    MW4  556   2.225   2.008   0.330
  134SOL     OW  557   1.890   1.675   0.481
  134SOL    HW2  558   1.850   1.675   0.568
  134SOL    HW3  559   1.870   1.762   0.446
  134SOL    MW4  560   1.882   1.687   0.488
  135SOL     OW  561   2.425   2.138   0.475
  135SOL    HW2  562   2.405   2.228   0.501
  135SOL    HW3  563   2.520   2.138   0.458
  135SOL    MW4  564   2.435   2.150   0.476
  136SOL     OW  565   2.706   2.165   0.441
  136SOL    HW2  566   2.737   2.252   0.413
  136SOL    HW3  567   2.774   2.134   0.500
  136SOL    MW4  568   2.719   2.173   0.445
  137SOL     OW  569   2.577   2.793   0.462
  137SOL    HW2  570   2.577   2.864   0.398
  137SOL    HW3  571   2.526   2.826   0.536
  137SOL    MW4  572   2.571   2.807   0.463
  138SOL     OW  573   1.769   2.407   0.441
  138SOL    HW2  574   1.837   2.341   0.428
  138SOL    HW3  575   1.807   2.488   0.408
  138SOL    MW4  576   1.783   2.409   0.435
  139SOL     OW  577   2.050   3.014   0.468
  139SOL    HW2  578   2.034   2.964   0.548
  139SOL    HW3  579   2.000   2.968   0.400
  139SOL    MW4  580   2.041   3.001   0.469
  140SOL     OW  581   2.034   3.702   0.485
  140SOL    HW2  582   2.129   3.711   0.477
  140SOL    HW3  583   2.019   3.680   0.577
  140SOL    MW4  584   2.044   3.700   0.496
  141SOL     OW  585   2.188   4.063   0.445
  141SOL    HW2  586   2.199   3.995   0.379
  141SOL    HW3  587   2.264   4.120   0.433
  141SOL    MW4  588   2.200   4.062   0.435
  142SOL     OW  589   1.628   3.631   0.564
  142SOL    HW2  590   1.635   3.538   0.541
  142SOL    HW3  591   1.705   3.671   0.525
  142SOL    MW4  592   1.639   3.624   0.556
  143SOL     OW  593   1.921   3.494   0.315
  143SOL    HW2  594   1.990   3.471   0.253
  143SOL    HW3  595   1.957   3.568   0.364
  143SOL    MW4  596   1.935   3.501   0.314
  144SOL     OW  597   2.098   4.472   0.519
  144SOL    HW2  598   2.085   4.378   0.514
  144SOL    HW3  599   2.019   4.510   0.481
  144SOL    MW4  600   2.086   4.465   0.513
  145SOL     OW  601   1.976   4.232   0.451
  145SOL    HW2  602   1.902   4.173   0.464
  145SOL    HW3  603   2.051   4.174   0.436
  145SOL    MW4  604   1.976   4.217   0.450
  146SOL     OW  605   2.400   4.266   0.427
  146SOL    HW2  606   2.405   4.303   0.515
  146SOL    HW3  607   2.443   4.332   0.372
  146SOL    MW4  608   2.407   4.280   0.431
  147SOL     OW  609   2.329   3.898   0.261
  147SOL    HW2  610   2.300   3.866   0.176
  147SOL    HW3  611   2.310   3.826   0.321
  147SOL    MW4  612   2.323   3.884   0.258
  148SOL     OW  613   2.773   3.919   0.507
  148SOL    HW2  614   2.692   3.948   0.465
  148SOL    HW3  615   2.835   3.990   0.490
  148SOL    MW4  616   2.770   3.932   0.499
  149SOL     OW  617   2.443   0.470   0.445
  149SOL    HW2  618   2.348   0.474   0.435
  149SOL    HW3  619   2.466   0.382   0.415
  149SOL    MW4  620   2.434   0.459   0.440
  150SOL     OW  621   1.740   0.305   0.341
  150SOL    HW2  622   1.811   0.356   0.302
  150SOL    HW3  623   1.784   0.231   0.384
  150SOL    MW4  624   1.755   0.302   0.341
  151SOL     OW  625   3.138   0.373   0.376
  151SOL    HW2  626   3.229   0.402   0.372
  151SOL    HW3  627   3.143   0.279   0.391
  151SOL    MW4  628   3.150   0.365   0.377
  152SOL     OW  629   2.467   1.115   0.474
  152SOL    HW2  630   2.514   1.180   0.422
  152SOL    HW3  631   2.526   1.040   0.480
  152SOL    MW4  632   2.481   1.114   0.468
  153SOL     OW  633   3.261   0.784   0.429
  153SOL    HW2  634   3.336   0.841   0.414
  153SOL    HW3  635   3.219   0.819   0.507
  153SOL    MW4  636   3.266   0.796   0.437
  154SOL     OW  637   3.198   1.614   0.475
  154SOL    HW2  638   3.212   1.519   0.478
  154SOL    HW3  639   3.283   1.650   0.448
  154SOL    MW4  640   3.211   1.606   0.471
  155SOL     OW  641   3.195   1.192   0.366
  155SOL    HW2  642   3.158   1.161   0.284
  155SOL    HW3  643   3.119   1.213   0.421
  155SOL    MW4  644   3.180   1.191   0.362
  156SOL     OW  645   3.430   1.770   0.426
  156SOL    HW2  646   3.399   1.846   0.376
  156SOL    HW3  647   3.512   1.799   0.467
  156SOL    MW4  648   3.437   1.784   0.425
  157SOL     OW  649   2.763   0.195   0.617
  157SOL    HW2  650   2.756   0.258   0.688
  157SOL    HW3  651   2.801   0.244   0.545
  157SOL    MW4  652   2.767   0.209   0.617
  158SOL     OW  653   3.165   2.071   0.619
  158SOL    HW2  654   3.070   2.084   0.618
  158SOL    HW3  655   3.179   2.000   0.681
  158SOL    MW4  656   3.154   2.064   0.627
  159SOL     OW  657   2.825   2.416   0.303
  159SOL    HW2  658   2.852   2.399   0.212
  159SOL    HW3  659   2.908   2.418   0.351
  159SOL    MW4  660   2.840   2.414   0.297
  160SOL     OW  661   2.947   1.496   0.379
  160SOL    HW2  662   2.866   1.545   0.393
  160SOL    HW3  663   3.016   1.553   0.414
  160SOL    MW4  664   2.946   1.510   0.386
  161SOL     OW  665   2.620   2.521   0.471
  161SOL    HW2  666   2.598   2.612   0.451
  161SOL    HW3  667   2.682   2.496   0.403
  161SOL    MW4  668   2.625   2.530   0.460
  162SOL     OW  669   2.736   3.193   0.572
  162SOL    HW2  670   2.786   3.262   0.529
  162SOL    HW3  671   2.741   3.213   0.665
  162SOL    MW4  672   2.743   3.204   0.578
  163SOL     OW  673   2.856   3.393   0.422
  163SOL    HW2  674   2.946   3.361   0.422
  163SOL    HW3  675   2.864   3.488   0.434
  163SOL    MW4  676   2.869   3.401   0.424
  164SOL     OW  677   3.095   3.249   0.482
  164SOL    HW2  678   3.109   3.155   0.470
  164SOL    HW3  679   3.095   3.262   0.577
  164SOL    MW4  680   3.097   3.239   0.493
  165SOL     OW  681   2.355   3.461   0.360
  165SOL    HW2  682   2.446   3.451   0.334
  165SOL    HW3  683   2.341   3.394   0.427
  165SOL    MW4  684   2.365   3.451   0.365
  166SOL     OW  685   2.164   3.460   0.116
  166SOL    HW2  686   2.232   3.478   0.180
  166SOL    HW3  687   2.210   3.422   0.041
  166SOL    MW4  688   2.179   3.458   0.114
  167SOL     OW  689   3.626   3.473   0.241
  167SOL    HW2  690   3.668   3.416   0.305
  167SOL    HW3  691   3.532   3.456   0.251
  167SOL    MW4  692   3.619   3.463   0.251
  168SOL     OW  693   2.567   4.031   0.352
  168SOL    HW2  694   2.535   4.121   0.359
  168SOL    HW3  695   2.499   3.986   0.301
  168SOL    MW4  696   2.554   4.037   0.346
  169SOL     OW  697   2.304   3.705   0.463
  169SOL    HW2  698   2.334   3.694   0.553
  169SOL    HW3  699   2.335   3.626   0.418
  169SOL    MW4  700   2.312   3.693   0.469
  170SOL     OW  701   3.615   3.995   0.456
  170SOL    HW2  702   3.541   4.048   0.427
  170SOL    HW3  703   3.597   3.907   0.422
  170SOL    MW4  704   3.603   3.990   0.447
  171SOL     OW  705   2.937   4.391   0.416
  171SOL    HW2  706   2.915   4.414   0.506
  171SOL    HW3  707   2.900   4.304   0.404
  171SOL    MW4  708   2.929   4.382   0.427
  172SOL     OW  709   3.394   4.408   0.464
  172SOL    HW2  710   3.461   4.464   0.424
  172SOL    HW3  711   3.311   4.442   0.430
  172SOL    MW4  712   3.392   4.420   0.454
  173SOL     OW  713   3.161   4.522   0.339
  173SOL    HW2  714   3.080   4.479   0.365
  173SOL    HW3  715   3.155   4.529   0.244
  173SOL    MW4  716   3.150   4.517   0.330
  174SOL     OW  717   2.901   4.124   0.329
  174SOL    HW2  718   2.841   4.085   0.265
  174SOL    HW3  719   2.988   4.098   0.299
  174SOL    MW4  720   2.905   4.115   0.316
  175SOL     OW  721   2.636   0.798   0.160
  175SOL    HW2  722   2.593   0.800   0.075
  175SOL    HW3  723   2.710   0.858   0.151
  175SOL    MW4  724   2.640   0.806   0.148
  176SOL     OW  725   3.370   0.538   0.407
  176SOL    HW2  726   3.460   0.549   0.376
  176SOL    HW3  727   3.335   0.626   0.411
  176SOL    MW4  728   3.378   0.551   0.403
  177SOL     OW  729   2.893   0.430   0.499
  177SOL    HW2  730   2.854   0.495   0.441
  177SOL    HW3  731   2.979   0.412   0.462
  177SOL    MW4  732   2.899   0.437   0.486
  178SOL     OW  733   3.626   0.476   0.334
  178SOL    HW2  734   3.696   0.497   0.395
  178SOL    HW3  735   3.671   0.457   0.251
  178SOL    MW4  736   3.641   0.476   0.331
  179SOL     OW  737   3.080   0.698   0.229
  179SOL    HW2  738   3.155   0.729   0.281
  179SOL    HW3  739   3.073   0.605   0.250
  179SOL    MW4  740   3.089   0.690   0.239
  180SOL     OW  741   3.672   1.870   0.534
  180SOL    HW2  742   3.660   1.830   0.620
  180SOL    HW3  743   3.624   1.953   0.539
  180SOL    MW4  744   3.664   1.876   0.546
  181SOL     OW  745   3.318   2.062   0.393
  181SOL    HW2  746   3.264   2.045   0.470
  181SOL    HW3  747   3.294   2.150   0.366
  181SOL    MW4  748   3.308   2.071   0.399
  182SOL     OW  749   3.461   0.993   0.406
  182SOL    HW2  750   3.407   1.069   0.384
  182SOL    HW3  751   3.470   0.997   0.501
  182SOL    MW4  752   3.455   1.004   0.416
  183SOL     OW  753   3.546   2.110   0.541
  183SOL    HW2  754   3.466   2.100   0.489
  183SOL    HW3  755   3.517   2.102   0.632
  183SOL    MW4  756   3.531   2.108   0.546
  184SOL     OW  757   3.278   2.321   0.664
  184SOL    HW2  758   3.235   2.236   0.652
  184SOL    HW3  759   3.325   2.312   0.747
  184SOL    MW4  760   3.279   2.308   0.674
  185SOL     OW  761   3.573   2.739   0.600
  185SOL    HW2  762   3.596   2.753   0.692
  185SOL    HW3  763   3.622   2.660   0.576
  185SOL    MW4  764   3.583   2.731   0.609
  186SOL     OW  765   2.530   3.082   0.413
  186SOL    HW2  766   2.452   3.131   0.438
  186SOL    HW3  767   2.595   3.105   0.480
  186SOL    MW4  768   2.528   3.091   0.425
  187SOL     OW  769   3.138   2.752   0.277
  187SOL    HW2  770   3.125   2.663   0.312
  187SOL    HW3  771   3.143   2.739   0.182
  187SOL    MW4  772   3.137   2.738   0.269
  188SOL     OW  773   2.928   2.855   0.836
  188SOL    HW2  774   2.928   2.861   0.740
  188SOL    HW3  775   3.012   2.814   0.857
  188SOL    MW4  776   2.939   2.851   0.826
  189SOL     OW  777   3.210   0.105   0.456
  189SOL    HW2  778   3.191   0.089   0.548
  189SOL    HW3  779   3.185   0.024   0.412
  189SOL    MW4  780   3.204   0.092   0.462
  190SOL     OW  781   3.168   3.806   0.442
  190SOL    HW2  782   3.230   3.738   0.468
  190SOL    HW3  783   3.158   3.861   0.519
  190SOL    MW4  784   3.175   3.805   0.455
  191SOL     OW  785   3.586   3.713   0.406
  191SOL    HW2  786   3.597   3.664   0.324
  191SOL    HW3  787   3.504   3.680   0.443
  191SOL    MW4  788   3.577   3.702   0.400
  192SOL     OW  789   3.575   3.244   0.455
  192SOL    HW2  790   3.664   3.278   0.445
  192SOL    HW3  791   3.582   3.150   0.439
  192SOL    MW4  792   3.587   3.236   0.451
  193SOL     OW  793   3.348   3.374   0.376
  193SOL    HW2  794   3.271   3.318   0.388
  193SOL    HW3  795   3.419   3.327   0.418
  193SOL    MW4  796   3.347   3.361   0.383
  194SOL     OW  797   3.154   4.035   0.227
  194SOL    HW2  798   3.152   3.958   0.284
  194SOL    HW3  799   3.176   4.001   0.140
  194SOL    MW4  800   3.157   4.020   0.223
  195SOL     OW  801   2.601   3.343   0.297
  195SOL    HW2  802   2.697   3.345   0.297
  195SOL    HW3  803   2.579   3.253   0.320
  195SOL    MW4  804   2.611   3.332   0.300
  196SOL     OW  805   4.220   0.086   0.423
  196SOL    HW2  806   4.306   0.067   0.459
  196SOL    HW3  807   4.169   0.006   0.437
  196SOL    MW4  808   4.225   0.073   0.429
  197SOL     OW  809   3.734   0.168   0.364
  197SOL    HW2  810   3.665   0.202   0.421
  197SOL    HW3  811   3.815   0.189   0.411
  197SOL    MW4  812   3.736   0.176   0.378
  198SOL     OW  813   3.514   0.260   0.492
  198SOL    HW2  814   3.425   0.225   0.486
  198SOL    HW3  815   3.510   0.345   0.448
  198SOL    MW4  816   3.502   0.267   0.485
  199SOL     OW  817   3.858   0.583   0.506
  199SOL    HW2  818   3.848   0.570   0.600
  199SOL    HW3  819   3.927   0.522   0.481
  199SOL    MW4  820   3.865   0.573   0.515
  200SOL     OW  821   4.009   0.425   0.301
  200SOL    HW2  822   4.098   0.405   0.273
  200SOL    HW3  823   3.953   0.389   0.232
  200SOL    MW4  824   4.013   0.417   0.289
  201SOL     OW  825   4.227   0.822   0.434
  201SOL    HW2  826   4.143   0.819   0.480
  201SOL    HW3  827   4.204   0.807   0.342
  201SOL    MW4  828   4.213   0.819   0.428
  202SOL     OW  829   3.757   1.032   0.449
  202SOL    HW2  830   3.757   1.127   0.462
  202SOL    HW3  831   3.665   1.010   0.437
  202SOL    MW4  832   3.745   1.042   0.449
  203SOL     OW  833   4.091   1.387   0.364
  203SOL    HW2  834   4.067   1.403   0.273
  203SOL    HW3  835   4.125   1.471   0.395
  203SOL    MW4  836   4.092   1.401   0.356
  204SOL     OW  837   3.820   1.313   0.466
  204SOL    HW2  838   3.909   1.343   0.448
  204SOL    HW3  839   3.766   1.391   0.454
  204SOL    MW4  840   3.825   1.328   0.462
  205SOL     OW  841   3.371   1.394   0.484
  205SOL    HW2  842   3.381   1.369   0.576
  205SOL    HW3  843   3.328   1.319   0.443
  205SOL    MW4  844   3.367   1.381   0.491
  206SOL     OW  845   3.670   1.568   0.494
  206SOL    HW2  846   3.579   1.548   0.473
  206SOL    HW3  847   3.676   1.663   0.487
  206SOL    MW4  848   3.659   1.578   0.490
  207SOL     OW  849   3.731   2.521   0.539
  207SOL    HW2  850   3.684   2.456   0.487
  207SOL    HW3  851   3.722   2.491   0.629
  207SOL    MW4  852   3.724   2.508   0.544
  208SOL     OW  853   3.949   2.519   0.378
  208SOL    HW2  854   3.873   2.517   0.435
  208SOL    HW3  855   4.017   2.473   0.426
  208SOL    MW4  856   3.948   2.512   0.392
  209SOL     OW  857   3.070   2.489   0.401
  209SOL    HW2  858   3.147   2.444   0.366
  209SOL    HW3  859   3.086   2.493   0.496
  209SOL    MW4  860   3.082   2.484   0.409
  210SOL     OW  861   2.907   3.661   0.498
  210SOL    HW2  862   2.993   3.699   0.481
  210SOL    HW3  863   2.846   3.735   0.494
  210SOL    MW4  864   2.910   3.676   0.495
  211SOL     OW  865   3.092   2.954   0.441
  211SOL    HW2  866   3.109   2.892   0.370
  211SOL    HW3  867   3.007   2.927   0.476
  211SOL    MW4  868   3.083   2.942   0.436
  212SOL     OW  869   4.037   2.784   0.411
  212SOL    HW2  870   4.131   2.789   0.425
  212SOL    HW3  871   4.022   2.695   0.379
  212SOL    MW4  872   4.047   2.773   0.408
  213SOL     OW  873   3.689   2.980   0.520
  213SOL    HW2  874   3.763   2.979   0.580
  213SOL    HW3  875   3.640   2.900   0.541
  213SOL    MW4  876   3.692   2.969   0.530
  214SOL     OW  877   3.982   3.751   0.388
  214SOL    HW2  878   3.954   3.691   0.457
  214SOL    HW3  879   3.949   3.712   0.307
  214SOL    MW4  880   3.974   3.738   0.386
  215SOL     OW  881   3.307   2.352   0.360
  215SOL    HW2  882   3.317   2.338   0.455
  215SOL    HW3  883   3.395   2.371   0.329
  215SOL    MW4  884   3.320   2.353   0.369
  216SOL     OW  885   3.349   3.613   0.514
  216SOL    HW2  886   3.333   3.525   0.482
  216SOL    HW3  887   3.374   3.601   0.606
  216SOL    MW4  888   3.350   3.600   0.522
  217SOL     OW  889   4.239   3.695   0.479
  217SOL    HW2  890   4.153   3.720   0.446
  217SOL    HW3  891   4.257   3.611   0.438
  217SOL    MW4  892   4.230   3.687   0.469
  218SOL     OW  893   3.376   4.134   0.376
  218SOL    HW2  894   3.377   4.227   0.395
  218SOL    HW3  895   3.303   4.122   0.316
  218SOL    MW4  896   3.367   4.144   0.371
  219SOL     OW  897   3.803   4.425   0.565
  219SOL    HW2  898   3.831   4.343   0.524
  219SOL    HW3  899   3.805   4.406   0.658
  219SOL    MW4  900   3.807   4.411   0.572
  220SOL     OW  901   4.487   0.051   0.552
  220SOL    HW2  902   4.539  -0.029   0.539
  220SOL    HW3  903   4.486   0.064   0.647
  220SOL    MW4  904   4.494   0.042   0.563
  221SOL     OW  905   3.957   0.838   0.508
  221SOL    HW2  906   3.897   0.900   0.467
  221SOL    HW3  907   3.906   0.758   0.519
  221SOL    MW4  908   3.943   0.836   0.504
  222SOL     OW  909   0.055   1.764   0.115
  222SOL    HW2  910  -0.040   1.768   0.109
  222SOL    HW3  911   0.087   1.801   0.033
  222SOL    MW4  912   0.047   1.770   0.104
  223SOL     OW  913   4.288   0.339   0.316
  223SOL    HW2  914   4.282   0.253   0.359
  223SOL    HW3  915   4.330   0.395   0.381
  223SOL    MW4  916   4.293   0.335   0.331
  224SOL     OW  917   4.423   0.996   0.519
  224SOL    HW2  918   4.413   1.089   0.498
  224SOL    HW3  919   4.347   0.954   0.480
  224SOL    MW4  920   4.412   1.003   0.511
  225SOL     OW  921   3.626   4.620   0.484
  225SOL    HW2  922   3.698   4.560   0.507
  225SOL    HW3  923   3.668   4.687   0.430
  225SOL    MW4  924   3.641   4.621   0.480
  226SOL     OW  925   4.321   1.253   0.438
  226SOL    HW2  926   4.295   1.266   0.529
  226SOL    HW3  927   4.248   1.288   0.387
  226SOL    MW4  928   4.308   1.259   0.444
  227SOL     OW  929   0.064   1.376   0.431
  227SOL    HW2  930  -0.028   1.360   0.453
  227SOL    HW3  931   0.108   1.292   0.446
  227SOL    MW4  932   0.058   1.363   0.436
  228SOL     OW  933   4.001   2.123   0.475
  228SOL    HW2  934   3.945   2.163   0.410
  228SOL    HW3  935   4.055   2.195   0.508
  228SOL    MW4  936   4.001   2.138   0.471
  229SOL     OW  937   4.084   1.845   0.531
  229SOL    HW2  938   4.153   1.912   0.529
  229SOL    HW3  939   4.005   1.892   0.506
  229SOL    MW4  940   4.083   1.860   0.527
  230SOL     OW  941   4.389   2.139   0.438
  230SOL    HW2  942   4.430   2.224   0.455
  230SOL    HW3  943   4.462   2.080   0.418
  230SOL    MW4  944   4.404   2.142   0.437
  231SOL     OW  945   4.195   2.081   0.251
  231SOL    HW2  946   4.117   2.106   0.301
  231SOL    HW3  947   4.268   2.116   0.301
  231SOL    MW4  948   4.194   2.089   0.264
  232SOL     OW  949   4.449   2.405   0.513
  232SOL    HW2  950   4.520   2.443   0.461
  232SOL    HW3  951   4.458   2.446   0.599
  232SOL    MW4  952   4.460   2.416   0.517
  233SOL     OW  953   3.927   3.032   0.329
  233SOL    HW2  954   3.971   2.947   0.333
  233SOL    HW3  955   3.835   3.012   0.342
  233SOL    MW4  956   3.921   3.018   0.331
  234SOL     OW  957   4.166   2.360   0.541
  234SOL    HW2  958   4.147   2.400   0.626
  234SOL    HW3  959   4.261   2.351   0.539
  234SOL    MW4  960   4.176   2.364   0.552
  235SOL     OW  961   0.166   3.630   0.453
  235SOL    HW2  962   0.117   3.711   0.434
  235SOL    HW3  963   0.257   3.658   0.456
  235SOL    MW4  964   0.171   3.644   0.450
  236SOL     OW  965   3.829   3.631   0.155
  236SOL    HW2  966   3.764   3.565   0.180
  236SOL    HW3  967   3.801   3.660   0.068
  236SOL    MW4  968   3.817   3.626   0.147
  237SOL     OW  969   0.604   3.221   0.451
  237SOL    HW2  970   0.560   3.264   0.523
  237SOL    HW3  971   0.669   3.284   0.420
  237SOL    MW4  972   0.607   3.235   0.456
  238SOL     OW  973   3.803   3.602   0.543
  238SOL    HW2  974   3.730   3.645   0.498
  238SOL    HW3  975   3.782   3.612   0.636
  238SOL    MW4  976   3.790   3.609   0.550
  239SOL     OW  977   4.083   3.204   0.489
  239SOL    HW2  978   4.048   3.186   0.577
  239SOL    HW3  979   4.035   3.144   0.432
  239SOL    MW4  980   4.072   3.194   0.493
  240SOL     OW  981   4.304   4.081   0.523
  240SOL    HW2  982   4.224   4.029   0.532
  240SOL    HW3  983   4.359   4.053   0.597
  240SOL    MW4  984   4.301   4.070   0.534
  241SOL     OW  985   4.010   3.999   0.512
  241SOL    HW2  986   3.992   3.915   0.469
  241SOL    HW3  987   3.941   4.057   0.481
  241SOL    MW4  988   3.999   3.996   0.502
  242SOL     OW  989   3.846   4.195   0.413
  242SOL    HW2  990   3.757   4.160   0.408
  242SOL    HW3  991   3.868   4.215   0.322
  242SOL    MW4  992   3.837   4.193   0.400
  243SOL     OW  993   4.083   4.504   0.485
  243SOL    HW2  994   4.126   4.455   0.555
  243SOL    HW3  995   3.990   4.482   0.495
  243SOL    MW4  996   4.076   4.494   0.495
  244SOL     OW  997   0.237   4.639   0.905
  244SOL    HW2  998   0.240   4.549   0.873
  244SOL    HW3  999   0.154   4.673   0.873
  244SOL    MW4 1000   0.227   4.632   0.897
  245SOL     OW 1001   0.013   0.085   0.819
  245SOL    HW2 1002  -0.079   0.063   0.806
  245SOL    HW3 1003   0.015   0.181   0.817
  245SOL    MW4 1004   0.001   0.095   0.817
  246SOL     OW 1005   4.487   0.362   0.829
  246SOL    HW2 1006   4.479   0.373   0.924
  246SOL    HW3 1007   4.567   0.410   0.806
  246SOL    MW4 1008   4.497   0.370   0.839
  247SOL     OW 1009   0.196   0.537   0.755
  247SOL    HW2 1010   0.269   0.487   0.792
  247SOL    HW3 1011   0.206   0.625   0.790
  247SOL    MW4 1012   0.207   0.542   0.764
  248SOL     OW 1013   0.197   0.791   0.846
  248SOL    HW2 1014   0.193   0.772   0.939
  248SOL    HW3 1015   0.111   0.828   0.825
  248SOL    MW4 1016   0.185   0.794   0.855
  249SOL     OW 1017   4.443   0.893   0.781
  249SOL    HW2 1018   4.360   0.857   0.811
  249SOL    HW3 1019   4.432   0.903   0.686
  249SOL    MW4 1020   4.431   0.889   0.772
  250SOL     OW 1021   0.014   1.152   0.856
  250SOL    HW2 1022   0.001   1.160   0.951
  250SOL    HW3 1023   0.001   1.059   0.838
  250SOL    MW4 1024   0.011   1.141   0.866
  251SOL     OW 1025   0.244   1.232   0.731
  251SOL    HW2 1026   0.160   1.207   0.771
  251SOL    HW3 1027   0.251   1.177   0.653
  251SOL    MW4 1028   0.234   1.221   0.726
  252SOL     OW 1029   0.239   1.505   0.842
  252SOL    HW2 1030   0.328   1.537   0.832
  252SOL    HW3 1031   0.239   1.418   0.803
  252SOL    MW4 1032   0.251   1.498   0.836
  253SOL     OW 1033   0.017   1.651   0.793
  253SOL    HW2 1034  -0.064   1.605   0.815
  253SOL    HW3 1035   0.087   1.596   0.828
  253SOL    MW4 1036   0.015   1.638   0.801
  254SOL     OW 1037   0.011   1.943   0.816
  254SOL    HW2 1038   0.088   1.974   0.769
  254SOL    HW3 1039   0.013   1.848   0.806
  254SOL    MW4 1040   0.021   1.935   0.808
  255SOL     OW 1041   0.252   2.026   0.679
  255SOL    HW2 1042   0.255   2.121   0.675
  255SOL    HW3 1043   0.289   1.997   0.596
  255SOL    MW4 1044   0.257   2.035   0.668
  256SOL     OW 1045   0.291   2.305   0.790
  256SOL    HW2 1046   0.279   2.288   0.883
  256SOL    HW3 1047   0.364   2.366   0.785
  256SOL    MW4 1048   0.299   2.311   0.801
  257SOL     OW 1049   0.058   2.471   0.770
  257SOL    HW2 1050  -0.006   2.404   0.794
  257SOL    HW3 1051   0.142   2.426   0.770
  257SOL    MW4 1052   0.061   2.456   0.773
  258SOL     OW 1053   0.078   2.742   0.831
  258SOL    HW2 1054   0.077   2.745   0.927
  258SOL    HW3 1055   0.074   2.649   0.810
  258SOL    MW4 1056   0.077   2.730   0.841
  259SOL     OW 1057   0.285   2.860   0.706
  259SOL    HW2 1058   0.208   2.810   0.736
  259SOL    HW3 1059   0.278   2.860   0.611
  259SOL    MW4 1060   0.274   2.853   0.697
  260SOL     OW 1061   0.240   3.114   0.787
  260SOL    HW2 1062   0.247   3.115   0.883
  260SOL    HW3 1063   0.249   3.022   0.763
  260SOL    MW4 1064   0.242   3.102   0.797
  261SOL     OW 1065   0.026   3.228   0.656
  261SOL    HW2 1066   0.102   3.187   0.696
  261SOL    HW3 1067   0.061   3.277   0.581
  261SOL    MW4 1068   0.040   3.229   0.651
  262SOL     OW 1069   4.471   3.444   0.831
  262SOL    HW2 1070   4.402   3.497   0.793
  262SOL    HW3 1071   4.481   3.370   0.771
  262SOL    MW4 1072   4.463   3.441   0.818
  263SOL     OW 1073   0.163   3.609   0.734
  263SOL    HW2 1074   0.105   3.543   0.772
  263SOL    HW3 1075   0.161   3.592   0.640
  263SOL    MW4 1076   0.155   3.598   0.727
  264SOL     OW 1077   0.219   3.897   0.814
  264SOL    HW2 1078   0.225   3.923   0.906
  264SOL    HW3 1079   0.181   3.810   0.816
  264SOL    MW4 1080   0.215   3.889   0.826
  265SOL     OW 1081   4.470   4.012   0.726
  265SOL    HW2 1082   4.415   3.950   0.773
  265SOL    HW3 1083   4.560   3.981   0.741
  265SOL    MW4 1084   4.475   4.000   0.734
  266SOL     OW 1085   4.440   4.281   0.798
  266SOL    HW2 1086   4.433   4.277   0.893
  266SOL    HW3 1087   4.443   4.189   0.769
  266SOL    MW4 1088   4.440   4.268   0.806
  267SOL     OW 1089   0.215   4.407   0.757
  267SOL    HW2 1090   0.130   4.363   0.760
  267SOL    HW3 1091   0.217   4.448   0.671
  267SOL    MW4 1092   0.204   4.406   0.746
  268SOL     OW 1093   0.674   0.053   0.869
  268SOL    HW2 1094   0.669   0.046   0.964
  268SOL    HW3 1095   0.588   0.084   0.842
  268SOL    MW4 1096   0.662   0.056   0.878
  269SOL     OW 1097   0.414   0.150   0.764
  269SOL    HW2 1098   0.352   0.083   0.793
  269SOL    HW3 1099   0.427   0.133   0.671
  269SOL    MW4 1100   0.407   0.139   0.756
  270SOL     OW 1101   0.414   0.402   0.886
  270SOL    HW2 1102   0.504   0.424   0.859
  270SOL    HW3 1103   0.392   0.326   0.833
  270SOL    MW4 1104   0.423   0.395   0.875
  271SOL     OW 1105   0.655   0.493   0.766
  271SOL    HW2 1106   0.745   0.463   0.778
  271SOL    HW3 1107   0.652   0.527   0.677
  271SOL    MW4 1108   0.667   0.493   0.756
  272SOL     OW 1109   0.708   0.765   0.803
  272SOL    HW2 1110   0.629   0.803   0.764
  272SOL    HW3 1111   0.693   0.671   0.800
  272SOL    MW4 1112   0.696   0.758   0.797
  273SOL     OW 1113   0.452   0.872   0.749
  273SOL    HW2 1114   0.473   0.958   0.785
  273SOL    HW3 1115   0.368   0.849   0.789
  273SOL    MW4 1116   0.444   0.880   0.759
  274SOL     OW 1117   0.481   1.132   0.844
  274SOL    HW2 1118   0.559   1.167   0.801
  274SOL    HW3 1119   0.408   1.177   0.802
  274SOL    MW4 1120   0.482   1.143   0.833
  275SOL     OW 1121   0.708   1.261   0.756
  275SOL    HW2 1122   0.705   1.356   0.767
  275SOL    HW3 1123   0.728   1.249   0.663
  275SOL    MW4 1124   0.710   1.272   0.745
  276SOL     OW 1125   0.716   1.533   0.849
  276SOL    HW2 1126   0.706   1.528   0.944
  276SOL    HW3 1127   0.628   1.550   0.817
  276SOL    MW4 1128   0.703   1.535   0.858
  277SOL     OW 1129   0.480   1.623   0.753
  277SOL    HW2 1130   0.494   1.714   0.778
  277SOL    HW3 1131   0.474   1.625   0.658
  277SOL    MW4 1132   0.481   1.635   0.744
  278SOL     OW 1133   0.445   1.909   0.866
  278SOL    HW2 1134   0.446   1.926   0.960
  278SOL    HW3 1135   0.368   1.955   0.834
  278SOL    MW4 1136   0.435   1.917   0.874
  279SOL     OW 1137   0.623   2.093   0.753
  279SOL    HW2 1138   0.571   2.028   0.800
  279SOL    HW3 1139   0.596   2.083   0.661
  279SOL    MW4 1140   0.613   2.083   0.747
  280SOL     OW 1141   0.692   2.360   0.850
  280SOL    HW2 1142   0.713   2.351   0.943
  280SOL    HW3 1143   0.671   2.270   0.822
  280SOL    MW4 1144   0.692   2.347   0.859
  281SOL     OW 1145   0.469   2.496   0.773
  281SOL    HW2 1146   0.546   2.448   0.804
  281SOL    HW3 1147   0.489   2.516   0.681
  281SOL    MW4 1148   0.482   2.493   0.765
  282SOL     OW 1149   0.492   2.763   0.873
  282SOL    HW2 1150   0.472   2.670   0.856
  282SOL    HW3 1151   0.423   2.810   0.826
  282SOL    MW4 1152   0.480   2.757   0.864
  283SOL     OW 1153   0.713   2.858   0.731
  283SOL    HW2 1154   0.795   2.811   0.749
  283SOL    HW3 1155   0.646   2.807   0.775
  283SOL    MW4 1156   0.715   2.845   0.739
  284SOL     OW 1157   0.675   3.118   0.808
  284SOL    HW2 1158   0.602   3.159   0.763
  284SOL    HW3 1159   0.686   3.033   0.764
  284SOL    MW4 1160   0.667   3.112   0.796
  285SOL     OW 1161   0.460   3.252   0.710
  285SOL    HW2 1162   0.443   3.339   0.746
  285SOL    HW3 1163   0.382   3.201   0.734
  285SOL    MW4 1164   0.447   3.257   0.718
  286SOL     OW 1165   0.406   3.495   0.834
  286SOL    HW2 1166   0.414   3.508   0.929
  286SOL    HW3 1167   0.327   3.543   0.809
  286SOL    MW4 1168   0.397   3.503   0.844
  287SOL     OW 1169   0.651   3.614   0.791
  287SOL    HW2 1170   0.571   3.562   0.801
  287SOL    HW3 1171   0.623   3.704   0.805
  287SOL    MW4 1172   0.637   3.619   0.794
  288SOL     OW 1173   0.628   3.891   0.838
  288SOL    HW2 1174   0.707   3.919   0.791
  288SOL    HW3 1175   0.559   3.947   0.804
  288SOL    MW4 1176   0.630   3.902   0.827
  289SOL     OW 1177   0.448   4.053   0.710
  289SOL    HW2 1178   0.438   4.141   0.747
  289SOL    HW3 1179   0.375   4.003   0.749
  289SOL    MW4 1180   0.437   4.058   0.720
  290SOL     OW 1181   0.462   4.311   0.836
  290SOL    HW2 1182   0.451   4.301   0.931
  290SOL    HW3 1183   0.381   4.354   0.807
  290SOL    MW4 1184   0.450   4.315   0.845
  291SOL     OW 1185   0.700   4.456   0.785
  291SOL    HW2 1186   0.629   4.396   0.805
  291SOL    HW3 1187   0.678   4.537   0.831
  291SOL    MW4 1188   0.688   4.459   0.793
  292SOL     OW 1189   1.152   0.023   0.892
  292SOL    HW2 1190   1.215   0.081   0.849
  292SOL    HW3 1191   1.067   0.052   0.860
  292SOL    MW4 1192   1.149   0.035   0.882
  293SOL     OW 1193   0.921   0.108   0.748
  293SOL    HW2 1194   0.943   0.197   0.774
  293SOL    HW3 1195   0.834   0.092   0.785
  293SOL    MW4 1196   0.912   0.118   0.756
  294SOL     OW 1197   0.899   0.368   0.840
  294SOL    HW2 1198   0.900   0.375   0.935
  294SOL    HW3 1199   0.981   0.410   0.812
  294SOL    MW4 1200   0.910   0.375   0.849
  295SOL     OW 1201   1.130   0.504   0.746
  295SOL    HW2 1202   1.204   0.456   0.784
  295SOL    HW3 1203   1.149   0.507   0.652
  295SOL    MW4 1204   1.142   0.498   0.739
  296SOL     OW 1205   1.153   0.777   0.807
  296SOL    HW2 1206   1.140   0.770   0.901
  296SOL    HW3 1207   1.158   0.687   0.776
  296SOL    MW4 1208   1.152   0.764   0.815
  297SOL     OW 1209   0.910   0.914   0.692
  297SOL    HW2 1210   0.998   0.880   0.708
  297SOL    HW3 1211   0.852   0.847   0.728
  297SOL    MW4 1212   0.914   0.900   0.699
  298SOL     OW 1213   0.906   1.123   0.880
  298SOL    HW2 1214   0.915   1.045   0.826
  298SOL    HW3 1215   0.835   1.173   0.839
  298SOL    MW4 1216   0.898   1.119   0.867
  299SOL     OW 1217   1.116   1.310   0.748
  299SOL    HW2 1218   1.057   1.250   0.794
  299SOL    HW3 1219   1.096   1.297   0.655
  299SOL    MW4 1220   1.105   1.301   0.742
  300SOL     OW 1221   1.140   1.545   0.899
  300SOL    HW2 1222   1.069   1.606   0.880
  300SOL    HW3 1223   1.122   1.469   0.845
  300SOL    MW4 1224   1.128   1.543   0.890
  301SOL     OW 1225   0.936   1.697   0.804
  301SOL    HW2 1226   0.922   1.791   0.811
  301SOL    HW3 1227   0.851   1.658   0.824
  301SOL    MW4 1228   0.923   1.704   0.808
  302SOL     OW 1229   0.883   1.964   0.844
  302SOL    HW2 1230   0.879   1.973   0.940
  302SOL    HW3 1231   0.800   2.001   0.813
  302SOL    MW4 1232   0.872   1.970   0.853
  303SOL     OW 1233   1.143   2.055   0.719
  303SOL    HW2 1234   1.144   2.141   0.762
  303SOL    HW3 1235   1.067   2.010   0.756
  303SOL    MW4 1236   1.133   2.061   0.729
  304SOL     OW 1237   1.105   2.307   0.882
  304SOL    HW2 1238   1.113   2.302   0.977
  304SOL    HW3 1239   1.175   2.365   0.855
  304SOL    MW4 1240   1.115   2.314   0.891
  305SOL     OW 1241   0.904   2.439   0.720
  305SOL    HW2 1242   0.969   2.399   0.779
  305SOL    HW3 1243   0.820   2.407   0.752
  305SOL    MW4 1244   0.902   2.430   0.732
  306SOL     OW 1245   0.922   2.697   0.842
  306SOL    HW2 1246   0.921   2.680   0.936
  306SOL    HW3 1247   0.900   2.612   0.803
  306SOL    MW4 1248   0.919   2.683   0.849
  307SOL     OW 1249   1.159   2.766   0.696
  307SOL    HW2 1250   1.076   2.747   0.739
  307SOL    HW3 1251   1.145   2.744   0.604
  307SOL    MW4 1252   1.146   2.760   0.690
  308SOL     OW 1253   1.154   3.037   0.816
  308SOL    HW2 1254   1.073   3.083   0.796
  308SOL    HW3 1255   1.150   2.956   0.765
  308SOL    MW4 1256   1.143   3.032   0.807
  309SOL     OW 1257   0.932   3.214   0.764
  309SOL    HW2 1258   0.934   3.307   0.787
  309SOL    HW3 1259   0.841   3.188   0.777
  309SOL    MW4 1260   0.920   3.223   0.769
  310SOL     OW 1261   0.912   3.485   0.840
  310SOL    HW2 1262   0.970   3.548   0.796
  310SOL    HW3 1263   0.825   3.523   0.831
  310SOL    MW4 1264   0.908   3.499   0.833
  311SOL     OW 1265   1.107   3.634   0.719
  311SOL    HW2 1266   1.185   3.593   0.756
  311SOL    HW3 1267   1.109   3.611   0.626
  311SOL    MW4 1268   1.117   3.625   0.712
  312SOL     OW 1269   1.124   3.888   0.832
  312SOL    HW2 1270   1.129   3.874   0.926
  312SOL    HW3 1271   1.118   3.801   0.794
  312SOL    MW4 1272   1.124   3.875   0.839
  313SOL     OW 1273   0.879   4.006   0.755
  313SOL    HW2 1274   0.877   4.092   0.797
  313SOL    HW3 1275   0.955   3.962   0.793
  313SOL    MW4 1276   0.889   4.011   0.766
  314SOL     OW 1277   0.895   4.257   0.873
  314SOL    HW2 1278   0.980   4.300   0.861
  314SOL    HW3 1279   0.833   4.315   0.830
  314SOL    MW4 1280   0.898   4.270   0.865
  315SOL     OW 1281   1.117   4.418   0.815
  315SOL    HW2 1282   1.200   4.377   0.839
  315SOL    HW3 1283   1.127   4.509   0.844
  315SOL    MW4 1284   1.129   4.425   0.822
  316SOL     OW 1285   1.595   0.041   0.859
  316SOL    HW2 1286   1.574   0.006   0.946
  316SOL    HW3 1287   1.515   0.084   0.831
  316SOL    MW4 1288   1.582   0.042   0.867
  317SOL     OW 1289   1.339   0.145   0.716
  317SOL    HW2 1290   1.343   0.239   0.736
  317SOL    HW3 1291   1.307   0.142   0.626
  317SOL    MW4 1292   1.335   0.157   0.707
  318SOL     OW 1293   1.358   0.391   0.861
  318SOL    HW2 1294   1.363   0.386   0.956
  318SOL    HW3 1295   1.436   0.440   0.835
  318SOL    MW4 1296   1.369   0.397   0.870
  319SOL     OW 1297   1.602   0.515   0.734
  319SOL    HW2 1298   1.592   0.608   0.757
  319SOL    HW3 1299   1.684   0.489   0.775
  319SOL    MW4 1300   1.611   0.524   0.742
  320SOL     OW 1301   1.558   0.789   0.824
  320SOL    HW2 1302   1.634   0.832   0.786
  320SOL    HW3 1303   1.483   0.836   0.788
  320SOL    MW4 1304   1.558   0.801   0.814
  321SOL     OW 1305   1.361   0.951   0.721
  321SOL    HW2 1306   1.367   1.023   0.784
  321SOL    HW3 1307   1.285   0.901   0.748
  321SOL    MW4 1308   1.352   0.954   0.733
  322SOL     OW 1309   1.342   1.184   0.860
  322SOL    HW2 1310   1.426   1.218   0.830
  322SOL    HW3 1311   1.277   1.233   0.809
  322SOL    MW4 1312   1.344   1.195   0.849
  323SOL     OW 1313   1.562   1.293   0.725
  323SOL    HW2 1314   1.584   1.380   0.756
  323SOL    HW3 1315   1.544   1.305   0.631
  323SOL    MW4 1316   1.563   1.306   0.716
  324SOL     OW 1317   1.575   1.563   0.805
  324SOL    HW2 1318   1.562   1.568   0.900
  324SOL    HW3 1319   1.491   1.590   0.767
  324SOL    MW4 1320   1.562   1.567   0.812
  325SOL     OW 1321   1.331   1.644   0.721
  325SOL    HW2 1322   1.319   1.736   0.744
  325SOL    HW3 1323   1.285   1.596   0.790
  325SOL    MW4 1324   1.323   1.650   0.733
  326SOL     OW 1325   1.344   1.898   0.811
  326SOL    HW2 1326   1.329   1.891   0.905
  326SOL    HW3 1327   1.272   1.953   0.779
  326SOL    MW4 1328   1.332   1.904   0.819
  327SOL     OW 1329   1.557   2.055   0.762
  327SOL    HW2 1330   1.481   2.002   0.788
  327SOL    HW3 1331   1.557   2.051   0.666
  327SOL    MW4 1332   1.547   2.047   0.753
  328SOL     OW 1333   1.535   2.312   0.872
  328SOL    HW2 1334   1.466   2.360   0.828
  328SOL    HW3 1335   1.525   2.222   0.840
  328SOL    MW4 1336   1.524   2.306   0.862
  329SOL     OW 1337   1.315   2.445   0.780
  329SOL    HW2 1338   1.342   2.533   0.805
  329SOL    HW3 1339   1.305   2.449   0.685
  329SOL    MW4 1340   1.317   2.457   0.771
  330SOL     OW 1341   1.387   2.719   0.853
  330SOL    HW2 1342   1.357   2.728   0.944
  330SOL    HW3 1343   1.314   2.752   0.801
  330SOL    MW4 1344   1.373   2.725   0.858
  331SOL     OW 1345   1.586   2.822   0.706
  331SOL    HW2 1346   1.588   2.912   0.738
  331SOL    HW3 1347   1.523   2.777   0.762
  331SOL    MW4 1348   1.578   2.828   0.717
  332SOL     OW 1349   1.569   3.076   0.797
  332SOL    HW2 1350   1.571   3.080   0.892
  332SOL    HW3 1351   1.484   3.114   0.773
  332SOL    MW4 1352   1.558   3.081   0.806
  333SOL     OW 1353   1.338   3.223   0.749
  333SOL    HW2 1354   1.268   3.169   0.786
  333SOL    HW3 1355   1.323   3.221   0.655
  333SOL    MW4 1356   1.327   3.215   0.742
  334SOL     OW 1357   1.326   3.514   0.841
  334SOL    HW2 1358   1.398   3.576   0.850
  334SOL    HW3 1359   1.364   3.440   0.793
  334SOL    MW4 1360   1.341   3.512   0.836
  335SOL     OW 1361   1.552   3.666   0.830
  335SOL    HW2 1362   1.620   3.610   0.868
  335SOL    HW3 1363   1.571   3.666   0.736
  335SOL    MW4 1364   1.564   3.659   0.822
  336SOL     OW 1365   1.543   3.927   0.906
  336SOL    HW2 1366   1.459   3.952   0.866
  336SOL    HW3 1367   1.557   3.837   0.877
  336SOL    MW4 1368   1.534   3.918   0.897
  337SOL     OW 1369   1.326   4.057   0.725
  337SOL    HW2 1370   1.241   4.020   0.749
  337SOL    HW3 1371   1.326   4.057   0.629
  337SOL    MW4 1372   1.315   4.052   0.715
  338SOL     OW 1373   1.371   4.280   0.868
  338SOL    HW2 1374   1.457   4.303   0.832
  338SOL    HW3 1375   1.348   4.198   0.824
  338SOL    MW4 1376   1.380   4.272   0.857
  339SOL     OW 1377   1.587   4.460   0.742
  339SOL    HW2 1378   1.653   4.410   0.790
  339SOL    HW3 1379   1.593   4.549   0.776
  339SOL    MW4 1380   1.596   4.465   0.753
  340SOL     OW 1381   2.044   0.014   0.887
  340SOL    HW2 1382   2.138   0.030   0.893
  340SOL    HW3 1383   2.037  -0.077   0.857
  340SOL    MW4 1384   2.056   0.004   0.883
  341SOL     OW 1385   1.835   0.140   0.742
  341SOL    HW2 1386   1.913   0.107   0.786
  341SOL    HW3 1387   1.763   0.089   0.778
  341SOL    MW4 1388   1.836   0.129   0.753
  342SOL     OW 1389   1.858   0.402   0.835
  342SOL    HW2 1390   1.866   0.322   0.783
  342SOL    HW3 1391   1.936   0.453   0.813
  342SOL    MW4 1392   1.869   0.398   0.825
  343SOL     OW 1393   2.079   0.525   0.733
  343SOL    HW2 1394   2.158   0.491   0.775
  343SOL    HW3 1395   2.083   0.490   0.643
  343SOL    MW4 1396   2.090   0.516   0.726
  344SOL     OW 1397   2.036   0.794   0.825
  344SOL    HW2 1398   2.104   0.854   0.796
  344SOL    HW3 1399   2.059   0.710   0.784
  344SOL    MW4 1400   2.048   0.791   0.816
  345SOL     OW 1401   1.799   0.908   0.737
  345SOL    HW2 1402   1.814   0.999   0.762
  345SOL    HW3 1403   1.875   0.861   0.770
  345SOL    MW4 1404   1.811   0.914   0.744
  346SOL     OW 1405   1.800   1.178   0.854
  346SOL    HW2 1406   1.876   1.218   0.813
  346SOL    HW3 1407   1.725   1.218   0.809
  346SOL    MW4 1408   1.800   1.189   0.843
  347SOL     OW 1409   1.997   1.317   0.734
  347SOL    HW2 1410   2.080   1.278   0.762
  347SOL    HW3 1411   1.982   1.283   0.646
  347SOL    MW4 1412   2.006   1.308   0.726
  348SOL     OW 1413   2.017   1.545   0.886
  348SOL    HW2 1414   2.098   1.581   0.850
  348SOL    HW3 1415   2.002   1.464   0.837
  348SOL    MW4 1416   2.026   1.539   0.875
  349SOL     OW 1417   1.796   1.696   0.749
  349SOL    HW2 1418   1.854   1.636   0.794
  349SOL    HW3 1419   1.709   1.656   0.757
  349SOL    MW4 1420   1.792   1.683   0.756
  350SOL     OW 1421   1.814   1.964   0.815
  350SOL    HW2 1422   1.811   1.873   0.786
  350SOL    HW3 1423   1.724   1.996   0.806
  350SOL    MW4 1424   1.802   1.956   0.810
  351SOL     OW 1425   2.047   2.074   0.721
  351SOL    HW2 1426   2.040   2.160   0.761
  351SOL    HW3 1427   1.965   2.030   0.743
  351SOL    MW4 1428   2.036   2.079   0.729
  352SOL     OW 1429   1.998   2.325   0.857
  352SOL    HW2 1430   1.979   2.312   0.950
  352SOL    HW3 1431   1.912   2.341   0.818
  352SOL    MW4 1432   1.984   2.326   0.864
  353SOL     OW 1433   1.749   2.409   0.724
  353SOL    HW2 1434   1.666   2.376   0.758
  353SOL    HW3 1435   1.733   2.421   0.630
  353SOL    MW4 1436   1.736   2.406   0.716
  354SOL     OW 1437   1.801   2.666   0.832
  354SOL    HW2 1438   1.800   2.574   0.806
  354SOL    HW3 1439   1.732   2.707   0.780
  354SOL    MW4 1440   1.792   2.659   0.822
  355SOL     OW 1441   1.984   2.817   0.688
  355SOL    HW2 1442   2.075   2.799   0.713
  355SOL    HW3 1443   1.932   2.769   0.753
  355SOL    MW4 1444   1.989   2.808   0.700
  356SOL     OW 1445   1.990   3.043   0.869
  356SOL    HW2 1446   1.911   3.095   0.854
  356SOL    HW3 1447   1.973   2.960   0.824
  356SOL    MW4 1448   1.977   3.039   0.861
  357SOL     OW 1449   1.821   3.259   0.764
  357SOL    HW2 1450   1.733   3.223   0.748
  357SOL    HW3 1451   1.865   3.250   0.679
  357SOL    MW4 1452   1.815   3.253   0.750
  358SOL     OW 1453   1.768   3.496   0.889
  358SOL    HW2 1454   1.757   3.479   0.982
  358SOL    HW3 1455   1.787   3.410   0.851
  358SOL    MW4 1456   1.769   3.482   0.896
  359SOL     OW 1457   1.977   3.641   0.764
  359SOL    HW2 1458   1.960   3.730   0.794
  359SOL    HW3 1459   1.901   3.591   0.792
  359SOL    MW4 1460   1.965   3.646   0.772
  360SOL     OW 1461   1.964   3.898   0.846
  360SOL    HW2 1462   1.978   3.915   0.940
  360SOL    HW3 1463   1.886   3.948   0.825
  360SOL    MW4 1464   1.956   3.907   0.856
  361SOL     OW 1465   1.754   4.054   0.781
  361SOL    HW2 1466   1.669   4.014   0.800
  361SOL    HW3 1467   1.755   4.063   0.686
  361SOL    MW4 1468   1.743   4.050   0.771
  362SOL     OW 1469   1.777   4.316   0.878
  362SOL    HW2 1470   1.764   4.301   0.971
  362SOL    HW3 1471   1.759   4.231   0.837
  362SOL    MW4 1472   1.773   4.303   0.885
  363SOL     OW 1473   2.023   4.402   0.794
  363SOL    HW2 1474   1.939   4.366   0.821
  363SOL    HW3 1475   2.010   4.428   0.703
  363SOL    MW4 1476   2.010   4.401   0.786
  364SOL     OW 1477   2.559   4.583   0.840
  364SOL    HW2 1478   2.598   4.581   0.928
  364SOL    HW3 1479   2.539   4.492   0.820
  364SOL    MW4 1480   2.562   4.571   0.849
  365SOL     OW 1481   2.320   0.088   0.871
  365SOL    HW2 1482   2.394   0.032   0.894
  365SOL    HW3 1483   2.295   0.058   0.783
  365SOL    MW4 1484   2.326   0.076   0.862
  366SOL     OW 1485   2.271   0.369   0.877
  366SOL    HW2 1486   2.349   0.408   0.837
  366SOL    HW3 1487   2.289   0.275   0.878
  366SOL    MW4 1488   2.284   0.362   0.872
  367SOL     OW 1489   2.461   0.495   0.721
  367SOL    HW2 1490   2.553   0.471   0.736
  367SOL    HW3 1491   2.449   0.485   0.627
  367SOL    MW4 1492   2.472   0.491   0.711
  368SOL     OW 1493   2.447   0.788   0.813
  368SOL    HW2 1494   2.541   0.802   0.810
  368SOL    HW3 1495   2.435   0.698   0.783
  368SOL    MW4 1496   2.457   0.778   0.809
  369SOL     OW 1497   2.244   0.941   0.735
  369SOL    HW2 1498   2.323   0.901   0.771
  369SOL    HW3 1499   2.244   0.914   0.643
  369SOL    MW4 1500   2.255   0.932   0.727
  370SOL     OW 1501   2.209   1.192   0.833
  370SOL    HW2 1502   2.215   1.180   0.928
  370SOL    HW3 1503   2.222   1.105   0.796
  370SOL    MW4 1504   2.212   1.179   0.841
  371SOL     OW 1505   2.469   1.233   0.725
  371SOL    HW2 1506   2.382   1.223   0.764
  371SOL    HW3 1507   2.465   1.182   0.644
  371SOL    MW4 1508   2.457   1.225   0.719
  372SOL     OW 1509   2.457   1.537   0.783
  372SOL    HW2 1510   2.538   1.584   0.764
  372SOL    HW3 1511   2.472   1.449   0.750
  372SOL    MW4 1512   2.470   1.532   0.776
  373SOL     OW 1513   2.222   1.678   0.740
  373SOL    HW2 1514   2.308   1.637   0.733
  373SOL    HW3 1515   2.191   1.685   0.649
  373SOL    MW4 1516   2.229   1.673   0.727
  374SOL     OW 1517   2.253   1.932   0.832
  374SOL    HW2 1518   2.242   1.840   0.810
  374SOL    HW3 1519   2.185   1.977   0.781
  374SOL    MW4 1520   2.243   1.926   0.822
  375SOL     OW 1521   2.479   2.084   0.761
  375SOL    HW2 1522   2.414   2.017   0.784
  375SOL    HW3 1523   2.466   2.100   0.668
  375SOL    MW4 1524   2.469   2.077   0.752
  376SOL     OW 1525   2.472   2.325   0.890
  376SOL    HW2 1526   2.534   2.382   0.844
  376SOL    HW3 1527   2.480   2.240   0.845
  376SOL    MW4 1528   2.481   2.321   0.878
  377SOL     OW 1529   2.237   2.463   0.782
  377SOL    HW2 1530   2.308   2.422   0.832
  377SOL    HW3 1531   2.158   2.421   0.815
  377SOL    MW4 1532   2.236   2.452   0.793
  378SOL     OW 1533   2.210   2.737   0.834
  378SOL    HW2 1534   2.222   2.743   0.929
  378SOL    HW3 1535   2.206   2.643   0.817
  378SOL    MW4 1536   2.211   2.725   0.845
  379SOL     OW 1537   2.457   2.843   0.724
  379SOL    HW2 1538   2.523   2.811   0.786
  379SOL    HW3 1539   2.376   2.800   0.751
  379SOL    MW4 1540   2.455   2.833   0.736
  380SOL     OW 1541   2.415   3.107   0.854
  380SOL    HW2 1542   2.422   3.089   0.948
  380SOL    HW3 1543   2.428   3.022   0.812
  380SOL    MW4 1544   2.418   3.093   0.861
  381SOL     OW 1545   2.184   3.234   0.750
  381SOL    HW2 1546   2.119   3.177   0.792
  381SOL    HW3 1547   2.269   3.195   0.775
  381SOL    MW4 1548   2.187   3.221   0.759
  382SOL     OW 1549   2.211   3.502   0.834
  382SOL    HW2 1550   2.201   3.412   0.805
  382SOL    HW3 1551   2.124   3.541   0.820
  382SOL    MW4 1552   2.198   3.496   0.828
  383SOL     OW 1553   2.429   3.647   0.701
  383SOL    HW2 1554   2.512   3.604   0.723
  383SOL    HW3 1555   2.362   3.592   0.739
  383SOL    MW4 1556   2.431   3.634   0.709
  384SOL     OW 1557   2.432   3.882   0.874
  384SOL    HW2 1558   2.360   3.932   0.834
  384SOL    HW3 1559   2.427   3.797   0.831
  384SOL    MW4 1560   2.422   3.878   0.863
  385SOL     OW 1561   2.182   4.010   0.733
  385SOL    HW2 1562   2.104   3.963   0.762
  385SOL    HW3 1563   2.170   4.023   0.639
  385SOL    MW4 1564   2.170   4.006   0.725
  386SOL     OW 1565   2.240   4.268   0.859
  386SOL    HW2 1566   2.219   4.185   0.816
  386SOL    HW3 1567   2.174   4.329   0.827
  386SOL    MW4 1568   2.228   4.265   0.849
  387SOL     OW 1569   2.452   4.369   0.688
  387SOL    HW2 1570   2.534   4.323   0.704
  387SOL    HW3 1571   2.390   4.333   0.751
  387SOL    MW4 1572   2.455   4.358   0.698
  388SOL     OW 1573   2.898   0.016   0.784
  388SOL    HW2 1574   2.903  -0.072   0.747
  388SOL    HW3 1575   2.845   0.066   0.721
  388SOL    MW4 1576   2.891   0.011   0.770
  389SOL     OW 1577   2.570   4.651   0.548
  389SOL    HW2 1578   2.637   4.719   0.557
  389SOL    HW3 1579   2.559   4.617   0.637
  389SOL    MW4 1580   2.578   4.655   0.561
  390SOL     OW 1581   2.717   0.369   0.820
  390SOL    HW2 1582   2.725   0.355   0.915
  390SOL    HW3 1583   2.789   0.428   0.799
  390SOL    MW4 1584   2.728   0.375   0.830
  391SOL     OW 1585   2.944   0.493   0.755
  391SOL    HW2 1586   3.012   0.430   0.780
  391SOL    HW3 1587   2.923   0.471   0.664
  391SOL    MW4 1588   2.950   0.482   0.746
  392SOL     OW 1589   3.027   0.743   0.789
  392SOL    HW2 1590   2.987   0.766   0.872
  392SOL    HW3 1591   3.003   0.651   0.776
  392SOL    MW4 1592   3.018   0.734   0.798
  393SOL     OW 1593   2.697   0.892   0.775
  393SOL    HW2 1594   2.778   0.842   0.785
  393SOL    HW3 1595   2.696   0.917   0.683
  393SOL    MW4 1596   2.708   0.888   0.764
  394SOL     OW 1597   2.672   1.140   0.895
  394SOL    HW2 1598   2.673   1.048   0.868
  394SOL    HW3 1599   2.624   1.185   0.825
  394SOL    MW4 1600   2.666   1.134   0.882
  395SOL     OW 1601   2.878   1.253   0.770
  395SOL    HW2 1602   2.956   1.218   0.813
  395SOL    HW3 1603   2.805   1.215   0.818
  395SOL    MW4 1604   2.879   1.244   0.782
  396SOL     OW 1605   2.915   1.540   0.825
  396SOL    HW2 1606   2.998   1.572   0.789
  396SOL    HW3 1607   2.908   1.450   0.793
  396SOL    MW4 1608   2.925   1.532   0.816
  397SOL     OW 1609   2.689   1.686   0.734
  397SOL    HW2 1610   2.690   1.766   0.787
  397SOL    HW3 1611   2.768   1.640   0.762
  397SOL    MW4 1612   2.700   1.691   0.745
  398SOL     OW 1613   2.713   1.950   0.814
  398SOL    HW2 1614   2.719   1.955   0.910
  398SOL    HW3 1615   2.631   1.994   0.793
  398SOL    MW4 1616   2.703   1.957   0.824
  399SOL     OW 1617   2.881   2.099   0.640
  399SOL    HW2 1618   2.882   2.176   0.697
  399SOL    HW3 1619   2.836   2.032   0.692
  399SOL    MW4 1620   2.875   2.101   0.654
  400SOL     OW 1621   2.867   2.342   0.774
  400SOL    HW2 1622   2.886   2.331   0.867
  400SOL    HW3 1623   2.781   2.382   0.771
  400SOL    MW4 1624   2.858   2.346   0.786
  401SOL     OW 1625   2.645   2.503   0.751
  401SOL    HW2 1626   2.644   2.522   0.657
  401SOL    HW3 1627   2.667   2.587   0.792
  401SOL    MW4 1628   2.648   2.517   0.744
  402SOL     OW 1629   2.681   2.757   0.873
  402SOL    HW2 1630   2.688   2.742   0.968
  402SOL    HW3 1631   2.769   2.782   0.847
  402SOL    MW4 1632   2.693   2.758   0.882
  403SOL     OW 1633   2.824   2.912   0.566
  403SOL    HW2 1634   2.758   2.859   0.522
  403SOL    HW3 1635   2.786   3.000   0.570
  403SOL    MW4 1636   2.810   2.916   0.561
  404SOL     OW 1637   2.923   3.126   0.930
  404SOL    HW2 1638   2.829   3.139   0.913
  404SOL    HW3 1639   2.945   3.044   0.886
  404SOL    MW4 1640   2.913   3.117   0.922
  405SOL     OW 1641   2.677   3.209   0.850
  405SOL    HW2 1642   2.654   3.301   0.836
  405SOL    HW3 1643   2.593   3.163   0.845
  405SOL    MW4 1644   2.663   3.215   0.847
  406SOL     OW 1645   2.624   3.480   0.817
  406SOL    HW2 1646   2.633   3.484   0.913
  406SOL    HW3 1647   2.711   3.505   0.784
  406SOL    MW4 1648   2.637   3.484   0.826
  407SOL     OW 1649   2.870   3.568   0.766
  407SOL    HW2 1650   2.876   3.655   0.807
  407SOL    HW3 1651   2.901   3.582   0.676
  407SOL    MW4 1652   2.875   3.582   0.759
  408SOL     OW 1653   2.910   3.843   0.846
  408SOL    HW2 1654   2.920   3.838   0.941
  408SOL    HW3 1655   2.828   3.892   0.833
  408SOL    MW4 1656   2.900   3.849   0.857
  409SOL     OW 1657   2.675   3.993   0.773
  409SOL    HW2 1658   2.594   3.951   0.803
  409SOL    HW3 1659   2.688   3.959   0.685
  409SOL    MW4 1660   2.666   3.983   0.765
  410SOL     OW 1661   2.684   4.256   0.803
  410SOL    HW2 1662   2.672   4.267   0.897
  410SOL    HW3 1663   2.688   4.161   0.790
  410SOL    MW4 1664   2.683   4.245   0.813
  411SOL     OW 1665   2.881   4.401   0.691
  411SOL    HW2 1666   2.958   4.348   0.714
  411SOL    HW3 1667   2.807   4.353   0.729
  411SOL    MW4 1668   2.881   4.388   0.699
  412SOL     OW 1669   3.337   4.582   0.848
  412SOL    HW2 1670   3.323   4.596   0.942
  412SOL    HW3 1671   3.282   4.648   0.806
  412SOL    MW4 1672   3.328   4.593   0.855
  413SOL     OW 1673   3.168   0.093   0.725
  413SOL    HW2 1674   3.168   0.184   0.752
  413SOL    HW3 1675   3.078   0.063   0.739
  413SOL    MW4 1676   3.156   0.101   0.730
  414SOL     OW 1677   3.186   0.370   0.822
  414SOL    HW2 1678   3.196   0.389   0.915
  414SOL    HW3 1679   3.251   0.425   0.779
  414SOL    MW4 1680   3.196   0.380   0.829
  415SOL     OW 1681   3.367   0.532   0.691
  415SOL    HW2 1682   3.440   0.477   0.721
  415SOL    HW3 1683   3.376   0.532   0.596
  415SOL    MW4 1684   3.378   0.525   0.682
  416SOL     OW 1685   3.313   0.775   0.817
  416SOL    HW2 1686   3.219   0.779   0.804
  416SOL    HW3 1687   3.340   0.693   0.776
  416SOL    MW4 1688   3.304   0.765   0.810
  417SOL     OW 1689   3.115   0.940   0.605
  417SOL    HW2 1690   3.123   1.008   0.671
  417SOL    HW3 1691   3.057   0.875   0.644
  417SOL    MW4 1692   3.109   0.940   0.619
  418SOL     OW 1693   3.160   1.147   0.809
  418SOL    HW2 1694   3.183   1.147   0.902
  418SOL    HW3 1695   3.231   1.194   0.766
  418SOL    MW4 1696   3.172   1.153   0.815
  419SOL     OW 1697   3.399   1.287   0.731
  419SOL    HW2 1698   3.478   1.235   0.749
  419SOL    HW3 1699   3.411   1.366   0.784
  419SOL    MW4 1700   3.411   1.291   0.740
  420SOL     OW 1701   3.409   1.537   0.839
  420SOL    HW2 1702   3.421   1.526   0.934
  420SOL    HW3 1703   3.470   1.606   0.815
  420SOL    MW4 1704   3.418   1.544   0.849
  421SOL     OW 1705   3.166   1.631   0.746
  421SOL    HW2 1706   3.256   1.604   0.765
  421SOL    HW3 1707   3.166   1.653   0.653
  421SOL    MW4 1708   3.178   1.630   0.736
  422SOL     OW 1709   3.235   1.884   0.825
  422SOL    HW2 1710   3.183   1.897   0.904
  422SOL    HW3 1711   3.208   1.798   0.792
  422SOL    MW4 1712   3.224   1.875   0.831
  423SOL     OW 1713   3.459   2.047   0.797
  423SOL    HW2 1714   3.445   2.131   0.841
  423SOL    HW3 1715   3.379   1.997   0.813
  423SOL    MW4 1716   3.446   2.051   0.805
  424SOL     OW 1717   3.453   2.299   0.888
  424SOL    HW2 1718   3.421   2.323   0.975
  424SOL    HW3 1719   3.513   2.370   0.865
  424SOL    MW4 1720   3.457   2.312   0.896
  425SOL     OW 1721   3.085   2.522   0.680
  425SOL    HW2 1722   3.154   2.456   0.673
  425SOL    HW3 1723   3.006   2.472   0.705
  425SOL    MW4 1724   3.083   2.506   0.683
  426SOL     OW 1725   3.160   2.733   0.883
  426SOL    HW2 1726   3.126   2.656   0.837
  426SOL    HW3 1727   3.225   2.770   0.823
  426SOL    MW4 1728   3.164   2.728   0.869
  427SOL     OW 1729   3.291   2.890   0.651
  427SOL    HW2 1730   3.232   2.923   0.584
  427SOL    HW3 1731   3.360   2.845   0.602
  427SOL    MW4 1732   3.292   2.888   0.636
  428SOL     OW 1733   3.339   3.087   0.843
  428SOL    HW2 1734   3.362   3.058   0.932
  428SOL    HW3 1735   3.326   3.005   0.795
  428SOL    MW4 1736   3.340   3.072   0.849
  429SOL     OW 1737   3.111   3.249   0.779
  429SOL    HW2 1738   3.182   3.186   0.782
  429SOL    HW3 1739   3.039   3.207   0.827
  429SOL    MW4 1740   3.111   3.235   0.786
  430SOL     OW 1741   3.108   3.487   0.905
  430SOL    HW2 1742   3.118   3.398   0.872
  430SOL    HW3 1743   3.024   3.517   0.871
  430SOL    MW4 1744   3.099   3.479   0.896
  431SOL     OW 1745   3.347   3.577   0.784
  431SOL    HW2 1746   3.332   3.672   0.779
  431SOL    HW3 1747   3.267   3.543   0.825
  431SOL    MW4 1748   3.334   3.585   0.789
  432SOL     OW 1749   3.323   3.858   0.838
  432SOL    HW2 1750   3.337   3.859   0.933
  432SOL    HW3 1751   3.394   3.910   0.802
  432SOL    MW4 1752   3.334   3.865   0.846
  433SOL     OW 1753   3.105   3.970   0.691
  433SOL    HW2 1754   3.187   3.949   0.734
  433SOL    HW3 1755   3.039   3.919   0.738
  433SOL    MW4 1756   3.107   3.961   0.703
  434SOL     OW 1757   3.088   4.239   0.793
  434SOL    HW2 1758   3.180   4.264   0.780
  434SOL    HW3 1759   3.079   4.157   0.744
  434SOL    MW4 1760   3.099   4.231   0.785
  435SOL     OW 1761   3.322   4.355   0.714
  435SOL    HW2 1762   3.319   4.437   0.762
  435SOL    HW3 1763   3.355   4.378   0.627
  435SOL    MW4 1764   3.326   4.369   0.709
  436SOL     OW 1765   3.789   4.664   0.843
  436SOL    HW2 1766   3.860   4.709   0.798
  436SOL    HW3 1767   3.711   4.716   0.822
  436SOL    MW4 1768   3.788   4.677   0.834
  437SOL     OW 1769   3.541   0.107   0.757
  437SOL    HW2 1770   3.484   0.040   0.795
  437SOL    HW3 1771   3.558   0.076   0.668
  437SOL    MW4 1772   3.535   0.094   0.751
  438SOL     OW 1773   3.606   0.375   0.790
  438SOL    HW2 1774   3.585   0.379   0.883
  438SOL    HW3 1775   3.577   0.288   0.762
  438SOL    MW4 1776   3.600   0.364   0.799
  439SOL     OW 1777   3.818   0.560   0.772
  439SOL    HW2 1778   3.789   0.646   0.804
  439SOL    HW3 1779   3.747   0.500   0.795
  439SOL    MW4 1780   3.805   0.564   0.779
  440SOL     OW 1781   3.748   0.811   0.846
  440SOL    HW2 1782   3.746   0.812   0.942
  440SOL    HW3 1783   3.834   0.847   0.823
  440SOL    MW4 1784   3.759   0.816   0.856
  441SOL     OW 1785   3.487   0.950   0.674
  441SOL    HW2 1786   3.565   0.895   0.680
  441SOL    HW3 1787   3.423   0.906   0.729
  441SOL    MW4 1788   3.489   0.937   0.682
  442SOL     OW 1789   3.632   1.139   0.834
  442SOL    HW2 1790   3.608   1.131   0.926
  442SOL    HW3 1791   3.594   1.061   0.793
  442SOL    MW4 1792   3.623   1.127   0.841
  443SOL     OW 1793   3.853   1.303   0.756
  443SOL    HW2 1794   3.777   1.249   0.777
  443SOL    HW3 1795   3.850   1.312   0.661
  443SOL    MW4 1796   3.843   1.297   0.746
  444SOL     OW 1797   3.825   1.567   0.846
  444SOL    HW2 1798   3.901   1.618   0.818
  444SOL    HW3 1799   3.841   1.479   0.812
  444SOL    MW4 1800   3.837   1.562   0.838
  445SOL     OW 1801   3.601   1.722   0.771
  445SOL    HW2 1802   3.630   1.795   0.825
  445SOL    HW3 1803   3.671   1.657   0.779
  445SOL    MW4 1804   3.614   1.723   0.779
  446SOL     OW 1805   3.682   1.946   0.922
  446SOL    HW2 1806   3.747   1.999   0.876
  446SOL    HW3 1807   3.598   1.978   0.889
  446SOL    MW4 1808   3.679   1.958   0.911
  447SOL     OW 1809   3.874   2.062   0.730
  447SOL    HW2 1810   3.960   2.031   0.760
  447SOL    HW3 1811   3.888   2.086   0.639
  447SOL    MW4 1812   3.887   2.061   0.722
  448SOL     OW 1813   3.861   2.319   0.857
  448SOL    HW2 1814   3.844   2.301   0.949
  448SOL    HW3 1815   3.860   2.233   0.815
  448SOL    MW4 1816   3.859   2.305   0.863
  449SOL     OW 1817   3.653   2.494   0.812
  449SOL    HW2 1818   3.659   2.583   0.848
  449SOL    HW3 1819   3.733   2.451   0.840
  449SOL    MW4 1820   3.664   2.500   0.820
  450SOL     OW 1821   3.678   2.783   0.867
  450SOL    HW2 1822   3.668   2.776   0.962
  450SOL    HW3 1823   3.728   2.864   0.854
  450SOL    MW4 1824   3.683   2.793   0.878
  451SOL     OW 1825   3.872   2.781   0.643
  451SOL    HW2 1826   3.784   2.745   0.630
  451SOL    HW3 1827   3.907   2.788   0.554
  451SOL    MW4 1828   3.865   2.778   0.630
  452SOL     OW 1829   3.794   3.037   0.872
  452SOL    HW2 1830   3.869   3.090   0.844
  452SOL    HW3 1831   3.718   3.084   0.839
  452SOL    MW4 1832   3.794   3.050   0.864
  453SOL     OW 1833   3.573   3.179   0.746
  453SOL    HW2 1834   3.490   3.137   0.767
  453SOL    HW3 1835   3.574   3.183   0.650
  453SOL    MW4 1836   3.562   3.174   0.736
  454SOL     OW 1837   3.579   3.445   0.856
  454SOL    HW2 1838   3.562   3.354   0.830
  454SOL    HW3 1839   3.499   3.492   0.831
  454SOL    MW4 1840   3.566   3.439   0.849
  455SOL     OW 1841   3.804   3.595   0.867
  455SOL    HW2 1842   3.887   3.548   0.860
  455SOL    HW3 1843   3.738   3.527   0.856
  455SOL    MW4 1844   3.806   3.580   0.865
  456SOL     OW 1845   3.767   3.863   0.852
  456SOL    HW2 1846   3.693   3.888   0.796
  456SOL    HW3 1847   3.762   3.767   0.857
  456SOL    MW4 1848   3.757   3.853   0.845
  457SOL     OW 1849   3.541   3.979   0.723
  457SOL    HW2 1850   3.536   4.069   0.755
  457SOL    HW3 1851   3.558   3.987   0.629
  457SOL    MW4 1852   3.543   3.992   0.715
  458SOL     OW 1853   3.562   4.248   0.838
  458SOL    HW2 1854   3.646   4.294   0.833
  458SOL    HW3 1855   3.498   4.311   0.807
  458SOL    MW4 1856   3.565   4.262   0.834
  459SOL     OW 1857   3.796   4.400   0.844
  459SOL    HW2 1858   3.880   4.359   0.864
  459SOL    HW3 1859   3.815   4.494   0.840
  459SOL    MW4 1860   3.809   4.407   0.846
  460SOL     OW 1861   4.247   4.661   0.823
  460SOL    HW2 1862   4.249   4.656   0.918
  460SOL    HW3 1863   4.167   4.710   0.803
  460SOL    MW4 1864   4.237   4.667   0.833
  461SOL     OW 1865   4.013   0.145   0.742
  461SOL    HW2 1866   4.015   0.213   0.810
  461SOL    HW3 1867   3.999   0.193   0.661
  461SOL    MW4 1868   4.011   0.160   0.741
  462SOL     OW 1869   4.035   0.398   0.857
  462SOL    HW2 1870   4.111   0.432   0.811
  462SOL    HW3 1871   3.961   0.444   0.818
  462SOL    MW4 1872   4.035   0.409   0.846
  463SOL     OW 1873   4.271   0.496   0.726
  463SOL    HW2 1874   4.339   0.464   0.784
  463SOL    HW3 1875   4.316   0.516   0.644
  463SOL    MW4 1876   4.286   0.495   0.723
  464SOL     OW 1877   4.224   0.763   0.865
  464SOL    HW2 1878   4.141   0.804   0.840
  464SOL    HW3 1879   4.212   0.670   0.845
  464SOL    MW4 1880   4.212   0.756   0.859
  465SOL     OW 1881   4.002   0.895   0.770
  465SOL    HW2 1882   4.023   0.985   0.794
  465SOL    HW3 1883   4.008   0.894   0.674
  465SOL    MW4 1884   4.005   0.906   0.761
  466SOL     OW 1885   4.075   1.158   0.831
  466SOL    HW2 1886   4.059   1.140   0.924
  466SOL    HW3 1887   3.997   1.205   0.802
  466SOL    MW4 1888   4.062   1.162   0.839
  467SOL     OW 1889   4.292   1.285   0.730
  467SOL    HW2 1890   4.209   1.241   0.751
  467SOL    HW3 1891   4.359   1.225   0.763
  467SOL    MW4 1892   4.290   1.271   0.737
  468SOL     OW 1893   4.257   1.537   0.853
  468SOL    HW2 1894   4.280   1.530   0.946
  468SOL    HW3 1895   4.271   1.448   0.819
  468SOL    MW4 1896   4.262   1.524   0.861
  469SOL     OW 1897   4.068   1.716   0.797
  469SOL    HW2 1898   4.130   1.645   0.813
  469SOL    HW3 1899   4.076   1.734   0.703
  469SOL    MW4 1900   4.078   1.709   0.787
  470SOL     OW 1901   4.123   1.978   0.870
  470SOL    HW2 1902   4.204   2.016   0.836
  470SOL    HW3 1903   4.129   1.885   0.849
  470SOL    MW4 1904   4.135   1.971   0.863
  471SOL     OW 1905   4.278   2.049   0.661
  471SOL    HW2 1906   4.349   1.993   0.693
  471SOL    HW3 1907   4.311   2.085   0.578
  471SOL    MW4 1908   4.292   2.046   0.654
  472SOL     OW 1909   4.348   2.298   0.800
  472SOL    HW2 1910   4.260   2.337   0.808
  472SOL    HW3 1911   4.332   2.210   0.768
  472SOL    MW4 1912   4.334   2.292   0.797
  473SOL     OW 1913   4.108   2.438   0.802
  473SOL    HW2 1914   4.093   2.531   0.818
  473SOL    HW3 1915   4.028   2.395   0.831
  473SOL    MW4 1916   4.096   2.445   0.808
  474SOL     OW 1917   4.076   2.702   0.819
  474SOL    HW2 1918   4.153   2.754   0.797
  474SOL    HW3 1919   4.011   2.728   0.754
  474SOL    MW4 1920   4.078   2.712   0.808
  475SOL     OW 1921   4.311   2.835   0.768
  475SOL    HW2 1922   4.395   2.810   0.805
  475SOL    HW3 1923   4.323   2.825   0.673
  475SOL    MW4 1924   4.323   2.830   0.760
  476SOL     OW 1925   4.304   3.112   0.838
  476SOL    HW2 1926   4.317   3.025   0.803
  476SOL    HW3 1927   4.355   3.169   0.780
  476SOL    MW4 1928   4.313   3.108   0.826
  477SOL     OW 1929   4.012   3.164   0.760
  477SOL    HW2 1930   4.015   3.256   0.786
  477SOL    HW3 1931   4.099   3.130   0.782
  477SOL    MW4 1932   4.024   3.172   0.767
  478SOL     OW 1933   4.041   3.450   0.840
  478SOL    HW2 1934   4.056   3.464   0.934
  478SOL    HW3 1935   4.113   3.494   0.797
  478SOL    MW4 1936   4.052   3.457   0.847
  479SOL     OW 1937   4.269   3.593   0.733
  479SOL    HW2 1938   4.272   3.674   0.783
  479SOL    HW3 1939   4.266   3.620   0.642
  479SOL    MW4 1940   4.269   3.607   0.728
  480SOL     OW 1941   4.267   3.845   0.853
  480SOL    HW2 1942   4.261   3.855   0.948
  480SOL    HW3 1943   4.181   3.871   0.821
  480SOL    MW4 1944   4.255   3.850   0.861
  481SOL     OW 1945   4.020   3.974   0.780
  481SOL    HW2 1946   3.945   3.930   0.820
  481SOL    HW3 1947   3.998   3.981   0.687
  481SOL    MW4 1948   4.007   3.969   0.773
  482SOL     OW 1949   4.035   4.236   0.843
  482SOL    HW2 1950   4.100   4.293   0.802
  482SOL    HW3 1951   4.047   4.151   0.802
  482SOL    MW4 1952   4.045   4.232   0.832
  483SOL     OW 1953   4.216   4.402   0.699
  483SOL    HW2 1954   4.224   4.493   0.727
  483SOL    HW3 1955   4.305   4.366   0.710
  483SOL    MW4 1956   4.229   4.409   0.704
  484SOL     OW 1957   0.211   0.018   1.182
  484SOL    HW2 1958   0.295   0.049   1.216
  484SOL    HW3 1959   0.226   0.007   1.088
  484SOL    MW4 1960   0.224   0.021   1.174
  485SOL     OW 1961   4.461   0.140   1.251
  485SOL    HW2 1962   4.389   0.091   1.211
  485SOL    HW3 1963   4.539   0.087   1.233
  485SOL    MW4 1964   4.462   0.127   1.243
  486SOL     OW 1965   4.465   0.391   1.121
  486SOL    HW2 1966   4.387   0.429   1.161
  486SOL    HW3 1967   4.469   0.302   1.156
  486SOL    MW4 1968   4.456   0.384   1.131
  487SOL     OW 1969   0.187   0.514   1.246
  487SOL    HW2 1970   0.196   0.590   1.189
  487SOL    HW3 1971   0.118   0.461   1.206
  487SOL    MW4 1972   0.179   0.517   1.233
  488SOL     OW 1973   0.217   0.752   1.111
  488SOL    HW2 1974   0.301   0.781   1.146
  488SOL    HW3 1975   0.151   0.800   1.161
  488SOL    MW4 1976   0.219   0.762   1.122
  489SOL     OW 1977   4.483   0.912   1.241
  489SOL    HW2 1978   4.486   0.895   1.335
  489SOL    HW3 1979   4.412   0.856   1.208
  489SOL    MW4 1980   4.474   0.903   1.249
  490SOL     OW 1981   4.453   1.161   1.124
  490SOL    HW2 1982   4.372   1.196   1.160
  490SOL    HW3 1983   4.466   1.077   1.168
  490SOL    MW4 1984   4.444   1.155   1.134
  491SOL     OW 1985   0.199   1.262   1.230
  491SOL    HW2 1986   0.259   1.202   1.185
  491SOL    HW3 1987   0.112   1.236   1.199
  491SOL    MW4 1988   0.195   1.250   1.220
  492SOL     OW 1989   0.238   1.516   1.129
  492SOL    HW2 1990   0.254   1.426   1.159
  492SOL    HW3 1991   0.225   1.508   1.034
  492SOL    MW4 1992   0.239   1.503   1.120
  493SOL     OW 1993   0.023   1.663   1.235
  493SOL    HW2 1994   0.033   1.746   1.188
  493SOL    HW3 1995   0.098   1.611   1.208
  493SOL    MW4 1996   0.034   1.667   1.225
  494SOL     OW 1997   0.007   1.911   1.121
  494SOL    HW2 1998  -0.064   1.963   1.159
  494SOL    HW3 1999   0.001   1.928   1.027
  494SOL    MW4 2000  -0.003   1.920   1.113
  495SOL     OW 2001   0.198   2.064   1.249
  495SOL    HW2 2002   0.202   2.136   1.187
  495SOL    HW3 2003   0.140   1.999   1.208
  495SOL    MW4 2004   0.191   2.065   1.236
  496SOL     OW 2005   0.230   2.289   1.070
  496SOL    HW2 2006   0.314   2.335   1.076
  496SOL    HW3 2007   0.166   2.353   1.098
  496SOL    MW4 2008   0.233   2.303   1.074
  497SOL     OW 2009   0.033   2.432   1.194
  497SOL    HW2 2010   0.029   2.425   1.289
  497SOL    HW3 2011  -0.034   2.371   1.162
  497SOL    MW4 2012   0.023   2.423   1.202
  498SOL     OW 2013   0.033   2.718   1.111
  498SOL    HW2 2014  -0.033   2.745   1.174
  498SOL    HW3 2015   0.014   2.625   1.094
  498SOL    MW4 2016   0.022   2.709   1.117
  499SOL     OW 2017   0.246   2.855   1.221
  499SOL    HW2 2018   0.226   2.841   1.314
  499SOL    HW3 2019   0.178   2.807   1.174
  499SOL    MW4 2020   0.234   2.847   1.227
  500SOL     OW 2021   0.205   3.090   1.077
  500SOL    HW2 2022   0.276   3.148   1.104
  500SOL    HW3 2023   0.216   3.012   1.130
  500SOL    MW4 2024   0.216   3.088   1.087
  501SOL     OW 2025   4.484   3.233   1.210
  501SOL    HW2 2026   4.417   3.169   1.188
  501SOL    HW3 2027   4.563   3.200   1.167
  501SOL    MW4 2028   4.485   3.220   1.201
  502SOL     OW 2029   4.449   3.500   1.107
  502SOL    HW2 2030   4.461   3.416   1.150
  502SOL    HW3 2031   4.465   3.482   1.014
  502SOL    MW4 2032   4.453   3.487   1.100
  503SOL     OW 2033   0.185   3.647   1.191
  503SOL    HW2 2034   0.189   3.635   1.285
  503SOL    HW3 2035   0.105   3.602   1.164
  503SOL    MW4 2036   0.175   3.639   1.200
  504SOL     OW 2037   0.212   3.915   1.098
  504SOL    HW2 2038   0.141   3.952   1.152
  504SOL    HW3 2039   0.204   3.821   1.110
  504SOL    MW4 2040   0.202   3.908   1.107
  505SOL     OW 2041   4.465   4.002   1.203
  505SOL    HW2 2042   4.451   3.996   1.297
  505SOL    HW3 2043   4.393   3.953   1.164
  505SOL    MW4 2044   4.454   3.995   1.210
  506SOL     OW 2045   4.449   4.264   1.094
  506SOL    HW2 2046   4.534   4.293   1.127
  506SOL    HW3 2047   4.450   4.169   1.104
  506SOL    MW4 2048   4.460   4.255   1.100
  507SOL     OW 2049   0.149   4.414   1.236
  507SOL    HW2 2050   0.180   4.409   1.326
  507SOL    HW3 2051   0.159   4.506   1.212
  507SOL    MW4 2052   0.154   4.426   1.244
  508SOL     OW 2053   0.679   4.653   1.144
  508SOL    HW2 2054   0.751   4.687   1.198
  508SOL    HW3 2055   0.664   4.564   1.178
  508SOL    MW4 2056   0.687   4.645   1.156
  509SOL     OW 2057   0.472   0.120   1.268
  509SOL    HW2 2058   0.458   0.206   1.228
  509SOL    HW3 2059   0.548   0.084   1.222
  509SOL    MW4 2060   0.480   0.127   1.257
  510SOL     OW 2061   0.416   0.379   1.166
  510SOL    HW2 2062   0.330   0.408   1.196
  510SOL    HW3 2063   0.411   0.386   1.070
  510SOL    MW4 2064   0.404   0.384   1.157
  511SOL     OW 2065   0.653   0.489   1.248
  511SOL    HW2 2066   0.652   0.576   1.209
  511SOL    HW3 2067   0.569   0.450   1.224
  511SOL    MW4 2068   0.642   0.495   1.240
  512SOL     OW 2069   0.649   0.731   1.092
  512SOL    HW2 2070   0.578   0.791   1.116
  512SOL    HW3 2071   0.665   0.748   1.000
  512SOL    MW4 2072   0.642   0.741   1.083
  513SOL     OW 2073   0.444   0.885   1.210
  513SOL    HW2 2074   0.426   0.908   1.302
  513SOL    HW3 2075   0.432   0.967   1.162
  513SOL    MW4 2076   0.440   0.899   1.216
  514SOL     OW 2077   0.422   1.138   1.117
  514SOL    HW2 2078   0.499   1.161   1.169
  514SOL    HW3 2079   0.451   1.148   1.026
  514SOL    MW4 2080   0.436   1.142   1.112
  515SOL     OW 2081   0.627   1.254   1.251
  515SOL    HW2 2082   0.705   1.199   1.250
  515SOL    HW3 2083   0.657   1.337   1.213
  515SOL    MW4 2084   0.642   1.258   1.246
  516SOL     OW 2085   0.683   1.546   1.133
  516SOL    HW2 2086   0.751   1.603   1.167
  516SOL    HW3 2087   0.602   1.597   1.142
  516SOL    MW4 2088   0.681   1.560   1.139
  517SOL     OW 2089   0.446   1.666   1.227
  517SOL    HW2 2090   0.436   1.648   1.320
  517SOL    HW3 2091   0.374   1.619   1.186
  517SOL    MW4 2092   0.436   1.657   1.234
  518SOL     OW 2093   0.430   1.935   1.141
  518SOL    HW2 2094   0.436   1.844   1.170
  518SOL    HW3 2095   0.341   1.961   1.165
  518SOL    MW4 2096   0.419   1.927   1.148
  519SOL     OW 2097   0.654   2.050   1.220
  519SOL    HW2 2098   0.645   2.055   1.315
  519SOL    HW3 2099   0.582   1.995   1.192
  519SOL    MW4 2100   0.643   2.044   1.229
  520SOL     OW 2101   0.705   2.310   1.128
  520SOL    HW2 2102   0.622   2.358   1.133
  520SOL    HW3 2103   0.686   2.226   1.169
  520SOL    MW4 2104   0.691   2.305   1.134
  521SOL     OW 2105   0.445   2.424   1.176
  521SOL    HW2 2106   0.442   2.408   1.270
  521SOL    HW3 2107   0.450   2.519   1.168
  521SOL    MW4 2108   0.445   2.434   1.187
  522SOL     OW 2109   0.480   2.704   1.160
  522SOL    HW2 2110   0.401   2.752   1.186
  522SOL    HW3 2111   0.490   2.724   1.067
  522SOL    MW4 2112   0.471   2.713   1.151
  523SOL     OW 2113   0.695   2.884   1.211
  523SOL    HW2 2114   0.680   2.970   1.173
  523SOL    HW3 2115   0.618   2.833   1.187
  523SOL    MW4 2116   0.683   2.888   1.203
  524SOL     OW 2117   0.668   3.126   1.086
  524SOL    HW2 2118   0.755   3.145   1.121
  524SOL    HW3 2119   0.682   3.120   0.991
  524SOL    MW4 2120   0.682   3.128   1.078
  525SOL     OW 2121   0.418   3.264   1.170
  525SOL    HW2 2122   0.426   3.356   1.147
  525SOL    HW3 2123   0.497   3.223   1.133
  525SOL    MW4 2124   0.430   3.271   1.162
  526SOL     OW 2125   0.433   3.540   1.104
  526SOL    HW2 2126   0.517   3.578   1.132
  526SOL    HW3 2127   0.367   3.597   1.143
  526SOL    MW4 2128   0.436   3.553   1.113
  527SOL     OW 2129   0.667   3.673   1.183
  527SOL    HW2 2130   0.675   3.678   1.278
  527SOL    HW3 2131   0.665   3.764   1.154
  527SOL    MW4 2132   0.668   3.685   1.191
  528SOL     OW 2133   0.679   3.933   1.096
  528SOL    HW2 2134   0.602   3.972   1.139
  528SOL    HW3 2135   0.656   3.933   1.003
  528SOL    MW4 2136   0.666   3.938   1.089
  529SOL     OW 2137   0.446   4.056   1.204
  529SOL    HW2 2138   0.437   4.151   1.208
  529SOL    HW3 2139   0.368   4.026   1.158
  529SOL    MW4 2140   0.435   4.065   1.198
  530SOL     OW 2141   0.391   4.312   1.119
  530SOL    HW2 2142   0.464   4.354   1.164
  530SOL    HW3 2143   0.313   4.348   1.160
  530SOL    MW4 2144   0.390   4.322   1.130
  531SOL     OW 2145   0.642   4.394   1.226
  531SOL    HW2 2146   0.640   4.387   1.322
  531SOL    HW3 2147   0.730   4.365   1.202
  531SOL    MW4 2148   0.653   4.389   1.236
  532SOL     OW 2149   1.100   0.038   1.170
  532SOL    HW2 2150   1.102  -0.057   1.185
  532SOL    HW3 2151   1.121   0.048   1.077
  532SOL    MW4 2152   1.103   0.026   1.160
  533SOL     OW 2153   0.878   0.144   1.263
  533SOL    HW2 2154   0.886   0.120   1.355
  533SOL    HW3 2155   0.956   0.108   1.221
  533SOL    MW4 2156   0.889   0.136   1.269
  534SOL     OW 2157   0.885   0.375   1.123
  534SOL    HW2 2158   0.870   0.292   1.170
  534SOL    HW3 2159   0.815   0.433   1.153
  534SOL    MW4 2160   0.874   0.371   1.133
  535SOL     OW 2161   1.147   0.473   1.226
  535SOL    HW2 2162   1.135   0.481   1.321
  535SOL    HW3 2163   1.061   0.444   1.194
  535SOL    MW4 2164   1.134   0.471   1.234
  536SOL     OW 2165   1.133   0.756   1.103
  536SOL    HW2 2166   1.049   0.787   1.137
  536SOL    HW3 2167   1.143   0.669   1.140
  536SOL    MW4 2168   1.123   0.749   1.112
  537SOL     OW 2169   0.882   0.829   1.186
  537SOL    HW2 2170   0.869   0.924   1.179
  537SOL    HW3 2171   0.807   0.792   1.138
  537SOL    MW4 2172   0.870   0.837   1.178
  538SOL     OW 2173   0.868   1.109   1.163
  538SOL    HW2 2174   0.937   1.170   1.188
  538SOL    HW3 2175   0.864   1.115   1.068
  538SOL    MW4 2176   0.877   1.118   1.154
  539SOL     OW 2177   1.074   1.273   1.266
  539SOL    HW2 2178   1.087   1.288   1.360
  539SOL    HW3 2179   1.158   1.236   1.237
  539SOL    MW4 2180   1.087   1.270   1.275
  540SOL     OW 2181   1.105   1.529   1.175
  540SOL    HW2 2182   1.072   1.443   1.203
  540SOL    HW3 2183   1.128   1.516   1.083
  540SOL    MW4 2184   1.103   1.516   1.167
  541SOL     OW 2185   0.891   1.686   1.230
  541SOL    HW2 2186   0.902   1.764   1.176
  541SOL    HW3 2187   0.972   1.636   1.217
  541SOL    MW4 2188   0.903   1.689   1.221
  542SOL     OW 2189   0.890   1.940   1.125
  542SOL    HW2 2190   0.961   1.984   1.172
  542SOL    HW3 2191   0.812   1.990   1.148
  542SOL    MW4 2192   0.889   1.952   1.134
  543SOL     OW 2193   1.105   2.060   1.251
  543SOL    HW2 2194   1.109   2.053   1.347
  543SOL    HW3 2195   1.130   2.150   1.232
  543SOL    MW4 2196   1.109   2.071   1.261
  544SOL     OW 2197   1.148   2.327   1.170
  544SOL    HW2 2198   1.219   2.382   1.202
  544SOL    HW3 2199   1.069   2.377   1.189
  544SOL    MW4 2200   1.147   2.341   1.177
  545SOL     OW 2201   0.897   2.483   1.234
  545SOL    HW2 2202   0.888   2.481   1.330
  545SOL    HW3 2203   0.833   2.418   1.203
  545SOL    MW4 2204   0.887   2.474   1.243
  546SOL     OW 2205   0.901   2.719   1.115
  546SOL    HW2 2206   0.881   2.636   1.158
  546SOL    HW3 2207   0.830   2.777   1.142
  546SOL    MW4 2208   0.889   2.715   1.124
  547SOL     OW 2209   1.113   2.823   1.254
  547SOL    HW2 2210   1.102   2.809   1.348
  547SOL    HW3 2211   1.034   2.787   1.215
  547SOL    MW4 2212   1.101   2.817   1.261
  548SOL     OW 2213   1.148   3.075   1.116
  548SOL    HW2 2214   1.147   2.994   1.167
  548SOL    HW3 2215   1.126   3.048   1.027
  548SOL    MW4 2216   1.145   3.061   1.111
  549SOL     OW 2217   0.892   3.209   1.232
  549SOL    HW2 2218   0.895   3.300   1.202
  549SOL    HW3 2219   0.979   3.175   1.212
  549SOL    MW4 2220   0.903   3.216   1.225
  550SOL     OW 2221   0.840   3.441   1.110
  550SOL    HW2 2222   0.773   3.507   1.128
  550SOL    HW3 2223   0.859   3.451   1.017
  550SOL    MW4 2224   0.833   3.451   1.100
  551SOL     OW 2225   1.069   3.593   1.191
  551SOL    HW2 2226   1.147   3.551   1.155
  551SOL    HW3 2227   0.995   3.545   1.154
  551SOL    MW4 2228   1.070   3.581   1.181
  552SOL     OW 2229   1.139   3.847   1.111
  552SOL    HW2 2230   1.062   3.889   1.150
  552SOL    HW3 2231   1.125   3.753   1.125
  552SOL    MW4 2232   1.127   3.840   1.118
  553SOL     OW 2233   0.929   4.014   1.205
  553SOL    HW2 2234   0.915   4.029   1.299
  553SOL    HW3 2235   0.843   3.985   1.173
  553SOL    MW4 2236   0.916   4.012   1.213
  554SOL     OW 2237   0.895   4.308   1.161
  554SOL    HW2 2238   0.905   4.215   1.179
  554SOL    HW3 2239   0.897   4.314   1.065
  554SOL    MW4 2240   0.897   4.296   1.150
  555SOL     OW 2241   1.118   4.442   1.232
  555SOL    HW2 2242   1.120   4.427   1.327
  555SOL    HW3 2243   1.034   4.405   1.205
  555SOL    MW4 2244   1.107   4.435   1.241
  556SOL     OW 2245   1.616   4.615   1.115
  556SOL    HW2 2246   1.665   4.670   1.176
  556SOL    HW3 2247   1.581   4.544   1.169
  556SOL    MW4 2248   1.618   4.613   1.130
  557SOL     OW 2249   1.385   0.123   1.204
  557SOL    HW2 2250   1.443   0.059   1.164
  557SOL    HW3 2251   1.297   0.088   1.190
  557SOL    MW4 2252   1.381   0.110   1.197
  558SOL     OW 2253   1.397   0.406   1.127
  558SOL    HW2 2254   1.402   0.316   1.157
  558SOL    HW3 2255   1.318   0.441   1.168
  558SOL    MW4 2256   1.387   0.399   1.136
  559SOL     OW 2257   1.636   0.516   1.209
  559SOL    HW2 2258   1.622   0.598   1.162
  559SOL    HW3 2259   1.556   0.465   1.193
  559SOL    MW4 2260   1.623   0.520   1.201
  560SOL     OW 2261   1.566   0.748   1.099
  560SOL    HW2 2262   1.652   0.787   1.118
  560SOL    HW3 2263   1.564   0.740   1.004
  560SOL    MW4 2264   1.577   0.752   1.089
  561SOL     OW 2265   1.335   0.878   1.254
  561SOL    HW2 2266   1.407   0.837   1.207
  561SOL    HW3 2267   1.256   0.837   1.219
  561SOL    MW4 2268   1.334   0.867   1.243
  562SOL     OW 2269   1.322   1.156   1.173
  562SOL    HW2 2270   1.308   1.062   1.186
  562SOL    HW3 2271   1.314   1.169   1.079
  562SOL    MW4 2272   1.319   1.146   1.163
  563SOL     OW 2273   1.558   1.317   1.215
  563SOL    HW2 2274   1.618   1.261   1.166
  563SOL    HW3 2275   1.475   1.269   1.215
  563SOL    MW4 2276   1.555   1.303   1.208
  564SOL     OW 2277   1.546   1.555   1.082
  564SOL    HW2 2278   1.619   1.607   1.116
  564SOL    HW3 2279   1.566   1.465   1.107
  564SOL    MW4 2280   1.558   1.550   1.090
  565SOL     OW 2281   1.342   1.671   1.230
  565SOL    HW2 2282   1.416   1.624   1.192
  565SOL    HW3 2283   1.269   1.609   1.223
  565SOL    MW4 2284   1.342   1.656   1.224
  566SOL     OW 2285   1.299   1.926   1.107
  566SOL    HW2 2286   1.320   1.839   1.141
  566SOL    HW3 2287   1.232   1.960   1.166
  566SOL    MW4 2288   1.293   1.919   1.119
  567SOL     OW 2289   1.535   2.058   1.195
  567SOL    HW2 2290   1.552   2.151   1.181
  567SOL    HW3 2291   1.457   2.040   1.143
  567SOL    MW4 2292   1.527   2.068   1.186
  568SOL     OW 2293   1.561   2.332   1.144
  568SOL    HW2 2294   1.489   2.385   1.177
  568SOL    HW3 2295   1.554   2.339   1.048
  568SOL    MW4 2296   1.550   2.340   1.136
  569SOL     OW 2297   1.370   2.480   1.251
  569SOL    HW2 2298   1.339   2.478   1.342
  569SOL    HW3 2299   1.347   2.568   1.221
  569SOL    MW4 2300   1.363   2.491   1.259
  570SOL     OW 2301   1.331   2.726   1.136
  570SOL    HW2 2302   1.409   2.764   1.175
  570SOL    HW3 2303   1.258   2.762   1.186
  570SOL    MW4 2304   1.332   2.735   1.148
  571SOL     OW 2305   1.567   2.853   1.207
  571SOL    HW2 2306   1.642   2.801   1.179
  571SOL    HW3 2307   1.563   2.926   1.146
  571SOL    MW4 2308   1.576   2.855   1.196
  572SOL     OW 2309   1.552   3.106   1.073
  572SOL    HW2 2310   1.638   3.131   1.106
  572SOL    HW3 2311   1.491   3.160   1.123
  572SOL    MW4 2312   1.555   3.116   1.084
  573SOL     OW 2313   1.342   3.225   1.220
  573SOL    HW2 2314   1.328   3.226   1.315
  573SOL    HW3 2315   1.273   3.168   1.186
  573SOL    MW4 2316   1.331   3.217   1.228
  574SOL     OW 2317   1.301   3.477   1.116
  574SOL    HW2 2318   1.318   3.386   1.140
  574SOL    HW3 2319   1.312   3.479   1.021
  574SOL    MW4 2320   1.305   3.465   1.106
  575SOL     OW 2321   1.518   3.583   1.234
  575SOL    HW2 2322   1.529   3.676   1.217
  575SOL    HW3 2323   1.425   3.566   1.221
  575SOL    MW4 2324   1.507   3.593   1.230
  576SOL     OW 2325   1.530   3.846   1.181
  576SOL    HW2 2326   1.462   3.902   1.219
  576SOL    HW3 2327   1.529   3.867   1.088
  576SOL    MW4 2328   1.521   3.857   1.174
  577SOL     OW 2329   1.319   4.010   1.262
  577SOL    HW2 2330   1.321   4.090   1.211
  577SOL    HW3 2331   1.253   3.955   1.220
  577SOL    MW4 2332   1.311   4.013   1.250
  578SOL     OW 2333   1.293   4.247   1.127
  578SOL    HW2 2334   1.230   4.316   1.147
  578SOL    HW3 2335   1.323   4.268   1.038
  578SOL    MW4 2336   1.289   4.259   1.118
  579SOL     OW 2337   1.490   4.408   1.242
  579SOL    HW2 2338   1.496   4.392   1.336
  579SOL    HW3 2339   1.425   4.345   1.211
  579SOL    MW4 2340   1.482   4.398   1.251
  580SOL     OW 2341   1.995   4.646   1.162
  580SOL    HW2 2342   2.009   4.556   1.191
  580SOL    HW3 2343   1.983   4.640   1.068
  580SOL    MW4 2344   1.995   4.633   1.154
  581SOL     OW 2345   1.801   0.128   1.265
  581SOL    HW2 2346   1.823   0.211   1.222
  581SOL    HW3 2347   1.866   0.066   1.232
  581SOL    MW4 2348   1.812   0.131   1.255
  582SOL     OW 2349   1.840   0.370   1.125
  582SOL    HW2 2350   1.772   0.435   1.144
  582SOL    HW3 2351   1.836   0.358   1.030
  582SOL    MW4 2352   1.831   0.377   1.115
  583SOL     OW 2353   2.030   0.548   1.212
  583SOL    HW2 2354   2.035   0.548   1.307
  583SOL    HW3 2355   1.966   0.480   1.190
  583SOL    MW4 2356   2.022   0.539   1.221
  584SOL     OW 2357   2.031   0.802   1.099
  584SOL    HW2 2358   2.036   0.709   1.122
  584SOL    HW3 2359   2.031   0.803   1.003
  584SOL    MW4 2360   2.032   0.790   1.089
  585SOL     OW 2361   1.788   0.896   1.186
  585SOL    HW2 2362   1.793   0.917   1.280
  585SOL    HW3 2363   1.878   0.874   1.162
  585SOL    MW4 2364   1.801   0.896   1.196
  586SOL     OW 2365   1.777   1.185   1.126
  586SOL    HW2 2366   1.774   1.092   1.148
  586SOL    HW3 2367   1.787   1.186   1.031
  586SOL    MW4 2368   1.778   1.173   1.116
  587SOL     OW 2369   1.986   1.307   1.244
  587SOL    HW2 2370   2.062   1.258   1.214
  587SOL    HW3 2371   1.911   1.261   1.206
  587SOL    MW4 2372   1.986   1.294   1.235
  588SOL     OW 2373   2.005   1.582   1.147
  588SOL    HW2 2374   2.012   1.493   1.182
  588SOL    HW3 2375   2.010   1.570   1.052
  588SOL    MW4 2376   2.007   1.569   1.139
  589SOL     OW 2377   1.757   1.680   1.223
  589SOL    HW2 2378   1.764   1.770   1.190
  589SOL    HW3 2379   1.834   1.636   1.188
  589SOL    MW4 2380   1.768   1.686   1.214
  590SOL     OW 2381   1.787   1.950   1.117
  590SOL    HW2 2382   1.696   1.978   1.119
  590SOL    HW3 2383   1.810   1.949   1.024
  590SOL    MW4 2384   1.778   1.953   1.105
  591SOL     OW 2385   2.043   2.082   1.201
  591SOL    HW2 2386   2.044   2.069   1.296
  591SOL    HW3 2387   1.958   2.051   1.173
  591SOL    MW4 2388   2.032   2.076   1.210
  592SOL     OW 2389   2.010   2.357   1.153
  592SOL    HW2 2390   2.096   2.395   1.172
  592SOL    HW3 2391   2.018   2.265   1.176
  592SOL    MW4 2392   2.022   2.350   1.158
  593SOL     OW 2393   1.782   2.453   1.261
  593SOL    HW2 2394   1.867   2.416   1.241
  593SOL    HW3 2395   1.720   2.400   1.211
  593SOL    MW4 2396   1.785   2.441   1.252
  594SOL     OW 2397   1.803   2.700   1.121
  594SOL    HW2 2398   1.798   2.614   1.163
  594SOL    HW3 2399   1.792   2.681   1.028
  594SOL    MW4 2400   1.800   2.686   1.114
  595SOL     OW 2401   2.044   2.790   1.242
  595SOL    HW2 2402   2.036   2.876   1.201
  595SOL    HW3 2403   1.969   2.741   1.208
  595SOL    MW4 2404   2.033   2.795   1.232
  596SOL     OW 2405   2.015   3.060   1.137
  596SOL    HW2 2406   1.931   3.089   1.172
  596SOL    HW3 2407   2.002   3.055   1.042
  596SOL    MW4 2408   2.003   3.063   1.129
  597SOL     OW 2409   1.784   3.185   1.216
  597SOL    HW2 2410   1.776   3.191   1.311
  597SOL    HW3 2411   1.773   3.274   1.185
  597SOL    MW4 2412   1.781   3.197   1.224
  598SOL     OW 2413   1.743   3.469   1.156
  598SOL    HW2 2414   1.801   3.545   1.167
  598SOL    HW3 2415   1.655   3.504   1.171
  598SOL    MW4 2416   1.739   3.484   1.159
  599SOL     OW 2417   1.981   3.648   1.213
  599SOL    HW2 2418   1.994   3.643   1.308
  599SOL    HW3 2419   2.056   3.602   1.175
  599SOL    MW4 2420   1.993   3.641   1.220
  600SOL     OW 2421   2.005   3.915   1.123
  600SOL    HW2 2422   1.929   3.966   1.150
  600SOL    HW3 2423   1.989   3.828   1.159
  600SOL    MW4 2424   1.993   3.910   1.131
  601SOL     OW 2425   1.758   4.001   1.214
  601SOL    HW2 2426   1.771   4.011   1.308
  601SOL    HW3 2427   1.680   3.947   1.207
  601SOL    MW4 2428   1.749   3.995   1.226
  602SOL     OW 2429   1.737   4.276   1.155
  602SOL    HW2 2430   1.733   4.182   1.169
  602SOL    HW3 2431   1.652   4.308   1.186
  602SOL    MW4 2432   1.725   4.268   1.161
  603SOL     OW 2433   1.993   4.383   1.218
  603SOL    HW2 2434   1.975   4.385   1.312
  603SOL    HW3 2435   1.912   4.351   1.179
  603SOL    MW4 2436   1.980   4.379   1.226
  604SOL     OW 2437   2.496   4.663   1.121
  604SOL    HW2 2438   2.569   4.719   1.146
  604SOL    HW3 2439   2.419   4.708   1.153
  604SOL    MW4 2440   2.496   4.676   1.129
  605SOL     OW 2441   2.239   0.077   1.207
  605SOL    HW2 2442   2.240   0.170   1.186
  605SOL    HW3 2443   2.150   0.049   1.186
  605SOL    MW4 2444   2.227   0.086   1.202
  606SOL     OW 2445   2.241   0.357   1.146
  606SOL    HW2 2446   2.171   0.420   1.163
  606SOL    HW3 2447   2.245   0.351   1.051
  606SOL    MW4 2448   2.233   0.365   1.136
  607SOL     OW 2449   2.475   0.503   1.219
  607SOL    HW2 2450   2.482   0.521   1.312
  607SOL    HW3 2451   2.401   0.444   1.211
  607SOL    MW4 2452   2.466   0.498   1.230
  608SOL     OW 2453   2.452   0.763   1.100
  608SOL    HW2 2454   2.455   0.670   1.122
  608SOL    HW3 2455   2.431   0.765   1.006
  608SOL    MW4 2456   2.450   0.751   1.090
  609SOL     OW 2457   2.249   0.920   1.204
  609SOL    HW2 2458   2.324   0.870   1.172
  609SOL    HW3 2459   2.173   0.872   1.171
  609SOL    MW4 2460   2.249   0.907   1.195
  610SOL     OW 2461   2.209   1.195   1.116
  610SOL    HW2 2462   2.296   1.231   1.134
  610SOL    HW3 2463   2.213   1.105   1.148
  610SOL    MW4 2464   2.221   1.188   1.123
  611SOL     OW 2465   2.454   1.319   1.200
  611SOL    HW2 2466   2.533   1.271   1.178
  611SOL    HW3 2467   2.470   1.408   1.169
  611SOL    MW4 2468   2.466   1.325   1.193
  612SOL     OW 2469   2.472   1.553   1.063
  612SOL    HW2 2470   2.388   1.593   1.084
  612SOL    HW3 2471   2.470   1.540   0.968
  612SOL    MW4 2472   2.461   1.557   1.053
  613SOL     OW 2473   2.263   1.679   1.202
  613SOL    HW2 2474   2.263   1.765   1.160
  613SOL    HW3 2475   2.172   1.650   1.197
  613SOL    MW4 2476   2.251   1.686   1.195
  614SOL     OW 2477   2.267   1.946   1.113
  614SOL    HW2 2478   2.186   1.995   1.132
  614SOL    HW3 2479   2.265   1.934   1.018
  614SOL    MW4 2480   2.256   1.951   1.103
  615SOL     OW 2481   2.474   2.090   1.224
  615SOL    HW2 2482   2.549   2.048   1.182
  615SOL    HW3 2483   2.399   2.037   1.199
  615SOL    MW4 2484   2.474   2.078   1.215
  616SOL     OW 2485   2.477   2.338   1.149
  616SOL    HW2 2486   2.489   2.250   1.184
  616SOL    HW3 2487   2.453   2.326   1.058
  616SOL    MW4 2488   2.476   2.325   1.142
  617SOL     OW 2489   2.264   2.485   1.229
  617SOL    HW2 2490   2.258   2.483   1.324
  617SOL    HW3 2491   2.338   2.428   1.208
  617SOL    MW4 2492   2.273   2.477   1.239
  618SOL     OW 2493   2.274   2.753   1.107
  618SOL    HW2 2494   2.281   2.658   1.104
  618SOL    HW3 2495   2.193   2.770   1.155
  618SOL    MW4 2496   2.264   2.743   1.113
  619SOL     OW 2497   2.514   2.841   1.234
  619SOL    HW2 2498   2.509   2.832   1.329
  619SOL    HW3 2499   2.437   2.795   1.201
  619SOL    MW4 2500   2.503   2.834   1.242
  620SOL     OW 2501   2.436   3.099   1.138
  620SOL    HW2 2502   2.359   3.147   1.168
  620SOL    HW3 2503   2.437   3.020   1.192
  620SOL    MW4 2504   2.426   3.095   1.149
  621SOL     OW 2505   2.214   3.232   1.219
  621SOL    HW2 2506   2.199   3.310   1.166
  621SOL    HW3 2507   2.149   3.168   1.188
  621SOL    MW4 2508   2.203   3.234   1.208
  622SOL     OW 2509   2.200   3.493   1.113
  622SOL    HW2 2510   2.285   3.527   1.140
  622SOL    HW3 2511   2.204   3.490   1.017
  622SOL    MW4 2512   2.212   3.497   1.104
  623SOL     OW 2513   2.452   3.617   1.188
  623SOL    HW2 2514   2.463   3.590   1.280
  623SOL    HW3 2515   2.453   3.712   1.191
  623SOL    MW4 2516   2.454   3.626   1.201
  624SOL     OW 2517   2.475   3.889   1.149
  624SOL    HW2 2518   2.392   3.921   1.182
  624SOL    HW3 2519   2.459   3.873   1.056
  624SOL    MW4 2520   2.462   3.891   1.141
  625SOL     OW 2521   2.235   4.023   1.231
  625SOL    HW2 2522   2.240   4.114   1.200
  625SOL    HW3 2523   2.155   3.989   1.192
  625SOL    MW4 2524   2.225   4.031   1.222
  626SOL     OW 2525   2.243   4.279   1.138
  626SOL    HW2 2526   2.160   4.314   1.170
  626SOL    HW3 2527   2.237   4.286   1.042
  626SOL    MW4 2528   2.231   4.284   1.129
  627SOL     OW 2529   2.463   4.400   1.245
  627SOL    HW2 2530   2.406   4.336   1.202
  627SOL    HW3 2531   2.448   4.482   1.196
  627SOL    MW4 2532   2.454   4.402   1.233
  628SOL     OW 2533   2.955   4.637   1.098
  628SOL    HW2 2534   2.925   4.554   1.135
  628SOL    HW3 2535   2.937   4.630   1.004
  628SOL    MW4 2536   2.949   4.625   1.090
  629SOL     OW 2537   2.720   0.119   1.208
  629SOL    HW2 2538   2.746   0.124   1.300
  629SOL    HW3 2539   2.794   0.077   1.164
  629SOL    MW4 2540   2.733   0.114   1.214
  630SOL     OW 2541   2.698   0.379   1.103
  630SOL    HW2 2542   2.703   0.292   1.143
  630SOL    HW3 2543   2.607   0.405   1.115
  630SOL    MW4 2544   2.687   0.371   1.110
  631SOL     OW 2545   2.915   0.544   1.171
  631SOL    HW2 2546   2.916   0.622   1.116
  631SOL    HW3 2547   2.838   0.495   1.141
  631SOL    MW4 2548   2.905   0.548   1.159
  632SOL     OW 2549   2.912   0.784   1.037
  632SOL    HW2 2550   2.983   0.827   1.084
  632SOL    HW3 2551   2.833   0.809   1.085
  632SOL    MW4 2552   2.911   0.793   1.049
  633SOL     OW 2553   2.696   0.888   1.188
  633SOL    HW2 2554   2.673   0.981   1.185
  633SOL    HW3 2555   2.613   0.842   1.174
  633SOL    MW4 2556   2.682   0.894   1.186
  634SOL     OW 2557   2.692   1.173   1.169
  634SOL    HW2 2558   2.777   1.205   1.199
  634SOL    HW3 2559   2.702   1.160   1.075
  634SOL    MW4 2560   2.704   1.175   1.160
  635SOL     OW 2561   2.950   1.287   1.212
  635SOL    HW2 2562   2.955   1.310   1.305
  635SOL    HW3 2563   2.945   1.371   1.166
  635SOL    MW4 2564   2.950   1.301   1.218
  636SOL     OW 2565   2.916   1.549   1.115
  636SOL    HW2 2566   2.992   1.590   1.156
  636SOL    HW3 2567   2.931   1.559   1.021
  636SOL    MW4 2568   2.928   1.555   1.108
  637SOL     OW 2569   2.680   1.690   1.193
  637SOL    HW2 2570   2.756   1.635   1.175
  637SOL    HW3 2571   2.611   1.655   1.136
  637SOL    MW4 2572   2.681   1.678   1.183
  638SOL     OW 2573   2.685   1.949   1.116
  638SOL    HW2 2574   2.767   1.985   1.148
  638SOL    HW3 2575   2.688   1.856   1.139
  638SOL    MW4 2576   2.696   1.941   1.124
  639SOL     OW 2577   2.914   2.079   1.198
  639SOL    HW2 2578   2.939   2.106   1.286
  639SOL    HW3 2579   2.910   2.160   1.148
  639SOL    MW4 2580   2.917   2.093   1.203
  640SOL     OW 2581   2.910   2.321   1.066
  640SOL    HW2 2582   2.987   2.359   1.108
  640SOL    HW3 2583   2.836   2.358   1.113
  640SOL    MW4 2584   2.910   2.331   1.078
  641SOL     OW 2585   2.711   2.460   1.210
  641SOL    HW2 2586   2.720   2.464   1.305
  641SOL    HW3 2587   2.628   2.415   1.195
  641SOL    MW4 2588   2.701   2.454   1.220
  642SOL     OW 2589   2.751   2.725   1.132
  642SOL    HW2 2590   2.733   2.632   1.148
  642SOL    HW3 2591   2.672   2.770   1.161
  642SOL    MW4 2592   2.738   2.718   1.138
  643SOL     OW 2593   2.962   2.855   1.265
  643SOL    HW2 2594   2.955   2.838   1.359
  643SOL    HW3 2595   2.894   2.800   1.225
  643SOL    MW4 2596   2.953   2.845   1.272
  644SOL     OW 2597   2.850   3.104   1.194
  644SOL    HW2 2598   2.875   3.013   1.212
  644SOL    HW3 2599   2.875   3.118   1.103
  644SOL    MW4 2600   2.857   3.094   1.184
  645SOL     OW 2601   2.628   3.250   1.252
  645SOL    HW2 2602   2.707   3.198   1.238
  645SOL    HW3 2603   2.558   3.199   1.211
  645SOL    MW4 2604   2.629   3.236   1.245
  646SOL     OW 2605   2.666   3.464   1.089
  646SOL    HW2 2606   2.664   3.379   1.133
  646SOL    HW3 2607   2.589   3.510   1.122
  646SOL    MW4 2608   2.656   3.459   1.099
  647SOL     OW 2609   2.872   3.580   1.249
  647SOL    HW2 2610   2.954   3.533   1.230
  647SOL    HW3 2611   2.807   3.538   1.193
  647SOL    MW4 2612   2.875   3.568   1.239
  648SOL     OW 2613   2.896   3.843   1.118
  648SOL    HW2 2614   2.977   3.878   1.155
  648SOL    HW3 2615   2.890   3.754   1.151
  648SOL    MW4 2616   2.906   3.836   1.127
  649SOL     OW 2617   2.704   4.033   1.197
  649SOL    HW2 2618   2.767   3.965   1.174
  649SOL    HW3 2619   2.620   3.997   1.169
  649SOL    MW4 2620   2.701   4.019   1.190
  650SOL     OW 2621   2.671   4.307   1.085
  650SOL    HW2 2622   2.679   4.215   1.112
  650SOL    HW3 2623   2.610   4.345   1.148
  650SOL    MW4 2624   2.664   4.300   1.097
  651SOL     OW 2625   2.877   4.395   1.213
  651SOL    HW2 2626   2.947   4.343   1.173
  651SOL    HW3 2627   2.798   4.369   1.165
  651SOL    MW4 2628   2.876   4.384   1.201
  652SOL     OW 2629   3.330   4.658   1.115
  652SOL    HW2 2630   3.408   4.698   1.153
  652SOL    HW3 2631   3.262   4.724   1.124
  652SOL    MW4 2632   3.331   4.672   1.121
  653SOL     OW 2633   3.127   0.170   1.174
  653SOL    HW2 2634   3.136   0.164   1.269
  653SOL    HW3 2635   3.072   0.095   1.151
  653SOL    MW4 2636   3.121   0.159   1.184
  654SOL     OW 2637   3.170   0.435   1.127
  654SOL    HW2 2638   3.141   0.345   1.143
  654SOL    HW3 2639   3.092   0.488   1.141
  654SOL    MW4 2640   3.156   0.430   1.131
  655SOL     OW 2641   3.394   0.555   1.222
  655SOL    HW2 2642   3.386   0.644   1.190
  655SOL    HW3 2643   3.312   0.512   1.195
  655SOL    MW4 2644   3.382   0.561   1.214
  656SOL     OW 2645   3.362   0.796   1.086
  656SOL    HW2 2646   3.274   0.816   1.118
  656SOL    HW3 2647   3.352   0.790   0.991
  656SOL    MW4 2648   3.349   0.798   1.077
  657SOL     OW 2649   3.119   0.870   1.209
  657SOL    HW2 2650   3.143   0.864   1.301
  657SOL    HW3 2651   3.134   0.962   1.186
  657SOL    MW4 2652   3.124   0.882   1.218
  658SOL     OW 2653   3.166   1.140   1.149
  658SOL    HW2 2654   3.244   1.192   1.163
  658SOL    HW3 2655   3.093   1.200   1.166
  658SOL    MW4 2656   3.167   1.155   1.153
  659SOL     OW 2657   3.388   1.293   1.220
  659SOL    HW2 2658   3.387   1.306   1.315
  659SOL    HW3 2659   3.374   1.381   1.184
  659SOL    MW4 2660   3.386   1.306   1.228
  660SOL     OW 2661   3.369   1.544   1.125
  660SOL    HW2 2662   3.443   1.599   1.152
  660SOL    HW3 2663   3.292   1.593   1.151
  660SOL    MW4 2664   3.369   1.558   1.132
  661SOL     OW 2665   3.142   1.683   1.204
  661SOL    HW2 2666   3.132   1.716   1.293
  661SOL    HW3 2667   3.123   1.759   1.148
  661SOL    MW4 2668   3.138   1.698   1.208
  662SOL     OW 2669   3.110   1.930   1.080
  662SOL    HW2 2670   3.187   1.971   1.119
  662SOL    HW3 2671   3.037   1.984   1.110
  662SOL    MW4 2672   3.111   1.943   1.089
  663SOL     OW 2673   3.340   2.045   1.212
  663SOL    HW2 2674   3.430   2.015   1.199
  663SOL    HW3 2675   3.340   2.135   1.180
  663SOL    MW4 2676   3.352   2.053   1.206
  664SOL     OW 2677   3.333   2.309   1.140
  664SOL    HW2 2678   3.404   2.358   1.183
  664SOL    HW3 2679   3.255   2.332   1.190
  664SOL    MW4 2680   3.332   2.319   1.152
  665SOL     OW 2681   3.114   2.460   1.235
  665SOL    HW2 2682   3.126   2.461   1.330
  665SOL    HW3 2683   3.156   2.540   1.204
  665SOL    MW4 2684   3.121   2.471   1.244
  666SOL     OW 2685   3.183   2.724   1.166
  666SOL    HW2 2686   3.101   2.766   1.191
  666SOL    HW3 2687   3.186   2.731   1.071
  666SOL    MW4 2688   3.172   2.730   1.157
  667SOL     OW 2689   3.411   2.822   1.271
  667SOL    HW2 2690   3.395   2.911   1.239
  667SOL    HW3 2691   3.329   2.775   1.255
  667SOL    MW4 2692   3.398   2.827   1.265
  668SOL     OW 2693   3.356   3.075   1.122
  668SOL    HW2 2694   3.437   3.112   1.157
  668SOL    HW3 2695   3.287   3.129   1.159
  668SOL    MW4 2696   3.358   3.087   1.132
  669SOL     OW 2697   3.116   3.213   1.243
  669SOL    HW2 2698   3.112   3.307   1.224
  669SOL    HW3 2699   3.026   3.182   1.228
  669SOL    MW4 2700   3.103   3.221   1.239
  670SOL     OW 2701   3.107   3.474   1.182
  670SOL    HW2 2702   3.195   3.512   1.181
  670SOL    HW3 2703   3.086   3.459   1.090
  670SOL    MW4 2704   3.116   3.477   1.170
  671SOL     OW 2705   3.339   3.609   1.200
  671SOL    HW2 2706   3.342   3.628   1.294
  671SOL    HW3 2707   3.417   3.557   1.183
  671SOL    MW4 2708   3.350   3.605   1.210
  672SOL     OW 2709   3.382   3.875   1.108
  672SOL    HW2 2710   3.300   3.907   1.144
  672SOL    HW3 2711   3.384   3.782   1.132
  672SOL    MW4 2712   3.371   3.867   1.116
  673SOL     OW 2713   3.134   3.971   1.190
  673SOL    HW2 2714   3.133   3.981   1.285
  673SOL    HW3 2715   3.117   4.059   1.156
  673SOL    MW4 2716   3.131   3.984   1.198
  674SOL     OW 2717   3.096   4.238   1.096
  674SOL    HW2 2718   3.165   4.303   1.108
  674SOL    HW3 2719   3.101   4.215   1.003
  674SOL    MW4 2720   3.106   4.244   1.085
  675SOL     OW 2721   3.337   4.374   1.161
  675SOL    HW2 2722   3.425   4.342   1.145
  675SOL    HW3 2723   3.341   4.467   1.139
  675SOL    MW4 2724   3.349   4.382   1.156
  676SOL     OW 2725   3.797   4.650   1.138
  676SOL    HW2 2726   3.799   4.557   1.160
  676SOL    HW3 2727   3.805   4.652   1.042
  676SOL    MW4 2728   3.798   4.638   1.128
  677SOL     OW 2729   3.560   0.104   1.192
  677SOL    HW2 2730   3.565   0.175   1.128
  677SOL    HW3 2731   3.642   0.056   1.181
  677SOL    MW4 2732   3.571   0.107   1.182
  678SOL     OW 2733   3.560   0.361   1.063
  678SOL    HW2 2734   3.634   0.376   1.122
  678SOL    HW3 2735   3.498   0.431   1.083
  678SOL    MW4 2736   3.561   0.372   1.074
  679SOL     OW 2737   3.751   0.476   1.233
  679SOL    HW2 2738   3.841   0.467   1.200
  679SOL    HW3 2739   3.729   0.568   1.218
  679SOL    MW4 2740   3.760   0.487   1.227
  680SOL     OW 2741   3.747   0.734   1.143
  680SOL    HW2 2742   3.824   0.778   1.178
  680SOL    HW3 2743   3.672   0.784   1.177
  680SOL    MW4 2744   3.747   0.746   1.152
  681SOL     OW 2745   3.581   0.926   1.208
  681SOL    HW2 2746   3.599   1.008   1.163
  681SOL    HW3 2747   3.496   0.897   1.174
  681SOL    MW4 2748   3.572   0.933   1.198
  682SOL     OW 2749   3.608   1.180   1.104
  682SOL    HW2 2750   3.674   1.223   1.158
  682SOL    HW3 2751   3.525   1.199   1.148
  682SOL    MW4 2752   3.605   1.188   1.117
  683SOL     OW 2753   3.813   1.295   1.248
  683SOL    HW2 2754   3.815   1.321   1.341
  683SOL    HW3 2755   3.811   1.378   1.200
  683SOL    MW4 2756   3.813   1.310   1.254
  684SOL     OW 2757   3.830   1.546   1.123
  684SOL    HW2 2758   3.899   1.608   1.148
  684SOL    HW3 2759   3.833   1.545   1.027
  684SOL    MW4 2760   3.840   1.554   1.113
  685SOL     OW 2761   3.602   1.687   1.210
  685SOL    HW2 2762   3.621   1.780   1.208
  685SOL    HW3 2763   3.683   1.645   1.181
  685SOL    MW4 2764   3.615   1.693   1.206
  686SOL     OW 2765   3.608   1.964   1.204
  686SOL    HW2 2766   3.681   2.018   1.234
  686SOL    HW3 2767   3.628   1.946   1.112
  686SOL    MW4 2768   3.620   1.969   1.196
  687SOL     OW 2769   3.839   2.080   1.275
  687SOL    HW2 2770   3.860   2.067   1.368
  687SOL    HW3 2771   3.896   2.018   1.230
  687SOL    MW4 2772   3.849   2.070   1.282
  688SOL     OW 2773   3.821   2.330   1.132
  688SOL    HW2 2774   3.894   2.385   1.160
  688SOL    HW3 2775   3.838   2.245   1.174
  688SOL    MW4 2776   3.833   2.326   1.141
  689SOL     OW 2777   3.570   2.423   1.227
  689SOL    HW2 2778   3.586   2.428   1.321
  689SOL    HW3 2779   3.649   2.382   1.191
  689SOL    MW4 2780   3.583   2.418   1.235
  690SOL     OW 2781   3.626   2.699   1.143
  690SOL    HW2 2782   3.614   2.608   1.168
  690SOL    HW3 2783   3.555   2.746   1.186
  690SOL    MW4 2784   3.615   2.693   1.152
  691SOL     OW 2785   3.863   2.864   1.243
  691SOL    HW2 2786   3.859   2.871   1.339
  691SOL    HW3 2787   3.795   2.800   1.222
  691SOL    MW4 2788   3.853   2.857   1.253
  692SOL     OW 2789   3.789   3.103   1.151
  692SOL    HW2 2790   3.823   3.023   1.191
  692SOL    HW3 2791   3.768   3.077   1.061
  692SOL    MW4 2792   3.791   3.089   1.144
  693SOL     OW 2793   3.569   3.216   1.239
  693SOL    HW2 2794   3.549   3.299   1.195
  693SOL    HW3 2795   3.648   3.185   1.195
  693SOL    MW4 2796   3.577   3.223   1.227
  694SOL     OW 2797   3.573   3.485   1.129
  694SOL    HW2 2798   3.653   3.527   1.162
  694SOL    HW3 2799   3.589   3.474   1.035
  694SOL    MW4 2800   3.586   3.489   1.121
  695SOL     OW 2801   3.791   3.606   1.227
  695SOL    HW2 2802   3.802   3.594   1.321
  695SOL    HW3 2803   3.815   3.698   1.212
  695SOL    MW4 2804   3.796   3.617   1.237
  696SOL     OW 2805   3.816   3.878   1.136
  696SOL    HW2 2806   3.739   3.922   1.171
  696SOL    HW3 2807   3.806   3.883   1.041
  696SOL    MW4 2808   3.805   3.884   1.128
  697SOL     OW 2809   3.591   4.000   1.232
  697SOL    HW2 2810   3.579   3.973   1.323
  697SOL    HW3 2811   3.518   3.959   1.185
  697SOL    MW4 2812   3.580   3.991   1.238
  698SOL     OW 2813   3.584   4.263   1.134
  698SOL    HW2 2814   3.593   4.178   1.177
  698SOL    HW3 2815   3.589   4.242   1.040
  698SOL    MW4 2816   3.586   4.249   1.127
  699SOL     OW 2817   3.828   4.382   1.224
  699SOL    HW2 2818   3.823   4.377   1.319
  699SOL    HW3 2819   3.751   4.333   1.193
  699SOL    MW4 2820   3.817   4.375   1.232
  700SOL     OW 2821   4.257   0.008   1.113
  700SOL    HW2 2822   4.249  -0.082   1.146
  700SOL    HW3 2823   4.182   0.054   1.149
  700SOL    MW4 2824   4.246   0.002   1.122
  701SOL     OW 2825   4.024   0.117   1.203
  701SOL    HW2 2826   4.020   0.136   1.297
  701SOL    HW3 2827   3.943   0.068   1.186
  701SOL    MW4 2828   4.013   0.113   1.213
  702SOL     OW 2829   3.999   0.401   1.126
  702SOL    HW2 2830   4.005   0.307   1.143
  702SOL    HW3 2831   4.020   0.410   1.033
  702SOL    MW4 2832   4.002   0.390   1.116
  703SOL     OW 2833   4.235   0.492   1.235
  703SOL    HW2 2834   4.224   0.481   1.329
  703SOL    HW3 2835   4.150   0.469   1.198
  703SOL    MW4 2836   4.222   0.487   1.242
  704SOL     OW 2837   4.262   0.765   1.146
  704SOL    HW2 2838   4.239   0.676   1.170
  704SOL    HW3 2839   4.259   0.766   1.050
  704SOL    MW4 2840   4.259   0.754   1.136
  705SOL     OW 2841   3.984   0.881   1.243
  705SOL    HW2 2842   3.991   0.881   1.339
  705SOL    HW3 2843   4.065   0.839   1.213
  705SOL    MW4 2844   3.995   0.875   1.252
  706SOL     OW 2845   4.001   1.143   1.113
  706SOL    HW2 2846   3.987   1.053   1.142
  706SOL    HW3 2847   3.928   1.192   1.149
  706SOL    MW4 2848   3.990   1.137   1.121
  707SOL     OW 2849   4.226   1.296   1.216
  707SOL    HW2 2850   4.219   1.279   1.310
  707SOL    HW3 2851   4.145   1.261   1.179
  707SOL    MW4 2852   4.214   1.289   1.223
  708SOL     OW 2853   4.275   1.550   1.123
  708SOL    HW2 2854   4.270   1.458   1.149
  708SOL    HW3 2855   4.362   1.578   1.153
  708SOL    MW4 2856   4.286   1.541   1.130
  709SOL     OW 2857   4.059   1.705   1.225
  709SOL    HW2 2858   4.088   1.700   1.317
  709SOL    HW3 2859   4.124   1.654   1.177
  709SOL    MW4 2860   4.071   1.698   1.231
  710SOL     OW 2861   4.050   1.962   1.141
  710SOL    HW2 2862   4.053   1.871   1.171
  710SOL    HW3 2863   4.069   1.957   1.048
  710SOL    MW4 2864   4.053   1.949   1.133
  711SOL     OW 2865   4.292   2.052   1.235
  711SOL    HW2 2866   4.301   2.139   1.195
  711SOL    HW3 2867   4.208   2.020   1.203
  711SOL    MW4 2868   4.282   2.059   1.226
  712SOL     OW 2869   4.310   2.280   1.076
  712SOL    HW2 2870   4.234   2.331   1.104
  712SOL    HW3 2871   4.319   2.298   0.983
  712SOL    MW4 2872   4.301   2.289   1.068
  713SOL     OW 2873   4.046   2.452   1.229
  713SOL    HW2 2874   4.044   2.436   1.324
  713SOL    HW3 2875   4.066   2.546   1.221
  713SOL    MW4 2876   4.048   2.463   1.241
  714SOL     OW 2877   4.077   2.723   1.120
  714SOL    HW2 2878   4.001   2.774   1.148
  714SOL    HW3 2879   4.073   2.726   1.024
  714SOL    MW4 2880   4.066   2.730   1.111
  715SOL     OW 2881   4.292   2.841   1.248
  715SOL    HW2 2882   4.303   2.923   1.199
  715SOL    HW3 2883   4.229   2.791   1.196
  715SOL    MW4 2884   4.285   2.845   1.234
  716SOL     OW 2885   4.257   3.099   1.113
  716SOL    HW2 2886   4.187   3.156   1.145
  716SOL    HW3 2887   4.260   3.114   1.019
  716SOL    MW4 2888   4.248   3.108   1.105
  717SOL     OW 2889   4.030   3.251   1.188
  717SOL    HW2 2890   4.037   3.237   1.283
  717SOL    HW3 2891   3.953   3.199   1.163
  717SOL    MW4 2892   4.021   3.242   1.198
  718SOL     OW 2893   4.035   3.519   1.101
  718SOL    HW2 2894   4.036   3.437   1.150
  718SOL    HW3 2895   3.947   3.555   1.116
  718SOL    MW4 2896   4.023   3.513   1.109
  719SOL     OW 2897   4.254   3.641   1.250
  719SOL    HW2 2898   4.182   3.587   1.217
  719SOL    HW3 2899   4.333   3.600   1.216
  719SOL    MW4 2900   4.255   3.629   1.241
  720SOL     OW 2901   4.216   3.880   1.128
  720SOL    HW2 2902   4.146   3.929   1.173
  720SOL    HW3 2903   4.212   3.793   1.167
  720SOL    MW4 2904   4.206   3.875   1.139
  721SOL     OW 2905   4.022   4.028   1.275
  721SOL    HW2 2906   4.032   4.107   1.222
  721SOL    HW3 2907   3.948   3.981   1.235
  721SOL    MW4 2908   4.014   4.032   1.263
  722SOL     OW 2909   4.040   4.263   1.128
  722SOL    HW2 2910   3.956   4.298   1.157
  722SOL    HW3 2911   4.031   4.254   1.033
  722SOL    MW4 2912   4.028   4.266   1.119
  723SOL     OW 2913   4.253   4.417   1.209
  723SOL    HW2 2914   4.175   4.367   1.186
  723SOL    HW3 2915   4.325   4.368   1.169
  723SOL    MW4 2916   4.252   4.404   1.201
  724SOL     OW 2917   0.208   4.654   1.628
  724SOL    HW2 2918   0.288   4.700   1.602
  724SOL    HW3 2919   0.137   4.710   1.598
  724SOL    MW4 2920   0.210   4.668   1.621
  725SOL     OW 2921   4.484   0.123   1.527
  725SOL    HW2 2922   4.401   0.086   1.556
  725SOL    HW3 2923   4.474   0.133   1.432
  725SOL    MW4 2924   4.471   0.120   1.518
  726SOL     OW 2925   4.471   0.386   1.601
  726SOL    HW2 2926   4.461   0.393   1.696
  726SOL    HW3 2927   4.490   0.293   1.586
  726SOL    MW4 2928   4.472   0.374   1.611
  727SOL     OW 2929   0.199   0.534   1.526
  727SOL    HW2 2930   0.123   0.482   1.552
  727SOL    HW3 2931   0.187   0.548   1.432
  727SOL    MW4 2932   0.187   0.529   1.517
  728SOL     OW 2933   0.240   0.782   1.663
  728SOL    HW2 2934   0.302   0.835   1.611
  728SOL    HW3 2935   0.223   0.705   1.609
  728SOL    MW4 2936   0.246   0.779   1.649
  729SOL     OW 2937   0.001   0.863   1.532
  729SOL    HW2 2938  -0.022   0.956   1.540
  729SOL    HW3 2939   0.075   0.851   1.591
  729SOL    MW4 2940   0.008   0.874   1.541
  730SOL     OW 2941   4.467   1.131   1.571
  730SOL    HW2 2942   4.463   1.128   1.666
  730SOL    HW3 2943   4.552   1.170   1.551
  730SOL    MW4 2944   4.478   1.136   1.581
  731SOL     OW 2945   0.226   1.236   1.509
  731SOL    HW2 2946   0.234   1.327   1.539
  731SOL    HW3 2947   0.222   1.242   1.414
  731SOL    MW4 2948   0.226   1.249   1.501
  732SOL     OW 2949   0.200   1.492   1.624
  732SOL    HW2 2950   0.218   1.497   1.718
  732SOL    HW3 2951   0.122   1.547   1.612
  732SOL    MW4 2952   0.192   1.500   1.635
  733SOL     OW 2953   4.475   1.663   1.528
  733SOL    HW2 2954   4.496   1.753   1.556
  733SOL    HW3 2955   4.494   1.663   1.434
  733SOL    MW4 2956   4.480   1.675   1.519
  734SOL     OW 2957   4.479   1.931   1.619
  734SOL    HW2 2958   4.474   1.929   1.714
  734SOL    HW3 2959   4.423   2.005   1.594
  734SOL    MW4 2960   4.471   1.941   1.628
  735SOL     OW 2961   0.230   2.088   1.536
  735SOL    HW2 2962   0.158   2.033   1.566
  735SOL    HW3 2963   0.212   2.101   1.443
  735SOL    MW4 2964   0.218   2.083   1.528
  736SOL     OW 2965   0.214   2.376   1.607
  736SOL    HW2 2966   0.219   2.386   1.702
  736SOL    HW3 2967   0.219   2.281   1.594
  736SOL    MW4 2968   0.215   2.365   1.618
  737SOL     OW 2969   0.003   2.454   1.461
  737SOL    HW2 2970  -0.068   2.425   1.518
  737SOL    HW3 2971   0.082   2.440   1.513
  737SOL    MW4 2972   0.004   2.448   1.476
  738SOL     OW 2973   4.482   2.708   1.591
  738SOL    HW2 2974   4.407   2.760   1.562
  738SOL    HW3 2975   4.473   2.624   1.548
  738SOL    MW4 2976   4.471   2.704   1.582
  739SOL     OW 2977   0.226   2.826   1.505
  739SOL    HW2 2978   0.302   2.776   1.534
  739SOL    HW3 2979   0.151   2.781   1.543
  739SOL    MW4 2980   0.226   2.814   1.514
  740SOL     OW 2981   0.242   3.095   1.596
  740SOL    HW2 2982   0.158   3.130   1.565
  740SOL    HW3 2983   0.245   3.006   1.559
  740SOL    MW4 2984   0.231   3.088   1.587
  741SOL     OW 2985   0.014   3.235   1.494
  741SOL    HW2 2986   0.018   3.324   1.528
  741SOL    HW3 2987   0.004   3.246   1.399
  741SOL    MW4 2988   0.013   3.248   1.486
  742SOL     OW 2989   0.036   3.495   1.608
  742SOL    HW2 2990   0.058   3.506   1.701
  742SOL    HW3 2991  -0.051   3.535   1.600
  742SOL    MW4 2992   0.027   3.502   1.619
  743SOL     OW 2993   0.222   3.613   1.468
  743SOL    HW2 2994   0.225   3.705   1.494
  743SOL    HW3 2995   0.158   3.574   1.527
  743SOL    MW4 2996   0.214   3.620   1.479
  744SOL     OW 2997   0.198   3.862   1.599
  744SOL    HW2 2998   0.209   3.870   1.693
  744SOL    HW3 2999   0.264   3.920   1.562
  744SOL    MW4 3000   0.208   3.870   1.606
  745SOL     OW 3001   4.481   3.987   1.479
  745SOL    HW2 3002   4.482   4.071   1.526
  745SOL    HW3 3003   4.559   3.942   1.510
  745SOL    MW4 3004   4.491   3.992   1.490
  746SOL     OW 3005   0.010   4.238   1.593
  746SOL    HW2 3006   0.002   4.246   1.688
  746SOL    HW3 3007  -0.062   4.290   1.558
  746SOL    MW4 3008  -0.000   4.246   1.601
  747SOL     OW 3009   0.232   4.400   1.508
  747SOL    HW2 3010   0.167   4.340   1.545
  747SOL    HW3 3011   0.219   4.481   1.556
  747SOL    MW4 3012   0.221   4.402   1.519
  748SOL     OW 3013   0.671   4.638   1.639
  748SOL    HW2 3014   0.743   4.689   1.603
  748SOL    HW3 3015   0.592   4.687   1.614
  748SOL    MW4 3016   0.670   4.651   1.631
  749SOL     OW 3017   0.444   0.106   1.556
  749SOL    HW2 3018   0.454   0.199   1.574
  749SOL    HW3 3019   0.442   0.100   1.460
  749SOL    MW4 3020   0.445   0.117   1.546
  750SOL     OW 3021   0.459   0.408   1.601
  750SOL    HW2 3022   0.539   0.448   1.566
  750SOL    HW3 3023   0.388   0.456   1.560
  750SOL    MW4 3024   0.460   0.419   1.591
  751SOL     OW 3025   0.710   0.526   1.508
  751SOL    HW2 3026   0.678   0.615   1.525
  751SOL    HW3 3027   0.698   0.513   1.414
  751SOL    MW4 3028   0.704   0.536   1.498
  752SOL     OW 3029   0.652   0.781   1.571
  752SOL    HW2 3030   0.679   0.766   1.662
  752SOL    HW3 3031   0.727   0.825   1.530
  752SOL    MW4 3032   0.665   0.785   1.578
  753SOL     OW 3033   0.432   0.925   1.480
  753SOL    HW2 3034   0.436   1.003   1.535
  753SOL    HW3 3035   0.511   0.875   1.503
  753SOL    MW4 3036   0.443   0.929   1.490
  754SOL     OW 3037   0.424   1.109   1.671
  754SOL    HW2 3038   0.502   1.153   1.636
  754SOL    HW3 3039   0.351   1.152   1.628
  754SOL    MW4 3040   0.425   1.120   1.661
  755SOL     OW 3041   0.645   1.259   1.535
  755SOL    HW2 3042   0.639   1.354   1.547
  755SOL    HW3 3043   0.626   1.246   1.442
  755SOL    MW4 3044   0.642   1.270   1.524
  756SOL     OW 3045   0.648   1.545   1.625
  756SOL    HW2 3046   0.719   1.572   1.568
  756SOL    HW3 3047   0.568   1.564   1.575
  756SOL    MW4 3048   0.647   1.551   1.611
  757SOL     OW 3049   0.421   1.638   1.504
  757SOL    HW2 3050   0.426   1.732   1.524
  757SOL    HW3 3051   0.336   1.611   1.539
  757SOL    MW4 3052   0.411   1.647   1.512
  758SOL     OW 3053   0.429   1.903   1.588
  758SOL    HW2 3054   0.440   1.903   1.684
  758SOL    HW3 3055   0.358   1.965   1.572
  758SOL    MW4 3056   0.421   1.911   1.599
  759SOL     OW 3057   0.653   2.071   1.511
  759SOL    HW2 3058   0.735   2.027   1.532
  759SOL    HW3 3059   0.587   2.025   1.563
  759SOL    MW4 3060   0.655   2.059   1.521
  760SOL     OW 3061   0.630   2.335   1.608
  760SOL    HW2 3062   0.551   2.370   1.569
  760SOL    HW3 3063   0.628   2.241   1.587
  760SOL    MW4 3064   0.619   2.327   1.600
  761SOL     OW 3065   0.434   2.461   1.455
  761SOL    HW2 3066   0.452   2.544   1.499
  761SOL    HW3 3067   0.350   2.433   1.491
  761SOL    MW4 3068   0.425   2.468   1.466
  762SOL     OW 3069   0.447   2.689   1.597
  762SOL    HW2 3070   0.446   2.682   1.692
  762SOL    HW3 3071   0.516   2.753   1.578
  762SOL    MW4 3072   0.456   2.696   1.607
  763SOL     OW 3073   0.671   2.849   1.523
  763SOL    HW2 3074   0.657   2.939   1.550
  763SOL    HW3 3075   0.649   2.848   1.430
  763SOL    MW4 3076   0.666   2.861   1.514
  764SOL     OW 3077   0.666   3.115   1.583
  764SOL    HW2 3078   0.746   3.150   1.543
  764SOL    HW3 3079   0.597   3.173   1.553
  764SOL    MW4 3080   0.668   3.127   1.574
  765SOL     OW 3081   0.456   3.262   1.449
  765SOL    HW2 3082   0.376   3.226   1.487
  765SOL    HW3 3083   0.443   3.254   1.354
  765SOL    MW4 3084   0.444   3.256   1.441
  766SOL     OW 3085   0.448   3.519   1.586
  766SOL    HW2 3086   0.460   3.438   1.536
  766SOL    HW3 3087   0.368   3.557   1.551
  766SOL    MW4 3088   0.439   3.513   1.575
  767SOL     OW 3089   0.667   3.640   1.464
  767SOL    HW2 3090   0.735   3.584   1.502
  767SOL    HW3 3091   0.585   3.603   1.495
  767SOL    MW4 3092   0.665   3.628   1.473
  768SOL     OW 3093   0.646   3.888   1.582
  768SOL    HW2 3094   0.720   3.930   1.538
  768SOL    HW3 3095   0.646   3.798   1.548
  768SOL    MW4 3096   0.656   3.882   1.572
  769SOL     OW 3097   0.417   4.017   1.485
  769SOL    HW2 3098   0.494   3.974   1.523
  769SOL    HW3 3099   0.442   4.035   1.394
  769SOL    MW4 3100   0.431   4.014   1.478
  770SOL     OW 3101   0.440   4.264   1.627
  770SOL    HW2 3102   0.440   4.181   1.579
  770SOL    HW3 3103   0.379   4.320   1.579
  770SOL    MW4 3104   0.432   4.261   1.614
  771SOL     OW 3105   0.662   4.392   1.508
  771SOL    HW2 3106   0.582   4.356   1.549
  771SOL    HW3 3107   0.674   4.477   1.551
  771SOL    MW4 3108   0.653   4.398   1.519
  772SOL     OW 3109   1.111   4.644   1.635
  772SOL    HW2 3110   1.117   4.668   1.727
  772SOL    HW3 3111   1.182   4.693   1.593
  772SOL    MW4 3112   1.122   4.654   1.642
  773SOL     OW 3113   0.873   0.114   1.542
  773SOL    HW2 3114   0.890   0.204   1.568
  773SOL    HW3 3115   0.940   0.063   1.588
  773SOL    MW4 3116   0.884   0.119   1.552
  774SOL     OW 3117   0.912   0.380   1.634
  774SOL    HW2 3118   0.899   0.400   1.726
  774SOL    HW3 3119   0.843   0.430   1.589
  774SOL    MW4 3120   0.901   0.389   1.640
  775SOL     OW 3121   1.128   0.531   1.512
  775SOL    HW2 3122   1.111   0.616   1.553
  775SOL    HW3 3123   1.056   0.475   1.543
  775SOL    MW4 3124   1.116   0.535   1.522
  776SOL     OW 3125   1.113   0.808   1.605
  776SOL    HW2 3126   1.111   0.796   1.700
  776SOL    HW3 3127   1.193   0.857   1.590
  776SOL    MW4 3128   1.123   0.813   1.616
  777SOL     OW 3129   0.890   0.879   1.470
  777SOL    HW2 3130   0.977   0.865   1.506
  777SOL    HW3 3131   0.894   0.840   1.382
  777SOL    MW4 3132   0.902   0.872   1.463
  778SOL     OW 3133   0.877   1.135   1.619
  778SOL    HW2 3134   0.879   1.052   1.572
  778SOL    HW3 3135   0.797   1.178   1.588
  778SOL    MW4 3136   0.866   1.129   1.609
  779SOL     OW 3137   1.112   1.318   1.532
  779SOL    HW2 3138   1.194   1.297   1.577
  779SOL    HW3 3139   1.045   1.272   1.582
  779SOL    MW4 3140   1.114   1.309   1.544
  780SOL     OW 3141   1.093   1.578   1.617
  780SOL    HW2 3142   1.164   1.623   1.571
  780SOL    HW3 3143   1.090   1.491   1.577
  780SOL    MW4 3144   1.102   1.573   1.606
  781SOL     OW 3145   0.850   1.675   1.506
  781SOL    HW2 3146   0.934   1.648   1.545
  781SOL    HW3 3147   0.868   1.680   1.412
  781SOL    MW4 3148   0.863   1.672   1.499
  782SOL     OW 3149   0.872   1.942   1.606
  782SOL    HW2 3150   0.957   1.980   1.586
  782SOL    HW3 3151   0.874   1.854   1.568
  782SOL    MW4 3152   0.883   1.935   1.598
  783SOL     OW 3153   1.118   2.072   1.526
  783SOL    HW2 3154   1.203   2.037   1.551
  783SOL    HW3 3155   1.117   2.162   1.560
  783SOL    MW4 3156   1.129   2.080   1.534
  784SOL     OW 3157   1.082   2.330   1.630
  784SOL    HW2 3158   1.149   2.385   1.590
  784SOL    HW3 3159   1.002   2.352   1.583
  784SOL    MW4 3160   1.081   2.340   1.618
  785SOL     OW 3161   0.852   2.451   1.494
  785SOL    HW2 3162   0.856   2.542   1.525
  785SOL    HW3 3163   0.773   2.415   1.536
  785SOL    MW4 3164   0.842   2.458   1.504
  786SOL     OW 3165   0.884   2.709   1.607
  786SOL    HW2 3166   0.886   2.700   1.702
  786SOL    HW3 3167   0.801   2.752   1.588
  786SOL    MW4 3168   0.873   2.714   1.617
  787SOL     OW 3169   1.114   2.819   1.519
  787SOL    HW2 3170   1.093   2.912   1.525
  787SOL    HW3 3171   1.035   2.774   1.549
  787SOL    MW4 3172   1.101   2.825   1.524
  788SOL     OW 3173   1.121   3.091   1.594
  788SOL    HW2 3174   1.136   3.095   1.689
  788SOL    HW3 3175   1.206   3.113   1.555
  788SOL    MW4 3176   1.135   3.094   1.602
  789SOL     OW 3177   0.908   3.238   1.503
  789SOL    HW2 3178   0.987   3.204   1.544
  789SOL    HW3 3179   0.914   3.208   1.412
  789SOL    MW4 3180   0.919   3.230   1.496
  790SOL     OW 3181   0.874   3.503   1.596
  790SOL    HW2 3182   0.950   3.550   1.561
  790SOL    HW3 3183   0.888   3.412   1.568
  790SOL    MW4 3184   0.886   3.497   1.588
  791SOL     OW 3185   1.107   3.629   1.468
  791SOL    HW2 3186   1.179   3.572   1.495
  791SOL    HW3 3187   1.106   3.623   1.373
  791SOL    MW4 3188   1.116   3.621   1.459
  792SOL     OW 3189   1.090   3.875   1.591
  792SOL    HW2 3190   1.177   3.914   1.576
  792SOL    HW3 3191   1.093   3.792   1.545
  792SOL    MW4 3192   1.102   3.869   1.583
  793SOL     OW 3193   0.861   4.015   1.477
  793SOL    HW2 3194   0.861   4.108   1.502
  793SOL    HW3 3195   0.935   3.978   1.524
  793SOL    MW4 3196   0.871   4.022   1.486
  794SOL     OW 3197   0.902   4.257   1.604
  794SOL    HW2 3198   0.914   4.263   1.699
  794SOL    HW3 3199   0.820   4.302   1.587
  794SOL    MW4 3200   0.893   4.264   1.614
  795SOL     OW 3201   1.128   4.387   1.500
  795SOL    HW2 3202   1.051   4.340   1.532
  795SOL    HW3 3203   1.122   4.473   1.540
  795SOL    MW4 3204   1.117   4.392   1.510
  796SOL     OW 3205   1.537   4.657   1.567
  796SOL    HW2 3206   1.540   4.656   1.663
  796SOL    HW3 3207   1.456   4.704   1.547
  796SOL    MW4 3208   1.527   4.663   1.577
  797SOL     OW 3209   1.299   0.137   1.487
  797SOL    HW2 3210   1.309   0.223   1.529
  797SOL    HW3 3211   1.308   0.156   1.393
  797SOL    MW4 3212   1.302   0.151   1.480
  798SOL     OW 3213   1.343   0.377   1.594
  798SOL    HW2 3214   1.425   0.416   1.564
  798SOL    HW3 3215   1.275   0.438   1.564
  798SOL    MW4 3216   1.345   0.390   1.586
  799SOL     OW 3217   1.567   0.519   1.488
  799SOL    HW2 3218   1.637   0.484   1.543
  799SOL    HW3 3219   1.604   0.523   1.400
  799SOL    MW4 3220   1.581   0.515   1.484
  800SOL     OW 3221   1.585   0.806   1.571
  800SOL    HW2 3222   1.573   0.795   1.665
  800SOL    HW3 3223   1.564   0.721   1.534
  800SOL    MW4 3224   1.580   0.794   1.578
  801SOL     OW 3225   1.345   0.963   1.517
  801SOL    HW2 3226   1.424   0.919   1.550
  801SOL    HW3 3227   1.347   0.948   1.423
  801SOL    MW4 3228   1.356   0.955   1.509
  802SOL     OW 3229   1.348   1.235   1.623
  802SOL    HW2 3230   1.354   1.215   1.716
  802SOL    HW3 3231   1.357   1.151   1.579
  802SOL    MW4 3232   1.350   1.222   1.629
  803SOL     OW 3233   1.559   1.376   1.488
  803SOL    HW2 3234   1.485   1.333   1.531
  803SOL    HW3 3235   1.547   1.355   1.395
  803SOL    MW4 3236   1.547   1.367   1.482
  804SOL     OW 3237   1.531   1.625   1.633
  804SOL    HW2 3238   1.524   1.611   1.727
  804SOL    HW3 3239   1.562   1.541   1.598
  804SOL    MW4 3240   1.534   1.612   1.641
  805SOL     OW 3241   1.301   1.721   1.501
  805SOL    HW2 3242   1.374   1.671   1.538
  805SOL    HW3 3243   1.308   1.708   1.406
  805SOL    MW4 3244   1.312   1.713   1.493
  806SOL     OW 3245   1.354   1.964   1.605
  806SOL    HW2 3246   1.373   1.953   1.698
  806SOL    HW3 3247   1.358   1.875   1.570
  806SOL    MW4 3248   1.357   1.951   1.612
  807SOL     OW 3249   1.574   2.073   1.486
  807SOL    HW2 3250   1.499   2.026   1.523
  807SOL    HW3 3251   1.564   2.062   1.391
  807SOL    MW4 3252   1.563   2.066   1.478
  808SOL     OW 3253   1.522   2.326   1.595
  808SOL    HW2 3254   1.607   2.370   1.593
  808SOL    HW3 3255   1.536   2.245   1.546
  808SOL    MW4 3256   1.535   2.321   1.589
  809SOL     OW 3257   1.302   2.462   1.510
  809SOL    HW2 3258   1.308   2.554   1.537
  809SOL    HW3 3259   1.375   2.419   1.554
  809SOL    MW4 3260   1.312   2.469   1.519
  810SOL     OW 3261   1.332   2.701   1.652
  810SOL    HW2 3262   1.388   2.746   1.589
  810SOL    HW3 3263   1.244   2.735   1.634
  810SOL    MW4 3264   1.328   2.712   1.641
  811SOL     OW 3265   1.521   2.831   1.500
  811SOL    HW2 3266   1.595   2.787   1.543
  811SOL    HW3 3267   1.542   2.829   1.407
  811SOL    MW4 3268   1.534   2.825   1.494
  812SOL     OW 3269   1.551   3.081   1.599
  812SOL    HW2 3270   1.631   3.125   1.570
  812SOL    HW3 3271   1.555   2.994   1.559
  812SOL    MW4 3272   1.562   3.075   1.590
  813SOL     OW 3273   1.336   3.203   1.486
  813SOL    HW2 3274   1.342   3.292   1.521
  813SOL    HW3 3275   1.410   3.157   1.524
  813SOL    MW4 3276   1.347   3.209   1.495
  814SOL     OW 3277   1.311   3.473   1.578
  814SOL    HW2 3278   1.316   3.471   1.673
  814SOL    HW3 3279   1.395   3.510   1.550
  814SOL    MW4 3280   1.323   3.478   1.587
  815SOL     OW 3281   1.541   3.568   1.498
  815SOL    HW2 3282   1.541   3.662   1.517
  815SOL    HW3 3283   1.549   3.562   1.403
  815SOL    MW4 3284   1.542   3.580   1.488
  816SOL     OW 3285   1.586   3.832   1.591
  816SOL    HW2 3286   1.596   3.848   1.685
  816SOL    HW3 3287   1.511   3.885   1.566
  816SOL    MW4 3288   1.578   3.841   1.600
  817SOL     OW 3289   1.363   3.966   1.526
  817SOL    HW2 3290   1.361   4.051   1.569
  817SOL    HW3 3291   1.333   3.983   1.437
  817SOL    MW4 3292   1.358   3.979   1.520
  818SOL     OW 3293   1.347   4.230   1.623
  818SOL    HW2 3294   1.422   4.276   1.586
  818SOL    HW3 3295   1.270   4.275   1.588
  818SOL    MW4 3296   1.347   4.242   1.614
  819SOL     OW 3297   1.531   4.384   1.510
  819SOL    HW2 3298   1.612   4.347   1.545
  819SOL    HW3 3299   1.541   4.478   1.523
  819SOL    MW4 3300   1.543   4.392   1.516
  820SOL     OW 3301   1.996   0.005   1.602
  820SOL    HW2 3302   1.999   0.003   1.698
  820SOL    HW3 3303   1.925   0.066   1.582
  820SOL    MW4 3304   1.987   0.013   1.612
  821SOL     OW 3305   1.778   0.153   1.543
  821SOL    HW2 3306   1.700   0.103   1.569
  821SOL    HW3 3307   1.787   0.137   1.449
  821SOL    MW4 3308   1.769   0.144   1.534
  822SOL     OW 3309   1.786   0.432   1.652
  822SOL    HW2 3310   1.856   0.470   1.599
  822SOL    HW3 3311   1.786   0.339   1.627
  822SOL    MW4 3312   1.796   0.424   1.641
  823SOL     OW 3313   2.013   0.523   1.495
  823SOL    HW2 3314   2.102   0.492   1.510
  823SOL    HW3 3315   2.017   0.617   1.511
  823SOL    MW4 3316   2.025   0.531   1.499
  824SOL     OW 3317   2.038   0.791   1.540
  824SOL    HW2 3318   2.120   0.837   1.522
  824SOL    HW3 3319   1.972   0.839   1.491
  824SOL    MW4 3320   2.040   0.803   1.531
  825SOL     OW 3321   1.781   0.971   1.453
  825SOL    HW2 3322   1.778   1.048   1.510
  825SOL    HW3 3323   1.708   0.917   1.483
  825SOL    MW4 3324   1.771   0.974   1.465
  826SOL     OW 3325   1.770   1.214   1.626
  826SOL    HW2 3326   1.852   1.255   1.598
  826SOL    HW3 3327   1.702   1.257   1.573
  826SOL    MW4 3328   1.772   1.225   1.615
  827SOL     OW 3329   2.011   1.320   1.518
  827SOL    HW2 3330   2.015   1.413   1.541
  827SOL    HW3 3331   2.012   1.320   1.422
  827SOL    MW4 3332   2.012   1.332   1.508
  828SOL     OW 3333   2.032   1.600   1.617
  828SOL    HW2 3334   2.108   1.627   1.564
  828SOL    HW3 3335   1.958   1.643   1.575
  828SOL    MW4 3336   2.033   1.610   1.604
  829SOL     OW 3337   1.779   1.704   1.507
  829SOL    HW2 3338   1.698   1.679   1.550
  829SOL    HW3 3339   1.757   1.709   1.414
  829SOL    MW4 3340   1.766   1.701   1.501
  830SOL     OW 3341   1.822   1.982   1.580
  830SOL    HW2 3342   1.822   1.891   1.553
  830SOL    HW3 3343   1.739   2.017   1.547
  830SOL    MW4 3344   1.811   1.975   1.572
  831SOL     OW 3345   2.054   2.097   1.484
  831SOL    HW2 3346   2.123   2.032   1.499
  831SOL    HW3 3347   1.975   2.055   1.518
  831SOL    MW4 3348   2.053   2.083   1.491
  832SOL     OW 3349   2.015   2.338   1.626
  832SOL    HW2 3350   2.017   2.312   1.719
  832SOL    HW3 3351   2.026   2.256   1.578
  832SOL    MW4 3352   2.017   2.324   1.632
  833SOL     OW 3353   1.772   2.445   1.554
  833SOL    HW2 3354   1.857   2.410   1.581
  833SOL    HW3 3355   1.777   2.451   1.459
  833SOL    MW4 3356   1.784   2.441   1.545
  834SOL     OW 3357   1.756   2.709   1.619
  834SOL    HW2 3358   1.839   2.745   1.586
  834SOL    HW3 3359   1.760   2.616   1.595
  834SOL    MW4 3360   1.768   2.702   1.611
  835SOL     OW 3361   1.975   2.817   1.502
  835SOL    HW2 3362   2.009   2.903   1.526
  835SOL    HW3 3363   1.986   2.812   1.407
  835SOL    MW4 3364   1.981   2.827   1.493
  836SOL     OW 3365   2.007   3.078   1.595
  836SOL    HW2 3366   2.019   3.068   1.690
  836SOL    HW3 3367   2.082   3.130   1.567
  836SOL    MW4 3368   2.019   3.083   1.604
  837SOL     OW 3369   1.780   3.205   1.490
  837SOL    HW2 3370   1.771   3.288   1.537
  837SOL    HW3 3371   1.860   3.166   1.525
  837SOL    MW4 3372   1.789   3.211   1.501
  838SOL     OW 3373   1.801   3.463   1.588
  838SOL    HW2 3374   1.811   3.469   1.683
  838SOL    HW3 3375   1.713   3.496   1.570
  838SOL    MW4 3376   1.791   3.468   1.598
  839SOL     OW 3377   1.999   3.629   1.483
  839SOL    HW2 3378   2.069   3.580   1.526
  839SOL    HW3 3379   1.919   3.583   1.507
  839SOL    MW4 3380   1.998   3.616   1.492
  840SOL     OW 3381   2.009   3.876   1.593
  840SOL    HW2 3382   2.078   3.924   1.547
  840SOL    HW3 3383   2.009   3.789   1.552
  840SOL    MW4 3384   2.018   3.870   1.581
  841SOL     OW 3385   1.798   4.014   1.481
  841SOL    HW2 3386   1.874   3.984   1.531
  841SOL    HW3 3387   1.726   3.958   1.511
  841SOL    MW4 3388   1.798   4.003   1.491
  842SOL     OW 3389   1.761   4.262   1.627
  842SOL    HW2 3390   1.841   4.307   1.599
  842SOL    HW3 3391   1.761   4.180   1.578
  842SOL    MW4 3392   1.772   4.257   1.617
  843SOL     OW 3393   1.979   4.406   1.504
  843SOL    HW2 3394   2.052   4.352   1.534
  843SOL    HW3 3395   1.996   4.492   1.543
  843SOL    MW4 3396   1.991   4.410   1.513
  844SOL     OW 3397   2.471   4.648   1.597
  844SOL    HW2 3398   2.479   4.677   1.688
  844SOL    HW3 3399   2.392   4.693   1.564
  844SOL    MW4 3400   2.462   4.658   1.604
  845SOL     OW 3401   2.231   0.107   1.489
  845SOL    HW2 3402   2.161   0.050   1.522
  845SOL    HW3 3403   2.235   0.087   1.395
  845SOL    MW4 3404   2.222   0.097   1.481
  846SOL     OW 3405   2.247   0.398   1.553
  846SOL    HW2 3406   2.243   0.387   1.648
  846SOL    HW3 3407   2.241   0.310   1.517
  846SOL    MW4 3408   2.246   0.385   1.561
  847SOL     OW 3409   2.499   0.529   1.487
  847SOL    HW2 3410   2.573   0.474   1.513
  847SOL    HW3 3411   2.422   0.482   1.519
  847SOL    MW4 3412   2.498   0.515   1.495
  848SOL     OW 3413   2.506   0.779   1.576
  848SOL    HW2 3414   2.420   0.810   1.548
  848SOL    HW3 3415   2.507   0.687   1.552
  848SOL    MW4 3416   2.495   0.771   1.569
  849SOL     OW 3417   2.278   0.912   1.475
  849SOL    HW2 3418   2.280   0.998   1.518
  849SOL    HW3 3419   2.292   0.932   1.382
  849SOL    MW4 3420   2.280   0.926   1.468
  850SOL     OW 3421   2.258   1.180   1.590
  850SOL    HW2 3422   2.260   1.176   1.686
  850SOL    HW3 3423   2.181   1.232   1.570
  850SOL    MW4 3424   2.248   1.186   1.600
  851SOL     OW 3425   2.471   1.312   1.477
  851SOL    HW2 3426   2.394   1.269   1.515
  851SOL    HW3 3427   2.459   1.305   1.383
  851SOL    MW4 3428   2.459   1.305   1.470
  852SOL     OW 3429   2.491   1.543   1.623
  852SOL    HW2 3430   2.566   1.597   1.600
  852SOL    HW3 3431   2.497   1.467   1.566
  852SOL    MW4 3432   2.502   1.540   1.613
  853SOL     OW 3433   2.269   1.648   1.483
  853SOL    HW2 3434   2.351   1.610   1.516
  853SOL    HW3 3435   2.281   1.652   1.388
  853SOL    MW4 3436   2.282   1.644   1.475
  854SOL     OW 3437   2.260   1.912   1.554
  854SOL    HW2 3438   2.261   1.925   1.649
  854SOL    HW3 3439   2.249   1.818   1.542
  854SOL    MW4 3440   2.259   1.902   1.565
  855SOL     OW 3441   2.494   2.054   1.494
  855SOL    HW2 3442   2.425   1.999   1.532
  855SOL    HW3 3443   2.481   2.047   1.400
  855SOL    MW4 3444   2.483   2.046   1.487
  856SOL     OW 3445   2.476   2.331   1.581
  856SOL    HW2 3446   2.456   2.326   1.674
  856SOL    HW3 3447   2.479   2.240   1.552
  856SOL    MW4 3448   2.474   2.318   1.589
  857SOL     OW 3449   2.232   2.449   1.503
  857SOL    HW2 3450   2.319   2.418   1.526
  857SOL    HW3 3451   2.172   2.397   1.556
  857SOL    MW4 3452   2.235   2.438   1.513
  858SOL     OW 3453   2.233   2.717   1.570
  858SOL    HW2 3454   2.234   2.626   1.539
  858SOL    HW3 3455   2.144   2.747   1.552
  858SOL    MW4 3456   2.221   2.709   1.563
  859SOL     OW 3457   2.452   2.847   1.488
  859SOL    HW2 3458   2.454   2.916   1.554
  859SOL    HW3 3459   2.381   2.788   1.516
  859SOL    MW4 3460   2.443   2.848   1.500
  860SOL     OW 3461   2.426   3.082   1.618
  860SOL    HW2 3462   2.510   3.124   1.605
  860SOL    HW3 3463   2.362   3.144   1.583
  860SOL    MW4 3464   2.428   3.096   1.612
  861SOL     OW 3465   2.225   3.236   1.509
  861SOL    HW2 3466   2.211   3.324   1.542
  861SOL    HW3 3467   2.231   3.247   1.414
  861SOL    MW4 3468   2.224   3.249   1.501
  862SOL     OW 3469   2.213   3.500   1.615
  862SOL    HW2 3470   2.242   3.508   1.706
  862SOL    HW3 3471   2.286   3.532   1.563
  862SOL    MW4 3472   2.226   3.505   1.620
  863SOL     OW 3473   2.451   3.571   1.483
  863SOL    HW2 3474   2.529   3.537   1.527
  863SOL    HW3 3475   2.443   3.661   1.514
  863SOL    MW4 3476   2.460   3.578   1.493
  864SOL     OW 3477   2.432   3.835   1.568
  864SOL    HW2 3478   2.423   3.833   1.663
  864SOL    HW3 3479   2.507   3.893   1.553
  864SOL    MW4 3480   2.441   3.842   1.578
  865SOL     OW 3481   2.238   4.026   1.501
  865SOL    HW2 3482   2.302   3.962   1.535
  865SOL    HW3 3483   2.250   4.023   1.406
  865SOL    MW4 3484   2.248   4.017   1.493
  866SOL     OW 3485   2.194   4.272   1.633
  866SOL    HW2 3486   2.262   4.325   1.591
  866SOL    HW3 3487   2.192   4.191   1.583
  866SOL    MW4 3488   2.203   4.268   1.621
  867SOL     OW 3489   2.395   4.405   1.517
  867SOL    HW2 3490   2.416   4.496   1.538
  867SOL    HW3 3491   2.416   4.397   1.424
  867SOL    MW4 3492   2.401   4.416   1.507
  868SOL     OW 3493   2.934   4.642   1.543
  868SOL    HW2 3494   2.933   4.636   1.638
  868SOL    HW3 3495   2.849   4.680   1.520
  868SOL    MW4 3496   2.923   4.646   1.552
  869SOL     OW 3497   2.711   0.122   1.488
  869SOL    HW2 3498   2.708   0.211   1.522
  869SOL    HW3 3499   2.632   0.081   1.521
  869SOL    MW4 3500   2.700   0.128   1.497
  870SOL     OW 3501   2.709   0.381   1.605
  870SOL    HW2 3502   2.716   0.377   1.700
  870SOL    HW3 3503   2.793   0.417   1.577
  870SOL    MW4 3504   2.721   0.385   1.614
  871SOL     OW 3505   2.912   0.515   1.462
  871SOL    HW2 3506   2.910   0.605   1.496
  871SOL    HW3 3507   2.910   0.525   1.367
  871SOL    MW4 3508   2.911   0.529   1.454
  872SOL     OW 3509   2.922   0.770   1.570
  872SOL    HW2 3510   2.913   0.763   1.665
  872SOL    HW3 3511   2.865   0.843   1.546
  872SOL    MW4 3512   2.913   0.778   1.580
  873SOL     OW 3513   2.726   0.949   1.485
  873SOL    HW2 3514   2.660   0.886   1.511
  873SOL    HW3 3515   2.756   0.919   1.399
  873SOL    MW4 3516   2.721   0.937   1.477
  874SOL     OW 3517   2.702   1.230   1.593
  874SOL    HW2 3518   2.712   1.139   1.566
  874SOL    HW3 3519   2.632   1.264   1.538
  874SOL    MW4 3520   2.694   1.223   1.583
  875SOL     OW 3521   2.955   1.333   1.490
  875SOL    HW2 3522   3.021   1.273   1.523
  875SOL    HW3 3523   2.872   1.293   1.516
  875SOL    MW4 3524   2.952   1.320   1.498
  876SOL     OW 3525   2.929   1.587   1.601
  876SOL    HW2 3526   2.850   1.625   1.562
  876SOL    HW3 3527   2.939   1.503   1.558
  876SOL    MW4 3528   2.920   1.581   1.590
  877SOL     OW 3529   2.713   1.698   1.477
  877SOL    HW2 3530   2.725   1.790   1.502
  877SOL    HW3 3531   2.682   1.702   1.387
  877SOL    MW4 3532   2.711   1.711   1.468
  878SOL     OW 3533   2.758   1.976   1.562
  878SOL    HW2 3534   2.757   1.955   1.655
  878SOL    HW3 3535   2.672   2.015   1.545
  878SOL    MW4 3536   2.747   1.979   1.572
  879SOL     OW 3537   2.973   2.124   1.498
  879SOL    HW2 3538   2.963   2.209   1.541
  879SOL    HW3 3539   2.889   2.079   1.514
  879SOL    MW4 3540   2.960   2.129   1.506
  880SOL     OW 3541   2.925   2.357   1.649
  880SOL    HW2 3542   2.910   2.337   1.741
  880SOL    HW3 3543   2.841   2.390   1.617
  880SOL    MW4 3544   2.912   2.359   1.657
  881SOL     OW 3545   2.701   2.457   1.474
  881SOL    HW2 3546   2.697   2.543   1.517
  881SOL    HW3 3547   2.623   2.411   1.506
  881SOL    MW4 3548   2.690   2.462   1.484
  882SOL     OW 3549   2.691   2.718   1.587
  882SOL    HW2 3550   2.762   2.780   1.569
  882SOL    HW3 3551   2.611   2.766   1.562
  882SOL    MW4 3552   2.690   2.733   1.581
  883SOL     OW 3553   2.906   2.862   1.539
  883SOL    HW2 3554   2.978   2.814   1.580
  883SOL    HW3 3555   2.908   2.948   1.580
  883SOL    MW4 3556   2.916   2.867   1.549
  884SOL     OW 3557   2.896   3.117   1.628
  884SOL    HW2 3558   2.901   3.141   1.721
  884SOL    HW3 3559   2.972   3.159   1.589
  884SOL    MW4 3560   2.907   3.125   1.635
  885SOL     OW 3561   2.647   3.199   1.529
  885SOL    HW2 3562   2.737   3.167   1.533
  885SOL    HW3 3563   2.632   3.216   1.436
  885SOL    MW4 3564   2.657   3.197   1.517
  886SOL     OW 3565   2.682   3.452   1.627
  886SOL    HW2 3566   2.659   3.462   1.720
  886SOL    HW3 3567   2.670   3.359   1.609
  886SOL    MW4 3568   2.678   3.441   1.637
  887SOL     OW 3569   2.894   3.601   1.545
  887SOL    HW2 3570   2.830   3.546   1.590
  887SOL    HW3 3571   2.891   3.572   1.454
  887SOL    MW4 3572   2.885   3.590   1.539
  888SOL     OW 3573   2.879   3.887   1.586
  888SOL    HW2 3574   2.796   3.919   1.549
  888SOL    HW3 3575   2.881   3.794   1.565
  888SOL    MW4 3576   2.868   3.879   1.578
  889SOL     OW 3577   2.657   4.007   1.483
  889SOL    HW2 3578   2.656   4.094   1.522
  889SOL    HW3 3579   2.656   4.023   1.388
  889SOL    MW4 3580   2.657   4.021   1.476
  890SOL     OW 3581   2.639   4.276   1.588
  890SOL    HW2 3582   2.715   4.320   1.551
  890SOL    HW3 3583   2.564   4.331   1.562
  890SOL    MW4 3584   2.639   4.289   1.580
  891SOL     OW 3585   2.856   4.395   1.467
  891SOL    HW2 3586   2.883   4.485   1.489
  891SOL    HW3 3587   2.849   4.396   1.371
  891SOL    MW4 3588   2.859   4.407   1.457
  892SOL     OW 3589   3.331   4.664   1.590
  892SOL    HW2 3590   3.411   4.699   1.550
  892SOL    HW3 3591   3.330   4.571   1.565
  892SOL    MW4 3592   3.342   4.656   1.581
  893SOL     OW 3593   3.133   0.124   1.432
  893SOL    HW2 3594   3.205   0.082   1.479
  893SOL    HW3 3595   3.055   0.077   1.460
  893SOL    MW4 3596   3.132   0.112   1.442
  894SOL     OW 3597   3.150   0.385   1.536
  894SOL    HW2 3598   3.140   0.296   1.502
  894SOL    HW3 3599   3.066   0.428   1.517
  894SOL    MW4 3600   3.137   0.379   1.529
  895SOL     OW 3601   3.392   0.536   1.499
  895SOL    HW2 3602   3.312   0.485   1.512
  895SOL    HW3 3603   3.399   0.546   1.404
  895SOL    MW4 3604   3.382   0.531   1.488
  896SOL     OW 3605   3.396   0.785   1.620
  896SOL    HW2 3606   3.378   0.775   1.713
  896SOL    HW3 3607   3.410   0.696   1.588
  896SOL    MW4 3608   3.396   0.772   1.628
  897SOL     OW 3609   3.176   0.882   1.494
  897SOL    HW2 3610   3.243   0.842   1.550
  897SOL    HW3 3611   3.097   0.829   1.509
  897SOL    MW4 3612   3.174   0.870   1.503
  898SOL     OW 3613   3.132   1.146   1.583
  898SOL    HW2 3614   3.162   1.145   1.674
  898SOL    HW3 3615   3.132   1.054   1.556
  898SOL    MW4 3616   3.136   1.134   1.591
  899SOL     OW 3617   3.326   1.304   1.485
  899SOL    HW2 3618   3.409   1.270   1.520
  899SOL    HW3 3619   3.259   1.246   1.520
  899SOL    MW4 3620   3.328   1.292   1.494
  900SOL     OW 3621   3.335   1.572   1.557
  900SOL    HW2 3622   3.320   1.546   1.648
  900SOL    HW3 3623   3.357   1.491   1.511
  900SOL    MW4 3624   3.336   1.558   1.563
  901SOL     OW 3625   3.140   1.725   1.459
  901SOL    HW2 3626   3.215   1.675   1.490
  901SOL    HW3 3627   3.065   1.687   1.505
  901SOL    MW4 3628   3.140   1.713   1.469
  902SOL     OW 3629   3.174   1.970   1.606
  902SOL    HW2 3630   3.155   1.883   1.570
  902SOL    HW3 3631   3.103   2.025   1.573
  902SOL    MW4 3632   3.162   1.966   1.597
  903SOL     OW 3633   3.406   2.095   1.511
  903SOL    HW2 3634   3.333   2.043   1.545
  903SOL    HW3 3635   3.393   2.095   1.416
  903SOL    MW4 3636   3.395   2.088   1.503
  904SOL     OW 3637   3.387   2.344   1.638
  904SOL    HW2 3638   3.443   2.389   1.575
  904SOL    HW3 3639   3.394   2.252   1.616
  904SOL    MW4 3640   3.395   2.338   1.627
  905SOL     OW 3641   3.147   2.442   1.523
  905SOL    HW2 3642   3.222   2.415   1.576
  905SOL    HW3 3643   3.071   2.423   1.578
  905SOL    MW4 3644   3.147   2.436   1.537
  906SOL     OW 3645   3.142   2.710   1.606
  906SOL    HW2 3646   3.220   2.760   1.583
  906SOL    HW3 3647   3.156   2.624   1.566
  906SOL    MW4 3648   3.154   2.705   1.598
  907SOL     OW 3649   3.387   2.841   1.542
  907SOL    HW2 3650   3.354   2.929   1.560
  907SOL    HW3 3651   3.391   2.836   1.446
  907SOL    MW4 3652   3.383   2.852   1.531
  908SOL     OW 3653   3.333   3.110   1.606
  908SOL    HW2 3654   3.352   3.092   1.698
  908SOL    HW3 3655   3.414   3.146   1.571
  908SOL    MW4 3656   3.346   3.112   1.614
  909SOL     OW 3657   3.113   3.241   1.520
  909SOL    HW2 3658   3.196   3.205   1.550
  909SOL    HW3 3659   3.116   3.232   1.425
  909SOL    MW4 3660   3.124   3.235   1.511
  910SOL     OW 3661   3.158   3.504   1.594
  910SOL    HW2 3662   3.137   3.418   1.557
  910SOL    HW3 3663   3.081   3.558   1.576
  910SOL    MW4 3664   3.145   3.500   1.586
  911SOL     OW 3665   3.376   3.624   1.486
  911SOL    HW2 3666   3.447   3.577   1.531
  911SOL    HW3 3667   3.296   3.588   1.523
  911SOL    MW4 3668   3.375   3.613   1.497
  912SOL     OW 3669   3.319   3.877   1.599
  912SOL    HW2 3670   3.244   3.908   1.548
  912SOL    HW3 3671   3.326   3.784   1.578
  912SOL    MW4 3672   3.310   3.869   1.589
  913SOL     OW 3673   3.106   4.001   1.456
  913SOL    HW2 3674   3.102   4.093   1.480
  913SOL    HW3 3675   3.030   3.961   1.498
  913SOL    MW4 3676   3.096   4.008   1.465
  914SOL     OW 3677   3.095   4.263   1.557
  914SOL    HW2 3678   3.094   4.247   1.651
  914SOL    HW3 3679   3.009   4.299   1.538
  914SOL    MW4 3680   3.084   4.265   1.567
  915SOL     OW 3681   3.338   4.411   1.484
  915SOL    HW2 3682   3.254   4.370   1.507
  915SOL    HW3 3683   3.331   4.430   1.390
  915SOL    MW4 3684   3.326   4.408   1.475
  916SOL     OW 3685   3.810   4.616   1.582
  916SOL    HW2 3686   3.814   4.626   1.677
  916SOL    HW3 3687   3.880   4.672   1.549
  916SOL    MW4 3688   3.820   4.625   1.591
  917SOL     OW 3689   3.567   0.069   1.471
  917SOL    HW2 3690   3.650   0.023   1.486
  917SOL    HW3 3691   3.562   0.078   1.376
  917SOL    MW4 3692   3.578   0.064   1.460
  918SOL     OW 3693   3.555   0.329   1.611
  918SOL    HW2 3694   3.568   0.250   1.558
  918SOL    HW3 3695   3.493   0.381   1.561
  918SOL    MW4 3696   3.549   0.325   1.598
  919SOL     OW 3697   3.760   0.469   1.513
  919SOL    HW2 3698   3.680   0.427   1.543
  919SOL    HW3 3699   3.760   0.456   1.418
  919SOL    MW4 3700   3.749   0.462   1.504
  920SOL     OW 3701   3.795   0.744   1.564
  920SOL    HW2 3702   3.716   0.794   1.548
  920SOL    HW3 3703   3.768   0.652   1.557
  920SOL    MW4 3704   3.781   0.738   1.561
  921SOL     OW 3705   3.588   0.936   1.493
  921SOL    HW2 3706   3.509   0.888   1.518
  921SOL    HW3 3707   3.589   0.933   1.397
  921SOL    MW4 3708   3.578   0.929   1.484
  922SOL     OW 3709   3.570   1.208   1.572
  922SOL    HW2 3710   3.657   1.240   1.550
  922SOL    HW3 3711   3.565   1.121   1.532
  922SOL    MW4 3712   3.581   1.201   1.564
  923SOL     OW 3713   3.816   1.327   1.523
  923SOL    HW2 3714   3.900   1.282   1.538
  923SOL    HW3 3715   3.825   1.409   1.572
  923SOL    MW4 3716   3.829   1.332   1.532
  924SOL     OW 3717   3.822   1.591   1.615
  924SOL    HW2 3718   3.813   1.571   1.708
  924SOL    HW3 3719   3.733   1.616   1.588
  924SOL    MW4 3720   3.809   1.591   1.623
  925SOL     OW 3721   3.587   1.676   1.488
  925SOL    HW2 3722   3.498   1.643   1.502
  925SOL    HW3 3723   3.600   1.669   1.394
  925SOL    MW4 3724   3.577   1.671   1.477
  926SOL     OW 3725   3.591   1.920   1.600
  926SOL    HW2 3726   3.589   1.834   1.558
  926SOL    HW3 3727   3.546   1.978   1.540
  926SOL    MW4 3728   3.585   1.916   1.587
  927SOL     OW 3729   3.851   2.042   1.535
  927SOL    HW2 3730   3.835   2.131   1.568
  927SOL    HW3 3731   3.774   1.992   1.564
  927SOL    MW4 3732   3.838   2.047   1.543
  928SOL     OW 3733   3.805   2.308   1.600
  928SOL    HW2 3734   3.798   2.321   1.695
  928SOL    HW3 3735   3.886   2.352   1.575
  928SOL    MW4 3736   3.814   2.316   1.609
  929SOL     OW 3737   3.604   2.460   1.497
  929SOL    HW2 3738   3.615   2.550   1.528
  929SOL    HW3 3739   3.688   2.417   1.517
  929SOL    MW4 3740   3.617   2.466   1.503
  930SOL     OW 3741   3.615   2.719   1.612
  930SOL    HW2 3742   3.620   2.716   1.707
  930SOL    HW3 3743   3.532   2.761   1.593
  930SOL    MW4 3744   3.605   2.724   1.622
  931SOL     OW 3745   3.873   2.870   1.526
  931SOL    HW2 3746   3.934   2.804   1.559
  931SOL    HW3 3747   3.786   2.838   1.552
  931SOL    MW4 3748   3.869   2.857   1.533
  932SOL     OW 3749   3.819   3.126   1.599
  932SOL    HW2 3750   3.894   3.170   1.559
  932SOL    HW3 3751   3.834   3.033   1.580
  932SOL    MW4 3752   3.831   3.119   1.591
  933SOL     OW 3753   3.571   3.219   1.521
  933SOL    HW2 3754   3.657   3.183   1.541
  933SOL    HW3 3755   3.561   3.207   1.427
  933SOL    MW4 3756   3.581   3.212   1.511
  934SOL     OW 3757   3.565   3.485   1.626
  934SOL    HW2 3758   3.648   3.514   1.587
  934SOL    HW3 3759   3.558   3.392   1.602
  934SOL    MW4 3760   3.575   3.476   1.618
  935SOL     OW 3761   3.785   3.610   1.511
  935SOL    HW2 3762   3.866   3.566   1.534
  935SOL    HW3 3763   3.794   3.698   1.547
  935SOL    MW4 3764   3.797   3.616   1.519
  936SOL     OW 3765   3.792   3.854   1.625
  936SOL    HW2 3766   3.864   3.909   1.593
  936SOL    HW3 3767   3.716   3.884   1.577
  936SOL    MW4 3768   3.792   3.865   1.615
  937SOL     OW 3769   3.560   3.971   1.495
  937SOL    HW2 3770   3.562   4.064   1.515
  937SOL    HW3 3771   3.473   3.942   1.524
  937SOL    MW4 3772   3.548   3.979   1.502
  938SOL     OW 3773   3.574   4.248   1.557
  938SOL    HW2 3774   3.565   4.271   1.649
  938SOL    HW3 3775   3.509   4.301   1.512
  938SOL    MW4 3776   3.564   4.258   1.563
  939SOL     OW 3777   3.826   4.356   1.498
  939SOL    HW2 3778   3.745   4.305   1.506
  939SOL    HW3 3779   3.807   4.438   1.543
  939SOL    MW4 3780   3.813   4.360   1.505
  940SOL     OW 3781   4.228   0.002   1.587
  940SOL    HW2 3782   4.246  -0.023   1.677
  940SOL    HW3 3783   4.231  -0.080   1.538
  940SOL    MW4 3784   4.231  -0.012   1.592
  941SOL     OW 3785   4.002   0.152   1.481
  941SOL    HW2 3786   4.004   0.236   1.526
  941SOL    HW3 3787   4.077   0.104   1.518
  941SOL    MW4 3788   4.012   0.157   1.492
  942SOL     OW 3789   3.997   0.385   1.631
  942SOL    HW2 3790   4.003   0.386   1.727
  942SOL    HW3 3791   3.907   0.411   1.613
  942SOL    MW4 3792   3.986   0.389   1.642
  943SOL     OW 3793   4.221   0.495   1.517
  943SOL    HW2 3794   4.149   0.451   1.562
  943SOL    HW3 3795   4.300   0.453   1.550
  943SOL    MW4 3796   4.222   0.484   1.527
  944SOL     OW 3797   4.249   0.755   1.627
  944SOL    HW2 3798   4.242   0.670   1.584
  944SOL    HW3 3799   4.326   0.796   1.588
  944SOL    MW4 3800   4.258   0.749   1.616
  945SOL     OW 3801   4.032   0.888   1.525
  945SOL    HW2 3802   4.110   0.863   1.575
  945SOL    HW3 3803   3.967   0.821   1.547
  945SOL    MW4 3804   4.034   0.876   1.534
  946SOL     OW 3805   4.029   1.149   1.591
  946SOL    HW2 3806   4.008   1.144   1.684
  946SOL    HW3 3807   4.019   1.059   1.559
  946SOL    MW4 3808   4.025   1.137   1.599
  947SOL     OW 3809   4.243   1.288   1.504
  947SOL    HW2 3810   4.176   1.230   1.540
  947SOL    HW3 3811   4.326   1.250   1.533
  947SOL    MW4 3812   4.245   1.275   1.512
  948SOL     OW 3813   4.259   1.526   1.658
  948SOL    HW2 3814   4.261   1.431   1.641
  948SOL    HW3 3815   4.342   1.558   1.622
  948SOL    MW4 3816   4.270   1.517   1.651
  949SOL     OW 3817   4.069   1.687   1.525
  949SOL    HW2 3818   4.129   1.627   1.569
  949SOL    HW3 3819   3.981   1.656   1.549
  949SOL    MW4 3820   4.065   1.675   1.534
  950SOL     OW 3821   4.099   1.947   1.621
  950SOL    HW2 3822   4.098   1.855   1.595
  950SOL    HW3 3823   4.019   1.984   1.582
  950SOL    MW4 3824   4.088   1.940   1.612
  951SOL     OW 3825   4.292   2.112   1.524
  951SOL    HW2 3826   4.221   2.052   1.546
  951SOL    HW3 3827   4.302   2.105   1.429
  951SOL    MW4 3828   4.284   2.103   1.514
  952SOL     OW 3829   4.278   2.361   1.620
  952SOL    HW2 3830   4.268   2.350   1.714
  952SOL    HW3 3831   4.278   2.272   1.585
  952SOL    MW4 3832   4.277   2.348   1.628
  953SOL     OW 3833   4.045   2.448   1.515
  953SOL    HW2 3834   4.052   2.537   1.548
  953SOL    HW3 3835   4.126   2.406   1.542
  953SOL    MW4 3836   4.056   2.454   1.523
  954SOL     OW 3837   4.047   2.690   1.623
  954SOL    HW2 3838   4.035   2.695   1.718
  954SOL    HW3 3839   4.123   2.746   1.606
  954SOL    MW4 3840   4.055   2.698   1.634
  955SOL     OW 3841   4.262   2.840   1.537
  955SOL    HW2 3842   4.254   2.935   1.549
  955SOL    HW3 3843   4.280   2.829   1.444
  955SOL    MW4 3844   4.264   2.851   1.526
  956SOL     OW 3845   4.273   3.125   1.584
  956SOL    HW2 3846   4.287   3.133   1.679
  956SOL    HW3 3847   4.356   3.152   1.545
  956SOL    MW4 3848   4.286   3.129   1.592
  957SOL     OW 3849   4.034   3.277   1.480
  957SOL    HW2 3850   4.029   3.367   1.512
  957SOL    HW3 3851   4.115   3.243   1.519
  957SOL    MW4 3852   4.044   3.284   1.490
  958SOL     OW 3853   4.018   3.518   1.600
  958SOL    HW2 3854   4.015   3.499   1.694
  958SOL    HW3 3855   4.110   3.535   1.581
  958SOL    MW4 3856   4.029   3.517   1.610
  959SOL     OW 3857   4.288   3.593   1.525
  959SOL    HW2 3858   4.284   3.683   1.555
  959SOL    HW3 3859   4.289   3.600   1.429
  959SOL    MW4 3860   4.288   3.606   1.516
  960SOL     OW 3861   4.286   3.860   1.613
  960SOL    HW2 3862   4.210   3.902   1.572
  960SOL    HW3 3863   4.361   3.894   1.565
  960SOL    MW4 3864   4.285   3.870   1.601
  961SOL     OW 3865   4.023   3.959   1.554
  961SOL    HW2 3866   4.045   4.043   1.594
  961SOL    HW3 3867   4.027   3.976   1.459
  961SOL    MW4 3868   4.026   3.972   1.547
  962SOL     OW 3869   4.057   4.238   1.606
  962SOL    HW2 3870   4.039   4.231   1.699
  962SOL    HW3 3871   3.971   4.257   1.566
  962SOL    MW4 3872   4.043   4.240   1.613
  963SOL     OW 3873   4.278   4.403   1.493
  963SOL    HW2 3874   4.193   4.370   1.523
  963SOL    HW3 3875   4.272   4.399   1.398
  963SOL    MW4 3876   4.266   4.398   1.484
  964SOL     OW 3877   0.216   4.667   1.939
  964SOL    HW2 3878   0.294   4.708   1.975
  964SOL    HW3 3879   0.231   4.665   1.845
  964SOL    MW4 3880   0.228   4.672   1.931
  965SOL     OW 3881   4.467   0.129   2.004
  965SOL    HW2 3882   4.460   0.219   1.971
  965SOL    HW3 3883   4.554   0.100   1.975
  965SOL    MW4 3884   4.478   0.137   1.996
  966SOL     OW 3885   4.447   0.391   1.891
  966SOL    HW2 3886   4.387   0.453   1.932
  966SOL    HW3 3887   4.534   0.422   1.916
  966SOL    MW4 3888   4.450   0.403   1.900
  967SOL     OW 3889   0.188   0.475   1.991
  967SOL    HW2 3890   0.267   0.438   1.950
  967SOL    HW3 3891   0.183   0.564   1.957
  967SOL    MW4 3892   0.198   0.482   1.981
  968SOL     OW 3893   0.199   0.762   1.947
  968SOL    HW2 3894   0.276   0.803   1.987
  968SOL    HW3 3895   0.218   0.763   1.853
  968SOL    MW4 3896   0.212   0.768   1.939
  969SOL     OW 3897   4.476   0.923   2.019
  969SOL    HW2 3898   4.402   0.867   1.994
  969SOL    HW3 3899   4.554   0.875   1.992
  969SOL    MW4 3900   4.476   0.909   2.012
  970SOL     OW 3901   4.448   1.133   1.846
  970SOL    HW2 3902   4.378   1.181   1.888
  970SOL    HW3 3903   4.464   1.058   1.904
  970SOL    MW4 3904   4.441   1.129   1.859
  971SOL     OW 3905   0.174   1.249   1.981
  971SOL    HW2 3906   0.174   1.338   1.945
  971SOL    HW3 3907   0.101   1.206   1.937
  971SOL    MW4 3908   0.164   1.255   1.970
  972SOL     OW 3909   0.222   1.508   1.897
  972SOL    HW2 3910   0.301   1.550   1.931
  972SOL    HW3 3911   0.152   1.570   1.917
  972SOL    MW4 3912   0.223   1.522   1.904
  973SOL     OW 3913   0.017   1.682   1.988
  973SOL    HW2 3914   0.026   1.679   2.083
  973SOL    HW3 3915  -0.067   1.638   1.970
  973SOL    MW4 3916   0.007   1.676   1.998
  974SOL     OW 3917   4.488   1.942   1.898
  974SOL    HW2 3918   4.414   1.979   1.945
  974SOL    HW3 3919   4.494   1.851   1.930
  974SOL    MW4 3920   4.479   1.935   1.909
  975SOL     OW 3921   0.245   2.075   1.974
  975SOL    HW2 3922   0.223   2.163   1.942
  975SOL    HW3 3923   0.169   2.022   1.950
  975SOL    MW4 3924   0.232   2.080   1.967
  976SOL     OW 3925   0.188   2.338   1.889
  976SOL    HW2 3926   0.273   2.370   1.921
  976SOL    HW3 3927   0.124   2.396   1.931
  976SOL    MW4 3928   0.191   2.350   1.899
  977SOL     OW 3929   4.450   2.457   2.031
  977SOL    HW2 3930   4.464   2.438   2.124
  977SOL    HW3 3931   4.465   2.551   2.023
  977SOL    MW4 3932   4.454   2.467   2.042
  978SOL     OW 3933   4.473   2.701   1.888
  978SOL    HW2 3934   4.392   2.747   1.908
  978SOL    HW3 3935   4.479   2.702   1.793
  978SOL    MW4 3936   4.463   2.707   1.878
  979SOL     OW 3937   0.203   2.854   1.982
  979SOL    HW2 3938   0.197   2.944   1.952
  979SOL    HW3 3939   0.127   2.811   1.944
  979SOL    MW4 3940   0.192   2.860   1.973
  980SOL     OW 3941   0.232   3.148   1.887
  980SOL    HW2 3942   0.314   3.163   1.933
  980SOL    HW3 3943   0.253   3.160   1.795
  980SOL    MW4 3944   0.245   3.152   1.881
  981SOL     OW 3945   0.017   3.252   2.014
  981SOL    HW2 3946  -0.050   3.214   1.958
  981SOL    HW3 3947   0.097   3.204   1.993
  981SOL    MW4 3948   0.019   3.241   2.004
  982SOL     OW 3949   0.033   3.505   1.892
  982SOL    HW2 3950   0.101   3.551   1.941
  982SOL    HW3 3951   0.046   3.412   1.912
  982SOL    MW4 3952   0.044   3.499   1.901
  983SOL     OW 3953   0.261   3.631   1.998
  983SOL    HW2 3954   0.261   3.612   2.092
  983SOL    HW3 3955   0.320   3.566   1.960
  983SOL    MW4 3956   0.269   3.620   2.005
  984SOL     OW 3957   0.244   3.871   1.875
  984SOL    HW2 3958   0.315   3.931   1.901
  984SOL    HW3 3959   0.268   3.787   1.913
  984SOL    MW4 3960   0.257   3.868   1.883
  985SOL     OW 3961   0.016   4.005   1.981
  985SOL    HW2 3962   0.026   4.093   1.942
  985SOL    HW3 3963   0.089   3.955   1.946
  985SOL    MW4 3964   0.027   4.010   1.971
  986SOL     OW 3965   4.490   4.237   1.863
  986SOL    HW2 3966   4.410   4.271   1.903
  986SOL    HW3 3967   4.561   4.289   1.903
  986SOL    MW4 3968   4.489   4.249   1.874
  987SOL     OW 3969   0.190   4.386   2.000
  987SOL    HW2 3970   0.200   4.386   2.095
  987SOL    HW3 3971   0.196   4.478   1.974
  987SOL    MW4 3972   0.192   4.398   2.009
  988SOL     OW 3973   0.689   0.004   1.910
  988SOL    HW2 3974   0.690  -0.085   1.944
  988SOL    HW3 3975   0.702  -0.006   1.815
  988SOL    MW4 3976   0.691  -0.009   1.902
  989SOL     OW 3977   0.464   0.117   2.014
  989SOL    HW2 3978   0.445   0.200   1.969
  989SOL    HW3 3979   0.544   0.085   1.973
  989SOL    MW4 3980   0.472   0.124   2.003
  990SOL     OW 3981   0.421   0.368   1.882
  990SOL    HW2 3982   0.499   0.416   1.911
  990SOL    HW3 3983   0.417   0.383   1.787
  990SOL    MW4 3984   0.431   0.376   1.873
  991SOL     OW 3985   0.622   0.517   1.976
  991SOL    HW2 3986   0.631   0.513   2.071
  991SOL    HW3 3987   0.702   0.475   1.943
  991SOL    MW4 3988   0.634   0.511   1.984
  992SOL     OW 3989   0.681   0.751   1.835
  992SOL    HW2 3990   0.746   0.790   1.894
  992SOL    HW3 3991   0.650   0.674   1.882
  992SOL    MW4 3992   0.686   0.746   1.849
  993SOL     OW 3993   0.451   0.864   2.008
  993SOL    HW2 3994   0.453   0.958   1.990
  993SOL    HW3 3995   0.530   0.830   1.964
  993SOL    MW4 3996   0.462   0.872   2.000
  994SOL     OW 3997   0.416   1.133   1.956
  994SOL    HW2 3998   0.340   1.188   1.978
  994SOL    HW3 3999   0.426   1.143   1.862
  994SOL    MW4 4000   0.407   1.142   1.947
  995SOL     OW 4001   0.668   1.271   2.009
  995SOL    HW2 4002   0.702   1.257   2.097
  995SOL    HW3 4003   0.589   1.217   2.005
  995SOL    MW4 4004   0.662   1.262   2.020
  996SOL     OW 4005   0.690   1.535   1.907
  996SOL    HW2 4006   0.680   1.442   1.930
  996SOL    HW3 4007   0.692   1.535   1.811
  996SOL    MW4 4008   0.689   1.522   1.897
  997SOL     OW 4009   0.448   1.683   1.953
  997SOL    HW2 4010   0.453   1.700   2.047
  997SOL    HW3 4011   0.531   1.641   1.932
  997SOL    MW4 4012   0.460   1.680   1.963
  998SOL     OW 4013   0.475   1.946   1.872
  998SOL    HW2 4014   0.474   1.855   1.902
  998SOL    HW3 4015   0.399   1.986   1.913
  998SOL    MW4 4016   0.465   1.939   1.881
  999SOL     OW 4017   0.707   2.063   1.950
  999SOL    HW2 4018   0.688   2.067   2.043
  999SOL    HW3 4019   0.626   2.030   1.911
  999SOL    MW4 4020   0.694   2.060   1.957
 1000SOL     OW 4021   0.664   2.347   1.893
 1000SOL    HW2 4022   0.674   2.253   1.911
 1000SOL    HW3 4023   0.681   2.354   1.799
 1000SOL    MW4 4024   0.667   2.335   1.883
 1001SOL     OW 4025   0.421   2.461   1.987
 1001SOL    HW2 4026   0.432   2.467   2.082
 1001SOL    HW3 4027   0.497   2.412   1.957
 1001SOL    MW4 4028   0.433   2.455   1.995
 1002SOL     OW 4029   0.445   2.728   1.892
 1002SOL    HW2 4030   0.449   2.638   1.924
 1002SOL    HW3 4031   0.359   2.760   1.920
 1002SOL    MW4 4032   0.434   2.721   1.900
 1003SOL     OW 4033   0.673   2.842   2.009
 1003SOL    HW2 4034   0.650   2.854   2.101
 1003SOL    HW3 4035   0.588   2.828   1.966
 1003SOL    MW4 4036   0.659   2.842   2.015
 1004SOL     OW 4037   0.690   3.101   1.861
 1004SOL    HW2 4038   0.681   3.010   1.891
 1004SOL    HW3 4039   0.694   3.095   1.766
 1004SOL    MW4 4040   0.690   3.088   1.852
 1005SOL     OW 4041   0.492   3.247   1.998
 1005SOL    HW2 4042   0.475   3.325   1.945
 1005SOL    HW3 4043   0.568   3.207   1.956
 1005SOL    MW4 4044   0.500   3.252   1.985
 1006SOL     OW 4045   0.437   3.474   1.861
 1006SOL    HW2 4046   0.511   3.523   1.896
 1006SOL    HW3 4047   0.438   3.493   1.767
 1006SOL    MW4 4048   0.446   3.483   1.853
 1007SOL     OW 4049   0.637   3.616   1.996
 1007SOL    HW2 4050   0.716   3.567   1.974
 1007SOL    HW3 4051   0.648   3.700   1.953
 1007SOL    MW4 4052   0.649   3.620   1.988
 1008SOL     OW 4053   0.675   3.848   1.865
 1008SOL    HW2 4054   0.754   3.894   1.892
 1008SOL    HW3 4055   0.662   3.873   1.774
 1008SOL    MW4 4056   0.684   3.857   1.856
 1009SOL     OW 4057   0.453   4.021   2.001
 1009SOL    HW2 4058   0.459   4.110   1.968
 1009SOL    HW3 4059   0.538   3.982   1.978
 1009SOL    MW4 4060   0.465   4.027   1.993
 1010SOL     OW 4061   0.447   4.298   1.921
 1010SOL    HW2 4062   0.356   4.313   1.945
 1010SOL    HW3 4063   0.445   4.285   1.826
 1010SOL    MW4 4064   0.435   4.298   1.911
 1011SOL     OW 4065   0.692   4.413   1.977
 1011SOL    HW2 4066   0.754   4.360   1.928
 1011SOL    HW3 4067   0.607   4.372   1.960
 1011SOL    MW4 4068   0.689   4.400   1.969
 1012SOL     OW 4069   1.073   0.014   1.905
 1012SOL    HW2 4070   1.156   0.057   1.926
 1012SOL    HW3 4071   1.088  -0.078   1.925
 1012SOL    MW4 4072   1.086   0.008   1.911
 1013SOL     OW 4073   0.870   0.164   2.050
 1013SOL    HW2 4074   0.958   0.138   2.023
 1013SOL    HW3 4075   0.812   0.099   2.009
 1013SOL    MW4 4076   0.874   0.152   2.041
 1014SOL     OW 4077   0.868   0.394   1.901
 1014SOL    HW2 4078   0.953   0.429   1.928
 1014SOL    HW3 4079   0.861   0.311   1.948
 1014SOL    MW4 4080   0.878   0.387   1.911
 1015SOL     OW 4081   1.113   0.511   2.000
 1015SOL    HW2 4082   1.190   0.467   1.965
 1015SOL    HW3 4083   1.111   0.596   1.956
 1015SOL    MW4 4084   1.123   0.516   1.990
 1016SOL     OW 4085   1.102   0.752   1.874
 1016SOL    HW2 4086   1.179   0.801   1.902
 1016SOL    HW3 4087   1.029   0.796   1.917
 1016SOL    MW4 4088   1.103   0.765   1.883
 1017SOL     OW 4089   0.858   0.871   2.013
 1017SOL    HW2 4090   0.873   0.890   2.105
 1017SOL    HW3 4091   0.865   0.956   1.970
 1017SOL    MW4 4092   0.861   0.885   2.019
 1018SOL     OW 4093   0.871   1.118   1.887
 1018SOL    HW2 4094   0.798   1.171   1.917
 1018SOL    HW3 4095   0.870   1.125   1.792
 1018SOL    MW4 4096   0.861   1.126   1.878
 1019SOL     OW 4097   1.087   1.251   1.980
 1019SOL    HW2 4098   1.094   1.337   1.939
 1019SOL    HW3 4099   0.999   1.220   1.959
 1019SOL    MW4 4100   1.077   1.258   1.972
 1020SOL     OW 4101   1.126   1.519   1.883
 1020SOL    HW2 4102   1.044   1.539   1.928
 1020SOL    HW3 4103   1.113   1.549   1.794
 1020SOL    MW4 4104   1.114   1.525   1.877
 1021SOL     OW 4105   0.914   1.641   1.996
 1021SOL    HW2 4106   0.921   1.730   1.961
 1021SOL    HW3 4107   0.831   1.608   1.963
 1021SOL    MW4 4108   0.904   1.649   1.987
 1022SOL     OW 4109   0.915   1.900   1.884
 1022SOL    HW2 4110   0.839   1.939   1.925
 1022SOL    HW3 4111   0.894   1.897   1.791
 1022SOL    MW4 4112   0.902   1.905   1.877
 1023SOL     OW 4113   1.146   2.032   1.958
 1023SOL    HW2 4114   1.135   2.122   1.929
 1023SOL    HW3 4115   1.070   1.985   1.924
 1023SOL    MW4 4116   1.135   2.037   1.950
 1024SOL     OW 4117   1.097   2.306   1.898
 1024SOL    HW2 4118   1.181   2.347   1.920
 1024SOL    HW3 4119   1.088   2.320   1.804
 1024SOL    MW4 4120   1.107   2.313   1.889
 1025SOL     OW 4121   0.893   2.454   1.982
 1025SOL    HW2 4122   0.954   2.386   1.952
 1025SOL    HW3 4123   0.808   2.427   1.947
 1025SOL    MW4 4124   0.890   2.441   1.974
 1026SOL     OW 4125   0.915   2.733   1.893
 1026SOL    HW2 4126   0.932   2.648   1.934
 1026SOL    HW3 4127   0.828   2.757   1.924
 1026SOL    MW4 4128   0.906   2.725   1.902
 1027SOL     OW 4129   1.149   2.859   1.990
 1027SOL    HW2 4130   1.134   2.861   2.085
 1027SOL    HW3 4131   1.068   2.825   1.953
 1027SOL    MW4 4132   1.137   2.855   1.998
 1028SOL     OW 4133   1.158   3.100   1.881
 1028SOL    HW2 4134   1.075   3.142   1.900
 1028SOL    HW3 4135   1.154   3.016   1.927
 1028SOL    MW4 4136   1.146   3.094   1.889
 1029SOL     OW 4137   0.916   3.234   1.938
 1029SOL    HW2 4138   0.898   3.252   2.030
 1029SOL    HW3 4139   0.850   3.169   1.913
 1029SOL    MW4 4140   0.905   3.228   1.947
 1030SOL     OW 4141   0.844   3.493   1.868
 1030SOL    HW2 4142   0.857   3.400   1.889
 1030SOL    HW3 4143   0.839   3.496   1.773
 1030SOL    MW4 4144   0.845   3.481   1.858
 1031SOL     OW 4145   1.092   3.601   1.915
 1031SOL    HW2 4146   1.085   3.629   2.006
 1031SOL    HW3 4147   1.006   3.565   1.894
 1031SOL    MW4 4148   1.080   3.600   1.924
 1032SOL     OW 4149   1.139   3.864   1.882
 1032SOL    HW2 4150   1.115   3.771   1.882
 1032SOL    HW3 4151   1.139   3.888   1.789
 1032SOL    MW4 4152   1.135   3.855   1.870
 1033SOL     OW 4153   0.901   3.973   1.968
 1033SOL    HW2 4154   0.913   3.999   2.059
 1033SOL    HW3 4155   0.989   3.951   1.937
 1033SOL    MW4 4156   0.914   3.974   1.976
 1034SOL     OW 4157   0.888   4.249   1.882
 1034SOL    HW2 4158   0.972   4.278   1.918
 1034SOL    HW3 4159   0.885   4.155   1.902
 1034SOL    MW4 4160   0.899   4.240   1.889
 1035SOL     OW 4161   1.097   4.416   1.983
 1035SOL    HW2 4162   1.108   4.402   2.077
 1035SOL    HW3 4163   1.162   4.359   1.942
 1035SOL    MW4 4164   1.107   4.407   1.990
 1036SOL     OW 4165   1.543   4.655   1.859
 1036SOL    HW2 4166   1.616   4.690   1.910
 1036SOL    HW3 4167   1.539   4.563   1.884
 1036SOL    MW4 4168   1.552   4.648   1.869
 1037SOL     OW 4169   1.317   0.115   1.950
 1037SOL    HW2 4170   1.341   0.115   2.042
 1037SOL    HW3 4171   1.392   0.077   1.905
 1037SOL    MW4 4172   1.330   0.110   1.956
 1038SOL     OW 4173   1.337   0.392   1.896
 1038SOL    HW2 4174   1.322   0.299   1.911
 1038SOL    HW3 4175   1.333   0.403   1.801
 1038SOL    MW4 4176   1.334   0.381   1.885
 1039SOL     OW 4177   1.524   0.530   2.010
 1039SOL    HW2 4178   1.603   0.487   1.978
 1039SOL    HW3 4179   1.452   0.483   1.968
 1039SOL    MW4 4180   1.525   0.518   2.000
 1040SOL     OW 4181   1.559   0.772   1.864
 1040SOL    HW2 4182   1.641   0.811   1.896
 1040SOL    HW3 4183   1.552   0.689   1.913
 1040SOL    MW4 4184   1.569   0.766   1.875
 1041SOL     OW 4185   1.331   0.897   1.941
 1041SOL    HW2 4186   1.340   0.898   2.037
 1041SOL    HW3 4187   1.414   0.864   1.909
 1041SOL    MW4 4188   1.343   0.893   1.950
 1042SOL     OW 4189   1.369   1.174   1.900
 1042SOL    HW2 4190   1.368   1.079   1.907
 1042SOL    HW3 4191   1.281   1.201   1.926
 1042SOL    MW4 4192   1.357   1.165   1.905
 1043SOL     OW 4193   1.580   1.290   2.038
 1043SOL    HW2 4194   1.589   1.372   1.989
 1043SOL    HW3 4195   1.519   1.237   1.987
 1043SOL    MW4 4196   1.573   1.294   2.025
 1044SOL     OW 4197   1.574   1.518   1.884
 1044SOL    HW2 4198   1.642   1.582   1.905
 1044SOL    HW3 4199   1.494   1.556   1.919
 1044SOL    MW4 4200   1.573   1.532   1.891
 1045SOL     OW 4201   1.358   1.595   2.017
 1045SOL    HW2 4202   1.369   1.607   2.111
 1045SOL    HW3 4203   1.264   1.575   2.006
 1045SOL    MW4 4204   1.347   1.594   2.028
 1046SOL     OW 4205   1.362   1.898   1.877
 1046SOL    HW2 4206   1.372   1.816   1.925
 1046SOL    HW3 4207   1.282   1.937   1.913
 1046SOL    MW4 4208   1.352   1.892   1.888
 1047SOL     OW 4209   1.584   2.032   1.987
 1047SOL    HW2 4210   1.569   2.125   1.970
 1047SOL    HW3 4211   1.513   1.988   1.940
 1047SOL    MW4 4212   1.572   2.038   1.979
 1048SOL     OW 4213   1.545   2.300   1.875
 1048SOL    HW2 4214   1.627   2.347   1.890
 1048SOL    HW3 4215   1.528   2.310   1.781
 1048SOL    MW4 4216   1.554   2.307   1.864
 1049SOL     OW 4217   1.326   2.410   1.976
 1049SOL    HW2 4218   1.351   2.501   1.961
 1049SOL    HW3 4219   1.400   2.359   1.943
 1049SOL    MW4 4220   1.339   2.416   1.970
 1050SOL     OW 4221   1.352   2.658   1.925
 1050SOL    HW2 4222   1.283   2.719   1.952
 1050SOL    HW3 4223   1.357   2.667   1.830
 1050SOL    MW4 4224   1.344   2.667   1.916
 1051SOL     OW 4225   1.588   2.819   1.992
 1051SOL    HW2 4226   1.667   2.773   1.963
 1051SOL    HW3 4227   1.517   2.760   1.969
 1051SOL    MW4 4228   1.589   2.805   1.985
 1052SOL     OW 4229   1.565   3.082   1.873
 1052SOL    HW2 4230   1.579   2.991   1.900
 1052SOL    HW3 4231   1.567   3.079   1.778
 1052SOL    MW4 4232   1.567   3.069   1.864
 1053SOL     OW 4233   1.371   3.234   1.995
 1053SOL    HW2 4234   1.439   3.187   1.947
 1053SOL    HW3 4235   1.290   3.187   1.973
 1053SOL    MW4 4236   1.369   3.221   1.986
 1054SOL     OW 4237   1.333   3.470   1.856
 1054SOL    HW2 4238   1.351   3.385   1.897
 1054SOL    HW3 4239   1.245   3.492   1.886
 1054SOL    MW4 4240   1.324   3.462   1.865
 1055SOL     OW 4241   1.549   3.604   1.987
 1055SOL    HW2 4242   1.534   3.623   2.080
 1055SOL    HW3 4243   1.467   3.563   1.958
 1055SOL    MW4 4244   1.536   3.601   1.996
 1056SOL     OW 4245   1.596   3.860   1.869
 1056SOL    HW2 4246   1.674   3.904   1.902
 1056SOL    HW3 4247   1.593   3.776   1.915
 1056SOL    MW4 4248   1.606   3.855   1.879
 1057SOL     OW 4249   1.368   4.000   1.975
 1057SOL    HW2 4250   1.457   3.976   1.949
 1057SOL    HW3 4251   1.312   3.934   1.935
 1057SOL    MW4 4252   1.372   3.988   1.966
 1058SOL     OW 4253   1.286   4.242   1.900
 1058SOL    HW2 4254   1.302   4.153   1.929
 1058SOL    HW3 4255   1.300   4.240   1.805
 1058SOL    MW4 4256   1.290   4.230   1.891
 1059SOL     OW 4257   1.513   4.379   1.982
 1059SOL    HW2 4258   1.514   4.380   2.077
 1059SOL    HW3 4259   1.439   4.322   1.960
 1059SOL    MW4 4260   1.503   4.371   1.991
 1060SOL     OW 4261   1.988   0.046   1.886
 1060SOL    HW2 4262   2.065   0.098   1.911
 1060SOL    HW3 4263   2.010  -0.043   1.914
 1060SOL    MW4 4264   2.001   0.041   1.893
 1061SOL     OW 4265   1.732   0.130   1.975
 1061SOL    HW2 4266   1.736   0.130   2.071
 1061SOL    HW3 4267   1.813   0.087   1.948
 1061SOL    MW4 4268   1.743   0.124   1.984
 1062SOL     OW 4269   1.751   0.404   1.918
 1062SOL    HW2 4270   1.751   0.309   1.929
 1062SOL    HW3 4271   1.768   0.416   1.824
 1062SOL    MW4 4272   1.753   0.393   1.907
 1063SOL     OW 4273   2.015   0.496   1.982
 1063SOL    HW2 4274   2.014   0.588   1.954
 1063SOL    HW3 4275   1.932   0.461   1.950
 1063SOL    MW4 4276   2.004   0.504   1.974
 1064SOL     OW 4277   2.018   0.751   1.835
 1064SOL    HW2 4278   2.102   0.789   1.860
 1064SOL    HW3 4279   2.018   0.752   1.740
 1064SOL    MW4 4280   2.029   0.756   1.826
 1065SOL     OW 4281   1.790   0.899   1.970
 1065SOL    HW2 4282   1.787   0.988   1.934
 1065SOL    HW3 4283   1.863   0.857   1.925
 1065SOL    MW4 4284   1.799   0.905   1.959
 1066SOL     OW 4285   1.769   1.161   1.902
 1066SOL    HW2 4286   1.700   1.211   1.945
 1066SOL    HW3 4287   1.771   1.195   1.812
 1066SOL    MW4 4288   1.760   1.172   1.896
 1067SOL     OW 4289   2.008   1.297   1.957
 1067SOL    HW2 4290   2.082   1.242   1.930
 1067SOL    HW3 4291   1.931   1.246   1.932
 1067SOL    MW4 4292   2.007   1.283   1.950
 1068SOL     OW 4293   2.013   1.575   1.885
 1068SOL    HW2 4294   2.013   1.481   1.900
 1068SOL    HW3 4295   2.006   1.585   1.790
 1068SOL    MW4 4296   2.012   1.564   1.875
 1069SOL     OW 4297   1.774   1.697   1.969
 1069SOL    HW2 4298   1.783   1.778   1.920
 1069SOL    HW3 4299   1.853   1.648   1.948
 1069SOL    MW4 4300   1.786   1.701   1.960
 1070SOL     OW 4301   1.803   1.963   1.854
 1070SOL    HW2 4302   1.728   2.008   1.893
 1070SOL    HW3 4303   1.797   1.981   1.761
 1070SOL    MW4 4304   1.792   1.971   1.847
 1071SOL     OW 4305   2.034   2.052   1.954
 1071SOL    HW2 4306   2.104   2.019   1.898
 1071SOL    HW3 4307   1.955   2.010   1.921
 1071SOL    MW4 4308   2.033   2.042   1.942
 1072SOL     OW 4309   2.017   2.328   1.893
 1072SOL    HW2 4310   2.105   2.364   1.903
 1072SOL    HW3 4311   2.024   2.237   1.921
 1072SOL    MW4 4312   2.029   2.321   1.898
 1073SOL     OW 4313   1.763   2.446   1.929
 1073SOL    HW2 4314   1.747   2.443   2.024
 1073SOL    HW3 4315   1.852   2.414   1.918
 1073SOL    MW4 4316   1.772   2.442   1.940
 1074SOL     OW 4317   1.835   2.712   1.895
 1074SOL    HW2 4318   1.828   2.619   1.916
 1074SOL    HW3 4319   1.821   2.717   1.801
 1074SOL    MW4 4320   1.832   2.700   1.886
 1075SOL     OW 4321   2.081   2.852   1.972
 1075SOL    HW2 4322   2.094   2.843   2.066
 1075SOL    HW3 4323   2.013   2.788   1.950
 1075SOL    MW4 4324   2.074   2.843   1.981
 1076SOL     OW 4325   2.013   3.089   1.871
 1076SOL    HW2 4326   1.928   3.115   1.907
 1076SOL    HW3 4327   2.033   3.006   1.916
 1076SOL    MW4 4328   2.004   3.081   1.882
 1077SOL     OW 4329   1.779   3.212   1.969
 1077SOL    HW2 4330   1.783   3.197   2.063
 1077SOL    HW3 4331   1.706   3.158   1.939
 1077SOL    MW4 4332   1.770   3.203   1.978
 1078SOL     OW 4333   1.784   3.468   1.870
 1078SOL    HW2 4334   1.782   3.377   1.900
 1078SOL    HW3 4335   1.700   3.504   1.898
 1078SOL    MW4 4336   1.772   3.461   1.878
 1079SOL     OW 4337   2.000   3.611   1.953
 1079SOL    HW2 4338   1.994   3.700   1.917
 1079SOL    HW3 4339   1.924   3.566   1.918
 1079SOL    MW4 4340   1.989   3.617   1.944
 1080SOL     OW 4341   1.978   3.871   1.871
 1080SOL    HW2 4342   2.061   3.889   1.915
 1080SOL    HW3 4343   1.998   3.879   1.778
 1080SOL    MW4 4344   1.992   3.875   1.865
 1081SOL     OW 4345   1.784   4.008   1.988
 1081SOL    HW2 4346   1.761   4.090   1.944
 1081SOL    HW3 4347   1.861   3.976   1.940
 1081SOL    MW4 4348   1.791   4.014   1.976
 1082SOL     OW 4349   1.766   4.293   1.917
 1082SOL    HW2 4350   1.676   4.311   1.942
 1082SOL    HW3 4351   1.766   4.294   1.821
 1082SOL    MW4 4352   1.754   4.296   1.908
 1083SOL     OW 4353   2.007   4.430   1.979
 1083SOL    HW2 4354   2.073   4.372   1.940
 1083SOL    HW3 4355   1.926   4.380   1.976
 1083SOL    MW4 4356   2.005   4.416   1.974
 1084SOL     OW 4357   2.455   4.661   1.888
 1084SOL    HW2 4358   2.535   4.705   1.916
 1084SOL    HW3 4359   2.456   4.578   1.934
 1084SOL    MW4 4360   2.465   4.656   1.898
 1085SOL     OW 4361   2.229   0.154   1.977
 1085SOL    HW2 4362   2.242   0.147   2.071
 1085SOL    HW3 4363   2.300   0.103   1.938
 1085SOL    MW4 4364   2.240   0.146   1.984
 1086SOL     OW 4365   2.235   0.388   1.829
 1086SOL    HW2 4366   2.265   0.324   1.894
 1086SOL    HW3 4367   2.157   0.427   1.868
 1086SOL    MW4 4368   2.229   0.385   1.843
 1087SOL     OW 4369   2.461   0.526   1.923
 1087SOL    HW2 4370   2.533   0.471   1.891
 1087SOL    HW3 4371   2.382   0.482   1.893
 1087SOL    MW4 4372   2.460   0.512   1.915
 1088SOL     OW 4373   2.483   0.795   1.842
 1088SOL    HW2 4374   2.479   0.704   1.873
 1088SOL    HW3 4375   2.487   0.788   1.747
 1088SOL    MW4 4376   2.483   0.782   1.834
 1089SOL     OW 4377   2.247   0.886   1.938
 1089SOL    HW2 4378   2.259   0.855   2.027
 1089SOL    HW3 4379   2.331   0.869   1.895
 1089SOL    MW4 4380   2.260   0.880   1.944
 1090SOL     OW 4381   2.228   1.155   1.883
 1090SOL    HW2 4382   2.305   1.186   1.929
 1090SOL    HW3 4383   2.228   1.060   1.897
 1090SOL    MW4 4384   2.238   1.147   1.891
 1091SOL     OW 4385   2.473   1.279   1.967
 1091SOL    HW2 4386   2.461   1.293   2.061
 1091SOL    HW3 4387   2.455   1.364   1.927
 1091SOL    MW4 4388   2.469   1.292   1.974
 1092SOL     OW 4389   2.436   1.547   1.886
 1092SOL    HW2 4390   2.369   1.610   1.913
 1092SOL    HW3 4391   2.443   1.560   1.791
 1092SOL    MW4 4392   2.428   1.557   1.877
 1093SOL     OW 4393   2.250   1.711   2.001
 1093SOL    HW2 4394   2.226   1.710   2.094
 1093SOL    HW3 4395   2.176   1.667   1.958
 1093SOL    MW4 4396   2.237   1.705   2.008
 1094SOL     OW 4397   2.251   1.933   1.823
 1094SOL    HW2 4398   2.329   1.974   1.859
 1094SOL    HW3 4399   2.238   1.854   1.875
 1094SOL    MW4 4400   2.259   1.928   1.835
 1095SOL     OW 4401   2.474   2.055   1.920
 1095SOL    HW2 4402   2.563   2.018   1.911
 1095SOL    HW3 4403   2.484   2.147   1.897
 1095SOL    MW4 4404   2.487   2.062   1.916
 1096SOL     OW 4405   2.453   2.332   1.854
 1096SOL    HW2 4406   2.523   2.395   1.872
 1096SOL    HW3 4407   2.373   2.376   1.882
 1096SOL    MW4 4408   2.452   2.346   1.860
 1097SOL     OW 4409   2.239   2.471   1.938
 1097SOL    HW2 4410   2.262   2.475   2.031
 1097SOL    HW3 4411   2.235   2.563   1.911
 1097SOL    MW4 4412   2.242   2.484   1.947
 1098SOL     OW 4413   2.291   2.716   1.848
 1098SOL    HW2 4414   2.214   2.767   1.873
 1098SOL    HW3 4415   2.283   2.705   1.753
 1098SOL    MW4 4416   2.280   2.721   1.839
 1099SOL     OW 4417   2.494   2.863   1.958
 1099SOL    HW2 4418   2.465   2.951   1.933
 1099SOL    HW3 4419   2.424   2.805   1.928
 1099SOL    MW4 4420   2.481   2.867   1.951
 1100SOL     OW 4421   2.434   3.114   1.901
 1100SOL    HW2 4422   2.348   3.144   1.931
 1100SOL    HW3 4423   2.430   3.122   1.806
 1100SOL    MW4 4424   2.422   3.119   1.893
 1101SOL     OW 4425   2.212   3.234   1.977
 1101SOL    HW2 4426   2.179   3.239   2.067
 1101SOL    HW3 4427   2.150   3.178   1.931
 1101SOL    MW4 4428   2.200   3.227   1.983
 1102SOL     OW 4429   2.257   3.507   1.924
 1102SOL    HW2 4430   2.241   3.414   1.942
 1102SOL    HW3 4431   2.175   3.550   1.945
 1102SOL    MW4 4432   2.244   3.500   1.929
 1103SOL     OW 4433   2.494   3.653   1.970
 1103SOL    HW2 4434   2.502   3.656   2.065
 1103SOL    HW3 4435   2.420   3.594   1.955
 1103SOL    MW4 4436   2.485   3.645   1.981
 1104SOL     OW 4437   2.454   3.908   1.856
 1104SOL    HW2 4438   2.380   3.943   1.905
 1104SOL    HW3 4439   2.472   3.823   1.896
 1104SOL    MW4 4440   2.447   3.902   1.868
 1105SOL     OW 4441   2.223   3.981   1.974
 1105SOL    HW2 4442   2.205   3.989   2.068
 1105SOL    HW3 4443   2.207   4.069   1.940
 1105SOL    MW4 4444   2.219   3.994   1.982
 1106SOL     OW 4445   2.200   4.256   1.902
 1106SOL    HW2 4446   2.271   4.312   1.931
 1106SOL    HW3 4447   2.199   4.265   1.807
 1106SOL    MW4 4448   2.209   4.265   1.894
 1107SOL     OW 4449   2.427   4.400   1.977
 1107SOL    HW2 4450   2.449   4.400   2.070
 1107SOL    HW3 4451   2.508   4.373   1.933
 1107SOL    MW4 4452   2.441   4.396   1.983
 1108SOL     OW 4453   2.918   4.666   1.823
 1108SOL    HW2 4454   2.984   4.720   1.865
 1108SOL    HW3 4455   2.938   4.577   1.851
 1108SOL    MW4 4456   2.929   4.661   1.832
 1109SOL     OW 4457   2.697   0.124   1.957
 1109SOL    HW2 4458   2.708   0.130   2.052
 1109SOL    HW3 4459   2.775   0.078   1.927
 1109SOL    MW4 4460   2.708   0.119   1.966
 1110SOL     OW 4461   2.702   0.385   1.885
 1110SOL    HW2 4462   2.784   0.426   1.910
 1110SOL    HW3 4463   2.705   0.297   1.922
 1110SOL    MW4 4464   2.713   0.379   1.893
 1111SOL     OW 4465   2.941   0.503   1.925
 1111SOL    HW2 4466   3.019   0.461   1.888
 1111SOL    HW3 4467   2.940   0.590   1.886
 1111SOL    MW4 4468   2.951   0.509   1.915
 1112SOL     OW 4469   2.911   0.757   1.844
 1112SOL    HW2 4470   2.993   0.795   1.877
 1112SOL    HW3 4471   2.843   0.795   1.900
 1112SOL    MW4 4472   2.913   0.767   1.856
 1113SOL     OW 4473   2.693   0.893   1.987
 1113SOL    HW2 4474   2.695   0.980   1.947
 1113SOL    HW3 4475   2.626   0.845   1.938
 1113SOL    MW4 4476   2.684   0.898   1.975
 1114SOL     OW 4477   2.691   1.155   1.876
 1114SOL    HW2 4478   2.613   1.193   1.915
 1114SOL    HW3 4479   2.674   1.158   1.781
 1114SOL    MW4 4480   2.678   1.161   1.868
 1115SOL     OW 4481   2.938   1.295   1.924
 1115SOL    HW2 4482   2.923   1.390   1.917
 1115SOL    HW3 4483   2.857   1.256   1.891
 1115SOL    MW4 4484   2.925   1.302   1.918
 1116SOL     OW 4485   2.903   1.587   1.907
 1116SOL    HW2 4486   2.991   1.606   1.940
 1116SOL    HW3 4487   2.912   1.593   1.812
 1116SOL    MW4 4488   2.916   1.590   1.899
 1117SOL     OW 4489   2.658   1.685   1.971
 1117SOL    HW2 4490   2.743   1.641   1.963
 1117SOL    HW3 4491   2.595   1.622   1.937
 1117SOL    MW4 4492   2.661   1.671   1.965
 1118SOL     OW 4493   2.703   1.920   1.848
 1118SOL    HW2 4494   2.776   1.954   1.899
 1118SOL    HW3 4495   2.684   1.835   1.887
 1118SOL    MW4 4496   2.710   1.913   1.860
 1119SOL     OW 4497   2.926   2.060   1.958
 1119SOL    HW2 4498   2.919   2.071   2.053
 1119SOL    HW3 4499   3.015   2.028   1.944
 1119SOL    MW4 4500   2.937   2.058   1.968
 1120SOL     OW 4501   2.915   2.332   1.920
 1120SOL    HW2 4502   3.003   2.365   1.938
 1120SOL    HW3 4503   2.922   2.237   1.932
 1120SOL    MW4 4504   2.928   2.323   1.924
 1121SOL     OW 4505   2.680   2.466   1.984
 1121SOL    HW2 4506   2.701   2.551   1.944
 1121SOL    HW3 4507   2.762   2.417   1.979
 1121SOL    MW4 4508   2.694   2.471   1.978
 1122SOL     OW 4509   2.711   2.722   1.878
 1122SOL    HW2 4510   2.639   2.776   1.911
 1122SOL    HW3 4511   2.693   2.711   1.785
 1122SOL    MW4 4512   2.699   2.728   1.870
 1123SOL     OW 4513   2.920   2.877   1.981
 1123SOL    HW2 4514   2.911   2.967   1.951
 1123SOL    HW3 4515   2.846   2.831   1.941
 1123SOL    MW4 4516   2.909   2.883   1.972
 1124SOL     OW 4517   2.930   3.149   1.910
 1124SOL    HW2 4518   3.004   3.182   1.961
 1124SOL    HW3 4519   2.853   3.180   1.958
 1124SOL    MW4 4520   2.929   3.157   1.923
 1125SOL     OW 4521   2.665   3.220   2.003
 1125SOL    HW2 4522   2.668   3.309   1.967
 1125SOL    HW3 4523   2.581   3.186   1.974
 1125SOL    MW4 4524   2.654   3.227   1.994
 1126SOL     OW 4525   2.692   3.480   1.901
 1126SOL    HW2 4526   2.776   3.519   1.924
 1126SOL    HW3 4527   2.627   3.541   1.937
 1126SOL    MW4 4528   2.695   3.493   1.909
 1127SOL     OW 4529   2.921   3.625   1.947
 1127SOL    HW2 4530   2.917   3.642   2.041
 1127SOL    HW3 4531   2.994   3.564   1.937
 1127SOL    MW4 4532   2.930   3.619   1.958
 1128SOL     OW 4533   2.900   3.903   1.864
 1128SOL    HW2 4534   2.900   3.810   1.888
 1128SOL    HW3 4535   2.883   3.903   1.770
 1128SOL    MW4 4536   2.898   3.891   1.855
 1129SOL     OW 4537   2.657   4.067   1.947
 1129SOL    HW2 4538   2.737   4.022   1.919
 1129SOL    HW3 4539   2.586   4.011   1.917
 1129SOL    MW4 4540   2.658   4.054   1.940
 1130SOL     OW 4541   2.666   4.316   1.853
 1130SOL    HW2 4542   2.665   4.233   1.901
 1130SOL    HW3 4543   2.666   4.291   1.761
 1130SOL    MW4 4544   2.666   4.302   1.847
 1131SOL     OW 4545   2.919   4.416   1.945
 1131SOL    HW2 4546   2.921   4.409   2.040
 1131SOL    HW3 4547   2.830   4.392   1.921
 1131SOL    MW4 4548   2.908   4.412   1.954
 1132SOL     OW 4549   3.402   4.636   1.864
 1132SOL    HW2 4550   3.393   4.545   1.895
 1132SOL    HW3 4551   3.383   4.632   1.771
 1132SOL    MW4 4552   3.398   4.623   1.856
 1133SOL     OW 4553   3.165   0.100   1.919
 1133SOL    HW2 4554   3.182   0.104   2.014
 1133SOL    HW3 4555   3.230   0.037   1.886
 1133SOL    MW4 4556   3.176   0.092   1.927
 1134SOL     OW 4557   3.184   0.379   1.821
 1134SOL    HW2 4558   3.193   0.285   1.834
 1134SOL    HW3 4559   3.187   0.391   1.726
 1134SOL    MW4 4560   3.186   0.368   1.810
 1135SOL     OW 4561   3.380   0.498   1.971
 1135SOL    HW2 4562   3.460   0.455   1.940
 1135SOL    HW3 4563   3.311   0.463   1.916
 1135SOL    MW4 4564   3.382   0.488   1.960
 1136SOL     OW 4565   3.385   0.781   1.889
 1136SOL    HW2 4566   3.302   0.828   1.902
 1136SOL    HW3 4567   3.373   0.698   1.936
 1136SOL    MW4 4568   3.372   0.776   1.897
 1137SOL     OW 4569   3.131   0.878   1.965
 1137SOL    HW2 4570   3.149   0.887   2.059
 1137SOL    HW3 4571   3.131   0.968   1.932
 1137SOL    MW4 4572   3.134   0.891   1.973
 1138SOL     OW 4573   3.157   1.133   1.869
 1138SOL    HW2 4574   3.224   1.195   1.900
 1138SOL    HW3 4575   3.074   1.176   1.891
 1138SOL    MW4 4576   3.154   1.147   1.876
 1139SOL     OW 4577   3.380   1.296   1.959
 1139SOL    HW2 4578   3.390   1.302   2.054
 1139SOL    HW3 4579   3.369   1.386   1.930
 1139SOL    MW4 4580   3.380   1.308   1.968
 1140SOL     OW 4581   3.346   1.533   1.835
 1140SOL    HW2 4582   3.430   1.574   1.855
 1140SOL    HW3 4583   3.282   1.581   1.887
 1140SOL    MW4 4584   3.349   1.544   1.845
 1141SOL     OW 4585   3.173   1.661   2.004
 1141SOL    HW2 4586   3.149   1.664   2.097
 1141SOL    HW3 4587   3.162   1.751   1.974
 1141SOL    MW4 4588   3.169   1.673   2.013
 1142SOL     OW 4589   3.166   1.921   1.884
 1142SOL    HW2 4590   3.240   1.965   1.926
 1142SOL    HW3 4591   3.179   1.936   1.790
 1142SOL    MW4 4592   3.177   1.929   1.877
 1143SOL     OW 4593   3.393   2.084   1.986
 1143SOL    HW2 4594   3.457   2.036   1.933
 1143SOL    HW3 4595   3.398   2.174   1.954
 1143SOL    MW4 4596   3.402   2.089   1.975
 1144SOL     OW 4597   3.422   2.346   1.906
 1144SOL    HW2 4598   3.338   2.388   1.924
 1144SOL    HW3 4599   3.427   2.341   1.811
 1144SOL    MW4 4600   3.412   2.351   1.896
 1145SOL     OW 4601   3.179   2.467   1.958
 1145SOL    HW2 4602   3.166   2.463   2.052
 1145SOL    HW3 4603   3.150   2.554   1.932
 1145SOL    MW4 4604   3.174   2.478   1.967
 1146SOL     OW 4605   3.136   2.727   1.891
 1146SOL    HW2 4606   3.055   2.773   1.913
 1146SOL    HW3 4607   3.141   2.735   1.795
 1146SOL    MW4 4608   3.126   2.734   1.881
 1147SOL     OW 4609   3.380   2.862   1.993
 1147SOL    HW2 4610   3.372   2.882   2.086
 1147SOL    HW3 4611   3.297   2.820   1.970
 1147SOL    MW4 4612   3.368   2.859   2.002
 1148SOL     OW 4613   3.353   3.098   1.868
 1148SOL    HW2 4614   3.419   3.149   1.915
 1148SOL    HW3 4615   3.359   3.011   1.906
 1148SOL    MW4 4616   3.363   3.093   1.879
 1149SOL     OW 4617   3.147   3.244   2.018
 1149SOL    HW2 4618   3.149   3.325   1.968
 1149SOL    HW3 4619   3.209   3.186   1.973
 1149SOL    MW4 4620   3.156   3.247   2.006
 1150SOL     OW 4621   3.146   3.480   1.878
 1150SOL    HW2 4622   3.226   3.521   1.911
 1150SOL    HW3 4623   3.147   3.499   1.784
 1150SOL    MW4 4624   3.157   3.488   1.870
 1151SOL     OW 4625   3.351   3.642   1.980
 1151SOL    HW2 4626   3.438   3.610   1.958
 1151SOL    HW3 4627   3.351   3.733   1.950
 1151SOL    MW4 4628   3.362   3.650   1.973
 1152SOL     OW 4629   3.344   3.910   1.873
 1152SOL    HW2 4630   3.266   3.960   1.897
 1152SOL    HW3 4631   3.341   3.906   1.777
 1152SOL    MW4 4632   3.333   3.916   1.863
 1153SOL     OW 4633   3.123   4.036   1.957
 1153SOL    HW2 4634   3.156   4.011   2.043
 1153SOL    HW3 4635   3.041   3.987   1.947
 1153SOL    MW4 4636   3.117   4.026   1.967
 1154SOL     OW 4637   3.143   4.281   1.840
 1154SOL    HW2 4638   3.139   4.193   1.876
 1154SOL    HW3 4639   3.064   4.324   1.873
 1154SOL    MW4 4640   3.132   4.275   1.849
 1155SOL     OW 4641   3.364   4.372   1.988
 1155SOL    HW2 4642   3.444   4.329   1.958
 1155SOL    HW3 4643   3.294   4.330   1.938
 1155SOL    MW4 4644   3.365   4.361   1.977
 1156SOL     OW 4645   3.820   4.653   1.871
 1156SOL    HW2 4646   3.827   4.562   1.901
 1156SOL    HW3 4647   3.742   4.687   1.914
 1156SOL    MW4 4648   3.810   4.645   1.880
 1157SOL     OW 4649   3.603   0.093   1.986
 1157SOL    HW2 4650   3.586   0.103   2.080
 1157SOL    HW3 4651   3.524   0.051   1.952
 1157SOL    MW4 4652   3.590   0.089   1.994
 1158SOL     OW 4653   3.595   0.354   1.877
 1158SOL    HW2 4654   3.606   0.265   1.909
 1158SOL    HW3 4655   3.578   0.344   1.783
 1158SOL    MW4 4656   3.594   0.341   1.869
 1159SOL     OW 4657   3.790   0.508   2.005
 1159SOL    HW2 4658   3.789   0.593   1.960
 1159SOL    HW3 4659   3.724   0.456   1.960
 1159SOL    MW4 4660   3.781   0.512   1.993
 1160SOL     OW 4661   3.813   0.744   1.860
 1160SOL    HW2 4662   3.740   0.801   1.884
 1160SOL    HW3 4663   3.812   0.743   1.764
 1160SOL    MW4 4664   3.804   0.751   1.850
 1161SOL     OW 4665   3.609   0.900   1.962
 1161SOL    HW2 4666   3.601   0.992   1.935
 1161SOL    HW3 4667   3.532   0.858   1.925
 1161SOL    MW4 4668   3.597   0.907   1.954
 1162SOL     OW 4669   3.592   1.186   1.847
 1162SOL    HW2 4670   3.508   1.225   1.872
 1162SOL    HW3 4671   3.591   1.186   1.751
 1162SOL    MW4 4672   3.581   1.191   1.837
 1163SOL     OW 4673   3.823   1.278   1.982
 1163SOL    HW2 4674   3.818   1.281   2.077
 1163SOL    HW3 4675   3.736   1.250   1.954
 1163SOL    MW4 4676   3.811   1.275   1.991
 1164SOL     OW 4677   3.815   1.547   1.894
 1164SOL    HW2 4678   3.878   1.604   1.938
 1164SOL    HW3 4679   3.824   1.463   1.940
 1164SOL    MW4 4680   3.824   1.543   1.906
 1165SOL     OW 4681   3.580   1.658   1.961
 1165SOL    HW2 4682   3.599   1.751   1.943
 1165SOL    HW3 4683   3.658   1.612   1.932
 1165SOL    MW4 4684   3.593   1.664   1.955
 1166SOL     OW 4685   3.581   1.921   1.862
 1166SOL    HW2 4686   3.654   1.975   1.892
 1166SOL    HW3 4687   3.592   1.918   1.766
 1166SOL    MW4 4688   3.592   1.928   1.853
 1167SOL     OW 4689   3.790   2.073   1.950
 1167SOL    HW2 4690   3.879   2.040   1.937
 1167SOL    HW3 4691   3.791   2.160   1.909
 1167SOL    MW4 4692   3.802   2.080   1.943
 1168SOL     OW 4693   3.829   2.341   1.880
 1168SOL    HW2 4694   3.914   2.371   1.911
 1168SOL    HW3 4695   3.769   2.413   1.900
 1168SOL    MW4 4696   3.833   2.355   1.886
 1169SOL     OW 4697   3.642   2.506   2.001
 1169SOL    HW2 4698   3.614   2.586   1.957
 1169SOL    HW3 4699   3.576   2.441   1.976
 1169SOL    MW4 4700   3.630   2.508   1.992
 1170SOL     OW 4701   3.618   2.749   1.887
 1170SOL    HW2 4702   3.682   2.798   1.939
 1170SOL    HW3 4703   3.535   2.793   1.904
 1170SOL    MW4 4704   3.616   2.761   1.896
 1171SOL     OW 4705   3.815   2.896   2.016
 1171SOL    HW2 4706   3.836   2.919   2.107
 1171SOL    HW3 4707   3.823   2.979   1.969
 1171SOL    MW4 4708   3.819   2.910   2.022
 1172SOL     OW 4709   3.818   3.147   1.887
 1172SOL    HW2 4710   3.734   3.181   1.917
 1172SOL    HW3 4711   3.808   3.140   1.792
 1172SOL    MW4 4712   3.806   3.151   1.878
 1173SOL     OW 4713   3.547   3.236   1.993
 1173SOL    HW2 4714   3.568   3.248   2.085
 1173SOL    HW3 4715   3.561   3.322   1.954
 1173SOL    MW4 4716   3.552   3.249   2.000
 1174SOL     OW 4717   3.578   3.496   1.899
 1174SOL    HW2 4718   3.670   3.498   1.926
 1174SOL    HW3 4719   3.581   3.490   1.804
 1174SOL    MW4 4720   3.591   3.496   1.890
 1175SOL     OW 4721   3.835   3.561   1.979
 1175SOL    HW2 4722   3.916   3.530   1.940
 1175SOL    HW3 4723   3.832   3.654   1.958
 1175SOL    MW4 4724   3.845   3.569   1.971
 1176SOL     OW 4725   3.814   3.830   1.925
 1176SOL    HW2 4726   3.731   3.873   1.946
 1176SOL    HW3 4727   3.816   3.829   1.829
 1176SOL    MW4 4728   3.803   3.836   1.915
 1177SOL     OW 4729   3.571   4.014   1.973
 1177SOL    HW2 4730   3.564   4.016   2.069
 1177SOL    HW3 4731   3.488   3.978   1.944
 1177SOL    MW4 4732   3.559   4.009   1.982
 1178SOL     OW 4733   3.592   4.270   1.863
 1178SOL    HW2 4734   3.668   4.313   1.902
 1178SOL    HW3 4735   3.588   4.185   1.906
 1178SOL    MW4 4736   3.602   4.265   1.874
 1179SOL     OW 4737   3.809   4.401   1.987
 1179SOL    HW2 4738   3.817   4.378   2.080
 1179SOL    HW3 4739   3.873   4.345   1.943
 1179SOL    MW4 4740   3.819   4.390   1.994
 1180SOL     OW 4741   4.266   4.638   1.878
 1180SOL    HW2 4742   4.194   4.682   1.923
 1180SOL    HW3 4743   4.345   4.682   1.911
 1180SOL    MW4 4744   4.267   4.650   1.888
 1181SOL     OW 4745   4.045   0.082   2.002
 1181SOL    HW2 4746   4.039   0.088   2.097
 1181SOL    HW3 4747   3.961   0.043   1.976
 1181SOL    MW4 4748   4.033   0.078   2.011
 1182SOL     OW 4749   4.035   0.365   1.907
 1182SOL    HW2 4750   4.033   0.270   1.911
 1182SOL    HW3 4751   3.950   0.393   1.941
 1182SOL    MW4 4752   4.023   0.356   1.912
 1183SOL     OW 4753   4.231   0.521   2.005
 1183SOL    HW2 4754   4.231   0.530   2.100
 1183SOL    HW3 4755   4.154   0.468   1.986
 1183SOL    MW4 4756   4.221   0.515   2.015
 1184SOL     OW 4757   4.247   0.780   1.908
 1184SOL    HW2 4758   4.227   0.695   1.949
 1184SOL    HW3 4759   4.238   0.763   1.814
 1184SOL    MW4 4760   4.243   0.766   1.901
 1185SOL     OW 4761   4.017   0.868   2.028
 1185SOL    HW2 4762   4.102   0.840   1.994
 1185SOL    HW3 4763   3.953   0.816   1.979
 1185SOL    MW4 4764   4.019   0.858   2.017
 1186SOL     OW 4765   4.038   1.121   1.885
 1186SOL    HW2 4766   4.046   1.031   1.918
 1186SOL    HW3 4767   3.963   1.158   1.932
 1186SOL    MW4 4768   4.029   1.114   1.896
 1187SOL     OW 4769   4.249   1.271   1.991
 1187SOL    HW2 4770   4.232   1.281   2.085
 1187SOL    HW3 4771   4.182   1.209   1.961
 1187SOL    MW4 4772   4.238   1.264   2.000
 1188SOL     OW 4773   4.269   1.538   1.944
 1188SOL    HW2 4774   4.251   1.445   1.959
 1188SOL    HW3 4775   4.280   1.545   1.849
 1188SOL    MW4 4776   4.268   1.526   1.933
 1189SOL     OW 4777   4.017   1.683   2.012
 1189SOL    HW2 4778   4.015   1.670   2.107
 1189SOL    HW3 4779   4.090   1.629   1.982
 1189SOL    MW4 4780   4.026   1.674   2.021
 1190SOL     OW 4781   4.037   1.927   1.889
 1190SOL    HW2 4782   4.045   1.837   1.919
 1190SOL    HW3 4783   4.067   1.924   1.798
 1190SOL    MW4 4784   4.042   1.915   1.881
 1191SOL     OW 4785   4.252   2.064   1.996
 1191SOL    HW2 4786   4.263   2.054   2.091
 1191SOL    HW3 4787   4.170   2.019   1.977
 1191SOL    MW4 4788   4.243   2.057   2.006
 1192SOL     OW 4789   4.238   2.330   1.902
 1192SOL    HW2 4790   4.234   2.243   1.942
 1192SOL    HW3 4791   4.321   2.366   1.933
 1192SOL    MW4 4792   4.248   2.323   1.912
 1193SOL     OW 4793   4.039   2.501   1.997
 1193SOL    HW2 4794   4.049   2.490   2.091
 1193SOL    HW3 4795   4.103   2.441   1.958
 1193SOL    MW4 4796   4.048   2.491   2.004
 1194SOL     OW 4797   4.004   2.755   1.889
 1194SOL    HW2 4798   4.021   2.670   1.930
 1194SOL    HW3 4799   3.934   2.794   1.942
 1194SOL    MW4 4800   3.997   2.749   1.902
 1195SOL     OW 4801   4.251   2.863   1.974
 1195SOL    HW2 4802   4.270   2.846   2.067
 1195SOL    HW3 4803   4.167   2.821   1.958
 1195SOL    MW4 4804   4.243   2.855   1.984
 1196SOL     OW 4805   4.313   3.122   1.858
 1196SOL    HW2 4806   4.237   3.157   1.905
 1196SOL    HW3 4807   4.307   3.027   1.870
 1196SOL    MW4 4808   4.302   3.114   1.866
 1197SOL     OW 4809   4.080   3.201   1.989
 1197SOL    HW2 4810   4.081   3.202   2.085
 1197SOL    HW3 4811   3.998   3.158   1.966
 1197SOL    MW4 4812   4.070   3.195   1.999
 1198SOL     OW 4813   4.056   3.457   1.879
 1198SOL    HW2 4814   4.133   3.494   1.923
 1198SOL    HW3 4815   4.059   3.364   1.901
 1198SOL    MW4 4816   4.067   3.449   1.888
 1199SOL     OW 4817   4.279   3.616   1.978
 1199SOL    HW2 4818   4.257   3.701   1.941
 1199SOL    HW3 4819   4.366   3.596   1.943
 1199SOL    MW4 4820   4.287   3.624   1.968
 1200SOL     OW 4821   4.283   3.880   1.901
 1200SOL    HW2 4822   4.369   3.917   1.917
 1200SOL    HW3 4823   4.275   3.876   1.806
 1200SOL    MW4 4824   4.293   3.884   1.891
 1201SOL     OW 4825   4.032   3.977   1.959
 1201SOL    HW2 4826   4.108   3.920   1.949
 1201SOL    HW3 4827   3.957   3.917   1.959
 1201SOL    MW4 4828   4.032   3.962   1.958
 1202SOL     OW 4829   4.009   4.255   1.872
 1202SOL    HW2 4830   4.087   4.306   1.891
 1202SOL    HW3 4831   4.025   4.169   1.912
 1202SOL    MW4 4832   4.021   4.250   1.880
 1203SOL     OW 4833   4.252   4.365   1.956
 1203SOL    HW2 4834   4.259   4.383   2.050
 1203SOL    HW3 4835   4.257   4.451   1.915
 1203SOL    MW4 4836   4.254   4.379   1.963
 1204SOL     OW 4837   0.198   0.017   2.376
 1204SOL    HW2 4838   0.206   0.034   2.469
 1204SOL    HW3 4839   0.284   0.037   2.340
 1204SOL    MW4 4840   0.210   0.022   2.383
 1205SOL     OW 4841   4.469   0.158   2.284
 1205SOL    HW2 4842   4.558   0.128   2.300
 1205SOL    HW3 4843   4.458   0.149   2.189
 1205SOL    MW4 4844   4.479   0.153   2.273
 1206SOL     OW 4845   4.465   0.424   2.349
 1206SOL    HW2 4846   4.552   0.449   2.319
 1206SOL    HW3 4847   4.458   0.331   2.329
 1206SOL    MW4 4848   4.476   0.415   2.343
 1207SOL     OW 4849   0.230   0.488   2.252
 1207SOL    HW2 4850   0.313   0.455   2.287
 1207SOL    HW3 4851   0.241   0.485   2.157
 1207SOL    MW4 4852   0.242   0.483   2.244
 1208SOL     OW 4853   0.238   0.756   2.358
 1208SOL    HW2 4854   0.217   0.747   2.451
 1208SOL    HW3 4855   0.227   0.668   2.322
 1208SOL    MW4 4856   0.234   0.743   2.365
 1209SOL     OW 4857   0.016   0.921   2.311
 1209SOL    HW2 4858   0.088   0.861   2.332
 1209SOL    HW3 4859  -0.003   0.904   2.219
 1209SOL    MW4 4860   0.023   0.911   2.302
 1210SOL     OW 4861   0.004   1.220   2.372
 1210SOL    HW2 4862  -0.011   1.224   2.466
 1210SOL    HW3 4863   0.007   1.127   2.351
 1210SOL    MW4 4864   0.002   1.208   2.381
 1211SOL     OW 4865   0.256   1.257   2.246
 1211SOL    HW2 4866   0.180   1.229   2.296
 1211SOL    HW3 4867   0.230   1.248   2.155
 1211SOL    MW4 4868   0.243   1.252   2.241
 1212SOL     OW 4869   0.239   1.514   2.341
 1212SOL    HW2 4870   0.241   1.514   2.437
 1212SOL    HW3 4871   0.250   1.422   2.317
 1212SOL    MW4 4872   0.241   1.502   2.350
 1213SOL     OW 4873   0.013   1.663   2.270
 1213SOL    HW2 4874   0.001   1.737   2.330
 1213SOL    HW3 4875   0.098   1.626   2.295
 1213SOL    MW4 4876   0.023   1.668   2.281
 1214SOL     OW 4877   4.468   1.918   2.385
 1214SOL    HW2 4878   4.399   1.961   2.335
 1214SOL    HW3 4879   4.549   1.962   2.357
 1214SOL    MW4 4880   4.470   1.930   2.374
 1215SOL     OW 4881   0.207   2.034   2.252
 1215SOL    HW2 4882   0.296   2.000   2.263
 1215SOL    HW3 4883   0.200   2.054   2.159
 1215SOL    MW4 4884   0.218   2.032   2.241
 1216SOL     OW 4885   0.235   2.288   2.377
 1216SOL    HW2 4886   0.216   2.277   2.470
 1216SOL    HW3 4887   0.219   2.202   2.339
 1216SOL    MW4 4888   0.230   2.276   2.384
 1217SOL     OW 4889   4.475   2.391   2.318
 1217SOL    HW2 4890   4.472   2.485   2.339
 1217SOL    HW3 4891   4.567   2.367   2.325
 1217SOL    MW4 4892   4.487   2.400   2.322
 1218SOL     OW 4893   0.037   2.668   2.322
 1218SOL    HW2 4894   0.040   2.667   2.418
 1218SOL    HW3 4895   0.094   2.742   2.297
 1218SOL    MW4 4896   0.045   2.678   2.331
 1219SOL     OW 4897   0.218   2.873   2.254
 1219SOL    HW2 4898   0.294   2.819   2.276
 1219SOL    HW3 4899   0.207   2.861   2.160
 1219SOL    MW4 4900   0.227   2.865   2.245
 1220SOL     OW 4901   0.216   3.135   2.353
 1220SOL    HW2 4902   0.137   3.182   2.325
 1220SOL    HW3 4903   0.200   3.044   2.329
 1220SOL    MW4 4904   0.203   3.129   2.346
 1221SOL     OW 4905   4.474   3.238   2.296
 1221SOL    HW2 4906   4.466   3.321   2.342
 1221SOL    HW3 4907   4.480   3.262   2.203
 1221SOL    MW4 4908   4.473   3.252   2.290
 1222SOL     OW 4909   4.485   3.496   2.401
 1222SOL    HW2 4910   4.456   3.495   2.493
 1222SOL    HW3 4911   4.422   3.554   2.357
 1222SOL    MW4 4912   4.473   3.503   2.408
 1223SOL     OW 4913   0.228   3.564   2.267
 1223SOL    HW2 4914   0.312   3.527   2.295
 1223SOL    HW3 4915   0.164   3.525   2.327
 1223SOL    MW4 4916   0.231   3.554   2.279
 1224SOL     OW 4917   0.221   3.854   2.383
 1224SOL    HW2 4918   0.143   3.897   2.349
 1224SOL    HW3 4919   0.223   3.769   2.338
 1224SOL    MW4 4920   0.211   3.848   2.373
 1225SOL     OW 4921   4.479   3.983   2.249
 1225SOL    HW2 4922   4.491   4.072   2.281
 1225SOL    HW3 4923   4.490   3.990   2.154
 1225SOL    MW4 4924   4.482   3.996   2.240
 1226SOL     OW 4925   4.467   4.248   2.330
 1226SOL    HW2 4926   4.460   4.241   2.425
 1226SOL    HW3 4927   4.538   4.311   2.315
 1226SOL    MW4 4928   4.475   4.255   2.340
 1227SOL     OW 4929   0.198   4.377   2.277
 1227SOL    HW2 4930   0.279   4.346   2.318
 1227SOL    HW3 4931   0.187   4.466   2.310
 1227SOL    MW4 4932   0.208   4.385   2.287
 1228SOL     OW 4933   0.699   4.649   2.377
 1228SOL    HW2 4934   0.681   4.638   2.470
 1228SOL    HW3 4935   0.775   4.707   2.374
 1228SOL    MW4 4936   0.706   4.655   2.389
 1229SOL     OW 4937   0.454   0.110   2.283
 1229SOL    HW2 4938   0.537   0.068   2.305
 1229SOL    HW3 4939   0.454   0.114   2.187
 1229SOL    MW4 4940   0.465   0.105   2.273
 1230SOL     OW 4941   0.462   0.370   2.357
 1230SOL    HW2 4942   0.469   0.370   2.452
 1230SOL    HW3 4943   0.440   0.280   2.334
 1230SOL    MW4 4944   0.460   0.358   2.366
 1231SOL     OW 4945   0.687   0.478   2.251
 1231SOL    HW2 4946   0.681   0.569   2.280
 1231SOL    HW3 4947   0.610   0.435   2.288
 1231SOL    MW4 4948   0.676   0.485   2.260
 1232SOL     OW 4949   0.686   0.729   2.349
 1232SOL    HW2 4950   0.691   0.724   2.444
 1232SOL    HW3 4951   0.610   0.785   2.332
 1232SOL    MW4 4952   0.677   0.736   2.359
 1233SOL     OW 4953   0.474   0.889   2.289
 1233SOL    HW2 4954   0.388   0.861   2.321
 1233SOL    HW3 4955   0.472   0.869   2.196
 1233SOL    MW4 4956   0.462   0.883   2.281
 1234SOL     OW 4957   0.484   1.159   2.385
 1234SOL    HW2 4958   0.485   1.069   2.352
 1234SOL    HW3 4959   0.425   1.205   2.325
 1234SOL    MW4 4960   0.476   1.153   2.373
 1235SOL     OW 4961   0.715   1.264   2.284
 1235SOL    HW2 4962   0.708   1.357   2.304
 1235SOL    HW3 4963   0.641   1.224   2.330
 1235SOL    MW4 4964   0.704   1.271   2.293
 1236SOL     OW 4965   0.656   1.542   2.355
 1236SOL    HW2 4966   0.672   1.538   2.449
 1236SOL    HW3 4967   0.739   1.575   2.318
 1236SOL    MW4 4968   0.669   1.546   2.362
 1237SOL     OW 4969   0.440   1.678   2.241
 1237SOL    HW2 4970   0.521   1.651   2.284
 1237SOL    HW3 4971   0.374   1.618   2.273
 1237SOL    MW4 4972   0.442   1.667   2.251
 1238SOL     OW 4973   0.445   1.931   2.336
 1238SOL    HW2 4974   0.525   1.972   2.301
 1238SOL    HW3 4975   0.440   1.846   2.293
 1238SOL    MW4 4976   0.455   1.925   2.326
 1239SOL     OW 4977   0.664   2.044   2.226
 1239SOL    HW2 4978   0.746   2.005   2.257
 1239SOL    HW3 4979   0.664   2.132   2.263
 1239SOL    MW4 4980   0.675   2.051   2.235
 1240SOL     OW 4981   0.698   2.301   2.344
 1240SOL    HW2 4982   0.691   2.318   2.437
 1240SOL    HW3 4983   0.763   2.364   2.312
 1240SOL    MW4 4984   0.706   2.311   2.352
 1241SOL     OW 4985   0.453   2.421   2.265
 1241SOL    HW2 4986   0.529   2.370   2.295
 1241SOL    HW3 4987   0.378   2.378   2.306
 1241SOL    MW4 4988   0.454   2.409   2.275
 1242SOL     OW 4989   0.400   2.679   2.349
 1242SOL    HW2 4990   0.428   2.678   2.440
 1242SOL    HW3 4991   0.401   2.587   2.322
 1242SOL    MW4 4992   0.404   2.667   2.357
 1243SOL     OW 4993   0.660   2.834   2.279
 1243SOL    HW2 4994   0.738   2.787   2.308
 1243SOL    HW3 4995   0.587   2.777   2.302
 1243SOL    MW4 4996   0.660   2.820   2.286
 1244SOL     OW 4997   0.702   3.103   2.392
 1244SOL    HW2 4998   0.617   3.138   2.364
 1244SOL    HW3 4999   0.706   3.016   2.354
 1244SOL    MW4 5000   0.691   3.096   2.384
 1245SOL     OW 5001   0.471   3.205   2.281
 1245SOL    HW2 5002   0.379   3.178   2.290
 1245SOL    HW3 5003   0.484   3.214   2.187
 1245SOL    MW4 5004   0.460   3.203   2.270
 1246SOL     OW 5005   0.458   3.456   2.408
 1246SOL    HW2 5006   0.531   3.503   2.368
 1246SOL    HW3 5007   0.459   3.370   2.366
 1246SOL    MW4 5008   0.468   3.451   2.397
 1247SOL     OW 5009   0.646   3.636   2.283
 1247SOL    HW2 5010   0.666   3.727   2.306
 1247SOL    HW3 5011   0.629   3.638   2.189
 1247SOL    MW4 5012   0.646   3.648   2.274
 1248SOL     OW 5013   0.684   3.916   2.348
 1248SOL    HW2 5014   0.675   3.904   2.443
 1248SOL    HW3 5015   0.596   3.940   2.319
 1248SOL    MW4 5016   0.671   3.918   2.357
 1249SOL     OW 5017   0.435   4.026   2.287
 1249SOL    HW2 5018   0.365   3.971   2.321
 1249SOL    HW3 5019   0.428   4.021   2.192
 1249SOL    MW4 5020   0.425   4.018   2.279
 1250SOL     OW 5021   0.445   4.309   2.354
 1250SOL    HW2 5022   0.525   4.351   2.322
 1250SOL    HW3 5023   0.454   4.217   2.329
 1250SOL    MW4 5024   0.457   4.303   2.347
 1251SOL     OW 5025   0.686   4.390   2.251
 1251SOL    HW2 5026   0.697   4.478   2.287
 1251SOL    HW3 5027   0.699   4.401   2.157
 1251SOL    MW4 5028   0.689   4.403   2.243
 1252SOL     OW 5029   1.130   4.640   2.363
 1252SOL    HW2 5030   1.121   4.612   2.455
 1252SOL    HW3 5031   1.051   4.690   2.345
 1252SOL    MW4 5032   1.118   4.643   2.373
 1253SOL     OW 5033   0.909   0.150   2.323
 1253SOL    HW2 5034   0.925   0.238   2.357
 1253SOL    HW3 5035   0.881   0.164   2.232
 1253SOL    MW4 5036   0.907   0.164   2.316
 1254SOL     OW 5037   0.925   0.415   2.398
 1254SOL    HW2 5038   0.998   0.461   2.358
 1254SOL    HW3 5039   0.847   0.452   2.356
 1254SOL    MW4 5040   0.924   0.426   2.387
 1255SOL     OW 5041   1.164   0.523   2.268
 1255SOL    HW2 5042   1.227   0.456   2.294
 1255SOL    HW3 5043   1.161   0.519   2.173
 1255SOL    MW4 5044   1.172   0.514   2.259
 1256SOL     OW 5045   1.128   0.797   2.362
 1256SOL    HW2 5046   1.042   0.824   2.329
 1256SOL    HW3 5047   1.139   0.708   2.329
 1256SOL    MW4 5048   1.118   0.789   2.354
 1257SOL     OW 5049   0.889   0.925   2.294
 1257SOL    HW2 5050   0.913   1.002   2.345
 1257SOL    HW3 5051   0.819   0.883   2.344
 1257SOL    MW4 5052   0.883   0.929   2.307
 1258SOL     OW 5053   0.969   1.168   2.421
 1258SOL    HW2 5054   1.044   1.196   2.370
 1258SOL    HW3 5055   0.897   1.223   2.390
 1258SOL    MW4 5056   0.969   1.179   2.410
 1259SOL     OW 5057   1.151   1.289   2.245
 1259SOL    HW2 5058   1.226   1.230   2.249
 1259SOL    HW3 5059   1.119   1.281   2.155
 1259SOL    MW4 5060   1.157   1.280   2.234
 1260SOL     OW 5061   1.141   1.541   2.371
 1260SOL    HW2 5062   1.062   1.590   2.348
 1260SOL    HW3 5063   1.137   1.462   2.318
 1260SOL    MW4 5064   1.130   1.537   2.361
 1261SOL     OW 5065   0.901   1.670   2.275
 1261SOL    HW2 5066   0.891   1.764   2.288
 1261SOL    HW3 5067   0.908   1.660   2.180
 1261SOL    MW4 5068   0.901   1.681   2.264
 1262SOL     OW 5069   0.899   1.932   2.316
 1262SOL    HW2 5070   0.903   1.931   2.412
 1262SOL    HW3 5071   0.970   1.991   2.290
 1262SOL    MW4 5072   0.909   1.940   2.325
 1263SOL     OW 5073   1.124   2.103   2.241
 1263SOL    HW2 5074   1.194   2.053   2.281
 1263SOL    HW3 5075   1.125   2.077   2.149
 1263SOL    MW4 5076   1.133   2.093   2.234
 1264SOL     OW 5077   1.112   2.347   2.356
 1264SOL    HW2 5078   1.191   2.393   2.328
 1264SOL    HW3 5079   1.118   2.262   2.313
 1264SOL    MW4 5080   1.123   2.342   2.347
 1265SOL     OW 5081   0.899   2.489   2.247
 1265SOL    HW2 5082   0.967   2.432   2.284
 1265SOL    HW3 5083   0.897   2.467   2.154
 1265SOL    MW4 5084   0.908   2.478   2.240
 1266SOL     OW 5085   0.896   2.729   2.369
 1266SOL    HW2 5086   0.894   2.717   2.464
 1266SOL    HW3 5087   0.904   2.641   2.334
 1266SOL    MW4 5088   0.896   2.716   2.377
 1267SOL     OW 5089   1.128   2.856   2.283
 1267SOL    HW2 5090   1.205   2.804   2.305
 1267SOL    HW3 5091   1.055   2.807   2.322
 1267SOL    MW4 5092   1.128   2.842   2.291
 1268SOL     OW 5093   1.127   3.125   2.373
 1268SOL    HW2 5094   1.069   3.185   2.325
 1268SOL    HW3 5095   1.102   3.038   2.342
 1268SOL    MW4 5096   1.116   3.121   2.362
 1269SOL     OW 5097   0.900   3.252   2.239
 1269SOL    HW2 5098   0.898   3.336   2.286
 1269SOL    HW3 5099   0.850   3.192   2.296
 1269SOL    MW4 5100   0.893   3.255   2.253
 1270SOL     OW 5101   0.884   3.507   2.361
 1270SOL    HW2 5102   0.879   3.478   2.452
 1270SOL    HW3 5103   0.802   3.555   2.347
 1270SOL    MW4 5104   0.872   3.509   2.371
 1271SOL     OW 5105   1.090   3.617   2.203
 1271SOL    HW2 5106   1.175   3.601   2.245
 1271SOL    HW3 5107   1.026   3.576   2.261
 1271SOL    MW4 5108   1.093   3.609   2.216
 1272SOL     OW 5109   1.075   3.852   2.332
 1272SOL    HW2 5110   1.157   3.895   2.305
 1272SOL    HW3 5111   1.068   3.775   2.275
 1272SOL    MW4 5112   1.085   3.847   2.321
 1273SOL     OW 5113   0.902   4.034   2.246
 1273SOL    HW2 5114   0.960   3.963   2.272
 1273SOL    HW3 5115   0.816   4.008   2.279
 1273SOL    MW4 5116   0.898   4.021   2.254
 1274SOL     OW 5117   0.907   4.272   2.383
 1274SOL    HW2 5118   0.905   4.185   2.344
 1274SOL    HW3 5119   0.834   4.318   2.342
 1274SOL    MW4 5120   0.897   4.267   2.372
 1275SOL     OW 5121   1.123   4.387   2.252
 1275SOL    HW2 5122   1.052   4.337   2.291
 1275SOL    HW3 5123   1.111   4.476   2.285
 1275SOL    MW4 5124   1.112   4.392   2.261
 1276SOL     OW 5125   1.548   4.637   2.371
 1276SOL    HW2 5126   1.622   4.674   2.322
 1276SOL    HW3 5127   1.471   4.664   2.321
 1276SOL    MW4 5128   1.548   4.645   2.358
 1277SOL     OW 5129   1.341   0.101   2.231
 1277SOL    HW2 5130   1.347   0.184   2.277
 1277SOL    HW3 5131   1.270   0.054   2.275
 1277SOL    MW4 5132   1.332   0.106   2.243
 1278SOL     OW 5133   1.340   0.355   2.365
 1278SOL    HW2 5134   1.352   0.350   2.460
 1278SOL    HW3 5135   1.418   0.401   2.334
 1278SOL    MW4 5136   1.352   0.360   2.374
 1279SOL     OW 5137   1.547   0.533   2.291
 1279SOL    HW2 5138   1.626   0.480   2.295
 1279SOL    HW3 5139   1.533   0.549   2.197
 1279SOL    MW4 5140   1.555   0.528   2.279
 1280SOL     OW 5141   1.569   0.807   2.370
 1280SOL    HW2 5142   1.644   0.833   2.316
 1280SOL    HW3 5143   1.559   0.713   2.354
 1280SOL    MW4 5144   1.577   0.798   2.361
 1281SOL     OW 5145   1.349   0.912   2.229
 1281SOL    HW2 5146   1.427   0.881   2.276
 1281SOL    HW3 5147   1.276   0.872   2.275
 1281SOL    MW4 5148   1.350   0.903   2.241
 1282SOL     OW 5149   1.349   1.145   2.368
 1282SOL    HW2 5150   1.341   1.119   2.460
 1282SOL    HW3 5151   1.344   1.064   2.319
 1282SOL    MW4 5152   1.348   1.131   2.374
 1283SOL     OW 5153   1.560   1.301   2.303
 1283SOL    HW2 5154   1.494   1.237   2.329
 1283SOL    HW3 5155   1.562   1.295   2.207
 1283SOL    MW4 5156   1.552   1.292   2.294
 1284SOL     OW 5157   1.554   1.549   2.419
 1284SOL    HW2 5158   1.617   1.591   2.360
 1284SOL    HW3 5159   1.536   1.464   2.378
 1284SOL    MW4 5160   1.560   1.543   2.406
 1285SOL     OW 5161   1.360   1.698   2.272
 1285SOL    HW2 5162   1.434   1.667   2.324
 1285SOL    HW3 5163   1.286   1.645   2.302
 1285SOL    MW4 5164   1.360   1.687   2.283
 1286SOL     OW 5165   1.353   1.972   2.369
 1286SOL    HW2 5166   1.442   2.003   2.352
 1286SOL    HW3 5167   1.344   1.894   2.314
 1286SOL    MW4 5168   1.364   1.966   2.360
 1287SOL     OW 5169   1.580   2.063   2.261
 1287SOL    HW2 5170   1.655   2.008   2.286
 1287SOL    HW3 5171   1.573   2.051   2.166
 1287SOL    MW4 5172   1.589   2.054   2.252
 1288SOL     OW 5173   1.565   2.344   2.380
 1288SOL    HW2 5174   1.558   2.333   2.475
 1288SOL    HW3 5175   1.576   2.255   2.346
 1288SOL    MW4 5176   1.565   2.330   2.388
 1289SOL     OW 5177   1.337   2.470   2.254
 1289SOL    HW2 5178   1.411   2.434   2.303
 1289SOL    HW3 5179   1.335   2.419   2.173
 1289SOL    MW4 5180   1.346   2.458   2.250
 1290SOL     OW 5181   1.350   2.726   2.352
 1290SOL    HW2 5182   1.434   2.765   2.327
 1290SOL    HW3 5183   1.348   2.643   2.305
 1290SOL    MW4 5184   1.361   2.720   2.342
 1291SOL     OW 5185   1.580   2.838   2.261
 1291SOL    HW2 5186   1.579   2.932   2.276
 1291SOL    HW3 5187   1.578   2.829   2.165
 1291SOL    MW4 5188   1.580   2.849   2.250
 1292SOL     OW 5189   1.580   3.108   2.336
 1292SOL    HW2 5190   1.564   3.089   2.429
 1292SOL    HW3 5191   1.504   3.160   2.309
 1292SOL    MW4 5192   1.568   3.113   2.345
 1293SOL     OW 5193   1.369   3.266   2.262
 1293SOL    HW2 5194   1.314   3.198   2.300
 1293SOL    HW3 5195   1.362   3.252   2.167
 1293SOL    MW4 5196   1.361   3.256   2.254
 1294SOL     OW 5197   1.302   3.534   2.349
 1294SOL    HW2 5198   1.290   3.524   2.444
 1294SOL    HW3 5199   1.315   3.445   2.317
 1294SOL    MW4 5200   1.302   3.521   2.357
 1295SOL     OW 5201   1.555   3.602   2.268
 1295SOL    HW2 5202   1.567   3.683   2.318
 1295SOL    HW3 5203   1.471   3.568   2.297
 1295SOL    MW4 5204   1.546   3.608   2.278
 1296SOL     OW 5205   1.583   3.863   2.372
 1296SOL    HW2 5206   1.578   3.867   2.467
 1296SOL    HW3 5207   1.649   3.927   2.348
 1296SOL    MW4 5208   1.591   3.872   2.381
 1297SOL     OW 5209   1.340   3.964   2.274
 1297SOL    HW2 5210   1.416   3.919   2.312
 1297SOL    HW3 5211   1.353   3.957   2.180
 1297SOL    MW4 5212   1.352   3.957   2.267
 1298SOL     OW 5213   1.344   4.240   2.359
 1298SOL    HW2 5214   1.341   4.153   2.319
 1298SOL    HW3 5215   1.268   4.285   2.324
 1298SOL    MW4 5216   1.334   4.235   2.349
 1299SOL     OW 5217   1.553   4.375   2.252
 1299SOL    HW2 5218   1.480   4.332   2.296
 1299SOL    HW3 5219   1.558   4.461   2.293
 1299SOL    MW4 5220   1.544   4.381   2.263
 1300SOL     OW 5221   2.025   0.003   2.368
 1300SOL    HW2 5222   2.097   0.056   2.333
 1300SOL    HW3 5223   2.034  -0.082   2.324
 1300SOL    MW4 5224   2.036  -0.001   2.357
 1301SOL     OW 5225   1.777   0.084   2.241
 1301SOL    HW2 5226   1.781   0.177   2.264
 1301SOL    HW3 5227   1.856   0.046   2.281
 1301SOL    MW4 5228   1.788   0.091   2.250
 1302SOL     OW 5229   1.773   0.349   2.324
 1302SOL    HW2 5230   1.767   0.349   2.420
 1302SOL    HW3 5231   1.861   0.382   2.306
 1302SOL    MW4 5232   1.784   0.353   2.334
 1303SOL     OW 5233   2.011   0.502   2.256
 1303SOL    HW2 5234   2.021   0.595   2.276
 1303SOL    HW3 5235   2.013   0.497   2.160
 1303SOL    MW4 5236   2.013   0.513   2.246
 1304SOL     OW 5237   2.025   0.757   2.357
 1304SOL    HW2 5238   2.100   0.804   2.321
 1304SOL    HW3 5239   1.949   0.793   2.311
 1304SOL    MW4 5240   2.025   0.768   2.346
 1305SOL     OW 5241   1.813   0.898   2.252
 1305SOL    HW2 5242   1.809   0.986   2.292
 1305SOL    HW3 5243   1.808   0.914   2.158
 1305SOL    MW4 5244   1.812   0.912   2.245
 1306SOL     OW 5245   1.797   1.158   2.354
 1306SOL    HW2 5246   1.874   1.190   2.306
 1306SOL    HW3 5247   1.726   1.215   2.325
 1306SOL    MW4 5248   1.798   1.170   2.344
 1307SOL     OW 5249   2.018   1.286   2.235
 1307SOL    HW2 5250   1.999   1.367   2.281
 1307SOL    HW3 5251   2.014   1.309   2.142
 1307SOL    MW4 5252   2.015   1.300   2.229
 1308SOL     OW 5253   1.971   1.539   2.333
 1308SOL    HW2 5254   1.984   1.549   2.427
 1308SOL    HW3 5255   1.886   1.580   2.315
 1308SOL    MW4 5256   1.962   1.546   2.343
 1309SOL     OW 5257   1.727   1.668   2.242
 1309SOL    HW2 5258   1.764   1.751   2.272
 1309SOL    HW3 5259   1.736   1.671   2.147
 1309SOL    MW4 5260   1.733   1.680   2.234
 1310SOL     OW 5261   1.809   1.924   2.328
 1310SOL    HW2 5262   1.804   1.942   2.422
 1310SOL    HW3 5263   1.881   1.978   2.297
 1310SOL    MW4 5264   1.817   1.933   2.336
 1311SOL     OW 5265   2.014   2.091   2.231
 1311SOL    HW2 5266   2.094   2.047   2.261
 1311SOL    HW3 5267   2.011   2.074   2.137
 1311SOL    MW4 5268   2.024   2.083   2.222
 1312SOL     OW 5269   2.003   2.355   2.321
 1312SOL    HW2 5270   2.066   2.407   2.271
 1312SOL    HW3 5271   2.019   2.265   2.293
 1312SOL    MW4 5272   2.014   2.350   2.311
 1313SOL     OW 5273   1.766   2.466   2.206
 1313SOL    HW2 5274   1.844   2.415   2.227
 1313SOL    HW3 5275   1.695   2.420   2.251
 1313SOL    MW4 5276   1.767   2.453   2.214
 1314SOL     OW 5277   1.832   2.719   2.320
 1314SOL    HW2 5278   1.805   2.641   2.271
 1314SOL    HW3 5279   1.756   2.776   2.319
 1314SOL    MW4 5280   1.819   2.716   2.314
 1315SOL     OW 5281   2.070   2.861   2.259
 1315SOL    HW2 5282   2.129   2.817   2.320
 1315SOL    HW3 5283   1.984   2.821   2.275
 1315SOL    MW4 5284   2.066   2.850   2.269
 1316SOL     OW 5285   2.020   3.105   2.365
 1316SOL    HW2 5286   2.092   3.159   2.334
 1316SOL    HW3 5287   2.034   3.020   2.325
 1316SOL    MW4 5288   2.031   3.101   2.356
 1317SOL     OW 5289   1.807   3.231   2.245
 1317SOL    HW2 5290   1.874   3.176   2.286
 1317SOL    HW3 5291   1.724   3.194   2.273
 1317SOL    MW4 5292   1.805   3.219   2.254
 1318SOL     OW 5293   1.796   3.492   2.345
 1318SOL    HW2 5294   1.792   3.399   2.321
 1318SOL    HW3 5295   1.707   3.524   2.333
 1318SOL    MW4 5296   1.784   3.484   2.340
 1319SOL     OW 5297   2.029   3.611   2.223
 1319SOL    HW2 5298   1.952   3.575   2.266
 1319SOL    HW3 5299   2.009   3.606   2.129
 1319SOL    MW4 5300   2.016   3.605   2.216
 1320SOL     OW 5301   2.001   3.865   2.345
 1320SOL    HW2 5302   2.045   3.867   2.430
 1320SOL    HW3 5303   2.023   3.780   2.308
 1320SOL    MW4 5304   2.010   3.854   2.352
 1321SOL     OW 5305   1.792   4.021   2.278
 1321SOL    HW2 5306   1.862   3.958   2.295
 1321SOL    HW3 5307   1.790   4.031   2.183
 1321SOL    MW4 5308   1.801   4.014   2.268
 1322SOL     OW 5309   1.797   4.290   2.331
 1322SOL    HW2 5310   1.800   4.195   2.317
 1322SOL    HW3 5311   1.707   4.315   2.310
 1322SOL    MW4 5312   1.786   4.281   2.327
 1323SOL     OW 5313   2.032   4.416   2.246
 1323SOL    HW2 5314   1.951   4.380   2.281
 1323SOL    HW3 5315   2.017   4.424   2.152
 1323SOL    MW4 5316   2.020   4.412   2.239
 1324SOL     OW 5317   2.495   4.649   2.373
 1324SOL    HW2 5318   2.562   4.697   2.325
 1324SOL    HW3 5319   2.494   4.562   2.333
 1324SOL    MW4 5320   2.504   4.644   2.362
 1325SOL     OW 5321   2.272   0.120   2.253
 1325SOL    HW2 5322   2.287   0.209   2.284
 1325SOL    HW3 5323   2.343   0.069   2.292
 1325SOL    MW4 5324   2.284   0.125   2.262
 1326SOL     OW 5325   2.261   0.383   2.340
 1326SOL    HW2 5326   2.333   0.436   2.306
 1326SOL    HW3 5327   2.182   0.423   2.303
 1326SOL    MW4 5328   2.260   0.396   2.331
 1327SOL     OW 5329   2.469   0.530   2.206
 1327SOL    HW2 5330   2.547   0.481   2.231
 1327SOL    HW3 5331   2.464   0.522   2.111
 1327SOL    MW4 5332   2.479   0.523   2.197
 1328SOL     OW 5333   2.470   0.773   2.356
 1328SOL    HW2 5334   2.545   0.826   2.327
 1328SOL    HW3 5335   2.480   0.690   2.310
 1328SOL    MW4 5336   2.481   0.769   2.346
 1329SOL     OW 5337   2.243   0.866   2.231
 1329SOL    HW2 5338   2.233   0.960   2.244
 1329SOL    HW3 5339   2.314   0.841   2.289
 1329SOL    MW4 5340   2.251   0.875   2.240
 1330SOL     OW 5341   2.240   1.131   2.296
 1330SOL    HW2 5342   2.320   1.180   2.279
 1330SOL    HW3 5343   2.170   1.187   2.260
 1330SOL    MW4 5344   2.241   1.145   2.289
 1331SOL     OW 5345   2.456   1.294   2.248
 1331SOL    HW2 5346   2.537   1.251   2.277
 1331SOL    HW3 5347   2.460   1.381   2.288
 1331SOL    MW4 5348   2.467   1.300   2.257
 1332SOL     OW 5349   2.429   1.552   2.382
 1332SOL    HW2 5350   2.455   1.546   2.474
 1332SOL    HW3 5351   2.504   1.594   2.339
 1332SOL    MW4 5352   2.442   1.557   2.389
 1333SOL     OW 5353   2.209   1.698   2.272
 1333SOL    HW2 5354   2.271   1.637   2.312
 1333SOL    HW3 5355   2.123   1.663   2.297
 1333SOL    MW4 5356   2.206   1.685   2.281
 1334SOL     OW 5357   2.226   1.967   2.318
 1334SOL    HW2 5358   2.301   2.002   2.270
 1334SOL    HW3 5359   2.230   1.873   2.303
 1334SOL    MW4 5360   2.237   1.959   2.310
 1335SOL     OW 5361   2.452   2.087   2.201
 1335SOL    HW2 5362   2.523   2.036   2.238
 1335SOL    HW3 5363   2.461   2.075   2.106
 1335SOL    MW4 5364   2.462   2.079   2.193
 1336SOL     OW 5365   2.462   2.318   2.358
 1336SOL    HW2 5366   2.528   2.378   2.321
 1336SOL    HW3 5367   2.459   2.245   2.296
 1336SOL    MW4 5368   2.471   2.317   2.345
 1337SOL     OW 5369   2.233   2.460   2.209
 1337SOL    HW2 5370   2.248   2.533   2.270
 1337SOL    HW3 5371   2.294   2.392   2.237
 1337SOL    MW4 5372   2.243   2.461   2.221
 1338SOL     OW 5373   2.256   2.693   2.366
 1338SOL    HW2 5374   2.238   2.712   2.458
 1338SOL    HW3 5375   2.314   2.764   2.337
 1338SOL    MW4 5376   2.262   2.705   2.374
 1339SOL     OW 5377   2.445   2.870   2.266
 1339SOL    HW2 5378   2.520   2.817   2.293
 1339SOL    HW3 5379   2.458   2.884   2.172
 1339SOL    MW4 5380   2.456   2.865   2.257
 1340SOL     OW 5381   2.470   3.136   2.362
 1340SOL    HW2 5382   2.547   3.182   2.329
 1340SOL    HW3 5383   2.478   3.047   2.328
 1340SOL    MW4 5384   2.481   3.130   2.353
 1341SOL     OW 5385   2.235   3.252   2.258
 1341SOL    HW2 5386   2.250   3.346   2.264
 1341SOL    HW3 5387   2.316   3.213   2.290
 1341SOL    MW4 5388   2.248   3.259   2.263
 1342SOL     OW 5389   2.264   3.523   2.314
 1342SOL    HW2 5390   2.251   3.499   2.406
 1342SOL    HW3 5391   2.178   3.555   2.285
 1342SOL    MW4 5392   2.251   3.524   2.322
 1343SOL     OW 5393   2.505   3.647   2.233
 1343SOL    HW2 5394   2.489   3.736   2.266
 1343SOL    HW3 5395   2.429   3.597   2.261
 1343SOL    MW4 5396   2.493   3.652   2.241
 1344SOL     OW 5397   2.459   3.904   2.342
 1344SOL    HW2 5398   2.461   3.903   2.437
 1344SOL    HW3 5399   2.378   3.951   2.319
 1344SOL    MW4 5400   2.448   3.910   2.351
 1345SOL     OW 5401   2.213   3.997   2.241
 1345SOL    HW2 5402   2.204   4.090   2.262
 1345SOL    HW3 5403   2.144   3.954   2.292
 1345SOL    MW4 5404   2.203   4.004   2.251
 1346SOL     OW 5405   2.235   4.271   2.332
 1346SOL    HW2 5406   2.245   4.280   2.427
 1346SOL    HW3 5407   2.173   4.340   2.308
 1346SOL    MW4 5408   2.228   4.282   2.341
 1347SOL     OW 5409   2.506   4.392   2.251
 1347SOL    HW2 5410   2.578   4.348   2.297
 1347SOL    HW3 5411   2.428   4.345   2.280
 1347SOL    MW4 5412   2.505   4.380   2.261
 1348SOL     OW 5413   2.928   0.006   2.323
 1348SOL    HW2 5414   3.000   0.054   2.282
 1348SOL    HW3 5415   2.933  -0.081   2.284
 1348SOL    MW4 5416   2.938   0.001   2.312
 1349SOL     OW 5417   2.688   0.113   2.228
 1349SOL    HW2 5418   2.679   0.206   2.246
 1349SOL    HW3 5419   2.770   0.088   2.270
 1349SOL    MW4 5420   2.698   0.122   2.236
 1350SOL     OW 5421   2.674   0.376   2.283
 1350SOL    HW2 5422   2.655   0.393   2.375
 1350SOL    HW3 5423   2.765   0.405   2.272
 1350SOL    MW4 5424   2.684   0.382   2.294
 1351SOL     OW 5425   2.926   0.502   2.213
 1351SOL    HW2 5426   2.932   0.590   2.251
 1351SOL    HW3 5427   2.930   0.516   2.119
 1351SOL    MW4 5428   2.927   0.516   2.206
 1352SOL     OW 5429   2.928   0.747   2.359
 1352SOL    HW2 5430   2.930   0.756   2.454
 1352SOL    HW3 5431   2.846   0.789   2.333
 1352SOL    MW4 5432   2.917   0.754   2.368
 1353SOL     OW 5433   2.710   0.881   2.262
 1353SOL    HW2 5434   2.700   0.974   2.286
 1353SOL    HW3 5435   2.724   0.883   2.167
 1353SOL    MW4 5436   2.710   0.894   2.252
 1354SOL     OW 5437   2.684   1.149   2.327
 1354SOL    HW2 5438   2.684   1.148   2.423
 1354SOL    HW3 5439   2.764   1.195   2.303
 1354SOL    MW4 5440   2.695   1.155   2.336
 1355SOL     OW 5441   2.911   1.274   2.222
 1355SOL    HW2 5442   2.989   1.234   2.260
 1355SOL    HW3 5443   2.928   1.276   2.128
 1355SOL    MW4 5444   2.923   1.269   2.215
 1356SOL     OW 5445   2.883   1.530   2.336
 1356SOL    HW2 5446   2.897   1.516   2.429
 1356SOL    HW3 5447   2.877   1.442   2.299
 1356SOL    MW4 5448   2.884   1.517   2.343
 1357SOL     OW 5449   2.642   1.652   2.235
 1357SOL    HW2 5450   2.716   1.593   2.243
 1357SOL    HW3 5451   2.636   1.671   2.142
 1357SOL    MW4 5452   2.651   1.647   2.224
 1358SOL     OW 5453   2.659   1.925   2.308
 1358SOL    HW2 5454   2.681   1.932   2.401
 1358SOL    HW3 5455   2.652   1.831   2.292
 1358SOL    MW4 5456   2.661   1.914   2.318
 1359SOL     OW 5457   2.881   2.078   2.233
 1359SOL    HW2 5458   2.963   2.037   2.262
 1359SOL    HW3 5459   2.812   2.022   2.267
 1359SOL    MW4 5460   2.883   2.065   2.241
 1360SOL     OW 5461   2.900   2.340   2.335
 1360SOL    HW2 5462   2.907   2.309   2.425
 1360SOL    HW3 5463   2.896   2.260   2.283
 1360SOL    MW4 5464   2.900   2.325   2.340
 1361SOL     OW 5465   2.654   2.481   2.259
 1361SOL    HW2 5466   2.736   2.438   2.284
 1361SOL    HW3 5467   2.651   2.473   2.164
 1361SOL    MW4 5468   2.664   2.474   2.250
 1362SOL     OW 5469   2.679   2.742   2.355
 1362SOL    HW2 5470   2.750   2.788   2.310
 1362SOL    HW3 5471   2.686   2.651   2.325
 1362SOL    MW4 5472   2.689   2.736   2.345
 1363SOL     OW 5473   2.901   2.857   2.252
 1363SOL    HW2 5474   2.907   2.943   2.294
 1363SOL    HW3 5475   2.910   2.875   2.159
 1363SOL    MW4 5476   2.903   2.871   2.246
 1364SOL     OW 5477   2.936   3.108   2.363
 1364SOL    HW2 5478   2.996   3.175   2.331
 1364SOL    HW3 5479   2.852   3.128   2.320
 1364SOL    MW4 5480   2.933   3.119   2.353
 1365SOL     OW 5481   2.712   3.232   2.270
 1365SOL    HW2 5482   2.720   3.324   2.296
 1365SOL    HW3 5483   2.703   3.235   2.174
 1365SOL    MW4 5484   2.712   3.245   2.261
 1366SOL     OW 5485   2.715   3.503   2.346
 1366SOL    HW2 5486   2.784   3.547   2.296
 1366SOL    HW3 5487   2.634   3.547   2.317
 1366SOL    MW4 5488   2.713   3.515   2.336
 1367SOL     OW 5489   2.917   3.652   2.214
 1367SOL    HW2 5490   2.981   3.602   2.265
 1367SOL    HW3 5491   2.897   3.727   2.268
 1367SOL    MW4 5492   2.923   3.655   2.228
 1368SOL     OW 5493   2.904   3.923   2.328
 1368SOL    HW2 5494   2.907   3.907   2.422
 1368SOL    HW3 5495   2.815   3.955   2.313
 1368SOL    MW4 5496   2.892   3.925   2.339
 1369SOL     OW 5497   2.671   4.074   2.259
 1369SOL    HW2 5498   2.589   4.039   2.294
 1369SOL    HW3 5499   2.669   4.051   2.166
 1369SOL    MW4 5500   2.660   4.066   2.251
 1370SOL     OW 5501   2.742   4.318   2.390
 1370SOL    HW2 5502   2.704   4.302   2.476
 1370SOL    HW3 5503   2.733   4.235   2.344
 1370SOL    MW4 5504   2.736   4.305   2.396
 1371SOL     OW 5505   2.948   4.405   2.226
 1371SOL    HW2 5506   3.026   4.361   2.259
 1371SOL    HW3 5507   2.878   4.377   2.285
 1371SOL    MW4 5508   2.949   4.396   2.238
 1372SOL     OW 5509   3.360   4.637   2.309
 1372SOL    HW2 5510   3.361   4.672   2.398
 1372SOL    HW3 5511   3.444   4.665   2.272
 1372SOL    MW4 5512   3.372   4.646   2.316
 1373SOL     OW 5513   3.168   0.113   2.200
 1373SOL    HW2 5514   3.173   0.202   2.236
 1373SOL    HW3 5515   3.243   0.067   2.239
 1373SOL    MW4 5516   3.178   0.119   2.210
 1374SOL     OW 5517   3.133   0.380   2.343
 1374SOL    HW2 5518   3.211   0.432   2.323
 1374SOL    HW3 5519   3.064   0.419   2.290
 1374SOL    MW4 5520   3.134   0.392   2.333
 1375SOL     OW 5521   3.351   0.530   2.241
 1375SOL    HW2 5522   3.426   0.483   2.276
 1375SOL    HW3 5523   3.358   0.521   2.146
 1375SOL    MW4 5524   3.362   0.522   2.233
 1376SOL     OW 5525   3.361   0.762   2.379
 1376SOL    HW2 5526   3.448   0.787   2.348
 1376SOL    HW3 5527   3.348   0.674   2.342
 1376SOL    MW4 5528   3.371   0.753   2.370
 1377SOL     OW 5529   3.158   0.876   2.242
 1377SOL    HW2 5530   3.237   0.845   2.287
 1377SOL    HW3 5531   3.087   0.823   2.278
 1377SOL    MW4 5532   3.159   0.865   2.252
 1378SOL     OW 5533   3.139   1.145   2.329
 1378SOL    HW2 5534   3.217   1.187   2.293
 1378SOL    HW3 5535   3.136   1.059   2.286
 1378SOL    MW4 5536   3.149   1.139   2.318
 1379SOL     OW 5537   3.375   1.273   2.238
 1379SOL    HW2 5538   3.452   1.230   2.276
 1379SOL    HW3 5539   3.372   1.359   2.281
 1379SOL    MW4 5540   3.385   1.279   2.249
 1380SOL     OW 5541   3.352   1.523   2.325
 1380SOL    HW2 5542   3.376   1.536   2.417
 1380SOL    HW3 5543   3.279   1.583   2.311
 1380SOL    MW4 5544   3.345   1.533   2.336
 1381SOL     OW 5545   3.132   1.678   2.275
 1381SOL    HW2 5546   3.125   1.772   2.294
 1381SOL    HW3 5547   3.049   1.641   2.307
 1381SOL    MW4 5548   3.120   1.685   2.282
 1382SOL     OW 5549   3.117   1.968   2.342
 1382SOL    HW2 5550   3.120   1.955   2.437
 1382SOL    HW3 5551   3.207   1.992   2.318
 1382SOL    MW4 5552   3.129   1.970   2.351
 1383SOL     OW 5553   3.363   2.050   2.243
 1383SOL    HW2 5554   3.436   2.006   2.286
 1383SOL    HW3 5555   3.385   2.049   2.150
 1383SOL    MW4 5556   3.375   2.044   2.236
 1384SOL     OW 5557   3.364   2.313   2.352
 1384SOL    HW2 5558   3.296   2.353   2.299
 1384SOL    HW3 5559   3.377   2.226   2.312
 1384SOL    MW4 5560   3.357   2.307   2.340
 1385SOL     OW 5561   3.140   2.448   2.237
 1385SOL    HW2 5562   3.142   2.537   2.272
 1385SOL    HW3 5563   3.056   2.412   2.266
 1385SOL    MW4 5564   3.129   2.455   2.245
 1386SOL     OW 5565   3.127   2.717   2.333
 1386SOL    HW2 5566   3.146   2.703   2.426
 1386SOL    HW3 5567   3.040   2.755   2.332
 1386SOL    MW4 5568   3.118   2.720   2.345
 1387SOL     OW 5569   3.358   2.872   2.273
 1387SOL    HW2 5570   3.361   2.955   2.320
 1387SOL    HW3 5571   3.272   2.835   2.296
 1387SOL    MW4 5572   3.347   2.878   2.282
 1388SOL     OW 5573   3.393   3.110   2.387
 1388SOL    HW2 5574   3.467   3.161   2.354
 1388SOL    HW3 5575   3.316   3.158   2.359
 1388SOL    MW4 5576   3.393   3.123   2.379
 1389SOL     OW 5577   3.159   3.263   2.292
 1389SOL    HW2 5578   3.158   3.358   2.308
 1389SOL    HW3 5579   3.152   3.255   2.197
 1389SOL    MW4 5580   3.158   3.275   2.282
 1390SOL     OW 5581   3.112   3.538   2.357
 1390SOL    HW2 5582   3.121   3.533   2.453
 1390SOL    HW3 5583   3.194   3.578   2.328
 1390SOL    MW4 5584   3.124   3.543   2.366
 1391SOL     OW 5585   3.335   3.668   2.255
 1391SOL    HW2 5586   3.415   3.624   2.283
 1391SOL    HW3 5587   3.330   3.651   2.161
 1391SOL    MW4 5588   3.345   3.660   2.246
 1392SOL     OW 5589   3.358   3.905   2.394
 1392SOL    HW2 5590   3.416   3.954   2.336
 1392SOL    HW3 5591   3.350   3.819   2.353
 1392SOL    MW4 5592   3.365   3.900   2.381
 1393SOL     OW 5593   3.153   3.985   2.237
 1393SOL    HW2 5594   3.217   3.953   2.301
 1393SOL    HW3 5595   3.069   3.952   2.268
 1393SOL    MW4 5596   3.151   3.976   2.250
 1394SOL     OW 5597   3.133   4.240   2.327
 1394SOL    HW2 5598   3.215   4.276   2.292
 1394SOL    HW3 5599   3.134   4.148   2.302
 1394SOL    MW4 5600   3.144   4.233   2.319
 1395SOL     OW 5601   3.366   4.375   2.256
 1395SOL    HW2 5602   3.378   4.465   2.285
 1395SOL    HW3 5603   3.369   4.379   2.160
 1395SOL    MW4 5604   3.368   4.387   2.247
 1396SOL     OW 5605   3.786   4.644   2.384
 1396SOL    HW2 5606   3.814   4.649   2.476
 1396SOL    HW3 5607   3.857   4.686   2.335
 1396SOL    MW4 5608   3.799   4.650   2.390
 1397SOL     OW 5609   3.581   0.142   2.268
 1397SOL    HW2 5610   3.576   0.221   2.323
 1397SOL    HW3 5611   3.650   0.090   2.309
 1397SOL    MW4 5612   3.589   0.146   2.281
 1398SOL     OW 5613   3.552   0.401   2.379
 1398SOL    HW2 5614   3.556   0.388   2.474
 1398SOL    HW3 5615   3.628   0.456   2.359
 1398SOL    MW4 5616   3.563   0.407   2.389
 1399SOL     OW 5617   3.782   0.518   2.294
 1399SOL    HW2 5618   3.793   0.610   2.317
 1399SOL    HW3 5619   3.799   0.515   2.199
 1399SOL    MW4 5620   3.785   0.530   2.284
 1400SOL     OW 5621   3.825   0.783   2.358
 1400SOL    HW2 5622   3.814   0.801   2.451
 1400SOL    HW3 5623   3.913   0.815   2.337
 1400SOL    MW4 5624   3.835   0.789   2.367
 1401SOL     OW 5625   3.586   0.870   2.247
 1401SOL    HW2 5626   3.675   0.844   2.274
 1401SOL    HW3 5627   3.595   0.890   2.154
 1401SOL    MW4 5628   3.599   0.869   2.238
 1402SOL     OW 5629   3.602   1.135   2.335
 1402SOL    HW2 5630   3.602   1.143   2.431
 1402SOL    HW3 5631   3.602   1.040   2.319
 1402SOL    MW4 5632   3.602   1.123   2.346
 1403SOL     OW 5633   3.830   1.255   2.248
 1403SOL    HW2 5634   3.815   1.344   2.279
 1403SOL    HW3 5635   3.761   1.203   2.289
 1403SOL    MW4 5636   3.819   1.260   2.257
 1404SOL     OW 5637   3.796   1.507   2.347
 1404SOL    HW2 5638   3.809   1.537   2.437
 1404SOL    HW3 5639   3.729   1.566   2.313
 1404SOL    MW4 5640   3.789   1.519   2.355
 1405SOL     OW 5641   3.542   1.697   2.226
 1405SOL    HW2 5642   3.477   1.630   2.247
 1405SOL    HW3 5643   3.554   1.690   2.131
 1405SOL    MW4 5644   3.535   1.687   2.216
 1406SOL     OW 5645   3.586   1.936   2.361
 1406SOL    HW2 5646   3.649   1.978   2.303
 1406SOL    HW3 5647   3.570   1.851   2.322
 1406SOL    MW4 5648   3.592   1.931   2.348
 1407SOL     OW 5649   3.788   2.068   2.229
 1407SOL    HW2 5650   3.871   2.027   2.254
 1407SOL    HW3 5651   3.790   2.068   2.133
 1407SOL    MW4 5652   3.799   2.062   2.219
 1408SOL     OW 5653   3.793   2.328   2.359
 1408SOL    HW2 5654   3.715   2.380   2.342
 1408SOL    HW3 5655   3.783   2.250   2.304
 1408SOL    MW4 5656   3.782   2.324   2.349
 1409SOL     OW 5657   3.557   2.494   2.280
 1409SOL    HW2 5658   3.497   2.422   2.298
 1409SOL    HW3 5659   3.567   2.494   2.185
 1409SOL    MW4 5660   3.550   2.484   2.270
 1410SOL     OW 5661   3.590   2.763   2.357
 1410SOL    HW2 5662   3.569   2.674   2.332
 1410SOL    HW3 5663   3.518   2.816   2.324
 1410SOL    MW4 5664   3.578   2.758   2.349
 1411SOL     OW 5665   3.866   2.890   2.287
 1411SOL    HW2 5666   3.849   2.974   2.329
 1411SOL    HW3 5667   3.793   2.834   2.316
 1411SOL    MW4 5668   3.854   2.894   2.297
 1412SOL     OW 5669   3.797   3.148   2.388
 1412SOL    HW2 5670   3.809   3.126   2.481
 1412SOL    HW3 5671   3.884   3.174   2.359
 1412SOL    MW4 5672   3.810   3.149   2.397
 1413SOL     OW 5673   3.579   3.278   2.259
 1413SOL    HW2 5674   3.572   3.365   2.298
 1413SOL    HW3 5675   3.666   3.247   2.285
 1413SOL    MW4 5676   3.590   3.286   2.267
 1414SOL     OW 5677   3.596   3.544   2.342
 1414SOL    HW2 5678   3.606   3.569   2.434
 1414SOL    HW3 5679   3.685   3.549   2.306
 1414SOL    MW4 5680   3.609   3.548   2.350
 1415SOL     OW 5681   3.853   3.596   2.265
 1415SOL    HW2 5682   3.846   3.689   2.289
 1415SOL    HW3 5683   3.854   3.596   2.170
 1415SOL    MW4 5684   3.852   3.609   2.256
 1416SOL     OW 5685   3.758   3.864   2.358
 1416SOL    HW2 5686   3.763   3.865   2.454
 1416SOL    HW3 5687   3.830   3.920   2.329
 1416SOL    MW4 5688   3.768   3.871   2.367
 1417SOL     OW 5689   3.560   4.023   2.243
 1417SOL    HW2 5690   3.560   4.092   2.309
 1417SOL    HW3 5691   3.631   3.964   2.269
 1417SOL    MW4 5692   3.569   4.024   2.255
 1418SOL     OW 5693   3.583   4.262   2.374
 1418SOL    HW2 5694   3.653   4.309   2.330
 1418SOL    HW3 5695   3.502   4.301   2.340
 1418SOL    MW4 5696   3.581   4.273   2.364
 1419SOL     OW 5697   3.806   4.374   2.262
 1419SOL    HW2 5698   3.875   4.323   2.304
 1419SOL    HW3 5699   3.806   4.458   2.308
 1419SOL    MW4 5700   3.815   4.378   2.274
 1420SOL     OW 5701   4.265   4.652   2.399
 1420SOL    HW2 5702   4.291   4.653   2.491
 1420SOL    HW3 5703   4.323   4.715   2.356
 1420SOL    MW4 5704   4.276   4.661   2.405
 1421SOL     OW 5705   4.022   0.102   2.279
 1421SOL    HW2 5706   3.994   0.184   2.319
 1421SOL    HW3 5707   4.094   0.072   2.335
 1421SOL    MW4 5708   4.028   0.109   2.291
 1422SOL     OW 5709   4.006   0.356   2.369
 1422SOL    HW2 5710   4.080   0.401   2.327
 1422SOL    HW3 5711   3.931   0.411   2.349
 1422SOL    MW4 5712   4.006   0.369   2.361
 1423SOL     OW 5713   4.225   0.520   2.278
 1423SOL    HW2 5714   4.214   0.603   2.325
 1423SOL    HW3 5715   4.315   0.493   2.296
 1423SOL    MW4 5716   4.236   0.527   2.286
 1424SOL     OW 5717   4.294   0.770   2.389
 1424SOL    HW2 5718   4.223   0.826   2.359
 1424SOL    HW3 5719   4.374   0.819   2.368
 1424SOL    MW4 5720   4.295   0.784   2.382
 1425SOL     OW 5721   4.081   0.891   2.302
 1425SOL    HW2 5722   4.090   0.984   2.323
 1425SOL    HW3 5723   4.095   0.887   2.207
 1425SOL    MW4 5724   4.084   0.903   2.292
 1426SOL     OW 5725   4.059   1.182   2.366
 1426SOL    HW2 5726   4.042   1.173   2.460
 1426SOL    HW3 5727   3.975   1.208   2.329
 1426SOL    MW4 5728   4.046   1.184   2.374
 1427SOL     OW 5729   4.252   1.326   2.255
 1427SOL    HW2 5730   4.197   1.266   2.305
 1427SOL    HW3 5731   4.342   1.304   2.281
 1427SOL    MW4 5732   4.257   1.316   2.265
 1428SOL     OW 5733   4.266   1.570   2.387
 1428SOL    HW2 5734   4.255   1.476   2.374
 1428SOL    HW3 5735   4.340   1.593   2.331
 1428SOL    MW4 5736   4.274   1.561   2.378
 1429SOL     OW 5737   4.028   1.649   2.274
 1429SOL    HW2 5738   4.099   1.603   2.318
 1429SOL    HW3 5739   3.951   1.593   2.285
 1429SOL    MW4 5740   4.027   1.636   2.281
 1430SOL     OW 5741   4.013   1.915   2.319
 1430SOL    HW2 5742   4.026   1.918   2.414
 1430SOL    HW3 5743   4.028   1.823   2.296
 1430SOL    MW4 5744   4.017   1.903   2.328
 1431SOL     OW 5745   4.252   2.036   2.273
 1431SOL    HW2 5746   4.247   2.125   2.309
 1431SOL    HW3 5747   4.166   1.998   2.291
 1431SOL    MW4 5748   4.240   2.043   2.280
 1432SOL     OW 5749   4.244   2.277   2.403
 1432SOL    HW2 5750   4.178   2.327   2.355
 1432SOL    HW3 5751   4.327   2.302   2.362
 1432SOL    MW4 5752   4.247   2.287   2.391
 1433SOL     OW 5753   4.027   2.447   2.264
 1433SOL    HW2 5754   4.026   2.537   2.296
 1433SOL    HW3 5755   3.948   2.408   2.301
 1433SOL    MW4 5756   4.016   2.454   2.273
 1434SOL     OW 5757   4.056   2.703   2.338
 1434SOL    HW2 5758   4.057   2.713   2.434
 1434SOL    HW3 5759   4.008   2.780   2.307
 1434SOL    MW4 5760   4.050   2.714   2.347
 1435SOL     OW 5761   4.307   2.781   2.223
 1435SOL    HW2 5762   4.234   2.735   2.263
 1435SOL    HW3 5763   4.385   2.741   2.261
 1435SOL    MW4 5764   4.308   2.770   2.233
 1436SOL     OW 5765   4.258   3.046   2.319
 1436SOL    HW2 5766   4.246   2.954   2.294
 1436SOL    HW3 5767   4.327   3.077   2.261
 1436SOL    MW4 5768   4.265   3.038   2.308
 1437SOL     OW 5769   4.035   3.211   2.259
 1437SOL    HW2 5770   4.045   3.291   2.310
 1437SOL    HW3 5771   4.113   3.159   2.281
 1437SOL    MW4 5772   4.047   3.214   2.269
 1438SOL     OW 5773   4.097   3.466   2.369
 1438SOL    HW2 5774   4.170   3.509   2.325
 1438SOL    HW3 5775   4.019   3.502   2.327
 1438SOL    MW4 5776   4.096   3.476   2.358
 1439SOL     OW 5777   4.295   3.625   2.248
 1439SOL    HW2 5778   4.261   3.713   2.263
 1439SOL    HW3 5779   4.297   3.616   2.153
 1439SOL    MW4 5780   4.291   3.635   2.238
 1440SOL     OW 5781   4.233   3.891   2.365
 1440SOL    HW2 5782   4.246   3.887   2.459
 1440SOL    HW3 5783   4.318   3.920   2.330
 1440SOL    MW4 5784   4.246   3.894   2.373
 1441SOL     OW 5785   4.019   4.003   2.244
 1441SOL    HW2 5786   4.086   3.952   2.288
 1441SOL    HW3 5787   4.037   3.991   2.151
 1441SOL    MW4 5788   4.030   3.995   2.237
 1442SOL     OW 5789   4.039   4.255   2.359
 1442SOL    HW2 5790   4.104   4.305   2.310
 1442SOL    HW3 5791   4.045   4.166   2.324
 1442SOL    MW4 5792   4.048   4.250   2.348
 1443SOL     OW 5793   4.250   4.415   2.257
 1443SOL    HW2 5794   4.257   4.498   2.303
 1443SOL    HW3 5795   4.320   4.361   2.294
 1443SOL    MW4 5796   4.260   4.419   2.268
 1444SOL     OW 5797   0.231   4.657   2.642
 1444SOL    HW2 5798   0.222   4.565   2.668
 1444SOL    HW3 5799   0.159   4.701   2.687
 1444SOL    MW4 5800   0.220   4.651   2.651
 1445SOL     OW 5801   0.026   0.142   2.761
 1445SOL    HW2 5802   0.026   0.153   2.856
 1445SOL    HW3 5803   0.015   0.231   2.727
 1445SOL    MW4 5804   0.025   0.155   2.769
 1446SOL     OW 5805   0.017   0.405   2.641
 1446SOL    HW2 5806   0.094   0.458   2.662
 1446SOL    HW3 5807   0.010   0.410   2.545
 1446SOL    MW4 5808   0.026   0.413   2.631
 1447SOL     OW 5809   0.257   0.526   2.748
 1447SOL    HW2 5810   0.271   0.522   2.842
 1447SOL    HW3 5811   0.316   0.459   2.712
 1447SOL    MW4 5812   0.267   0.517   2.755
 1448SOL     OW 5813   0.215   0.764   2.650
 1448SOL    HW2 5814   0.297   0.800   2.685
 1448SOL    HW3 5815   0.217   0.672   2.676
 1448SOL    MW4 5816   0.226   0.757   2.658
 1449SOL     OW 5817   0.006   0.902   2.760
 1449SOL    HW2 5818  -0.064   0.838   2.741
 1449SOL    HW3 5819   0.085   0.862   2.723
 1449SOL    MW4 5820   0.007   0.888   2.752
 1450SOL     OW 5821   4.484   1.160   2.644
 1450SOL    HW2 5822   4.562   1.201   2.681
 1450SOL    HW3 5823   4.486   1.070   2.678
 1450SOL    MW4 5824   4.495   1.153   2.653
 1451SOL     OW 5825   0.214   1.275   2.752
 1451SOL    HW2 5826   0.280   1.225   2.705
 1451SOL    HW3 5827   0.221   1.364   2.717
 1451SOL    MW4 5828   0.223   1.280   2.741
 1452SOL     OW 5829   0.219   1.521   2.629
 1452SOL    HW2 5830   0.303   1.559   2.654
 1452SOL    HW3 5831   0.153   1.576   2.670
 1452SOL    MW4 5832   0.222   1.533   2.638
 1453SOL     OW 5833   0.043   1.694   2.764
 1453SOL    HW2 5834   0.018   1.698   2.856
 1453SOL    HW3 5835   0.018   1.779   2.728
 1453SOL    MW4 5836   0.036   1.706   2.771
 1454SOL     OW 5837   4.463   1.942   2.662
 1454SOL    HW2 5838   4.546   1.983   2.685
 1454SOL    HW3 5839   4.462   1.940   2.567
 1454SOL    MW4 5840   4.474   1.947   2.653
 1455SOL     OW 5841   0.223   2.053   2.714
 1455SOL    HW2 5842   0.298   2.001   2.683
 1455SOL    HW3 5843   0.244   2.142   2.688
 1455SOL    MW4 5844   0.236   2.058   2.707
 1456SOL     OW 5845   0.246   2.328   2.661
 1456SOL    HW2 5846   0.321   2.375   2.698
 1456SOL    HW3 5847   0.171   2.362   2.710
 1456SOL    MW4 5848   0.246   2.339   2.672
 1457SOL     OW 5849   0.020   2.425   2.764
 1457SOL    HW2 5850   0.018   2.425   2.860
 1457SOL    HW3 5851  -0.061   2.380   2.739
 1457SOL    MW4 5852   0.009   2.419   2.774
 1458SOL     OW 5853   0.002   2.668   2.593
 1458SOL    HW2 5854  -0.056   2.735   2.629
 1458SOL    HW3 5855  -0.009   2.593   2.652
 1458SOL    MW4 5856  -0.007   2.667   2.605
 1459SOL     OW 5857   0.238   2.825   2.699
 1459SOL    HW2 5858   0.219   2.916   2.675
 1459SOL    HW3 5859   0.158   2.777   2.675
 1459SOL    MW4 5860   0.225   2.831   2.693
 1460SOL     OW 5861   0.212   3.081   2.623
 1460SOL    HW2 5862   0.291   3.118   2.662
 1460SOL    HW3 5863   0.223   3.095   2.529
 1460SOL    MW4 5864   0.224   3.088   2.616
 1461SOL     OW 5865   4.484   3.212   2.740
 1461SOL    HW2 5866   4.415   3.161   2.697
 1461SOL    HW3 5867   4.564   3.188   2.693
 1461SOL    MW4 5868   4.485   3.202   2.728
 1462SOL     OW 5869   4.451   3.494   2.689
 1462SOL    HW2 5870   4.544   3.511   2.705
 1462SOL    HW3 5871   4.436   3.406   2.723
 1462SOL    MW4 5872   4.461   3.485   2.696
 1463SOL     OW 5873   0.211   3.582   2.746
 1463SOL    HW2 5874   0.208   3.582   2.842
 1463SOL    HW3 5875   0.295   3.542   2.724
 1463SOL    MW4 5876   0.221   3.577   2.756
 1464SOL     OW 5877   0.212   3.859   2.667
 1464SOL    HW2 5878   0.205   3.766   2.692
 1464SOL    HW3 5879   0.228   3.857   2.572
 1464SOL    MW4 5880   0.213   3.846   2.658
 1465SOL     OW 5881   4.488   4.021   2.747
 1465SOL    HW2 5882   4.479   4.102   2.696
 1465SOL    HW3 5883   4.561   3.975   2.706
 1465SOL    MW4 5884   4.496   4.026   2.735
 1466SOL     OW 5885   0.008   4.268   2.606
 1466SOL    HW2 5886  -0.062   4.314   2.652
 1466SOL    HW3 5887   0.088   4.291   2.654
 1466SOL    MW4 5888   0.009   4.277   2.618
 1467SOL     OW 5889   0.223   4.394   2.743
 1467SOL    HW2 5890   0.239   4.379   2.836
 1467SOL    HW3 5891   0.301   4.360   2.699
 1467SOL    MW4 5892   0.235   4.388   2.749
 1468SOL     OW 5893   0.664   4.639   2.645
 1468SOL    HW2 5894   0.734   4.700   2.668
 1468SOL    HW3 5895   0.583   4.683   2.673
 1468SOL    MW4 5896   0.662   4.653   2.651
 1469SOL     OW 5897   0.459   0.100   2.742
 1469SOL    HW2 5898   0.461   0.086   2.836
 1469SOL    HW3 5899   0.377   0.060   2.713
 1469SOL    MW4 5900   0.448   0.093   2.750
 1470SOL     OW 5901   0.470   0.379   2.632
 1470SOL    HW2 5902   0.531   0.432   2.683
 1470SOL    HW3 5903   0.479   0.291   2.670
 1470SOL    MW4 5904   0.479   0.374   2.644
 1471SOL     OW 5905   0.658   0.506   2.775
 1471SOL    HW2 5906   0.656   0.509   2.870
 1471SOL    HW3 5907   0.743   0.468   2.754
 1471SOL    MW4 5908   0.669   0.501   2.785
 1472SOL     OW 5909   0.697   0.731   2.628
 1472SOL    HW2 5910   0.778   0.772   2.660
 1472SOL    HW3 5911   0.687   0.653   2.683
 1472SOL    MW4 5912   0.707   0.726   2.640
 1473SOL     OW 5913   0.468   0.858   2.742
 1473SOL    HW2 5914   0.465   0.939   2.692
 1473SOL    HW3 5915   0.542   0.809   2.705
 1473SOL    MW4 5916   0.477   0.862   2.731
 1474SOL     OW 5917   0.412   1.122   2.656
 1474SOL    HW2 5918   0.486   1.164   2.700
 1474SOL    HW3 5919   0.424   1.142   2.564
 1474SOL    MW4 5920   0.423   1.130   2.650
 1475SOL     OW 5921   0.640   1.241   2.769
 1475SOL    HW2 5922   0.643   1.249   2.864
 1475SOL    HW3 5923   0.721   1.196   2.745
 1475SOL    MW4 5924   0.651   1.236   2.778
 1476SOL     OW 5925   0.666   1.494   2.633
 1476SOL    HW2 5926   0.597   1.551   2.666
 1476SOL    HW3 5927   0.644   1.407   2.668
 1476SOL    MW4 5928   0.654   1.490   2.642
 1477SOL     OW 5929   0.446   1.650   2.714
 1477SOL    HW2 5930   0.447   1.664   2.809
 1477SOL    HW3 5931   0.455   1.737   2.677
 1477SOL    MW4 5932   0.447   1.663   2.722
 1478SOL     OW 5933   0.447   1.908   2.622
 1478SOL    HW2 5934   0.521   1.963   2.646
 1478SOL    HW3 5935   0.445   1.911   2.526
 1478SOL    MW4 5936   0.456   1.915   2.612
 1479SOL     OW 5937   0.660   2.062   2.701
 1479SOL    HW2 5938   0.658   2.071   2.796
 1479SOL    HW3 5939   0.744   2.020   2.682
 1479SOL    MW4 5940   0.671   2.058   2.711
 1480SOL     OW 5941   0.664   2.320   2.626
 1480SOL    HW2 5942   0.748   2.355   2.657
 1480SOL    HW3 5943   0.668   2.227   2.648
 1480SOL    MW4 5944   0.676   2.312   2.633
 1481SOL     OW 5945   0.473   2.457   2.766
 1481SOL    HW2 5946   0.466   2.537   2.713
 1481SOL    HW3 5947   0.537   2.403   2.720
 1481SOL    MW4 5948   0.481   2.460   2.753
 1482SOL     OW 5949   0.471   2.698   2.616
 1482SOL    HW2 5950   0.545   2.746   2.652
 1482SOL    HW3 5951   0.394   2.742   2.653
 1482SOL    MW4 5952   0.471   2.710   2.625
 1483SOL     OW 5953   0.674   2.818   2.748
 1483SOL    HW2 5954   0.652   2.840   2.839
 1483SOL    HW3 5955   0.673   2.902   2.703
 1483SOL    MW4 5956   0.671   2.832   2.754
 1484SOL     OW 5957   0.678   3.094   2.676
 1484SOL    HW2 5958   0.761   3.121   2.715
 1484SOL    HW3 5959   0.691   3.104   2.582
 1484SOL    MW4 5960   0.691   3.099   2.669
 1485SOL     OW 5961   0.433   3.176   2.782
 1485SOL    HW2 5962   0.429   3.190   2.876
 1485SOL    HW3 5963   0.517   3.132   2.768
 1485SOL    MW4 5964   0.444   3.172   2.792
 1486SOL     OW 5965   0.458   3.461   2.680
 1486SOL    HW2 5966   0.448   3.368   2.701
 1486SOL    HW3 5967   0.463   3.463   2.584
 1486SOL    MW4 5968   0.458   3.449   2.670
 1487SOL     OW 5969   0.673   3.619   2.718
 1487SOL    HW2 5970   0.667   3.641   2.811
 1487SOL    HW3 5971   0.596   3.566   2.700
 1487SOL    MW4 5972   0.662   3.615   2.727
 1488SOL     OW 5973   0.641   3.885   2.622
 1488SOL    HW2 5974   0.577   3.918   2.684
 1488SOL    HW3 5975   0.657   3.795   2.649
 1488SOL    MW4 5976   0.635   3.878   2.634
 1489SOL     OW 5977   0.442   4.020   2.759
 1489SOL    HW2 5978   0.438   4.100   2.707
 1489SOL    HW3 5979   0.361   3.973   2.737
 1489SOL    MW4 5980   0.431   4.025   2.749
 1490SOL     OW 5981   0.457   4.285   2.652
 1490SOL    HW2 5982   0.523   4.332   2.702
 1490SOL    HW3 5983   0.484   4.294   2.561
 1490SOL    MW4 5984   0.469   4.292   2.647
 1491SOL     OW 5985   0.661   4.396   2.788
 1491SOL    HW2 5986   0.738   4.347   2.758
 1491SOL    HW3 5987   0.663   4.477   2.737
 1491SOL    MW4 5988   0.671   4.400   2.777
 1492SOL     OW 5989   1.130   4.617   2.634
 1492SOL    HW2 5990   1.209   4.651   2.675
 1492SOL    HW3 5991   1.126   4.525   2.662
 1492SOL    MW4 5992   1.140   4.609   2.644
 1493SOL     OW 5993   0.903   0.110   2.723
 1493SOL    HW2 5994   0.907   0.111   2.818
 1493SOL    HW3 5995   0.986   0.070   2.696
 1493SOL    MW4 5996   0.914   0.105   2.732
 1494SOL     OW 5997   0.889   0.391   2.673
 1494SOL    HW2 5998   0.885   0.295   2.679
 1494SOL    HW3 5999   0.901   0.408   2.579
 1494SOL    MW4 6000   0.890   0.380   2.661
 1495SOL     OW 6001   1.133   0.486   2.737
 1495SOL    HW2 6002   1.128   0.577   2.708
 1495SOL    HW3 6003   1.052   0.446   2.705
 1495SOL    MW4 6004   1.122   0.492   2.729
 1496SOL     OW 6005   1.124   0.754   2.656
 1496SOL    HW2 6006   1.195   0.805   2.696
 1496SOL    HW3 6007   1.143   0.758   2.562
 1496SOL    MW4 6008   1.136   0.761   2.649
 1497SOL     OW 6009   0.901   0.872   2.755
 1497SOL    HW2 6010   0.916   0.893   2.847
 1497SOL    HW3 6011   0.980   0.825   2.727
 1497SOL    MW4 6012   0.913   0.868   2.763
 1498SOL     OW 6013   0.881   1.136   2.690
 1498SOL    HW2 6014   0.894   1.042   2.696
 1498SOL    HW3 6015   0.909   1.158   2.601
 1498SOL    MW4 6016   0.886   1.127   2.679
 1499SOL     OW 6017   1.109   1.240   2.804
 1499SOL    HW2 6018   1.118   1.310   2.739
 1499SOL    HW3 6019   1.023   1.201   2.785
 1499SOL    MW4 6020   1.099   1.244   2.793
 1500SOL     OW 6021   1.122   1.478   2.641
 1500SOL    HW2 6022   1.047   1.535   2.656
 1500SOL    HW3 6023   1.134   1.478   2.546
 1500SOL    MW4 6024   1.113   1.486   2.630
 1501SOL     OW 6025   0.899   1.634   2.709
 1501SOL    HW2 6026   0.895   1.639   2.805
 1501SOL    HW3 6027   0.836   1.567   2.686
 1501SOL    MW4 6028   0.890   1.626   2.719
 1502SOL     OW 6029   0.884   1.908   2.609
 1502SOL    HW2 6030   0.954   1.960   2.648
 1502SOL    HW3 6031   0.910   1.817   2.625
 1502SOL    MW4 6032   0.897   1.903   2.616
 1503SOL     OW 6033   1.101   2.062   2.716
 1503SOL    HW2 6034   1.184   2.023   2.692
 1503SOL    HW3 6035   1.102   2.149   2.674
 1503SOL    MW4 6036   1.112   2.069   2.707
 1504SOL     OW 6037   1.124   2.318   2.619
 1504SOL    HW2 6038   1.202   2.363   2.651
 1504SOL    HW3 6039   1.118   2.343   2.527
 1504SOL    MW4 6040   1.133   2.327   2.611
 1505SOL     OW 6041   0.904   2.409   2.743
 1505SOL    HW2 6042   0.902   2.499   2.712
 1505SOL    HW3 6043   0.979   2.370   2.698
 1505SOL    MW4 6044   0.914   2.416   2.733
 1506SOL     OW 6045   0.874   2.673   2.635
 1506SOL    HW2 6046   0.947   2.714   2.680
 1506SOL    HW3 6047   0.796   2.710   2.676
 1506SOL    MW4 6048   0.873   2.683   2.646
 1507SOL     OW 6049   1.083   2.832   2.735
 1507SOL    HW2 6050   1.106   2.825   2.828
 1507SOL    HW3 6051   1.159   2.795   2.689
 1507SOL    MW4 6052   1.096   2.826   2.741
 1508SOL     OW 6053   1.148   3.096   2.655
 1508SOL    HW2 6054   1.122   3.007   2.677
 1508SOL    HW3 6055   1.136   3.101   2.560
 1508SOL    MW4 6056   1.143   3.085   2.645
 1509SOL     OW 6057   0.919   3.208   2.767
 1509SOL    HW2 6058   0.903   3.287   2.715
 1509SOL    HW3 6059   1.006   3.179   2.741
 1509SOL    MW4 6060   0.929   3.215   2.757
 1510SOL     OW 6061   0.887   3.462   2.637
 1510SOL    HW2 6062   0.960   3.509   2.676
 1510SOL    HW3 6063   0.810   3.512   2.664
 1510SOL    MW4 6064   0.886   3.475   2.646
 1511SOL     OW 6065   1.102   3.599   2.774
 1511SOL    HW2 6066   1.101   3.626   2.866
 1511SOL    HW3 6067   1.100   3.682   2.725
 1511SOL    MW4 6068   1.102   3.614   2.780
 1512SOL     OW 6069   1.098   3.851   2.622
 1512SOL    HW2 6070   1.178   3.889   2.659
 1512SOL    HW3 6071   1.111   3.859   2.527
 1512SOL    MW4 6072   1.110   3.857   2.614
 1513SOL     OW 6073   0.893   4.008   2.729
 1513SOL    HW2 6074   0.957   3.963   2.674
 1513SOL    HW3 6075   0.809   3.968   2.704
 1513SOL    MW4 6076   0.890   3.997   2.718
 1514SOL     OW 6077   0.888   4.266   2.665
 1514SOL    HW2 6078   0.892   4.173   2.689
 1514SOL    HW3 6079   0.884   4.265   2.569
 1514SOL    MW4 6080   0.888   4.253   2.655
 1515SOL     OW 6081   1.144   4.351   2.722
 1515SOL    HW2 6082   1.137   4.378   2.813
 1515SOL    HW3 6083   1.055   4.327   2.697
 1515SOL    MW4 6084   1.131   4.351   2.731
 1516SOL     OW 6085   1.593   4.643   2.655
 1516SOL    HW2 6086   1.588   4.549   2.671
 1516SOL    HW3 6087   1.581   4.652   2.561
 1516SOL    MW4 6088   1.591   4.632   2.645
 1517SOL     OW 6089   1.351   0.086   2.746
 1517SOL    HW2 6090   1.350   0.171   2.702
 1517SOL    HW3 6091   1.436   0.049   2.726
 1517SOL    MW4 6092   1.362   0.093   2.737
 1518SOL     OW 6093   1.360   0.344   2.646
 1518SOL    HW2 6094   1.437   0.387   2.682
 1518SOL    HW3 6095   1.286   0.396   2.678
 1518SOL    MW4 6096   1.360   0.356   2.655
 1519SOL     OW 6097   1.566   0.501   2.735
 1519SOL    HW2 6098   1.641   0.458   2.694
 1519SOL    HW3 6099   1.565   0.589   2.695
 1519SOL    MW4 6100   1.576   0.507   2.724
 1520SOL     OW 6101   1.571   0.749   2.637
 1520SOL    HW2 6102   1.490   0.778   2.680
 1520SOL    HW3 6103   1.566   0.787   2.549
 1520SOL    MW4 6104   1.559   0.758   2.631
 1521SOL     OW 6105   1.337   0.859   2.764
 1521SOL    HW2 6106   1.328   0.833   2.856
 1521SOL    HW3 6107   1.331   0.955   2.766
 1521SOL    MW4 6108   1.335   0.869   2.776
 1522SOL     OW 6109   1.335   1.125   2.679
 1522SOL    HW2 6110   1.413   1.167   2.716
 1522SOL    HW3 6111   1.262   1.163   2.728
 1522SOL    MW4 6112   1.335   1.135   2.691
 1523SOL     OW 6113   1.558   1.260   2.777
 1523SOL    HW2 6114   1.578   1.271   2.870
 1523SOL    HW3 6115   1.639   1.228   2.738
 1523SOL    MW4 6116   1.571   1.257   2.784
 1524SOL     OW 6117   1.515   1.539   2.694
 1524SOL    HW2 6118   1.527   1.446   2.716
 1524SOL    HW3 6119   1.510   1.540   2.598
 1524SOL    MW4 6120   1.516   1.526   2.684
 1525SOL     OW 6121   1.300   1.665   2.776
 1525SOL    HW2 6122   1.380   1.625   2.743
 1525SOL    HW3 6123   1.230   1.605   2.749
 1525SOL    MW4 6124   1.301   1.652   2.768
 1526SOL     OW 6125   1.342   1.924   2.641
 1526SOL    HW2 6126   1.316   1.841   2.679
 1526SOL    HW3 6127   1.337   1.911   2.547
 1526SOL    MW4 6128   1.338   1.911   2.634
 1527SOL     OW 6129   1.584   2.067   2.742
 1527SOL    HW2 6130   1.662   2.038   2.695
 1527SOL    HW3 6131   1.515   2.006   2.713
 1527SOL    MW4 6132   1.585   2.055   2.732
 1528SOL     OW 6133   1.562   2.317   2.654
 1528SOL    HW2 6134   1.644   2.356   2.682
 1528SOL    HW3 6135   1.565   2.227   2.688
 1528SOL    MW4 6136   1.573   2.310   2.662
 1529SOL     OW 6137   1.332   2.452   2.719
 1529SOL    HW2 6138   1.338   2.539   2.679
 1529SOL    HW3 6139   1.416   2.411   2.698
 1529SOL    MW4 6140   1.344   2.458   2.711
 1530SOL     OW 6141   1.329   2.709   2.634
 1530SOL    HW2 6142   1.409   2.736   2.678
 1530SOL    HW3 6143   1.351   2.707   2.541
 1530SOL    MW4 6144   1.342   2.712   2.628
 1531SOL     OW 6145   1.573   2.787   2.713
 1531SOL    HW2 6146   1.569   2.818   2.803
 1531SOL    HW3 6147   1.663   2.757   2.702
 1531SOL    MW4 6148   1.584   2.787   2.723
 1532SOL     OW 6149   1.597   3.047   2.609
 1532SOL    HW2 6150   1.667   3.093   2.655
 1532SOL    HW3 6151   1.593   2.961   2.651
 1532SOL    MW4 6152   1.606   3.042   2.621
 1533SOL     OW 6153   1.387   3.208   2.711
 1533SOL    HW2 6154   1.448   3.151   2.664
 1533SOL    HW3 6155   1.303   3.163   2.704
 1533SOL    MW4 6156   1.384   3.194   2.704
 1534SOL     OW 6157   1.302   3.459   2.618
 1534SOL    HW2 6158   1.319   3.370   2.647
 1534SOL    HW3 6159   1.230   3.490   2.672
 1534SOL    MW4 6160   1.295   3.452   2.629
 1535SOL     OW 6161   1.556   3.601   2.701
 1535SOL    HW2 6162   1.633   3.551   2.674
 1535SOL    HW3 6163   1.482   3.544   2.680
 1535SOL    MW4 6164   1.556   3.587   2.695
 1536SOL     OW 6165   1.581   3.904   2.648
 1536SOL    HW2 6166   1.495   3.930   2.679
 1536SOL    HW3 6167   1.587   3.811   2.667
 1536SOL    MW4 6168   1.571   3.895   2.655
 1537SOL     OW 6169   1.337   3.976   2.743
 1537SOL    HW2 6170   1.345   3.982   2.838
 1537SOL    HW3 6171   1.341   4.066   2.712
 1537SOL    MW4 6172   1.339   3.988   2.751
 1538SOL     OW 6173   1.379   4.239   2.641
 1538SOL    HW2 6174   1.294   4.278   2.664
 1538SOL    HW3 6175   1.382   4.243   2.545
 1538SOL    MW4 6176   1.368   4.245   2.631
 1539SOL     OW 6177   1.571   4.383   2.737
 1539SOL    HW2 6178   1.552   4.406   2.828
 1539SOL    HW3 6179   1.493   4.335   2.708
 1539SOL    MW4 6180   1.558   4.379   2.746
 1540SOL     OW 6181   2.016   0.050   2.649
 1540SOL    HW2 6182   2.102   0.072   2.685
 1540SOL    HW3 6183   2.031   0.038   2.555
 1540SOL    MW4 6184   2.029   0.051   2.641
 1541SOL     OW 6185   1.789   0.149   2.771
 1541SOL    HW2 6186   1.873   0.112   2.744
 1541SOL    HW3 6187   1.724   0.099   2.722
 1541SOL    MW4 6188   1.791   0.137   2.761
 1542SOL     OW 6189   1.769   0.374   2.615
 1542SOL    HW2 6190   1.854   0.408   2.643
 1542SOL    HW3 6191   1.753   0.298   2.672
 1542SOL    MW4 6192   1.778   0.368   2.626
 1543SOL     OW 6193   1.984   0.492   2.745
 1543SOL    HW2 6194   2.064   0.448   2.715
 1543SOL    HW3 6195   1.998   0.584   2.720
 1543SOL    MW4 6196   1.996   0.499   2.738
 1544SOL     OW 6197   2.029   0.754   2.647
 1544SOL    HW2 6198   1.949   0.800   2.671
 1544SOL    HW3 6199   2.029   0.755   2.551
 1544SOL    MW4 6200   2.019   0.760   2.637
 1545SOL     OW 6201   1.807   0.875   2.734
 1545SOL    HW2 6202   1.806   0.961   2.693
 1545SOL    HW3 6203   1.742   0.824   2.685
 1545SOL    MW4 6204   1.799   0.880   2.722
 1546SOL     OW 6205   1.780   1.168   2.642
 1546SOL    HW2 6206   1.863   1.209   2.665
 1546SOL    HW3 6207   1.776   1.175   2.546
 1546SOL    MW4 6208   1.790   1.174   2.632
 1547SOL     OW 6209   2.011   1.304   2.718
 1547SOL    HW2 6210   2.021   1.309   2.813
 1547SOL    HW3 6211   2.097   1.274   2.687
 1547SOL    MW4 6212   2.024   1.301   2.727
 1548SOL     OW 6213   2.000   1.556   2.603
 1548SOL    HW2 6214   1.926   1.601   2.642
 1548SOL    HW3 6215   1.996   1.467   2.639
 1548SOL    MW4 6216   1.990   1.550   2.613
 1549SOL     OW 6217   1.774   1.708   2.719
 1549SOL    HW2 6218   1.772   1.700   2.815
 1549SOL    HW3 6219   1.696   1.663   2.690
 1549SOL    MW4 6220   1.764   1.701   2.728
 1550SOL     OW 6221   1.794   1.958   2.612
 1550SOL    HW2 6222   1.878   1.994   2.640
 1550SOL    HW3 6223   1.783   1.878   2.663
 1550SOL    MW4 6224   1.804   1.952   2.622
 1551SOL     OW 6225   2.041   2.066   2.691
 1551SOL    HW2 6226   2.045   2.088   2.785
 1551SOL    HW3 6227   2.035   2.151   2.647
 1551SOL    MW4 6228   2.041   2.080   2.698
 1552SOL     OW 6229   2.046   2.326   2.577
 1552SOL    HW2 6230   2.126   2.374   2.600
 1552SOL    HW3 6231   2.042   2.333   2.481
 1552SOL    MW4 6232   2.056   2.333   2.567
 1553SOL     OW 6233   1.823   2.409   2.713
 1553SOL    HW2 6234   1.833   2.391   2.806
 1553SOL    HW3 6235   1.911   2.396   2.677
 1553SOL    MW4 6236   1.836   2.405   2.720
 1554SOL     OW 6237   1.832   2.682   2.643
 1554SOL    HW2 6238   1.826   2.589   2.663
 1554SOL    HW3 6239   1.845   2.686   2.549
 1554SOL    MW4 6240   1.833   2.670   2.634
 1555SOL     OW 6241   2.025   2.851   2.751
 1555SOL    HW2 6242   2.105   2.807   2.721
 1555SOL    HW3 6243   1.954   2.798   2.716
 1555SOL    MW4 6244   2.026   2.838   2.742
 1556SOL     OW 6245   2.045   3.121   2.641
 1556SOL    HW2 6246   2.049   3.034   2.679
 1556SOL    HW3 6247   2.054   3.107   2.547
 1556SOL    MW4 6248   2.046   3.108   2.633
 1557SOL     OW 6249   1.788   3.219   2.702
 1557SOL    HW2 6250   1.804   3.311   2.681
 1557SOL    HW3 6251   1.873   3.176   2.689
 1557SOL    MW4 6252   1.801   3.226   2.698
 1558SOL     OW 6253   1.803   3.479   2.622
 1558SOL    HW2 6254   1.882   3.528   2.646
 1558SOL    HW3 6255   1.799   3.483   2.527
 1558SOL    MW4 6256   1.813   3.486   2.613
 1559SOL     OW 6257   2.017   3.630   2.708
 1559SOL    HW2 6258   2.029   3.615   2.802
 1559SOL    HW3 6259   2.079   3.571   2.666
 1559SOL    MW4 6260   2.027   3.620   2.715
 1560SOL     OW 6261   2.012   3.900   2.640
 1560SOL    HW2 6262   1.943   3.947   2.687
 1560SOL    HW3 6263   2.004   3.809   2.670
 1560SOL    MW4 6264   2.002   3.894   2.650
 1561SOL     OW 6265   1.796   4.017   2.798
 1561SOL    HW2 6266   1.824   4.097   2.753
 1561SOL    HW3 6267   1.730   3.979   2.740
 1561SOL    MW4 6268   1.791   4.023   2.785
 1562SOL     OW 6269   1.841   4.273   2.648
 1562SOL    HW2 6270   1.749   4.293   2.665
 1562SOL    HW3 6271   1.847   4.265   2.553
 1562SOL    MW4 6272   1.830   4.275   2.638
 1563SOL     OW 6273   2.041   4.447   2.744
 1563SOL    HW2 6274   1.967   4.402   2.702
 1563SOL    HW3 6275   2.037   4.536   2.710
 1563SOL    MW4 6276   2.031   4.452   2.734
 1564SOL     OW 6277   2.492   4.641   2.646
 1564SOL    HW2 6278   2.555   4.700   2.687
 1564SOL    HW3 6279   2.503   4.656   2.552
 1564SOL    MW4 6280   2.501   4.651   2.639
 1565SOL     OW 6281   2.271   0.121   2.744
 1565SOL    HW2 6282   2.267   0.097   2.837
 1565SOL    HW3 6283   2.334   0.060   2.706
 1565SOL    MW4 6284   2.279   0.110   2.751
 1566SOL     OW 6285   2.221   0.358   2.633
 1566SOL    HW2 6286   2.266   0.278   2.659
 1566SOL    HW3 6287   2.212   0.351   2.538
 1566SOL    MW4 6288   2.226   0.346   2.623
 1567SOL     OW 6289   2.457   0.502   2.722
 1567SOL    HW2 6290   2.458   0.593   2.695
 1567SOL    HW3 6291   2.374   0.468   2.688
 1567SOL    MW4 6292   2.446   0.509   2.714
 1568SOL     OW 6293   2.466   0.759   2.629
 1568SOL    HW2 6294   2.404   0.829   2.648
 1568SOL    HW3 6295   2.465   0.752   2.534
 1568SOL    MW4 6296   2.458   0.767   2.619
 1569SOL     OW 6297   2.259   0.925   2.703
 1569SOL    HW2 6298   2.274   0.928   2.797
 1569SOL    HW3 6299   2.180   0.872   2.693
 1569SOL    MW4 6300   2.250   0.918   2.714
 1570SOL     OW 6301   2.245   1.176   2.575
 1570SOL    HW2 6302   2.265   1.086   2.600
 1570SOL    HW3 6303   2.232   1.172   2.480
 1570SOL    MW4 6304   2.246   1.163   2.566
 1571SOL     OW 6305   2.486   1.264   2.709
 1571SOL    HW2 6306   2.563   1.224   2.668
 1571SOL    HW3 6307   2.411   1.227   2.661
 1571SOL    MW4 6308   2.486   1.254   2.697
 1572SOL     OW 6309   2.478   1.569   2.658
 1572SOL    HW2 6310   2.397   1.599   2.700
 1572SOL    HW3 6311   2.476   1.474   2.669
 1572SOL    MW4 6312   2.467   1.560   2.665
 1573SOL     OW 6313   2.215   1.683   2.736
 1573SOL    HW2 6314   2.233   1.767   2.693
 1573SOL    HW3 6315   2.143   1.645   2.685
 1573SOL    MW4 6316   2.208   1.689   2.724
 1574SOL     OW 6317   2.257   1.917   2.599
 1574SOL    HW2 6318   2.183   1.960   2.641
 1574SOL    HW3 6319   2.248   1.939   2.506
 1574SOL    MW4 6320   2.246   1.926   2.592
 1575SOL     OW 6321   2.482   2.035   2.715
 1575SOL    HW2 6322   2.478   2.115   2.662
 1575SOL    HW3 6323   2.402   1.988   2.693
 1575SOL    MW4 6324   2.471   2.039   2.705
 1576SOL     OW 6325   2.510   2.300   2.619
 1576SOL    HW2 6326   2.578   2.363   2.638
 1576SOL    HW3 6327   2.498   2.305   2.524
 1576SOL    MW4 6328   2.517   2.309   2.609
 1577SOL     OW 6329   2.283   2.439   2.679
 1577SOL    HW2 6330   2.282   2.456   2.774
 1577SOL    HW3 6331   2.369   2.401   2.663
 1577SOL    MW4 6332   2.294   2.436   2.690
 1578SOL     OW 6333   2.252   2.732   2.644
 1578SOL    HW2 6334   2.334   2.772   2.675
 1578SOL    HW3 6335   2.273   2.639   2.637
 1578SOL    MW4 6336   2.266   2.725   2.647
 1579SOL     OW 6337   2.484   2.843   2.754
 1579SOL    HW2 6338   2.567   2.800   2.736
 1579SOL    HW3 6339   2.493   2.930   2.715
 1579SOL    MW4 6340   2.496   2.849   2.747
 1580SOL     OW 6341   2.477   3.115   2.642
 1580SOL    HW2 6342   2.402   3.150   2.691
 1580SOL    HW3 6343   2.455   3.131   2.551
 1580SOL    MW4 6344   2.464   3.122   2.637
 1581SOL     OW 6345   2.247   3.248   2.762
 1581SOL    HW2 6346   2.257   3.222   2.854
 1581SOL    HW3 6347   2.174   3.196   2.730
 1581SOL    MW4 6348   2.238   3.238   2.770
 1582SOL     OW 6349   2.255   3.480   2.600
 1582SOL    HW2 6350   2.336   3.527   2.621
 1582SOL    HW3 6351   2.253   3.408   2.663
 1582SOL    MW4 6352   2.265   3.477   2.611
 1583SOL     OW 6353   2.468   3.622   2.685
 1583SOL    HW2 6354   2.451   3.624   2.779
 1583SOL    HW3 6355   2.461   3.714   2.658
 1583SOL    MW4 6356   2.465   3.635   2.693
 1584SOL     OW 6357   2.443   3.898   2.628
 1584SOL    HW2 6358   2.520   3.943   2.663
 1584SOL    HW3 6359   2.371   3.932   2.680
 1584SOL    MW4 6360   2.444   3.908   2.640
 1585SOL     OW 6361   2.229   4.032   2.750
 1585SOL    HW2 6362   2.214   4.023   2.845
 1585SOL    HW3 6363   2.151   3.995   2.710
 1585SOL    MW4 6364   2.217   4.026   2.757
 1586SOL     OW 6365   2.235   4.285   2.621
 1586SOL    HW2 6366   2.237   4.205   2.674
 1586SOL    HW3 6367   2.170   4.340   2.664
 1586SOL    MW4 6368   2.227   4.282   2.634
 1587SOL     OW 6369   2.420   4.404   2.775
 1587SOL    HW2 6370   2.348   4.370   2.722
 1587SOL    HW3 6371   2.446   4.485   2.731
 1587SOL    MW4 6372   2.414   4.411   2.762
 1588SOL     OW 6373   2.926   0.002   2.612
 1588SOL    HW2 6374   3.007   0.042   2.644
 1588SOL    HW3 6375   2.934   0.005   2.517
 1588SOL    MW4 6376   2.938   0.007   2.604
 1589SOL     OW 6377   2.688   0.144   2.738
 1589SOL    HW2 6378   2.691   0.129   2.832
 1589SOL    HW3 6379   2.766   0.099   2.704
 1589SOL    MW4 6380   2.699   0.136   2.746
 1590SOL     OW 6381   2.639   0.380   2.579
 1590SOL    HW2 6382   2.642   0.298   2.627
 1590SOL    HW3 6383   2.576   0.434   2.627
 1590SOL    MW4 6384   2.631   0.377   2.592
 1591SOL     OW 6385   2.897   0.474   2.697
 1591SOL    HW2 6386   2.892   0.569   2.695
 1591SOL    HW3 6387   2.830   0.444   2.636
 1591SOL    MW4 6388   2.888   0.482   2.689
 1592SOL     OW 6389   2.888   0.756   2.632
 1592SOL    HW2 6390   2.965   0.811   2.648
 1592SOL    HW3 6391   2.814   0.812   2.658
 1592SOL    MW4 6392   2.888   0.771   2.638
 1593SOL     OW 6393   2.674   0.915   2.724
 1593SOL    HW2 6394   2.676   0.889   2.816
 1593SOL    HW3 6395   2.615   0.853   2.682
 1593SOL    MW4 6396   2.667   0.904   2.730
 1594SOL     OW 6397   2.698   1.152   2.594
 1594SOL    HW2 6398   2.772   1.192   2.640
 1594SOL    HW3 6399   2.687   1.067   2.636
 1594SOL    MW4 6400   2.706   1.146   2.606
 1595SOL     OW 6401   2.900   1.295   2.718
 1595SOL    HW2 6402   2.896   1.295   2.814
 1595SOL    HW3 6403   2.984   1.254   2.698
 1595SOL    MW4 6404   2.910   1.289   2.728
 1596SOL     OW 6405   2.940   1.548   2.622
 1596SOL    HW2 6406   2.862   1.600   2.640
 1596SOL    HW3 6407   2.924   1.464   2.664
 1596SOL    MW4 6408   2.928   1.544   2.630
 1597SOL     OW 6409   2.725   1.694   2.724
 1597SOL    HW2 6410   2.715   1.721   2.815
 1597SOL    HW3 6411   2.653   1.632   2.710
 1597SOL    MW4 6412   2.714   1.689   2.734
 1598SOL     OW 6413   2.702   1.925   2.586
 1598SOL    HW2 6414   2.719   1.840   2.627
 1598SOL    HW3 6415   2.638   1.967   2.644
 1598SOL    MW4 6416   2.696   1.919   2.599
 1599SOL     OW 6417   2.910   2.054   2.734
 1599SOL    HW2 6418   2.917   2.141   2.696
 1599SOL    HW3 6419   2.842   2.010   2.682
 1599SOL    MW4 6420   2.902   2.060   2.722
 1600SOL     OW 6421   2.934   2.292   2.608
 1600SOL    HW2 6422   3.016   2.337   2.629
 1600SOL    HW3 6423   2.866   2.350   2.643
 1600SOL    MW4 6424   2.936   2.306   2.615
 1601SOL     OW 6425   2.719   2.451   2.684
 1601SOL    HW2 6426   2.714   2.454   2.780
 1601SOL    HW3 6427   2.722   2.543   2.658
 1601SOL    MW4 6428   2.719   2.463   2.693
 1602SOL     OW 6429   2.723   2.735   2.649
 1602SOL    HW2 6430   2.801   2.789   2.661
 1602SOL    HW3 6431   2.707   2.738   2.554
 1602SOL    MW4 6432   2.731   2.743   2.638
 1603SOL     OW 6433   2.961   2.851   2.693
 1603SOL    HW2 6434   2.948   2.849   2.788
 1603SOL    HW3 6435   2.968   2.944   2.672
 1603SOL    MW4 6436   2.960   2.863   2.703
 1604SOL     OW 6437   2.968   3.110   2.637
 1604SOL    HW2 6438   2.894   3.164   2.665
 1604SOL    HW3 6439   2.965   3.114   2.541
 1604SOL    MW4 6440   2.958   3.118   2.628
 1605SOL     OW 6441   2.727   3.236   2.703
 1605SOL    HW2 6442   2.723   3.327   2.673
 1605SOL    HW3 6443   2.643   3.198   2.677
 1605SOL    MW4 6444   2.716   3.243   2.695
 1606SOL     OW 6445   2.697   3.497   2.614
 1606SOL    HW2 6446   2.614   3.541   2.633
 1606SOL    HW3 6447   2.703   3.497   2.519
 1606SOL    MW4 6448   2.687   3.503   2.604
 1607SOL     OW 6449   2.918   3.634   2.713
 1607SOL    HW2 6450   2.924   3.611   2.806
 1607SOL    HW3 6451   2.843   3.584   2.681
 1607SOL    MW4 6452   2.909   3.624   2.721
 1608SOL     OW 6453   2.918   3.889   2.606
 1608SOL    HW2 6454   2.989   3.936   2.650
 1608SOL    HW3 6455   2.912   3.805   2.652
 1608SOL    MW4 6456   2.927   3.884   2.618
 1609SOL     OW 6457   2.685   3.982   2.722
 1609SOL    HW2 6458   2.675   4.077   2.718
 1609SOL    HW3 6459   2.765   3.965   2.673
 1609SOL    MW4 6460   2.694   3.992   2.715
 1610SOL     OW 6461   2.650   4.255   2.676
 1610SOL    HW2 6462   2.723   4.309   2.704
 1610SOL    HW3 6463   2.572   4.301   2.708
 1610SOL    MW4 6464   2.649   4.268   2.684
 1611SOL     OW 6465   2.875   4.427   2.741
 1611SOL    HW2 6466   2.850   4.441   2.833
 1611SOL    HW3 6467   2.893   4.514   2.708
 1611SOL    MW4 6468   2.874   4.440   2.749
 1612SOL     OW 6469   3.380   4.659   2.584
 1612SOL    HW2 6470   3.368   4.574   2.626
 1612SOL    HW3 6471   3.315   4.716   2.625
 1612SOL    MW4 6472   3.370   4.656   2.595
 1613SOL     OW 6473   3.137   0.141   2.700
 1613SOL    HW2 6474   3.130   0.125   2.794
 1613SOL    HW3 6475   3.139   0.237   2.691
 1613SOL    MW4 6476   3.136   0.152   2.711
 1614SOL     OW 6477   3.160   0.408   2.619
 1614SOL    HW2 6478   3.074   0.444   2.642
 1614SOL    HW3 6479   3.153   0.385   2.527
 1614SOL    MW4 6480   3.148   0.410   2.610
 1615SOL     OW 6481   3.377   0.530   2.751
 1615SOL    HW2 6482   3.378   0.623   2.727
 1615SOL    HW3 6483   3.310   0.492   2.696
 1615SOL    MW4 6484   3.368   0.537   2.741
 1616SOL     OW 6485   3.359   0.788   2.655
 1616SOL    HW2 6486   3.434   0.842   2.680
 1616SOL    HW3 6487   3.374   0.767   2.562
 1616SOL    MW4 6488   3.371   0.792   2.646
 1617SOL     OW 6489   3.109   0.893   2.692
 1617SOL    HW2 6490   3.111   0.903   2.787
 1617SOL    HW3 6491   3.183   0.836   2.672
 1617SOL    MW4 6492   3.119   0.887   2.701
 1618SOL     OW 6493   3.125   1.171   2.620
 1618SOL    HW2 6494   3.127   1.077   2.633
 1618SOL    HW3 6495   3.129   1.183   2.525
 1618SOL    MW4 6496   3.126   1.161   2.609
 1619SOL     OW 6497   3.355   1.330   2.690
 1619SOL    HW2 6498   3.384   1.316   2.780
 1619SOL    HW3 6499   3.284   1.267   2.677
 1619SOL    MW4 6500   3.350   1.320   2.700
 1620SOL     OW 6501   3.382   1.593   2.626
 1620SOL    HW2 6502   3.306   1.639   2.662
 1620SOL    HW3 6503   3.372   1.503   2.658
 1620SOL    MW4 6504   3.370   1.587   2.635
 1621SOL     OW 6505   3.151   1.680   2.728
 1621SOL    HW2 6506   3.143   1.762   2.679
 1621SOL    HW3 6507   3.087   1.621   2.687
 1621SOL    MW4 6508   3.141   1.683   2.716
 1622SOL     OW 6509   3.133   1.941   2.613
 1622SOL    HW2 6510   3.201   1.976   2.671
 1622SOL    HW3 6511   3.051   1.960   2.658
 1622SOL    MW4 6512   3.131   1.948   2.626
 1623SOL     OW 6513   3.369   2.049   2.730
 1623SOL    HW2 6514   3.366   2.059   2.825
 1623SOL    HW3 6515   3.383   2.138   2.697
 1623SOL    MW4 6516   3.370   2.062   2.738
 1624SOL     OW 6517   3.386   2.306   2.618
 1624SOL    HW2 6518   3.454   2.365   2.650
 1624SOL    HW3 6519   3.386   2.317   2.523
 1624SOL    MW4 6520   3.395   2.315   2.610
 1625SOL     OW 6521   3.158   2.427   2.708
 1625SOL    HW2 6522   3.153   2.511   2.663
 1625SOL    HW3 6523   3.237   2.385   2.674
 1625SOL    MW4 6524   3.167   2.432   2.698
 1626SOL     OW 6525   3.163   2.687   2.595
 1626SOL    HW2 6526   3.228   2.748   2.632
 1626SOL    HW3 6527   3.079   2.726   2.618
 1626SOL    MW4 6528   3.161   2.700   2.603
 1627SOL     OW 6529   3.392   2.854   2.724
 1627SOL    HW2 6530   3.386   2.845   2.819
 1627SOL    HW3 6531   3.466   2.799   2.699
 1627SOL    MW4 6532   3.401   2.846   2.733
 1628SOL     OW 6533   3.390   3.135   2.653
 1628SOL    HW2 6534   3.406   3.048   2.690
 1628SOL    HW3 6535   3.388   3.121   2.559
 1628SOL    MW4 6536   3.392   3.122   2.646
 1629SOL     OW 6537   3.168   3.254   2.766
 1629SOL    HW2 6538   3.248   3.236   2.715
 1629SOL    HW3 6539   3.101   3.201   2.724
 1629SOL    MW4 6540   3.170   3.244   2.754
 1630SOL     OW 6541   3.130   3.509   2.613
 1630SOL    HW2 6542   3.121   3.440   2.679
 1630SOL    HW3 6543   3.051   3.562   2.623
 1630SOL    MW4 6544   3.118   3.507   2.623
 1631SOL     OW 6545   3.349   3.630   2.732
 1631SOL    HW2 6546   3.353   3.587   2.817
 1631SOL    HW3 6547   3.269   3.596   2.692
 1631SOL    MW4 6548   3.339   3.620   2.738
 1632SOL     OW 6549   3.343   3.911   2.669
 1632SOL    HW2 6550   3.354   3.822   2.702
 1632SOL    HW3 6551   3.359   3.904   2.575
 1632SOL    MW4 6552   3.346   3.898   2.661
 1633SOL     OW 6553   3.118   4.035   2.743
 1633SOL    HW2 6554   3.125   4.123   2.705
 1633SOL    HW3 6555   3.200   3.993   2.719
 1633SOL    MW4 6556   3.130   4.041   2.735
 1634SOL     OW 6557   3.110   4.277   2.619
 1634SOL    HW2 6558   3.031   4.324   2.645
 1634SOL    HW3 6559   3.096   4.256   2.527
 1634SOL    MW4 6560   3.097   4.280   2.610
 1635SOL     OW 6561   3.349   4.414   2.719
 1635SOL    HW2 6562   3.333   4.420   2.813
 1635SOL    HW3 6563   3.266   4.381   2.683
 1635SOL    MW4 6564   3.336   4.411   2.726
 1636SOL     OW 6565   3.829   4.655   2.658
 1636SOL    HW2 6566   3.831   4.572   2.705
 1636SOL    HW3 6567   3.747   4.697   2.685
 1636SOL    MW4 6568   3.819   4.650   2.668
 1637SOL     OW 6569   3.584   0.111   2.728
 1637SOL    HW2 6570   3.571   0.203   2.706
 1637SOL    HW3 6571   3.525   0.063   2.670
 1637SOL    MW4 6572   3.575   0.117   2.718
 1638SOL     OW 6573   3.578   0.382   2.651
 1638SOL    HW2 6574   3.664   0.421   2.669
 1638SOL    HW3 6575   3.515   0.443   2.689
 1638SOL    MW4 6576   3.581   0.395   2.658
 1639SOL     OW 6577   3.810   0.519   2.718
 1639SOL    HW2 6578   3.816   0.514   2.814
 1639SOL    HW3 6579   3.885   0.467   2.688
 1639SOL    MW4 6580   3.821   0.511   2.727
 1640SOL     OW 6581   3.807   0.781   2.630
 1640SOL    HW2 6582   3.730   0.809   2.680
 1640SOL    HW3 6583   3.814   0.687   2.649
 1640SOL    MW4 6584   3.798   0.772   2.639
 1641SOL     OW 6585   3.589   0.913   2.727
 1641SOL    HW2 6586   3.605   0.921   2.821
 1641SOL    HW3 6587   3.590   1.003   2.695
 1641SOL    MW4 6588   3.591   0.926   2.735
 1642SOL     OW 6589   3.587   1.173   2.620
 1642SOL    HW2 6590   3.659   1.212   2.670
 1642SOL    HW3 6591   3.510   1.222   2.647
 1642SOL    MW4 6592   3.587   1.185   2.630
 1643SOL     OW 6593   3.825   1.269   2.731
 1643SOL    HW2 6594   3.912   1.240   2.704
 1643SOL    HW3 6595   3.809   1.347   2.679
 1643SOL    MW4 6596   3.835   1.275   2.721
 1644SOL     OW 6597   3.814   1.518   2.622
 1644SOL    HW2 6598   3.893   1.565   2.652
 1644SOL    HW3 6599   3.742   1.574   2.649
 1644SOL    MW4 6600   3.815   1.532   2.630
 1645SOL     OW 6601   3.637   1.715   2.688
 1645SOL    HW2 6602   3.654   1.803   2.655
 1645SOL    HW3 6603   3.565   1.683   2.635
 1645SOL    MW4 6604   3.630   1.722   2.677
 1646SOL     OW 6605   3.624   1.992   2.622
 1646SOL    HW2 6606   3.539   2.013   2.661
 1646SOL    HW3 6607   3.607   1.989   2.528
 1646SOL    MW4 6608   3.611   1.995   2.615
 1647SOL     OW 6609   3.846   2.072   2.744
 1647SOL    HW2 6610   3.912   2.013   2.707
 1647SOL    HW3 6611   3.763   2.042   2.706
 1647SOL    MW4 6612   3.844   2.060   2.734
 1648SOL     OW 6613   3.808   2.325   2.627
 1648SOL    HW2 6614   3.817   2.234   2.656
 1648SOL    HW3 6615   3.788   2.318   2.534
 1648SOL    MW4 6616   3.806   2.312   2.618
 1649SOL     OW 6617   3.600   2.467   2.730
 1649SOL    HW2 6618   3.602   2.470   2.825
 1649SOL    HW3 6619   3.683   2.426   2.705
 1649SOL    MW4 6620   3.611   2.462   2.739
 1650SOL     OW 6621   3.627   2.725   2.635
 1650SOL    HW2 6622   3.619   2.633   2.660
 1650SOL    HW3 6623   3.612   2.726   2.540
 1650SOL    MW4 6624   3.624   2.713   2.626
 1651SOL     OW 6625   3.823   2.875   2.785
 1651SOL    HW2 6626   3.907   2.853   2.746
 1651SOL    HW3 6627   3.759   2.824   2.736
 1651SOL    MW4 6628   3.826   2.866   2.774
 1652SOL     OW 6629   3.844   3.125   2.668
 1652SOL    HW2 6630   3.776   3.178   2.710
 1652SOL    HW3 6631   3.836   3.039   2.709
 1652SOL    MW4 6632   3.834   3.121   2.679
 1653SOL     OW 6633   3.614   3.308   2.728
 1653SOL    HW2 6634   3.611   3.389   2.676
 1653SOL    HW3 6635   3.547   3.252   2.688
 1653SOL    MW4 6636   3.605   3.312   2.716
 1654SOL     OW 6637   3.612   3.581   2.598
 1654SOL    HW2 6638   3.681   3.610   2.658
 1654SOL    HW3 6639   3.531   3.604   2.642
 1654SOL    MW4 6640   3.611   3.588   2.611
 1655SOL     OW 6641   3.809   3.635   2.768
 1655SOL    HW2 6642   3.878   3.589   2.720
 1655SOL    HW3 6643   3.805   3.721   2.728
 1655SOL    MW4 6644   3.818   3.640   2.756
 1656SOL     OW 6645   3.799   3.876   2.636
 1656SOL    HW2 6646   3.882   3.916   2.664
 1656SOL    HW3 6647   3.731   3.931   2.674
 1656SOL    MW4 6648   3.801   3.888   2.644
 1657SOL     OW 6649   3.589   4.015   2.749
 1657SOL    HW2 6650   3.592   4.099   2.704
 1657SOL    HW3 6651   3.500   3.983   2.733
 1657SOL    MW4 6652   3.577   4.022   2.741
 1658SOL     OW 6653   3.590   4.268   2.654
 1658SOL    HW2 6654   3.522   4.327   2.685
 1658SOL    HW3 6655   3.591   4.278   2.559
 1658SOL    MW4 6656   3.581   4.277   2.645
 1659SOL     OW 6657   3.817   4.410   2.777
 1659SOL    HW2 6658   3.893   4.362   2.745
 1659SOL    HW3 6659   3.742   4.363   2.741
 1659SOL    MW4 6660   3.817   4.398   2.768
 1660SOL     OW 6661   4.305   4.650   2.684
 1660SOL    HW2 6662   4.237   4.700   2.729
 1660SOL    HW3 6663   4.386   4.697   2.705
 1660SOL    MW4 6664   4.307   4.663   2.693
 1661SOL     OW 6665   4.070   0.117   2.746
 1661SOL    HW2 6666   4.055   0.124   2.841
 1661SOL    HW3 6667   3.994   0.068   2.713
 1661SOL    MW4 6668   4.058   0.111   2.754
 1662SOL     OW 6669   4.036   0.369   2.637
 1662SOL    HW2 6670   4.048   0.281   2.672
 1662SOL    HW3 6671   4.025   0.356   2.543
 1662SOL    MW4 6672   4.036   0.356   2.629
 1663SOL     OW 6673   4.254   0.496   2.746
 1663SOL    HW2 6674   4.185   0.447   2.701
 1663SOL    HW3 6675   4.335   0.467   2.703
 1663SOL    MW4 6676   4.255   0.485   2.734
 1664SOL     OW 6677   4.257   0.767   2.671
 1664SOL    HW2 6678   4.263   0.675   2.695
 1664SOL    HW3 6679   4.266   0.768   2.576
 1664SOL    MW4 6680   4.259   0.755   2.662
 1665SOL     OW 6681   4.040   0.896   2.778
 1665SOL    HW2 6682   4.108   0.840   2.742
 1665SOL    HW3 6683   3.958   0.861   2.742
 1665SOL    MW4 6684   4.038   0.884   2.768
 1666SOL     OW 6685   4.065   1.156   2.642
 1666SOL    HW2 6686   4.136   1.205   2.684
 1666SOL    HW3 6687   4.066   1.071   2.685
 1666SOL    MW4 6688   4.075   1.151   2.653
 1667SOL     OW 6689   4.272   1.323   2.782
 1667SOL    HW2 6690   4.294   1.414   2.758
 1667SOL    HW3 6691   4.324   1.270   2.722
 1667SOL    MW4 6692   4.282   1.328   2.771
 1668SOL     OW 6693   4.304   1.577   2.667
 1668SOL    HW2 6694   4.395   1.597   2.691
 1668SOL    HW3 6695   4.303   1.578   2.572
 1668SOL    MW4 6696   4.316   1.580   2.658
 1669SOL     OW 6697   4.045   1.675   2.711
 1669SOL    HW2 6698   4.046   1.684   2.806
 1669SOL    HW3 6699   4.129   1.633   2.690
 1669SOL    MW4 6700   4.056   1.670   2.721
 1670SOL     OW 6701   4.084   1.930   2.629
 1670SOL    HW2 6702   4.147   1.967   2.690
 1670SOL    HW3 6703   4.077   1.838   2.655
 1670SOL    MW4 6704   4.091   1.922   2.641
 1671SOL     OW 6705   4.255   2.055   2.804
 1671SOL    HW2 6706   4.239   2.139   2.761
 1671SOL    HW3 6707   4.330   2.018   2.757
 1671SOL    MW4 6708   4.263   2.061   2.792
 1672SOL     OW 6709   4.248   2.322   2.686
 1672SOL    HW2 6710   4.173   2.381   2.677
 1672SOL    HW3 6711   4.262   2.288   2.597
 1672SOL    MW4 6712   4.240   2.325   2.673
 1673SOL     OW 6713   4.016   2.473   2.718
 1673SOL    HW2 6714   4.021   2.448   2.810
 1673SOL    HW3 6715   3.955   2.411   2.679
 1673SOL    MW4 6716   4.009   2.462   2.725
 1674SOL     OW 6717   4.049   2.743   2.611
 1674SOL    HW2 6718   4.132   2.772   2.648
 1674SOL    HW3 6719   4.037   2.654   2.647
 1674SOL    MW4 6720   4.058   2.735   2.621
 1675SOL     OW 6721   4.312   2.838   2.702
 1675SOL    HW2 6722   4.298   2.839   2.796
 1675SOL    HW3 6723   4.305   2.930   2.676
 1675SOL    MW4 6724   4.309   2.851   2.711
 1676SOL     OW 6725   4.276   3.092   2.621
 1676SOL    HW2 6726   4.201   3.144   2.651
 1676SOL    HW3 6727   4.262   3.083   2.527
 1676SOL    MW4 6728   4.264   3.098   2.613
 1677SOL     OW 6729   4.087   3.254   2.743
 1677SOL    HW2 6730   4.066   3.346   2.726
 1677SOL    HW3 6731   4.004   3.208   2.733
 1677SOL    MW4 6732   4.073   3.260   2.740
 1678SOL     OW 6733   4.047   3.520   2.637
 1678SOL    HW2 6734   4.118   3.570   2.678
 1678SOL    HW3 6735   4.077   3.508   2.546
 1678SOL    MW4 6736   4.061   3.525   2.630
 1679SOL     OW 6737   4.249   3.656   2.741
 1679SOL    HW2 6738   4.252   3.674   2.835
 1679SOL    HW3 6739   4.323   3.598   2.726
 1679SOL    MW4 6740   4.259   3.651   2.751
 1680SOL     OW 6741   4.252   3.917   2.641
 1680SOL    HW2 6742   4.243   3.823   2.656
 1680SOL    HW3 6743   4.340   3.938   2.673
 1680SOL    MW4 6744   4.262   3.908   2.647
 1681SOL     OW 6745   4.011   4.028   2.748
 1681SOL    HW2 6746   4.022   4.025   2.843
 1681SOL    HW3 6747   4.093   3.992   2.714
 1681SOL    MW4 6748   4.023   4.023   2.756
 1682SOL     OW 6749   4.018   4.283   2.664
 1682SOL    HW2 6750   4.004   4.194   2.697
 1682SOL    HW3 6751   4.036   4.271   2.571
 1682SOL    MW4 6752   4.018   4.270   2.656
 1683SOL     OW 6753   4.289   4.384   2.753
 1683SOL    HW2 6754   4.197   4.356   2.751
 1683SOL    HW3 6755   4.287   4.476   2.726
 1683SOL    MW4 6756   4.277   4.392   2.749
 1684SOL     OW 6757   0.184   4.624   3.124
 1684SOL    HW2 6758   0.191   4.644   3.217
 1684SOL    HW3 6759   0.114   4.681   3.092
 1684SOL    MW4 6760   0.176   4.634   3.132
 1685SOL     OW 6761   0.016   0.148   3.028
 1685SOL    HW2 6762  -0.068   0.107   3.049
 1685SOL    HW3 6763   0.014   0.233   3.070
 1685SOL    MW4 6764   0.005   0.153   3.036
 1686SOL     OW 6765   4.483   0.389   3.131
 1686SOL    HW2 6766   4.474   0.379   3.226
 1686SOL    HW3 6767   4.403   0.432   3.104
 1686SOL    MW4 6768   4.471   0.393   3.140
 1687SOL     OW 6769   0.237   0.495   3.025
 1687SOL    HW2 6770   0.311   0.436   3.038
 1687SOL    HW3 6771   0.161   0.444   3.052
 1687SOL    MW4 6772   0.237   0.481   3.030
 1688SOL     OW 6773   0.233   0.753   3.124
 1688SOL    HW2 6774   0.217   0.761   3.218
 1688SOL    HW3 6775   0.222   0.659   3.106
 1688SOL    MW4 6776   0.229   0.742   3.134
 1689SOL     OW 6777   4.485   0.910   3.033
 1689SOL    HW2 6778   4.559   0.853   3.052
 1689SOL    HW3 6779   4.492   0.929   2.939
 1689SOL    MW4 6780   4.496   0.905   3.023
 1690SOL     OW 6781   0.004   1.151   3.164
 1690SOL    HW2 6782  -0.066   1.201   3.122
 1690SOL    HW3 6783   0.001   1.065   3.121
 1690SOL    MW4 6784  -0.006   1.146   3.153
 1691SOL     OW 6785   0.246   1.283   3.034
 1691SOL    HW2 6786   0.167   1.239   3.067
 1691SOL    HW3 6787   0.236   1.280   2.939
 1691SOL    MW4 6788   0.234   1.277   3.026
 1692SOL     OW 6789   0.240   1.542   3.105
 1692SOL    HW2 6790   0.162   1.591   3.080
 1692SOL    HW3 6791   0.227   1.456   3.066
 1692SOL    MW4 6792   0.228   1.537   3.096
 1693SOL     OW 6793   0.005   1.682   3.032
 1693SOL    HW2 6794  -0.065   1.640   3.081
 1693SOL    HW3 6795   0.007   1.772   3.065
 1693SOL    MW4 6796  -0.004   1.689   3.043
 1694SOL     OW 6797   4.477   1.914   3.167
 1694SOL    HW2 6798   4.392   1.947   3.137
 1694SOL    HW3 6799   4.541   1.977   3.131
 1694SOL    MW4 6800   4.475   1.927   3.158
 1695SOL     OW 6801   0.170   2.058   2.989
 1695SOL    HW2 6802   0.193   2.142   3.028
 1695SOL    HW3 6803   0.176   2.073   2.894
 1695SOL    MW4 6804   0.174   2.071   2.981
 1696SOL     OW 6805   0.250   2.311   3.130
 1696SOL    HW2 6806   0.259   2.318   3.225
 1696SOL    HW3 6807   0.323   2.363   3.096
 1696SOL    MW4 6808   0.261   2.319   3.138
 1697SOL     OW 6809   0.008   2.424   3.034
 1697SOL    HW2 6810   0.003   2.513   3.069
 1697SOL    HW3 6811   0.088   2.388   3.072
 1697SOL    MW4 6812   0.018   2.431   3.044
 1698SOL     OW 6813   0.003   2.686   3.115
 1698SOL    HW2 6814   0.003   2.694   3.210
 1698SOL    HW3 6815   0.069   2.749   3.086
 1698SOL    MW4 6816   0.012   2.696   3.124
 1699SOL     OW 6817   0.199   2.862   3.002
 1699SOL    HW2 6818   0.281   2.832   3.040
 1699SOL    HW3 6819   0.214   2.860   2.907
 1699SOL    MW4 6820   0.212   2.858   2.994
 1700SOL     OW 6821   0.164   3.097   3.143
 1700SOL    HW2 6822   0.096   3.137   3.088
 1700SOL    HW3 6823   0.190   3.019   3.096
 1700SOL    MW4 6824   0.158   3.092   3.130
 1701SOL     OW 6825   4.463   3.238   3.010
 1701SOL    HW2 6826   4.390   3.181   3.031
 1701SOL    HW3 6827   4.471   3.234   2.915
 1701SOL    MW4 6828   4.455   3.230   3.001
 1702SOL     OW 6829   4.471   3.497   3.129
 1702SOL    HW2 6830   4.395   3.553   3.112
 1702SOL    HW3 6831   4.454   3.418   3.077
 1702SOL    MW4 6832   4.459   3.494   3.120
 1703SOL     OW 6833   0.204   3.611   3.020
 1703SOL    HW2 6834   0.201   3.704   3.041
 1703SOL    HW3 6835   0.123   3.575   3.058
 1703SOL    MW4 6836   0.193   3.618   3.028
 1704SOL     OW 6837   0.203   3.872   3.124
 1704SOL    HW2 6838   0.190   3.884   3.218
 1704SOL    HW3 6839   0.271   3.935   3.100
 1704SOL    MW4 6840   0.210   3.882   3.133
 1705SOL     OW 6841   4.484   4.027   3.023
 1705SOL    HW2 6842   4.561   3.976   3.049
 1705SOL    HW3 6843   4.489   4.030   2.927
 1705SOL    MW4 6844   4.495   4.020   3.014
 1706SOL     OW 6845   4.484   4.271   3.154
 1706SOL    HW2 6846   4.477   4.257   3.249
 1706SOL    HW3 6847   4.472   4.185   3.116
 1706SOL    MW4 6848   4.482   4.258   3.162
 1707SOL     OW 6849   0.221   4.368   3.030
 1707SOL    HW2 6850   0.139   4.322   3.049
 1707SOL    HW3 6851   0.206   4.458   3.059
 1707SOL    MW4 6852   0.208   4.373   3.036
 1708SOL     OW 6853   0.652   4.651   3.161
 1708SOL    HW2 6854   0.650   4.557   3.141
 1708SOL    HW3 6855   0.582   4.688   3.108
 1708SOL    MW4 6856   0.642   4.643   3.152
 1709SOL     OW 6857   0.429   0.087   3.037
 1709SOL    HW2 6858   0.445   0.176   3.068
 1709SOL    HW3 6859   0.338   0.069   3.060
 1709SOL    MW4 6860   0.419   0.096   3.044
 1710SOL     OW 6861   0.471   0.347   3.105
 1710SOL    HW2 6862   0.467   0.358   3.200
 1710SOL    HW3 6863   0.547   0.399   3.079
 1710SOL    MW4 6864   0.481   0.355   3.114
 1711SOL     OW 6865   0.687   0.529   3.055
 1711SOL    HW2 6866   0.772   0.484   3.057
 1711SOL    HW3 6867   0.706   0.616   3.088
 1711SOL    MW4 6868   0.701   0.534   3.059
 1712SOL     OW 6869   0.727   0.793   3.152
 1712SOL    HW2 6870   0.712   0.775   3.245
 1712SOL    HW3 6871   0.640   0.808   3.116
 1712SOL    MW4 6872   0.714   0.793   3.159
 1713SOL     OW 6873   0.473   0.855   3.023
 1713SOL    HW2 6874   0.393   0.818   3.061
 1713SOL    HW3 6875   0.455   0.862   2.929
 1713SOL    MW4 6876   0.460   0.851   3.016
 1714SOL     OW 6877   0.455   1.109   3.152
 1714SOL    HW2 6878   0.477   1.030   3.103
 1714SOL    HW3 6879   0.381   1.147   3.105
 1714SOL    MW4 6880   0.448   1.104   3.139
 1715SOL     OW 6881   0.673   1.257   3.048
 1715SOL    HW2 6882   0.756   1.232   3.089
 1715SOL    HW3 6883   0.608   1.205   3.094
 1715SOL    MW4 6884   0.676   1.247   3.060
 1716SOL     OW 6885   0.670   1.529   3.115
 1716SOL    HW2 6886   0.699   1.535   3.206
 1716SOL    HW3 6887   0.674   1.435   3.096
 1716SOL    MW4 6888   0.675   1.517   3.125
 1717SOL     OW 6889   0.456   1.666   3.001
 1717SOL    HW2 6890   0.529   1.635   3.054
 1717SOL    HW3 6891   0.386   1.604   3.018
 1717SOL    MW4 6892   0.457   1.653   3.010
 1718SOL     OW 6893   0.408   1.920   3.073
 1718SOL    HW2 6894   0.417   1.829   3.045
 1718SOL    HW3 6895   0.329   1.952   3.028
 1718SOL    MW4 6896   0.399   1.913   3.064
 1719SOL     OW 6897   0.637   2.082   2.975
 1719SOL    HW2 6898   0.700   2.035   3.029
 1719SOL    HW3 6899   0.557   2.029   2.979
 1719SOL    MW4 6900   0.635   2.069   2.983
 1720SOL     OW 6901   0.662   2.343   3.092
 1720SOL    HW2 6902   0.646   2.337   3.186
 1720SOL    HW3 6903   0.650   2.253   3.061
 1720SOL    MW4 6904   0.658   2.330   3.101
 1721SOL     OW 6905   0.437   2.475   3.025
 1721SOL    HW2 6906   0.511   2.419   3.050
 1721SOL    HW3 6907   0.436   2.473   2.930
 1721SOL    MW4 6908   0.447   2.467   3.016
 1722SOL     OW 6909   0.434   2.739   3.128
 1722SOL    HW2 6910   0.506   2.781   3.081
 1722SOL    HW3 6911   0.437   2.647   3.101
 1722SOL    MW4 6912   0.444   2.733   3.118
 1723SOL     OW 6913   0.660   2.857   3.021
 1723SOL    HW2 6914   0.740   2.814   3.048
 1723SOL    HW3 6915   0.669   2.947   3.052
 1723SOL    MW4 6916   0.672   2.864   3.028
 1724SOL     OW 6917   0.683   3.120   3.147
 1724SOL    HW2 6918   0.668   3.117   3.242
 1724SOL    HW3 6919   0.602   3.156   3.111
 1724SOL    MW4 6920   0.670   3.124   3.155
 1725SOL     OW 6921   0.428   3.185   3.055
 1725SOL    HW2 6922   0.426   3.281   3.060
 1725SOL    HW3 6923   0.342   3.157   3.086
 1725SOL    MW4 6924   0.416   3.194   3.059
 1726SOL     OW 6925   0.423   3.465   3.084
 1726SOL    HW2 6926   0.419   3.477   3.179
 1726SOL    HW3 6927   0.345   3.509   3.051
 1726SOL    MW4 6928   0.412   3.472   3.092
 1727SOL     OW 6929   0.626   3.625   2.987
 1727SOL    HW2 6930   0.714   3.605   3.019
 1727SOL    HW3 6931   0.570   3.558   3.029
 1727SOL    MW4 6932   0.630   3.613   2.997
 1728SOL     OW 6933   0.663   3.874   3.087
 1728SOL    HW2 6934   0.696   3.871   3.177
 1728SOL    HW3 6935   0.641   3.784   3.066
 1728SOL    MW4 6936   0.665   3.862   3.096
 1729SOL     OW 6937   0.450   4.044   3.034
 1729SOL    HW2 6938   0.530   3.994   3.049
 1729SOL    HW3 6939   0.438   4.043   2.939
 1729SOL    MW4 6940   0.459   4.038   3.024
 1730SOL     OW 6941   0.451   4.286   3.162
 1730SOL    HW2 6942   0.458   4.202   3.119
 1730SOL    HW3 6943   0.372   4.326   3.126
 1730SOL    MW4 6944   0.442   4.280   3.152
 1731SOL     OW 6945   0.693   4.387   3.060
 1731SOL    HW2 6946   0.604   4.354   3.072
 1731SOL    HW3 6947   0.704   4.391   2.965
 1731SOL    MW4 6948   0.683   4.383   3.049
 1732SOL     OW 6949   1.077   4.635   3.125
 1732SOL    HW2 6950   1.149   4.694   3.102
 1732SOL    HW3 6951   1.006   4.660   3.065
 1732SOL    MW4 6952   1.077   4.646   3.114
 1733SOL     OW 6953   0.875   0.098   2.993
 1733SOL    HW2 6954   0.903   0.182   3.028
 1733SOL    HW3 6955   0.804   0.070   3.050
 1733SOL    MW4 6956   0.869   0.105   3.005
 1734SOL     OW 6957   0.898   0.346   3.125
 1734SOL    HW2 6958   0.895   0.351   3.220
 1734SOL    HW3 6959   0.977   0.395   3.100
 1734SOL    MW4 6960   0.908   0.353   3.134
 1735SOL     OW 6961   1.112   0.475   3.013
 1735SOL    HW2 6962   1.198   0.436   3.031
 1735SOL    HW3 6963   1.100   0.463   2.919
 1735SOL    MW4 6964   1.122   0.468   3.003
 1736SOL     OW 6965   1.113   0.759   3.122
 1736SOL    HW2 6966   1.113   0.740   3.216
 1736SOL    HW3 6967   1.107   0.674   3.080
 1736SOL    MW4 6968   1.112   0.745   3.129
 1737SOL     OW 6969   0.927   0.931   3.013
 1737SOL    HW2 6970   0.981   0.869   3.062
 1737SOL    HW3 6971   0.838   0.898   3.025
 1737SOL    MW4 6972   0.922   0.918   3.021
 1738SOL     OW 6973   0.912   1.183   3.143
 1738SOL    HW2 6974   1.000   1.218   3.130
 1738SOL    HW3 6975   0.917   1.093   3.112
 1738SOL    MW4 6976   0.924   1.176   3.137
 1739SOL     OW 6977   1.169   1.280   3.087
 1739SOL    HW2 6978   1.260   1.252   3.096
 1739SOL    HW3 6979   1.159   1.297   2.993
 1739SOL    MW4 6980   1.180   1.278   3.076
 1740SOL     OW 6981   1.111   1.570   3.117
 1740SOL    HW2 6982   1.198   1.604   3.096
 1740SOL    HW3 6983   1.121   1.475   3.109
 1740SOL    MW4 6984   1.124   1.562   3.113
 1741SOL     OW 6985   0.878   1.669   2.992
 1741SOL    HW2 6986   0.950   1.638   3.047
 1741SOL    HW3 6987   0.802   1.621   3.024
 1741SOL    MW4 6988   0.878   1.658   3.004
 1742SOL     OW 6989   0.829   1.930   3.082
 1742SOL    HW2 6990   0.831   1.899   3.173
 1742SOL    HW3 6991   0.845   1.851   3.030
 1742SOL    MW4 6992   0.831   1.915   3.087
 1743SOL     OW 6993   1.076   2.043   3.005
 1743SOL    HW2 6994   0.991   2.011   3.037
 1743SOL    HW3 6995   1.066   2.047   2.910
 1743SOL    MW4 6996   1.063   2.039   2.997
 1744SOL     OW 6997   1.128   2.297   3.105
 1744SOL    HW2 6998   1.050   2.345   3.076
 1744SOL    HW3 6999   1.117   2.209   3.069
 1744SOL    MW4 7000   1.116   2.292   3.096
 1745SOL     OW 7001   0.909   2.444   3.033
 1745SOL    HW2 7002   0.822   2.405   3.037
 1745SOL    HW3 7003   0.934   2.439   2.941
 1745SOL    MW4 7004   0.901   2.438   3.021
 1746SOL     OW 7005   0.896   2.724   3.114
 1746SOL    HW2 7006   0.901   2.723   3.209
 1746SOL    HW3 7007   0.898   2.632   3.088
 1746SOL    MW4 7008   0.897   2.712   3.123
 1747SOL     OW 7009   1.131   2.821   2.994
 1747SOL    HW2 7010   1.144   2.910   3.027
 1747SOL    HW3 7011   1.051   2.791   3.037
 1747SOL    MW4 7012   1.122   2.829   3.004
 1748SOL     OW 7013   1.148   3.096   3.105
 1748SOL    HW2 7014   1.218   3.147   3.066
 1748SOL    HW3 7015   1.067   3.141   3.078
 1748SOL    MW4 7016   1.146   3.109   3.097
 1749SOL     OW 7017   0.913   3.216   3.044
 1749SOL    HW2 7018   0.831   3.178   3.074
 1749SOL    HW3 7019   0.903   3.225   2.949
 1749SOL    MW4 7020   0.901   3.212   3.035
 1750SOL     OW 7021   0.862   3.499   3.097
 1750SOL    HW2 7022   0.940   3.548   3.072
 1750SOL    HW3 7023   0.885   3.408   3.083
 1750SOL    MW4 7024   0.876   3.494   3.092
 1751SOL     OW 7025   1.097   3.623   3.051
 1751SOL    HW2 7026   1.185   3.591   3.069
 1751SOL    HW3 7027   1.095   3.710   3.091
 1751SOL    MW4 7028   1.108   3.630   3.059
 1752SOL     OW 7029   1.113   3.882   3.144
 1752SOL    HW2 7030   1.094   3.890   3.238
 1752SOL    HW3 7031   1.039   3.925   3.101
 1752SOL    MW4 7032   1.101   3.889   3.151
 1753SOL     OW 7033   0.893   4.003   3.014
 1753SOL    HW2 7034   0.806   3.975   3.042
 1753SOL    HW3 7035   0.890   3.999   2.919
 1753SOL    MW4 7036   0.881   3.999   3.005
 1754SOL     OW 7037   0.927   4.260   3.155
 1754SOL    HW2 7038   0.933   4.175   3.111
 1754SOL    HW3 7039   0.841   4.293   3.131
 1754SOL    MW4 7040   0.916   4.253   3.146
 1755SOL     OW 7041   1.107   4.415   2.980
 1755SOL    HW2 7042   1.029   4.370   3.012
 1755SOL    HW3 7043   1.112   4.494   3.033
 1755SOL    MW4 7044   1.097   4.419   2.991
 1756SOL     OW 7045   1.536   4.646   3.123
 1756SOL    HW2 7046   1.545   4.648   3.219
 1756SOL    HW3 7047   1.451   4.687   3.107
 1756SOL    MW4 7048   1.526   4.652   3.134
 1757SOL     OW 7049   1.295   0.103   3.014
 1757SOL    HW2 7050   1.326   0.192   3.030
 1757SOL    HW3 7051   1.314   0.087   2.922
 1757SOL    MW4 7052   1.302   0.113   3.004
 1758SOL     OW 7053   1.371   0.373   3.100
 1758SOL    HW2 7054   1.355   0.384   3.194
 1758SOL    HW3 7055   1.445   0.430   3.081
 1758SOL    MW4 7056   1.379   0.382   3.110
 1759SOL     OW 7057   1.599   0.512   3.018
 1759SOL    HW2 7058   1.604   0.604   3.045
 1759SOL    HW3 7059   1.589   0.515   2.923
 1759SOL    MW4 7060   1.599   0.525   3.009
 1760SOL     OW 7061   1.642   0.770   3.118
 1760SOL    HW2 7062   1.640   0.758   3.213
 1760SOL    HW3 7063   1.553   0.795   3.095
 1760SOL    MW4 7064   1.630   0.772   3.127
 1761SOL     OW 7065   1.360   0.857   3.050
 1761SOL    HW2 7066   1.368   0.950   3.068
 1761SOL    HW3 7067   1.277   0.831   3.090
 1761SOL    MW4 7068   1.350   0.866   3.058
 1762SOL     OW 7069   1.389   1.118   3.119
 1762SOL    HW2 7070   1.381   1.125   3.214
 1762SOL    HW3 7071   1.473   1.158   3.099
 1762SOL    MW4 7072   1.399   1.125   3.129
 1763SOL     OW 7073   1.594   1.297   3.037
 1763SOL    HW2 7074   1.677   1.261   3.066
 1763SOL    HW3 7075   1.596   1.389   3.065
 1763SOL    MW4 7076   1.605   1.305   3.044
 1764SOL     OW 7077   1.590   1.553   3.119
 1764SOL    HW2 7078   1.668   1.596   3.084
 1764SOL    HW3 7079   1.518   1.613   3.095
 1764SOL    MW4 7080   1.591   1.567   3.111
 1765SOL     OW 7081   1.346   1.695   3.041
 1765SOL    HW2 7082   1.342   1.790   3.055
 1765SOL    HW3 7083   1.333   1.684   2.947
 1765SOL    MW4 7084   1.344   1.706   3.031
 1766SOL     OW 7085   1.336   1.974   3.089
 1766SOL    HW2 7086   1.333   1.973   3.185
 1766SOL    HW3 7087   1.249   2.002   3.062
 1766SOL    MW4 7088   1.325   1.977   3.098
 1767SOL     OW 7089   1.608   2.051   3.010
 1767SOL    HW2 7090   1.524   2.018   3.041
 1767SOL    HW3 7091   1.599   2.052   2.915
 1767SOL    MW4 7092   1.595   2.047   3.002
 1768SOL     OW 7093   1.570   2.329   3.072
 1768SOL    HW2 7094   1.497   2.356   3.016
 1768SOL    HW3 7095   1.581   2.236   3.053
 1768SOL    MW4 7096   1.562   2.320   3.062
 1769SOL     OW 7097   1.360   2.484   2.989
 1769SOL    HW2 7098   1.286   2.436   3.028
 1769SOL    HW3 7099   1.343   2.481   2.895
 1769SOL    MW4 7100   1.348   2.477   2.982
 1770SOL     OW 7101   1.372   2.741   3.110
 1770SOL    HW2 7102   1.362   2.649   3.086
 1770SOL    HW3 7103   1.289   2.782   3.086
 1770SOL    MW4 7104   1.360   2.734   3.104
 1771SOL     OW 7105   1.578   2.862   2.983
 1771SOL    HW2 7106   1.647   2.808   3.020
 1771SOL    HW3 7107   1.497   2.828   3.021
 1771SOL    MW4 7108   1.577   2.851   2.993
 1772SOL     OW 7109   1.602   3.117   3.107
 1772SOL    HW2 7110   1.618   3.114   3.201
 1772SOL    HW3 7111   1.601   3.025   3.080
 1772SOL    MW4 7112   1.604   3.104   3.116
 1773SOL     OW 7113   1.361   3.215   2.994
 1773SOL    HW2 7114   1.435   3.183   3.046
 1773SOL    HW3 7115   1.391   3.212   2.904
 1773SOL    MW4 7116   1.374   3.211   2.989
 1774SOL     OW 7117   1.336   3.490   3.105
 1774SOL    HW2 7118   1.347   3.468   3.198
 1774SOL    HW3 7119   1.339   3.406   3.060
 1774SOL    MW4 7120   1.338   3.476   3.111
 1775SOL     OW 7121   1.551   3.643   2.993
 1775SOL    HW2 7122   1.486   3.582   3.028
 1775SOL    HW3 7123   1.544   3.633   2.898
 1775SOL    MW4 7124   1.542   3.634   2.985
 1776SOL     OW 7125   1.566   3.893   3.163
 1776SOL    HW2 7126   1.650   3.932   3.141
 1776SOL    HW3 7127   1.562   3.812   3.112
 1776SOL    MW4 7128   1.576   3.888   3.153
 1777SOL     OW 7129   1.342   3.986   3.013
 1777SOL    HW2 7130   1.421   3.976   3.066
 1777SOL    HW3 7131   1.277   3.930   3.057
 1777SOL    MW4 7132   1.344   3.977   3.026
 1778SOL     OW 7133   1.290   4.255   3.111
 1778SOL    HW2 7134   1.299   4.166   3.076
 1778SOL    HW3 7135   1.227   4.297   3.052
 1778SOL    MW4 7136   1.283   4.249   3.098
 1779SOL     OW 7137   1.498   4.399   3.006
 1779SOL    HW2 7138   1.423   4.356   3.047
 1779SOL    HW3 7139   1.495   4.489   3.039
 1779SOL    MW4 7140   1.488   4.405   3.016
 1780SOL     OW 7141   2.020   4.658   3.124
 1780SOL    HW2 7142   2.016   4.646   3.218
 1780SOL    HW3 7143   1.943   4.711   3.103
 1780SOL    MW4 7144   2.010   4.664   3.133
 1781SOL     OW 7145   1.773   0.111   3.065
 1781SOL    HW2 7146   1.694   0.060   3.079
 1781SOL    HW3 7147   1.777   0.123   2.970
 1781SOL    MW4 7148   1.763   0.106   3.054
 1782SOL     OW 7149   1.786   0.372   3.146
 1782SOL    HW2 7150   1.767   0.280   3.127
 1782SOL    HW3 7151   1.708   0.419   3.117
 1782SOL    MW4 7152   1.773   0.366   3.139
 1783SOL     OW 7153   1.974   0.521   3.016
 1783SOL    HW2 7154   1.916   0.468   3.071
 1783SOL    HW3 7155   1.950   0.498   2.926
 1783SOL    MW4 7156   1.963   0.511   3.011
 1784SOL     OW 7157   2.045   0.781   3.056
 1784SOL    HW2 7158   1.963   0.819   3.024
 1784SOL    HW3 7159   2.031   0.687   3.054
 1784SOL    MW4 7160   2.033   0.774   3.051
 1785SOL     OW 7161   1.830   0.925   2.994
 1785SOL    HW2 7162   1.764   0.868   3.034
 1785SOL    HW3 7163   1.811   0.922   2.901
 1785SOL    MW4 7164   1.819   0.917   2.987
 1786SOL     OW 7165   1.831   1.169   3.119
 1786SOL    HW2 7166   1.818   1.158   3.214
 1786SOL    HW3 7167   1.844   1.079   3.087
 1786SOL    MW4 7168   1.831   1.155   3.127
 1787SOL     OW 7169   2.049   1.280   2.978
 1787SOL    HW2 7170   2.122   1.236   3.023
 1787SOL    HW3 7171   1.971   1.249   3.024
 1787SOL    MW4 7172   2.048   1.270   2.990
 1788SOL     OW 7173   2.047   1.548   3.103
 1788SOL    HW2 7174   2.040   1.528   3.197
 1788SOL    HW3 7175   2.053   1.462   3.061
 1788SOL    MW4 7176   2.047   1.534   3.110
 1789SOL     OW 7177   1.803   1.687   3.007
 1789SOL    HW2 7178   1.835   1.771   3.039
 1789SOL    HW3 7179   1.879   1.629   3.013
 1789SOL    MW4 7180   1.817   1.690   3.012
 1790SOL     OW 7181   1.862   1.950   3.086
 1790SOL    HW2 7182   1.929   1.998   3.038
 1790SOL    HW3 7183   1.780   1.992   3.061
 1790SOL    MW4 7184   1.860   1.962   3.077
 1791SOL     OW 7185   2.054   2.129   2.981
 1791SOL    HW2 7186   2.130   2.082   3.016
 1791SOL    HW3 7187   2.057   2.215   3.023
 1791SOL    MW4 7188   2.064   2.134   2.991
 1792SOL     OW 7189   2.080   2.356   3.118
 1792SOL    HW2 7190   2.161   2.386   3.076
 1792SOL    HW3 7191   2.011   2.405   3.075
 1792SOL    MW4 7192   2.082   2.366   3.107
 1793SOL     OW 7193   1.824   2.438   2.994
 1793SOL    HW2 7194   1.809   2.532   3.007
 1793SOL    HW3 7195   1.737   2.399   3.008
 1793SOL    MW4 7196   1.810   2.446   2.997
 1794SOL     OW 7197   1.788   2.711   3.072
 1794SOL    HW2 7198   1.786   2.709   3.168
 1794SOL    HW3 7199   1.875   2.745   3.050
 1794SOL    MW4 7200   1.799   2.715   3.082
 1795SOL     OW 7201   2.028   2.844   3.041
 1795SOL    HW2 7202   2.033   2.936   3.066
 1795SOL    HW3 7203   2.036   2.845   2.945
 1795SOL    MW4 7204   2.030   2.857   3.031
 1796SOL     OW 7205   2.038   3.095   3.103
 1796SOL    HW2 7206   2.038   3.122   3.195
 1796SOL    HW3 7207   1.958   3.132   3.067
 1796SOL    MW4 7208   2.028   3.103   3.110
 1797SOL     OW 7209   1.830   3.240   2.983
 1797SOL    HW2 7210   1.748   3.200   3.014
 1797SOL    HW3 7211   1.826   3.230   2.888
 1797SOL    MW4 7212   1.818   3.233   2.975
 1798SOL     OW 7213   1.789   3.530   3.077
 1798SOL    HW2 7214   1.775   3.444   3.037
 1798SOL    HW3 7215   1.716   3.583   3.045
 1798SOL    MW4 7216   1.777   3.525   3.067
 1799SOL     OW 7217   2.038   3.630   2.981
 1799SOL    HW2 7218   2.042   3.710   3.033
 1799SOL    HW3 7219   1.955   3.590   3.004
 1799SOL    MW4 7220   2.028   3.635   2.991
 1800SOL     OW 7221   2.019   3.871   3.115
 1800SOL    HW2 7222   2.039   3.871   3.208
 1800SOL    HW3 7223   1.943   3.929   3.107
 1800SOL    MW4 7224   2.011   3.879   3.126
 1801SOL     OW 7225   1.793   4.035   3.075
 1801SOL    HW2 7226   1.772   4.126   3.095
 1801SOL    HW3 7227   1.790   4.030   2.980
 1801SOL    MW4 7228   1.790   4.046   3.065
 1802SOL     OW 7229   1.726   4.300   3.133
 1802SOL    HW2 7230   1.789   4.358   3.091
 1802SOL    HW3 7231   1.640   4.334   3.107
 1802SOL    MW4 7232   1.723   4.312   3.124
 1803SOL     OW 7233   1.958   4.409   3.026
 1803SOL    HW2 7234   1.960   4.493   3.070
 1803SOL    HW3 7235   1.997   4.426   2.940
 1803SOL    MW4 7236   1.963   4.422   3.020
 1804SOL     OW 7237   2.453   4.627   3.164
 1804SOL    HW2 7238   2.463   4.547   3.113
 1804SOL    HW3 7239   2.377   4.670   3.126
 1804SOL    MW4 7240   2.444   4.622   3.152
 1805SOL     OW 7241   2.271   0.102   3.018
 1805SOL    HW2 7242   2.255   0.196   3.029
 1805SOL    HW3 7243   2.193   0.061   3.056
 1805SOL    MW4 7244   2.259   0.109   3.025
 1806SOL     OW 7245   2.188   0.357   3.073
 1806SOL    HW2 7246   2.190   0.381   3.165
 1806SOL    HW3 7247   2.106   0.394   3.041
 1806SOL    MW4 7248   2.177   0.365   3.081
 1807SOL     OW 7249   2.401   0.517   3.004
 1807SOL    HW2 7250   2.315   0.477   3.009
 1807SOL    HW3 7251   2.417   0.529   2.910
 1807SOL    MW4 7252   2.392   0.513   2.992
 1808SOL     OW 7253   2.458   0.752   3.108
 1808SOL    HW2 7254   2.541   0.770   3.063
 1808SOL    HW3 7255   2.432   0.665   3.076
 1808SOL    MW4 7256   2.466   0.743   3.098
 1809SOL     OW 7257   2.285   0.919   2.978
 1809SOL    HW2 7258   2.347   0.873   3.035
 1809SOL    HW3 7259   2.201   0.877   2.994
 1809SOL    MW4 7260   2.282   0.907   2.987
 1810SOL     OW 7261   2.298   1.176   3.100
 1810SOL    HW2 7262   2.294   1.161   3.195
 1810SOL    HW3 7263   2.309   1.089   3.063
 1810SOL    MW4 7264   2.299   1.163   3.108
 1811SOL     OW 7265   2.515   1.321   2.985
 1811SOL    HW2 7266   2.437   1.281   3.024
 1811SOL    HW3 7267   2.499   1.317   2.891
 1811SOL    MW4 7268   2.502   1.315   2.978
 1812SOL     OW 7269   2.480   1.566   3.094
 1812SOL    HW2 7270   2.392   1.593   3.068
 1812SOL    HW3 7271   2.494   1.483   3.049
 1812SOL    MW4 7272   2.470   1.559   3.084
 1813SOL     OW 7273   2.249   1.700   3.010
 1813SOL    HW2 7274   2.181   1.654   3.060
 1813SOL    HW3 7275   2.214   1.705   2.921
 1813SOL    MW4 7276   2.235   1.695   3.005
 1814SOL     OW 7277   2.243   1.959   3.098
 1814SOL    HW2 7278   2.319   2.006   3.064
 1814SOL    HW3 7279   2.251   1.870   3.063
 1814SOL    MW4 7280   2.254   1.953   3.089
 1815SOL     OW 7281   2.470   2.110   2.997
 1815SOL    HW2 7282   2.548   2.070   3.036
 1815SOL    HW3 7283   2.475   2.087   2.904
 1815SOL    MW4 7284   2.481   2.101   2.990
 1816SOL     OW 7285   2.488   2.359   3.110
 1816SOL    HW2 7286   2.481   2.344   3.204
 1816SOL    HW3 7287   2.484   2.272   3.071
 1816SOL    MW4 7288   2.487   2.346   3.117
 1817SOL     OW 7289   2.285   2.469   2.965
 1817SOL    HW2 7290   2.281   2.552   3.013
 1817SOL    HW3 7291   2.355   2.420   3.009
 1817SOL    MW4 7292   2.294   2.473   2.977
 1818SOL     OW 7293   2.256   2.694   3.113
 1818SOL    HW2 7294   2.321   2.753   3.076
 1818SOL    HW3 7295   2.175   2.745   3.114
 1818SOL    MW4 7296   2.254   2.709   3.109
 1819SOL     OW 7297   2.484   2.835   3.034
 1819SOL    HW2 7298   2.506   2.922   3.067
 1819SOL    HW3 7299   2.487   2.844   2.939
 1819SOL    MW4 7300   2.488   2.848   3.026
 1820SOL     OW 7301   2.530   3.106   3.106
 1820SOL    HW2 7302   2.610   3.153   3.083
 1820SOL    HW3 7303   2.460   3.158   3.066
 1820SOL    MW4 7304   2.531   3.119   3.098
 1821SOL     OW 7305   2.282   3.215   3.030
 1821SOL    HW2 7306   2.264   3.307   3.048
 1821SOL    HW3 7307   2.204   3.169   3.062
 1821SOL    MW4 7308   2.269   3.221   3.037
 1822SOL     OW 7309   2.229   3.475   3.102
 1822SOL    HW2 7310   2.302   3.514   3.055
 1822SOL    HW3 7311   2.151   3.509   3.058
 1822SOL    MW4 7312   2.228   3.484   3.090
 1823SOL     OW 7313   2.430   3.617   2.967
 1823SOL    HW2 7314   2.509   3.570   2.994
 1823SOL    HW3 7315   2.431   3.698   3.018
 1823SOL    MW4 7316   2.440   3.621   2.977
 1824SOL     OW 7317   2.472   3.872   3.105
 1824SOL    HW2 7318   2.477   3.869   3.200
 1824SOL    HW3 7319   2.556   3.910   3.078
 1824SOL    MW4 7320   2.484   3.877   3.114
 1825SOL     OW 7321   2.234   4.020   3.023
 1825SOL    HW2 7322   2.308   3.965   3.052
 1825SOL    HW3 7323   2.156   3.972   3.053
 1825SOL    MW4 7324   2.234   4.006   3.031
 1826SOL     OW 7325   2.194   4.268   3.154
 1826SOL    HW2 7326   2.215   4.179   3.125
 1826SOL    HW3 7327   2.103   4.281   3.127
 1826SOL    MW4 7328   2.185   4.258   3.146
 1827SOL     OW 7329   2.444   4.374   3.057
 1827SOL    HW2 7330   2.361   4.333   3.083
 1827SOL    HW3 7331   2.437   4.381   2.962
 1827SOL    MW4 7332   2.432   4.369   3.048
 1828SOL     OW 7333   2.885   0.037   3.107
 1828SOL    HW2 7334   2.970   0.064   3.073
 1828SOL    HW3 7335   2.882  -0.058   3.091
 1828SOL    MW4 7336   2.896   0.028   3.100
 1829SOL     OW 7337   2.640   0.127   3.002
 1829SOL    HW2 7338   2.721   0.091   3.039
 1829SOL    HW3 7339   2.571   0.073   3.039
 1829SOL    MW4 7340   2.642   0.115   3.012
 1830SOL     OW 7341   2.630   0.388   3.084
 1830SOL    HW2 7342   2.637   0.298   3.050
 1830SOL    HW3 7343   2.544   0.418   3.055
 1830SOL    MW4 7344   2.620   0.380   3.076
 1831SOL     OW 7345   2.875   0.466   2.984
 1831SOL    HW2 7346   2.799   0.418   3.016
 1831SOL    HW3 7347   2.872   0.456   2.889
 1831SOL    MW4 7348   2.865   0.458   2.976
 1832SOL     OW 7349   2.930   0.741   3.051
 1832SOL    HW2 7350   2.924   0.736   3.146
 1832SOL    HW3 7351   2.922   0.650   3.021
 1832SOL    MW4 7352   2.928   0.728   3.059
 1833SOL     OW 7353   2.683   0.868   2.998
 1833SOL    HW2 7354   2.692   0.961   3.018
 1833SOL    HW3 7355   2.772   0.833   3.007
 1833SOL    MW4 7356   2.696   0.876   3.002
 1834SOL     OW 7357   2.719   1.127   3.069
 1834SOL    HW2 7358   2.802   1.173   3.052
 1834SOL    HW3 7359   2.652   1.195   3.062
 1834SOL    MW4 7360   2.721   1.142   3.066
 1835SOL     OW 7361   2.933   1.289   3.006
 1835SOL    HW2 7362   3.019   1.250   3.021
 1835SOL    HW3 7363   2.937   1.373   3.052
 1835SOL    MW4 7364   2.945   1.295   3.014
 1836SOL     OW 7365   2.923   1.569   3.110
 1836SOL    HW2 7366   2.928   1.594   3.202
 1836SOL    HW3 7367   3.003   1.604   3.071
 1836SOL    MW4 7368   2.934   1.577   3.117
 1837SOL     OW 7369   2.712   1.730   3.020
 1837SOL    HW2 7370   2.785   1.677   3.051
 1837SOL    HW3 7371   2.636   1.673   3.027
 1837SOL    MW4 7372   2.711   1.716   3.025
 1838SOL     OW 7373   2.704   2.001   3.095
 1838SOL    HW2 7374   2.790   2.028   3.064
 1838SOL    HW3 7375   2.698   1.908   3.071
 1838SOL    MW4 7376   2.714   1.992   3.088
 1839SOL     OW 7377   2.957   2.059   3.011
 1839SOL    HW2 7378   2.936   2.151   3.028
 1839SOL    HW3 7379   2.950   2.050   2.916
 1839SOL    MW4 7380   2.954   2.070   3.001
 1840SOL     OW 7381   2.898   2.324   3.068
 1840SOL    HW2 7382   2.981   2.367   3.047
 1840SOL    HW3 7383   2.831   2.385   3.036
 1840SOL    MW4 7384   2.900   2.337   3.061
 1841SOL     OW 7385   2.700   2.491   2.971
 1841SOL    HW2 7386   2.722   2.568   3.023
 1841SOL    HW3 7387   2.634   2.445   3.022
 1841SOL    MW4 7388   2.694   2.495   2.984
 1842SOL     OW 7389   2.726   2.718   3.131
 1842SOL    HW2 7390   2.737   2.715   3.226
 1842SOL    HW3 7391   2.636   2.746   3.118
 1842SOL    MW4 7392   2.716   2.721   3.142
 1843SOL     OW 7393   2.921   2.859   2.966
 1843SOL    HW2 7394   3.004   2.823   2.995
 1843SOL    HW3 7395   2.855   2.799   3.003
 1843SOL    MW4 7396   2.923   2.846   2.975
 1844SOL     OW 7397   2.923   3.092   3.118
 1844SOL    HW2 7398   2.873   3.155   3.066
 1844SOL    HW3 7399   2.906   3.007   3.078
 1844SOL    MW4 7400   2.914   3.089   3.106
 1845SOL     OW 7401   2.735   3.252   2.985
 1845SOL    HW2 7402   2.704   3.338   3.013
 1845SOL    HW3 7403   2.736   3.257   2.889
 1845SOL    MW4 7404   2.731   3.264   2.976
 1846SOL     OW 7405   2.658   3.489   3.082
 1846SOL    HW2 7406   2.672   3.472   3.175
 1846SOL    HW3 7407   2.737   3.535   3.054
 1846SOL    MW4 7408   2.670   3.493   3.091
 1847SOL     OW 7409   2.918   3.599   2.977
 1847SOL    HW2 7410   2.993   3.566   3.026
 1847SOL    HW3 7411   2.917   3.693   2.994
 1847SOL    MW4 7412   2.928   3.607   2.986
 1848SOL     OW 7413   2.926   3.859   3.083
 1848SOL    HW2 7414   2.935   3.860   3.179
 1848SOL    HW3 7415   2.843   3.903   3.067
 1848SOL    MW4 7416   2.916   3.865   3.094
 1849SOL     OW 7417   2.693   3.966   2.996
 1849SOL    HW2 7418   2.688   4.055   3.032
 1849SOL    HW3 7419   2.690   3.978   2.901
 1849SOL    MW4 7420   2.692   3.979   2.989
 1850SOL     OW 7421   2.667   4.218   3.128
 1850SOL    HW2 7422   2.688   4.243   3.218
 1850SOL    HW3 7423   2.588   4.268   3.107
 1850SOL    MW4 7424   2.659   4.228   3.137
 1851SOL     OW 7425   2.854   4.428   3.033
 1851SOL    HW2 7426   2.939   4.393   3.060
 1851SOL    HW3 7427   2.790   4.365   3.066
 1851SOL    MW4 7428   2.857   4.415   3.041
 1852SOL     OW 7429   3.362   4.657   3.145
 1852SOL    HW2 7430   3.427   4.705   3.094
 1852SOL    HW3 7431   3.354   4.573   3.100
 1852SOL    MW4 7432   3.370   4.652   3.132
 1853SOL     OW 7433   3.139   0.075   2.993
 1853SOL    HW2 7434   3.131   0.164   3.029
 1853SOL    HW3 7435   3.221   0.042   3.031
 1853SOL    MW4 7436   3.149   0.082   3.003
 1854SOL     OW 7437   3.086   0.334   3.098
 1854SOL    HW2 7438   3.162   0.384   3.069
 1854SOL    HW3 7439   3.012   0.373   3.050
 1854SOL    MW4 7440   3.086   0.346   3.088
 1855SOL     OW 7441   3.331   0.440   3.021
 1855SOL    HW2 7442   3.419   0.418   3.052
 1855SOL    HW3 7443   3.344   0.469   2.931
 1855SOL    MW4 7444   3.345   0.441   3.013
 1856SOL     OW 7445   3.362   0.745   3.090
 1856SOL    HW2 7446   3.357   0.746   3.186
 1856SOL    HW3 7447   3.336   0.656   3.066
 1856SOL    MW4 7448   3.358   0.733   3.100
 1857SOL     OW 7449   3.140   0.889   2.961
 1857SOL    HW2 7450   3.211   0.853   3.014
 1857SOL    HW3 7451   3.062   0.842   2.990
 1857SOL    MW4 7452   3.139   0.878   2.972
 1858SOL     OW 7453   3.168   1.164   3.058
 1858SOL    HW2 7454   3.256   1.198   3.040
 1858SOL    HW3 7455   3.160   1.087   3.003
 1858SOL    MW4 7456   3.179   1.159   3.048
 1859SOL     OW 7457   3.421   1.271   2.954
 1859SOL    HW2 7458   3.484   1.231   3.015
 1859SOL    HW3 7459   3.404   1.358   2.991
 1859SOL    MW4 7460   3.427   1.277   2.967
 1860SOL     OW 7461   3.392   1.525   3.050
 1860SOL    HW2 7462   3.416   1.518   3.142
 1860SOL    HW3 7463   3.454   1.588   3.013
 1860SOL    MW4 7464   3.403   1.532   3.057
 1861SOL     OW 7465   3.181   1.678   3.013
 1861SOL    HW2 7466   3.255   1.622   3.037
 1861SOL    HW3 7467   3.174   1.670   2.918
 1861SOL    MW4 7468   3.190   1.669   3.004
 1862SOL     OW 7469   3.192   1.926   3.106
 1862SOL    HW2 7470   3.199   1.840   3.065
 1862SOL    HW3 7471   3.119   1.968   3.061
 1862SOL    MW4 7472   3.183   1.920   3.094
 1863SOL     OW 7473   3.377   2.107   3.004
 1863SOL    HW2 7474   3.462   2.063   3.008
 1863SOL    HW3 7475   3.316   2.046   3.046
 1863SOL    MW4 7476   3.380   2.094   3.010
 1864SOL     OW 7477   3.360   2.375   3.080
 1864SOL    HW2 7478   3.366   2.355   3.173
 1864SOL    HW3 7479   3.375   2.291   3.037
 1864SOL    MW4 7480   3.363   2.361   3.087
 1865SOL     OW 7481   3.123   2.468   2.982
 1865SOL    HW2 7482   3.191   2.414   3.023
 1865SOL    HW3 7483   3.134   2.452   2.888
 1865SOL    MW4 7484   3.134   2.459   2.975
 1866SOL     OW 7485   3.145   2.734   3.083
 1866SOL    HW2 7486   3.165   2.720   3.176
 1866SOL    HW3 7487   3.133   2.646   3.048
 1866SOL    MW4 7488   3.146   2.720   3.091
 1867SOL     OW 7489   3.393   2.840   3.027
 1867SOL    HW2 7490   3.400   2.934   3.045
 1867SOL    HW3 7491   3.301   2.819   3.046
 1867SOL    MW4 7492   3.381   2.850   3.032
 1868SOL     OW 7493   3.427   3.111   3.120
 1868SOL    HW2 7494   3.429   3.113   3.216
 1868SOL    HW3 7495   3.343   3.149   3.097
 1868SOL    MW4 7496   3.416   3.116   3.130
 1869SOL     OW 7497   3.162   3.201   3.038
 1869SOL    HW2 7498   3.084   3.155   3.068
 1869SOL    HW3 7499   3.150   3.208   2.943
 1869SOL    MW4 7500   3.150   3.196   3.029
 1870SOL     OW 7501   3.141   3.485   3.110
 1870SOL    HW2 7502   3.222   3.524   3.075
 1870SOL    HW3 7503   3.136   3.399   3.068
 1870SOL    MW4 7504   3.151   3.479   3.100
 1871SOL     OW 7505   3.372   3.602   3.017
 1871SOL    HW2 7506   3.459   3.579   3.049
 1871SOL    HW3 7507   3.366   3.697   3.029
 1871SOL    MW4 7508   3.383   3.612   3.023
 1872SOL     OW 7509   3.331   3.872   3.047
 1872SOL    HW2 7510   3.327   3.864   3.142
 1872SOL    HW3 7511   3.252   3.920   3.023
 1872SOL    MW4 7512   3.320   3.877   3.056
 1873SOL     OW 7513   3.116   4.063   3.003
 1873SOL    HW2 7514   3.040   4.016   3.036
 1873SOL    HW3 7515   3.114   4.051   2.909
 1873SOL    MW4 7516   3.106   4.055   2.995
 1874SOL     OW 7517   3.097   4.317   3.107
 1874SOL    HW2 7518   3.106   4.307   3.202
 1874SOL    HW3 7519   3.129   4.234   3.071
 1874SOL    MW4 7520   3.103   4.305   3.115
 1875SOL     OW 7521   3.326   4.431   2.993
 1875SOL    HW2 7522   3.398   4.377   3.026
 1875SOL    HW3 7523   3.249   4.400   3.040
 1875SOL    MW4 7524   3.326   4.420   3.004
 1876SOL     OW 7525   3.812   4.652   3.146
 1876SOL    HW2 7526   3.817   4.558   3.126
 1876SOL    HW3 7527   3.726   4.678   3.114
 1876SOL    MW4 7528   3.801   4.643   3.139
 1877SOL     OW 7529   3.605   0.105   3.007
 1877SOL    HW2 7530   3.620   0.194   3.037
 1877SOL    HW3 7531   3.610   0.111   2.912
 1877SOL    MW4 7532   3.608   0.117   2.998
 1878SOL     OW 7533   3.591   0.373   3.112
 1878SOL    HW2 7534   3.587   0.390   3.206
 1878SOL    HW3 7535   3.649   0.440   3.078
 1878SOL    MW4 7536   3.598   0.384   3.120
 1879SOL     OW 7537   3.795   0.527   2.996
 1879SOL    HW2 7538   3.866   0.485   3.045
 1879SOL    HW3 7539   3.791   0.616   3.032
 1879SOL    MW4 7540   3.804   0.533   3.007
 1880SOL     OW 7541   3.800   0.765   3.136
 1880SOL    HW2 7542   3.815   0.739   3.227
 1880SOL    HW3 7543   3.883   0.803   3.107
 1880SOL    MW4 7544   3.813   0.767   3.144
 1881SOL     OW 7545   3.600   0.911   3.015
 1881SOL    HW2 7546   3.669   0.857   3.053
 1881SOL    HW3 7547   3.519   0.862   3.032
 1881SOL    MW4 7548   3.598   0.898   3.022
 1882SOL     OW 7549   3.608   1.177   3.128
 1882SOL    HW2 7550   3.689   1.223   3.104
 1882SOL    HW3 7551   3.628   1.085   3.110
 1882SOL    MW4 7552   3.622   1.171   3.122
 1883SOL     OW 7553   3.836   1.286   3.014
 1883SOL    HW2 7554   3.827   1.380   3.028
 1883SOL    HW3 7555   3.829   1.275   2.919
 1883SOL    MW4 7556   3.834   1.297   3.003
 1884SOL     OW 7557   3.819   1.543   3.078
 1884SOL    HW2 7558   3.814   1.536   3.174
 1884SOL    HW3 7559   3.736   1.583   3.052
 1884SOL    MW4 7560   3.807   1.547   3.087
 1885SOL     OW 7561   3.602   1.677   2.964
 1885SOL    HW2 7562   3.588   1.764   3.001
 1885SOL    HW3 7563   3.636   1.695   2.876
 1885SOL    MW4 7564   3.605   1.691   2.957
 1886SOL     OW 7565   3.573   1.912   3.073
 1886SOL    HW2 7566   3.566   1.894   3.167
 1886SOL    HW3 7567   3.661   1.948   3.061
 1886SOL    MW4 7568   3.583   1.914   3.084
 1887SOL     OW 7569   3.825   2.062   3.027
 1887SOL    HW2 7570   3.817   2.150   3.065
 1887SOL    HW3 7571   3.853   2.078   2.936
 1887SOL    MW4 7572   3.828   2.076   3.020
 1888SOL     OW 7573   3.797   2.329   3.129
 1888SOL    HW2 7574   3.775   2.335   3.222
 1888SOL    HW3 7575   3.724   2.372   3.084
 1888SOL    MW4 7576   3.784   2.336   3.135
 1889SOL     OW 7577   3.605   2.472   3.004
 1889SOL    HW2 7578   3.603   2.559   3.045
 1889SOL    HW3 7579   3.515   2.440   3.012
 1889SOL    MW4 7580   3.593   2.479   3.011
 1890SOL     OW 7581   3.590   2.697   3.151
 1890SOL    HW2 7582   3.671   2.742   3.125
 1890SOL    HW3 7583   3.520   2.755   3.121
 1890SOL    MW4 7584   3.591   2.710   3.143
 1891SOL     OW 7585   3.822   2.851   3.058
 1891SOL    HW2 7586   3.806   2.943   3.077
 1891SOL    HW3 7587   3.822   2.846   2.963
 1891SOL    MW4 7588   3.820   2.862   3.048
 1892SOL     OW 7589   3.839   3.129   3.091
 1892SOL    HW2 7590   3.922   3.176   3.092
 1892SOL    HW3 7591   3.775   3.194   3.062
 1892SOL    MW4 7592   3.841   3.144   3.087
 1893SOL     OW 7593   3.624   3.266   3.009
 1893SOL    HW2 7594   3.548   3.220   3.043
 1893SOL    HW3 7595   3.611   3.269   2.914
 1893SOL    MW4 7596   3.612   3.261   3.001
 1894SOL     OW 7597   3.622   3.516   3.127
 1894SOL    HW2 7598   3.705   3.558   3.104
 1894SOL    HW3 7599   3.628   3.429   3.088
 1894SOL    MW4 7600   3.634   3.510   3.119
 1895SOL     OW 7601   3.859   3.619   3.037
 1895SOL    HW2 7602   3.845   3.712   3.056
 1895SOL    HW3 7603   3.848   3.612   2.942
 1895SOL    MW4 7604   3.856   3.630   3.027
 1896SOL     OW 7605   3.796   3.904   3.133
 1896SOL    HW2 7606   3.798   3.918   3.227
 1896SOL    HW3 7607   3.712   3.941   3.105
 1896SOL    MW4 7608   3.785   3.911   3.141
 1897SOL     OW 7609   3.562   4.012   3.011
 1897SOL    HW2 7610   3.486   3.957   3.031
 1897SOL    HW3 7611   3.568   4.010   2.915
 1897SOL    MW4 7612   3.553   4.004   3.001
 1898SOL     OW 7613   3.535   4.275   3.129
 1898SOL    HW2 7614   3.611   4.318   3.089
 1898SOL    HW3 7615   3.533   4.188   3.090
 1898SOL    MW4 7616   3.544   4.269   3.119
 1899SOL     OW 7617   3.781   4.395   3.045
 1899SOL    HW2 7618   3.868   4.369   3.076
 1899SOL    HW3 7619   3.793   4.409   2.951
 1899SOL    MW4 7620   3.794   4.393   3.036
 1900SOL     OW 7621   4.268   0.023   3.099
 1900SOL    HW2 7622   4.281   0.021   3.194
 1900SOL    HW3 7623   4.260  -0.069   3.075
 1900SOL    MW4 7624   4.268   0.011   3.109
 1901SOL     OW 7625   4.028   0.157   3.041
 1901SOL    HW2 7626   4.106   0.123   3.084
 1901SOL    HW3 7627   3.956   0.109   3.080
 1901SOL    MW4 7628   4.029   0.146   3.052
 1902SOL     OW 7629   4.015   0.421   3.120
 1902SOL    HW2 7630   4.100   0.452   3.089
 1902SOL    HW3 7631   4.012   0.329   3.096
 1902SOL    MW4 7632   4.026   0.413   3.113
 1903SOL     OW 7633   4.262   0.515   3.024
 1903SOL    HW2 7634   4.270   0.602   3.063
 1903SOL    HW3 7635   4.271   0.530   2.930
 1903SOL    MW4 7636   4.264   0.528   3.017
 1904SOL     OW 7637   4.276   0.747   3.146
 1904SOL    HW2 7638   4.199   0.783   3.104
 1904SOL    HW3 7639   4.348   0.802   3.116
 1904SOL    MW4 7640   4.276   0.759   3.137
 1905SOL     OW 7641   4.046   0.876   3.061
 1905SOL    HW2 7642   4.053   0.966   3.093
 1905SOL    HW3 7643   4.033   0.885   2.967
 1905SOL    MW4 7644   4.045   0.889   3.053
 1906SOL     OW 7645   4.061   1.164   3.091
 1906SOL    HW2 7646   4.054   1.155   3.186
 1906SOL    HW3 7647   3.982   1.210   3.065
 1906SOL    MW4 7648   4.050   1.169   3.100
 1907SOL     OW 7649   4.297   1.298   3.050
 1907SOL    HW2 7650   4.214   1.256   3.070
 1907SOL    HW3 7651   4.294   1.312   2.955
 1907SOL    MW4 7652   4.286   1.295   3.040
 1908SOL     OW 7653   4.275   1.545   3.142
 1908SOL    HW2 7654   4.197   1.575   3.096
 1908SOL    HW3 7655   4.289   1.456   3.109
 1908SOL    MW4 7656   4.267   1.537   3.132
 1909SOL     OW 7657   4.072   1.644   3.009
 1909SOL    HW2 7658   4.064   1.731   3.049
 1909SOL    HW3 7659   3.991   1.599   3.033
 1909SOL    MW4 7660   4.060   1.650   3.017
 1910SOL     OW 7661   4.037   1.909   3.087
 1910SOL    HW2 7662   4.113   1.966   3.092
 1910SOL    HW3 7663   3.963   1.969   3.070
 1910SOL    MW4 7664   4.037   1.925   3.085
 1911SOL     OW 7665   4.277   2.048   3.080
 1911SOL    HW2 7666   4.271   2.142   3.095
 1911SOL    HW3 7667   4.269   2.039   2.985
 1911SOL    MW4 7668   4.275   2.059   3.069
 1912SOL     OW 7669   4.246   2.307   3.104
 1912SOL    HW2 7670   4.179   2.364   3.067
 1912SOL    HW3 7671   4.329   2.347   3.079
 1912SOL    MW4 7672   4.248   2.320   3.096
 1913SOL     OW 7673   4.018   2.459   3.016
 1913SOL    HW2 7674   4.012   2.551   3.040
 1913SOL    HW3 7675   3.941   2.418   3.056
 1913SOL    MW4 7676   4.007   2.466   3.025
 1914SOL     OW 7677   4.069   2.737   3.104
 1914SOL    HW2 7678   4.067   2.728   3.200
 1914SOL    HW3 7679   3.983   2.773   3.083
 1914SOL    MW4 7680   4.057   2.740   3.114
 1915SOL     OW 7681   4.277   2.845   2.974
 1915SOL    HW2 7682   4.203   2.796   3.008
 1915SOL    HW3 7683   4.354   2.805   3.015
 1915SOL    MW4 7684   4.277   2.833   2.984
 1916SOL     OW 7685   4.250   3.092   3.115
 1916SOL    HW2 7686   4.179   3.134   3.066
 1916SOL    HW3 7687   4.254   3.003   3.079
 1916SOL    MW4 7688   4.241   3.086   3.104
 1917SOL     OW 7689   4.063   3.270   3.025
 1917SOL    HW2 7690   4.077   3.363   3.045
 1917SOL    HW3 7691   4.080   3.263   2.931
 1917SOL    MW4 7692   4.067   3.281   3.015
 1918SOL     OW 7693   4.077   3.514   3.167
 1918SOL    HW2 7694   4.066   3.512   3.262
 1918SOL    HW3 7695   4.003   3.567   3.135
 1918SOL    MW4 7696   4.066   3.521   3.175
 1919SOL     OW 7697   4.266   3.686   3.025
 1919SOL    HW2 7698   4.272   3.770   3.070
 1919SOL    HW3 7699   4.200   3.637   3.074
 1919SOL    MW4 7700   4.258   3.691   3.037
 1920SOL     OW 7701   4.254   3.933   3.148
 1920SOL    HW2 7702   4.172   3.953   3.103
 1920SOL    HW3 7703   4.321   3.977   3.097
 1920SOL    MW4 7704   4.252   3.941   3.135
 1921SOL     OW 7705   4.029   4.020   3.036
 1921SOL    HW2 7706   4.026   4.111   3.067
 1921SOL    HW3 7707   3.948   3.981   3.070
 1921SOL    MW4 7708   4.018   4.027   3.044
 1922SOL     OW 7709   4.043   4.288   3.125
 1922SOL    HW2 7710   4.033   4.275   3.219
 1922SOL    HW3 7711   4.132   4.323   3.115
 1922SOL    MW4 7712   4.054   4.291   3.136
 1923SOL     OW 7713   4.282   4.418   3.033
 1923SOL    HW2 7714   4.353   4.363   3.067
 1923SOL    HW3 7715   4.280   4.399   2.939
 1923SOL    MW4 7716   4.291   4.408   3.025
 1924SOL     OW 7717   0.233   0.010   3.386
 1924SOL    HW2 7718   0.307   0.058   3.422
 1924SOL    HW3 7719   0.250  -0.082   3.407
 1924SOL    MW4 7720   0.245   0.004   3.394
 1925SOL     OW 7721   0.019   0.116   3.515
 1925SOL    HW2 7722   0.032   0.208   3.491
 1925SOL    HW3 7723   0.094   0.071   3.477
 1925SOL    MW4 7724   0.031   0.122   3.507
 1926SOL     OW 7725   0.041   0.376   3.421
 1926SOL    HW2 7726  -0.034   0.421   3.460
 1926SOL    HW3 7727   0.117   0.410   3.468
 1926SOL    MW4 7728   0.041   0.386   3.432
 1927SOL     OW 7729   0.267   0.510   3.541
 1927SOL    HW2 7730   0.335   0.471   3.486
 1927SOL    HW3 7731   0.246   0.593   3.498
 1927SOL    MW4 7732   0.273   0.516   3.528
 1928SOL     OW 7733   0.219   0.759   3.438
 1928SOL    HW2 7734   0.294   0.815   3.460
 1928SOL    HW3 7735   0.142   0.814   3.452
 1928SOL    MW4 7736   0.219   0.773   3.443
 1929SOL     OW 7737   4.490   0.895   3.505
 1929SOL    HW2 7738   4.517   0.894   3.597
 1929SOL    HW3 7739   4.493   0.987   3.481
 1929SOL    MW4 7740   4.494   0.907   3.514
 1930SOL     OW 7741   4.464   1.158   3.433
 1930SOL    HW2 7742   4.544   1.198   3.465
 1930SOL    HW3 7743   4.463   1.176   3.339
 1930SOL    MW4 7744   4.474   1.166   3.425
 1931SOL     OW 7745   0.213   1.290   3.507
 1931SOL    HW2 7746   0.281   1.227   3.483
 1931SOL    HW3 7747   0.229   1.366   3.450
 1931SOL    MW4 7748   0.224   1.292   3.496
 1932SOL     OW 7749   0.255   1.538   3.390
 1932SOL    HW2 7750   0.339   1.577   3.415
 1932SOL    HW3 7751   0.261   1.528   3.295
 1932SOL    MW4 7752   0.267   1.542   3.381
 1933SOL     OW 7753   0.024   1.664   3.484
 1933SOL    HW2 7754  -0.053   1.621   3.448
 1933SOL    HW3 7755   0.098   1.611   3.453
 1933SOL    MW4 7756   0.023   1.652   3.475
 1934SOL     OW 7757   4.454   1.937   3.435
 1934SOL    HW2 7758   4.469   1.843   3.448
 1934SOL    HW3 7759   4.454   1.949   3.340
 1934SOL    MW4 7760   4.456   1.926   3.424
 1935SOL     OW 7761   0.222   2.047   3.469
 1935SOL    HW2 7762   0.261   2.020   3.552
 1935SOL    HW3 7763   0.140   1.998   3.464
 1935SOL    MW4 7764   0.216   2.037   3.480
 1936SOL     OW 7765   0.249   2.313   3.412
 1936SOL    HW2 7766   0.167   2.356   3.437
 1936SOL    HW3 7767   0.231   2.220   3.423
 1936SOL    MW4 7768   0.235   2.306   3.417
 1937SOL     OW 7769   0.023   2.448   3.462
 1937SOL    HW2 7770   0.015   2.442   3.557
 1937SOL    HW3 7771  -0.057   2.408   3.428
 1937SOL    MW4 7772   0.011   2.442   3.470
 1938SOL     OW 7773   0.001   2.712   3.391
 1938SOL    HW2 7774   0.078   2.747   3.435
 1938SOL    HW3 7775  -0.001   2.620   3.418
 1938SOL    MW4 7776   0.011   2.704   3.401
 1939SOL     OW 7777   0.214   2.818   3.505
 1939SOL    HW2 7778   0.290   2.779   3.461
 1939SOL    HW3 7779   0.211   2.908   3.472
 1939SOL    MW4 7780   0.224   2.825   3.495
 1940SOL     OW 7781   0.208   3.064   3.421
 1940SOL    HW2 7782   0.129   3.099   3.463
 1940SOL    HW3 7783   0.188   3.065   3.328
 1940SOL    MW4 7784   0.195   3.069   3.414
 1941SOL     OW 7785   4.480   3.182   3.529
 1941SOL    HW2 7786   4.401   3.148   3.488
 1941SOL    HW3 7787   4.491   3.270   3.493
 1941SOL    MW4 7788   4.471   3.189   3.519
 1942SOL     OW 7789   4.486   3.426   3.402
 1942SOL    HW2 7790   4.417   3.479   3.442
 1942SOL    HW3 7791   4.484   3.450   3.309
 1942SOL    MW4 7792   4.477   3.436   3.395
 1943SOL     OW 7793   0.204   3.590   3.475
 1943SOL    HW2 7794   0.192   3.577   3.569
 1943SOL    HW3 7795   0.137   3.535   3.434
 1943SOL    MW4 7796   0.193   3.581   3.482
 1944SOL     OW 7797   0.227   3.848   3.391
 1944SOL    HW2 7798   0.154   3.887   3.438
 1944SOL    HW3 7799   0.216   3.754   3.404
 1944SOL    MW4 7800   0.216   3.841   3.399
 1945SOL     OW 7801   0.012   3.994   3.503
 1945SOL    HW2 7802   0.037   3.984   3.595
 1945SOL    HW3 7803   0.027   4.086   3.483
 1945SOL    MW4 7804   0.017   4.005   3.512
 1946SOL     OW 7805   0.030   4.275   3.422
 1946SOL    HW2 7806  -0.053   4.318   3.445
 1946SOL    HW3 7807   0.097   4.328   3.465
 1946SOL    MW4 7808   0.028   4.288   3.431
 1947SOL     OW 7809   0.231   4.418   3.526
 1947SOL    HW2 7810   0.226   4.411   3.622
 1947SOL    HW3 7811   0.306   4.363   3.503
 1947SOL    MW4 7812   0.241   4.410   3.536
 1948SOL     OW 7813   0.623   4.594   3.437
 1948SOL    HW2 7814   0.696   4.645   3.472
 1948SOL    HW3 7815   0.622   4.615   3.343
 1948SOL    MW4 7816   0.632   4.604   3.429
 1949SOL     OW 7817   0.459   0.141   3.501
 1949SOL    HW2 7818   0.468   0.160   3.594
 1949SOL    HW3 7819   0.513   0.063   3.486
 1949SOL    MW4 7820   0.467   0.133   3.511
 1950SOL     OW 7821   0.449   0.393   3.380
 1950SOL    HW2 7822   0.533   0.429   3.410
 1950SOL    HW3 7823   0.442   0.308   3.422
 1950SOL    MW4 7824   0.459   0.387   3.389
 1951SOL     OW 7825   0.670   0.494   3.500
 1951SOL    HW2 7826   0.692   0.504   3.592
 1951SOL    HW3 7827   0.738   0.436   3.465
 1951SOL    MW4 7828   0.682   0.488   3.507
 1952SOL     OW 7829   0.698   0.748   3.420
 1952SOL    HW2 7830   0.613   0.784   3.444
 1952SOL    HW3 7831   0.692   0.654   3.441
 1952SOL    MW4 7832   0.686   0.740   3.426
 1953SOL     OW 7833   0.464   0.884   3.514
 1953SOL    HW2 7834   0.472   0.885   3.610
 1953SOL    HW3 7835   0.446   0.976   3.491
 1953SOL    MW4 7836   0.463   0.896   3.524
 1954SOL     OW 7837   0.435   1.140   3.425
 1954SOL    HW2 7838   0.518   1.186   3.441
 1954SOL    HW3 7839   0.436   1.119   3.332
 1954SOL    MW4 7840   0.446   1.143   3.415
 1955SOL     OW 7841   0.682   1.267   3.485
 1955SOL    HW2 7842   0.768   1.226   3.476
 1955SOL    HW3 7843   0.697   1.359   3.462
 1955SOL    MW4 7844   0.695   1.274   3.481
 1956SOL     OW 7845   0.744   1.544   3.396
 1956SOL    HW2 7846   0.807   1.603   3.439
 1956SOL    HW3 7847   0.659   1.581   3.419
 1956SOL    MW4 7848   0.741   1.557   3.405
 1957SOL     OW 7849   0.484   1.669   3.447
 1957SOL    HW2 7850   0.474   1.666   3.542
 1957SOL    HW3 7851   0.449   1.755   3.422
 1957SOL    MW4 7852   0.478   1.680   3.456
 1958SOL     OW 7853   0.439   1.919   3.366
 1958SOL    HW2 7854   0.368   1.968   3.407
 1958SOL    HW3 7855   0.413   1.908   3.275
 1958SOL    MW4 7856   0.427   1.924   3.359
 1959SOL     OW 7857   0.688   1.998   3.469
 1959SOL    HW2 7858   0.666   1.993   3.562
 1959SOL    HW3 7859   0.607   1.973   3.424
 1959SOL    MW4 7860   0.674   1.994   3.476
 1960SOL     OW 7861   0.671   2.288   3.375
 1960SOL    HW2 7862   0.754   2.327   3.399
 1960SOL    HW3 7863   0.679   2.196   3.399
 1960SOL    MW4 7864   0.683   2.281   3.381
 1961SOL     OW 7865   0.476   2.457   3.475
 1961SOL    HW2 7866   0.547   2.401   3.444
 1961SOL    HW3 7867   0.396   2.410   3.450
 1961SOL    MW4 7868   0.475   2.443   3.468
 1962SOL     OW 7869   0.442   2.737   3.399
 1962SOL    HW2 7870   0.473   2.652   3.432
 1962SOL    HW3 7871   0.433   2.724   3.304
 1962SOL    MW4 7872   0.445   2.724   3.391
 1963SOL     OW 7873   0.683   2.846   3.493
 1963SOL    HW2 7874   0.740   2.783   3.449
 1963SOL    HW3 7875   0.595   2.813   3.480
 1963SOL    MW4 7876   0.679   2.834   3.485
 1964SOL     OW 7877   0.686   3.130   3.424
 1964SOL    HW2 7878   0.595   3.149   3.444
 1964SOL    HW3 7879   0.695   3.035   3.439
 1964SOL    MW4 7880   0.676   3.120   3.428
 1965SOL     OW 7881   0.437   3.213   3.473
 1965SOL    HW2 7882   0.440   3.219   3.568
 1965SOL    HW3 7883   0.363   3.155   3.454
 1965SOL    MW4 7884   0.428   3.206   3.483
 1966SOL     OW 7885   0.430   3.460   3.366
 1966SOL    HW2 7886   0.420   3.375   3.408
 1966SOL    HW3 7887   0.359   3.513   3.401
 1966SOL    MW4 7888   0.419   3.456   3.376
 1967SOL     OW 7889   0.658   3.591   3.489
 1967SOL    HW2 7890   0.743   3.560   3.456
 1967SOL    HW3 7891   0.594   3.536   3.444
 1967SOL    MW4 7892   0.661   3.579   3.478
 1968SOL     OW 7893   0.688   3.838   3.361
 1968SOL    HW2 7894   0.604   3.878   3.385
 1968SOL    HW3 7895   0.687   3.753   3.404
 1968SOL    MW4 7896   0.677   3.832   3.370
 1969SOL     OW 7897   0.430   3.988   3.509
 1969SOL    HW2 7898   0.406   4.078   3.488
 1969SOL    HW3 7899   0.366   3.934   3.462
 1969SOL    MW4 7900   0.419   3.992   3.500
 1970SOL     OW 7901   0.425   4.254   3.429
 1970SOL    HW2 7902   0.507   4.295   3.456
 1970SOL    HW3 7903   0.425   4.264   3.333
 1970SOL    MW4 7904   0.436   4.261   3.420
 1971SOL     OW 7905   0.661   4.343   3.555
 1971SOL    HW2 7906   0.738   4.294   3.524
 1971SOL    HW3 7907   0.667   4.427   3.510
 1971SOL    MW4 7908   0.672   4.348   3.545
 1972SOL     OW 7909   1.102   4.667   3.410
 1972SOL    HW2 7910   1.191   4.700   3.423
 1972SOL    HW3 7911   1.089   4.669   3.315
 1972SOL    MW4 7912   1.112   4.671   3.399
 1973SOL     OW 7913   0.849   0.071   3.505
 1973SOL    HW2 7914   0.857   0.069   3.601
 1973SOL    HW3 7915   0.930   0.031   3.474
 1973SOL    MW4 7916   0.861   0.065   3.514
 1974SOL     OW 7917   0.899   0.328   3.422
 1974SOL    HW2 7918   0.988   0.351   3.448
 1974SOL    HW3 7919   0.884   0.241   3.461
 1974SOL    MW4 7920   0.909   0.319   3.430
 1975SOL     OW 7921   1.149   0.478   3.502
 1975SOL    HW2 7922   1.155   0.492   3.597
 1975SOL    HW3 7923   1.133   0.566   3.467
 1975SOL    MW4 7924   1.147   0.491   3.510
 1976SOL     OW 7925   1.119   0.731   3.408
 1976SOL    HW2 7926   1.203   0.770   3.434
 1976SOL    HW3 7927   1.054   0.777   3.461
 1976SOL    MW4 7928   1.122   0.742   3.418
 1977SOL     OW 7929   0.918   0.883   3.525
 1977SOL    HW2 7930   0.918   0.971   3.487
 1977SOL    HW3 7931   0.844   0.839   3.483
 1977SOL    MW4 7932   0.908   0.889   3.514
 1978SOL     OW 7933   0.944   1.154   3.442
 1978SOL    HW2 7934   1.016   1.210   3.470
 1978SOL    HW3 7935   0.949   1.156   3.346
 1978SOL    MW4 7936   0.954   1.162   3.433
 1979SOL     OW 7937   1.166   1.304   3.506
 1979SOL    HW2 7938   1.194   1.322   3.596
 1979SOL    HW3 7939   1.158   1.391   3.466
 1979SOL    MW4 7940   1.169   1.318   3.513
 1980SOL     OW 7941   1.170   1.555   3.404
 1980SOL    HW2 7942   1.249   1.607   3.421
 1980SOL    HW3 7943   1.144   1.579   3.315
 1980SOL    MW4 7944   1.177   1.565   3.394
 1981SOL     OW 7945   0.947   1.691   3.521
 1981SOL    HW2 7946   0.951   1.766   3.462
 1981SOL    HW3 7947   1.024   1.639   3.500
 1981SOL    MW4 7948   0.958   1.694   3.511
 1982SOL     OW 7949   0.905   1.909   3.351
 1982SOL    HW2 7950   0.979   1.949   3.396
 1982SOL    HW3 7951   0.830   1.929   3.407
 1982SOL    MW4 7952   0.905   1.917   3.364
 1983SOL     OW 7953   1.130   2.038   3.470
 1983SOL    HW2 7954   1.216   2.000   3.453
 1983SOL    HW3 7955   1.130   2.122   3.424
 1983SOL    MW4 7956   1.141   2.044   3.462
 1984SOL     OW 7957   1.145   2.315   3.404
 1984SOL    HW2 7958   1.207   2.382   3.432
 1984SOL    HW3 7959   1.145   2.319   3.309
 1984SOL    MW4 7960   1.153   2.324   3.396
 1985SOL     OW 7961   0.892   2.396   3.494
 1985SOL    HW2 7962   0.890   2.409   3.589
 1985SOL    HW3 7963   0.970   2.342   3.480
 1985SOL    MW4 7964   0.902   2.391   3.505
 1986SOL     OW 7965   0.874   2.675   3.409
 1986SOL    HW2 7966   0.945   2.728   3.445
 1986SOL    HW3 7967   0.900   2.585   3.426
 1986SOL    MW4 7968   0.887   2.670   3.416
 1987SOL     OW 7969   1.104   2.814   3.488
 1987SOL    HW2 7970   1.125   2.831   3.580
 1987SOL    HW3 7971   1.185   2.782   3.450
 1987SOL    MW4 7972   1.117   2.812   3.495
 1988SOL     OW 7973   1.108   3.097   3.402
 1988SOL    HW2 7974   1.088   3.004   3.418
 1988SOL    HW3 7975   1.138   3.100   3.311
 1988SOL    MW4 7976   1.109   3.085   3.392
 1989SOL     OW 7977   0.910   3.262   3.518
 1989SOL    HW2 7978   0.983   3.211   3.484
 1989SOL    HW3 7979   0.833   3.226   3.474
 1989SOL    MW4 7980   0.909   3.251   3.507
 1990SOL     OW 7981   0.895   3.490   3.368
 1990SOL    HW2 7982   0.912   3.401   3.399
 1990SOL    HW3 7983   0.888   3.481   3.273
 1990SOL    MW4 7984   0.896   3.477   3.359
 1991SOL     OW 7985   1.126   3.611   3.466
 1991SOL    HW2 7986   1.124   3.601   3.561
 1991SOL    HW3 7987   1.044   3.572   3.435
 1991SOL    MW4 7988   1.115   3.605   3.474
 1992SOL     OW 7989   1.122   3.871   3.430
 1992SOL    HW2 7990   1.202   3.922   3.441
 1992SOL    HW3 7991   1.148   3.781   3.451
 1992SOL    MW4 7992   1.136   3.866   3.434
 1993SOL     OW 7993   0.874   3.984   3.513
 1993SOL    HW2 7994   0.949   3.954   3.461
 1993SOL    HW3 7995   0.798   3.940   3.475
 1993SOL    MW4 7996   0.874   3.974   3.501
 1994SOL     OW 7997   0.890   4.258   3.429
 1994SOL    HW2 7998   0.920   4.169   3.445
 1994SOL    HW3 7999   0.913   4.276   3.338
 1994SOL    MW4 8000   0.897   4.249   3.419
 1995SOL     OW 8001   1.109   4.419   3.536
 1995SOL    HW2 8002   1.033   4.363   3.523
 1995SOL    HW3 8003   1.089   4.497   3.484
 1995SOL    MW4 8004   1.096   4.422   3.527
 1996SOL     OW 8005   1.598   4.636   3.416
 1996SOL    HW2 8006   1.587   4.551   3.458
 1996SOL    HW3 8007   1.516   4.682   3.435
 1996SOL    MW4 8008   1.586   4.631   3.424
 1997SOL     OW 8009   1.345   0.099   3.468
 1997SOL    HW2 8010   1.350   0.109   3.563
 1997SOL    HW3 8011   1.359   0.187   3.434
 1997SOL    MW4 8012   1.348   0.112   3.476
 1998SOL     OW 8013   1.357   0.374   3.386
 1998SOL    HW2 8014   1.424   0.415   3.442
 1998SOL    HW3 8015   1.275   0.409   3.420
 1998SOL    MW4 8016   1.355   0.384   3.398
 1999SOL     OW 8017   1.563   0.489   3.514
 1999SOL    HW2 8018   1.573   0.508   3.608
 1999SOL    HW3 8019   1.649   0.457   3.487
 1999SOL    MW4 8020   1.576   0.488   3.523
 2000SOL     OW 8021   1.579   0.734   3.388
 2000SOL    HW2 8022   1.506   0.785   3.424
 2000SOL    HW3 8023   1.571   0.648   3.428
 2000SOL    MW4 8024   1.568   0.730   3.398
 2001SOL     OW 8025   1.367   0.862   3.491
 2001SOL    HW2 8026   1.377   0.870   3.586
 2001SOL    HW3 8027   1.371   0.952   3.459
 2001SOL    MW4 8028   1.369   0.875   3.499
 2002SOL     OW 8029   1.365   1.121   3.402
 2002SOL    HW2 8030   1.440   1.171   3.436
 2002SOL    HW3 8031   1.289   1.164   3.440
 2002SOL    MW4 8032   1.365   1.134   3.411
 2003SOL     OW 8033   1.587   1.272   3.493
 2003SOL    HW2 8034   1.588   1.263   3.588
 2003SOL    HW3 8035   1.667   1.227   3.464
 2003SOL    MW4 8036   1.598   1.265   3.502
 2004SOL     OW 8037   1.618   1.529   3.385
 2004SOL    HW2 8038   1.597   1.437   3.402
 2004SOL    HW3 8039   1.600   1.541   3.292
 2004SOL    MW4 8040   1.613   1.518   3.375
 2005SOL     OW 8041   1.406   1.690   3.449
 2005SOL    HW2 8042   1.396   1.681   3.544
 2005SOL    HW3 8043   1.477   1.630   3.426
 2005SOL    MW4 8044   1.414   1.681   3.458
 2006SOL     OW 8045   1.363   1.939   3.365
 2006SOL    HW2 8046   1.441   1.987   3.395
 2006SOL    HW3 8047   1.381   1.848   3.389
 2006SOL    MW4 8048   1.376   1.933   3.372
 2007SOL     OW 8049   1.586   2.092   3.469
 2007SOL    HW2 8050   1.662   2.057   3.422
 2007SOL    HW3 8051   1.572   2.178   3.431
 2007SOL    MW4 8052   1.594   2.098   3.457
 2008SOL     OW 8053   1.585   2.348   3.360
 2008SOL    HW2 8054   1.513   2.389   3.409
 2008SOL    HW3 8055   1.565   2.366   3.269
 2008SOL    MW4 8056   1.573   2.356   3.355
 2009SOL     OW 8057   1.375   2.482   3.491
 2009SOL    HW2 8058   1.369   2.473   3.586
 2009SOL    HW3 8059   1.387   2.576   3.476
 2009SOL    MW4 8060   1.376   2.493   3.502
 2010SOL     OW 8061   1.338   2.748   3.376
 2010SOL    HW2 8062   1.424   2.781   3.400
 2010SOL    HW3 8063   1.339   2.742   3.281
 2010SOL    MW4 8064   1.349   2.752   3.367
 2011SOL     OW 8065   1.589   2.819   3.473
 2011SOL    HW2 8066   1.654   2.760   3.437
 2011SOL    HW3 8067   1.614   2.906   3.441
 2011SOL    MW4 8068   1.601   2.823   3.464
 2012SOL     OW 8069   1.622   3.082   3.379
 2012SOL    HW2 8070   1.678   3.158   3.393
 2012SOL    HW3 8071   1.533   3.114   3.394
 2012SOL    MW4 8072   1.617   3.096   3.383
 2013SOL     OW 8073   1.361   3.201   3.483
 2013SOL    HW2 8074   1.362   3.205   3.579
 2013SOL    HW3 8075   1.276   3.163   3.462
 2013SOL    MW4 8076   1.350   3.197   3.493
 2014SOL     OW 8077   1.380   3.464   3.382
 2014SOL    HW2 8078   1.381   3.373   3.410
 2014SOL    HW3 8079   1.293   3.496   3.407
 2014SOL    MW4 8080   1.368   3.456   3.389
 2015SOL     OW 8081   1.576   3.627   3.488
 2015SOL    HW2 8082   1.573   3.615   3.583
 2015SOL    HW3 8083   1.507   3.570   3.455
 2015SOL    MW4 8084   1.566   3.618   3.496
 2016SOL     OW 8085   1.551   3.912   3.445
 2016SOL    HW2 8086   1.560   3.818   3.465
 2016SOL    HW3 8087   1.561   3.918   3.350
 2016SOL    MW4 8088   1.553   3.900   3.435
 2017SOL     OW 8089   1.329   4.058   3.506
 2017SOL    HW2 8090   1.326   4.141   3.459
 2017SOL    HW3 8091   1.405   4.013   3.469
 2017SOL    MW4 8092   1.338   4.063   3.495
 2018SOL     OW 8093   1.330   4.298   3.375
 2018SOL    HW2 8094   1.245   4.331   3.404
 2018SOL    HW3 8095   1.328   4.308   3.280
 2018SOL    MW4 8096   1.319   4.304   3.366
 2019SOL     OW 8097   1.558   4.385   3.526
 2019SOL    HW2 8098   1.632   4.331   3.498
 2019SOL    HW3 8099   1.482   4.346   3.484
 2019SOL    MW4 8100   1.558   4.373   3.517
 2020SOL     OW 8101   1.997   0.014   3.404
 2020SOL    HW2 8102   2.068   0.074   3.428
 2020SOL    HW3 8103   1.919   0.054   3.443
 2020SOL    MW4 8104   1.996   0.027   3.413
 2021SOL     OW 8105   1.787   0.135   3.522
 2021SOL    HW2 8106   1.791   0.119   3.617
 2021SOL    HW3 8107   1.726   0.069   3.489
 2021SOL    MW4 8108   1.780   0.124   3.531
 2022SOL     OW 8109   1.815   0.394   3.439
 2022SOL    HW2 8110   1.801   0.305   3.472
 2022SOL    HW3 8111   1.822   0.385   3.345
 2022SOL    MW4 8112   1.814   0.381   3.431
 2023SOL     OW 8113   2.011   0.573   3.522
 2023SOL    HW2 8114   2.004   0.646   3.460
 2023SOL    HW3 8115   1.937   0.517   3.500
 2023SOL    MW4 8116   2.000   0.576   3.511
 2024SOL     OW 8117   2.022   0.812   3.357
 2024SOL    HW2 8118   2.107   0.849   3.382
 2024SOL    HW3 8119   2.026   0.809   3.261
 2024SOL    MW4 8120   2.034   0.817   3.347
 2025SOL     OW 8121   1.782   0.891   3.498
 2025SOL    HW2 8122   1.865   0.860   3.462
 2025SOL    HW3 8123   1.716   0.838   3.455
 2025SOL    MW4 8124   1.784   0.880   3.488
 2026SOL     OW 8125   1.809   1.159   3.389
 2026SOL    HW2 8126   1.894   1.198   3.409
 2026SOL    HW3 8127   1.804   1.081   3.444
 2026SOL    MW4 8128   1.819   1.154   3.399
 2027SOL     OW 8129   2.065   1.254   3.485
 2027SOL    HW2 8130   2.068   1.253   3.580
 2027SOL    HW3 8131   2.062   1.347   3.461
 2027SOL    MW4 8132   2.065   1.266   3.494
 2028SOL     OW 8133   2.050   1.507   3.367
 2028SOL    HW2 8134   2.127   1.556   3.396
 2028SOL    HW3 8135   1.975   1.556   3.401
 2028SOL    MW4 8136   2.050   1.520   3.375
 2029SOL     OW 8137   1.841   1.666   3.462
 2029SOL    HW2 8138   1.823   1.746   3.413
 2029SOL    HW3 8139   1.764   1.611   3.448
 2029SOL    MW4 8140   1.828   1.669   3.454
 2030SOL     OW 8141   1.815   1.945   3.372
 2030SOL    HW2 8142   1.885   1.970   3.432
 2030SOL    HW3 8143   1.852   1.957   3.285
 2030SOL    MW4 8144   1.829   1.950   3.369
 2031SOL     OW 8145   2.035   2.083   3.478
 2031SOL    HW2 8146   2.121   2.056   3.445
 2031SOL    HW3 8147   2.028   2.176   3.453
 2031SOL    MW4 8148   2.046   2.092   3.470
 2032SOL     OW 8149   2.036   2.363   3.381
 2032SOL    HW2 8150   2.108   2.415   3.417
 2032SOL    HW3 8151   2.048   2.369   3.286
 2032SOL    MW4 8152   2.047   2.371   3.373
 2033SOL     OW 8153   1.812   2.467   3.493
 2033SOL    HW2 8154   1.898   2.447   3.457
 2033SOL    HW3 8155   1.754   2.401   3.456
 2033SOL    MW4 8156   1.816   2.456   3.483
 2034SOL     OW 8157   1.808   2.710   3.352
 2034SOL    HW2 8158   1.889   2.760   3.363
 2034SOL    HW3 8159   1.829   2.623   3.385
 2034SOL    MW4 8160   1.822   2.705   3.358
 2035SOL     OW 8161   2.022   2.852   3.433
 2035SOL    HW2 8162   2.028   2.843   3.528
 2035SOL    HW3 8163   2.002   2.944   3.418
 2035SOL    MW4 8164   2.021   2.863   3.443
 2036SOL     OW 8165   1.995   3.120   3.385
 2036SOL    HW2 8166   2.077   3.158   3.417
 2036SOL    HW3 8167   1.930   3.189   3.399
 2036SOL    MW4 8168   1.997   3.134   3.391
 2037SOL     OW 8169   1.789   3.295   3.460
 2037SOL    HW2 8170   1.757   3.304   3.550
 2037SOL    HW3 8171   1.793   3.385   3.427
 2037SOL    MW4 8172   1.785   3.308   3.468
 2038SOL     OW 8173   1.812   3.555   3.356
 2038SOL    HW2 8174   1.727   3.577   3.396
 2038SOL    HW3 8175   1.792   3.547   3.262
 2038SOL    MW4 8176   1.798   3.557   3.349
 2039SOL     OW 8177   2.020   3.647   3.506
 2039SOL    HW2 8178   2.093   3.611   3.456
 2039SOL    HW3 8179   1.942   3.611   3.464
 2039SOL    MW4 8180   2.020   3.638   3.494
 2040SOL     OW 8181   2.051   3.908   3.399
 2040SOL    HW2 8182   1.979   3.959   3.435
 2040SOL    HW3 8183   2.045   3.823   3.443
 2040SOL    MW4 8184   2.041   3.903   3.409
 2041SOL     OW 8185   1.803   4.006   3.500
 2041SOL    HW2 8186   1.808   3.993   3.595
 2041SOL    HW3 8187   1.724   3.959   3.474
 2041SOL    MW4 8188   1.793   3.998   3.509
 2042SOL     OW 8189   1.808   4.306   3.407
 2042SOL    HW2 8190   1.807   4.212   3.423
 2042SOL    HW3 8191   1.780   4.316   3.316
 2042SOL    MW4 8192   1.804   4.295   3.398
 2043SOL     OW 8193   2.003   4.449   3.535
 2043SOL    HW2 8194   1.929   4.402   3.498
 2043SOL    HW3 8195   1.999   4.536   3.495
 2043SOL    MW4 8196   1.993   4.455   3.525
 2044SOL     OW 8197   2.417   0.007   3.426
 2044SOL    HW2 8198   2.417  -0.071   3.481
 2044SOL    HW3 8199   2.429  -0.025   3.337
 2044SOL    MW4 8200   2.419  -0.007   3.421
 2045SOL     OW 8201   2.199   0.175   3.502
 2045SOL    HW2 8202   2.200   0.254   3.447
 2045SOL    HW3 8203   2.276   0.125   3.474
 2045SOL    MW4 8204   2.209   0.179   3.491
 2046SOL     OW 8205   2.167   0.414   3.352
 2046SOL    HW2 8206   2.257   0.426   3.384
 2046SOL    HW3 8207   2.114   0.468   3.410
 2046SOL    MW4 8208   2.172   0.422   3.364
 2047SOL     OW 8209   2.414   0.474   3.466
 2047SOL    HW2 8210   2.491   0.439   3.421
 2047SOL    HW3 8211   2.411   0.566   3.440
 2047SOL    MW4 8212   2.424   0.482   3.457
 2048SOL     OW 8213   2.457   0.737   3.393
 2048SOL    HW2 8214   2.534   0.788   3.422
 2048SOL    HW3 8215   2.466   0.733   3.298
 2048SOL    MW4 8216   2.469   0.743   3.384
 2049SOL     OW 8217   2.245   0.904   3.483
 2049SOL    HW2 8218   2.271   0.991   3.454
 2049SOL    HW3 8219   2.317   0.847   3.456
 2049SOL    MW4 8220   2.258   0.908   3.476
 2050SOL     OW 8221   2.293   1.151   3.370
 2050SOL    HW2 8222   2.357   1.205   3.416
 2050SOL    HW3 8223   2.208   1.187   3.397
 2050SOL    MW4 8224   2.290   1.163   3.380
 2051SOL     OW 8225   2.526   1.278   3.451
 2051SOL    HW2 8226   2.529   1.268   3.546
 2051SOL    HW3 8227   2.599   1.226   3.418
 2051SOL    MW4 8228   2.536   1.270   3.459
 2052SOL     OW 8229   2.518   1.547   3.372
 2052SOL    HW2 8230   2.535   1.455   3.391
 2052SOL    HW3 8231   2.513   1.551   3.276
 2052SOL    MW4 8232   2.520   1.536   3.361
 2053SOL     OW 8233   2.273   1.659   3.453
 2053SOL    HW2 8234   2.272   1.660   3.549
 2053SOL    HW3 8235   2.356   1.617   3.430
 2053SOL    MW4 8236   2.284   1.654   3.463
 2054SOL     OW 8237   2.270   1.949   3.388
 2054SOL    HW2 8238   2.258   1.861   3.422
 2054SOL    HW3 8239   2.239   1.944   3.297
 2054SOL    MW4 8240   2.264   1.937   3.380
 2055SOL     OW 8241   2.488   2.062   3.504
 2055SOL    HW2 8242   2.478   2.058   3.599
 2055SOL    HW3 8243   2.418   2.007   3.470
 2055SOL    MW4 8244   2.478   2.054   3.512
 2056SOL     OW 8245   2.475   2.320   3.381
 2056SOL    HW2 8246   2.558   2.353   3.417
 2056SOL    HW3 8247   2.473   2.228   3.405
 2056SOL    MW4 8248   2.486   2.312   3.389
 2057SOL     OW 8249   2.253   2.486   3.481
 2057SOL    HW2 8250   2.260   2.575   3.447
 2057SOL    HW3 8251   2.330   2.441   3.445
 2057SOL    MW4 8252   2.264   2.492   3.471
 2058SOL     OW 8253   2.266   2.729   3.374
 2058SOL    HW2 8254   2.186   2.778   3.393
 2058SOL    HW3 8255   2.260   2.709   3.280
 2058SOL    MW4 8256   2.254   2.733   3.364
 2059SOL     OW 8257   2.474   2.835   3.522
 2059SOL    HW2 8258   2.486   2.927   3.498
 2059SOL    HW3 8259   2.407   2.803   3.462
 2059SOL    MW4 8260   2.467   2.843   3.511
 2060SOL     OW 8261   2.457   3.080   3.394
 2060SOL    HW2 8262   2.520   3.133   3.442
 2060SOL    HW3 8263   2.480   3.092   3.302
 2060SOL    MW4 8264   2.468   3.089   3.388
 2061SOL     OW 8265   2.213   3.251   3.492
 2061SOL    HW2 8266   2.219   3.241   3.587
 2061SOL    HW3 8267   2.284   3.197   3.458
 2061SOL    MW4 8268   2.223   3.243   3.500
 2062SOL     OW 8269   2.247   3.523   3.390
 2062SOL    HW2 8270   2.246   3.437   3.433
 2062SOL    HW3 8271   2.234   3.503   3.297
 2062SOL    MW4 8272   2.245   3.509   3.383
 2063SOL     OW 8273   2.479   3.635   3.480
 2063SOL    HW2 8274   2.489   3.718   3.433
 2063SOL    HW3 8275   2.400   3.596   3.442
 2063SOL    MW4 8276   2.470   3.641   3.469
 2064SOL     OW 8277   2.496   3.895   3.385
 2064SOL    HW2 8278   2.567   3.948   3.421
 2064SOL    HW3 8279   2.418   3.925   3.430
 2064SOL    MW4 8280   2.495   3.906   3.396
 2065SOL     OW 8281   2.273   4.021   3.509
 2065SOL    HW2 8282   2.271   4.111   3.475
 2065SOL    HW3 8283   2.204   3.976   3.460
 2065SOL    MW4 8284   2.263   4.027   3.498
 2066SOL     OW 8285   2.205   4.304   3.427
 2066SOL    HW2 8286   2.129   4.350   3.463
 2066SOL    HW3 8287   2.186   4.294   3.334
 2066SOL    MW4 8288   2.193   4.309   3.420
 2067SOL     OW 8289   2.470   4.408   3.528
 2067SOL    HW2 8290   2.476   4.410   3.623
 2067SOL    HW3 8291   2.378   4.386   3.511
 2067SOL    MW4 8292   2.458   4.405   3.538
 2068SOL     OW 8293   2.865   4.661   3.386
 2068SOL    HW2 8294   2.788   4.711   3.412
 2068SOL    HW3 8295   2.872   4.676   3.292
 2068SOL    MW4 8296   2.856   4.670   3.377
 2069SOL     OW 8297   2.658   0.121   3.507
 2069SOL    HW2 8298   2.664   0.205   3.463
 2069SOL    HW3 8299   2.570   0.088   3.486
 2069SOL    MW4 8300   2.647   0.127   3.498
 2070SOL     OW 8301   2.661   0.354   3.386
 2070SOL    HW2 8302   2.735   0.396   3.429
 2070SOL    HW3 8303   2.674   0.371   3.293
 2070SOL    MW4 8304   2.672   0.361   3.379
 2071SOL     OW 8305   2.909   0.521   3.465
 2071SOL    HW2 8306   2.928   0.537   3.557
 2071SOL    HW3 8307   2.910   0.608   3.424
 2071SOL    MW4 8308   2.911   0.535   3.472
 2072SOL     OW 8309   2.905   0.777   3.332
 2072SOL    HW2 8310   2.985   0.808   3.375
 2072SOL    HW3 8311   2.836   0.795   3.395
 2072SOL    MW4 8312   2.907   0.784   3.346
 2073SOL     OW 8313   2.702   0.889   3.489
 2073SOL    HW2 8314   2.714   0.916   3.580
 2073SOL    HW3 8315   2.721   0.968   3.438
 2073SOL    MW4 8316   2.706   0.903   3.494
 2074SOL     OW 8317   2.739   1.126   3.352
 2074SOL    HW2 8318   2.779   1.209   3.379
 2074SOL    HW3 8319   2.770   1.113   3.263
 2074SOL    MW4 8320   2.749   1.135   3.344
 2075SOL     OW 8321   2.897   1.329   3.431
 2075SOL    HW2 8322   2.897   1.328   3.526
 2075SOL    HW3 8323   2.969   1.272   3.405
 2075SOL    MW4 8324   2.906   1.321   3.440
 2076SOL     OW 8325   2.923   1.595   3.379
 2076SOL    HW2 8326   2.845   1.637   3.416
 2076SOL    HW3 8327   2.912   1.502   3.399
 2076SOL    MW4 8328   2.912   1.588   3.387
 2077SOL     OW 8329   2.714   1.725   3.493
 2077SOL    HW2 8330   2.727   1.805   3.443
 2077SOL    HW3 8331   2.647   1.677   3.444
 2077SOL    MW4 8332   2.707   1.729   3.480
 2078SOL     OW 8333   2.731   1.966   3.377
 2078SOL    HW2 8334   2.655   2.000   3.423
 2078SOL    HW3 8335   2.712   1.982   3.284
 2078SOL    MW4 8336   2.718   1.972   3.371
 2079SOL     OW 8337   2.955   2.089   3.470
 2079SOL    HW2 8338   2.949   2.108   3.564
 2079SOL    HW3 8339   2.877   2.038   3.450
 2079SOL    MW4 8340   2.944   2.085   3.480
 2080SOL     OW 8341   2.891   2.343   3.344
 2080SOL    HW2 8342   2.891   2.251   3.371
 2080SOL    HW3 8343   2.875   2.340   3.250
 2080SOL    MW4 8344   2.889   2.330   3.335
 2081SOL     OW 8345   2.702   2.453   3.483
 2081SOL    HW2 8346   2.706   2.422   3.573
 2081SOL    HW3 8347   2.779   2.415   3.441
 2081SOL    MW4 8348   2.713   2.444   3.490
 2082SOL     OW 8349   2.723   2.708   3.425
 2082SOL    HW2 8350   2.702   2.616   3.444
 2082SOL    HW3 8351   2.641   2.755   3.441
 2082SOL    MW4 8352   2.709   2.702   3.429
 2083SOL     OW 8353   2.963   2.835   3.485
 2083SOL    HW2 8354   2.976   2.856   3.578
 2083SOL    HW3 8355   2.879   2.789   3.483
 2083SOL    MW4 8356   2.953   2.832   3.497
 2084SOL     OW 8357   2.936   3.114   3.410
 2084SOL    HW2 8358   2.955   3.023   3.433
 2084SOL    HW3 8359   2.924   3.113   3.316
 2084SOL    MW4 8360   2.937   3.102   3.401
 2085SOL     OW 8361   2.681   3.237   3.476
 2085SOL    HW2 8362   2.677   3.221   3.571
 2085SOL    HW3 8363   2.767   3.204   3.450
 2085SOL    MW4 8364   2.692   3.230   3.485
 2086SOL     OW 8365   2.685   3.485   3.372
 2086SOL    HW2 8366   2.680   3.397   3.410
 2086SOL    HW3 8367   2.615   3.533   3.414
 2086SOL    MW4 8368   2.675   3.480   3.382
 2087SOL     OW 8369   2.906   3.608   3.501
 2087SOL    HW2 8370   2.906   3.693   3.457
 2087SOL    HW3 8371   2.834   3.560   3.460
 2087SOL    MW4 8372   2.896   3.613   3.490
 2088SOL     OW 8373   2.912   3.879   3.349
 2088SOL    HW2 8374   2.990   3.917   3.390
 2088SOL    HW3 8375   2.839   3.925   3.390
 2088SOL    MW4 8376   2.913   3.890   3.359
 2089SOL     OW 8377   2.709   4.019   3.486
 2089SOL    HW2 8378   2.681   4.015   3.577
 2089SOL    HW3 8379   2.703   4.112   3.463
 2089SOL    MW4 8380   2.705   4.031   3.495
 2090SOL     OW 8381   2.674   4.279   3.423
 2090SOL    HW2 8382   2.754   4.319   3.455
 2090SOL    HW3 8383   2.604   4.330   3.463
 2090SOL    MW4 8384   2.675   4.291   3.432
 2091SOL     OW 8385   2.933   4.390   3.486
 2091SOL    HW2 8386   2.939   4.402   3.581
 2091SOL    HW3 8387   2.908   4.476   3.453
 2091SOL    MW4 8388   2.931   4.403   3.494
 2092SOL     OW 8389   3.347   0.014   3.411
 2092SOL    HW2 8390   3.264   0.045   3.447
 2092SOL    HW3 8391   3.336   0.018   3.316
 2092SOL    MW4 8392   3.335   0.019   3.403
 2093SOL     OW 8393   3.095   0.095   3.527
 2093SOL    HW2 8394   3.105   0.187   3.503
 2093SOL    HW3 8395   3.020   0.065   3.475
 2093SOL    MW4 8396   3.087   0.103   3.517
 2094SOL     OW 8397   3.110   0.337   3.394
 2094SOL    HW2 8398   3.035   0.393   3.415
 2094SOL    HW3 8399   3.109   0.332   3.298
 2094SOL    MW4 8400   3.100   0.344   3.384
 2095SOL     OW 8401   3.350   0.493   3.461
 2095SOL    HW2 8402   3.355   0.522   3.552
 2095SOL    HW3 8403   3.264   0.452   3.453
 2095SOL    MW4 8404   3.339   0.492   3.472
 2096SOL     OW 8405   3.369   0.762   3.368
 2096SOL    HW2 8406   3.446   0.810   3.400
 2096SOL    HW3 8407   3.371   0.679   3.415
 2096SOL    MW4 8408   3.380   0.757   3.378
 2097SOL     OW 8409   3.141   0.911   3.443
 2097SOL    HW2 8410   3.133   0.998   3.405
 2097SOL    HW3 8411   3.223   0.876   3.406
 2097SOL    MW4 8412   3.151   0.918   3.433
 2098SOL     OW 8413   3.122   1.162   3.338
 2098SOL    HW2 8414   3.202   1.211   3.357
 2098SOL    HW3 8415   3.126   1.146   3.243
 2098SOL    MW4 8416   3.133   1.167   3.328
 2099SOL     OW 8417   3.339   1.295   3.458
 2099SOL    HW2 8418   3.413   1.239   3.436
 2099SOL    HW3 8419   3.363   1.381   3.422
 2099SOL    MW4 8420   3.352   1.299   3.450
 2100SOL     OW 8421   3.379   1.535   3.341
 2100SOL    HW2 8422   3.450   1.575   3.391
 2100SOL    HW3 8423   3.299   1.570   3.380
 2100SOL    MW4 8424   3.377   1.545   3.353
 2101SOL     OW 8425   3.162   1.645   3.476
 2101SOL    HW2 8426   3.167   1.736   3.446
 2101SOL    HW3 8427   3.074   1.617   3.453
 2101SOL    MW4 8428   3.151   1.653   3.469
 2102SOL     OW 8429   3.167   1.915   3.384
 2102SOL    HW2 8430   3.091   1.964   3.417
 2102SOL    HW3 8431   3.163   1.924   3.289
 2102SOL    MW4 8432   3.157   1.923   3.376
 2103SOL     OW 8433   3.398   2.085   3.503
 2103SOL    HW2 8434   3.405   2.162   3.447
 2103SOL    HW3 8435   3.312   2.048   3.482
 2103SOL    MW4 8436   3.387   2.090   3.493
 2104SOL     OW 8437   3.384   2.332   3.358
 2104SOL    HW2 8438   3.455   2.371   3.409
 2104SOL    HW3 8439   3.307   2.385   3.381
 2104SOL    MW4 8440   3.383   2.344   3.368
 2105SOL     OW 8441   3.139   2.456   3.478
 2105SOL    HW2 8442   3.141   2.540   3.433
 2105SOL    HW3 8443   3.072   2.406   3.433
 2105SOL    MW4 8444   3.131   2.461   3.466
 2106SOL     OW 8445   3.179   2.716   3.360
 2106SOL    HW2 8446   3.247   2.753   3.418
 2106SOL    HW3 8447   3.097   2.743   3.400
 2106SOL    MW4 8448   3.177   2.724   3.373
 2107SOL     OW 8449   3.363   2.824   3.526
 2107SOL    HW2 8450   3.429   2.769   3.484
 2107SOL    HW3 8451   3.365   2.906   3.477
 2107SOL    MW4 8452   3.372   2.828   3.514
 2108SOL     OW 8453   3.383   3.084   3.398
 2108SOL    HW2 8454   3.457   3.132   3.436
 2108SOL    HW3 8455   3.306   3.124   3.438
 2108SOL    MW4 8456   3.383   3.095   3.409
 2109SOL     OW 8457   3.162   3.261   3.510
 2109SOL    HW2 8458   3.174   3.342   3.460
 2109SOL    HW3 8459   3.088   3.218   3.467
 2109SOL    MW4 8460   3.154   3.266   3.498
 2110SOL     OW 8461   3.149   3.507   3.395
 2110SOL    HW2 8462   3.071   3.552   3.428
 2110SOL    HW3 8463   3.140   3.509   3.300
 2110SOL    MW4 8464   3.138   3.513   3.387
 2111SOL     OW 8465   3.375   3.629   3.503
 2111SOL    HW2 8466   3.367   3.705   3.447
 2111SOL    HW3 8467   3.304   3.571   3.475
 2111SOL    MW4 8468   3.365   3.631   3.492
 2112SOL     OW 8469   3.351   3.854   3.331
 2112SOL    HW2 8470   3.419   3.905   3.375
 2112SOL    HW3 8471   3.269   3.894   3.360
 2112SOL    MW4 8472   3.349   3.866   3.340
 2113SOL     OW 8473   3.142   3.995   3.470
 2113SOL    HW2 8474   3.136   4.014   3.564
 2113SOL    HW3 8475   3.137   4.081   3.428
 2113SOL    MW4 8476   3.140   4.009   3.477
 2114SOL     OW 8477   3.147   4.253   3.370
 2114SOL    HW2 8478   3.220   4.300   3.409
 2114SOL    HW3 8479   3.069   4.292   3.410
 2114SOL    MW4 8480   3.146   4.265   3.380
 2115SOL     OW 8481   3.364   4.408   3.483
 2115SOL    HW2 8482   3.351   4.393   3.576
 2115SOL    HW3 8483   3.358   4.503   3.473
 2115SOL    MW4 8484   3.362   4.419   3.494
 2116SOL     OW 8485   3.837   4.636   3.402
 2116SOL    HW2 8486   3.760   4.680   3.438
 2116SOL    HW3 8487   3.828   4.644   3.308
 2116SOL    MW4 8488   3.826   4.643   3.395
 2117SOL     OW 8489   3.612   0.119   3.511
 2117SOL    HW2 8490   3.597   0.195   3.455
 2117SOL    HW3 8491   3.530   0.071   3.509
 2117SOL    MW4 8492   3.599   0.123   3.503
 2118SOL     OW 8493   3.590   0.371   3.401
 2118SOL    HW2 8494   3.661   0.424   3.438
 2118SOL    HW3 8495   3.510   0.411   3.436
 2118SOL    MW4 8496   3.589   0.383   3.411
 2119SOL     OW 8497   3.798   0.486   3.550
 2119SOL    HW2 8498   3.821   0.484   3.643
 2119SOL    HW3 8499   3.879   0.462   3.505
 2119SOL    MW4 8500   3.812   0.483   3.556
 2120SOL     OW 8501   3.807   0.740   3.433
 2120SOL    HW2 8502   3.890   0.778   3.463
 2120SOL    HW3 8503   3.803   0.656   3.477
 2120SOL    MW4 8504   3.818   0.734   3.443
 2121SOL     OW 8505   3.589   0.892   3.501
 2121SOL    HW2 8506   3.583   0.905   3.595
 2121SOL    HW3 8507   3.661   0.831   3.489
 2121SOL    MW4 8508   3.598   0.886   3.511
 2122SOL     OW 8509   3.564   1.147   3.401
 2122SOL    HW2 8510   3.578   1.056   3.428
 2122SOL    HW3 8511   3.569   1.145   3.305
 2122SOL    MW4 8512   3.566   1.135   3.392
 2123SOL     OW 8513   3.797   1.282   3.449
 2123SOL    HW2 8514   3.809   1.283   3.544
 2123SOL    HW3 8515   3.719   1.228   3.435
 2123SOL    MW4 8516   3.788   1.275   3.460
 2124SOL     OW 8517   3.803   1.560   3.371
 2124SOL    HW2 8518   3.886   1.593   3.405
 2124SOL    HW3 8519   3.794   1.473   3.407
 2124SOL    MW4 8520   3.813   1.553   3.380
 2125SOL     OW 8521   3.584   1.685   3.468
 2125SOL    HW2 8522   3.586   1.777   3.442
 2125SOL    HW3 8523   3.657   1.645   3.420
 2125SOL    MW4 8524   3.594   1.692   3.458
 2126SOL     OW 8525   3.597   1.928   3.364
 2126SOL    HW2 8526   3.681   1.969   3.382
 2126SOL    HW3 8527   3.533   1.984   3.407
 2126SOL    MW4 8528   3.600   1.941   3.372
 2127SOL     OW 8529   3.811   2.060   3.460
 2127SOL    HW2 8530   3.809   2.051   3.555
 2127SOL    HW3 8531   3.884   2.005   3.432
 2127SOL    MW4 8532   3.820   2.052   3.468
 2128SOL     OW 8533   3.789   2.322   3.405
 2128SOL    HW2 8534   3.876   2.357   3.420
 2128SOL    HW3 8535   3.802   2.227   3.401
 2128SOL    MW4 8536   3.802   2.314   3.406
 2129SOL     OW 8537   3.573   2.427   3.532
 2129SOL    HW2 8538   3.588   2.518   3.507
 2129SOL    HW3 8539   3.650   2.380   3.499
 2129SOL    MW4 8540   3.586   2.433   3.524
 2130SOL     OW 8541   3.580   2.685   3.415
 2130SOL    HW2 8542   3.666   2.716   3.445
 2130SOL    HW3 8543   3.582   2.697   3.320
 2130SOL    MW4 8544   3.591   2.691   3.406
 2131SOL     OW 8545   3.818   2.822   3.504
 2131SOL    HW2 8546   3.832   2.831   3.598
 2131SOL    HW3 8547   3.800   2.911   3.473
 2131SOL    MW4 8548   3.817   2.835   3.512
 2132SOL     OW 8549   3.795   3.085   3.375
 2132SOL    HW2 8550   3.869   3.126   3.420
 2132SOL    HW3 8551   3.811   3.101   3.282
 2132SOL    MW4 8552   3.807   3.093   3.369
 2133SOL     OW 8553   3.592   3.240   3.479
 2133SOL    HW2 8554   3.613   3.329   3.449
 2133SOL    HW3 8555   3.659   3.185   3.439
 2133SOL    MW4 8556   3.603   3.245   3.470
 2134SOL     OW 8557   3.629   3.493   3.421
 2134SOL    HW2 8558   3.553   3.544   3.450
 2134SOL    HW3 8559   3.637   3.513   3.328
 2134SOL    MW4 8560   3.620   3.502   3.412
 2135SOL     OW 8561   3.834   3.656   3.494
 2135SOL    HW2 8562   3.830   3.653   3.590
 2135SOL    HW3 8563   3.756   3.607   3.466
 2135SOL    MW4 8564   3.823   3.649   3.503
 2136SOL     OW 8565   3.838   3.917   3.399
 2136SOL    HW2 8566   3.754   3.948   3.434
 2136SOL    HW3 8567   3.842   3.825   3.425
 2136SOL    MW4 8568   3.827   3.909   3.407
 2137SOL     OW 8569   3.586   3.984   3.473
 2137SOL    HW2 8570   3.594   4.006   3.566
 2137SOL    HW3 8571   3.579   4.069   3.429
 2137SOL    MW4 8572   3.586   3.998   3.480
 2138SOL     OW 8573   3.581   4.246   3.387
 2138SOL    HW2 8574   3.514   4.304   3.422
 2138SOL    HW3 8575   3.577   4.257   3.292
 2138SOL    MW4 8576   3.572   4.255   3.379
 2139SOL     OW 8577   3.807   4.360   3.505
 2139SOL    HW2 8578   3.732   4.315   3.467
 2139SOL    HW3 8579   3.806   4.447   3.465
 2139SOL    MW4 8580   3.797   4.366   3.495
 2140SOL     OW 8581   4.276   0.017   3.372
 2140SOL    HW2 8582   4.270  -0.077   3.391
 2140SOL    HW3 8583   4.361   0.043   3.409
 2140SOL    MW4 8584   4.287   0.008   3.380
 2141SOL     OW 8585   4.055   0.125   3.503
 2141SOL    HW2 8586   4.140   0.092   3.474
 2141SOL    HW3 8587   3.992   0.060   3.473
 2141SOL    MW4 8588   4.058   0.112   3.495
 2142SOL     OW 8589   4.030   0.403   3.402
 2142SOL    HW2 8590   4.039   0.309   3.418
 2142SOL    HW3 8591   4.028   0.411   3.306
 2142SOL    MW4 8592   4.031   0.392   3.391
 2143SOL     OW 8593   4.277   0.509   3.488
 2143SOL    HW2 8594   4.265   0.604   3.476
 2143SOL    HW3 8595   4.194   0.471   3.460
 2143SOL    MW4 8596   4.265   0.517   3.483
 2144SOL     OW 8597   4.245   0.771   3.424
 2144SOL    HW2 8598   4.324   0.810   3.460
 2144SOL    HW3 8599   4.260   0.766   3.330
 2144SOL    MW4 8600   4.257   0.776   3.416
 2145SOL     OW 8601   4.031   0.893   3.493
 2145SOL    HW2 8602   4.024   0.970   3.437
 2145SOL    HW3 8603   4.110   0.849   3.463
 2145SOL    MW4 8604   4.041   0.898   3.482
 2146SOL     OW 8605   4.024   1.151   3.362
 2146SOL    HW2 8606   4.106   1.178   3.404
 2146SOL    HW3 8607   3.958   1.209   3.399
 2146SOL    MW4 8608   4.026   1.162   3.372
 2147SOL     OW 8609   4.223   1.273   3.515
 2147SOL    HW2 8610   4.214   1.362   3.482
 2147SOL    HW3 8611   4.315   1.251   3.501
 2147SOL    MW4 8612   4.234   1.282   3.509
 2148SOL     OW 8613   4.264   1.538   3.411
 2148SOL    HW2 8614   4.187   1.586   3.441
 2148SOL    HW3 8615   4.255   1.534   3.316
 2148SOL    MW4 8616   4.253   1.543   3.402
 2149SOL     OW 8617   4.021   1.656   3.505
 2149SOL    HW2 8618   4.021   1.672   3.599
 2149SOL    HW3 8619   4.035   1.742   3.466
 2149SOL    MW4 8620   4.023   1.669   3.512
 2150SOL     OW 8621   4.021   1.908   3.378
 2150SOL    HW2 8622   4.095   1.959   3.412
 2150SOL    HW3 8623   4.026   1.919   3.283
 2150SOL    MW4 8624   4.032   1.916   3.370
 2151SOL     OW 8625   4.216   2.063   3.490
 2151SOL    HW2 8626   4.234   2.148   3.450
 2151SOL    HW3 8627   4.300   2.017   3.490
 2151SOL    MW4 8628   4.229   2.068   3.485
 2152SOL     OW 8629   4.269   2.319   3.388
 2152SOL    HW2 8630   4.181   2.343   3.415
 2152SOL    HW3 8631   4.265   2.317   3.292
 2152SOL    MW4 8632   4.257   2.322   3.379
 2153SOL     OW 8633   4.029   2.433   3.455
 2153SOL    HW2 8634   4.014   2.454   3.547
 2153SOL    HW3 8635   4.038   2.519   3.412
 2153SOL    MW4 8636   4.028   2.447   3.461
 2154SOL     OW 8637   4.033   2.691   3.378
 2154SOL    HW2 8638   4.105   2.732   3.426
 2154SOL    HW3 8639   3.955   2.738   3.408
 2154SOL    MW4 8640   4.032   2.703   3.388
 2155SOL     OW 8641   4.242   2.810   3.484
 2155SOL    HW2 8642   4.249   2.806   3.579
 2155SOL    HW3 8643   4.329   2.786   3.453
 2155SOL    MW4 8644   4.254   2.806   3.492
 2156SOL     OW 8645   4.251   3.074   3.407
 2156SOL    HW2 8646   4.255   2.982   3.433
 2156SOL    HW3 8647   4.258   3.073   3.312
 2156SOL    MW4 8648   4.253   3.062   3.398
 2157SOL     OW 8649   4.011   3.202   3.509
 2157SOL    HW2 8650   4.006   3.297   3.501
 2157SOL    HW3 8651   4.090   3.178   3.461
 2157SOL    MW4 8652   4.021   3.211   3.502
 2158SOL     OW 8653   4.056   3.492   3.451
 2158SOL    HW2 8654   4.133   3.519   3.500
 2158SOL    HW3 8655   3.996   3.567   3.456
 2158SOL    MW4 8656   4.058   3.506   3.458
 2159SOL     OW 8657   4.294   3.614   3.504
 2159SOL    HW2 8658   4.294   3.633   3.597
 2159SOL    HW3 8659   4.281   3.699   3.462
 2159SOL    MW4 8660   4.293   3.627   3.511
 2160SOL     OW 8661   4.285   3.870   3.407
 2160SOL    HW2 8662   4.362   3.915   3.442
 2160SOL    HW3 8663   4.276   3.904   3.318
 2160SOL    MW4 8664   4.294   3.881   3.400
 2161SOL     OW 8665   4.072   3.989   3.533
 2161SOL    HW2 8666   4.145   3.942   3.495
 2161SOL    HW3 8667   3.994   3.953   3.490
 2161SOL    MW4 8668   4.071   3.978   3.522
 2162SOL     OW 8669   4.062   4.255   3.409
 2162SOL    HW2 8670   4.053   4.168   3.447
 2162SOL    HW3 8671   3.985   4.303   3.440
 2162SOL    MW4 8672   4.051   4.250   3.418
 2163SOL     OW 8673   4.281   4.417   3.492
 2163SOL    HW2 8674   4.295   4.421   3.586
 2163SOL    HW3 8675   4.202   4.365   3.481
 2163SOL    MW4 8676   4.273   4.411   3.503
 2164SOL     OW 8677   0.270   0.010   3.883
 2164SOL    HW2 8678   0.269   0.014   3.978
 2164SOL    HW3 8679   0.199   0.068   3.856
 2164SOL    MW4 8680   0.260   0.018   3.892
 2165SOL     OW 8681   0.057   0.145   3.777
 2165SOL    HW2 8682   0.035   0.233   3.807
 2165SOL    HW3 8683   0.041   0.146   3.683
 2165SOL    MW4 8684   0.052   0.157   3.769
 2166SOL     OW 8685   0.020   0.393   3.891
 2166SOL    HW2 8686  -0.050   0.437   3.842
 2166SOL    HW3 8687   0.099   0.444   3.871
 2166SOL    MW4 8688   0.021   0.405   3.882
 2167SOL     OW 8689   0.262   0.535   3.828
 2167SOL    HW2 8690   0.241   0.627   3.848
 2167SOL    HW3 8691   0.288   0.536   3.736
 2167SOL    MW4 8692   0.263   0.548   3.818
 2168SOL     OW 8693   0.247   0.803   3.907
 2168SOL    HW2 8694   0.244   0.792   4.002
 2168SOL    HW3 8695   0.164   0.846   3.885
 2168SOL    MW4 8696   0.235   0.808   3.917
 2169SOL     OW 8697   0.034   0.906   3.787
 2169SOL    HW2 8698  -0.042   0.863   3.827
 2169SOL    HW3 8699   0.036   0.993   3.827
 2169SOL    MW4 8700   0.024   0.912   3.797
 2170SOL     OW 8701   0.032   1.162   3.909
 2170SOL    HW2 8702  -0.044   1.187   3.856
 2170SOL    HW3 8703   0.102   1.220   3.880
 2170SOL    MW4 8704   0.031   1.173   3.898
 2171SOL     OW 8705   0.253   1.275   3.784
 2171SOL    HW2 8706   0.262   1.365   3.814
 2171SOL    HW3 8707   0.251   1.282   3.688
 2171SOL    MW4 8708   0.254   1.288   3.775
 2172SOL     OW 8709   0.225   1.555   3.857
 2172SOL    HW2 8710   0.218   1.568   3.951
 2172SOL    HW3 8711   0.136   1.567   3.824
 2172SOL    MW4 8712   0.212   1.559   3.865
 2173SOL     OW 8713   4.475   1.654   3.757
 2173SOL    HW2 8714   4.468   1.742   3.794
 2173SOL    HW3 8715   4.510   1.667   3.669
 2173SOL    MW4 8716   4.479   1.667   3.750
 2174SOL     OW 8717   4.474   1.924   3.837
 2174SOL    HW2 8718   4.471   1.935   3.932
 2174SOL    HW3 8719   4.417   1.993   3.803
 2174SOL    MW4 8720   4.466   1.935   3.845
 2175SOL     OW 8721   0.245   2.013   3.733
 2175SOL    HW2 8722   0.224   2.099   3.767
 2175SOL    HW3 8723   0.170   1.958   3.757
 2175SOL    MW4 8724   0.233   2.017   3.741
 2176SOL     OW 8725   0.213   2.258   3.827
 2176SOL    HW2 8726   0.217   2.264   3.923
 2176SOL    HW3 8727   0.134   2.306   3.803
 2176SOL    MW4 8728   0.203   2.265   3.837
 2177SOL     OW 8729   4.487   2.440   3.744
 2177SOL    HW2 8730   4.401   2.421   3.781
 2177SOL    HW3 8731   4.512   2.524   3.783
 2177SOL    MW4 8732   4.479   2.449   3.754
 2178SOL     OW 8733   0.016   2.677   3.876
 2178SOL    HW2 8734   0.011   2.688   3.971
 2178SOL    HW3 8735   0.092   2.729   3.849
 2178SOL    MW4 8736   0.025   2.686   3.885
 2179SOL     OW 8737   0.231   2.831   3.802
 2179SOL    HW2 8738   0.300   2.769   3.828
 2179SOL    HW3 8739   0.239   2.836   3.707
 2179SOL    MW4 8740   0.241   2.823   3.793
 2180SOL     OW 8741   0.267   3.102   3.851
 2180SOL    HW2 8742   0.275   3.103   3.947
 2180SOL    HW3 8743   0.258   3.010   3.829
 2180SOL    MW4 8744   0.267   3.090   3.861
 2181SOL     OW 8745   0.012   3.185   3.804
 2181SOL    HW2 8746   0.104   3.158   3.811
 2181SOL    HW3 8747  -0.011   3.167   3.713
 2181SOL    MW4 8748   0.021   3.179   3.793
 2182SOL     OW 8749   4.480   3.446   3.860
 2182SOL    HW2 8750   4.553   3.493   3.819
 2182SOL    HW3 8751   4.496   3.354   3.840
 2182SOL    MW4 8752   4.492   3.440   3.852
 2183SOL     OW 8753   0.205   3.609   3.772
 2183SOL    HW2 8754   0.294   3.576   3.766
 2183SOL    HW3 8755   0.213   3.694   3.816
 2183SOL    MW4 8756   0.218   3.616   3.777
 2184SOL     OW 8757   0.231   3.849   3.899
 2184SOL    HW2 8758   0.243   3.820   3.990
 2184SOL    HW3 8759   0.304   3.908   3.882
 2184SOL    MW4 8760   0.242   3.853   3.909
 2185SOL     OW 8761   0.041   4.000   3.779
 2185SOL    HW2 8762  -0.029   3.964   3.833
 2185SOL    HW3 8763   0.120   3.955   3.808
 2185SOL    MW4 8764   0.042   3.990   3.790
 2186SOL     OW 8765   0.007   4.271   3.867
 2186SOL    HW2 8766   0.084   4.323   3.843
 2186SOL    HW3 8767   0.026   4.183   3.834
 2186SOL    MW4 8768   0.020   4.266   3.859
 2187SOL     OW 8769   0.241   4.406   3.799
 2187SOL    HW2 8770   0.310   4.356   3.842
 2187SOL    HW3 8771   0.254   4.496   3.828
 2187SOL    MW4 8772   0.252   4.411   3.808
 2188SOL     OW 8773   0.684   0.013   3.957
 2188SOL    HW2 8774   0.674  -0.071   3.913
 2188SOL    HW3 8775   0.615   0.069   3.921
 2188SOL    MW4 8776   0.674   0.010   3.947
 2189SOL     OW 8777   0.496   0.135   3.773
 2189SOL    HW2 8778   0.475   0.214   3.824
 2189SOL    HW3 8779   0.428   0.072   3.797
 2189SOL    MW4 8780   0.484   0.137   3.783
 2190SOL     OW 8781   0.478   0.372   3.909
 2190SOL    HW2 8782   0.551   0.428   3.883
 2190SOL    HW3 8783   0.399   0.421   3.886
 2190SOL    MW4 8784   0.477   0.386   3.903
 2191SOL     OW 8785   0.709   0.495   3.791
 2191SOL    HW2 8786   0.781   0.444   3.827
 2191SOL    HW3 8787   0.720   0.582   3.830
 2191SOL    MW4 8788   0.720   0.500   3.801
 2192SOL     OW 8789   0.682   0.745   3.909
 2192SOL    HW2 8790   0.761   0.782   3.870
 2192SOL    HW3 8791   0.611   0.801   3.878
 2192SOL    MW4 8792   0.683   0.757   3.899
 2193SOL     OW 8793   0.487   0.898   3.806
 2193SOL    HW2 8794   0.493   0.986   3.842
 2193SOL    HW3 8795   0.410   0.861   3.849
 2193SOL    MW4 8796   0.477   0.905   3.816
 2194SOL     OW 8797   0.501   1.156   3.879
 2194SOL    HW2 8798   0.569   1.212   3.841
 2194SOL    HW3 8799   0.419   1.191   3.847
 2194SOL    MW4 8800   0.499   1.168   3.870
 2195SOL     OW 8801   0.687   1.321   3.756
 2195SOL    HW2 8802   0.767   1.278   3.785
 2195SOL    HW3 8803   0.676   1.292   3.665
 2195SOL    MW4 8804   0.696   1.311   3.748
 2196SOL     OW 8805   0.667   1.570   3.882
 2196SOL    HW2 8806   0.740   1.623   3.850
 2196SOL    HW3 8807   0.671   1.490   3.831
 2196SOL    MW4 8808   0.677   1.567   3.871
 2197SOL     OW 8809   0.444   1.654   3.706
 2197SOL    HW2 8810   0.523   1.617   3.746
 2197SOL    HW3 8811   0.372   1.618   3.756
 2197SOL    MW4 8812   0.445   1.645   3.718
 2198SOL     OW 8813   0.441   1.890   3.874
 2198SOL    HW2 8814   0.441   1.808   3.826
 2198SOL    HW3 8815   0.358   1.932   3.851
 2198SOL    MW4 8816   0.430   1.885   3.865
 2199SOL     OW 8817   0.624   2.031   3.730
 2199SOL    HW2 8818   0.616   2.116   3.774
 2199SOL    HW3 8819   0.546   1.983   3.757
 2199SOL    MW4 8820   0.612   2.036   3.739
 2200SOL     OW 8821   0.658   2.268   3.865
 2200SOL    HW2 8822   0.732   2.317   3.828
 2200SOL    HW3 8823   0.581   2.306   3.823
 2200SOL    MW4 8824   0.658   2.280   3.854
 2201SOL     OW 8825   0.446   2.390   3.743
 2201SOL    HW2 8826   0.368   2.334   3.752
 2201SOL    HW3 8827   0.448   2.413   3.650
 2201SOL    MW4 8828   0.436   2.386   3.732
 2202SOL     OW 8829   0.458   2.647   3.879
 2202SOL    HW2 8830   0.520   2.689   3.819
 2202SOL    HW3 8831   0.445   2.560   3.842
 2202SOL    MW4 8832   0.464   2.641   3.866
 2203SOL     OW 8833   0.688   2.822   3.777
 2203SOL    HW2 8834   0.767   2.778   3.807
 2203SOL    HW3 8835   0.697   2.826   3.682
 2203SOL    MW4 8836   0.699   2.817   3.769
 2204SOL     OW 8837   0.684   3.082   3.859
 2204SOL    HW2 8838   0.681   3.075   3.954
 2204SOL    HW3 8839   0.692   2.992   3.829
 2204SOL    MW4 8840   0.685   3.069   3.868
 2205SOL     OW 8841   0.470   3.230   3.731
 2205SOL    HW2 8842   0.549   3.196   3.773
 2205SOL    HW3 8843   0.399   3.183   3.773
 2205SOL    MW4 8844   0.471   3.220   3.742
 2206SOL     OW 8845   0.461   3.498   3.826
 2206SOL    HW2 8846   0.543   3.543   3.803
 2206SOL    HW3 8847   0.470   3.411   3.788
 2206SOL    MW4 8848   0.473   3.493   3.818
 2207SOL     OW 8849   0.714   3.602   3.766
 2207SOL    HW2 8850   0.708   3.696   3.777
 2207SOL    HW3 8851   0.718   3.589   3.671
 2207SOL    MW4 8852   0.714   3.612   3.755
 2208SOL     OW 8853   0.709   3.868   3.834
 2208SOL    HW2 8854   0.720   3.863   3.929
 2208SOL    HW3 8855   0.779   3.926   3.805
 2208SOL    MW4 8856   0.720   3.875   3.843
 2209SOL     OW 8857   0.452   4.000   3.787
 2209SOL    HW2 8858   0.536   3.968   3.820
 2209SOL    HW3 8859   0.458   3.991   3.692
 2209SOL    MW4 8860   0.464   3.995   3.779
 2210SOL     OW 8861   0.442   4.260   3.916
 2210SOL    HW2 8862   0.514   4.320   3.901
 2210SOL    HW3 8863   0.463   4.183   3.862
 2210SOL    MW4 8864   0.454   4.258   3.907
 2211SOL     OW 8865   0.658   4.435   3.821
 2211SOL    HW2 8866   0.743   4.398   3.844
 2211SOL    HW3 8867   0.646   4.412   3.729
 2211SOL    MW4 8868   0.667   4.427   3.812
 2212SOL     OW 8869   1.136   0.024   3.865
 2212SOL    HW2 8870   1.217   0.064   3.833
 2212SOL    HW3 8871   1.148  -0.070   3.849
 2212SOL    MW4 8872   1.149   0.017   3.859
 2213SOL     OW 8873   0.881   0.095   3.786
 2213SOL    HW2 8874   0.971   0.079   3.815
 2213SOL    HW3 8875   0.826   0.056   3.854
 2213SOL    MW4 8876   0.886   0.088   3.799
 2214SOL     OW 8877   0.923   0.349   3.888
 2214SOL    HW2 8878   0.928   0.359   3.983
 2214SOL    HW3 8879   0.894   0.259   3.875
 2214SOL    MW4 8880   0.920   0.339   3.899
 2215SOL     OW 8881   1.144   0.499   3.779
 2215SOL    HW2 8882   1.223   0.458   3.814
 2215SOL    HW3 8883   1.073   0.442   3.808
 2215SOL    MW4 8884   1.145   0.486   3.787
 2216SOL     OW 8885   1.127   0.771   3.871
 2216SOL    HW2 8886   1.125   0.765   3.966
 2216SOL    HW3 8887   1.126   0.679   3.842
 2216SOL    MW4 8888   1.127   0.758   3.879
 2217SOL     OW 8889   0.900   0.891   3.811
 2217SOL    HW2 8890   0.983   0.847   3.828
 2217SOL    HW3 8891   0.883   0.876   3.718
 2217SOL    MW4 8892   0.909   0.883   3.801
 2218SOL     OW 8893   0.920   1.156   3.861
 2218SOL    HW2 8894   0.915   1.161   3.956
 2218SOL    HW3 8895   0.907   1.063   3.841
 2218SOL    MW4 8896   0.917   1.144   3.871
 2219SOL     OW 8897   1.152   1.307   3.789
 2219SOL    HW2 8898   1.152   1.388   3.840
 2219SOL    HW3 8899   1.080   1.256   3.827
 2219SOL    MW4 8900   1.142   1.311   3.801
 2220SOL     OW 8901   1.145   1.582   3.906
 2220SOL    HW2 8902   1.168   1.579   3.999
 2220SOL    HW3 8903   1.225   1.610   3.862
 2220SOL    MW4 8904   1.158   1.585   3.913
 2221SOL     OW 8905   0.899   1.690   3.799
 2221SOL    HW2 8906   0.981   1.670   3.844
 2221SOL    HW3 8907   0.923   1.702   3.708
 2221SOL    MW4 8908   0.913   1.689   3.793
 2222SOL     OW 8909   0.859   1.959   3.869
 2222SOL    HW2 8910   0.863   1.864   3.858
 2222SOL    HW3 8911   0.779   1.984   3.822
 2222SOL    MW4 8912   0.849   1.950   3.861
 2223SOL     OW 8913   1.104   2.052   3.753
 2223SOL    HW2 8914   1.051   1.990   3.803
 2223SOL    HW3 8915   1.083   2.034   3.662
 2223SOL    MW4 8916   1.094   2.042   3.748
 2224SOL     OW 8917   1.116   2.312   3.861
 2224SOL    HW2 8918   1.113   2.312   3.956
 2224SOL    HW3 8919   1.113   2.220   3.837
 2224SOL    MW4 8920   1.115   2.300   3.870
 2225SOL     OW 8921   0.869   2.429   3.765
 2225SOL    HW2 8922   0.897   2.519   3.786
 2225SOL    HW3 8923   0.948   2.377   3.777
 2225SOL    MW4 8924   0.883   2.434   3.770
 2226SOL     OW 8925   0.933   2.693   3.824
 2226SOL    HW2 8926   0.937   2.679   3.919
 2226SOL    HW3 8927   1.014   2.740   3.804
 2226SOL    MW4 8928   0.945   2.698   3.834
 2227SOL     OW 8929   1.157   2.854   3.755
 2227SOL    HW2 8930   1.224   2.802   3.798
 2227SOL    HW3 8931   1.158   2.938   3.801
 2227SOL    MW4 8932   1.166   2.858   3.766
 2228SOL     OW 8933   1.161   3.088   3.892
 2228SOL    HW2 8934   1.228   3.134   3.841
 2228SOL    HW3 8935   1.078   3.121   3.857
 2228SOL    MW4 8936   1.159   3.099   3.880
 2229SOL     OW 8937   0.922   3.181   3.798
 2229SOL    HW2 8938   0.840   3.133   3.816
 2229SOL    HW3 8939   0.908   3.221   3.712
 2229SOL    MW4 8940   0.909   3.180   3.789
 2230SOL     OW 8941   0.895   3.451   3.908
 2230SOL    HW2 8942   0.893   3.359   3.882
 2230SOL    HW3 8943   0.834   3.495   3.849
 2230SOL    MW4 8944   0.887   3.445   3.897
 2231SOL     OW 8945   1.122   3.580   3.759
 2231SOL    HW2 8946   1.135   3.667   3.798
 2231SOL    HW3 8947   1.051   3.541   3.810
 2231SOL    MW4 8948   1.115   3.586   3.771
 2232SOL     OW 8949   1.141   3.834   3.874
 2232SOL    HW2 8950   1.146   3.845   3.969
 2232SOL    HW3 8951   1.210   3.891   3.840
 2232SOL    MW4 8952   1.151   3.843   3.882
 2233SOL     OW 8953   0.932   4.025   3.794
 2233SOL    HW2 8954   1.008   3.974   3.822
 2233SOL    HW3 8955   0.932   4.017   3.699
 2233SOL    MW4 8956   0.942   4.017   3.786
 2234SOL     OW 8957   0.902   4.312   3.866
 2234SOL    HW2 8958   0.904   4.310   3.962
 2234SOL    HW3 8959   0.904   4.220   3.839
 2234SOL    MW4 8960   0.902   4.300   3.875
 2235SOL     OW 8961   1.156   4.422   3.817
 2235SOL    HW2 8962   1.081   4.368   3.842
 2235SOL    HW3 8963   1.144   4.436   3.723
 2235SOL    MW4 8964   1.145   4.417   3.808
 2236SOL     OW 8965   1.584   4.650   3.885
 2236SOL    HW2 8966   1.580   4.655   3.980
 2236SOL    HW3 8967   1.582   4.557   3.865
 2236SOL    MW4 8968   1.583   4.639   3.895
 2237SOL     OW 8969   1.380   0.107   3.730
 2237SOL    HW2 8970   1.374   0.201   3.749
 2237SOL    HW3 8971   1.458   0.078   3.778
 2237SOL    MW4 8972   1.390   0.116   3.739
 2238SOL     OW 8973   1.378   0.369   3.849
 2238SOL    HW2 8974   1.384   0.361   3.944
 2238SOL    HW3 8975   1.452   0.424   3.825
 2238SOL    MW4 8976   1.388   0.375   3.859
 2239SOL     OW 8977   1.593   0.530   3.798
 2239SOL    HW2 8978   1.666   0.482   3.837
 2239SOL    HW3 8979   1.602   0.619   3.832
 2239SOL    MW4 8980   1.604   0.536   3.807
 2240SOL     OW 8981   1.593   0.795   3.903
 2240SOL    HW2 8982   1.661   0.839   3.851
 2240SOL    HW3 8983   1.511   0.822   3.861
 2240SOL    MW4 8984   1.591   0.805   3.891
 2241SOL     OW 8985   1.362   0.910   3.787
 2241SOL    HW2 8986   1.386   0.984   3.842
 2241SOL    HW3 8987   1.280   0.878   3.823
 2241SOL    MW4 8988   1.355   0.915   3.799
 2242SOL     OW 8989   1.369   1.169   3.914
 2242SOL    HW2 8990   1.448   1.214   3.883
 2242SOL    HW3 8991   1.297   1.212   3.868
 2242SOL    MW4 8992   1.370   1.180   3.904
 2243SOL     OW 8993   1.626   1.256   3.781
 2243SOL    HW2 8994   1.710   1.233   3.821
 2243SOL    HW3 8995   1.622   1.352   3.786
 2243SOL    MW4 8996   1.636   1.266   3.787
 2244SOL     OW 8997   1.604   1.544   3.824
 2244SOL    HW2 8998   1.601   1.549   3.919
 2244SOL    HW3 8999   1.686   1.586   3.800
 2244SOL    MW4 9000   1.614   1.550   3.833
 2245SOL     OW 9001   1.343   1.643   3.722
 2245SOL    HW2 9002   1.336   1.736   3.742
 2245SOL    HW3 9003   1.426   1.616   3.762
 2245SOL    MW4 9004   1.353   1.652   3.730
 2246SOL     OW 9005   1.322   1.895   3.809
 2246SOL    HW2 9006   1.345   1.918   3.900
 2246SOL    HW3 9007   1.248   1.952   3.788
 2246SOL    MW4 9008   1.315   1.906   3.818
 2247SOL     OW 9009   1.600   2.047   3.756
 2247SOL    HW2 9010   1.516   2.002   3.765
 2247SOL    HW3 9011   1.605   2.070   3.663
 2247SOL    MW4 9012   1.589   2.044   3.745
 2248SOL     OW 9013   1.570   2.301   3.863
 2248SOL    HW2 9014   1.651   2.349   3.842
 2248SOL    HW3 9015   1.583   2.215   3.824
 2248SOL    MW4 9016   1.583   2.296   3.855
 2249SOL     OW 9017   1.366   2.456   3.766
 2249SOL    HW2 9018   1.436   2.404   3.804
 2249SOL    HW3 9019   1.285   2.415   3.798
 2249SOL    MW4 9020   1.364   2.444   3.775
 2250SOL     OW 9021   1.366   2.714   3.865
 2250SOL    HW2 9022   1.352   2.716   3.960
 2250SOL    HW3 9023   1.364   2.622   3.842
 2250SOL    MW4 9024   1.364   2.702   3.875
 2251SOL     OW 9025   1.587   2.851   3.755
 2251SOL    HW2 9026   1.512   2.801   3.786
 2251SOL    HW3 9027   1.581   2.847   3.659
 2251SOL    MW4 9028   1.576   2.844   3.746
 2252SOL     OW 9029   1.579   3.115   3.855
 2252SOL    HW2 9030   1.590   3.103   3.950
 2252SOL    HW3 9031   1.594   3.028   3.818
 2252SOL    MW4 9032   1.582   3.102   3.863
 2253SOL     OW 9033   1.359   3.212   3.757
 2253SOL    HW2 9034   1.368   3.305   3.781
 2253SOL    HW3 9035   1.437   3.171   3.793
 2253SOL    MW4 9036   1.371   3.219   3.765
 2254SOL     OW 9037   1.346   3.463   3.853
 2254SOL    HW2 9038   1.421   3.516   3.827
 2254SOL    HW3 9039   1.272   3.504   3.807
 2254SOL    MW4 9040   1.346   3.475   3.843
 2255SOL     OW 9041   1.594   3.587   3.784
 2255SOL    HW2 9042   1.681   3.562   3.813
 2255SOL    HW3 9043   1.579   3.674   3.822
 2255SOL    MW4 9044   1.603   3.595   3.792
 2256SOL     OW 9045   1.570   3.866   3.844
 2256SOL    HW2 9046   1.579   3.880   3.938
 2256SOL    HW3 9047   1.492   3.916   3.820
 2256SOL    MW4 9048   1.561   3.874   3.853
 2257SOL     OW 9049   1.330   4.009   3.775
 2257SOL    HW2 9050   1.352   4.097   3.807
 2257SOL    HW3 9051   1.304   4.023   3.684
 2257SOL    MW4 9052   1.330   4.023   3.767
 2258SOL     OW 9053   1.364   4.263   3.892
 2258SOL    HW2 9054   1.448   4.305   3.872
 2258SOL    HW3 9055   1.298   4.325   3.863
 2258SOL    MW4 9056   1.366   4.277   3.885
 2259SOL     OW 9057   1.609   4.378   3.828
 2259SOL    HW2 9058   1.677   4.321   3.865
 2259SOL    HW3 9059   1.621   4.371   3.733
 2259SOL    MW4 9060   1.620   4.370   3.820
 2260SOL     OW 9061   2.005   4.650   3.920
 2260SOL    HW2 9062   2.081   4.692   3.879
 2260SOL    HW3 9063   1.990   4.572   3.867
 2260SOL    MW4 9064   2.013   4.646   3.907
 2261SOL     OW 9065   1.793   0.134   3.820
 2261SOL    HW2 9066   1.862   0.072   3.847
 2261SOL    HW3 9067   1.712   0.092   3.847
 2261SOL    MW4 9068   1.792   0.120   3.827
 2262SOL     OW 9069   1.812   0.419   3.916
 2262SOL    HW2 9070   1.823   0.427   4.011
 2262SOL    HW3 9071   1.800   0.325   3.901
 2262SOL    MW4 9072   1.812   0.408   3.927
 2263SOL     OW 9073   2.044   0.490   3.792
 2263SOL    HW2 9074   1.959   0.483   3.835
 2263SOL    HW3 9075   2.024   0.500   3.699
 2263SOL    MW4 9076   2.030   0.491   3.786
 2264SOL     OW 9077   2.055   0.752   3.870
 2264SOL    HW2 9078   2.027   0.753   3.961
 2264SOL    HW3 9079   2.080   0.661   3.853
 2264SOL    MW4 9080   2.055   0.740   3.880
 2265SOL     OW 9081   1.823   0.888   3.782
 2265SOL    HW2 9082   1.909   0.846   3.784
 2265SOL    HW3 9083   1.800   0.891   3.689
 2265SOL    MW4 9084   1.832   0.883   3.770
 2266SOL     OW 9085   1.845   1.150   3.935
 2266SOL    HW2 9086   1.824   1.146   4.028
 2266SOL    HW3 9087   1.838   1.059   3.905
 2266SOL    MW4 9088   1.841   1.138   3.943
 2267SOL     OW 9089   2.073   1.236   3.769
 2267SOL    HW2 9090   2.151   1.198   3.810
 2267SOL    HW3 9091   2.000   1.201   3.820
 2267SOL    MW4 9092   2.074   1.227   3.781
 2268SOL     OW 9093   2.035   1.510   3.882
 2268SOL    HW2 9094   1.964   1.557   3.839
 2268SOL    HW3 9095   2.043   1.428   3.834
 2268SOL    MW4 9096   2.027   1.506   3.870
 2269SOL     OW 9097   1.843   1.662   3.758
 2269SOL    HW2 9098   1.861   1.752   3.784
 2269SOL    HW3 9099   1.852   1.663   3.663
 2269SOL    MW4 9100   1.847   1.674   3.749
 2270SOL     OW 9101   1.833   1.908   3.857
 2270SOL    HW2 9102   1.833   1.903   3.953
 2270SOL    HW3 9103   1.745   1.938   3.835
 2270SOL    MW4 9104   1.821   1.911   3.867
 2271SOL     OW 9105   2.018   2.073   3.765
 2271SOL    HW2 9106   1.945   2.016   3.788
 2271SOL    HW3 9107   2.019   2.073   3.669
 2271SOL    MW4 9108   2.009   2.065   3.755
 2272SOL     OW 9109   2.013   2.317   3.918
 2272SOL    HW2 9110   1.944   2.355   3.864
 2272SOL    HW3 9111   2.034   2.233   3.875
 2272SOL    MW4 9112   2.007   2.311   3.905
 2273SOL     OW 9113   1.810   2.436   3.753
 2273SOL    HW2 9114   1.834   2.526   3.775
 2273SOL    HW3 9115   1.805   2.434   3.658
 2273SOL    MW4 9116   1.813   2.448   3.744
 2274SOL     OW 9117   1.826   2.696   3.864
 2274SOL    HW2 9118   1.836   2.705   3.959
 2274SOL    HW3 9119   1.745   2.742   3.843
 2274SOL    MW4 9120   1.817   2.703   3.874
 2275SOL     OW 9121   2.023   2.829   3.706
 2275SOL    HW2 9122   2.104   2.804   3.751
 2275SOL    HW3 9123   1.954   2.784   3.755
 2275SOL    MW4 9124   2.024   2.820   3.718
 2276SOL     OW 9125   1.989   3.079   3.814
 2276SOL    HW2 9126   2.076   3.118   3.801
 2276SOL    HW3 9127   1.993   2.995   3.769
 2276SOL    MW4 9128   2.001   3.073   3.806
 2277SOL     OW 9129   1.800   3.243   3.737
 2277SOL    HW2 9130   1.883   3.198   3.748
 2277SOL    HW3 9131   1.738   3.195   3.791
 2277SOL    MW4 9132   1.803   3.231   3.745
 2278SOL     OW 9133   1.838   3.485   3.863
 2278SOL    HW2 9134   1.906   3.538   3.820
 2278SOL    HW3 9135   1.840   3.401   3.816
 2278SOL    MW4 9136   1.847   3.481   3.851
 2279SOL     OW 9137   2.039   3.664   3.768
 2279SOL    HW2 9138   2.123   3.623   3.787
 2279SOL    HW3 9139   2.034   3.665   3.672
 2279SOL    MW4 9140   2.049   3.659   3.758
 2280SOL     OW 9141   2.036   3.894   3.925
 2280SOL    HW2 9142   2.112   3.931   3.879
 2280SOL    HW3 9143   2.021   3.809   3.882
 2280SOL    MW4 9144   2.044   3.888   3.913
 2281SOL     OW 9145   1.809   3.991   3.780
 2281SOL    HW2 9146   1.885   3.951   3.822
 2281SOL    HW3 9147   1.738   3.930   3.796
 2281SOL    MW4 9148   1.810   3.978   3.788
 2282SOL     OW 9149   1.812   4.217   3.916
 2282SOL    HW2 9150   1.874   4.276   3.873
 2282SOL    HW3 9151   1.812   4.138   3.861
 2282SOL    MW4 9152   1.820   4.214   3.903
 2283SOL     OW 9153   1.988   4.391   3.809
 2283SOL    HW2 9154   2.068   4.347   3.838
 2283SOL    HW3 9155   2.002   4.408   3.716
 2283SOL    MW4 9156   2.001   4.387   3.801
 2284SOL     OW 9157   2.459   0.012   3.861
 2284SOL    HW2 9158   2.458   0.021   3.957
 2284SOL    HW3 9159   2.529   0.071   3.833
 2284SOL    MW4 9160   2.468   0.021   3.870
 2285SOL     OW 9161   2.215   0.115   3.781
 2285SOL    HW2 9162   2.297   0.066   3.786
 2285SOL    HW3 9163   2.198   0.125   3.688
 2285SOL    MW4 9164   2.223   0.110   3.770
 2286SOL     OW 9165   2.277   0.376   3.890
 2286SOL    HW2 9166   2.263   0.284   3.868
 2286SOL    HW3 9167   2.196   0.419   3.864
 2286SOL    MW4 9168   2.265   0.369   3.884
 2287SOL     OW 9169   2.470   0.504   3.744
 2287SOL    HW2 9170   2.407   0.450   3.792
 2287SOL    HW3 9171   2.456   0.481   3.652
 2287SOL    MW4 9172   2.459   0.494   3.739
 2288SOL     OW 9173   2.504   0.776   3.851
 2288SOL    HW2 9174   2.424   0.822   3.826
 2288SOL    HW3 9175   2.491   0.686   3.823
 2288SOL    MW4 9176   2.492   0.770   3.844
 2289SOL     OW 9177   2.278   0.897   3.744
 2289SOL    HW2 9178   2.198   0.859   3.780
 2289SOL    HW3 9179   2.269   0.886   3.649
 2289SOL    MW4 9180   2.266   0.890   3.736
 2290SOL     OW 9181   2.314   1.137   3.849
 2290SOL    HW2 9182   2.288   1.141   3.941
 2290SOL    HW3 9183   2.293   1.048   3.822
 2290SOL    MW4 9184   2.308   1.126   3.858
 2291SOL     OW 9185   2.521   1.274   3.730
 2291SOL    HW2 9186   2.498   1.360   3.764
 2291SOL    HW3 9187   2.445   1.219   3.752
 2291SOL    MW4 9188   2.508   1.278   3.737
 2292SOL     OW 9189   2.472   1.510   3.856
 2292SOL    HW2 9190   2.548   1.561   3.828
 2292SOL    HW3 9191   2.397   1.562   3.827
 2292SOL    MW4 9192   2.472   1.524   3.849
 2293SOL     OW 9193   2.240   1.647   3.746
 2293SOL    HW2 9194   2.221   1.737   3.773
 2293SOL    HW3 9195   2.176   1.594   3.794
 2293SOL    MW4 9196   2.229   1.651   3.756
 2294SOL     OW 9197   2.242   1.919   3.841
 2294SOL    HW2 9198   2.256   1.909   3.935
 2294SOL    HW3 9199   2.154   1.955   3.834
 2294SOL    MW4 9200   2.232   1.922   3.852
 2295SOL     OW 9201   2.470   2.057   3.780
 2295SOL    HW2 9202   2.444   2.141   3.816
 2295SOL    HW3 9203   2.396   1.999   3.801
 2295SOL    MW4 9204   2.457   2.060   3.787
 2296SOL     OW 9205   2.456   2.312   3.878
 2296SOL    HW2 9206   2.528   2.351   3.828
 2296SOL    HW3 9207   2.378   2.356   3.845
 2296SOL    MW4 9208   2.455   2.323   3.867
 2297SOL     OW 9209   2.238   2.424   3.752
 2297SOL    HW2 9210   2.157   2.375   3.764
 2297SOL    HW3 9211   2.242   2.441   3.658
 2297SOL    MW4 9212   2.228   2.420   3.741
 2298SOL     OW 9213   2.216   2.712   3.862
 2298SOL    HW2 9214   2.224   2.723   3.957
 2298SOL    HW3 9215   2.224   2.618   3.848
 2298SOL    MW4 9216   2.218   2.701   3.873
 2299SOL     OW 9217   2.463   2.803   3.787
 2299SOL    HW2 9218   2.377   2.764   3.801
 2299SOL    HW3 9219   2.471   2.812   3.692
 2299SOL    MW4 9220   2.453   2.799   3.777
 2300SOL     OW 9221   2.481   3.072   3.837
 2300SOL    HW2 9222   2.498   3.077   3.931
 2300SOL    HW3 9223   2.449   2.983   3.824
 2300SOL    MW4 9224   2.479   3.061   3.848
 2301SOL     OW 9225   2.220   3.220   3.779
 2301SOL    HW2 9226   2.236   3.314   3.778
 2301SOL    HW3 9227   2.306   3.182   3.798
 2301SOL    MW4 9228   2.234   3.227   3.782
 2302SOL     OW 9229   2.284   3.494   3.813
 2302SOL    HW2 9230   2.296   3.492   3.908
 2302SOL    HW3 9231   2.363   3.536   3.780
 2302SOL    MW4 9232   2.296   3.499   3.821
 2303SOL     OW 9233   2.535   3.651   3.751
 2303SOL    HW2 9234   2.601   3.585   3.772
 2303SOL    HW3 9235   2.516   3.636   3.659
 2303SOL    MW4 9236   2.541   3.640   3.742
 2304SOL     OW 9237   2.483   3.896   3.855
 2304SOL    HW2 9238   2.553   3.948   3.817
 2304SOL    HW3 9239   2.493   3.809   3.817
 2304SOL    MW4 9240   2.494   3.892   3.845
 2305SOL     OW 9241   2.243   4.014   3.783
 2305SOL    HW2 9242   2.324   3.967   3.800
 2305SOL    HW3 9243   2.240   4.024   3.688
 2305SOL    MW4 9244   2.253   4.009   3.773
 2306SOL     OW 9245   2.250   4.278   3.860
 2306SOL    HW2 9246   2.260   4.260   3.953
 2306SOL    HW3 9247   2.245   4.192   3.819
 2306SOL    MW4 9248   2.250   4.264   3.867
 2307SOL     OW 9249   2.490   4.418   3.803
 2307SOL    HW2 9250   2.407   4.380   3.834
 2307SOL    HW3 9251   2.484   4.511   3.826
 2307SOL    MW4 9252   2.478   4.425   3.810
 2308SOL     OW 9253   2.918   4.662   3.877
 2308SOL    HW2 9254   2.920   4.679   3.972
 2308SOL    HW3 9255   3.000   4.698   3.844
 2308SOL    MW4 9256   2.929   4.669   3.885
 2309SOL     OW 9257   2.701   0.146   3.777
 2309SOL    HW2 9258   2.780   0.101   3.809
 2309SOL    HW3 9259   2.700   0.127   3.683
 2309SOL    MW4 9260   2.712   0.138   3.769
 2310SOL     OW 9261   2.721   0.431   3.820
 2310SOL    HW2 9262   2.718   0.336   3.807
 2310SOL    HW3 9263   2.632   0.460   3.802
 2310SOL    MW4 9264   2.709   0.422   3.816
 2311SOL     OW 9265   2.954   0.555   3.728
 2311SOL    HW2 9266   3.013   0.483   3.751
 2311SOL    HW3 9267   2.867   0.523   3.751
 2311SOL    MW4 9268   2.950   0.541   3.734
 2312SOL     OW 9269   2.949   0.809   3.876
 2312SOL    HW2 9270   3.004   0.866   3.823
 2312SOL    HW3 9271   2.955   0.723   3.834
 2312SOL    MW4 9272   2.957   0.805   3.864
 2313SOL     OW 9273   2.737   0.915   3.755
 2313SOL    HW2 9274   2.814   0.880   3.799
 2313SOL    HW3 9275   2.664   0.864   3.791
 2313SOL    MW4 9276   2.737   0.903   3.765
 2314SOL     OW 9277   2.707   1.174   3.892
 2314SOL    HW2 9278   2.726   1.089   3.853
 2314SOL    HW3 9279   2.636   1.210   3.839
 2314SOL    MW4 9280   2.700   1.168   3.880
 2315SOL     OW 9281   2.919   1.296   3.731
 2315SOL    HW2 9282   2.931   1.378   3.779
 2315SOL    HW3 9283   2.840   1.257   3.770
 2315SOL    MW4 9284   2.910   1.302   3.743
 2316SOL     OW 9285   2.943   1.556   3.835
 2316SOL    HW2 9286   2.947   1.564   3.930
 2316SOL    HW3 9287   3.027   1.590   3.804
 2316SOL    MW4 9288   2.955   1.561   3.843
 2317SOL     OW 9289   2.697   1.678   3.766
 2317SOL    HW2 9290   2.778   1.633   3.788
 2317SOL    HW3 9291   2.706   1.700   3.673
 2317SOL    MW4 9292   2.709   1.675   3.757
 2318SOL     OW 9293   2.706   1.940   3.847
 2318SOL    HW2 9294   2.697   1.851   3.812
 2318SOL    HW3 9295   2.620   1.979   3.837
 2318SOL    MW4 9296   2.694   1.933   3.841
 2319SOL     OW 9297   2.942   2.064   3.742
 2319SOL    HW2 9298   2.942   2.152   3.781
 2319SOL    HW3 9299   2.873   2.017   3.788
 2319SOL    MW4 9300   2.933   2.070   3.753
 2320SOL     OW 9301   2.955   2.310   3.848
 2320SOL    HW2 9302   2.963   2.315   3.944
 2320SOL    HW3 9303   3.025   2.368   3.816
 2320SOL    MW4 9304   2.965   2.318   3.857
 2321SOL     OW 9305   2.704   2.412   3.758
 2321SOL    HW2 9306   2.702   2.506   3.775
 2321SOL    HW3 9307   2.785   2.382   3.798
 2321SOL    MW4 9308   2.715   2.421   3.766
 2322SOL     OW 9309   2.698   2.687   3.815
 2322SOL    HW2 9310   2.705   2.681   3.910
 2322SOL    HW3 9311   2.617   2.736   3.800
 2322SOL    MW4 9312   2.688   2.692   3.826
 2323SOL     OW 9313   2.945   2.869   3.760
 2323SOL    HW2 9314   2.948   2.958   3.795
 2323SOL    HW3 9315   2.855   2.839   3.777
 2323SOL    MW4 9316   2.933   2.877   3.767
 2324SOL     OW 9317   2.949   3.105   3.869
 2324SOL    HW2 9318   3.023   3.158   3.840
 2324SOL    HW3 9319   2.872   3.147   3.830
 2324SOL    MW4 9320   2.949   3.117   3.860
 2325SOL     OW 9321   2.708   3.199   3.751
 2325SOL    HW2 9322   2.700   3.284   3.794
 2325SOL    HW3 9323   2.641   3.145   3.793
 2325SOL    MW4 9324   2.698   3.203   3.762
 2326SOL     OW 9325   2.702   3.463   3.846
 2326SOL    HW2 9326   2.687   3.472   3.940
 2326SOL    HW3 9327   2.776   3.521   3.828
 2326SOL    MW4 9328   2.710   3.472   3.856
 2327SOL     OW 9329   2.911   3.634   3.784
 2327SOL    HW2 9330   2.988   3.593   3.823
 2327SOL    HW3 9331   2.928   3.634   3.689
 2327SOL    MW4 9332   2.923   3.629   3.776
 2328SOL     OW 9333   2.937   3.899   3.843
 2328SOL    HW2 9334   2.941   3.891   3.938
 2328SOL    HW3 9335   2.929   3.808   3.812
 2328SOL    MW4 9336   2.937   3.886   3.852
 2329SOL     OW 9337   2.709   4.008   3.766
 2329SOL    HW2 9338   2.709   4.087   3.820
 2329SOL    HW3 9339   2.790   3.963   3.789
 2329SOL    MW4 9340   2.719   4.013   3.776
 2330SOL     OW 9341   2.715   4.278   3.902
 2330SOL    HW2 9342   2.792   4.329   3.877
 2330SOL    HW3 9343   2.641   4.334   3.880
 2330SOL    MW4 9344   2.716   4.292   3.896
 2331SOL     OW 9345   2.931   4.421   3.756
 2331SOL    HW2 9346   3.004   4.381   3.804
 2331SOL    HW3 9347   2.921   4.507   3.795
 2331SOL    MW4 9348   2.939   4.427   3.767
 2332SOL     OW 9349   3.385   0.024   3.906
 2332SOL    HW2 9350   3.393   0.049   3.998
 2332SOL    HW3 9351   3.459   0.066   3.863
 2332SOL    MW4 9352   3.396   0.033   3.913
 2333SOL     OW 9353   3.135   0.134   3.801
 2333SOL    HW2 9354   3.221   0.112   3.838
 2333SOL    HW3 9355   3.138   0.101   3.712
 2333SOL    MW4 9356   3.147   0.127   3.794
 2334SOL     OW 9357   3.151   0.403   3.850
 2334SOL    HW2 9358   3.157   0.408   3.946
 2334SOL    HW3 9359   3.147   0.310   3.831
 2334SOL    MW4 9360   3.151   0.392   3.860
 2335SOL     OW 9361   3.370   0.529   3.733
 2335SOL    HW2 9362   3.446   0.498   3.783
 2335SOL    HW3 9363   3.294   0.491   3.778
 2335SOL    MW4 9364   3.370   0.520   3.746
 2336SOL     OW 9365   3.355   0.804   3.795
 2336SOL    HW2 9366   3.373   0.814   3.888
 2336SOL    HW3 9367   3.348   0.709   3.781
 2336SOL    MW4 9368   3.356   0.793   3.805
 2337SOL     OW 9369   3.127   0.937   3.718
 2337SOL    HW2 9370   3.210   0.899   3.746
 2337SOL    HW3 9371   3.130   0.935   3.622
 2337SOL    MW4 9372   3.138   0.932   3.709
 2338SOL     OW 9373   3.145   1.177   3.819
 2338SOL    HW2 9374   3.145   1.089   3.782
 2338SOL    HW3 9375   3.063   1.216   3.788
 2338SOL    MW4 9376   3.134   1.170   3.810
 2339SOL     OW 9377   3.389   1.308   3.742
 2339SOL    HW2 9378   3.304   1.276   3.771
 2339SOL    HW3 9379   3.383   1.309   3.647
 2339SOL    MW4 9380   3.377   1.304   3.733
 2340SOL     OW 9381   3.418   1.548   3.862
 2340SOL    HW2 9382   3.338   1.596   3.840
 2340SOL    HW3 9383   3.407   1.463   3.821
 2340SOL    MW4 9384   3.406   1.543   3.854
 2341SOL     OW 9385   3.199   1.646   3.747
 2341SOL    HW2 9386   3.192   1.740   3.765
 2341SOL    HW3 9387   3.210   1.641   3.652
 2341SOL    MW4 9388   3.199   1.658   3.736
 2342SOL     OW 9389   3.152   1.905   3.818
 2342SOL    HW2 9390   3.129   1.914   3.910
 2342SOL    HW3 9391   3.085   1.956   3.771
 2342SOL    MW4 9392   3.140   1.913   3.824
 2343SOL     OW 9393   3.387   2.051   3.768
 2343SOL    HW2 9394   3.313   1.991   3.782
 2343SOL    HW3 9395   3.401   2.050   3.673
 2343SOL    MW4 9396   3.379   2.043   3.757
 2344SOL     OW 9397   3.356   2.283   3.903
 2344SOL    HW2 9398   3.283   2.321   3.854
 2344SOL    HW3 9399   3.371   2.198   3.863
 2344SOL    MW4 9400   3.348   2.277   3.891
 2345SOL     OW 9401   3.182   2.441   3.754
 2345SOL    HW2 9402   3.184   2.534   3.778
 2345SOL    HW3 9403   3.177   2.441   3.659
 2345SOL    MW4 9404   3.181   2.453   3.745
 2346SOL     OW 9405   3.137   2.699   3.855
 2346SOL    HW2 9406   3.134   2.717   3.949
 2346SOL    HW3 9407   3.066   2.752   3.819
 2346SOL    MW4 9408   3.127   2.709   3.863
 2347SOL     OW 9409   3.364   2.853   3.809
 2347SOL    HW2 9410   3.276   2.827   3.836
 2347SOL    HW3 9411   3.363   2.849   3.713
 2347SOL    MW4 9412   3.353   2.849   3.800
 2348SOL     OW 9413   3.375   3.119   3.864
 2348SOL    HW2 9414   3.452   3.155   3.822
 2348SOL    HW3 9415   3.373   3.028   3.838
 2348SOL    MW4 9416   3.385   3.112   3.855
 2349SOL     OW 9417   3.148   3.275   3.784
 2349SOL    HW2 9418   3.229   3.232   3.811
 2349SOL    HW3 9419   3.154   3.278   3.688
 2349SOL    MW4 9420   3.159   3.270   3.775
 2350SOL     OW 9421   3.150   3.536   3.894
 2350SOL    HW2 9422   3.231   3.574   3.860
 2350SOL    HW3 9423   3.146   3.450   3.853
 2350SOL    MW4 9424   3.160   3.530   3.884
 2351SOL     OW 9425   3.379   3.658   3.773
 2351SOL    HW2 9426   3.390   3.749   3.799
 2351SOL    HW3 9427   3.373   3.662   3.677
 2351SOL    MW4 9428   3.380   3.671   3.764
 2352SOL     OW 9429   3.400   3.904   3.873
 2352SOL    HW2 9430   3.477   3.945   3.833
 2352SOL    HW3 9431   3.326   3.938   3.823
 2352SOL    MW4 9432   3.401   3.914   3.861
 2353SOL     OW 9433   3.164   4.021   3.742
 2353SOL    HW2 9434   3.157   4.112   3.770
 2353SOL    HW3 9435   3.086   3.978   3.776
 2353SOL    MW4 9436   3.153   4.027   3.750
 2354SOL     OW 9437   3.159   4.292   3.866
 2354SOL    HW2 9438   3.164   4.261   3.957
 2354SOL    HW3 9439   3.246   4.327   3.847
 2354SOL    MW4 9440   3.171   4.292   3.876
 2355SOL     OW 9441   3.382   4.449   3.786
 2355SOL    HW2 9442   3.459   4.403   3.819
 2355SOL    HW3 9443   3.389   4.537   3.823
 2355SOL    MW4 9444   3.393   4.454   3.795
 2356SOL     OW 9445   3.840   0.063   3.868
 2356SOL    HW2 9446   3.931   0.085   3.849
 2356SOL    HW3 9447   3.830  -0.028   3.839
 2356SOL    MW4 9448   3.850   0.054   3.862
 2357SOL     OW 9449   3.595   0.165   3.784
 2357SOL    HW2 9450   3.675   0.134   3.825
 2357SOL    HW3 9451   3.612   0.157   3.690
 2357SOL    MW4 9452   3.608   0.160   3.777
 2358SOL     OW 9453   3.574   0.440   3.885
 2358SOL    HW2 9454   3.656   0.479   3.853
 2358SOL    HW3 9455   3.579   0.348   3.858
 2358SOL    MW4 9456   3.586   0.433   3.877
 2359SOL     OW 9457   3.842   0.497   3.821
 2359SOL    HW2 9458   3.922   0.456   3.855
 2359SOL    HW3 9459   3.862   0.591   3.823
 2359SOL    MW4 9460   3.855   0.504   3.826
 2360SOL     OW 9461   3.797   0.779   3.865
 2360SOL    HW2 9462   3.887   0.812   3.865
 2360SOL    HW3 9463   3.747   0.846   3.818
 2360SOL    MW4 9464   3.802   0.792   3.859
 2361SOL     OW 9465   3.599   0.950   3.766
 2361SOL    HW2 9466   3.608   1.036   3.808
 2361SOL    HW3 9467   3.507   0.926   3.780
 2361SOL    MW4 9468   3.588   0.958   3.774
 2362SOL     OW 9469   3.604   1.202   3.893
 2362SOL    HW2 9470   3.673   1.236   3.835
 2362SOL    HW3 9471   3.523   1.214   3.843
 2362SOL    MW4 9472   3.602   1.208   3.878
 2363SOL     OW 9473   3.836   1.267   3.716
 2363SOL    HW2 9474   3.911   1.226   3.758
 2363SOL    HW3 9475   3.828   1.353   3.759
 2363SOL    MW4 9476   3.845   1.273   3.727
 2364SOL     OW 9477   3.813   1.501   3.852
 2364SOL    HW2 9478   3.819   1.512   3.947
 2364SOL    HW3 9479   3.752   1.569   3.824
 2364SOL    MW4 9480   3.806   1.511   3.861
 2365SOL     OW 9481   3.652   1.687   3.749
 2365SOL    HW2 9482   3.576   1.645   3.789
 2365SOL    HW3 9483   3.640   1.674   3.655
 2365SOL    MW4 9484   3.640   1.680   3.742
 2366SOL     OW 9485   3.628   1.946   3.882
 2366SOL    HW2 9486   3.641   1.863   3.835
 2366SOL    HW3 9487   3.542   1.977   3.852
 2366SOL    MW4 9488   3.618   1.939   3.872
 2367SOL     OW 9489   3.826   2.102   3.750
 2367SOL    HW2 9490   3.910   2.066   3.779
 2367SOL    HW3 9491   3.761   2.055   3.803
 2367SOL    MW4 9492   3.829   2.091   3.761
 2368SOL     OW 9493   3.819   2.323   3.901
 2368SOL    HW2 9494   3.748   2.383   3.878
 2368SOL    HW3 9495   3.817   2.256   3.833
 2368SOL    MW4 9496   3.810   2.322   3.889
 2369SOL     OW 9497   3.593   2.455   3.816
 2369SOL    HW2 9498   3.517   2.408   3.851
 2369SOL    HW3 9499   3.583   2.448   3.721
 2369SOL    MW4 9500   3.581   2.448   3.808
 2370SOL     OW 9501   3.603   2.724   3.842
 2370SOL    HW2 9502   3.587   2.630   3.853
 2370SOL    HW3 9503   3.516   2.762   3.828
 2370SOL    MW4 9504   3.590   2.716   3.842
 2371SOL     OW 9505   3.851   2.830   3.776
 2371SOL    HW2 9506   3.910   2.782   3.833
 2371SOL    HW3 9507   3.764   2.794   3.796
 2371SOL    MW4 9508   3.847   2.819   3.786
 2372SOL     OW 9509   3.827   3.113   3.890
 2372SOL    HW2 9510   3.748   3.151   3.851
 2372SOL    HW3 9511   3.833   3.026   3.850
 2372SOL    MW4 9512   3.817   3.106   3.879
 2373SOL     OW 9513   3.607   3.250   3.756
 2373SOL    HW2 9514   3.608   3.341   3.785
 2373SOL    HW3 9515   3.604   3.255   3.660
 2373SOL    MW4 9516   3.607   3.262   3.747
 2374SOL     OW 9517   3.601   3.502   3.883
 2374SOL    HW2 9518   3.598   3.506   3.979
 2374SOL    HW3 9519   3.516   3.534   3.854
 2374SOL    MW4 9520   3.590   3.507   3.892
 2375SOL     OW 9521   3.821   3.648   3.771
 2375SOL    HW2 9522   3.824   3.736   3.808
 2375SOL    HW3 9523   3.753   3.603   3.822
 2375SOL    MW4 9524   3.812   3.653   3.782
 2376SOL     OW 9525   3.847   3.902   3.875
 2376SOL    HW2 9526   3.859   3.908   3.969
 2376SOL    HW3 9527   3.925   3.944   3.838
 2376SOL    MW4 9528   3.859   3.909   3.882
 2377SOL     OW 9529   3.593   4.044   3.757
 2377SOL    HW2 9530   3.596   4.137   3.781
 2377SOL    HW3 9531   3.681   4.012   3.775
 2377SOL    MW4 9532   3.605   4.052   3.763
 2378SOL     OW 9533   3.602   4.306   3.866
 2378SOL    HW2 9534   3.617   4.294   3.960
 2378SOL    HW3 9535   3.677   4.357   3.836
 2378SOL    MW4 9536   3.614   4.311   3.875
 2379SOL     OW 9537   3.814   4.449   3.772
 2379SOL    HW2 9538   3.888   4.406   3.815
 2379SOL    HW3 9539   3.818   4.417   3.681
 2379SOL    MW4 9540   3.824   4.439   3.765
 2380SOL     OW 9541   4.318   4.665   3.887
 2380SOL    HW2 9542   4.325   4.693   3.979
 2380SOL    HW3 9543   4.399   4.697   3.846
 2380SOL    MW4 9544   4.330   4.673   3.894
 2381SOL     OW 9545   4.091   0.124   3.793
 2381SOL    HW2 9546   4.171   0.080   3.820
 2381SOL    HW3 9547   4.082   0.103   3.700
 2381SOL    MW4 9548   4.100   0.116   3.784
 2382SOL     OW 9549   4.083   0.389   3.900
 2382SOL    HW2 9550   4.075   0.383   3.995
 2382SOL    HW3 9551   4.080   0.298   3.870
 2382SOL    MW4 9552   4.082   0.376   3.908
 2383SOL     OW 9553   4.293   0.521   3.771
 2383SOL    HW2 9554   4.229   0.466   3.815
 2383SOL    HW3 9555   4.274   0.509   3.678
 2383SOL    MW4 9556   4.282   0.512   3.764
 2384SOL     OW 9557   4.289   0.776   3.868
 2384SOL    HW2 9558   4.213   0.828   3.842
 2384SOL    HW3 9559   4.279   0.693   3.821
 2384SOL    MW4 9560   4.278   0.772   3.858
 2385SOL     OW 9561   4.061   0.894   3.782
 2385SOL    HW2 9562   4.065   0.983   3.818
 2385SOL    HW3 9563   4.057   0.908   3.687
 2385SOL    MW4 9564   4.061   0.908   3.774
 2386SOL     OW 9565   4.040   1.157   3.868
 2386SOL    HW2 9566   4.030   1.156   3.964
 2386SOL    HW3 9567   4.129   1.188   3.854
 2386SOL    MW4 9568   4.051   1.161   3.879
 2387SOL     OW 9569   4.279   1.252   3.785
 2387SOL    HW2 9570   4.266   1.342   3.814
 2387SOL    HW3 9571   4.253   1.252   3.693
 2387SOL    MW4 9572   4.274   1.264   3.777
 2388SOL     OW 9573   4.234   1.515   3.868
 2388SOL    HW2 9574   4.157   1.557   3.829
 2388SOL    HW3 9575   4.309   1.564   3.833
 2388SOL    MW4 9576   4.234   1.527   3.858
 2389SOL     OW 9577   4.027   1.675   3.780
 2389SOL    HW2 9578   4.042   1.766   3.807
 2389SOL    HW3 9579   3.938   1.656   3.811
 2389SOL    MW4 9580   4.017   1.685   3.788
 2390SOL     OW 9581   4.049   1.957   3.863
 2390SOL    HW2 9582   4.035   1.976   3.956
 2390SOL    HW3 9583   4.126   2.008   3.839
 2390SOL    MW4 9584   4.057   1.966   3.872
 2391SOL     OW 9585   4.271   2.104   3.753
 2391SOL    HW2 9586   4.268   2.193   3.787
 2391SOL    HW3 9587   4.250   2.113   3.661
 2391SOL    MW4 9588   4.268   2.117   3.746
 2392SOL     OW 9589   4.235   2.368   3.836
 2392SOL    HW2 9590   4.210   2.365   3.928
 2392SOL    HW3 9591   4.156   2.397   3.790
 2392SOL    MW4 9592   4.222   2.372   3.842
 2393SOL     OW 9593   3.980   2.485   3.730
 2393SOL    HW2 9594   3.997   2.565   3.779
 2393SOL    HW3 9595   3.924   2.433   3.787
 2393SOL    MW4 9596   3.975   2.488   3.744
 2394SOL     OW 9597   4.050   2.688   3.909
 2394SOL    HW2 9598   4.062   2.699   4.004
 2394SOL    HW3 9599   4.133   2.717   3.871
 2394SOL    MW4 9600   4.062   2.694   3.917
 2395SOL     OW 9601   4.267   2.788   3.769
 2395SOL    HW2 9602   4.258   2.877   3.805
 2395SOL    HW3 9603   4.350   2.756   3.806
 2395SOL    MW4 9604   4.277   2.796   3.779
 2396SOL     OW 9605   4.259   3.102   3.898
 2396SOL    HW2 9606   4.197   3.164   3.860
 2396SOL    HW3 9607   4.345   3.134   3.871
 2396SOL    MW4 9608   4.262   3.115   3.890
 2397SOL     OW 9609   4.063   3.252   3.764
 2397SOL    HW2 9610   4.000   3.202   3.817
 2397SOL    HW3 9611   4.034   3.238   3.674
 2397SOL    MW4 9612   4.051   3.244   3.759
 2398SOL     OW 9613   4.049   3.530   3.893
 2398SOL    HW2 9614   4.038   3.445   3.850
 2398SOL    HW3 9615   3.973   3.581   3.865
 2398SOL    MW4 9616   4.038   3.525   3.884
 2399SOL     OW 9617   4.291   3.627   3.778
 2399SOL    HW2 9618   4.211   3.590   3.816
 2399SOL    HW3 9619   4.361   3.570   3.809
 2399SOL    MW4 9620   4.290   3.615   3.787
 2400SOL     OW 9621   4.316   3.884   3.906
 2400SOL    HW2 9622   4.252   3.935   3.856
 2400SOL    HW3 9623   4.312   3.797   3.867
 2400SOL    MW4 9624   4.307   3.879   3.894
 2401SOL     OW 9625   4.103   4.027   3.799
 2401SOL    HW2 9626   4.089   4.120   3.819
 2401SOL    HW3 9627   4.086   4.020   3.705
 2401SOL    MW4 9628   4.099   4.038   3.789
 2402SOL     OW 9629   4.017   4.288   3.857
 2402SOL    HW2 9630   4.018   4.287   3.952
 2402SOL    HW3 9631   4.100   4.329   3.832
 2402SOL    MW4 9632   4.028   4.294   3.866
 2403SOL     OW 9633   4.298   4.404   3.763
 2403SOL    HW2 9634   4.310   4.484   3.813
 2403SOL    HW3 9635   4.364   4.344   3.798
 2403SOL    MW4 9636   4.309   4.406   3.774
 2404SOL     OW 9637   0.260   4.665   4.144
 2404SOL    HW2 9638   0.335   4.702   4.191
 2404SOL    HW3 9639   0.247   4.579   4.184
 2404SOL    MW4 9640   0.268   4.659   4.156
 2405SOL     OW 9641   0.062   0.158   4.249
 2405SOL    HW2 9642   0.097   0.171   4.337
 2405SOL    HW3 9643   0.129   0.108   4.203
 2405SOL    MW4 9644   0.075   0.153   4.255
 2406SOL     OW 9645   4.479   0.394   4.156
 2406SOL    HW2 9646   4.492   0.304   4.187
 2406SOL    HW3 9647   4.485   0.389   4.061
 2406SOL    MW4 9648   4.481   0.382   4.148
 2407SOL     OW 9649   0.215   0.503   4.294
 2407SOL    HW2 9650   0.296   0.461   4.263
 2407SOL    HW3 9651   0.146   0.462   4.241
 2407SOL    MW4 9652   0.217   0.492   4.283
 2408SOL     OW 9653   0.228   0.758   4.188
 2408SOL    HW2 9654   0.161   0.809   4.235
 2408SOL    HW3 9655   0.224   0.672   4.229
 2408SOL    MW4 9656   0.219   0.754   4.200
 2409SOL     OW 9657   0.010   0.881   4.330
 2409SOL    HW2 9658  -0.052   0.852   4.264
 2409SOL    HW3 9659   0.020   0.975   4.316
 2409SOL    MW4 9660   0.003   0.889   4.320
 2410SOL     OW 9661   0.032   1.132   4.197
 2410SOL    HW2 9662   0.087   1.202   4.231
 2410SOL    HW3 9663   0.029   1.147   4.102
 2410SOL    MW4 9664   0.039   1.143   4.189
 2411SOL     OW 9665   0.246   1.294   4.255
 2411SOL    HW2 9666   0.283   1.283   4.342
 2411SOL    HW3 9667   0.289   1.227   4.201
 2411SOL    MW4 9668   0.257   1.284   4.259
 2412SOL     OW 9669   0.085   1.506   4.610
 2412SOL    HW2 9670   0.172   1.536   4.635
 2412SOL    HW3 9671   0.044   1.582   4.569
 2412SOL    MW4 9672   0.091   1.520   4.608
 2413SOL     OW 9673   0.006   1.694   4.213
 2413SOL    HW2 9674  -0.064   1.637   4.180
 2413SOL    HW3 9675  -0.025   1.783   4.196
 2413SOL    MW4 9676  -0.007   1.698   4.206
 2414SOL     OW 9677   0.224   2.001   4.225
 2414SOL    HW2 9678   0.217   1.999   4.321
 2414SOL    HW3 9679   0.297   1.942   4.206
 2414SOL    MW4 9680   0.233   1.993   4.235
 2415SOL     OW 9681   0.450   1.828   4.567
 2415SOL    HW2 9682   0.361   1.858   4.546
 2415SOL    HW3 9683   0.479   1.783   4.488
 2415SOL    MW4 9684   0.442   1.826   4.554
 2416SOL     OW 9685   0.224   2.254   4.106
 2416SOL    HW2 9686   0.298   2.312   4.124
 2416SOL    HW3 9687   0.239   2.178   4.162
 2416SOL    MW4 9688   0.236   2.252   4.116
 2417SOL     OW 9689   0.047   2.439   4.213
 2417SOL    HW2 9690  -0.041   2.416   4.183
 2417SOL    HW3 9691   0.103   2.368   4.182
 2417SOL    MW4 9692   0.042   2.426   4.205
 2418SOL     OW 9693   0.018   2.703   4.162
 2418SOL    HW2 9694   0.082   2.754   4.211
 2418SOL    HW3 9695   0.023   2.615   4.200
 2418SOL    MW4 9696   0.027   2.698   4.173
 2419SOL     OW 9697   0.234   2.853   4.299
 2419SOL    HW2 9698   0.293   2.801   4.244
 2419SOL    HW3 9699   0.219   2.932   4.248
 2419SOL    MW4 9700   0.240   2.856   4.285
 2420SOL     OW 9701   0.226   3.097   4.126
 2420SOL    HW2 9702   0.308   3.138   4.153
 2420SOL    HW3 9703   0.158   3.151   4.166
 2420SOL    MW4 9704   0.228   3.110   4.135
 2421SOL     OW 9705   4.474   3.237   4.249
 2421SOL    HW2 9706   4.395   3.206   4.206
 2421SOL    HW3 9707   4.483   3.328   4.221
 2421SOL    MW4 9708   4.465   3.245   4.240
 2422SOL     OW 9709   0.007   3.495   4.136
 2422SOL    HW2 9710  -0.066   3.548   4.169
 2422SOL    HW3 9711  -0.007   3.491   4.042
 2422SOL    MW4 9712  -0.005   3.501   4.128
 2423SOL     OW 9713   0.245   3.576   4.229
 2423SOL    HW2 9714   0.313   3.517   4.195
 2423SOL    HW3 9715   0.164   3.544   4.188
 2423SOL    MW4 9716   0.243   3.564   4.219
 2424SOL     OW 9717   0.292   3.852   4.172
 2424SOL    HW2 9718   0.215   3.898   4.206
 2424SOL    HW3 9719   0.278   3.760   4.196
 2424SOL    MW4 9720   0.280   3.846   4.180
 2425SOL     OW 9721   0.066   3.972   4.272
 2425SOL    HW2 9722   0.065   3.988   4.366
 2425SOL    HW3 9723  -0.022   3.939   4.252
 2425SOL    MW4 9724   0.054   3.970   4.282
 2426SOL     OW 9725   0.030   4.224   4.148
 2426SOL    HW2 9726   0.041   4.134   4.179
 2426SOL    HW3 9727   0.015   4.216   4.054
 2426SOL    MW4 9728   0.029   4.211   4.140
 2427SOL     OW 9729   0.199   4.415   4.252
 2427SOL    HW2 9730   0.167   4.423   4.342
 2427SOL    HW3 9731   0.139   4.353   4.211
 2427SOL    MW4 9732   0.186   4.408   4.259
 2428SOL     OW 9733   0.703   4.650   4.260
 2428SOL    HW2 9734   0.613   4.681   4.270
 2428SOL    HW3 9735   0.722   4.660   4.167
 2428SOL    MW4 9736   0.694   4.656   4.249
 2429SOL     OW 9737   0.458   0.098   4.291
 2429SOL    HW2 9738   0.419   0.091   4.378
 2429SOL    HW3 9739   0.471   0.192   4.278
 2429SOL    MW4 9740   0.455   0.110   4.301
 2430SOL     OW 9741   0.456   0.357   4.207
 2430SOL    HW2 9742   0.522   0.414   4.246
 2430SOL    HW3 9743   0.480   0.352   4.114
 2430SOL    MW4 9744   0.468   0.364   4.200
 2431SOL     OW 9745   0.680   0.500   4.289
 2431SOL    HW2 9746   0.753   0.469   4.236
 2431SOL    HW3 9747   0.672   0.593   4.267
 2431SOL    MW4 9748   0.689   0.508   4.279
 2432SOL     OW 9749   0.701   0.774   4.217
 2432SOL    HW2 9750   0.633   0.835   4.247
 2432SOL    HW3 9751   0.699   0.782   4.122
 2432SOL    MW4 9752   0.691   0.783   4.208
 2433SOL     OW 9753   0.462   0.904   4.265
 2433SOL    HW2 9754   0.451   0.993   4.230
 2433SOL    HW3 9755   0.391   0.854   4.225
 2433SOL    MW4 9756   0.451   0.909   4.255
 2434SOL     OW 9757   0.469   1.152   4.151
 2434SOL    HW2 9758   0.534   1.204   4.199
 2434SOL    HW3 9759   0.500   1.153   4.060
 2434SOL    MW4 9760   0.482   1.159   4.145
 2435SOL     OW 9761   0.691   1.283   4.277
 2435SOL    HW2 9762   0.697   1.299   4.371
 2435SOL    HW3 9763   0.692   1.370   4.238
 2435SOL    MW4 9764   0.692   1.297   4.284
 2436SOL     OW 9765   0.696   1.529   4.164
 2436SOL    HW2 9766   0.789   1.552   4.171
 2436SOL    HW3 9767   0.679   1.525   4.069
 2436SOL    MW4 9768   0.706   1.531   4.152
 2437SOL     OW 9769   0.259   1.579   4.156
 2437SOL    HW2 9770   0.272   1.501   4.209
 2437SOL    HW3 9771   0.178   1.618   4.189
 2437SOL    MW4 9772   0.250   1.574   4.168
 2438SOL     OW 9773   0.425   1.819   4.177
 2438SOL    HW2 9774   0.387   1.731   4.172
 2438SOL    HW3 9775   0.455   1.837   4.088
 2438SOL    MW4 9776   0.424   1.810   4.165
 2439SOL     OW 9777   0.715   2.023   4.289
 2439SOL    HW2 9778   0.711   2.046   4.382
 2439SOL    HW3 9779   0.643   1.962   4.277
 2439SOL    MW4 9780   0.705   2.018   4.299
 2440SOL     OW 9781   0.686   2.274   4.141
 2440SOL    HW2 9782   0.711   2.187   4.171
 2440SOL    HW3 9783   0.702   2.273   4.046
 2440SOL    MW4 9784   0.691   2.263   4.132
 2441SOL     OW 9785   0.464   2.415   4.167
 2441SOL    HW2 9786   0.476   2.503   4.131
 2441SOL    HW3 9787   0.549   2.372   4.153
 2441SOL    MW4 9788   0.477   2.421   4.161
 2442SOL     OW 9789   0.426   2.709   4.144
 2442SOL    HW2 9790   0.514   2.731   4.171
 2442SOL    HW3 9791   0.429   2.708   4.048
 2442SOL    MW4 9792   0.438   2.712   4.135
 2443SOL     OW 9793   0.655   2.799   4.260
 2443SOL    HW2 9794   0.684   2.801   4.351
 2443SOL    HW3 9795   0.648   2.891   4.235
 2443SOL    MW4 9796   0.658   2.811   4.269
 2444SOL     OW 9797   0.663   3.052   4.144
 2444SOL    HW2 9798   0.740   3.096   4.180
 2444SOL    HW3 9799   0.589   3.108   4.168
 2444SOL    MW4 9800   0.663   3.065   4.152
 2445SOL     OW 9801   0.471   3.224   4.245
 2445SOL    HW2 9802   0.490   3.260   4.331
 2445SOL    HW3 9803   0.468   3.300   4.187
 2445SOL    MW4 9804   0.473   3.238   4.249
 2446SOL     OW 9805   0.450   3.458   4.111
 2446SOL    HW2 9806   0.521   3.502   4.159
 2446SOL    HW3 9807   0.461   3.488   4.021
 2446SOL    MW4 9808   0.461   3.468   4.105
 2447SOL     OW 9809   0.682   3.628   4.260
 2447SOL    HW2 9810   0.677   3.618   4.355
 2447SOL    HW3 9811   0.764   3.585   4.236
 2447SOL    MW4 9812   0.692   3.621   4.269
 2448SOL     OW 9813   0.714   3.884   4.113
 2448SOL    HW2 9814   0.640   3.934   4.150
 2448SOL    HW3 9815   0.712   3.801   4.160
 2448SOL    MW4 9816   0.704   3.880   4.124
 2449SOL     OW 9817   0.510   3.998   4.250
 2449SOL    HW2 9818   0.487   4.090   4.236
 2449SOL    HW3 9819   0.432   3.950   4.222
 2449SOL    MW4 9820   0.497   4.004   4.245
 2450SOL     OW 9821   0.415   4.257   4.200
 2450SOL    HW2 9822   0.338   4.309   4.223
 2450SOL    HW3 9823   0.419   4.262   4.104
 2450SOL    MW4 9824   0.406   4.264   4.190
 2451SOL     OW 9825   0.670   4.356   4.279
 2451SOL    HW2 9826   0.586   4.312   4.269
 2451SOL    HW3 9827   0.653   4.447   4.256
 2451SOL    MW4 9828   0.657   4.362   4.275
 2452SOL     OW 9829   1.125   0.028   4.144
 2452SOL    HW2 9830   1.111  -0.066   4.156
 2452SOL    HW3 9831   1.152   0.036   4.052
 2452SOL    MW4 9832   1.127   0.016   4.133
 2453SOL     OW 9833   0.924   0.130   4.299
 2453SOL    HW2 9834   0.982   0.089   4.235
 2453SOL    HW3 9835   0.846   0.075   4.299
 2453SOL    MW4 9836   0.921   0.117   4.290
 2454SOL     OW 9837   0.904   0.382   4.176
 2454SOL    HW2 9838   0.989   0.424   4.188
 2454SOL    HW3 9839   0.912   0.298   4.221
 2454SOL    MW4 9840   0.916   0.376   4.183
 2455SOL     OW 9841   1.157   0.502   4.225
 2455SOL    HW2 9842   1.177   0.509   4.318
 2455SOL    HW3 9843   1.226   0.446   4.190
 2455SOL    MW4 9844   1.169   0.496   4.233
 2456SOL     OW 9845   1.129   0.753   4.131
 2456SOL    HW2 9846   1.191   0.804   4.183
 2456SOL    HW3 9847   1.140   0.663   4.162
 2456SOL    MW4 9848   1.138   0.748   4.142
 2457SOL     OW 9849   0.942   0.890   4.287
 2457SOL    HW2 9850   1.006   0.841   4.236
 2457SOL    HW3 9851   0.859   0.846   4.270
 2457SOL    MW4 9852   0.939   0.878   4.278
 2458SOL     OW 9853   0.901   1.136   4.154
 2458SOL    HW2 9854   0.913   1.046   4.184
 2458SOL    HW3 9855   0.828   1.169   4.205
 2458SOL    MW4 9856   0.893   1.129   4.164
 2459SOL     OW 9857   1.125   1.259   4.290
 2459SOL    HW2 9858   1.100   1.261   4.382
 2459SOL    HW3 9859   1.042   1.252   4.243
 2459SOL    MW4 9860   1.111   1.259   4.296
 2460SOL     OW 9861   1.189   1.548   4.186
 2460SOL    HW2 9862   1.098   1.565   4.210
 2460SOL    HW3 9863   1.202   1.455   4.204
 2460SOL    MW4 9864   1.179   1.538   4.192
 2461SOL     OW 9865   0.936   1.622   4.268
 2461SOL    HW2 9866   0.918   1.619   4.362
 2461SOL    HW3 9867   0.934   1.715   4.245
 2461SOL    MW4 9868   0.933   1.633   4.277
 2462SOL     OW 9869   0.910   1.877   4.173
 2462SOL    HW2 9870   0.843   1.920   4.226
 2462SOL    HW3 9871   0.898   1.913   4.085
 2462SOL    MW4 9872   0.900   1.887   4.168
 2463SOL     OW 9873   1.158   2.047   4.229
 2463SOL    HW2 9874   1.149   2.060   4.323
 2463SOL    HW3 9875   1.083   1.992   4.205
 2463SOL    MW4 9876   1.147   2.042   4.238
 2464SOL     OW 9877   1.103   2.309   4.147
 2464SOL    HW2 9878   1.186   2.345   4.181
 2464SOL    HW3 9879   1.097   2.222   4.186
 2464SOL    MW4 9880   1.113   2.302   4.156
 2465SOL     OW 9881   0.886   2.458   4.234
 2465SOL    HW2 9882   0.968   2.413   4.212
 2465SOL    HW3 9883   0.818   2.392   4.219
 2465SOL    MW4 9884   0.888   2.443   4.229
 2466SOL     OW 9885   0.862   2.684   4.112
 2466SOL    HW2 9886   0.864   2.600   4.158
 2466SOL    HW3 9887   0.786   2.729   4.149
 2466SOL    MW4 9888   0.853   2.679   4.123
 2467SOL     OW 9889   1.087   2.810   4.246
 2467SOL    HW2 9890   1.094   2.894   4.202
 2467SOL    HW3 9891   1.006   2.771   4.213
 2467SOL    MW4 9892   1.077   2.816   4.236
 2468SOL     OW 9893   1.136   3.065   4.160
 2468SOL    HW2 9894   1.205   3.115   4.204
 2468SOL    HW3 9895   1.153   3.078   4.067
 2468SOL    MW4 9896   1.147   3.073   4.154
 2469SOL     OW 9897   0.893   3.169   4.243
 2469SOL    HW2 9898   0.886   3.122   4.327
 2469SOL    HW3 9899   0.969   3.130   4.201
 2469SOL    MW4 9900   0.902   3.157   4.249
 2470SOL     OW 9901   0.900   3.463   4.208
 2470SOL    HW2 9902   0.905   3.369   4.224
 2470SOL    HW3 9903   0.886   3.471   4.114
 2470SOL    MW4 9904   0.899   3.452   4.198
 2471SOL     OW 9905   1.152   3.604   4.269
 2471SOL    HW2 9906   1.132   3.691   4.234
 2471SOL    HW3 9907   1.068   3.559   4.272
 2471SOL    MW4 9908   1.138   3.609   4.265
 2472SOL     OW 9909   1.118   3.861   4.161
 2472SOL    HW2 9910   1.199   3.898   4.195
 2472SOL    HW3 9911   1.050   3.924   4.186
 2472SOL    MW4 9912   1.119   3.874   4.169
 2473SOL     OW 9913   0.896   4.029   4.246
 2473SOL    HW2 9914   0.900   4.111   4.197
 2473SOL    HW3 9915   0.824   3.980   4.205
 2473SOL    MW4 9916   0.887   4.033   4.234
 2474SOL     OW 9917   0.875   4.294   4.131
 2474SOL    HW2 9918   0.946   4.343   4.171
 2474SOL    HW3 9919   0.797   4.318   4.183
 2474SOL    MW4 9920   0.874   4.304   4.143
 2475SOL     OW 9921   1.098   4.428   4.260
 2475SOL    HW2 9922   1.094   4.403   4.352
 2475SOL    HW3 9923   1.182   4.393   4.229
 2475SOL    MW4 9924   1.109   4.420   4.268
 2476SOL     OW 9925   1.598   4.634   4.162
 2476SOL    HW2 9926   1.681   4.663   4.201
 2476SOL    HW3 9927   1.531   4.670   4.219
 2476SOL    MW4 9928   1.600   4.642   4.175
 2477SOL     OW 9929   1.377   0.081   4.264
 2477SOL    HW2 9930   1.372   0.074   4.359
 2477SOL    HW3 9931   1.288   0.063   4.233
 2477SOL    MW4 9932   1.365   0.078   4.272
 2478SOL     OW 9933   1.371   0.350   4.133
 2478SOL    HW2 9934   1.454   0.392   4.154
 2478SOL    HW3 9935   1.377   0.264   4.174
 2478SOL    MW4 9936   1.383   0.344   4.141
 2479SOL     OW 9937   1.576   0.495   4.261
 2479SOL    HW2 9938   1.584   0.505   4.356
 2479SOL    HW3 9939   1.580   0.584   4.227
 2479SOL    MW4 9940   1.577   0.508   4.269
 2480SOL     OW 9941   1.572   0.757   4.167
 2480SOL    HW2 9942   1.649   0.801   4.204
 2480SOL    HW3 9943   1.583   0.766   4.072
 2480SOL    MW4 9944   1.584   0.764   4.159
 2481SOL     OW 9945   1.337   0.870   4.273
 2481SOL    HW2 9946   1.363   0.962   4.267
 2481SOL    HW3 9947   1.413   0.821   4.241
 2481SOL    MW4 9948   1.351   0.875   4.268
 2482SOL     OW 9949   1.360   1.142   4.192
 2482SOL    HW2 9950   1.276   1.176   4.221
 2482SOL    HW3 9951   1.360   1.154   4.098
 2482SOL    MW4 9952   1.349   1.148   4.184
 2483SOL     OW 9953   1.558   1.312   4.253
 2483SOL    HW2 9954   1.546   1.337   4.345
 2483SOL    HW3 9955   1.486   1.251   4.235
 2483SOL    MW4 9956   1.547   1.307   4.263
 2484SOL     OW 9957   1.573   1.582   4.120
 2484SOL    HW2 9958   1.501   1.621   4.170
 2484SOL    HW3 9959   1.590   1.499   4.164
 2484SOL    MW4 9960   1.566   1.576   4.132
 2485SOL     OW 9961   1.383   1.736   4.257
 2485SOL    HW2 9962   1.381   1.807   4.193
 2485SOL    HW3 9963   1.305   1.684   4.238
 2485SOL    MW4 9964   1.372   1.738   4.246
 2486SOL     OW 9965   1.374   1.962   4.076
 2486SOL    HW2 9966   1.448   2.014   4.106
 2486SOL    HW3 9967   1.299   1.996   4.125
 2486SOL    MW4 9968   1.373   1.973   4.086
 2487SOL     OW 9969   1.599   2.071   4.182
 2487SOL    HW2 9970   1.561   2.053   4.268
 2487SOL    HW3 9971   1.586   2.165   4.168
 2487SOL    MW4 9972   1.592   2.081   4.191
 2488SOL     OW 9973   1.526   2.333   4.132
 2488SOL    HW2 9974   1.600   2.389   4.155
 2488SOL    HW3 9975   1.530   2.327   4.036
 2488SOL    MW4 9976   1.536   2.340   4.122
 2489SOL     OW 9977   1.319   2.446   4.254
 2489SOL    HW2 9978   1.320   2.538   4.228
 2489SOL    HW3 9979   1.392   2.407   4.207
 2489SOL    MW4 9980   1.328   2.453   4.244
 2490SOL     OW 9981   1.329   2.702   4.159
 2490SOL    HW2 9982   1.404   2.748   4.196
 2490SOL    HW3 9983   1.253   2.743   4.201
 2490SOL    MW4 9984   1.329   2.713   4.170
 2491SOL     OW 9985   1.572   2.832   4.236
 2491SOL    HW2 9986   1.573   2.848   4.330
 2491SOL    HW3 9987   1.587   2.918   4.197
 2491SOL    MW4 9988   1.574   2.845   4.243
 2492SOL     OW 9989   1.593   3.092   4.124
 2492SOL    HW2 9990   1.663   3.141   4.168
 2492SOL    HW3 9991   1.512   3.133   4.155
 2492SOL    MW4 9992   1.591   3.104   4.134
 2493SOL     OW 9993   1.361   3.215   4.245
 2493SOL    HW2 9994   1.388   3.224   4.336
 2493SOL    HW3 9995   1.358   3.304   4.211
 2493SOL    MW4 9996   1.364   3.228   4.253
 2494SOL     OW 9997   1.354   3.469   4.125
 2494SOL    HW2 9998   1.285   3.523   4.164
 2494SOL    HW3 9999   1.337   3.473   4.030
 2494SOL    MW410000   1.343   3.477   4.117
 2495SOL     OW10001   1.587   3.576   4.239
 2495SOL    HW210002   1.556   3.562   4.329
 2495SOL    HW310003   1.516   3.545   4.184
 2495SOL    MW410004   1.574   3.570   4.244
 2496SOL     OW10005   1.630   3.835   4.134
 2496SOL    HW210006   1.560   3.899   4.148
 2496SOL    HW310007   1.599   3.756   4.177
 2496SOL    MW410008   1.617   3.833   4.141
 2497SOL     OW10009   1.375   4.010   4.189
 2497SOL    HW210010   1.365   4.026   4.283
 2497SOL    HW310011   1.347   4.092   4.148
 2497SOL    MW410012   1.370   4.023   4.196
 2498SOL     OW10013   1.331   4.300   4.164
 2498SOL    HW210014   1.407   4.341   4.204
 2498SOL    HW310015   1.343   4.316   4.070
 2498SOL    MW410016   1.343   4.307   4.157
 2499SOL     OW10017   1.574   4.367   4.267
 2499SOL    HW210018   1.608   4.446   4.226
 2499SOL    HW310019   1.639   4.300   4.246
 2499SOL    MW410020   1.587   4.369   4.259
 2500SOL     OW10021   2.028   4.643   4.189
 2500SOL    HW210022   1.943   4.671   4.224
 2500SOL    HW310023   2.023   4.661   4.095
 2500SOL    MW410024   2.016   4.649   4.182
 2501SOL     OW10025   1.801   0.085   4.280
 2501SOL    HW210026   1.772   0.091   4.371
 2501SOL    HW310027   1.808   0.176   4.251
 2501SOL    MW410028   1.798   0.097   4.289
 2502SOL     OW10029   1.829   0.337   4.194
 2502SOL    HW210030   1.903   0.391   4.224
 2502SOL    HW310031   1.752   0.381   4.229
 2502SOL    MW410032   1.829   0.350   4.202
 2503SOL     OW10033   2.037   0.500   4.259
 2503SOL    HW210034   2.045   0.499   4.355
 2503SOL    HW310035   2.121   0.465   4.228
 2503SOL    MW410036   2.049   0.495   4.268
 2504SOL     OW10037   1.992   0.746   4.135
 2504SOL    HW210038   2.078   0.762   4.175
 2504SOL    HW310039   1.973   0.654   4.154
 2504SOL    MW410040   2.001   0.736   4.143
 2505SOL     OW10041   1.796   0.881   4.283
 2505SOL    HW210042   1.805   0.976   4.276
 2505SOL    HW310043   1.860   0.847   4.221
 2505SOL    MW410044   1.805   0.889   4.274
 2506SOL     OW10045   1.799   1.161   4.233
 2506SOL    HW210046   1.873   1.216   4.259
 2506SOL    HW310047   1.724   1.221   4.231
 2506SOL    MW410048   1.799   1.176   4.236
 2507SOL     OW10049   2.025   1.293   4.276
 2507SOL    HW210050   2.090   1.255   4.217
 2507SOL    HW310051   2.023   1.386   4.254
 2507SOL    MW410052   2.033   1.300   4.265
 2508SOL     OW10053   2.013   1.562   4.170
 2508SOL    HW210054   2.090   1.606   4.204
 2508SOL    HW310055   2.038   1.533   4.082
 2508SOL    MW410056   2.026   1.564   4.163
 2509SOL     OW10057   1.790   1.668   4.273
 2509SOL    HW210058   1.870   1.637   4.230
 2509SOL    HW310059   1.720   1.638   4.216
 2509SOL    MW410060   1.791   1.660   4.260
 2510SOL     OW10061   1.825   1.904   4.143
 2510SOL    HW210062   1.809   1.825   4.195
 2510SOL    HW310063   1.750   1.961   4.161
 2510SOL    MW410064   1.813   1.901   4.152
 2511SOL     OW10065   2.050   2.041   4.245
 2511SOL    HW210066   2.125   2.016   4.192
 2511SOL    HW310067   1.976   1.996   4.206
 2511SOL    MW410068   2.050   2.032   4.233
 2512SOL     OW10069   2.003   2.317   4.188
 2512SOL    HW210070   2.027   2.227   4.210
 2512SOL    HW310071   1.996   2.318   4.093
 2512SOL    MW410072   2.005   2.305   4.178
 2513SOL     OW10073   1.767   2.445   4.230
 2513SOL    HW210074   1.738   2.448   4.321
 2513SOL    HW310075   1.845   2.391   4.231
 2513SOL    MW410076   1.773   2.438   4.242
 2514SOL     OW10077   1.800   2.712   4.142
 2514SOL    HW210078   1.794   2.620   4.169
 2514SOL    HW310079   1.718   2.752   4.174
 2514SOL    MW410080   1.788   2.705   4.150
 2515SOL     OW10081   1.983   2.891   4.246
 2515SOL    HW210082   1.996   2.889   4.341
 2515SOL    HW310083   1.916   2.824   4.229
 2515SOL    MW410084   1.976   2.882   4.256
 2516SOL     OW10085   2.036   3.115   4.090
 2516SOL    HW210086   2.000   3.040   4.137
 2516SOL    HW310087   2.033   3.088   3.998
 2516SOL    MW410088   2.031   3.101   4.084
 2517SOL     OW10089   1.803   3.233   4.205
 2517SOL    HW210090   1.810   3.320   4.167
 2517SOL    HW310091   1.875   3.183   4.165
 2517SOL    MW410092   1.813   3.238   4.195
 2518SOL     OW10093   1.837   3.489   4.134
 2518SOL    HW210094   1.751   3.522   4.163
 2518SOL    HW310095   1.830   3.486   4.039
 2518SOL    MW410096   1.824   3.493   4.125
 2519SOL     OW10097   2.101   3.615   4.181
 2519SOL    HW210098   2.078   3.706   4.199
 2519SOL    HW310099   2.017   3.573   4.161
 2519SOL    MW410100   2.087   3.621   4.181
 2520SOL     OW10101   2.106   3.892   4.224
 2520SOL    HW210102   2.018   3.901   4.262
 2520SOL    HW310103   2.092   3.903   4.130
 2520SOL    MW410104   2.092   3.895   4.217
 2521SOL     OW10105   1.844   3.928   4.285
 2521SOL    HW210106   1.799   4.003   4.247
 2521SOL    HW310107   1.809   3.853   4.237
 2521SOL    MW410108   1.834   3.928   4.274
 2522SOL     OW10109   1.794   4.222   4.194
 2522SOL    HW210110   1.881   4.256   4.216
 2522SOL    HW310111   1.796   4.209   4.099
 2522SOL    MW410112   1.806   4.225   4.184
 2523SOL     OW10113   2.043   4.367   4.242
 2523SOL    HW210114   2.041   4.388   4.336
 2523SOL    HW310115   2.060   4.450   4.199
 2523SOL    MW410116   2.045   4.380   4.249
 2524SOL     OW10117   2.425   0.005   4.137
 2524SOL    HW210118   2.501   0.048   4.177
 2524SOL    HW310119   2.430  -0.085   4.169
 2524SOL    MW410120   2.436  -0.001   4.147
 2525SOL     OW10121   2.255   0.151   4.262
 2525SOL    HW210122   2.316   0.094   4.215
 2525SOL    HW310123   2.169   0.110   4.248
 2525SOL    MW410124   2.252   0.138   4.254
 2526SOL     OW10125   2.285   0.415   4.172
 2526SOL    HW210126   2.281   0.325   4.205
 2526SOL    HW310127   2.274   0.406   4.077
 2526SOL    MW410128   2.283   0.402   4.164
 2527SOL     OW10129   2.527   0.532   4.237
 2527SOL    HW210130   2.565   0.492   4.315
 2527SOL    HW310131   2.438   0.497   4.232
 2527SOL    MW410132   2.520   0.522   4.246
 2528SOL     OW10133   2.510   0.811   4.126
 2528SOL    HW210134   2.507   0.719   4.154
 2528SOL    HW310135   2.493   0.808   4.032
 2528SOL    MW410136   2.507   0.798   4.117
 2529SOL     OW10137   2.243   0.877   4.208
 2529SOL    HW210138   2.237   0.888   4.303
 2529SOL    HW310139   2.335   0.861   4.191
 2529SOL    MW410140   2.254   0.877   4.218
 2530SOL     OW10141   2.205   1.148   4.115
 2530SOL    HW210142   2.272   1.204   4.152
 2530SOL    HW310143   2.225   1.060   4.147
 2530SOL    MW410144   2.216   1.144   4.124
 2531SOL     OW10145   2.428   1.292   4.248
 2531SOL    HW210146   2.451   1.307   4.340
 2531SOL    HW310147   2.509   1.263   4.207
 2531SOL    MW410148   2.442   1.290   4.255
 2532SOL     OW10149   2.446   1.567   4.169
 2532SOL    HW210150   2.444   1.472   4.182
 2532SOL    HW310151   2.440   1.578   4.074
 2532SOL    MW410152   2.445   1.556   4.158
 2533SOL     OW10153   2.233   1.677   4.281
 2533SOL    HW210154   2.244   1.702   4.373
 2533SOL    HW310155   2.320   1.650   4.253
 2533SOL    MW410156   2.246   1.677   4.290
 2534SOL     OW10157   2.258   1.910   4.116
 2534SOL    HW210158   2.332   1.961   4.149
 2534SOL    HW310159   2.253   1.835   4.176
 2534SOL    MW410160   2.267   1.907   4.128
 2535SOL     OW10161   2.445   2.076   4.251
 2535SOL    HW210162   2.455   2.065   4.345
 2535SOL    HW310163   2.530   2.053   4.215
 2535SOL    MW410164   2.457   2.072   4.258
 2536SOL     OW10165   2.441   2.335   4.164
 2536SOL    HW210166   2.430   2.242   4.186
 2536SOL    HW310167   2.449   2.336   4.068
 2536SOL    MW410168   2.441   2.323   4.154
 2537SOL     OW10169   2.222   2.486   4.250
 2537SOL    HW210170   2.298   2.430   4.233
 2537SOL    HW310171   2.149   2.441   4.208
 2537SOL    MW410172   2.222   2.473   4.242
 2538SOL     OW10173   2.233   2.741   4.152
 2538SOL    HW210174   2.225   2.649   4.177
 2538SOL    HW310175   2.162   2.785   4.198
 2538SOL    MW410176   2.223   2.734   4.161
 2539SOL     OW10177   2.488   2.845   4.213
 2539SOL    HW210178   2.487   2.858   4.308
 2539SOL    HW310179   2.400   2.816   4.191
 2539SOL    MW410180   2.476   2.843   4.222
 2540SOL     OW10181   2.537   3.092   4.108
 2540SOL    HW210182   2.452   3.125   4.138
 2540SOL    HW310183   2.539   3.001   4.136
 2540SOL    MW410184   2.526   3.085   4.116
 2541SOL     OW10185   2.286   3.184   4.168
 2541SOL    HW210186   2.285   3.268   4.123
 2541SOL    HW310187   2.208   3.138   4.137
 2541SOL    MW410188   2.276   3.189   4.158
 2542SOL     OW10189   2.307   3.471   4.073
 2542SOL    HW210190   2.383   3.515   4.112
 2542SOL    HW310191   2.233   3.526   4.096
 2542SOL    MW410192   2.308   3.484   4.081
 2543SOL     OW10193   2.507   3.600   4.215
 2543SOL    HW210194   2.482   3.593   4.307
 2543SOL    HW310195   2.500   3.693   4.195
 2543SOL    MW410196   2.503   3.611   4.225
 2544SOL     OW10197   2.503   3.866   4.132
 2544SOL    HW210198   2.570   3.924   4.167
 2544SOL    HW310199   2.496   3.890   4.040
 2544SOL    MW410200   2.511   3.877   4.125
 2545SOL     OW10201   2.341   4.032   4.284
 2545SOL    HW210202   2.406   3.982   4.235
 2545SOL    HW310203   2.262   3.978   4.281
 2545SOL    MW410204   2.339   4.018   4.278
 2546SOL     OW10205   2.271   4.256   4.143
 2546SOL    HW210206   2.303   4.182   4.193
 2546SOL    HW310207   2.178   4.262   4.165
 2546SOL    MW410208   2.263   4.247   4.152
 2547SOL     OW10209   2.450   4.429   4.272
 2547SOL    HW210210   2.538   4.399   4.249
 2547SOL    HW310211   2.392   4.368   4.226
 2547SOL    MW410212   2.454   4.417   4.263
 2548SOL     OW10213   2.914   0.038   4.144
 2548SOL    HW210214   2.983   0.090   4.183
 2548SOL    HW310215   2.937  -0.053   4.166
 2548SOL    MW410216   2.926   0.033   4.152
 2549SOL     OW10217   2.667   0.172   4.222
 2549SOL    HW210218   2.672   0.263   4.192
 2549SOL    HW310219   2.754   0.135   4.205
 2549SOL    MW410220   2.679   0.179   4.216
 2550SOL     OW10221   2.718   0.416   4.094
 2550SOL    HW210222   2.648   0.459   4.143
 2550SOL    HW310223   2.691   0.422   4.002
 2550SOL    MW410224   2.705   0.423   4.088
 2551SOL     OW10225   2.955   0.528   4.201
 2551SOL    HW210226   2.957   0.621   4.176
 2551SOL    HW310227   2.884   0.491   4.149
 2551SOL    MW410228   2.946   0.536   4.191
 2552SOL     OW10229   2.936   0.789   4.146
 2552SOL    HW210230   3.025   0.821   4.161
 2552SOL    HW310231   2.928   0.783   4.051
 2552SOL    MW410232   2.947   0.793   4.136
 2553SOL     OW10233   2.713   0.954   4.231
 2553SOL    HW210234   2.795   0.907   4.219
 2553SOL    HW310235   2.645   0.894   4.201
 2553SOL    MW410236   2.715   0.940   4.226
 2554SOL     OW10237   2.670   1.214   4.152
 2554SOL    HW210238   2.653   1.125   4.180
 2554SOL    HW310239   2.681   1.207   4.057
 2554SOL    MW410240   2.670   1.201   4.143
 2555SOL     OW10241   2.931   1.328   4.196
 2555SOL    HW210242   2.994   1.260   4.176
 2555SOL    HW310243   2.846   1.286   4.185
 2555SOL    MW410244   2.928   1.314   4.192
 2556SOL     OW10245   2.932   1.596   4.138
 2556SOL    HW210246   3.012   1.642   4.162
 2556SOL    HW310247   2.949   1.505   4.161
 2556SOL    MW410248   2.945   1.590   4.144
 2557SOL     OW10249   2.690   1.695   4.227
 2557SOL    HW210250   2.758   1.633   4.200
 2557SOL    HW310251   2.608   1.646   4.219
 2557SOL    MW410252   2.688   1.680   4.223
 2558SOL     OW10253   2.693   1.968   4.131
 2558SOL    HW210254   2.684   1.884   4.176
 2558SOL    HW310255   2.691   1.946   4.038
 2558SOL    MW410256   2.691   1.954   4.125
 2559SOL     OW10257   2.928   2.076   4.249
 2559SOL    HW210258   2.944   2.158   4.202
 2559SOL    HW310259   2.852   2.038   4.204
 2559SOL    MW410260   2.920   2.082   4.237
 2560SOL     OW10261   2.945   2.318   4.134
 2560SOL    HW210262   2.996   2.383   4.182
 2560SOL    HW310263   2.854   2.342   4.150
 2560SOL    MW410264   2.939   2.330   4.143
 2561SOL     OW10265   2.697   2.445   4.201
 2561SOL    HW210266   2.724   2.455   4.293
 2561SOL    HW310267   2.609   2.408   4.206
 2561SOL    MW410268   2.689   2.441   4.214
 2562SOL     OW10269   2.693   2.703   4.088
 2562SOL    HW210270   2.699   2.619   4.134
 2562SOL    HW310271   2.623   2.750   4.134
 2562SOL    MW410272   2.685   2.698   4.100
 2563SOL     OW10273   2.876   2.847   4.231
 2563SOL    HW210274   2.863   2.825   4.323
 2563SOL    HW310275   2.809   2.796   4.184
 2563SOL    MW410276   2.865   2.837   4.237
 2564SOL     OW10277   2.936   3.107   4.148
 2564SOL    HW210278   2.904   3.018   4.165
 2564SOL    HW310279   2.944   3.112   4.053
 2564SOL    MW410280   2.933   3.096   4.137
 2565SOL     OW10281   2.726   3.211   4.296
 2565SOL    HW210282   2.807   3.179   4.255
 2565SOL    HW310283   2.657   3.186   4.235
 2565SOL    MW410284   2.728   3.203   4.282
 2566SOL     OW10285   2.766   3.470   4.147
 2566SOL    HW210286   2.767   3.394   4.205
 2566SOL    HW310287   2.684   3.516   4.168
 2566SOL    MW410288   2.755   3.466   4.157
 2567SOL     OW10289   2.939   3.666   4.235
 2567SOL    HW210290   2.921   3.675   4.329
 2567SOL    HW310291   2.880   3.596   4.206
 2567SOL    MW410292   2.929   3.658   4.244
 2568SOL     OW10293   2.949   3.917   4.114
 2568SOL    HW210294   3.029   3.946   4.157
 2568SOL    HW310295   2.938   3.827   4.143
 2568SOL    MW410296   2.958   3.909   4.124
 2569SOL     OW10297   2.728   4.027   4.233
 2569SOL    HW210298   2.735   4.123   4.238
 2569SOL    HW310299   2.814   3.998   4.203
 2569SOL    MW410300   2.740   4.036   4.230
 2570SOL     OW10301   2.696   4.298   4.196
 2570SOL    HW210302   2.787   4.324   4.208
 2570SOL    HW310303   2.689   4.277   4.103
 2570SOL    MW410304   2.707   4.299   4.185
 2571SOL     OW10305   2.957   4.431   4.249
 2571SOL    HW210306   2.950   4.436   4.344
 2571SOL    HW310307   3.030   4.372   4.233
 2571SOL    MW410308   2.966   4.424   4.259
 2572SOL     OW10309   3.387   0.032   4.212
 2572SOL    HW210310   3.471   0.061   4.246
 2572SOL    HW310311   3.393  -0.064   4.213
 2572SOL    MW410312   3.399   0.023   4.216
 2573SOL     OW10313   3.142   0.167   4.235
 2573SOL    HW210314   3.131   0.179   4.330
 2573SOL    HW310315   3.228   0.125   4.227
 2573SOL    MW410316   3.152   0.163   4.247
 2574SOL     OW10317   3.193   0.416   4.122
 2574SOL    HW210318   3.178   0.333   4.167
 2574SOL    HW310319   3.114   0.468   4.140
 2574SOL    MW410320   3.180   0.412   4.130
 2575SOL     OW10321   3.419   0.587   4.192
 2575SOL    HW210322   3.495   0.530   4.180
 2575SOL    HW310323   3.345   0.533   4.165
 2575SOL    MW410324   3.420   0.572   4.187
 2576SOL     OW10325   3.400   0.842   4.066
 2576SOL    HW210326   3.323   0.877   4.112
 2576SOL    HW310327   3.416   0.757   4.107
 2576SOL    MW410328   3.392   0.836   4.078
 2577SOL     OW10329   3.185   0.916   4.213
 2577SOL    HW210330   3.179   0.916   4.309
 2577SOL    HW310331   3.149   1.000   4.186
 2577SOL    MW410332   3.179   0.927   4.222
 2578SOL     OW10333   3.139   1.156   4.098
 2578SOL    HW210334   3.216   1.196   4.137
 2578SOL    HW310335   3.154   1.163   4.004
 2578SOL    MW410336   3.151   1.162   4.091
 2579SOL     OW10337   3.388   1.271   4.239
 2579SOL    HW210338   3.399   1.280   4.334
 2579SOL    HW310339   3.382   1.361   4.207
 2579SOL    MW410340   3.389   1.284   4.248
 2580SOL     OW10341   3.402   1.544   4.141
 2580SOL    HW210342   3.325   1.602   4.146
 2580SOL    HW310343   3.421   1.539   4.047
 2580SOL    MW410344   3.394   1.551   4.129
 2581SOL     OW10345   3.178   1.695   4.203
 2581SOL    HW210346   3.192   1.709   4.297
 2581SOL    HW310347   3.144   1.779   4.171
 2581SOL    MW410348   3.175   1.708   4.212
 2582SOL     OW10349   3.125   1.946   4.094
 2582SOL    HW210350   3.204   1.989   4.129
 2582SOL    HW310351   3.054   1.979   4.148
 2582SOL    MW410352   3.126   1.956   4.106
 2583SOL     OW10353   3.328   2.036   4.259
 2583SOL    HW210354   3.400   1.995   4.211
 2583SOL    HW310355   3.325   2.126   4.227
 2583SOL    MW410356   3.337   2.042   4.248
 2584SOL     OW10357   3.362   2.313   4.177
 2584SOL    HW210358   3.446   2.352   4.198
 2584SOL    HW310359   3.360   2.310   4.082
 2584SOL    MW410360   3.373   2.318   4.167
 2585SOL     OW10361   3.158   2.487   4.254
 2585SOL    HW210362   3.143   2.575   4.219
 2585SOL    HW310363   3.234   2.454   4.206
 2585SOL    MW410364   3.166   2.495   4.243
 2586SOL     OW10365   3.110   2.731   4.125
 2586SOL    HW210366   3.182   2.770   4.174
 2586SOL    HW310367   3.033   2.781   4.154
 2586SOL    MW410368   3.109   2.743   4.136
 2587SOL     OW10369   3.349   2.840   4.211
 2587SOL    HW210370   3.429   2.800   4.178
 2587SOL    HW310371   3.359   2.934   4.192
 2587SOL    MW410372   3.361   2.847   4.204
 2588SOL     OW10373   3.382   3.106   4.145
 2588SOL    HW210374   3.311   3.157   4.186
 2588SOL    HW310375   3.364   3.112   4.051
 2588SOL    MW410376   3.370   3.114   4.138
 2589SOL     OW10377   3.159   3.229   4.270
 2589SOL    HW210378   3.141   3.321   4.251
 2589SOL    HW310379   3.089   3.181   4.225
 2589SOL    MW410380   3.147   3.235   4.262
 2590SOL     OW10381   3.152   3.511   4.184
 2590SOL    HW210382   3.080   3.567   4.214
 2590SOL    HW310383   3.156   3.526   4.090
 2590SOL    MW410384   3.143   3.521   4.176
 2591SOL     OW10385   3.376   3.677   4.262
 2591SOL    HW210386   3.381   3.691   4.357
 2591SOL    HW310387   3.295   3.626   4.250
 2591SOL    MW410388   3.366   3.672   4.273
 2592SOL     OW10389   3.403   3.923   4.137
 2592SOL    HW210390   3.389   3.833   4.166
 2592SOL    HW310391   3.419   3.916   4.043
 2592SOL    MW410392   3.403   3.910   4.128
 2593SOL     OW10393   3.160   4.021   4.249
 2593SOL    HW210394   3.142   3.982   4.335
 2593SOL    HW310395   3.242   3.982   4.221
 2593SOL    MW410396   3.168   4.011   4.257
 2594SOL     OW10397   3.141   4.273   4.142
 2594SOL    HW210398   3.217   4.329   4.155
 2594SOL    HW310399   3.167   4.188   4.178
 2594SOL    MW410400   3.154   4.269   4.148
 2595SOL     OW10401   3.378   4.415   4.215
 2595SOL    HW210402   3.391   4.392   4.308
 2595SOL    HW310403   3.446   4.365   4.169
 2595SOL    MW410404   3.389   4.405   4.221
 2596SOL     OW10405   3.850   0.004   4.156
 2596SOL    HW210406   3.929   0.053   4.177
 2596SOL    HW310407   3.834   0.023   4.063
 2596SOL    MW410408   3.858   0.013   4.146
 2597SOL     OW10409   3.641   0.136   4.258
 2597SOL    HW210410   3.649   0.227   4.227
 2597SOL    HW310411   3.712   0.089   4.213
 2597SOL    MW410412   3.651   0.142   4.248
 2598SOL     OW10413   3.625   0.415   4.155
 2598SOL    HW210414   3.704   0.455   4.191
 2598SOL    HW310415   3.629   0.434   4.061
 2598SOL    MW410416   3.636   0.423   4.147
 2599SOL     OW10417   3.855   0.488   4.270
 2599SOL    HW210418   3.851   0.494   4.365
 2599SOL    HW310419   3.835   0.576   4.239
 2599SOL    MW410420   3.852   0.500   4.279
 2600SOL     OW10421   3.796   0.725   4.142
 2600SOL    HW210422   3.730   0.791   4.165
 2600SOL    HW310423   3.799   0.726   4.046
 2600SOL    MW410424   3.788   0.734   4.132
 2601SOL     OW10425   3.624   0.940   4.216
 2601SOL    HW210426   3.625   1.031   4.188
 2601SOL    HW310427   3.547   0.902   4.174
 2601SOL    MW410428   3.614   0.947   4.207
 2602SOL     OW10429   3.648   1.210   4.163
 2602SOL    HW210430   3.559   1.232   4.191
 2602SOL    HW310431   3.644   1.212   4.068
 2602SOL    MW410432   3.636   1.213   4.154
 2603SOL     OW10433   3.876   1.346   4.239
 2603SOL    HW210434   3.789   1.315   4.214
 2603SOL    HW310435   3.888   1.426   4.189
 2603SOL    MW410436   3.866   1.352   4.229
 2604SOL     OW10437   3.892   1.587   4.106
 2604SOL    HW210438   3.961   1.640   4.146
 2604SOL    HW310439   3.812   1.614   4.151
 2604SOL    MW410440   3.890   1.597   4.118
 2605SOL     OW10441   3.631   1.665   4.228
 2605SOL    HW210442   3.552   1.620   4.198
 2605SOL    HW310443   3.637   1.644   4.321
 2605SOL    MW410444   3.622   1.656   4.236
 2606SOL     OW10445   3.564   1.932   4.163
 2606SOL    HW210446   3.572   1.840   4.189
 2606SOL    HW310447   3.591   1.934   4.072
 2606SOL    MW410448   3.569   1.920   4.155
 2607SOL     OW10449   3.684   2.106   4.323
 2607SOL    HW210450   3.757   2.059   4.363
 2607SOL    HW310451   3.647   2.044   4.260
 2607SOL    MW410452   3.689   2.092   4.320
 2608SOL     OW10453   3.802   2.325   4.176
 2608SOL    HW210454   3.779   2.239   4.212
 2608SOL    HW310455   3.805   2.311   4.081
 2608SOL    MW410456   3.799   2.312   4.168
 2609SOL     OW10457   3.569   2.474   4.216
 2609SOL    HW210458   3.571   2.508   4.305
 2609SOL    HW310459   3.659   2.443   4.200
 2609SOL    MW410460   3.581   2.474   4.225
 2610SOL     OW10461   3.582   2.731   4.122
 2610SOL    HW210462   3.568   2.637   4.128
 2610SOL    HW310463   3.587   2.750   4.029
 2610SOL    MW410464   3.581   2.721   4.111
 2611SOL     OW10465   3.814   2.845   4.236
 2611SOL    HW210466   3.799   2.891   4.318
 2611SOL    HW310467   3.726   2.823   4.204
 2611SOL    MW410468   3.801   2.848   4.243
 2612SOL     OW10469   3.811   3.112   4.154
 2612SOL    HW210470   3.831   3.021   4.178
 2612SOL    HW310471   3.812   3.112   4.059
 2612SOL    MW410472   3.814   3.100   4.145
 2613SOL     OW10473   3.586   3.257   4.260
 2613SOL    HW210474   3.660   3.206   4.227
 2613SOL    HW310475   3.509   3.214   4.223
 2613SOL    MW410476   3.586   3.245   4.251
 2614SOL     OW10477   3.596   3.525   4.156
 2614SOL    HW210478   3.593   3.438   4.195
 2614SOL    HW310479   3.535   3.578   4.208
 2614SOL    MW410480   3.588   3.521   4.168
 2615SOL     OW10481   3.824   3.645   4.257
 2615SOL    HW210482   3.896   3.588   4.232
 2615SOL    HW310483   3.750   3.614   4.206
 2615SOL    MW410484   3.824   3.633   4.247
 2616SOL     OW10485   3.866   3.901   4.157
 2616SOL    HW210486   3.786   3.947   4.181
 2616SOL    HW310487   3.849   3.809   4.179
 2616SOL    MW410488   3.853   3.895   4.163
 2617SOL     OW10489   3.648   4.030   4.243
 2617SOL    HW210490   3.618   4.040   4.333
 2617SOL    HW310491   3.568   4.007   4.194
 2617SOL    MW410492   3.633   4.028   4.248
 2618SOL     OW10493   3.608   4.285   4.142
 2618SOL    HW210494   3.672   4.341   4.187
 2618SOL    HW310495   3.631   4.196   4.169
 2618SOL    MW410496   3.619   4.281   4.151
 2619SOL     OW10497   3.848   4.417   4.252
 2619SOL    HW210498   3.923   4.361   4.228
 2619SOL    HW310499   3.868   4.502   4.213
 2619SOL    MW410500   3.861   4.420   4.244
 2620SOL     OW10501   4.317   0.015   4.172
 2620SOL    HW210502   4.330  -0.078   4.193
 2620SOL    HW310503   4.390   0.059   4.216
 2620SOL    MW410504   4.329   0.009   4.181
 2621SOL     OW10505   4.090   0.109   4.285
 2621SOL    HW210506   4.097   0.199   4.256
 2621SOL    HW310507   4.161   0.063   4.240
 2621SOL    MW410508   4.100   0.115   4.276
 2622SOL     OW10509   4.085   0.375   4.176
 2622SOL    HW210510   4.150   0.431   4.219
 2622SOL    HW310511   4.001   0.412   4.202
 2622SOL    MW410512   4.083   0.388   4.185
 2623SOL     OW10513   4.286   0.535   4.298
 2623SOL    HW210514   4.297   0.619   4.254
 2623SOL    HW310515   4.362   0.483   4.271
 2623SOL    MW410516   4.298   0.539   4.289
 2624SOL     OW10517   4.290   0.788   4.168
 2624SOL    HW210518   4.200   0.801   4.198
 2624SOL    HW310519   4.281   0.761   4.077
 2624SOL    MW410520   4.277   0.786   4.160
 2625SOL     OW10521   4.022   0.860   4.226
 2625SOL    HW210522   4.004   0.950   4.198
 2625SOL    HW310523   3.950   0.809   4.189
 2625SOL    MW410524   4.010   0.865   4.217
 2626SOL     OW10525   4.014   1.126   4.155
 2626SOL    HW210526   4.094   1.174   4.176
 2626SOL    HW310527   3.943   1.182   4.187
 2626SOL    MW410528   4.015   1.140   4.162
 2627SOL     OW10529   4.283   1.261   4.192
 2627SOL    HW210530   4.269   1.249   4.286
 2627SOL    HW310531   4.366   1.216   4.175
 2627SOL    MW410532   4.292   1.254   4.202
 2628SOL     OW10533   4.285   1.536   4.131
 2628SOL    HW210534   4.282   1.445   4.158
 2628SOL    HW310535   4.266   1.534   4.038
 2628SOL    MW410536   4.282   1.524   4.123
 2629SOL     OW10537   4.112   1.726   4.227
 2629SOL    HW210538   4.126   1.718   4.321
 2629SOL    HW310539   4.176   1.667   4.187
 2629SOL    MW410540   4.122   1.717   4.234
 2630SOL     OW10541   4.024   1.974   4.141
 2630SOL    HW210542   4.052   1.883   4.152
 2630SOL    HW310543   3.973   1.993   4.220
 2630SOL    MW410544   4.021   1.965   4.153
 2631SOL     OW10545   4.465   1.954   4.106
 2631SOL    HW210546   4.551   1.987   4.134
 2631SOL    HW310547   4.402   2.011   4.149
 2631SOL    MW410548   4.468   1.966   4.115
 2632SOL     OW10549   4.238   2.353   4.130
 2632SOL    HW210550   4.160   2.391   4.170
 2632SOL    HW310551   4.241   2.263   4.162
 2632SOL    MW410552   4.228   2.346   4.139
 2633SOL     OW10553   4.023   2.449   4.285
 2633SOL    HW210554   4.038   2.399   4.365
 2633SOL    HW310555   3.944   2.409   4.247
 2633SOL    MW410556   4.014   2.437   4.290
 2634SOL     OW10557   4.061   2.723   4.177
 2634SOL    HW210558   4.050   2.638   4.220
 2634SOL    HW310559   3.979   2.770   4.195
 2634SOL    MW410560   4.049   2.718   4.185
 2635SOL     OW10561   4.277   2.856   4.251
 2635SOL    HW210562   4.197   2.816   4.218
 2635SOL    HW310563   4.347   2.802   4.215
 2635SOL    MW410564   4.276   2.844   4.242
 2636SOL     OW10565   4.246   3.125   4.164
 2636SOL    HW210566   4.262   3.036   4.195
 2636SOL    HW310567   4.254   3.119   4.068
 2636SOL    MW410568   4.249   3.112   4.155
 2637SOL     OW10569   4.016   3.233   4.271
 2637SOL    HW210570   4.092   3.196   4.226
 2637SOL    HW310571   3.940   3.191   4.230
 2637SOL    MW410572   4.016   3.222   4.260
 2638SOL     OW10573   4.063   3.520   4.169
 2638SOL    HW210574   4.043   3.435   4.209
 2638SOL    HW310575   4.057   3.504   4.075
 2638SOL    MW410576   4.060   3.506   4.162
 2639SOL     OW10577   4.300   3.614   4.284
 2639SOL    HW210578   4.290   3.707   4.264
 2639SOL    HW310579   4.224   3.572   4.244
 2639SOL    MW410580   4.289   3.620   4.276
 2640SOL     OW10581   4.312   3.887   4.197
 2640SOL    HW210582   4.242   3.943   4.230
 2640SOL    HW310583   4.299   3.884   4.103
 2640SOL    MW410584   4.301   3.894   4.189
 2641SOL     OW10585   4.097   4.041   4.259
 2641SOL    HW210586   4.089   4.042   4.354
 2641SOL    HW310587   4.027   3.983   4.229
 2641SOL    MW410588   4.087   4.033   4.268
 2642SOL     OW10589   4.077   4.296   4.132
 2642SOL    HW210590   4.156   4.334   4.171
 2642SOL    HW310591   4.078   4.204   4.161
 2642SOL    MW410592   4.088   4.289   4.141
 2643SOL     OW10593   4.232   4.627   4.655
 2643SOL    HW210594   4.283   4.702   4.625
 2643SOL    HW310595   4.141   4.654   4.643
 2643SOL    MW410596   4.226   4.640   4.649
 2644SOL     OW10597   0.077   0.207   4.531
 2644SOL    HW210598   0.095   0.295   4.564
 2644SOL    HW310599  -0.018   0.201   4.529
 2644SOL    MW410600   0.067   0.217   4.535
 2645SOL     OW10601   4.302   4.401   4.520
 2645SOL    HW210602   4.242   4.337   4.559
 2645SOL    HW310603   4.278   4.484   4.561
 2645SOL    MW410604   4.291   4.403   4.531
 2646SOL     OW10605   3.981   0.105   4.564
 2646SOL    HW210606   3.980   0.087   4.470
 2646SOL    HW310607   3.889   0.101   4.589
 2646SOL    MW410608   3.969   0.102   4.555
 2647SOL     OW10609   4.186   1.195   4.784
 2647SOL    HW210610   4.272   1.167   4.814
 2647SOL    HW310611   4.185   1.290   4.799
 2647SOL    MW410612   4.197   1.204   4.790
 2648SOL     OW10613   0.324   0.010   4.517
 2648SOL    HW210614   0.239   0.043   4.546
 2648SOL    HW310615   0.312  -0.084   4.511
 2648SOL    MW410616   0.311   0.002   4.520
 2649SOL     OW10617   0.644   0.821   4.616
 2649SOL    HW210618   0.652   0.727   4.597
 2649SOL    HW310619   0.551   0.840   4.601
 2649SOL    MW410620   0.633   0.811   4.612
 2650SOL     OW10621   4.361   0.853   4.586
 2650SOL    HW210622   4.345   0.758   4.589
 2650SOL    HW310623   4.412   0.866   4.507
 2650SOL    MW410624   4.365   0.842   4.576
 2651SOL     OW10625   0.457   1.394   4.522
 2651SOL    HW210626   0.417   1.309   4.540
 2651SOL    HW310627   0.418   1.453   4.588
 2651SOL    MW410628   0.447   1.391   4.533
 2652SOL     OW10629   0.656   2.032   4.565
 2652SOL    HW210630   0.724   1.969   4.590
 2652SOL    HW310631   0.574   1.987   4.582
 2652SOL    MW410632   0.654   2.018   4.571
 2653SOL     OW10633   4.259   1.242   4.466
 2653SOL    HW210634   4.230   1.152   4.482
 2653SOL    HW310635   4.352   1.242   4.490
 2653SOL    MW410636   4.267   1.230   4.471
 2654SOL     OW10637   0.187   1.943   4.497
 2654SOL    HW210638   0.118   1.880   4.517
 2654SOL    HW310639   0.154   2.026   4.531
 2654SOL    MW410640   0.174   1.946   4.504
 2655SOL     OW10641   0.539   1.626   4.384
 2655SOL    HW210642   0.501   1.544   4.417
 2655SOL    HW310643   0.595   1.599   4.312
 2655SOL    MW410644   0.541   1.612   4.379
 2656SOL     OW10645   0.069   2.187   4.612
 2656SOL    HW210646   0.103   2.174   4.701
 2656SOL    HW310647   0.098   2.275   4.588
 2656SOL    MW410648   0.077   2.197   4.621
 2657SOL     OW10649   4.132   2.318   4.765
 2657SOL    HW210650   4.154   2.410   4.779
 2657SOL    HW310651   4.199   2.286   4.705
 2657SOL    MW410652   4.143   2.326   4.759
 2658SOL     OW10653   0.484   2.702   4.528
 2658SOL    HW210654   0.447   2.731   4.445
 2658SOL    HW310655   0.492   2.607   4.518
 2658SOL    MW410656   0.480   2.693   4.516
 2659SOL     OW10657   0.390   2.925   4.667
 2659SOL    HW210658   0.435   2.850   4.629
 2659SOL    HW310659   0.299   2.914   4.640
 2659SOL    MW410660   0.384   2.914   4.658
 2660SOL     OW10661   4.279   2.459   4.472
 2660SOL    HW210662   4.348   2.514   4.510
 2660SOL    HW310663   4.198   2.491   4.512
 2660SOL    MW410664   4.277   2.470   4.482
 2661SOL     OW10665   4.339   3.351   4.658
 2661SOL    HW210666   4.401   3.286   4.626
 2661SOL    HW310667   4.254   3.322   4.623
 2661SOL    MW410668   4.336   3.338   4.649
 2662SOL     OW10669   0.069   3.179   4.522
 2662SOL    HW210670   0.040   3.154   4.434
 2662SOL    HW310671   0.130   3.252   4.508
 2662SOL    MW410672   0.073   3.185   4.509
 2663SOL     OW10673   4.335   3.850   4.608
 2663SOL    HW210674   4.251   3.877   4.571
 2663SOL    HW310675   4.339   3.755   4.593
 2663SOL    MW410676   4.324   3.841   4.601
 2664SOL     OW10677   4.302   0.194   4.522
 2664SOL    HW210678   4.255   0.244   4.589
 2664SOL    HW310679   4.237   0.177   4.454
 2664SOL    MW410680   4.287   0.199   4.521
 2665SOL     OW10681   3.850   0.506   4.557
 2665SOL    HW210682   3.759   0.475   4.564
 2665SOL    HW310683   3.844   0.601   4.573
 2665SOL    MW410684   3.837   0.515   4.560
 2666SOL     OW10685   4.021   3.553   4.779
 2666SOL    HW210686   4.109   3.590   4.791
 2666SOL    HW310687   3.997   3.520   4.865
 2666SOL    MW410688   4.029   3.554   4.792
 2667SOL     OW10689   3.863   4.252   4.628
 2667SOL    HW210690   3.801   4.322   4.608
 2667SOL    HW310691   3.809   4.181   4.664
 2667SOL    MW410692   3.848   4.252   4.630
 2668SOL     OW10693   0.543   0.021   4.671
 2668SOL    HW210694   0.466   0.016   4.615
 2668SOL    HW310695   0.537  -0.054   4.729
 2668SOL    MW410696   0.532   0.011   4.671
 2669SOL     OW10697   4.463   1.066   4.786
 2669SOL    HW210698   4.414   0.996   4.743
 2669SOL    HW310699   4.538   1.022   4.826
 2669SOL    MW410700   4.466   1.051   4.786
 2670SOL     OW10701   1.427   1.099   4.785
 2670SOL    HW210702   1.424   1.072   4.877
 2670SOL    HW310703   1.360   1.046   4.742
 2670SOL    MW410704   1.418   1.088   4.791
 2671SOL     OW10705   0.715   0.282   4.697
 2671SOL    HW210706   0.788   0.238   4.654
 2671SOL    HW310707   0.643   0.219   4.694
 2671SOL    MW410708   0.715   0.268   4.691
 2672SOL     OW10709   1.217   0.969   4.658
 2672SOL    HW210710   1.275   0.916   4.604
 2672SOL    HW310711   1.130   0.931   4.645
 2672SOL    MW410712   1.213   0.957   4.649
 2673SOL     OW10713   0.374   0.918   4.544
 2673SOL    HW210714   0.336   0.832   4.563
 2673SOL    HW310715   0.411   0.909   4.456
 2673SOL    MW410716   0.374   0.905   4.535
 2674SOL     OW10717   2.107   1.172   4.523
 2674SOL    HW210718   2.091   1.206   4.435
 2674SOL    HW310719   2.175   1.230   4.558
 2674SOL    MW410720   2.114   1.184   4.516
 2675SOL     OW10721   0.783   1.641   4.515
 2675SOL    HW210722   0.797   1.718   4.570
 2675SOL    HW310723   0.690   1.643   4.493
 2675SOL    MW410724   0.773   1.652   4.519
 2676SOL     OW10725   1.282   1.328   4.637
 2676SOL    HW210726   1.322   1.257   4.687
 2676SOL    HW310727   1.188   1.310   4.641
 2676SOL    MW410728   1.275   1.316   4.644
 2677SOL     OW10729   0.894   1.862   4.662
 2677SOL    HW210730   0.955   1.909   4.605
 2677SOL    HW310731   0.951   1.816   4.724
 2677SOL    MW410732   0.910   1.862   4.662
 2678SOL     OW10733   0.694   2.323   4.513
 2678SOL    HW210734   0.778   2.363   4.535
 2678SOL    HW310735   0.703   2.232   4.541
 2678SOL    MW410736   0.707   2.316   4.519
 2679SOL     OW10737   1.095   1.693   4.823
 2679SOL    HW210738   1.095   1.661   4.913
 2679SOL    HW310739   1.181   1.667   4.788
 2679SOL    MW410740   1.106   1.685   4.830
 2680SOL     OW10741   0.149   2.417   4.490
 2680SOL    HW210742   0.116   2.428   4.401
 2680SOL    HW310743   0.244   2.419   4.481
 2680SOL    MW410744   0.157   2.419   4.477
 2681SOL     OW10745   1.080   2.686   4.561
 2681SOL    HW210746   1.087   2.777   4.532
 2681SOL    HW310747   1.149   2.676   4.627
 2681SOL    MW410748   1.090   2.696   4.566
 2682SOL     OW10749   0.430   2.420   4.452
 2682SOL    HW210750   0.514   2.383   4.480
 2682SOL    HW310751   0.441   2.433   4.358
 2682SOL    MW410752   0.443   2.417   4.443
 2683SOL     OW10753   1.376   2.938   4.603
 2683SOL    HW210754   1.295   2.943   4.552
 2683SOL    HW310755   1.364   2.863   4.660
 2683SOL    MW410756   1.363   2.929   4.604
 2684SOL     OW10757   0.626   3.133   4.615
 2684SOL    HW210758   0.584   3.213   4.582
 2684SOL    HW310759   0.553   3.078   4.644
 2684SOL    MW410760   0.611   3.137   4.614
 2685SOL     OW10761   1.303   4.484   4.634
 2685SOL    HW210762   1.231   4.434   4.596
 2685SOL    HW310763   1.382   4.435   4.609
 2685SOL    MW410764   1.304   4.471   4.626
 2686SOL     OW10765   4.474   2.643   4.580
 2686SOL    HW210766   4.547   2.584   4.563
 2686SOL    HW310767   4.511   2.731   4.575
 2686SOL    MW410768   4.488   2.647   4.577
 2687SOL     OW10769   4.440   3.589   4.537
 2687SOL    HW210770   4.400   3.517   4.585
 2687SOL    HW310771   4.409   3.579   4.447
 2687SOL    MW410772   4.431   3.578   4.531
 2688SOL     OW10773   0.775   4.352   4.532
 2688SOL    HW210774   0.774   4.436   4.579
 2688SOL    HW310775   0.715   4.365   4.459
 2688SOL    MW410776   0.767   4.365   4.529
 2689SOL     OW10777   0.060   4.300   4.520
 2689SOL    HW210778   0.048   4.205   4.528
 2689SOL    HW310779  -0.029   4.335   4.526
 2689SOL    MW410780   0.046   4.292   4.522
 2690SOL     OW10781   0.067   4.013   4.534
 2690SOL    HW210782   0.135   3.946   4.543
 2690SOL    HW310783  -0.013   3.971   4.566
 2690SOL    MW410784   0.066   3.999   4.540
 2691SOL     OW10785   0.313   4.412   4.541
 2691SOL    HW210786   0.375   4.339   4.546
 2691SOL    HW310787   0.227   4.371   4.548
 2691SOL    MW410788   0.310   4.397   4.542
 2692SOL     OW10789   1.209   0.253   4.616
 2692SOL    HW210790   1.207   0.273   4.710
 2692SOL    HW310791   1.124   0.213   4.598
 2692SOL    MW410792   1.197   0.250   4.626
 2693SOL     OW10793   0.961   0.159   4.573
 2693SOL    HW210794   0.968   0.164   4.478
 2693SOL    HW310795   0.909   0.080   4.589
 2693SOL    MW410796   0.955   0.149   4.563
 2694SOL     OW10797   0.681   0.537   4.579
 2694SOL    HW210798   0.680   0.503   4.489
 2694SOL    HW310799   0.695   0.459   4.633
 2694SOL    MW410800   0.683   0.522   4.574
 2695SOL     OW10801   1.646   1.122   4.611
 2695SOL    HW210802   1.587   1.101   4.684
 2695SOL    HW310803   1.725   1.156   4.653
 2695SOL    MW410804   1.649   1.124   4.626
 2696SOL     OW10805   1.766   0.860   4.568
 2696SOL    HW210806   1.716   0.941   4.575
 2696SOL    HW310807   1.802   0.861   4.479
 2696SOL    MW410808   1.764   0.871   4.558
 2697SOL     OW10809   0.293   1.173   4.544
 2697SOL    HW210810   0.313   1.079   4.537
 2697SOL    HW310811   0.200   1.179   4.525
 2697SOL    MW410812   0.284   1.161   4.541
 2698SOL     OW10813   0.754   1.361   4.546
 2698SOL    HW210814   0.771   1.455   4.532
 2698SOL    HW310815   0.662   1.357   4.570
 2698SOL    MW410816   0.744   1.373   4.547
 2699SOL     OW10817   0.919   0.894   4.583
 2699SOL    HW210818   0.824   0.895   4.593
 2699SOL    HW310819   0.934   0.903   4.489
 2699SOL    MW410820   0.909   0.895   4.572
 2700SOL     OW10821   1.904   1.207   4.717
 2700SOL    HW210822   1.935   1.141   4.780
 2700SOL    HW310823   1.957   1.193   4.639
 2700SOL    MW410824   1.915   1.196   4.715
 2701SOL     OW10825   1.015   1.241   4.554
 2701SOL    HW210826   1.010   1.163   4.609
 2701SOL    HW310827   0.924   1.270   4.546
 2701SOL    MW410828   1.002   1.235   4.560
 2702SOL     OW10829   1.206   2.292   4.539
 2702SOL    HW210830   1.139   2.353   4.507
 2702SOL    HW310831   1.289   2.337   4.522
 2702SOL    MW410832   1.208   2.306   4.532
 2703SOL     OW10833   1.307   2.670   4.703
 2703SOL    HW210834   1.321   2.596   4.645
 2703SOL    HW310835   1.350   2.645   4.785
 2703SOL    MW410836   1.314   2.657   4.707
 2704SOL     OW10837   1.637   2.874   4.510
 2704SOL    HW210838   1.561   2.911   4.554
 2704SOL    HW310839   1.690   2.950   4.484
 2704SOL    MW410840   1.634   2.888   4.512
 2705SOL     OW10841   1.495   3.483   4.484
 2705SOL    HW210842   1.579   3.506   4.521
 2705SOL    HW310843   1.483   3.391   4.507
 2705SOL    MW410844   1.504   3.474   4.492
 2706SOL     OW10845   0.756   2.784   4.507
 2706SOL    HW210846   0.818   2.720   4.541
 2706SOL    HW310847   0.676   2.770   4.557
 2706SOL    MW410848   0.753   2.774   4.518
 2707SOL     OW10849   0.583   3.941   4.516
 2707SOL    HW210850   0.673   3.975   4.506
 2707SOL    HW310851   0.543   3.955   4.430
 2707SOL    MW410852   0.590   3.948   4.503
 2708SOL     OW10853   1.133   2.951   4.478
 2708SOL    HW210854   1.126   2.922   4.387
 2708SOL    HW310855   1.049   2.991   4.498
 2708SOL    MW410856   1.121   2.952   4.469
 2709SOL     OW10857   0.859   3.049   4.493
 2709SOL    HW210858   0.785   3.105   4.517
 2709SOL    HW310859   0.821   2.961   4.486
 2709SOL    MW410860   0.844   3.044   4.495
 2710SOL     OW10861   1.746   3.584   4.568
 2710SOL    HW210862   1.758   3.678   4.582
 2710SOL    HW310863   1.833   3.551   4.544
 2710SOL    MW410864   1.759   3.592   4.567
 2711SOL     OW10865   0.497   3.353   4.506
 2711SOL    HW210866   0.539   3.432   4.539
 2711SOL    HW310867   0.404   3.372   4.509
 2711SOL    MW410868   0.491   3.366   4.511
 2712SOL     OW10869   0.509   4.213   4.583
 2712SOL    HW210870   0.597   4.249   4.590
 2712SOL    HW310871   0.521   4.119   4.585
 2712SOL    MW410872   0.522   4.206   4.584
 2713SOL     OW10873   0.841   4.082   4.529
 2713SOL    HW210874   0.834   4.178   4.531
 2713SOL    HW310875   0.866   4.062   4.439
 2713SOL    MW410876   0.844   4.092   4.517
 2714SOL     OW10877   0.773   4.622   4.537
 2714SOL    HW210878   0.694   4.654   4.580
 2714SOL    HW310879   0.758   4.636   4.444
 2714SOL    MW410880   0.761   4.628   4.530
 2715SOL     OW10881   1.590   4.163   4.878
 2715SOL    HW210882   1.575   4.103   4.951
 2715SOL    HW310883   1.514   4.221   4.879
 2715SOL    MW410884   1.578   4.163   4.887
 2716SOL     OW10885   1.554   4.390   4.549
 2716SOL    HW210886   1.638   4.431   4.566
 2716SOL    HW310887   1.542   4.398   4.454
 2716SOL    MW410888   1.563   4.396   4.539
 2717SOL     OW10889   1.067   4.354   4.539
 2717SOL    HW210890   1.094   4.269   4.574
 2717SOL    HW310891   0.972   4.354   4.549
 2717SOL    MW410892   1.058   4.342   4.545
 2718SOL     OW10893   1.200   0.509   4.483
 2718SOL    HW210894   1.120   0.545   4.520
 2718SOL    HW310895   1.207   0.421   4.522
 2718SOL    MW410896   1.191   0.502   4.493
 2719SOL     OW10897   1.680   0.111   4.536
 2719SOL    HW210898   1.588   0.083   4.541
 2719SOL    HW310899   1.727   0.046   4.589
 2719SOL    MW410900   1.674   0.099   4.544
 2720SOL     OW10901   1.343   0.764   4.520
 2720SOL    HW210902   1.288   0.686   4.517
 2720SOL    HW310903   1.340   0.800   4.432
 2720SOL    MW410904   1.336   0.758   4.508
 2721SOL     OW10905   1.851   1.515   4.769
 2721SOL    HW210906   1.870   1.422   4.759
 2721SOL    HW310907   1.859   1.532   4.863
 2721SOL    MW410908   1.855   1.505   4.780
 2722SOL     OW10909   0.956   0.623   4.572
 2722SOL    HW210910   0.946   0.718   4.580
 2722SOL    HW310911   0.868   0.588   4.586
 2722SOL    MW410912   0.943   0.631   4.575
 2723SOL     OW10913   2.066   0.504   4.532
 2723SOL    HW210914   2.125   0.431   4.551
 2723SOL    HW310915   1.979   0.468   4.546
 2723SOL    MW410916   2.063   0.489   4.536
 2724SOL     OW10917   1.520   1.369   4.522
 2724SOL    HW210918   1.428   1.369   4.550
 2724SOL    HW310919   1.553   1.283   4.547
 2724SOL    MW410920   1.512   1.358   4.529
 2725SOL     OW10921   1.315   1.834   4.519
 2725SOL    HW210922   1.311   1.759   4.578
 2725SOL    HW310923   1.333   1.796   4.433
 2725SOL    MW410924   1.317   1.819   4.516
 2726SOL     OW10925   1.683   2.455   4.501
 2726SOL    HW210926   1.737   2.521   4.543
 2726SOL    HW310927   1.731   2.373   4.512
 2726SOL    MW410928   1.696   2.453   4.508
 2727SOL     OW10929   1.978   2.363   4.619
 2727SOL    HW210930   1.918   2.289   4.609
 2727SOL    HW310931   1.927   2.430   4.665
 2727SOL    MW410932   1.964   2.362   4.624
 2728SOL     OW10933   0.972   2.445   4.496
 2728SOL    HW210934   0.998   2.533   4.523
 2728SOL    HW310935   0.936   2.457   4.407
 2728SOL    MW410936   0.970   2.458   4.487
 2729SOL     OW10937   1.349   3.997   4.470
 2729SOL    HW210938   1.356   3.901   4.464
 2729SOL    HW310939   1.430   4.024   4.513
 2729SOL    MW410940   1.361   3.988   4.475
 2730SOL     OW10941   1.403   2.475   4.517
 2730SOL    HW210942   1.363   2.471   4.430
 2730SOL    HW310943   1.494   2.451   4.503
 2730SOL    MW410944   1.410   2.471   4.504
 2731SOL     OW10945   1.834   2.686   4.558
 2731SOL    HW210946   1.766   2.752   4.546
 2731SOL    HW310947   1.916   2.735   4.552
 2731SOL    MW410948   1.836   2.701   4.556
 2732SOL     OW10949   1.454   3.190   4.496
 2732SOL    HW210950   1.537   3.143   4.489
 2732SOL    HW310951   1.391   3.125   4.527
 2732SOL    MW410952   1.456   3.175   4.499
 2733SOL     OW10953   1.357   3.729   4.469
 2733SOL    HW210954   1.412   3.660   4.505
 2733SOL    HW310955   1.295   3.683   4.412
 2733SOL    MW410956   1.356   3.714   4.466
 2734SOL     OW10957   0.622   3.623   4.535
 2734SOL    HW210958   0.571   3.704   4.535
 2734SOL    HW310959   0.687   3.635   4.605
 2734SOL    MW410960   0.624   3.635   4.545
 2735SOL     OW10961   2.063   3.527   4.464
 2735SOL    HW210962   2.076   3.557   4.374
 2735SOL    HW310963   2.079   3.433   4.460
 2735SOL    MW410964   2.067   3.518   4.451
 2736SOL     OW10965   1.751   3.118   4.472
 2736SOL    HW210966   1.828   3.136   4.526
 2736SOL    HW310967   1.765   3.171   4.393
 2736SOL    MW410968   1.763   3.127   4.468
 2737SOL     OW10969   2.247   3.616   4.682
 2737SOL    HW210970   2.218   3.707   4.689
 2737SOL    HW310971   2.199   3.581   4.608
 2737SOL    MW410972   2.237   3.623   4.673
 2738SOL     OW10973   1.149   4.111   4.627
 2738SOL    HW210974   1.076   4.054   4.602
 2738SOL    HW310975   1.227   4.067   4.592
 2738SOL    MW410976   1.150   4.097   4.620
 2739SOL     OW10977   1.799   4.367   4.853
 2739SOL    HW210978   1.883   4.322   4.861
 2739SOL    HW310979   1.737   4.297   4.831
 2739SOL    MW410980   1.802   4.352   4.851
 2740SOL     OW10981   2.267   0.370   4.658
 2740SOL    HW210982   2.322   0.444   4.634
 2740SOL    HW310983   2.266   0.371   4.754
 2740SOL    MW410984   2.274   0.380   4.667
 2741SOL     OW10985   1.399   0.065   4.538
 2741SOL    HW210986   1.360   0.141   4.581
 2741SOL    HW310987   1.359  -0.011   4.582
 2741SOL    MW410988   1.388   0.065   4.549
 2742SOL     OW10989   1.803   0.406   4.559
 2742SOL    HW210990   1.763   0.320   4.556
 2742SOL    HW310991   1.729   0.467   4.560
 2742SOL    MW410992   1.788   0.403   4.559
 2743SOL     OW10993   2.337   0.127   4.527
 2743SOL    HW210994   2.307   0.140   4.437
 2743SOL    HW310995   2.289   0.192   4.578
 2743SOL    MW410996   2.326   0.137   4.522
 2744SOL     OW10997   2.031   0.779   4.662
 2744SOL    HW210998   2.046   0.685   4.654
 2744SOL    HW310999   1.942   0.792   4.629
 2744SOL    MW411000   2.021   0.769   4.657
 2745SOL     OW11001   1.596   0.613   4.548
 2745SOL    HW211002   1.646   0.688   4.579
 2745SOL    HW311003   1.506   0.645   4.540
 2745SOL    MW411004   1.591   0.627   4.551
 2746SOL     OW11005   2.129   1.530   4.664
 2746SOL    HW211006   2.182   1.468   4.714
 2746SOL    HW311007   2.042   1.526   4.705
 2746SOL    MW411008   2.124   1.521   4.676
 2747SOL     OW11009   1.093   2.016   4.498
 2747SOL    HW211010   1.172   1.966   4.520
 2747SOL    HW311011   1.103   2.098   4.546
 2747SOL    MW411012   1.105   2.020   4.507
 2748SOL     OW11013   1.607   1.598   4.660
 2748SOL    HW211014   1.576   1.518   4.617
 2748SOL    HW311015   1.692   1.574   4.696
 2748SOL    MW411016   1.614   1.584   4.659
 2749SOL     OW11017   1.574   1.956   4.449
 2749SOL    HW211018   1.486   1.928   4.474
 2749SOL    HW311019   1.631   1.884   4.476
 2749SOL    MW411020   1.570   1.943   4.456
 2750SOL     OW11021   1.781   1.782   4.530
 2750SOL    HW211022   1.725   1.725   4.583
 2750SOL    HW311023   1.795   1.733   4.449
 2750SOL    MW411024   1.775   1.768   4.526
 2751SOL     OW11025   1.983   1.993   4.505
 2751SOL    HW211026   1.927   1.916   4.499
 2751SOL    HW311027   2.010   2.010   4.414
 2751SOL    MW411028   1.980   1.985   4.492
 2752SOL     OW11029   1.778   2.177   4.530
 2752SOL    HW211030   1.706   2.121   4.504
 2752SOL    HW311031   1.857   2.128   4.505
 2752SOL    MW411032   1.779   2.163   4.523
 2753SOL     OW11033   2.219   2.454   4.526
 2753SOL    HW211034   2.139   2.412   4.558
 2753SOL    HW311035   2.208   2.456   4.431
 2753SOL    MW411036   2.207   2.449   4.518
 2754SOL     OW11037   2.271   2.712   4.624
 2754SOL    HW211038   2.336   2.686   4.689
 2754SOL    HW311039   2.234   2.629   4.592
 2754SOL    MW411040   2.274   2.698   4.628
 2755SOL     OW11041   1.576   4.112   4.589
 2755SOL    HW211042   1.564   4.200   4.553
 2755SOL    HW311043   1.592   4.127   4.683
 2755SOL    MW411044   1.577   4.126   4.597
 2756SOL     OW11045   2.156   3.269   4.415
 2756SOL    HW211046   2.183   3.262   4.323
 2756SOL    HW311047   2.229   3.233   4.465
 2756SOL    MW411048   2.169   3.263   4.409
 2757SOL     OW11049   1.994   3.173   4.608
 2757SOL    HW211050   2.011   3.226   4.686
 2757SOL    HW311051   2.049   3.212   4.540
 2757SOL    MW411052   2.003   3.185   4.609
 2758SOL     OW11053   2.479   3.694   4.516
 2758SOL    HW211054   2.402   3.689   4.572
 2758SOL    HW311055   2.509   3.785   4.524
 2758SOL    MW411056   2.473   3.706   4.524
 2759SOL     OW11057   1.954   4.057   4.597
 2759SOL    HW211058   1.884   3.991   4.602
 2759SOL    HW311059   1.937   4.102   4.514
 2759SOL    MW411060   1.942   4.054   4.587
 2760SOL     OW11061   2.206   3.914   4.642
 2760SOL    HW211062   2.127   3.957   4.609
 2760SOL    HW311063   2.278   3.953   4.593
 2760SOL    MW411064   2.205   3.925   4.631
 2761SOL     OW11065   1.743   3.870   4.547
 2761SOL    HW211066   1.671   3.930   4.566
 2761SOL    HW311067   1.751   3.870   4.452
 2761SOL    MW411068   1.735   3.878   4.537
 2762SOL     OW11069   2.049   4.257   4.803
 2762SOL    HW211070   2.143   4.269   4.792
 2762SOL    HW311071   2.031   4.170   4.766
 2762SOL    MW411072   2.059   4.247   4.797
 2763SOL     OW11073   1.793   4.532   4.617
 2763SOL    HW211074   1.862   4.477   4.580
 2763SOL    HW311075   1.795   4.512   4.711
 2763SOL    MW411076   1.803   4.522   4.625
 2764SOL     OW11077   2.031   4.385   4.551
 2764SOL    HW211078   2.043   4.338   4.633
 2764SOL    HW311079   2.111   4.436   4.540
 2764SOL    MW411080   2.043   4.386   4.561
 2765SOL     OW11081   2.277   4.492   4.495
 2765SOL    HW211082   2.337   4.477   4.422
 2765SOL    HW311083   2.263   4.587   4.494
 2765SOL    MW411084   2.283   4.503   4.485
 2766SOL     OW11085   1.318   1.602   4.679
 2766SOL    HW211086   1.412   1.597   4.696
 2766SOL    HW311087   1.297   1.517   4.640
 2766SOL    MW411088   1.327   1.590   4.676
 2767SOL     OW11089   2.649   0.138   4.504
 2767SOL    HW211090   2.560   0.153   4.537
 2767SOL    HW311091   2.640   0.144   4.409
 2767SOL    MW411092   2.636   0.141   4.496
 2768SOL     OW11093   2.474   0.861   4.635
 2768SOL    HW211094   2.399   0.884   4.579
 2768SOL    HW311095   2.551   0.886   4.583
 2768SOL    MW411096   2.474   0.868   4.621
 2769SOL     OW11097   2.937   0.766   4.548
 2769SOL    HW211098   3.004   0.832   4.530
 2769SOL    HW311099   2.972   0.685   4.512
 2769SOL    MW411100   2.950   0.764   4.541
 2770SOL     OW11101   2.276   1.295   4.695
 2770SOL    HW211102   2.293   1.210   4.735
 2770SOL    HW311103   2.355   1.315   4.645
 2770SOL    MW411104   2.288   1.286   4.693
 2771SOL     OW11105   2.479   1.328   4.514
 2771SOL    HW211106   2.552   1.268   4.529
 2771SOL    HW311107   2.512   1.413   4.540
 2771SOL    MW411108   2.493   1.331   4.519
 2772SOL     OW11109   2.563   1.578   4.579
 2772SOL    HW211110   2.629   1.645   4.558
 2772SOL    HW311111   2.482   1.627   4.589
 2772SOL    MW411112   2.561   1.594   4.577
 2773SOL     OW11113   2.307   1.727   4.559
 2773SOL    HW211114   2.278   1.815   4.583
 2773SOL    HW311115   2.242   1.668   4.598
 2773SOL    MW411116   2.295   1.731   4.568
 2774SOL     OW11117   2.233   1.984   4.636
 2774SOL    HW211118   2.143   1.971   4.608
 2774SOL    HW311119   2.231   1.976   4.731
 2774SOL    MW411120   2.221   1.981   4.645
 2775SOL     OW11121   2.466   2.134   4.524
 2775SOL    HW211122   2.382   2.101   4.555
 2775SOL    HW311123   2.531   2.077   4.565
 2775SOL    MW411124   2.464   2.123   4.534
 2776SOL     OW11125   2.760   2.465   4.464
 2776SOL    HW211126   2.666   2.460   4.478
 2776SOL    HW311127   2.782   2.557   4.476
 2776SOL    MW411128   2.751   2.476   4.467
 2777SOL     OW11129   2.447   2.625   4.806
 2777SOL    HW211130   2.513   2.693   4.794
 2777SOL    HW311131   2.475   2.554   4.749
 2777SOL    MW411132   2.459   2.625   4.797
 2778SOL     OW11133   2.038   2.901   4.537
 2778SOL    HW211134   2.008   2.975   4.590
 2778SOL    HW311135   2.116   2.869   4.582
 2778SOL    MW411136   2.044   2.907   4.550
 2779SOL     OW11137   2.449   2.879   4.493
 2779SOL    HW211138   2.382   2.819   4.524
 2779SOL    HW311139   2.419   2.966   4.520
 2779SOL    MW411140   2.436   2.883   4.501
 2780SOL     OW11141   2.358   3.152   4.596
 2780SOL    HW211142   2.432   3.199   4.557
 2780SOL    HW311143   2.339   3.199   4.677
 2780SOL    MW411144   2.365   3.164   4.601
 2781SOL     OW11145   1.335   4.288   4.826
 2781SOL    HW211146   1.331   4.368   4.773
 2781SOL    HW311147   1.267   4.232   4.789
 2781SOL    MW411148   1.326   4.291   4.814
 2782SOL     OW11149   2.685   3.941   4.505
 2782SOL    HW211150   2.597   3.976   4.518
 2782SOL    HW311151   2.714   3.979   4.422
 2782SOL    MW411152   2.677   3.951   4.496
 2783SOL     OW11153   2.173   3.355   4.843
 2783SOL    HW211154   2.136   3.351   4.931
 2783SOL    HW311155   2.211   3.443   4.836
 2783SOL    MW411156   2.173   3.366   4.853
 2784SOL     OW11157   3.348   3.966   4.866
 2784SOL    HW211158   3.313   4.055   4.877
 2784SOL    HW311159   3.307   3.916   4.937
 2784SOL    MW411160   3.338   3.971   4.877
 2785SOL     OW11161   3.077   3.963   4.505
 2785SOL    HW211162   3.013   3.891   4.507
 2785SOL    HW311163   3.154   3.927   4.548
 2785SOL    MW411164   3.078   3.949   4.511
 2786SOL     OW11165   2.415   4.064   4.545
 2786SOL    HW211166   2.378   4.132   4.601
 2786SOL    HW311167   2.373   4.077   4.460
 2786SOL    MW411168   2.405   4.074   4.541
 2787SOL     OW11169   2.328   4.299   4.693
 2787SOL    HW211170   2.316   4.352   4.615
 2787SOL    HW311171   2.393   4.346   4.745
 2787SOL    MW411172   2.335   4.312   4.690
 2788SOL     OW11173   3.057   0.489   4.455
 2788SOL    HW211174   3.040   0.496   4.361
 2788SOL    HW311175   3.149   0.511   4.464
 2788SOL    MW411176   3.067   0.493   4.443
 2789SOL     OW11177   2.899   0.018   4.577
 2789SOL    HW211178   2.964   0.079   4.541
 2789SOL    HW311179   2.816   0.067   4.572
 2789SOL    MW411180   2.896   0.033   4.571
 2790SOL     OW11181   3.058   0.216   4.490
 2790SOL    HW211182   3.058   0.312   4.490
 2790SOL    HW311183   3.128   0.192   4.551
 2790SOL    MW411184   3.067   0.225   4.498
 2791SOL     OW11185   2.708   0.948   4.507
 2791SOL    HW211186   2.772   0.882   4.534
 2791SOL    HW311187   2.703   0.939   4.412
 2791SOL    MW411188   2.715   0.938   4.498
 2792SOL     OW11189   3.577   0.675   4.772
 2792SOL    HW211190   3.659   0.709   4.738
 2792SOL    HW311191   3.578   0.582   4.750
 2792SOL    MW411192   3.588   0.667   4.765
 2793SOL     OW11193   2.226   0.913   4.479
 2793SOL    HW211194   2.187   0.996   4.505
 2793SOL    HW311195   2.175   0.847   4.526
 2793SOL    MW411196   2.214   0.915   4.489
 2794SOL     OW11197   2.767   1.207   4.557
 2794SOL    HW211198   2.843   1.238   4.508
 2794SOL    HW311199   2.757   1.116   4.529
 2794SOL    MW411200   2.776   1.199   4.547
 2795SOL     OW11201   3.005   1.339   4.455
 2795SOL    HW211202   3.000   1.429   4.488
 2795SOL    HW311203   2.986   1.347   4.362
 2795SOL    MW411204   3.002   1.352   4.447
 2796SOL     OW11205   2.968   1.586   4.574
 2796SOL    HW211206   2.908   1.654   4.545
 2796SOL    HW311207   2.917   1.533   4.636
 2796SOL    MW411208   2.954   1.588   4.578
 2797SOL     OW11209   2.763   1.778   4.517
 2797SOL    HW211210   2.735   1.853   4.569
 2797SOL    HW311211   2.744   1.802   4.427
 2797SOL    MW411212   2.757   1.791   4.512
 2798SOL     OW11213   2.719   2.030   4.652
 2798SOL    HW211214   2.721   2.046   4.747
 2798SOL    HW311215   2.792   2.082   4.618
 2798SOL    MW411216   2.729   2.039   4.660
 2799SOL     OW11217   2.897   2.195   4.503
 2799SOL    HW211218   2.858   2.279   4.480
 2799SOL    HW311219   2.910   2.151   4.418
 2799SOL    MW411220   2.894   2.200   4.488
 2800SOL     OW11221   3.148   2.219   4.615
 2800SOL    HW211222   3.132   2.242   4.706
 2800SOL    HW311223   3.062   2.223   4.574
 2800SOL    MW411224   3.134   2.223   4.622
 2801SOL     OW11225   2.492   2.432   4.586
 2801SOL    HW211226   2.500   2.338   4.571
 2801SOL    HW311227   2.400   2.452   4.564
 2801SOL    MW411228   2.481   2.423   4.581
 2802SOL     OW11229   3.009   2.981   4.661
 2802SOL    HW211230   3.078   3.040   4.630
 2802SOL    HW311231   3.041   2.893   4.641
 2802SOL    MW411232   3.022   2.977   4.654
 2803SOL     OW11233   2.647   2.821   4.663
 2803SOL    HW211234   2.680   2.903   4.699
 2803SOL    HW311235   2.578   2.847   4.601
 2803SOL    MW411236   2.642   2.835   4.660
 2804SOL     OW11237   2.602   3.256   4.550
 2804SOL    HW211238   2.644   3.190   4.605
 2804SOL    HW311239   2.640   3.244   4.463
 2804SOL    MW411240   2.612   3.246   4.546
 2805SOL     OW11241   2.756   3.070   4.730
 2805SOL    HW211242   2.845   3.060   4.694
 2805SOL    HW311243   2.769   3.122   4.810
 2805SOL    MW411244   2.770   3.076   4.736
 2806SOL     OW11245   2.867   3.738   4.513
 2806SOL    HW211246   2.790   3.795   4.508
 2806SOL    HW311247   2.838   3.663   4.566
 2806SOL    MW411248   2.853   3.735   4.519
 2807SOL     OW11249   3.320   3.894   4.604
 2807SOL    HW211250   3.371   3.814   4.593
 2807SOL    HW311251   3.336   3.922   4.694
 2807SOL    MW411252   3.329   3.887   4.615
 2808SOL     OW11253   3.896   3.839   4.672
 2808SOL    HW211254   3.904   3.778   4.745
 2808SOL    HW311255   3.857   3.787   4.602
 2808SOL    MW411256   3.892   3.824   4.673
 2809SOL     OW11257   2.708   3.515   4.614
 2809SOL    HW211258   2.631   3.568   4.596
 2809SOL    HW311259   2.677   3.425   4.605
 2809SOL    MW411260   2.694   3.510   4.611
 2810SOL     OW11261   2.911   4.148   4.644
 2810SOL    HW211262   2.837   4.090   4.662
 2810SOL    HW311263   2.981   4.090   4.614
 2810SOL    MW411264   2.910   4.133   4.642
 2811SOL     OW11265   2.974   4.417   4.523
 2811SOL    HW211266   2.925   4.347   4.566
 2811SOL    HW311267   2.929   4.497   4.550
 2811SOL    MW411268   2.962   4.419   4.532
 2812SOL     OW11269   3.345   0.527   4.461
 2812SOL    HW211270   3.381   0.541   4.374
 2812SOL    HW311271   3.347   0.614   4.501
 2812SOL    MW411272   3.350   0.541   4.455
 2813SOL     OW11273   2.452   0.582   4.595
 2813SOL    HW211274   2.539   0.549   4.575
 2813SOL    HW311275   2.465   0.676   4.608
 2813SOL    MW411276   2.465   0.590   4.594
 2814SOL     OW11277   2.338   1.044   4.798
 2814SOL    HW211278   2.385   0.989   4.735
 2814SOL    HW311279   2.275   0.986   4.839
 2814SOL    MW411280   2.336   1.029   4.795
 2815SOL     OW11281   2.684   0.425   4.460
 2815SOL    HW211282   2.692   0.329   4.468
 2815SOL    HW311283   2.772   0.457   4.480
 2815SOL    MW411284   2.697   0.416   4.464
 2816SOL     OW11285   3.395   0.777   4.590
 2816SOL    HW211286   3.467   0.813   4.539
 2816SOL    HW311287   3.437   0.734   4.665
 2816SOL    MW411288   3.410   0.776   4.593
 2817SOL     OW11289   3.447   1.283   4.508
 2817SOL    HW211290   3.372   1.265   4.566
 2817SOL    HW311291   3.519   1.233   4.546
 2817SOL    MW411292   3.446   1.274   4.521
 2818SOL     OW11293   2.773   1.435   4.721
 2818SOL    HW211294   2.697   1.473   4.676
 2818SOL    HW311295   2.795   1.357   4.669
 2818SOL    MW411296   2.766   1.430   4.708
 2819SOL     OW11297   3.960   1.030   4.682
 2819SOL    HW211298   4.000   1.081   4.752
 2819SOL    HW311299   4.032   1.013   4.621
 2819SOL    MW411300   3.975   1.035   4.683
 2820SOL     OW11301   3.465   1.556   4.632
 2820SOL    HW211302   3.394   1.600   4.586
 2820SOL    HW311303   3.468   1.468   4.593
 2820SOL    MW411304   3.456   1.550   4.621
 2821SOL     OW11305   3.244   1.676   4.497
 2821SOL    HW211306   3.252   1.769   4.517
 2821SOL    HW311307   3.169   1.646   4.549
 2821SOL    MW411308   3.235   1.684   4.507
 2822SOL     OW11309   3.271   1.965   4.520
 2822SOL    HW211310   3.226   2.044   4.550
 2822SOL    HW311311   3.286   1.980   4.427
 2822SOL    MW411312   3.267   1.977   4.512
 2823SOL     OW11313   3.708   1.852   4.682
 2823SOL    HW211314   3.670   1.916   4.622
 2823SOL    HW311315   3.639   1.835   4.746
 2823SOL    MW411316   3.694   1.858   4.683
 2824SOL     OW11317   2.828   2.738   4.483
 2824SOL    HW211318   2.774   2.784   4.547
 2824SOL    HW311319   2.918   2.747   4.517
 2824SOL    MW411320   2.833   2.745   4.496
 2825SOL     OW11321   3.519   2.530   4.475
 2825SOL    HW211322   3.432   2.510   4.511
 2825SOL    HW311323   3.536   2.620   4.503
 2825SOL    MW411324   3.509   2.539   4.483
 2826SOL     OW11325   3.249   2.472   4.507
 2826SOL    HW211326   3.204   2.461   4.423
 2826SOL    HW311327   3.249   2.384   4.545
 2826SOL    MW411328   3.243   2.459   4.501
 2827SOL     OW11329   3.620   2.803   4.541
 2827SOL    HW211330   3.660   2.888   4.523
 2827SOL    HW311331   3.693   2.748   4.569
 2827SOL    MW411332   3.635   2.807   4.542
 2828SOL     OW11333   3.220   3.127   4.533
 2828SOL    HW211334   3.270   3.048   4.512
 2828SOL    HW311335   3.193   3.161   4.448
 2828SOL    MW411336   3.223   3.121   4.519
 2829SOL     OW11337   3.363   2.894   4.478
 2829SOL    HW211338   3.355   2.875   4.384
 2829SOL    HW311339   3.449   2.862   4.502
 2829SOL    MW411340   3.373   2.887   4.469
 2830SOL     OW11341   4.052   2.594   4.543
 2830SOL    HW211342   4.030   2.592   4.450
 2830SOL    HW311343   4.095   2.678   4.556
 2830SOL    MW411344   4.055   2.604   4.533
 2831SOL     OW11345   3.654   3.249   4.532
 2831SOL    HW211346   3.705   3.327   4.553
 2831SOL    HW311347   3.621   3.265   4.443
 2831SOL    MW411348   3.656   3.261   4.523
 2832SOL     OW11349   3.510   4.082   4.469
 2832SOL    HW211350   3.575   4.078   4.539
 2832SOL    HW311351   3.437   4.028   4.500
 2832SOL    MW411352   3.509   4.075   4.483
 2833SOL     OW11353   3.219   4.215   4.766
 2833SOL    HW211354   3.232   4.309   4.763
 2833SOL    HW311355   3.125   4.204   4.778
 2833SOL    MW411356   3.209   4.226   4.767
 2834SOL     OW11357   3.234   4.457   4.629
 2834SOL    HW211358   3.300   4.415   4.573
 2834SOL    HW311359   3.151   4.442   4.584
 2834SOL    MW411360   3.232   4.450   4.616
 2835SOL     OW11361   3.436   4.353   4.476
 2835SOL    HW211362   3.453   4.259   4.473
 2835SOL    HW311363   3.523   4.393   4.477
 2835SOL    MW411364   3.450   4.346   4.476
 2836SOL     OW11365   3.690   4.034   4.681
 2836SOL    HW211366   3.759   3.969   4.670
 2836SOL    HW311367   3.628   3.994   4.742
 2836SOL    MW411368   3.691   4.020   4.688
 2837SOL     OW11369   3.499   0.141   4.719
 2837SOL    HW211370   3.534   0.128   4.808
 2837SOL    HW311371   3.406   0.117   4.727
 2837SOL    MW411372   3.491   0.136   4.732
 2838SOL     OW11373   3.176   0.909   4.491
 2838SOL    HW211374   3.188   0.993   4.537
 2838SOL    HW311375   3.236   0.849   4.535
 2838SOL    MW411376   3.186   0.913   4.503
 2839SOL     OW11377   3.206   1.160   4.619
 2839SOL    HW211378   3.212   1.161   4.715
 2839SOL    HW311379   3.144   1.230   4.598
 2839SOL    MW411380   3.199   1.169   4.629
 2840SOL     OW11381   4.113   1.440   4.602
 2840SOL    HW211382   4.159   1.373   4.552
 2840SOL    HW311383   4.020   1.424   4.583
 2840SOL    MW411384   4.107   1.429   4.593
 2841SOL     OW11385   3.728   1.164   4.576
 2841SOL    HW211386   3.767   1.251   4.579
 2841SOL    HW311387   3.800   1.105   4.600
 2841SOL    MW411388   3.743   1.167   4.579
 2842SOL     OW11389   4.126   0.962   4.486
 2842SOL    HW211390   4.197   0.914   4.529
 2842SOL    HW311391   4.104   0.908   4.409
 2842SOL    MW411392   4.133   0.948   4.481
 2843SOL     OW11393   4.292   0.563   4.577
 2843SOL    HW211394   4.223   0.511   4.619
 2843SOL    HW311395   4.282   0.545   4.484
 2843SOL    MW411396   4.282   0.554   4.570
 2844SOL     OW11397   3.669   1.651   4.494
 2844SOL    HW211398   3.712   1.713   4.553
 2844SOL    HW311399   3.589   1.626   4.541
 2844SOL    MW411400   3.664   1.656   4.508
 2845SOL     OW11401   3.978   1.854   4.631
 2845SOL    HW211402   3.889   1.851   4.667
 2845SOL    HW311403   4.027   1.910   4.692
 2845SOL    MW411404   3.973   1.861   4.644
 2846SOL     OW11405   3.541   2.038   4.556
 2846SOL    HW211406   3.577   2.063   4.471
 2846SOL    HW311407   3.462   1.988   4.535
 2846SOL    MW411408   3.535   2.035   4.542
 2847SOL     OW11409   4.164   2.041   4.750
 2847SOL    HW211410   4.146   2.132   4.774
 2847SOL    HW311411   4.224   2.048   4.675
 2847SOL    MW411412   4.170   2.054   4.743
 2848SOL     OW11413   4.452   1.727   4.491
 2848SOL    HW211414   4.478   1.714   4.400
 2848SOL    HW311415   4.357   1.717   4.490
 2848SOL    MW411416   4.443   1.724   4.479
 2849SOL     OW11417   3.967   2.292   4.517
 2849SOL    HW211418   4.008   2.320   4.598
 2849SOL    HW311419   3.873   2.303   4.532
 2849SOL    MW411420   3.960   2.297   4.530
 2850SOL     OW11421   3.789   2.609   4.640
 2850SOL    HW211422   3.756   2.520   4.631
 2850SOL    HW311423   3.879   2.605   4.605
 2850SOL    MW411424   3.797   2.597   4.634
 2851SOL     OW11425   3.775   3.013   4.469
 2851SOL    HW211426   3.855   3.013   4.522
 2851SOL    HW311427   3.738   3.100   4.480
 2851SOL    MW411428   3.781   3.024   4.478
 2852SOL     OW11429   4.010   2.993   4.622
 2852SOL    HW211430   3.988   2.964   4.711
 2852SOL    HW311431   4.082   2.937   4.596
 2852SOL    MW411432   4.016   2.982   4.631
 2853SOL     OW11433   3.371   3.392   4.598
 2853SOL    HW211434   3.301   3.327   4.589
 2853SOL    HW311435   3.451   3.340   4.606
 2853SOL    MW411436   3.372   3.377   4.598
 2854SOL     OW11437   3.882   3.424   4.576
 2854SOL    HW211438   3.932   3.463   4.647
 2854SOL    HW311439   3.945   3.369   4.530
 2854SOL    MW411440   3.897   3.422   4.579
 2855SOL     OW11441   3.470   3.668   4.547
 2855SOL    HW211442   3.437   3.586   4.583
 2855SOL    HW311443   3.565   3.659   4.550
 2855SOL    MW411444   3.478   3.656   4.552
 2856SOL     OW11445   3.745   3.663   4.527
 2856SOL    HW211446   3.751   3.682   4.434
 2856SOL    HW311447   3.797   3.584   4.540
 2856SOL    MW411448   3.753   3.655   4.517
 2857SOL     OW11449   0.101   2.895   4.550
 2857SOL    HW211450   0.082   2.988   4.546
 2857SOL    HW311451   0.136   2.873   4.464
 2857SOL    MW411452   0.103   2.904   4.538
 2858SOL     OW11453   4.104   3.971   4.533
 2858SOL    HW211454   4.123   4.046   4.590
 2858SOL    HW311455   4.034   3.924   4.579
 2858SOL    MW411456   4.097   3.975   4.547
 2859SOL     OW11457   3.714   4.446   4.500
 2859SOL    HW211458   3.786   4.444   4.437
 2859SOL    HW311459   3.702   4.538   4.521
 2859SOL    MW411460   3.722   4.458   4.494
 2860SOL     OW11461   3.229   0.056   4.683
 2860SOL    HW211462   3.236  -0.035   4.655
 2860SOL    HW311463   3.155   0.058   4.743
 2860SOL    MW411464   3.220   0.044   4.687
 2861SOL     OW11465   3.608   0.928   4.488
 2861SOL    HW211466   3.644   1.013   4.513
 2861SOL    HW311467   3.623   0.923   4.393
 2861SOL    MW411468   3.615   0.939   4.479
 2862SOL     OW11469   3.801   0.784   4.612
 2862SOL    HW211470   3.871   0.846   4.631
 2862SOL    HW311471   3.731   0.836   4.572
 2862SOL    MW411472   3.801   0.799   4.609
 2863SOL     OW11473   0.099   0.496   4.585
 2863SOL    HW211474   0.006   0.517   4.592
 2863SOL    HW311475   0.118   0.501   4.491
 2863SOL    MW411476   0.089   0.500   4.573
 2864SOL     OW11477   0.325   0.652   4.616
 2864SOL    HW211478   0.394   0.613   4.670
 2864SOL    HW311479   0.254   0.588   4.618
 2864SOL    MW411480   0.325   0.638   4.624
 2865SOL     OW11481   4.092   0.360   4.622
 2865SOL    HW211482   4.053   0.276   4.597
 2865SOL    HW311483   4.022   0.424   4.609
 2865SOL    MW411484   4.078   0.357   4.617
 2866SOL     OW11485   3.847   1.409   4.534
 2866SOL    HW211486   3.850   1.397   4.439
 2866SOL    HW311487   3.790   1.485   4.547
 2866SOL    MW411488   3.840   1.417   4.523
 2867SOL     OW11489   0.027   1.239   4.534
 2867SOL    HW211490   0.029   1.334   4.546
 2867SOL    HW311491   0.011   1.205   4.622
 2867SOL    MW411492   0.025   1.247   4.547
 2868SOL     OW11493   0.336   1.598   4.699
 2868SOL    HW211494   0.319   1.617   4.791
 2868SOL    HW311495   0.387   1.673   4.667
 2868SOL    MW411496   0.341   1.610   4.707
 2869SOL     OW11497   4.176   1.687   4.507
 2869SOL    HW211498   4.156   1.598   4.538
 2869SOL    HW311499   4.114   1.743   4.553
 2869SOL    MW411500   4.166   1.682   4.517
 2870SOL     OW11501   3.123   2.751   4.525
 2870SOL    HW211502   3.202   2.804   4.519
 2870SOL    HW311503   3.155   2.661   4.539
 2870SOL    MW411504   3.138   2.746   4.526
 2871SOL     OW11505   4.254   2.097   4.237
 2871SOL    HW211506   4.168   2.061   4.219
 2871SOL    HW311507   4.267   2.083   4.331
 2871SOL    MW411508   4.245   2.090   4.247
 2872SOL     OW11509   4.296   2.201   4.541
 2872SOL    HW211510   4.377   2.199   4.592
 2872SOL    HW311511   4.295   2.288   4.500
 2872SOL    MW411512   4.307   2.212   4.542
 2873SOL     OW11513   3.939   2.024   4.413
 2873SOL    HW211514   3.958   1.976   4.493
 2873SOL    HW311515   3.957   2.116   4.435
 2873SOL    MW411516   3.944   2.030   4.426
 2874SOL     OW11517   3.691   2.322   4.560
 2874SOL    HW211518   3.628   2.377   4.513
 2874SOL    HW311519   3.642   2.242   4.580
 2874SOL    MW411520   3.676   2.319   4.556
 2875SOL     OW11521   4.320   2.544   4.797
 2875SOL    HW211522   4.380   2.576   4.730
 2875SOL    HW311523   4.376   2.528   4.874
 2875SOL    MW411524   4.336   2.546   4.799
 2876SOL     OW11525   4.231   2.847   4.521
 2876SOL    HW211526   4.313   2.840   4.570
 2876SOL    HW311527   4.258   2.855   4.430
 2876SOL    MW411528   4.245   2.847   4.516
 2877SOL     OW11529   4.093   3.250   4.540
 2877SOL    HW211530   4.080   3.244   4.445
 2877SOL    HW311531   4.043   3.176   4.575
 2877SOL    MW411532   4.085   3.239   4.532
 2878SOL     OW11533   0.211   3.439   4.471
 2878SOL    HW211534   0.217   3.489   4.390
 2878SOL    HW311535   0.128   3.466   4.510
 2878SOL    MW411536   0.201   3.449   4.466
 2879SOL     OW11537   4.127   4.223   4.653
 2879SOL    HW211538   4.151   4.240   4.744
 2879SOL    HW311539   4.036   4.254   4.645
 2879SOL    MW411540   4.118   4.230   4.664
 2880SOL     OW11541   3.680   0.064   4.531
 2880SOL    HW211542   3.608   0.099   4.584
 2880SOL    HW311543   3.667   0.104   4.445
 2880SOL    MW411544   3.669   0.074   4.527
 2881SOL     OW11545   4.288   3.601   4.855
 2881SOL    HW211546   4.330   3.686   4.864
 2881SOL    HW311547   4.361   3.538   4.857
 2881SOL    MW411548   4.303   3.604   4.857
 2882SOL     OW11549   3.555   0.422   4.639
 2882SOL    HW211550   3.478   0.437   4.584
 2882SOL    HW311551   3.546   0.332   4.669
 2882SOL    MW411552   3.544   0.412   4.636
 2883SOL     OW11553   4.322   4.416   4.238
 2883SOL    HW211554   4.395   4.363   4.207
 2883SOL    HW311555   4.323   4.406   4.333
 2883SOL    MW411556   4.332   4.408   4.246
   4.49070   4.66690  10.00000
