Gromacs Runs On Most of All Computer Systems in water
   97
    1RU5    O5'    1   3.094   2.632   4.624
    1RU5    H5T    2   3.182   2.670   4.595
    1RU5    C5'    3   2.999   2.649   4.520
    1RU5   H5'1    4   3.038   2.602   4.441
    1RU5   H5'2    5   2.996   2.747   4.503
    1RU5    C4'    6   2.854   2.595   4.548
    1RU5    H4'    7   2.790   2.621   4.476
    1RU5    O4'    8   2.870   2.450   4.559
    1RU5    C1'    9   2.804   2.405   4.673
    1RU5    H1'   10   2.711   2.375   4.652
    1RU5     N1   11   2.869   2.285   4.722
    1RU5     C6   12   3.000   2.293   4.766
    1RU5     H6   13   3.049   2.380   4.764
    1RU5     C5   14   3.062   2.180   4.813
    1RU5     H5   15   3.158   2.187   4.840
    1RU5     C4   16   2.997   2.053   4.826
    1RU5     O4   17   3.050   1.951   4.862
    1RU5     N3   18   2.864   2.059   4.794
    1RU5     H3   19   2.812   1.974   4.805
    1RU5     C2   20   2.792   2.170   4.747
    1RU5     O2   21   2.670   2.163   4.726
    1RU5    C3'   22   2.795   2.645   4.679
    1RU5    H3'   23   2.828   2.734   4.710
    1RU5    C2'   24   2.820   2.527   4.771
    1RU5   H2'1   25   2.904   2.537   4.825
    1RU5    O2'   26   2.738   2.517   4.882
    1RU5   HO'2   27   2.752   2.597   4.941
    1RU5    O3'   28   2.659   2.674   4.669
    2RG       P   29   2.605   2.826   4.644
    2RG     O1P   30   2.457   2.822   4.674
    2RG     O2P   31   2.651   2.874   4.514
    2RG     O5'   32   2.678   2.924   4.751
    2RG     C5'   33   2.614   2.966   4.865
    2RG    H5'1   34   2.602   2.885   4.923
    2RG    H5'2   35   2.524   3.000   4.836
    2RG     C4'   36   2.697   3.076   4.937
    2RG     H4'   37   2.634   3.108   5.008
    2RG     O4'   38   2.811   3.025   5.007
    2RG     C1'   39   2.927   3.104   4.982
    2RG     H1'   40   2.972   3.120   5.070
    2RG      N9   41   3.021   3.028   4.899
    2RG      C8   42   2.995   2.958   4.786
    2RG      H8   43   2.906   2.958   4.741
    2RG      N7   44   3.099   2.889   4.740
    2RG      C5   45   3.206   2.929   4.824
    2RG      C6   46   3.348   2.904   4.833
    2RG      O6   47   3.416   2.833   4.758
    2RG      N1   48   3.419   2.980   4.927
    2RG      H1   49   3.519   2.974   4.927
    2RG      C2   50   3.361   3.059   5.015
    2RG      N2   51   3.429   3.114   5.111
    2RG     H21   52   3.527   3.097   5.119
    2RG     H22   53   3.383   3.174   5.177
    2RG      N3   54   3.228   3.074   5.018
    2RG      C4   55   3.154   3.012   4.923
    2RG     C3'   56   2.746   3.197   4.850
    2RG     H3'   57   2.747   3.180   4.751
    2RG     C2'   58   2.884   3.236   4.912
    2RG    H2'1   59   2.948   3.280   4.849
    2RG     O2'   60   2.863   3.328   5.019
    2RG    HO'2   61   2.835   3.416   4.982
    2RG     O3'   62   2.656   3.306   4.859
    3RG3      P   63   2.716   3.428   4.549
    3RG3    O1P   64   2.603   3.446   4.646
    3RG3    O2P   65   2.716   3.517   4.435
    3RG3    O5'   66   2.842   3.477   4.630
    3RG3    C5'   67   2.850   3.582   4.720
    3RG3   H5'1   68   2.818   3.549   4.809
    3RG3   H5'2   69   2.790   3.655   4.688
    3RG3    C4'   70   2.992   3.629   4.728
    3RG3    H4'   71   2.984   3.709   4.788
    3RG3    O4'   72   3.085   3.539   4.782
    3RG3    C1'   73   3.214   3.594   4.756
    3RG3    H1'   74   3.238   3.657   4.830
    3RG3     N9   75   3.320   3.494   4.767
    3RG3     C8   76   3.306   3.354   4.760
    3RG3     H8   77   3.218   3.307   4.753
    3RG3     N7   78   3.420   3.292   4.763
    3RG3     C5   79   3.514   3.393   4.777
    3RG3     C6   80   3.658   3.389   4.792
    3RG3     O6   81   3.732   3.293   4.786
    3RG3     N1   82   3.713   3.517   4.817
    3RG3     H1   83   3.811   3.524   4.838
    3RG3     C2   84   3.642   3.627   4.814
    3RG3     N2   85   3.707   3.740   4.844
    3RG3    H21   86   3.804   3.737   4.867
    3RG3    H22   87   3.658   3.827   4.843
    3RG3     N3   88   3.513   3.634   4.796
    3RG3     C4   89   3.454   3.515   4.780
    3RG3    C3'   90   3.054   3.640   4.587
    3RG3    H3'   91   3.031   3.566   4.523
    3RG3    C2'   92   3.205   3.663   4.619
    3RG3   H2'1   93   3.275   3.636   4.553
    3RG3    O2'   94   3.217   3.805   4.638
    3RG3   HO'2   95   3.211   3.851   4.549
    3RG3    O3'   96   3.004   3.752   4.521
    3RG3    H3T   97   3.045   3.758   4.430
   4.49070   4.66690  10.00000
