Gromacs Runs On Most of All Computer Systems in water
11619
    1RU5    O5'    1   1.836   1.752   5.216 -0.0004 -0.4368  0.2496
    1RU5    H5T    2   1.910   1.797   5.257  0.1972 -0.4493 -0.0949
    1RU5    C5'    3   1.805   1.816   5.091  0.4142  0.0326  0.4335
    1RU5   H5'1    4   1.897   1.845   5.040  0.7405 -1.0772  0.3566
    1RU5   H5'2    5   1.738   1.900   5.103  2.1215  1.5302 -0.2928
    1RU5    C4'    6   1.735   1.705   5.000  0.1716  0.0917 -0.1922
    1RU5    H4'    7   1.803   1.620   5.006  1.3010  0.8033 -2.1787
    1RU5    O4'    8   1.601   1.668   5.039 -0.1945  0.5079 -0.5587
    1RU5    C1'    9   1.527   1.618   4.922 -0.1555 -0.1925 -0.0880
    1RU5    H1'   10   1.516   1.509   4.922 -0.5225 -0.1573 -1.4329
    1RU5     N1   11   1.390   1.674   4.913  0.1095  0.2519  0.7009
    1RU5     C6   12   1.347   1.779   4.991 -0.1686  0.0313 -0.4233
    1RU5     H6   13   1.421   1.826   5.054 -0.9866 -1.1940  1.5192
    1RU5     C5   14   1.222   1.829   4.970  0.8074  0.2738 -0.1764
    1RU5     H5   15   1.196   1.920   5.020 -0.2494 -0.1586  0.0676
    1RU5     C4   16   1.125   1.774   4.878 -0.1735  1.0585  0.7702
    1RU5     O4   17   1.013   1.818   4.850 -0.5810  0.1153 -0.8681
    1RU5     N3   18   1.173   1.659   4.814 -0.1817 -0.1736  0.4756
    1RU5     H3   19   1.104   1.609   4.760  0.7629 -1.7096  0.6275
    1RU5     C2   20   1.297   1.606   4.826 -0.1073  0.1275 -0.3719
    1RU5     O2   21   1.320   1.500   4.767 -0.3702 -0.5223  0.0382
    1RU5    C3'   22   1.712   1.750   4.857  1.0840 -0.2108  0.6402
    1RU5    H3'   23   1.661   1.846   4.858  3.0843  0.9544 -1.5766
    1RU5    C2'   24   1.608   1.654   4.800 -0.2035 -0.2928  0.1101
    1RU5   H2'1   25   1.552   1.710   4.725  0.1454  1.7469  1.3485
    1RU5    O2'   26   1.659   1.537   4.733  0.2341  0.4480  0.0172
    1RU5   HO'2   27   1.754   1.548   4.743  0.3427  2.2284 -2.4581
    1RU5    O3'   28   1.830   1.761   4.777 -0.0777 -0.3556 -0.5258
    2RG       P   29   1.861   1.880   4.676 -0.0974 -0.1007 -0.1027
    2RG     O1P   30   1.734   1.921   4.618 -0.0704 -0.4248  0.0933
    2RG     O2P   31   1.958   1.821   4.579  0.2273 -0.1915  0.3039
    2RG     O5'   32   1.920   1.996   4.756 -0.2374  0.1039 -0.1326
    2RG     C5'   33   1.839   2.078   4.845 -0.9246 -0.0146  0.2325
    2RG    H5'1   34   1.786   2.021   4.921  0.6059 -0.8471  0.6814
    2RG    H5'2   35   1.765   2.135   4.788 -1.0330  0.3104  0.6932
    2RG     C4'   36   1.927   2.173   4.917 -0.4978 -0.1548 -0.1885
    2RG     H4'   37   1.868   2.237   4.983 -1.2058  0.0398 -1.0072
    2RG     O4'   38   2.015   2.103   5.011  0.4137 -0.2089  0.8580
    2RG     C1'   39   2.153   2.130   4.984  0.0846  0.6244 -0.6816
    2RG     H1'   40   2.212   2.129   5.076 -0.1639 -2.5270 -0.4953
    2RG      N9   41   2.205   2.030   4.885 -0.4708  0.2755  0.3233
    2RG      C8   42   2.272   2.060   4.766 -0.2138  0.3441 -0.1405
    2RG      H8   43   2.295   2.159   4.728  2.5926 -0.6500 -1.1483
    2RG      N7   44   2.303   1.951   4.694  0.7774  0.0237 -0.3754
    2RG      C5   45   2.256   1.842   4.772 -0.5636 -0.2034 -0.5688
    2RG      C6   46   2.260   1.700   4.757  0.2012 -0.2620  0.2978
    2RG      O6   47   2.304   1.637   4.655  0.2814 -0.0063  0.6329
    2RG      N1   48   2.211   1.628   4.861  0.6498 -0.0974  0.0999
    2RG      H1   49   2.217   1.527   4.854  1.4579 -0.0325 -0.1463
    2RG      C2   50   2.160   1.689   4.969  0.4450  0.7687  0.7795
    2RG      N2   51   2.102   1.623   5.060 -0.1928 -0.4926 -0.0759
    2RG     H21   52   2.089   1.522   5.060  1.0908 -0.7268  3.8510
    2RG     H22   53   2.061   1.665   5.142 -0.2358 -0.0182 -0.3382
    2RG      N3   54   2.158   1.818   4.995  0.6897  0.4925  0.3071
    2RG      C4   55   2.200   1.892   4.890  0.4683 -0.1717 -0.3689
    2RG     C3'   56   2.021   2.266   4.835 -0.8707  0.0934 -0.0955
    2RG     H3'   57   2.036   2.219   4.738 -0.6005 -0.5069  0.2388
    2RG     C2'   58   2.149   2.267   4.920  0.5028  0.3605 -0.7468
    2RG    H2'1   59   2.242   2.301   4.873  0.3624  1.8224 -0.0035
    2RG     O2'   60   2.146   2.354   5.035  0.2366 -0.4430  0.5589
    2RG    HO'2   61   2.164   2.441   5.001 -0.9383 -0.2973  0.2686
    2RG     O3'   62   1.963   2.393   4.810 -0.7102 -0.0782  0.9948
    3RG3      P   63   2.011   2.486   4.697 -0.2355 -0.1669  0.0653
    3RG3    O1P   64   1.894   2.558   4.650 -0.2250  0.1178  0.3550
    3RG3    O2P   65   2.090   2.408   4.607 -0.1053  0.0570  0.0183
    3RG3    O5'   66   2.107   2.585   4.772 -0.4632  0.3867 -0.7451
    3RG3    C5'   67   2.054   2.666   4.879 -0.2113 -0.1273  0.1007
    3RG3   H5'1   68   2.008   2.608   4.959 -2.0746 -0.7408 -1.4000
    3RG3   H5'2   69   1.971   2.722   4.838 -0.3619 -1.1836 -1.0747
    3RG3    C4'   70   2.170   2.746   4.927  0.2535 -0.4539  1.0753
    3RG3    H4'   71   2.129   2.812   5.004 -0.4816 -0.3707  0.6127
    3RG3    O4'   72   2.271   2.661   4.978 -0.2931 -0.3483 -0.1218
    3RG3    C1'   73   2.400   2.731   4.954  0.9515 -0.0560 -0.0760
    3RG3    H1'   74   2.451   2.761   5.046  1.0499  0.2512 -0.2327
    3RG3     N9   75   2.486   2.635   4.882 -0.3786  0.5263  0.1379
    3RG3     C8   76   2.457   2.517   4.820  0.1734  0.0711  0.1689
    3RG3     H8   77   2.354   2.483   4.822  0.2118 -0.3393 -3.2525
    3RG3     N7   78   2.553   2.474   4.742  0.3965  0.0060 -0.2567
    3RG3     C5   79   2.660   2.564   4.765 -0.3587 -0.2815 -0.3651
    3RG3     C6   80   2.795   2.565   4.705  0.3291 -0.3890  0.1105
    3RG3     O6   81   2.845   2.482   4.626  0.5478 -0.0428  0.2655
    3RG3     N1   82   2.861   2.675   4.744  0.2675  0.5215  0.5751
    3RG3     H1   83   2.953   2.675   4.701 -0.7629  0.9482 -1.7450
    3RG3     C2   84   2.809   2.772   4.826 -0.1230  0.7702 -0.1726
    3RG3     N2   85   2.881   2.878   4.850  0.3174  0.4150 -0.2691
    3RG3    H21   86   2.854   2.944   4.921  3.6790  1.8633 -0.2509
    3RG3    H22   87   2.968   2.888   4.800  0.7549 -0.4078  0.2992
    3RG3     N3   88   2.690   2.775   4.876  0.9952  0.8586 -0.0993
    3RG3     C4   89   2.615   2.662   4.848 -0.0983 -0.8121 -0.8915
    3RG3    C3'   90   2.229   2.839   4.819 -0.0226 -0.8159  0.7323
    3RG3    H3'   91   2.235   2.786   4.724 -0.5347  0.6439 -0.1331
    3RG3    C2'   92   2.366   2.854   4.876 -0.3757  0.1421 -0.2791
    3RG3   H2'1   93   2.443   2.863   4.799 -0.3469  0.3698 -0.2265
    3RG3    O2'   94   2.381   2.976   4.952 -0.0588  0.3971 -0.0005
    3RG3   HO'2   95   2.472   3.003   4.942 -0.3620  1.3653 -0.2083
    3RG3    O3'   96   2.169   2.968   4.807 -0.9223 -0.1826  0.2977
    3RG3    H3T   97   2.221   3.021   4.868 -1.4524  0.8834 -0.1624
    7SOL     OW   98   0.453   4.565   0.463  0.4281 -0.3094 -0.2009
    7SOL    HW2   99   0.532   4.604   0.427  1.1394 -1.5518 -0.0229
    7SOL    HW3  100   0.478   4.536   0.551 -1.0684  2.0083  1.0645
    7SOL    MW4  101   0.466   4.566   0.470  0.3245 -0.1674 -0.0105
    8SOL     OW  102   4.034   0.108   0.473  0.6282  0.2422 -0.6093
    8SOL    HW2  103   4.080   0.029   0.447  1.6135  0.0699  1.5285
    8SOL    HW3  104   4.098   0.178   0.460  1.0529  0.1814  1.0819
    8SOL    MW4  105   4.048   0.107   0.468  0.8140  0.2114 -0.1041
    9SOL     OW  106   0.035   4.602   0.691  0.0722  0.1526 -0.0959
    9SOL    HW2  107   0.051   4.508   0.696  0.1694  0.1007 -1.2511
    9SOL    HW3  108  -0.046   4.615   0.740 -0.2532 -0.6190 -0.4252
    9SOL    MW4  109   0.026   4.591   0.698  0.0421  0.0439 -0.2917
   10SOL     OW  110   4.431   1.785   0.508 -0.1732  0.1903  0.2116
   10SOL    HW2  111   4.445   1.759   0.599  0.1227  0.3422  0.2128
   10SOL    HW3  112   4.400   1.876   0.514 -3.2805 -0.8362  0.3106
   10SOL    MW4  113   4.429   1.794   0.521 -0.5441  0.0747  0.2248
   11SOL     OW  114   1.215   0.748   0.423 -0.1356  0.0013  0.5402
   11SOL    HW2  115   1.170   0.825   0.388 -0.7051 -0.2471  0.7222
   11SOL    HW3  116   1.151   0.707   0.481 -0.3653 -1.4197 -0.6754
   11SOL    MW4  117   1.201   0.752   0.426 -0.2412 -0.2190  0.4038
   12SOL     OW  118   0.402   0.416   0.541  0.4090 -0.2595  0.1491
   12SOL    HW2  119   0.463   0.474   0.496 -0.0095 -0.4737 -0.6973
   12SOL    HW3  120   0.397   0.338   0.486 -0.7447 -0.1809  0.1266
   12SOL    MW4  121   0.409   0.413   0.528  0.2016 -0.2774  0.0345
   13SOL     OW  122   0.599   1.029   0.445 -0.3270 -0.2371  0.1504
   13SOL    HW2  123   0.534   1.014   0.513 -1.0399  1.9340 -0.0148
   13SOL    HW3  124   0.670   0.968   0.465 -1.6810 -1.4764  1.2793
   13SOL    MW4  125   0.600   1.019   0.456 -0.5997 -0.1141  0.2775
   14SOL     OW  126   0.847   0.891   0.478  0.1552 -0.5114 -0.2164
   14SOL    HW2  127   0.862   0.907   0.572 -0.9280 -0.9400  0.0445
   14SOL    HW3  128   0.919   0.935   0.434 -0.2719  1.1753  0.7348
   14SOL    MW4  129   0.859   0.899   0.485 -0.0441 -0.3454 -0.0564
   15SOL     OW  130   0.337   0.775   0.369 -0.2061  0.2915 -0.0216
   15SOL    HW2  131   0.245   0.762   0.345 -0.1201 -1.1735  0.3652
   15SOL    HW3  132   0.338   0.777   0.464  0.1652  0.2372 -0.0214
   15SOL    MW4  133   0.325   0.773   0.378 -0.1457  0.0910  0.0294
   16SOL     OW  134   4.426   1.392   0.441 -0.0813  0.3639 -0.1372
   16SOL    HW2  135   4.343   1.398   0.394  0.2574  2.4518 -0.5353
   16SOL    HW3  136   4.472   1.472   0.417  2.3544 -1.0996 -0.4760
   16SOL    MW4  137   4.421   1.403   0.431  0.2847  0.4462 -0.2344
   17SOL     OW  138   4.149   1.771   0.431  0.1048  0.5750  0.3146
   17SOL    HW2  139   4.234   1.730   0.451  0.2176  0.2538 -0.7280
   17SOL    HW3  140   4.170   1.863   0.417  0.4005  0.3774 -0.5913
   17SOL    MW4  141   4.163   1.777   0.431  0.1588  0.5065  0.0575
   18SOL     OW  142   0.160   2.006   0.459  0.0468 -0.1382  0.0400
   18SOL    HW2  143   0.124   2.089   0.429  0.7293 -0.9374 -3.1886
   18SOL    HW3  144   0.087   1.945   0.454  0.1531 -0.2633  0.0040
   18SOL    MW4  145   0.146   2.009   0.454  0.1509 -0.2599 -0.3907
   19SOL     OW  146   0.148   2.438   0.207 -0.0759 -0.3809  0.1571
   19SOL    HW2  147   0.133   2.423   0.113 -0.5956  0.1883  0.1443
   19SOL    HW3  148   0.243   2.444   0.215  0.0690 -2.0602 -0.0794
   19SOL    MW4  149   0.159   2.437   0.195 -0.1253 -0.5271  0.1242
   20SOL     OW  150   4.324   2.830   0.477 -0.1844  0.0558  0.4108
   20SOL    HW2  151   4.385   2.765   0.442  0.0121  0.6033 -0.2792
   20SOL    HW3  152   4.369   2.914   0.465 -1.2045  0.4973 -0.4097
   20SOL    MW4  153   4.338   2.833   0.470 -0.2928  0.1864  0.2115
   21SOL     OW  154   4.304   3.495   0.342 -1.0134 -0.0944 -0.2696
   21SOL    HW2  155   4.229   3.438   0.361  0.1588 -1.1987  1.1556
   21SOL    HW3  156   4.329   3.473   0.252 -2.1591  0.0163 -0.6183
   21SOL    MW4  157   4.297   3.484   0.333 -1.0099 -0.2255 -0.1276
   22SOL     OW  158   0.240   3.124   0.323 -0.4576 -0.7894 -0.0805
   22SOL    HW2  159   0.335   3.112   0.324 -0.2493  0.5514 -1.2173
   22SOL    HW3  160   0.227   3.211   0.362 -1.2384 -1.0223  0.1908
   22SOL    MW4  161   0.251   3.134   0.329 -0.5332 -0.6433 -0.1947
   23SOL     OW  162   0.662   3.402   0.330  0.0554  0.0264  0.5190
   23SOL    HW2  163   0.741   3.442   0.293 -1.0620  2.0199  0.2167
   23SOL    HW3  164   0.638   3.459   0.403 -2.6349  1.0543 -1.0957
   23SOL    MW4  165   0.670   3.415   0.335 -0.4470  0.4251  0.2661
   24SOL     OW  166   0.791   3.823   0.156  0.1231 -0.0143 -0.5624
   24SOL    HW2  167   0.830   3.910   0.164 -0.2913  0.0285  1.1692
   24SOL    HW3  168   0.700   3.835   0.186  0.1239 -1.0773 -0.1066
   24SOL    MW4  169   0.784   3.836   0.161  0.0685 -0.1490 -0.2738
   25SOL     OW  170   3.824   3.402   0.400  0.0791 -0.3651  0.2705
   25SOL    HW2  171   3.833   3.480   0.455 -0.6814  0.0601 -0.1956
   25SOL    HW3  172   3.914   3.372   0.386  0.3318 -0.0010  1.0568
   25SOL    MW4  173   3.837   3.409   0.405  0.0119 -0.2613  0.3127
   26SOL     OW  174   0.041   3.996   0.501 -0.4014 -0.3268 -0.1823
   26SOL    HW2  175   0.047   4.091   0.485 -0.2349 -0.0970  1.1607
   26SOL    HW3  176   0.008   3.990   0.591  0.6464 -1.5566  0.1211
   26SOL    MW4  177   0.037   4.008   0.511 -0.2412 -0.4587  0.0350
   27SOL     OW  178   0.213   0.013   0.474  0.0406  0.5405 -0.3314
   27SOL    HW2  179   0.300  -0.028   0.471 -0.1239  0.1940 -0.3963
   27SOL    HW3  180   0.167  -0.032   0.544 -0.0336  0.8382 -0.1864
   27SOL    MW4  181   0.218   0.002   0.483  0.0091  0.5341 -0.3209
   28SOL     OW  182   4.403   0.128   0.470  0.0466  0.2770 -0.2341
   28SOL    HW2  183   4.449   0.081   0.540 -0.4361  0.0821 -0.0448
   28SOL    HW3  184   4.408   0.071   0.394 -1.4854 -0.5864  0.2890
   28SOL    MW4  185   4.409   0.115   0.470 -0.2193  0.1373 -0.1401
   29SOL     OW  186   0.051   4.279   0.442  0.3008 -0.5097  0.1299
   29SOL    HW2  187  -0.039   4.297   0.414  0.0993 -1.7087  0.0172
   29SOL    HW3  188   0.105   4.332   0.383 -0.2679 -0.7579 -0.6197
   29SOL    MW4  189   0.046   4.289   0.431  0.1992 -0.7005  0.0162
   30SOL     OW  190   0.303   3.638   0.514  0.3504  0.2357  0.4582
   30SOL    HW2  191   0.303   3.728   0.483 -1.4110 -0.1519 -0.7400
   30SOL    HW3  192   0.395   3.615   0.523  0.8878  0.9168 -2.8895
   30SOL    MW4  193   0.315   3.647   0.511  0.1889  0.2747 -0.1416
   31SOL     OW  194   0.733   4.500   0.236 -0.4764 -0.3991  0.2899
   31SOL    HW2  195   0.745   4.449   0.155 -0.4614 -2.5203  1.5978
   31SOL    HW3  196   0.822   4.519   0.265 -0.4475 -1.4368  0.9037
   31SOL    MW4  197   0.746   4.496   0.229 -0.4706 -0.8168  0.5434
   32SOL     OW  198   0.396   0.195   0.363 -0.0095  0.5329 -0.1150
   32SOL    HW2  199   0.341   0.138   0.417 -0.1968  1.4563  0.7057
   32SOL    HW3  200   0.482   0.153   0.363 -0.7456 -1.0260 -1.5721
   32SOL    MW4  201   0.400   0.182   0.370 -0.1314  0.4491 -0.1990
   33SOL     OW  202   0.129   0.504   0.503 -0.1810 -0.1276 -0.5956
   33SOL    HW2  203   0.106   0.425   0.453 -0.0262 -0.1649 -0.6085
   33SOL    HW3  204   0.223   0.494   0.522 -0.4064 -0.4701  0.3462
   33SOL    MW4  205   0.139   0.492   0.499 -0.1903 -0.1777 -0.4730
   34SOL     OW  206   0.989   4.315   0.507 -0.1834 -0.5877 -0.2374
   34SOL    HW2  207   0.902   4.278   0.497 -0.7651  0.9940 -1.2157
   34SOL    HW3  208   0.997   4.334   0.600 -0.5771 -1.4379 -0.0237
   34SOL    MW4  209   0.979   4.313   0.518 -0.3120 -0.4907 -0.3383
   35SOL     OW  210   1.035   0.544   0.550  0.1814 -0.6780  0.2180
   35SOL    HW2  211   0.944   0.563   0.527  0.5449  1.1109  0.1590
   35SOL    HW3  212   1.054   0.460   0.509 -1.2031 -0.6856 -0.4159
   35SOL    MW4  213   1.025   0.535   0.542  0.0467 -0.4429  0.1266
   36SOL     OW  214   0.647   0.053   0.351  0.2529  0.1848 -0.1097
   36SOL    HW2  215   0.675  -0.020   0.297  1.5533 -0.0131  0.7970
   36SOL    HW3  216   0.728   0.086   0.390 -0.2344  2.4929 -0.9749
   36SOL    MW4  217   0.661   0.048   0.349  0.3603  0.4632 -0.1042
   37SOL     OW  218   4.464   0.639   0.712  0.0665 -0.3145 -0.0045
   37SOL    HW2  219   4.527   0.639   0.785  0.5172  0.0160 -0.3866
   37SOL    HW3  220   4.512   0.601   0.639 -0.0355  0.3380 -0.4193
   37SOL    MW4  221   4.479   0.634   0.712  0.1125 -0.1848 -0.1097
   38SOL     OW  222   0.602   1.797   0.418  0.4221  0.2498  0.2326
   38SOL    HW2  223   0.640   1.710   0.433  2.2834  0.8975 -0.6138
   38SOL    HW3  224   0.674   1.858   0.436 -0.0937  1.4899 -1.7239
   38SOL    MW4  225   0.617   1.793   0.422  0.5997  0.4990 -0.1372
   39SOL     OW  226   0.160   1.190   0.483 -0.0908  0.0834 -0.5825
   39SOL    HW2  227   0.217   1.172   0.407 -1.4430 -0.8430 -1.4028
   39SOL    HW3  228   0.083   1.231   0.445 -0.0502  1.1965  0.5117
   39SOL    MW4  229   0.157   1.193   0.468 -0.2639  0.1081 -0.5464
   40SOL     OW  230   0.435   2.463   0.215 -0.2690  0.1257  0.6536
   40SOL    HW2  231   0.488   2.385   0.233  2.7011  1.4822 -1.7658
   40SOL    HW3  232   0.478   2.533   0.262 -0.4001  1.0995 -0.6457
   40SOL    MW4  233   0.448   2.462   0.223  0.1056  0.4332  0.1629
   41SOL     OW  234   0.040   2.646   0.367 -0.2053  0.0913  0.1759
   41SOL    HW2  235   0.106   2.708   0.401 -0.7693  0.0403  1.3970
   41SOL    HW3  236   0.090   2.584   0.315  0.8527 -0.4134  1.7405
   41SOL    MW4  237   0.056   2.646   0.365 -0.1402  0.0184  0.5434
   42SOL     OW  238   3.838   2.271   0.348  0.2749  0.2466  0.0895
   42SOL    HW2  239   3.899   2.329   0.303  0.7162  0.6062  1.1369
   42SOL    HW3  240   3.775   2.330   0.389  0.8090 -0.0029  1.2804
   42SOL    MW4  241   3.838   2.287   0.347  0.4034  0.2613  0.3848
   43SOL     OW  242   0.650   2.439   0.479  0.1085 -0.5444 -0.4206
   43SOL    HW2  243   0.628   2.365   0.422  1.6691 -1.3094 -0.0402
   43SOL    HW3  244   0.742   2.456   0.462  0.4919 -0.5201  1.6044
   43SOL    MW4  245   0.659   2.431   0.469  0.3649 -0.6421 -0.1033
   44SOL     OW  246   0.479   2.660   0.432 -0.1361  0.3148 -0.5840
   44SOL    HW2  247   0.527   2.595   0.483  0.6790  1.8933  0.7229
   44SOL    HW3  248   0.547   2.718   0.396 -0.9139  1.2580 -0.5756
   44SOL    MW4  249   0.494   2.659   0.434 -0.1312  0.6473 -0.4105
   45SOL     OW  250   4.451   3.066   0.373 -0.1055 -0.1059 -0.3086
   45SOL    HW2  251   4.538   3.081   0.334  0.5390  0.7466  1.4374
   45SOL    HW3  252   4.426   3.150   0.410 -1.3650 -0.5520 -0.1328
   45SOL    MW4  253   4.459   3.079   0.372 -0.1864 -0.0522 -0.0550
   46SOL     OW  254   0.221   2.845   0.472 -0.0038 -0.6284 -0.7196
   46SOL    HW2  255   0.226   2.922   0.414  2.4475  0.6576  1.1154
   46SOL    HW3  256   0.303   2.799   0.456 -0.1327 -1.2476  0.4167
   46SOL    MW4  257   0.233   2.849   0.462  0.3026 -0.5403 -0.3275
   47SOL     OW  258   0.809   4.288   0.066 -0.3817  0.6147  0.5102
   47SOL    HW2  259   0.850   4.210   0.104 -0.2053  0.4830  0.0540
   47SOL    HW3  260   0.756   4.255  -0.006 -2.4663  0.6370  2.0058
   47SOL    MW4  261   0.808   4.273   0.062 -0.6334  0.5999  0.6475
   48SOL     OW  262   4.446   3.303   0.498  0.3324  0.2429 -0.1011
   48SOL    HW2  263   4.398   3.375   0.456 -0.4586 -0.1826  0.0722
   48SOL    HW3  264   4.535   3.337   0.509  0.4167  0.5632 -1.6350
   48SOL    MW4  265   4.452   3.317   0.494  0.2389  0.2294 -0.2806
   49SOL     OW  266   0.569   3.614   0.526  0.0221  0.4720  0.1231
   49SOL    HW2  267   0.581   3.699   0.484  2.0705  0.2605  0.2152
   49SOL    HW3  268   0.592   3.630   0.618 -0.4447  0.0200  0.3205
   49SOL    MW4  269   0.574   3.628   0.533  0.2308  0.3846  0.1613
   50SOL     OW  270   1.042   3.502   0.426  0.7020 -0.3114  0.3758
   50SOL    HW2  271   1.010   3.543   0.346  0.1639 -0.4914  0.4964
   50SOL    HW3  272   0.971   3.442   0.452  1.1363 -0.7150  0.6394
   50SOL    MW4  273   1.028   3.499   0.418  0.6883 -0.3884  0.4265
   51SOL     OW  274   0.307   3.909   0.504  0.4571  0.0600 -0.0859
   51SOL    HW2  275   0.353   3.946   0.579 -0.2648  0.5410  0.1188
   51SOL    HW3  276   0.218   3.943   0.510  0.1889 -0.5031 -0.7378
   51SOL    MW4  277   0.301   3.918   0.515  0.3265  0.0491 -0.1448
   52SOL     OW  278   0.884   3.570   0.221  0.0878  0.8722  0.4120
   52SOL    HW2  279   0.894   3.535   0.133 -0.1109  0.2311  0.6354
   52SOL    HW3  280   0.851   3.659   0.209  0.6073  0.9885 -0.1679
   52SOL    MW4  281   0.881   3.577   0.208  0.1301  0.8028  0.3649
   53SOL     OW  282   0.682   4.300   0.438 -0.0939 -0.2246  0.3529
   53SOL    HW2  283   0.679   4.368   0.371  0.9918 -1.6749 -1.1986
   53SOL    HW3  284   0.608   4.320   0.496 -0.9272  1.1539 -1.1576
   53SOL    MW4  285   0.672   4.312   0.437 -0.0606 -0.2341 -0.0511
   54SOL     OW  286   0.894   0.142   0.451  0.7042  0.0528 -0.5795
   54SOL    HW2  287   0.894   0.142   0.547 -0.8846 -0.9476 -0.5677
   54SOL    HW3  288   0.962   0.205   0.427 -1.4321  3.1581  1.2245
   54SOL    MW4  289   0.903   0.150   0.461  0.2127  0.3305 -0.3400
   55SOL     OW  290   0.771   0.630   0.515 -0.3701  0.0023 -0.1977
   55SOL    HW2  291   0.796   0.721   0.498  0.1142  0.0064  0.5253
   55SOL    HW3  292   0.696   0.615   0.458 -0.0929  0.6797 -0.7472
   55SOL    MW4  293   0.764   0.640   0.505 -0.2696  0.0921 -0.1748
   56SOL     OW  294   0.524   0.562   0.352 -0.4488  0.0706 -0.1140
   56SOL    HW2  295   0.503   0.502   0.281 -0.2168 -0.2244  0.0692
   56SOL    HW3  296   0.469   0.639   0.335 -0.3257  0.0370 -0.6577
   56SOL    MW4  297   0.514   0.564   0.341 -0.4020  0.0273 -0.1615
   57SOL     OW  298   1.198   0.533   0.248 -0.2946  0.3102  0.4096
   57SOL    HW2  299   1.196   0.606   0.309  1.0645 -0.5173  1.4764
   57SOL    HW3  300   1.290   0.525   0.222 -0.4804 -0.7803  0.0264
   57SOL    MW4  301   1.210   0.541   0.253 -0.1398  0.0572  0.4998
   58SOL     OW  302   1.628   0.538   0.515  0.5098 -0.4400  0.1304
   58SOL    HW2  303   1.662   0.627   0.503  0.0634 -0.3517 -0.5414
   58SOL    HW3  304   1.587   0.540   0.601  0.0750  0.1459 -0.0855
   58SOL    MW4  305   1.627   0.550   0.525  0.3935 -0.3511  0.0133
   59SOL     OW  306   1.435   0.916   0.530 -0.5226  0.1894  0.1135
   59SOL    HW2  307   1.384   0.847   0.488 -1.0212  0.2556  0.5956
   59SOL    HW3  308   1.400   0.921   0.619  0.9366 -0.3584  0.7266
   59SOL    MW4  309   1.423   0.908   0.537 -0.3959  0.1259  0.2581
   60SOL     OW  310   0.763   1.569   0.513  0.2396 -0.1313 -0.0666
   60SOL    HW2  311   0.750   1.548   0.605  1.1909 -2.0023 -0.3523
   60SOL    HW3  312   0.842   1.624   0.512 -0.6323  1.1723  0.3634
   60SOL    MW4  313   0.772   1.574   0.525  0.2500 -0.2062 -0.0476
   61SOL     OW  314   0.781   1.185   0.310  0.1870  0.1314 -0.3863
   61SOL    HW2  315   0.724   1.228   0.246 -1.1851  0.1612  0.8065
   61SOL    HW3  316   0.723   1.124   0.356  1.5318 -1.1286 -0.3136
   61SOL    MW4  317   0.765   1.182   0.308  0.1834 -0.0309 -0.2193
   62SOL     OW  318   1.795   1.363   0.406 -0.3933 -0.0690  0.2230
   62SOL    HW2  319   1.812   1.450   0.444 -0.9175  0.3458 -0.4841
   62SOL    HW3  320   1.874   1.343   0.357 -0.0164 -0.2737  0.9032
   62SOL    MW4  321   1.808   1.372   0.405 -0.4127 -0.0412  0.2194
   63SOL     OW  322   1.059   1.038   0.354  0.0506 -0.4351  0.3147
   63SOL    HW2  323   1.143   1.084   0.359  1.3964 -2.5794 -1.4567
   63SOL    HW3  324   1.003   1.095   0.302  0.9390  0.2845  0.1450
   63SOL    MW4  325   1.063   1.051   0.348  0.3455 -0.6230  0.0586
   64SOL     OW  326   1.506   1.359   0.477 -0.3210 -0.1869 -0.0085
   64SOL    HW2  327   1.468   1.445   0.458 -0.8233 -0.2923  0.5032
   64SOL    HW3  328   1.592   1.361   0.436  0.1714  1.0282  1.0326
   64SOL    MW4  329   1.513   1.371   0.469 -0.3223 -0.0405  0.1964
   65SOL     OW  330   0.439   2.026   0.390  0.1367 -0.1209 -0.1257
   65SOL    HW2  331   0.344   2.023   0.396  0.0850 -1.6310 -1.3932
   65SOL    HW3  332   0.467   1.935   0.399  1.4578  0.3236  0.3329
   65SOL    MW4  333   0.430   2.014   0.392  0.3042 -0.2615 -0.2325
   66SOL     OW  334   1.000   1.772   0.496  0.1865 -0.8086  0.0354
   66SOL    HW2  335   1.013   1.760   0.590  0.5778 -0.8100 -0.0190
   66SOL    HW3  336   1.085   1.798   0.462 -0.3858  1.0446 -0.0302
   66SOL    MW4  337   1.013   1.774   0.504  0.1627 -0.5643  0.0196
   67SOL     OW  338   0.949   2.506   0.468  0.1176 -0.3589  0.2339
   67SOL    HW2  339   0.995   2.422   0.461  0.6946 -0.1862  1.8971
   67SOL    HW3  340   0.949   2.526   0.561 -0.9631  0.9762 -0.0417
   67SOL    MW4  341   0.955   2.497   0.479  0.0511 -0.1600  0.4170
   68SOL     OW  342   0.804   1.985   0.486  0.4692 -0.6392 -0.3724
   68SOL    HW2  343   0.825   2.034   0.407  1.0085 -1.2700 -0.6287
   68SOL    HW3  344   0.877   1.924   0.497  0.3471 -0.6239  0.5567
   68SOL    MW4  345   0.816   1.983   0.477  0.5242 -0.7204 -0.2836
   69SOL     OW  346   1.092   2.739   0.439  0.1958  0.1654 -0.4628
   69SOL    HW2  347   1.049   2.653   0.439 -1.1304  0.8165  1.0273
   69SOL    HW3  348   1.021   2.802   0.433  1.1812  1.1780 -1.6613
   69SOL    MW4  349   1.077   2.736   0.438  0.1509  0.3848 -0.4243
   70SOL     OW  350   0.607   2.223   0.298 -0.6054  0.2183 -0.2496
   70SOL    HW2  351   0.546   2.160   0.336 -1.7625  1.4905  0.0732
   70SOL    HW3  352   0.682   2.171   0.271 -0.6288 -1.0004  1.9106
   70SOL    MW4  353   0.609   2.208   0.299 -0.7612  0.2253  0.0780
   71SOL     OW  354   0.652   2.896   0.422 -0.1532 -0.1229 -0.5694
   71SOL    HW2  355   0.674   2.901   0.515  0.3512 -0.9197 -0.6470
   71SOL    HW3  356   0.612   2.981   0.403  1.0130  0.5799  0.0442
   71SOL    MW4  357   0.650   2.908   0.432  0.0672 -0.1352 -0.4987
   72SOL     OW  358   0.877   3.270   0.464 -0.0097 -0.3399  0.0261
   72SOL    HW2  359   0.859   3.262   0.558 -1.0353 -0.1154 -0.1440
   72SOL    HW3  360   0.796   3.308   0.428  0.4665 -0.2144 -0.9084
   72SOL    MW4  361   0.864   3.274   0.472 -0.0822 -0.2937 -0.1197
   73SOL     OW  362   1.253   3.691   0.507 -0.1664 -0.1946 -0.7439
   73SOL    HW2  363   1.342   3.680   0.474  0.1821 -3.4741  1.0410
   73SOL    HW3  364   1.204   3.618   0.468 -1.2023 -0.4881  1.0503
   73SOL    MW4  365   1.258   3.680   0.497 -0.2571 -0.6661 -0.2717
   74SOL     OW  366   0.918   4.082   0.197 -0.2704  0.1258  0.4416
   74SOL    HW2  367   1.004   4.110   0.227  0.2339 -2.0471  1.0649
   74SOL    HW3  368   0.869   4.063   0.277 -0.7309 -0.3671  0.0513
   74SOL    MW4  369   0.923   4.083   0.211 -0.2646 -0.2255  0.4723
   75SOL     OW  370   0.567   3.854   0.377  0.3810  0.2661 -0.4506
   75SOL    HW2  371   0.631   3.916   0.413  0.5259 -1.2559  1.9994
   75SOL    HW3  372   0.482   3.892   0.398  0.4714  0.3921 -0.3135
   75SOL    MW4  373   0.565   3.867   0.384  0.4121  0.0818 -0.1093
   76SOL     OW  374   1.157   4.163   0.292 -0.2313  0.6852  0.0344
   76SOL    HW2  375   1.230   4.218   0.265  0.3315 -0.6436 -1.2333
   76SOL    HW3  376   1.109   4.216   0.355  0.7079  2.3284 -0.6016
   76SOL    MW4  377   1.160   4.177   0.296 -0.0333  0.7262 -0.2168
   77SOL     OW  378   1.114   0.322   0.417 -0.0595  0.1681  0.2711
   77SOL    HW2  379   1.184   0.262   0.439 -1.4492 -2.4532 -2.1658
   77SOL    HW3  380   1.148   0.374   0.344 -0.0463  0.0576  0.1989
   77SOL    MW4  381   1.128   0.321   0.411 -0.2412 -0.1924 -0.0600
   78SOL     OW  382   0.996   4.556   0.322 -0.2267 -0.1024 -0.3678
   78SOL    HW2  383   0.987   4.492   0.392  0.6144  0.1288 -0.0365
   78SOL    HW3  384   0.969   4.639   0.363  0.9967  0.1650 -0.0848
   78SOL    MW4  385   0.991   4.559   0.337  0.0457 -0.0367 -0.2868
   79SOL     OW  386   1.398   4.333   0.230  0.4082  0.8375  0.2307
   79SOL    HW2  387   1.406   4.323   0.135  0.0872 -2.4833  0.5224
   79SOL    HW3  388   1.489   4.335   0.261  0.5050  0.9846 -0.0605
   79SOL    MW4  389   1.411   4.332   0.222  0.3787  0.4187  0.2308
   80SOL     OW  390   1.496   0.334   0.348 -0.2407 -0.4238  0.0531
   80SOL    HW2  391   1.569   0.276   0.325  1.4620  0.5114  2.8448
   80SOL    HW3  392   1.532   0.394   0.413 -3.2199  0.7850  0.6937
   80SOL    MW4  393   1.510   0.334   0.353 -0.4091 -0.1409  0.5060
   81SOL     OW  394   1.315   0.148   0.475  0.0398 -0.1778 -0.0940
   81SOL    HW2  395   1.303   0.064   0.430 -1.7328  0.6734 -1.2698
   81SOL    HW3  396   1.386   0.190   0.428 -0.6105 -0.0580 -0.9937
   81SOL    MW4  397   1.322   0.142   0.463 -0.2798 -0.0497 -0.3679
   82SOL     OW  398   1.824   0.333   0.487  0.8433  0.2157 -0.2480
   82SOL    HW2  399   1.803   0.296   0.573  0.6704 -1.2593 -0.8998
   82SOL    HW3  400   1.775   0.415   0.484  0.8730  0.3006  1.0742
   82SOL    MW4  401   1.815   0.339   0.498  0.8245  0.0324 -0.1596
   83SOL     OW  402   1.986   0.826   0.440 -0.0440  0.2504 -0.0383
   83SOL    HW2  403   1.894   0.811   0.461 -0.5419 -0.3706 -2.4418
   83SOL    HW3  404   2.016   0.741   0.406  1.2331  0.6459  0.0713
   83SOL    MW4  405   1.978   0.813   0.438  0.0588  0.2206 -0.3409
   84SOL     OW  406   1.719   0.808   0.502 -0.2717 -0.2609 -0.4041
   84SOL    HW2  407   1.743   0.843   0.588  1.7023  0.9266 -1.4151
   84SOL    HW3  408   1.640   0.856   0.478 -0.8411 -0.6030  0.7360
   84SOL    MW4  409   1.712   0.819   0.510 -0.0863 -0.1494 -0.3871
   85SOL     OW  410   1.302   1.155   0.423 -0.2646  0.0837 -0.0346
   85SOL    HW2  411   1.348   1.085   0.468 -0.5744 -0.2187 -0.1860
   85SOL    HW3  412   1.366   1.226   0.416  0.9706 -1.2303 -2.4832
   85SOL    MW4  413   1.316   1.155   0.428 -0.1425 -0.1295 -0.3776
   86SOL     OW  414   1.414   1.614   0.466  0.2995  0.4623  0.0838
   86SOL    HW2  415   1.397   1.625   0.560 -1.1532  1.2340 -0.2602
   86SOL    HW3  416   1.501   1.651   0.453  0.7582 -0.1795  1.2239
   86SOL    MW4  417   1.423   1.620   0.477  0.1684  0.4795  0.1889
   87SOL     OW  418   1.261   1.848   0.404  0.0349  0.0622 -0.6390
   87SOL    HW2  419   1.293   1.761   0.427 -2.2500 -0.6736 -0.0970
   87SOL    HW3  420   1.253   1.845   0.309  0.2426 -0.2299 -0.6497
   87SOL    MW4  421   1.264   1.836   0.394 -0.2391 -0.0736 -0.5689
   88SOL     OW  422   1.114   2.292   0.354 -0.2176 -0.1887  0.1230
   88SOL    HW2  423   1.165   2.367   0.321 -1.4349  0.4608 -0.3368
   88SOL    HW3  424   1.172   2.248   0.415  0.6585  0.9241  0.1068
   88SOL    MW4  425   1.128   2.296   0.358 -0.2626  0.0436  0.0602
   89SOL     OW  426   1.241   2.542   0.311 -0.2725  0.2012 -0.4361
   89SOL    HW2  427   1.309   2.555   0.377 -0.6445 -0.0475 -0.0089
   89SOL    HW3  428   1.195   2.626   0.307 -0.1838  0.2492 -0.4625
   89SOL    MW4  429   1.244   2.555   0.319 -0.3096  0.1745 -0.3832
   90SOL     OW  430   2.043   2.189   0.453 -0.0840 -0.4031 -0.4409
   90SOL    HW2  431   2.009   2.145   0.531 -2.2342  0.7266 -0.7073
   90SOL    HW3  432   2.081   2.270   0.487 -0.7549 -0.0491 -0.5389
   90SOL    MW4  433   2.044   2.194   0.468 -0.4561 -0.2072 -0.4890
   91SOL     OW  434   1.574   2.060   0.490 -0.5324  0.0789  0.2017
   91SOL    HW2  435   1.633   2.116   0.441 -1.5482  0.5490 -0.5056
   91SOL    HW3  436   1.486   2.095   0.471 -1.0675 -0.8777  0.8621
   91SOL    MW4  437   1.570   2.072   0.481 -0.7370  0.0148  0.1955
   92SOL     OW  438   0.889   2.142   0.262 -0.3530  0.3358  0.1877
   92SOL    HW2  439   0.965   2.187   0.301 -1.1984  1.7709  0.2003
   92SOL    HW3  440   0.919   2.117   0.175  0.8934 -1.1410  1.0113
   92SOL    MW4  441   0.903   2.144   0.256 -0.3002  0.3304  0.2980
   93SOL     OW  442   0.933   2.974   0.396  0.0504 -0.1823  0.3015
   93SOL    HW2  443   0.838   2.960   0.398  0.0393  0.0012  1.8750
   93SOL    HW3  444   0.943   3.069   0.398  0.2665 -0.1636 -1.0138
   93SOL    MW4  445   0.921   2.985   0.397  0.0774 -0.1557  0.3355
   94SOL     OW  446   1.783   2.211   0.360  0.2196 -0.6340 -0.5692
   94SOL    HW2  447   1.779   2.193   0.266  0.3853 -1.7595 -0.3638
   94SOL    HW3  448   1.875   2.197   0.383 -0.0345 -1.4373 -0.0295
   94SOL    MW4  449   1.795   2.207   0.350  0.2079 -0.8886 -0.4709
   95SOL     OW  450   1.881   3.970   0.208 -0.0221 -0.5896  0.0881
   95SOL    HW2  451   1.848   3.975   0.118 -0.2817 -1.0498  0.1562
   95SOL    HW3  452   1.855   3.883   0.239 -0.9537 -0.0094  0.9962
   95SOL    MW4  453   1.873   3.959   0.201 -0.1793 -0.5736  0.2169
   96SOL     OW  454   1.304   3.974   0.454 -0.1684 -0.2258 -0.1383
   96SOL    HW2  455   1.277   3.882   0.452 -0.5597 -0.0971 -0.9930
   96SOL    HW3  456   1.238   4.020   0.402 -0.3730  0.6490  0.8676
   96SOL    MW4  457   1.291   3.968   0.447 -0.2470 -0.0935 -0.1183
   97SOL     OW  458   1.915   2.621   0.457 -0.0488  0.3259  0.2219
   97SOL    HW2  459   1.951   2.708   0.472 -1.7516  0.9060  1.1088
   97SOL    HW3  460   1.990   2.562   0.469  0.8162  1.5512  1.0651
   97SOL    MW4  461   1.930   2.625   0.461 -0.1591  0.5641  0.4502
   98SOL     OW  462   1.707   3.501   0.190 -0.1404  0.4843 -0.1535
   98SOL    HW2  463   1.645   3.467   0.254 -0.2184 -0.6189 -0.8110
   98SOL    HW3  464   1.678   3.465   0.106 -0.7575  2.8620 -1.0295
   98SOL    MW4  465   1.695   3.492   0.187 -0.2322  0.6528 -0.3558
   99SOL     OW  466   1.266   3.326   0.442  0.2600  0.3473 -0.2325
   99SOL    HW2  467   1.247   3.234   0.426 -0.1736  0.5886 -1.1732
   99SOL    HW3  468   1.184   3.371   0.421  0.0374  0.8227  1.5508
   99SOL    MW4  469   1.253   3.320   0.437  0.1733  0.4420 -0.1213
  100SOL     OW  470   1.531   3.435   0.393  0.0470  0.7479 -0.0402
  100SOL    HW2  471   1.450   3.385   0.400 -0.0922  1.0157  0.3077
  100SOL    HW3  472   1.596   3.380   0.437  0.0587  0.5250 -0.3342
  100SOL    MW4  473   1.529   3.421   0.400  0.0302  0.7536 -0.0331
  101SOL     OW  474   0.772   4.035   0.453  0.5516  0.3931 -0.2701
  101SOL    HW2  475   0.811   4.029   0.540 -0.1689  2.0604  0.1750
  101SOL    HW3  476   0.733   4.122   0.450 -1.2760 -0.4381 -1.4831
  101SOL    MW4  477   0.772   4.046   0.464  0.2155  0.5035 -0.3715
  102SOL     OW  478   2.169   4.298   0.337 -0.3594 -0.1988 -0.2893
  102SOL    HW2  479   2.086   4.253   0.355 -0.9378  0.8472 -0.2817
  102SOL    HW3  480   2.227   4.272   0.409 -1.4298  0.9022  0.9974
  102SOL    MW4  481   2.166   4.288   0.349 -0.5767  0.0849 -0.1186
  103SOL     OW  482   1.679   4.570   0.393  0.5485 -0.0120  0.2581
  103SOL    HW2  483   1.651   4.565   0.484 -1.4780 -1.9631 -0.4015
  103SOL    HW3  484   1.658   4.660   0.366 -2.6042 -0.5490  0.6464
  103SOL    MW4  485   1.672   4.581   0.401 -0.1349 -0.3405  0.2223
  104SOL     OW  486   1.936   0.013   0.456 -0.0739  0.0400 -0.0885
  104SOL    HW2  487   1.914   0.100   0.488 -0.5798 -0.0998 -0.0582
  104SOL    HW3  488   1.852  -0.027   0.433 -0.1022 -1.4130  2.3702
  104SOL    MW4  489   1.922   0.019   0.457 -0.1444 -0.1701  0.2399
  105SOL     OW  490   1.275   4.567   0.355 -0.3782  0.7328 -0.0617
  105SOL    HW2  491   1.319   4.497   0.309 -0.7550  0.6685 -0.3234
  105SOL    HW3  492   1.186   4.568   0.320 -0.6718  0.6760  0.6646
  105SOL    MW4  493   1.269   4.558   0.345 -0.4666  0.7172 -0.0004
  106SOL     OW  494   2.081   0.337   0.591  0.1163 -0.3406 -0.1882
  106SOL    HW2  495   2.156   0.383   0.551  0.6380 -2.7090 -2.0572
  106SOL    HW3  496   2.010   0.347   0.527 -0.1926 -0.9020  0.0691
  106SOL    MW4  497   2.082   0.345   0.577  0.1442 -0.7271 -0.4008
  107SOL     OW  498   2.327   1.720   0.443  0.1375 -0.1284 -0.5643
  107SOL    HW2  499   2.273   1.670   0.382 -0.9954 -0.5255  0.7259
  107SOL    HW3  500   2.294   1.810   0.437  0.2386 -0.1065 -0.7761
  107SOL    MW4  501   2.316   1.725   0.434  0.0012 -0.1777 -0.4220
  108SOL     OW  502   2.070   1.108   0.487 -0.0066 -0.3787 -0.0868
  108SOL    HW2  503   2.165   1.096   0.493  0.3209  0.7996 -2.4533
  108SOL    HW3  504   2.036   1.021   0.468  0.7193 -0.5753 -0.5114
  108SOL    MW4  505   2.078   1.095   0.485  0.1321 -0.2493 -0.4551
  109SOL     OW  506   2.028   1.270   0.267 -0.4182  0.1155  0.8129
  109SOL    HW2  507   2.029   1.224   0.183  1.5283  0.5984  0.5430
  109SOL    HW3  508   2.041   1.202   0.332  3.0371  0.2432  0.3817
  109SOL    MW4  509   2.030   1.255   0.264  0.2944  0.1962  0.7204
  110SOL     OW  510   2.562   1.276   0.528 -0.1050  0.1862  0.4281
  110SOL    HW2  511   2.652   1.241   0.524  0.1238  0.8095  0.1257
  110SOL    HW3  512   2.567   1.361   0.485 -0.5849  0.7670  1.4891
  110SOL    MW4  513   2.575   1.282   0.522 -0.1380  0.3451  0.5282
  111SOL     OW  514   2.156   1.550   0.314  0.2153 -0.1541 -0.6901
  111SOL    HW2  515   2.071   1.575   0.349  0.4329  0.4989 -0.6138
  111SOL    HW3  516   2.140   1.468   0.267 -0.2726 -0.5032  0.0808
  111SOL    MW4  517   2.143   1.543   0.312  0.1798 -0.1140 -0.5783
  112SOL     OW  518   1.686   1.750   0.492  0.5213  0.0986 -0.0199
  112SOL    HW2  519   1.670   1.844   0.483 -2.9010 -0.5609 -1.5852
  112SOL    HW3  520   1.682   1.734   0.586 -0.8279  1.2252  0.1323
  112SOL    MW4  521   1.683   1.760   0.503 -0.1082  0.1602 -0.2063
  113SOL     OW  522   2.184   2.440   0.496  0.0590 -0.3230 -0.5150
  113SOL    HW2  523   2.274   2.464   0.472 -0.1171 -0.3525 -1.2092
  113SOL    HW3  524   2.186   2.435   0.592  0.4184  1.2015 -0.4227
  113SOL    MW4  525   2.196   2.443   0.506  0.0832 -0.1254 -0.5945
  114SOL     OW  526   1.747   3.268   0.487  0.0108  0.2751 -0.4152
  114SOL    HW2  527   1.717   3.178   0.503  1.9555  0.1456  2.8888
  114SOL    HW3  528   1.818   3.258   0.423  0.7569 -0.6487  0.5367
  114SOL    MW4  529   1.752   3.255   0.481  0.3657  0.1361  0.1463
  115SOL     OW  530   1.472   2.867   0.344  0.1301  0.1246  0.3068
  115SOL    HW2  531   1.531   2.809   0.294  0.9727 -1.7182  3.2777
  115SOL    HW3  532   1.530   2.915   0.403 -1.1069 -0.1560  1.7900
  115SOL    MW4  533   1.488   2.865   0.345  0.0780 -0.1554  0.8944
  116SOL     OW  534   1.199   3.039   0.398  0.0652 -0.2653 -0.4903
  116SOL    HW2  535   1.259   2.966   0.378  0.7032 -0.0077  0.4668
  116SOL    HW3  536   1.112   3.005   0.374  0.1911 -1.8257  1.1568
  116SOL    MW4  537   1.195   3.025   0.392  0.1659 -0.4373 -0.1467
  117SOL     OW  538   1.281   2.115   0.497  0.1700  0.2522  0.2362
  117SOL    HW2  539   1.258   2.111   0.590  0.2462 -0.7905  0.2173
  117SOL    HW3  540   1.270   2.025   0.466  0.1237  0.5982 -0.7722
  117SOL    MW4  541   1.276   2.103   0.505  0.1740  0.1602  0.1007
  118SOL     OW  542   3.595   2.160   0.285  0.2371 -0.2671  0.1449
  118SOL    HW2  543   3.690   2.168   0.291  0.0918  1.5334  0.5048
  118SOL    HW3  544   3.573   2.088   0.344  1.4049 -0.9995 -0.2970
  118SOL    MW4  545   3.604   2.152   0.294  0.3719 -0.1261  0.1341
  119SOL     OW  546   2.188   3.063   0.417  0.0533 -0.0536  0.1181
  119SOL    HW2  547   2.269   3.092   0.375 -0.5442  1.8233  0.2206
  119SOL    HW3  548   2.211   3.053   0.510  0.6215 -1.3118 -0.1511
  119SOL    MW4  549   2.201   3.066   0.424  0.0496  0.0281  0.0961
  120SOL     OW  550   1.440   2.605   0.523  0.4827 -0.2761  0.1019
  120SOL    HW2  551   1.523   2.566   0.497  1.3797  1.1089  0.8592
  120SOL    HW3  552   1.447   2.697   0.499  0.9999  0.8823  4.2931
  120SOL    MW4  553   1.452   2.612   0.516  0.6694  0.0591  0.7548
  121SOL     OW  554   1.663   2.999   0.510  0.3283  0.0555  0.2393
  121SOL    HW2  555   1.638   2.965   0.596  1.4263  2.4979  1.5758
  121SOL    HW3  556   1.751   2.964   0.495 -0.0919 -0.8332 -0.1467
  121SOL    MW4  557   1.671   2.990   0.519  0.4178  0.2601  0.3647
  122SOL     OW  558   2.148   3.445   0.513  0.4506  0.0977  0.2175
  122SOL    HW2  559   2.086   3.387   0.471  1.1038 -0.1501 -0.4132
  122SOL    HW3  560   2.170   3.401   0.596 -2.3323  1.5355  1.7716
  122SOL    MW4  561   2.143   3.432   0.519  0.1698  0.2544  0.3393
  123SOL     OW  562   1.806   3.726   0.314  0.1685 -0.5602 -0.1164
  123SOL    HW2  563   1.778   3.650   0.264 -0.3536 -0.3731 -0.1097
  123SOL    HW3  564   1.888   3.699   0.354  0.7905 -0.5879 -1.3711
  123SOL    MW4  565   1.813   3.712   0.313  0.1816 -0.5393 -0.2810
  124SOL     OW  566   1.531   4.138   0.522  0.7020  0.3280 -0.3124
  124SOL    HW2  567   1.471   4.081   0.474  3.2346 -1.2926 -1.6858
  124SOL    HW3  568   1.478   4.213   0.547 -1.5256 -0.3325 -2.7998
  124SOL    MW4  569   1.516   4.140   0.519  0.7423  0.0277 -0.8218
  125SOL     OW  570   1.655   4.316   0.326  0.2598 -0.0944  0.4388
  125SOL    HW2  571   1.610   4.263   0.393 -1.2535  0.3352 -0.2084
  125SOL    HW3  572   1.651   4.405   0.359 -1.3764  0.2632 -0.6683
  125SOL    MW4  573   1.648   4.321   0.339 -0.1559  0.0100  0.2074
  126SOL     OW  574   1.356   4.391   0.597 -0.4169 -0.0497  0.4774
  126SOL    HW2  575   1.307   4.444   0.535  0.7370  1.4321  0.8038
  126SOL    HW3  576   1.421   4.451   0.634  0.0122 -1.3397  1.8682
  126SOL    MW4  577   1.358   4.406   0.594 -0.2080 -0.0243  0.7039
  127SOL     OW  578   2.377   0.015   0.595 -0.3367 -0.2176  0.1492
  127SOL    HW2  579   2.314  -0.042   0.551 -0.3012 -0.2946  0.1988
  127SOL    HW3  580   2.454  -0.040   0.608 -0.4404 -0.2717  0.5383
  127SOL    MW4  581   2.379   0.000   0.591 -0.3457 -0.2351  0.2071
  128SOL     OW  582   2.184   4.535   0.486  0.3885  0.2496 -0.5777
  128SOL    HW2  583   2.198   4.465   0.421 -0.9306  0.7926 -1.4540
  128SOL    HW3  584   2.102   4.576   0.460  0.0246  0.7042  1.2540
  128SOL    MW4  585   2.175   4.531   0.474  0.1664  0.3805 -0.4516
  129SOL     OW  586   2.623   0.853   0.530 -0.5589  0.2769  0.2217
  129SOL    HW2  587   2.594   0.774   0.485  1.1766 -0.8023  0.9316
  129SOL    HW3  588   2.699   0.882   0.480 -1.8195  2.1258 -0.6596
  129SOL    MW4  589   2.630   0.846   0.518 -0.4964  0.3784  0.1992
  130SOL     OW  590   2.283   0.461   0.444 -0.6009 -0.5067 -0.0564
  130SOL    HW2  591   2.334   0.385   0.473 -0.2897 -0.5646 -0.7553
  130SOL    HW3  592   2.348   0.526   0.419 -0.8626  0.1729  0.9740
  130SOL    MW4  593   2.298   0.459   0.445 -0.5944 -0.4247 -0.0127
  131SOL     OW  594   2.989   0.668   0.471  0.1394  0.0785  0.2449
  131SOL    HW2  595   2.936   0.743   0.447  0.1421 -0.2888 -0.9401
  131SOL    HW3  596   3.078   0.703   0.479 -0.1537  0.5560  1.5479
  131SOL    MW4  597   2.994   0.682   0.469  0.1013  0.0930  0.2605
  132SOL     OW  598   2.873   0.919   0.405  0.6058 -0.3017  0.3402
  132SOL    HW2  599   2.882   0.926   0.310 -0.2202 -0.5161  0.2387
  132SOL    HW3  600   2.867   1.009   0.436  1.5022 -0.2143  0.2535
  132SOL    MW4  601   2.873   0.931   0.397  0.6151 -0.3185  0.3154
  133SOL     OW  602   2.838   1.177   0.482 -0.4947 -0.1053 -0.1714
  133SOL    HW2  603   2.856   1.260   0.438  0.2494 -0.2445 -0.1367
  133SOL    HW3  604   2.883   1.184   0.566  0.1854 -0.8251 -0.4672
  133SOL    MW4  605   2.846   1.189   0.487 -0.3066 -0.2186 -0.2059
  134SOL     OW  606   2.578   1.555   0.459  0.2895  0.2015 -0.3485
  134SOL    HW2  607   2.605   1.583   0.546 -0.7300  0.1672 -0.0159
  134SOL    HW3  608   2.507   1.614   0.435  1.2435  0.8698 -1.5923
  134SOL    MW4  609   2.572   1.566   0.467  0.2809  0.2850 -0.4688
  135SOL     OW  610   2.698   0.220   0.402 -0.3854  0.1022  0.4054
  135SOL    HW2  611   2.720   0.127   0.394  0.7532  0.5144 -1.3716
  135SOL    HW3  612   2.781   0.266   0.390 -1.3539  1.4515 -1.4259
  135SOL    MW4  613   2.712   0.214   0.399 -0.3629  0.3346 -0.0707
  136SOL     OW  614   2.248   1.990   0.431 -0.5397 -0.3810 -0.0500
  136SOL    HW2  615   2.314   2.058   0.422 -0.0615 -0.9170 -0.6197
  136SOL    HW3  616   2.166   2.037   0.447  0.2443  0.2470  2.3838
  136SOL    MW4  617   2.246   2.005   0.432 -0.3731 -0.3688  0.1960
  137SOL     OW  618   1.913   1.602   0.452  0.2720 -0.5762  0.1333
  137SOL    HW2  619   1.936   1.605   0.545  0.6654 -0.7914  0.0436
  137SOL    HW3  620   1.839   1.662   0.444 -1.7587 -2.8520  1.1399
  137SOL    MW4  621   1.906   1.611   0.463  0.0560 -0.9048  0.2543
  138SOL     OW  622   2.421   2.203   0.467 -0.3328 -0.0575  0.4420
  138SOL    HW2  623   2.390   2.294   0.457 -1.9588 -0.7025 -0.6775
  138SOL    HW3  624   2.515   2.208   0.449 -0.4425  1.3861  0.1762
  138SOL    MW4  625   2.429   2.216   0.463 -0.5620  0.0479  0.2592
  139SOL     OW  626   2.703   2.283   0.473  0.1570  0.2244  0.0099
  139SOL    HW2  627   2.754   2.364   0.465 -0.2448  0.2636 -2.3063
  139SOL    HW3  628   2.754   2.229   0.535  0.6087  2.0723  1.3042
  139SOL    MW4  629   2.717   2.287   0.480  0.1636  0.4735 -0.1249
  140SOL     OW  630   2.603   2.774   0.503  0.3284  0.1993  0.5784
  140SOL    HW2  631   2.637   2.854   0.462 -0.1974 -0.2670 -0.7796
  140SOL    HW3  632   2.562   2.805   0.584  1.5662  1.1028  0.8638
  140SOL    MW4  633   2.602   2.789   0.508  0.4222  0.2570  0.4368
  141SOL     OW  634   1.685   2.469   0.470  0.2338 -0.3665 -0.0713
  141SOL    HW2  635   1.721   2.380   0.467 -0.4703 -0.8240  2.8673
  141SOL    HW3  636   1.756   2.525   0.439  2.0643 -1.6267  1.7294
  141SOL    MW4  637   1.699   2.464   0.466  0.3824 -0.5932  0.5540
  142SOL     OW  638   1.944   2.911   0.477  0.0729 -0.1520  0.0456
  142SOL    HW2  639   1.964   2.923   0.570 -0.3465 -0.5470  0.1934
  142SOL    HW3  640   2.020   2.945   0.431 -0.0171  0.6868  0.5143
  142SOL    MW4  641   1.957   2.917   0.483  0.0057 -0.0935  0.1269
  143SOL     OW  642   2.043   3.713   0.479 -0.5626 -0.3646  0.2865
  143SOL    HW2  643   2.038   3.765   0.559  3.1916  0.3733  0.1362
  143SOL    HW3  644   2.090   3.634   0.505 -1.9231 -1.4779 -0.5726
  143SOL    MW4  645   2.048   3.710   0.493 -0.2470 -0.4141  0.1533
  144SOL     OW  646   2.271   3.943   0.562  0.0108 -0.4952  0.6057
  144SOL    HW2  647   2.178   3.967   0.553  0.3278 -0.0420 -1.5505
  144SOL    HW3  648   2.315   4.025   0.581 -0.0847 -0.8049  2.2589
  144SOL    MW4  649   2.264   3.957   0.563  0.0401 -0.4764  0.5394
  145SOL     OW  650   1.588   3.685   0.489 -0.1254 -0.2662 -0.3154
  145SOL    HW2  651   1.568   3.600   0.448  0.4313 -0.3092 -0.4976
  145SOL    HW3  652   1.676   3.707   0.458 -0.1107  0.1931  0.0449
  145SOL    MW4  653   1.597   3.677   0.480 -0.0502 -0.2110 -0.2919
  146SOL     OW  654   1.984   3.240   0.350  0.5222  0.1785 -0.3397
  146SOL    HW2  655   1.977   3.251   0.255  0.9122  0.2793 -0.3587
  146SOL    HW3  656   2.059   3.181   0.362  1.4536  1.3973 -0.0404
  146SOL    MW4  657   1.993   3.234   0.339  0.6967  0.3524 -0.3027
  147SOL     OW  658   1.907   4.199   0.370 -0.3324  0.5752 -0.3137
  147SOL    HW2  659   1.888   4.120   0.319 -1.3467  0.1482  0.7223
  147SOL    HW3  660   1.824   4.246   0.373 -0.3366  0.4921  1.1162
  147SOL    MW4  661   1.894   4.195   0.364 -0.4668  0.5074  0.0117
  148SOL     OW  662   2.138   3.898   0.300  0.2297 -0.5865 -0.0947
  148SOL    HW2  663   2.065   3.936   0.251 -0.0970 -0.9362  0.1148
  148SOL    HW3  664   2.096   3.847   0.369  0.6920  0.5740  1.0643
  148SOL    MW4  665   2.122   3.896   0.303  0.2477 -0.4790  0.0859
  149SOL     OW  666   2.723   4.592   0.423 -0.1766 -0.4077  0.1140
  149SOL    HW2  667   2.693   4.576   0.512 -1.9678 -0.1539 -0.4347
  149SOL    HW3  668   2.789   4.524   0.407 -0.1743 -0.7291  1.4616
  149SOL    MW4  669   2.728   4.581   0.432 -0.4125 -0.4168  0.2194
  150SOL     OW  670   2.469   3.721   0.250  0.8507  0.0484  0.1299
  150SOL    HW2  671   2.563   3.708   0.265  0.4573 -0.6736  2.0925
  150SOL    HW3  672   2.431   3.634   0.258 -0.0733  0.4304 -0.0723
  150SOL    MW4  673   2.476   3.708   0.253  0.6766  0.0036  0.3622
  151SOL     OW  674   2.854   4.134   0.510  0.1455 -0.2499 -0.2335
  151SOL    HW2  675   2.848   4.087   0.593  0.0839  0.5615  0.2179
  151SOL    HW3  676   2.937   4.105   0.472  1.1905  0.9873  1.0839
  151SOL    MW4  677   2.864   4.124   0.516  0.2751  0.0200 -0.0002
  152SOL     OW  678   2.446   0.271   0.520  0.4049 -0.0533 -0.2061
  152SOL    HW2  679   2.430   0.180   0.547  0.5059  0.3751  1.3556
  152SOL    HW3  680   2.519   0.264   0.459  0.5573 -1.0133  0.0656
  152SOL    MW4  681   2.454   0.258   0.516  0.4382 -0.1234  0.0357
  153SOL     OW  682   1.716   0.183   0.277  0.2347 -0.4976  0.3165
  153SOL    HW2  683   1.751   0.202   0.190  2.1015 -0.7993  0.9881
  153SOL    HW3  684   1.769   0.236   0.336 -1.2393 -0.0405  1.2572
  153SOL    MW4  685   1.727   0.193   0.273  0.2865 -0.4771  0.5292
  154SOL     OW  686   3.191   0.312   0.496 -0.1572 -0.0002  0.0846
  154SOL    HW2  687   3.246   0.384   0.528  1.6706 -1.0332 -0.6882
  154SOL    HW3  688   3.174   0.259   0.574  0.8379 -0.2500  0.1387
  154SOL    MW4  689   3.196   0.314   0.511  0.2151 -0.1695 -0.0102
  155SOL     OW  690   2.388   1.047   0.531  0.0256 -0.2978 -0.0488
  155SOL    HW2  691   2.423   1.136   0.526 -1.1497  0.1874  0.2761
  155SOL    HW3  692   2.457   0.992   0.493  1.3688  0.5821  1.1001
  155SOL    MW4  693   2.402   1.051   0.525  0.0477 -0.1178  0.1457
  156SOL     OW  694   3.226   0.781   0.507 -0.4077  0.4288 -0.0657
  156SOL    HW2  695   3.255   0.864   0.470 -1.2769  1.1602  0.8777
  156SOL    HW3  696   3.214   0.798   0.600  0.6827 -1.1054  0.3757
  156SOL    MW4  697   3.228   0.794   0.514 -0.3786  0.3229  0.1170
  157SOL     OW  698   3.149   1.450   0.435  0.4532  0.0901  0.0656
  157SOL    HW2  699   3.058   1.461   0.410  0.5250  0.9472  0.1560
  157SOL    HW3  700   3.183   1.539   0.441  1.8075 -0.2715 -1.8109
  157SOL    MW4  701   3.142   1.463   0.433  0.6413  0.1553 -0.1701
  158SOL     OW  702   3.363   1.292   0.495 -0.2333 -0.0412  0.1728
  158SOL    HW2  703   3.375   1.298   0.589  1.2546  1.3859 -0.0800
  158SOL    HW3  704   3.280   1.336   0.477  0.0895  0.7699  0.6847
  158SOL    MW4  705   3.354   1.298   0.505  0.0055  0.2540  0.2069
  159SOL     OW  706   3.262   1.700   0.467  0.0829 -0.0010 -0.0112
  159SOL    HW2  707   3.258   1.763   0.395 -1.3060  1.0442  0.9387
  159SOL    HW3  708   3.355   1.692   0.488  0.3376  1.0890 -0.7043
  159SOL    MW4  709   3.274   1.707   0.461 -0.0668  0.2807  0.0227
  160SOL     OW  710   2.751   0.149   0.656 -0.4205  0.0636 -0.1900
  160SOL    HW2  711   2.732   0.221   0.717  0.9694  1.7899 -1.7081
  160SOL    HW3  712   2.728   0.184   0.570  1.0734 -0.9819 -1.0417
  160SOL    MW4  713   2.746   0.163   0.653 -0.0396  0.1535 -0.5027
  161SOL     OW  714   3.088   2.039   0.598  0.0922  0.2109  0.2451
  161SOL    HW2  715   2.999   2.066   0.619  0.0338  0.4245 -0.2813
  161SOL    HW3  716   3.118   1.992   0.677 -0.3158  0.5433  0.5987
  161SOL    MW4  717   3.080   2.036   0.611  0.0308  0.2830  0.2224
  162SOL     OW  718   2.789   2.554   0.492 -0.8002  0.4052  0.4889
  162SOL    HW2  719   2.875   2.585   0.466 -0.1470 -1.2564  0.6018
  162SOL    HW3  720   2.731   2.628   0.477  0.7965  1.8593  1.3478
  162SOL    MW4  721   2.792   2.568   0.486 -0.5033  0.3779  0.6171
  163SOL     OW  722   2.871   1.455   0.444 -0.6499  0.3370 -0.3118
  163SOL    HW2  723   2.786   1.485   0.412 -0.9598 -0.6290 -0.4067
  163SOL    HW3  724   2.881   1.498   0.529 -0.4868  1.7510 -1.0290
  163SOL    MW4  725   2.861   1.465   0.451 -0.6690  0.3961 -0.4190
  164SOL     OW  726   2.451   2.498   0.486 -0.2609 -0.1599 -0.2658
  164SOL    HW2  727   2.470   2.591   0.496 -1.9207  0.2366 -0.7280
  164SOL    HW3  728   2.536   2.456   0.495  0.2686  1.2521  1.6618
  164SOL    MW4  729   2.465   2.505   0.488 -0.4101  0.0792 -0.0725
  165SOL     OW  730   2.773   3.262   0.535 -0.0521  0.0995  0.0280
  165SOL    HW2  731   2.851   3.316   0.543  0.9845 -1.0720 -1.7441
  165SOL    HW3  732   2.756   3.232   0.624  1.3166  0.6579  0.4962
  165SOL    MW4  733   2.781   3.265   0.548  0.2651  0.0184 -0.1441
  166SOL     OW  734   3.000   3.426   0.582  0.0616  0.2687 -0.6227
  166SOL    HW2  735   3.048   3.348   0.608 -0.3084 -0.0290 -0.8401
  166SOL    HW3  736   3.069   3.490   0.560  0.3869  0.7982  1.8488
  166SOL    MW4  737   3.016   3.424   0.582  0.0556  0.2992 -0.3253
  167SOL     OW  738   3.193   3.054   0.523  0.3448 -0.0386 -0.4096
  167SOL    HW2  739   3.112   3.005   0.531  1.8172 -2.3132  1.0394
  167SOL    HW3  740   3.191   3.115   0.597 -0.2208  0.2145 -0.6293
  167SOL    MW4  741   3.182   3.056   0.534  0.4647 -0.3049 -0.2474
  168SOL     OW  742   2.368   3.453   0.360  0.0012  0.0260  0.1293
  168SOL    HW2  743   2.436   3.479   0.422  1.3861 -1.0960 -0.8891
  168SOL    HW3  744   2.291   3.439   0.414  1.0452 -0.4186  1.5402
  168SOL    MW4  745   2.367   3.454   0.375  0.3216 -0.1810  0.1811
  169SOL     OW  746   2.400   3.172   0.291  0.1747  0.1516  0.2321
  169SOL    HW2  747   2.391   3.264   0.315  0.2783  0.2955 -0.2837
  169SOL    HW3  748   2.425   3.173   0.199  0.1567 -0.3930  0.2188
  169SOL    MW4  749   2.402   3.184   0.282  0.1857  0.0989  0.1623
  170SOL     OW  750   3.543   3.355   0.267 -0.2512 -0.1537 -0.1701
  170SOL    HW2  751   3.509   3.297   0.335 -1.1787 -1.0233 -1.3585
  170SOL    HW3  752   3.635   3.369   0.292 -0.7928  0.2331  1.7045
  170SOL    MW4  753   3.551   3.349   0.279 -0.4449 -0.2177 -0.0795
  171SOL     OW  754   2.428   4.108   0.303  0.1047 -0.1328 -0.1515
  171SOL    HW2  755   2.351   4.160   0.280 -0.0499 -0.3707 -0.1677
  171SOL    HW3  756   2.496   4.174   0.319  0.6702  0.0017 -2.8993
  171SOL    MW4  757   2.427   4.124   0.302  0.1590 -0.1464 -0.5162
  172SOL     OW  758   2.567   3.860   0.495  0.3100 -0.1651 -0.0872
  172SOL    HW2  759   2.542   3.806   0.570  1.0895  1.0386  1.0486
  172SOL    HW3  760   2.645   3.818   0.459  0.2060 -0.4803  0.0582
  172SOL    MW4  761   2.574   3.848   0.500  0.3994 -0.0479  0.0818
  173SOL     OW  762   3.578   3.967   0.482  0.2731  0.4475  0.4935
  173SOL    HW2  763   3.517   4.007   0.419  0.2111  0.4579  0.5593
  173SOL    HW3  764   3.584   3.876   0.455  1.0769  0.6947 -0.1738
  173SOL    MW4  765   3.571   3.961   0.470  0.3710  0.4814  0.4142
  174SOL     OW  766   2.936   4.402   0.482  0.1975 -0.5202 -0.2957
  174SOL    HW2  767   2.955   4.430   0.572 -3.0044 -0.6460  0.4642
  174SOL    HW3  768   2.907   4.312   0.491 -1.8027  0.0030 -1.2156
  174SOL    MW4  769   2.935   4.394   0.495 -0.4890 -0.4683 -0.3168
  175SOL     OW  770   3.371   4.343   0.425 -0.0156 -0.3055 -0.2056
  175SOL    HW2  771   3.463   4.369   0.439  0.2143 -0.3902 -1.4873
  175SOL    HW3  772   3.330   4.421   0.388 -0.1160 -0.7331 -0.9908
  175SOL    MW4  773   3.378   4.357   0.422  0.0014 -0.3734 -0.4783
  176SOL     OW  774   3.165   4.553   0.364  0.7065  0.0694  0.2788
  176SOL    HW2  775   3.125   4.620   0.309  0.4029  0.6185  1.1667
  176SOL    HW3  776   3.093   4.496   0.389  0.6786  0.3935  0.9305
  176SOL    MW4  777   3.151   4.554   0.360  0.6626  0.1845  0.4820
  177SOL     OW  778   3.038   3.734   0.525  0.2998 -0.1045  0.4520
  177SOL    HW2  779   3.057   3.826   0.507  1.6217 -0.2765  0.9256
  177SOL    HW3  780   3.122   3.690   0.517 -0.2557 -1.2223  0.6106
  177SOL    MW4  781   3.051   3.740   0.522  0.4010 -0.2747  0.5354
  178SOL     OW  782   2.575   0.571   0.464 -0.1082 -0.4407  0.0103
  178SOL    HW2  783   2.619   0.504   0.412  1.2661 -0.4268  1.1179
  178SOL    HW3  784   2.543   0.523   0.541 -1.4420 -0.3127 -0.4470
  178SOL    MW4  785   2.577   0.556   0.467 -0.1028 -0.4219  0.0961
  179SOL     OW  786   3.383   0.542   0.526  0.1450  0.0625  0.0070
  179SOL    HW2  787   3.463   0.545   0.474  0.9404 -0.3896  1.1727
  179SOL    HW3  788   3.344   0.629   0.516  1.0081  0.4259 -0.2414
  179SOL    MW4  789   3.388   0.554   0.518  0.3636  0.0507  0.1279
  180SOL     OW  790   3.006   0.102   0.284 -0.0118 -0.4075  0.2591
  180SOL    HW2  791   2.915   0.092   0.256  0.0719 -1.7485  0.4709
  180SOL    HW3  792   3.006   0.182   0.337 -0.8010  0.3379 -0.8350
  180SOL    MW4  793   2.994   0.111   0.287 -0.1051 -0.4861  0.1427
  181SOL     OW  794   3.612   0.493   0.374  0.1011 -0.2110 -0.0207
  181SOL    HW2  795   3.699   0.513   0.407  0.6732 -2.6418  0.0085
  181SOL    HW3  796   3.594   0.562   0.309  1.2714  1.3284  1.2696
  181SOL    MW4  797   3.621   0.505   0.370  0.3309 -0.3286  0.1534
  182SOL     OW  798   2.937   0.370   0.423 -0.0816 -0.3853 -0.0457
  182SOL    HW2  799   2.938   0.465   0.407  1.6329 -0.5143 -0.7243
  182SOL    HW3  800   3.024   0.350   0.456  0.0214 -1.9414 -1.1877
  182SOL    MW4  801   2.948   0.380   0.425  0.1583 -0.6077 -0.2860
  183SOL     OW  802   3.538   1.685   0.512 -0.2912  0.6442  0.2635
  183SOL    HW2  803   3.578   1.673   0.598  0.9826  0.7954 -0.2962
  183SOL    HW3  804   3.556   1.777   0.490 -1.1390  0.7755  0.1014
  183SOL    MW4  805   3.546   1.696   0.520 -0.2353  0.6816  0.1683
  184SOL     OW  806   3.274   1.958   0.359 -0.6260 -0.0707 -0.9163
  184SOL    HW2  807   3.227   1.953   0.443 -0.2747  0.3338 -0.6939
  184SOL    HW3  808   3.214   2.005   0.301 -0.8351 -0.2768 -0.8668
  184SOL    MW4  809   3.260   1.964   0.363 -0.6073 -0.0446 -0.8804
  185SOL     OW  810   3.371   1.015   0.484 -0.1831 -0.0124 -0.2841
  185SOL    HW2  811   3.380   1.110   0.490 -0.2147  0.0144 -0.6484
  185SOL    HW3  812   3.434   0.981   0.548 -1.1140  0.2749  0.8087
  185SOL    MW4  813   3.381   1.023   0.493 -0.3104  0.0290 -0.1880
  186SOL     OW  814   3.534   1.954   0.456  0.1491 -0.2974  0.0138
  186SOL    HW2  815   3.451   1.944   0.409  0.5609 -1.6913 -0.4316
  186SOL    HW3  816   3.512   2.009   0.531 -1.0241 -0.0483 -0.5044
  186SOL    MW4  817   3.520   1.960   0.460  0.0486 -0.4483 -0.1133
  187SOL     OW  818   3.258   2.261   0.559 -0.3756 -0.0304  0.4623
  187SOL    HW2  819   3.200   2.185   0.563 -1.3352  0.6308 -0.4521
  187SOL    HW3  820   3.293   2.269   0.648 -0.7142 -1.1890  0.7093
  187SOL    MW4  821   3.255   2.252   0.572 -0.5467 -0.0961  0.3742
  188SOL     OW  822   3.628   2.747   0.449 -0.4688 -0.9120  0.1290
  188SOL    HW2  823   3.636   2.653   0.438 -0.4563 -0.7389 -1.4820
  188SOL    HW3  824   3.534   2.762   0.463 -0.9186 -0.8762 -2.7627
  188SOL    MW4  825   3.617   2.737   0.450 -0.5264 -0.8843 -0.4651
  189SOL     OW  826   2.731   3.014   0.371  0.1093  0.2121 -0.3692
  189SOL    HW2  827   2.667   3.049   0.309 -1.7924  0.4882  1.6743
  189SOL    HW3  828   2.741   3.083   0.437  0.6590 -0.8000  0.6335
  189SOL    MW4  829   2.724   3.028   0.372 -0.0689  0.1149  0.0327
  190SOL     OW  830   3.315   2.642   0.246 -0.0090 -0.0649 -1.1304
  190SOL    HW2  831   3.327   2.552   0.277  1.2028  0.2899 -0.5547
  190SOL    HW3  832   3.367   2.647   0.166 -1.6834 -0.4480 -2.2715
  190SOL    MW4  833   3.323   2.631   0.239 -0.0701 -0.0684 -1.2050
  191SOL     OW  834   2.940   2.876   0.797 -0.0298  0.3864 -0.2681
  191SOL    HW2  835   2.942   2.884   0.702 -1.0385 -0.7320 -0.4013
  191SOL    HW3  836   3.008   2.812   0.817  0.0426  0.4663 -0.2604
  191SOL    MW4  837   2.949   2.869   0.787 -0.1531  0.2491 -0.2846
  192SOL     OW  838   3.346   0.092   0.376  0.4377 -0.3107 -0.1175
  192SOL    HW2  839   3.298   0.175   0.385  1.3748  0.1351  0.9673
  192SOL    HW3  840   3.282   0.025   0.398 -0.1497  0.1699 -0.3347
  192SOL    MW4  841   3.331   0.094   0.380  0.4840 -0.1885 -0.0030
  193SOL     OW  842   3.271   3.583   0.455  0.3995 -0.1443  0.1664
  193SOL    HW2  843   3.339   3.531   0.498  1.0086  0.7656  0.3108
  193SOL    HW3  844   3.304   3.599   0.367  0.6283  0.7685  0.4116
  193SOL    MW4  845   3.284   3.578   0.449  0.5100  0.0961  0.2177
  194SOL     OW  846   3.563   3.691   0.432  0.3475  0.3683  0.2838
  194SOL    HW2  847   3.517   3.671   0.351 -2.5219  2.7542  1.1971
  194SOL    HW3  848   3.546   3.616   0.489 -1.7366  0.7825  0.2659
  194SOL    MW4  849   3.555   3.678   0.429 -0.3059  0.7379  0.4019
  195SOL     OW  850   3.709   3.162   0.536  0.5726 -0.3071 -0.2091
  195SOL    HW2  851   3.746   3.237   0.489  0.1684 -0.5819 -0.9682
  195SOL    HW3  852   3.747   3.086   0.493  1.4619 -0.5388  0.9620
  195SOL    MW4  853   3.719   3.162   0.524  0.6366 -0.3741 -0.1547
  196SOL     OW  854   3.445   3.214   0.497 -0.1088 -0.1749  0.2213
  196SOL    HW2  855   3.370   3.157   0.513 -1.0834  0.7467 -0.9138
  196SOL    HW3  856   3.521   3.162   0.521 -1.1949 -0.5316  3.0603
  196SOL    MW4  857   3.445   3.200   0.502 -0.3805 -0.1001  0.4461
  197SOL     OW  858   3.118   4.022   0.483  0.1132 -0.3156  0.1935
  197SOL    HW2  859   3.197   4.034   0.429 -0.4483 -1.4101 -0.9106
  197SOL    HW3  860   3.151   4.012   0.572  1.3206 -1.6697 -0.3746
  197SOL    MW4  861   3.133   4.022   0.487  0.1984 -0.6390 -0.0271
  198SOL     OW  862   2.613   3.492   0.513 -0.1485  0.0552  0.2387
  198SOL    HW2  863   2.667   3.413   0.519 -0.5083 -0.2354 -0.2514
  198SOL    HW3  864   2.600   3.519   0.604  0.4118 -0.1504  0.3858
  198SOL    MW4  865   2.618   3.485   0.526 -0.1221 -0.0105  0.1935
  199SOL     OW  866   4.352   4.648   0.210  0.1605 -0.5265  0.0581
  199SOL    HW2  867   4.286   4.604   0.263 -0.4673 -1.7066 -1.6506
  199SOL    HW3  868   4.353   4.599   0.127  0.9586  1.3939 -1.1052
  199SOL    MW4  869   4.343   4.636   0.206  0.1831 -0.4288 -0.3209
  200SOL     OW  870   3.766   0.001   0.393  0.1523  0.0694  0.5915
  200SOL    HW2  871   3.707   0.074   0.412 -0.4551 -0.6573  1.5230
  200SOL    HW3  872   3.853   0.034   0.418 -0.0818  0.5536  0.7748
  200SOL    MW4  873   3.770   0.015   0.399  0.0410  0.0374  0.7386
  201SOL     OW  874   3.603   0.218   0.449  0.1140  0.8797 -0.2116
  201SOL    HW2  875   3.523   0.177   0.417  0.9397 -0.2181 -0.8949
  201SOL    HW3  876   3.610   0.300   0.399  0.2490  0.2126 -1.2998
  201SOL    MW4  877   3.593   0.224   0.438  0.2410  0.6468 -0.4453
  202SOL     OW  878   3.861   0.587   0.448  0.0281 -0.3163  0.1364
  202SOL    HW2  879   3.868   0.573   0.542 -0.0914  3.1649  0.7183
  202SOL    HW3  880   3.951   0.582   0.416  0.3974  1.3942  0.9008
  202SOL    MW4  881   3.874   0.584   0.456  0.0608  0.3687  0.3140
  203SOL     OW  882   4.137   0.583   0.363  0.1395 -0.4042  0.3816
  203SOL    HW2  883   4.170   0.504   0.405 -1.5782 -1.9181 -1.0259
  203SOL    HW3  884   4.191   0.593   0.284  0.0744 -0.4132  0.3357
  203SOL    MW4  885   4.149   0.574   0.358 -0.0954 -0.6052  0.1898
  204SOL     OW  886   4.222   0.794   0.521 -0.6550  0.3156  0.2583
  204SOL    HW2  887   4.150   0.856   0.513 -2.0713 -1.1749  1.1779
  204SOL    HW3  888   4.204   0.728   0.454 -0.2507 -0.1530  0.6080
  204SOL    MW4  889   4.210   0.793   0.511 -0.7882  0.0572  0.4257
  205SOL     OW  890   3.614   0.985   0.320  0.0336 -1.1604  0.8441
  205SOL    HW2  891   3.638   1.073   0.291  1.0981 -1.5443  0.5347
  205SOL    HW3  892   3.525   0.995   0.356 -0.4536 -0.2581 -0.5641
  205SOL    MW4  893   3.605   0.998   0.321  0.1099 -1.0920  0.6175
  206SOL     OW  894   4.152   1.442   0.310 -0.2499 -0.3360 -0.1037
  206SOL    HW2  895   4.088   1.372   0.324 -0.7204 -0.0580 -0.8125
  206SOL    HW3  896   4.115   1.517   0.357 -1.2130  0.2492 -1.7557
  206SOL    MW4  897   4.138   1.443   0.318 -0.4392 -0.2222 -0.4151
  207SOL     OW  898   3.938   1.253   0.361 -0.0052  0.4028  0.1590
  207SOL    HW2  899   3.858   1.241   0.310 -0.6352  1.8895  0.7570
  207SOL    HW3  900   3.907   1.278   0.448  1.0946 -0.0200  0.6769
  207SOL    MW4  901   3.923   1.255   0.366  0.0572  0.5432  0.3062
  208SOL     OW  902   3.598   1.420   0.469  0.0983  0.4049 -0.1622
  208SOL    HW2  903   3.511   1.379   0.477  0.1969  0.4000  0.9116
  208SOL    HW3  904   3.580   1.514   0.466  0.0464  0.3965 -0.1141
  208SOL    MW4  905   3.584   1.427   0.469  0.1042  0.4032 -0.0142
  209SOL     OW  906   3.827   1.333   0.622 -0.7024  0.1084  0.2730
  209SOL    HW2  907   3.783   1.255   0.656  1.4570 -2.0006 -1.5597
  209SOL    HW3  908   3.762   1.373   0.563 -0.8159 -2.0227 -1.1066
  209SOL    MW4  909   3.813   1.328   0.619 -0.4325 -0.4511 -0.1509
  210SOL     OW  910   3.661   2.471   0.445 -0.3940  0.4093  0.2265
  210SOL    HW2  911   3.577   2.442   0.409 -0.5580  0.3862  0.6230
  210SOL    HW3  912   3.650   2.464   0.540 -0.3210  1.4235  0.3155
  210SOL    MW4  913   3.648   2.467   0.453 -0.4060  0.5403  0.2905
  211SOL     OW  914   3.968   2.536   0.344  0.5102 -0.2265 -0.2197
  211SOL    HW2  915   3.884   2.552   0.388 -0.1837  0.1735 -1.6528
  211SOL    HW3  916   4.016   2.480   0.405 -1.1988 -1.3375  0.1653
  211SOL    MW4  917   3.963   2.531   0.358  0.1931 -0.3204 -0.3580
  212SOL     OW  918   3.046   2.660   0.424  0.2288  0.5929 -0.2088
  212SOL    HW2  919   3.109   2.647   0.353 -0.4284 -0.4862 -0.6093
  212SOL    HW3  920   3.081   2.610   0.497 -1.0540 -1.4974 -0.9885
  212SOL    MW4  921   3.059   2.652   0.424 -0.0274  0.1750 -0.3645
  213SOL     OW  922   2.767   3.684   0.414 -0.2883  0.0786  0.2753
  213SOL    HW2  923   2.724   3.608   0.454 -0.8346 -0.5894 -1.5070
  213SOL    HW3  924   2.860   3.672   0.435 -0.5738 -0.1691  1.4508
  213SOL    MW4  925   2.773   3.672   0.422 -0.3982 -0.0422  0.1953
  214SOL     OW  926   3.361   2.788   0.486  0.2083  0.4462 -0.5432
  214SOL    HW2  927   3.347   2.737   0.407 -0.3223  0.2647 -0.3387
  214SOL    HW3  928   3.292   2.854   0.484 -0.3420 -0.0908  0.1881
  214SOL    MW4  929   3.350   2.790   0.476  0.0653  0.3517 -0.4197
  215SOL     OW  930   4.069   2.818   0.365 -0.0183 -0.8445  0.4726
  215SOL    HW2  931   4.159   2.822   0.398 -0.2663  0.4997  1.0313
  215SOL    HW3  932   4.049   2.725   0.361  0.5992 -1.0951  2.5965
  215SOL    MW4  933   4.078   2.807   0.369  0.0305 -0.7000  0.8265
  216SOL     OW  934   3.832   2.917   0.476  0.3984 -0.0466  0.0346
  216SOL    HW2  935   3.911   2.874   0.443  0.3158 -0.8887  0.9246
  216SOL    HW3  936   3.761   2.856   0.459 -0.1163  0.8051 -0.9624
  216SOL    MW4  937   3.833   2.904   0.470  0.3197 -0.0453  0.0205
  217SOL     OW  938   4.066   3.862   0.506  0.0040  0.1526 -0.3708
  217SOL    HW2  939   3.997   3.800   0.484  0.4696 -0.1315 -1.0527
  217SOL    HW3  940   4.148   3.815   0.488  0.3526  1.1257 -1.3886
  217SOL    MW4  941   4.068   3.848   0.501  0.1111  0.2434 -0.5950
  218SOL     OW  942   3.414   2.378   0.343 -0.3643 -0.3321 -0.5367
  218SOL    HW2  943   3.363   2.347   0.418  0.4888 -1.2241 -0.3048
  218SOL    HW3  944   3.458   2.299   0.311  1.2459  0.5048 -0.4284
  218SOL    MW4  945   3.413   2.363   0.349 -0.0391 -0.3393 -0.4919
  219SOL     OW  946   3.513   3.482   0.581 -0.5421  0.6737  0.0983
  219SOL    HW2  947   3.500   3.388   0.572  0.4134  0.6390 -1.0334
  219SOL    HW3  948   3.472   3.504   0.665  1.4777 -1.1819  1.6369
  219SOL    MW4  949   3.506   3.473   0.591 -0.1495  0.4241  0.1519
  220SOL     OW  950   4.319   3.748   0.480  0.5393  0.0875  0.0273
  220SOL    HW2  951   4.378   3.815   0.445 -0.4888  0.6599 -0.6130
  220SOL    HW3  952   4.327   3.675   0.419  0.1952  0.3596 -0.3431
  220SOL    MW4  953   4.328   3.748   0.467  0.3581  0.1991 -0.1061
  221SOL     OW  954   3.386   4.087   0.347  0.5799  0.0617  0.3407
  221SOL    HW2  955   3.397   4.092   0.252  0.3117  0.6922  0.3394
  221SOL    HW3  956   3.377   4.178   0.375 -0.6964 -0.1947  0.8092
  221SOL    MW4  957   3.386   4.100   0.338  0.3762  0.1111  0.4024
  222SOL     OW  958   3.901   4.450   0.281  0.6503 -0.2606  0.6241
  222SOL    HW2  959   3.840   4.523   0.287  1.5201  0.4753  0.6582
  222SOL    HW3  960   3.854   4.376   0.320  0.3416  0.6552  2.0490
  222SOL    MW4  961   3.887   4.450   0.287  0.7243 -0.0429  0.8166
  223SOL     OW  962   0.111   0.289   0.331 -0.2809  0.0247 -0.3801
  223SOL    HW2  963   0.182   0.243   0.286 -0.3149  0.7933 -1.2257
  223SOL    HW3  964   0.059   0.219   0.371  0.1993 -0.6186 -0.8736
  223SOL    MW4  965   0.114   0.273   0.330 -0.2220  0.0413 -0.5568
  224SOL     OW  966   3.796   0.853   0.512 -0.7278 -0.3013 -0.2419
  224SOL    HW2  967   3.812   0.761   0.491 -2.2473 -0.8172  0.7784
  224SOL    HW3  968   3.734   0.882   0.444 -0.3802 -0.0704 -0.4630
  224SOL    MW4  969   3.790   0.845   0.500 -0.8826 -0.3389 -0.1365
  225SOL     OW  970   0.339   1.041   0.320 -0.0510 -0.3366  0.1076
  225SOL    HW2  971   0.435   1.041   0.318 -0.0544 -1.4159 -0.7526
  225SOL    HW3  972   0.315   0.951   0.342 -0.8695 -0.6043 -1.7397
  225SOL    MW4  973   0.348   1.029   0.322 -0.1594 -0.5143 -0.2497
  226SOL     OW  974   4.390   0.306   0.160 -0.0293 -0.4199  0.4375
  226SOL    HW2  975   4.467   0.302   0.217  1.5513 -1.0892 -1.6763
  226SOL    HW3  976   4.343   0.224   0.176  0.3965 -0.5908  0.8035
  226SOL    MW4  977   4.394   0.294   0.169  0.2356 -0.5308  0.2069
  227SOL     OW  978   0.035   0.940   0.531 -0.4879 -0.2138  0.1411
  227SOL    HW2  979   0.065   1.030   0.527  1.7280 -0.9586 -0.6036
  227SOL    HW3  980   0.030   0.912   0.439 -2.0127 -0.5860  0.3221
  227SOL    MW4  981   0.038   0.948   0.518 -0.3967 -0.3612  0.0668
  228SOL     OW  982   3.653   4.406   0.484  0.3283 -0.0521  0.0657
  228SOL    HW2  983   3.695   4.406   0.570 -1.1708  1.0824  0.8102
  228SOL    HW3  984   3.673   4.493   0.448  0.7013 -0.4151 -0.6262
  228SOL    MW4  985   3.661   4.417   0.490  0.1798  0.0501  0.0727
  229SOL     OW  986   0.072   0.713   0.315 -0.1539  0.1276  0.1261
  229SOL    HW2  987   0.091   0.643   0.379 -0.5573  0.5360  0.7037
  229SOL    HW3  988   0.006   0.675   0.257 -1.7116  0.6154  1.5251
  229SOL    MW4  989   0.065   0.699   0.316 -0.4127  0.2458  0.3869
  230SOL     OW  990   4.355   0.577   0.152 -0.3820 -0.0500  0.1832
  230SOL    HW2  991   4.362   0.606   0.061 -1.0928 -0.8254 -0.1294
  230SOL    HW3  992   4.375   0.483   0.149 -1.4993 -0.3132  0.6429
  230SOL    MW4  993   4.358   0.568   0.139 -0.6232 -0.1870  0.2026
  231SOL     OW  994   4.029   2.112   0.488  0.5099 -0.0943 -0.2253
  231SOL    HW2  995   3.955   2.135   0.431  0.1193 -0.0879  0.2768
  231SOL    HW3  996   4.071   2.195   0.508  0.9618 -0.1441 -0.9130
  231SOL    MW4  997   4.025   2.126   0.483  0.5178 -0.0999 -0.2498
  232SOL     OW  998   4.360   2.061   0.486 -0.3810 -0.1482 -0.3493
  232SOL    HW2  999   4.430   2.125   0.472 -1.2231  0.8547  0.0538
  232SOL    HW3 1000   4.281   2.103   0.453 -0.8930 -1.1049 -0.3703
  232SOL    MW4 1001   4.359   2.075   0.480 -0.5598 -0.1421 -0.2989
  233SOL     OW 1002   0.040   2.271   0.405 -0.0697  0.2061  0.1543
  233SOL    HW2 1003  -0.006   2.338   0.455 -1.0708 -0.4544  0.1285
  233SOL    HW3 1004   0.057   2.312   0.320 -0.5064  0.4960  0.2058
  233SOL    MW4 1005   0.036   2.286   0.400 -0.2594  0.1574  0.1577
  234SOL     OW 1006   3.690   1.259   0.245  0.0679  0.6832 -0.0168
  234SOL    HW2 1007   3.668   1.310   0.168 -1.1049  2.0355  1.1930
  234SOL    HW3 1008   3.675   1.318   0.319 -0.0565 -0.9737  1.3266
  234SOL    MW4 1009   3.685   1.273   0.245 -0.1035  0.6430  0.3200
  235SOL     OW 1010   4.375   2.473   0.512 -0.0036  0.2164 -0.4828
  235SOL    HW2 1011   4.409   2.546   0.460 -0.1730  0.6444 -0.0055
  235SOL    HW3 1012   4.422   2.480   0.596  1.1516 -1.1809 -0.9842
  235SOL    MW4 1013   4.386   2.484   0.516  0.1268  0.0885 -0.4860
  236SOL     OW 1014   4.143   3.079   0.287  0.1919 -0.0434  0.6348
  236SOL    HW2 1015   4.228   3.045   0.263 -0.3785 -0.9542 -0.1207
  236SOL    HW3 1016   4.093   3.003   0.317 -0.8709  0.2126 -0.4319
  236SOL    MW4 1017   4.147   3.065   0.288 -0.0238 -0.1297  0.3944
  237SOL     OW 1018   4.124   2.376   0.537 -0.0489  0.4605 -0.4897
  237SOL    HW2 1019   4.104   2.387   0.630 -2.3799  0.1025 -0.9121
  237SOL    HW3 1020   4.213   2.410   0.528 -0.2001  1.5626  1.6578
  237SOL    MW4 1021   4.133   2.382   0.548 -0.3767  0.5589 -0.2620
  238SOL     OW 1022   0.229   3.379   0.506  0.2177 -0.0173  0.3241
  238SOL    HW2 1023   0.287   3.336   0.569  1.4587 -2.9318 -2.6960
  238SOL    HW3 1024   0.266   3.466   0.495  0.9184 -0.0263  2.3283
  238SOL    MW4 1025   0.241   3.385   0.513  0.4739 -0.4032  0.1900
  239SOL     OW 1026   3.407   3.578   0.213  0.2684 -0.3613  0.4457
  239SOL    HW2 1027   3.461   3.502   0.234 -0.8577 -1.3824 -0.2698
  239SOL    HW3 1028   3.414   3.588   0.118  0.8764  0.7874  0.6090
  239SOL    MW4 1029   3.415   3.569   0.203  0.2000 -0.3445  0.3729
  240SOL     OW 1030   0.510   3.168   0.418  0.7165 -0.0159 -0.1321
  240SOL    HW2 1031   0.454   3.213   0.482  0.3520  0.7437 -0.9854
  240SOL    HW3 1032   0.562   3.237   0.379  0.4333 -0.3892 -1.1782
  240SOL    MW4 1033   0.510   3.183   0.421  0.6310  0.0350 -0.3827
  241SOL     OW 1034   3.847   3.669   0.521  0.2942 -0.7805  0.1760
  241SOL    HW2 1035   3.758   3.687   0.491  0.4674 -0.4308 -0.1309
  241SOL    HW3 1036   3.836   3.633   0.609 -0.1264 -0.3289  0.3085
  241SOL    MW4 1037   3.834   3.667   0.529  0.2618 -0.6747  0.1530
  242SOL     OW 1038   4.093   3.319   0.412 -0.3337 -0.1405 -0.5367
  242SOL    HW2 1039   4.102   3.298   0.505  0.0911  0.7201 -0.3843
  242SOL    HW3 1040   4.105   3.235   0.368  0.3816 -0.3960  0.1327
  242SOL    MW4 1041   4.095   3.305   0.419 -0.1826 -0.0608 -0.4282
  243SOL     OW 1042   4.277   4.307   0.427 -0.0474 -0.1091  0.6395
  243SOL    HW2 1043   4.216   4.235   0.411 -0.3673  0.2025  0.4545
  243SOL    HW3 1044   4.259   4.333   0.518  0.8679 -1.0204  1.0894
  243SOL    MW4 1045   4.266   4.300   0.437  0.0310 -0.1884  0.6744
  244SOL     OW 1046   4.070   4.127   0.394 -0.5293 -0.2101  0.1470
  244SOL    HW2 1047   4.059   4.034   0.412  0.3026 -0.2251  0.5906
  244SOL    HW3 1048   3.985   4.166   0.416 -0.5367 -0.7025  1.0055
  244SOL    MW4 1049   4.057   4.120   0.399 -0.4206 -0.2775  0.3188
  245SOL     OW 1050   3.801   4.166   0.451 -0.0586 -0.0121 -0.1749
  245SOL    HW2 1051   3.760   4.080   0.443 -1.5874  0.4900  1.7899
  245SOL    HW3 1052   3.728   4.227   0.450  1.0592  1.3520 -2.1982
  245SOL    MW4 1053   3.786   4.163   0.450 -0.1130  0.2346 -0.1826
  246SOL     OW 1054   4.151   4.546   0.373 -0.2235  0.0559  0.5496
  246SOL    HW2 1055   4.194   4.460   0.377  0.2278  0.2392 -0.2986
  246SOL    HW3 1056   4.067   4.528   0.332 -0.0251  0.0514  0.1364
  246SOL    MW4 1057   4.146   4.532   0.368 -0.1383  0.0796  0.3832
  247SOL     OW 1058   0.177   0.146   0.849 -0.1834 -0.2457  0.0912
  247SOL    HW2 1059   0.145   0.072   0.797 -2.6366  0.6141  0.3061
  247SOL    HW3 1060   0.105   0.210   0.847  1.2545  1.4665  1.2380
  247SOL    MW4 1061   0.163   0.145   0.842 -0.3173  0.0937  0.2710
  248SOL     OW 1062   4.414   0.251   0.890 -0.2958  0.8246 -0.2321
  248SOL    HW2 1063   4.369   0.177   0.929  0.6121 -0.1347 -0.9838
  248SOL    HW3 1064   4.432   0.310   0.963 -1.3082  0.4753  0.3150
  248SOL    MW4 1065   4.410   0.249   0.904 -0.3095  0.6520 -0.2590
  249SOL     OW 1066   4.283   0.440   0.738  0.2151 -0.0545  0.1495
  249SOL    HW2 1067   4.330   0.372   0.787  1.4143 -0.0868 -1.0241
  249SOL    HW3 1068   4.333   0.520   0.755 -1.5148  0.7050  1.9985
  249SOL    MW4 1069   4.296   0.442   0.747  0.1450  0.0415  0.2386
  250SOL     OW 1070   0.201   0.638   0.865  0.2209  0.1937 -0.1673
  250SOL    HW2 1071   0.291   0.605   0.870  0.2654  0.4299  0.7149
  250SOL    HW3 1072   0.184   0.674   0.953 -0.7833  0.0197 -0.2862
  250SOL    MW4 1073   0.211   0.638   0.878  0.0943  0.2020 -0.0666
  251SOL     OW 1074   0.270   0.794   0.645  0.6333  0.1399 -0.0821
  251SOL    HW2 1075   0.249   0.755   0.731  0.0185  0.7395  0.0431
  251SOL    HW3 1076   0.190   0.840   0.620  1.2320  1.0081 -0.4090
  251SOL    MW4 1077   0.256   0.795   0.653  0.6312  0.3335 -0.1087
  252SOL     OW 1078   0.034   0.903   0.854 -0.7350  0.0753 -0.0900
  252SOL    HW2 1079   0.067   0.992   0.848 -2.2913  0.5370 -2.4354
  252SOL    HW3 1080   0.068   0.870   0.937  1.0732  2.3356  0.0985
  252SOL    MW4 1081   0.043   0.910   0.865 -0.7018  0.4344 -0.3746
  253SOL     OW 1082   0.108   1.165   0.874 -0.0057  0.1828  0.4568
  253SOL    HW2 1083   0.067   1.174   0.959 -0.9154 -1.5523  0.2328
  253SOL    HW3 1084   0.067   1.232   0.819 -0.3676  0.4307  1.0365
  253SOL    MW4 1085   0.097   1.175   0.878 -0.1735 -0.0135  0.5037
  254SOL     OW 1086   0.280   1.296   0.710  0.2692  0.1508  0.2200
  254SOL    HW2 1087   0.258   1.228   0.773 -1.4326  0.9995  0.5975
  254SOL    HW3 1088   0.246   1.263   0.626 -2.6448  1.4702  0.8077
  254SOL    MW4 1089   0.272   1.283   0.707 -0.3398  0.4368  0.3473
  255SOL     OW 1090   0.274   1.547   0.825 -0.4520 -0.1835  0.0115
  255SOL    HW2 1091   0.338   1.607   0.787 -0.5409  0.1448  0.3811
  255SOL    HW3 1092   0.277   1.470   0.768  0.5664 -0.3352  0.2603
  255SOL    MW4 1093   0.283   1.545   0.813 -0.3294 -0.1601  0.0930
  256SOL     OW 1094   0.011   1.718   0.803 -0.9079 -0.0533 -0.3718
  256SOL    HW2 1095  -0.052   1.657   0.841  0.3580 -1.5458 -0.6158
  256SOL    HW3 1096   0.095   1.672   0.809  0.4579  2.5734  1.4913
  256SOL    MW4 1097   0.013   1.704   0.809 -0.5606  0.0964 -0.1582
  257SOL     OW 1098   0.031   1.969   0.897 -0.4032  0.2684  0.1867
  257SOL    HW2 1099   0.111   1.999   0.854  0.2357  0.1767  1.2888
  257SOL    HW3 1100   0.031   1.874   0.884  0.0865  0.1718  0.8797
  257SOL    MW4 1101   0.041   1.960   0.890 -0.2543  0.2435  0.4236
  258SOL     OW 1102   0.239   2.080   0.728  0.2028 -0.5108  0.0888
  258SOL    HW2 1103   0.235   2.173   0.749 -0.2345 -0.6526  0.6400
  258SOL    HW3 1104   0.250   2.077   0.633  0.3129  0.1040  0.0829
  258SOL    MW4 1105   0.240   2.092   0.718  0.1596 -0.4482  0.1608
  259SOL     OW 1106   0.274   2.357   0.809 -0.2139  0.1310  0.1948
  259SOL    HW2 1107   0.278   2.337   0.903  1.1671 -1.8450 -0.2508
  259SOL    HW3 1108   0.359   2.395   0.789 -0.5023  0.5326 -0.2800
  259SOL    MW4 1109   0.285   2.359   0.819 -0.0698 -0.0768  0.0733
  260SOL     OW 1110   0.036   2.468   0.759 -0.0934  0.0982  0.2076
  260SOL    HW2 1111  -0.012   2.418   0.825  0.8976  0.4314  1.1980
  260SOL    HW3 1112   0.126   2.435   0.764  0.0390  0.2558 -0.8589
  260SOL    MW4 1113   0.042   2.457   0.768  0.0548  0.1631  0.1976
  261SOL     OW 1114   0.008   2.727   0.840 -0.3601  0.1888 -0.0797
  261SOL    HW2 1115   0.003   2.732   0.936 -0.2480 -0.9769  0.0019
  261SOL    HW3 1116   0.015   2.633   0.822  0.3336  0.4466 -1.1977
  261SOL    MW4 1117   0.008   2.715   0.851 -0.2542  0.0689 -0.2164
  262SOL     OW 1118   0.253   2.849   0.741  0.0501  0.1559 -0.1488
  262SOL    HW2 1119   0.183   2.788   0.766 -1.2506  1.0768 -1.4145
  262SOL    HW3 1120   0.243   2.858   0.646  0.5778  1.9095 -0.0439
  262SOL    MW4 1121   0.242   2.842   0.732 -0.0519  0.5088 -0.3020
  263SOL     OW 1122   0.213   3.099   0.842 -0.1787 -0.0158 -0.7154
  263SOL    HW2 1123   0.227   3.103   0.937  0.6194  0.9944 -0.8739
  263SOL    HW3 1124   0.217   3.005   0.822  0.1708 -0.1956  0.1668
  263SOL    MW4 1125   0.215   3.087   0.852 -0.0273  0.0939 -0.6199
  264SOL     OW 1126   4.474   3.216   0.787 -0.4354  0.1806  0.1398
  264SOL    HW2 1127   4.557   3.170   0.792 -1.2114 -1.1446  1.1855
  264SOL    HW3 1128   4.464   3.239   0.694  0.9193  0.0461 -0.0371
  264SOL    MW4 1129   4.483   3.213   0.775 -0.3591 -0.0119  0.2545
  265SOL     OW 1130   0.007   3.476   0.808 -0.0563  0.1402  0.1285
  265SOL    HW2 1131  -0.080   3.514   0.802 -0.7258 -0.9879  2.2133
  265SOL    HW3 1132  -0.008   3.381   0.806  1.0721 -0.0641  0.9523
  265SOL    MW4 1133  -0.006   3.468   0.807  0.0043 -0.0355  0.5122
  266SOL     OW 1134   0.212   3.662   0.765 -0.0747 -0.1601  0.3162
  266SOL    HW2 1135   0.149   3.589   0.763 -1.5889  1.1064  0.6434
  266SOL    HW3 1136   0.232   3.678   0.672 -1.1009  0.1449  0.1408
  266SOL    MW4 1137   0.206   3.654   0.752 -0.4099  0.0472  0.3362
  267SOL     OW 1138   0.187   3.914   0.874 -0.1654  0.3840  0.1272
  267SOL    HW2 1139   0.211   3.914   0.967  4.3280  2.2735 -0.9047
  267SOL    HW3 1140   0.189   3.822   0.849 -0.6945 -0.0850  1.7198
  267SOL    MW4 1141   0.191   3.902   0.883  0.3576  0.5715  0.2012
  268SOL     OW 1142   4.447   3.996   0.773 -0.0540 -0.0996 -0.2704
  268SOL    HW2 1143   4.376   3.934   0.792  0.4227 -0.7598 -0.6420
  268SOL    HW3 1144   4.524   3.958   0.814  0.1835  0.3946 -0.2576
  268SOL    MW4 1145   4.448   3.983   0.781  0.0405 -0.1216 -0.3178
  269SOL     OW 1146   4.394   4.267   0.848 -0.5345 -0.6823  0.3539
  269SOL    HW2 1147   4.445   4.271   0.929 -0.4397  1.1002  0.2120
  269SOL    HW3 1148   4.404   4.176   0.818  2.7315 -0.3168  0.1927
  269SOL    MW4 1149   4.402   4.255   0.855 -0.0911 -0.3986  0.3139
  270SOL     OW 1150   0.133   4.343   0.688  0.0714  0.2757 -0.2761
  270SOL    HW2 1151   0.061   4.309   0.741 -0.8824  0.2250 -1.5745
  270SOL    HW3 1152   0.113   4.314   0.599  1.5705  0.4776 -0.6889
  270SOL    MW4 1153   0.121   4.335   0.683  0.1433  0.2961 -0.5019
  271SOL     OW 1154   0.591   0.032   0.815 -0.0896  0.5590 -0.0896
  271SOL    HW2 1155   0.611   0.038   0.909 -3.1620 -0.4396  0.6784
  271SOL    HW3 1156   0.540   0.111   0.796 -1.3872 -0.3445 -0.3999
  271SOL    MW4 1157   0.587   0.043   0.825 -0.6662  0.3080 -0.0292
  272SOL     OW 1158   0.431   0.254   0.782 -0.4959  0.1622  0.0547
  272SOL    HW2 1159   0.346   0.216   0.805 -0.6976 -0.3798 -1.5135
  272SOL    HW3 1160   0.412   0.314   0.710  0.4584 -0.1171 -0.4497
  272SOL    MW4 1161   0.417   0.257   0.775 -0.3966  0.0538 -0.2187
  273SOL     OW 1162   0.450   0.513   0.878 -0.3159 -0.2123  0.0111
  273SOL    HW2 1163   0.539   0.544   0.861 -0.1782 -0.3045  0.5597
  273SOL    HW3 1164   0.450   0.422   0.849  0.0169 -0.4734  0.8162
  273SOL    MW4 1165   0.461   0.505   0.872 -0.2538 -0.2589  0.1897
  274SOL     OW 1166   0.730   0.583   0.778 -0.2569  0.3454  0.0497
  274SOL    HW2 1167   0.792   0.515   0.803 -1.1121 -0.3493  0.3188
  274SOL    HW3 1168   0.744   0.595   0.684 -1.2473 -1.4096 -0.3450
  274SOL    MW4 1169   0.740   0.576   0.769 -0.5003  0.0223  0.0331
  275SOL     OW 1170   0.683   0.829   0.916 -0.0236  0.2301 -0.1809
  275SOL    HW2 1171   0.626   0.863   0.847  1.9411  0.4424 -1.7382
  275SOL    HW3 1172   0.704   0.740   0.889 -0.2784 -0.1350  0.8103
  275SOL    MW4 1173   0.678   0.822   0.904  0.2020  0.2099 -0.2556
  276SOL     OW 1174   0.516   0.921   0.696 -0.1659  0.5833  0.4776
  276SOL    HW2 1175   0.500   1.003   0.742 -0.5341 -0.1680  1.7189
  276SOL    HW3 1176   0.430   0.879   0.690  0.3178 -0.6286  1.6658
  276SOL    MW4 1177   0.502   0.926   0.701 -0.1507  0.3242  0.7981
  277SOL     OW 1178   0.528   1.161   0.823  0.0517 -0.0294  0.8121
  277SOL    HW2 1179   0.621   1.185   0.825  0.3187 -0.6965 -1.4615
  277SOL    HW3 1180   0.486   1.235   0.777 -0.2537 -0.5214  0.2952
  277SOL    MW4 1181   0.535   1.174   0.817  0.0467 -0.1823  0.4439
  278SOL     OW 1182   0.882   1.299   0.553 -0.3743  0.0169 -0.0139
  278SOL    HW2 1183   0.854   1.390   0.538 -0.8116 -0.1863 -0.4393
  278SOL    HW3 1184   0.861   1.254   0.471  1.0792 -0.1685 -0.2972
  278SOL    MW4 1185   0.876   1.305   0.540 -0.2402 -0.0345 -0.1075
  279SOL     OW 1186   0.715   1.572   0.795  0.4154  0.2300 -0.0261
  279SOL    HW2 1187   0.724   1.567   0.890  1.0547 -0.1236 -0.0998
  279SOL    HW3 1188   0.631   1.614   0.781  0.2258  0.0979  0.6978
  279SOL    MW4 1189   0.705   1.577   0.806  0.4748  0.1661  0.0597
  280SOL     OW 1190   0.485   1.721   0.716  0.4009  0.5393 -0.3573
  280SOL    HW2 1191   0.488   1.807   0.757 -0.0529  0.5129 -0.2557
  280SOL    HW3 1192   0.482   1.739   0.623  0.2085  0.6408 -0.3332
  280SOL    MW4 1193   0.485   1.734   0.709  0.3157  0.5493 -0.3408
  281SOL     OW 1194   0.479   1.975   0.816  0.1013 -0.0904  0.2685
  281SOL    HW2 1195   0.478   1.983   0.911 -0.5566  1.7369  0.1245
  281SOL    HW3 1196   0.390   1.996   0.789  0.5733  0.5464 -0.8281
  281SOL    MW4 1197   0.467   1.979   0.825  0.0767  0.2346  0.1048
  282SOL     OW 1198   0.735   2.101   0.754  0.3153 -0.0299  0.3003
  282SOL    HW2 1199   0.654   2.056   0.778  0.4366 -0.2092  0.3795
  282SOL    HW3 1200   0.744   2.086   0.660 -1.1340  2.2560 -0.2392
  282SOL    MW4 1201   0.725   2.093   0.745  0.1401  0.2480  0.2396
  283SOL     OW 1202   0.741   2.359   0.850  0.0669  0.1386 -0.6914
  283SOL    HW2 1203   0.736   2.355   0.946 -0.2893  1.9567 -0.6110
  283SOL    HW3 1204   0.744   2.268   0.822 -1.8215 -0.4814  0.9736
  283SOL    MW4 1205   0.741   2.347   0.859 -0.2292  0.2968 -0.4611
  284SOL     OW 1206   0.533   2.463   0.730  0.1844  0.1701  0.4615
  284SOL    HW2 1207   0.606   2.420   0.774  0.3657 -0.3518 -0.3387
  284SOL    HW3 1208   0.562   2.472   0.639 -0.3248  0.9181  0.3718
  284SOL    MW4 1209   0.546   2.459   0.724  0.1413  0.1998  0.3441
  285SOL     OW 1210   0.480   2.732   0.837 -0.5168  0.1660  0.3249
  285SOL    HW2 1211   0.487   2.644   0.799 -1.0236  0.1043  0.3705
  285SOL    HW3 1212   0.403   2.770   0.794  1.3029  1.6217 -1.7603
  285SOL    MW4 1213   0.471   2.725   0.826 -0.3436  0.3502  0.0558
  286SOL     OW 1214   0.673   2.891   0.693  0.6348  0.2184 -0.2182
  286SOL    HW2 1215   0.764   2.873   0.717  0.9988 -1.8338 -2.9104
  286SOL    HW3 1216   0.622   2.826   0.740  0.6106  0.9305  0.7518
  286SOL    MW4 1217   0.678   2.880   0.702  0.6796  0.0417 -0.4454
  287SOL     OW 1218   0.639   3.131   0.802  0.3351 -0.1727 -0.4707
  287SOL    HW2 1219   0.558   3.165   0.762 -0.7649 -0.5092  1.4007
  287SOL    HW3 1220   0.645   3.041   0.772  1.0583  0.4360 -2.1697
  287SOL    MW4 1221   0.629   3.124   0.793  0.2853 -0.1369 -0.4480
  288SOL     OW 1222   0.388   3.237   0.688 -0.2939  0.2205  0.0262
  288SOL    HW2 1223   0.380   3.316   0.742  1.0050  1.1746 -1.1593
  288SOL    HW3 1224   0.344   3.169   0.740  1.9373  0.8205  2.8355
  288SOL    MW4 1225   0.381   3.239   0.702  0.1719  0.4256  0.2405
  289SOL     OW 1226   0.389   3.466   0.846 -0.3428  0.0190  0.8515
  289SOL    HW2 1227   0.397   3.474   0.941  1.1289  1.7335  0.6053
  289SOL    HW3 1228   0.330   3.537   0.821 -0.1119  0.0489  0.3887
  289SOL    MW4 1229   0.382   3.476   0.855 -0.1181  0.2494  0.7581
  290SOL     OW 1230   0.625   3.626   0.788  0.0640  0.5603  0.3094
  290SOL    HW2 1231   0.551   3.578   0.824  0.0404  0.4296  0.0876
  290SOL    HW3 1232   0.623   3.711   0.832  0.9233 -0.1269  1.7208
  290SOL    MW4 1233   0.615   3.631   0.799  0.1742  0.4523  0.4664
  291SOL     OW 1234   0.655   3.928   0.855  0.4308  0.1571  0.0290
  291SOL    HW2 1235   0.721   3.965   0.797 -0.4493  2.2345  0.2982
  291SOL    HW3 1236   0.572   3.964   0.823 -0.1943  0.4041  1.8506
  291SOL    MW4 1237   0.652   3.938   0.843  0.2322  0.4640  0.3049
  292SOL     OW 1238   0.418   4.023   0.741  0.3569  0.1334 -0.1484
  292SOL    HW2 1239   0.423   4.113   0.773  1.8424 -0.5046  1.4589
  292SOL    HW3 1240   0.355   3.980   0.800  0.6588 -0.2310 -0.0916
  292SOL    MW4 1241   0.410   4.029   0.753  0.5927  0.0010  0.0712
  293SOL     OW 1242   0.378   4.281   0.830  0.6438  0.1505  0.0125
  293SOL    HW2 1243   0.381   4.280   0.926  0.1074  0.7800  0.0342
  293SOL    HW3 1244   0.287   4.302   0.809  0.7604  0.0133 -0.6367
  293SOL    MW4 1245   0.367   4.283   0.840  0.5884  0.2151 -0.0703
  294SOL     OW 1246   0.556   4.443   0.690 -0.0550  0.0213 -0.3861
  294SOL    HW2 1247   0.495   4.393   0.745  0.8858 -0.9279 -0.2000
  294SOL    HW3 1248   0.570   4.525   0.739  0.4118 -0.6226  0.5759
  294SOL    MW4 1249   0.550   4.447   0.704  0.1307 -0.1888 -0.2347
  295SOL     OW 1250   1.080   4.647   0.789 -0.5003  0.0332  0.1070
  295SOL    HW2 1251   1.151   4.705   0.763 -0.1235 -1.2155 -1.7417
  295SOL    HW3 1252   1.001   4.702   0.784 -0.2320  0.2607 -2.2305
  295SOL    MW4 1253   1.079   4.662   0.785 -0.4153 -0.1016 -0.4454
  296SOL     OW 1254   0.849   0.138   0.754  0.1545 -0.0778 -0.2636
  296SOL    HW2 1255   0.855   0.224   0.796  1.6689  0.2901 -1.2241
  296SOL    HW3 1256   0.757   0.113   0.765 -0.8227  2.6115 -1.8199
  296SOL    MW4 1257   0.838   0.146   0.761  0.2254  0.3255 -0.5957
  297SOL     OW 1258   0.893   0.387   0.884  0.1457  0.2536 -0.1980
  297SOL    HW2 1259   0.895   0.402   0.978  0.0005  0.0439 -0.1598
  297SOL    HW3 1260   0.981   0.407   0.854 -0.0766  1.2977 -0.1690
  297SOL    MW4 1261   0.905   0.392   0.892  0.0971  0.3637 -0.1891
  298SOL     OW 1262   1.142   0.565   0.808 -0.2567 -0.3965 -0.4783
  298SOL    HW2 1263   1.214   0.505   0.829 -1.2554 -0.9256  1.4409
  298SOL    HW3 1264   1.113   0.537   0.721  1.2882 -0.7264 -0.9076
  298SOL    MW4 1265   1.148   0.553   0.799 -0.1847 -0.5098 -0.2818
  299SOL     OW 1266   1.111   0.843   0.825  0.0914 -0.3397 -0.2936
  299SOL    HW2 1267   1.101   0.844   0.920 -1.7259  0.6408 -0.4674
  299SOL    HW3 1268   1.117   0.750   0.803 -0.7658 -0.6407  0.6820
  299SOL    MW4 1269   1.110   0.831   0.835 -0.2615 -0.2501 -0.1878
  300SOL     OW 1270   0.879   0.952   0.776  0.3942  0.0625 -0.1219
  300SOL    HW2 1271   0.967   0.916   0.790  0.0944 -0.6840 -0.1228
  300SOL    HW3 1272   0.823   0.901   0.835 -0.1764 -0.0666 -0.7771
  300SOL    MW4 1273   0.883   0.940   0.786  0.2794 -0.0530 -0.2084
  301SOL     OW 1274   0.822   1.215   0.827  0.3610 -0.0524 -0.2117
  301SOL    HW2 1275   0.861   1.132   0.800  0.6971 -0.0268  0.1998
  301SOL    HW3 1276   0.834   1.272   0.751 -0.3012 -0.5175 -0.6776
  301SOL    MW4 1277   0.829   1.211   0.813  0.3180 -0.1103 -0.2189
  302SOL     OW 1278   1.153   1.291   0.645  0.3386  0.2810 -0.3873
  302SOL    HW2 1279   1.063   1.263   0.625  0.4256  0.3782 -0.9305
  302SOL    HW3 1280   1.203   1.266   0.568  1.0227 -0.8601  0.4214
  302SOL    MW4 1281   1.147   1.284   0.632  0.4402  0.1433 -0.3521
  303SOL     OW 1282   1.143   1.515   0.851  0.1919  0.4284 -0.4168
  303SOL    HW2 1283   1.072   1.575   0.828  0.3408  0.4709 -0.7745
  303SOL    HW3 1284   1.139   1.447   0.784 -0.4565 -0.3690  0.4200
  303SOL    MW4 1285   1.133   1.514   0.839  0.1260  0.3289 -0.3537
  304SOL     OW 1286   0.956   1.703   0.768 -0.1815 -0.2101  0.4050
  304SOL    HW2 1287   0.949   1.790   0.807 -1.0643 -0.3205  0.4956
  304SOL    HW3 1288   0.868   1.667   0.774 -0.4161 -0.1083 -2.0233
  304SOL    MW4 1289   0.944   1.710   0.774 -0.3289 -0.2112  0.0966
  305SOL     OW 1290   0.934   1.964   0.864 -0.0664  0.2485  0.5954
  305SOL    HW2 1291   0.926   1.964   0.960  0.6344 -0.3098  0.6588
  305SOL    HW3 1292   0.860   2.017   0.834 -0.1905  0.5786  1.4561
  305SOL    MW4 1293   0.923   1.971   0.873  0.0096  0.2183  0.7173
  306SOL     OW 1294   1.177   2.098   0.783 -0.2918  0.4390 -0.1583
  306SOL    HW2 1295   1.161   2.190   0.803 -0.9059 -0.0327  1.6892
  306SOL    HW3 1296   1.091   2.056   0.795  0.4411 -0.7148  1.2399
  306SOL    MW4 1297   1.163   2.104   0.787 -0.2761  0.2244  0.2699
  307SOL     OW 1298   1.119   2.378   0.820  0.0597 -0.3006  0.4117
  307SOL    HW2 1299   1.117   2.386   0.915 -1.1275 -0.5090  0.4165
  307SOL    HW3 1300   1.198   2.424   0.793 -1.6409  3.2992  1.2019
  307SOL    MW4 1301   1.129   2.385   0.829 -0.3214  0.1471  0.5166
  308SOL     OW 1302   0.921   2.546   0.735 -0.0143  0.0373  0.0443
  308SOL    HW2 1303   0.994   2.496   0.772  0.4172  0.1933 -0.5770
  308SOL    HW3 1304   0.842   2.504   0.769  0.3675 -0.0819  0.7880
  308SOL    MW4 1305   0.920   2.534   0.744  0.0930  0.0424  0.0605
  309SOL     OW 1306   0.909   2.821   0.808  0.0490 -0.1508 -0.2253
  309SOL    HW2 1307   0.901   2.818   0.903 -1.8535  0.6559 -0.3545
  309SOL    HW3 1308   0.912   2.728   0.782 -0.7647 -0.3871  0.5067
  309SOL    MW4 1309   0.908   2.808   0.817 -0.3094 -0.0758 -0.1458
  310SOL     OW 1310   1.152   2.904   0.691 -0.1073  0.2499 -0.0784
  310SOL    HW2 1311   1.069   2.867   0.720 -0.1962  0.2047 -0.3876
  310SOL    HW3 1312   1.150   2.897   0.595 -0.2955  1.4209 -0.1649
  310SOL    MW4 1313   1.141   2.898   0.682 -0.1438  0.3986 -0.1306
  311SOL     OW 1314   1.129   3.171   0.818  0.1714  0.0443  0.2972
  311SOL    HW2 1315   1.046   3.206   0.788  0.5177  0.3839 -0.2713
  311SOL    HW3 1316   1.142   3.091   0.766  0.6730  0.5228 -0.3122
  311SOL    MW4 1317   1.120   3.165   0.808  0.2832  0.1521  0.1418
  312SOL     OW 1318   0.888   3.263   0.760  0.4238 -0.4697  0.0662
  312SOL    HW2 1319   0.881   3.345   0.809 -0.6149 -0.5868  0.1326
  312SOL    HW3 1320   0.806   3.217   0.779  0.3680 -0.8785 -1.1235
  312SOL    MW4 1321   0.876   3.268   0.769  0.2794 -0.5391 -0.0820
  313SOL     OW 1322   0.872   3.507   0.892  0.0657 -0.1220  0.5381
  313SOL    HW2 1323   0.944   3.566   0.871 -0.2868  0.2200  0.2856
  313SOL    HW3 1324   0.798   3.541   0.843 -0.0166 -1.0775 -0.0269
  313SOL    MW4 1325   0.872   3.519   0.883  0.0083 -0.2031  0.4303
  314SOL     OW 1326   1.090   3.652   0.771  0.1006 -0.1314 -0.4171
  314SOL    HW2 1327   1.161   3.603   0.811  0.3628  1.3548  1.0253
  314SOL    HW3 1328   1.121   3.674   0.683  0.6284 -1.1511 -0.4855
  314SOL    MW4 1329   1.103   3.649   0.765  0.2048 -0.0699 -0.2359
  315SOL     OW 1330   1.050   3.933   0.848 -0.2323  0.3205  1.0170
  315SOL    HW2 1331   1.094   3.945   0.933  1.9156  0.2288 -0.0564
  315SOL    HW3 1332   1.050   3.838   0.834  0.9039  0.4402  0.1587
  315SOL    MW4 1333   1.056   3.922   0.858  0.2010  0.3242  0.7622
  316SOL     OW 1334   0.867   4.083   0.707 -0.0446 -0.3161  0.5701
  316SOL    HW2 1335   0.844   4.162   0.757  1.2398  1.0817 -0.9779
  316SOL    HW3 1336   0.932   4.039   0.761 -0.7493 -0.3081  1.4369
  316SOL    MW4 1337   0.873   4.088   0.721  0.0319 -0.1307  0.4802
  317SOL     OW 1338   0.777   4.323   0.839  0.5610  0.3054 -0.1765
  317SOL    HW2 1339   0.870   4.339   0.824  0.5470  0.2569 -0.3194
  317SOL    HW3 1340   0.731   4.383   0.780  0.4718  1.8493  1.4326
  317SOL    MW4 1341   0.783   4.333   0.829  0.5474  0.5021  0.0169
  318SOL     OW 1342   1.018   4.381   0.776  0.1550  0.0160 -0.0221
  318SOL    HW2 1343   1.098   4.337   0.807 -0.4536 -0.3249  1.1118
  318SOL    HW3 1344   1.043   4.473   0.769  0.6238 -0.0690  0.4601
  318SOL    MW4 1345   1.032   4.387   0.779  0.1366 -0.0401  0.1911
  319SOL     OW 1346   1.599   0.053   0.851  0.3347 -0.3125  0.3641
  319SOL    HW2 1347   1.583   0.029   0.942  0.0453 -0.9749  0.1447
  319SOL    HW3 1348   1.517   0.095   0.823  0.1377 -0.8223  0.1769
  319SOL    MW4 1349   1.586   0.055   0.859  0.2705 -0.4671  0.3105
  320SOL     OW 1350   1.335   0.095   0.753  0.0070 -0.1333 -0.0152
  320SOL    HW2 1351   1.325   0.180   0.797 -0.5102 -0.9226  1.4367
  320SOL    HW3 1352   1.333   0.116   0.660  2.1363  1.7145  0.3098
  320SOL    MW4 1353   1.333   0.109   0.747  0.2198  0.0063  0.2193
  321SOL     OW 1354   1.347   0.368   0.859 -0.0637 -0.0336 -0.1254
  321SOL    HW2 1355   1.343   0.380   0.953 -0.1970  0.5799 -0.2100
  321SOL    HW3 1356   1.420   0.423   0.830 -0.5190  0.3903 -0.4763
  321SOL    MW4 1357   1.356   0.377   0.867 -0.1411  0.1033 -0.1829
  322SOL     OW 1358   1.541   0.569   0.784  0.3553 -0.2462 -0.6562
  322SOL    HW2 1359   1.525   0.660   0.808  0.9341 -0.3218  0.0345
  322SOL    HW3 1360   1.623   0.546   0.828 -0.4967 -1.5132  0.3431
  322SOL    MW4 1361   1.549   0.578   0.793  0.3194 -0.4234 -0.4333
  323SOL     OW 1362   1.570   0.826   0.919 -0.0081 -0.7663 -0.4860
  323SOL    HW2 1363   1.648   0.854   0.871  1.2582 -1.0905  1.3658
  323SOL    HW3 1364   1.499   0.876   0.878  1.3093  0.4047 -1.4277
  323SOL    MW4 1365   1.571   0.836   0.907  0.3327 -0.6545 -0.3660
  324SOL     OW 1366   1.362   0.942   0.788 -0.6427 -0.0190  0.1448
  324SOL    HW2 1367   1.346   1.030   0.822 -0.4913  0.0766 -0.0325
  324SOL    HW3 1368   1.280   0.896   0.803 -0.4574 -0.0841  0.9760
  324SOL    MW4 1369   1.349   0.948   0.794 -0.5983 -0.0150  0.2311
  325SOL     OW 1370   1.292   1.203   0.866 -0.0154 -0.3200 -0.0385
  325SOL    HW2 1371   1.369   1.241   0.824  0.9951  0.3209  2.2944
  325SOL    HW3 1372   1.222   1.212   0.802  1.5492  0.2753 -1.6942
  325SOL    MW4 1373   1.293   1.209   0.852  0.3244 -0.1570  0.0508
  326SOL     OW 1374   1.535   1.285   0.749 -0.3768 -0.4762 -0.1596
  326SOL    HW2 1375   1.556   1.371   0.787  2.3882 -0.9462 -0.5321
  326SOL    HW3 1376   1.524   1.303   0.656 -1.8436 -0.2061  0.0559
  326SOL    MW4 1377   1.536   1.299   0.742 -0.2055 -0.5026 -0.1803
  327SOL     OW 1378   1.540   1.528   0.861  0.4503  0.2132  0.1504
  327SOL    HW2 1379   1.542   1.554   0.954 -3.2514 -0.9941  0.6623
  327SOL    HW3 1380   1.458   1.566   0.828 -0.7921 -3.5540 -1.3106
  327SOL    MW4 1381   1.529   1.537   0.869 -0.2021 -0.4431  0.0252
  328SOL     OW 1382   1.332   1.667   0.715  0.1736 -0.0104 -0.0062
  328SOL    HW2 1383   1.334   1.753   0.756  0.3569  1.2910 -2.6131
  328SOL    HW3 1384   1.258   1.622   0.756  0.2637  1.2815  1.5969
  328SOL    MW4 1385   1.322   1.672   0.726  0.2097  0.3316 -0.1386
  329SOL     OW 1386   1.371   1.916   0.860  0.0889 -0.1100 -0.1521
  329SOL    HW2 1387   1.367   1.907   0.955  1.3308  1.1114  0.0173
  329SOL    HW3 1388   1.308   1.985   0.840 -0.6158 -0.7810 -0.2905
  329SOL    MW4 1389   1.362   1.924   0.870  0.1599 -0.0374 -0.1480
  330SOL     OW 1390   1.547   2.093   0.758  0.4514  0.1226  0.0435
  330SOL    HW2 1391   1.474   2.040   0.788 -0.0902  0.5244 -0.5648
  330SOL    HW3 1392   1.557   2.072   0.665  2.3298 -1.3564  0.5451
  330SOL    MW4 1393   1.539   2.083   0.750  0.6279 -0.0196  0.0294
  331SOL     OW 1394   1.592   2.339   0.847 -0.0377 -0.3157 -0.1181
  331SOL    HW2 1395   1.509   2.385   0.848  0.5231  0.6898  1.2779
  331SOL    HW3 1396   1.571   2.252   0.812 -1.3757  0.4451 -1.2309
  331SOL    MW4 1397   1.578   2.333   0.842 -0.1402 -0.0827 -0.0808
  332SOL     OW 1398   1.382   2.512   0.792 -0.7142 -0.0591 -0.5101
  332SOL    HW2 1399   1.367   2.597   0.833  1.3152 -0.0411  0.2575
  332SOL    HW3 1400   1.402   2.533   0.700  0.5923  0.3738 -0.1391
  332SOL    MW4 1401   1.383   2.526   0.785 -0.2739  0.0002 -0.3600
  333SOL     OW 1402   1.352   2.786   0.837  0.1463 -0.7045 -0.5081
  333SOL    HW2 1403   1.317   2.802   0.925  1.3205 -0.3747 -0.0933
  333SOL    HW3 1404   1.282   2.816   0.778  0.1069  0.8773  0.2992
  333SOL    MW4 1405   1.338   2.792   0.841  0.2961 -0.4523 -0.3468
  334SOL     OW 1406   1.590   2.911   0.759  0.1314  0.1322  0.0976
  334SOL    HW2 1407   1.581   3.002   0.787  0.9003  0.4107 -0.5600
  334SOL    HW3 1408   1.509   2.869   0.788 -0.6701  1.2582 -0.4851
  334SOL    MW4 1409   1.578   2.918   0.766  0.1271  0.3176 -0.0660
  335SOL     OW 1410   1.566   3.173   0.857  0.1417  0.5458 -0.0278
  335SOL    HW2 1411   1.567   3.175   0.953  1.8476 -1.7852  0.0474
  335SOL    HW3 1412   1.488   3.223   0.833  0.6285  2.6369  2.5106
  335SOL    MW4 1413   1.556   3.180   0.867  0.4311  0.5140  0.3170
  336SOL     OW 1414   1.344   3.295   0.718 -0.0199 -0.3154 -0.4507
  336SOL    HW2 1415   1.267   3.249   0.750 -1.5309  1.5238 -1.4040
  336SOL    HW3 1416   1.331   3.302   0.623  0.6743  1.1791 -0.4513
  336SOL    MW4 1417   1.332   3.289   0.709 -0.1278  0.1242 -0.5765
  337SOL     OW 1418   1.327   3.519   0.884 -0.7495 -0.0710 -0.0172
  337SOL    HW2 1419   1.400   3.579   0.871  0.3626 -0.7925  2.7053
  337SOL    HW3 1420   1.345   3.446   0.825  0.6850 -0.1995  0.5666
  337SOL    MW4 1421   1.339   3.517   0.874 -0.4135 -0.1831  0.4190
  338SOL     OW 1422   1.553   3.646   0.771  1.0733 -0.3085  0.1670
  338SOL    HW2 1423   1.642   3.615   0.791  1.2007 -0.1496 -0.1492
  338SOL    HW3 1424   1.551   3.651   0.675  0.6427 -0.5515  0.1625
  338SOL    MW4 1425   1.565   3.642   0.761  1.0333 -0.3197  0.1246
  339SOL     OW 1426   1.549   3.912   0.837 -0.4395  0.0609  0.1579
  339SOL    HW2 1427   1.471   3.937   0.788 -0.8087 -0.5260  0.4405
  339SOL    HW3 1428   1.566   3.822   0.809 -0.0963  0.0538  0.3947
  339SOL    MW4 1429   1.541   3.903   0.827 -0.4430 -0.0174  0.2264
  340SOL     OW 1430   1.313   3.993   0.737 -0.3729  0.2946  0.2208
  340SOL    HW2 1431   1.223   3.978   0.767 -0.3669 -0.8680 -0.3253
  340SOL    HW3 1432   1.311   3.977   0.643  0.6377 -0.8321  0.3789
  340SOL    MW4 1433   1.301   3.989   0.729 -0.2388 -0.0072  0.1696
  341SOL     OW 1434   1.250   4.256   0.818 -0.7378 -0.4194 -0.5822
  341SOL    HW2 1435   1.275   4.309   0.742 -1.5270 -2.3363 -2.2155
  341SOL    HW3 1436   1.281   4.168   0.797 -0.2898 -0.8311  1.6820
  341SOL    MW4 1437   1.257   4.251   0.805 -0.7830 -0.7262 -0.4989
  342SOL     OW 1438   1.609   4.507   0.658 -0.2301 -0.0777  0.1549
  342SOL    HW2 1439   1.673   4.439   0.683 -0.2041  0.3203  1.1757
  342SOL    HW3 1440   1.602   4.563   0.735 -0.2574  1.0853 -0.6853
  342SOL    MW4 1441   1.617   4.505   0.672 -0.2303  0.1283  0.1787
  343SOL     OW 1442   2.009   0.043   0.822 -0.3757  0.2953 -0.1453
  343SOL    HW2 1443   2.090   0.094   0.815 -1.1850  1.5494 -0.4734
  343SOL    HW3 1444   2.025  -0.033   0.766  0.7313  0.3267  0.1084
  343SOL    MW4 1445   2.022   0.040   0.814 -0.3364  0.4649 -0.1551
  344SOL     OW 1446   1.787   0.209   0.735  0.0917 -0.5053  0.1810
  344SOL    HW2 1447   1.871   0.163   0.743  0.9437  1.0353  0.3612
  344SOL    HW3 1448   1.726   0.158   0.789  1.5861 -0.0864  2.3401
  344SOL    MW4 1449   1.790   0.196   0.744  0.4013 -0.2468  0.4897
  345SOL     OW 1450   1.787   0.466   0.865  0.3022  0.3905 -0.0181
  345SOL    HW2 1451   1.782   0.372   0.847 -0.1557  0.6293 -1.2277
  345SOL    HW3 1452   1.881   0.484   0.873  0.3200 -0.4277  1.7098
  345SOL    MW4 1453   1.799   0.456   0.864  0.2443  0.3141  0.0503
  346SOL     OW 1454   2.062   0.512   0.807  0.3663 -0.0558  0.0508
  346SOL    HW2 1455   2.146   0.501   0.851  0.5938  0.0559 -0.3553
  346SOL    HW3 1456   2.071   0.464   0.725  0.1151  0.1593 -0.1037
  346SOL    MW4 1457   2.074   0.504   0.802  0.3629 -0.0127 -0.0232
  347SOL     OW 1458   2.012   0.784   0.827  0.1834 -0.3003 -0.4528
  347SOL    HW2 1459   2.092   0.825   0.793  0.2489  0.0445  0.1163
  347SOL    HW3 1460   2.025   0.690   0.813 -0.7790 -0.0387 -3.5308
  347SOL    MW4 1461   2.024   0.777   0.821  0.0651 -0.2203 -0.7839
  348SOL     OW 1462   1.788   0.921   0.765  0.2952 -0.0093 -0.5612
  348SOL    HW2 1463   1.794   1.015   0.782 -1.5927 -0.2226  1.4150
  348SOL    HW3 1464   1.876   0.887   0.785  0.3172  0.9616  1.0155
  348SOL    MW4 1465   1.801   0.929   0.770  0.0491  0.0905 -0.0924
  349SOL     OW 1466   1.795   1.194   0.843 -0.4747 -0.1095  0.5390
  349SOL    HW2 1467   1.870   1.239   0.804  0.6587 -1.3126  1.2999
  349SOL    HW3 1468   1.723   1.213   0.783  0.5642  0.5424 -0.5446
  349SOL    MW4 1469   1.796   1.202   0.830 -0.1881 -0.1822  0.4964
  350SOL     OW 1470   2.003   1.317   0.686 -0.4072 -0.9047  0.2618
  350SOL    HW2 1471   2.085   1.279   0.718 -1.0812 -1.8211  0.9242
  350SOL    HW3 1472   1.998   1.290   0.594  0.8865  0.6342 -0.2970
  350SOL    MW4 1473   2.013   1.309   0.678 -0.3254 -0.8225  0.2755
  351SOL     OW 1474   1.976   1.588   0.721  0.0956  0.1151 -0.4074
  351SOL    HW2 1475   2.061   1.631   0.716  0.1504  0.1609  0.7892
  351SOL    HW3 1476   1.995   1.495   0.712  0.2142  0.1634 -0.6583
  351SOL    MW4 1477   1.990   1.581   0.719  0.1185  0.1277 -0.2826
  352SOL     OW 1478   1.722   1.699   0.755 -0.0820  0.0235  0.7316
  352SOL    HW2 1479   1.807   1.657   0.745  0.1939  0.8318 -0.3490
  352SOL    HW3 1480   1.666   1.630   0.791  0.9347 -0.6014  1.1418
  352SOL    MW4 1481   1.726   1.684   0.758  0.0887  0.0476  0.6431
  353SOL     OW 1482   1.793   1.968   0.825  0.1212  0.1116 -0.5998
  353SOL    HW2 1483   1.765   1.878   0.805  1.3839 -0.7022  1.2014
  353SOL    HW3 1484   1.719   2.022   0.796 -2.2544 -1.7807  1.5839
  353SOL    MW4 1485   1.779   1.963   0.818 -0.0255 -0.2456 -0.0740
  354SOL     OW 1486   2.014   2.074   0.701  0.2630 -0.1191  0.1841
  354SOL    HW2 1487   1.994   2.154   0.751 -1.0511 -0.1823 -0.2070
  354SOL    HW3 1488   1.956   2.008   0.739  0.0931 -0.4509 -0.6599
  354SOL    MW4 1489   2.003   2.076   0.713  0.0670 -0.1709  0.0212
  355SOL     OW 1490   1.973   2.295   0.850  0.2375  0.0741  0.3820
  355SOL    HW2 1491   1.990   2.312   0.942 -1.6825 -0.5914  0.8744
  355SOL    HW3 1492   1.904   2.358   0.826  0.8902  0.4117 -0.6674
  355SOL    MW4 1493   1.966   2.305   0.859  0.0702  0.0308  0.3085
  356SOL     OW 1494   1.809   2.493   0.756 -0.3139 -0.1129 -0.0791
  356SOL    HW2 1495   1.720   2.463   0.776 -0.1895 -0.1803  0.3662
  356SOL    HW3 1496   1.809   2.506   0.661 -0.9980  0.5425  0.0101
  356SOL    MW4 1497   1.797   2.491   0.746 -0.3878 -0.0353 -0.0086
  357SOL     OW 1498   1.813   2.778   0.838  0.3547  0.1177 -0.0197
  357SOL    HW2 1499   1.800   2.686   0.812  0.6221 -0.3786  1.5005
  357SOL    HW3 1500   1.741   2.825   0.796 -0.1922 -0.9112 -0.2685
  357SOL    MW4 1501   1.802   2.772   0.829  0.3179 -0.0834  0.1481
  358SOL     OW 1502   2.035   2.941   0.743 -0.4560  0.7780 -0.6719
  358SOL    HW2 1503   2.114   2.886   0.748 -0.6555  0.5463  0.1115
  358SOL    HW3 1504   1.968   2.890   0.790 -0.7947  1.4311 -0.4403
  358SOL    MW4 1505   2.037   2.927   0.750 -0.5269  0.8337 -0.5379
  359SOL     OW 1506   2.018   3.176   0.882  0.4551 -0.1459 -0.6120
  359SOL    HW2 1507   1.931   3.202   0.851 -0.0511  0.1885  1.0351
  359SOL    HW3 1508   2.033   3.091   0.840  0.7941  1.3095 -3.5502
  359SOL    MW4 1509   2.008   3.168   0.872  0.4332  0.0904 -0.7824
  360SOL     OW 1510   1.806   3.305   0.765 -0.4632  0.1747  0.3802
  360SOL    HW2 1511   1.726   3.272   0.807 -0.4426 -0.5608 -0.1324
  360SOL    HW3 1512   1.788   3.296   0.671 -0.1339  0.8821  0.2495
  360SOL    MW4 1513   1.793   3.299   0.758 -0.4170  0.1709  0.2953
  361SOL     OW 1514   1.806   3.578   0.842  0.4134 -0.0099  0.0504
  361SOL    HW2 1515   1.819   3.571   0.937 -2.8807 -0.5571  0.5314
  361SOL    HW3 1516   1.804   3.487   0.812  0.6212  0.1417 -0.4294
  361SOL    MW4 1517   1.808   3.565   0.851  0.0062 -0.0622  0.0505
  362SOL     OW 1518   2.010   3.776   0.799  0.0279 -0.0976 -0.2201
  362SOL    HW2 1519   1.992   3.818   0.883  1.1775 -1.1687  0.5937
  362SOL    HW3 1520   1.941   3.710   0.790  0.5741 -0.7763  0.4627
  362SOL    MW4 1521   1.999   3.773   0.809  0.2517 -0.3285 -0.0226
  363SOL     OW 1522   1.747   4.066   0.700  0.2636 -0.0337 -0.6648
  363SOL    HW2 1523   1.713   4.016   0.774 -0.5159  1.0264 -0.2890
  363SOL    HW3 1524   1.671   4.084   0.645  0.8604 -0.9277 -1.8117
  363SOL    MW4 1525   1.733   4.062   0.702  0.2394 -0.0119 -0.7666
  364SOL     OW 1526   1.986   4.026   0.593 -0.3783  0.1423  0.0311
  364SOL    HW2 1527   1.904   4.038   0.642 -0.6525 -0.1134 -0.3648
  364SOL    HW3 1528   1.977   4.084   0.517 -0.1006  0.2766  0.1012
  364SOL    MW4 1529   1.974   4.036   0.590 -0.3779  0.1268 -0.0119
  365SOL     OW 1530   1.782   4.325   0.778 -0.0201 -0.3678 -0.5357
  365SOL    HW2 1531   1.772   4.315   0.873  0.4781  0.3759 -0.3976
  365SOL    HW3 1532   1.767   4.237   0.743  1.9226 -1.1152  0.4258
  365SOL    MW4 1533   1.779   4.312   0.786  0.3018 -0.3686 -0.3905
  366SOL     OW 1534   2.054   4.419   0.727  0.3627 -0.0261 -0.0189
  366SOL    HW2 1535   1.962   4.389   0.727 -0.2125  1.6593  1.1130
  366SOL    HW3 1536   2.076   4.427   0.634 -0.6899 -0.2996 -0.3102
  366SOL    MW4 1537   2.045   4.416   0.715  0.1478  0.1602  0.0920
  367SOL     OW 1538   2.340   4.224   0.554  0.2602 -0.2992 -0.2145
  367SOL    HW2 1539   2.332   4.252   0.645  0.6255 -1.8912  0.3333
  367SOL    HW3 1540   2.431   4.243   0.531  1.0486 -2.7077  0.7650
  367SOL    MW4 1541   2.351   4.230   0.563  0.4125 -0.8268 -0.0129
  368SOL     OW 1542   2.283   0.127   0.843 -0.5853  0.2452 -0.6230
  368SOL    HW2 1543   2.350   0.098   0.905 -0.4103  0.4934 -0.6916
  368SOL    HW3 1544   2.308   0.088   0.760 -0.7960 -0.0533 -0.5458
  368SOL    MW4 1545   2.295   0.118   0.840 -0.5901  0.2386 -0.6218
  369SOL     OW 1546   2.308   0.397   0.900 -0.2584 -0.0388 -0.3301
  369SOL    HW2 1547   2.377   0.430   0.843  1.6117 -1.1347  1.2180
  369SOL    HW3 1548   2.288   0.309   0.867 -0.2620 -0.0768 -0.2286
  369SOL    MW4 1549   2.314   0.390   0.888 -0.0122 -0.1884 -0.1125
  370SOL     OW 1550   2.512   0.491   0.712  0.2089  0.6703  0.0813
  370SOL    HW2 1551   2.583   0.455   0.764  0.8015  0.5811 -0.7920
  370SOL    HW3 1552   2.476   0.416   0.664  0.0531  0.8579 -0.0985
  370SOL    MW4 1553   2.516   0.476   0.713  0.2663  0.6833 -0.0576
  371SOL     OW 1554   2.467   0.763   0.816  0.0470  0.3362  0.3706
  371SOL    HW2 1555   2.539   0.825   0.803 -0.0499  0.6186  1.1764
  371SOL    HW3 1556   2.489   0.689   0.759  0.4598  0.8563 -0.1468
  371SOL    MW4 1557   2.480   0.761   0.807  0.0889  0.4420  0.4086
  372SOL     OW 1558   2.255   0.911   0.737  0.3310  0.1486 -0.1782
  372SOL    HW2 1559   2.331   0.864   0.773  0.9894  1.7257  0.5366
  372SOL    HW3 1560   2.288   0.953   0.657 -0.3599 -0.9162 -1.0339
  372SOL    MW4 1561   2.270   0.910   0.731  0.3269  0.2162 -0.1968
  373SOL     OW 1562   2.244   1.187   0.823 -0.1369  0.4558  0.3643
  373SOL    HW2 1563   2.228   1.186   0.917  1.4743  0.2433  0.6631
  373SOL    HW3 1564   2.243   1.095   0.797  1.2143  0.3722  0.5324
  373SOL    MW4 1565   2.242   1.175   0.832  0.2539  0.4169  0.4258
  374SOL     OW 1566   2.483   1.311   0.789  0.1475  0.6608  0.3057
  374SOL    HW2 1567   2.413   1.247   0.797  1.2903 -0.6502 -0.0049
  374SOL    HW3 1568   2.506   1.312   0.696  2.7251 -1.3479  0.8534
  374SOL    MW4 1569   2.477   1.303   0.778  0.6382  0.2229  0.3370
  375SOL     OW 1570   2.468   1.597   0.829  0.1070  0.0544  0.4920
  375SOL    HW2 1571   2.554   1.624   0.796 -0.0904  0.0565 -0.0311
  375SOL    HW3 1572   2.460   1.506   0.801 -1.0774  0.7569 -1.6082
  375SOL    MW4 1573   2.478   1.589   0.821 -0.0753  0.1475  0.1459
  376SOL     OW 1574   2.237   1.680   0.691 -0.5592 -0.2744 -0.3789
  376SOL    HW2 1575   2.298   1.674   0.764 -0.5799  1.7173 -0.1795
  376SOL    HW3 1576   2.293   1.680   0.613 -0.4577 -0.9524 -0.3085
  376SOL    MW4 1577   2.252   1.679   0.690 -0.5484 -0.1010 -0.3432
  377SOL     OW 1578   2.231   1.930   0.819 -0.1875  0.6857 -0.5411
  377SOL    HW2 1579   2.228   1.850   0.767  1.8449  0.9327 -1.0991
  377SOL    HW3 1580   2.166   1.987   0.780 -0.6726 -0.1864 -1.0185
  377SOL    MW4 1581   2.222   1.927   0.807  0.0167  0.6034 -0.6778
  378SOL     OW 1582   2.465   2.083   0.728  0.3250 -0.1640  0.1118
  378SOL    HW2 1583   2.391   2.023   0.739 -0.0489  0.3240  0.2385
  378SOL    HW3 1584   2.460   2.111   0.637  0.2303  0.0349  0.1790
  378SOL    MW4 1585   2.455   2.079   0.718  0.2632 -0.0734  0.1374
  379SOL     OW 1586   2.470   2.337   0.860 -0.3125 -0.3928  0.1813
  379SOL    HW2 1587   2.552   2.364   0.818 -0.1815  0.9425  1.2542
  379SOL    HW3 1588   2.449   2.253   0.820  0.8440 -0.0803 -1.1197
  379SOL    MW4 1589   2.479   2.329   0.850 -0.1423 -0.1752  0.1512
  380SOL     OW 1590   2.207   2.479   0.794 -0.1576 -0.0790  0.7438
  380SOL    HW2 1591   2.285   2.454   0.843  0.8905 -1.7308 -1.6494
  380SOL    HW3 1592   2.141   2.415   0.819 -0.2269  0.2803  1.4816
  380SOL    MW4 1593   2.209   2.467   0.803 -0.0284 -0.2494  0.5254
  381SOL     OW 1594   2.234   2.746   0.835  0.4072 -0.2928 -0.2160
  381SOL    HW2 1595   2.214   2.746   0.928 -0.9281  0.0180 -0.4934
  381SOL    HW3 1596   2.220   2.656   0.807 -1.6006  0.1093 -0.5980
  381SOL    MW4 1597   2.230   2.734   0.843 -0.0339 -0.1986 -0.3030
  382SOL     OW 1598   2.478   2.890   0.729 -0.2133  0.1090 -0.2478
  382SOL    HW2 1599   2.541   2.843   0.784 -0.0922 -1.1201 -1.3922
  382SOL    HW3 1600   2.393   2.854   0.754 -0.2566  0.2640 -0.1708
  382SOL    MW4 1601   2.475   2.879   0.739 -0.2031 -0.0329 -0.3887
  383SOL     OW 1602   2.404   3.137   0.826  0.8141  0.5411  0.3602
  383SOL    HW2 1603   2.404   3.131   0.921 -1.4984  0.0322  0.3472
  383SOL    HW3 1604   2.430   3.050   0.796  0.1020  0.2779  0.5087
  383SOL    MW4 1605   2.408   3.125   0.835  0.4151  0.4392  0.3781
  384SOL     OW 1606   2.221   3.324   0.766  0.4810  0.2841  0.1976
  384SOL    HW2 1607   2.147   3.284   0.812  0.9827 -0.6380  0.2090
  384SOL    HW3 1608   2.294   3.264   0.781  1.5848  1.8708  1.3265
  384SOL    MW4 1609   2.221   3.311   0.774  0.6926  0.3719  0.3482
  385SOL     OW 1610   2.247   3.597   0.832 -0.0334  0.3929 -0.1126
  385SOL    HW2 1611   2.233   3.508   0.800 -0.7327  0.4835 -0.0722
  385SOL    HW3 1612   2.161   3.639   0.825  0.1106  0.8230  0.6111
  385SOL    MW4 1613   2.234   3.591   0.827 -0.1066  0.4616 -0.0117
  386SOL     OW 1614   2.498   3.678   0.720 -0.7084 -0.8409 -0.6617
  386SOL    HW2 1615   2.557   3.644   0.787  0.2548  1.6473 -0.1673
  386SOL    HW3 1616   2.410   3.661   0.754 -0.2505 -2.1320 -0.1115
  386SOL    MW4 1617   2.494   3.671   0.733 -0.5209 -0.6826 -0.5239
  387SOL     OW 1618   2.433   3.935   0.865 -0.1564  0.3266  0.6809
  387SOL    HW2 1619   2.458   3.856   0.818  1.0654  0.9575  0.2567
  387SOL    HW3 1620   2.349   3.961   0.827 -0.6673 -0.8638  0.9642
  387SOL    MW4 1621   2.425   3.928   0.854 -0.0627  0.2527  0.6623
  388SOL     OW 1622   2.156   4.033   0.826  0.0706 -0.0219 -0.0927
  388SOL    HW2 1623   2.118   3.988   0.902  0.0404  1.6133  0.8810
  388SOL    HW3 1624   2.097   4.013   0.754 -0.6446 -0.4899  0.6150
  388SOL    MW4 1625   2.143   4.024   0.827 -0.0279  0.1316  0.1291
  389SOL     OW 1626   2.256   4.277   0.823  0.1035 -0.5944  0.5585
  389SOL    HW2 1627   2.218   4.190   0.835 -0.4620 -0.2715  1.1181
  389SOL    HW3 1628   2.182   4.333   0.803  0.2223  0.1280  2.1252
  389SOL    MW4 1629   2.241   4.273   0.822  0.0448 -0.4559  0.8391
  390SOL     OW 1630   2.591   4.273   0.453  0.1223 -0.2032 -0.3884
  390SOL    HW2 1631   2.664   4.221   0.487 -0.5258 -1.2991 -0.6240
  390SOL    HW3 1632   2.615   4.364   0.471  0.1692 -0.6999  2.2870
  390SOL    MW4 1633   2.604   4.278   0.460  0.0429 -0.4129 -0.0666
  391SOL     OW 1634   2.956   0.024   0.810 -0.5590 -0.1200  0.0161
  391SOL    HW2 1635   2.982  -0.064   0.783  1.1658  1.2171 -2.9098
  391SOL    HW3 1636   2.892   0.052   0.744 -0.6618  1.0605  0.5875
  391SOL    MW4 1637   2.951   0.016   0.798 -0.3452  0.2121 -0.2944
  392SOL     OW 1638   2.590   4.529   0.674 -0.2308  0.2530  0.2177
  392SOL    HW2 1639   2.580   4.600   0.738  0.2793  0.2842  0.2657
  392SOL    HW3 1640   2.605   4.451   0.727  3.1566  0.7538  0.1102
  392SOL    MW4 1641   2.591   4.528   0.689  0.2832  0.3238  0.2097
  393SOL     OW 1642   2.729   0.372   0.818 -0.5435  0.5370  0.0176
  393SOL    HW2 1643   2.715   0.387   0.912  0.4920 -0.7515  0.3894
  393SOL    HW3 1644   2.810   0.419   0.799  1.6652 -2.8224  0.7631
  393SOL    MW4 1645   2.738   0.380   0.828 -0.1154 -0.0762  0.1650
  394SOL     OW 1646   2.939   0.543   0.715 -0.1765 -0.1514  0.0141
  394SOL    HW2 1647   3.020   0.501   0.742  0.6498  1.0296 -0.5841
  394SOL    HW3 1648   2.958   0.579   0.629 -1.4630 -0.2061 -0.3076
  394SOL    MW4 1649   2.952   0.542   0.707 -0.2372 -0.0028 -0.1073
  395SOL     OW 1650   2.904   0.777   0.851 -0.0090 -0.1421  0.0664
  395SOL    HW2 1651   2.913   0.772   0.947 -0.4154 -0.5366  0.0882
  395SOL    HW3 1652   2.906   0.686   0.822  0.1112 -0.0229 -0.3016
  395SOL    MW4 1653   2.905   0.764   0.860 -0.0467 -0.1784  0.0207
  396SOL     OW 1654   2.685   0.934   0.786 -0.1157  0.2033  0.0221
  396SOL    HW2 1655   2.761   0.884   0.814 -0.6768 -0.9635 -0.5224
  396SOL    HW3 1656   2.670   0.909   0.695 -2.1281 -0.8427  0.6105
  396SOL    MW4 1657   2.693   0.924   0.778 -0.4549 -0.0887  0.0279
  397SOL     OW 1658   2.722   1.182   0.865 -0.1205 -0.2280  0.2437
  397SOL    HW2 1659   2.703   1.096   0.829 -0.8623 -0.0149  0.1161
  397SOL    HW3 1660   2.641   1.232   0.852  0.3022  0.4869  0.3118
  397SOL    MW4 1661   2.709   1.177   0.858 -0.1624 -0.1055  0.2359
  398SOL     OW 1662   2.956   1.264   0.724 -0.2731 -0.1282 -0.2783
  398SOL    HW2 1663   3.027   1.212   0.762 -0.0217 -0.3458 -1.0230
  398SOL    HW3 1664   2.879   1.241   0.776  0.3139  0.5592  0.9207
  398SOL    MW4 1665   2.955   1.254   0.736 -0.1626 -0.0662 -0.2183
  399SOL     OW 1666   2.927   1.530   0.837 -0.6003  0.2109 -0.6409
  399SOL    HW2 1667   3.007   1.572   0.803 -0.1734 -0.5732 -0.6077
  399SOL    HW3 1668   2.929   1.442   0.800 -0.8151 -0.2146  0.3734
  399SOL    MW4 1669   2.938   1.524   0.827 -0.5724  0.0513 -0.5027
  400SOL     OW 1670   2.707   1.672   0.711 -0.0082 -0.3271  0.0638
  400SOL    HW2 1671   2.720   1.765   0.732  0.6978 -0.1711 -1.0019
  400SOL    HW3 1672   2.781   1.627   0.751  0.2059 -0.2954 -0.2937
  400SOL    MW4 1673   2.718   1.679   0.719  0.1128 -0.3023 -0.1240
  401SOL     OW 1674   2.706   1.932   0.812 -0.3148 -0.2947  0.4193
  401SOL    HW2 1675   2.701   1.951   0.906 -1.6911  0.0655  0.2864
  401SOL    HW3 1676   2.630   1.977   0.774 -0.9390 -2.1488 -0.5824
  401SOL    MW4 1677   2.696   1.940   0.819 -0.5784 -0.4919  0.2696
  402SOL     OW 1678   2.849   2.157   0.672 -0.0470 -0.1438  0.0239
  402SOL    HW2 1679   2.890   2.222   0.729  0.2492 -0.0404 -0.3015
  402SOL    HW3 1680   2.793   2.105   0.730 -0.9639  0.9549  0.1328
  402SOL    MW4 1681   2.847   2.159   0.687 -0.1290  0.0148 -0.0047
  403SOL     OW 1682   2.946   2.367   0.828 -0.3290 -0.2954 -0.3090
  403SOL    HW2 1683   2.942   2.359   0.923 -0.0383 -0.9523 -0.3513
  403SOL    HW3 1684   2.867   2.415   0.804 -0.9987 -1.1771  0.1518
  403SOL    MW4 1685   2.935   2.372   0.837 -0.3791 -0.4985 -0.2537
  404SOL     OW 1686   2.710   2.474   0.763 -0.6747  0.2921 -0.2698
  404SOL    HW2 1687   2.725   2.496   0.671 -0.2969  1.1090 -0.0156
  404SOL    HW3 1688   2.690   2.558   0.805 -1.3221 -0.1417  0.3011
  404SOL    MW4 1689   2.709   2.488   0.756 -0.7100  0.3428 -0.1609
  405SOL     OW 1690   2.690   2.761   0.854  0.4133 -0.6292 -0.0396
  405SOL    HW2 1691   2.695   2.774   0.949 -0.7678  3.2831 -0.4463
  405SOL    HW3 1692   2.774   2.792   0.821 -0.4445  1.1446 -0.5675
  405SOL    MW4 1693   2.702   2.767   0.862  0.1445  0.1211 -0.1630
  406SOL     OW 1694   2.955   2.902   0.522  0.3829  0.6366  0.4237
  406SOL    HW2 1695   2.983   2.815   0.495 -0.4715  0.3018  0.5948
  406SOL    HW3 1696   2.883   2.923   0.463  0.2414  1.0046  0.7285
  406SOL    MW4 1697   2.949   2.893   0.511  0.2515  0.6409  0.4865
  407SOL     OW 1698   2.907   3.118   0.915  0.3589  0.2437 -0.5912
  407SOL    HW2 1699   2.822   3.159   0.898 -0.3758 -0.7423  0.6174
  407SOL    HW3 1700   2.900   3.032   0.874  1.2214  0.5953 -1.5021
  407SOL    MW4 1701   2.895   3.112   0.907  0.3755  0.1600 -0.5518
  408SOL     OW 1702   2.673   3.231   0.789  0.5294 -0.0906 -0.3487
  408SOL    HW2 1703   2.668   3.325   0.806  2.2725  0.0350 -0.4884
  408SOL    HW3 1704   2.583   3.200   0.802  0.2082  1.3472  1.0591
  408SOL    MW4 1705   2.660   3.239   0.793  0.7169  0.1156 -0.1814
  409SOL     OW 1706   2.678   3.508   0.842  0.0106 -0.1745 -0.3379
  409SOL    HW2 1707   2.695   3.502   0.936  0.4735  1.6030 -0.2994
  409SOL    HW3 1708   2.755   3.550   0.805 -0.8711  0.6482 -1.2919
  409SOL    MW4 1709   2.690   3.513   0.849 -0.0443  0.1688 -0.4587
  410SOL     OW 1710   2.900   3.635   0.760 -0.4547 -0.0343 -0.0452
  410SOL    HW2 1711   2.903   3.728   0.784 -1.9572  0.3172 -1.0966
  410SOL    HW3 1712   2.944   3.631   0.675 -0.5713 -0.2422 -0.0956
  410SOL    MW4 1713   2.906   3.647   0.752 -0.6685 -0.0153 -0.1906
  411SOL     OW 1714   2.923   3.906   0.837  0.9499  0.2345 -0.1266
  411SOL    HW2 1715   2.923   3.895   0.932 -0.8406 -0.8424 -0.2347
  411SOL    HW3 1716   2.839   3.947   0.816  1.2273  0.2596 -1.2775
  411SOL    MW4 1717   2.912   3.910   0.846  0.7503  0.0956 -0.2927
  412SOL     OW 1718   2.665   4.007   0.719  0.0634 -0.4679 -0.2301
  412SOL    HW2 1719   2.583   4.021   0.767  0.5250 -0.0704  0.4529
  412SOL    HW3 1720   2.639   3.958   0.641 -0.9217  0.2353 -0.3481
  412SOL    MW4 1721   2.651   4.002   0.715 -0.0057 -0.3228 -0.1556
  413SOL     OW 1722   2.734   4.317   0.819 -0.3029 -0.0335 -0.2374
  413SOL    HW2 1723   2.733   4.311   0.914 -1.8423 -1.6300 -0.3241
  413SOL    HW3 1724   2.726   4.227   0.789  2.5743  0.2038 -1.9192
  413SOL    MW4 1725   2.732   4.305   0.827 -0.1264 -0.2136 -0.4707
  414SOL     OW 1726   2.960   4.435   0.756  0.1447  0.3347  0.3376
  414SOL    HW2 1727   3.022   4.379   0.802  0.9372  2.5563  2.0321
  414SOL    HW3 1728   2.874   4.405   0.785  0.4285 -1.8594 -0.9758
  414SOL    MW4 1729   2.957   4.424   0.766  0.2868  0.3381  0.3879
  415SOL     OW 1730   3.370   0.028   0.778  0.0010  0.2883  0.1263
  415SOL    HW2 1731   3.370   0.007   0.872 -1.5371 -2.3162 -0.4224
  415SOL    HW3 1732   3.299   0.091   0.768 -0.4017 -0.0928  0.5647
  415SOL    MW4 1733   3.361   0.034   0.789 -0.2551 -0.1059  0.1117
  416SOL     OW 1734   3.153   0.203   0.746 -0.0339 -0.2627  0.0502
  416SOL    HW2 1735   3.145   0.279   0.804 -0.1736 -0.5111  0.3539
  416SOL    HW3 1736   3.088   0.141   0.777 -0.8482  0.0301 -1.0481
  416SOL    MW4 1737   3.144   0.205   0.758 -0.1595 -0.2569 -0.0546
  417SOL     OW 1738   3.175   0.448   0.845 -0.4542 -0.3814  0.0477
  417SOL    HW2 1739   3.167   0.428   0.938  0.4516 -0.6728  0.0635
  417SOL    HW3 1740   3.269   0.461   0.831 -0.5189 -0.9608 -0.9491
  417SOL    MW4 1741   3.186   0.447   0.855 -0.3436 -0.4963 -0.0817
  418SOL     OW 1742   3.432   0.530   0.794 -0.1154 -0.0471 -0.2621
  418SOL    HW2 1743   3.507   0.475   0.817  0.4885  0.6325 -0.5763
  418SOL    HW3 1744   3.430   0.528   0.698 -2.1736 -2.2847 -0.2249
  418SOL    MW4 1745   3.441   0.522   0.784 -0.3073 -0.2526 -0.2986
  419SOL     OW 1746   3.412   0.788   0.840 -0.2074 -0.1327  0.7583
  419SOL    HW2 1747   3.321   0.814   0.827 -0.0849 -0.0609  0.0412
  419SOL    HW3 1748   3.410   0.692   0.834  0.1026 -0.0290 -1.5074
  419SOL    MW4 1749   3.400   0.779   0.838 -0.1507 -0.1097  0.3648
  420SOL     OW 1750   3.164   0.867   0.769  0.1368 -0.1991  0.1059
  420SOL    HW2 1751   3.171   0.959   0.793  0.3184 -0.3246  0.5406
  420SOL    HW3 1752   3.074   0.844   0.794 -1.0395  0.7240 -3.0684
  420SOL    MW4 1753   3.153   0.876   0.776  0.0057 -0.0938 -0.2555
  421SOL     OW 1754   3.207   1.137   0.834 -0.3682 -0.3597  0.5278
  421SOL    HW2 1755   3.184   1.168   0.922 -0.6303  0.0095  0.3299
  421SOL    HW3 1756   3.288   1.184   0.812  0.6118 -1.6847  1.2385
  421SOL    MW4 1757   3.215   1.147   0.843 -0.2735 -0.4857  0.5955
  422SOL     OW 1758   3.442   1.276   0.768 -0.0993  0.4381 -0.3711
  422SOL    HW2 1759   3.521   1.242   0.812  0.1346 -1.5211 -2.2049
  422SOL    HW3 1760   3.443   1.370   0.787  1.3515  0.0534  1.6707
  422SOL    MW4 1761   3.453   1.284   0.776  0.1230  0.1289 -0.3436
  423SOL     OW 1762   3.393   1.532   0.832 -0.1700  0.3501  0.5017
  423SOL    HW2 1763   3.374   1.538   0.926  1.5881  0.0774  0.8754
  423SOL    HW3 1764   3.463   1.596   0.818  0.5194 -0.5886 -0.3687
  423SOL    MW4 1765   3.399   1.541   0.843  0.1531  0.1903  0.4362
  424SOL     OW 1766   3.163   1.657   0.746  0.2686 -0.1097  0.2143
  424SOL    HW2 1767   3.233   1.604   0.783 -0.5474 -0.4055  1.3817
  424SOL    HW3 1768   3.183   1.662   0.652  0.9482 -1.5547  0.2679
  424SOL    MW4 1769   3.175   1.650   0.738  0.2508 -0.3395  0.3754
  425SOL     OW 1770   3.186   1.933   0.833  0.5026 -0.0640  0.0641
  425SOL    HW2 1771   3.168   1.937   0.927  1.1552 -0.7267  0.2225
  425SOL    HW3 1772   3.177   1.840   0.812 -1.4779  0.3148 -0.8973
  425SOL    MW4 1773   3.182   1.921   0.843  0.3276 -0.1013 -0.0420
  426SOL     OW 1774   3.438   2.022   0.715 -0.1801 -0.0213 -0.3936
  426SOL    HW2 1775   3.437   2.117   0.723  1.9397 -0.2230  3.0417
  426SOL    HW3 1776   3.368   1.992   0.774  0.4308 -0.6733  0.0048
  426SOL    MW4 1777   3.428   2.030   0.724  0.1802 -0.1340  0.1122
  427SOL     OW 1778   3.428   2.315   0.783 -0.2981  0.3787 -0.3184
  427SOL    HW2 1779   3.437   2.330   0.878 -0.1937 -1.2952 -0.0513
  427SOL    HW3 1780   3.488   2.379   0.744  0.9628 -0.0656  0.8294
  427SOL    MW4 1781   3.437   2.325   0.791 -0.1180  0.0992 -0.1318
  428SOL     OW 1782   3.122   2.517   0.658  0.3749  0.1574 -0.4312
  428SOL    HW2 1783   3.171   2.440   0.629 -0.8498 -0.7672 -0.1060
  428SOL    HW3 1784   3.055   2.481   0.717 -1.3423  1.2603 -1.6673
  428SOL    MW4 1785   3.120   2.502   0.662 -0.0134  0.1812 -0.5514
  429SOL     OW 1786   3.180   2.728   0.858 -0.7756  0.3743  0.0880
  429SOL    HW2 1787   3.179   2.648   0.807 -1.2528 -1.3481  2.7009
  429SOL    HW3 1788   3.254   2.778   0.823 -0.9606 -0.8187 -2.0831
  429SOL    MW4 1789   3.190   2.724   0.847 -0.8631 -0.0103  0.1463
  430SOL     OW 1790   3.387   2.848   0.751  0.0503 -0.1223 -0.2865
  430SOL    HW2 1791   3.376   2.816   0.661 -0.0029 -1.2277  0.0989
  430SOL    HW3 1792   3.468   2.806   0.781  0.3892  0.7184 -0.0218
  430SOL    MW4 1793   3.397   2.838   0.743  0.0877 -0.1566 -0.2007
  431SOL     OW 1794   3.396   3.103   0.860 -0.5652  0.4542 -0.1437
  431SOL    HW2 1795   3.390   3.090   0.955  0.2023  1.8066  0.0960
  431SOL    HW3 1796   3.389   3.015   0.824 -1.0354 -0.0590  1.1587
  431SOL    MW4 1797   3.394   3.090   0.868 -0.5260  0.5651  0.0597
  432SOL     OW 1798   3.133   3.227   0.774  0.2404  0.1660 -0.2329
  432SOL    HW2 1799   3.221   3.219   0.812  0.3453  1.1323 -0.2691
  432SOL    HW3 1800   3.079   3.166   0.825  0.4725  1.1532  1.2048
  432SOL    MW4 1801   3.137   3.218   0.786  0.2849  0.4237 -0.0479
  433SOL     OW 1802   3.103   3.481   0.885  0.5535 -0.0768  0.3327
  433SOL    HW2 1803   3.108   3.394   0.847  0.2794 -0.5481  1.3707
  433SOL    HW3 1804   3.044   3.529   0.826  0.4382 -0.6886 -0.0515
  433SOL    MW4 1805   3.096   3.476   0.872  0.5021 -0.2196  0.4190
  434SOL     OW 1806   3.360   3.545   0.818  0.1794 -0.3462  0.3987
  434SOL    HW2 1807   3.353   3.640   0.826  1.4145 -0.2556  0.6177
  434SOL    HW3 1808   3.275   3.512   0.845 -0.8059  0.7730 -1.2904
  434SOL    MW4 1809   3.348   3.553   0.823  0.2122 -0.1864  0.2047
  435SOL     OW 1810   3.365   3.813   0.837  0.2475  0.3747 -0.2856
  435SOL    HW2 1811   3.349   3.835   0.929  0.7583  0.4719 -0.2165
  435SOL    HW3 1812   3.455   3.843   0.821  0.3965 -0.2515 -0.6300
  435SOL    MW4 1813   3.375   3.820   0.847  0.3345  0.3045 -0.3219
  436SOL     OW 1814   3.173   3.993   0.745  0.2067 -0.1339  0.5663
  436SOL    HW2 1815   3.245   3.933   0.760 -0.1488 -0.9714 -0.9843
  436SOL    HW3 1816   3.097   3.950   0.784  0.4588  0.5746  1.8649
  436SOL    MW4 1817   3.172   3.980   0.752  0.1929 -0.1512  0.5330
  437SOL     OW 1818   3.137   4.251   0.851  0.2212  0.1444 -0.3966
  437SOL    HW2 1819   3.196   4.303   0.796  0.0029 -0.5856 -1.3448
  437SOL    HW3 1820   3.152   4.161   0.823  0.4603 -0.2957  1.0975
  437SOL    MW4 1821   3.147   4.246   0.840  0.2239 -0.0100 -0.3246
  438SOL     OW 1822   3.324   4.402   0.709 -0.0307  0.2403  0.0878
  438SOL    HW2 1823   3.338   4.495   0.728  0.6458  0.2295 -0.3556
  438SOL    HW3 1824   3.342   4.394   0.615 -0.0465 -0.3484  0.1351
  438SOL    MW4 1825   3.328   4.413   0.699  0.0565  0.1612  0.0356
  439SOL     OW 1826   3.808   4.638   0.846  0.1669  0.0152 -0.2410
  439SOL    HW2 1827   3.892   4.681   0.834  0.1514 -0.1463 -0.9966
  439SOL    HW3 1828   3.747   4.687   0.790 -0.3730  0.5053  0.7652
  439SOL    MW4 1829   3.811   4.650   0.837  0.0939  0.0587 -0.2079
  440SOL     OW 1830   3.603   0.163   0.747 -0.5191  0.4304 -0.0070
  440SOL    HW2 1831   3.520   0.117   0.757  0.1688 -0.7814  0.2217
  440SOL    HW3 1832   3.601   0.195   0.656 -0.8264 -0.4189 -0.3068
  440SOL    MW4 1833   3.592   0.161   0.736 -0.4687  0.1584 -0.0163
  441SOL     OW 1834   3.684   0.398   0.862  0.1309  0.2148 -0.3585
  441SOL    HW2 1835   3.685   0.393   0.958 -0.0421  0.2968 -0.3527
  441SOL    HW3 1836   3.663   0.309   0.833  0.6663  0.0786 -0.3306
  441SOL    MW4 1837   3.681   0.385   0.871  0.1786  0.2076 -0.3541
  442SOL     OW 1838   3.858   0.567   0.719 -0.2968 -0.6263  0.3736
  442SOL    HW2 1839   3.863   0.652   0.761  0.4845  0.1175 -1.1919
  442SOL    HW3 1840   3.789   0.521   0.766 -0.1127  0.5414  1.8016
  442SOL    MW4 1841   3.849   0.572   0.731 -0.1695 -0.3741  0.3555
  443SOL     OW 1842   3.893   0.789   0.890  0.2252  0.1391  0.0032
  443SOL    HW2 1843   3.858   0.774   0.978 -0.7958 -0.5250 -0.4948
  443SOL    HW3 1844   3.904   0.884   0.884 -0.8937  0.3025  0.4160
  443SOL    MW4 1845   3.890   0.800   0.901 -0.0572  0.0731 -0.0080
  444SOL     OW 1846   3.578   0.932   0.676  0.2063  0.4051 -0.0597
  444SOL    HW2 1847   3.665   0.902   0.649 -0.0570  0.6924 -1.2521
  444SOL    HW3 1848   3.540   0.857   0.723  0.4469 -0.3209 -1.0063
  444SOL    MW4 1849   3.584   0.918   0.678  0.2031  0.3473 -0.3418
  445SOL     OW 1850   3.690   1.120   0.847 -0.3661  0.4860  0.1973
  445SOL    HW2 1851   3.659   1.118   0.938  1.8738 -0.5808  0.9752
  445SOL    HW3 1852   3.641   1.050   0.804  0.6852 -0.9828  1.3317
  445SOL    MW4 1853   3.680   1.111   0.853  0.0684  0.1514  0.4497
  446SOL     OW 1854   4.024   0.997   0.508 -0.4810  0.6109  0.4822
  446SOL    HW2 1855   3.942   0.951   0.524  1.0957 -2.5142  0.1338
  446SOL    HW3 1856   4.005   1.058   0.436 -2.6660  0.5164  0.9743
  446SOL    MW4 1857   4.011   0.999   0.500 -0.5612  0.1861  0.5012
  447SOL     OW 1858   3.846   1.536   0.817 -0.5186 -0.1491 -0.2802
  447SOL    HW2 1859   3.922   1.588   0.794  0.8759 -1.5978  0.9111
  447SOL    HW3 1860   3.847   1.462   0.756 -0.7232 -0.3915  0.0033
  447SOL    MW4 1861   3.856   1.533   0.806 -0.3617 -0.3722 -0.0857
  448SOL     OW 1862   3.619   1.687   0.774  0.1045  0.2542  0.4388
  448SOL    HW2 1863   3.641   1.768   0.819  0.9680 -0.3230  1.0648
  448SOL    HW3 1864   3.693   1.628   0.791  0.1733 -0.1813 -1.2213
  448SOL    MW4 1865   3.632   1.690   0.782  0.2272  0.1205  0.3024
  449SOL     OW 1866   3.640   1.936   0.879  0.1251 -0.1776 -0.4127
  449SOL    HW2 1867   3.708   1.992   0.842  0.7435 -0.1548  0.7290
  449SOL    HW3 1868   3.559   1.963   0.836  0.4567  1.4215 -0.0503
  449SOL    MW4 1869   3.638   1.947   0.869  0.2503  0.0364 -0.2142
  450SOL     OW 1870   3.848   2.075   0.739  0.0852 -0.4135  0.4175
  450SOL    HW2 1871   3.920   2.029   0.782  0.1391 -1.3338 -0.6561
  450SOL    HW3 1872   3.868   2.070   0.646 -1.1608 -0.3091  0.1352
  450SOL    MW4 1873   3.860   2.069   0.732 -0.0720 -0.5214  0.2386
  451SOL     OW 1874   3.860   2.342   0.853 -0.1483 -0.0107  0.8101
  451SOL    HW2 1875   3.850   2.350   0.948 -1.7058 -3.2907  0.9980
  451SOL    HW3 1876   3.870   2.248   0.838  1.9259  0.6093 -2.1492
  451SOL    MW4 1877   3.860   2.330   0.864 -0.0801 -0.3617  0.4444
  452SOL     OW 1878   3.654   2.485   0.712  0.2396  0.0261  0.3749
  452SOL    HW2 1879   3.648   2.563   0.767 -0.1337  0.5964 -0.4740
  452SOL    HW3 1880   3.728   2.436   0.749  0.3789  0.7007  1.0076
  452SOL    MW4 1881   3.663   2.489   0.724  0.2091  0.1905  0.3464
  453SOL     OW 1882   3.601   2.714   0.865 -0.1392 -0.5440  0.4161
  453SOL    HW2 1883   3.601   2.732   0.959  0.4925 -1.0600  0.5229
  453SOL    HW3 1884   3.673   2.767   0.831 -0.4433 -0.2672  0.2064
  453SOL    MW4 1885   3.611   2.723   0.873 -0.0958 -0.5753  0.4026
  454SOL     OW 1886   3.810   2.849   0.741  0.1926  0.1965 -0.5031
  454SOL    HW2 1887   3.829   2.928   0.790  2.1470  0.0697 -1.0222
  454SOL    HW3 1888   3.811   2.876   0.650  3.0971 -0.8034 -0.8285
  454SOL    MW4 1889   3.813   2.863   0.736  0.8340  0.0477 -0.6144
  455SOL     OW 1890   3.900   3.095   0.861  0.1435  0.0307  0.0180
  455SOL    HW2 1891   3.943   3.144   0.791  0.4242  1.3325  1.0858
  455SOL    HW3 1892   3.810   3.126   0.861 -0.0391 -0.4982 -0.2418
  455SOL    MW4 1893   3.894   3.105   0.852  0.1566  0.1323  0.1246
  456SOL     OW 1894   3.649   3.210   0.804 -0.4366  0.1535 -0.7674
  456SOL    HW2 1895   3.569   3.160   0.821 -0.6430  0.2920 -1.3331
  456SOL    HW3 1896   3.664   3.201   0.710 -0.4050  1.0486 -0.8531
  456SOL    MW4 1897   3.640   3.203   0.794 -0.4597  0.2897 -0.8534
  457SOL     OW 1898   3.605   3.437   0.943  0.0244  0.0208  0.0678
  457SOL    HW2 1899   3.619   3.360   0.887 -0.4519  0.1916 -0.2907
  457SOL    HW3 1900   3.527   3.479   0.907  0.3307  0.7222  0.2101
  457SOL    MW4 1901   3.597   3.432   0.931  0.0021  0.1359  0.0392
  458SOL     OW 1902   3.815   3.585   0.780 -0.0254 -0.3495  0.4186
  458SOL    HW2 1903   3.903   3.554   0.800  0.1825 -0.4929 -0.6762
  458SOL    HW3 1904   3.757   3.522   0.823  0.3938 -0.0623  1.4279
  458SOL    MW4 1905   3.819   3.572   0.788  0.0572 -0.3304  0.4073
  459SOL     OW 1906   3.819   3.866   0.887  0.0380  0.6495  0.0779
  459SOL    HW2 1907   3.735   3.902   0.858 -0.8331  0.2190  1.9735
  459SOL    HW3 1908   3.822   3.777   0.851 -0.5503  0.4940  0.4098
  459SOL    MW4 1909   3.808   3.859   0.879 -0.1545  0.5722  0.3718
  460SOL     OW 1910   3.605   3.958   0.762  0.9000 -0.1825 -0.1749
  460SOL    HW2 1911   3.571   4.043   0.790 -0.1422 -0.7754  0.3779
  460SOL    HW3 1912   3.606   3.963   0.666  0.0674  0.1515 -0.1693
  460SOL    MW4 1913   3.600   3.970   0.753  0.6530 -0.2167 -0.1013
  461SOL     OW 1914   3.536   4.237   0.816 -0.2007 -0.0780  0.0096
  461SOL    HW2 1915   3.603   4.296   0.781 -0.0802 -0.5847 -0.6440
  461SOL    HW3 1916   3.454   4.269   0.778 -0.0884 -0.5402 -0.6351
  461SOL    MW4 1917   3.534   4.249   0.806 -0.1700 -0.2060 -0.1617
  462SOL     OW 1918   3.749   4.386   0.724 -0.4431  0.1513 -0.4685
  462SOL    HW2 1919   3.832   4.342   0.740 -0.1056  0.4905 -1.2524
  462SOL    HW3 1920   3.759   4.471   0.768 -0.3870  0.1826 -0.5414
  462SOL    MW4 1921   3.761   4.392   0.732 -0.3912  0.2003 -0.5815
  463SOL     OW 1922   4.258   4.625   0.820 -0.0843 -0.0025  0.3830
  463SOL    HW2 1923   4.255   4.629   0.916 -1.4697 -0.4435  0.3700
  463SOL    HW3 1924   4.184   4.679   0.792 -0.4007 -0.8437 -0.4143
  463SOL    MW4 1925   4.247   4.633   0.829 -0.3095 -0.1717  0.2761
  464SOL     OW 1926   4.045   0.128   0.760 -0.0004 -0.1666 -0.0483
  464SOL    HW2 1927   4.036   0.222   0.772  0.8412  0.0204 -0.7805
  464SOL    HW3 1928   4.055   0.117   0.666  0.6035 -0.9135  0.0951
  464SOL    MW4 1929   4.045   0.139   0.749  0.1898 -0.2405 -0.1260
  465SOL     OW 1930   4.033   0.395   0.859  0.0337  0.1799 -0.2458
  465SOL    HW2 1931   4.113   0.419   0.811 -0.1177  1.5232  0.1434
  465SOL    HW3 1932   3.964   0.445   0.815 -0.2932  0.4751  0.6060
  465SOL    MW4 1933   4.034   0.405   0.847 -0.0300  0.3961 -0.0821
  466SOL     OW 1934   4.231   0.339   0.494 -0.2552  0.1988 -0.1236
  466SOL    HW2 1935   4.254   0.387   0.574  0.9426  1.3292 -1.1304
  466SOL    HW3 1936   4.295   0.269   0.489 -1.1345 -0.6793  0.5834
  466SOL    MW4 1937   4.242   0.337   0.504 -0.2136  0.2321 -0.1631
  467SOL     OW 1938   4.179   0.834   0.871 -0.5069 -0.6885  0.1677
  467SOL    HW2 1939   4.156   0.924   0.848  0.4322 -0.6174 -0.5305
  467SOL    HW3 1940   4.095   0.788   0.877 -0.9728  0.1509  0.2043
  467SOL    MW4 1941   4.165   0.840   0.869 -0.4449 -0.5684  0.0805
  468SOL     OW 1942   4.226   1.087   0.716 -0.2257  0.0324 -0.5209
  468SOL    HW2 1943   4.169   1.136   0.775 -0.1373 -1.3603  0.7183
  468SOL    HW3 1944   4.167   1.055   0.647 -0.5872  0.3312 -0.3522
  468SOL    MW4 1945   4.210   1.089   0.714 -0.2613 -0.1118 -0.3351
  469SOL     OW 1946   3.969   1.074   0.900  0.3112 -0.1699 -0.1716
  469SOL    HW2 1947   3.997   1.110   0.984 -0.7271 -0.3709  0.2657
  469SOL    HW3 1948   3.883   1.112   0.885  1.1229  1.0793 -1.8880
  469SOL    MW4 1949   3.962   1.084   0.909  0.2811 -0.0317 -0.3404
  470SOL     OW 1950   4.408   1.334   0.735  0.0604 -0.1293 -0.4890
  470SOL    HW2 1951   4.419   1.364   0.645  1.3518 -0.2991 -0.3974
  470SOL    HW3 1952   4.368   1.248   0.727 -1.1277  0.4415 -0.8437
  470SOL    MW4 1953   4.404   1.327   0.722  0.0739 -0.0763 -0.5237
  471SOL     OW 1954   4.274   1.554   0.847 -0.3478  0.2811 -0.0294
  471SOL    HW2 1955   4.251   1.554   0.939 -2.5111 -1.7431 -0.5246
  471SOL    HW3 1956   4.303   1.464   0.829  3.7841  1.6165 -0.4772
  471SOL    MW4 1957   4.275   1.542   0.856 -0.0882  0.1901 -0.1539
  472SOL     OW 1958   4.061   1.681   0.709  0.0493 -0.2956  0.4088
  472SOL    HW2 1959   4.147   1.665   0.748 -0.3113  1.2908  1.9049
  472SOL    HW3 1960   4.079   1.700   0.617  1.1666 -1.2424  0.4170
  472SOL    MW4 1961   4.075   1.681   0.702  0.1493 -0.2112  0.6073
  473SOL     OW 1962   4.065   1.930   0.858  0.1962 -0.2218  0.3581
  473SOL    HW2 1963   4.129   1.985   0.811 -0.4089 -0.7627 -1.1199
  473SOL    HW3 1964   4.060   1.850   0.806 -0.7150 -0.7126  1.1996
  473SOL    MW4 1965   4.073   1.927   0.845 -0.0038 -0.3579  0.2741
  474SOL     OW 1966   4.303   2.051   0.754 -0.0620  0.4916  0.4727
  474SOL    HW2 1967   4.373   2.023   0.812 -0.0809  0.0679  0.2979
  474SOL    HW3 1968   4.343   2.053   0.667 -0.4113 -0.3150  0.2873
  474SOL    MW4 1969   4.317   2.047   0.750 -0.1106  0.3295  0.4251
  475SOL     OW 1970   4.338   2.319   0.887  0.1195  0.3055 -0.1110
  475SOL    HW2 1971   4.267   2.379   0.862  1.0566  1.4457 -0.0804
  475SOL    HW3 1972   4.319   2.239   0.839  0.3767  1.5640 -2.4402
  475SOL    MW4 1973   4.326   2.317   0.877  0.2775  0.6218 -0.4144
  476SOL     OW 1974   4.109   2.443   0.812  0.0487  0.0832 -0.0573
  476SOL    HW2 1975   4.094   2.536   0.831 -1.2266  0.1749 -1.4060
  476SOL    HW3 1976   4.026   2.401   0.833  0.7468 -0.8173  0.9119
  476SOL    MW4 1977   4.096   2.450   0.817 -0.0272 -0.0234 -0.1075
  477SOL     OW 1978   4.015   2.709   0.845 -0.0867  0.2151 -0.0371
  477SOL    HW2 1979   4.095   2.751   0.812  0.7170 -1.1892  0.0803
  477SOL    HW3 1980   3.944   2.758   0.804  0.8324  1.4173 -0.2327
  477SOL    MW4 1981   4.016   2.721   0.835  0.1402  0.1886 -0.0474
  478SOL     OW 1982   4.261   2.822   0.741  0.3994 -0.2168  0.3394
  478SOL    HW2 1983   4.345   2.794   0.777  0.6853  0.7852  0.4596
  478SOL    HW3 1984   4.273   2.819   0.646  0.3840 -0.6092  0.3464
  478SOL    MW4 1985   4.273   2.818   0.733  0.4354 -0.1361  0.3561
  479SOL     OW 1986   4.256   3.061   0.860 -0.3104  0.1910 -0.1433
  479SOL    HW2 1987   4.251   2.980   0.810 -0.9842 -0.7334  1.4242
  479SOL    HW3 1988   4.340   3.099   0.835 -0.3719 -0.5490 -1.5333
  479SOL    MW4 1989   4.266   3.056   0.850 -0.4077 -0.0286 -0.1199
  480SOL     OW 1990   4.113   3.246   0.719 -0.2845  0.3046  0.0867
  480SOL    HW2 1991   4.105   3.326   0.770 -0.3807 -1.0701  2.2810
  480SOL    HW3 1992   4.169   3.189   0.771  0.5151 -0.7467 -1.8536
  480SOL    MW4 1993   4.119   3.249   0.732 -0.1922 -0.0157  0.1201
  481SOL     OW 1994   4.051   3.476   0.857 -0.1529 -0.2075 -0.1557
  481SOL    HW2 1995   4.071   3.480   0.951 -2.3746  2.4957  0.2864
  481SOL    HW3 1996   4.112   3.539   0.817  0.0642 -0.5680 -0.3956
  481SOL    MW4 1997   4.062   3.485   0.864 -0.4177  0.1013 -0.1290
  482SOL     OW 1998   4.252   3.599   0.728 -0.7482 -0.6115 -0.5989
  482SOL    HW2 1999   4.237   3.684   0.769 -1.5473 -1.4743  0.9253
  482SOL    HW3 2000   4.266   3.619   0.636 -0.1676  1.2434 -0.1269
  482SOL    MW4 2001   4.252   3.612   0.721 -0.7772 -0.4807 -0.3355
  483SOL     OW 2002   4.241   3.836   0.856  0.4142 -0.0582  0.1412
  483SOL    HW2 2003   4.240   3.877   0.942 -0.0498  3.4223 -1.4591
  483SOL    HW3 2004   4.171   3.880   0.807  1.5849 -0.9701 -2.4490
  483SOL    MW4 2005   4.232   3.847   0.861  0.5074  0.2804 -0.4117
  484SOL     OW 2006   4.030   3.988   0.739 -0.2168  0.1502  0.4742
  484SOL    HW2 2007   3.951   3.952   0.781  0.5735 -1.3677  0.6993
  484SOL    HW3 2008   4.037   3.940   0.656  1.5242 -1.1017  1.3197
  484SOL    MW4 2009   4.020   3.977   0.734  0.1168 -0.2151  0.6155
  485SOL     OW 2010   4.008   4.273   0.805  0.3106  0.2031  0.0560
  485SOL    HW2 2011   4.066   4.325   0.750  0.3904 -0.9729 -1.0027
  485SOL    HW3 2012   4.021   4.183   0.775  0.4245 -0.4864  2.0626
  485SOL    MW4 2013   4.018   4.268   0.794  0.3362 -0.0429  0.1811
  486SOL     OW 2014   4.224   4.400   0.680 -0.8074 -0.3396  0.1929
  486SOL    HW2 2015   4.226   4.481   0.730 -0.1132 -0.9933  1.2577
  486SOL    HW3 2016   4.277   4.339   0.732  0.0086 -1.0072 -1.3986
  486SOL    MW4 2017   4.231   4.402   0.694 -0.6080 -0.5140  0.1234
  487SOL     OW 2018   0.204   0.048   1.109 -0.0706 -0.1390  0.1212
  487SOL    HW2 2019   0.290   0.068   1.148  0.3046 -0.9870 -0.2540
  487SOL    HW3 2020   0.205   0.092   1.024  0.4816 -1.1580 -0.4080
  487SOL    MW4 2021   0.216   0.056   1.103  0.0518 -0.3854  0.0019
  488SOL     OW 2022   4.471   0.164   1.261 -0.0006 -0.5894  0.1245
  488SOL    HW2 2023   4.397   0.126   1.214 -0.0220 -1.5081  0.8885
  488SOL    HW3 2024   4.549   0.126   1.219  0.0750  0.6460 -0.9130
  488SOL    MW4 2025   4.472   0.154   1.249  0.0067 -0.5476  0.0885
  489SOL     OW 2026   0.020   0.392   1.118  0.1348  0.0114 -0.0214
  489SOL    HW2 2027  -0.059   0.439   1.145  0.8274  1.0134  0.3110
  489SOL    HW3 2028   0.018   0.310   1.167 -0.7230  0.0174 -0.0473
  489SOL    MW4 2029   0.010   0.388   1.128  0.1135  0.1444  0.0191
  490SOL     OW 2030   0.221   0.543   1.235  0.4141 -0.0765  0.3540
  490SOL    HW2 2031   0.213   0.631   1.198 -0.3453 -0.3633 -0.1652
  490SOL    HW3 2032   0.148   0.494   1.198  1.0680 -1.0492  0.3246
  490SOL    MW4 2033   0.210   0.548   1.226  0.4002 -0.2427  0.2816
  491SOL     OW 2034   0.186   0.811   1.110  0.2048  0.2373  0.1194
  491SOL    HW2 2035   0.262   0.860   1.141  0.0267  0.4243  0.2603
  491SOL    HW3 2036   0.111   0.853   1.152  0.0767 -0.3650  0.5015
  491SOL    MW4 2037   0.186   0.823   1.120  0.1644  0.1826  0.1884
  492SOL     OW 2038   4.462   0.938   1.221  0.4355 -0.3018  0.1631
  492SOL    HW2 2039   4.480   0.923   1.314 -0.8094 -0.1495  0.4351
  492SOL    HW3 2040   4.371   0.910   1.209  0.1691  0.8757 -0.7230
  492SOL    MW4 2041   4.452   0.933   1.232  0.2356 -0.1263  0.0820
  493SOL     OW 2042   0.015   1.194   1.134  1.1578 -0.1113 -0.3080
  493SOL    HW2 2043  -0.071   1.233   1.147  1.1896 -0.1745  0.1092
  493SOL    HW3 2044   0.008   1.108   1.174  1.7427  0.3022  0.7064
  493SOL    MW4 2045   0.003   1.188   1.141  1.2393 -0.0651 -0.1191
  494SOL     OW 2046   0.249   1.302   1.215 -0.3794  0.4347  0.2727
  494SOL    HW2 2047   0.316   1.261   1.160 -0.2620 -0.8451  1.3360
  494SOL    HW3 2048   0.167   1.263   1.185 -0.4332  0.5515  0.2690
  494SOL    MW4 2049   0.247   1.291   1.204 -0.3710  0.2812  0.4126
  495SOL     OW 2050   0.260   1.555   1.136  0.2301 -0.1069 -0.0422
  495SOL    HW2 2051   0.251   1.468   1.175  0.4437 -0.0937  0.0360
  495SOL    HW3 2052   0.269   1.539   1.042  1.3882 -0.2334  0.0865
  495SOL    MW4 2053   0.260   1.542   1.129  0.4111 -0.1218 -0.0149
  496SOL     OW 2054   0.011   1.667   1.237 -0.1137  1.0371  0.0709
  496SOL    HW2 2055   0.018   1.761   1.221  1.7846  1.2129  1.7843
  496SOL    HW3 2056   0.086   1.629   1.190 -1.4918  0.2106 -1.5542
  496SOL    MW4 2057   0.022   1.674   1.228 -0.0451  0.9512  0.0826
  497SOL     OW 2058   0.030   1.936   1.165 -0.1296 -0.2309  0.1596
  497SOL    HW2 2059  -0.035   1.995   1.203 -0.5289  0.2900 -1.2688
  497SOL    HW3 2060   0.025   1.953   1.071  1.3328 -0.9564 -0.0668
  497SOL    MW4 2061   0.021   1.946   1.157  0.0107 -0.2580 -0.0587
  498SOL     OW 2062   0.270   2.060   1.225  0.6771 -0.7277 -0.1973
  498SOL    HW2 2063   0.277   2.149   1.190  0.6588 -0.0344  1.5565
  498SOL    HW3 2064   0.208   2.017   1.165  1.5028  0.1009 -1.6840
  498SOL    MW4 2065   0.263   2.066   1.212  0.7836 -0.5267 -0.1621
  499SOL     OW 2066   0.267   2.322   1.106  0.1712 -0.1270 -0.0277
  499SOL    HW2 2067   0.338   2.379   1.132 -0.3837  0.7130 -0.3549
  499SOL    HW3 2068   0.188   2.367   1.134 -0.3202 -0.2979 -1.1085
  499SOL    MW4 2069   0.266   2.335   1.113  0.0331 -0.0389 -0.2135
  500SOL     OW 2070   0.039   2.451   1.228  0.2813 -0.1153  0.3816
  500SOL    HW2 2071   0.038   2.443   1.323  1.4488  0.1625  0.4181
  500SOL    HW3 2072  -0.027   2.387   1.198  0.4715 -0.7613  1.3231
  500SOL    MW4 2073   0.030   2.441   1.237  0.4605 -0.1638  0.5107
  501SOL     OW 2074   0.030   2.721   1.139 -0.0176  0.5489 -0.1033
  501SOL    HW2 2075  -0.047   2.742   1.191  1.7256  1.4085  2.2007
  501SOL    HW3 2076   0.057   2.634   1.170  0.5289  0.6973 -0.1509
  501SOL    MW4 2077   0.024   2.712   1.150  0.2845  0.6821  0.1943
  502SOL     OW 2078   0.243   2.895   1.213  0.0070  0.7061  0.5765
  502SOL    HW2 2079   0.252   2.873   1.305 -0.7891 -1.7797  0.1001
  502SOL    HW3 2080   0.168   2.844   1.182 -1.1013  3.1223 -0.9779
  502SOL    MW4 2081   0.234   2.886   1.221 -0.2442  0.6967  0.3086
  503SOL     OW 2082   0.226   3.146   1.108  0.0361  0.4188  0.2620
  503SOL    HW2 2083   0.302   3.193   1.142  0.0133  0.5007  0.2009
  503SOL    HW3 2084   0.221   3.066   1.160  0.2921  0.3105  0.1192
  503SOL    MW4 2085   0.235   3.142   1.119  0.0669  0.4153  0.2351
  504SOL     OW 2086   4.488   3.259   1.212  0.3859 -0.2527 -0.4558
  504SOL    HW2 2087   4.422   3.201   1.175  0.8873 -0.3942 -1.1412
  504SOL    HW3 2088   4.572   3.223   1.183  0.7618  0.0656  0.1926
  504SOL    MW4 2089   4.491   3.247   1.204  0.5021 -0.2294 -0.4606
  505SOL     OW 2090   0.010   3.516   1.093 -0.4073  0.5886 -0.3346
  505SOL    HW2 2091   0.009   3.437   1.147  1.9529  1.2336  0.7293
  505SOL    HW3 2092   0.020   3.484   1.003 -1.2294 -0.3604 -0.0949
  505SOL    MW4 2093   0.011   3.502   1.088 -0.2046  0.5486 -0.1625
  506SOL     OW 2094   0.240   3.652   1.211  0.1427  0.0563  0.9107
  506SOL    HW2 2095   0.244   3.629   1.303  1.1018 -0.8623  0.6385
  506SOL    HW3 2096   0.162   3.607   1.178 -0.8620  1.3134  1.5154
  506SOL    MW4 2097   0.230   3.643   1.219  0.1367  0.1011  0.9545
  507SOL     OW 2098   0.240   3.926   1.147 -0.0889  0.3192  0.2339
  507SOL    HW2 2099   0.153   3.957   1.174 -0.7522 -1.0986 -0.2134
  507SOL    HW3 2100   0.247   3.839   1.186  1.8164  1.0468  1.6182
  507SOL    MW4 2101   0.229   3.919   1.156  0.0749  0.2282  0.3575
  508SOL     OW 2102   4.490   4.067   1.239  0.4758 -0.1219 -0.0550
  508SOL    HW2 2103   4.495   4.048   1.332  0.3485  0.3193  0.0454
  508SOL    HW3 2104   4.404   4.033   1.212  0.2730  0.2552  0.1104
  508SOL    MW4 2105   4.479   4.060   1.248  0.4320 -0.0134 -0.0199
  509SOL     OW 2106   0.037   4.320   1.097 -0.1754 -0.2573 -0.1107
  509SOL    HW2 2107   0.117   4.367   1.119 -1.0858 -0.0146  2.8991
  509SOL    HW3 2108   0.036   4.245   1.156 -2.3716 -0.0281  0.1737
  509SOL    MW4 2109   0.047   4.316   1.108 -0.5853 -0.1955  0.3239
  510SOL     OW 2110   0.251   4.453   1.227  0.0106  0.3656 -0.5800
  510SOL    HW2 2111   0.249   4.457   1.323  0.5501  0.0627 -0.5558
  510SOL    HW3 2112   0.240   4.544   1.199 -0.5015  0.4123 -0.2345
  510SOL    MW4 2113   0.249   4.466   1.236  0.0142  0.3319 -0.5312
  511SOL     OW 2114   0.655   0.050   1.083  0.4686 -0.1112  0.2498
  511SOL    HW2 2115   0.730   0.100   1.116  0.6558  0.1385 -0.5325
  511SOL    HW3 2116   0.661  -0.034   1.127  1.7398 -0.4139 -0.4720
  511SOL    MW4 2117   0.666   0.046   1.093  0.6610 -0.1182  0.0514
  512SOL     OW 2118   0.443   0.145   1.233  0.0897  0.5509  0.1710
  512SOL    HW2 2119   0.442   0.232   1.193  0.5581  0.7504  0.5823
  512SOL    HW3 2120   0.520   0.102   1.193 -1.0903 -0.2689 -1.2689
  512SOL    MW4 2121   0.453   0.151   1.222 -0.0042  0.4690  0.0353
  513SOL     OW 2122   0.453   0.399   1.148  0.8219 -0.0487  0.0311
  513SOL    HW2 2123   0.392   0.459   1.191  1.0982  0.2534  0.0020
  513SOL    HW3 2124   0.453   0.426   1.056 -1.8146 -2.3766 -0.7215
  513SOL    MW4 2125   0.445   0.410   1.142  0.5105 -0.3160 -0.0720
  514SOL     OW 2126   0.659   0.522   1.303 -0.1181 -0.3433 -0.3347
  514SOL    HW2 2127   0.641   0.613   1.279  0.7363 -0.1417 -0.2199
  514SOL    HW3 2128   0.587   0.473   1.263 -0.1699  0.2936 -1.0526
  514SOL    MW4 2129   0.647   0.528   1.294 -0.0122 -0.2327 -0.4144
  515SOL     OW 2130   0.604   0.769   1.193 -0.3470  0.1403  0.0715
  515SOL    HW2 2131   0.528   0.826   1.202 -1.6846 -1.2759 -1.9516
  515SOL    HW3 2132   0.611   0.751   1.100  1.4537 -1.1126  0.4130
  515SOL    MW4 2133   0.595   0.774   1.182 -0.2859 -0.2118 -0.1503
  516SOL     OW 2134   0.391   0.944   1.225  0.3776  0.1124 -0.1131
  516SOL    HW2 2135   0.398   0.951   1.320 -2.0406  0.9753  0.0584
  516SOL    HW3 2136   0.405   1.034   1.193 -0.5469  0.1610 -0.4071
  516SOL    MW4 2137   0.394   0.957   1.233 -0.0634  0.2327 -0.1292
  517SOL     OW 2138   0.468   1.173   1.098  0.0183  0.4096 -0.6740
  517SOL    HW2 2139   0.529   1.239   1.129  1.1192 -0.4561 -0.9621
  517SOL    HW3 2140   0.486   1.167   1.004  0.2754 -0.6363 -0.5673
  517SOL    MW4 2141   0.478   1.181   1.089  0.1975  0.1574 -0.6979
  518SOL     OW 2142   0.672   1.329   1.195  0.1483 -0.0907 -0.0660
  518SOL    HW2 2143   0.735   1.269   1.155 -0.0434 -0.4413  0.1561
  518SOL    HW3 2144   0.681   1.410   1.145  2.6973  0.7450  1.6749
  518SOL    MW4 2145   0.682   1.332   1.183  0.4593 -0.0267  0.1930
  519SOL     OW 2146   0.703   1.574   1.082  0.0413 -0.8747  0.1120
  519SOL    HW2 2147   0.778   1.615   1.126 -0.4336  0.5386 -0.3777
  519SOL    HW3 2148   0.627   1.601   1.133 -0.3807 -0.3232 -0.8007
  519SOL    MW4 2149   0.703   1.583   1.095 -0.0769 -0.6154 -0.0730
  520SOL     OW 2150   0.482   1.688   1.219  0.4983  0.8928  0.2218
  520SOL    HW2 2151   0.468   1.709   1.312  0.7574  1.2237  0.1885
  520SOL    HW3 2152   0.407   1.634   1.195 -0.4785  2.2183  0.1883
  520SOL    MW4 2153   0.470   1.684   1.228  0.4036  1.1114  0.2130
  521SOL     OW 2154   0.484   1.940   1.099 -0.4350  0.2209  0.0905
  521SOL    HW2 2155   0.493   1.852   1.136  0.7082  0.2719 -0.0377
  521SOL    HW3 2156   0.424   1.985   1.158  0.0028 -0.2408  0.8925
  521SOL    MW4 2157   0.477   1.934   1.112 -0.2264  0.1668  0.1795
  522SOL     OW 2158   0.683   2.099   1.214 -0.2449 -0.2634  0.4150
  522SOL    HW2 2159   0.677   2.071   1.305  0.0542 -1.5505  0.0425
  522SOL    HW3 2160   0.619   2.044   1.167  0.2439 -0.2360 -0.2966
  522SOL    MW4 2161   0.674   2.088   1.219 -0.1410 -0.4294  0.2719
  523SOL     OW 2162   0.703   2.378   1.132 -0.6177  0.2630 -0.0715
  523SOL    HW2 2163   0.615   2.411   1.149 -0.8490 -0.9559  1.1846
  523SOL    HW3 2164   0.699   2.285   1.154  0.9412  0.1544 -0.1706
  523SOL    MW4 2165   0.691   2.370   1.137 -0.4425  0.0880  0.0813
  524SOL     OW 2166   0.459   2.485   1.190 -0.1941 -0.2422  0.2798
  524SOL    HW2 2167   0.453   2.477   1.285 -0.8649  0.9885  0.3384
  524SOL    HW3 2168   0.450   2.578   1.173  0.9510 -0.3422 -0.9253
  524SOL    MW4 2169   0.457   2.496   1.200 -0.1315 -0.0932  0.1286
  525SOL     OW 2170   0.457   2.748   1.118  0.1931 -0.0226 -0.3339
  525SOL    HW2 2171   0.371   2.786   1.139  0.7110  0.9418  0.1137
  525SOL    HW3 2172   0.462   2.751   1.023 -0.6281 -0.9063 -0.4165
  525SOL    MW4 2173   0.446   2.754   1.108  0.1531 -0.0119 -0.2859
  526SOL     OW 2174   0.661   2.914   1.244 -0.4176 -0.1933  0.6109
  526SOL    HW2 2175   0.652   3.005   1.215  0.2488  0.8522  3.4712
  526SOL    HW3 2176   0.590   2.868   1.200 -0.4641  1.5900 -1.2907
  526SOL    MW4 2177   0.650   2.920   1.235 -0.3359  0.1798  0.7373
  527SOL     OW 2178   0.648   3.151   1.098  0.4264  0.2351  0.1169
  527SOL    HW2 2179   0.739   3.176   1.114  0.8213 -0.9623 -0.1952
  527SOL    HW3 2180   0.647   3.121   1.008 -0.6571  1.8546 -0.4331
  527SOL    MW4 2181   0.660   3.150   1.088  0.3355  0.2906  0.0032
  528SOL     OW 2182   0.431   3.268   1.236 -0.3178  0.0524  0.3413
  528SOL    HW2 2183   0.448   3.360   1.219  0.3209  0.0612  0.9952
  528SOL    HW3 2184   0.505   3.222   1.196 -0.4090 -0.1453  0.3985
  528SOL    MW4 2185   0.443   3.274   1.229 -0.2456  0.0274  0.4351
  529SOL     OW 2186   0.454   3.509   1.115  0.1875 -0.1781 -0.4678
  529SOL    HW2 2187   0.525   3.567   1.142  0.8335 -0.5156 -1.4009
  529SOL    HW3 2188   0.375   3.549   1.150  0.9553 -0.4587  1.6604
  529SOL    MW4 2189   0.453   3.522   1.123  0.3740 -0.2594 -0.3099
  530SOL     OW 2190   0.654   3.691   1.190  0.2069  0.1244 -0.4422
  530SOL    HW2 2191   0.665   3.700   1.284 -2.4143  0.4532 -0.1134
  530SOL    HW3 2192   0.665   3.779   1.156 -2.5203  0.7052  0.0422
  530SOL    MW4 2193   0.657   3.704   1.198 -0.4988  0.2446 -0.3350
  531SOL     OW 2194   0.686   3.961   1.127  0.2662 -0.0409  0.2173
  531SOL    HW2 2195   0.610   4.005   1.165 -1.5470 -2.2496 -0.7666
  531SOL    HW3 2196   0.667   3.955   1.034  2.3209  0.6370 -0.2840
  531SOL    MW4 2197   0.674   3.966   1.120  0.2981 -0.2429  0.0213
  532SOL     OW 2198   0.462   4.063   1.239  0.4191 -0.2653 -0.4610
  532SOL    HW2 2199   0.460   4.153   1.207 -0.8982  0.3821  1.3729
  532SOL    HW3 2200   0.383   4.022   1.204 -1.2204  0.5518  2.1777
  532SOL    MW4 2201   0.452   4.069   1.230  0.0290 -0.0715  0.1291
  533SOL     OW 2202   0.445   4.312   1.095  0.5589  0.0058  0.3112
  533SOL    HW2 2203   0.528   4.358   1.109 -0.2198  2.4074 -2.4458
  533SOL    HW3 2204   0.381   4.363   1.145  0.0864  0.6230 -0.8911
  533SOL    MW4 2205   0.447   4.325   1.103  0.3938  0.4039 -0.2112
  534SOL     OW 2206   0.663   4.467   1.213  0.2734 -0.1531  0.1523
  534SOL    HW2 2207   0.650   4.458   1.307  0.0862 -2.9584 -0.0860
  534SOL    HW3 2208   0.757   4.457   1.200  0.3928  0.9986  0.1085
  534SOL    MW4 2209   0.674   4.465   1.223  0.2645 -0.3715  0.1152
  535SOL     OW 2210   1.125   0.033   1.072  0.6689 -0.1618 -0.1782
  535SOL    HW2 2211   1.146  -0.050   1.115 -0.5004 -0.2461  0.2568
  535SOL    HW3 2212   1.107   0.008   0.981  1.9624 -0.1463 -0.4494
  535SOL    MW4 2213   1.125   0.019   1.066  0.6853 -0.1709 -0.1565
  536SOL     OW 2214   0.920   0.164   1.189  0.5697 -0.6007 -0.2145
  536SOL    HW2 2215   0.910   0.137   1.280  0.2527 -0.5570 -0.2326
  536SOL    HW3 2216   0.985   0.105   1.152  0.4235 -0.8600 -0.0567
  536SOL    MW4 2217   0.927   0.153   1.196  0.5086 -0.6292 -0.1961
  537SOL     OW 2218   0.899   0.430   1.149  0.0934  0.6017  0.1347
  537SOL    HW2 2219   0.900   0.336   1.165  2.0284  0.6276  0.2783
  537SOL    HW3 2220   0.815   0.460   1.185 -1.1220 -1.2419 -1.0936
  537SOL    MW4 2221   0.888   0.422   1.156  0.1884  0.3619 -0.0085
  538SOL     OW 2222   1.125   0.590   1.242 -0.0173 -0.0192 -0.0272
  538SOL    HW2 2223   1.124   0.584   1.338  0.1772  0.2104 -0.0086
  538SOL    HW3 2224   1.052   0.535   1.214 -0.7684  0.7763  0.3126
  538SOL    MW4 2225   1.115   0.582   1.251 -0.0907  0.1161  0.0201
  539SOL     OW 2226   1.104   0.835   1.114  0.2216  0.5499  0.4899
  539SOL    HW2 2227   1.027   0.873   1.156  0.5847  0.8469  0.8990
  539SOL    HW3 2228   1.117   0.752   1.159 -1.3488 -0.6893 -1.2949
  539SOL    MW4 2229   1.096   0.829   1.126  0.0622  0.4256  0.3084
  540SOL     OW 2230   0.849   0.912   1.203  0.1809  0.3435 -0.1481
  540SOL    HW2 2231   0.837   0.997   1.160 -0.0451  0.6766  0.5662
  540SOL    HW3 2232   0.770   0.863   1.183 -0.8884  1.2802  1.6720
  540SOL    MW4 2233   0.837   0.917   1.194  0.0100  0.5111  0.1863
  541SOL     OW 2234   0.877   1.183   1.100 -0.0711  0.6099 -0.1127
  541SOL    HW2 2235   0.954   1.231   1.131 -0.3859  1.8293 -1.2166
  541SOL    HW3 2236   0.871   1.204   1.007 -2.1194  1.0323  0.1008
  541SOL    MW4 2237   0.886   1.192   1.092 -0.3828  0.8265 -0.2301
  542SOL     OW 2238   1.094   1.316   1.232  0.0276 -0.5836 -0.1653
  542SOL    HW2 2239   1.099   1.315   1.328  1.4012  0.2518 -0.2075
  542SOL    HW3 2240   1.176   1.275   1.204 -1.0062 -2.1371 -0.9933
  542SOL    MW4 2241   1.106   1.310   1.241  0.0726 -0.6782 -0.2801
  543SOL     OW 2242   1.161   1.561   1.120  0.3406 -0.7213 -0.5570
  543SOL    HW2 2243   1.136   1.482   1.169 -0.5983 -0.3736 -0.4548
  543SOL    HW3 2244   1.155   1.535   1.028 -2.5448 -0.0516 -0.6040
  543SOL    MW4 2245   1.157   1.547   1.115 -0.1639 -0.5871 -0.5497
  544SOL     OW 2246   0.922   1.701   1.198  0.4370 -0.7427  0.3787
  544SOL    HW2 2247   0.928   1.796   1.190 -0.7567 -0.5486  1.6453
  544SOL    HW3 2248   1.005   1.668   1.161  1.4161  0.8365  1.1322
  544SOL    MW4 2249   0.934   1.709   1.192  0.4086 -0.5089  0.6453
  545SOL     OW 2250   0.916   1.979   1.153 -0.1870  0.6789 -0.0471
  545SOL    HW2 2251   0.981   2.043   1.182 -1.5125  1.4756  1.2190
  545SOL    HW3 2252   0.833   2.010   1.190 -1.2663 -0.4266 -1.4762
  545SOL    MW4 2253   0.913   1.992   1.161 -0.5043  0.6382 -0.0685
  546SOL     OW 2254   1.149   2.145   1.178 -0.2013  0.0023 -0.0595
  546SOL    HW2 2255   1.157   2.163   1.271  0.1399 -0.7159  0.0580
  546SOL    HW3 2256   1.121   2.228   1.139  0.2751  0.4745  0.5960
  546SOL    MW4 2257   1.147   2.158   1.185 -0.0935 -0.0300  0.0426
  547SOL     OW 2258   1.116   2.401   1.093  0.5370 -0.3634  0.9054
  547SOL    HW2 2259   1.204   2.415   1.128  0.6182 -1.0794  0.9894
  547SOL    HW3 2260   1.059   2.447   1.155  0.9169  0.8905  0.3457
  547SOL    MW4 2261   1.120   2.409   1.106  0.5980 -0.2928  0.8427
  548SOL     OW 2262   0.911   2.538   1.237 -0.2360 -0.1990 -0.0285
  548SOL    HW2 2263   0.913   2.517   1.331 -1.0224 -0.3393 -0.0384
  548SOL    HW3 2264   0.855   2.470   1.199  0.7279 -0.6125 -0.7239
  548SOL    MW4 2265   0.904   2.526   1.244 -0.2126 -0.2720 -0.1217
  549SOL     OW 2266   0.863   2.767   1.082  0.3208  0.4251 -0.5108
  549SOL    HW2 2267   0.876   2.679   1.117  2.7164  0.7421 -0.4988
  549SOL    HW3 2268   0.805   2.810   1.145 -1.4624 -1.3429 -0.8972
  549SOL    MW4 2269   0.857   2.761   1.095  0.4016  0.2339 -0.5602
  550SOL     OW 2270   1.092   2.909   1.182 -0.2044  0.4888 -0.0840
  550SOL    HW2 2271   1.078   2.900   1.276 -0.1443 -0.8667 -0.1890
  550SOL    HW3 2272   1.023   2.854   1.143 -0.9558  1.9522 -0.8625
  550SOL    MW4 2273   1.081   2.901   1.189 -0.2955  0.5028 -0.2005
  551SOL     OW 2274   1.133   3.165   1.087  0.3311 -0.0465  0.0160
  551SOL    HW2 2275   1.137   3.074   1.114  1.4834 -0.2897 -0.9019
  551SOL    HW3 2276   1.148   3.163   0.992  2.8725  1.2534  0.3219
  551SOL    MW4 2277   1.136   3.153   1.078  0.8185  0.0930 -0.0647
  552SOL     OW 2278   0.885   3.262   1.188 -0.2471  0.0775  0.3097
  552SOL    HW2 2279   0.865   3.355   1.187  0.2077  0.1683 -1.4092
  552SOL    HW3 2280   0.971   3.255   1.147 -0.4156 -1.1256  0.1338
  552SOL    MW4 2281   0.894   3.273   1.182 -0.2094 -0.0691  0.0596
  553SOL     OW 2282   0.879   3.527   1.152 -0.5421  0.2321 -0.1565
  553SOL    HW2 2283   0.807   3.585   1.176  0.4726  1.1276  0.8173
  553SOL    HW3 2284   0.870   3.515   1.057 -0.9985  1.6879 -0.3050
  553SOL    MW4 2285   0.868   3.533   1.143 -0.4684  0.5426 -0.0477
  554SOL     OW 2286   1.094   3.683   1.238 -0.4507  0.3436  0.3483
  554SOL    HW2 2287   1.174   3.642   1.206 -1.0580  0.7954 -1.7786
  554SOL    HW3 2288   1.024   3.623   1.211 -1.2048  2.0245 -1.5054
  554SOL    MW4 2289   1.095   3.670   1.230 -0.6304  0.6251 -0.1769
  555SOL     OW 2290   1.127   3.930   1.123 -0.2053 -0.0501 -0.0224
  555SOL    HW2 2291   1.061   3.994   1.151 -0.0045  0.2557 -0.2485
  555SOL    HW3 2292   1.098   3.848   1.163  0.9090  0.6644  2.3217
  555SOL    MW4 2293   1.114   3.927   1.132 -0.0316  0.0844  0.2570
  556SOL     OW 2294   0.919   4.109   1.214  0.3880  0.3916  0.1247
  556SOL    HW2 2295   0.907   4.088   1.306  0.7137 -0.3662  0.0030
  556SOL    HW3 2296   0.843   4.071   1.170  0.5349  0.2205  0.0129
  556SOL    MW4 2297   0.908   4.101   1.220  0.4503  0.2689  0.0939
  557SOL     OW 2298   0.915   4.358   1.091 -0.6120  0.0769  0.3016
  557SOL    HW2 2299   0.922   4.270   1.127 -0.7190  0.3513  0.9950
  557SOL    HW3 2300   0.879   4.345   1.003  0.0953 -0.6242  0.1164
  557SOL    MW4 2301   0.911   4.345   1.084 -0.5328  0.0210  0.3687
  558SOL     OW 2302   1.144   4.447   1.199  0.3222 -0.2559 -0.4865
  558SOL    HW2 2303   1.138   4.439   1.295  1.6619 -1.0173 -0.4582
  558SOL    HW3 2304   1.060   4.414   1.168 -0.1355  0.0112  0.4289
  558SOL    MW4 2305   1.132   4.441   1.208  0.4386 -0.3204 -0.3620
  559SOL     OW 2306   1.538   0.001   1.135  0.3621  0.5510 -0.5146
  559SOL    HW2 2307   1.613   0.055   1.158  1.1338  0.0514 -1.8169
  559SOL    HW3 2308   1.562  -0.087   1.164 -0.6009  0.7599  0.9642
  559SOL    MW4 2309   1.551  -0.004   1.142  0.3368  0.5131 -0.4914
  560SOL     OW 2310   1.318   0.174   1.217 -0.0550 -0.1148  0.2387
  560SOL    HW2 2311   1.382   0.109   1.189 -1.2431 -0.3903 -1.8996
  560SOL    HW3 2312   1.237   0.150   1.173 -0.8510  2.0749  0.4071
  560SOL    MW4 2313   1.316   0.162   1.208 -0.3167  0.1377 -0.0212
  561SOL     OW 2314   1.331   0.423   1.120  0.0513  0.0697  0.0634
  561SOL    HW2 2315   1.331   0.333   1.152 -0.5413  0.3466  0.8616
  561SOL    HW3 2316   1.265   0.468   1.174 -1.4523  0.3962 -1.9701
  561SOL    MW4 2317   1.322   0.417   1.132 -0.2253  0.1493 -0.0997
  562SOL     OW 2318   1.581   0.548   1.234 -0.1935 -0.4597  0.2187
  562SOL    HW2 2319   1.584   0.644   1.230  0.0560 -0.4837 -0.1539
  562SOL    HW3 2320   1.501   0.525   1.186 -1.1255 -0.3514  1.7109
  562SOL    MW4 2321   1.570   0.558   1.227 -0.2837 -0.4486  0.3663
  563SOL     OW 2322   1.589   0.821   1.190  0.2248 -0.1766  0.1007
  563SOL    HW2 2323   1.665   0.873   1.214  0.6025 -0.4893 -0.3990
  563SOL    HW3 2324   1.581   0.833   1.095  1.2751 -2.2989 -0.2750
  563SOL    MW4 2325   1.598   0.830   1.180  0.4132 -0.4978 -0.0148
  564SOL     OW 2326   1.329   0.957   1.231 -0.1138  0.0189  0.1054
  564SOL    HW2 2327   1.415   0.924   1.207  0.2918  0.3851  1.0304
  564SOL    HW3 2328   1.268   0.906   1.179  0.6789 -0.0473 -0.7691
  564SOL    MW4 2329   1.332   0.946   1.221  0.0442  0.0585  0.1121
  565SOL     OW 2330   1.325   1.226   1.150 -0.2479  0.3927  0.0619
  565SOL    HW2 2331   1.323   1.135   1.178 -1.4283  0.5671  0.5678
  565SOL    HW3 2332   1.325   1.222   1.054 -0.7239 -0.1343  0.0809
  565SOL    MW4 2333   1.325   1.214   1.141 -0.4666  0.3463  0.1311
  566SOL     OW 2334   1.571   1.346   1.235 -0.2798  0.1906 -0.1289
  566SOL    HW2 2335   1.646   1.298   1.201  0.3307  1.8722 -1.1771
  566SOL    HW3 2336   1.495   1.305   1.193  0.2154  0.0130 -0.8604
  566SOL    MW4 2337   1.571   1.334   1.225 -0.1339  0.3890 -0.3637
  567SOL     OW 2338   1.598   1.600   1.123  0.0597 -0.0534 -0.0205
  567SOL    HW2 2339   1.676   1.645   1.156 -0.2309  0.0061  0.6036
  567SOL    HW3 2340   1.603   1.512   1.160  1.0694 -0.8140 -1.9417
  567SOL    MW4 2341   1.609   1.594   1.133  0.1547 -0.1459 -0.1917
  568SOL     OW 2342   1.367   1.703   1.235  0.6571  0.4391  0.2600
  568SOL    HW2 2343   1.447   1.666   1.198  0.3089  0.9144 -0.9802
  568SOL    HW3 2344   1.296   1.657   1.190  0.2131 -0.1348  1.5036
  568SOL    MW4 2345   1.368   1.692   1.224  0.5528  0.4262  0.2604
  569SOL     OW 2346   1.354   1.949   1.131  0.3623 -0.5087  0.8827
  569SOL    HW2 2347   1.346   1.871   1.185 -0.0639 -0.4084  0.9615
  569SOL    HW3 2348   1.275   2.000   1.150 -0.1347 -0.8010 -0.3686
  569SOL    MW4 2349   1.343   1.946   1.141  0.2404 -0.5341  0.7281
  570SOL     OW 2350   1.580   2.083   1.164  0.2291 -0.2941  0.6812
  570SOL    HW2 2351   1.564   2.176   1.149  1.8398 -0.0863  0.2028
  570SOL    HW3 2352   1.494   2.043   1.154 -0.5119  1.1511  1.0260
  570SOL    MW4 2353   1.567   2.090   1.161  0.3438 -0.0761  0.6636
  571SOL     OW 2354   1.591   2.366   1.119  0.3915 -0.2410 -0.5479
  571SOL    HW2 2355   1.510   2.407   1.151  1.2042  1.4942 -0.6181
  571SOL    HW3 2356   1.574   2.347   1.027 -0.2694 -0.7904 -0.3188
  571SOL    MW4 2357   1.578   2.369   1.111  0.4115 -0.0846 -0.5269
  572SOL     OW 2358   1.364   2.451   1.213 -0.1760  0.1603  0.1415
  572SOL    HW2 2359   1.357   2.448   1.309 -1.7993  0.5007  0.0540
  572SOL    HW3 2360   1.354   2.544   1.192 -1.9350 -0.1407 -0.4711
  572SOL    MW4 2361   1.361   2.463   1.223 -0.6223  0.1657  0.0492
  573SOL     OW 2362   1.326   2.734   1.118  0.0130 -0.6421  0.3105
  573SOL    HW2 2363   1.404   2.783   1.145  0.7645 -2.2602  1.1770
  573SOL    HW3 2364   1.253   2.778   1.162  0.5179  0.4814  0.0341
  573SOL    MW4 2365   1.327   2.746   1.128  0.1788 -0.7076  0.3884
  574SOL     OW 2366   1.555   2.857   1.194  0.3326  0.3348  0.1963
  574SOL    HW2 2367   1.641   2.821   1.175 -0.4424 -1.0218 -0.8887
  574SOL    HW3 2368   1.562   2.950   1.176  1.5012  0.1861 -0.1367
  574SOL    MW4 2369   1.567   2.864   1.189  0.3847  0.1364  0.0094
  575SOL     OW 2370   1.588   3.128   1.135  0.3200  0.0492  0.4569
  575SOL    HW2 2371   1.668   3.169   1.166 -0.0366  0.3054  1.0552
  575SOL    HW3 2372   1.518   3.183   1.170 -0.1248 -0.4021  0.2819
  575SOL    MW4 2373   1.589   3.141   1.144  0.2143  0.0236  0.5127
  576SOL     OW 2374   1.365   3.267   1.197 -0.2428  0.1578 -0.2823
  576SOL    HW2 2375   1.344   3.248   1.289 -2.7833  1.1420 -0.6210
  576SOL    HW3 2376   1.283   3.253   1.150  1.3067 -1.4523 -2.6125
  576SOL    MW4 2377   1.352   3.263   1.203 -0.3735  0.0751 -0.6344
  577SOL     OW 2378   1.327   3.534   1.166 -0.3352 -0.0238  0.1239
  577SOL    HW2 2379   1.346   3.444   1.193  1.4317 -0.0542 -1.1397
  577SOL    HW3 2380   1.324   3.530   1.070  2.0881  1.6614 -0.0685
  577SOL    MW4 2381   1.329   3.521   1.157  0.2176  0.1943 -0.0682
  578SOL     OW 2382   1.604   3.632   1.192  0.5183  0.2743  0.4118
  578SOL    HW2 2383   1.598   3.721   1.158 -0.5425  0.6786  1.6152
  578SOL    HW3 2384   1.519   3.592   1.172  0.9139 -0.3976  0.0558
  578SOL    MW4 2385   1.592   3.638   1.185  0.4306  0.2389  0.5234
  579SOL     OW 2386   1.588   3.904   1.125  0.0587  0.2959  0.6675
  579SOL    HW2 2387   1.512   3.943   1.168 -1.7038 -2.1791 -0.1263
  579SOL    HW3 2388   1.573   3.917   1.032  0.2925 -0.7829  0.4778
  579SOL    MW4 2389   1.576   3.911   1.119 -0.1429 -0.1731  0.5376
  580SOL     OW 2390   1.361   4.036   1.218 -0.2762 -0.2643 -0.0105
  580SOL    HW2 2391   1.340   4.121   1.178 -0.4847 -0.9477 -1.3769
  580SOL    HW3 2392   1.296   3.976   1.182  0.5258 -1.2236  0.1127
  580SOL    MW4 2393   1.350   4.040   1.208 -0.1979 -0.4811 -0.1746
  581SOL     OW 2394   1.342   4.284   1.098 -0.0717  0.3612 -0.0218
  581SOL    HW2 2395   1.273   4.340   1.133  0.6198  1.6083 -0.6169
  581SOL    HW3 2396   1.322   4.276   1.005  0.8656  1.1663 -0.3038
  581SOL    MW4 2397   1.330   4.291   1.091  0.1432  0.6323 -0.1376
  582SOL     OW 2398   1.568   4.391   1.195 -0.0506  0.0997  0.0496
  582SOL    HW2 2399   1.560   4.402   1.289 -0.2626  0.7915 -0.0462
  582SOL    HW3 2400   1.484   4.354   1.168  0.3584 -1.0037  0.2569
  582SOL    MW4 2401   1.556   4.387   1.204 -0.0247  0.0448  0.0643
  583SOL     OW 2402   2.010   4.657   1.091  0.0614 -0.2870 -0.1263
  583SOL    HW2 2403   2.007   4.567   1.124  1.3046 -0.8752 -1.5817
  583SOL    HW3 2404   2.019   4.647   0.996 -0.0447  1.3773 -0.3169
  583SOL    MW4 2405   2.011   4.644   1.082  0.2115 -0.1451 -0.3434
  584SOL     OW 2406   1.777   0.118   1.195  1.1250  0.3821  0.3030
  584SOL    HW2 2407   1.792   0.206   1.162  1.1700  0.4736  0.5638
  584SOL    HW3 2408   1.858   0.071   1.174  1.2976  0.5390  0.5995
  584SOL    MW4 2409   1.790   0.123   1.188  1.1538  0.4149  0.3766
  585SOL     OW 2410   1.799   0.388   1.154  0.3718  0.5408  0.0791
  585SOL    HW2 2411   1.738   0.451   1.191  0.4628  0.2061  0.7950
  585SOL    HW3 2412   1.797   0.406   1.059  0.5692  1.7624  0.2978
  585SOL    MW4 2413   1.791   0.399   1.146  0.4098  0.6578  0.2025
  586SOL     OW 2414   2.027   0.530   1.219 -0.4498 -0.0350  0.0493
  586SOL    HW2 2415   2.023   0.547   1.313 -0.0031 -0.1506  0.0888
  586SOL    HW3 2416   1.957   0.466   1.204  2.0321 -3.0992  0.9775
  586SOL    MW4 2417   2.017   0.524   1.230 -0.0634 -0.4545  0.1771
  587SOL     OW 2418   2.044   0.808   1.101  0.1515 -0.4901 -0.4320
  587SOL    HW2 2419   2.026   0.724   1.143 -0.4707  0.1807  0.6478
  587SOL    HW3 2420   2.019   0.795   1.009  1.2661 -1.8755 -0.5519
  587SOL    MW4 2421   2.038   0.795   1.094  0.2165 -0.5844 -0.3053
  588SOL     OW 2422   1.848   0.969   1.194 -0.2567 -0.3159  0.4668
  588SOL    HW2 2423   1.850   0.944   1.287  1.8277  0.0828  0.5544
  588SOL    HW3 2424   1.908   0.907   1.152  0.5643  0.9645 -0.2519
  588SOL    MW4 2425   1.856   0.957   1.201  0.1266 -0.0944  0.3835
  589SOL     OW 2426   1.783   1.219   1.115  0.1332  0.4731 -0.0729
  589SOL    HW2 2427   1.805   1.133   1.151 -0.5837 -0.2564 -1.3554
  589SOL    HW3 2428   1.774   1.205   1.021 -0.7919  1.7862 -0.1971
  589SOL    MW4 2429   1.785   1.206   1.108 -0.0834  0.5502 -0.2583
  590SOL     OW 2430   2.019   1.336   1.192  0.5970 -0.6081 -0.0514
  590SOL    HW2 2431   2.088   1.276   1.164  1.8717  0.5238  0.6192
  590SOL    HW3 2432   1.940   1.305   1.147  1.5358 -1.9088 -0.8225
  590SOL    MW4 2433   2.017   1.324   1.183  0.8891 -0.6304 -0.0648
  591SOL     OW 2434   2.034   1.592   1.071 -0.1516  0.0348 -0.3691
  591SOL    HW2 2435   2.027   1.502   1.103  1.5403 -0.4076 -1.1431
  591SOL    HW3 2436   2.022   1.584   0.976  0.3680  0.5679 -0.4828
  591SOL    MW4 2437   2.031   1.579   1.062  0.1402  0.0467 -0.4861
  592SOL     OW 2438   1.812   1.732   1.229  0.3237  0.1934 -0.4259
  592SOL    HW2 2439   1.789   1.814   1.186 -1.6281 -0.3143 -0.3973
  592SOL    HW3 2440   1.893   1.704   1.187  0.7232  1.8573 -0.7968
  592SOL    MW4 2441   1.820   1.739   1.218  0.1189  0.3459 -0.4709
  593SOL     OW 2442   1.829   1.980   1.104 -0.1669  0.7562  0.4964
  593SOL    HW2 2443   1.739   2.004   1.126  0.1900  3.4233 -0.8123
  593SOL    HW3 2444   1.830   1.976   1.008  0.9958  0.3072  0.5218
  593SOL    MW4 2445   1.818   1.983   1.094  0.0336  1.0488  0.3271
  594SOL     OW 2446   2.057   2.075   1.245 -0.0097 -0.0026  0.0852
  594SOL    HW2 2447   2.028   2.055   1.333  1.1707 -1.0606  0.2558
  594SOL    HW3 2448   1.983   2.051   1.189 -0.6537  0.4085  0.7616
  594SOL    MW4 2449   2.043   2.069   1.249  0.0613 -0.0880  0.1971
  595SOL     OW 2450   2.037   2.340   1.127  0.2712  0.2414  0.8985
  595SOL    HW2 2451   2.123   2.375   1.151  0.7960 -0.4236  0.0300
  595SOL    HW3 2452   2.035   2.252   1.165  0.1824  0.0653  0.4904
  595SOL    MW4 2453   2.048   2.333   1.135  0.3285  0.1304  0.7303
  596SOL     OW 2454   1.825   2.496   1.197  0.7590 -0.5613  0.4791
  596SOL    HW2 2455   1.903   2.448   1.170  0.0253 -1.7557  0.4196
  596SOL    HW3 2456   1.753   2.435   1.179 -0.5409  1.8656 -2.8529
  596SOL    MW4 2457   1.826   2.481   1.191  0.4907 -0.3989  0.0316
  597SOL     OW 2458   1.800   2.768   1.138  0.5485  0.0785  0.3568
  597SOL    HW2 2459   1.801   2.676   1.166 -1.5585 -0.3938 -1.0423
  597SOL    HW3 2460   1.803   2.764   1.042  0.0296  1.4657  0.2733
  597SOL    MW4 2461   1.801   2.755   1.129  0.2021  0.1993  0.1613
  598SOL     OW 2462   2.018   2.890   1.283  0.5670  0.2831  0.4438
  598SOL    HW2 2463   2.014   2.982   1.255  0.4481 -0.0796 -0.7490
  598SOL    HW3 2464   1.943   2.848   1.242  1.0430 -0.5176  0.3778
  598SOL    MW4 2465   2.008   2.897   1.274  0.6144  0.1295  0.2776
  599SOL     OW 2466   2.033   3.135   1.141  0.1136  0.4413 -0.0912
  599SOL    HW2 2467   1.952   3.180   1.167 -0.0918 -0.2802  0.5335
  599SOL    HW3 2468   2.037   3.147   1.046 -0.5920  0.7054 -0.0953
  599SOL    MW4 2469   2.023   3.143   1.132 -0.0062  0.3810 -0.0093
  600SOL     OW 2470   1.816   3.267   1.217  0.2018 -0.3679 -0.1907
  600SOL    HW2 2471   1.805   3.272   1.312  0.7021 -0.7165 -0.1106
  600SOL    HW3 2472   1.820   3.358   1.188 -1.1652 -0.2535 -0.0247
  600SOL    MW4 2473   1.815   3.279   1.225  0.0874 -0.3989 -0.1581
  601SOL     OW 2474   1.844   3.518   1.117 -0.2447  0.6491 -0.0980
  601SOL    HW2 2475   1.913   3.570   1.158 -0.4465  1.4496 -0.7799
  601SOL    HW3 2476   1.763   3.553   1.153 -0.3540  0.4837 -0.1837
  601SOL    MW4 2477   1.842   3.529   1.127 -0.2857  0.7329 -0.1992
  602SOL     OW 2478   2.048   3.680   1.209  0.2764  0.8762  0.3937
  602SOL    HW2 2479   2.040   3.676   1.304  1.4200  1.5923  0.5240
  602SOL    HW3 2480   2.120   3.622   1.188 -0.6685 -0.1198 -0.1443
  602SOL    MW4 2481   2.056   3.672   1.219  0.3026  0.8395  0.3399
  603SOL     OW 2482   2.062   3.905   1.064 -0.3425  0.1431 -0.1534
  603SOL    HW2 2483   1.981   3.940   1.102  0.6483  0.9084  1.3101
  603SOL    HW3 2484   2.072   3.819   1.106  0.0752  0.4339  0.3394
  603SOL    MW4 2485   2.052   3.898   1.075 -0.1569  0.2825  0.1048
  604SOL     OW 2486   1.843   4.036   1.188  0.0070  0.4773 -0.2930
  604SOL    HW2 2487   1.836   4.059   1.281 -0.4656 -0.7195 -0.0210
  604SOL    HW3 2488   1.757   4.001   1.166  0.9261 -1.6734 -0.5024
  604SOL    MW4 2489   1.831   4.035   1.197  0.0658  0.0358 -0.2847
  605SOL     OW 2490   1.786   4.277   1.047  0.6475 -0.1655 -0.0510
  605SOL    HW2 2491   1.809   4.191   1.082  1.1732  0.8748  2.2471
  605SOL    HW3 2492   1.713   4.306   1.103  0.0516  0.6131 -1.2219
  605SOL    MW4 2493   1.779   4.269   1.059  0.6382  0.0744  0.0976
  606SOL     OW 2494   2.017   4.405   1.158 -0.3016 -0.2417 -0.0349
  606SOL    HW2 2495   1.999   4.411   1.252 -2.6001  3.0767 -0.5978
  606SOL    HW3 2496   1.934   4.377   1.119  0.2227 -0.1473 -1.2446
  606SOL    MW4 2497   2.004   4.402   1.165 -0.5360  0.2089 -0.2687
  607SOL     OW 2498   2.433   0.041   1.050  0.0642  0.4744 -0.1639
  607SOL    HW2 2499   2.511   0.082   1.088 -0.3717 -0.6849  2.0221
  607SOL    HW3 2500   2.364   0.056   1.114 -0.5961 -1.8231 -0.2923
  607SOL    MW4 2501   2.434   0.048   1.063 -0.0803  0.0183  0.1075
  608SOL     OW 2502   2.219   0.100   1.228 -0.2437  0.4090  0.2304
  608SOL    HW2 2503   2.225   0.195   1.225  1.3713  0.3096 -0.7190
  608SOL    HW3 2504   2.137   0.079   1.183  0.7901  1.2367 -2.0905
  608SOL    MW4 2505   2.209   0.110   1.222  0.1059  0.5051 -0.2010
  609SOL     OW 2506   2.251   0.366   1.177 -0.5147 -0.0522  0.1741
  609SOL    HW2 2507   2.192   0.436   1.203  1.1688  0.7726  1.8499
  609SOL    HW3 2508   2.254   0.372   1.081 -1.4616  1.2572  0.2098
  609SOL    MW4 2509   2.243   0.376   1.168 -0.4175  0.2294  0.3999
  610SOL     OW 2510   2.478   0.522   1.217 -0.3044  0.1316 -0.3509
  610SOL    HW2 2511   2.494   0.529   1.311  0.3738 -0.2222 -0.4352
  610SOL    HW3 2512   2.427   0.441   1.208  1.0545 -0.7272 -0.4476
  610SOL    MW4 2513   2.473   0.512   1.228 -0.0355 -0.0284 -0.3748
  611SOL     OW 2514   2.484   0.756   1.091  0.4012 -0.3054  0.0701
  611SOL    HW2 2515   2.467   0.673   1.135 -1.1687 -0.3531 -0.6142
  611SOL    HW3 2516   2.483   0.735   0.998  0.7789  0.3473 -0.0847
  611SOL    MW4 2517   2.482   0.743   1.085  0.2437 -0.2257 -0.0407
  612SOL     OW 2518   2.269   0.915   1.196  0.2850  0.1664  0.4426
  612SOL    HW2 2519   2.349   0.869   1.169 -0.0245 -0.7876  1.1259
  612SOL    HW3 2520   2.198   0.863   1.160 -0.1047 -0.5229  2.1666
  612SOL    MW4 2521   2.271   0.902   1.188  0.1924 -0.0504  0.7602
  613SOL     OW 2522   2.226   1.170   1.111  0.3263  0.1429 -0.1806
  613SOL    HW2 2523   2.310   1.210   1.134  0.4151  0.0244 -0.3005
  613SOL    HW3 2524   2.232   1.080   1.143 -0.1317  0.4148  0.6885
  613SOL    MW4 2525   2.238   1.164   1.118  0.2778  0.1632 -0.0818
  614SOL     OW 2526   2.481   1.254   1.179  0.2771 -0.8027  0.1236
  614SOL    HW2 2527   2.567   1.216   1.158  1.2794  0.6119  1.5650
  614SOL    HW3 2528   2.491   1.347   1.160 -1.1178 -0.7034 -0.1735
  614SOL    MW4 2529   2.494   1.261   1.174  0.2255 -0.6030  0.2745
  615SOL     OW 2530   2.472   1.537   1.117 -0.2738  0.1104 -0.0228
  615SOL    HW2 2531   2.396   1.575   1.162 -0.7055  0.2499 -0.8496
  615SOL    HW3 2532   2.453   1.551   1.024 -0.3371 -1.9479 -0.3403
  615SOL    MW4 2533   2.459   1.544   1.111 -0.3393 -0.1426 -0.1739
  616SOL     OW 2534   2.242   1.702   1.233 -0.2696 -0.4746 -0.4265
  616SOL    HW2 2535   2.255   1.788   1.194 -0.3696 -0.1377  0.2846
  616SOL    HW3 2536   2.179   1.659   1.175 -0.3135 -0.0260 -0.7139
  616SOL    MW4 2537   2.235   1.708   1.220 -0.2887 -0.3711 -0.3706
  617SOL     OW 2538   2.275   1.941   1.087  0.3169 -0.3688 -0.0872
  617SOL    HW2 2539   2.197   1.991   1.111  1.2054  0.6761  0.7176
  617SOL    HW3 2540   2.257   1.907   1.000 -1.6001 -1.3143  0.6618
  617SOL    MW4 2541   2.262   1.943   1.079  0.1810 -0.3557  0.1178
  618SOL     OW 2542   2.485   2.062   1.207  0.4559 -0.3806 -0.1219
  618SOL    HW2 2543   2.563   2.020   1.172  1.0292 -0.2465  0.9689
  618SOL    HW3 2544   2.412   2.024   1.158  1.1026 -1.4943 -0.2138
  618SOL    MW4 2545   2.485   2.052   1.196  0.6166 -0.5097  0.0099
  619SOL     OW 2546   2.518   2.330   1.149  0.2030 -0.3745 -0.1737
  619SOL    HW2 2547   2.510   2.236   1.164  1.5764 -0.4722  0.0818
  619SOL    HW3 2548   2.500   2.341   1.056 -2.1482 -0.5896  0.2392
  619SOL    MW4 2549   2.515   2.319   1.139  0.0739 -0.4158 -0.0854
  620SOL     OW 2550   2.270   2.472   1.209 -0.2736  0.2084 -0.0837
  620SOL    HW2 2551   2.261   2.465   1.304 -1.0135 -0.2126 -0.1817
  620SOL    HW3 2552   2.341   2.411   1.188 -1.4064 -1.1812 -0.0080
  620SOL    MW4 2553   2.278   2.463   1.219 -0.5207 -0.0308 -0.0867
  621SOL     OW 2554   2.202   2.761   1.117  0.2128 -0.2302  0.1548
  621SOL    HW2 2555   2.207   2.670   1.147 -2.4585 -0.7392 -0.8359
  621SOL    HW3 2556   2.136   2.801   1.173  0.1793  0.6722 -0.5250
  621SOL    MW4 2557   2.194   2.754   1.128 -0.1442 -0.1783 -0.0656
  622SOL     OW 2558   2.466   2.873   1.225 -0.2183  0.0240  0.2043
  622SOL    HW2 2559   2.447   2.878   1.319  0.4386  0.1946  0.3338
  622SOL    HW3 2560   2.390   2.830   1.187 -0.1646 -0.7212  0.9232
  622SOL    MW4 2561   2.454   2.868   1.233 -0.1245 -0.0517  0.3163
  623SOL     OW 2562   2.469   3.134   1.104  0.0573 -0.2380 -0.1833
  623SOL    HW2 2563   2.401   3.185   1.147 -0.4195 -0.6461 -0.4422
  623SOL    HW3 2564   2.452   3.043   1.130  0.5469 -0.3369 -0.1916
  623SOL    MW4 2565   2.458   3.129   1.113  0.0589 -0.3049 -0.2186
  624SOL     OW 2566   2.263   3.247   1.247 -0.0437 -0.1525  0.4991
  624SOL    HW2 2567   2.257   3.332   1.203  0.3990 -0.1735  0.3939
  624SOL    HW3 2568   2.188   3.198   1.215 -0.5879  0.3807  0.9460
  624SOL    MW4 2569   2.252   3.252   1.237 -0.0570 -0.0849  0.5443
  625SOL     OW 2570   2.242   3.510   1.106 -0.3900  0.2381 -0.2826
  625SOL    HW2 2571   2.323   3.550   1.136 -0.6575  0.7045 -0.1763
  625SOL    HW3 2572   2.241   3.526   1.012 -0.0666 -0.2976 -0.3792
  625SOL    MW4 2573   2.252   3.517   1.098 -0.3827  0.2289 -0.2812
  626SOL     OW 2574   2.461   3.634   1.225  0.3029  0.2342 -0.4859
  626SOL    HW2 2575   2.464   3.626   1.320 -0.1757 -0.2989 -0.5175
  626SOL    HW3 2576   2.463   3.729   1.209  0.0841  0.3314  0.0579
  626SOL    MW4 2577   2.462   3.646   1.235  0.2108  0.1767 -0.4183
  627SOL     OW 2578   2.459   3.897   1.144 -0.1363  0.0079 -0.0509
  627SOL    HW2 2579   2.381   3.940   1.179  0.0002  0.5063 -0.3570
  627SOL    HW3 2580   2.451   3.907   1.049  1.0742  1.4327 -0.0249
  627SOL    MW4 2581   2.448   3.904   1.136  0.0415  0.2613 -0.0877
  628SOL     OW 2582   2.240   4.046   1.220 -0.0963  0.3364  0.0936
  628SOL    HW2 2583   2.266   4.125   1.173  1.2410 -0.2189 -0.1264
  628SOL    HW3 2584   2.172   4.006   1.166 -0.2124  0.9134 -0.1862
  628SOL    MW4 2585   2.234   4.051   1.207  0.0648  0.3390  0.0278
  629SOL     OW 2586   2.274   4.306   1.095 -0.0423 -0.4035  0.4236
  629SOL    HW2 2587   2.188   4.338   1.121  0.3358  0.3347  0.7847
  629SOL    HW3 2588   2.271   4.302   1.000  0.0140  1.0282  0.3536
  629SOL    MW4 2589   2.263   4.310   1.086  0.0150 -0.1173  0.4619
  630SOL     OW 2590   2.488   4.469   1.185 -0.1770 -0.6106  0.1968
  630SOL    HW2 2591   2.410   4.415   1.170 -0.5713  0.4056 -1.5760
  630SOL    HW3 2592   2.466   4.554   1.147  1.8889 -0.3792 -0.5651
  630SOL    MW4 2593   2.475   4.473   1.178  0.0436 -0.4458 -0.1376
  631SOL     OW 2594   2.892   0.036   1.084 -0.5931  0.2085  0.3861
  631SOL    HW2 2595   2.900  -0.056   1.110 -0.4007 -0.2598 -1.3199
  631SOL    HW3 2596   2.904   0.036   0.989 -0.1053  2.0572  0.4263
  631SOL    MW4 2597   2.894   0.024   1.075 -0.5035  0.3907  0.1664
  632SOL     OW 2598   2.655   0.147   1.174 -0.2910 -0.0479  0.6153
  632SOL    HW2 2599   2.671   0.134   1.268 -2.9183  0.0174  1.1037
  632SOL    HW3 2600   2.733   0.111   1.132  0.3000 -1.4061  2.7474
  632SOL    MW4 2601   2.667   0.141   1.181 -0.5596 -0.2185  0.9611
  633SOL     OW 2602   2.739   0.420   1.089  0.2886 -0.2096  0.2165
  633SOL    HW2 2603   2.705   0.333   1.110 -1.5860  0.6368  0.7259
  633SOL    HW3 2604   2.677   0.481   1.129  0.7997  1.3809 -1.3608
  633SOL    MW4 2605   2.727   0.416   1.097  0.1087  0.1119  0.0755
  634SOL     OW 2606   2.964   0.504   1.233  0.2367 -0.5573  0.4270
  634SOL    HW2 2607   2.959   0.597   1.207 -0.3258 -0.2230  1.6815
  634SOL    HW3 2608   2.888   0.464   1.191 -0.1825 -0.2006  0.8389
  634SOL    MW4 2609   2.953   0.511   1.224  0.1073 -0.4660  0.6469
  635SOL     OW 2610   2.945   0.753   1.127 -0.0938 -0.1310 -0.2813
  635SOL    HW2 2611   3.018   0.815   1.133 -0.0816 -0.2394  0.8392
  635SOL    HW3 2612   2.869   0.805   1.153 -0.3840 -0.0861 -1.2022
  635SOL    MW4 2613   2.945   0.768   1.131 -0.1304 -0.1394 -0.2550
  636SOL     OW 2614   2.727   0.880   1.205  0.1593  0.3807 -0.2927
  636SOL    HW2 2615   2.735   0.973   1.181 -1.2927  0.4601 -0.5207
  636SOL    HW3 2616   2.644   0.852   1.165  0.0267 -0.7168  0.7228
  636SOL    MW4 2617   2.717   0.889   1.196 -0.0498  0.2464 -0.1888
  637SOL     OW 2618   2.736   1.147   1.141 -0.2931  0.4406  0.2617
  637SOL    HW2 2619   2.813   1.202   1.157  1.6228 -1.6044 -1.5731
  637SOL    HW3 2620   2.731   1.141   1.045 -2.7388  0.5030  0.3578
  637SOL    MW4 2621   2.745   1.153   1.130 -0.3629  0.1791  0.0323
  638SOL     OW 2622   2.950   1.306   1.243 -0.0422 -0.1155  0.5346
  638SOL    HW2 2623   2.941   1.321   1.337 -1.0649  1.1161  0.2619
  638SOL    HW3 2624   2.933   1.392   1.204  1.3832 -0.3819 -0.7229
  638SOL    MW4 2625   2.947   1.319   1.250  0.0107  0.0118  0.3328
  639SOL     OW 2626   2.926   1.565   1.123  0.9358  0.2448  0.2739
  639SOL    HW2 2627   3.005   1.602   1.162  0.0495  0.1692  2.1650
  639SOL    HW3 2628   2.944   1.565   1.029  2.5461  1.7274  0.5561
  639SOL    MW4 2629   2.939   1.570   1.116  1.0312  0.4303  0.5605
  640SOL     OW 2630   2.722   1.717   1.190  0.2814  0.3799  0.3910
  640SOL    HW2 2631   2.795   1.661   1.165 -0.0349  0.0686  0.1736
  640SOL    HW3 2632   2.646   1.659   1.195 -0.0319  0.7684  0.2450
  640SOL    MW4 2633   2.721   1.702   1.188  0.1981  0.3899  0.3430
  641SOL     OW 2634   2.730   1.979   1.080 -0.1602  0.3186 -0.4903
  641SOL    HW2 2635   2.797   2.024   1.131  0.2564  0.7293 -1.3935
  641SOL    HW3 2636   2.739   1.887   1.105  0.7868  0.3627 -0.6524
  641SOL    MW4 2637   2.740   1.973   1.090  0.0196  0.3785 -0.6309
  642SOL     OW 2638   2.939   2.103   1.229  0.8883 -0.0117  0.0367
  642SOL    HW2 2639   2.932   2.100   1.325 -0.3714  0.1772 -0.0460
  642SOL    HW3 2640   2.938   2.196   1.208  0.8425 -0.0649 -0.1905
  642SOL    MW4 2641   2.938   2.115   1.239  0.7160  0.0060 -0.0043
  643SOL     OW 2642   2.926   2.360   1.121 -0.7043  0.1536 -0.3627
  643SOL    HW2 2643   2.997   2.412   1.159 -1.0406  0.3328  0.0292
  643SOL    HW3 2644   2.846   2.404   1.151 -0.9865 -0.4180 -0.2771
  643SOL    MW4 2645   2.924   2.373   1.130 -0.7858  0.1018 -0.2997
  644SOL     OW 2646   2.713   2.502   1.233  0.5731 -0.1519 -0.0443
  644SOL    HW2 2647   2.700   2.519   1.327 -0.6192  0.8932 -0.3771
  644SOL    HW3 2648   2.636   2.450   1.208  0.6790 -0.0770 -0.5202
  644SOL    MW4 2649   2.701   2.497   1.242  0.4299 -0.0041 -0.1509
  645SOL     OW 2650   2.718   2.766   1.139 -0.9584  0.2928 -0.1717
  645SOL    HW2 2651   2.721   2.678   1.176  0.0637  0.1590 -0.5540
  645SOL    HW3 2652   2.635   2.802   1.171 -0.7582 -0.3154  1.0721
  645SOL    MW4 2653   2.707   2.759   1.148 -0.7970  0.1950 -0.0579
  646SOL     OW 2654   2.964   2.825   1.273 -0.3993 -0.2979 -0.3593
  646SOL    HW2 2655   2.943   2.844   1.364  0.4748  0.0888 -0.2360
  646SOL    HW3 2656   2.878   2.811   1.231 -0.7902 -0.6997  0.5607
  646SOL    MW4 2657   2.950   2.826   1.279 -0.3355 -0.2999 -0.2215
  647SOL     OW 2658   2.935   3.109   1.187  0.1751  0.4462 -0.3090
  647SOL    HW2 2659   2.976   3.025   1.209 -1.2137 -0.0178  0.5650
  647SOL    HW3 2660   2.918   3.102   1.093 -2.4789 -1.4325  0.2414
  647SOL    MW4 2661   2.938   3.097   1.177 -0.3581  0.1371 -0.1211
  648SOL     OW 2662   2.693   3.258   1.234 -0.2143  0.0101 -0.4925
  648SOL    HW2 2663   2.764   3.200   1.207  0.7143  0.3959  1.1140
  648SOL    HW3 2664   2.615   3.222   1.191  0.6559 -1.3984 -0.8965
  648SOL    MW4 2665   2.692   3.246   1.225  0.0229 -0.1247 -0.3339
  649SOL     OW 2666   2.695   3.505   1.118 -0.1361  0.3057 -0.1076
  649SOL    HW2 2667   2.697   3.413   1.145  1.4103  0.3019 -0.1526
  649SOL    HW3 2668   2.611   3.538   1.150  0.5072 -0.3869  2.3920
  649SOL    MW4 2669   2.684   3.497   1.126  0.1528  0.2136  0.2161
  650SOL     OW 2670   2.910   3.653   1.234 -0.0841 -0.5840  0.3186
  650SOL    HW2 2671   2.995   3.618   1.206 -0.1470  0.5826 -1.3856
  650SOL    HW3 2672   2.846   3.597   1.191 -0.1820  0.2658 -0.6375
  650SOL    MW4 2673   2.913   3.641   1.225 -0.1051 -0.3178 -0.0324
  651SOL     OW 2674   2.905   3.894   1.118 -0.4429  0.3152 -0.1093
  651SOL    HW2 2675   2.996   3.919   1.136  0.2260 -1.2655 -1.1644
  651SOL    HW3 2676   2.897   3.806   1.153 -1.0556 -0.2149 -1.5600
  651SOL    MW4 2677   2.916   3.886   1.125 -0.4356  0.0365 -0.4400
  652SOL     OW 2678   2.689   4.049   1.227  0.2655  0.2401  0.3426
  652SOL    HW2 2679   2.762   4.000   1.189 -0.6772 -0.6232 -0.3657
  652SOL    HW3 2680   2.611   4.011   1.187 -0.5221  1.7909  0.4004
  652SOL    MW4 2681   2.689   4.037   1.217  0.0372  0.3309  0.2568
  653SOL     OW 2682   2.690   4.314   1.091 -0.5920  0.3235  0.1348
  653SOL    HW2 2683   2.686   4.227   1.130 -3.1535  0.7333  0.8621
  653SOL    HW3 2684   2.615   4.360   1.127 -1.1745  1.7746 -2.7991
  653SOL    MW4 2685   2.680   4.309   1.100 -1.0071  0.5684 -0.1562
  654SOL     OW 2686   2.919   4.429   1.186  0.1487 -0.0059  0.0750
  654SOL    HW2 2687   2.985   4.367   1.157 -0.0352 -0.5205  0.7248
  654SOL    HW3 2688   2.835   4.386   1.165 -0.0150 -1.2033  2.9338
  654SOL    MW4 2689   2.916   4.415   1.180  0.1028 -0.2317  0.5378
  655SOL     OW 2690   3.351   0.024   1.051  0.0346  0.4293  0.2381
  655SOL    HW2 2691   3.440   0.034   1.086  0.2847  0.1759 -0.3241
  655SOL    HW3 2692   3.296   0.073   1.112  0.6033  0.8830  0.3919
  655SOL    MW4 2693   3.356   0.032   1.064  0.1428  0.4559  0.1841
  656SOL     OW 2694   3.136   0.131   1.222  0.0483  0.1811  0.0535
  656SOL    HW2 2695   3.140   0.127   1.318 -1.6083 -0.1622  0.1125
  656SOL    HW3 2696   3.044   0.118   1.201 -0.0180  2.9096 -1.4942
  656SOL    MW4 2697   3.125   0.128   1.232 -0.1791  0.4958 -0.1429
  657SOL     OW 2698   3.208   0.379   1.121 -0.2275 -0.3953  0.0332
  657SOL    HW2 2699   3.180   0.293   1.152 -2.0215  0.3078  0.4771
  657SOL    HW3 2700   3.140   0.439   1.153  1.6669  1.3819  0.8442
  657SOL    MW4 2701   3.195   0.376   1.129 -0.2141 -0.0681  0.1988
  658SOL     OW 2702   3.439   0.530   1.210  0.2030  0.5395  0.1181
  658SOL    HW2 2703   3.433   0.616   1.168  0.7040  0.8766  0.7257
  658SOL    HW3 2704   3.359   0.485   1.184  0.8035  0.5071 -1.6921
  658SOL    MW4 2705   3.427   0.536   1.201  0.3483  0.5797 -0.0408
  659SOL     OW 2706   3.389   0.782   1.120  0.4582 -0.2842  0.1943
  659SOL    HW2 2707   3.305   0.824   1.134  0.6673 -0.1120  0.9263
  659SOL    HW3 2708   3.409   0.799   1.028 -0.4274 -0.5536 -0.0471
  659SOL    MW4 2709   3.381   0.790   1.109  0.3691 -0.2971  0.2590
  660SOL     OW 2710   3.157   0.920   1.172 -0.0842  0.2638  0.3445
  660SOL    HW2 2711   3.159   0.920   1.268 -0.0785  0.1292  0.3450
  660SOL    HW3 2712   3.150   1.012   1.148  0.8664  0.3642  0.4538
  660SOL    MW4 2713   3.156   0.932   1.182  0.0420  0.2592  0.3591
  661SOL     OW 2714   3.145   1.190   1.095 -0.0224  0.0682  0.8291
  661SOL    HW2 2715   3.221   1.238   1.128  0.2437  0.0925  0.1963
  661SOL    HW3 2716   3.071   1.227   1.142  0.3141  0.3237  1.1606
  661SOL    MW4 2717   3.146   1.202   1.105  0.0570  0.1050  0.7894
  662SOL     OW 2718   3.378   1.309   1.203  0.1911 -0.2918  0.3645
  662SOL    HW2 2719   3.364   1.314   1.297 -0.9963 -1.0318  0.2384
  662SOL    HW3 2720   3.378   1.400   1.173 -3.2047 -0.1599  0.5647
  662SOL    MW4 2721   3.376   1.322   1.211 -0.4134 -0.3719  0.3743
  663SOL     OW 2722   3.378   1.579   1.135  0.0853  0.0020  0.0481
  663SOL    HW2 2723   3.450   1.630   1.173 -0.8652  0.2564  1.5485
  663SOL    HW3 2724   3.300   1.632   1.151 -0.4343 -0.1991 -1.7099
  663SOL    MW4 2725   3.377   1.593   1.142 -0.1087  0.0091  0.0142
  664SOL     OW 2726   3.150   1.697   1.221  0.0325  0.1591  0.1733
  664SOL    HW2 2727   3.120   1.693   1.312 -0.2067 -0.0858  0.0835
  664SOL    HW3 2728   3.145   1.790   1.198 -0.3679  0.1601  0.2571
  664SOL    MW4 2729   3.145   1.709   1.230 -0.0517  0.1270  0.1725
  665SOL     OW 2730   3.145   1.954   1.112  0.0027 -0.2876 -0.5393
  665SOL    HW2 2731   3.225   2.002   1.133 -0.6161  1.1017 -1.2687
  665SOL    HW3 2732   3.075   2.005   1.153 -0.6613 -0.6031 -1.2600
  665SOL    MW4 2733   3.146   1.967   1.120 -0.1664 -0.1460 -0.7308
  666SOL     OW 2734   3.373   2.087   1.212  0.2573 -0.1051 -0.3681
  666SOL    HW2 2735   3.451   2.038   1.184 -0.6078 -1.4120 -0.5394
  666SOL    HW3 2736   3.391   2.177   1.187  1.6607 -0.4259 -0.5440
  666SOL    MW4 2737   3.386   2.092   1.205  0.3283 -0.3200 -0.4139
  667SOL     OW 2738   3.411   2.355   1.068 -0.4234 -0.1795 -0.3844
  667SOL    HW2 2739   3.478   2.417   1.099 -0.1735 -0.6281 -0.0180
  667SOL    HW3 2740   3.332   2.379   1.117  0.0387 -1.0586  0.8189
  667SOL    MW4 2741   3.409   2.366   1.079 -0.3295 -0.3548 -0.1771
  668SOL     OW 2742   3.194   2.458   1.228 -0.0804 -0.1561 -0.1213
  668SOL    HW2 2743   3.178   2.451   1.322 -0.9180  0.2936 -0.2296
  668SOL    HW3 2744   3.197   2.552   1.211 -0.2012 -0.2337 -0.5863
  668SOL    MW4 2745   3.192   2.469   1.238 -0.2069 -0.1068 -0.1969
  669SOL     OW 2746   3.192   2.727   1.149 -0.1464 -0.1785 -0.0720
  669SOL    HW2 2747   3.105   2.759   1.173 -1.0634 -2.9039  0.5060
  669SOL    HW3 2748   3.197   2.737   1.054 -1.2973 -0.4405 -0.1647
  669SOL    MW4 2749   3.182   2.733   1.140 -0.4191 -0.5727 -0.0080
  670SOL     OW 2750   3.405   2.846   1.284  0.0425  0.3062  0.2824
  670SOL    HW2 2751   3.410   2.928   1.235 -2.5153  0.4581  0.2126
  670SOL    HW3 2752   3.337   2.795   1.239  0.5722 -1.2410  1.1915
  670SOL    MW4 2753   3.396   2.850   1.272 -0.2251  0.1221  0.3930
  671SOL     OW 2754   3.395   3.084   1.137 -0.3534  0.1967 -0.1087
  671SOL    HW2 2755   3.473   3.113   1.184 -1.5927 -0.9548  2.8255
  671SOL    HW3 2756   3.325   3.141   1.169 -0.7791  1.0591 -2.5169
  671SOL    MW4 2757   3.396   3.095   1.147 -0.5729  0.1585 -0.0393
  672SOL     OW 2758   3.184   3.238   1.251 -0.3968 -0.0473  0.0272
  672SOL    HW2 2759   3.159   3.329   1.231  0.5989 -0.2572 -2.3864
  672SOL    HW3 2760   3.103   3.188   1.240 -0.5510  0.3050 -0.4542
  672SOL    MW4 2761   3.170   3.244   1.247 -0.2859 -0.0281 -0.3548
  673SOL     OW 2762   3.130   3.487   1.162 -0.1702  0.4474  0.3136
  673SOL    HW2 2763   3.215   3.528   1.176 -0.1175  1.0890 -1.7461
  673SOL    HW3 2764   3.116   3.492   1.068 -1.9655 -0.7154  0.4918
  673SOL    MW4 2765   3.139   3.493   1.152 -0.4001  0.3784  0.0653
  674SOL     OW 2766   3.372   3.645   1.211  0.3911  0.1936 -0.1212
  674SOL    HW2 2767   3.365   3.635   1.306  0.5666  1.1700 -0.0007
  674SOL    HW3 2768   3.450   3.595   1.187  1.0082  0.8941  0.4067
  674SOL    MW4 2769   3.382   3.637   1.220  0.4954  0.4148 -0.0355
  675SOL     OW 2770   3.365   3.899   1.097 -0.0725 -0.0303  0.1927
  675SOL    HW2 2771   3.281   3.938   1.121  0.0577  0.9173 -0.8232
  675SOL    HW3 2772   3.371   3.820   1.150 -1.0411  0.5421  1.1791
  675SOL    MW4 2773   3.355   3.894   1.107 -0.1831  0.1702  0.1889
  676SOL     OW 2774   3.143   4.025   1.205  0.5054  0.0143 -0.3857
  676SOL    HW2 2775   3.157   4.016   1.299 -0.6929  1.3868 -0.0669
  676SOL    HW3 2776   3.144   4.119   1.189 -0.7648 -0.1400 -1.4986
  676SOL    MW4 2777   3.145   4.036   1.215  0.1800  0.1750 -0.4904
  677SOL     OW 2778   3.139   4.290   1.121  0.2254  0.4038 -0.0792
  677SOL    HW2 2779   3.221   4.329   1.151  0.3515  1.1327 -1.3277
  677SOL    HW3 2780   3.155   4.269   1.029 -0.4530 -0.9524  0.0992
  677SOL    MW4 2781   3.152   4.292   1.113  0.1523  0.3219 -0.2204
  678SOL     OW 2782   3.361   4.440   1.204  0.5157 -0.1300  0.2158
  678SOL    HW2 2783   3.453   4.426   1.182  0.3280 -1.6731  0.3592
  678SOL    HW3 2784   3.332   4.508   1.142  1.1049 -1.4073 -1.5097
  678SOL    MW4 2785   3.369   4.447   1.193  0.5689 -0.5026  0.0070
  679SOL     OW 2786   3.829   4.638   1.132 -0.2411 -0.6088  0.2581
  679SOL    HW2 2787   3.839   4.545   1.153  0.9028 -0.7338 -0.7944
  679SOL    HW3 2788   3.797   4.639   1.042 -0.2150  0.0095  0.2571
  679SOL    MW4 2789   3.826   4.626   1.123 -0.0870 -0.5436  0.1192
  680SOL     OW 2790   3.591   0.064   1.189  0.4564  0.3884  0.2116
  680SOL    HW2 2791   3.604   0.159   1.193  0.5137  0.3737  0.3911
  680SOL    HW3 2792   3.679   0.029   1.180  0.3374  0.4128 -1.0931
  680SOL    MW4 2793   3.604   0.072   1.189  0.4482  0.3897  0.0632
  681SOL     OW 2794   3.626   0.350   1.151  0.2130  0.1207  0.3074
  681SOL    HW2 2795   3.698   0.375   1.210  0.3246 -0.2363  0.3309
  681SOL    HW3 2796   3.558   0.415   1.167 -0.4446 -0.9683  2.1264
  681SOL    MW4 2797   3.627   0.362   1.161  0.1411 -0.0701  0.5505
  682SOL     OW 2798   3.808   0.515   1.264  0.2515  0.1239  0.6347
  682SOL    HW2 2799   3.887   0.500   1.213 -1.1821 -1.1693 -1.2944
  682SOL    HW3 2800   3.786   0.607   1.248  1.0806  0.3496  0.7822
  682SOL    MW4 2801   3.815   0.525   1.256  0.1717 -0.0170  0.3997
  683SOL     OW 2802   3.806   0.799   1.169 -0.1788  0.2354 -0.3133
  683SOL    HW2 2803   3.877   0.849   1.210 -0.4657  1.1784 -0.9648
  683SOL    HW3 2804   3.728   0.851   1.185 -0.3034  0.5881 -2.0040
  683SOL    MW4 2805   3.805   0.813   1.177 -0.2329  0.4064 -0.6224
  684SOL     OW 2806   3.583   0.925   1.248 -0.2760 -0.0742  0.0248
  684SOL    HW2 2807   3.569   1.013   1.214 -0.4031 -0.5044 -1.0309
  684SOL    HW3 2808   3.510   0.873   1.214 -0.1756 -0.6039  0.5991
  684SOL    MW4 2809   3.572   0.930   1.239 -0.2797 -0.2009 -0.0387
  685SOL     OW 2810   3.572   1.159   1.102  0.0938 -0.1671 -0.3874
  685SOL    HW2 2811   3.649   1.206   1.134  0.4298 -1.2237  0.3809
  685SOL    HW3 2812   3.498   1.210   1.134  0.4796  1.1421 -1.5728
  685SOL    MW4 2813   3.572   1.172   1.111  0.1893 -0.1338 -0.4424
  686SOL     OW 2814   3.808   1.299   1.193  0.4315  0.1596  0.2917
  686SOL    HW2 2815   3.821   1.308   1.288  0.3837  1.2066  0.2023
  686SOL    HW3 2816   3.810   1.389   1.160  2.2005 -0.3082 -0.9425
  686SOL    MW4 2817   3.810   1.312   1.201  0.6585  0.2363  0.1171
  687SOL     OW 2818   3.807   1.563   1.097 -0.5136  0.0971 -0.1103
  687SOL    HW2 2819   3.880   1.608   1.140 -0.7421  0.7046 -0.3447
  687SOL    HW3 2820   3.835   1.555   1.006 -0.8174  0.5029 -0.2403
  687SOL    MW4 2821   3.821   1.568   1.091 -0.5836  0.2309 -0.1583
  688SOL     OW 2822   3.595   1.681   1.247  0.0701 -0.2661  0.6405
  688SOL    HW2 2823   3.600   1.774   1.222 -0.3529 -0.6174 -0.8076
  688SOL    HW3 2824   3.669   1.640   1.204 -0.5715 -0.8576  0.0838
  688SOL    MW4 2825   3.605   1.688   1.238 -0.0703 -0.3904  0.3760
  689SOL     OW 2826   3.608   1.938   1.148 -0.3058 -0.2330 -0.1873
  689SOL    HW2 2827   3.689   1.974   1.183 -0.0161 -0.9930 -0.0596
  689SOL    HW3 2828   3.615   1.950   1.053 -1.0075  1.6579 -0.0191
  689SOL    MW4 2829   3.620   1.944   1.140 -0.3600 -0.0837 -0.1483
  690SOL     OW 2830   3.862   2.078   1.227  0.1491  0.4926  0.6294
  690SOL    HW2 2831   3.881   2.068   1.321  0.4275  0.1359  0.5357
  690SOL    HW3 2832   3.941   2.049   1.183  0.4007  1.6512  0.3007
  690SOL    MW4 2833   3.875   2.073   1.234  0.2189  0.5984  0.5736
  691SOL     OW 2834   3.845   2.340   1.130  0.0539  0.2337  0.6624
  691SOL    HW2 2835   3.930   2.377   1.153  0.1918 -0.5768  1.4660
  691SOL    HW3 2836   3.850   2.248   1.156 -0.8009 -0.0058  0.0085
  691SOL    MW4 2837   3.857   2.333   1.136 -0.0408  0.0954  0.6821
  692SOL     OW 2838   3.617   2.493   1.183 -0.6464  0.0004  0.1741
  692SOL    HW2 2839   3.598   2.493   1.277 -0.8537 -1.3313  0.1294
  692SOL    HW3 2840   3.699   2.445   1.175 -0.8954 -0.3283 -0.3847
  692SOL    MW4 2841   3.625   2.487   1.194 -0.7067 -0.2186  0.0943
  693SOL     OW 2842   3.628   2.757   1.140  0.0213 -0.0238 -0.2802
  693SOL    HW2 2843   3.638   2.666   1.166  1.2723  0.3314  0.4912
  693SOL    HW3 2844   3.562   2.792   1.200 -1.4152 -0.7541 -1.4166
  693SOL    MW4 2845   3.620   2.750   1.151 -0.0029 -0.0732 -0.3284
  694SOL     OW 2846   3.860   2.856   1.258  0.1079 -0.2737 -0.1423
  694SOL    HW2 2847   3.855   2.854   1.353 -1.1050  1.1055 -0.1629
  694SOL    HW3 2848   3.781   2.812   1.228  0.0371  0.0819 -0.4932
  694SOL    MW4 2849   3.849   2.850   1.266 -0.0615 -0.0448 -0.1913
  695SOL     OW 2850   3.845   3.102   1.144  0.3173 -0.1177  0.1067
  695SOL    HW2 2851   3.854   3.018   1.189 -0.3198  0.2664  0.9595
  695SOL    HW3 2852   3.876   3.085   1.055  2.8160 -0.5678  1.0191
  695SOL    MW4 2853   3.851   3.089   1.138  0.5629 -0.1264  0.3396
  696SOL     OW 2854   3.604   3.193   1.275  0.5679 -0.1369  0.3535
  696SOL    HW2 2855   3.599   3.289   1.268  0.6442 -0.1279  0.4260
  696SOL    HW3 2856   3.685   3.170   1.230  0.2495 -0.2190 -0.1766
  696SOL    MW4 2857   3.614   3.203   1.268  0.5362 -0.1469  0.2931
  697SOL     OW 2858   3.578   3.458   1.210 -0.2100 -0.0967 -0.0505
  697SOL    HW2 2859   3.663   3.495   1.232  0.7830 -1.5193 -1.3814
  697SOL    HW3 2860   3.581   3.445   1.115 -1.9999  0.0559 -0.1457
  697SOL    MW4 2861   3.589   3.461   1.200 -0.3150 -0.2642 -0.2388
  698SOL     OW 2862   3.805   3.609   1.268 -0.0562  0.1972 -0.1547
  698SOL    HW2 2863   3.815   3.617   1.363 -0.3301  1.0839 -0.1957
  698SOL    HW3 2864   3.794   3.699   1.237  0.3234 -0.0650 -1.0643
  698SOL    MW4 2865   3.805   3.622   1.277 -0.0422  0.2797 -0.2801
  699SOL     OW 2866   3.817   3.882   1.161  0.2445 -0.2963  0.0915
  699SOL    HW2 2867   3.747   3.944   1.181  0.1232 -0.3303 -0.2267
  699SOL    HW3 2868   3.821   3.881   1.066  1.0851  0.1570  0.1209
  699SOL    MW4 2869   3.808   3.890   1.151  0.3395 -0.2410  0.0534
  700SOL     OW 2870   3.576   4.040   1.205 -0.3608 -0.3804  0.0890
  700SOL    HW2 2871   3.598   4.014   1.294  0.3638  0.2984  0.1125
  700SOL    HW3 2872   3.496   3.992   1.185 -2.2081  1.6604  2.2100
  700SOL    MW4 2873   3.568   4.031   1.214 -0.5088 -0.0219  0.3719
  701SOL     OW 2874   3.596   4.275   1.078  0.3368 -0.5924 -0.1574
  701SOL    HW2 2875   3.577   4.196   1.129 -2.0086  0.0791  0.1020
  701SOL    HW3 2876   3.562   4.255   0.990 -0.1340  0.0487 -0.1281
  701SOL    MW4 2877   3.589   4.262   1.073 -0.0348 -0.4187 -0.1193
  702SOL     OW 2878   3.832   4.370   1.192  0.0203 -0.2587  0.0132
  702SOL    HW2 2879   3.822   4.365   1.287  0.4772 -1.5557  0.0071
  702SOL    HW3 2880   3.750   4.336   1.156  0.3982 -1.1268 -0.0459
  702SOL    MW4 2881   3.820   4.365   1.199  0.1304 -0.5441  0.0045
  703SOL     OW 2882   4.271   0.028   1.104  0.3146 -0.1174 -0.0700
  703SOL    HW2 2883   4.270  -0.057   1.148  0.0495  0.0245  0.2011
  703SOL    HW3 2884   4.185   0.067   1.125  0.2980  0.0671 -0.4801
  703SOL    MW4 2885   4.259   0.022   1.113  0.2770 -0.0744 -0.0883
  704SOL     OW 2886   4.030   0.143   1.234  0.5085 -0.0560 -0.1150
  704SOL    HW2 2887   4.009   0.151   1.327 -0.5088  1.0839 -0.4353
  704SOL    HW3 2888   3.957   0.093   1.198 -1.1772  3.0179 -1.0426
  704SOL    MW4 2889   4.018   0.137   1.242  0.1516  0.4999 -0.2797
  705SOL     OW 2890   4.050   0.416   1.163  0.6660 -0.1975 -0.2952
  705SOL    HW2 2891   4.043   0.329   1.201 -0.6304 -0.8634 -1.9819
  705SOL    HW3 2892   4.034   0.403   1.069  0.1819  1.8791 -0.5333
  705SOL    MW4 2893   4.047   0.403   1.156  0.4315 -0.0114 -0.5492
  706SOL     OW 2894   4.291   0.532   1.208  0.2386 -0.0992 -0.0653
  706SOL    HW2 2895   4.279   0.523   1.303  0.5162  0.1532 -0.0041
  706SOL    HW3 2896   4.215   0.489   1.170  0.2470 -0.4158  0.2679
  706SOL    MW4 2897   4.280   0.525   1.216  0.2766 -0.1077 -0.0132
  707SOL     OW 2898   4.225   0.805   1.168 -0.1010 -0.3657  0.1829
  707SOL    HW2 2899   4.249   0.714   1.187 -2.1690 -1.2820 -1.4439
  707SOL    HW3 2900   4.220   0.810   1.073  1.5026  1.8755  0.1812
  707SOL    MW4 2901   4.227   0.794   1.158 -0.1621 -0.1909 -0.0321
  708SOL     OW 2902   4.009   0.926   1.305  0.1679 -0.4548  0.3758
  708SOL    HW2 2903   4.021   0.936   1.399  0.3283  1.3378  0.1818
  708SOL    HW3 2904   4.091   0.887   1.274  0.2021 -0.8252  0.9310
  708SOL    MW4 2905   4.022   0.922   1.313  0.1936 -0.2671  0.4236
  709SOL     OW 2906   4.048   1.148   1.171 -0.1008  0.0281  0.5535
  709SOL    HW2 2907   4.024   1.065   1.212 -0.1363 -0.4098 -0.3367
  709SOL    HW3 2908   3.976   1.207   1.191 -0.1682 -0.2123  1.0236
  709SOL    MW4 2909   4.035   1.145   1.179 -0.1144 -0.0614  0.4982
  710SOL     OW 2910   4.268   1.298   1.209  0.2041 -0.1802  0.4012
  710SOL    HW2 2911   4.288   1.302   1.303 -1.0485  0.6140  0.6498
  710SOL    HW3 2912   4.200   1.231   1.202  0.9847 -0.9303 -0.0731
  710SOL    MW4 2913   4.261   1.290   1.221  0.1416 -0.1744  0.3715
  711SOL     OW 2914   4.256   1.567   1.141 -0.2079  0.1745 -0.0673
  711SOL    HW2 2915   4.271   1.481   1.180 -0.9860  0.5524  1.1263
  711SOL    HW3 2916   4.332   1.619   1.166  0.6992 -0.4123 -1.5603
  711SOL    MW4 2917   4.268   1.562   1.150 -0.1912  0.1470 -0.1067
  712SOL     OW 2918   4.029   1.687   1.211  0.2694  0.1719 -0.4043
  712SOL    HW2 2919   4.040   1.689   1.306  0.8309  0.1515 -0.4644
  712SOL    HW3 2920   4.110   1.648   1.179 -0.2068 -0.4688 -0.8445
  712SOL    MW4 2921   4.041   1.682   1.220  0.2804  0.0846 -0.4704
  713SOL     OW 2922   4.086   1.946   1.130 -0.0910 -0.0326  0.5122
  713SOL    HW2 2923   4.073   1.857   1.160  2.1656 -0.4600  0.3610
  713SOL    HW3 2924   4.078   1.941   1.034  0.1187 -0.0961  0.4975
  713SOL    MW4 2925   4.083   1.934   1.121  0.2346 -0.0974  0.4903
  714SOL     OW 2926   4.299   2.042   1.273  0.3253 -0.0792  0.1843
  714SOL    HW2 2927   4.304   2.126   1.226  1.3457 -0.3535 -0.2040
  714SOL    HW3 2928   4.220   2.000   1.237  1.5010 -0.6101 -1.8714
  714SOL    MW4 2929   4.289   2.048   1.262  0.6146 -0.1855 -0.1382
  715SOL     OW 2930   4.336   2.284   1.160  0.3360 -0.1974 -0.2755
  715SOL    HW2 2931   4.265   2.345   1.182  0.6229 -0.3152  0.9796
  715SOL    HW3 2932   4.346   2.293   1.065 -0.9552  0.2611 -0.3777
  715SOL    MW4 2933   4.328   2.294   1.150  0.2031 -0.1528 -0.1233
  716SOL     OW 2934   4.091   2.448   1.205  0.0882 -0.3231 -0.1915
  716SOL    HW2 2935   4.099   2.460   1.299  0.3069 -0.2523 -0.2201
  716SOL    HW3 2936   4.067   2.535   1.172  2.4778  0.2571 -0.4972
  716SOL    MW4 2937   4.089   2.461   1.213  0.4325 -0.2372 -0.2357
  717SOL     OW 2938   4.059   2.720   1.119 -0.5054 -0.0826  0.9662
  717SOL    HW2 2939   3.983   2.763   1.157 -0.4382  0.4437  0.5160
  717SOL    HW3 2940   4.040   2.715   1.025 -0.1267 -0.2240  0.8932
  717SOL    MW4 2941   4.047   2.725   1.112 -0.4468 -0.0317  0.8970
  718SOL     OW 2942   4.284   2.815   1.237 -0.2451  0.2122 -0.0853
  718SOL    HW2 2943   4.310   2.902   1.205  0.2471  0.2793  0.4812
  718SOL    HW3 2944   4.209   2.791   1.184  0.1704  0.6031 -0.8509
  718SOL    MW4 2945   4.278   2.824   1.226 -0.1254  0.2730 -0.1116
  719SOL     OW 2946   4.298   3.061   1.141 -0.2155  0.3276  0.2326
  719SOL    HW2 2947   4.216   3.097   1.177 -0.8044  0.1895 -0.9541
  719SOL    HW3 2948   4.290   3.073   1.047  0.6450 -0.7141  0.0187
  719SOL    MW4 2949   4.286   3.067   1.133 -0.1793  0.1724  0.0477
  720SOL     OW 2950   4.088   3.214   1.228  0.5988 -0.0182 -0.1950
  720SOL    HW2 2951   4.069   3.196   1.320  0.4593  1.9276  0.1720
  720SOL    HW3 2952   4.018   3.169   1.180  0.5234 -0.8222  0.6529
  720SOL    MW4 2953   4.076   3.206   1.234  0.5703  0.1326 -0.0347
  721SOL     OW 2954   4.084   3.494   1.155  0.3317 -0.4055 -0.0191
  721SOL    HW2 2955   4.076   3.409   1.197  0.8434  0.0826  1.1076
  721SOL    HW3 2956   3.998   3.534   1.164 -0.1449 -1.1518 -1.3182
  721SOL    MW4 2957   4.072   3.488   1.162  0.3366 -0.4394 -0.0417
  722SOL     OW 2958   4.284   3.669   1.227  0.0778 -0.3441  0.3770
  722SOL    HW2 2959   4.210   3.618   1.193 -0.7290  0.6057  0.6595
  722SOL    HW3 2960   4.361   3.633   1.183 -0.4651 -1.8307  0.6125
  722SOL    MW4 2961   4.284   3.658   1.217 -0.1006 -0.4151  0.4452
  723SOL     OW 2962   4.266   3.934   1.126 -0.1089 -0.0873 -0.4030
  723SOL    HW2 2963   4.182   3.960   1.163  1.1202  0.3514  2.1698
  723SOL    HW3 2964   4.282   3.846   1.160  0.3789 -0.2669 -1.0693
  723SOL    MW4 2965   4.257   3.926   1.135  0.1178 -0.0529 -0.1514
  724SOL     OW 2966   4.042   4.033   1.224  0.4362 -0.4691  0.1558
  724SOL    HW2 2967   4.052   4.114   1.174  2.2678 -0.3247  0.7111
  724SOL    HW3 2968   3.958   3.998   1.197 -0.1842  1.4000 -0.4297
  724SOL    MW4 2969   4.032   4.039   1.214  0.5960 -0.2036  0.1518
  725SOL     OW 2970   4.059   4.265   1.072  0.2945  0.1529  0.0361
  725SOL    HW2 2971   3.982   4.312   1.105 -0.3870 -1.2430  0.4346
  725SOL    HW3 2972   4.045   4.263   0.977 -1.2195 -1.8990  0.2685
  725SOL    MW4 2973   4.047   4.271   1.064  0.0048 -0.3023  0.1193
  726SOL     OW 2974   4.263   4.416   1.211 -0.0273  0.0740  0.0936
  726SOL    HW2 2975   4.201   4.360   1.164  0.7045 -0.9908  0.3988
  726SOL    HW3 2976   4.347   4.400   1.169  0.3029  0.4647  0.5979
  726SOL    MW4 2977   4.266   4.407   1.200  0.1135 -0.0143  0.2004
  727SOL     OW 2978   0.219   4.658   1.660  0.8600  0.3116  0.2715
  727SOL    HW2 2979   0.284   4.709   1.612  0.1085  2.1206  1.1113
  727SOL    HW3 2980   0.136   4.702   1.642  0.0015 -1.4132 -0.0435
  727SOL    MW4 2981   0.216   4.671   1.651  0.6476  0.3227  0.3408
  728SOL     OW 2982   4.486   0.113   1.528  0.9189 -0.4364 -0.1480
  728SOL    HW2 2983   4.401   0.081   1.558  0.5445  1.4397  0.8694
  728SOL    HW3 2984   4.475   0.128   1.435  0.2347 -0.5215 -0.0823
  728SOL    MW4 2985   4.473   0.111   1.520  0.7792 -0.2001 -0.0051
  729SOL     OW 2986   0.026   0.374   1.614 -0.0016  0.1026 -0.0955
  729SOL    HW2 2987   0.031   0.378   1.709 -0.4469  1.3813 -0.1185
  729SOL    HW3 2988   0.003   0.283   1.595 -1.8169  0.2851  1.1143
  729SOL    MW4 2989   0.023   0.362   1.624 -0.2998  0.2954  0.0612
  730SOL     OW 2990   0.253   0.510   1.513  0.0124  0.4990 -0.2551
  730SOL    HW2 2991   0.165   0.477   1.532 -0.7137  1.8460 -1.2281
  730SOL    HW3 2992   0.251   0.535   1.421  1.0343  1.7367  0.0385
  730SOL    MW4 2993   0.241   0.509   1.503  0.0514  0.8401 -0.3448
  731SOL     OW 2994   0.287   0.758   1.639 -0.1587  0.5534 -0.6333
  731SOL    HW2 2995   0.355   0.806   1.593  0.8093 -1.0327 -0.8623
  731SOL    HW3 2996   0.287   0.671   1.600  0.2338 -0.6333  1.8796
  731SOL    MW4 2997   0.296   0.753   1.628  0.0208  0.1876 -0.3320
  732SOL     OW 2998   0.059   0.864   1.479 -0.0526 -0.0385  0.8167
  732SOL    HW2 2999   0.045   0.946   1.526  1.5654  0.9234 -0.3334
  732SOL    HW3 3000   0.129   0.820   1.526  0.5707  0.2505  0.1662
  732SOL    MW4 3001   0.066   0.869   1.491  0.2431  0.1265  0.5790
  733SOL     OW 3002   0.024   1.117   1.618 -0.0774 -0.2128  0.1013
  733SOL    HW2 3003   0.016   1.124   1.713 -0.8137  3.6675 -0.1619
  733SOL    HW3 3004   0.098   1.174   1.596 -0.3661 -0.5080 -1.7269
  733SOL    MW4 3005   0.033   1.126   1.627 -0.2127  0.2601 -0.1745
  734SOL     OW 3006   0.235   1.277   1.486 -0.1555  0.0216  0.0776
  734SOL    HW2 3007   0.231   1.369   1.514 -1.4433  0.1137 -0.3467
  734SOL    HW3 3008   0.236   1.282   1.390  0.7721 -0.3827  0.0669
  734SOL    MW4 3009   0.234   1.290   1.477 -0.2030 -0.0196  0.0201
  735SOL     OW 3010   0.231   1.540   1.591  0.8035 -0.2721  0.2243
  735SOL    HW2 3011   0.229   1.557   1.685 -0.7548 -0.3514  0.2187
  735SOL    HW3 3012   0.151   1.579   1.558  1.5860  0.1837 -1.1608
  735SOL    MW4 3013   0.220   1.547   1.599  0.7011 -0.2223  0.0407
  736SOL     OW 3014   4.470   1.649   1.516 -0.4992  0.3140  0.4664
  736SOL    HW2 3015   4.460   1.741   1.538  0.7417  0.3916  0.7541
  736SOL    HW3 3016   4.484   1.648   1.421 -1.4830  0.3379  0.3188
  736SOL    MW4 3017   4.471   1.661   1.506 -0.4649  0.3273  0.4848
  737SOL     OW 3018   0.001   1.921   1.584 -0.0107  0.4599  0.3533
  737SOL    HW2 3019   0.017   1.919   1.679 -0.9126  1.0334  0.5222
  737SOL    HW3 3020  -0.083   1.967   1.575 -0.9347 -1.3921 -0.6032
  737SOL    MW4 3021  -0.008   1.927   1.595 -0.2513  0.2913  0.2495
  738SOL     OW 3022   0.198   2.086   1.486 -0.3887  0.1773  0.1326
  738SOL    HW2 3023   0.130   2.023   1.509 -0.5965  0.4671  0.3095
  738SOL    HW3 3024   0.215   2.070   1.393 -2.9091  2.1816 -0.7525
  738SOL    MW4 3025   0.191   2.076   1.477 -0.7486  0.4799  0.0392
  739SOL     OW 3026   0.209   2.330   1.570 -0.1974  0.2895  0.1923
  739SOL    HW2 3027   0.204   2.324   1.665  0.7093  1.0055  0.3046
  739SOL    HW3 3028   0.202   2.240   1.539 -1.4263  0.1451  0.8809
  739SOL    MW4 3029   0.208   2.318   1.579 -0.2399  0.3648  0.2979
  740SOL     OW 3030   4.468   2.454   1.503 -0.1316  0.2427  0.1991
  740SOL    HW2 3031   4.406   2.415   1.564  0.6253 -0.4270  0.5501
  740SOL    HW3 3032   4.553   2.418   1.529  0.3631  0.9214 -0.4589
  740SOL    MW4 3033   4.471   2.444   1.515  0.0336  0.2441  0.1585
  741SOL     OW 3034   0.030   2.706   1.596  0.3892 -0.4009 -0.2751
  741SOL    HW2 3035  -0.055   2.751   1.588  0.9767  1.0183  1.0995
  741SOL    HW3 3036   0.020   2.626   1.544 -2.1765 -0.8266  0.8006
  741SOL    MW4 3037   0.017   2.702   1.588  0.1278 -0.2697  0.0480
  742SOL     OW 3038   0.238   2.856   1.487  0.4171 -0.0292 -0.2523
  742SOL    HW2 3039   0.306   2.802   1.526 -0.4080 -2.2424 -1.7816
  742SOL    HW3 3040   0.157   2.826   1.526 -0.0053  0.4645 -0.7333
  742SOL    MW4 3041   0.237   2.845   1.497  0.2526 -0.2561 -0.5175
  743SOL     OW 3042   0.265   3.093   1.609 -0.0431 -0.0417 -0.3507
  743SOL    HW2 3043   0.183   3.135   1.581 -1.3379 -0.4470  2.6628
  743SOL    HW3 3044   0.257   3.003   1.577 -0.9348 -0.1720  0.2236
  743SOL    MW4 3045   0.253   3.087   1.601 -0.3316 -0.1125  0.1227
  744SOL     OW 3046   0.053   3.215   1.501 -0.3009 -0.3874 -0.1209
  744SOL    HW2 3047   0.032   3.307   1.515  2.5291  0.2551  0.2704
  744SOL    HW3 3048   0.046   3.203   1.406  0.5405  0.5718 -0.3137
  744SOL    MW4 3049   0.050   3.226   1.490  0.1835 -0.1760 -0.0948
  745SOL     OW 3050   4.485   3.488   1.559 -0.0440  0.1947  0.1539
  745SOL    HW2 3051   4.501   3.509   1.651 -0.3945 -1.2840  0.5560
  745SOL    HW3 3052   4.404   3.533   1.537 -0.5839 -0.4242  0.8960
  745SOL    MW4 3053   4.477   3.497   1.568 -0.1615 -0.0823  0.3048
  746SOL     OW 3054   0.233   3.624   1.498  0.1854 -0.5617  0.6041
  746SOL    HW2 3055   0.220   3.714   1.528 -1.2167 -0.3058 -0.7132
  746SOL    HW3 3056   0.153   3.578   1.524  0.7643 -1.3495  0.9976
  746SOL    MW4 3057   0.221   3.630   1.505  0.0768 -0.6318  0.4822
  747SOL     OW 3058   0.243   3.884   1.595 -0.3339  0.1285 -0.0192
  747SOL    HW2 3059   0.252   3.883   1.691  0.4828 -0.1598 -0.0959
  747SOL    HW3 3060   0.302   3.954   1.567  0.0414 -0.3250 -0.3672
  747SOL    MW4 3061   0.252   3.893   1.604 -0.1766  0.0305 -0.0752
  748SOL     OW 3062   0.022   4.025   1.513  0.9321  0.2095  0.1529
  748SOL    HW2 3063   0.032   4.113   1.551 -0.4660 -0.3625  1.9426
  748SOL    HW3 3064   0.104   3.980   1.535  1.0861  0.6254  0.4417
  748SOL    MW4 3065   0.034   4.031   1.521  0.7679  0.1893  0.4272
  749SOL     OW 3066   4.470   4.285   1.563 -0.5532  0.0518  0.0585
  749SOL    HW2 3067   4.465   4.300   1.658  0.2824 -1.8853  0.4314
  749SOL    HW3 3068   4.395   4.332   1.527 -0.7594  0.9846  1.6633
  749SOL    MW4 3069   4.460   4.293   1.571 -0.4702 -0.0806  0.3194
  750SOL     OW 3070   0.213   4.433   1.505 -0.0582 -0.0267 -0.0872
  750SOL    HW2 3071   0.128   4.398   1.534 -0.1308  0.4019  0.2154
  750SOL    HW3 3072   0.228   4.508   1.562  0.9793 -0.6661  0.5030
  750SOL    MW4 3073   0.204   4.438   1.517  0.0691 -0.0544  0.0305
  751SOL     OW 3074   0.681   0.022   1.623  0.2767 -0.0347  0.2220
  751SOL    HW2 3075   0.747   0.081   1.585  0.6410  0.5213  1.6978
  751SOL    HW3 3076   0.600   0.045   1.578  0.6336  0.8705  0.0287
  751SOL    MW4 3077   0.679   0.033   1.612  0.3719  0.1581  0.3912
  752SOL     OW 3078   0.442   0.100   1.513  0.3563  0.3662  0.1467
  752SOL    HW2 3079   0.475   0.183   1.547  0.8882  0.3952 -0.4267
  752SOL    HW3 3080   0.433   0.114   1.419  0.1626 -0.1321  0.0873
  752SOL    MW4 3081   0.445   0.113   1.505  0.4009  0.3043  0.0632
  753SOL     OW 3082   0.468   0.367   1.619 -0.2992  0.0637 -0.3038
  753SOL    HW2 3083   0.536   0.433   1.607  0.0535 -0.1259  0.5656
  753SOL    HW3 3084   0.390   0.406   1.580  0.3393  0.2212 -1.4334
  753SOL    MW4 3085   0.467   0.381   1.613 -0.1684  0.0595 -0.3381
  754SOL     OW 3086   0.649   0.544   1.568 -0.1520 -0.6641 -0.1293
  754SOL    HW2 3087   0.673   0.635   1.584  0.7774 -1.1443  1.3764
  754SOL    HW3 3088   0.652   0.534   1.473  0.7040  0.6166 -0.2474
  754SOL    MW4 3089   0.652   0.555   1.558  0.0836 -0.5584  0.0536
  755SOL     OW 3090   0.663   0.814   1.556 -0.5917  0.5526  0.5228
  755SOL    HW2 3091   0.663   0.825   1.651  0.9383 -0.6169  0.6728
  755SOL    HW3 3092   0.738   0.865   1.526 -1.2052  1.1036 -0.0861
  755SOL    MW4 3093   0.673   0.822   1.565 -0.4708  0.4710  0.4623
  756SOL     OW 3094   0.427   0.936   1.492  0.1782  0.3562  0.0803
  756SOL    HW2 3095   0.441   1.017   1.541 -1.2615  0.2839  0.6576
  756SOL    HW3 3096   0.508   0.886   1.504  1.1604  1.8036 -0.4828
  756SOL    MW4 3097   0.440   0.940   1.500  0.1178  0.5376  0.0823
  757SOL     OW 3098   0.475   1.184   1.593  0.2865  0.3524  0.5180
  757SOL    HW2 3099   0.553   1.216   1.548 -0.0308  1.6294  0.8568
  757SOL    HW3 3100   0.403   1.233   1.554 -0.5904 -1.9836 -0.9737
  757SOL    MW4 3101   0.475   1.194   1.582  0.1290  0.2127  0.3659
  758SOL     OW 3102   0.689   1.288   1.460 -0.5070  0.5449 -0.1266
  758SOL    HW2 3103   0.699   1.378   1.490  1.3137  0.9435 -1.7851
  758SOL    HW3 3104   0.687   1.295   1.364  0.8414 -1.2627 -0.3094
  758SOL    MW4 3105   0.690   1.301   1.451 -0.0889  0.3591 -0.3694
  759SOL     OW 3106   0.712   1.552   1.574 -0.0722 -0.1056  0.1010
  759SOL    HW2 3107   0.788   1.595   1.533 -0.4525  0.1667 -0.3166
  759SOL    HW3 3108   0.637   1.605   1.548 -0.5454 -1.0287 -0.4251
  759SOL    MW4 3109   0.712   1.565   1.565 -0.1848 -0.1915 -0.0234
  760SOL     OW 3110   0.464   1.690   1.490 -0.0149 -0.5054 -0.1345
  760SOL    HW2 3111   0.459   1.785   1.495  1.0665 -0.5600  3.0342
  760SOL    HW3 3112   0.381   1.659   1.527  1.2031 -0.7998  2.4300
  760SOL    MW4 3113   0.452   1.698   1.495  0.2885 -0.5516  0.6219
  761SOL     OW 3114   0.426   1.949   1.548  0.1717  0.6109 -0.5702
  761SOL    HW2 3115   0.438   1.945   1.643  1.3510  0.3577 -0.7317
  761SOL    HW3 3116   0.340   1.990   1.537  0.3935  1.3946  0.5846
  761SOL    MW4 3117   0.416   1.954   1.559  0.3566  0.6809 -0.4390
  762SOL     OW 3118   0.670   2.061   1.478 -0.2751  0.1414 -0.1666
  762SOL    HW2 3119   0.728   2.008   1.534 -0.8527 -1.5732 -1.1522
  762SOL    HW3 3120   0.582   2.041   1.510 -0.3189  3.7133  2.1589
  762SOL    MW4 3121   0.666   2.051   1.490 -0.3571  0.3862  0.0100
  763SOL     OW 3122   0.694   2.319   1.566  0.0040  1.0541  0.4082
  763SOL    HW2 3123   0.608   2.349   1.538 -0.4037 -0.0694  0.4373
  763SOL    HW3 3124   0.700   2.230   1.534  0.0825  0.1961  2.6667
  763SOL    MW4 3125   0.684   2.311   1.558 -0.0395  0.7927  0.7100
  764SOL     OW 3126   0.437   2.461   1.471 -0.0328  0.3141  0.0340
  764SOL    HW2 3127   0.439   2.551   1.502 -1.3555  0.8662 -1.4311
  764SOL    HW3 3128   0.371   2.418   1.525 -0.4266  0.5948 -0.2209
  764SOL    MW4 3129   0.428   2.467   1.482 -0.2593  0.4239 -0.1929
  765SOL     OW 3130   0.450   2.713   1.584  0.1652 -0.0610  0.0801
  765SOL    HW2 3131   0.440   2.727   1.678  0.5281  0.5163  0.0382
  765SOL    HW3 3132   0.530   2.760   1.562  0.2022 -0.3893 -0.4757
  765SOL    MW4 3133   0.459   2.721   1.594  0.2180 -0.0281  0.0012
  766SOL     OW 3134   0.683   2.854   1.520  0.2307  0.0172  0.6660
  766SOL    HW2 3135   0.681   2.939   1.565  0.4336  0.3585  0.0415
  766SOL    HW3 3136   0.685   2.877   1.427 -1.2247 -0.6954  0.4523
  766SOL    MW4 3137   0.683   2.869   1.514  0.0654 -0.0317  0.5554
  767SOL     OW 3138   0.697   3.117   1.603  0.1246  0.8745  0.2961
  767SOL    HW2 3139   0.778   3.147   1.562  0.6134  0.2330  0.7985
  767SOL    HW3 3140   0.628   3.161   1.552  0.7115 -0.1210 -1.4067
  767SOL    MW4 3141   0.698   3.127   1.591  0.2666  0.6585  0.1377
  768SOL     OW 3142   0.486   3.266   1.510 -0.2860  0.1119  0.3744
  768SOL    HW2 3143   0.416   3.214   1.551 -0.6156  0.8589  0.7715
  768SOL    HW3 3144   0.473   3.253   1.416 -0.2907 -0.6199  0.4727
  768SOL    MW4 3145   0.475   3.258   1.503 -0.3301  0.1137  0.4398
  769SOL     OW 3146   0.502   3.524   1.571  0.4092 -0.5404 -0.2292
  769SOL    HW2 3147   0.494   3.430   1.558  1.4157 -0.7740  0.7955
  769SOL    HW3 3148   0.414   3.558   1.554  0.1184 -1.6141 -0.9217
  769SOL    MW4 3149   0.489   3.516   1.567  0.5036 -0.7126 -0.1855
  770SOL     OW 3150   0.695   3.681   1.482 -0.4414  0.2249  0.2630
  770SOL    HW2 3151   0.772   3.626   1.502 -0.0045  0.0294 -1.8347
  770SOL    HW3 3152   0.621   3.630   1.513  0.1080 -0.6531  0.1607
  770SOL    MW4 3153   0.696   3.667   1.489 -0.3113  0.0832 -0.0272
  771SOL     OW 3154   0.681   3.923   1.598 -0.2882  0.4699  0.4752
  771SOL    HW2 3155   0.770   3.952   1.575 -0.6529  1.1557 -0.1191
  771SOL    HW3 3156   0.678   3.832   1.570  0.4783  0.2096  1.2149
  771SOL    MW4 3157   0.693   3.915   1.591 -0.2352  0.5262  0.4944
  772SOL     OW 3158   0.448   4.061   1.508  0.3886 -0.0470 -0.2029
  772SOL    HW2 3159   0.523   4.011   1.539 -0.2767 -0.7438  0.2831
  772SOL    HW3 3160   0.456   4.059   1.412  0.4643 -0.9406 -0.1849
  772SOL    MW4 3161   0.459   4.054   1.499  0.3108 -0.2565 -0.1363
  773SOL     OW 3162   0.422   4.300   1.624  0.5274 -0.0812 -0.2967
  773SOL    HW2 3163   0.423   4.210   1.592 -1.0523 -0.2061 -0.0316
  773SOL    HW3 3164   0.346   4.340   1.581  1.0148  1.0240 -0.1486
  773SOL    MW4 3165   0.412   4.293   1.614  0.3833  0.0486 -0.2421
  774SOL     OW 3166   0.668   4.438   1.507 -0.1203  0.0512  0.1165
  774SOL    HW2 3167   0.596   4.399   1.558  1.0521 -2.2149  0.1159
  774SOL    HW3 3168   0.681   4.524   1.546 -2.2585  0.1506  0.6849
  774SOL    MW4 3169   0.660   4.444   1.519 -0.2477 -0.2346  0.1915
  775SOL     OW 3170   1.088   0.031   1.629  0.2204  0.1871 -0.3940
  775SOL    HW2 3171   1.105   0.023   1.722 -0.1023 -0.2433 -0.3770
  775SOL    HW3 3172   1.167   0.074   1.594  0.6245 -0.2621 -0.0342
  775SOL    MW4 3173   1.101   0.036   1.636  0.2311  0.0710 -0.3442
  776SOL     OW 3174   0.888   0.139   1.471 -0.3050  0.2909 -0.0968
  776SOL    HW2 3175   0.879   0.228   1.505 -0.8498  0.1323  0.1854
  776SOL    HW3 3176   0.959   0.100   1.522 -1.4363 -0.1026  1.2080
  776SOL    MW4 3177   0.896   0.145   1.482 -0.5261  0.2180  0.1125
  777SOL     OW 3178   0.851   0.372   1.616 -0.1075  0.0341 -0.1788
  777SOL    HW2 3179   0.886   0.397   1.702  1.1046 -0.1934 -0.5986
  777SOL    HW3 3180   0.779   0.433   1.600  1.1376  1.5567 -0.0282
  777SOL    MW4 3181   0.846   0.383   1.625  0.2167  0.2050 -0.2145
  778SOL     OW 3182   1.100   0.544   1.525 -0.2281  0.0298  0.2535
  778SOL    HW2 3183   1.100   0.635   1.555 -0.0956  0.1873 -0.2289
  778SOL    HW3 3184   1.018   0.507   1.559  0.3672 -0.0629  1.6550
  778SOL    MW4 3185   1.089   0.551   1.534 -0.1322  0.0384  0.3748
  779SOL     OW 3186   1.069   0.799   1.605 -0.1880 -0.4515  0.7583
  779SOL    HW2 3187   1.080   0.808   1.699 -0.1144  0.0552  0.7011
  779SOL    HW3 3188   1.142   0.847   1.567 -0.5271 -0.1856  0.4360
  779SOL    MW4 3189   1.080   0.806   1.612 -0.2230 -0.3496  0.7082
  780SOL     OW 3190   0.894   0.961   1.471 -0.0696  0.3580  0.1343
  780SOL    HW2 3191   0.961   0.903   1.509 -0.7945  0.4007  1.5382
  780SOL    HW3 3192   0.896   0.943   1.378  2.3160  0.7874  0.0760
  780SOL    MW4 3193   0.903   0.951   1.464  0.1495  0.4202  0.3119
  781SOL     OW 3194   0.901   1.208   1.642 -0.4315 -0.0468 -0.4591
  781SOL    HW2 3195   0.906   1.121   1.603  1.1381  0.5065 -1.5406
  781SOL    HW3 3196   0.821   1.246   1.606 -0.1785 -0.3763 -1.3756
  781SOL    MW4 3197   0.891   1.202   1.632 -0.1910 -0.0173 -0.7226
  782SOL     OW 3198   1.123   1.332   1.511  0.0039  0.2478  0.1754
  782SOL    HW2 3199   1.205   1.285   1.524 -0.4721 -0.6753 -0.1804
  782SOL    HW3 3200   1.058   1.283   1.561 -0.3580  0.9171  0.3702
  782SOL    MW4 3201   1.126   1.320   1.519 -0.1067  0.2145  0.1540
  783SOL     OW 3202   1.130   1.604   1.587  0.6212  0.7109 -0.1359
  783SOL    HW2 3203   1.215   1.647   1.582  0.4112  1.2282  0.5325
  783SOL    HW3 3204   1.146   1.514   1.559  1.3738  0.8223 -0.0762
  783SOL    MW4 3205   1.143   1.598   1.583  0.6928  0.7939 -0.0398
  784SOL     OW 3206   0.907   1.702   1.467  0.0702 -0.4804 -0.0385
  784SOL    HW2 3207   0.987   1.667   1.506 -0.1325  1.0879  1.8638
  784SOL    HW3 3208   0.917   1.686   1.373  2.6503 -0.2776  0.1669
  784SOL    MW4 3209   0.919   1.695   1.460  0.3839 -0.2468  0.2395
  785SOL     OW 3210   0.945   1.982   1.551 -0.1653  0.1581 -0.1596
  785SOL    HW2 3211   1.015   2.040   1.521  0.2247 -0.3112 -0.1834
  785SOL    HW3 3212   0.963   1.899   1.506 -1.4876  0.4037 -1.1608
  785SOL    MW4 3213   0.957   1.978   1.541 -0.2883  0.1285 -0.2949
  786SOL     OW 3214   1.150   2.135   1.438  0.3686  0.3078 -0.0627
  786SOL    HW2 3215   1.212   2.077   1.482 -1.0369 -1.0675  0.1363
  786SOL    HW3 3216   1.138   2.208   1.500  1.6611  0.5173 -0.0473
  786SOL    MW4 3217   1.157   2.137   1.452  0.3538  0.1538 -0.0343
  787SOL     OW 3218   1.131   2.343   1.620 -0.8100 -0.1305  0.1036
  787SOL    HW2 3219   1.202   2.396   1.583 -0.0316 -1.0915  0.2216
  787SOL    HW3 3220   1.051   2.381   1.583 -0.3641  1.9951  1.2194
  787SOL    MW4 3221   1.130   2.355   1.610 -0.6485  0.0234  0.2664
  788SOL     OW 3222   0.913   2.455   1.493  0.0001  0.2233  0.1864
  788SOL    HW2 3223   0.911   2.537   1.542  0.3475 -0.1512  0.8456
  788SOL    HW3 3224   0.827   2.415   1.508 -0.1436  0.4356 -0.0774
  788SOL    MW4 3225   0.902   2.460   1.501  0.0270  0.2017  0.2387
  789SOL     OW 3226   0.893   2.696   1.612  0.0729  0.1736  0.1487
  789SOL    HW2 3227   0.902   2.716   1.705  1.2202 -0.6955  0.2318
  789SOL    HW3 3228   0.812   2.740   1.586  0.8069  2.1428  1.0815
  789SOL    MW4 3229   0.883   2.705   1.621  0.3211  0.3188  0.2828
  790SOL     OW 3230   1.080   2.844   1.462  0.1342 -0.3029 -0.2780
  790SOL    HW2 3231   1.098   2.929   1.502  0.5981  0.4866 -2.1341
  790SOL    HW3 3232   1.008   2.808   1.514  0.8709  0.5981  1.3884
  790SOL    MW4 3233   1.073   2.851   1.474  0.2927 -0.0799 -0.3031
  791SOL     OW 3234   1.137   3.091   1.563 -0.4599 -0.7977  0.3134
  791SOL    HW2 3235   1.148   3.089   1.658 -0.6197  1.9235  0.4239
  791SOL    HW3 3236   1.217   3.130   1.530 -1.0338 -0.3192 -0.5371
  791SOL    MW4 3237   1.149   3.096   1.572 -0.5567 -0.3755  0.2155
  792SOL     OW 3238   0.917   3.227   1.468 -0.0359 -0.1257 -0.2956
  792SOL    HW2 3239   0.998   3.189   1.500 -0.2205 -0.8806 -0.7312
  792SOL    HW3 3240   0.927   3.230   1.373 -0.3395  0.1956 -0.3210
  792SOL    MW4 3241   0.929   3.223   1.460 -0.1003 -0.1829 -0.3564
  793SOL     OW 3242   0.896   3.505   1.571  0.0744  0.0920 -0.3593
  793SOL    HW2 3243   0.986   3.536   1.561  0.7979 -2.0835 -0.9260
  793SOL    HW3 3244   0.893   3.423   1.522 -1.5929 -1.0201  1.5307
  793SOL    MW4 3245   0.908   3.498   1.563 -0.0501 -0.3419 -0.1847
  794SOL     OW 3246   1.135   3.664   1.525 -0.0063  0.0869 -0.1727
  794SOL    HW2 3247   1.214   3.610   1.529 -0.4602 -0.5602  0.2932
  794SOL    HW3 3248   1.105   3.657   1.435 -1.1995 -2.1257  0.3526
  794SOL    MW4 3249   1.141   3.656   1.514 -0.2236 -0.2906 -0.0421
  795SOL     OW 3250   1.137   3.934   1.613 -0.0017  0.8600 -0.3335
  795SOL    HW2 3251   1.206   3.984   1.570  0.1515  0.1338 -0.9366
  795SOL    HW3 3252   1.152   3.844   1.585 -1.1555  0.6895 -0.4072
  795SOL    MW4 3253   1.148   3.929   1.604 -0.1339  0.7417 -0.4227
  796SOL     OW 3254   0.919   4.044   1.489 -0.4558 -0.0344  0.0079
  796SOL    HW2 3255   0.906   4.137   1.506 -1.3190  0.0495 -1.0610
  796SOL    HW3 3256   0.997   4.021   1.540 -0.0073  1.3547 -0.0389
  796SOL    MW4 3257   0.928   4.053   1.498 -0.5105  0.1602 -0.1392
  797SOL     OW 3258   0.907   4.309   1.575  0.2789  0.0017 -0.4017
  797SOL    HW2 3259   0.905   4.300   1.671  0.0486  0.0460 -0.4021
  797SOL    HW3 3260   0.824   4.351   1.554  0.2024 -0.2833 -0.6527
  797SOL    MW4 3261   0.896   4.313   1.585  0.2384 -0.0300 -0.4349
  798SOL     OW 3262   1.122   4.463   1.484  0.3112 -0.3764  0.2500
  798SOL    HW2 3263   1.055   4.399   1.510  0.9284 -0.6386  1.2222
  798SOL    HW3 3264   1.105   4.540   1.538  0.8906 -0.5055  0.6233
  798SOL    MW4 3265   1.111   4.464   1.495  0.4691 -0.4287  0.4276
  799SOL     OW 3266   1.560   0.043   1.592  0.4443 -0.5828  0.1507
  799SOL    HW2 3267   1.555   0.020   1.684  1.0414 -0.2163  0.2737
  799SOL    HW3 3268   1.473   0.077   1.571  0.1070 -1.2791  0.4102
  799SOL    MW4 3269   1.548   0.045   1.601  0.4786 -0.6263  0.2011
  800SOL     OW 3270   1.312   0.148   1.518  0.5948 -0.1816  0.3457
  800SOL    HW2 3271   1.327   0.238   1.545  0.9441 -0.0228 -0.3619
  800SOL    HW3 3272   1.325   0.149   1.423 -2.2688 -0.3623 -0.1013
  800SOL    MW4 3273   1.316   0.160   1.509  0.2631 -0.1844  0.1932
  801SOL     OW 3274   1.312   0.419   1.640 -0.3950  0.3300  0.2973
  801SOL    HW2 3275   1.391   0.458   1.601 -0.3304  1.6160  1.6705
  801SOL    HW3 3276   1.239   0.464   1.596 -0.3345  0.3757  0.2436
  801SOL    MW4 3277   1.313   0.430   1.629 -0.3785  0.5057  0.4715
  802SOL     OW 3278   1.530   0.529   1.513 -0.3822  0.1315 -0.2348
  802SOL    HW2 3279   1.610   0.488   1.546  0.1349  0.7810 -0.6802
  802SOL    HW3 3280   1.541   0.530   1.418 -1.4608 -0.8861 -0.3855
  802SOL    MW4 3281   1.542   0.523   1.505 -0.4563  0.0829 -0.3134
  803SOL     OW 3282   1.525   0.791   1.609  0.1584  0.3814  0.0636
  803SOL    HW2 3283   1.530   0.795   1.704  0.8641 -0.2342  0.0558
  803SOL    HW3 3284   1.526   0.697   1.589  1.0641  0.5246 -0.5992
  803SOL    MW4 3285   1.526   0.779   1.619  0.3709  0.3189 -0.0249
  804SOL     OW 3286   1.295   0.913   1.504  0.0962  0.3174 -0.1682
  804SOL    HW2 3287   1.377   0.883   1.543  0.4002  1.1758 -0.1248
  804SOL    HW3 3288   1.316   0.926   1.411  0.1325  0.9430 -0.0767
  804SOL    MW4 3289   1.309   0.911   1.497  0.1411  0.5131 -0.1502
  805SOL     OW 3290   1.346   1.170   1.577  0.3513 -0.0009  0.1520
  805SOL    HW2 3291   1.332   1.173   1.671 -0.8378 -0.1536 -0.0128
  805SOL    HW3 3292   1.317   1.083   1.551 -0.4281  0.4594 -0.5251
  805SOL    MW4 3293   1.340   1.159   1.586  0.0916  0.0397  0.0409
  806SOL     OW 3294   1.601   1.294   1.503  0.4562  0.1441  0.1946
  806SOL    HW2 3295   1.514   1.265   1.531  0.4187  0.7741  0.7316
  806SOL    HW3 3296   1.590   1.318   1.411  0.9674 -3.5733 -0.9195
  806SOL    MW4 3297   1.588   1.294   1.495  0.5187 -0.2633  0.1185
  807SOL     OW 3298   1.562   1.559   1.621  0.2855  0.3148  0.3588
  807SOL    HW2 3299   1.567   1.562   1.717 -1.6452 -1.9654  0.5848
  807SOL    HW3 3300   1.577   1.467   1.600 -1.2217  0.4562 -1.4085
  807SOL    MW4 3301   1.565   1.547   1.631 -0.1681  0.0324  0.1553
  808SOL     OW 3302   1.381   1.711   1.505 -0.3422  0.3302  0.1319
  808SOL    HW2 3303   1.444   1.645   1.534 -1.9475 -0.4690  1.9383
  808SOL    HW3 3304   1.360   1.687   1.415  0.5247 -0.5090  0.1511
  808SOL    MW4 3305   1.386   1.699   1.497 -0.4395  0.1140  0.3729
  809SOL     OW 3306   1.347   1.979   1.573 -0.3462  0.1464  0.3938
  809SOL    HW2 3307   1.358   1.983   1.668 -0.4655  2.4701  0.3432
  809SOL    HW3 3308   1.376   1.891   1.549 -0.0402 -0.3621  2.5426
  809SOL    MW4 3309   1.353   1.968   1.583 -0.3215  0.3859  0.6707
  810SOL     OW 3310   1.578   2.091   1.445  0.4882 -0.3562 -0.0953
  810SOL    HW2 3311   1.498   2.057   1.484  1.0680  0.1677  1.5883
  810SOL    HW3 3312   1.567   2.077   1.351 -2.0161  0.6402  0.0248
  810SOL    MW4 3313   1.566   2.085   1.438  0.2342 -0.1557  0.1426
  811SOL     OW 3314   1.587   2.332   1.559 -0.4872 -0.0419 -0.3181
  811SOL    HW2 3315   1.669   2.375   1.536 -1.0791  1.3824  0.1730
  811SOL    HW3 3316   1.591   2.247   1.516  1.2152  0.0439 -0.3485
  811SOL    MW4 3317   1.598   2.326   1.550 -0.3406  0.1574 -0.2574
  812SOL     OW 3318   1.359   2.460   1.492  0.1698  0.2717 -0.0266
  812SOL    HW2 3319   1.362   2.554   1.509  1.2836 -0.1147  2.0702
  812SOL    HW3 3320   1.442   2.427   1.527 -0.0996 -1.4562 -0.9660
  812SOL    MW4 3321   1.371   2.468   1.499  0.2812 -0.0076  0.1261
  813SOL     OW 3322   1.317   2.746   1.573  0.1298  0.4629 -0.1542
  813SOL    HW2 3323   1.387   2.799   1.536 -0.2541  0.8764 -0.2946
  813SOL    HW3 3324   1.236   2.789   1.545 -0.1711  0.7241  1.0579
  813SOL    MW4 3325   1.315   2.758   1.565  0.0395  0.5522 -0.0128
  814SOL     OW 3326   1.543   2.897   1.478 -0.4347 -0.0943 -0.1281
  814SOL    HW2 3327   1.617   2.852   1.517  1.3560  2.1915 -0.7624
  814SOL    HW3 3328   1.554   2.886   1.384  0.2560  1.9533 -0.3093
  814SOL    MW4 3329   1.554   2.890   1.471 -0.1074  0.4773 -0.2356
  815SOL     OW 3330   1.556   3.141   1.618  0.3834  0.0450 -0.0986
  815SOL    HW2 3331   1.635   3.176   1.578 -0.0466  0.3763 -0.6693
  815SOL    HW3 3332   1.537   3.061   1.568  0.6651 -0.3284  0.3914
  815SOL    MW4 3333   1.564   3.135   1.606  0.3638  0.0393 -0.1094
  816SOL     OW 3334   1.351   3.222   1.461 -0.2083 -0.0614  0.6146
  816SOL    HW2 3335   1.341   3.312   1.491  0.4288  0.2370 -0.0504
  816SOL    HW3 3336   1.420   3.185   1.516  0.3986  0.2396  0.0588
  816SOL    MW4 3337   1.358   3.229   1.472 -0.0441  0.0176  0.4536
  817SOL     OW 3338   1.350   3.493   1.555  0.2065  0.3510 -0.2469
  817SOL    HW2 3339   1.353   3.493   1.651 -1.0494  0.5246 -0.1991
  817SOL    HW3 3340   1.436   3.526   1.529  1.0307 -0.9004  0.7879
  817SOL    MW4 3341   1.362   3.497   1.564  0.1495  0.2089 -0.1041
  818SOL     OW 3342   1.561   3.655   1.462  0.2650 -0.2704  0.0423
  818SOL    HW2 3343   1.566   3.746   1.490  1.5133 -0.2686 -0.1564
  818SOL    HW3 3344   1.557   3.659   1.366  0.9967 -0.4364 -0.0014
  818SOL    MW4 3345   1.562   3.667   1.453  0.5261 -0.2921  0.0104
  819SOL     OW 3346   1.551   3.940   1.543 -0.0114 -0.1367  0.1588
  819SOL    HW2 3347   1.561   3.938   1.638 -0.6252 -1.3908  0.2136
  819SOL    HW3 3348   1.476   3.998   1.528  0.2102  0.2172  0.4264
  819SOL    MW4 3349   1.542   3.947   1.553 -0.0633 -0.2558  0.2013
  820SOL     OW 3350   1.329   4.083   1.483  0.1937 -0.6868 -0.0153
  820SOL    HW2 3351   1.343   4.175   1.504 -2.3973 -0.2605  0.0162
  820SOL    HW3 3352   1.362   4.073   1.394  1.2191  0.0622  0.2686
  820SOL    MW4 3353   1.335   4.093   1.474 -0.0130 -0.5317  0.0265
  821SOL     OW 3354   1.365   4.341   1.566 -0.4146 -0.3551 -0.2790
  821SOL    HW2 3355   1.435   4.395   1.528 -0.7399 -0.4056 -0.9641
  821SOL    HW3 3356   1.284   4.387   1.543 -0.5659  0.1020  1.1636
  821SOL    MW4 3357   1.363   4.354   1.558 -0.4774 -0.3018 -0.1791
  822SOL     OW 3358   1.584   4.463   1.459 -0.6801 -0.0726  0.1287
  822SOL    HW2 3359   1.656   4.418   1.503 -0.8036 -0.1545  0.2464
  822SOL    HW3 3360   1.578   4.548   1.504  0.8189  0.8528 -1.3575
  822SOL    MW4 3361   1.593   4.468   1.471 -0.4987  0.0386 -0.0519
  823SOL     OW 3362   2.012   4.662   1.605 -0.5278  0.0786  0.4706
  823SOL    HW2 3363   2.008   4.651   1.700 -0.7984  0.4299  0.5039
  823SOL    HW3 3364   1.946   4.730   1.587 -0.6010 -0.1176  0.0145
  823SOL    MW4 3365   2.002   4.670   1.615 -0.5732  0.0991  0.4146
  824SOL     OW 3366   1.799   0.167   1.481 -0.4408  0.3368 -0.7718
  824SOL    HW2 3367   1.718   0.135   1.522 -0.6216 -0.5496 -1.8146
  824SOL    HW3 3368   1.786   0.152   1.388  0.1225  2.0290 -1.1479
  824SOL    MW4 3369   1.786   0.161   1.474 -0.3904  0.4431 -0.9590
  825SOL     OW 3370   1.769   0.419   1.595  0.1162  0.7225 -0.2457
  825SOL    HW2 3371   1.840   0.473   1.559  0.8781 -1.0016 -1.3411
  825SOL    HW3 3372   1.778   0.335   1.552 -2.2041  0.2621  0.1215
  825SOL    MW4 3373   1.780   0.415   1.585 -0.0893  0.4343 -0.3419
  826SOL     OW 3374   1.989   0.550   1.488 -0.1881 -0.3206  0.2261
  826SOL    HW2 3375   2.061   0.500   1.525  0.0723 -1.0698 -1.2529
  826SOL    HW3 3376   1.999   0.638   1.524  2.7923  0.1889 -1.6935
  826SOL    MW4 3377   2.000   0.555   1.497  0.2395 -0.3523 -0.2223
  827SOL     OW 3378   1.968   0.814   1.585 -0.1190 -0.2437 -0.0909
  827SOL    HW2 3379   2.042   0.846   1.533 -0.8255  0.4976 -0.6642
  827SOL    HW3 3380   1.891   0.844   1.537 -0.7945 -1.2533  0.3484
  827SOL    MW4 3381   1.967   0.822   1.572 -0.3014 -0.2791 -0.1084
  828SOL     OW 3382   1.754   0.910   1.455  0.2779  0.2555 -0.0322
  828SOL    HW2 3383   1.773   0.997   1.489  0.8700  0.7320 -1.5624
  828SOL    HW3 3384   1.690   0.874   1.517  0.1838  1.6850  0.7234
  828SOL    MW4 3385   1.748   0.917   1.468  0.3436  0.5070 -0.1346
  829SOL     OW 3386   1.801   1.133   1.602 -0.0587  0.3878  0.1416
  829SOL    HW2 3387   1.882   1.175   1.573 -0.1349  1.7603  1.8372
  829SOL    HW3 3388   1.732   1.194   1.578 -0.8211 -1.4974 -2.7600
  829SOL    MW4 3389   1.803   1.146   1.595 -0.1695  0.3201 -0.0176
  830SOL     OW 3390   1.999   1.292   1.470 -0.2859  0.4173  0.2036
  830SOL    HW2 3391   1.993   1.380   1.507 -2.3286 -0.0341  1.0172
  830SOL    HW3 3392   2.003   1.306   1.376 -2.0803  1.3624  0.2392
  830SOL    MW4 3393   1.999   1.305   1.463 -0.7920  0.4823  0.3157
  831SOL     OW 3394   2.022   1.577   1.550 -0.1491  0.1042  0.1618
  831SOL    HW2 3395   2.095   1.631   1.520 -0.5514  0.6061  0.0848
  831SOL    HW3 3396   1.946   1.636   1.549 -0.2457  0.0180  1.7969
  831SOL    MW4 3397   2.022   1.592   1.546 -0.2146  0.1589  0.3673
  832SOL     OW 3398   1.781   1.720   1.515 -0.0702 -0.2876  0.3760
  832SOL    HW2 3399   1.701   1.670   1.532 -0.0412 -0.5467 -0.2291
  832SOL    HW3 3400   1.787   1.724   1.420 -1.0514  2.4786  0.3927
  832SOL    MW4 3401   1.771   1.714   1.505 -0.1959  0.0430  0.2984
  833SOL     OW 3402   1.741   1.963   1.645  0.5118  0.1793 -0.5095
  833SOL    HW2 3403   1.727   1.875   1.610 -0.0495  0.3988 -0.8529
  833SOL    HW3 3404   1.688   2.019   1.588  0.4509  0.6723  0.0311
  833SOL    MW4 3405   1.732   1.959   1.632  0.4295  0.2733 -0.4835
  834SOL     OW 3406   1.985   2.088   1.539 -0.6307  0.0560 -0.1436
  834SOL    HW2 3407   2.068   2.060   1.577 -0.3289  0.4846 -0.4809
  834SOL    HW3 3408   1.919   2.039   1.588 -0.2323  0.3332  0.6838
  834SOL    MW4 3409   1.987   2.078   1.550 -0.5383  0.1493 -0.0790
  835SOL     OW 3410   2.030   2.353   1.604 -0.1623 -0.0896  0.3305
  835SOL    HW2 3411   2.026   2.356   1.700  0.8341 -0.1563  0.3773
  835SOL    HW3 3412   2.002   2.264   1.582  1.0393 -0.5637  0.6506
  835SOL    MW4 3413   2.026   2.341   1.614  0.1278 -0.1612  0.3790
  836SOL     OW 3414   1.802   2.482   1.486 -0.3405  0.3442  0.1953
  836SOL    HW2 3415   1.882   2.444   1.522 -0.9969 -1.6491 -0.3949
  836SOL    HW3 3416   1.823   2.501   1.395 -0.2104  0.8592  0.3279
  836SOL    MW4 3417   1.816   2.480   1.479 -0.4100  0.1493  0.1349
  837SOL     OW 3418   1.756   2.739   1.584 -0.3555 -0.1479  0.1413
  837SOL    HW2 3419   1.840   2.779   1.561 -0.6335 -0.2103 -0.9743
  837SOL    HW3 3420   1.764   2.648   1.557 -0.8291 -0.1264 -0.0729
  837SOL    MW4 3421   1.768   2.732   1.578 -0.4547 -0.1533 -0.0341
  838SOL     OW 3422   2.003   2.870   1.548 -0.2618 -0.0830 -0.3223
  838SOL    HW2 3423   2.016   2.962   1.573 -2.8198  0.3029 -0.2982
  838SOL    HW3 3424   2.011   2.870   1.452  0.1165  0.0917 -0.2930
  838SOL    MW4 3425   2.006   2.882   1.539 -0.5493 -0.0091 -0.3153
  839SOL     OW 3426   2.018   3.145   1.582 -0.3988  0.3489 -0.2773
  839SOL    HW2 3427   2.009   3.162   1.676 -1.3687 -0.2109 -0.2606
  839SOL    HW3 3428   2.105   3.178   1.560  0.6388 -1.2921  1.2039
  839SOL    MW4 3429   2.028   3.152   1.592 -0.3901  0.0582 -0.0796
  840SOL     OW 3430   1.781   3.262   1.490  0.4686 -0.4102  0.2469
  840SOL    HW2 3431   1.788   3.353   1.520 -0.8303  0.2980 -1.4877
  840SOL    HW3 3432   1.861   3.220   1.522  0.3837  0.9437  2.3771
  840SOL    MW4 3433   1.792   3.269   1.498  0.2860 -0.1380  0.2991
  841SOL     OW 3434   1.783   3.532   1.552 -0.4697 -0.1141 -0.0113
  841SOL    HW2 3435   1.765   3.532   1.646  0.6782  1.1587  0.2267
  841SOL    HW3 3436   1.708   3.576   1.512  0.0807  1.3316  0.5325
  841SOL    MW4 3437   1.771   3.538   1.559 -0.2457  0.2446  0.0917
  842SOL     OW 3438   2.028   3.691   1.482 -0.5719  0.2889  0.6120
  842SOL    HW2 3439   2.100   3.639   1.518 -0.3110  0.8195  0.8663
  842SOL    HW3 3440   1.949   3.642   1.504 -0.2404 -0.6915 -0.3433
  842SOL    MW4 3441   2.027   3.677   1.490 -0.4938  0.2296  0.5196
  843SOL     OW 3442   2.019   3.944   1.575 -0.1923 -0.1086 -0.4206
  843SOL    HW2 3443   2.110   3.972   1.566  0.1005 -0.8136  0.2440
  843SOL    HW3 3444   2.018   3.856   1.538 -0.2983 -0.6321  0.7960
  843SOL    MW4 3445   2.031   3.936   1.569 -0.1678 -0.2708 -0.1724
  844SOL     OW 3446   1.825   4.075   1.451 -0.1817 -0.6994 -0.1214
  844SOL    HW2 3447   1.900   4.042   1.500 -1.3550  0.6225  2.7033
  844SOL    HW3 3448   1.755   4.013   1.470 -0.5526 -0.3775 -0.4206
  844SOL    MW4 3449   1.825   4.062   1.460 -0.3854 -0.4826  0.2118
  845SOL     OW 3450   1.786   4.299   1.592 -0.0108  0.2748  0.3027
  845SOL    HW2 3451   1.856   4.358   1.564 -0.7404  1.0560  0.0848
  845SOL    HW3 3452   1.793   4.224   1.534  0.6812  0.3230  0.3167
  845SOL    MW4 3453   1.796   4.297   1.581 -0.0157  0.3843  0.2760
  846SOL     OW 3454   2.011   4.441   1.449 -0.4412 -0.3474 -0.3501
  846SOL    HW2 3455   2.098   4.408   1.470 -0.3896 -0.4817 -0.7592
  846SOL    HW3 3456   2.009   4.529   1.486  0.1746 -0.0239 -1.0628
  846SOL    MW4 3457   2.022   4.448   1.457 -0.3531 -0.3228 -0.4981
  847SOL     OW 3458   2.453   0.020   1.595  0.1138  0.3491 -0.1470
  847SOL    HW2 3459   2.458   0.008   1.690 -0.0522  0.3406 -0.1382
  847SOL    HW3 3460   2.370   0.066   1.581  0.3335  0.7061 -0.2567
  847SOL    MW4 3461   2.443   0.024   1.606  0.1211  0.3951 -0.1603
  848SOL     OW 3462   2.224   0.149   1.499 -0.0704 -0.1882 -0.4438
  848SOL    HW2 3463   2.153   0.106   1.547  0.3516 -0.6793 -0.2500
  848SOL    HW3 3464   2.205   0.130   1.407  0.4690 -1.3665 -0.3261
  848SOL    MW4 3465   2.212   0.141   1.493  0.0565 -0.4085 -0.4025
  849SOL     OW 3466   2.226   0.405   1.575  0.0589 -0.1150 -0.0641
  849SOL    HW2 3467   2.222   0.398   1.670 -1.7565 -0.1361 -0.1310
  849SOL    HW3 3468   2.218   0.315   1.543  0.7938 -0.1215 -0.2364
  849SOL    MW4 3469   2.224   0.392   1.583 -0.0839 -0.1186 -0.0957
  850SOL     OW 3470   2.480   0.544   1.496  0.5515  0.3849 -0.1302
  850SOL    HW2 3471   2.552   0.488   1.525 -0.5831 -1.5671 -1.0551
  850SOL    HW3 3472   2.401   0.498   1.523 -0.4049  1.1941 -1.4977
  850SOL    MW4 3473   2.479   0.531   1.503  0.2754  0.2341 -0.4327
  851SOL     OW 3474   2.444   0.815   1.568  0.1333 -0.1296 -0.4023
  851SOL    HW2 3475   2.361   0.845   1.531  1.1634  0.7935 -2.0638
  851SOL    HW3 3476   2.451   0.724   1.539  0.0892  0.0456 -0.9721
  851SOL    MW4 3477   2.434   0.807   1.559  0.2637  0.0153 -0.6967
  852SOL     OW 3478   2.203   0.908   1.458  0.3579 -0.1184  0.4749
  852SOL    HW2 3479   2.212   0.998   1.489 -0.2389  0.0438  0.1754
  852SOL    HW3 3480   2.243   0.908   1.371  1.8798 -0.5347  1.1550
  852SOL    MW4 3481   2.210   0.920   1.451  0.4797 -0.1519  0.5252
  853SOL     OW 3482   2.224   1.170   1.559  0.0681 -0.2357 -0.0589
  853SOL    HW2 3483   2.250   1.199   1.647  0.9153  2.1728 -1.0715
  853SOL    HW3 3484   2.145   1.222   1.540 -0.6533 -1.4317 -0.3585
  853SOL    MW4 3485   2.217   1.181   1.568  0.0846 -0.0756 -0.2321
  854SOL     OW 3486   2.447   1.329   1.490 -0.0301  0.1200  0.0872
  854SOL    HW2 3487   2.375   1.268   1.506 -0.2690 -0.0133 -1.4526
  854SOL    HW3 3488   2.471   1.314   1.399  0.4176  1.7945 -0.0758
  854SOL    MW4 3489   2.440   1.319   1.480 -0.0024  0.3233 -0.1374
  855SOL     OW 3490   2.480   1.596   1.594  0.2083 -0.3266  0.1928
  855SOL    HW2 3491   2.560   1.631   1.557  0.6196  0.2109  1.5795
  855SOL    HW3 3492   2.477   1.505   1.562  1.7177 -0.5662  0.6856
  855SOL    MW4 3493   2.490   1.588   1.585  0.4613 -0.2872  0.4408
  856SOL     OW 3494   2.244   1.730   1.506 -0.1902  0.0475  0.4058
  856SOL    HW2 3495   2.305   1.669   1.548  0.7468  1.1256  0.6486
  856SOL    HW3 3496   2.266   1.726   1.413 -0.9223 -0.8557  0.2678
  856SOL    MW4 3497   2.255   1.721   1.499 -0.1631  0.0705  0.4196
  857SOL     OW 3498   2.247   1.995   1.595  0.1539  0.4052 -0.0440
  857SOL    HW2 3499   2.267   1.989   1.688  0.6901 -0.3144 -0.1987
  857SOL    HW3 3500   2.258   1.905   1.562 -0.1946  0.6204 -0.7636
  857SOL    MW4 3501   2.251   1.982   1.603  0.1788  0.3387 -0.1594
  858SOL     OW 3502   2.484   2.089   1.483  0.1214  0.1252 -0.7947
  858SOL    HW2 3503   2.414   2.037   1.522  1.2184 -2.3910 -2.0683
  858SOL    HW3 3504   2.465   2.088   1.389  0.3941  1.7083 -0.8801
  858SOL    MW4 3505   2.472   2.082   1.476  0.3021  0.0021 -0.9739
  859SOL     OW 3506   2.477   2.366   1.608  0.6259  0.0325  0.0728
  859SOL    HW2 3507   2.486   2.356   1.702 -1.6619  1.8149  0.5267
  859SOL    HW3 3508   2.480   2.277   1.573  1.6847 -0.6164  1.7887
  859SOL    MW4 3509   2.479   2.353   1.616  0.4637  0.1819  0.3589
  860SOL     OW 3510   2.268   2.502   1.501  0.3517 -0.0540  0.0377
  860SOL    HW2 3511   2.343   2.450   1.529  0.6460 -0.6037 -1.7091
  860SOL    HW3 3512   2.194   2.467   1.550  1.0996 -0.0116  1.2039
  860SOL    MW4 3513   2.268   2.491   1.511  0.4895 -0.1209 -0.0389
  861SOL     OW 3514   2.233   2.745   1.626  0.0621  0.0945  0.4997
  861SOL    HW2 3515   2.245   2.661   1.582  0.5950  0.3778  0.1056
  861SOL    HW3 3516   2.150   2.778   1.593  0.1499  0.0096  0.1990
  861SOL    MW4 3517   2.224   2.738   1.616  0.1440  0.1209  0.4081
  862SOL     OW 3518   2.437   2.886   1.512 -0.0949 -0.2058 -0.0055
  862SOL    HW2 3519   2.447   2.972   1.550 -0.3255  0.1717 -0.7815
  862SOL    HW3 3520   2.353   2.854   1.545 -0.7326  0.5023 -0.9150
  862SOL    MW4 3521   2.427   2.893   1.521 -0.2093 -0.0625 -0.2278
  863SOL     OW 3522   2.503   3.124   1.617  0.3938 -0.1619  0.0027
  863SOL    HW2 3523   2.579   3.160   1.572 -0.0873  0.8601 -0.0161
  863SOL    HW3 3524   2.433   3.187   1.599  0.0405 -0.0491  1.6723
  863SOL    MW4 3525   2.503   3.137   1.609  0.2835 -0.0122  0.2204
  864SOL     OW 3526   2.269   3.235   1.513 -0.7052  0.2389 -0.0216
  864SOL    HW2 3527   2.260   3.329   1.527  3.0477  0.7180 -0.4059
  864SOL    HW3 3528   2.273   3.224   1.419  0.2827 -0.1725  0.0695
  864SOL    MW4 3529   2.268   3.246   1.503 -0.0799  0.2477 -0.0602
  865SOL     OW 3530   2.225   3.504   1.590  0.1992 -0.2388 -0.0045
  865SOL    HW2 3531   2.217   3.501   1.686 -0.3691 -0.0970 -0.0467
  865SOL    HW3 3532   2.298   3.563   1.574  0.9789 -1.0861  0.3716
  865SOL    MW4 3533   2.234   3.511   1.601  0.2270 -0.3321  0.0395
  866SOL     OW 3534   2.462   3.642   1.527  0.2049  0.4220  0.0577
  866SOL    HW2 3535   2.545   3.603   1.555  0.7331  0.9054 -0.7876
  866SOL    HW3 3536   2.476   3.737   1.536  0.2552  0.5699 -1.4333
  866SOL    MW4 3537   2.475   3.650   1.532  0.2809  0.5054 -0.2505
  867SOL     OW 3538   2.482   3.922   1.589  0.0505  0.1611 -0.3128
  867SOL    HW2 3539   2.500   3.901   1.681 -0.2944 -0.0100 -0.2823
  867SOL    HW3 3540   2.561   3.967   1.559  0.3981 -0.3041 -0.0981
  867SOL    MW4 3541   2.495   3.925   1.597  0.0508  0.0772 -0.2804
  868SOL     OW 3542   2.255   4.055   1.523  0.6035  0.1229  0.1307
  868SOL    HW2 3543   2.334   4.008   1.549 -0.3309 -0.5627  1.8056
  868SOL    HW3 3544   2.249   4.041   1.428  0.4609 -3.0412  0.5366
  868SOL    MW4 3545   2.265   4.047   1.514  0.4616 -0.3858  0.4053
  869SOL     OW 3546   2.242   4.331   1.576 -0.3952 -0.0940  0.3514
  869SOL    HW2 3547   2.323   4.378   1.553 -0.8451 -0.0903 -1.3204
  869SOL    HW3 3548   2.256   4.242   1.544 -1.2287  0.0246 -0.3680
  869SOL    MW4 3549   2.255   4.325   1.568 -0.5648 -0.0777  0.0360
  870SOL     OW 3550   2.477   4.435   1.477  0.3876  0.1707  0.1515
  870SOL    HW2 3551   2.482   4.523   1.515  0.5742  0.1747  0.1141
  870SOL    HW3 3552   2.462   4.450   1.384 -2.0921  0.1676  0.4945
  870SOL    MW4 3553   2.475   4.449   1.470  0.0846  0.1712  0.1918
  871SOL     OW 3554   2.908   0.008   1.541  0.1125 -0.1037 -0.3613
  871SOL    HW2 3555   2.913   0.021   1.636  0.1582  1.2676 -0.5461
  871SOL    HW3 3556   2.838   0.066   1.512  1.3313  0.8716 -1.4092
  871SOL    MW4 3557   2.899   0.017   1.550  0.2794  0.2055 -0.5239
  872SOL     OW 3558   2.661   0.126   1.447 -0.4897 -0.3336 -0.2475
  872SOL    HW2 3559   2.674   0.215   1.479  0.9070 -1.3941  2.2790
  872SOL    HW3 3560   2.578   0.098   1.485 -0.7068 -0.2522 -0.6660
  872SOL    MW4 3561   2.652   0.134   1.456 -0.3340 -0.4628  0.0306
  873SOL     OW 3562   2.703   0.388   1.554 -0.1737  0.5121  0.6372
  873SOL    HW2 3563   2.697   0.383   1.649 -0.0172 -0.9582  0.5835
  873SOL    HW3 3564   2.783   0.439   1.537 -1.1538  2.2976  1.2797
  873SOL    MW4 3565   2.713   0.394   1.564 -0.2825  0.5537  0.7150
  874SOL     OW 3566   2.951   0.535   1.503 -0.7086  0.5247  0.3875
  874SOL    HW2 3567   2.952   0.628   1.527  0.9353  0.9709 -1.2940
  874SOL    HW3 3568   2.964   0.535   1.408 -2.4662 -1.3660  0.1207
  874SOL    MW4 3569   2.953   0.547   1.494 -0.7236  0.3341  0.1304
  875SOL     OW 3570   2.918   0.801   1.587  0.6859 -0.1599  0.0874
  875SOL    HW2 3571   2.905   0.784   1.681  1.3570 -2.4805 -0.1925
  875SOL    HW3 3572   2.838   0.847   1.560 -0.4062 -1.2235  1.4029
  875SOL    MW4 3573   2.905   0.804   1.596  0.6304 -0.6064  0.2241
  876SOL     OW 3574   2.680   0.905   1.480  0.7553 -0.2647  0.0358
  876SOL    HW2 3575   2.590   0.882   1.502 -0.0440  2.5211 -0.1799
  876SOL    HW3 3576   2.684   0.894   1.385  0.5759 -0.1911  0.0185
  876SOL    MW4 3577   2.669   0.900   1.470  0.6263  0.1126  0.0050
  877SOL     OW 3578   2.647   1.162   1.630 -0.3947 -0.2021  0.4869
  877SOL    HW2 3579   2.636   1.078   1.586 -0.3168  0.5090 -0.9153
  877SOL    HW3 3580   2.592   1.223   1.581 -1.0864  0.4109  1.9760
  877SOL    MW4 3581   2.638   1.159   1.618 -0.4759 -0.0274  0.4983
  878SOL     OW 3582   2.892   1.293   1.529  0.0087  0.7440  0.3034
  878SOL    HW2 3583   2.973   1.246   1.550  0.1921 -0.0170 -1.9201
  878SOL    HW3 3584   2.823   1.241   1.571  0.3474 -0.7416 -0.9215
  878SOL    MW4 3585   2.893   1.280   1.537  0.0780  0.4475 -0.1515
  879SOL     OW 3586   2.890   1.544   1.627 -0.3510 -0.3109 -0.0235
  879SOL    HW2 3587   2.823   1.601   1.588  1.1549  0.0522 -2.1384
  879SOL    HW3 3588   2.878   1.459   1.585  0.0045 -0.4732  0.1935
  879SOL    MW4 3589   2.880   1.540   1.617 -0.1054 -0.2843 -0.2741
  880SOL     OW 3590   2.709   1.712   1.467  0.1532  0.0760  0.4719
  880SOL    HW2 3591   2.716   1.799   1.507  0.8314  0.2363  0.0065
  880SOL    HW3 3592   2.725   1.726   1.374  0.3300 -0.5554  0.4015
  880SOL    MW4 3593   2.712   1.725   1.460  0.2658  0.0137  0.4013
  881SOL     OW 3594   2.709   1.961   1.578  0.2473  0.0230 -0.0816
  881SOL    HW2 3595   2.704   1.981   1.672  0.3824 -0.3939  0.0139
  881SOL    HW3 3596   2.627   1.994   1.543 -0.0301 -0.2802  0.2731
  881SOL    MW4 3597   2.697   1.968   1.586  0.2284 -0.0720 -0.0223
  882SOL     OW 3598   2.927   2.105   1.504 -0.0765 -0.4812  0.1176
  882SOL    HW2 3599   2.916   2.195   1.536  0.0087 -0.4313  0.0067
  882SOL    HW3 3600   2.848   2.059   1.532 -1.1207  0.1711 -1.6817
  882SOL    MW4 3601   2.915   2.111   1.512 -0.2031 -0.3886 -0.1343
  883SOL     OW 3602   2.909   2.355   1.619 -0.4981 -0.0872  0.0361
  883SOL    HW2 3603   2.893   2.346   1.713 -2.1502 -0.6023 -0.2654
  883SOL    HW3 3604   2.833   2.403   1.587  0.3731  0.6525 -0.9421
  883SOL    MW4 3605   2.897   2.360   1.627 -0.6011 -0.0577 -0.1327
  884SOL     OW 3606   2.689   2.520   1.520 -0.0029 -0.2020 -0.1640
  884SOL    HW2 3607   2.676   2.601   1.571 -1.3991  0.1017 -0.9724
  884SOL    HW3 3608   2.617   2.463   1.547  0.7192 -1.0084  0.0675
  884SOL    MW4 3609   2.678   2.523   1.530 -0.0920 -0.2682 -0.2402
  885SOL     OW 3610   2.673   2.778   1.618  0.3241 -0.3608 -0.1981
  885SOL    HW2 3611   2.744   2.824   1.574  1.5565 -1.4447  0.6031
  885SOL    HW3 3612   2.593   2.820   1.587  1.3890  1.9159  0.0892
  885SOL    MW4 3613   2.672   2.789   1.608  0.6275 -0.2034 -0.0545
  886SOL     OW 3614   2.908   2.908   1.534  0.0670 -0.0933  0.1161
  886SOL    HW2 3615   2.974   2.861   1.585  1.4506  0.6896 -0.8985
  886SOL    HW3 3616   2.924   3.000   1.555 -1.5435  0.0396  0.8255
  886SOL    MW4 3617   2.919   2.914   1.544  0.0372  0.0277  0.0758
  887SOL     OW 3618   2.952   3.164   1.636 -0.0578 -0.0280  0.5757
  887SOL    HW2 3619   2.953   3.152   1.731  0.9441 -0.9878  0.4572
  887SOL    HW3 3620   3.041   3.195   1.615 -0.6933  1.5498  0.1086
  887SOL    MW4 3621   2.964   3.167   1.646 -0.0093  0.0536  0.4984
  888SOL     OW 3622   2.718   3.272   1.517  0.0844 -0.0625 -0.0411
  888SOL    HW2 3623   2.799   3.243   1.559  0.1333  0.0266 -0.0739
  888SOL    HW3 3624   2.729   3.249   1.425  0.2268  0.2835 -0.1121
  888SOL    MW4 3625   2.730   3.265   1.510  0.1097 -0.0050 -0.0547
  889SOL     OW 3626   2.692   3.538   1.596 -0.4466  0.7160 -0.0771
  889SOL    HW2 3627   2.694   3.523   1.691 -1.0496  0.4671 -0.1024
  889SOL    HW3 3628   2.704   3.451   1.558 -1.5140  0.6227 -0.2224
  889SOL    MW4 3629   2.694   3.525   1.604 -0.6669  0.6709 -0.0995
  890SOL     OW 3630   2.925   3.636   1.505 -0.2257 -0.1490  0.1010
  890SOL    HW2 3631   2.843   3.605   1.543 -0.0440 -0.5639  0.1595
  890SOL    HW3 3632   2.905   3.648   1.412  0.0019 -1.5002 -0.1256
  890SOL    MW4 3633   2.912   3.633   1.498 -0.1714 -0.3822  0.0789
  891SOL     OW 3634   2.964   3.906   1.586 -0.7571  0.4717  0.0324
  891SOL    HW2 3635   2.887   3.947   1.545 -1.4842 -1.5845 -0.7035
  891SOL    HW3 3636   2.959   3.814   1.560  2.2996  0.4218 -0.5245
  891SOL    MW4 3637   2.953   3.900   1.577 -0.4497  0.1936 -0.1384
  892SOL     OW 3638   2.715   4.025   1.495  0.2530 -0.1067 -0.4284
  892SOL    HW2 3639   2.735   4.112   1.531 -0.9411 -0.0020  0.0131
  892SOL    HW3 3640   2.701   4.041   1.401 -0.2582  0.2359 -0.2978
  892SOL    MW4 3641   2.715   4.039   1.487  0.0279 -0.0477 -0.3531
  893SOL     OW 3642   2.707   4.296   1.571 -0.0621  0.0702  0.4823
  893SOL    HW2 3643   2.783   4.347   1.541  0.4929 -1.4598 -0.7917
  893SOL    HW3 3644   2.632   4.354   1.555  0.7337  1.2319  0.8743
  893SOL    MW4 3645   2.707   4.310   1.565  0.1161  0.0219  0.3660
  894SOL     OW 3646   2.945   4.399   1.478  0.0985  0.1278 -0.2062
  894SOL    HW2 3647   2.937   4.487   1.514  1.2428  0.1171  0.1173
  894SOL    HW3 3648   2.920   4.407   1.386 -1.1736  0.4996  0.1613
  894SOL    MW4 3649   2.941   4.412   1.471  0.0818  0.1755 -0.1150
  895SOL     OW 3650   3.349   0.002   1.653 -0.2860 -0.5650 -0.1397
  895SOL    HW2 3651   3.426   0.048   1.618 -0.4852 -0.2411 -0.1527
  895SOL    HW3 3652   3.363  -0.090   1.628 -0.0976 -0.4434 -0.4856
  895SOL    MW4 3653   3.361  -0.004   1.645 -0.2875 -0.5064 -0.1870
  896SOL     OW 3654   3.152   0.137   1.496  0.7057  0.1217 -0.1776
  896SOL    HW2 3655   3.215   0.080   1.540  0.7457 -0.4424 -0.9486
  896SOL    HW3 3656   3.068   0.095   1.511  0.5410  0.7143  0.5959
  896SOL    MW4 3657   3.149   0.124   1.504  0.6890  0.1255 -0.1773
  897SOL     OW 3658   3.192   0.412   1.562  0.3734  0.2365 -0.2076
  897SOL    HW2 3659   3.184   0.319   1.537  0.8446  0.4744 -1.2825
  897SOL    HW3 3660   3.105   0.448   1.548  0.2749  0.0258 -0.1301
  897SOL    MW4 3661   3.180   0.404   1.557  0.4227  0.2401 -0.3392
  898SOL     OW 3662   3.419   0.512   1.480 -0.3713  0.7175 -0.2227
  898SOL    HW2 3663   3.332   0.477   1.496  0.2647 -0.9204 -0.1720
  898SOL    HW3 3664   3.430   0.506   1.385  1.0459 -2.5918  0.0747
  898SOL    MW4 3665   3.409   0.506   1.470 -0.1001  0.0647 -0.1765
  899SOL     OW 3666   3.353   0.755   1.573  0.0561  0.1817 -0.1506
  899SOL    HW2 3667   3.369   0.740   1.666  0.3856 -0.2939 -0.2864
  899SOL    HW3 3668   3.367   0.670   1.532 -0.9199  0.1958 -0.5264
  899SOL    MW4 3669   3.357   0.742   1.580 -0.0293  0.1208 -0.2183
  900SOL     OW 3670   3.139   0.898   1.452 -0.0204 -0.5377 -0.0880
  900SOL    HW2 3671   3.215   0.853   1.488 -0.6990 -1.4821  0.1931
  900SOL    HW3 3672   3.064   0.856   1.495 -0.6979  0.4039 -0.3303
  900SOL    MW4 3673   3.139   0.887   1.463 -0.1993 -0.5381 -0.0829
  901SOL     OW 3674   3.133   1.159   1.568  0.1231 -0.5982  0.0182
  901SOL    HW2 3675   3.141   1.158   1.663  0.0301 -0.2943  0.0293
  901SOL    HW3 3676   3.151   1.069   1.541  0.7688 -0.5440  0.2693
  901SOL    MW4 3677   3.136   1.147   1.577  0.1962 -0.5510  0.0528
  902SOL     OW 3678   3.343   1.308   1.487  0.2199 -0.3663  0.0543
  902SOL    HW2 3679   3.419   1.265   1.526 -0.1871  0.5918  1.9982
  902SOL    HW3 3680   3.267   1.261   1.523 -0.2007  1.3954  1.5689
  902SOL    MW4 3681   3.343   1.296   1.497  0.1109 -0.0074  0.5106
  903SOL     OW 3682   3.336   1.585   1.622  0.5612  0.1875 -0.2368
  903SOL    HW2 3683   3.347   1.585   1.717 -0.6867 -0.3060 -0.0959
  903SOL    HW3 3684   3.353   1.495   1.596 -0.5593  0.0068 -0.3239
  903SOL    MW4 3685   3.340   1.574   1.631  0.2487  0.0985 -0.2296
  904SOL     OW 3686   3.089   1.676   1.479  0.3769 -0.1316 -0.0686
  904SOL    HW2 3687   3.170   1.669   1.529  0.3112 -0.9423 -0.0673
  904SOL    HW3 3688   3.030   1.612   1.520 -0.7571  1.4702  0.8544
  904SOL    MW4 3689   3.092   1.666   1.491  0.2186 -0.0271  0.0534
  905SOL     OW 3690   3.143   1.956   1.563 -0.2277 -0.1984 -0.0743
  905SOL    HW2 3691   3.109   1.874   1.527 -0.4366 -0.5382  0.8578
  905SOL    HW3 3692   3.072   2.019   1.552 -0.4013 -0.3789  0.0125
  905SOL    MW4 3693   3.129   1.954   1.557 -0.2782 -0.2669  0.0601
  906SOL     OW 3694   3.386   2.086   1.493  0.1829 -0.0640  0.5460
  906SOL    HW2 3695   3.308   2.035   1.514  0.7719 -0.7973  0.9766
  906SOL    HW3 3696   3.390   2.084   1.397 -0.6713  0.5023  0.4978
  906SOL    MW4 3697   3.376   2.079   1.483  0.1478 -0.0858  0.5963
  907SOL     OW 3698   3.362   2.354   1.562 -0.1010 -0.3928 -0.5869
  907SOL    HW2 3699   3.441   2.398   1.532  0.5412 -1.2306 -0.1488
  907SOL    HW3 3700   3.371   2.264   1.529 -1.3818 -0.2111 -1.4608
  907SOL    MW4 3701   3.374   2.348   1.554 -0.1853 -0.4795 -0.6443
  908SOL     OW 3702   3.125   2.471   1.489 -0.1330 -0.2016 -0.2287
  908SOL    HW2 3703   3.202   2.434   1.533 -0.1751  1.1296  0.9932
  908SOL    HW3 3704   3.051   2.430   1.533 -0.1497 -0.1113 -0.1723
  908SOL    MW4 3705   3.126   2.460   1.501 -0.1407 -0.0141 -0.0602
  909SOL     OW 3706   3.109   2.740   1.634  0.0002 -0.6006 -0.0589
  909SOL    HW2 3707   3.197   2.767   1.608  0.7087 -1.6660  1.1694
  909SOL    HW3 3708   3.099   2.652   1.597  0.3220 -1.3912  1.6940
  909SOL    MW4 3709   3.119   2.732   1.626  0.1361 -0.8457  0.3344
  910SOL     OW 3710   3.362   2.807   1.543  0.1840 -0.1512  0.4245
  910SOL    HW2 3711   3.359   2.896   1.578 -0.9917 -0.0077 -0.0265
  910SOL    HW3 3712   3.369   2.818   1.449 -0.7742 -0.5334  0.3048
  910SOL    MW4 3713   3.363   2.820   1.535 -0.0978 -0.1826  0.3492
  911SOL     OW 3714   3.362   3.075   1.633  0.1201  0.2801 -0.0916
  911SOL    HW2 3715   3.356   3.084   1.728  0.3240  0.3070 -0.0810
  911SOL    HW3 3716   3.437   3.129   1.608  0.1776  0.1310 -0.2460
  911SOL    MW4 3717   3.371   3.083   1.643  0.1547  0.2642 -0.1105
  912SOL     OW 3718   3.191   3.253   1.527 -0.9503 -0.6337  0.5793
  912SOL    HW2 3719   3.256   3.189   1.555  0.4099  0.9463  1.1356
  912SOL    HW3 3720   3.201   3.258   1.431  0.2059  0.0428  0.7205
  912SOL    MW4 3721   3.201   3.245   1.518 -0.6182 -0.3362  0.6715
  913SOL     OW 3722   3.143   3.504   1.643  0.2346  0.0167 -0.3269
  913SOL    HW2 3723   3.157   3.415   1.610  0.2160  0.3938 -1.3716
  913SOL    HW3 3724   3.061   3.532   1.604 -2.3262 -1.2689  3.8717
  913SOL    MW4 3725   3.134   3.496   1.633 -0.1056 -0.1028  0.0890
  914SOL     OW 3726   3.335   3.619   1.491  0.1034 -0.2310 -0.1286
  914SOL    HW2 3727   3.414   3.582   1.529  0.5922 -0.1372 -1.0465
  914SOL    HW3 3728   3.264   3.588   1.548  0.9341  0.8777  1.5570
  914SOL    MW4 3729   3.336   3.610   1.504  0.2778 -0.0722 -0.0274
  915SOL     OW 3730   3.421   3.863   1.614  0.4138  0.2889  0.0233
  915SOL    HW2 3731   3.361   3.927   1.575 -0.0149 -0.4304 -0.5193
  915SOL    HW3 3732   3.381   3.778   1.595  0.7491 -0.1252  1.1138
  915SOL    MW4 3733   3.408   3.860   1.606  0.4015  0.1392  0.0955
  916SOL     OW 3734   3.200   4.015   1.480  0.1262  0.0960  0.5557
  916SOL    HW2 3735   3.201   4.105   1.515 -0.9826  1.2322 -2.2228
  916SOL    HW3 3736   3.130   3.972   1.529 -0.0171  1.0456  1.2203
  916SOL    MW4 3737   3.191   4.021   1.491 -0.0389  0.3710  0.2768
  917SOL     OW 3738   3.170   4.284   1.570  0.0668  0.7597 -0.3058
  917SOL    HW2 3739   3.153   4.276   1.664 -1.1592  0.7156 -0.5283
  917SOL    HW3 3740   3.092   4.328   1.535 -0.5619 -1.3522 -1.6771
  917SOL    MW4 3741   3.157   4.289   1.578 -0.1779  0.4759 -0.5158
  918SOL     OW 3742   3.418   4.422   1.519 -0.0785 -0.0034  0.3661
  918SOL    HW2 3743   3.344   4.373   1.555 -0.1433  0.3040  0.6536
  918SOL    HW3 3744   3.403   4.422   1.425 -0.4669  0.0949  0.4271
  918SOL    MW4 3745   3.406   4.415   1.511 -0.1385  0.0501  0.4121
  919SOL     OW 3746   3.776   4.603   1.617  0.2170 -0.3513 -0.5305
  919SOL    HW2 3747   3.786   4.611   1.712 -0.1347  0.5967 -0.5646
  919SOL    HW3 3748   3.842   4.663   1.581 -1.9091  1.9046 -0.8232
  919SOL    MW4 3749   3.786   4.612   1.625 -0.1097  0.0715 -0.5735
  920SOL     OW 3750   3.572   0.093   1.499  0.3725  0.1012  0.4474
  920SOL    HW2 3751   3.636   0.034   1.539  0.4494  0.0052  0.1860
  920SOL    HW3 3752   3.576   0.073   1.405  0.6290  0.7414  0.3167
  920SOL    MW4 3753   3.581   0.082   1.492  0.4163  0.1730  0.3958
  921SOL     OW 3754   3.624   0.357   1.588 -0.3199 -0.4082 -0.2032
  921SOL    HW2 3755   3.621   0.268   1.553 -0.9213 -0.6675  0.4926
  921SOL    HW3 3756   3.546   0.399   1.552 -0.8910 -0.6478  0.7320
  921SOL    MW4 3757   3.613   0.351   1.579 -0.4747 -0.4740  0.0119
  922SOL     OW 3758   3.851   0.516   1.525 -0.2307 -0.2730 -0.1212
  922SOL    HW2 3759   3.765   0.480   1.547 -0.9135  1.9794  1.0248
  922SOL    HW3 3760   3.850   0.523   1.429 -1.0187 -0.9443 -0.1667
  922SOL    MW4 3761   3.839   0.512   1.515 -0.4246 -0.0644  0.0240
  923SOL     OW 3762   3.850   0.783   1.619  0.2335 -0.8356 -0.1136
  923SOL    HW2 3763   3.772   0.821   1.578  1.0437 -0.0065 -0.9084
  923SOL    HW3 3764   3.853   0.694   1.586 -0.2571 -0.8040 -0.2544
  923SOL    MW4 3765   3.840   0.777   1.609  0.2759 -0.7220 -0.2371
  924SOL     OW 3766   3.613   0.921   1.515 -0.0161  0.6040 -0.2568
  924SOL    HW2 3767   3.524   0.898   1.541  0.1879 -0.9074 -0.8482
  924SOL    HW3 3768   3.610   0.926   1.420  1.0644 -1.9565 -0.4756
  924SOL    MW4 3769   3.601   0.918   1.506  0.1533  0.0668 -0.3638
  925SOL     OW 3770   3.587   1.196   1.569  0.2293  0.0741 -0.4923
  925SOL    HW2 3771   3.665   1.241   1.537 -1.3518  0.8868 -3.3173
  925SOL    HW3 3772   3.602   1.104   1.550  0.6122  0.1993 -0.7928
  925SOL    MW4 3773   3.599   1.190   1.562  0.0713  0.1980 -0.9047
  926SOL     OW 3774   3.845   1.304   1.472 -0.3090  0.9474  0.3866
  926SOL    HW2 3775   3.913   1.255   1.519 -0.9805 -0.5704 -0.1704
  926SOL    HW3 3776   3.846   1.391   1.511  1.3435  0.6653  0.9962
  926SOL    MW4 3777   3.854   1.309   1.484 -0.1795  0.7099  0.3935
  927SOL     OW 3778   3.833   1.554   1.596 -0.1867 -0.0765  0.2091
  927SOL    HW2 3779   3.834   1.539   1.691 -0.1583  0.3793  0.2829
  927SOL    HW3 3780   3.756   1.609   1.582  1.0228  1.7089  0.2637
  927SOL    MW4 3781   3.823   1.559   1.607 -0.0231  0.2192  0.2260
  928SOL     OW 3782   3.583   1.665   1.537  0.1588 -0.0742  0.6752
  928SOL    HW2 3783   3.498   1.639   1.572 -0.5891  2.1325  0.5529
  928SOL    HW3 3784   3.578   1.643   1.444  0.4320 -1.6635  1.0223
  928SOL    MW4 3785   3.571   1.659   1.529  0.0963  0.0073  0.7049
  929SOL     OW 3786   3.609   1.928   1.549  0.4639 -0.5964  0.1931
  929SOL    HW2 3787   3.585   1.836   1.534 -1.0911 -0.2172  0.3022
  929SOL    HW3 3788   3.531   1.977   1.526  1.4686  0.7645 -0.4088
  929SOL    MW4 3789   3.596   1.922   1.544  0.3910 -0.3668  0.1281
  930SOL     OW 3790   3.847   2.067   1.502  0.1961  0.3896 -0.3941
  930SOL    HW2 3791   3.830   2.157   1.527 -0.4325  0.1861 -0.0983
  930SOL    HW3 3792   3.763   2.022   1.509  0.5255 -0.2518 -0.4098
  930SOL    MW4 3793   3.834   2.073   1.506  0.1566  0.2780 -0.3574
  931SOL     OW 3794   3.832   2.330   1.562  0.1017  0.3685 -0.2871
  931SOL    HW2 3795   3.825   2.329   1.658 -2.0295 -0.2773 -0.4153
  931SOL    HW3 3796   3.922   2.355   1.545  0.5679  0.3125  1.9023
  931SOL    MW4 3797   3.843   2.333   1.573 -0.1178  0.2761 -0.0151
  932SOL     OW 3798   3.593   2.451   1.445  0.0570  0.4133 -0.2428
  932SOL    HW2 3799   3.595   2.529   1.502  1.0667  0.2509 -0.0331
  932SOL    HW3 3800   3.677   2.408   1.462 -0.0902 -0.2088 -1.0779
  932SOL    MW4 3801   3.604   2.456   1.455  0.1707  0.3099 -0.3254
  933SOL     OW 3802   3.597   2.678   1.594 -0.0215  0.4748 -0.0140
  933SOL    HW2 3803   3.611   2.669   1.688 -0.0738  0.9246  0.0358
  933SOL    HW3 3804   3.512   2.722   1.586  0.2728  1.0006 -0.2645
  933SOL    MW4 3805   3.588   2.683   1.605  0.0103  0.6034 -0.0405
  934SOL     OW 3806   3.817   2.850   1.526  0.1094  0.3094 -0.1837
  934SOL    HW2 3807   3.893   2.812   1.570 -0.4785  2.0083  2.4163
  934SOL    HW3 3808   3.744   2.795   1.553 -0.2429  1.3215  0.9987
  934SOL    MW4 3809   3.818   2.838   1.535 -0.0150  0.6671  0.3153
  935SOL     OW 3810   3.810   3.094   1.623 -0.1122 -0.4276  0.2043
  935SOL    HW2 3811   3.883   3.141   1.582  0.4859 -0.8636  0.7697
  935SOL    HW3 3812   3.812   3.007   1.584 -0.4787 -0.3705  0.0516
  935SOL    MW4 3813   3.820   3.089   1.612 -0.0818 -0.4776  0.2587
  936SOL     OW 3814   3.564   3.244   1.541  0.2018 -0.6455  0.1226
  936SOL    HW2 3815   3.639   3.213   1.592  1.7000  1.5622 -0.6562
  936SOL    HW3 3816   3.581   3.212   1.452 -0.1590 -0.7813  0.1027
  936SOL    MW4 3817   3.576   3.236   1.536  0.3517 -0.3722  0.0173
  937SOL     OW 3818   3.555   3.510   1.622 -0.1024 -0.1926  0.1012
  937SOL    HW2 3819   3.638   3.542   1.588 -1.0193  1.4557 -0.6754
  937SOL    HW3 3820   3.554   3.417   1.602  1.6112 -0.2482  0.2587
  937SOL    MW4 3821   3.566   3.502   1.615  0.0024  0.0176  0.0196
  938SOL     OW 3822   3.807   3.619   1.564 -0.0261  0.1779 -0.3676
  938SOL    HW2 3823   3.885   3.566   1.579  0.3952  0.6167 -0.9980
  938SOL    HW3 3824   3.833   3.707   1.590 -0.6893  0.1067  0.5697
  938SOL    MW4 3825   3.821   3.623   1.569 -0.0582  0.2265 -0.3271
  939SOL     OW 3826   3.877   3.897   1.629 -0.3506 -0.1939  0.0031
  939SOL    HW2 3827   3.947   3.924   1.569  0.0665 -2.2234 -0.4586
  939SOL    HW3 3828   3.796   3.912   1.580 -0.0931 -0.3215 -0.4647
  939SOL    MW4 3829   3.875   3.902   1.614 -0.2618 -0.4787 -0.1194
  940SOL     OW 3830   3.662   3.965   1.476  0.1072 -0.4249  0.5080
  940SOL    HW2 3831   3.639   4.048   1.519 -1.6683  0.5189 -2.1093
  940SOL    HW3 3832   3.582   3.912   1.481 -0.1049 -0.3367 -1.4475
  940SOL    MW4 3833   3.648   3.969   1.482 -0.1552 -0.2887 -0.0954
  941SOL     OW 3834   3.571   4.203   1.599 -0.2968  0.2408  0.7819
  941SOL    HW2 3835   3.596   4.222   1.689  2.2397  0.2941  0.0928
  941SOL    HW3 3836   3.511   4.274   1.575 -0.1127  0.8347  2.0535
  941SOL    MW4 3837   3.566   4.215   1.608  0.0620  0.3257  0.8588
  942SOL     OW 3838   3.803   4.367   1.481 -0.3209 -0.0416  0.1157
  942SOL    HW2 3839   3.732   4.312   1.512  0.4339 -0.8232  0.4956
  942SOL    HW3 3840   3.801   4.445   1.537 -0.9396 -0.0040  0.0452
  942SOL    MW4 3841   3.794   4.370   1.492 -0.3028 -0.1392  0.1564
  943SOL     OW 3842   4.243   0.005   1.596 -0.0019  0.4210 -0.1910
  943SOL    HW2 3843   4.261  -0.002   1.690  1.4476 -0.1697 -0.4917
  943SOL    HW3 3844   4.267  -0.080   1.560 -1.5490  0.2912 -0.9580
  943SOL    MW4 3845   4.249  -0.007   1.603 -0.0148  0.3257 -0.3319
  944SOL     OW 3846   3.976   0.106   1.525 -0.0733 -0.0407  0.2166
  944SOL    HW2 3847   3.983   0.179   1.586  0.2521 -0.8182  1.1142
  944SOL    HW3 3848   4.060   0.061   1.531 -0.4550 -0.7820  0.0322
  944SOL    MW4 3849   3.988   0.110   1.534 -0.0806 -0.2411  0.3107
  945SOL     OW 3850   4.075   0.369   1.596 -0.4931  0.1058 -0.6080
  945SOL    HW2 3851   4.094   0.383   1.689  2.2071  0.1902 -1.1181
  945SOL    HW3 3852   3.986   0.402   1.584 -0.5721  0.8375  1.7800
  945SOL    MW4 3853   4.066   0.375   1.607 -0.1469  0.2134 -0.3601
  946SOL     OW 3854   4.291   0.511   1.487  0.0104  0.1357  0.2498
  946SOL    HW2 3855   4.218   0.450   1.492  0.2978 -0.4465 -2.0414
  946SOL    HW3 3856   4.362   0.467   1.534 -0.5798 -0.0727  0.9600
  946SOL    MW4 3857   4.291   0.497   1.494 -0.0291  0.0314  0.0411
  947SOL     OW 3858   4.346   0.729   1.636  0.0759 -0.2279 -0.2644
  947SOL    HW2 3859   4.313   0.655   1.584 -0.3576  0.5387 -1.0972
  947SOL    HW3 3860   4.419   0.764   1.584 -0.9462  1.1202 -0.8278
  947SOL    MW4 3861   4.352   0.724   1.622 -0.1159  0.0511 -0.4483
  948SOL     OW 3862   4.116   0.876   1.584  0.4228 -0.0060  0.2500
  948SOL    HW2 3863   4.185   0.832   1.634 -0.3555  0.3398  1.6489
  948SOL    HW3 3864   4.036   0.829   1.607 -0.1457  1.0141  0.3681
  948SOL    MW4 3865   4.115   0.864   1.594  0.2451  0.1743  0.4503
  949SOL     OW 3866   4.053   1.157   1.603  0.3825 -0.2462  0.0969
  949SOL    HW2 3867   4.076   1.180   1.693 -2.0803  0.2205  0.6493
  949SOL    HW3 3868   4.068   1.063   1.597  1.2536 -0.1484  0.7825
  949SOL    MW4 3869   4.058   1.148   1.614  0.1726 -0.1719  0.2604
  950SOL     OW 3870   4.304   1.265   1.509  0.1140  0.2994  0.3344
  950SOL    HW2 3871   4.221   1.221   1.527 -0.1641  0.4403 -0.5499
  950SOL    HW3 3872   4.371   1.207   1.545 -0.2757 -0.5958 -0.3647
  950SOL    MW4 3873   4.302   1.252   1.516  0.0257  0.1999  0.1254
  951SOL     OW 3874   4.243   1.524   1.614  0.0351 -0.0878  0.5356
  951SOL    HW2 3875   4.277   1.435   1.599 -0.8331 -0.0046 -2.2935
  951SOL    HW3 3876   4.314   1.581   1.586 -1.0983  0.0790 -2.1196
  951SOL    MW4 3877   4.257   1.520   1.608 -0.2289 -0.0550 -0.1880
  952SOL     OW 3878   4.049   1.688   1.486  0.1533  0.3484 -0.0423
  952SOL    HW2 3879   4.114   1.625   1.517  0.8519  0.3626 -1.3980
  952SOL    HW3 3880   3.968   1.664   1.531  0.9997  0.0778  1.3609
  952SOL    MW4 3881   4.047   1.677   1.496  0.3576  0.3144 -0.0360
  953SOL     OW 3882   4.039   1.938   1.648  0.1089 -0.5393 -0.0688
  953SOL    HW2 3883   4.061   1.861   1.596 -0.2423  1.3379 -3.1287
  953SOL    HW3 3884   3.960   1.973   1.607 -0.2503  0.9438  1.8307
  953SOL    MW4 3885   4.032   1.932   1.636  0.0153 -0.0960 -0.2220
  954SOL     OW 3886   4.278   2.088   1.542  0.5042 -0.0664 -0.1684
  954SOL    HW2 3887   4.195   2.043   1.553  0.4809  0.0664  0.1931
  954SOL    HW3 3888   4.299   2.076   1.449  0.6823 -1.1338 -0.0019
  954SOL    MW4 3889   4.270   2.080   1.531  0.5250 -0.1900 -0.0988
  955SOL     OW 3890   4.247   2.344   1.631  0.3724 -0.6864  0.4147
  955SOL    HW2 3891   4.264   2.358   1.724 -1.3610 -0.4686  0.7251
  955SOL    HW3 3892   4.269   2.252   1.615  0.4363 -0.7902  1.1031
  955SOL    MW4 3893   4.252   2.334   1.641  0.1521 -0.6714  0.5466
  956SOL     OW 3894   4.084   2.479   1.470  0.2056  0.2314  0.1332
  956SOL    HW2 3895   4.080   2.562   1.517 -0.2421 -0.4050  1.2187
  956SOL    HW3 3896   4.147   2.426   1.518 -0.1233 -0.3542 -0.0694
  956SOL    MW4 3897   4.091   2.483   1.482  0.1035  0.0703  0.2495
  957SOL     OW 3898   4.038   2.716   1.614  0.0666 -0.1983 -0.1414
  957SOL    HW2 3899   4.036   2.717   1.709  0.0805  0.9346 -0.1470
  957SOL    HW3 3900   4.119   2.763   1.591  0.9966 -2.0282 -0.6780
  957SOL    MW4 3901   4.049   2.722   1.623  0.1907 -0.2902 -0.2130
  958SOL     OW 3902   4.283   2.839   1.537  0.0616 -0.1248  0.5402
  958SOL    HW2 3903   4.292   2.934   1.543 -0.1692 -0.0702  0.0679
  958SOL    HW3 3904   4.285   2.821   1.443  1.0393 -0.6744  0.6516
  958SOL    MW4 3905   4.285   2.849   1.525  0.1602 -0.1900  0.4925
  959SOL     OW 3906   4.289   3.113   1.589  0.1090 -0.3658 -0.5023
  959SOL    HW2 3907   4.297   3.137   1.681 -0.2554 -2.4214  0.0805
  959SOL    HW3 3908   4.363   3.157   1.546 -0.7560  2.0723  0.4412
  959SOL    MW4 3909   4.300   3.122   1.596 -0.0539 -0.3154 -0.3010
  960SOL     OW 3910   4.041   3.225   1.505 -0.1073 -0.3922 -0.0598
  960SOL    HW2 3911   4.045   3.317   1.532  0.6170 -0.2411 -0.6717
  960SOL    HW3 3912   4.122   3.187   1.539 -0.4025 -0.8081  0.1804
  960SOL    MW4 3913   4.052   3.232   1.513 -0.0510 -0.4272 -0.1088
  961SOL     OW 3914   4.056   3.486   1.603  0.1403  0.1902 -0.1380
  961SOL    HW2 3915   4.072   3.499   1.697 -0.5022 -0.2174  0.0305
  961SOL    HW3 3916   4.122   3.540   1.560  2.1292 -1.6446  0.5341
  961SOL    MW4 3917   4.067   3.495   1.610  0.3176 -0.1054 -0.0271
  962SOL     OW 3918   4.275   3.625   1.498 -0.4270 -0.4123 -0.5636
  962SOL    HW2 3919   4.286   3.715   1.529 -0.0777 -1.1394  1.4573
  962SOL    HW3 3920   4.274   3.633   1.402 -1.6836  1.8739 -0.3890
  962SOL    MW4 3921   4.276   3.638   1.489 -0.5469 -0.2065 -0.2739
  963SOL     OW 3922   4.319   3.869   1.599 -0.1484 -0.1947  0.2080
  963SOL    HW2 3923   4.239   3.919   1.579  0.3820  0.0540 -1.3686
  963SOL    HW3 3924   4.390   3.926   1.569  0.5115 -1.4589 -0.6199
  963SOL    MW4 3925   4.317   3.883   1.592  0.0091 -0.3283 -0.1092
  964SOL     OW 3926   4.103   4.028   1.511  0.2059  0.4535 -0.0276
  964SOL    HW2 3927   4.098   4.119   1.542  0.3312  0.7103 -0.7538
  964SOL    HW3 3928   4.088   4.034   1.417  0.6284 -0.2357 -0.1412
  964SOL    MW4 3929   4.100   4.041   1.503  0.2780  0.3967 -0.1384
  965SOL     OW 3930   4.055   4.288   1.595  0.2200  0.3603 -0.1859
  965SOL    HW2 3931   4.048   4.294   1.690 -0.8915 -0.4229 -0.2058
  965SOL    HW3 3932   3.965   4.294   1.564  0.6195  1.2283 -1.2403
  965SOL    MW4 3933   4.042   4.290   1.604  0.1254  0.3710 -0.3276
  966SOL     OW 3934   4.256   4.431   1.476  0.2482  0.1301 -0.1609
  966SOL    HW2 3935   4.174   4.397   1.511  0.6993  1.6114  2.4345
  966SOL    HW3 3936   4.249   4.417   1.382 -2.5340 -0.7094  0.1189
  966SOL    MW4 3937   4.244   4.425   1.468 -0.0601  0.2146  0.2185
  967SOL     OW 3938   0.247   0.017   1.932  0.3006  0.6541 -0.1741
  967SOL    HW2 3939   0.330   0.055   1.959  0.6854 -0.0810 -0.3119
  967SOL    HW3 3940   0.255   0.004   1.838  0.9023 -1.5105  0.1532
  967SOL    MW4 3941   0.259   0.020   1.923  0.4308  0.2715 -0.1490
  968SOL     OW 3942   0.023   0.141   2.002 -0.0297  0.3586 -0.2234
  968SOL    HW2 3943   0.029   0.233   1.976  0.0481  0.1167 -1.0955
  968SOL    HW3 3944   0.108   0.103   1.980 -0.3110 -0.0893 -0.5709
  968SOL    MW4 3945   0.035   0.148   1.995 -0.0565  0.2676 -0.3844
  969SOL     OW 3946   0.063   0.400   1.902  0.3805  0.0604  0.5653
  969SOL    HW2 3947  -0.014   0.445   1.938  0.1622  0.5096 -0.4508
  969SOL    HW3 3948   0.138   0.449   1.936  0.1195  2.2605 -1.8762
  969SOL    MW4 3949   0.062   0.413   1.912  0.3173  0.4099  0.1091
  970SOL     OW 3950   0.260   0.556   2.015  0.1385 -0.3909  0.3600
  970SOL    HW2 3951   0.323   0.511   1.958 -1.8833 -1.6777 -0.9082
  970SOL    HW3 3952   0.267   0.648   1.991 -0.2558 -0.8517 -1.5546
  970SOL    MW4 3953   0.269   0.562   2.004 -0.1802 -0.6215 -0.0598
  971SOL     OW 3954   0.239   0.827   1.903 -0.0033  0.1357  0.5075
  971SOL    HW2 3955   0.313   0.887   1.911 -1.0557  1.6571 -0.9965
  971SOL    HW3 3956   0.240   0.799   1.812 -1.1725  0.0220  0.5238
  971SOL    MW4 3957   0.249   0.831   1.892 -0.2964  0.3215  0.3110
  972SOL     OW 3958   0.004   0.900   2.002 -0.4041 -0.2949  0.4399
  972SOL    HW2 3959  -0.055   0.843   1.953 -0.2556 -1.1160  1.2151
  972SOL    HW3 3960   0.090   0.881   1.967 -0.1017 -1.9608  2.0078
  972SOL    MW4 3961   0.007   0.890   1.991 -0.3446 -0.6230  0.7490
  973SOL     OW 3962   0.021   1.161   1.909  0.4284  0.0545  0.5005
  973SOL    HW2 3963  -0.041   1.203   1.969  1.2495  0.4960  1.0586
  973SOL    HW3 3964   0.030   1.072   1.944  1.3342  0.4795  1.3871
  973SOL    MW4 3965   0.014   1.155   1.922  0.6563  0.1687  0.6912
  974SOL     OW 3966   0.244   1.348   2.006  0.2277 -0.2691  0.6970
  974SOL    HW2 3967   0.234   1.428   1.955  1.4688 -1.2690 -1.2194
  974SOL    HW3 3968   0.172   1.292   1.976 -0.1435 -0.1757  1.4151
  974SOL    MW4 3969   0.233   1.351   1.995  0.3424 -0.3886  0.5388
  975SOL     OW 3970   0.215   1.568   1.859 -0.4633 -0.5879 -0.0098
  975SOL    HW2 3971   0.294   1.619   1.878 -0.7626  0.2094 -0.8358
  975SOL    HW3 3972   0.148   1.607   1.915 -0.2563 -1.3292  0.7649
  975SOL    MW4 3973   0.216   1.580   1.869 -0.4755 -0.5804 -0.0167
  976SOL     OW 3974   0.003   1.673   2.003 -0.2542 -0.3387  0.1087
  976SOL    HW2 3975   0.010   1.655   2.097  0.3262  1.5931  0.4590
  976SOL    HW3 3976  -0.081   1.637   1.978 -0.4837 -0.7372  1.4174
  976SOL    MW4 3977  -0.007   1.666   2.012 -0.2079 -0.1364  0.3276
  977SOL     OW 3978   0.039   1.920   1.875 -0.8206 -0.0465 -0.1080
  977SOL    HW2 3979  -0.036   1.972   1.905 -0.2954  0.0554  1.0557
  977SOL    HW3 3980   0.037   1.841   1.929 -0.7610 -0.5765 -0.8695
  977SOL    MW4 3981   0.029   1.916   1.886 -0.7434 -0.1030 -0.0550
  978SOL     OW 3982   0.249   2.069   1.981 -0.3957 -0.0293  0.1806
  978SOL    HW2 3983   0.250   2.159   1.947 -0.5427  0.4005  1.2901
  978SOL    HW3 3984   0.180   2.026   1.932  1.0668 -0.1389 -1.8515
  978SOL    MW4 3985   0.240   2.075   1.970 -0.2221  0.0131  0.0589
  979SOL     OW 3986   0.256   2.323   1.863  0.3232  0.0411  0.3184
  979SOL    HW2 3987   0.318   2.370   1.919 -0.9955 -0.2698  2.1008
  979SOL    HW3 3988   0.170   2.358   1.887 -0.4119 -1.2228 -0.3906
  979SOL    MW4 3989   0.253   2.334   1.874  0.0522 -0.1664  0.4599
  980SOL     OW 3990   0.028   2.467   1.984 -0.2372  0.1783 -0.3628
  980SOL    HW2 3991   0.032   2.472   2.079 -0.4035  0.5774 -0.3765
  980SOL    HW3 3992   0.016   2.558   1.955  0.7858  0.1768 -0.8170
  980SOL    MW4 3993   0.027   2.480   1.993 -0.1242  0.2308 -0.4245
  981SOL     OW 3994   4.490   2.719   1.881  0.0358 -0.2132 -0.2844
  981SOL    HW2 3995   4.402   2.757   1.886 -1.0916 -2.7674  0.0111
  981SOL    HW3 3996   4.504   2.704   1.788  0.0732 -0.0022 -0.3130
  981SOL    MW4 3997   4.480   2.722   1.869 -0.1081 -0.5224 -0.2491
  982SOL     OW 3998   0.214   2.867   1.994  0.4031  0.0189 -0.3548
  982SOL    HW2 3999   0.228   2.954   1.958  0.1935 -0.3796 -1.4054
  982SOL    HW3 4000   0.138   2.833   1.947  0.2983 -0.6103  0.2622
  982SOL    MW4 4001   0.206   2.874   1.983  0.3616 -0.1166 -0.4120
  983SOL     OW 4002   0.250   3.118   1.903 -0.0225 -0.1371  0.3915
  983SOL    HW2 4003   0.322   3.171   1.938 -1.4312  0.8260  1.8791
  983SOL    HW3 4004   0.261   3.124   1.808  2.1522 -0.4153  0.6042
  983SOL    MW4 4005   0.261   3.126   1.895  0.0785 -0.0467  0.6158
  984SOL     OW 4006   0.030   3.275   1.967 -0.4581 -0.1679 -0.2263
  984SOL    HW2 4007  -0.047   3.233   1.929  0.2358 -0.6831 -1.0790
  984SOL    HW3 4008   0.099   3.209   1.961 -0.1965 -0.0956  1.4848
  984SOL    MW4 4009   0.029   3.261   1.961 -0.3320 -0.2263 -0.1130
  985SOL     OW 4010   0.034   3.538   1.853 -0.1924  0.2751 -0.1792
  985SOL    HW2 4011   0.112   3.578   1.892 -0.9552  0.9108  0.7236
  985SOL    HW3 4012   0.031   3.450   1.889  0.2662  0.1476 -0.4455
  985SOL    MW4 4013   0.044   3.532   1.863 -0.2326  0.3421 -0.0952
  986SOL     OW 4014   0.248   3.672   1.983  0.4196 -0.1442  0.9932
  986SOL    HW2 4015   0.237   3.660   2.077  1.1039  0.1691  1.1181
  986SOL    HW3 4016   0.332   3.631   1.964 -0.2339 -1.1784  0.3292
  986SOL    MW4 4017   0.258   3.665   1.993  0.4237 -0.2394  0.9221
  987SOL     OW 4018   0.248   3.934   1.884  0.4025  0.2416 -0.2843
  987SOL    HW2 4019   0.308   3.989   1.935 -0.6190  0.0506  1.1627
  987SOL    HW3 4020   0.256   3.847   1.923 -0.5257  0.1369 -0.3054
  987SOL    MW4 4021   0.257   3.930   1.896  0.1453  0.2029 -0.0963
  988SOL     OW 4022   4.474   4.012   1.993  0.0912 -0.5875 -0.3839
  988SOL    HW2 4023   4.470   4.096   1.948  1.6164  0.1505  0.7756
  988SOL    HW3 4024   4.562   3.979   1.973  0.4445 -0.6802  1.2631
  988SOL    MW4 4025   4.485   4.018   1.984  0.3390 -0.5021 -0.0136
  989SOL     OW 4026   4.475   4.285   1.849 -0.1771  0.3495  0.2732
  989SOL    HW2 4027   4.416   4.332   1.908  0.6666  0.7265  0.8224
  989SOL    HW3 4028   4.561   4.324   1.864  0.4069 -0.8741  0.2072
  989SOL    MW4 4029   4.479   4.296   1.859  0.0114  0.2379  0.3369
  990SOL     OW 4030   0.202   4.407   1.982  0.2701 -0.8343  0.1418
  990SOL    HW2 4031   0.214   4.404   2.077 -0.8078 -0.2301  0.3022
  990SOL    HW3 4032   0.218   4.498   1.958  1.8092 -1.2317 -0.4509
  990SOL    MW4 4033   0.206   4.419   1.991  0.3309 -0.8068  0.0846
  991SOL     OW 4034   0.681   0.011   1.913 -0.2123 -0.1186 -0.1013
  991SOL    HW2 4035   0.675  -0.084   1.925  1.1845 -0.2387 -0.3208
  991SOL    HW3 4036   0.662   0.025   1.821 -1.4295 -0.0803  0.1450
  991SOL    MW4 4037   0.677   0.000   1.903 -0.1885 -0.1293 -0.0978
  992SOL     OW 4038   0.463   0.156   2.007  0.0933  0.0215 -0.6925
  992SOL    HW2 4039   0.469   0.246   1.976  0.4800  0.3317  0.2834
  992SOL    HW3 4040   0.549   0.119   1.991 -0.0404 -0.1556 -1.0149
  992SOL    MW4 4041   0.475   0.163   2.001  0.1266  0.0391 -0.6065
  993SOL     OW 4042   0.467   0.406   1.902  0.0385  0.2163  0.5418
  993SOL    HW2 4043   0.529   0.478   1.910  2.0405 -1.6184  1.9691
  993SOL    HW3 4044   0.468   0.384   1.809  2.9627 -0.9936  0.8254
  993SOL    MW4 4045   0.475   0.413   1.891  0.6884 -0.1854  0.7676
  994SOL     OW 4046   0.688   0.585   1.952 -0.0483  0.4076  0.2841
  994SOL    HW2 4047   0.675   0.541   2.037  0.3223  0.0207  0.1424
  994SOL    HW3 4048   0.773   0.553   1.921  0.5594  1.7866  0.5057
  994SOL    MW4 4049   0.697   0.575   1.959  0.0807  0.5385  0.2947
  995SOL     OW 4050   0.672   0.825   1.827 -0.0284  0.1907  0.1135
  995SOL    HW2 4051   0.740   0.875   1.872  0.5486  0.1207 -0.6676
  995SOL    HW3 4052   0.661   0.746   1.879 -0.8813  1.0791  1.3101
  995SOL    MW4 4053   0.680   0.821   1.839 -0.0648  0.2988  0.1683
  996SOL     OW 4054   0.482   0.972   1.987 -0.0039 -0.2940  0.2853
  996SOL    HW2 4055   0.485   1.060   1.949 -1.6350 -0.7642 -0.9745
  996SOL    HW3 4056   0.555   0.926   1.947 -0.3889 -0.1217 -0.6152
  996SOL    MW4 4057   0.492   0.978   1.977 -0.2699 -0.3332  0.0001
  997SOL     OW 4058   0.479   1.226   1.885 -0.2173 -0.0724 -0.1750
  997SOL    HW2 4059   0.395   1.254   1.921 -0.1368  0.8688 -0.7124
  997SOL    HW3 4060   0.468   1.232   1.791  0.5127  0.2205 -0.2436
  997SOL    MW4 4061   0.467   1.231   1.878 -0.1104  0.0905 -0.2549
  998SOL     OW 4062   0.688   1.362   2.029 -0.1574  0.1381 -0.5701
  998SOL    HW2 4063   0.683   1.370   2.124 -0.6926  0.2585 -0.6100
  998SOL    HW3 4064   0.600   1.334   2.002 -0.2903  1.0889 -1.1290
  998SOL    MW4 4065   0.676   1.359   2.038 -0.2456  0.2793 -0.6492
  999SOL     OW 4066   0.693   1.595   1.859  0.1407  0.3418  0.1033
  999SOL    HW2 4067   0.680   1.511   1.904  3.1278  0.1362  0.7196
  999SOL    HW3 4068   0.697   1.572   1.767  0.8594 -0.1972  0.2631
  999SOL    MW4 4069   0.692   1.581   1.853  0.6297  0.2437  0.2058
 1000SOL     OW 4070   0.446   1.707   1.906  0.2259 -0.0396  0.0158
 1000SOL    HW2 4071   0.444   1.713   2.002 -0.4555 -1.4497  0.1159
 1000SOL    HW3 4072   0.536   1.681   1.886  0.2444 -0.2244  0.3221
 1000SOL    MW4 4073   0.458   1.704   1.916  0.1385 -0.2500  0.0694
 1001SOL     OW 4074   0.465   1.970   1.826  0.1682  0.0306  0.1322
 1001SOL    HW2 4075   0.462   1.879   1.856  0.1863 -0.0861 -0.2122
 1001SOL    HW3 4076   0.393   2.013   1.872  0.4727 -0.0391  0.6776
 1001SOL    MW4 4077   0.455   1.964   1.836  0.2108  0.0060  0.1587
 1002SOL     OW 4078   0.709   2.081   1.953  0.3603  0.1109 -0.1588
 1002SOL    HW2 4079   0.697   2.077   2.048 -0.5654 -0.0071 -0.2756
 1002SOL    HW3 4080   0.626   2.051   1.917 -0.1381  2.3938 -1.0035
 1002SOL    MW4 4081   0.697   2.077   1.961  0.1723  0.3967 -0.2856
 1003SOL     OW 4082   0.684   2.356   1.858  0.1767  0.2241 -0.1650
 1003SOL    HW2 4083   0.700   2.268   1.894  0.0556  0.8086  1.3658
 1003SOL    HW3 4084   0.683   2.343   1.763  1.9134 -1.1421 -0.0374
 1003SOL    MW4 4085   0.686   2.343   1.850  0.3899  0.1209  0.0538
 1004SOL     OW 4086   0.463   2.489   1.933 -0.0806  0.3070  0.2830
 1004SOL    HW2 4087   0.466   2.476   2.028 -0.2283 -0.1433  0.2254
 1004SOL    HW3 4088   0.542   2.446   1.900 -0.0222  0.4750  0.1996
 1004SOL    MW4 4089   0.474   2.482   1.941 -0.0924  0.2697  0.2645
 1005SOL     OW 4090   0.451   2.770   1.870  0.1577 -0.1253 -0.0628
 1005SOL    HW2 4091   0.446   2.676   1.887  1.1058 -0.1438  0.1374
 1005SOL    HW3 4092   0.378   2.807   1.918  0.6946 -0.5867  1.1201
 1005SOL    MW4 4093   0.441   2.762   1.878  0.3536 -0.1888  0.1196
 1006SOL     OW 4094   0.688   2.887   1.982 -0.0553  0.1673 -0.3437
 1006SOL    HW2 4095   0.709   2.889   2.075  2.1193 -1.5326 -0.7649
 1006SOL    HW3 4096   0.613   2.827   1.976  0.3627 -0.4208  0.2050
 1006SOL    MW4 4097   0.681   2.880   1.994  0.2868 -0.1347 -0.3269
 1007SOL     OW 4098   0.656   3.144   1.890  0.0948  0.3972  0.6989
 1007SOL    HW2 4099   0.654   3.057   1.928  0.2699  0.8326  1.7209
 1007SOL    HW3 4100   0.669   3.130   1.797  0.2114 -0.6620  0.8775
 1007SOL    MW4 4101   0.657   3.131   1.883  0.1332  0.3150  0.8572
 1008SOL     OW 4102   0.450   3.280   1.997  0.3345 -0.4575  0.1390
 1008SOL    HW2 4103   0.460   3.370   1.967 -3.0733 -0.0292  0.0412
 1008SOL    HW3 4104   0.515   3.231   1.947  0.8885  1.6475 -1.2927
 1008SOL    MW4 4105   0.460   3.285   1.986 -0.0420 -0.1233 -0.0629
 1009SOL     OW 4106   0.471   3.534   1.879  0.1227  0.0023 -0.1420
 1009SOL    HW2 4107   0.555   3.578   1.893  0.5607 -0.4359 -1.3051
 1009SOL    HW3 4108   0.463   3.528   1.783 -0.3527 -1.6224 -0.0140
 1009SOL    MW4 4109   0.481   3.539   1.868  0.1178 -0.2699 -0.2786
 1010SOL     OW 4110   0.678   3.672   1.968  0.6739  0.1834  0.3564
 1010SOL    HW2 4111   0.759   3.632   1.937  0.5786  0.7300 -0.6057
 1010SOL    HW3 4112   0.679   3.761   1.933 -0.4060  0.1508  0.2165
 1010SOL    MW4 4113   0.689   3.678   1.960  0.5189  0.2511  0.2111
 1011SOL     OW 4114   0.639   3.948   1.894 -0.3666  0.3400  0.2306
 1011SOL    HW2 4115   0.718   3.991   1.926  0.0599 -1.4758  1.7049
 1011SOL    HW3 4116   0.659   3.924   1.803  0.3266  0.9323  0.2258
 1011SOL    MW4 4117   0.652   3.951   1.886 -0.2189  0.1786  0.4244
 1012SOL     OW 4118   0.431   4.059   2.044 -0.0384 -0.3051 -0.2672
 1012SOL    HW2 4119   0.441   4.152   2.024  1.3208 -0.4529 -0.3583
 1012SOL    HW3 4120   0.503   4.017   1.997 -0.4717 -1.3720  0.0033
 1012SOL    MW4 4121   0.442   4.066   2.035  0.0837 -0.4659 -0.2439
 1013SOL     OW 4122   0.433   4.319   1.900 -0.2938 -0.0727  0.0505
 1013SOL    HW2 4123   0.349   4.358   1.929  0.1276  0.8314  0.0898
 1013SOL    HW3 4124   0.428   4.320   1.805  0.7138  2.3705 -0.0113
 1013SOL    MW4 4125   0.421   4.325   1.892 -0.1052  0.3691  0.0476
 1014SOL     OW 4126   0.674   4.421   2.003  0.2038  0.4398 -0.4062
 1014SOL    HW2 4127   0.740   4.370   1.956  0.6685  0.2371  0.4576
 1014SOL    HW3 4128   0.591   4.386   1.971  0.5156  0.0838 -0.8408
 1014SOL    MW4 4129   0.672   4.409   1.993  0.3062  0.3657 -0.3496
 1015SOL     OW 4130   1.119   0.024   1.910  0.3838  0.3604  0.2654
 1015SOL    HW2 4131   1.198   0.054   1.956  1.5293 -0.4740 -1.1025
 1015SOL    HW3 4132   1.110  -0.068   1.935 -0.8696  0.7826  1.3806
 1015SOL    MW4 4133   1.128   0.016   1.919  0.3694  0.3060  0.2322
 1016SOL     OW 4134   0.905   0.185   1.982 -0.1891  0.0900 -0.6845
 1016SOL    HW2 4135   0.985   0.135   1.972  0.8334  1.7086 -0.7358
 1016SOL    HW3 4136   0.837   0.130   1.945  0.6959 -1.8176  0.4675
 1016SOL    MW4 4137   0.906   0.171   1.976  0.0626  0.0519 -0.5393
 1017SOL     OW 4138   0.925   0.443   1.878  0.1798  0.4334  0.3977
 1017SOL    HW2 4139   1.011   0.473   1.907 -0.2013  0.1344  1.8782
 1017SOL    HW3 4140   0.913   0.359   1.922 -0.4647  0.0112 -0.5702
 1017SOL    MW4 4141   0.935   0.436   1.888  0.0446  0.3383  0.4653
 1018SOL     OW 4142   1.166   0.550   1.998  0.1181 -0.2198  0.1847
 1018SOL    HW2 4143   1.241   0.505   1.957  1.4537  0.7800  1.4656
 1018SOL    HW3 4144   1.166   0.637   1.958  0.8237  0.4223  1.5672
 1018SOL    MW4 4145   1.176   0.555   1.987  0.3874 -0.0032  0.5361
 1019SOL     OW 4146   1.098   0.828   1.875 -0.2984  0.0398  0.5117
 1019SOL    HW2 4147   1.179   0.858   1.917  0.3220 -1.8233  0.6850
 1019SOL    HW3 4148   1.029   0.877   1.920  0.4562 -0.9738  2.8586
 1019SOL    MW4 4149   1.100   0.839   1.887 -0.1169 -0.3397  0.8442
 1020SOL     OW 4150   0.892   0.957   1.988 -0.5163 -0.3865 -0.1114
 1020SOL    HW2 4151   0.903   0.937   2.081 -2.4715 -0.9851  0.0213
 1020SOL    HW3 4152   0.904   1.052   1.982 -2.9921  0.0376  1.1978
 1020SOL    MW4 4153   0.895   0.967   1.999 -1.1010 -0.4095  0.0788
 1021SOL     OW 4154   0.901   1.224   1.917  0.2868  0.3461  0.2176
 1021SOL    HW2 4155   0.825   1.274   1.945  0.7881  2.2813 -1.8280
 1021SOL    HW3 4156   0.891   1.215   1.822  1.2417 -1.7043  0.2814
 1021SOL    MW4 4157   0.890   1.229   1.908  0.4790  0.3308 -0.0440
 1022SOL     OW 4158   1.159   1.327   1.951 -0.0736 -0.3366 -0.6939
 1022SOL    HW2 4159   1.150   1.420   1.929 -0.1329 -0.0982  0.3014
 1022SOL    HW3 4160   1.070   1.295   1.960 -0.0546 -0.5499 -1.3045
 1022SOL    MW4 4161   1.146   1.335   1.950 -0.0790 -0.3332 -0.6434
 1023SOL     OW 4162   1.167   1.600   1.855 -0.2196  0.0841  0.4405
 1023SOL    HW2 4163   1.082   1.630   1.885 -1.0399  0.1643 -1.8738
 1023SOL    HW3 4164   1.161   1.601   1.760  2.2438 -0.2699  0.2353
 1023SOL    MW4 4165   1.155   1.604   1.847 -0.0027  0.0479  0.1081
 1024SOL     OW 4166   0.931   1.701   1.938  0.0339  0.4073  0.1406
 1024SOL    HW2 4167   0.938   1.789   1.901  0.5363 -0.6558 -2.3875
 1024SOL    HW3 4168   0.840   1.676   1.925 -0.3229  0.8688  1.6566
 1024SOL    MW4 4169   0.920   1.709   1.932  0.0532  0.3278  0.0070
 1025SOL     OW 4170   0.934   1.950   1.837 -0.2905  0.0081  0.2236
 1025SOL    HW2 4171   0.865   2.008   1.867 -0.5632 -1.0129  1.5824
 1025SOL    HW3 4172   0.933   1.959   1.741 -1.4154  0.9782  0.3217
 1025SOL    MW4 4173   0.925   1.959   1.828 -0.4749  0.0014  0.4157
 1026SOL     OW 4174   1.156   2.051   2.005  0.4003 -0.2771 -0.4774
 1026SOL    HW2 4175   1.169   2.142   1.979  0.1646 -0.1241 -0.0604
 1026SOL    HW3 4176   1.089   2.019   1.945 -0.0047  0.0210 -0.1866
 1026SOL    MW4 4177   1.149   2.059   1.993  0.3159 -0.2177 -0.3839
 1027SOL     OW 4178   1.131   2.296   1.896  0.4581 -0.6543 -0.1731
 1027SOL    HW2 4179   1.207   2.349   1.919  0.6291 -0.9582 -0.0445
 1027SOL    HW3 4180   1.115   2.316   1.803  0.1755  0.0545  0.0206
 1027SOL    MW4 4181   1.139   2.306   1.887  0.4433 -0.6008 -0.1304
 1028SOL     OW 4182   0.904   2.448   1.992  0.2184 -0.1426 -0.1477
 1028SOL    HW2 4183   0.969   2.383   1.964 -0.9579 -0.8486 -1.2676
 1028SOL    HW3 4184   0.832   2.438   1.930 -0.5536  1.3074  0.5020
 1028SOL    MW4 4185   0.903   2.438   1.980 -0.0387 -0.0446 -0.2098
 1029SOL     OW 4186   0.912   2.735   1.892  0.2444  0.2749 -0.6048
 1029SOL    HW2 4187   0.899   2.648   1.930 -0.8921  0.0621 -1.4574
 1029SOL    HW3 4188   0.829   2.780   1.906  0.6092  0.9941 -0.7530
 1029SOL    MW4 4189   0.899   2.729   1.899  0.1425  0.3417 -0.7370
 1030SOL     OW 4190   1.143   2.862   1.962 -0.2337 -0.2765 -0.1248
 1030SOL    HW2 4191   1.139   2.857   2.057 -1.1195 -0.1504 -0.1547
 1030SOL    HW3 4192   1.062   2.822   1.932 -0.6568  1.0313 -0.7780
 1030SOL    MW4 4193   1.132   2.856   1.970 -0.4064 -0.0873 -0.2148
 1031SOL     OW 4194   1.129   3.119   1.852 -0.0632 -0.1208 -0.6179
 1031SOL    HW2 4195   1.053   3.171   1.875 -0.6397 -0.3590 -1.9255
 1031SOL    HW3 4196   1.125   3.043   1.909 -0.0899  0.4987  0.2080
 1031SOL    MW4 4197   1.119   3.116   1.862 -0.1427 -0.0703 -0.6816
 1032SOL     OW 4198   0.912   3.241   1.961 -0.5894 -0.2786 -0.5874
 1032SOL    HW2 4199   0.915   3.241   2.057 -2.4438  1.5099 -0.4850
 1032SOL    HW3 4200   0.839   3.182   1.940 -1.2233  0.5893 -0.8304
 1032SOL    MW4 4201   0.903   3.233   1.971 -0.9177  0.0722 -0.6058
 1033SOL     OW 4202   0.914   3.519   1.864 -0.0958  0.3709 -0.0944
 1033SOL    HW2 4203   0.918   3.427   1.887 -1.7117  0.3536  0.1438
 1033SOL    HW3 4204   0.908   3.519   1.768  1.3287  0.2870 -0.1963
 1033SOL    MW4 4205   0.914   3.507   1.854 -0.1210  0.3574 -0.0765
 1034SOL     OW 4206   1.155   3.584   1.981 -0.2096  0.0623  0.5024
 1034SOL    HW2 4207   1.154   3.602   2.075 -0.1562 -1.4549  0.8068
 1034SOL    HW3 4208   1.070   3.544   1.964 -0.0214 -0.1261  0.0068
 1034SOL    MW4 4209   1.144   3.581   1.991 -0.1777 -0.1628  0.4771
 1035SOL     OW 4210   1.070   3.884   1.903  0.0935  0.3433  0.3271
 1035SOL    HW2 4211   1.092   3.796   1.931  1.8709  0.7838  0.3397
 1035SOL    HW3 4212   1.084   3.885   1.809 -1.3833  0.1996  0.0880
 1035SOL    MW4 4213   1.075   3.873   1.894  0.1332  0.3822  0.2971
 1036SOL     OW 4214   0.876   4.044   2.003  0.0315 -0.1770  0.1440
 1036SOL    HW2 4215   0.870   4.044   2.098 -2.3779  0.2136  0.0224
 1036SOL    HW3 4216   0.951   3.988   1.983  0.4899 -0.3313  2.2516
 1036SOL    MW4 4217   0.885   4.037   2.013 -0.2259 -0.1459  0.4060
 1037SOL     OW 4218   0.881   4.283   1.857 -0.2134 -0.2402  0.4883
 1037SOL    HW2 4219   0.969   4.318   1.869 -0.5564  0.4740  0.9537
 1037SOL    HW3 4220   0.881   4.200   1.905  0.3939 -0.5532 -0.0441
 1037SOL    MW4 4221   0.892   4.277   1.865 -0.1785 -0.1874  0.4795
 1038SOL     OW 4222   1.108   4.407   1.941 -0.2788  0.0638  0.0220
 1038SOL    HW2 4223   1.091   4.404   2.035  1.4894  2.5693  0.4696
 1038SOL    HW3 4224   1.201   4.383   1.933 -0.1506  0.8578 -0.9607
 1038SOL    MW4 4225   1.118   4.404   1.953 -0.0285  0.4992 -0.0485
 1039SOL     OW 4226   1.566   4.663   1.896 -0.3170 -0.5017  0.1676
 1039SOL    HW2 4227   1.642   4.715   1.921 -0.5140 -0.7851  1.3986
 1039SOL    HW3 4228   1.593   4.572   1.912 -1.2957 -0.5393  1.7709
 1039SOL    MW4 4229   1.580   4.658   1.902 -0.4721 -0.5440  0.5416
 1040SOL     OW 4230   1.364   0.155   1.985 -0.1085  0.0622  0.2651
 1040SOL    HW2 4231   1.369   0.157   2.080  0.6439  1.1617  0.2170
 1040SOL    HW3 4232   1.443   0.108   1.958  0.4178  0.9814  0.1534
 1040SOL    MW4 4233   1.375   0.149   1.994  0.0602  0.3285  0.2441
 1041SOL     OW 4234   1.388   0.425   1.897  0.1680 -0.0760  0.4180
 1041SOL    HW2 4235   1.385   0.331   1.915  1.6966 -0.1879  0.1109
 1041SOL    HW3 4236   1.370   0.431   1.803 -0.3615 -0.0213  0.5198
 1041SOL    MW4 4237   1.385   0.413   1.887  0.2997 -0.0836  0.3911
 1042SOL     OW 4238   1.613   0.561   1.979 -0.1197 -0.0447 -0.1638
 1042SOL    HW2 4239   1.676   0.505   1.934 -1.0794 -0.6994 -0.7160
 1042SOL    HW3 4240   1.529   0.517   1.965 -0.6298  0.5637  0.9604
 1042SOL    MW4 4241   1.610   0.548   1.972 -0.3138 -0.0508 -0.0883
 1043SOL     OW 4242   1.562   0.818   1.897 -0.0011  0.4333 -0.1273
 1043SOL    HW2 4243   1.643   0.861   1.926  0.0610 -0.2323  0.7316
 1043SOL    HW3 4244   1.566   0.731   1.938 -1.8431  0.9090  1.1242
 1043SOL    MW4 4245   1.573   0.812   1.907 -0.2359  0.4082  0.1510
 1044SOL     OW 4246   1.339   0.925   1.987  0.2392  0.4368  0.2367
 1044SOL    HW2 4247   1.343   0.878   2.071 -0.1563  0.5146  0.3015
 1044SOL    HW3 4248   1.419   0.899   1.942  1.9525  2.7433  1.8560
 1044SOL    MW4 4249   1.350   0.915   1.992  0.4131  0.7513  0.4588
 1045SOL     OW 4250   1.344   1.163   1.856 -0.5543 -0.2945 -0.5030
 1045SOL    HW2 4251   1.335   1.080   1.904 -1.3667 -1.0749 -1.9814
 1045SOL    HW3 4252   1.273   1.218   1.889 -0.0949 -0.2317  0.3863
 1045SOL    MW4 4253   1.333   1.159   1.867 -0.6009 -0.3891 -0.5808
 1046SOL     OW 4254   1.585   1.276   1.973 -0.1012  0.7011 -0.0010
 1046SOL    HW2 4255   1.593   1.366   1.940  0.1886  0.2762 -1.1169
 1046SOL    HW3 4256   1.512   1.239   1.924  0.2704  0.0833 -0.0928
 1046SOL    MW4 4257   1.576   1.283   1.962 -0.0139  0.5635 -0.1603
 1047SOL     OW 4258   1.624   1.557   1.907  0.1788 -0.4024  0.1094
 1047SOL    HW2 4259   1.698   1.609   1.939  0.1910 -0.3784  0.0427
 1047SOL    HW3 4260   1.548   1.598   1.948  0.2386 -0.6790  0.4995
 1047SOL    MW4 4261   1.624   1.570   1.917  0.1882 -0.4358  0.1520
 1048SOL     OW 4262   1.389   1.695   1.974  0.0246 -0.0475  0.4319
 1048SOL    HW2 4263   1.363   1.692   2.066 -0.0819  2.0150  0.4956
 1048SOL    HW3 4264   1.318   1.650   1.928 -0.5136 -0.0341  1.2365
 1048SOL    MW4 4265   1.376   1.689   1.980 -0.0604  0.2264  0.5465
 1049SOL     OW 4266   1.373   1.932   1.849  0.3811  0.0477 -0.1674
 1049SOL    HW2 4267   1.363   1.847   1.893  0.3583 -0.4625 -1.1332
 1049SOL    HW3 4268   1.318   1.992   1.899 -0.7412 -0.8296 -0.3352
 1049SOL    MW4 4269   1.364   1.929   1.862  0.2300 -0.1353 -0.3169
 1050SOL     OW 4270   1.583   2.059   1.996  0.2936  0.0511 -0.4106
 1050SOL    HW2 4271   1.568   2.143   1.952  0.2475  0.0320 -0.4323
 1050SOL    HW3 4272   1.522   1.999   1.953  0.6001 -0.0845 -0.6559
 1050SOL    MW4 4273   1.573   2.062   1.984  0.3281  0.0308 -0.4458
 1051SOL     OW 4274   1.582   2.301   1.876  0.5636 -0.1959 -0.2715
 1051SOL    HW2 4275   1.669   2.328   1.905  0.6001 -0.6341  0.0300
 1051SOL    HW3 4276   1.584   2.313   1.781  1.7135 -2.2822 -0.5426
 1051SOL    MW4 4277   1.594   2.306   1.867  0.7201 -0.5291 -0.2675
 1052SOL     OW 4278   1.354   2.450   1.985 -0.1231 -0.0801  0.2463
 1052SOL    HW2 4279   1.351   2.533   1.937  1.1704  1.2194  2.3275
 1052SOL    HW3 4280   1.428   2.403   1.946 -1.0181 -0.3781 -1.1157
 1052SOL    MW4 4281   1.363   2.455   1.974 -0.0706  0.0522  0.3411
 1053SOL     OW 4282   1.325   2.683   1.857 -0.0563  0.1886  0.4231
 1053SOL    HW2 4283   1.248   2.722   1.899 -1.2732 -1.0807 -0.5567
 1053SOL    HW3 4284   1.305   2.687   1.763  1.1502  0.0027  0.1534
 1053SOL    MW4 4285   1.312   2.689   1.850 -0.0578 -0.0036  0.2581
 1054SOL     OW 4286   1.542   2.858   1.932 -0.0753 -0.0973 -0.2627
 1054SOL    HW2 4287   1.618   2.805   1.906  0.4145 -0.1874  1.2878
 1054SOL    HW3 4288   1.466   2.809   1.902  0.3620 -1.8322  1.3699
 1054SOL    MW4 4289   1.542   2.845   1.925  0.0470 -0.3381  0.1575
 1055SOL     OW 4290   1.576   3.124   1.899 -0.1356  0.0285  0.2807
 1055SOL    HW2 4291   1.576   3.029   1.911 -0.0338  0.1512  1.3744
 1055SOL    HW3 4292   1.573   3.137   1.805 -3.2439 -1.0482  0.1904
 1055SOL    MW4 4293   1.576   3.114   1.888 -0.5323 -0.0975  0.4132
 1056SOL     OW 4294   1.358   3.245   1.992 -0.0920  0.5403  0.0149
 1056SOL    HW2 4295   1.435   3.193   1.970 -0.0249  0.8516 -0.4890
 1056SOL    HW3 4296   1.286   3.204   1.944 -0.9313 -1.8995  3.2156
 1056SOL    MW4 4297   1.359   3.233   1.983 -0.1940  0.2596  0.3707
 1057SOL     OW 4298   1.369   3.492   1.832 -0.9027 -0.2963 -0.4539
 1057SOL    HW2 4299   1.384   3.412   1.882 -0.0484  0.1176 -0.0360
 1057SOL    HW3 4300   1.294   3.533   1.874  0.9362  0.9663  1.6569
 1057SOL    MW4 4301   1.361   3.487   1.844 -0.5474 -0.0751 -0.1203
 1058SOL     OW 4302   1.561   3.650   1.929  0.0149 -0.2222 -0.2727
 1058SOL    HW2 4303   1.558   3.644   2.024 -1.2218  0.6633 -0.2571
 1058SOL    HW3 4304   1.484   3.602   1.899 -0.0029  0.1392 -0.8133
 1058SOL    MW4 4305   1.551   3.643   1.937 -0.1506 -0.0577 -0.3420
 1059SOL     OW 4306   1.584   3.907   1.817 -0.0239  0.3478  0.0915
 1059SOL    HW2 4307   1.652   3.951   1.869 -0.7557 -0.9804  2.2333
 1059SOL    HW3 4308   1.581   3.818   1.852 -2.9284  0.3970  0.0482
 1059SOL    MW4 4309   1.593   3.901   1.828 -0.5037  0.1791  0.3685
 1060SOL     OW 4310   1.339   3.987   1.998  0.3419 -0.5937 -0.0323
 1060SOL    HW2 4311   1.410   3.959   1.940  0.8825 -0.2662  0.4678
 1060SOL    HW3 4312   1.261   3.944   1.962  0.6753 -0.4239 -0.9817
 1060SOL    MW4 4313   1.338   3.977   1.985  0.4573 -0.5276 -0.0916
 1061SOL     OW 4314   1.361   4.297   1.866  0.0088 -0.3442 -0.1412
 1061SOL    HW2 4315   1.329   4.207   1.861  0.0121 -0.3115 -0.9071
 1061SOL    HW3 4316   1.397   4.314   1.778  1.5337 -0.1695  0.4983
 1061SOL    MW4 4317   1.362   4.287   1.854  0.2104 -0.3171 -0.1578
 1062SOL     OW 4318   1.597   4.407   1.980 -0.2759 -0.8129 -0.3677
 1062SOL    HW2 4319   1.608   4.417   2.075 -2.0363  0.6260 -0.2697
 1062SOL    HW3 4320   1.506   4.379   1.970 -0.4752  0.2231 -1.6701
 1062SOL    MW4 4321   1.586   4.405   1.992 -0.5345 -0.4859 -0.5268
 1063SOL     OW 4322   2.034   0.001   1.881 -0.0232 -0.3775 -0.0790
 1063SOL    HW2 4323   2.115   0.034   1.919 -0.0815 -1.0042  0.6067
 1063SOL    HW3 4324   2.029  -0.090   1.911  1.0920 -1.6254 -3.4552
 1063SOL    MW4 4325   2.044  -0.007   1.890  0.1161 -0.6249 -0.4342
 1064SOL     OW 4326   1.781   0.152   1.962 -0.3012  0.4640 -0.5609
 1064SOL    HW2 4327   1.789   0.164   2.057 -0.3451 -0.6567 -0.4134
 1064SOL    HW3 4328   1.855   0.096   1.938 -0.9273 -0.1829 -1.0076
 1064SOL    MW4 4329   1.792   0.146   1.971 -0.3897  0.2308 -0.6005
 1065SOL     OW 4330   1.802   0.407   1.866  0.5204  0.1934 -0.2848
 1065SOL    HW2 4331   1.803   0.317   1.899  1.6621 -0.2392 -1.4536
 1065SOL    HW3 4332   1.792   0.398   1.772  3.7530  1.1287 -0.7906
 1065SOL    MW4 4333   1.801   0.394   1.858  1.0976  0.2598 -0.5057
 1066SOL     OW 4334   2.045   0.509   1.954  0.2429  0.2652 -0.0681
 1066SOL    HW2 4335   2.055   0.592   1.909 -2.0611  1.2948  1.1775
 1066SOL    HW3 4336   1.955   0.481   1.933  0.1086 -0.6150  1.5598
 1066SOL    MW4 4337   2.034   0.516   1.945 -0.0787  0.2850  0.3110
 1067SOL     OW 4338   2.042   0.776   1.849 -0.6869  0.2850 -0.6288
 1067SOL    HW2 4339   2.105   0.843   1.876 -1.1924  0.1653  0.8777
 1067SOL    HW3 4340   2.020   0.800   1.758 -0.0874  1.5552 -0.4565
 1067SOL    MW4 4341   2.047   0.788   1.840 -0.6745  0.4368 -0.4073
 1068SOL     OW 4342   1.821   0.902   1.996  0.3816 -0.1458 -0.1956
 1068SOL    HW2 4343   1.808   0.990   1.959 -0.6575  0.5375  1.7189
 1068SOL    HW3 4344   1.887   0.862   1.940  1.0533  1.9561 -0.9510
 1068SOL    MW4 4345   1.828   0.908   1.984  0.3332  0.2217 -0.0427
 1069SOL     OW 4346   1.799   1.138   1.874  0.2015 -0.5532 -0.2327
 1069SOL    HW2 4347   1.729   1.187   1.917  2.2150  2.1920 -0.0027
 1069SOL    HW3 4348   1.780   1.144   1.781 -0.5486 -0.8931 -0.1039
 1069SOL    MW4 4349   1.787   1.145   1.867  0.3682 -0.2358 -0.1854
 1070SOL     OW 4350   2.026   1.296   1.936 -0.0614  0.5211 -0.7971
 1070SOL    HW2 4351   2.098   1.255   1.889 -0.4103  0.6534 -1.4537
 1070SOL    HW3 4352   1.949   1.245   1.912  0.2037 -1.3929  2.1084
 1070SOL    MW4 4353   2.026   1.284   1.927 -0.0725  0.2859 -0.5004
 1071SOL     OW 4354   2.040   1.558   1.847  0.3412 -0.1170  0.2541
 1071SOL    HW2 4355   2.020   1.467   1.869 -2.2425  0.0933 -1.0253
 1071SOL    HW3 4356   2.017   1.565   1.754  0.4230  1.8562  0.3747
 1071SOL    MW4 4357   2.034   1.547   1.837  0.0110  0.1711  0.1011
 1072SOL     OW 4358   1.851   1.687   1.998  0.0919  0.1860 -0.1346
 1072SOL    HW2 4359   1.857   1.782   1.983  1.5890  0.4890  2.0551
 1072SOL    HW3 4360   1.920   1.650   1.943 -1.3604  0.2018 -2.0182
 1072SOL    MW4 4361   1.861   1.695   1.989  0.0978  0.2280 -0.0943
 1073SOL     OW 4362   1.822   1.953   1.919 -0.0081  0.3064 -0.0179
 1073SOL    HW2 4363   1.733   1.980   1.945  0.6746  2.1415  0.4786
 1073SOL    HW3 4364   1.821   1.957   1.823 -0.8188 -0.8977 -0.0745
 1073SOL    MW4 4365   1.810   1.957   1.910 -0.0250  0.3896  0.0402
 1074SOL     OW 4366   2.043   2.087   2.018 -0.5235 -0.1595 -0.4919
 1074SOL    HW2 4367   2.114   2.039   1.974 -0.0448  0.5682 -0.5093
 1074SOL    HW3 4368   1.963   2.050   1.980 -0.1749 -1.3877 -0.0540
 1074SOL    MW4 4369   2.042   2.075   2.007 -0.4144 -0.2253 -0.4361
 1075SOL     OW 4370   2.031   2.339   1.884  0.4992 -0.7230  0.3408
 1075SOL    HW2 4371   2.101   2.397   1.915  0.8931 -0.4511 -0.9968
 1075SOL    HW3 4372   2.054   2.252   1.916  0.7511 -0.4064  1.0169
 1075SOL    MW4 4373   2.043   2.335   1.892  0.5846 -0.6454  0.2534
 1076SOL     OW 4374   1.792   2.453   1.957 -0.1997  0.3585 -0.2710
 1076SOL    HW2 4375   1.789   2.467   2.051 -1.3169  0.2551 -0.2924
 1076SOL    HW3 4376   1.877   2.411   1.942 -0.8756 -1.5347  0.9587
 1076SOL    MW4 4377   1.803   2.449   1.967 -0.4363  0.0954 -0.1115
 1077SOL     OW 4378   1.769   2.715   1.861 -0.2188 -0.3107 -0.1947
 1077SOL    HW2 4379   1.783   2.622   1.880  0.1906 -0.3891 -0.8449
 1077SOL    HW3 4380   1.789   2.723   1.767  1.2625  0.7184  0.1910
 1077SOL    MW4 4381   1.773   2.704   1.851  0.0308 -0.1855 -0.2297
 1078SOL     OW 4382   1.981   2.872   1.983  0.1990  0.2010 -0.3898
 1078SOL    HW2 4383   1.981   2.861   2.078 -0.1021 -2.0421 -0.6227
 1078SOL    HW3 4384   1.910   2.816   1.952  1.2024 -0.1948 -2.0455
 1078SOL    MW4 4385   1.971   2.864   1.992  0.2917 -0.1469 -0.6390
 1079SOL     OW 4386   2.003   3.151   1.869  0.6301 -0.0781 -0.4069
 1079SOL    HW2 4387   1.922   3.197   1.891  0.6907 -0.9892  1.7660
 1079SOL    HW3 4388   1.991   3.062   1.902  2.5586 -0.1911  0.0655
 1079SOL    MW4 4389   1.991   3.145   1.876  0.8925 -0.2131 -0.0581
 1080SOL     OW 4390   1.783   3.274   1.989 -0.3295 -0.3118 -0.1132
 1080SOL    HW2 4391   1.787   3.260   2.083  0.5463 -1.5404 -0.3154
 1080SOL    HW3 4392   1.704   3.228   1.961 -1.5412  1.5262  0.2527
 1080SOL    MW4 4393   1.773   3.266   1.997 -0.3738 -0.2313 -0.0914
 1081SOL     OW 4394   1.765   3.493   1.835  0.3592  0.1162  0.0897
 1081SOL    HW2 4395   1.772   3.411   1.885  1.5328  0.3559  0.3445
 1081SOL    HW3 4396   1.703   3.546   1.885 -1.0561 -0.9388 -0.5349
 1081SOL    MW4 4397   1.758   3.489   1.848  0.3273  0.0088  0.0410
 1082SOL     OW 4398   1.963   3.596   1.996 -0.0612 -0.0902  0.2552
 1082SOL    HW2 4399   1.974   3.686   1.965 -1.2409  0.4400  1.3025
 1082SOL    HW3 4400   1.897   3.559   1.939  1.7848 -0.9234 -1.3865
 1082SOL    MW4 4401   1.956   3.603   1.985  0.0267 -0.1304  0.1768
 1083SOL     OW 4402   1.995   3.846   1.853 -0.0492 -0.0077 -0.2569
 1083SOL    HW2 4403   2.066   3.892   1.896  0.2422  0.1687 -0.9150
 1083SOL    HW3 4404   2.008   3.863   1.759 -0.2487 -0.9769 -0.4711
 1083SOL    MW4 4405   2.006   3.854   1.846 -0.0370 -0.1123 -0.3719
 1084SOL     OW 4406   1.789   4.012   1.966 -0.3607  0.0161 -0.6499
 1084SOL    HW2 4407   1.807   4.099   1.931 -1.5313  0.8275  0.6820
 1084SOL    HW3 4408   1.868   3.961   1.949  0.3667  1.3695 -1.3366
 1084SOL    MW4 4409   1.802   4.016   1.959 -0.4193  0.3018 -0.5648
 1085SOL     OW 4410   1.812   4.260   1.854  0.7506  0.0205  0.0184
 1085SOL    HW2 4411   1.749   4.320   1.894  0.6969 -0.4661  0.6875
 1085SOL    HW3 4412   1.796   4.267   1.760 -0.2853 -0.0764  0.1800
 1085SOL    MW4 4413   1.801   4.269   1.847  0.6067 -0.0563  0.1279
 1086SOL     OW 4414   2.031   4.417   1.940  0.1613  0.0908 -0.0204
 1086SOL    HW2 4415   2.106   4.359   1.925 -0.8074 -1.3648  0.6033
 1086SOL    HW3 4416   1.955   4.365   1.913 -0.6498  1.4348 -0.3601
 1086SOL    MW4 4417   2.031   4.402   1.934 -0.0737  0.0763  0.0169
 1087SOL     OW 4418   2.489   0.000   1.869 -0.1209  0.0294 -0.2380
 1087SOL    HW2 4419   2.573   0.043   1.886 -0.4721  0.5664  0.1413
 1087SOL    HW3 4420   2.504  -0.091   1.893 -0.2610  0.5419  1.8413
 1087SOL    MW4 4421   2.502  -0.006   1.874 -0.1857  0.1678  0.0864
 1088SOL     OW 4422   2.272   0.108   2.004 -0.3973  0.2651 -0.3286
 1088SOL    HW2 4423   2.296   0.130   2.095 -2.0005 -0.0399  0.1821
 1088SOL    HW3 4424   2.352   0.072   1.967  0.9463  2.4761  0.2735
 1088SOL    MW4 4425   2.286   0.106   2.011 -0.4315  0.5165 -0.1817
 1089SOL     OW 4426   2.267   0.366   1.853  0.0711 -0.1900 -0.0872
 1089SOL    HW2 4427   2.278   0.279   1.892  2.0501 -0.2162 -0.6619
 1089SOL    HW3 4428   2.201   0.408   1.908  0.0825 -1.5786  1.0227
 1089SOL    MW4 4429   2.260   0.360   1.866  0.3335 -0.3766 -0.0166
 1090SOL     OW 4430   2.470   0.545   1.914 -0.6222 -0.0039  0.0183
 1090SOL    HW2 4431   2.548   0.513   1.868 -0.7772  1.5158 -1.3179
 1090SOL    HW3 4432   2.409   0.471   1.911 -0.3505 -0.1867 -1.5621
 1090SOL    MW4 4433   2.472   0.531   1.908 -0.6070  0.1724 -0.3664
 1091SOL     OW 4434   2.456   0.804   1.841 -0.0284  0.1421 -0.0575
 1091SOL    HW2 4435   2.442   0.712   1.865  0.7179  0.0551  0.0860
 1091SOL    HW3 4436   2.449   0.805   1.746 -0.0402 -0.0719 -0.0598
 1091SOL    MW4 4437   2.453   0.792   1.832  0.0684  0.1024 -0.0387
 1092SOL     OW 4438   2.231   0.967   1.931 -0.6162  0.1474 -0.1302
 1092SOL    HW2 4439   2.241   0.941   2.023  0.8552  1.8308  0.2065
 1092SOL    HW3 4440   2.315   0.944   1.890 -1.2367 -0.5208 -1.0569
 1092SOL    MW4 4441   2.243   0.960   1.938 -0.5038  0.2814 -0.2081
 1093SOL     OW 4442   2.259   1.219   1.824 -0.4800  0.5143  0.0335
 1093SOL    HW2 4443   2.334   1.261   1.867 -0.2806  0.5636 -0.3635
 1093SOL    HW3 4444   2.260   1.129   1.857 -0.4959  0.6302  0.3512
 1093SOL    MW4 4445   2.269   1.213   1.834 -0.4559  0.5360  0.0231
 1094SOL     OW 4446   2.473   1.339   1.973 -0.0158 -0.4122  0.2605
 1094SOL    HW2 4447   2.469   1.343   2.069 -1.0761 -0.2617  0.2166
 1094SOL    HW3 4448   2.474   1.431   1.946 -0.0616 -0.4546  0.1159
 1094SOL    MW4 4449   2.472   1.352   1.982 -0.1619 -0.3979  0.2357
 1095SOL     OW 4450   2.495   1.602   1.884  0.3817  0.6174 -0.2549
 1095SOL    HW2 4451   2.420   1.656   1.907  1.2285  1.9270 -0.4709
 1095SOL    HW3 4452   2.503   1.611   1.789  0.2967 -0.1924 -0.3360
 1095SOL    MW4 4453   2.486   1.610   1.875  0.4826  0.6832 -0.2940
 1096SOL     OW 4454   2.251   1.726   1.967 -0.1119 -0.5934 -0.4741
 1096SOL    HW2 4455   2.242   1.713   2.061 -2.4439  1.0181 -0.4285
 1096SOL    HW3 4456   2.209   1.649   1.927  1.2257 -1.4683 -0.2142
 1096SOL    MW4 4457   2.244   1.714   1.974 -0.2432 -0.4963 -0.4338
 1097SOL     OW 4458   2.261   1.986   1.867 -0.6159  0.2594 -0.1887
 1097SOL    HW2 4459   2.335   2.034   1.905 -0.7529  0.6180 -0.3860
 1097SOL    HW3 4460   2.267   1.899   1.908  0.1965  0.1347 -0.5601
 1097SOL    MW4 4461   2.272   1.981   1.878 -0.5264  0.2903 -0.2637
 1098SOL     OW 4462   2.459   2.113   1.971  0.4144 -0.5163 -0.4160
 1098SOL    HW2 4463   2.542   2.082   1.935  0.4957 -0.1246 -0.5707
 1098SOL    HW3 4464   2.456   2.205   1.947  1.3064  0.2230  2.1023
 1098SOL    MW4 4465   2.470   2.121   1.963  0.5426 -0.3672 -0.1042
 1099SOL     OW 4466   2.485   2.365   1.886  0.2046 -0.1551 -0.4125
 1099SOL    HW2 4467   2.558   2.415   1.922 -0.4930 -0.3478  1.3119
 1099SOL    HW3 4468   2.407   2.404   1.926 -0.4321 -1.8250  0.0053
 1099SOL    MW4 4469   2.484   2.377   1.896  0.0284 -0.4010 -0.1299
 1100SOL     OW 4470   2.251   2.477   1.984  0.5241 -0.2931  0.5493
 1100SOL    HW2 4471   2.263   2.465   2.078  1.1190  0.2252  0.5440
 1100SOL    HW3 4472   2.235   2.570   1.973 -3.7656 -0.9277  0.5578
 1100SOL    MW4 4473   2.250   2.487   1.995  0.0367 -0.3083  0.5498
 1101SOL     OW 4474   2.228   2.743   1.919  0.0870  0.9209 -0.4098
 1101SOL    HW2 4475   2.151   2.795   1.945 -0.5621  0.2561 -0.9934
 1101SOL    HW3 4476   2.230   2.748   1.824 -0.4628 -0.7838 -0.5342
 1101SOL    MW4 4477   2.218   2.751   1.910 -0.0713  0.6082 -0.5031
 1102SOL     OW 4478   2.455   2.842   2.026 -0.0338 -0.3395  0.2489
 1102SOL    HW2 4479   2.467   2.925   1.979 -1.6584 -0.5123 -0.5043
 1102SOL    HW3 4480   2.378   2.802   1.984  1.7189 -3.0079 -0.4954
 1102SOL    MW4 4481   2.446   2.848   2.014 -0.0167 -0.7145  0.0513
 1103SOL     OW 4482   2.455   3.080   1.902  0.3690  0.8900  0.6273
 1103SOL    HW2 4483   2.378   3.131   1.926 -0.7330  0.3301 -1.5844
 1103SOL    HW3 4484   2.468   3.097   1.809 -0.5412 -3.4097 -0.4275
 1103SOL    MW4 4485   2.447   3.089   1.893  0.1032  0.2489  0.1963
 1104SOL     OW 4486   2.228   3.275   1.973 -0.4335 -0.3075  0.1506
 1104SOL    HW2 4487   2.222   3.271   2.068  0.1270 -0.9147  0.1724
 1104SOL    HW3 4488   2.148   3.232   1.942 -0.9154  0.4494  0.3411
 1104SOL    MW4 4489   2.217   3.269   1.981 -0.4234 -0.2878  0.1786
 1105SOL     OW 4490   2.221   3.537   1.899 -0.3615 -0.1677  0.4723
 1105SOL    HW2 4491   2.235   3.449   1.933  0.6696  0.0686  0.6737
 1105SOL    HW3 4492   2.136   3.564   1.934  0.0199 -0.4920  1.6471
 1105SOL    MW4 4493   2.212   3.529   1.908 -0.1752 -0.1793  0.6539
 1106SOL     OW 4494   2.479   3.617   1.954  0.1018 -0.1506  0.1247
 1106SOL    HW2 4495   2.482   3.617   2.049  1.2308 -1.0861  0.1038
 1106SOL    HW3 4496   2.388   3.595   1.933 -0.2857  0.6287  0.9758
 1106SOL    MW4 4497   2.467   3.614   1.964  0.1996 -0.1712  0.2342
 1107SOL     OW 4498   2.479   3.879   1.869  0.9618  0.3888 -0.1482
 1107SOL    HW2 4499   2.390   3.908   1.889  1.4139  1.7698 -0.0872
 1107SOL    HW3 4500   2.479   3.786   1.891  0.2700  0.9460  2.4640
 1107SOL    MW4 4501   2.467   3.871   1.875  0.9301  0.6444  0.2044
 1108SOL     OW 4502   2.223   3.972   1.916  0.4855  0.4705 -0.2039
 1108SOL    HW2 4503   2.244   3.997   2.006 -0.6778  0.7447 -0.0017
 1108SOL    HW3 4504   2.219   4.055   1.869 -2.6223  0.6542  0.3036
 1108SOL    MW4 4505   2.225   3.986   1.922 -0.0780  0.5310 -0.1101
 1109SOL     OW 4506   2.243   4.242   1.850  0.1937 -0.2558 -0.4873
 1109SOL    HW2 4507   2.327   4.275   1.883  0.0054  0.4138 -0.6714
 1109SOL    HW3 4508   2.239   4.274   1.760 -0.4713  0.1161 -0.3312
 1109SOL    MW4 4509   2.254   4.251   1.843  0.0813 -0.1183 -0.4909
 1110SOL     OW 4510   2.497   4.382   1.926 -0.6230  0.2419  0.2382
 1110SOL    HW2 4511   2.511   4.390   2.021 -0.5143 -1.1829  0.3517
 1110SOL    HW3 4512   2.580   4.350   1.892 -0.9859 -0.2384 -0.2042
 1110SOL    MW4 4513   2.510   4.379   1.934 -0.6561 -0.0091  0.1947
 1111SOL     OW 4514   2.958   0.014   1.836  0.4510 -0.1428 -0.3145
 1111SOL    HW2 4515   3.016   0.078   1.878 -1.1154  1.6186 -0.7859
 1111SOL    HW3 4516   2.974  -0.068   1.883  1.7938  0.8114  0.9202
 1111SOL    MW4 4517   2.968   0.011   1.848  0.4220  0.2155 -0.2139
 1112SOL     OW 4518   2.724   0.133   1.948  0.2321  0.2562 -0.3255
 1112SOL    HW2 4519   2.736   0.108   2.039 -0.8094 -0.4587 -0.3793
 1112SOL    HW3 4520   2.792   0.085   1.900  0.0016 -0.3259 -0.0745
 1112SOL    MW4 4521   2.734   0.123   1.953  0.0641  0.0851 -0.2997
 1113SOL     OW 4522   2.696   0.388   1.833 -0.0018  0.0742 -0.9564
 1113SOL    HW2 4523   2.776   0.430   1.863 -0.7985  0.7289  0.2959
 1113SOL    HW3 4524   2.685   0.313   1.892 -0.2746 -0.0466 -1.1600
 1113SOL    MW4 4525   2.705   0.384   1.845 -0.1426  0.1447 -0.8181
 1114SOL     OW 4526   2.956   0.485   1.924  0.6898  0.2779  0.4949
 1114SOL    HW2 4527   3.041   0.462   1.886  0.7582  1.8890 -0.3712
 1114SOL    HW3 4528   2.950   0.580   1.914 -2.0344  0.0048 -1.1789
 1114SOL    MW4 4529   2.966   0.495   1.918  0.3393  0.4544  0.1597
 1115SOL     OW 4530   2.901   0.753   1.871  0.4114  0.1253 -0.0003
 1115SOL    HW2 4531   2.985   0.781   1.908 -0.2969  1.6052  0.5682
 1115SOL    HW3 4532   2.836   0.805   1.919 -0.8005 -0.7499 -0.6683
 1115SOL    MW4 4533   2.904   0.764   1.883  0.1585  0.2051 -0.0135
 1116SOL     OW 4534   2.688   0.906   1.951  0.0571  0.1230 -0.0427
 1116SOL    HW2 4535   2.696   0.998   1.925  2.9021  0.0265  0.3445
 1116SOL    HW3 4536   2.609   0.876   1.907 -0.6125  2.6010 -0.6395
 1116SOL    MW4 4537   2.679   0.914   1.942  0.3440  0.4372 -0.0703
 1117SOL     OW 4538   2.707   1.195   1.893  0.2110 -0.1148 -0.0448
 1117SOL    HW2 4539   2.634   1.240   1.935 -0.8778 -2.9227  1.2063
 1117SOL    HW3 4540   2.678   1.182   1.802 -0.5151 -0.4729  0.2295
 1117SOL    MW4 4541   2.693   1.199   1.886 -0.0284 -0.5325  0.1564
 1118SOL     OW 4542   2.968   1.282   1.976 -0.3585  0.1851  0.2268
 1118SOL    HW2 4543   2.971   1.377   1.960  1.3094 -0.2344 -2.2425
 1118SOL    HW3 4544   2.882   1.255   1.944  0.2857  0.4526 -1.7976
 1118SOL    MW4 4545   2.957   1.291   1.970 -0.0532  0.1650 -0.3660
 1119SOL     OW 4546   2.961   1.571   1.917 -0.2150  0.2110 -0.3722
 1119SOL    HW2 4547   3.036   1.632   1.922  0.0037  0.1489 -2.4553
 1119SOL    HW3 4548   2.936   1.572   1.825 -1.6573 -1.1601 -0.0093
 1119SOL    MW4 4549   2.968   1.579   1.905 -0.3767  0.0219 -0.5991
 1120SOL     OW 4550   2.726   1.719   1.965 -0.3665 -0.0698  0.5370
 1120SOL    HW2 4551   2.804   1.669   1.940 -0.9991 -1.0029  0.3991
 1120SOL    HW3 4552   2.653   1.660   1.945 -1.3190  1.9700 -2.4223
 1120SOL    MW4 4553   2.727   1.705   1.959 -0.5755  0.0763  0.1283
 1121SOL     OW 4554   2.698   2.012   1.864  0.0737 -0.2358  0.1117
 1121SOL    HW2 4555   2.764   2.057   1.917 -1.4563 -0.2492  2.0764
 1121SOL    HW3 4556   2.710   1.919   1.884  0.6704 -0.3922 -0.9525
 1121SOL    MW4 4557   2.708   2.006   1.874 -0.0494 -0.2580  0.2306
 1122SOL     OW 4558   2.935   2.126   1.986 -0.5206 -0.3365 -0.1060
 1122SOL    HW2 4559   2.956   2.158   2.074 -1.9527  1.7634 -0.4864
 1122SOL    HW3 4560   3.011   2.073   1.962  0.5345  0.2080  1.8338
 1122SOL    MW4 4561   2.948   2.124   1.995 -0.5703  0.0126  0.0998
 1123SOL     OW 4562   2.898   2.379   1.883 -0.0400  0.0530  0.2833
 1123SOL    HW2 4563   2.975   2.429   1.910 -0.3703  0.2812  0.8142
 1123SOL    HW3 4564   2.916   2.289   1.913 -0.1199  0.1729  0.6966
 1123SOL    MW4 4565   2.911   2.373   1.890 -0.0942  0.0989  0.4079
 1124SOL     OW 4566   2.686   2.507   2.006  0.1362 -0.6466  0.1549
 1124SOL    HW2 4567   2.679   2.595   1.969  0.3028 -0.4436  0.6163
 1124SOL    HW3 4568   2.746   2.461   1.947  0.2729 -0.3687  0.0775
 1124SOL    MW4 4569   2.693   2.512   1.993  0.1764 -0.5832  0.2053
 1125SOL     OW 4570   2.688   2.762   1.914 -0.0636  0.1602  0.1588
 1125SOL    HW2 4571   2.599   2.780   1.942 -0.4597 -0.4418 -0.6708
 1125SOL    HW3 4572   2.685   2.771   1.818  1.1858  1.9551  0.2454
 1125SOL    MW4 4573   2.676   2.766   1.905  0.0489  0.3173  0.0607
 1126SOL     OW 4574   2.913   2.890   2.010  0.0355 -0.8936  0.0091
 1126SOL    HW2 4575   2.908   2.975   1.967 -0.9446  1.1359  3.8945
 1126SOL    HW3 4576   2.829   2.849   1.992 -0.0440 -0.4258 -0.6844
 1126SOL    MW4 4577   2.901   2.896   2.002 -0.1044 -0.5639  0.4303
 1127SOL     OW 4578   2.932   3.136   1.906  0.2346  0.4304  0.6899
 1127SOL    HW2 4579   2.998   3.175   1.963 -0.7656  0.4370  1.8717
 1127SOL    HW3 4580   2.850   3.179   1.932 -0.4078 -0.4047  0.0500
 1127SOL    MW4 4581   2.929   3.147   1.917  0.0176  0.3211  0.7614
 1128SOL     OW 4582   2.673   3.249   2.008  0.4089  0.1682 -0.2040
 1128SOL    HW2 4583   2.684   3.323   1.948 -1.0575 -0.0698 -0.7984
 1128SOL    HW3 4584   2.608   3.193   1.965 -0.4386 -0.1616  1.4468
 1128SOL    MW4 4585   2.666   3.252   1.994  0.1035  0.0932 -0.0645
 1129SOL     OW 4586   2.704   3.480   1.872  0.5263  0.3145 -0.1930
 1129SOL    HW2 4587   2.776   3.534   1.903  1.2268 -0.3863 -0.6038
 1129SOL    HW3 4588   2.625   3.526   1.903  1.1326  1.1491  0.1312
 1129SOL    MW4 4589   2.703   3.493   1.880  0.6986  0.3321 -0.2044
 1130SOL     OW 4590   2.911   3.650   1.975  0.1316 -0.2724  0.6386
 1130SOL    HW2 4591   2.910   3.659   2.070  2.3392  1.5703  0.5149
 1130SOL    HW3 4592   2.991   3.601   1.957  1.9173  2.9123 -0.4943
 1130SOL    MW4 4593   2.921   3.645   1.985  0.6588  0.3908  0.4728
 1131SOL     OW 4594   2.944   3.901   1.880  0.3969  0.7052  0.0869
 1131SOL    HW2 4595   2.945   3.807   1.898  0.7166  0.7199  0.1495
 1131SOL    HW3 4596   2.957   3.907   1.785 -1.6413  0.6175 -0.2039
 1131SOL    MW4 4597   2.946   3.889   1.870  0.1705  0.6955  0.0569
 1132SOL     OW 4598   2.701   4.044   1.945  0.3672  0.0307 -0.2742
 1132SOL    HW2 4599   2.773   3.986   1.924  1.7777  1.4934  0.3647
 1132SOL    HW3 4600   2.622   3.992   1.931  1.5378 -1.4853 -1.2983
 1132SOL    MW4 4601   2.700   4.030   1.941  0.7076  0.0238 -0.3250
 1133SOL     OW 4602   2.749   4.302   1.847  0.2203 -0.1722 -0.0574
 1133SOL    HW2 4603   2.750   4.212   1.880  0.3974 -0.0614  0.2428
 1133SOL    HW3 4604   2.741   4.293   1.752  2.2252 -0.5319 -0.1976
 1133SOL    MW4 4605   2.748   4.289   1.839  0.5081 -0.2050 -0.0364
 1134SOL     OW 4606   2.962   4.424   1.941 -0.4351  0.1342  0.0503
 1134SOL    HW2 4607   2.956   4.402   2.033  1.4762 -1.6777 -0.2161
 1134SOL    HW3 4608   2.888   4.379   1.900 -0.1313 -0.7097  0.4161
 1134SOL    MW4 4609   2.952   4.415   1.947 -0.1428 -0.2160  0.0634
 1135SOL     OW 4610   3.406   0.036   1.910  0.5247  0.1719 -0.0077
 1135SOL    HW2 4611   3.402  -0.052   1.946 -0.9490  0.0941 -0.3481
 1135SOL    HW3 4612   3.380   0.027   1.819 -1.0161  1.1341  0.3030
 1135SOL    MW4 4613   3.402   0.023   1.903  0.1268  0.2885 -0.0116
 1136SOL     OW 4614   3.161   0.166   1.958 -0.6063 -0.4147  0.5501
 1136SOL    HW2 4615   3.156   0.170   2.054  1.2350  1.7459  0.5873
 1136SOL    HW3 4616   3.246   0.127   1.940 -0.7973 -0.4788 -0.2049
 1136SOL    MW4 4617   3.171   0.162   1.968 -0.3886 -0.1381  0.4553
 1137SOL     OW 4618   3.196   0.414   1.841 -0.0779  0.0437 -0.6562
 1137SOL    HW2 4619   3.190   0.324   1.875  0.7747  0.2543  0.0804
 1137SOL    HW3 4620   3.203   0.403   1.747  2.4338 -0.8228 -0.4315
 1137SOL    MW4 4621   3.196   0.400   1.833  0.3660 -0.0428 -0.5294
 1138SOL     OW 4622   3.389   0.529   2.010 -0.6327 -0.6018  0.4565
 1138SOL    HW2 4623   3.467   0.503   1.961 -0.5224  2.2723 -0.9336
 1138SOL    HW3 4624   3.315   0.495   1.958 -0.3950 -2.2271  1.1323
 1138SOL    MW4 4625   3.389   0.521   1.997 -0.5867 -0.4370  0.3619
 1139SOL     OW 4626   3.369   0.755   1.851  0.1229 -0.2683 -0.3355
 1139SOL    HW2 4627   3.299   0.799   1.899 -0.4164  0.2013 -1.5490
 1139SOL    HW3 4628   3.379   0.671   1.896  1.0972  1.0147  1.9373
 1139SOL    MW4 4629   3.361   0.750   1.863  0.1802 -0.0371 -0.1957
 1140SOL     OW 4630   3.134   0.879   1.978 -0.0286  0.2838 -0.3893
 1140SOL    HW2 4631   3.158   0.892   2.070 -2.1506  0.0929  0.2103
 1140SOL    HW3 4632   3.135   0.967   1.941 -2.0185  0.7272  0.5526
 1140SOL    MW4 4633   3.137   0.893   1.985 -0.5710  0.3170 -0.1860
 1141SOL     OW 4634   3.152   1.131   1.843  0.0036  0.2962 -0.1118
 1141SOL    HW2 4635   3.233   1.179   1.862  1.1017 -0.4614 -2.6594
 1141SOL    HW3 4636   3.083   1.181   1.887  1.7150  1.5910  1.1358
 1141SOL    MW4 4637   3.154   1.144   1.851  0.3743  0.3670 -0.2834
 1142SOL     OW 4638   3.372   1.298   1.915  0.2023 -1.0317 -0.0933
 1142SOL    HW2 4639   3.352   1.299   2.008  1.2921 -0.5622  0.1434
 1142SOL    HW3 4640   3.366   1.389   1.888 -0.9699 -1.2689 -0.6832
 1142SOL    MW4 4641   3.369   1.310   1.924  0.1915 -1.0010 -0.1397
 1143SOL     OW 4642   3.376   1.563   1.897 -0.2743 -0.1547 -0.2826
 1143SOL    HW2 4643   3.458   1.580   1.942 -0.7358 -1.7061  1.1878
 1143SOL    HW3 4644   3.311   1.615   1.946 -0.5243 -0.6535 -0.0814
 1143SOL    MW4 4645   3.378   1.572   1.909 -0.3681 -0.4251 -0.0620
 1144SOL     OW 4646   3.173   1.730   1.983 -0.1809 -0.2414  0.3082
 1144SOL    HW2 4647   3.169   1.740   2.078  2.1859  0.2675  0.3844
 1144SOL    HW3 4648   3.172   1.819   1.949 -1.7844 -0.4457 -0.1887
 1144SOL    MW4 4649   3.172   1.743   1.991 -0.0803 -0.2012  0.2526
 1145SOL     OW 4650   3.152   1.992   1.881 -0.0076  0.2894 -0.1532
 1145SOL    HW2 4651   3.231   2.039   1.909 -0.1608  1.3147 -1.3815
 1145SOL    HW3 4652   3.160   1.988   1.785 -1.5392  0.5845 -0.3052
 1145SOL    MW4 4653   3.163   1.998   1.872 -0.2301  0.4637 -0.3352
 1146SOL     OW 4654   3.420   2.057   1.969 -0.1207  0.2835  0.3557
 1146SOL    HW2 4655   3.490   2.015   1.919 -1.6837 -0.1886 -1.5224
 1146SOL    HW3 4656   3.417   2.147   1.934 -1.0518  0.0283 -0.2401
 1146SOL    MW4 4657   3.428   2.064   1.957 -0.4494  0.1874  0.0293
 1147SOL     OW 4658   3.373   2.337   1.856  0.1565  0.2495 -0.0324
 1147SOL    HW2 4659   3.293   2.387   1.873  1.5358  2.4866  0.1594
 1147SOL    HW3 4660   3.373   2.322   1.762 -0.3849  0.4586 -0.0665
 1147SOL    MW4 4661   3.363   2.342   1.846  0.2670  0.5724 -0.0116
 1148SOL     OW 4662   3.149   2.473   1.956  0.0522  0.2344 -0.8209
 1148SOL    HW2 4663   3.170   2.472   2.049 -1.4322 -0.7796 -0.4889
 1148SOL    HW3 4664   3.143   2.566   1.934  0.1992  0.4737  0.1368
 1148SOL    MW4 4665   3.151   2.485   1.965 -0.1242  0.1323 -0.6508
 1149SOL     OW 4666   3.156   2.760   1.916 -0.4774 -0.1025  0.2752
 1149SOL    HW2 4667   3.075   2.804   1.942 -0.9088 -0.9420  0.3659
 1149SOL    HW3 4668   3.150   2.753   1.821 -1.5761 -2.1830  0.4642
 1149SOL    MW4 4669   3.145   2.765   1.907 -0.6793 -0.4878  0.3123
 1150SOL     OW 4670   3.426   2.849   1.984  0.1617  0.1156 -0.0426
 1150SOL    HW2 4671   3.451   2.833   2.075  0.0360 -0.4278 -0.1009
 1150SOL    HW3 4672   3.336   2.818   1.978  0.9298 -2.0917 -0.9350
 1150SOL    MW4 4673   3.418   2.843   1.995  0.2468 -0.2472 -0.1681
 1151SOL     OW 4674   3.381   3.104   1.910 -0.5905 -0.0971 -0.0202
 1151SOL    HW2 4675   3.462   3.150   1.932 -0.5857 -0.7781  1.4283
 1151SOL    HW3 4676   3.391   3.017   1.949 -1.1620 -0.8831 -1.6001
 1151SOL    MW4 4677   3.393   3.099   1.918 -0.6652 -0.2909 -0.0376
 1152SOL     OW 4678   3.177   3.259   2.033  0.2460  0.0459  0.4838
 1152SOL    HW2 4679   3.156   3.339   1.985  0.5924  0.4705  1.0310
 1152SOL    HW3 4680   3.246   3.217   1.983 -0.0526  0.0078  0.1053
 1152SOL    MW4 4681   3.183   3.264   2.020  0.2522  0.0968  0.5059
 1153SOL     OW 4682   3.141   3.508   1.911 -0.4354  0.4711 -0.2051
 1153SOL    HW2 4683   3.226   3.540   1.941 -0.1188 -0.4834 -0.0680
 1153SOL    HW3 4684   3.145   3.515   1.816 -0.1016  0.1886 -0.2149
 1153SOL    MW4 4685   3.153   3.513   1.903 -0.3495  0.3078 -0.1884
 1154SOL     OW 4686   3.374   3.633   2.010  0.1874 -0.1074 -0.2512
 1154SOL    HW2 4687   3.453   3.600   1.967  2.0408  2.8863  0.7010
 1154SOL    HW3 4688   3.366   3.723   1.978 -3.6199 -0.7438 -1.3288
 1154SOL    MW4 4689   3.383   3.641   2.000 -0.0703  0.2034 -0.2677
 1155SOL     OW 4690   3.379   3.884   1.886 -0.0964  0.1238  0.1193
 1155SOL    HW2 4691   3.315   3.954   1.893 -0.1919  0.0079  0.4365
 1155SOL    HW3 4692   3.406   3.884   1.795  0.0729  0.7208  0.1709
 1155SOL    MW4 4693   3.374   3.893   1.875 -0.0865  0.1872  0.1680
 1156SOL     OW 4694   3.159   4.033   1.995  0.3829 -0.2059 -0.1833
 1156SOL    HW2 4695   3.158   4.039   2.090 -0.3481  0.2428 -0.2085
 1156SOL    HW3 4696   3.080   3.983   1.973  0.0807  0.4378 -0.5891
 1156SOL    MW4 4697   3.148   4.027   2.005  0.2465 -0.0615 -0.2403
 1157SOL     OW 4698   3.161   4.269   1.838 -0.3529 -0.1868 -0.2067
 1157SOL    HW2 4699   3.148   4.193   1.894  0.8389 -0.3015 -0.0727
 1157SOL    HW3 4700   3.095   4.332   1.866  0.6001 -0.0170  1.7223
 1157SOL    MW4 4701   3.151   4.268   1.849 -0.0701 -0.1793  0.0656
 1158SOL     OW 4702   3.377   4.428   1.957 -0.6844 -0.0810 -0.0367
 1158SOL    HW2 4703   3.454   4.381   1.925 -0.8498 -0.3039 -0.1010
 1158SOL    HW3 4704   3.302   4.376   1.928 -0.8295 -0.5045  1.0533
 1158SOL    MW4 4705   3.377   4.415   1.949 -0.7253 -0.1655  0.0988
 1159SOL     OW 4706   3.852   4.634   1.877 -0.1303  0.4150  0.2676
 1159SOL    HW2 4707   3.832   4.555   1.928 -2.2401 -0.0873 -1.2586
 1159SOL    HW3 4708   3.787   4.698   1.907  1.8842  1.8034  1.8644
 1159SOL    MW4 4709   3.841   4.632   1.888 -0.1428  0.5317  0.2770
 1160SOL     OW 4710   3.660   0.155   1.953  0.0881  0.6423 -0.2780
 1160SOL    HW2 4711   3.647   0.152   2.048  0.3584  0.3268 -0.2517
 1160SOL    HW3 4712   3.584   0.108   1.918  1.2660 -1.4233 -0.1106
 1160SOL    MW4 4713   3.648   0.149   1.961  0.2792  0.3281 -0.2525
 1161SOL     OW 4714   3.615   0.435   1.874 -0.7075 -0.2616  0.0923
 1161SOL    HW2 4715   3.627   0.344   1.901  1.2937  0.1471  0.6803
 1161SOL    HW3 4716   3.622   0.433   1.778 -0.1195 -0.6531  0.1423
 1161SOL    MW4 4717   3.617   0.422   1.865 -0.3657 -0.2593  0.1765
 1162SOL     OW 4718   3.858   0.550   1.939 -0.2615 -0.1944 -0.4697
 1162SOL    HW2 4719   3.864   0.645   1.947  0.4093 -0.0538 -2.3159
 1162SOL    HW3 4720   3.768   0.533   1.912 -0.8493 -0.2316  1.4333
 1162SOL    MW4 4721   3.847   0.560   1.936 -0.2501 -0.1807 -0.4623
 1163SOL     OW 4722   3.867   0.823   1.897  0.3410  0.1371 -0.5530
 1163SOL    HW2 4723   3.785   0.868   1.918  0.7389  0.4176  0.4077
 1163SOL    HW3 4724   3.862   0.808   1.802 -1.1034 -0.4347 -0.3948
 1163SOL    MW4 4725   3.856   0.827   1.887  0.2031  0.0986 -0.4054
 1164SOL     OW 4726   3.607   0.894   1.951  0.9328 -0.3513 -0.0211
 1164SOL    HW2 4727   3.606   0.975   1.901 -0.9883  0.1340  0.7549
 1164SOL    HW3 4728   3.536   0.842   1.914  1.1915 -1.0619  0.4662
 1164SOL    MW4 4729   3.597   0.898   1.940  0.7133 -0.3811  0.1456
 1165SOL     OW 4730   3.626   1.148   1.842 -0.0258  0.0038 -0.4462
 1165SOL    HW2 4731   3.555   1.206   1.869  0.2908 -0.0632  0.5497
 1165SOL    HW3 4732   3.637   1.165   1.749  0.4510  1.9620 -0.0579
 1165SOL    MW4 4733   3.618   1.158   1.834  0.0789  0.2532 -0.2636
 1166SOL     OW 4734   3.855   1.261   1.983  0.2788  0.5694  0.0339
 1166SOL    HW2 4735   3.837   1.290   2.072 -0.3521  0.2514  0.0106
 1166SOL    HW3 4736   3.775   1.217   1.955  0.5576  0.4604 -0.6058
 1166SOL    MW4 4737   3.842   1.259   1.991  0.2325  0.5131 -0.0536
 1167SOL     OW 4738   3.862   1.548   1.899 -0.0233 -0.3577  0.2634
 1167SOL    HW2 4739   3.928   1.591   1.953  0.1540  0.8056 -0.8467
 1167SOL    HW3 4740   3.879   1.454   1.911 -0.5519 -0.1429  2.8780
 1167SOL    MW4 4741   3.873   1.541   1.908 -0.0696 -0.1760  0.4619
 1168SOL     OW 4742   3.611   1.677   2.000  0.0957  0.4741  0.3211
 1168SOL    HW2 4743   3.616   1.760   1.953 -1.8247 -0.9910 -2.6199
 1168SOL    HW3 4744   3.695   1.634   1.984  0.4211  1.0872  0.3824
 1168SOL    MW4 4745   3.623   1.682   1.992 -0.1149  0.3618 -0.0588
 1169SOL     OW 4746   3.631   1.918   1.842 -0.0662  0.2000  0.1975
 1169SOL    HW2 4747   3.712   1.960   1.873 -0.1730  1.4926 -1.2379
 1169SOL    HW3 4748   3.639   1.920   1.746 -0.6246 -1.9985  0.0836
 1169SOL    MW4 4749   3.643   1.924   1.833 -0.1540  0.0805 -0.0070
 1170SOL     OW 4750   3.829   2.059   1.995 -0.5393  0.1847 -0.3685
 1170SOL    HW2 4751   3.916   2.026   1.974 -0.7557  0.0875 -1.1469
 1170SOL    HW3 4752   3.820   2.138   1.942 -0.8206  0.3387 -0.0920
 1170SOL    MW4 4753   3.839   2.065   1.985 -0.6051  0.1922 -0.4345
 1171SOL     OW 4754   3.821   2.291   1.854 -0.3447  0.1992  0.0963
 1171SOL    HW2 4755   3.902   2.329   1.888 -0.2515 -0.4717  0.6113
 1171SOL    HW3 4756   3.752   2.334   1.904 -0.2598  0.0186  0.3669
 1171SOL    MW4 4757   3.822   2.302   1.865 -0.3211  0.0868  0.2000
 1172SOL     OW 4758   3.597   2.433   2.006 -0.1242 -0.3835  0.5412
 1172SOL    HW2 4759   3.627   2.513   1.962 -1.1449 -0.1971  0.1816
 1172SOL    HW3 4760   3.526   2.400   1.950 -0.2865 -1.0789  1.1492
 1172SOL    MW4 4761   3.592   2.439   1.993 -0.2804 -0.4506  0.5740
 1173SOL     OW 4762   3.618   2.673   1.875  0.5833 -0.1361 -0.0100
 1173SOL    HW2 4763   3.689   2.726   1.910  1.7145 -0.8684 -1.1339
 1173SOL    HW3 4764   3.538   2.716   1.904  1.4926  0.4962  1.5695
 1173SOL    MW4 4765   3.617   2.686   1.883  0.8526 -0.1490  0.0501
 1174SOL     OW 4766   3.821   2.821   2.000 -0.1214 -0.0070 -0.0963
 1174SOL    HW2 4767   3.848   2.831   2.091  1.2874 -1.4349 -0.3346
 1174SOL    HW3 4768   3.819   2.910   1.966  0.8541  0.4170  0.9257
 1174SOL    MW4 4769   3.824   2.834   2.007  0.1931 -0.1395  0.0069
 1175SOL     OW 4770   3.825   3.093   1.905 -0.2685 -0.3140 -0.1956
 1175SOL    HW2 4771   3.746   3.146   1.920  0.1243  0.4500 -0.7825
 1175SOL    HW3 4772   3.835   3.092   1.810  0.6366 -0.1030 -0.1050
 1175SOL    MW4 4773   3.816   3.100   1.894 -0.0973 -0.1855 -0.2611
 1176SOL     OW 4774   3.609   3.255   1.958  0.1599  0.1477  0.6219
 1176SOL    HW2 4775   3.596   3.254   2.053 -0.2876  0.5006  0.5687
 1176SOL    HW3 4776   3.607   3.348   1.935  1.1044  0.1050  0.3774
 1176SOL    MW4 4777   3.607   3.268   1.968  0.2255  0.1886  0.5826
 1177SOL     OW 4778   3.597   3.535   1.888 -0.2910  0.1993 -0.2003
 1177SOL    HW2 4779   3.688   3.561   1.895 -0.0947 -0.5000 -0.0432
 1177SOL    HW3 4780   3.581   3.523   1.795 -0.4796  1.1928 -0.3007
 1177SOL    MW4 4781   3.607   3.537   1.877 -0.2904  0.2382 -0.1928
 1178SOL     OW 4782   3.857   3.618   1.972  0.3289  0.2515 -0.2036
 1178SOL    HW2 4783   3.929   3.576   1.924  0.5951  0.4564  0.0157
 1178SOL    HW3 4784   3.855   3.707   1.938 -1.1928 -0.3492 -1.7397
 1178SOL    MW4 4785   3.866   3.624   1.961  0.1633  0.1993 -0.3773
 1179SOL     OW 4786   3.837   3.892   1.903  0.1942  0.7018  0.2779
 1179SOL    HW2 4787   3.752   3.928   1.929  1.0331  1.7257  1.6715
 1179SOL    HW3 4788   3.843   3.911   1.809 -1.5304 -0.2737 -0.0682
 1179SOL    MW4 4789   3.826   3.899   1.894  0.0775  0.7083  0.4159
 1180SOL     OW 4790   3.603   4.004   1.990 -0.1902  0.0544 -0.3818
 1180SOL    HW2 4791   3.615   3.994   2.085  2.5375  1.1328 -0.5905
 1180SOL    HW3 4792   3.531   3.945   1.970 -1.6653  0.7199  2.5626
 1180SOL    MW4 4793   3.595   3.995   2.000 -0.0248  0.2849 -0.0207
 1181SOL     OW 4794   3.615   4.265   1.876  0.0436  0.2423  0.1742
 1181SOL    HW2 4795   3.692   4.312   1.907 -0.1871  0.8007 -0.0879
 1181SOL    HW3 4796   3.621   4.178   1.916  0.7127  0.3452  0.2931
 1181SOL    MW4 4797   3.626   4.260   1.885  0.1013  0.3295  0.1552
 1182SOL     OW 4798   3.810   4.400   2.023  0.3868  0.3271 -0.0460
 1182SOL    HW2 4799   3.802   4.384   2.117 -1.4189  1.1400 -0.0456
 1182SOL    HW3 4800   3.890   4.353   1.998  0.8172 -0.0067  1.8554
 1182SOL    MW4 4801   3.820   4.391   2.032  0.2055  0.3901  0.2050
 1183SOL     OW 4802   4.285   0.039   1.881 -0.1001  0.2762  0.4218
 1183SOL    HW2 4803   4.207   0.087   1.910  0.3644  1.6610 -0.5154
 1183SOL    HW3 4804   4.358   0.083   1.926  0.1921 -0.6347  0.8409
 1183SOL    MW4 4805   4.284   0.051   1.891  0.0000  0.3387  0.3535
 1184SOL     OW 4806   4.046   0.144   1.983 -0.1020 -0.0189 -0.1231
 1184SOL    HW2 4807   4.060   0.116   2.074  0.6146 -0.7321 -0.4525
 1184SOL    HW3 4808   3.991   0.076   1.945  2.1893 -1.3604 -1.1123
 1184SOL    MW4 4809   4.041   0.132   1.990  0.2947 -0.2899 -0.2971
 1185SOL     OW 4810   4.081   0.391   1.880 -0.0873 -0.0242 -0.1076
 1185SOL    HW2 4811   4.065   0.307   1.923 -2.0855  0.1642 -0.4523
 1185SOL    HW3 4812   4.006   0.445   1.903  0.9844  1.5496 -0.2281
 1185SOL    MW4 4813   4.069   0.387   1.889 -0.2098  0.2083 -0.1692
 1186SOL     OW 4814   4.304   0.485   2.020  0.1862  0.0017  0.4038
 1186SOL    HW2 4815   4.286   0.490   2.113  1.1563  0.8484  0.5603
 1186SOL    HW3 4816   4.221   0.461   1.980 -0.5296  0.8337  1.3687
 1186SOL    MW4 4817   4.291   0.483   2.027  0.2193  0.2232  0.5515
 1187SOL     OW 4818   4.307   0.740   1.899 -0.1120 -0.4060 -0.4497
 1187SOL    HW2 4819   4.296   0.649   1.924 -1.1708 -0.3663 -0.7440
 1187SOL    HW3 4820   4.336   0.737   1.808  0.4465 -0.4657 -0.2686
 1187SOL    MW4 4821   4.309   0.728   1.890 -0.1779 -0.4086 -0.4647
 1188SOL     OW 4822   4.109   0.940   1.962 -0.0106  0.2771 -0.3743
 1188SOL    HW2 4823   4.173   0.871   1.943 -0.1527  0.0154  0.1040
 1188SOL    HW3 4824   4.024   0.900   1.943 -0.1548  0.0287  0.7569
 1188SOL    MW4 4825   4.106   0.925   1.957 -0.0486  0.2099 -0.1620
 1189SOL     OW 4826   4.094   1.203   1.862  0.2903 -0.5465 -0.3531
 1189SOL    HW2 4827   4.111   1.115   1.896 -0.6343 -0.3086  0.7722
 1189SOL    HW3 4828   4.014   1.231   1.907  0.6506  0.9210 -0.5954
 1189SOL    MW4 4829   4.086   1.195   1.873  0.2160 -0.3215 -0.2365
 1190SOL     OW 4830   4.304   1.292   2.041  0.0381  0.0647 -0.0264
 1190SOL    HW2 4831   4.285   1.298   2.134  1.0683  0.0158  0.2003
 1190SOL    HW3 4832   4.232   1.242   2.004 -0.6138  0.4869  0.6632
 1190SOL    MW4 4833   4.292   1.286   2.048  0.0882  0.1141  0.0944
 1191SOL     OW 4834   4.269   1.535   1.915 -0.8049  0.4967  0.2443
 1191SOL    HW2 4835   4.283   1.447   1.950 -2.6135 -0.2702 -0.9119
 1191SOL    HW3 4836   4.282   1.525   1.821 -0.1578  1.6582  0.2047
 1191SOL    MW4 4837   4.273   1.522   1.907 -0.9580  0.5488  0.0865
 1192SOL     OW 4838   4.051   1.696   2.010 -0.5691  0.0073  0.3434
 1192SOL    HW2 4839   4.066   1.709   2.104 -1.6266 -0.5713  0.6059
 1192SOL    HW3 4840   4.131   1.654   1.978 -0.4802 -0.4252  1.1263
 1192SOL    MW4 4841   4.063   1.692   2.018 -0.6971 -0.1261  0.4811
 1193SOL     OW 4842   4.076   1.954   1.921  0.2909  0.2656  0.0232
 1193SOL    HW2 4843   4.068   1.862   1.945  0.7469  0.2175 -0.0004
 1193SOL    HW3 4844   4.066   1.955   1.825  2.8983 -0.0858 -0.2843
 1193SOL    MW4 4845   4.074   1.942   1.911  0.6952  0.2130 -0.0204
 1194SOL     OW 4846   4.316   2.088   1.954  0.1444  0.4487  0.5942
 1194SOL    HW2 4847   4.313   2.115   2.045  1.0103 -1.7913  1.3179
 1194SOL    HW3 4848   4.238   2.034   1.942  0.4192  0.1360  0.1964
 1194SOL    MW4 4849   4.305   2.084   1.964  0.2952  0.1121  0.6372
 1195SOL     OW 4850   4.276   2.366   1.902 -0.1468 -0.6467 -0.2223
 1195SOL    HW2 4851   4.294   2.273   1.918  0.8321 -0.3578  0.4170
 1195SOL    HW3 4852   4.358   2.410   1.923 -0.5651  0.3577 -0.6508
 1195SOL    MW4 4853   4.289   2.360   1.907 -0.0725 -0.4761 -0.1945
 1196SOL     OW 4854   4.039   2.449   1.990 -0.0544  0.2472  0.4238
 1196SOL    HW2 4855   4.044   2.462   2.085 -0.2079  0.3509  0.4187
 1196SOL    HW3 4856   4.122   2.408   1.967 -0.5059 -0.8844  0.7728
 1196SOL    MW4 4857   4.051   2.446   1.999 -0.1345  0.1121  0.4691
 1197SOL     OW 4858   4.034   2.710   1.879  0.5985  0.1796 -0.0535
 1197SOL    HW2 4859   4.045   2.624   1.919  1.5106  0.3444  0.0585
 1197SOL    HW3 4860   3.957   2.747   1.922  0.1820 -0.5956 -0.1303
 1197SOL    MW4 4861   4.025   2.704   1.890  0.6638  0.0989 -0.0489
 1198SOL     OW 4862   4.247   2.862   1.911  0.0882  0.3316  0.3082
 1198SOL    HW2 4863   4.278   2.860   2.002 -0.5174 -1.7631  0.5042
 1198SOL    HW3 4864   4.168   2.807   1.912 -0.4699  1.0844 -1.2922
 1198SOL    MW4 4865   4.241   2.854   1.924 -0.0648  0.1545  0.1229
 1199SOL     OW 4866   4.296   3.139   1.873 -0.1387 -0.3909 -0.7361
 1199SOL    HW2 4867   4.223   3.182   1.916  0.7816  0.5669 -0.0973
 1199SOL    HW3 4868   4.270   3.047   1.868 -0.3113 -0.5247  1.8208
 1199SOL    MW4 4869   4.283   3.132   1.878 -0.0401 -0.2825 -0.3145
 1200SOL     OW 4870   4.060   3.219   1.990  0.0107  0.1935 -0.0118
 1200SOL    HW2 4871   4.058   3.228   2.086 -2.1893  1.6206 -0.1529
 1200SOL    HW3 4872   3.977   3.178   1.968 -0.1034  1.1439 -1.4288
 1200SOL    MW4 4873   4.049   3.215   2.000 -0.2942  0.5071 -0.2174
 1201SOL     OW 4874   4.077   3.483   1.874  0.1171 -0.0421 -0.5867
 1201SOL    HW2 4875   4.156   3.530   1.903  0.9428 -1.7337 -0.0488
 1201SOL    HW3 4876   4.079   3.401   1.924 -1.8619 -0.1976 -0.7516
 1201SOL    MW4 4877   4.088   3.479   1.885 -0.0353 -0.2859 -0.5375
 1202SOL     OW 4878   4.297   3.622   1.972 -0.1141  0.6393  0.0024
 1202SOL    HW2 4879   4.274   3.712   1.946  0.1677  0.5986 -0.3894
 1202SOL    HW3 4880   4.372   3.599   1.917 -0.0576  0.2354  0.2451
 1202SOL    MW4 4881   4.304   3.631   1.961 -0.0691  0.5805 -0.0173
 1203SOL     OW 4882   4.270   3.880   1.872  0.6101 -0.0671  0.1063
 1203SOL    HW2 4883   4.336   3.937   1.911 -0.9080  2.0511 -0.3296
 1203SOL    HW3 4884   4.293   3.877   1.779  0.7190 -0.2094  0.1377
 1203SOL    MW4 4885   4.281   3.887   1.865  0.4239  0.1936  0.0528
 1204SOL     OW 4886   4.060   3.994   2.022  0.3133 -0.1799 -0.4237
 1204SOL    HW2 4887   4.135   3.948   1.985  0.3194 -0.8417  0.3866
 1204SOL    HW3 4888   3.985   3.960   1.974  0.5363  0.5783 -1.3239
 1204SOL    MW4 4889   4.060   3.983   2.011  0.3438 -0.1669 -0.4358
 1205SOL     OW 4890   4.036   4.258   1.876  0.2375  0.2565 -0.3158
 1205SOL    HW2 4891   4.110   4.312   1.903  0.6926 -0.7585  0.5694
 1205SOL    HW3 4892   4.049   4.176   1.925 -0.4106 -0.6482 -1.6355
 1205SOL    MW4 4893   4.048   4.254   1.886  0.2117  0.0038 -0.3731
 1206SOL     OW 4894   4.254   4.436   1.961  0.2475 -0.4927  0.1213
 1206SOL    HW2 4895   4.266   4.444   2.055  0.1915  0.3271  0.0626
 1206SOL    HW3 4896   4.265   4.526   1.928 -3.1178 -0.1873 -0.2892
 1206SOL    MW4 4897   4.257   4.449   1.969 -0.2041 -0.3443  0.0594
 1207SOL     OW 4898   0.194   4.661   2.381 -0.4698  0.3779 -0.4005
 1207SOL    HW2 4899   0.213   4.655   2.474 -0.5529  0.1201 -0.3985
 1207SOL    HW3 4900   0.270   4.706   2.343 -0.8464  1.3056 -0.0786
 1207SOL    MW4 4901   0.206   4.666   2.388 -0.5304  0.4668 -0.3579
 1208SOL     OW 4902   0.002   0.167   2.277 -0.6173 -0.2735 -0.0882
 1208SOL    HW2 4903   0.067   0.100   2.299 -0.5339 -0.4095 -0.7327
 1208SOL    HW3 4904   0.005   0.172   2.181 -1.4880 -0.2160 -0.1170
 1208SOL    MW4 4905   0.011   0.159   2.267 -0.7212 -0.2838 -0.1769
 1209SOL     OW 4906   4.490   0.422   2.396 -0.0940 -0.3658 -0.1432
 1209SOL    HW2 4907   4.568   0.467   2.363 -0.5834  1.7108  1.3797
 1209SOL    HW3 4908   4.497   0.333   2.363  2.5271  0.0022 -0.6678
 1209SOL    MW4 4909   4.501   0.416   2.387  0.1874 -0.0433 -0.0114
 1210SOL     OW 4910   0.234   0.539   2.295  0.0955  0.2523  0.4048
 1210SOL    HW2 4911   0.314   0.489   2.309 -0.1955 -0.4704 -0.4312
 1210SOL    HW3 4912   0.219   0.534   2.201  0.5777  2.7426  0.1564
 1210SOL    MW4 4913   0.242   0.532   2.285  0.1207  0.4855  0.2615
 1211SOL     OW 4914   0.234   0.829   2.366 -0.4211 -0.2859 -0.0493
 1211SOL    HW2 4915   0.239   0.823   2.461 -2.0930  0.5271  0.0987
 1211SOL    HW3 4916   0.248   0.740   2.335 -0.1836 -0.6034  0.9601
 1211SOL    MW4 4917   0.237   0.817   2.374 -0.6103 -0.2206  0.1035
 1212SOL     OW 4918   4.483   0.929   2.278  0.3913 -0.0750  0.4877
 1212SOL    HW2 4919   4.567   0.902   2.314 -0.4684 -3.4854  0.0675
 1212SOL    HW3 4920   4.489   0.908   2.185 -0.6863  0.2740  0.3348
 1212SOL    MW4 4921   4.495   0.923   2.270  0.1359 -0.4789  0.4117
 1213SOL     OW 4922   4.462   1.203   2.352 -0.0906 -0.2271 -0.2290
 1213SOL    HW2 4923   4.474   1.192   2.446  0.5578 -1.7442 -0.4846
 1213SOL    HW3 4924   4.448   1.115   2.318  0.4481  0.2130 -1.6635
 1213SOL    MW4 4925   4.462   1.190   2.360  0.0660 -0.3692 -0.4520
 1214SOL     OW 4926   0.235   1.297   2.272 -0.0595 -0.0417 -0.0907
 1214SOL    HW2 4927   0.155   1.249   2.293  0.1471 -0.6996 -0.8022
 1214SOL    HW3 4928   0.223   1.323   2.180  0.7766 -0.6042 -0.3614
 1214SOL    MW4 4929   0.223   1.294   2.262  0.0781 -0.2028 -0.2203
 1215SOL     OW 4930   0.266   1.567   2.356  0.4592 -0.3674  0.1723
 1215SOL    HW2 4931   0.254   1.558   2.450  2.4712 -0.2737  0.4546
 1215SOL    HW3 4932   0.248   1.480   2.321  1.3298 -0.8091  0.8212
 1215SOL    MW4 4933   0.262   1.554   2.364  0.8396 -0.4133  0.2952
 1216SOL     OW 4934   0.000   1.619   2.269 -0.4824 -0.0033  0.6968
 1216SOL    HW2 4935  -0.023   1.702   2.310 -0.5609  0.8132 -0.9453
 1216SOL    HW3 4936   0.083   1.594   2.310  0.5973  1.9259 -0.2048
 1216SOL    MW4 4937   0.008   1.627   2.280 -0.3510  0.3591  0.3614
 1217SOL     OW 4938   4.491   1.877   2.377 -0.5426 -0.6507 -0.0323
 1217SOL    HW2 4939   4.426   1.922   2.323 -0.0404  0.8989  0.6465
 1217SOL    HW3 4940   4.572   1.926   2.363  0.3470 -2.1940 -0.3797
 1217SOL    MW4 4941   4.493   1.889   2.368 -0.3590 -0.6499  0.0114
 1218SOL     OW 4942   0.197   2.049   2.278 -0.4975 -0.2175 -0.0325
 1218SOL    HW2 4943   0.284   2.020   2.306 -0.2523  1.3634  0.9157
 1218SOL    HW3 4944   0.200   2.045   2.182 -0.0561 -2.0570  0.0417
 1218SOL    MW4 4945   0.209   2.045   2.269 -0.4069 -0.2515  0.1023
 1219SOL     OW 4946   0.286   2.329   2.349  0.4748  0.2212  0.5725
 1219SOL    HW2 4947   0.258   2.332   2.440 -0.3551  0.7425  0.3056
 1219SOL    HW3 4948   0.265   2.239   2.321  0.2723  0.2101  0.7567
 1219SOL    MW4 4949   0.279   2.317   2.357  0.3386  0.2887  0.5615
 1220SOL     OW 4950   0.067   2.456   2.256 -0.3767 -0.1190  0.4084
 1220SOL    HW2 4951   0.065   2.546   2.287  0.4377  0.3836 -0.9577
 1220SOL    HW3 4952   0.147   2.420   2.294 -0.6314 -0.2308  0.8429
 1220SOL    MW4 4953   0.077   2.463   2.265 -0.3029 -0.0675  0.2856
 1221SOL     OW 4954   0.007   2.718   2.364  0.4871 -0.0896 -0.0933
 1221SOL    HW2 4955   0.010   2.720   2.460 -0.4214  0.7363 -0.0836
 1221SOL    HW3 4956   0.072   2.783   2.337 -2.0999  2.6612  0.0105
 1221SOL    MW4 4957   0.016   2.727   2.373  0.0257  0.3824 -0.0782
 1222SOL     OW 4958   0.239   2.847   2.288  0.2976 -0.1808 -0.4372
 1222SOL    HW2 4959   0.325   2.807   2.301 -0.3072 -1.8727 -1.4440
 1222SOL    HW3 4960   0.229   2.854   2.193 -0.8034 -0.2733 -0.3414
 1222SOL    MW4 4961   0.249   2.843   2.277  0.0726 -0.4163 -0.5574
 1223SOL     OW 4962   0.246   3.105   2.362  0.0527  0.2423  0.2583
 1223SOL    HW2 4963   0.170   3.139   2.315  0.9462  1.5751 -0.2696
 1223SOL    HW3 4964   0.251   3.013   2.336  0.6826  1.0099 -2.5074
 1223SOL    MW4 4965   0.237   3.097   2.352  0.2537  0.5193 -0.1762
 1224SOL     OW 4966   0.011   3.227   2.238  0.2123 -0.2638  0.4315
 1224SOL    HW2 4967   0.018   3.317   2.271 -1.9099  0.4741 -1.0166
 1224SOL    HW3 4968   0.016   3.237   2.142 -0.7969 -1.5921  0.2299
 1224SOL    MW4 4969   0.013   3.240   2.229 -0.2009 -0.3419  0.2139
 1225SOL     OW 4970   0.007   3.469   2.360 -0.0616  0.2645  0.2470
 1225SOL    HW2 4971  -0.001   3.469   2.455 -0.7425  0.8881  0.1975
 1225SOL    HW3 4972  -0.071   3.516   2.329 -0.0809 -0.3294 -0.6347
 1225SOL    MW4 4973  -0.004   3.475   2.368 -0.1540  0.2685  0.1245
 1226SOL     OW 4974   0.229   3.629   2.257 -0.4278 -0.1521  0.4400
 1226SOL    HW2 4975   0.313   3.598   2.290 -0.8679  0.1628  1.9179
 1226SOL    HW3 4976   0.164   3.581   2.309 -1.1401  0.2852 -0.0438
 1226SOL    MW4 4977   0.232   3.618   2.269 -0.5798 -0.0527  0.5710
 1227SOL     OW 4978   0.241   3.889   2.425 -0.0439 -0.2783  0.0610
 1227SOL    HW2 4979   0.178   3.923   2.361  0.5431 -0.2184 -0.4894
 1227SOL    HW3 4980   0.260   3.800   2.395  0.7001 -0.0367 -0.2029
 1227SOL    MW4 4981   0.235   3.882   2.412  0.1317 -0.2384 -0.0465
 1228SOL     OW 4982   0.053   4.017   2.252  0.2687 -0.1296  0.2779
 1228SOL    HW2 4983   0.016   4.088   2.304  1.2166 -0.2905  1.1913
 1228SOL    HW3 4984   0.017   4.029   2.164  1.9796  2.6576 -0.0825
 1228SOL    MW4 4985   0.043   4.028   2.247  0.6195  0.2165  0.3507
 1229SOL     OW 4986   4.467   4.242   2.363 -0.2548  0.0950 -0.2334
 1229SOL    HW2 4987   4.480   4.270   2.454 -0.3842 -1.1001  0.1596
 1229SOL    HW3 4988   4.542   4.277   2.316  0.1215  0.2132  0.4505
 1229SOL    MW4 4989   4.479   4.251   2.369 -0.2227 -0.0467 -0.0911
 1230SOL     OW 4990   0.204   4.386   2.273  0.0911 -0.0476 -0.1798
 1230SOL    HW2 4991   0.273   4.345   2.325  0.2162  0.1602 -0.1803
 1230SOL    HW3 4992   0.206   4.478   2.299  1.2339  0.3866 -1.7336
 1230SOL    MW4 4993   0.213   4.393   2.284  0.2583  0.0372 -0.3848
 1231SOL     OW 4994   0.671   0.054   2.386 -0.1586 -0.2684 -0.3848
 1231SOL    HW2 4995   0.697   0.041   2.477 -2.0382  0.8279  0.3429
 1231SOL    HW3 4996   0.749   0.091   2.344  0.2890  0.5796  1.1329
 1231SOL    MW4 4997   0.684   0.057   2.393 -0.3476 -0.0119 -0.0889
 1232SOL     OW 4998   0.425   0.105   2.261 -0.1171  0.0216  0.0958
 1232SOL    HW2 4999   0.513   0.088   2.293  0.0095  1.7315  0.7555
 1232SOL    HW3 5000   0.435   0.121   2.168  0.3268  0.5410  0.2318
 1232SOL    MW4 5001   0.438   0.105   2.253 -0.0418  0.3157  0.2007
 1233SOL     OW 5002   0.445   0.384   2.342  0.7297 -0.4080  0.0777
 1233SOL    HW2 5003   0.425   0.376   2.435  1.3187 -0.2176  0.2213
 1233SOL    HW3 5004   0.453   0.294   2.311  1.9336 -0.4543  0.5154
 1233SOL    MW4 5005   0.443   0.371   2.350  0.9663 -0.3890  0.1547
 1234SOL     OW 5006   0.645   0.513   2.231 -0.0937  0.2360 -0.5409
 1234SOL    HW2 5007   0.647   0.598   2.275  0.3794  0.0376 -0.1701
 1234SOL    HW3 5008   0.568   0.468   2.266  0.8932 -0.3540  0.9107
 1234SOL    MW4 5009   0.635   0.518   2.241  0.0990  0.1320 -0.3004
 1235SOL     OW 5010   0.668   0.787   2.343 -0.2846  0.0248 -0.4580
 1235SOL    HW2 5011   0.672   0.777   2.438 -0.2188  2.1500 -0.2324
 1235SOL    HW3 5012   0.591   0.842   2.328 -0.4956 -0.5761 -1.6732
 1235SOL    MW4 5013   0.658   0.793   2.353 -0.3039  0.2258 -0.5887
 1236SOL     OW 5014   0.474   0.958   2.262 -0.1438 -0.0158 -0.2276
 1236SOL    HW2 5015   0.389   0.917   2.275  0.3658 -1.0370 -0.0708
 1236SOL    HW3 5016   0.486   0.961   2.167 -0.3574  0.1363 -0.2494
 1236SOL    MW4 5017   0.465   0.953   2.252 -0.1047 -0.1305 -0.2098
 1237SOL     OW 5018   0.491   1.208   2.374  0.3888 -0.2157  0.2132
 1237SOL    HW2 5019   0.495   1.117   2.344  0.5930  0.1925 -1.0533
 1237SOL    HW3 5020   0.405   1.239   2.344  0.0146 -0.2039  1.2810
 1237SOL    MW4 5021   0.480   1.200   2.366  0.3664 -0.1603  0.1869
 1238SOL     OW 5022   0.720   1.373   2.324 -0.0615 -0.3224 -0.3592
 1238SOL    HW2 5023   0.695   1.465   2.330 -0.3061 -0.4771  1.0839
 1238SOL    HW3 5024   0.642   1.324   2.351 -0.0648 -0.9746 -1.5092
 1238SOL    MW4 5025   0.707   1.379   2.329 -0.0942 -0.4288 -0.3207
 1239SOL     OW 5026   0.648   1.634   2.356 -0.2857 -0.2713 -0.1947
 1239SOL    HW2 5027   0.648   1.626   2.451  0.6472  0.8089 -0.0881
 1239SOL    HW3 5028   0.740   1.650   2.334 -0.7149  0.9075 -1.1459
 1239SOL    MW4 5029   0.661   1.635   2.366 -0.2192  0.0268 -0.3064
 1240SOL     OW 5030   0.451   1.724   2.197  0.0826  0.2721  0.4710
 1240SOL    HW2 5031   0.535   1.707   2.240 -0.4994 -1.6088  0.9103
 1240SOL    HW3 5032   0.389   1.667   2.242 -1.4324  1.6002  0.1069
 1240SOL    MW4 5033   0.454   1.714   2.209 -0.1941  0.1991  0.4809
 1241SOL     OW 5034   0.449   1.945   2.361  0.1095  0.0009  0.1211
 1241SOL    HW2 5035   0.522   1.993   2.322  1.2310 -0.3782  1.7055
 1241SOL    HW3 5036   0.443   1.864   2.310  0.9401 -0.0690  0.1296
 1241SOL    MW4 5037   0.458   1.941   2.349  0.3671 -0.0583  0.3314
 1242SOL     OW 5038   0.682   2.064   2.222  0.3822  0.1527 -0.1029
 1242SOL    HW2 5039   0.749   2.014   2.269 -1.7211 -1.3826  1.3975
 1242SOL    HW3 5040   0.677   2.148   2.268 -1.2316 -1.1067  2.1325
 1242SOL    MW4 5041   0.690   2.068   2.234 -0.1082 -0.2158  0.3903
 1243SOL     OW 5042   0.653   2.312   2.345  0.0262 -0.3075  0.1931
 1243SOL    HW2 5043   0.646   2.311   2.441  1.5907 -1.1003  0.3225
 1243SOL    HW3 5044   0.744   2.339   2.329  0.3449 -2.0554 -1.0305
 1243SOL    MW4 5045   0.664   2.316   2.356  0.2747 -0.6425  0.0486
 1244SOL     OW 5046   0.467   2.472   2.224 -0.1183 -0.1690  0.4397
 1244SOL    HW2 5047   0.540   2.421   2.259 -0.4134 -0.9061  0.0067
 1244SOL    HW3 5048   0.390   2.435   2.266 -0.5466 -1.5200 -1.4328
 1244SOL    MW4 5049   0.467   2.460   2.234 -0.2138 -0.4447  0.1354
 1245SOL     OW 5050   0.493   2.729   2.319  0.2749 -0.1554 -0.4893
 1245SOL    HW2 5051   0.497   2.711   2.413  0.6440  0.4428 -0.3898
 1245SOL    HW3 5052   0.481   2.643   2.279 -1.8852 -0.1968  0.2121
 1245SOL    MW4 5053   0.492   2.715   2.326  0.0386 -0.0818 -0.3836
 1246SOL     OW 5054   0.708   2.875   2.249  0.1419 -0.0604  0.0799
 1246SOL    HW2 5055   0.783   2.817   2.264  0.4717  0.4899  0.5750
 1246SOL    HW3 5056   0.632   2.821   2.272  0.3124 -0.9331 -1.3295
 1246SOL    MW4 5057   0.708   2.860   2.254  0.2079 -0.1030 -0.0405
 1247SOL     OW 5058   0.693   3.118   2.390 -0.0581  0.3644  0.5531
 1247SOL    HW2 5059   0.620   3.156   2.341  0.5149  2.0319  0.9864
 1247SOL    HW3 5060   0.707   3.032   2.349 -1.8307  0.2977  0.0497
 1247SOL    MW4 5061   0.685   3.112   2.379 -0.2164  0.5755  0.5436
 1248SOL     OW 5062   0.491   3.238   2.261  0.8853 -0.1407  0.2932
 1248SOL    HW2 5063   0.405   3.206   2.291  1.5206 -1.0277  1.1816
 1248SOL    HW3 5064   0.476   3.264   2.170  0.5694 -4.0252 -0.8772
 1248SOL    MW4 5065   0.477   3.237   2.253  0.9274 -0.7701  0.2561
 1249SOL     OW 5066   0.467   3.505   2.336  0.1796  0.0834 -0.2708
 1249SOL    HW2 5067   0.551   3.541   2.306  0.5083 -0.4006  0.0796
 1249SOL    HW3 5068   0.469   3.413   2.309  0.6587 -0.4763  1.6084
 1249SOL    MW4 5069   0.478   3.498   2.328  0.2862 -0.0544  0.0231
 1250SOL     OW 5070   0.703   3.604   2.235  0.4556  0.0426  0.1447
 1250SOL    HW2 5071   0.710   3.688   2.280  1.4577  0.1422 -0.1794
 1250SOL    HW3 5072   0.692   3.627   2.143 -0.5562 -0.1682  0.2123
 1250SOL    MW4 5073   0.703   3.618   2.229  0.4544  0.0279  0.1109
 1251SOL     OW 5074   0.675   3.856   2.357  0.5225  0.1406 -0.0608
 1251SOL    HW2 5075   0.669   3.851   2.452  0.0875 -1.3850 -0.1588
 1251SOL    HW3 5076   0.594   3.898   2.330 -0.0900 -0.8772  0.1464
 1251SOL    MW4 5077   0.664   3.861   2.366  0.3843 -0.1950 -0.0465
 1252SOL     OW 5078   0.453   4.020   2.314  0.1633 -0.5221 -0.1210
 1252SOL    HW2 5079   0.375   3.981   2.352  1.2798 -2.1228  0.5922
 1252SOL    HW3 5080   0.442   4.010   2.219 -0.0861 -1.5553  0.0132
 1252SOL    MW4 5081   0.441   4.014   2.306  0.2777 -0.8698 -0.0093
 1253SOL     OW 5082   0.454   4.310   2.392  0.1706  0.4122  0.1127
 1253SOL    HW2 5083   0.527   4.361   2.356  0.7935 -0.8479 -0.4673
 1253SOL    HW3 5084   0.462   4.225   2.349 -0.2543 -0.4907  1.8025
 1253SOL    MW4 5085   0.465   4.306   2.382  0.1967  0.1268  0.2592
 1254SOL     OW 5086   0.647   4.450   2.267  0.1180 -0.1172  0.0332
 1254SOL    HW2 5087   0.661   4.542   2.290 -1.0987  0.5389 -1.7708
 1254SOL    HW3 5088   0.646   4.448   2.172  0.5293 -2.0879  0.0298
 1254SOL    MW4 5089   0.649   4.462   2.258  0.0117 -0.2904 -0.2055
 1255SOL     OW 5090   1.088   0.004   2.326  0.0591 -0.1324  0.1415
 1255SOL    HW2 5091   1.087  -0.017   2.419  0.3272  0.5911  0.3144
 1255SOL    HW3 5092   1.012   0.061   2.313  1.4523  1.8941  0.4528
 1255SOL    MW4 5093   1.078   0.009   2.336  0.2782  0.2304  0.2050
 1256SOL     OW 5094   0.885   0.173   2.275 -0.0779 -0.3506  0.0398
 1256SOL    HW2 5095   0.894   0.260   2.315  2.7196 -0.3035 -0.5873
 1256SOL    HW3 5096   0.885   0.190   2.181 -1.5305 -0.8789 -0.0625
 1256SOL    MW4 5097   0.886   0.187   2.268  0.0996 -0.4141 -0.0565
 1257SOL     OW 5098   0.856   0.425   2.384 -0.0122 -0.0690  0.2229
 1257SOL    HW2 5099   0.928   0.472   2.342  0.7178 -2.1493 -0.9656
 1257SOL    HW3 5100   0.779   0.446   2.331  0.3761 -0.5025 -0.5170
 1257SOL    MW4 5101   0.856   0.434   2.372  0.1354 -0.4007 -0.0315
 1258SOL     OW 5102   1.090   0.520   2.272  0.0351  0.2576 -0.2274
 1258SOL    HW2 5103   1.159   0.462   2.305 -0.8027 -1.0783 -0.7888
 1258SOL    HW3 5104   1.116   0.539   2.182 -0.4416 -0.4214 -0.5085
 1258SOL    MW4 5105   1.103   0.515   2.265 -0.1383 -0.0083 -0.3388
 1259SOL     OW 5106   1.086   0.774   2.386  0.3297  0.6528  0.0019
 1259SOL    HW2 5107   1.012   0.828   2.358 -0.5928 -0.6974 -0.2311
 1259SOL    HW3 5108   1.067   0.688   2.350  2.1967  0.3685 -0.3295
 1259SOL    MW4 5109   1.074   0.770   2.378  0.4543  0.4372 -0.0727
 1260SOL     OW 5110   0.888   0.938   2.264  0.6123  0.3132  0.2936
 1260SOL    HW2 5111   0.892   1.023   2.307  0.7848 -0.0381  0.9688
 1260SOL    HW3 5112   0.809   0.896   2.300  0.3717  0.2986 -0.2426
 1260SOL    MW4 5113   0.878   0.943   2.274  0.6033  0.2649  0.3121
 1261SOL     OW 5114   0.936   1.177   2.394  0.0252  0.1082  0.1168
 1261SOL    HW2 5115   1.018   1.201   2.351  1.0741  1.3372  2.6431
 1261SOL    HW3 5116   0.870   1.230   2.350  0.7823  0.1047 -1.0549
 1261SOL    MW4 5117   0.938   1.187   2.383  0.2635  0.2700  0.2956
 1262SOL     OW 5118   1.161   1.296   2.262 -0.2359  0.3275 -0.1135
 1262SOL    HW2 5119   1.238   1.240   2.276  1.1518  2.1766 -0.1731
 1262SOL    HW3 5120   1.165   1.319   2.169  0.8812  2.8913  0.5294
 1262SOL    MW4 5121   1.172   1.292   2.251  0.0947  0.9098 -0.0367
 1263SOL     OW 5122   1.112   1.563   2.374 -0.1774 -0.0037 -0.2681
 1263SOL    HW2 5123   1.043   1.591   2.314 -0.5193 -0.2787 -0.0041
 1263SOL    HW3 5124   1.108   1.467   2.372 -0.9934  0.0013  1.1360
 1263SOL    MW4 5125   1.103   1.554   2.365 -0.3302 -0.0395 -0.0482
 1264SOL     OW 5126   0.922   1.706   2.231  0.2889 -0.2167 -0.2274
 1264SOL    HW2 5127   0.936   1.794   2.265  1.8086 -0.9841  1.2203
 1264SOL    HW3 5128   0.945   1.712   2.138  2.0557  0.5243  0.2409
 1264SOL    MW4 5129   0.927   1.718   2.223  0.7225 -0.2202  0.0253
 1265SOL     OW 5130   0.906   1.957   2.343 -0.5182  0.1639  0.1733
 1265SOL    HW2 5131   0.891   1.961   2.437 -1.2832  1.5633  0.0092
 1265SOL    HW3 5132   0.985   2.010   2.329 -0.2531 -0.2593  0.0525
 1265SOL    MW4 5133   0.914   1.965   2.353 -0.5842  0.2928  0.1357
 1266SOL     OW 5134   1.145   2.088   2.281  0.1099 -0.0289  0.4663
 1266SOL    HW2 5135   1.208   2.021   2.306 -0.8231 -0.6604  1.1483
 1266SOL    HW3 5136   1.146   2.087   2.186  1.0027 -0.1500  0.4690
 1266SOL    MW4 5137   1.153   2.079   2.272  0.1044 -0.1283  0.5565
 1267SOL     OW 5138   1.137   2.342   2.390 -0.3887  0.1475 -0.2219
 1267SOL    HW2 5139   1.202   2.386   2.335  0.0383 -0.5118 -0.2493
 1267SOL    HW3 5140   1.138   2.251   2.361 -1.5081  0.1735 -0.3904
 1267SOL    MW4 5141   1.146   2.336   2.379 -0.4802  0.0637 -0.2480
 1268SOL     OW 5142   0.896   2.411   2.277 -0.3395  0.2326 -0.4789
 1268SOL    HW2 5143   0.978   2.407   2.325 -0.6396  1.8835  0.1810
 1268SOL    HW3 5144   0.922   2.435   2.188  0.0063 -0.6663 -0.6324
 1268SOL    MW4 5145   0.910   2.414   2.271 -0.3334  0.3319 -0.4122
 1269SOL     OW 5146   0.904   2.696   2.320  0.2970  0.5572  0.4691
 1269SOL    HW2 5147   0.883   2.690   2.413  1.4665 -0.0494  0.7069
 1269SOL    HW3 5148   0.886   2.608   2.286 -0.1373  0.7796  0.1183
 1269SOL    MW4 5149   0.899   2.683   2.328  0.3940  0.5066  0.4539
 1270SOL     OW 5150   1.124   2.862   2.223  0.0751  0.7519  0.1314
 1270SOL    HW2 5151   1.192   2.816   2.272  0.2419  0.6194 -0.2211
 1270SOL    HW3 5152   1.042   2.823   2.254  0.2027  0.3538 -0.0150
 1270SOL    MW4 5153   1.122   2.850   2.233  0.1138  0.6816  0.0656
 1271SOL     OW 5154   1.118   3.122   2.344 -0.3456 -0.2424  0.1996
 1271SOL    HW2 5155   1.047   3.170   2.301 -0.0168 -0.2474 -0.3466
 1271SOL    HW3 5156   1.120   3.037   2.300 -0.5074 -0.5288  0.7368
 1271SOL    MW4 5157   1.109   3.117   2.333 -0.3237 -0.2809  0.1986
 1272SOL     OW 5158   0.895   3.228   2.226  0.4942 -0.0598  0.2238
 1272SOL    HW2 5159   0.913   3.317   2.258  1.0651 -0.5327  1.2226
 1272SOL    HW3 5160   0.830   3.193   2.287 -0.7206  0.1299 -0.9310
 1272SOL    MW4 5161   0.889   3.235   2.238  0.4092 -0.0968  0.2034
 1273SOL     OW 5162   0.949   3.484   2.322 -0.0972  0.0789  0.0074
 1273SOL    HW2 5163   0.937   3.465   2.415  0.7269  1.3001  0.3653
 1273SOL    HW3 5164   0.866   3.521   2.294 -0.2251  0.0375  0.3311
 1273SOL    MW4 5165   0.937   3.486   2.330 -0.0054  0.2346  0.0975
 1274SOL     OW 5166   1.143   3.655   2.257  0.4958 -0.1581 -0.6041
 1274SOL    HW2 5167   1.226   3.615   2.281  0.4945 -0.0124 -0.3545
 1274SOL    HW3 5168   1.076   3.596   2.290  0.4832  0.5043  0.5689
 1274SOL    MW4 5169   1.145   3.642   2.264  0.4941 -0.0517 -0.4165
 1275SOL     OW 5170   1.101   3.914   2.345 -0.2510 -0.2015  0.0669
 1275SOL    HW2 5171   1.172   3.974   2.321  0.4580 -0.4791  1.3852
 1275SOL    HW3 5172   1.129   3.829   2.310  0.3901 -0.4417  1.1379
 1275SOL    MW4 5173   1.114   3.911   2.337 -0.0730 -0.2694  0.3819
 1276SOL     OW 5174   0.866   4.052   2.293  0.1124 -0.6481 -0.5383
 1276SOL    HW2 5175   0.948   4.004   2.303 -0.3082 -1.0372  1.2244
 1276SOL    HW3 5176   0.801   3.998   2.338 -0.3744  1.4895  1.4242
 1276SOL    MW4 5177   0.869   4.039   2.301 -0.0073 -0.4168 -0.0470
 1277SOL     OW 5178   0.902   4.310   2.386  0.3309 -0.5086  0.3579
 1277SOL    HW2 5179   0.891   4.227   2.339  0.0909 -0.4017  0.2231
 1277SOL    HW3 5180   0.831   4.365   2.354  0.4053 -0.2978  0.5528
 1277SOL    MW4 5181   0.891   4.306   2.375  0.3091 -0.4663  0.3660
 1278SOL     OW 5182   1.096   4.410   2.222 -0.0610  0.1088 -0.2635
 1278SOL    HW2 5183   1.037   4.362   2.280 -0.2774 -0.2098 -0.7450
 1278SOL    HW3 5184   1.091   4.501   2.252 -0.7383  0.0702 -0.2598
 1278SOL    MW4 5185   1.088   4.416   2.233 -0.1789  0.0615 -0.3266
 1279SOL     OW 5186   1.556   0.009   2.324  0.1223 -0.3658  0.4914
 1279SOL    HW2 5187   1.630   0.060   2.292  0.9474 -1.1883  1.0622
 1279SOL    HW3 5188   1.479   0.055   2.291  0.8225  1.6625  1.6361
 1279SOL    MW4 5189   1.556   0.022   2.315  0.3235 -0.2067  0.7176
 1280SOL     OW 5190   1.331   0.170   2.257 -0.3971 -0.0455 -0.2488
 1280SOL    HW2 5191   1.326   0.253   2.303  0.5858  0.0775 -0.3629
 1280SOL    HW3 5192   1.247   0.127   2.276 -0.9882  1.0535 -0.3735
 1280SOL    MW4 5193   1.319   0.175   2.265 -0.3453  0.1157 -0.2804
 1281SOL     OW 5194   1.332   0.399   2.384 -0.4381  0.3676  0.2780
 1281SOL    HW2 5195   1.329   0.401   2.480  0.4177  1.1875  0.2965
 1281SOL    HW3 5196   1.419   0.431   2.363 -0.6903  0.3524 -0.7868
 1281SOL    MW4 5197   1.343   0.404   2.394 -0.3585  0.4738  0.1400
 1282SOL     OW 5198   1.574   0.497   2.275 -0.1349 -0.0103 -0.1153
 1282SOL    HW2 5199   1.665   0.466   2.280 -0.1906 -0.0942  0.4079
 1282SOL    HW3 5200   1.565   0.529   2.185  0.1151 -0.9151 -0.4646
 1282SOL    MW4 5201   1.585   0.497   2.263 -0.1092 -0.1407 -0.0927
 1283SOL     OW 5202   1.536   0.748   2.375 -0.0100 -0.0390  0.2999
 1283SOL    HW2 5203   1.603   0.794   2.325  0.2531 -0.7410  0.0027
 1283SOL    HW3 5204   1.549   0.656   2.354  0.2458 -0.3693  1.8227
 1283SOL    MW4 5205   1.547   0.742   2.366  0.0584 -0.1752  0.4616
 1284SOL     OW 5206   1.317   0.857   2.255 -0.2568 -0.0587  0.1840
 1284SOL    HW2 5207   1.396   0.822   2.297  0.2734 -0.3122 -1.0093
 1284SOL    HW3 5208   1.245   0.816   2.303  0.3522 -1.2547  0.1073
 1284SOL    MW4 5209   1.318   0.847   2.267 -0.1066 -0.2499  0.0162
 1285SOL     OW 5210   1.378   1.131   2.323  0.1799  0.3815  0.2330
 1285SOL    HW2 5211   1.387   1.141   2.417 -0.1369 -0.2093  0.3284
 1285SOL    HW3 5212   1.354   1.040   2.310 -1.8208  0.9463 -0.2639
 1285SOL    MW4 5213   1.376   1.121   2.333 -0.1259  0.3780  0.1798
 1286SOL     OW 5214   1.600   1.243   2.231  0.6240 -0.1059 -0.7122
 1286SOL    HW2 5215   1.522   1.196   2.262  0.8056  0.7028  0.9876
 1286SOL    HW3 5216   1.578   1.268   2.141 -1.4023  0.8154  0.0151
 1286SOL    MW4 5217   1.586   1.240   2.223  0.3805  0.1224 -0.3922
 1287SOL     OW 5218   1.555   1.506   2.325 -0.6220  0.5395 -0.7265
 1287SOL    HW2 5219   1.642   1.544   2.323 -1.1502  1.8316  0.3110
 1287SOL    HW3 5220   1.566   1.418   2.288  1.0816  0.7407 -0.7187
 1287SOL    MW4 5221   1.568   1.499   2.320 -0.4668  0.7366 -0.5887
 1288SOL     OW 5222   1.330   1.653   2.233  0.2847 -0.9205 -0.1247
 1288SOL    HW2 5223   1.396   1.596   2.272  1.2345  0.0952 -0.2022
 1288SOL    HW3 5224   1.248   1.627   2.274  0.8311 -1.7833  0.4359
 1288SOL    MW4 5225   1.328   1.642   2.244  0.4822 -0.9004 -0.0608
 1289SOL     OW 5226   1.348   1.906   2.358  0.5608  0.7125 -0.0898
 1289SOL    HW2 5227   1.428   1.946   2.323  0.8745 -0.6890 -1.0406
 1289SOL    HW3 5228   1.342   1.823   2.311 -0.3882 -0.0791  1.4335
 1289SOL    MW4 5229   1.358   1.901   2.347  0.4770  0.4231 -0.0143
 1290SOL     OW 5230   1.552   2.078   2.285 -0.4337  0.0020  0.3104
 1290SOL    HW2 5231   1.624   2.016   2.296 -0.6344 -0.4662 -0.9028
 1290SOL    HW3 5232   1.542   2.086   2.190 -1.4499  0.6937  0.4656
 1290SOL    MW4 5233   1.560   2.071   2.274 -0.5944  0.0315  0.1709
 1291SOL     OW 5234   1.581   2.338   2.364 -0.1418 -0.2762  0.6974
 1291SOL    HW2 5235   1.594   2.330   2.458  1.4962 -0.2388  0.4871
 1291SOL    HW3 5236   1.573   2.247   2.333 -0.9597 -0.2765  0.9043
 1291SOL    MW4 5237   1.581   2.325   2.372 -0.0336 -0.2713  0.6969
 1292SOL     OW 5238   1.365   2.465   2.275 -0.1870  0.2751 -0.2202
 1292SOL    HW2 5239   1.441   2.428   2.320 -0.4342 -0.9137 -0.7747
 1292SOL    HW3 5240   1.388   2.462   2.182 -1.4846 -1.4482 -0.5073
 1292SOL    MW4 5241   1.378   2.460   2.269 -0.3908 -0.1090 -0.3312
 1293SOL     OW 5242   1.325   2.740   2.339 -0.1535 -0.0343  0.2207
 1293SOL    HW2 5243   1.407   2.773   2.301 -0.4418 -0.3632 -0.7149
 1293SOL    HW3 5244   1.325   2.646   2.320  0.2315 -0.4280  2.0745
 1293SOL    MW4 5245   1.336   2.732   2.331 -0.1407 -0.1297  0.3421
 1294SOL     OW 5246   1.565   2.837   2.223  0.1956 -0.5197 -0.1111
 1294SOL    HW2 5247   1.555   2.929   2.246 -1.3445 -0.8497  0.5512
 1294SOL    HW3 5248   1.576   2.837   2.128 -0.3120  0.2991 -0.1679
 1294SOL    MW4 5249   1.565   2.849   2.213 -0.0745 -0.4549 -0.0312
 1295SOL     OW 5250   1.568   3.090   2.343 -0.0311 -0.0733  0.3340
 1295SOL    HW2 5251   1.576   3.080   2.438 -0.7550  0.9071  0.5058
 1295SOL    HW3 5252   1.493   3.149   2.331 -1.0066 -1.5178 -0.8921
 1295SOL    MW4 5253   1.559   3.096   2.354 -0.2552 -0.1345  0.1948
 1296SOL     OW 5254   1.346   3.273   2.281 -0.2733 -0.0211 -0.2334
 1296SOL    HW2 5255   1.265   3.226   2.304 -0.6177  0.9459  0.5708
 1296SOL    HW3 5256   1.346   3.275   2.186 -0.9282 -0.5038 -0.2474
 1296SOL    MW4 5257   1.335   3.267   2.272 -0.4051  0.0429 -0.1292
 1297SOL     OW 5258   1.379   3.545   2.330  0.1663 -0.0080  0.0397
 1297SOL    HW2 5259   1.384   3.553   2.425 -1.2097  1.2466  0.0180
 1297SOL    HW3 5260   1.371   3.451   2.314 -1.2646 -0.0946  1.2415
 1297SOL    MW4 5261   1.379   3.533   2.340 -0.2041  0.1459  0.1955
 1298SOL     OW 5262   1.609   3.631   2.211  0.1182  0.2131 -0.3504
 1298SOL    HW2 5263   1.609   3.721   2.245  1.2431 -0.5035  1.5998
 1298SOL    HW3 5264   1.530   3.592   2.249 -0.1956  0.2615 -0.9412
 1298SOL    MW4 5265   1.599   3.638   2.221  0.2252  0.1254 -0.1712
 1299SOL     OW 5266   1.585   3.868   2.333  0.5100 -0.3401 -0.2539
 1299SOL    HW2 5267   1.603   3.859   2.426  0.4102  1.9290  0.0161
 1299SOL    HW3 5268   1.664   3.909   2.297  0.3122 -0.6491 -1.0595
 1299SOL    MW4 5269   1.598   3.872   2.340  0.4709 -0.0815 -0.3245
 1300SOL     OW 5270   1.339   4.039   2.262 -0.0577  0.1576 -0.2211
 1300SOL    HW2 5271   1.419   4.000   2.297  0.5888  0.4613 -1.3325
 1300SOL    HW3 5272   1.343   4.022   2.168 -0.6687  1.2740 -0.4584
 1300SOL    MW4 5273   1.350   4.032   2.254 -0.0530  0.3448 -0.3989
 1301SOL     OW 5274   1.361   4.304   2.322 -0.1060 -0.5482 -0.4218
 1301SOL    HW2 5275   1.355   4.215   2.286 -0.8500 -0.3112 -0.8970
 1301SOL    HW3 5276   1.276   4.343   2.303  0.8213  0.8736 -1.8122
 1301SOL    MW4 5277   1.349   4.297   2.314 -0.0819 -0.3295 -0.6680
 1302SOL     OW 5278   1.595   4.414   2.248  0.5981 -0.3004  0.1578
 1302SOL    HW2 5279   1.516   4.364   2.269  0.1320  0.5231  0.3987
 1302SOL    HW3 5280   1.574   4.504   2.275  1.1375  0.1713 -0.9606
 1302SOL    MW4 5281   1.581   4.420   2.254  0.6077 -0.1297  0.0422
 1303SOL     OW 5282   2.029   0.017   2.333  0.2126 -0.3228  0.1416
 1303SOL    HW2 5283   2.094   0.060   2.277 -0.2627 -0.0845 -0.2295
 1303SOL    HW3 5284   2.023  -0.072   2.298 -0.7641  0.0986 -0.7716
 1303SOL    MW4 5285   2.037   0.011   2.321  0.0210 -0.2357 -0.0279
 1304SOL     OW 5286   1.775   0.152   2.241  0.4385  0.1189 -0.5767
 1304SOL    HW2 5287   1.792   0.242   2.271  0.3362  0.0437 -0.2926
 1304SOL    HW3 5288   1.846   0.101   2.279 -0.3780 -0.1871  0.5560
 1304SOL    MW4 5289   1.787   0.157   2.250  0.3172  0.0686 -0.3898
 1305SOL     OW 5290   1.836   0.410   2.295  0.1939 -0.2551  0.4744
 1305SOL    HW2 5291   1.847   0.412   2.390 -2.0178  3.0314  0.7665
 1305SOL    HW3 5292   1.917   0.449   2.261  0.3087  0.0940  1.1304
 1305SOL    MW4 5293   1.848   0.416   2.303 -0.0827  0.2246  0.5996
 1306SOL     OW 5294   2.064   0.538   2.235 -0.1359  0.2305 -0.2843
 1306SOL    HW2 5295   2.064   0.628   2.270  1.2177  0.3126 -0.4689
 1306SOL    HW3 5296   2.069   0.550   2.140  0.4950 -0.0495 -0.2841
 1306SOL    MW4 5297   2.064   0.552   2.227  0.1259  0.2044 -0.3088
 1307SOL     OW 5298   2.038   0.783   2.345 -0.4410 -0.6018 -0.3353
 1307SOL    HW2 5299   2.100   0.827   2.287 -1.0102 -0.0236 -0.5095
 1307SOL    HW3 5300   1.953   0.800   2.306 -0.6491 -2.1038 -0.5693
 1307SOL    MW4 5301   2.035   0.791   2.332 -0.5436 -0.7236 -0.3891
 1308SOL     OW 5302   1.767   0.852   2.264 -0.1949 -0.0791 -0.1960
 1308SOL    HW2 5303   1.797   0.929   2.312  0.3438  0.1756 -0.9189
 1308SOL    HW3 5304   1.777   0.877   2.172  1.9591 -1.7347 -0.4643
 1308SOL    MW4 5305   1.772   0.865   2.258  0.1605 -0.2639 -0.3266
 1309SOL     OW 5306   1.818   1.114   2.349 -0.0789  0.3567 -0.3983
 1309SOL    HW2 5307   1.892   1.161   2.310 -0.6108  0.8263 -0.8479
 1309SOL    HW3 5308   1.741   1.148   2.303 -0.6434  0.3680  0.5414
 1309SOL    MW4 5309   1.818   1.125   2.338 -0.2236  0.4201 -0.3333
 1310SOL     OW 5310   2.020   1.265   2.210  0.3439  0.4368  0.9568
 1310SOL    HW2 5311   2.028   1.357   2.237  0.1427  1.0719 -1.0679
 1310SOL    HW3 5312   2.012   1.269   2.115 -0.5112 -1.6379  0.9244
 1310SOL    MW4 5313   2.020   1.278   2.201  0.2046  0.2469  0.6855
 1311SOL     OW 5314   2.054   1.545   2.311 -0.2059  0.0156  0.3343
 1311SOL    HW2 5315   2.047   1.554   2.406 -1.0985 -0.7705  0.3499
 1311SOL    HW3 5316   1.969   1.575   2.277 -0.3959 -0.9707 -0.1105
 1311SOL    MW4 5317   2.041   1.550   2.319 -0.3488 -0.2183  0.2778
 1312SOL     OW 5318   1.778   1.652   2.257  0.1449 -0.1312 -0.3117
 1312SOL    HW2 5319   1.775   1.743   2.286  0.6745 -0.1572 -0.1678
 1312SOL    HW3 5320   1.795   1.658   2.162 -0.6161 -0.0672 -0.4471
 1312SOL    MW4 5321   1.780   1.665   2.248  0.1144 -0.1262 -0.3107
 1313SOL     OW 5322   1.773   1.928   2.334  0.2334 -0.0470  0.0601
 1313SOL    HW2 5323   1.783   1.934   2.429  2.7462  0.0779 -0.1672
 1313SOL    HW3 5324   1.848   1.977   2.300 -0.2430 -0.7097 -1.9820
 1313SOL    MW4 5325   1.784   1.936   2.342  0.5022 -0.1180 -0.2394
 1314SOL     OW 5326   2.012   2.080   2.288 -0.0032 -0.3728  0.6184
 1314SOL    HW2 5327   2.103   2.080   2.315 -0.1021 -1.9695  1.0144
 1314SOL    HW3 5328   2.014   2.086   2.192  0.4696  0.6470  0.6847
 1314SOL    MW4 5329   2.024   2.081   2.279  0.0460 -0.4489  0.6793
 1315SOL     OW 5330   1.984   2.362   2.366 -0.0070  0.3601 -0.1786
 1315SOL    HW2 5331   2.063   2.394   2.322  1.7267 -1.4839  1.4929
 1315SOL    HW3 5332   1.985   2.267   2.350 -1.7944  0.2891  0.0268
 1315SOL    MW4 5333   1.994   2.354   2.358 -0.0141  0.1078  0.0687
 1316SOL     OW 5334   1.782   2.481   2.240 -0.4464 -0.3862  0.2552
 1316SOL    HW2 5335   1.864   2.453   2.278 -0.3682 -1.3330 -0.5943
 1316SOL    HW3 5336   1.714   2.444   2.296 -0.2945  1.3109  1.5918
 1316SOL    MW4 5337   1.784   2.473   2.252 -0.4160 -0.2873  0.3195
 1317SOL     OW 5338   1.804   2.719   2.347  0.3941  0.6250 -0.3643
 1317SOL    HW2 5339   1.798   2.628   2.318  0.6330  0.5675 -0.2373
 1317SOL    HW3 5340   1.724   2.760   2.315 -1.6040 -0.5597  2.8950
 1317SOL    MW4 5341   1.793   2.713   2.339  0.1619  0.4609  0.0825
 1318SOL     OW 5342   2.022   2.835   2.247  0.0269 -0.0542 -0.9755
 1318SOL    HW2 5343   2.096   2.792   2.290  1.3427  1.7000 -1.4310
 1318SOL    HW3 5344   1.945   2.785   2.275  1.1188 -0.4521  1.4476
 1318SOL    MW4 5345   2.021   2.823   2.256  0.3443  0.1249 -0.7160
 1319SOL     OW 5346   2.034   3.082   2.383 -0.2486 -0.5553 -0.1992
 1319SOL    HW2 5347   2.110   3.126   2.347 -0.5292 -0.1490 -0.3003
 1319SOL    HW3 5348   2.021   3.005   2.328  0.9628 -1.4203  0.7078
 1319SOL    MW4 5349   2.042   3.077   2.371 -0.1259 -0.6158 -0.0930
 1320SOL     OW 5350   1.801   3.213   2.282  0.5756 -0.3176  0.2237
 1320SOL    HW2 5351   1.871   3.163   2.323  0.7817 -0.5566 -0.4168
 1320SOL    HW3 5352   1.721   3.164   2.302  0.7190 -0.6390  0.0131
 1320SOL    MW4 5353   1.800   3.200   2.290  0.6218 -0.3915  0.1113
 1321SOL     OW 5354   1.772   3.461   2.380  0.0907 -0.0195  0.2864
 1321SOL    HW2 5355   1.769   3.377   2.334  2.6852 -0.1451  0.3139
 1321SOL    HW3 5356   1.719   3.520   2.326  0.2653 -1.0506 -1.0194
 1321SOL    MW4 5357   1.765   3.458   2.367  0.4560 -0.1721  0.1178
 1322SOL     OW 5358   2.004   3.588   2.267 -0.2390  0.1387 -0.3474
 1322SOL    HW2 5359   1.944   3.529   2.313  0.9961 -0.6005  0.3257
 1322SOL    HW3 5360   1.985   3.574   2.175 -0.1388 -1.1161 -0.1830
 1322SOL    MW4 5361   1.993   3.579   2.261 -0.0627 -0.1242 -0.2370
 1323SOL     OW 5362   2.055   3.860   2.324  0.3510 -0.1327 -0.0761
 1323SOL    HW2 5363   2.049   3.866   2.419 -1.5047  0.0519 -0.1919
 1323SOL    HW3 5364   2.048   3.766   2.306  3.7920 -0.4756  0.1380
 1323SOL    MW4 5365   2.053   3.848   2.334  0.5600 -0.1535 -0.0632
 1324SOL     OW 5366   1.815   3.972   2.243  0.3586  0.0491  0.7759
 1324SOL    HW2 5367   1.892   3.919   2.264  1.3222  1.7705  1.6645
 1324SOL    HW3 5368   1.815   3.977   2.147  1.2228 -0.1459  0.7623
 1324SOL    MW4 5369   1.825   3.966   2.233  0.5999  0.2501  0.8912
 1325SOL     OW 5370   1.828   4.258   2.331 -0.3102 -0.0974  0.0338
 1325SOL    HW2 5371   1.823   4.173   2.287 -1.5505  0.3153 -0.6444
 1325SOL    HW3 5372   1.738   4.289   2.333  0.1290  1.1752  0.3415
 1325SOL    MW4 5373   1.815   4.251   2.326 -0.4159  0.1254 -0.0148
 1326SOL     OW 5374   2.026   4.434   2.220  0.0367 -0.2356 -0.1055
 1326SOL    HW2 5375   1.963   4.367   2.247  0.0946  0.0414  0.7339
 1326SOL    HW3 5376   2.026   4.430   2.124 -2.1542  0.5891 -0.1516
 1326SOL    MW4 5377   2.018   4.425   2.211 -0.2449 -0.0901 -0.0007
 1327SOL     OW 5378   2.495   0.005   2.356  0.2292  0.3662  0.2675
 1327SOL    HW2 5379   2.566   0.046   2.307 -0.0341  0.1915 -0.2640
 1327SOL    HW3 5380   2.478  -0.076   2.310 -2.0338  1.5837 -1.1402
 1327SOL    MW4 5381   2.502   0.000   2.343 -0.1042  0.5040  0.0117
 1328SOL     OW 5382   2.274   0.147   2.281 -0.3363 -0.1421  0.0989
 1328SOL    HW2 5383   2.289   0.238   2.306 -0.5959 -0.7802  2.7307
 1328SOL    HW3 5384   2.354   0.101   2.305  0.1086 -0.5044 -1.9636
 1328SOL    MW4 5385   2.286   0.153   2.288 -0.3121 -0.2741  0.1738
 1329SOL     OW 5386   2.287   0.405   2.365  0.0656 -0.1977  0.5704
 1329SOL    HW2 5387   2.359   0.448   2.319  0.4660 -0.1991  1.1932
 1329SOL    HW3 5388   2.208   0.449   2.333  0.3254 -0.3201 -0.2488
 1329SOL    MW4 5389   2.286   0.416   2.355  0.1528 -0.2141  0.5443
 1330SOL     OW 5390   2.487   0.494   2.219 -0.0632 -0.1639  0.2881
 1330SOL    HW2 5391   2.573   0.457   2.243 -0.5309 -1.1405  0.4800
 1330SOL    HW3 5392   2.494   0.512   2.126  0.5282  0.2411  0.4043
 1330SOL    MW4 5393   2.499   0.492   2.210 -0.0467 -0.2393  0.3288
 1331SOL     OW 5394   2.468   0.762   2.338 -0.0862  0.0687 -0.4018
 1331SOL    HW2 5395   2.554   0.790   2.307 -0.0042 -0.1544 -0.3830
 1331SOL    HW3 5396   2.462   0.670   2.310 -0.1654 -0.0238 -0.0891
 1331SOL    MW4 5397   2.479   0.753   2.331 -0.0861  0.0271 -0.3581
 1332SOL     OW 5398   2.252   0.902   2.205  0.2050 -0.5235 -0.1733
 1332SOL    HW2 5399   2.237   0.987   2.246 -1.5497 -0.6390 -0.5510
 1332SOL    HW3 5400   2.325   0.864   2.255 -0.4211  0.2848  1.3760
 1332SOL    MW4 5401   2.260   0.908   2.217 -0.1090 -0.4321 -0.0188
 1333SOL     OW 5402   2.254   1.150   2.338  0.7496  0.8455  0.3978
 1333SOL    HW2 5403   2.325   1.208   2.309 -0.2720  1.6617 -0.5323
 1333SOL    HW3 5404   2.174   1.199   2.319 -0.0501  0.1862  1.9848
 1333SOL    MW4 5405   2.252   1.164   2.332  0.5095  0.8662  0.4845
 1334SOL     OW 5406   2.461   1.327   2.269  0.0267 -0.3495 -0.4995
 1334SOL    HW2 5407   2.538   1.271   2.275  0.7280  0.6859  0.3670
 1334SOL    HW3 5408   2.485   1.406   2.318 -1.1393  0.4791 -1.2380
 1334SOL    MW4 5409   2.474   1.330   2.276 -0.0346 -0.1036 -0.4826
 1335SOL     OW 5410   2.500   1.575   2.376  0.1538 -0.1955  0.4848
 1335SOL    HW2 5411   2.520   1.591   2.468 -0.4929  0.8334  0.4576
 1335SOL    HW3 5412   2.578   1.602   2.328  0.4992 -0.7555  0.7372
 1335SOL    MW4 5413   2.513   1.581   2.381  0.1142 -0.1335  0.5143
 1336SOL     OW 5414   2.276   1.686   2.236 -0.0050 -0.0202 -0.1409
 1336SOL    HW2 5415   2.349   1.655   2.289  0.4397  1.9684  0.4558
 1336SOL    HW3 5416   2.201   1.634   2.265  0.6336 -0.2508  1.1100
 1336SOL    MW4 5417   2.276   1.675   2.247  0.1378  0.2118  0.1028
 1337SOL     OW 5418   2.253   1.951   2.354  0.2693  0.6043  0.2553
 1337SOL    HW2 5419   2.325   1.999   2.311 -0.8243 -0.0071 -2.3486
 1337SOL    HW3 5420   2.248   1.869   2.306 -2.1048  0.6006  0.4816
 1337SOL    MW4 5421   2.262   1.947   2.342 -0.1884  0.5231 -0.0584
 1338SOL     OW 5422   2.455   2.100   2.241  0.3380  0.2512  0.1650
 1338SOL    HW2 5423   2.533   2.055   2.275 -0.1415 -1.0643 -0.4352
 1338SOL    HW3 5424   2.471   2.106   2.147 -0.4945 -0.4864 -0.0340
 1338SOL    MW4 5425   2.468   2.095   2.233  0.1650 -0.0196  0.0594
 1339SOL     OW 5426   2.454   2.352   2.349 -0.0510 -0.0297  0.0270
 1339SOL    HW2 5427   2.521   2.410   2.312 -0.2245 -0.3587 -0.8060
 1339SOL    HW3 5428   2.457   2.274   2.294 -0.4832 -0.4268  0.5581
 1339SOL    MW4 5429   2.464   2.350   2.337 -0.1309 -0.1254 -0.0129
 1340SOL     OW 5430   2.229   2.461   2.254  0.2018  0.6533  0.0392
 1340SOL    HW2 5431   2.235   2.551   2.284  0.6573  0.6596 -0.0720
 1340SOL    HW3 5432   2.306   2.418   2.292  0.8441  0.6845 -1.2134
 1340SOL    MW4 5433   2.240   2.467   2.263  0.3469  0.6585 -0.1409
 1341SOL     OW 5434   2.242   2.719   2.357 -0.6641  0.8233 -0.3560
 1341SOL    HW2 5435   2.243   2.693   2.449 -2.5501  0.7368 -0.3324
 1341SOL    HW3 5436   2.329   2.756   2.341 -0.4988  1.3179  1.5997
 1341SOL    MW4 5437   2.254   2.721   2.367 -0.8910  0.8769 -0.0949
 1342SOL     OW 5438   2.460   2.859   2.301  0.0609  0.9624 -0.1509
 1342SOL    HW2 5439   2.545   2.822   2.326 -0.3989  0.0133  0.0514
 1342SOL    HW3 5440   2.455   2.845   2.207  0.1317  1.0041 -0.1603
 1342SOL    MW4 5441   2.470   2.852   2.292  0.0095  0.8428 -0.1252
 1343SOL     OW 5442   2.457   3.122   2.366  0.2934 -0.5475  0.0180
 1343SOL    HW2 5443   2.548   3.147   2.348  0.4222 -2.3855 -2.1483
 1343SOL    HW3 5444   2.454   3.028   2.349 -2.1900 -0.3784 -0.7279
 1343SOL    MW4 5445   2.468   3.113   2.361 -0.0169 -0.7675 -0.3662
 1344SOL     OW 5446   2.243   3.247   2.235  0.0331  0.4831 -0.2101
 1344SOL    HW2 5447   2.252   3.334   2.274  0.9777  1.2917 -2.1752
 1344SOL    HW3 5448   2.318   3.198   2.269  1.1859  1.3633 -1.4525
 1344SOL    MW4 5449   2.254   3.252   2.245  0.3097  0.7060 -0.6332
 1345SOL     OW 5450   2.252   3.513   2.347 -0.2550 -0.5964 -0.0590
 1345SOL    HW2 5451   2.253   3.506   2.442 -0.2376 -0.0661 -0.0229
 1345SOL    HW3 5452   2.160   3.524   2.325 -0.1631  0.2153 -0.0407
 1345SOL    MW4 5453   2.240   3.513   2.357 -0.2406 -0.4194 -0.0517
 1346SOL     OW 5454   2.479   3.664   2.235  0.0730  0.2051 -0.4783
 1346SOL    HW2 5455   2.494   3.755   2.264 -0.9998  0.2671 -0.1160
 1346SOL    HW3 5456   2.395   3.640   2.273  0.0659 -0.7435 -1.0818
 1346SOL    MW4 5457   2.470   3.673   2.243 -0.0696  0.0880 -0.5100
 1347SOL     OW 5458   2.519   3.925   2.334 -0.1268  0.2282 -0.2574
 1347SOL    HW2 5459   2.508   3.924   2.429  2.0527  0.2828  0.0160
 1347SOL    HW3 5460   2.445   3.977   2.302 -1.1822 -0.2528  1.3456
 1347SOL    MW4 5461   2.508   3.932   2.342  0.0215  0.1719 -0.0098
 1348SOL     OW 5462   2.293   4.025   2.207 -0.6443  0.0520 -0.4338
 1348SOL    HW2 5463   2.279   4.107   2.254 -0.5521  0.3270 -0.8832
 1348SOL    HW3 5464   2.225   3.966   2.240 -0.6537  0.2821 -0.0454
 1348SOL    MW4 5465   2.282   4.028   2.217 -0.6332  0.1192 -0.4418
 1349SOL     OW 5466   2.261   4.320   2.320 -0.1257  0.3778  0.0551
 1349SOL    HW2 5467   2.260   4.317   2.415 -0.6035 -1.4603  0.0131
 1349SOL    HW3 5468   2.178   4.361   2.296 -0.0159  0.8173  0.4188
 1349SOL    MW4 5469   2.250   4.325   2.329 -0.1743  0.1931  0.0973
 1350SOL     OW 5470   2.499   4.434   2.205 -0.4006  0.0191 -0.3897
 1350SOL    HW2 5471   2.571   4.390   2.251  0.3322  1.8381  0.2718
 1350SOL    HW3 5472   2.420   4.394   2.240  0.2351 -0.2927  0.7153
 1350SOL    MW4 5473   2.498   4.423   2.216 -0.2203  0.2189 -0.1569
 1351SOL     OW 5474   2.943   0.008   2.344  0.0292  0.3059  0.1727
 1351SOL    HW2 5475   3.012   0.056   2.298  2.9573 -1.3714  2.6179
 1351SOL    HW3 5476   2.938  -0.076   2.298  1.0818 -0.3409  1.2010
 1351SOL    MW4 5477   2.951   0.003   2.332  0.5546 -0.0007  0.6309
 1352SOL     OW 5478   2.714   0.117   2.243 -0.5162 -0.5540  0.3950
 1352SOL    HW2 5479   2.719   0.208   2.270 -0.0604  0.4581 -2.9196
 1352SOL    HW3 5480   2.785   0.073   2.291  1.5165  1.5427 -0.6264
 1352SOL    MW4 5481   2.724   0.123   2.253 -0.1881 -0.1438 -0.1771
 1353SOL     OW 5482   2.732   0.384   2.320  0.5976  0.2692  0.0069
 1353SOL    HW2 5483   2.719   0.388   2.415  1.1446 -0.4927  0.1187
 1353SOL    HW3 5484   2.814   0.432   2.305  0.7022  0.0756 -0.0395
 1353SOL    MW4 5485   2.741   0.391   2.330  0.6835  0.1431  0.0155
 1354SOL     OW 5486   2.951   0.524   2.207  0.3806 -0.1758 -0.2180
 1354SOL    HW2 5487   2.965   0.616   2.229 -0.1561 -0.0857 -0.2503
 1354SOL    HW3 5488   2.955   0.521   2.111 -0.3522 -0.0591 -0.2557
 1354SOL    MW4 5489   2.953   0.535   2.197  0.2131 -0.1486 -0.2272
 1355SOL     OW 5490   2.945   0.803   2.304 -0.3154  0.1295  0.6019
 1355SOL    HW2 5491   2.936   0.785   2.398 -0.8988  0.6003  0.6364
 1355SOL    HW3 5492   2.867   0.852   2.281 -0.6950 -0.9122 -0.3628
 1355SOL    MW4 5493   2.934   0.807   2.313 -0.4425  0.0541  0.4790
 1356SOL     OW 5494   2.690   0.924   2.248 -0.0672  0.1489 -0.2251
 1356SOL    HW2 5495   2.687   1.017   2.271 -0.8723 -0.1920  1.1048
 1356SOL    HW3 5496   2.696   0.923   2.152 -0.9623  1.5502 -0.3062
 1356SOL    MW4 5497   2.691   0.937   2.238 -0.2916  0.2887 -0.0603
 1357SOL     OW 5498   2.703   1.192   2.317 -0.0732 -0.1270 -0.1964
 1357SOL    HW2 5499   2.700   1.188   2.412 -0.4758 -1.1022 -0.2468
 1357SOL    HW3 5500   2.789   1.230   2.298 -0.0505  0.2057  0.5542
 1357SOL    MW4 5501   2.714   1.197   2.327 -0.1233 -0.2117 -0.1042
 1358SOL     OW 5502   2.975   1.313   2.266 -0.0055  0.0660  0.0633
 1358SOL    HW2 5503   3.045   1.257   2.297 -0.6906 -1.2996 -0.8171
 1358SOL    HW3 5504   2.993   1.324   2.173 -0.9671 -0.3154 -0.1726
 1358SOL    MW4 5505   2.986   1.307   2.258 -0.2227 -0.1645 -0.0842
 1359SOL     OW 5506   2.935   1.574   2.366 -0.1158 -0.4217 -0.2524
 1359SOL    HW2 5507   2.935   1.572   2.461  3.1558  2.6612 -0.1234
 1359SOL    HW3 5508   2.954   1.483   2.341 -1.4445 -1.3576  1.9700
 1359SOL    MW4 5509   2.937   1.561   2.375  0.1404 -0.1384  0.0579
 1360SOL     OW 5510   2.727   1.712   2.244  0.1360 -0.1684  0.2670
 1360SOL    HW2 5511   2.805   1.673   2.284 -0.0090 -0.9212 -0.1849
 1360SOL    HW3 5512   2.746   1.713   2.150  0.8654  2.4493  0.4111
 1360SOL    MW4 5513   2.740   1.707   2.237  0.2129  0.0776  0.2265
 1361SOL     OW 5514   2.690   1.977   2.311 -0.0504 -0.1663 -0.1803
 1361SOL    HW2 5515   2.700   1.969   2.406 -0.1418  0.7485 -0.0867
 1361SOL    HW3 5516   2.683   1.887   2.279 -1.5717 -0.4280  0.8407
 1361SOL    MW4 5517   2.691   1.964   2.319 -0.2632 -0.0801 -0.0334
 1362SOL     OW 5518   2.920   2.154   2.262  0.3706 -0.0377 -0.4299
 1362SOL    HW2 5519   2.978   2.089   2.301 -1.8120 -1.9314 -0.2078
 1362SOL    HW3 5520   2.832   2.119   2.275 -0.9225  3.1760  0.0632
 1362SOL    MW4 5521   2.916   2.141   2.269 -0.0877  0.1366 -0.3357
 1363SOL     OW 5522   2.903   2.408   2.388  0.1847 -0.6034  0.3337
 1363SOL    HW2 5523   2.906   2.411   2.484  0.6435  1.2048  0.2761
 1363SOL    HW3 5524   2.904   2.314   2.367  1.0157 -0.9955  2.0530
 1363SOL    MW4 5525   2.903   2.396   2.398  0.3550 -0.4168  0.5529
 1364SOL     OW 5526   2.674   2.513   2.285  0.2127  0.3819  0.2113
 1364SOL    HW2 5527   2.759   2.483   2.318  0.3743  0.5358 -0.0613
 1364SOL    HW3 5528   2.682   2.510   2.190  0.2326  1.2755  0.1797
 1364SOL    MW4 5529   2.686   2.509   2.277  0.2370  0.5205  0.1712
 1365SOL     OW 5530   2.718   2.764   2.395 -0.1501  0.1613 -0.1197
 1365SOL    HW2 5531   2.791   2.801   2.345  1.2193 -1.8460  0.3440
 1365SOL    HW3 5532   2.707   2.676   2.361 -0.1577 -0.7238  2.0794
 1365SOL    MW4 5533   2.726   2.758   2.384  0.0293 -0.2203  0.2317
 1366SOL     OW 5534   2.944   2.885   2.278 -0.5244  0.2207 -0.5608
 1366SOL    HW2 5535   2.929   2.974   2.310 -1.7210 -0.0281 -0.3743
 1366SOL    HW3 5536   2.932   2.891   2.184  0.5805  0.4804 -0.6916
 1366SOL    MW4 5537   2.940   2.898   2.270 -0.5364  0.2222 -0.5534
 1367SOL     OW 5538   2.938   3.138   2.394  0.0153 -0.1593 -0.3582
 1367SOL    HW2 5539   3.008   3.188   2.352  0.1301 -0.6706 -0.7886
 1367SOL    HW3 5540   2.858   3.177   2.360  0.1047 -0.3069 -0.7424
 1367SOL    MW4 5541   2.937   3.149   2.384  0.0424 -0.2460 -0.4656
 1368SOL     OW 5542   2.723   3.271   2.285  0.1525  0.3826  0.2805
 1368SOL    HW2 5543   2.722   3.366   2.296  0.6634  0.3495  0.6800
 1368SOL    HW3 5544   2.708   3.257   2.192 -0.0520  0.8532  0.2421
 1368SOL    MW4 5545   2.721   3.282   2.274  0.1929  0.4401  0.3281
 1369SOL     OW 5546   2.697   3.539   2.355 -0.1132  0.0677 -0.2043
 1369SOL    HW2 5547   2.775   3.589   2.330 -0.7929  0.7828 -0.9531
 1369SOL    HW3 5548   2.624   3.590   2.318 -0.9538 -0.3744  0.8386
 1369SOL    MW4 5549   2.697   3.553   2.347 -0.3140  0.1037 -0.1655
 1370SOL     OW 5550   2.944   3.664   2.246  0.6910 -0.0890 -0.4592
 1370SOL    HW2 5551   3.024   3.617   2.270  0.6853 -0.7498 -1.7271
 1370SOL    HW3 5552   2.957   3.752   2.281  1.2536 -0.6548  0.8130
 1370SOL    MW4 5553   2.956   3.669   2.254  0.7644 -0.2508 -0.4587
 1371SOL     OW 5554   2.942   3.913   2.346  0.0716  0.4991  0.1506
 1371SOL    HW2 5555   2.916   3.889   2.435  1.1738 -0.6565  0.1823
 1371SOL    HW3 5556   2.867   3.960   2.310 -0.4379  0.8489  1.6392
 1371SOL    MW4 5557   2.929   3.916   2.353  0.1500  0.3927  0.3514
 1372SOL     OW 5558   2.734   4.046   2.224  0.0218 -0.4667  0.1487
 1372SOL    HW2 5559   2.662   4.000   2.266  0.0070 -0.2809  0.3241
 1372SOL    HW3 5560   2.709   4.050   2.132  0.5681 -1.8766 -0.0795
 1372SOL    MW4 5561   2.721   4.040   2.217  0.0920 -0.6285  0.1416
 1373SOL     OW 5562   2.690   4.286   2.338 -0.3303 -0.3215  0.3275
 1373SOL    HW2 5563   2.718   4.264   2.426 -0.3606 -0.1243  0.3866
 1373SOL    HW3 5564   2.723   4.215   2.283 -1.9319 -1.4460  0.7740
 1373SOL    MW4 5565   2.698   4.274   2.342 -0.5457 -0.4435  0.3943
 1374SOL     OW 5566   2.941   4.409   2.245  0.5038 -0.2790  0.0391
 1374SOL    HW2 5567   2.997   4.362   2.306 -1.4150 -1.1804  1.1642
 1374SOL    HW3 5568   2.852   4.396   2.279 -0.5610 -0.3266 -2.6535
 1374SOL    MW4 5569   2.936   4.401   2.257  0.1104 -0.4039 -0.1676
 1375SOL     OW 5570   3.376   0.007   2.310  0.0671  0.0804 -0.1021
 1375SOL    HW2 5571   3.377   0.018   2.405  2.3960 -1.4495  0.0955
 1375SOL    HW3 5572   3.452   0.057   2.279 -0.2880  0.0322 -1.0944
 1375SOL    MW4 5573   3.386   0.015   2.318  0.3276 -0.1278 -0.2069
 1376SOL     OW 5574   3.153   0.170   2.232 -0.6086 -0.0167 -0.1243
 1376SOL    HW2 5575   3.157   0.250   2.285  0.7901  0.6711 -1.2292
 1376SOL    HW3 5576   3.227   0.117   2.263  1.7660  1.4520 -2.9792
 1376SOL    MW4 5577   3.164   0.174   2.243 -0.1109  0.2679 -0.6471
 1377SOL     OW 5578   3.148   0.415   2.372 -0.1162  0.5832  0.3515
 1377SOL    HW2 5579   3.228   0.451   2.333 -0.5361  0.1103 -0.9861
 1377SOL    HW3 5580   3.077   0.455   2.321 -0.7498  1.2611  1.7523
 1377SOL    MW4 5581   3.149   0.425   2.360 -0.2551  0.6103  0.3600
 1378SOL     OW 5582   3.361   0.560   2.279 -0.4945 -0.5601 -0.0540
 1378SOL    HW2 5583   3.439   0.517   2.315 -0.7787 -0.8622  0.1945
 1378SOL    HW3 5584   3.368   0.546   2.185  0.3381  0.3796 -0.1532
 1378SOL    MW4 5585   3.372   0.553   2.271 -0.4225 -0.4760 -0.0343
 1379SOL     OW 5586   3.382   0.804   2.398  0.3434 -0.0981 -0.2598
 1379SOL    HW2 5587   3.459   0.853   2.368 -0.0446  0.0584 -0.9998
 1379SOL    HW3 5588   3.388   0.720   2.352 -0.4078  0.2498 -1.0022
 1379SOL    MW4 5589   3.393   0.799   2.388  0.1931 -0.0315 -0.4554
 1380SOL     OW 5590   3.186   0.917   2.230 -0.0376 -0.0990 -0.8289
 1380SOL    HW2 5591   3.248   0.877   2.291 -0.7548  0.0507  0.0210
 1380SOL    HW3 5592   3.101   0.904   2.273 -0.5059  0.3314 -1.6357
 1380SOL    MW4 5593   3.183   0.910   2.244 -0.1941 -0.0224 -0.8233
 1381SOL     OW 5594   3.206   1.177   2.389  0.2704  0.0450  0.0083
 1381SOL    HW2 5595   3.255   1.236   2.331 -0.9811  0.6545 -0.4552
 1381SOL    HW3 5596   3.212   1.092   2.346  0.4908  0.2163 -0.3091
 1381SOL    MW4 5597   3.214   1.174   2.375  0.1342  0.1481 -0.0949
 1382SOL     OW 5598   3.364   1.304   2.195 -0.3520  0.1910 -0.1018
 1382SOL    HW2 5599   3.438   1.255   2.232  0.0178  0.8357  0.0059
 1382SOL    HW3 5600   3.361   1.385   2.246 -1.4293 -0.0448  0.2102
 1382SOL    MW4 5601   3.374   1.308   2.206 -0.4456  0.2450 -0.0463
 1383SOL     OW 5602   3.328   1.518   2.372  0.4804 -0.1446 -0.2880
 1383SOL    HW2 5603   3.346   1.518   2.466 -0.8093 -1.8483 -0.0160
 1383SOL    HW3 5604   3.265   1.589   2.359 -0.6345 -0.9872  0.4194
 1383SOL    MW4 5605   3.322   1.527   2.383  0.1631 -0.4808 -0.1590
 1384SOL     OW 5606   3.150   1.727   2.265  0.2711 -0.3716 -0.4810
 1384SOL    HW2 5607   3.144   1.813   2.307  1.3548  0.3816 -1.8132
 1384SOL    HW3 5608   3.072   1.680   2.294 -0.1733  0.9521  0.5084
 1384SOL    MW4 5609   3.139   1.732   2.275  0.3555 -0.0975 -0.5260
 1385SOL     OW 5610   3.136   1.977   2.360  0.5019  0.8969 -0.0088
 1385SOL    HW2 5611   3.133   1.972   2.456  0.5929 -2.1269 -0.1347
 1385SOL    HW3 5612   3.222   2.015   2.342 -0.5136  3.9119  1.1237
 1385SOL    MW4 5613   3.147   1.981   2.371  0.3800  0.8957  0.1242
 1386SOL     OW 5614   3.380   2.083   2.257 -0.0519 -0.1751 -0.0942
 1386SOL    HW2 5615   3.457   2.060   2.308  1.2763  1.6845 -1.2156
 1386SOL    HW3 5616   3.406   2.071   2.166 -0.4727  2.1539 -0.5613
 1386SOL    MW4 5617   3.393   2.079   2.252  0.0679  0.3774 -0.3040
 1387SOL     OW 5618   3.353   2.325   2.391  0.6195 -0.1056  0.1074
 1387SOL    HW2 5619   3.274   2.361   2.352  1.0286 -0.2300 -0.8606
 1387SOL    HW3 5620   3.355   2.233   2.363 -0.0190 -0.6967  1.9242
 1387SOL    MW4 5621   3.343   2.317   2.382  0.5891 -0.1998  0.2193
 1388SOL     OW 5622   3.140   2.502   2.233 -0.1978 -0.2830  0.1690
 1388SOL    HW2 5623   3.147   2.597   2.240 -1.3667 -0.0522 -1.4123
 1388SOL    HW3 5624   3.058   2.481   2.278 -0.1698 -0.4828  0.1250
 1388SOL    MW4 5625   3.130   2.512   2.240 -0.3483 -0.2787 -0.0458
 1389SOL     OW 5626   3.187   2.741   2.339 -0.0263 -0.1173  0.1027
 1389SOL    HW2 5627   3.187   2.715   2.431  0.8022 -0.9783 -0.1321
 1389SOL    HW3 5628   3.116   2.804   2.332 -0.6846 -0.7297  1.1405
 1389SOL    MW4 5629   3.178   2.746   2.350 -0.0038 -0.3119  0.2086
 1390SOL     OW 5630   3.439   2.847   2.266  0.1726 -0.6463 -0.0370
 1390SOL    HW2 5631   3.427   2.937   2.296  2.1678 -0.6204  0.7403
 1390SOL    HW3 5632   3.361   2.801   2.297 -0.0340  0.4344  1.0945
 1390SOL    MW4 5633   3.427   2.852   2.274  0.4084 -0.5002  0.2151
 1391SOL     OW 5634   3.418   3.089   2.379  0.4523  0.2091 -0.1495
 1391SOL    HW2 5635   3.481   3.144   2.333  0.8333 -2.1833 -2.6382
 1391SOL    HW3 5636   3.333   3.119   2.347  0.4981  1.0806  0.5214
 1391SOL    MW4 5637   3.415   3.100   2.369  0.5085  0.0083 -0.3893
 1392SOL     OW 5638   3.188   3.247   2.310  0.2830  0.1728  0.3983
 1392SOL    HW2 5639   3.183   3.341   2.329  1.6082  0.3990 -0.2696
 1392SOL    HW3 5640   3.172   3.241   2.216  1.8405 -0.0749  0.1248
 1392SOL    MW4 5641   3.185   3.259   2.300  0.6633  0.1700  0.2737
 1393SOL     OW 5642   3.159   3.513   2.365  0.4649 -0.3583  0.0083
 1393SOL    HW2 5643   3.164   3.505   2.460  2.7751  0.2257 -0.0384
 1393SOL    HW3 5644   3.240   3.558   2.340 -1.2425  1.6828 -2.0119
 1393SOL    MW4 5645   3.171   3.518   2.374  0.5443 -0.0122 -0.2646
 1394SOL     OW 5646   3.396   3.609   2.271  0.5961 -0.3735 -0.5920
 1394SOL    HW2 5647   3.482   3.573   2.292  0.0314 -2.0110 -0.9412
 1394SOL    HW3 5648   3.397   3.619   2.176  0.6146  0.1678 -0.5340
 1394SOL    MW4 5649   3.407   3.605   2.261  0.5240 -0.5183 -0.6306
 1395SOL     OW 5650   3.395   3.867   2.366  0.1444  0.4560 -0.1363
 1395SOL    HW2 5651   3.483   3.899   2.348  0.3131  1.1247  1.7082
 1395SOL    HW3 5652   3.393   3.779   2.330  1.5412  0.4709 -0.2668
 1395SOL    MW4 5653   3.406   3.860   2.359  0.3510  0.5462  0.0899
 1396SOL     OW 5654   3.192   4.042   2.275 -0.1326 -0.1501 -0.4394
 1396SOL    HW2 5655   3.270   4.001   2.313 -0.0304  0.3666 -0.0847
 1396SOL    HW3 5656   3.119   3.987   2.305 -0.1568  0.7884  1.3204
 1396SOL    MW4 5657   3.193   4.029   2.284 -0.1221  0.0420 -0.1605
 1397SOL     OW 5658   3.170   4.286   2.389  0.4644  0.4245  0.3077
 1397SOL    HW2 5659   3.226   4.338   2.331  0.0529  0.0279 -0.4630
 1397SOL    HW3 5660   3.177   4.196   2.355 -0.0632  0.2465  0.6510
 1397SOL    MW4 5661   3.178   4.281   2.377  0.3407  0.3481  0.2511
 1398SOL     OW 5662   3.376   4.394   2.252  0.1376 -0.6230 -0.1723
 1398SOL    HW2 5663   3.368   4.485   2.281 -1.3310 -0.9797  0.5500
 1398SOL    HW3 5664   3.369   4.399   2.157  1.4599  0.1653 -0.2443
 1398SOL    MW4 5665   3.374   4.407   2.244  0.1185 -0.5660 -0.0863
 1399SOL     OW 5666   3.807   0.033   2.377  0.1232 -0.5658 -0.3575
 1399SOL    HW2 5667   3.812   0.005   2.469 -0.2380  0.3484 -0.0464
 1399SOL    HW3 5668   3.897   0.048   2.351  0.2733 -1.4264 -0.3458
 1399SOL    MW4 5669   3.819   0.031   2.386  0.0954 -0.5587 -0.3152
 1400SOL     OW 5670   3.605   0.164   2.232 -0.0843  0.3426 -0.0191
 1400SOL    HW2 5671   3.564   0.238   2.278  2.4334  2.0667 -0.4094
 1400SOL    HW3 5672   3.673   0.134   2.292  0.5279 -0.0488 -0.9109
 1400SOL    MW4 5673   3.608   0.170   2.246  0.3288  0.5185 -0.1884
 1401SOL     OW 5674   3.582   0.395   2.390 -0.1065  0.2473 -0.0272
 1401SOL    HW2 5675   3.588   0.369   2.482  1.8966 -1.1089 -0.5010
 1401SOL    HW3 5676   3.667   0.435   2.371 -0.4076  0.2787 -1.3458
 1401SOL    MW4 5677   3.594   0.397   2.399  0.1180  0.0725 -0.2639
 1402SOL     OW 5678   3.841   0.522   2.234 -0.4595 -0.1538 -0.1069
 1402SOL    HW2 5679   3.821   0.613   2.253 -0.9649 -0.4482  0.8139
 1402SOL    HW3 5680   3.851   0.518   2.139 -0.8639  0.7678 -0.1853
 1402SOL    MW4 5681   3.840   0.533   2.224 -0.5794 -0.0710  0.0043
 1403SOL     OW 5682   3.834   0.768   2.349  0.0458 -0.2641 -0.2893
 1403SOL    HW2 5683   3.843   0.745   2.441  0.4226  0.0744 -0.2378
 1403SOL    HW3 5684   3.919   0.807   2.326 -0.2410  0.1569 -0.6335
 1403SOL    MW4 5685   3.847   0.770   2.358  0.0575 -0.1639 -0.3276
 1404SOL     OW 5686   3.605   0.929   2.293  0.0056  0.1921 -0.4881
 1404SOL    HW2 5687   3.678   0.890   2.341 -0.0881  1.7907  0.9922
 1404SOL    HW3 5688   3.624   0.910   2.201  0.6089 -2.2196  0.0925
 1404SOL    MW4 5689   3.617   0.921   2.287  0.0730  0.0848 -0.2162
 1405SOL     OW 5690   3.573   1.206   2.348  0.2272 -0.0577 -0.2906
 1405SOL    HW2 5691   3.558   1.217   2.442  0.2709  0.6855 -0.3660
 1405SOL    HW3 5692   3.590   1.112   2.337 -0.2729 -0.2291  0.3729
 1405SOL    MW4 5693   3.573   1.195   2.359  0.1667  0.0178 -0.2129
 1406SOL     OW 5694   3.787   1.325   2.246 -0.0841 -0.2327 -0.1929
 1406SOL    HW2 5695   3.794   1.415   2.279  1.7826 -0.1453 -0.7748
 1406SOL    HW3 5696   3.700   1.296   2.274 -1.0187  2.0187 -0.6486
 1406SOL    MW4 5697   3.776   1.333   2.254  0.0386  0.0757 -0.3295
 1407SOL     OW 5698   3.814   1.593   2.320  0.4587 -0.3526  0.3844
 1407SOL    HW2 5699   3.815   1.590   2.416  0.2498  2.2904  0.5016
 1407SOL    HW3 5700   3.734   1.641   2.299  0.5874 -0.7749 -1.1261
 1407SOL    MW4 5701   3.803   1.599   2.330  0.4478 -0.0597  0.2005
 1408SOL     OW 5702   3.558   1.729   2.270 -0.1502 -0.2081  0.1435
 1408SOL    HW2 5703   3.484   1.677   2.300 -0.6092 -0.0336 -0.6555
 1408SOL    HW3 5704   3.559   1.716   2.175  0.5509  0.1671  0.0964
 1408SOL    MW4 5705   3.548   1.721   2.261 -0.1183 -0.1357  0.0319
 1409SOL     OW 5706   3.617   2.085   2.414 -0.1556  0.2225  0.2426
 1409SOL    HW2 5707   3.706   2.077   2.380 -0.1744 -2.1321  0.6368
 1409SOL    HW3 5708   3.606   2.008   2.470 -2.0540  1.0794  1.0926
 1409SOL    MW4 5709   3.628   2.074   2.417 -0.4084  0.0248  0.4067
 1410SOL     OW 5710   3.874   2.082   2.289  0.3808 -0.0306  0.0817
 1410SOL    HW2 5711   3.958   2.043   2.312 -0.1462 -1.1859  0.0628
 1410SOL    HW3 5712   3.860   2.056   2.198 -0.1716 -0.1323  0.1964
 1410SOL    MW4 5713   3.884   2.074   2.280  0.2382 -0.1965  0.0942
 1411SOL     OW 5714   3.859   2.355   2.370  0.4375 -0.2651 -0.1162
 1411SOL    HW2 5715   3.769   2.373   2.341  0.2763  0.3191  0.7256
 1411SOL    HW3 5716   3.882   2.273   2.327 -0.2645 -0.0760 -0.8636
 1411SOL    MW4 5717   3.850   2.346   2.361  0.3238 -0.1633 -0.1035
 1412SOL     OW 5718   3.607   2.451   2.285 -0.4121  0.2186 -0.1679
 1412SOL    HW2 5719   3.544   2.389   2.322 -0.3617 -0.3550 -1.0179
 1412SOL    HW3 5720   3.582   2.459   2.193  1.0100 -0.3584 -0.6202
 1412SOL    MW4 5721   3.595   2.444   2.278 -0.2179  0.0670 -0.3397
 1413SOL     OW 5722   3.654   2.718   2.352  0.3983  0.1585  0.2126
 1413SOL    HW2 5723   3.643   2.625   2.332  1.4238 -0.2334  1.3981
 1413SOL    HW3 5724   3.570   2.757   2.329 -0.0539 -1.0595 -0.2891
 1413SOL    MW4 5725   3.642   2.711   2.346  0.4740 -0.0539  0.3028
 1414SOL     OW 5726   3.859   2.863   2.260  0.2142  0.0413 -0.6662
 1414SOL    HW2 5727   3.850   2.954   2.290  1.0304  0.2991 -1.1749
 1414SOL    HW3 5728   3.786   2.817   2.301  1.0755  0.4641  1.4193
 1414SOL    MW4 5729   3.849   2.869   2.269  0.4356  0.1309 -0.4580
 1415SOL     OW 5730   3.823   3.130   2.355 -0.1317 -0.0850 -0.4309
 1415SOL    HW2 5731   3.834   3.124   2.450 -0.6194 -1.9042 -0.4616
 1415SOL    HW3 5732   3.903   3.172   2.324 -0.7634  2.2075  0.9476
 1415SOL    MW4 5733   3.835   3.135   2.363 -0.2794 -0.0224 -0.2530
 1416SOL     OW 5734   3.610   3.243   2.234 -0.4998  0.1299 -0.1407
 1416SOL    HW2 5735   3.617   3.331   2.270 -0.3554  0.0099  0.1333
 1416SOL    HW3 5736   3.677   3.193   2.281 -2.3824 -0.7874  1.7157
 1416SOL    MW4 5737   3.620   3.248   2.245 -0.7293 -0.0072  0.1404
 1417SOL     OW 5738   3.628   3.488   2.353 -0.0397 -0.0239 -0.0343
 1417SOL    HW2 5739   3.622   3.503   2.448  0.1551  0.8704 -0.1573
 1417SOL    HW3 5740   3.712   3.526   2.328  0.5757 -1.5745 -0.3298
 1417SOL    MW4 5741   3.638   3.495   2.363  0.0670 -0.1104 -0.0894
 1418SOL     OW 5742   3.856   3.608   2.276 -0.1527 -0.5017  0.1070
 1418SOL    HW2 5743   3.866   3.703   2.282  0.4644 -0.5229 -0.4455
 1418SOL    HW3 5744   3.851   3.590   2.182  1.5593 -1.1783  0.1267
 1418SOL    MW4 5745   3.857   3.618   2.265  0.1545 -0.5939  0.0367
 1419SOL     OW 5746   3.863   3.867   2.329 -0.0063  0.0655  0.2099
 1419SOL    HW2 5747   3.829   3.890   2.416  1.0630  0.4730  0.5270
 1419SOL    HW3 5748   3.939   3.925   2.317 -0.4191  0.3354 -1.1914
 1419SOL    MW4 5749   3.869   3.878   2.339  0.0803  0.1552  0.0668
 1420SOL     OW 5750   3.615   4.007   2.280 -0.1522 -0.5663  0.2357
 1420SOL    HW2 5751   3.628   4.088   2.328 -0.7887  0.8775 -1.9482
 1420SOL    HW3 5752   3.702   3.971   2.269  0.3297  0.7480 -0.3411
 1420SOL    MW4 5753   3.628   4.013   2.285 -0.1726 -0.2022 -0.1285
 1421SOL     OW 5754   3.575   4.295   2.414  0.0325  0.2088  0.1878
 1421SOL    HW2 5755   3.659   4.321   2.378  0.4389  0.4530  1.2916
 1421SOL    HW3 5756   3.511   4.329   2.352  0.6576  1.8487  0.4135
 1421SOL    MW4 5757   3.578   4.303   2.401  0.1688  0.4573  0.3631
 1422SOL     OW 5758   3.817   4.417   2.309  0.1545 -0.5897  0.1803
 1422SOL    HW2 5759   3.908   4.398   2.332  0.3435  0.1927  0.0952
 1422SOL    HW3 5760   3.804   4.507   2.337 -0.0665 -0.1258 -1.3789
 1422SOL    MW4 5761   3.827   4.426   2.315  0.1502 -0.4253 -0.0367
 1423SOL     OW 5762   4.270   0.005   2.369 -0.0850 -0.0787 -0.2745
 1423SOL    HW2 5763   4.262   0.004   2.464 -1.7607 -0.2889 -0.4038
 1423SOL    HW3 5764   4.349   0.056   2.352 -0.7556  1.5082  1.1766
 1423SOL    MW4 5765   4.279   0.012   2.379 -0.3948  0.1029 -0.1001
 1424SOL     OW 5766   4.039   0.120   2.270 -0.0841  0.3126 -0.0221
 1424SOL    HW2 5767   4.035   0.212   2.298  1.7080  0.3608  0.1733
 1424SOL    HW3 5768   4.118   0.086   2.312 -1.3133 -1.6315  0.7654
 1424SOL    MW4 5769   4.049   0.128   2.279 -0.0095  0.0625  0.1075
 1425SOL     OW 5770   4.031   0.358   2.370  0.3631  0.0838 -0.1701
 1425SOL    HW2 5771   4.111   0.402   2.344 -0.7629  1.2635 -1.6525
 1425SOL    HW3 5772   3.960   0.407   2.328 -1.4712  1.4467  4.2000
 1425SOL    MW4 5773   4.032   0.370   2.361 -0.0272  0.4192  0.2108
 1426SOL     OW 5774   4.254   0.501   2.291  0.4195  0.0184 -0.3033
 1426SOL    HW2 5775   4.247   0.595   2.311 -0.3405 -0.0107 -0.3884
 1426SOL    HW3 5776   4.337   0.474   2.329 -0.5912  0.1545  2.0876
 1426SOL    MW4 5777   4.264   0.510   2.298  0.1855  0.0325  0.0010
 1427SOL     OW 5778   4.264   0.765   2.352  0.4526  0.2709 -0.8925
 1427SOL    HW2 5779   4.195   0.826   2.323 -0.0809 -0.2902 -0.8050
 1427SOL    HW3 5780   4.345   0.807   2.324  0.0238  0.4164 -1.9624
 1427SOL    MW4 5781   4.265   0.779   2.344  0.3257  0.2161 -1.0221
 1428SOL     OW 5782   4.059   0.929   2.253  0.2156 -0.0565  0.5110
 1428SOL    HW2 5783   4.029   1.012   2.290 -1.3522  0.2185 -1.2961
 1428SOL    HW3 5784   4.086   0.951   2.163  1.9546 -1.0902  0.7451
 1428SOL    MW4 5785   4.059   0.943   2.246  0.2379 -0.1566  0.3030
 1429SOL     OW 5786   3.977   1.170   2.383 -0.5499  0.2873  0.5247
 1429SOL    HW2 5787   3.967   1.162   2.478  0.1636 -0.7756  0.5270
 1429SOL    HW3 5788   3.902   1.222   2.355 -0.3705  1.2217  1.7582
 1429SOL    MW4 5789   3.966   1.176   2.392 -0.4323  0.2704  0.6874
 1430SOL     OW 5790   4.195   1.282   2.277  0.0659  0.1274 -0.2207
 1430SOL    HW2 5791   4.120   1.230   2.305 -0.0272  0.8734  0.9205
 1430SOL    HW3 5792   4.271   1.238   2.314  0.2216 -0.7629 -1.5738
 1430SOL    MW4 5793   4.195   1.269   2.285  0.0739  0.1085 -0.2482
 1431SOL     OW 5794   4.255   1.538   2.395  0.0761 -0.4852 -0.0209
 1431SOL    HW2 5795   4.225   1.457   2.353 -0.6794 -0.3983  0.3316
 1431SOL    HW3 5796   4.340   1.556   2.357 -0.1003 -1.0355 -0.6675
 1431SOL    MW4 5797   4.262   1.530   2.385 -0.0472 -0.5465 -0.0594
 1432SOL     OW 5798   4.071   1.713   2.284  0.0756  0.1897 -0.1816
 1432SOL    HW2 5799   4.133   1.653   2.325  0.5430  1.5912  1.1995
 1432SOL    HW3 5800   3.987   1.669   2.291  0.3265 -0.0611  1.3205
 1432SOL    MW4 5801   4.068   1.699   2.290  0.1702  0.3414  0.1986
 1433SOL     OW 5802   4.114   1.978   2.381 -0.1329  0.0675 -0.2021
 1433SOL    HW2 5803   4.083   1.983   2.471  1.1211 -1.1640  0.3190
 1433SOL    HW3 5804   4.097   1.888   2.354 -1.0203  0.5815 -1.3982
 1433SOL    MW4 5805   4.108   1.967   2.389 -0.0849 -0.0272 -0.2913
 1434SOL     OW 5806   4.345   2.074   2.236 -0.1276  0.5364 -0.0884
 1434SOL    HW2 5807   4.383   2.145   2.287  1.0884 -0.2288  0.0924
 1434SOL    HW3 5808   4.269   2.046   2.287  1.5506 -0.7857  1.7918
 1434SOL    MW4 5809   4.340   2.079   2.249  0.2546  0.2611  0.1836
 1435SOL     OW 5810   4.330   2.342   2.337  0.0506  0.2802  0.1874
 1435SOL    HW2 5811   4.262   2.368   2.275  0.7835 -1.6672 -1.4999
 1435SOL    HW3 5812   4.407   2.391   2.311  0.1107  0.1723  0.1629
 1435SOL    MW4 5813   4.331   2.352   2.325  0.1554  0.0091 -0.0384
 1436SOL     OW 5814   4.085   2.456   2.256 -0.1806 -0.3479  0.0917
 1436SOL    HW2 5815   4.081   2.551   2.270  0.8791 -0.3447  0.4486
 1436SOL    HW3 5816   4.008   2.422   2.300 -0.2477  0.2945  0.4849
 1436SOL    MW4 5817   4.075   2.464   2.263 -0.0496 -0.2630  0.1905
 1437SOL     OW 5818   4.088   2.714   2.294 -0.1179  0.2395 -0.4784
 1437SOL    HW2 5819   4.093   2.712   2.389  0.3410  1.4116 -0.4730
 1437SOL    HW3 5820   4.004   2.756   2.275 -0.2886 -0.1485 -0.5959
 1437SOL    MW4 5821   4.077   2.719   2.304 -0.0806  0.3428 -0.4933
 1438SOL     OW 5822   4.311   2.838   2.207  0.2752 -0.2797  0.0403
 1438SOL    HW2 5823   4.231   2.801   2.243  0.6537  0.1145  1.3052
 1438SOL    HW3 5824   4.382   2.793   2.253  0.7555  0.7425  0.3310
 1438SOL    MW4 5825   4.310   2.827   2.218  0.3886 -0.0930  0.2456
 1439SOL     OW 5826   4.285   3.096   2.373  0.0583 -0.3526 -0.2089
 1439SOL    HW2 5827   4.300   3.004   2.349  1.4292 -0.1173 -0.2727
 1439SOL    HW3 5828   4.357   3.144   2.331 -1.7958  1.0239 -1.9223
 1439SOL    MW4 5829   4.297   3.090   2.364 -0.0057 -0.1400 -0.4432
 1440SOL     OW 5830   4.053   3.228   2.268  0.1579 -0.1471  0.1521
 1440SOL    HW2 5831   4.055   3.312   2.313  1.6024  0.0180 -0.1854
 1440SOL    HW3 5832   4.132   3.182   2.298 -0.6324 -1.4010  0.3619
 1440SOL    MW4 5833   4.064   3.233   2.278  0.2441 -0.2911  0.1352
 1441SOL     OW 5834   4.071   3.475   2.399 -0.4853  0.1588  0.2033
 1441SOL    HW2 5835   4.144   3.516   2.352 -0.8017  0.1736 -0.2703
 1441SOL    HW3 5836   3.995   3.528   2.375 -0.6661  0.1066  0.6547
 1441SOL    MW4 5837   4.071   3.488   2.390 -0.5512  0.1538  0.2005
 1442SOL     OW 5838   4.272   3.618   2.252  0.6007  0.0542  0.0802
 1442SOL    HW2 5839   4.295   3.711   2.256 -0.3515  0.4119 -2.0078
 1442SOL    HW3 5840   4.261   3.600   2.159  0.0286 -1.9697  0.5142
 1442SOL    MW4 5841   4.274   3.628   2.240  0.3991 -0.1657 -0.1380
 1443SOL     OW 5842   4.303   3.887   2.341  0.2106 -0.0615 -0.3952
 1443SOL    HW2 5843   4.303   3.888   2.436 -0.9840  0.7239 -0.3979
 1443SOL    HW3 5844   4.382   3.936   2.316  0.3372  0.0275  0.1787
 1443SOL    MW4 5845   4.314   3.894   2.350  0.0696  0.0539 -0.3200
 1444SOL     OW 5846   4.074   4.018   2.299 -0.2783  0.0784 -0.2461
 1444SOL    HW2 5847   4.148   3.960   2.316 -1.6436 -1.4259  0.6866
 1444SOL    HW3 5848   4.069   4.024   2.204 -0.2584 -1.5242 -0.3527
 1444SOL    MW4 5849   4.083   4.011   2.289 -0.4563 -0.3319 -0.1371
 1445SOL     OW 5850   4.069   4.294   2.378  0.0246 -0.0352  0.1500
 1445SOL    HW2 5851   4.150   4.333   2.345  0.8466 -1.1338  0.8814
 1445SOL    HW3 5852   4.065   4.208   2.338 -2.3024  1.0991 -2.2549
 1445SOL    MW4 5853   4.079   4.288   2.368 -0.1731 -0.0305 -0.0706
 1446SOL     OW 5854   4.290   4.430   2.246 -0.0173  0.0400  0.0703
 1446SOL    HW2 5855   4.290   4.512   2.297 -0.9365  0.3443 -0.4145
 1446SOL    HW3 5856   4.358   4.377   2.288  0.6163  1.0593  0.3766
 1446SOL    MW4 5857   4.299   4.434   2.258 -0.0548  0.2141  0.0470
 1447SOL     OW 5858   0.261   4.659   2.661  0.1558  0.2397 -0.2540
 1447SOL    HW2 5859   0.245   4.574   2.702 -0.0654  0.1901 -0.4406
 1447SOL    HW3 5860   0.187   4.713   2.689 -0.3195  0.0247 -1.0824
 1447SOL    MW4 5861   0.249   4.655   2.671  0.0639  0.2050 -0.3879
 1448SOL     OW 5862   4.490   0.119   2.755  0.1474  0.0521  0.1018
 1448SOL    HW2 5863   4.496   0.117   2.851  1.8401 -0.2789 -0.0092
 1448SOL    HW3 5864   4.482   0.212   2.734  0.1014  0.1517  0.5423
 1448SOL    MW4 5865   4.489   0.131   2.765  0.3648  0.0216  0.1450
 1449SOL     OW 5866   0.032   0.391   2.689 -0.4847  0.0875 -0.1628
 1449SOL    HW2 5867   0.102   0.448   2.720 -0.5744 -0.9553  2.0869
 1449SOL    HW3 5868   0.032   0.401   2.594  2.0558  0.8498 -0.1011
 1449SOL    MW4 5869   0.041   0.400   2.681 -0.1614  0.0505  0.1421
 1450SOL     OW 5870   0.254   0.539   2.748  0.4989  0.2260  0.0112
 1450SOL    HW2 5871   0.249   0.521   2.842 -1.1736 -2.2642 -0.5030
 1450SOL    HW3 5872   0.300   0.464   2.712  0.5121  0.8335 -1.2365
 1450SOL    MW4 5873   0.259   0.527   2.756  0.2801 -0.0225 -0.2213
 1451SOL     OW 5874   0.261   0.822   2.632 -0.3512 -0.2072 -0.0709
 1451SOL    HW2 5875   0.337   0.860   2.676 -1.0899  0.4523  0.6845
 1451SOL    HW3 5876   0.264   0.729   2.654 -0.2676 -0.0218  0.7356
 1451SOL    MW4 5877   0.271   0.815   2.641 -0.4376 -0.0957  0.1349
 1452SOL     OW 5878   0.016   0.914   2.721 -0.3708  0.1560 -0.9202
 1452SOL    HW2 5879  -0.064   0.862   2.710  0.2796 -1.0100 -0.1472
 1452SOL    HW3 5880   0.088   0.852   2.709  0.4103  0.6355  1.1682
 1452SOL    MW4 5881   0.015   0.899   2.718 -0.1820  0.0654 -0.5429
 1453SOL     OW 5882   0.031   1.175   2.625 -0.0566  0.1859 -0.3416
 1453SOL    HW2 5883   0.112   1.211   2.661 -0.7403  1.1290  0.2828
 1453SOL    HW3 5884   0.031   1.084   2.653  0.7635  0.1914 -0.3018
 1453SOL    MW4 5885   0.042   1.168   2.634 -0.0386  0.3110 -0.2539
 1454SOL     OW 5886   0.274   1.273   2.721  0.0449 -0.2161 -0.1850
 1454SOL    HW2 5887   0.353   1.231   2.688 -0.5679 -1.0208 -0.6541
 1454SOL    HW3 5888   0.279   1.363   2.689  1.1738 -0.0345  0.4845
 1454SOL    MW4 5889   0.285   1.279   2.713  0.1130 -0.2983 -0.1588
 1455SOL     OW 5890   0.232   1.539   2.639  0.2661  0.0534  0.1050
 1455SOL    HW2 5891   0.298   1.585   2.691 -1.5506  2.6766  0.2207
 1455SOL    HW3 5892   0.148   1.570   2.675 -1.0084 -0.8231 -2.0400
 1455SOL    MW4 5893   0.230   1.549   2.651 -0.1418  0.2837 -0.1628
 1456SOL     OW 5894   4.490   1.647   2.759 -0.0194  0.0477 -0.2098
 1456SOL    HW2 5895   4.506   1.659   2.853  1.3520 -0.8741 -0.3094
 1456SOL    HW3 5896   4.488   1.735   2.723 -2.7323  0.5327  1.0101
 1456SOL    MW4 5897   4.491   1.660   2.767 -0.1965 -0.0100 -0.0620
 1457SOL     OW 5898   4.456   1.905   2.654  0.4309 -0.0743  0.4600
 1457SOL    HW2 5899   4.537   1.946   2.686  1.7833 -2.3973  0.0936
 1457SOL    HW3 5900   4.458   1.919   2.560  0.4275 -0.1989  0.4422
 1457SOL    MW4 5901   4.467   1.912   2.646  0.6084 -0.3972  0.4094
 1458SOL     OW 5902   0.194   2.061   2.705 -0.1103 -0.1359  0.4239
 1458SOL    HW2 5903   0.281   2.026   2.684  0.4484  1.1229  0.6179
 1458SOL    HW3 5904   0.197   2.152   2.677 -1.4957 -0.1777  0.1135
 1458SOL    MW4 5905   0.206   2.068   2.699 -0.2194  0.0248  0.4084
 1459SOL     OW 5906   0.211   2.335   2.612  0.1933 -0.2683  0.1040
 1459SOL    HW2 5907   0.286   2.358   2.668 -1.0007 -0.0709  1.6667
 1459SOL    HW3 5908   0.136   2.376   2.655 -1.0836 -2.0236 -0.3892
 1459SOL    MW4 5909   0.211   2.343   2.625 -0.1327 -0.4740  0.2449
 1460SOL     OW 5910   4.488   2.448   2.741 -0.3891  0.3483 -0.0872
 1460SOL    HW2 5911   4.478   2.440   2.836 -0.1999 -3.0545 -0.2859
 1460SOL    HW3 5912   4.422   2.389   2.705  0.9671 -0.0082 -2.0411
 1460SOL    MW4 5913   4.478   2.439   2.749 -0.1852 -0.1476 -0.3712
 1461SOL     OW 5914   4.478   2.727   2.638  0.1729 -0.0054 -0.2982
 1461SOL    HW2 5915   4.395   2.766   2.666  1.2911  2.1027  0.1343
 1461SOL    HW3 5916   4.475   2.638   2.673 -1.5380  0.3188  0.4356
 1461SOL    MW4 5917   4.467   2.720   2.646  0.0944  0.3157 -0.1442
 1462SOL     OW 5918   0.238   2.826   2.765  0.4699  0.0516 -0.2686
 1462SOL    HW2 5919   0.239   2.916   2.732 -1.9556  0.1771 -0.0354
 1462SOL    HW3 5920   0.153   2.791   2.740 -0.7171 -0.5045  4.0091
 1462SOL    MW4 5921   0.227   2.834   2.758 -0.0067 -0.0052  0.3264
 1463SOL     OW 5922   0.235   3.105   2.664 -0.2317  0.0548 -0.3892
 1463SOL    HW2 5923   0.302   3.161   2.704 -0.4596  0.3090 -0.3657
 1463SOL    HW3 5924   0.240   3.125   2.571 -1.9636  1.8832 -0.1055
 1463SOL    MW4 5925   0.245   3.115   2.657 -0.4902  0.3293 -0.3486
 1464SOL     OW 5926   0.024   3.228   2.778  0.4279 -0.5345  0.3756
 1464SOL    HW2 5927  -0.056   3.182   2.750  0.4918 -0.5484  0.2129
 1464SOL    HW3 5928   0.095   3.174   2.744  0.5129  1.3779 -2.6903
 1464SOL    MW4 5929   0.023   3.214   2.770  0.4475 -0.2840 -0.0503
 1465SOL     OW 5930   0.002   3.474   2.658 -0.0811  0.0307  0.4968
 1465SOL    HW2 5931   0.066   3.531   2.701 -1.2485  0.5014  1.6458
 1465SOL    HW3 5932   0.019   3.387   2.694 -0.3172  0.2236  1.0860
 1465SOL    MW4 5933   0.013   3.470   2.668 -0.2661  0.1178  0.7262
 1466SOL     OW 5934   0.235   3.649   2.740  0.5448  0.2588  0.3110
 1466SOL    HW2 5935   0.222   3.624   2.832 -1.4229 -2.1431 -0.5790
 1466SOL    HW3 5936   0.303   3.590   2.708 -1.1392 -1.2172 -0.6478
 1466SOL    MW4 5937   0.242   3.638   2.748  0.0630 -0.2530  0.0672
 1467SOL     OW 5938   0.185   3.912   2.697  0.2646 -0.5150 -0.2521
 1467SOL    HW2 5939   0.193   3.817   2.712 -0.7799 -1.0443 -2.6636
 1467SOL    HW3 5940   0.202   3.922   2.603 -2.2274  1.3616 -0.5363
 1467SOL    MW4 5941   0.189   3.900   2.687 -0.2020 -0.3374 -0.6080
 1468SOL     OW 5942   4.462   4.075   2.768 -0.0138  0.3533 -0.3669
 1468SOL    HW2 5943   4.474   4.161   2.727 -0.5883  0.3899 -0.4517
 1468SOL    HW3 5944   4.547   4.032   2.757  1.1487  1.9226  2.0373
 1468SOL    MW4 5945   4.475   4.081   2.761  0.0639  0.5651 -0.0608
 1469SOL     OW 5946   0.010   4.317   2.627 -0.1052  0.2962 -0.1242
 1469SOL    HW2 5947  -0.067   4.358   2.666  0.1366 -0.3752  1.0787
 1469SOL    HW3 5948   0.084   4.348   2.679  0.1866 -0.8443  0.1554
 1469SOL    MW4 5949   0.010   4.326   2.639 -0.0348  0.0577  0.0713
 1470SOL     OW 5950   0.225   4.402   2.765 -0.3683  0.0620  0.1638
 1470SOL    HW2 5951   0.226   4.377   2.857  1.1640 -0.7398 -0.0398
 1470SOL    HW3 5952   0.307   4.366   2.730 -0.7071  0.7603 -1.3975
 1470SOL    MW4 5953   0.236   4.394   2.773 -0.2108  0.0486 -0.0691
 1471SOL     OW 5954   0.682   4.650   2.651 -0.3711 -0.2123  0.2708
 1471SOL    HW2 5955   0.756   4.688   2.699 -0.5937  1.3813 -0.6300
 1471SOL    HW3 5956   0.607   4.705   2.674 -1.1568 -1.4011  0.6359
 1471SOL    MW4 5957   0.682   4.662   2.660 -0.5041 -0.1589  0.1998
 1472SOL     OW 5958   0.484   0.124   2.754  0.3087  0.4153 -0.4600
 1472SOL    HW2 5959   0.493   0.129   2.850  0.3276  1.7595 -0.5220
 1472SOL    HW3 5960   0.403   0.075   2.740  0.0804  0.5831  0.2391
 1472SOL    MW4 5961   0.475   0.118   2.765  0.2811  0.6148 -0.3757
 1473SOL     OW 5962   0.415   0.350   2.614  0.0777  0.1482 -0.2652
 1473SOL    HW2 5963   0.484   0.406   2.650 -1.1622  0.9402  0.9178
 1473SOL    HW3 5964   0.428   0.265   2.655  0.6462  0.1457 -0.4389
 1473SOL    MW4 5965   0.426   0.346   2.624 -0.0109  0.2524 -0.1318
 1474SOL     OW 5966   0.589   0.539   2.730  0.0926 -0.2734  0.1388
 1474SOL    HW2 5967   0.574   0.542   2.824 -1.4303  0.1393 -0.0948
 1474SOL    HW3 5968   0.675   0.497   2.720  0.5531  0.2724  1.7209
 1474SOL    MW4 5969   0.598   0.534   2.741 -0.0476 -0.1470  0.3166
 1475SOL     OW 5970   0.674   0.779   2.625 -0.3162 -0.2003 -0.5685
 1475SOL    HW2 5971   0.743   0.821   2.676 -1.6719  0.4753  0.7479
 1475SOL    HW3 5972   0.653   0.700   2.673 -0.7119 -0.2201 -0.7701
 1475SOL    MW4 5973   0.680   0.774   2.638 -0.5473 -0.1138 -0.4215
 1476SOL     OW 5974   0.484   0.918   2.752  0.0452 -0.2425  0.0473
 1476SOL    HW2 5975   0.510   1.004   2.719  0.7105  0.1418  1.5371
 1476SOL    HW3 5976   0.540   0.856   2.705  1.3546  0.3349  0.8434
 1476SOL    MW4 5977   0.495   0.921   2.741  0.3058 -0.1156  0.3488
 1477SOL     OW 5978   0.519   1.176   2.651  0.0788  0.4041 -0.3007
 1477SOL    HW2 5979   0.605   1.218   2.659 -0.0422  0.5921  0.0236
 1477SOL    HW3 5980   0.500   1.178   2.557  0.0595  1.1074 -0.2867
 1477SOL    MW4 5981   0.528   1.182   2.639  0.0603  0.5218 -0.2561
 1478SOL     OW 5982   0.732   1.346   2.729 -0.2779  0.0878 -0.4160
 1478SOL    HW2 5983   0.722   1.318   2.820 -1.5463  1.2385 -0.1840
 1478SOL    HW3 5984   0.811   1.301   2.699 -0.6141 -1.3829  0.8293
 1478SOL    MW4 5985   0.741   1.336   2.737 -0.4896  0.0458 -0.2210
 1479SOL     OW 5986   0.671   1.594   2.628 -0.3834  0.3482  0.6278
 1479SOL    HW2 5987   0.593   1.619   2.676  0.4074  0.3442  1.9226
 1479SOL    HW3 5988   0.683   1.501   2.649  0.2839  0.4884  0.8629
 1479SOL    MW4 5989   0.662   1.585   2.637 -0.1910  0.3661  0.8297
 1480SOL     OW 5990   0.443   1.679   2.738  0.3680  0.0817  0.3324
 1480SOL    HW2 5991   0.477   1.672   2.827  2.1017  2.1419 -0.1181
 1480SOL    HW3 5992   0.435   1.773   2.722 -1.9559 -0.2940 -0.9566
 1480SOL    MW4 5993   0.447   1.690   2.747  0.2902  0.3039  0.1028
 1481SOL     OW 5994   0.436   1.952   2.639 -0.2023  0.2447  0.3482
 1481SOL    HW2 5995   0.524   1.969   2.671 -0.4485  0.2185  1.0380
 1481SOL    HW3 5996   0.446   1.944   2.544  0.6832 -0.6871  0.5139
 1481SOL    MW4 5997   0.449   1.953   2.631 -0.1180  0.1184  0.4611
 1482SOL     OW 5998   0.679   2.036   2.772 -0.0681 -0.1592 -0.3851
 1482SOL    HW2 5999   0.695   2.023   2.866 -0.4808  1.8504  0.0061
 1482SOL    HW3 6000   0.764   2.025   2.731  0.8073  2.3316  0.6739
 1482SOL    MW4 6001   0.692   2.033   2.779 -0.0070  0.4344 -0.1936
 1483SOL     OW 6002   0.678   2.296   2.636  0.7229 -0.1966 -0.2325
 1483SOL    HW2 6003   0.757   2.336   2.672  0.6682 -0.4249  0.1509
 1483SOL    HW3 6004   0.663   2.219   2.691 -1.1944  1.2160  1.3059
 1483SOL    MW4 6005   0.686   2.291   2.648  0.4627 -0.0405  0.0212
 1484SOL     OW 6006   0.443   2.453   2.724  0.1926 -0.5975  0.0147
 1484SOL    HW2 6007   0.447   2.535   2.675  0.8900 -0.1219  0.8529
 1484SOL    HW3 6008   0.519   2.403   2.694  1.7514  0.5033  1.9987
 1484SOL    MW4 6009   0.454   2.457   2.714  0.4903 -0.3896  0.3867
 1485SOL     OW 6010   0.435   2.708   2.594  0.6325  0.5876 -0.3870
 1485SOL    HW2 6011   0.508   2.755   2.635  0.4823  0.1094  0.4458
 1485SOL    HW3 6012   0.357   2.741   2.639  0.4842 -0.0837 -0.1418
 1485SOL    MW4 6013   0.435   2.719   2.605  0.5932  0.4363 -0.2446
 1486SOL     OW 6014   0.637   2.825   2.721  0.2169 -0.1796 -0.6431
 1486SOL    HW2 6015   0.636   2.809   2.816  0.9167 -0.6448 -0.7099
 1486SOL    HW3 6016   0.643   2.920   2.712  3.3240 -0.3108 -0.2085
 1486SOL    MW4 6017   0.637   2.835   2.733  0.7192 -0.2584 -0.5946
 1487SOL     OW 6018   0.677   3.089   2.662 -0.4538 -0.0052  0.1896
 1487SOL    HW2 6019   0.753   3.138   2.693  0.3957 -1.6717  0.7666
 1487SOL    HW3 6020   0.681   3.097   2.566  0.2322  0.2175  0.2331
 1487SOL    MW4 6021   0.688   3.097   2.653 -0.2512 -0.1960  0.2716
 1488SOL     OW 6022   0.458   3.221   2.775  0.2061 -0.3766  0.0506
 1488SOL    HW2 6023   0.480   3.244   2.865 -0.9555 -2.4733  0.9112
 1488SOL    HW3 6024   0.535   3.175   2.742  0.0879 -0.8730  0.4613
 1488SOL    MW4 6025   0.471   3.218   2.783  0.0372 -0.7186  0.2182
 1489SOL     OW 6026   0.428   3.477   2.631 -0.0871  0.1696  0.0594
 1489SOL    HW2 6027   0.452   3.389   2.661 -0.7194 -0.4542 -1.2315
 1489SOL    HW3 6028   0.434   3.473   2.536 -1.4345  1.1287 -0.0925
 1489SOL    MW4 6029   0.432   3.465   2.622 -0.3483  0.2139 -0.1314
 1490SOL     OW 6030   0.661   3.595   2.732  0.4907 -0.0207  0.2917
 1490SOL    HW2 6031   0.663   3.587   2.828 -2.3412 -1.1965  0.3137
 1490SOL    HW3 6032   0.578   3.555   2.707  1.5712 -0.4602 -2.7631
 1490SOL    MW4 6033   0.650   3.589   2.741  0.2596 -0.2341 -0.1082
 1491SOL     OW 6034   0.674   3.862   2.648 -0.2015 -0.1599 -0.2689
 1491SOL    HW2 6035   0.605   3.910   2.695 -1.3008 -0.0407 -1.9554
 1491SOL    HW3 6036   0.672   3.774   2.688  0.2419  0.4999  1.2484
 1491SOL    MW4 6037   0.664   3.857   2.660 -0.2881 -0.0572 -0.2911
 1492SOL     OW 6038   0.456   3.980   2.773 -0.0091  0.0485  0.3481
 1492SOL    HW2 6039   0.445   4.073   2.751  0.6603  0.3281  1.1317
 1492SOL    HW3 6040   0.375   3.938   2.745 -1.1898  1.2324  1.8896
 1492SOL    MW4 6041   0.444   3.987   2.766 -0.0765  0.2415  0.6547
 1493SOL     OW 6042   0.444   4.259   2.670  0.1132  0.0238 -0.2798
 1493SOL    HW2 6043   0.526   4.300   2.698  0.2671  0.4614 -1.3451
 1493SOL    HW3 6044   0.440   4.274   2.576 -0.8779 -0.5651 -0.3464
 1493SOL    MW4 6045   0.454   4.266   2.661  0.0027  0.0038 -0.4292
 1494SOL     OW 6046   0.663   4.397   2.749  0.3137 -0.0580  0.5879
 1494SOL    HW2 6047   0.751   4.371   2.722 -0.2581 -2.3808  0.8295
 1494SOL    HW3 6048   0.653   4.486   2.716  2.3210 -0.1947 -0.4743
 1494SOL    MW4 6049   0.673   4.405   2.741  0.5032 -0.3824  0.4799
 1495SOL     OW 6050   1.090   4.611   2.634  0.1198 -0.1672  0.0411
 1495SOL    HW2 6051   1.171   4.662   2.641  0.1182 -0.0138 -0.9407
 1495SOL    HW3 6052   1.115   4.522   2.657  0.1956  0.2113  1.4339
 1495SOL    MW4 6053   1.104   4.606   2.638  0.1296 -0.0968  0.0954
 1496SOL     OW 6054   0.888   0.133   2.738 -0.1411 -0.3406 -0.0058
 1496SOL    HW2 6055   0.877   0.136   2.833 -0.9482  0.9824 -0.1348
 1496SOL    HW3 6056   0.945   0.057   2.723  1.2147  0.3125  1.6484
 1496SOL    MW4 6057   0.894   0.123   2.748 -0.0687 -0.0799  0.1953
 1497SOL     OW 6058   0.831   0.415   2.681 -0.1788 -0.0116 -0.3935
 1497SOL    HW2 6059   0.837   0.325   2.711 -0.7803  0.6238  1.7248
 1497SOL    HW3 6060   0.836   0.410   2.586  0.0720 -2.2413 -0.2700
 1497SOL    MW4 6061   0.833   0.403   2.673 -0.2251 -0.2219 -0.0975
 1498SOL     OW 6062   1.078   0.502   2.765 -0.0954  0.5827 -0.0061
 1498SOL    HW2 6063   1.088   0.588   2.725 -0.8865  0.3445 -0.7351
 1498SOL    HW3 6064   0.991   0.473   2.737  0.7659 -1.0915 -0.9936
 1498SOL    MW4 6065   1.068   0.509   2.756 -0.0863  0.3304 -0.2325
 1499SOL     OW 6066   1.123   0.761   2.671 -0.1357 -0.0770  0.1917
 1499SOL    HW2 6067   1.209   0.796   2.695 -1.5343  3.2378  0.5812
 1499SOL    HW3 6068   1.121   0.768   2.576  0.2935 -0.8020  0.1289
 1499SOL    MW4 6069   1.134   0.767   2.662 -0.2636  0.2648  0.2348
 1500SOL     OW 6070   0.905   0.900   2.756 -0.1085 -0.2192 -0.0292
 1500SOL    HW2 6071   0.890   0.881   2.849  0.0768 -0.2071  0.0037
 1500SOL    HW3 6072   0.973   0.838   2.730  0.8668  0.7444  0.2084
 1500SOL    MW4 6073   0.912   0.889   2.765  0.0446 -0.0905  0.0064
 1501SOL     OW 6074   0.945   1.189   2.664 -0.0471  0.0473 -0.3580
 1501SOL    HW2 6075   0.929   1.099   2.695  0.3567 -0.2968 -1.1360
 1501SOL    HW3 6076   0.942   1.182   2.569  1.9386  0.4986 -0.4634
 1501SOL    MW4 6077   0.943   1.176   2.655  0.2682  0.0615 -0.4747
 1502SOL     OW 6078   1.175   1.315   2.733  0.2874 -0.1245  0.6264
 1502SOL    HW2 6079   1.156   1.405   2.710  0.0125  0.1467  1.8665
 1502SOL    HW3 6080   1.096   1.266   2.710  0.7520 -0.1926 -0.8308
 1502SOL    MW4 6081   1.162   1.320   2.727  0.3123 -0.0979  0.5977
 1503SOL     OW 6082   1.126   1.589   2.650 -0.4387 -0.0768 -0.3197
 1503SOL    HW2 6083   1.046   1.630   2.683 -1.1530 -1.2299 -0.5424
 1503SOL    HW3 6084   1.121   1.599   2.555 -1.0523 -1.3851 -0.4469
 1503SOL    MW4 6085   1.115   1.596   2.642 -0.6140 -0.4016 -0.3657
 1504SOL     OW 6086   0.890   1.679   2.766 -0.4761 -0.2301 -0.1369
 1504SOL    HW2 6087   0.887   1.657   2.859 -2.1279  1.9284  0.3444
 1504SOL    HW3 6088   0.806   1.650   2.731 -0.8419  1.1144 -0.4251
 1504SOL    MW4 6089   0.879   1.672   2.774 -0.7423  0.2321 -0.1113
 1505SOL     OW 6090   0.885   1.946   2.617  0.5920  0.0591 -0.0720
 1505SOL    HW2 6091   0.964   1.980   2.659  1.2851 -2.5391  0.8473
 1505SOL    HW3 6092   0.864   1.866   2.667 -0.9828 -0.8239 -2.0652
 1505SOL    MW4 6093   0.893   1.940   2.629  0.4756 -0.4001 -0.2136
 1506SOL     OW 6094   1.110   2.049   2.734  0.6238  0.3001 -0.2676
 1506SOL    HW2 6095   1.185   2.001   2.700  0.7587  0.3850 -0.0907
 1506SOL    HW3 6096   1.122   2.139   2.702  0.1422  0.1204 -0.9647
 1506SOL    MW4 6097   1.121   2.055   2.725  0.5779  0.2875 -0.3362
 1507SOL     OW 6098   1.142   2.310   2.660  0.3140  0.4107 -0.2619
 1507SOL    HW2 6099   1.221   2.352   2.694  2.0514 -1.8287 -1.4216
 1507SOL    HW3 6100   1.140   2.333   2.567  0.8036 -1.3108 -0.7122
 1507SOL    MW4 6101   1.152   2.319   2.652  0.6078 -0.1123 -0.4745
 1508SOL     OW 6102   0.913   2.438   2.716  0.7882 -0.0584  0.1292
 1508SOL    HW2 6103   0.916   2.530   2.690  0.8620  0.2203  1.1055
 1508SOL    HW3 6104   0.991   2.399   2.677 -0.3621 -0.1951 -2.0868
 1508SOL    MW4 6105   0.923   2.445   2.707  0.6461 -0.0401 -0.0341
 1509SOL     OW 6106   0.875   2.702   2.604  0.2988 -0.5380 -0.0272
 1509SOL    HW2 6107   0.940   2.760   2.644 -0.4378 -0.4412  1.0415
 1509SOL    HW3 6108   0.791   2.738   2.632 -0.1953 -1.2265 -0.6258
 1509SOL    MW4 6109   0.873   2.715   2.613  0.1365 -0.6161  0.0348
 1510SOL     OW 6110   1.083   2.832   2.719  0.0000  0.0000  0.2157
 1510SOL    HW2 6111   1.106   2.825   2.812  0.0000  0.0000  0.2144
 1510SOL    HW3 6112   1.159   2.795   2.673  0.0000  0.0000  0.2112
 1510SOL    MW4 6113   1.096   2.826   2.725  0.0000  0.0000  0.2151
 1511SOL     OW 6114   1.148   3.096   2.643  0.0000  0.0000 -0.2497
 1511SOL    HW2 6115   1.122   3.007   2.665  0.0000  0.0000 -0.2598
 1511SOL    HW3 6116   1.136   3.101   2.548  0.0000  0.0000 -0.2498
 1511SOL    MW4 6117   1.143   3.085   2.633  0.0000  0.0000 -0.2511
 1512SOL     OW 6118   0.919   3.208   2.769  0.0000  0.0000  0.4831
 1512SOL    HW2 6119   0.903   3.287   2.717  0.0000  0.0000  0.4646
 1512SOL    HW3 6120   1.006   3.179   2.742  0.0000  0.0000  0.4985
 1512SOL    MW4 6121   0.928   3.215   2.758  0.0000  0.0000  0.4826
 1513SOL     OW 6122   0.887   3.462   2.621  0.0000  0.0000  0.2058
 1513SOL    HW2 6123   0.961   3.509   2.662  0.0000  0.0000  0.1804
 1513SOL    HW3 6124   0.810   3.512   2.649  0.0000  0.0000  0.2648
 1513SOL    MW4 6125   0.887   3.475   2.630  0.0000  0.0000  0.2103
 1514SOL     OW 6126   1.102   3.599   2.717  0.0000  0.0000 -0.4636
 1514SOL    HW2 6127   1.101   3.626   2.809  0.0000  0.0000 -0.4624
 1514SOL    HW3 6128   1.100   3.681   2.668  0.0000  0.0000 -0.4604
 1514SOL    MW4 6129   1.102   3.613   2.722  0.0000  0.0000 -0.4632
 1515SOL     OW 6130   1.098   3.851   2.621  0.0000  0.0000  0.3678
 1515SOL    HW2 6131   1.178   3.889   2.659  0.0000  0.0000  0.3665
 1515SOL    HW3 6132   1.110   3.859   2.526  0.0000  0.0000  0.3676
 1515SOL    MW4 6133   1.110   3.857   2.614  0.0000  0.0000  0.3676
 1516SOL     OW 6134   0.893   4.008   2.721  0.0000  0.0000 -0.0270
 1516SOL    HW2 6135   0.957   3.963   2.666  0.0000  0.0000 -0.0289
 1516SOL    HW3 6136   0.809   3.969   2.696  0.0000  0.0000 -0.0145
 1516SOL    MW4 6137   0.890   3.997   2.711  0.0000  0.0000 -0.0257
 1517SOL     OW 6138   0.888   4.266   2.655  0.0000  0.0000  0.1438
 1517SOL    HW2 6139   0.892   4.173   2.680  0.0000  0.0000  0.1404
 1517SOL    HW3 6140   0.884   4.265   2.560  0.0000  0.0000  0.1439
 1517SOL    MW4 6141   0.888   4.254   2.646  0.0000  0.0000  0.1433
 1518SOL     OW 6142   1.144   4.351   2.730  0.0000  0.0000 -0.0793
 1518SOL    HW2 6143   1.137   4.378   2.822  0.0000  0.0000 -0.0797
 1518SOL    HW3 6144   1.055   4.327   2.705  0.0000  0.0000 -0.0904
 1518SOL    MW4 6145   1.131   4.351   2.739  0.0000  0.0000 -0.0811
 1519SOL     OW 6146   1.596   4.637   2.604 -0.4668 -0.2411 -0.5919
 1519SOL    HW2 6147   1.583   4.546   2.629  0.6155 -0.2668 -0.0945
 1519SOL    HW3 6148   1.571   4.641   2.511  0.2605 -1.2157 -0.8298
 1519SOL    MW4 6149   1.591   4.626   2.595 -0.2280 -0.3729 -0.5577
 1520SOL     OW 6150   1.346   0.091   2.682  0.0490  0.0862 -0.6576
 1520SOL    HW2 6151   1.357   0.185   2.673 -0.4974  0.1942 -0.1945
 1520SOL    HW3 6152   1.433   0.055   2.662  0.5950  0.7701  0.4548
 1520SOL    MW4 6153   1.359   0.098   2.678  0.0490  0.1906 -0.4497
 1521SOL     OW 6154   1.317   0.390   2.647 -0.4840 -0.0806  0.0047
 1521SOL    HW2 6155   1.400   0.435   2.665 -1.1684  1.6891 -1.0627
 1521SOL    HW3 6156   1.252   0.439   2.697 -1.0652 -0.7220 -0.1155
 1521SOL    MW4 6157   1.319   0.403   2.656 -0.6509  0.0682 -0.1521
 1522SOL     OW 6158   1.580   0.478   2.686 -0.2298  0.4775  0.0249
 1522SOL    HW2 6159   1.654   0.430   2.650 -1.1077  0.3100 -1.5750
 1522SOL    HW3 6160   1.602   0.570   2.672 -0.5477  0.4141 -0.9142
 1522SOL    MW4 6161   1.593   0.484   2.680 -0.3874  0.4470 -0.3102
 1523SOL     OW 6162   1.604   0.739   2.642 -0.5125 -0.1389  0.6804
 1523SOL    HW2 6163   1.529   0.785   2.680  0.4333  1.2910  0.8697
 1523SOL    HW3 6164   1.595   0.753   2.547  0.0916  0.9690  0.7759
 1523SOL    MW4 6165   1.593   0.747   2.634 -0.3080  0.1959  0.7179
 1524SOL     OW 6166   1.388   0.889   2.714 -0.3299  0.5112  0.0537
 1524SOL    HW2 6167   1.375   0.893   2.809 -0.6988 -1.1813  0.0888
 1524SOL    HW3 6168   1.382   0.980   2.686 -1.3418  0.9202  1.5083
 1524SOL    MW4 6169   1.385   0.901   2.723 -0.5120  0.3418  0.2501
 1525SOL     OW 6170   1.377   1.152   2.629  0.3451 -0.2324  0.1736
 1525SOL    HW2 6171   1.452   1.202   2.660  0.2841 -0.2361  0.3305
 1525SOL    HW3 6172   1.302   1.195   2.670  0.2088  0.1635 -0.4938
 1525SOL    MW4 6173   1.377   1.164   2.639  0.3191 -0.1807  0.1066
 1526SOL     OW 6174   1.624   1.278   2.716 -0.0525 -0.0551  0.2337
 1526SOL    HW2 6175   1.615   1.276   2.811 -1.1667 -2.1187  0.1137
 1526SOL    HW3 6176   1.695   1.216   2.697 -2.4196 -2.6646 -0.4884
 1526SOL    MW4 6177   1.632   1.269   2.726 -0.5118 -0.6717  0.1225
 1527SOL     OW 6178   1.567   1.536   2.617 -0.2751  0.2454 -0.3660
 1527SOL    HW2 6179   1.597   1.451   2.649 -1.3831 -0.2560 -0.6540
 1527SOL    HW3 6180   1.556   1.523   2.522  0.5729  1.0139 -0.5842
 1527SOL    MW4 6181   1.570   1.523   2.609 -0.3093  0.2807 -0.4327
 1528SOL     OW 6182   1.368   1.680   2.745  0.1997  0.2075 -0.0500
 1528SOL    HW2 6183   1.435   1.636   2.692 -0.4619 -0.6101 -0.1989
 1528SOL    HW3 6184   1.285   1.654   2.706 -0.2592  0.2958  0.8624
 1528SOL    MW4 6185   1.366   1.671   2.733  0.0520  0.1112  0.0510
 1529SOL     OW 6186   1.359   1.946   2.657 -0.0250 -0.0766 -0.1413
 1529SOL    HW2 6187   1.359   1.858   2.695  1.8584  0.5909  1.4905
 1529SOL    HW3 6188   1.368   1.932   2.563  1.0852 -1.6116  0.1823
 1529SOL    MW4 6189   1.360   1.933   2.649  0.3700 -0.1911  0.1166
 1530SOL     OW 6190   1.570   2.098   2.734 -0.1503  0.1704  0.1826
 1530SOL    HW2 6191   1.642   2.040   2.708  1.1139  2.4242 -1.5045
 1530SOL    HW3 6192   1.494   2.061   2.690  0.3587 -1.0322  0.2808
 1530SOL    MW4 6193   1.570   2.086   2.725  0.0836  0.3090 -0.0269
 1531SOL     OW 6194   1.600   2.359   2.649 -0.2797  0.3630  0.1414
 1531SOL    HW2 6195   1.683   2.397   2.675  0.6508 -0.4197 -1.6406
 1531SOL    HW3 6196   1.599   2.273   2.692 -0.2925  0.4802  0.3767
 1531SOL    MW4 6197   1.611   2.352   2.658 -0.1585  0.2754 -0.0627
 1532SOL     OW 6198   1.350   2.471   2.716  0.4333 -0.3525 -0.6401
 1532SOL    HW2 6199   1.344   2.562   2.686  0.6721 -0.3682 -0.7372
 1532SOL    HW3 6200   1.440   2.445   2.696  0.2843 -0.7004 -0.8643
 1532SOL    MW4 6201   1.361   2.480   2.710  0.4452 -0.4005 -0.6824
 1533SOL     OW 6202   1.328   2.732   2.615  0.2617 -0.3844  0.3439
 1533SOL    HW2 6203   1.402   2.780   2.653 -0.2508  1.0960 -0.4967
 1533SOL    HW3 6204   1.344   2.734   2.521 -0.1688 -1.2129  0.2480
 1533SOL    MW4 6205   1.340   2.739   2.607  0.1374 -0.2983  0.2203
 1534SOL     OW 6206   1.545   2.838   2.746  0.0537 -0.1147 -0.3599
 1534SOL    HW2 6207   1.549   2.835   2.841 -0.0721  1.2480 -0.3002
 1534SOL    HW3 6208   1.630   2.806   2.717  0.3345  0.1104  0.2214
 1534SOL    MW4 6209   1.556   2.833   2.754  0.0741  0.0949 -0.2754
 1535SOL     OW 6210   1.578   3.079   2.628  0.1372 -0.0249 -0.1340
 1535SOL    HW2 6211   1.654   3.110   2.676  0.6874 -0.4377 -0.7311
 1535SOL    HW3 6212   1.555   2.995   2.669  0.7144 -0.4636 -0.6873
 1535SOL    MW4 6213   1.585   3.072   2.640  0.2860 -0.1369 -0.2856
 1536SOL     OW 6214   1.374   3.225   2.727  0.3072  0.1117 -0.3079
 1536SOL    HW2 6215   1.452   3.178   2.698 -0.0908 -0.5878 -0.2517
 1536SOL    HW3 6216   1.301   3.170   2.700 -0.0532 -1.0700  2.8365
 1536SOL    MW4 6217   1.374   3.212   2.720  0.2071 -0.1366  0.1144
 1537SOL     OW 6218   1.336   3.487   2.619  0.5196  0.2483 -0.2252
 1537SOL    HW2 6219   1.342   3.405   2.668  0.4327  0.3828  0.0118
 1537SOL    HW3 6220   1.260   3.532   2.656  0.3445  0.2661 -0.6124
 1537SOL    MW4 6221   1.327   3.482   2.631  0.4849  0.2685 -0.2453
 1538SOL     OW 6222   1.553   3.611   2.744  0.7545  0.2375  0.0675
 1538SOL    HW2 6223   1.621   3.554   2.706 -0.3368 -2.0690  1.4683
 1538SOL    HW3 6224   1.471   3.567   2.723  0.0031  0.1096  3.1002
 1538SOL    MW4 6225   1.551   3.597   2.736  0.5115 -0.0842  0.6528
 1539SOL     OW 6226   1.575   3.853   2.637  0.6778 -0.1514  0.6876
 1539SOL    HW2 6227   1.487   3.889   2.651  0.5617 -0.1679  0.0314
 1539SOL    HW3 6228   1.575   3.770   2.685  0.5404  0.1488  1.1987
 1539SOL    MW4 6229   1.563   3.847   2.645  0.6446 -0.1140  0.6683
 1540SOL     OW 6230   1.339   3.969   2.700  0.1458 -0.0816 -0.2946
 1540SOL    HW2 6231   1.352   3.982   2.794 -1.7563  0.5151 -0.0974
 1540SOL    HW3 6232   1.366   4.053   2.661  1.1194 -0.3936 -0.3220
 1540SOL    MW4 6233   1.345   3.982   2.708  0.0234 -0.0441 -0.2720
 1541SOL     OW 6234   1.373   4.234   2.606 -0.5235 -0.4310  0.3193
 1541SOL    HW2 6235   1.290   4.252   2.650 -1.1975 -0.9328 -0.7080
 1541SOL    HW3 6236   1.350   4.227   2.513  0.7326 -0.1949 -0.0248
 1541SOL    MW4 6237   1.359   4.236   2.599 -0.4467 -0.4663  0.1383
 1542SOL     OW 6238   1.596   4.376   2.679  0.3150 -0.2268 -0.0089
 1542SOL    HW2 6239   1.597   4.355   2.772  1.2215 -1.3616 -0.2639
 1542SOL    HW3 6240   1.521   4.327   2.645 -0.1239  0.3269  0.1393
 1542SOL    MW4 6241   1.586   4.367   2.687  0.3768 -0.3033 -0.0229
 1543SOL     OW 6242   2.064   4.630   2.596  0.3226  0.1749  0.5164
 1543SOL    HW2 6243   2.131   4.688   2.630  0.4796  0.1562  0.2376
 1543SOL    HW3 6244   2.072   4.635   2.500  2.0782 -2.2922  0.4801
 1543SOL    MW4 6245   2.074   4.638   2.588  0.5746 -0.1521  0.4749
 1544SOL     OW 6246   1.847   0.103   2.675 -0.2711  0.0459 -0.1136
 1544SOL    HW2 6247   1.920   0.059   2.632  0.3859  0.4877  0.5514
 1544SOL    HW3 6248   1.770   0.052   2.649  0.0646  0.5082 -2.0687
 1544SOL    MW4 6249   1.846   0.090   2.666 -0.1401  0.1652 -0.2840
 1545SOL     OW 6250   1.851   0.373   2.583  0.0419  0.1332  0.1320
 1545SOL    HW2 6251   1.920   0.418   2.632  1.0558 -1.1160 -0.1270
 1545SOL    HW3 6252   1.859   0.281   2.609  1.7824 -0.8743 -3.6925
 1545SOL    MW4 6253   1.861   0.367   2.593  0.4053 -0.1646 -0.4067
 1546SOL     OW 6254   2.043   0.487   2.744  0.0967 -0.1141 -0.2270
 1546SOL    HW2 6255   2.107   0.426   2.707  0.3179  0.8172 -1.4118
 1546SOL    HW3 6256   2.049   0.565   2.689 -0.4682  0.8411  1.0309
 1546SOL    MW4 6257   2.052   0.489   2.732  0.0513  0.1348 -0.2174
 1547SOL     OW 6258   2.050   0.720   2.617  0.0631 -0.0911 -0.3094
 1547SOL    HW2 6259   1.977   0.760   2.665  1.1923 -0.0345  1.3905
 1547SOL    HW3 6260   2.036   0.747   2.526 -2.7434 -1.1215 -0.2371
 1547SOL    MW4 6261   2.039   0.729   2.611 -0.1583 -0.2196 -0.0753
 1548SOL     OW 6262   1.838   0.841   2.738 -0.4301  0.0230 -0.5566
 1548SOL    HW2 6263   1.849   0.932   2.710 -0.0887 -0.1988 -1.1663
 1548SOL    HW3 6264   1.756   0.813   2.696 -0.8656  0.2334  0.1378
 1548SOL    MW4 6265   1.828   0.849   2.729 -0.4425  0.0215 -0.5453
 1549SOL     OW 6266   1.844   1.107   2.639  0.6185 -0.2565 -1.0725
 1549SOL    HW2 6267   1.920   1.157   2.667  1.0317 -0.7339 -1.3412
 1549SOL    HW3 6268   1.843   1.114   2.544  0.4167 -0.3806 -1.0818
 1549SOL    MW4 6269   1.854   1.114   2.630  0.6464 -0.3358 -1.1091
 1550SOL     OW 6270   2.041   1.300   2.714  0.0091 -0.7639  0.1683
 1550SOL    HW2 6271   2.040   1.306   2.810 -1.2140  0.7033  0.0802
 1550SOL    HW3 6272   2.132   1.279   2.693  0.8041  1.1726  1.5427
 1550SOL    MW4 6273   2.053   1.298   2.724 -0.0474 -0.3151  0.3378
 1551SOL     OW 6274   2.015   1.555   2.589  0.4843 -0.5462  0.5844
 1551SOL    HW2 6275   1.937   1.598   2.625  0.3729  0.5828 -0.9877
 1551SOL    HW3 6276   2.013   1.467   2.627 -1.1385 -0.2836  1.1543
 1551SOL    MW4 6277   2.005   1.549   2.599  0.2558 -0.3625  0.4520
 1552SOL     OW 6278   1.791   1.654   2.725  0.0698 -0.0098 -0.1081
 1552SOL    HW2 6279   1.778   1.661   2.820 -0.0060 -0.8138 -0.0617
 1552SOL    HW3 6280   1.714   1.606   2.694  0.3931 -0.2711 -0.5006
 1552SOL    MW4 6281   1.779   1.649   2.734  0.1025 -0.1504 -0.1538
 1553SOL     OW 6282   1.772   1.938   2.628 -0.2062  0.6028  0.3424
 1553SOL    HW2 6283   1.854   1.982   2.650 -1.0634  1.1523  2.5747
 1553SOL    HW3 6284   1.777   1.854   2.674 -0.9768  0.7212  0.6387
 1553SOL    MW4 6285   1.784   1.933   2.637 -0.4209  0.6908  0.6762
 1554SOL     OW 6286   1.989   2.063   2.716  0.5264 -0.3306  0.5381
 1554SOL    HW2 6287   1.991   2.068   2.811 -0.6477 -0.3205  0.5645
 1554SOL    HW3 6288   1.992   2.155   2.687  2.0101 -0.3702  0.5330
 1554SOL    MW4 6289   1.990   2.076   2.724  0.5673 -0.3347  0.5410
 1555SOL     OW 6290   1.991   2.319   2.640  0.0487  0.4309 -0.3767
 1555SOL    HW2 6291   2.075   2.353   2.670 -0.6862  2.1247 -0.1796
 1555SOL    HW3 6292   1.994   2.326   2.545 -0.2029  1.3301 -0.3233
 1555SOL    MW4 6293   2.002   2.325   2.631 -0.0813  0.7732 -0.3436
 1556SOL     OW 6294   1.817   2.492   2.753 -0.4122 -0.2781 -0.4760
 1556SOL    HW2 6295   1.812   2.504   2.848  1.2797  1.2574 -0.5613
 1556SOL    HW3 6296   1.883   2.424   2.741 -1.2599 -1.1077 -0.5397
 1556SOL    MW4 6297   1.825   2.485   2.764 -0.3009 -0.1848 -0.4957
 1557SOL     OW 6298   1.809   2.741   2.635  0.2969  0.0050  0.3771
 1557SOL    HW2 6299   1.815   2.649   2.661 -2.2493  0.0689  1.3020
 1557SOL    HW3 6300   1.811   2.739   2.540  1.9288 -0.8632  0.4136
 1557SOL    MW4 6301   1.810   2.729   2.626  0.1762 -0.1009  0.5038
 1558SOL     OW 6302   2.024   2.847   2.776 -0.2263  0.1281 -0.0483
 1558SOL    HW2 6303   2.102   2.799   2.751 -0.7214 -0.0976 -1.1940
 1558SOL    HW3 6304   1.954   2.810   2.722 -0.8009  1.4462 -0.2405
 1558SOL    MW4 6305   2.025   2.836   2.765 -0.3676  0.2725 -0.2251
 1559SOL     OW 6306   2.016   3.095   2.667  0.1040 -0.2132 -0.0357
 1559SOL    HW2 6307   2.015   3.006   2.701 -1.5766  0.1835  1.0204
 1559SOL    HW3 6308   2.011   3.085   2.572  1.0752 -1.2695  0.0256
 1559SOL    MW4 6309   2.015   3.082   2.659  0.0103 -0.2999  0.1121
 1560SOL     OW 6310   1.771   3.194   2.776 -0.0926  0.3180 -0.3310
 1560SOL    HW2 6311   1.777   3.286   2.749 -1.2024  0.8403  1.1278
 1560SOL    HW3 6312   1.849   3.153   2.739  1.0020  2.0940 -0.0632
 1560SOL    MW4 6313   1.782   3.201   2.768 -0.0945  0.6213 -0.1030
 1561SOL     OW 6314   1.778   3.451   2.658 -0.0985 -0.0344  0.0941
 1561SOL    HW2 6315   1.856   3.503   2.677 -0.4043  0.8596 -1.0051
 1561SOL    HW3 6316   1.781   3.437   2.563 -1.3140  0.0728  0.0324
 1561SOL    MW4 6317   1.789   3.456   2.648 -0.2992  0.0975 -0.0591
 1562SOL     OW 6318   2.005   3.623   2.723  0.2544  0.0626 -0.2651
 1562SOL    HW2 6319   2.018   3.631   2.818 -0.6048 -1.4067 -0.0056
 1562SOL    HW3 6320   2.084   3.579   2.692  0.2590 -0.0289 -0.1270
 1562SOL    MW4 6321   2.017   3.618   2.732  0.1416 -0.1433 -0.2127
 1563SOL     OW 6322   2.023   3.861   2.611  0.0596  0.1362  0.2962
 1563SOL    HW2 6323   1.942   3.903   2.639  0.7275  1.6811 -0.0492
 1563SOL    HW3 6324   2.016   3.772   2.645 -1.0837  0.6983  1.6219
 1563SOL    MW4 6325   2.012   3.855   2.619 -0.0031  0.4141  0.4256
 1564SOL     OW 6326   1.803   3.989   2.729 -0.4828 -0.6499 -0.0676
 1564SOL    HW2 6327   1.805   4.080   2.699 -0.2729 -0.4573  0.5120
 1564SOL    HW3 6328   1.715   3.958   2.707 -0.5319 -0.3293 -0.3332
 1564SOL    MW4 6329   1.792   3.997   2.722 -0.4616 -0.5822 -0.0262
 1565SOL     OW 6330   1.834   4.244   2.616 -0.0305 -0.5803 -0.0880
 1565SOL    HW2 6331   1.765   4.302   2.648 -0.0816 -1.2863  1.1238
 1565SOL    HW3 6332   1.822   4.242   2.521 -2.0082 -1.0922  0.1570
 1565SOL    MW4 6333   1.823   4.251   2.608 -0.2981 -0.7405  0.1042
 1566SOL     OW 6334   2.042   4.401   2.741  0.2247  0.1368 -0.2727
 1566SOL    HW2 6335   1.981   4.350   2.688 -0.0762  0.7736 -0.5536
 1566SOL    HW3 6336   2.039   4.489   2.702  0.7307  0.3650  0.1985
 1566SOL    MW4 6337   2.033   4.406   2.729  0.2518  0.2508 -0.2477
 1567SOL     OW 6338   2.515   4.613   2.633 -0.2164 -0.0875 -0.2088
 1567SOL    HW2 6339   2.577   4.678   2.666 -0.1577 -0.3271  0.1529
 1567SOL    HW3 6340   2.514   4.626   2.538 -0.0075  0.2658 -0.1598
 1567SOL    MW4 6341   2.523   4.623   2.625 -0.1814 -0.0725 -0.1545
 1568SOL     OW 6342   2.284   0.097   2.726  0.4494  0.0107 -0.2624
 1568SOL    HW2 6343   2.275   0.087   2.821 -0.8056 -1.6227 -0.5390
 1568SOL    HW3 6344   2.362   0.046   2.703  0.5682  0.1462 -0.1662
 1568SOL    MW4 6345   2.293   0.089   2.736  0.2997 -0.1869 -0.2861
 1569SOL     OW 6346   2.298   0.387   2.629  0.4066 -0.1321 -0.0233
 1569SOL    HW2 6347   2.328   0.297   2.646  1.2463  0.2317  0.4486
 1569SOL    HW3 6348   2.297   0.394   2.534  1.4423 -0.2788 -0.0482
 1569SOL    MW4 6349   2.302   0.376   2.619  0.6542 -0.1035  0.0358
 1570SOL     OW 6350   2.496   0.559   2.743  0.0437  0.3253  0.1557
 1570SOL    HW2 6351   2.495   0.650   2.711  0.3698 -0.3610 -1.8482
 1570SOL    HW3 6352   2.412   0.523   2.713  0.3751 -0.3430  0.0379
 1570SOL    MW4 6353   2.485   0.567   2.735  0.1304  0.1466 -0.1242
 1571SOL     OW 6354   2.470   0.809   2.618  0.1669  0.0064  0.3212
 1571SOL    HW2 6355   2.384   0.842   2.645 -0.8589 -1.6753 -0.7888
 1571SOL    HW3 6356   2.465   0.803   2.522  1.6608  0.2514  0.2102
 1571SOL    MW4 6357   2.458   0.813   2.609  0.2289 -0.1832  0.1602
 1572SOL     OW 6358   2.247   0.910   2.708  0.2905 -0.1273 -0.1633
 1572SOL    HW2 6359   2.268   0.900   2.801  0.5805  1.3597 -0.0496
 1572SOL    HW3 6360   2.177   0.848   2.693  1.2312 -1.4281  0.7069
 1572SOL    MW4 6361   2.241   0.901   2.719  0.4530 -0.1028 -0.0334
 1573SOL     OW 6362   2.277   1.197   2.619 -0.1762  0.3571 -0.1276
 1573SOL    HW2 6363   2.276   1.105   2.643 -1.1854  0.4952  0.3837
 1573SOL    HW3 6364   2.273   1.197   2.523 -0.4574 -0.1308 -0.1192
 1573SOL    MW4 6365   2.276   1.185   2.610 -0.3462  0.3109 -0.0589
 1574SOL     OW 6366   2.511   1.305   2.747  0.4871  0.1664  0.0799
 1574SOL    HW2 6367   2.586   1.254   2.715 -0.1907  0.1710 -1.5885
 1574SOL    HW3 6368   2.435   1.259   2.711 -0.3050  0.3662  1.4672
 1574SOL    MW4 6369   2.511   1.292   2.738  0.2930  0.1935  0.0427
 1575SOL     OW 6370   2.510   1.569   2.653  0.0948 -0.3028 -0.1589
 1575SOL    HW2 6371   2.419   1.591   2.672  0.4512  0.2991  0.8682
 1575SOL    HW3 6372   2.518   1.478   2.679 -0.3728 -0.5461 -0.8388
 1575SOL    MW4 6373   2.499   1.560   2.659  0.0801 -0.2556 -0.1132
 1576SOL     OW 6374   2.250   1.649   2.673 -0.4489 -0.2530  0.7543
 1576SOL    HW2 6375   2.246   1.744   2.661 -0.2653 -0.4487 -0.9929
 1576SOL    HW3 6376   2.167   1.617   2.637  0.0989 -0.8734  0.0369
 1576SOL    MW4 6377   2.238   1.658   2.667 -0.3524 -0.3607  0.4289
 1577SOL     OW 6378   2.233   1.940   2.618 -0.0552 -0.2135  0.2931
 1577SOL    HW2 6379   2.151   1.986   2.637  0.5299  0.4388  1.2859
 1577SOL    HW3 6380   2.245   1.950   2.524 -0.4210  0.8764  0.3595
 1577SOL    MW4 6381   2.224   1.948   2.608 -0.0260  0.0162  0.4327
 1578SOL     OW 6382   2.493   2.061   2.691 -0.6721  0.1130  0.3392
 1578SOL    HW2 6383   2.478   2.154   2.674  0.5055  0.1704 -0.4210
 1578SOL    HW3 6384   2.408   2.020   2.677 -1.0307  0.9743 -0.0307
 1578SOL    MW4 6385   2.480   2.068   2.687 -0.5639  0.2341  0.1903
 1579SOL     OW 6386   2.472   2.333   2.631  0.0041 -0.0757  0.4600
 1579SOL    HW2 6387   2.554   2.376   2.655  0.5681 -1.4753  1.0878
 1579SOL    HW3 6388   2.477   2.322   2.536  0.3474  0.2380  0.4427
 1579SOL    MW4 6389   2.484   2.337   2.621  0.1237 -0.2186  0.5403
 1580SOL     OW 6390   2.233   2.435   2.739  0.0881  0.6267  0.2679
 1580SOL    HW2 6391   2.251   2.443   2.833  0.7770 -1.5370  0.3499
 1580SOL    HW3 6392   2.311   2.391   2.704 -0.7609  0.1768 -1.0779
 1580SOL    MW4 6393   2.246   2.430   2.747  0.0668  0.2818  0.1013
 1581SOL     OW 6394   2.249   2.707   2.641 -0.2497 -0.3695 -0.1195
 1581SOL    HW2 6395   2.323   2.757   2.676  0.1655 -0.6139 -0.6515
 1581SOL    HW3 6396   2.246   2.627   2.694 -0.6821  0.0350  0.4830
 1581SOL    MW4 6397   2.258   2.703   2.652 -0.2520 -0.3486 -0.1104
 1582SOL     OW 6398   2.469   2.866   2.753  0.2512  0.2108  0.5904
 1582SOL    HW2 6399   2.556   2.843   2.723  0.1653  1.1275 -0.3859
 1582SOL    HW3 6400   2.465   2.962   2.746 -0.0833  0.3719  2.6625
 1582SOL    MW4 6401   2.480   2.876   2.748  0.1957  0.3533  0.7346
 1583SOL     OW 6402   2.468   3.119   2.665 -0.2383 -0.4076 -0.0988
 1583SOL    HW2 6403   2.384   3.157   2.691 -0.0951  2.2628 -3.1390
 1583SOL    HW3 6404   2.467   3.123   2.569  3.0826 -0.9453 -0.2188
 1583SOL    MW4 6405   2.457   3.124   2.656  0.2189 -0.1264 -0.5157
 1584SOL     OW 6406   2.236   3.256   2.760 -0.3999 -0.0156  0.5507
 1584SOL    HW2 6407   2.245   3.250   2.855 -2.2432  0.9467  0.8094
 1584SOL    HW3 6408   2.163   3.198   2.738  0.4736 -0.7772 -0.3656
 1584SOL    MW4 6409   2.227   3.248   2.770 -0.5279  0.0110  0.4640
 1585SOL     OW 6410   2.231   3.510   2.639  0.6506  0.3737 -0.0547
 1585SOL    HW2 6411   2.313   3.552   2.663 -0.4596  2.0006  1.0056
 1585SOL    HW3 6412   2.234   3.425   2.682  2.0749  0.1299 -0.6004
 1585SOL    MW4 6413   2.242   3.505   2.648  0.6921  0.5562  0.0134
 1586SOL     OW 6414   2.456   3.643   2.719  0.2003 -0.4089  0.8429
 1586SOL    HW2 6415   2.473   3.651   2.813 -1.0407  1.2807  0.9420
 1586SOL    HW3 6416   2.446   3.733   2.689 -1.1627 -1.0252 -0.5926
 1586SOL    MW4 6417   2.457   3.656   2.727 -0.1431 -0.2675  0.6666
 1587SOL     OW 6418   2.487   3.908   2.602 -0.1607 -0.4748 -0.1618
 1587SOL    HW2 6419   2.560   3.950   2.649  0.3140 -0.4104 -0.9500
 1587SOL    HW3 6420   2.409   3.945   2.642  0.2345 -0.5302  0.6875
 1587SOL    MW4 6421   2.487   3.918   2.614 -0.0460 -0.4735 -0.1538
 1588SOL     OW 6422   2.255   3.989   2.724 -0.2354  0.0152 -0.6238
 1588SOL    HW2 6423   2.237   3.994   2.818 -0.3515  0.7969 -0.6842
 1588SOL    HW3 6424   2.177   3.947   2.687 -0.0148 -0.6656 -0.3228
 1588SOL    MW4 6425   2.242   3.984   2.732 -0.2217  0.0284 -0.5920
 1589SOL     OW 6426   2.261   4.270   2.608  0.1599 -0.4927 -0.3628
 1589SOL    HW2 6427   2.249   4.179   2.636 -1.0773 -0.4116 -0.6003
 1589SOL    HW3 6428   2.197   4.320   2.658  1.1456  0.3208  0.0983
 1589SOL    MW4 6429   2.251   4.265   2.618  0.1268 -0.3748 -0.3333
 1590SOL     OW 6430   2.526   4.363   2.724  0.3202 -0.3205  0.2376
 1590SOL    HW2 6431   2.446   4.321   2.693  1.1293 -0.5288 -1.6324
 1590SOL    HW3 6432   2.520   4.453   2.692  1.0401 -0.4695 -0.3476
 1590SOL    MW4 6433   2.515   4.370   2.715  0.5219 -0.3676 -0.0861
 1591SOL     OW 6434   2.932   0.031   2.643  0.1007  0.0322  0.2825
 1591SOL    HW2 6435   3.015   0.072   2.667  0.0500  0.3710 -0.1307
 1591SOL    HW3 6436   2.928   0.037   2.548 -0.2366 -0.2980  0.2732
 1591SOL    MW4 6437   2.943   0.037   2.634  0.0496  0.0333  0.2270
 1592SOL     OW 6438   2.703   0.141   2.748 -0.3393 -0.1484  0.0453
 1592SOL    HW2 6439   2.718   0.144   2.842 -0.4853  0.5170  0.0492
 1592SOL    HW3 6440   2.790   0.129   2.710 -0.0009  1.7483  0.1623
 1592SOL    MW4 6441   2.717   0.140   2.755 -0.3138  0.1896  0.0613
 1593SOL     OW 6442   2.674   0.389   2.603  0.3042 -0.3442 -0.1508
 1593SOL    HW2 6443   2.662   0.311   2.657  1.9293  0.1648  1.0060
 1593SOL    HW3 6444   2.629   0.458   2.651  0.7838 -0.1295  0.0011
 1593SOL    MW4 6445   2.667   0.387   2.617  0.5820 -0.2487  0.0219
 1594SOL     OW 6446   2.905   0.535   2.711  0.1913  0.4855  0.1182
 1594SOL    HW2 6447   2.902   0.619   2.666 -0.9707  0.3642 -0.0408
 1594SOL    HW3 6448   2.831   0.486   2.676  0.9854 -0.6851  0.0502
 1594SOL    MW4 6449   2.895   0.540   2.701  0.1428  0.3150  0.0880
 1595SOL     OW 6450   2.942   0.796   2.585 -0.4555  0.0504  0.5531
 1595SOL    HW2 6451   3.019   0.812   2.640 -0.3712  0.3900  0.3405
 1595SOL    HW3 6452   2.878   0.860   2.616 -0.8671 -0.6445  1.1441
 1595SOL    MW4 6453   2.944   0.807   2.596 -0.4985  0.0035  0.6030
 1596SOL     OW 6454   2.719   0.935   2.695  0.1793 -0.7528  0.0681
 1596SOL    HW2 6455   2.726   0.927   2.790 -1.8036 -1.0796  0.2075
 1596SOL    HW3 6456   2.631   0.903   2.675 -0.7370  2.5607 -1.4910
 1596SOL    MW4 6457   2.709   0.930   2.705 -0.2031 -0.3588 -0.1190
 1597SOL     OW 6458   2.718   1.194   2.597  0.2038 -0.3153 -0.6748
 1597SOL    HW2 6459   2.804   1.237   2.603 -0.3096  0.4279  1.7161
 1597SOL    HW3 6460   2.731   1.109   2.639 -0.4952  0.2598  0.7380
 1597SOL    MW4 6461   2.731   1.188   2.603  0.0436 -0.1413 -0.1729
 1598SOL     OW 6462   2.989   1.304   2.672  0.0005  0.4146  0.2822
 1598SOL    HW2 6463   2.960   1.298   2.763  0.0993 -0.2324  0.2776
 1598SOL    HW3 6464   3.074   1.260   2.671  0.7013  1.7427  0.1746
 1598SOL    MW4 6465   2.997   1.297   2.684  0.1059  0.5044  0.2673
 1599SOL     OW 6466   2.982   1.574   2.643 -0.5088 -0.2039  0.2969
 1599SOL    HW2 6467   2.906   1.609   2.690 -0.4489  0.4028 -0.0529
 1599SOL    HW3 6468   2.986   1.481   2.669 -1.4573 -0.2741  0.1917
 1599SOL    MW4 6469   2.972   1.566   2.653 -0.6258 -0.1329  0.2370
 1600SOL     OW 6470   2.742   1.698   2.754 -0.3341 -0.0130 -0.1902
 1600SOL    HW2 6471   2.740   1.684   2.849  0.1906 -1.2066 -0.3439
 1600SOL    HW3 6472   2.661   1.659   2.722 -0.5635  0.4879 -0.2275
 1600SOL    MW4 6473   2.731   1.691   2.763 -0.2952 -0.1043 -0.2153
 1601SOL     OW 6474   2.740   1.975   2.583  0.0580 -0.5857  0.0242
 1601SOL    HW2 6475   2.741   1.881   2.598 -1.7353 -0.6858 -0.3462
 1601SOL    HW3 6476   2.666   2.007   2.635  0.4450  0.5768 -0.1147
 1601SOL    MW4 6477   2.730   1.967   2.592 -0.1276 -0.4455 -0.0429
 1602SOL     OW 6478   2.901   2.054   2.781 -0.2833 -0.0508  0.0837
 1602SOL    HW2 6479   2.899   2.149   2.767 -0.1918 -0.2199 -1.1380
 1602SOL    HW3 6480   2.838   2.019   2.719 -0.7766 -0.7522  0.9724
 1602SOL    MW4 6481   2.893   2.062   2.771 -0.3362 -0.1657  0.0398
 1603SOL     OW 6482   2.906   2.316   2.694 -0.1022 -0.2057 -0.4787
 1603SOL    HW2 6483   2.980   2.372   2.715 -0.7282  0.5806 -0.3492
 1603SOL    HW3 6484   2.829   2.366   2.722 -0.5871 -1.7570  1.0310
 1603SOL    MW4 6485   2.906   2.330   2.700 -0.2489 -0.3064 -0.2623
 1604SOL     OW 6486   2.690   2.470   2.735 -0.0946 -0.2988 -0.3722
 1604SOL    HW2 6487   2.668   2.477   2.828 -0.3299  0.9951 -0.5226
 1604SOL    HW3 6488   2.700   2.560   2.705 -0.5514 -0.6842 -1.7326
 1604SOL    MW4 6489   2.688   2.483   2.744 -0.1860 -0.1788 -0.5715
 1605SOL     OW 6490   2.711   2.751   2.671 -0.2088 -0.1163 -0.0163
 1605SOL    HW2 6491   2.798   2.780   2.699 -1.2235  1.7530  1.2685
 1605SOL    HW3 6492   2.716   2.753   2.575  0.5627  1.8322  0.0481
 1605SOL    MW4 6493   2.723   2.755   2.662 -0.2410  0.3874  0.1616
 1606SOL     OW 6494   2.945   2.833   2.764  0.5213  0.0478  0.1094
 1606SOL    HW2 6495   2.932   2.832   2.859 -0.0890 -1.1584  0.0268
 1606SOL    HW3 6496   2.943   2.926   2.741  1.2683  0.3826  1.3467
 1606SOL    MW4 6497   2.943   2.845   2.773  0.5393 -0.0675  0.2620
 1607SOL     OW 6498   2.954   3.097   2.681 -0.4435 -0.4151 -0.0708
 1607SOL    HW2 6499   2.873   3.146   2.690  0.5863  1.1923  0.7772
 1607SOL    HW3 6500   2.972   3.098   2.587 -0.3894  0.9495 -0.0570
 1607SOL    MW4 6501   2.946   3.104   2.670 -0.3006 -0.0231  0.0429
 1608SOL     OW 6502   2.716   3.233   2.732 -0.7041 -0.1656 -0.2332
 1608SOL    HW2 6503   2.714   3.319   2.690  0.8005  1.6487  3.2661
 1608SOL    HW3 6504   2.629   3.196   2.714 -1.1489  1.7421 -2.3447
 1608SOL    MW4 6505   2.704   3.239   2.724 -0.5641  0.3254 -0.0501
 1609SOL     OW 6506   2.681   3.493   2.643  0.4324  0.0416 -0.2615
 1609SOL    HW2 6507   2.610   3.544   2.682  0.7053  0.0025  0.3019
 1609SOL    HW3 6508   2.676   3.510   2.549 -1.8575 -1.8470 -0.5407
 1609SOL    MW4 6509   2.671   3.502   2.636  0.1662 -0.2129 -0.2244
 1610SOL     OW 6510   2.937   3.588   2.750 -0.3385 -0.0451 -0.0455
 1610SOL    HW2 6511   2.934   3.612   2.842 -1.8706 -0.2667 -0.0252
 1610SOL    HW3 6512   2.846   3.570   2.727 -0.0226  0.3935 -1.7033
 1610SOL    MW4 6513   2.924   3.589   2.759 -0.4990 -0.0167 -0.2615
 1611SOL     OW 6514   2.918   3.842   2.615 -0.0302 -0.4055 -0.0133
 1611SOL    HW2 6515   2.981   3.899   2.659 -0.2746 -0.5310  0.5077
 1611SOL    HW3 6516   2.930   3.757   2.657 -0.4794 -0.4529  0.0226
 1611SOL    MW4 6517   2.928   3.838   2.626 -0.1216 -0.4287  0.0603
 1612SOL     OW 6518   2.720   4.004   2.716  0.0412  0.7873  0.1649
 1612SOL    HW2 6519   2.722   4.090   2.674 -0.9453  0.0052 -1.5602
 1612SOL    HW3 6520   2.786   3.953   2.670  0.4305  0.5317  0.9977
 1612SOL    MW4 6521   2.729   4.009   2.705 -0.0377  0.6504  0.0472
 1613SOL     OW 6522   2.747   4.249   2.600  0.0407 -0.4251 -0.5632
 1613SOL    HW2 6523   2.821   4.306   2.619  0.0860 -0.3308 -1.0220
 1613SOL    HW3 6524   2.674   4.289   2.648  0.3339 -0.6492  0.0751
 1613SOL    MW4 6525   2.747   4.262   2.609  0.0851 -0.4425 -0.5393
 1614SOL     OW 6526   2.933   4.428   2.731  0.0451  0.7131  0.1156
 1614SOL    HW2 6527   2.926   4.414   2.825 -0.2429  0.8328  0.1099
 1614SOL    HW3 6528   2.941   4.523   2.721  0.0883  0.6997  0.0197
 1614SOL    MW4 6529   2.933   4.439   2.742  0.0126  0.7272  0.1023
 1615SOL     OW 6530   3.354   4.639   2.594 -0.4448 -0.3506  0.6922
 1615SOL    HW2 6531   3.364   4.564   2.653  1.1234  0.5969  1.6683
 1615SOL    HW3 6532   3.289   4.694   2.637 -1.2818 -0.9159  0.1842
 1615SOL    MW4 6533   3.346   4.636   2.607 -0.3483 -0.2995  0.7544
 1616SOL     OW 6534   3.173   0.146   2.740 -0.2554  0.1661  0.1421
 1616SOL    HW2 6535   3.170   0.140   2.835  0.9037 -0.6782  0.1376
 1616SOL    HW3 6536   3.163   0.239   2.721  0.8874  0.5129  1.1555
 1616SOL    MW4 6537   3.171   0.158   2.750  0.0482  0.1004  0.2751
 1617SOL     OW 6538   3.138   0.409   2.654  0.3147  0.0488 -0.2974
 1617SOL    HW2 6539   3.052   0.447   2.673 -0.5038 -2.6918  1.6048
 1617SOL    HW3 6540   3.136   0.394   2.559 -0.3019  2.2887 -0.6894
 1617SOL    MW4 6541   3.126   0.412   2.644  0.1254 -0.0173 -0.0982
 1618SOL     OW 6542   3.377   0.506   2.710  0.0712  0.4373 -0.5206
 1618SOL    HW2 6543   3.371   0.601   2.696  0.3035  0.1361 -2.8419
 1618SOL    HW3 6544   3.290   0.473   2.688 -0.0608  0.1408  0.4628
 1618SOL    MW4 6545   3.365   0.514   2.705  0.0842  0.3585 -0.6969
 1619SOL     OW 6546   3.409   0.780   2.670  0.4860  0.2315  0.4350
 1619SOL    HW2 6547   3.494   0.824   2.681  0.3126  0.3222  1.3911
 1619SOL    HW3 6548   3.394   0.782   2.575  0.0384  3.0467  0.5270
 1619SOL    MW4 6549   3.419   0.786   2.659  0.4039  0.6149  0.5734
 1620SOL     OW 6550   3.153   0.866   2.746  0.4368  0.2736 -0.1027
 1620SOL    HW2 6551   3.137   0.851   2.839  0.1567  1.0970 -0.0106
 1620SOL    HW3 6552   3.245   0.844   2.733  0.1889 -0.9573  0.1245
 1620SOL    MW4 6553   3.163   0.861   2.756  0.3672  0.2199 -0.0608
 1621SOL     OW 6554   3.208   1.131   2.659 -0.3812  0.1772  0.4826
 1621SOL    HW2 6555   3.177   1.042   2.677  0.7584 -0.4558 -0.5826
 1621SOL    HW3 6556   3.212   1.136   2.564 -0.4309  1.3792  0.5407
 1621SOL    MW4 6557   3.205   1.120   2.649 -0.2375  0.2524  0.3498
 1622SOL     OW 6558   3.395   1.301   2.758  0.3568  0.0099 -0.3766
 1622SOL    HW2 6559   3.398   1.300   2.854 -0.5278  0.1906 -0.3440
 1622SOL    HW3 6560   3.328   1.238   2.736 -0.2842  0.8490 -0.8377
 1622SOL    MW4 6561   3.387   1.293   2.768  0.1552  0.1445 -0.4330
 1623SOL     OW 6562   3.421   1.543   2.629 -0.2283 -0.3666 -0.0461
 1623SOL    HW2 6563   3.356   1.596   2.674  0.2021 -0.4246  0.6462
 1623SOL    HW3 6564   3.434   1.467   2.685  0.5337 -0.2895 -0.1049
 1623SOL    MW4 6565   3.414   1.540   2.642 -0.0713 -0.3642  0.0374
 1624SOL     OW 6566   3.196   1.700   2.747 -0.0166 -0.0533 -0.1465
 1624SOL    HW2 6567   3.180   1.786   2.710  0.3003 -0.5894 -1.5728
 1624SOL    HW3 6568   3.119   1.649   2.723  0.0321 -0.3107  0.2369
 1624SOL    MW4 6569   3.184   1.704   2.739  0.0315 -0.1582 -0.2840
 1625SOL     OW 6570   3.132   1.948   2.646  0.6335  0.3653 -0.3927
 1625SOL    HW2 6571   3.205   1.996   2.685  0.2033  0.9478 -0.2876
 1625SOL    HW3 6572   3.057   1.971   2.701  0.5004 -0.7600 -0.0957
 1625SOL    MW4 6573   3.132   1.958   2.658  0.5591  0.2937 -0.3395
 1626SOL     OW 6574   3.372   2.048   2.758 -0.0610  0.0734  0.3456
 1626SOL    HW2 6575   3.373   2.065   2.852 -1.0476  0.6486  0.2505
 1626SOL    HW3 6576   3.364   2.134   2.717  0.8489 -0.1322 -0.2810
 1626SOL    MW4 6577   3.371   2.061   2.765 -0.0710  0.1223  0.2503
 1627SOL     OW 6578   3.347   2.303   2.660 -0.0674 -0.0331 -0.1006
 1627SOL    HW2 6579   3.419   2.364   2.677  0.2217 -0.4723  0.2646
 1627SOL    HW3 6580   3.343   2.297   2.565  1.2821 -1.0612 -0.1095
 1627SOL    MW4 6581   3.356   2.310   2.650  0.1488 -0.2267 -0.0539
 1628SOL     OW 6582   3.147   2.476   2.737 -0.4895  0.6982 -0.4013
 1628SOL    HW2 6583   3.160   2.564   2.701  1.2387  1.0251  0.9643
 1628SOL    HW3 6584   3.220   2.425   2.701 -0.1131  0.4286  0.7414
 1628SOL    MW4 6585   3.158   2.481   2.727 -0.2120  0.7057 -0.0706
 1629SOL     OW 6586   3.169   2.732   2.617 -0.1418 -0.3948 -0.5340
 1629SOL    HW2 6587   3.238   2.771   2.670 -0.3104  1.1577 -1.4325
 1629SOL    HW3 6588   3.088   2.756   2.661 -0.2489  0.2962 -1.1028
 1629SOL    MW4 6589   3.167   2.740   2.630 -0.1781 -0.0985 -0.7274
 1630SOL     OW 6590   3.382   2.843   2.752 -0.4024  0.2161  0.5278
 1630SOL    HW2 6591   3.386   2.861   2.846  0.4335 -2.5526  1.0655
 1630SOL    HW3 6592   3.470   2.812   2.730 -0.7047  0.4983 -1.1004
 1630SOL    MW4 6593   3.394   2.841   2.762 -0.3319 -0.1121  0.3839
 1631SOL     OW 6594   3.405   3.105   2.650  0.2301  0.1437  0.3226
 1631SOL    HW2 6595   3.391   3.012   2.670 -0.7725  0.5032  1.3914
 1631SOL    HW3 6596   3.419   3.108   2.555  0.5921 -1.1276  0.3284
 1631SOL    MW4 6597   3.405   3.093   2.640  0.1454  0.0234  0.4647
 1632SOL     OW 6598   3.183   3.254   2.743  0.3652 -0.2894  0.1947
 1632SOL    HW2 6599   3.254   3.208   2.697  0.5348 -1.1436  1.2817
 1632SOL    HW3 6600   3.106   3.197   2.732  0.6268 -0.9908  1.7316
 1632SOL    MW4 6601   3.182   3.240   2.736  0.4222 -0.4945  0.5412
 1633SOL     OW 6602   3.174   3.497   2.625 -0.2468  0.5359  0.0679
 1633SOL    HW2 6603   3.180   3.412   2.667  0.8529  0.5705 -0.0068
 1633SOL    HW3 6604   3.095   3.537   2.662 -1.6770 -1.1544 -1.1054
 1633SOL    MW4 6605   3.164   3.491   2.636 -0.2906  0.3176 -0.0968
 1634SOL     OW 6606   3.394   3.604   2.753  0.2942  0.2470  0.8682
 1634SOL    HW2 6607   3.378   3.614   2.847 -1.4478  1.3586  0.4864
 1634SOL    HW3 6608   3.324   3.547   2.722  0.0349  0.9940  0.0322
 1634SOL    MW4 6609   3.382   3.598   2.762  0.0303  0.4923  0.7074
 1635SOL     OW 6610   3.354   3.860   2.647 -0.1873  0.5011 -0.2517
 1635SOL    HW2 6611   3.359   3.769   2.675 -1.4092  0.7655  0.9029
 1635SOL    HW3 6612   3.362   3.857   2.552 -1.1356 -0.8991 -0.2973
 1635SOL    MW4 6613   3.356   3.848   2.638 -0.4735  0.3510 -0.1051
 1636SOL     OW 6614   3.124   4.006   2.717  0.3475 -0.0782 -0.4586
 1636SOL    HW2 6615   3.137   4.099   2.697 -1.0928  0.3793  0.6510
 1636SOL    HW3 6616   3.206   3.965   2.690  0.4632  1.2717 -2.3648
 1636SOL    MW4 6617   3.136   4.013   2.710  0.1729  0.1602 -0.5634
 1637SOL     OW 6618   3.155   4.272   2.665  0.2984  0.0329 -0.2877
 1637SOL    HW2 6619   3.093   4.342   2.684  0.8739  0.2428  0.8330
 1637SOL    HW3 6620   3.174   4.281   2.571 -1.6135 -0.2504 -0.7159
 1637SOL    MW4 6621   3.150   4.282   2.655  0.1221  0.0224 -0.1965
 1638SOL     OW 6622   3.391   4.393   2.761 -0.3807  0.1916  0.1644
 1638SOL    HW2 6623   3.375   4.401   2.856 -1.7649  0.3360 -0.0704
 1638SOL    HW3 6624   3.313   4.349   2.727  0.9426 -1.5511 -0.6508
 1638SOL    MW4 6625   3.378   4.389   2.769 -0.3886 -0.0191  0.0260
 1639SOL     OW 6626   3.836   4.622   2.661 -0.5244  0.0077 -0.4002
 1639SOL    HW2 6627   3.828   4.530   2.685  0.5229 -0.1772 -0.7370
 1639SOL    HW3 6628   3.759   4.664   2.700 -0.7145 -0.9092  0.2174
 1639SOL    MW4 6629   3.825   4.615   2.669 -0.4110 -0.1378 -0.3629
 1640SOL     OW 6630   3.598   0.076   2.713 -0.4997 -0.4811  0.2176
 1640SOL    HW2 6631   3.595   0.171   2.704 -0.4514 -0.6019 -1.2537
 1640SOL    HW3 6632   3.519   0.045   2.669 -0.3661 -1.1296  0.4311
 1640SOL    MW4 6633   3.587   0.084   2.706 -0.4754 -0.5826  0.0515
 1641SOL     OW 6634   3.614   0.347   2.686  0.0109 -0.0719 -0.0260
 1641SOL    HW2 6635   3.693   0.392   2.716 -0.4812  0.4396  0.5327
 1641SOL    HW3 6636   3.543   0.406   2.712 -0.5406 -0.4818 -0.6122
 1641SOL    MW4 6637   3.615   0.361   2.694 -0.1266 -0.0585 -0.0296
 1642SOL     OW 6638   3.833   0.501   2.753  0.6435 -0.0001 -0.1631
 1642SOL    HW2 6639   3.837   0.525   2.846 -0.4545  0.6403 -0.2716
 1642SOL    HW3 6640   3.913   0.450   2.738  0.4697 -0.7421  1.3075
 1642SOL    MW4 6641   3.844   0.497   2.763  0.4754 -0.0136  0.0165
 1643SOL     OW 6642   3.841   0.755   2.628  0.6133 -0.0481  0.6957
 1643SOL    HW2 6643   3.775   0.814   2.666 -0.0105 -0.0015 -0.4503
 1643SOL    HW3 6644   3.824   0.671   2.670  1.2156  0.4675  2.0016
 1643SOL    MW4 6645   3.830   0.752   2.639  0.6104  0.0260  0.7164
 1644SOL     OW 6646   3.652   0.930   2.729  0.2921  0.2032 -0.6098
 1644SOL    HW2 6647   3.630   0.944   2.821  0.8956 -0.7322 -0.3081
 1644SOL    HW3 6648   3.617   1.006   2.683  1.6665  1.6173  0.6595
 1644SOL    MW4 6649   3.645   0.942   2.735  0.5531  0.2664 -0.4022
 1645SOL     OW 6650   3.588   1.179   2.617 -0.0773 -0.2225 -0.1548
 1645SOL    HW2 6651   3.670   1.224   2.638  0.1991 -0.5441 -0.5432
 1645SOL    HW3 6652   3.521   1.228   2.665  0.1874  0.7507 -0.7664
 1645SOL    MW4 6653   3.590   1.191   2.626 -0.0060 -0.1365 -0.2868
 1646SOL     OW 6654   3.816   1.298   2.698 -0.2484  0.3938  0.4428
 1646SOL    HW2 6655   3.898   1.250   2.706 -1.0858 -1.0713  0.3727
 1646SOL    HW3 6656   3.843   1.388   2.676  1.3563  0.1447  1.2734
 1646SOL    MW4 6657   3.830   1.304   2.696 -0.1471  0.1676  0.5431
 1647SOL     OW 6658   3.817   1.552   2.600  0.0928 -0.1178 -0.3380
 1647SOL    HW2 6659   3.885   1.606   2.640  0.0610 -0.1012 -0.3078
 1647SOL    HW3 6660   3.736   1.578   2.643  0.1793 -0.6895  0.1862
 1647SOL    MW4 6661   3.815   1.562   2.611  0.1001 -0.1910 -0.2649
 1648SOL     OW 6662   3.613   1.681   2.758  0.4798 -0.0644 -0.2108
 1648SOL    HW2 6663   3.628   1.774   2.739 -0.0894  0.2320  0.7328
 1648SOL    HW3 6664   3.541   1.657   2.700  0.4234  0.1744 -0.2437
 1648SOL    MW4 6665   3.605   1.690   2.748  0.3974  0.0062 -0.0906
 1649SOL     OW 6666   3.626   1.928   2.674 -0.2689 -0.4135  0.0551
 1649SOL    HW2 6667   3.552   1.974   2.713 -0.3912  0.0716 -0.7569
 1649SOL    HW3 6668   3.701   1.985   2.689  0.1538 -1.3856  1.8237
 1649SOL    MW4 6669   3.626   1.941   2.681 -0.2291 -0.4779  0.1812
 1650SOL     OW 6670   3.822   2.103   2.754 -0.2054  0.3061 -0.2247
 1650SOL    HW2 6671   3.888   2.053   2.706 -1.3791 -1.7837  0.2922
 1650SOL    HW3 6672   3.840   2.083   2.846 -1.2976  0.0371 -0.0667
 1650SOL    MW4 6673   3.833   2.094   2.760 -0.5043 -0.0052 -0.1357
 1651SOL     OW 6674   3.783   2.352   2.628  0.1441  0.2938  0.2611
 1651SOL    HW2 6675   3.793   2.262   2.658  0.1697  0.7173  1.5435
 1651SOL    HW3 6676   3.818   2.352   2.539 -0.1249 -1.0208  0.1536
 1651SOL    MW4 6677   3.789   2.340   2.620  0.1118  0.1762  0.4165
 1652SOL     OW 6678   3.566   2.486   2.720  0.0194  0.0785 -0.0661
 1652SOL    HW2 6679   3.561   2.465   2.813 -0.5517  1.4220  0.2231
 1652SOL    HW3 6680   3.644   2.441   2.689 -0.1078 -0.8414  0.9434
 1652SOL    MW4 6681   3.576   2.478   2.728 -0.0730  0.1342  0.1051
 1653SOL     OW 6682   3.625   2.749   2.641 -0.1794  0.1546 -0.1441
 1653SOL    HW2 6683   3.612   2.658   2.669 -0.7424  0.2832  0.0081
 1653SOL    HW3 6684   3.632   2.743   2.546 -2.5709  0.2143 -0.3586
 1653SOL    MW4 6685   3.624   2.736   2.632 -0.5691  0.1793 -0.1523
 1654SOL     OW 6686   3.872   2.859   2.744  0.0827 -0.1360  0.1878
 1654SOL    HW2 6687   3.931   2.816   2.682  1.6683 -0.0611  1.5952
 1654SOL    HW3 6688   3.785   2.830   2.719  0.6613  0.1160 -2.2445
 1654SOL    MW4 6689   3.868   2.850   2.732  0.3681 -0.0927  0.0527
 1655SOL     OW 6690   3.852   3.104   2.654  0.1101 -0.2814  0.1168
 1655SOL    HW2 6691   3.765   3.134   2.684  0.1078 -0.9121  0.7517
 1655SOL    HW3 6692   3.862   3.018   2.693  1.2173 -0.0258  0.4006
 1655SOL    MW4 6693   3.842   3.097   2.663  0.2561 -0.3312  0.2379
 1656SOL     OW 6694   3.619   3.202   2.774 -0.5416 -0.0773 -0.0383
 1656SOL    HW2 6695   3.608   3.291   2.742 -0.3150  0.2053  0.6587
 1656SOL    HW3 6696   3.543   3.154   2.741 -1.2603  0.6456  0.5505
 1656SOL    MW4 6697   3.608   3.207   2.765 -0.6065  0.0556  0.1316
 1657SOL     OW 6698   3.597   3.455   2.645  0.1663 -0.9272 -0.3119
 1657SOL    HW2 6699   3.675   3.502   2.673  0.0398 -0.4531 -0.7440
 1657SOL    HW3 6700   3.524   3.509   2.677  0.0134  0.2707 -2.5663
 1657SOL    MW4 6701   3.598   3.468   2.653  0.1292 -0.7067 -0.6661
 1658SOL     OW 6702   3.806   3.628   2.733 -0.3788  0.1978 -0.1969
 1658SOL    HW2 6703   3.899   3.608   2.716 -0.0817  0.6545  0.8619
 1658SOL    HW3 6704   3.791   3.711   2.687 -0.7608 -0.7747 -1.8912
 1658SOL    MW4 6705   3.817   3.637   2.725 -0.3898  0.1295 -0.2806
 1659SOL     OW 6706   3.800   3.899   2.610  0.2097  0.5030  0.0318
 1659SOL    HW2 6707   3.883   3.936   2.640  0.4517  0.4276 -0.5299
 1659SOL    HW3 6708   3.735   3.929   2.674  0.4965  1.4106 -0.0953
 1659SOL    MW4 6709   3.802   3.908   2.622  0.2792  0.6127 -0.0587
 1660SOL     OW 6710   3.585   3.992   2.774 -0.3150  0.6386  0.4322
 1660SOL    HW2 6711   3.577   4.078   2.733 -0.7790  0.1465 -0.5352
 1660SOL    HW3 6712   3.520   3.938   2.728  1.3348 -0.7354 -0.3407
 1660SOL    MW4 6713   3.575   3.996   2.762 -0.1585  0.3924  0.2024
 1661SOL     OW 6714   3.599   4.241   2.683 -0.5975  0.2119  0.1001
 1661SOL    HW2 6715   3.526   4.297   2.712 -2.4360 -1.5207 -1.0188
 1661SOL    HW3 6716   3.596   4.245   2.588  1.3829  0.8202  0.0375
 1661SOL    MW4 6717   3.589   4.249   2.675 -0.5789  0.0634 -0.0556
 1662SOL     OW 6718   3.811   4.385   2.792 -0.1152  0.3273 -0.5997
 1662SOL    HW2 6719   3.891   4.341   2.766 -0.5275 -0.4839 -0.5016
 1662SOL    HW3 6720   3.741   4.329   2.760 -0.6535  1.2275 -1.0295
 1662SOL    MW4 6721   3.812   4.372   2.785 -0.2406  0.3390 -0.6433
 1663SOL     OW 6722   4.265   0.012   2.640 -0.0588 -0.0418  0.1297
 1663SOL    HW2 6723   4.193   0.060   2.682 -0.5035 -0.4639 -0.1401
 1663SOL    HW3 6724   4.344   0.050   2.678 -0.4020  0.9454 -0.1168
 1663SOL    MW4 6725   4.266   0.023   2.651 -0.1626  0.0327  0.0615
 1664SOL     OW 6726   4.037   0.103   2.761 -0.1149 -0.9506 -0.5879
 1664SOL    HW2 6727   4.033   0.099   2.857 -0.9042  0.4449 -0.5481
 1664SOL    HW3 6728   3.967   0.044   2.732 -2.3497  1.4393 -0.2288
 1664SOL    MW4 6729   4.027   0.095   2.770 -0.5140 -0.4511 -0.5350
 1665SOL     OW 6730   4.058   0.366   2.667 -0.2151  0.0063 -0.1487
 1665SOL    HW2 6731   4.046   0.277   2.702 -0.7958 -0.0358 -0.4563
 1665SOL    HW3 6732   4.034   0.359   2.575 -0.3097  0.4930 -0.1604
 1665SOL    MW4 6733   4.053   0.353   2.660 -0.3047  0.0650 -0.1907
 1666SOL     OW 6734   4.280   0.517   2.765 -0.4675 -0.0364 -0.2761
 1666SOL    HW2 6735   4.211   0.459   2.731  0.4192 -1.3855  0.1732
 1666SOL    HW3 6736   4.361   0.472   2.744  0.1616 -0.1724  2.2387
 1666SOL    MW4 6737   4.281   0.503   2.758 -0.2680 -0.2323  0.1152
 1667SOL     OW 6738   4.295   0.765   2.657  0.1477  0.4532 -0.2097
 1667SOL    HW2 6739   4.308   0.675   2.687  0.3441  0.6567  0.3390
 1667SOL    HW3 6740   4.281   0.758   2.563  1.6890 -0.0251 -0.4215
 1667SOL    MW4 6741   4.295   0.752   2.649  0.3767  0.4171 -0.1652
 1668SOL     OW 6742   4.065   0.873   2.767  0.0269  0.0845 -0.0297
 1668SOL    HW2 6743   4.134   0.815   2.732  0.6230  0.5063  0.4382
 1668SOL    HW3 6744   3.986   0.845   2.721  0.6950  0.2552 -1.3192
 1668SOL    MW4 6745   4.064   0.861   2.756  0.1941  0.1627 -0.1380
 1669SOL     OW 6746   4.056   1.147   2.701  0.4328 -0.6341  0.0908
 1669SOL    HW2 6747   4.137   1.193   2.723  0.0577 -0.5690  1.3591
 1669SOL    HW3 6748   4.074   1.055   2.721 -0.3316 -0.4043  1.9488
 1669SOL    MW4 6749   4.069   1.141   2.706  0.2828 -0.5951  0.5033
 1670SOL     OW 6750   4.294   1.268   2.751 -0.4575 -0.2176 -0.1495
 1670SOL    HW2 6751   4.278   1.358   2.723 -0.8334 -0.2220  0.0429
 1670SOL    HW3 6752   4.364   1.237   2.694 -0.4698  0.1295 -0.3560
 1670SOL    MW4 6753   4.301   1.276   2.740 -0.5088 -0.1724 -0.1512
 1671SOL     OW 6754   4.236   1.545   2.679  0.1146 -0.6341  0.0965
 1671SOL    HW2 6755   4.321   1.579   2.706  0.1316 -0.7892  0.2426
 1671SOL    HW3 6756   4.239   1.545   2.583  0.2590 -0.5922  0.1013
 1671SOL    MW4 6757   4.248   1.550   2.670  0.1359 -0.6491  0.1166
 1672SOL     OW 6758   4.002   1.696   2.725  0.7155  0.1197 -0.2386
 1672SOL    HW2 6759   3.990   1.677   2.819 -0.7970 -0.9224 -0.6207
 1672SOL    HW3 6760   4.090   1.666   2.706  0.2347 -1.7538  0.3633
 1672SOL    MW4 6761   4.012   1.689   2.735  0.4530 -0.2649 -0.2096
 1673SOL     OW 6762   4.032   1.968   2.649 -0.1759 -0.1921  0.2934
 1673SOL    HW2 6763   4.112   1.991   2.695  0.1749 -0.7846 -0.0170
 1673SOL    HW3 6764   4.017   1.876   2.672 -1.3101  0.1840  1.1659
 1673SOL    MW4 6765   4.040   1.959   2.658 -0.2794 -0.2205  0.3674
 1674SOL     OW 6766   4.262   2.073   2.748  0.0097 -0.0155 -0.2083
 1674SOL    HW2 6767   4.270   2.157   2.703  0.1686 -0.2586 -0.6438
 1674SOL    HW3 6768   4.326   2.016   2.704 -0.8331 -0.6629 -0.6336
 1674SOL    MW4 6769   4.271   2.076   2.736 -0.0806 -0.1328 -0.3216
 1675SOL     OW 6770   4.254   2.332   2.629  0.0189 -0.9284 -0.3112
 1675SOL    HW2 6771   4.184   2.380   2.673  1.2901  1.1064 -0.4363
 1675SOL    HW3 6772   4.245   2.356   2.537  1.4832  0.1635 -0.1881
 1675SOL    MW4 6773   4.243   2.342   2.623  0.3800 -0.5159 -0.3114
 1676SOL     OW 6774   4.035   2.464   2.726 -0.1581 -0.1810 -0.0591
 1676SOL    HW2 6775   4.032   2.461   2.822 -0.5617  0.4708 -0.0505
 1676SOL    HW3 6776   3.950   2.431   2.698 -0.3338  0.3651 -0.1755
 1676SOL    MW4 6777   4.023   2.460   2.735 -0.2341 -0.0226 -0.0734
 1677SOL     OW 6778   4.037   2.712   2.584  0.4329  0.7456  0.2516
 1677SOL    HW2 6779   4.115   2.752   2.624  1.0097  0.8004 -0.8985
 1677SOL    HW3 6780   4.026   2.629   2.631  2.1079  0.0182 -0.5925
 1677SOL    MW4 6781   4.046   2.706   2.595  0.7305  0.6573 -0.0112
 1678SOL     OW 6782   4.240   2.842   2.712  0.2472  0.0030 -0.0009
 1678SOL    HW2 6783   4.246   2.830   2.807  1.0559 -0.7223 -0.1329
 1678SOL    HW3 6784   4.235   2.937   2.700 -0.3993  0.0803  0.7902
 1678SOL    MW4 6785   4.240   2.853   2.723  0.2685 -0.0827  0.0861
 1679SOL     OW 6786   4.293   3.114   2.657 -0.1614  0.6688 -0.2763
 1679SOL    HW2 6787   4.215   3.161   2.684  0.1508  0.5301  0.8667
 1679SOL    HW3 6788   4.296   3.126   2.562 -1.4532  0.8466 -0.3026
 1679SOL    MW4 6789   4.283   3.122   2.648 -0.2909  0.6738 -0.1287
 1680SOL     OW 6790   4.069   3.257   2.710  0.3296 -0.3796 -0.6104
 1680SOL    HW2 6791   4.049   3.351   2.711 -0.4813 -0.5055  2.6960
 1680SOL    HW3 6792   3.988   3.215   2.682 -0.7461 -0.2665  2.1239
 1680SOL    MW4 6793   4.056   3.264   2.707  0.0806 -0.3815  0.1864
 1681SOL     OW 6794   4.060   3.526   2.674  0.1537 -0.3108  0.5350
 1681SOL    HW2 6795   4.142   3.572   2.691 -0.1543  0.2064  0.6157
 1681SOL    HW3 6796   4.061   3.510   2.580  0.6131 -0.8185  0.6188
 1681SOL    MW4 6797   4.071   3.530   2.664  0.1740 -0.3095  0.5569
 1682SOL     OW 6798   4.298   3.657   2.731 -0.1875 -0.1593  0.1580
 1682SOL    HW2 6799   4.283   3.637   2.823 -0.2629  0.6951  0.3367
 1682SOL    HW3 6800   4.363   3.593   2.702  0.5752  0.1978  1.0713
 1682SOL    MW4 6801   4.305   3.646   2.739 -0.0968  0.0007  0.3021
 1683SOL     OW 6802   4.283   3.923   2.607 -0.4268 -0.1247 -0.1341
 1683SOL    HW2 6803   4.279   3.838   2.651  0.3844 -0.0576  0.0884
 1683SOL    HW3 6804   4.341   3.976   2.663 -1.0423  0.6201 -0.1910
 1683SOL    MW4 6805   4.290   3.919   2.620 -0.4010 -0.0176 -0.1125
 1684SOL     OW 6806   4.034   4.015   2.709 -0.0095 -0.3677  0.0179
 1684SOL    HW2 6807   4.035   3.998   2.804  1.0986  1.1229  0.2842
 1684SOL    HW3 6808   4.114   3.974   2.676  0.4153  0.4803 -0.0189
 1684SOL    MW4 6809   4.045   4.008   2.717  0.1926 -0.0587  0.0482
 1685SOL     OW 6810   4.041   4.282   2.664 -0.3834 -0.4380  0.1390
 1685SOL    HW2 6811   4.046   4.188   2.678 -1.7800 -0.4551  0.5138
 1685SOL    HW3 6812   4.039   4.292   2.569  1.3021 -0.6899  0.0512
 1685SOL    MW4 6813   4.042   4.271   2.653 -0.3448 -0.4735  0.1771
 1686SOL     OW 6814   4.271   4.419   2.752  0.2836  0.0847 -0.1744
 1686SOL    HW2 6815   4.195   4.365   2.730  0.0227 -0.2667  1.5759
 1686SOL    HW3 6816   4.246   4.508   2.725 -1.0313  0.0967  1.0328
 1686SOL    MW4 6817   4.257   4.424   2.745  0.0753  0.0401  0.2158
 1687SOL     OW 6818   0.261   4.642   3.136  0.4536 -0.2821 -0.2684
 1687SOL    HW2 6819   0.233   4.632   3.227  1.2997  1.3258  0.1900
 1687SOL    HW3 6820   0.185   4.678   3.091  0.3360 -0.1689  0.0209
 1687SOL    MW4 6821   0.248   4.645   3.142  0.5497 -0.0544 -0.1698
 1688SOL     OW 6822   0.022   0.104   3.028  0.8071  0.0282 -0.1152
 1688SOL    HW2 6823  -0.059   0.063   3.057  0.5393  0.8350  0.2879
 1688SOL    HW3 6824   0.022   0.191   3.069  1.0076  0.7281 -1.5380
 1688SOL    MW4 6825   0.011   0.110   3.037  0.7977  0.2270 -0.2496
 1689SOL     OW 6826   0.018   0.362   3.123 -0.0552  0.1798  0.5494
 1689SOL    HW2 6827   0.023   0.359   3.218  2.5452  1.0774  0.4965
 1689SOL    HW3 6828  -0.058   0.417   3.104 -0.4806  0.1485  2.1045
 1689SOL    MW4 6829   0.009   0.369   3.133  0.2317  0.2941  0.7479
 1690SOL     OW 6830   0.246   0.471   3.017 -0.4284  0.2514  0.8227
 1690SOL    HW2 6831   0.311   0.428   3.072  1.3576  1.2562 -0.4658
 1690SOL    HW3 6832   0.162   0.434   3.046  0.7609 -1.5920  2.0022
 1690SOL    MW4 6833   0.244   0.461   3.028 -0.0358  0.1408  0.8085
 1691SOL     OW 6834   0.229   0.747   3.105 -0.5109  0.5787  0.1017
 1691SOL    HW2 6835   0.217   0.748   3.200  0.1872 -0.8540  0.2132
 1691SOL    HW3 6836   0.234   0.654   3.082  0.0858  0.9328 -1.2466
 1691SOL    MW4 6837   0.228   0.735   3.114 -0.3401  0.4364 -0.0613
 1692SOL     OW 6838   0.049   0.950   3.029 -0.0437 -0.1675  0.2634
 1692SOL    HW2 6839   0.113   0.882   3.049  0.4808  0.0417 -0.6843
 1692SOL    HW3 6840   0.057   0.964   2.935  1.0310  2.3587  0.6686
 1692SOL    MW4 6841   0.059   0.943   3.020  0.1673  0.1934  0.1919
 1693SOL     OW 6842   0.022   1.203   3.146 -0.0076 -0.1597  0.8600
 1693SOL    HW2 6843  -0.068   1.223   3.122  0.0366  0.6325  1.3329
 1693SOL    HW3 6844   0.043   1.123   3.099 -0.7139  0.0701  0.1619
 1693SOL    MW4 6845   0.013   1.195   3.137 -0.0950 -0.0250  0.8304
 1694SOL     OW 6846   0.251   1.310   3.011 -0.6929 -0.0075 -0.2915
 1694SOL    HW2 6847   0.171   1.275   3.050 -0.9002 -0.0278 -0.7379
 1694SOL    HW3 6848   0.248   1.281   2.920 -0.5084  0.5662 -0.4795
 1694SOL    MW4 6849   0.240   1.301   3.005 -0.6960  0.0656 -0.3750
 1695SOL     OW 6850   0.250   1.569   3.121 -0.0853  0.4036  0.3529
 1695SOL    HW2 6851   0.169   1.618   3.107  0.2653  1.1865  0.9912
 1695SOL    HW3 6852   0.235   1.484   3.079 -0.5058  1.2450 -1.2158
 1695SOL    MW4 6853   0.238   1.564   3.114 -0.0945  0.6179  0.2303
 1696SOL     OW 6854   4.481   1.661   3.049 -0.0181  0.0338 -0.6937
 1696SOL    HW2 6855   4.403   1.615   3.077 -0.3766 -0.4439 -2.4392
 1696SOL    HW3 6856   4.479   1.744   3.098 -1.3887 -0.1381 -0.4498
 1696SOL    MW4 6857   4.471   1.666   3.059 -0.2460 -0.0519 -0.8919
 1697SOL     OW 6858   0.001   1.924   3.129  0.1188 -0.3552  0.2752
 1697SOL    HW2 6859  -0.070   1.978   3.093  0.7455 -0.6881 -1.5219
 1697SOL    HW3 6860   0.081   1.959   3.088  0.9753 -0.1654  2.0629
 1697SOL    MW4 6861   0.002   1.936   3.119  0.3142 -0.3740  0.2739
 1698SOL     OW 6862   0.215   2.033   3.014 -0.0881 -0.1158 -0.3023
 1698SOL    HW2 6863   0.216   2.124   3.045  0.0700 -0.1958 -0.0685
 1698SOL    HW3 6864   0.212   2.040   2.919  1.7808  0.1365 -0.3559
 1698SOL    MW4 6865   0.215   2.046   3.006  0.1794 -0.0930 -0.2785
 1699SOL     OW 6866   0.229   2.285   3.127 -0.5719 -0.1602  0.6944
 1699SOL    HW2 6867   0.206   2.324   3.211 -1.3542 -0.0526  0.4346
 1699SOL    HW3 6868   0.310   2.330   3.101  0.2422 -0.9268  1.8671
 1699SOL    MW4 6869   0.237   2.296   3.134 -0.5677 -0.2472  0.8149
 1700SOL     OW 6870   0.000   2.431   3.016 -0.1367  0.5256  0.0341
 1700SOL    HW2 6871   0.020   2.517   3.052 -0.6171  0.3010  0.8500
 1700SOL    HW3 6872   0.080   2.381   3.030 -0.5995  0.1895  1.5819
 1700SOL    MW4 6873   0.013   2.436   3.022 -0.2611  0.4518  0.3457
 1701SOL     OW 6874   0.036   2.696   3.126  0.1734  0.0698 -0.1973
 1701SOL    HW2 6875   0.012   2.724   3.215  0.6105 -2.2083  0.6974
 1701SOL    HW3 6876   0.112   2.749   3.104  1.9391 -1.3985  2.0586
 1701SOL    MW4 6877   0.043   2.707   3.135  0.4641 -0.4244  0.2184
 1702SOL     OW 6878   0.270   2.841   3.052 -0.5406  0.2983  0.6943
 1702SOL    HW2 6879   0.340   2.778   3.068  0.4755  1.6755  1.8289
 1702SOL    HW3 6880   0.267   2.849   2.956 -0.1769 -0.8947  0.5726
 1702SOL    MW4 6881   0.279   2.834   3.041 -0.3586  0.3228  0.8280
 1703SOL     OW 6882   0.245   3.119   3.147  0.2088 -0.0896 -0.1589
 1703SOL    HW2 6883   0.160   3.137   3.108 -1.0044 -0.5322  2.1758
 1703SOL    HW3 6884   0.255   3.024   3.141  0.5034 -0.0488 -0.3470
 1703SOL    MW4 6885   0.235   3.109   3.141  0.0876 -0.1426  0.1242
 1704SOL     OW 6886   0.009   3.212   3.046 -0.0141  0.8025  0.0857
 1704SOL    HW2 6887  -0.049   3.136   3.054  2.0455 -0.7137  1.1362
 1704SOL    HW3 6888   0.025   3.220   2.952 -1.0346  0.5468 -0.1136
 1704SOL    MW4 6889   0.004   3.203   3.035  0.1230  0.5689  0.1979
 1705SOL     OW 6890   4.450   3.501   3.120 -0.0053 -0.3225 -0.1055
 1705SOL    HW2 6891   4.360   3.518   3.090  0.2480 -1.5500 -1.5809
 1705SOL    HW3 6892   4.468   3.411   3.094  1.0371 -0.6912  1.7852
 1705SOL    MW4 6893   4.440   3.491   3.113  0.1659 -0.5329 -0.0508
 1706SOL     OW 6894   0.183   3.631   3.012 -0.0306  0.5553 -0.1433
 1706SOL    HW2 6895   0.162   3.721   3.036  0.2161  0.7172 -0.5250
 1706SOL    HW3 6896   0.112   3.579   3.049 -0.9421  1.0667 -1.1638
 1706SOL    MW4 6897   0.171   3.636   3.020 -0.1183  0.6440 -0.3283
 1707SOL     OW 6898   0.191   3.886   3.107 -0.0663  0.2738 -0.4741
 1707SOL    HW2 6899   0.187   3.879   3.203  0.0628  1.3366 -0.3898
 1707SOL    HW3 6900   0.284   3.901   3.088 -0.0131 -0.4629 -0.8067
 1707SOL    MW4 6901   0.203   3.887   3.117 -0.0423  0.3169 -0.5069
 1708SOL     OW 6902   4.442   4.028   3.043 -0.0845  0.1598 -0.3404
 1708SOL    HW2 6903   4.522   3.977   3.059 -1.0960 -0.5068  2.9500
 1708SOL    HW3 6904   4.443   4.044   2.949  2.7517 -1.7872 -0.7245
 1708SOL    MW4 6905   4.453   4.024   3.033  0.1559 -0.1850  0.0429
 1709SOL     OW 6906   4.479   4.289   3.138 -0.1684 -0.1678 -0.0900
 1709SOL    HW2 6907   4.516   4.295   3.226 -1.8912  0.7572  0.5834
 1709SOL    HW3 6908   4.486   4.196   3.115  0.7273 -0.3322  0.8188
 1709SOL    MW4 6909   4.485   4.277   3.146 -0.2775 -0.0672  0.1187
 1710SOL     OW 6910   0.231   4.389   3.041 -0.5150  0.0750 -0.2840
 1710SOL    HW2 6911   0.145   4.363   3.074 -0.8069  0.6839 -0.5542
 1710SOL    HW3 6912   0.247   4.475   3.081  0.6995 -0.7544  1.0832
 1710SOL    MW4 6913   0.222   4.397   3.051 -0.3933  0.0458 -0.1390
 1711SOL     OW 6914   0.703   4.638   3.148  0.4482 -0.0924  0.0754
 1711SOL    HW2 6915   0.701   4.553   3.103  1.5646  0.9826 -2.0946
 1711SOL    HW3 6916   0.630   4.686   3.110  2.3042  1.3650 -1.7237
 1711SOL    MW4 6917   0.693   4.633   3.137  0.8403  0.2418 -0.4485
 1712SOL     OW 6918   0.496   0.106   3.027 -0.2709  0.0793  0.4745
 1712SOL    HW2 6919   0.494   0.191   3.071  0.6140 -0.5709  1.7900
 1712SOL    HW3 6920   0.423   0.057   3.064 -0.6019  0.1535 -0.0712
 1712SOL    MW4 6921   0.486   0.111   3.037 -0.1978  0.0033  0.5760
 1713SOL     OW 6922   0.443   0.353   3.149  0.0337 -0.1139  0.2929
 1713SOL    HW2 6923   0.440   0.372   3.242  0.5058 -0.2003  0.3284
 1713SOL    HW3 6924   0.509   0.413   3.114 -0.7187  0.4853 -0.1238
 1713SOL    MW4 6925   0.451   0.364   3.156 -0.0033 -0.0462  0.2422
 1714SOL     OW 6926   0.621   0.564   3.007 -0.0217 -0.2525  0.1236
 1714SOL    HW2 6927   0.699   0.513   3.028  0.7388  0.4452 -0.9394
 1714SOL    HW3 6928   0.629   0.644   3.058 -0.7251 -0.7653  1.0458
 1714SOL    MW4 6929   0.632   0.568   3.016 -0.0142 -0.2282  0.1054
 1715SOL     OW 6930   0.679   0.801   3.134  0.4053 -0.4534  0.0508
 1715SOL    HW2 6931   0.662   0.787   3.227 -1.2120  0.1860 -0.1274
 1715SOL    HW3 6932   0.598   0.840   3.100  0.6679 -1.4196 -1.7856
 1715SOL    MW4 6933   0.666   0.804   3.142  0.2266 -0.4965 -0.2153
 1716SOL     OW 6934   0.440   0.922   3.031  0.6287  0.9381  0.2711
 1716SOL    HW2 6935   0.364   0.868   3.053  1.5562  0.1400  1.5655
 1716SOL    HW3 6936   0.439   0.925   2.935 -0.0750 -0.4639  0.2139
 1716SOL    MW4 6937   0.430   0.915   3.021  0.6582  0.6478  0.4344
 1717SOL     OW 6938   0.470   1.179   3.128  0.5591 -0.3090 -0.3036
 1717SOL    HW2 6939   0.460   1.087   3.101 -1.8417 -0.2805  0.3830
 1717SOL    HW3 6940   0.400   1.225   3.081  1.5277  1.1208 -0.3584
 1717SOL    MW4 6941   0.459   1.173   3.118  0.3701 -0.1166 -0.2201
 1718SOL     OW 6942   0.690   1.264   2.991 -0.3523 -0.1377 -0.1763
 1718SOL    HW2 6943   0.774   1.252   3.036 -0.0765  1.6834 -0.1720
 1718SOL    HW3 6944   0.628   1.210   3.041  0.5048 -0.2846  0.7409
 1718SOL    MW4 6945   0.693   1.255   3.004 -0.2028  0.0833 -0.0546
 1719SOL     OW 6946   0.689   1.511   3.134  0.3348  0.0375  0.1398
 1719SOL    HW2 6947   0.697   1.514   3.229 -1.6711 -1.1895  0.3696
 1719SOL    HW3 6948   0.678   1.418   3.113  1.3195  0.2292 -1.3450
 1719SOL    MW4 6949   0.689   1.499   3.143  0.2001 -0.0992 -0.0253
 1720SOL     OW 6950   0.489   1.650   2.997 -0.0484 -0.1721  0.2376
 1720SOL    HW2 6951   0.561   1.623   3.055 -0.7342 -0.4134  0.9949
 1720SOL    HW3 6952   0.413   1.605   3.032 -0.6028  0.2112 -0.4667
 1720SOL    MW4 6953   0.489   1.640   3.009 -0.2120 -0.1534  0.2446
 1721SOL     OW 6954   0.448   1.892   3.135  0.0492  0.0744  0.1248
 1721SOL    HW2 6955   0.460   1.808   3.092  0.9581 -0.0672  0.6342
 1721SOL    HW3 6956   0.368   1.928   3.096 -0.8351 -1.4027  0.5369
 1721SOL    MW4 6957   0.439   1.886   3.124  0.0524 -0.1391  0.2465
 1722SOL     OW 6958   0.690   1.998   3.036 -0.4411 -0.2229  0.1451
 1722SOL    HW2 6959   0.765   1.951   3.073 -0.3403 -1.3559 -1.4501
 1722SOL    HW3 6960   0.613   1.953   3.072 -0.3446 -1.2226 -0.8723
 1722SOL    MW4 6961   0.690   1.986   3.046 -0.4150 -0.5041 -0.1996
 1723SOL     OW 6962   0.699   2.276   3.065 -0.1303 -0.0574  0.4062
 1723SOL    HW2 6963   0.699   2.291   3.160 -1.1607 -0.6505  0.5020
 1723SOL    HW3 6964   0.709   2.182   3.056  1.9313  0.1797 -0.1265
 1723SOL    MW4 6965   0.700   2.266   3.076  0.0058 -0.1044  0.3486
 1724SOL     OW 6966   0.462   2.391   2.997  0.0128 -0.3055 -0.4706
 1724SOL    HW2 6967   0.536   2.333   3.014  0.7124  0.7984  0.3162
 1724SOL    HW3 6968   0.467   2.411   2.904  1.8867  1.3510 -0.0343
 1724SOL    MW4 6969   0.472   2.386   2.987  0.3524  0.0587 -0.3090
 1725SOL     OW 6970   0.471   2.663   3.113 -0.2540  0.1483 -0.3809
 1725SOL    HW2 6971   0.545   2.709   3.073 -0.7809  0.1862 -1.3337
 1725SOL    HW3 6972   0.477   2.574   3.080  0.3052 -0.2713  0.8401
 1725SOL    MW4 6973   0.481   2.657   3.104 -0.2498  0.0978 -0.3455
 1726SOL     OW 6974   0.676   2.827   3.010  0.3161 -0.5417  0.1600
 1726SOL    HW2 6975   0.754   2.778   3.036  0.2812 -0.4574  0.4338
 1726SOL    HW3 6976   0.688   2.913   3.049  0.4508 -0.2835 -0.4601
 1726SOL    MW4 6977   0.688   2.832   3.019  0.3293 -0.4964  0.1144
 1727SOL     OW 6978   0.704   3.090   3.133 -0.1097 -0.0564 -0.1256
 1727SOL    HW2 6979   0.705   3.091   3.228 -0.4317 -1.6377 -0.0877
 1727SOL    HW3 6980   0.625   3.138   3.109  0.8892  1.8998  0.3332
 1727SOL    MW4 6981   0.694   3.096   3.142 -0.0204 -0.0069 -0.0601
 1728SOL     OW 6982   0.485   3.262   3.042 -0.0799  0.0586 -0.1442
 1728SOL    HW2 6983   0.471   3.349   3.081 -0.7537 -0.7684  1.4977
 1728SOL    HW3 6984   0.415   3.208   3.077 -0.0220 -1.0253 -1.6348
 1728SOL    MW4 6985   0.474   3.267   3.052 -0.1611 -0.1934 -0.1242
 1729SOL     OW 6986   0.453   3.524   3.114  0.0818 -0.7881  0.2881
 1729SOL    HW2 6987   0.454   3.527   3.210  1.5968  1.5523  0.2422
 1729SOL    HW3 6988   0.377   3.577   3.089  0.7283  0.0894  0.1730
 1729SOL    MW4 6989   0.443   3.531   3.123  0.3670 -0.3638  0.2668
 1730SOL     OW 6990   0.701   3.581   3.017  0.0471 -0.1458 -0.1216
 1730SOL    HW2 6991   0.772   3.543   3.069 -0.3216 -2.4133 -1.1965
 1730SOL    HW3 6992   0.621   3.554   3.062 -0.1845  1.3778  0.4096
 1730SOL    MW4 6993   0.700   3.572   3.030 -0.0321 -0.2439 -0.1934
 1731SOL     OW 6994   0.689   3.871   3.115 -0.5505 -0.1454 -0.1978
 1731SOL    HW2 6995   0.690   3.864   3.210  1.8813 -0.5817 -0.2209
 1731SOL    HW3 6996   0.679   3.781   3.085  0.3933 -0.2052 -0.3503
 1731SOL    MW4 6997   0.687   3.858   3.123 -0.1051 -0.2108 -0.2213
 1732SOL     OW 6998   0.450   4.021   3.041  0.1320 -0.2406 -0.1078
 1732SOL    HW2 6999   0.514   3.958   3.073  1.7740  1.3649 -0.1537
 1732SOL    HW3 7000   0.439   4.000   2.948 -1.7503 -2.4633  0.5774
 1732SOL    MW4 7001   0.457   4.010   3.033  0.1003 -0.3223 -0.0236
 1733SOL     OW 7002   0.458   4.263   3.170  0.3020 -0.1943 -0.7177
 1733SOL    HW2 7003   0.460   4.178   3.125 -1.2746  0.2311 -1.6162
 1733SOL    HW3 7004   0.386   4.310   3.129 -0.0310  0.8848  1.0536
 1733SOL    MW4 7005   0.449   4.258   3.159  0.0500  0.0038 -0.6025
 1734SOL     OW 7006   0.680   4.393   3.031  0.2703  0.0978  0.3609
 1734SOL    HW2 7007   0.605   4.352   3.073  0.2618 -0.8110 -0.5168
 1734SOL    HW3 7008   0.669   4.374   2.938  1.7124 -0.2786  0.2440
 1734SOL    MW4 7009   0.669   4.385   3.024  0.4594 -0.0715  0.2296
 1735SOL     OW 7010   1.103   0.017   3.095 -0.2501  0.0309  0.2058
 1735SOL    HW2 7011   1.178   0.053   3.047 -0.4788  2.6328  1.7109
 1735SOL    HW3 7012   1.030   0.075   3.072 -0.6813  0.4853  2.5653
 1735SOL    MW4 7013   1.103   0.029   3.085 -0.3372  0.4349  0.7155
 1736SOL     OW 7014   0.871   0.153   3.033 -0.3441 -0.7426  0.1764
 1736SOL    HW2 7015   0.852   0.231   3.085 -0.3703 -0.5684 -0.0925
 1736SOL    HW3 7016   0.816   0.085   3.070 -1.2706 -0.3136 -0.4084
 1736SOL    MW4 7017   0.861   0.154   3.045 -0.4698 -0.6630  0.0639
 1737SOL     OW 7018   0.814   0.391   3.151 -0.3566  0.3137 -0.4108
 1737SOL    HW2 7019   0.811   0.401   3.246 -0.3906  2.5206 -0.6052
 1737SOL    HW3 7020   0.905   0.412   3.128 -0.6479  1.0111 -0.9595
 1737SOL    MW4 7021   0.826   0.395   3.161 -0.3995  0.6969 -0.5090
 1738SOL     OW 7022   1.066   0.445   3.033  0.4156  0.1060  0.0974
 1738SOL    HW2 7023   1.147   0.396   3.041  0.0908 -0.7598 -1.6642
 1738SOL    HW3 7024   1.067   0.479   2.943 -0.8969  0.5668  0.2380
 1738SOL    MW4 7025   1.076   0.443   3.022  0.1997  0.0525 -0.1163
 1739SOL     OW 7026   1.134   0.715   3.089  0.0831  0.6071 -0.7840
 1739SOL    HW2 7027   1.147   0.713   3.183 -0.2437  0.0574 -0.7505
 1739SOL    HW3 7028   1.106   0.626   3.066 -0.4000  0.8940 -1.3172
 1739SOL    MW4 7029   1.132   0.703   3.098 -0.0238  0.5724 -0.8500
 1740SOL     OW 7030   0.916   0.887   3.036  0.0007 -0.7602 -0.0259
 1740SOL    HW2 7031   0.982   0.829   3.072 -0.8505  0.4760  3.8028
 1740SOL    HW3 7032   0.837   0.867   3.086 -0.7629  2.3784  0.1624
 1740SOL    MW4 7033   0.914   0.877   3.048 -0.2123 -0.1830  0.5040
 1741SOL     OW 7034   0.931   1.157   3.115  0.1049  0.1388  0.2705
 1741SOL    HW2 7035   1.010   1.193   3.076  0.2663 -0.3813  0.1063
 1741SOL    HW3 7036   0.922   1.070   3.075 -1.6159  0.9325 -1.1719
 1741SOL    MW4 7037   0.940   1.150   3.105 -0.1009  0.1749  0.0587
 1742SOL     OW 7038   1.169   1.285   3.021  0.0277 -0.5476  0.3137
 1742SOL    HW2 7039   1.246   1.230   3.034 -0.1268 -0.7223  0.4825
 1742SOL    HW3 7040   1.175   1.313   2.929  1.2638  0.9289  0.8203
 1742SOL    MW4 7041   1.180   1.282   3.010  0.1704 -0.3759  0.4027
 1743SOL     OW 7042   1.149   1.520   3.165  0.2451  0.3005 -0.0505
 1743SOL    HW2 7043   1.233   1.557   3.136 -0.0243  0.7422 -0.2845
 1743SOL    HW3 7044   1.147   1.432   3.130  0.9281  0.0391  0.5600
 1743SOL    MW4 7045   1.160   1.514   3.157  0.2996  0.3241 -0.0010
 1744SOL     OW 7046   0.923   1.614   3.038  0.3771  0.0016 -0.0618
 1744SOL    HW2 7047   1.003   1.591   3.085  0.0767  1.5583  1.2456
 1744SOL    HW3 7048   0.854   1.566   3.083  0.4981 -0.9754 -0.8994
 1744SOL    MW4 7049   0.924   1.605   3.050  0.3534  0.0781  0.0000
 1745SOL     OW 7050   0.935   1.887   3.098  0.4989  0.7115  0.7565
 1745SOL    HW2 7051   0.937   1.890   3.193 -1.3242 -0.0322  0.8431
 1745SOL    HW3 7052   0.932   1.793   3.077 -1.7086  0.9210  0.0664
 1745SOL    MW4 7053   0.935   1.875   3.108 -0.0330  0.6410  0.6771
 1746SOL     OW 7054   1.172   2.020   3.005 -0.4329 -0.2417 -0.4045
 1746SOL    HW2 7055   1.091   1.982   3.039 -2.0240  3.0611 -0.3109
 1746SOL    HW3 7056   1.149   2.049   2.916  0.5740  0.9101 -0.2936
 1746SOL    MW4 7057   1.158   2.019   2.997 -0.5100  0.3462 -0.3777
 1747SOL     OW 7058   1.162   2.287   3.110 -0.0876 -0.6537 -0.0107
 1747SOL    HW2 7059   1.084   2.330   3.074  0.0021 -0.2639  0.2587
 1747SOL    HW3 7060   1.154   2.196   3.082 -0.8883 -0.7183  0.4259
 1747SOL    MW4 7061   1.150   2.281   3.101 -0.1814 -0.6106  0.0825
 1748SOL     OW 7062   0.937   2.412   2.999 -0.3827  0.3581  0.5838
 1748SOL    HW2 7063   0.852   2.367   3.004 -1.1014  1.5685 -0.3328
 1748SOL    HW3 7064   0.948   2.431   2.906  1.0345 -0.0306  0.6703
 1748SOL    MW4 7065   0.927   2.408   2.988 -0.2906  0.4666  0.4745
 1749SOL     OW 7066   0.914   2.679   3.070 -0.3143  0.2346 -0.2087
 1749SOL    HW2 7067   0.914   2.676   3.165 -1.1967  1.2449 -0.1700
 1749SOL    HW3 7068   0.919   2.588   3.043 -1.2144 -0.1157  0.7980
 1749SOL    MW4 7069   0.915   2.667   3.079 -0.5495  0.3219 -0.0708
 1750SOL     OW 7070   1.138   2.806   2.982  0.7946 -0.3211  0.3876
 1750SOL    HW2 7071   1.133   2.893   3.020 -0.3853  0.6375 -1.8808
 1750SOL    HW3 7072   1.056   2.764   3.008  0.1581  0.2021 -0.7394
 1750SOL    MW4 7073   1.127   2.812   2.990  0.5550 -0.1256 -0.0606
 1751SOL     OW 7074   1.147   3.075   3.106  0.1217  0.6343  0.1091
 1751SOL    HW2 7075   1.225   3.121   3.073  0.3933  1.1077  1.3862
 1751SOL    HW3 7076   1.074   3.133   3.084  0.3351  1.0979  0.5905
 1751SOL    MW4 7077   1.148   3.089   3.099  0.1856  0.7577  0.3412
 1752SOL     OW 7078   0.925   3.226   3.046  0.0675  0.4244  0.0940
 1752SOL    HW2 7079   0.855   3.177   3.089  0.0248  1.1402  0.8408
 1752SOL    HW3 7080   0.902   3.224   2.953 -0.9900  0.7313  0.3425
 1752SOL    MW4 7081   0.913   3.219   3.039 -0.0777  0.5593  0.2253
 1753SOL     OW 7082   0.910   3.485   3.165 -0.0925  0.5263  0.2175
 1753SOL    HW2 7083   0.983   3.532   3.124  0.1323 -0.0140 -0.0131
 1753SOL    HW3 7084   0.905   3.403   3.116 -1.2245  0.8070 -0.1424
 1753SOL    MW4 7085   0.919   3.480   3.153 -0.2122  0.4919  0.1397
 1754SOL     OW 7086   1.091   3.616   3.005 -0.1785 -0.1216 -0.2578
 1754SOL    HW2 7087   1.182   3.589   3.019 -0.2420  0.1596  0.7422
 1754SOL    HW3 7088   1.088   3.705   3.040 -0.3590  0.6078 -2.0714
 1754SOL    MW4 7089   1.103   3.624   3.011 -0.2106  0.0119 -0.3650
 1755SOL     OW 7090   1.113   3.867   3.114 -0.3158  0.1927  0.0779
 1755SOL    HW2 7091   1.117   3.871   3.210  0.6181 -1.8256  0.1357
 1755SOL    HW3 7092   1.032   3.912   3.092 -1.9007 -1.6268  1.9814
 1755SOL    MW4 7093   1.103   3.874   3.124 -0.4016 -0.3138  0.3366
 1756SOL     OW 7094   0.902   4.019   2.995  0.0815 -0.0451 -0.1771
 1756SOL    HW2 7095   0.819   3.977   3.016 -1.1557  2.3144 -0.2898
 1756SOL    HW3 7096   0.910   4.008   2.900  0.0750 -0.5634 -0.1209
 1756SOL    MW4 7097   0.892   4.012   2.985 -0.0826  0.1979 -0.1843
 1757SOL     OW 7098   0.922   4.272   3.122  0.4920  0.7800  0.4852
 1757SOL    HW2 7099   0.930   4.185   3.083  1.9792  1.4924 -0.8623
 1757SOL    HW3 7100   0.837   4.304   3.094  0.7764  0.5429 -0.6676
 1757SOL    MW4 7101   0.912   4.265   3.113  0.7257  0.8426  0.1557
 1758SOL     OW 7102   1.121   4.430   2.996  0.2112 -0.1124  0.1297
 1758SOL    HW2 7103   1.057   4.384   3.051  0.0960 -0.8050 -0.5767
 1758SOL    HW3 7104   1.114   4.521   3.023 -2.0234  0.0432 -0.8474
 1758SOL    MW4 7105   1.112   4.436   3.007 -0.0988 -0.1831 -0.0923
 1759SOL     OW 7106   1.572   4.596   3.082  0.0440 -0.0530  0.0481
 1759SOL    HW2 7107   1.582   4.624   3.173 -0.2653  1.4159 -0.3623
 1759SOL    HW3 7108   1.482   4.619   3.059 -0.7200 -2.7116  0.1168
 1759SOL    MW4 7109   1.562   4.603   3.091 -0.0976 -0.2098  0.0031
 1760SOL     OW 7110   1.346   0.058   2.983 -0.4226 -0.1296 -0.5091
 1760SOL    HW2 7111   1.352   0.149   3.012  1.3885  0.0600 -1.3918
 1760SOL    HW3 7112   1.330   0.065   2.888 -0.1749 -0.7397 -0.5950
 1760SOL    MW4 7113   1.345   0.071   2.974 -0.1508 -0.1851 -0.6366
 1761SOL     OW 7114   1.316   0.319   3.086  0.3319  0.1332 -0.6879
 1761SOL    HW2 7115   1.319   0.341   3.179  0.2352 -0.6284 -0.5028
 1761SOL    HW3 7116   1.389   0.367   3.048  1.0701 -0.4366 -0.0199
 1761SOL    MW4 7117   1.326   0.328   3.093  0.4165 -0.0424 -0.5755
 1762SOL     OW 7118   1.533   0.449   2.955 -0.0444  0.6103  0.4068
 1762SOL    HW2 7119   1.543   0.529   3.006  0.3344 -0.2148  1.6409
 1762SOL    HW3 7120   1.566   0.471   2.868 -2.8417  2.7375 -0.2092
 1762SOL    MW4 7121   1.538   0.463   2.950 -0.3635  0.7821  0.4885
 1763SOL     OW 7122   1.576   0.702   3.085  0.1426 -0.3166  0.5708
 1763SOL    HW2 7123   1.560   0.725   3.176  1.7715  1.7193  0.3774
 1763SOL    HW3 7124   1.505   0.745   3.037 -0.8578 -1.5934  0.8662
 1763SOL    MW4 7125   1.564   0.711   3.090  0.2254 -0.2164  0.5844
 1764SOL     OW 7126   1.356   0.847   2.982  0.2149 -0.4648  0.4901
 1764SOL    HW2 7127   1.366   0.929   3.031 -1.0347 -0.0382  0.0707
 1764SOL    HW3 7128   1.280   0.805   3.023 -0.3939 -0.4460 -0.6113
 1764SOL    MW4 7129   1.347   0.852   2.994 -0.0303 -0.4060  0.2894
 1765SOL     OW 7130   1.394   1.110   3.087 -0.4515  0.3097 -0.0372
 1765SOL    HW2 7131   1.386   1.129   3.180  0.6630  2.5296 -0.3392
 1765SOL    HW3 7132   1.470   1.162   3.059 -1.3285  0.4042 -2.3626
 1765SOL    MW4 7133   1.403   1.119   3.096 -0.4200  0.6151 -0.3836
 1766SOL     OW 7134   1.600   1.264   2.980 -0.3257  0.4115 -0.6178
 1766SOL    HW2 7135   1.677   1.219   3.016  0.7446  2.2540 -0.5185
 1766SOL    HW3 7136   1.588   1.340   3.038 -2.6951 -0.2547 -0.1930
 1766SOL    MW4 7137   1.609   1.268   2.993 -0.4972  0.5666 -0.5486
 1767SOL     OW 7138   1.592   1.502   3.134  0.3416 -0.2541 -0.3928
 1767SOL    HW2 7139   1.514   1.549   3.105  0.7415  0.5393 -0.2009
 1767SOL    HW3 7140   1.591   1.509   3.229 -0.9242 -2.7910 -0.2074
 1767SOL    MW4 7141   1.582   1.509   3.142  0.2273 -0.4841 -0.3431
 1768SOL     OW 7142   1.371   1.602   3.012 -0.2181  0.4257 -0.0886
 1768SOL    HW2 7143   1.383   1.694   3.037 -2.8908  1.1749 -1.3604
 1768SOL    HW3 7144   1.347   1.605   2.920  1.4991 -1.7060 -0.6348
 1768SOL    MW4 7145   1.369   1.615   3.004 -0.3440  0.2434 -0.3285
 1769SOL     OW 7146   1.409   1.871   3.081  0.2062  0.1200  0.5098
 1769SOL    HW2 7147   1.416   1.899   3.172  0.8029  1.6500 -0.0022
 1769SOL    HW3 7148   1.325   1.907   3.051  0.3010  0.1431  0.2716
 1769SOL    MW4 7149   1.399   1.879   3.089  0.2974  0.3248  0.4108
 1770SOL     OW 7150   1.589   2.071   3.009  0.2153 -0.6304 -0.0028
 1770SOL    HW2 7151   1.516   2.018   3.039 -0.2701 -0.1716 -0.3466
 1770SOL    HW3 7152   1.577   2.078   2.914 -0.0838  0.5955  0.1095
 1770SOL    MW4 7153   1.578   2.065   3.000  0.1118 -0.4079 -0.0331
 1771SOL     OW 7154   1.579   2.365   3.071  0.5372  0.0633  0.5637
 1771SOL    HW2 7155   1.495   2.407   3.053  1.3685  1.4754 -0.1184
 1771SOL    HW3 7156   1.563   2.271   3.058 -1.1101  0.2544  1.1702
 1771SOL    MW4 7157   1.566   2.358   3.067  0.4295  0.2747  0.5534
 1772SOL     OW 7158   1.342   2.466   3.005  0.5824 -0.0259 -0.4230
 1772SOL    HW2 7159   1.278   2.397   3.021 -1.4183  1.8447 -0.0302
 1772SOL    HW3 7160   1.346   2.473   2.910  0.0059  0.0023 -0.4485
 1772SOL    MW4 7161   1.334   2.458   2.994  0.2424  0.2246 -0.3746
 1773SOL     OW 7162   1.353   2.733   3.140 -0.1671 -0.4483 -0.3731
 1773SOL    HW2 7163   1.368   2.644   3.109 -0.6503 -0.4618 -0.5820
 1773SOL    HW3 7164   1.286   2.768   3.081  0.1986  0.1366 -0.4472
 1773SOL    MW4 7165   1.346   2.726   3.128 -0.1826 -0.3729 -0.4103
 1774SOL     OW 7166   1.564   2.847   3.017  0.3953  0.1663  0.0232
 1774SOL    HW2 7167   1.642   2.803   3.051  0.8588  0.1224 -1.1066
 1774SOL    HW3 7168   1.491   2.804   3.062  0.9759 -0.2186  0.6082
 1774SOL    MW4 7169   1.565   2.836   3.028  0.5330  0.1099 -0.0486
 1775SOL     OW 7170   1.564   3.110   3.125  0.1359  0.2784  0.2933
 1775SOL    HW2 7171   1.559   3.079   3.215 -0.4125  1.0424  0.5336
 1775SOL    HW3 7172   1.551   3.032   3.072 -0.1155 -0.0805  0.8806
 1775SOL    MW4 7173   1.562   3.096   3.130  0.0304  0.3319  0.4025
 1776SOL     OW 7174   1.368   3.244   3.006  0.4553  0.1150  0.3813
 1776SOL    HW2 7175   1.452   3.207   3.034 -0.5168 -1.4220  1.3467
 1776SOL    HW3 7176   1.374   3.246   2.910  1.2168 -0.9601  0.3884
 1776SOL    MW4 7177   1.380   3.239   2.997  0.4276 -0.2296  0.5097
 1777SOL     OW 7178   1.380   3.509   3.075  0.0576 -0.7133  0.2011
 1777SOL    HW2 7179   1.382   3.512   3.170 -1.4459 -2.2401  0.3203
 1777SOL    HW3 7180   1.373   3.415   3.054 -1.0062 -0.3179 -1.3487
 1777SOL    MW4 7181   1.379   3.497   3.085 -0.2811 -0.8624  0.0122
 1778SOL     OW 7182   1.623   3.627   3.016 -0.1125  0.0373 -0.0805
 1778SOL    HW2 7183   1.542   3.578   3.035 -1.1933  1.7559 -0.0991
 1778SOL    HW3 7184   1.616   3.649   2.923  0.5199 -0.0466 -0.1464
 1778SOL    MW4 7185   1.611   3.624   3.006 -0.1718  0.2532 -0.0918
 1779SOL     OW 7186   1.540   3.873   3.066 -0.3776 -0.3897 -0.2909
 1779SOL    HW2 7187   1.618   3.926   3.046 -0.8322 -0.4023 -2.1321
 1779SOL    HW3 7188   1.569   3.783   3.053 -0.0390 -0.5470  1.3775
 1779SOL    MW4 7189   1.554   3.868   3.062 -0.3929 -0.4122 -0.3133
 1780SOL     OW 7190   1.324   3.993   2.981 -0.3729 -0.2217  0.2490
 1780SOL    HW2 7191   1.403   3.952   3.016 -0.6557 -1.9711 -1.1010
 1780SOL    HW3 7192   1.252   3.940   3.015 -1.0464  1.7881  2.0552
 1780SOL    MW4 7193   1.325   3.980   2.990 -0.4992 -0.1876  0.3092
 1781SOL     OW 7194   1.369   4.284   3.065  0.0003  0.2883 -0.2832
 1781SOL    HW2 7195   1.352   4.190   3.056  0.7524  0.1300 -0.0733
 1781SOL    HW3 7196   1.289   4.326   3.032 -0.6094 -0.4315  0.2521
 1781SOL    MW4 7197   1.356   4.277   3.059  0.0190  0.1726 -0.1853
 1782SOL     OW 7198   1.609   4.359   2.953  0.1134  0.5316 -0.1225
 1782SOL    HW2 7199   1.531   4.323   2.996 -0.4431  0.3723 -1.2290
 1782SOL    HW3 7200   1.609   4.451   2.978 -0.8397  0.6945 -0.6567
 1782SOL    MW4 7201   1.599   4.366   2.962 -0.0858  0.5317 -0.3390
 1783SOL     OW 7202   2.017   4.641   3.077 -0.2776 -0.0368 -0.2009
 1783SOL    HW2 7203   2.010   4.639   3.172  0.3226  0.3938 -0.1448
 1783SOL    HW3 7204   1.935   4.682   3.048 -0.6423 -0.5429  0.0987
 1783SOL    MW4 7205   2.005   4.646   3.085 -0.2468 -0.0472 -0.1540
 1784SOL     OW 7206   1.784   0.090   2.980  0.2838  0.2181  0.1742
 1784SOL    HW2 7207   1.709   0.033   2.994  0.6164 -0.1817  0.3188
 1784SOL    HW3 7208   1.799   0.088   2.885 -1.3792  2.1859 -0.1935
 1784SOL    MW4 7209   1.776   0.082   2.969  0.1081  0.4249  0.1447
 1785SOL     OW 7210   1.776   0.353   3.037 -0.4034  0.1497 -0.5005
 1785SOL    HW2 7211   1.772   0.258   3.024 -0.5687 -0.2465  2.2747
 1785SOL    HW3 7212   1.688   0.384   3.016 -0.5648 -0.3916 -0.6382
 1785SOL    MW4 7213   1.764   0.344   3.032 -0.4466  0.0260 -0.1523
 1786SOL     OW 7214   2.008   0.523   3.010 -0.0119 -0.2150 -0.3286
 1786SOL    HW2 7215   1.939   0.457   3.015  1.5252 -1.7666  1.1219
 1786SOL    HW3 7216   2.039   0.519   2.920 -2.3629  1.1284 -1.2501
 1786SOL    MW4 7217   2.003   0.514   2.999 -0.1192 -0.2425 -0.2587
 1787SOL     OW 7218   2.053   0.775   3.084 -0.0384  0.0220 -0.7315
 1787SOL    HW2 7219   1.971   0.816   3.056  0.0322  0.4548 -0.3094
 1787SOL    HW3 7220   2.040   0.682   3.068 -0.6089  0.0917 -0.6769
 1787SOL    MW4 7221   2.041   0.768   3.078 -0.1044  0.0883 -0.6685
 1788SOL     OW 7222   1.809   0.873   3.007 -0.2322  0.2997  0.0706
 1788SOL    HW2 7223   1.742   0.811   3.038  0.2464 -0.5530 -0.5643
 1788SOL    HW3 7224   1.807   0.864   2.912  1.6906 -0.7244  0.0892
 1788SOL    MW4 7225   1.800   0.864   2.998  0.0846  0.0522 -0.0107
 1789SOL     OW 7226   1.822   1.135   3.087  0.7271  0.1729  0.1632
 1789SOL    HW2 7227   1.796   1.126   3.179  2.4083 -0.9909  0.5612
 1789SOL    HW3 7228   1.810   1.047   3.050  1.3768  0.2962 -0.3540
 1789SOL    MW4 7229   1.817   1.122   3.094  1.0346  0.0358  0.1473
 1790SOL     OW 7230   2.027   1.295   2.985  0.0811  0.1229 -0.0651
 1790SOL    HW2 7231   2.055   1.377   3.027 -0.5121  0.6034 -0.5886
 1790SOL    HW3 7232   1.948   1.270   3.033  1.1692 -1.0470  1.1846
 1790SOL    MW4 7233   2.020   1.303   2.997  0.1462  0.0318  0.0308
 1791SOL     OW 7234   2.027   1.550   3.106  0.5179  0.1987  0.0167
 1791SOL    HW2 7235   2.016   1.573   3.198  0.3233 -0.7270  0.2247
 1791SOL    HW3 7236   1.942   1.570   3.066 -0.0659 -1.3403  0.4510
 1791SOL    MW4 7237   2.014   1.556   3.113  0.4153 -0.1266  0.1016
 1792SOL     OW 7238   1.796   1.642   3.009  0.0567  0.1806  0.1017
 1792SOL    HW2 7239   1.784   1.734   3.031 -1.3141  0.0220  0.0187
 1792SOL    HW3 7240   1.719   1.598   3.044  0.1081 -0.7530 -0.9308
 1792SOL    MW4 7241   1.784   1.649   3.016 -0.1174  0.0366 -0.0458
 1793SOL     OW 7242   1.805   1.931   3.088 -0.3244 -0.4819 -0.1997
 1793SOL    HW2 7243   1.873   1.984   3.047 -0.2076 -0.6610 -0.2386
 1793SOL    HW3 7244   1.723   1.973   3.062 -0.1835  0.7556  1.2484
 1793SOL    MW4 7245   1.803   1.944   3.079 -0.2904 -0.3422 -0.0138
 1794SOL     OW 7246   2.014   2.092   2.990 -0.2247 -0.3457  0.4566
 1794SOL    HW2 7247   2.079   2.026   3.015 -0.0986 -0.7085 -0.7728
 1794SOL    HW3 7248   2.030   2.165   3.049  0.2642 -1.0500  1.2105
 1794SOL    MW4 7249   2.025   2.093   3.001 -0.1435 -0.4866  0.3939
 1795SOL     OW 7250   2.050   2.322   3.134 -0.0635  0.1964 -0.1450
 1795SOL    HW2 7251   2.124   2.368   3.096  0.8193  1.0009  2.4184
 1795SOL    HW3 7252   1.975   2.379   3.118 -0.0040 -0.2613 -2.0823
 1795SOL    MW4 7253   2.050   2.336   3.127  0.0608  0.2420 -0.0622
 1796SOL     OW 7254   1.828   2.482   3.021 -0.0211 -0.4204 -0.4845
 1796SOL    HW2 7255   1.812   2.560   3.075 -1.5002 -0.0134 -1.4479
 1796SOL    HW3 7256   1.749   2.429   3.032  0.7678 -1.5660 -0.2324
 1796SOL    MW4 7257   1.815   2.486   3.030 -0.1122 -0.5176 -0.5782
 1797SOL     OW 7258   1.786   2.747   3.118  0.5772 -0.3462 -0.0959
 1797SOL    HW2 7259   1.771   2.749   3.213 -0.2522  1.5819 -0.2390
 1797SOL    HW3 7260   1.875   2.781   3.107  0.5122 -0.1531 -0.0298
 1797SOL    MW4 7261   1.796   2.752   3.129  0.4592 -0.0663 -0.1061
 1798SOL     OW 7262   2.024   2.842   3.065 -0.4410  0.0885  0.0518
 1798SOL    HW2 7263   2.033   2.930   3.101 -1.0112  0.8693 -1.6698
 1798SOL    HW3 7264   2.026   2.854   2.970  1.1561 -1.9356 -0.2215
 1798SOL    MW4 7265   2.025   2.855   3.057 -0.3054 -0.0756 -0.2115
 1799SOL     OW 7266   2.042   3.115   3.170 -0.4093  0.1819  0.4325
 1799SOL    HW2 7267   2.027   3.118   3.265  0.2105  1.2781  0.5105
 1799SOL    HW3 7268   1.958   3.141   3.132 -1.2983 -2.3674  0.6141
 1799SOL    MW4 7269   2.029   3.119   3.178 -0.4449 -0.0100  0.4666
 1800SOL     OW 7270   1.816   3.215   3.048 -0.5169  0.5113 -0.5156
 1800SOL    HW2 7271   1.726   3.196   3.074 -1.1567  1.8571 -1.6173
 1800SOL    HW3 7272   1.816   3.204   2.953  1.5603 -3.5487 -0.1369
 1800SOL    MW4 7273   1.804   3.211   3.039 -0.3272  0.1533 -0.6108
 1801SOL     OW 7274   1.831   3.485   3.131 -0.6482  0.2210 -0.1155
 1801SOL    HW2 7275   1.807   3.398   3.101 -2.6742  1.1141 -1.1857
 1801SOL    HW3 7276   1.762   3.542   3.097  0.3069  2.1529  1.0915
 1801SOL    MW4 7277   1.819   3.481   3.123 -0.7895  0.5939 -0.0975
 1802SOL     OW 7278   2.039   3.592   3.000  0.2224 -0.2366 -0.2411
 1802SOL    HW2 7279   2.044   3.679   3.040  0.3978  0.0230 -0.8198
 1802SOL    HW3 7280   1.965   3.550   3.043  2.6943 -1.4085  3.1625
 1802SOL    MW4 7281   2.030   3.598   3.011  0.5715 -0.3569  0.1316
 1803SOL     OW 7282   2.028   3.845   3.110  0.1927 -0.1001 -0.4855
 1803SOL    HW2 7283   2.039   3.867   3.202 -0.6657  1.4937 -0.7430
 1803SOL    HW3 7284   1.942   3.882   3.087 -0.7344 -2.6739 -1.2790
 1803SOL    MW4 7285   2.018   3.853   3.119 -0.0427 -0.2291 -0.6239
 1804SOL     OW 7286   1.804   3.971   3.004 -0.4329 -0.1306  0.0136
 1804SOL    HW2 7287   1.793   4.055   3.047  0.6535  0.1480 -0.2653
 1804SOL    HW3 7288   1.795   3.990   2.910  1.0461 -0.1332 -0.1263
 1804SOL    MW4 7289   1.801   3.984   2.997 -0.0944 -0.0942 -0.0417
 1805SOL     OW 7290   1.808   4.230   3.100  0.5281  0.1496 -0.4122
 1805SOL    HW2 7291   1.891   4.270   3.074  0.0762  1.2401 -0.1898
 1805SOL    HW3 7292   1.742   4.276   3.048  0.0993 -0.9812 -0.8763
 1805SOL    MW4 7293   1.810   4.241   3.090  0.4120  0.1445 -0.4444
 1806SOL     OW 7294   2.033   4.356   3.018  0.7481  0.0019  0.5063
 1806SOL    HW2 7295   2.035   4.450   3.039 -0.8070  0.1395  0.0930
 1806SOL    HW3 7296   2.041   4.353   2.923 -1.1491 -0.1730  0.3341
 1806SOL    MW4 7297   2.034   4.368   3.008  0.2925 -0.0029  0.4289
 1807SOL     OW 7298   2.460   0.046   3.117  0.6565  0.2635 -0.3384
 1807SOL    HW2 7299   2.472  -0.037   3.071 -0.5771 -0.1495  0.0755
 1807SOL    HW3 7300   2.370   0.072   3.098 -0.3866 -0.6554  2.9580
 1807SOL    MW4 7301   2.450   0.038   3.109  0.3564  0.0878  0.1512
 1808SOL     OW 7302   2.230   0.125   2.994 -0.3509 -0.1961  0.0180
 1808SOL    HW2 7303   2.222   0.220   3.010 -0.6479  0.0908 -1.7916
 1808SOL    HW3 7304   2.145   0.090   3.019  0.4824 -0.3491  2.9169
 1808SOL    MW4 7305   2.218   0.133   2.999 -0.2801 -0.1784  0.1616
 1809SOL     OW 7306   2.239   0.386   3.095  0.1781  0.1712 -0.6571
 1809SOL    HW2 7307   2.254   0.385   3.190  0.3456 -1.0190 -0.6896
 1809SOL    HW3 7308   2.154   0.427   3.085  0.7206  1.4569 -0.0716
 1809SOL    MW4 7309   2.230   0.391   3.107  0.2720  0.1838 -0.5844
 1810SOL     OW 7310   2.499   0.501   3.003  0.1386  0.0353  0.2831
 1810SOL    HW2 7311   2.425   0.444   3.023  0.4524 -0.3560  0.3410
 1810SOL    HW3 7312   2.488   0.524   2.911  0.0648 -0.1993  0.2340
 1810SOL    MW4 7313   2.488   0.496   2.994  0.1702 -0.0473  0.2842
 1811SOL     OW 7314   2.521   0.767   3.072 -0.0491 -0.0338  0.5838
 1811SOL    HW2 7315   2.437   0.805   3.046  0.8492  1.9682  0.5675
 1811SOL    HW3 7316   2.516   0.676   3.042 -1.8652  0.2911 -0.1646
 1811SOL    MW4 7317   2.509   0.760   3.065 -0.1702  0.2732  0.4830
 1812SOL     OW 7318   2.298   0.885   2.988 -0.5994  0.1210 -0.4411
 1812SOL    HW2 7319   2.284   0.978   3.010 -0.3215  0.5085 -1.8904
 1812SOL    HW3 7320   2.215   0.843   3.010 -0.9322  0.8191 -0.3390
 1812SOL    MW4 7321   2.285   0.892   2.994 -0.6068  0.2642 -0.6187
 1813SOL     OW 7322   2.239   1.149   3.085  0.4003 -0.1045  0.0180
 1813SOL    HW2 7323   2.223   1.158   3.179 -0.8252 -1.1365 -0.0834
 1813SOL    HW3 7324   2.171   1.202   3.044 -1.2323 -2.4078 -0.3520
 1813SOL    MW4 7325   2.228   1.157   3.092  0.0234 -0.5444 -0.0443
 1814SOL     OW 7326   2.472   1.286   3.024 -0.5239  0.1968 -0.5179
 1814SOL    HW2 7327   2.386   1.248   3.042  0.8738 -2.6392  0.4247
 1814SOL    HW3 7328   2.486   1.272   2.931 -0.4635 -0.6886 -0.3791
 1814SOL    MW4 7329   2.462   1.279   3.014 -0.3316 -0.2942 -0.3753
 1815SOL     OW 7330   2.476   1.552   3.067  0.0568 -0.5471  0.1125
 1815SOL    HW2 7331   2.400   1.584   3.020 -0.3294  0.0601  1.1340
 1815SOL    HW3 7332   2.488   1.462   3.036 -0.6694 -0.4218 -0.5342
 1815SOL    MW4 7333   2.468   1.544   3.057 -0.0899 -0.4505  0.1621
 1816SOL     OW 7334   2.244   1.660   2.954  0.4934  0.5426  0.6299
 1816SOL    HW2 7335   2.170   1.620   2.999  0.6578  0.5846  0.9329
 1816SOL    HW3 7336   2.228   1.641   2.861  0.5241 -0.1490  0.7654
 1816SOL    MW4 7337   2.232   1.652   2.948  0.5193  0.4570  0.6876
 1817SOL     OW 7338   2.222   1.914   3.055  0.2714 -0.7069 -0.0884
 1817SOL    HW2 7339   2.308   1.952   3.038  0.0895 -0.3684 -0.2404
 1817SOL    HW3 7340   2.226   1.828   3.013  0.0796 -0.1686 -1.2315
 1817SOL    MW4 7341   2.234   1.907   3.047  0.2220 -0.5912 -0.2592
 1818SOL     OW 7342   2.462   2.028   2.978 -0.2273 -0.1710  0.2124
 1818SOL    HW2 7343   2.543   1.986   3.008  1.3866  2.2533 -0.5488
 1818SOL    HW3 7344   2.474   2.037   2.883 -0.9153  1.1601  0.2343
 1818SOL    MW4 7345   2.474   2.024   2.969 -0.1049  0.3247  0.1149
 1819SOL     OW 7346   2.482   2.286   3.102  0.3263 -0.0060 -0.2752
 1819SOL    HW2 7347   2.479   2.275   3.197  1.5277 -0.1719 -0.2466
 1819SOL    HW3 7348   2.472   2.197   3.067 -1.3431  0.1840 -0.3586
 1819SOL    MW4 7349   2.480   2.273   3.110  0.2644 -0.0026 -0.2823
 1820SOL     OW 7350   2.273   2.474   3.024  0.0453 -0.5909  0.3278
 1820SOL    HW2 7351   2.270   2.541   3.092 -0.0447 -0.2120 -0.0498
 1820SOL    HW3 7352   2.352   2.423   3.044  0.3815 -0.0685  0.3260
 1820SOL    MW4 7353   2.283   2.476   3.035  0.0777 -0.4721  0.2775
 1821SOL     OW 7354   2.222   2.701   3.196 -0.4310 -0.0732 -0.4034
 1821SOL    HW2 7355   2.296   2.752   3.163 -0.2899 -1.2698 -1.9896
 1821SOL    HW3 7356   2.145   2.742   3.157 -0.6290  1.1173  1.1788
 1821SOL    MW4 7357   2.222   2.713   3.186 -0.4387 -0.0741 -0.4039
 1822SOL     OW 7358   2.426   2.837   3.049  0.0743  0.0647 -0.3372
 1822SOL    HW2 7359   2.452   2.920   3.089 -1.0552  0.6159 -0.7107
 1822SOL    HW3 7360   2.429   2.853   2.955 -1.1676  0.0201 -0.3963
 1822SOL    MW4 7361   2.430   2.850   3.042 -0.2384  0.1314 -0.3943
 1823SOL     OW 7362   2.528   3.117   3.104 -0.2934  0.0020  0.3406
 1823SOL    HW2 7363   2.599   3.178   3.081  0.2082 -0.8654 -0.4343
 1823SOL    HW3 7364   2.450   3.155   3.064  0.4497 -1.1466 -2.3710
 1823SOL    MW4 7365   2.527   3.130   3.096 -0.1292 -0.2639 -0.1194
 1824SOL     OW 7366   2.273   3.220   3.037 -0.2791 -0.0750 -0.7860
 1824SOL    HW2 7367   2.273   3.306   3.080 -0.3264  0.5139 -1.9411
 1824SOL    HW3 7368   2.193   3.178   3.068  0.0746  0.0377  0.2904
 1824SOL    MW4 7369   2.262   3.226   3.047 -0.2389  0.0174 -0.7963
 1825SOL     OW 7370   2.282   3.490   3.099  0.2470  0.1442  0.1070
 1825SOL    HW2 7371   2.350   3.526   3.041  0.2456 -0.5490 -0.3377
 1825SOL    HW3 7372   2.200   3.510   3.054  0.1563  0.8310  0.5611
 1825SOL    MW4 7373   2.280   3.498   3.085  0.2346  0.1433  0.1082
 1826SOL     OW 7374   2.491   3.652   2.987  0.1858  0.2651  0.0656
 1826SOL    HW2 7375   2.563   3.614   3.037  0.4014  0.6598  0.0541
 1826SOL    HW3 7376   2.465   3.729   3.037  0.6583  0.8796 -0.6290
 1826SOL    MW4 7377   2.497   3.657   3.000  0.2768  0.3984 -0.0274
 1827SOL     OW 7378   2.480   3.907   3.119 -0.3642 -0.1700  0.2995
 1827SOL    HW2 7379   2.490   3.894   3.213 -0.7762 -0.5374  0.2955
 1827SOL    HW3 7380   2.564   3.943   3.091  0.2360 -1.3237  0.5815
 1827SOL    MW4 7381   2.493   3.910   3.128 -0.3393 -0.3707  0.3362
 1828SOL     OW 7382   2.235   3.994   3.000 -0.1761  0.0329  0.0539
 1828SOL    HW2 7383   2.315   3.953   3.032 -0.0142 -2.9291 -3.7362
 1828SOL    HW3 7384   2.165   3.934   3.026 -0.5976  0.1624 -0.7623
 1828SOL    MW4 7385   2.237   3.980   3.007 -0.2103 -0.3407 -0.5536
 1829SOL     OW 7386   2.287   4.247   3.074 -0.2699 -0.1364 -0.0771
 1829SOL    HW2 7387   2.269   4.156   3.054 -1.0962 -0.2258  1.0803
 1829SOL    HW3 7388   2.203   4.291   3.065 -0.3227  0.1159  1.5503
 1829SOL    MW4 7389   2.274   4.241   3.070 -0.3862 -0.1149  0.2904
 1830SOL     OW 7390   2.466   4.454   2.995 -0.2570 -0.4873  0.3639
 1830SOL    HW2 7391   2.402   4.387   3.018 -0.6325 -0.4873 -0.6813
 1830SOL    HW3 7392   2.495   4.430   2.907  0.2413  0.2374  0.3320
 1830SOL    MW4 7393   2.461   4.442   2.986 -0.2408 -0.3920  0.2220
 1831SOL     OW 7394   2.932   0.010   3.142 -0.0982  0.4626 -0.0769
 1831SOL    HW2 7395   3.006   0.056   3.102 -1.2277  0.5085 -2.1551
 1831SOL    HW3 7396   2.927  -0.073   3.094 -1.8729  0.7870 -0.4475
 1831SOL    MW4 7397   2.941   0.005   3.131 -0.4814  0.5116 -0.3998
 1832SOL     OW 7398   2.722   0.145   3.026 -0.3559 -0.2207  0.0311
 1832SOL    HW2 7399   2.790   0.100   3.076  0.1971  0.4749 -0.1004
 1832SOL    HW3 7400   2.640   0.108   3.061  0.0454 -0.3553  0.8626
 1832SOL    MW4 7401   2.720   0.134   3.037 -0.2303 -0.1467  0.1233
 1833SOL     OW 7402   2.715   0.398   3.137 -0.0736  0.3655  0.3439
 1833SOL    HW2 7403   2.726   0.313   3.094  0.4879  0.2133  0.7887
 1833SOL    HW3 7404   2.638   0.436   3.095 -0.1931 -0.2672 -0.0144
 1833SOL    MW4 7405   2.706   0.392   3.126 -0.0150  0.2620  0.3550
 1834SOL     OW 7406   2.977   0.523   3.005  0.6376  0.1305  0.0147
 1834SOL    HW2 7407   2.911   0.483   3.060 -0.5910  0.0777 -1.4706
 1834SOL    HW3 7408   2.943   0.516   2.916  3.0191 -0.6705 -0.8841
 1834SOL    MW4 7409   2.964   0.517   3.001  0.7899  0.0178 -0.2999
 1835SOL     OW 7410   2.936   0.784   3.099  0.5327  0.4762  0.6405
 1835SOL    HW2 7411   2.936   0.787   3.194  0.4641 -0.5457  0.6774
 1835SOL    HW3 7412   2.952   0.691   3.078  1.4076  0.8336 -0.3344
 1835SOL    MW4 7413   2.938   0.772   3.109  0.6390  0.3886  0.5167
 1836SOL     OW 7414   2.739   0.922   2.953 -0.7458 -0.6578  0.3636
 1836SOL    HW2 7415   2.813   0.883   2.998  0.0879 -0.1289 -0.5409
 1836SOL    HW3 7416   2.662   0.886   2.998  0.0123 -2.4459  0.2815
 1836SOL    MW4 7417   2.738   0.912   2.965 -0.5355 -0.8239  0.2337
 1837SOL     OW 7418   2.743   1.190   3.090 -0.1006  0.0255  0.3248
 1837SOL    HW2 7419   2.738   1.098   3.063 -0.0856 -0.0622  0.6260
 1837SOL    HW3 7420   2.653   1.222   3.078 -0.0412  0.0531 -0.0676
 1837SOL    MW4 7421   2.730   1.182   3.085 -0.0908  0.0175  0.3126
 1838SOL     OW 7422   2.952   1.325   2.948 -0.0531  0.2478 -0.0188
 1838SOL    HW2 7423   2.963   1.400   3.007  1.6960 -0.2104  0.2360
 1838SOL    HW3 7424   2.872   1.282   2.980 -0.9807  1.8820 -0.0587
 1838SOL    MW4 7425   2.943   1.330   2.960  0.0553  0.4030  0.0095
 1839SOL     OW 7426   2.974   1.550   3.130  0.2213  0.3494 -0.1404
 1839SOL    HW2 7427   2.972   1.557   3.225  0.1126 -0.5359 -0.0728
 1839SOL    HW3 7428   3.034   1.619   3.102 -0.7174  1.4384  0.4754
 1839SOL    MW4 7429   2.982   1.560   3.139  0.0834  0.3762 -0.0498
 1840SOL     OW 7430   2.732   1.660   3.019 -0.0905 -0.1012  0.3104
 1840SOL    HW2 7431   2.800   1.626   3.077 -0.4267  0.5815  1.1186
 1840SOL    HW3 7432   2.653   1.614   3.046 -0.2044  0.0587  0.2497
 1840SOL    MW4 7433   2.731   1.650   3.031 -0.1500  0.0101  0.4089
 1841SOL     OW 7434   2.675   1.926   3.098  0.2971 -0.2906 -0.0751
 1841SOL    HW2 7435   2.766   1.952   3.087  0.2387 -0.4580 -0.9721
 1841SOL    HW3 7436   2.675   1.831   3.083 -0.4074  0.0566 -2.5645
 1841SOL    MW4 7437   2.687   1.917   3.094  0.1965 -0.2669 -0.5221
 1842SOL     OW 7438   2.920   2.055   3.056  0.5285  0.2561 -0.1701
 1842SOL    HW2 7439   2.908   2.148   3.074 -3.8287 -0.2202 -0.1152
 1842SOL    HW3 7440   2.923   2.049   2.960 -0.5848  0.3093 -0.2083
 1842SOL    MW4 7441   2.919   2.066   3.046 -0.1931  0.2003 -0.1678
 1843SOL     OW 7442   2.917   2.327   3.129 -0.6349 -0.6273 -0.4347
 1843SOL    HW2 7443   3.001   2.368   3.106 -0.1434  0.1165  2.5004
 1843SOL    HW3 7444   2.852   2.382   3.085  0.2354  1.1562  0.4236
 1843SOL    MW4 7445   2.920   2.340   3.120 -0.4554 -0.2942  0.0660
 1844SOL     OW 7446   2.697   2.441   3.016 -0.0393 -0.2144  0.1025
 1844SOL    HW2 7447   2.686   2.514   3.077 -0.5808  0.6271 -1.0082
 1844SOL    HW3 7448   2.621   2.385   3.033 -0.3135  0.1381  0.0336
 1844SOL    MW4 7449   2.685   2.443   3.027 -0.1469 -0.0570 -0.0529
 1845SOL     OW 7450   2.664   2.698   3.128  0.4024 -0.2438 -0.3807
 1845SOL    HW2 7451   2.663   2.726   3.219  0.2163  0.1066 -0.4883
 1845SOL    HW3 7452   2.592   2.746   3.087  0.5638 -0.3022 -0.7418
 1845SOL    MW4 7453   2.654   2.708   3.134  0.3991 -0.2053 -0.4427
 1846SOL     OW 7454   2.913   2.823   3.036  0.4198  0.4025  0.2569
 1846SOL    HW2 7455   2.990   2.787   3.080  0.1501  0.0523  0.4436
 1846SOL    HW3 7456   2.839   2.782   3.080  0.1417  0.2160 -0.3831
 1846SOL    MW4 7457   2.914   2.813   3.048  0.3476  0.3316  0.1972
 1847SOL     OW 7458   2.939   3.072   3.149 -0.2109  0.3618  0.1585
 1847SOL    HW2 7459   2.862   3.129   3.151  0.2525  0.9802  0.5710
 1847SOL    HW3 7460   2.909   2.993   3.104 -1.1079  0.5618  0.3951
 1847SOL    MW4 7461   2.925   3.069   3.143 -0.2682  0.4702  0.2444
 1848SOL     OW 7462   2.739   3.251   3.010 -0.2237  0.0442 -0.1941
 1848SOL    HW2 7463   2.736   3.341   3.040  0.3203 -0.0748  0.2339
 1848SOL    HW3 7464   2.721   3.256   2.916 -0.0466  0.6128 -0.1979
 1848SOL    MW4 7465   2.736   3.263   3.002 -0.1287  0.1037 -0.1380
 1849SOL     OW 7466   2.703   3.490   3.148 -0.3730 -0.2633 -0.1281
 1849SOL    HW2 7467   2.697   3.483   3.244  0.0867  0.6943 -0.0160
 1849SOL    HW3 7468   2.783   3.542   3.134 -0.4821 -0.3439 -1.0276
 1849SOL    MW4 7469   2.713   3.496   3.159 -0.3264 -0.1473 -0.2317
 1850SOL     OW 7470   2.916   3.651   3.039 -0.0569  0.4307 -0.4927
 1850SOL    HW2 7471   2.984   3.596   3.076 -1.1047 -0.0871  0.7021
 1850SOL    HW3 7472   2.930   3.737   3.079 -0.5164  0.1504  0.2775
 1850SOL    MW4 7473   2.927   3.655   3.049 -0.2556  0.3254 -0.2334
 1851SOL     OW 7474   2.954   3.910   3.122 -0.2126  0.0684 -0.1269
 1851SOL    HW2 7475   2.935   3.889   3.214 -0.6210 -0.0558 -0.2375
 1851SOL    HW3 7476   2.878   3.961   3.093 -1.5849 -2.5303 -1.2868
 1851SOL    MW4 7477   2.941   3.914   3.130 -0.4475 -0.2909 -0.2947
 1852SOL     OW 7478   2.734   4.050   2.994  0.0497  0.2835  0.0592
 1852SOL    HW2 7479   2.741   4.144   3.007  0.5697  0.2093  0.3216
 1852SOL    HW3 7480   2.720   4.040   2.900  1.1383  0.5645 -0.1372
 1852SOL    MW4 7481   2.733   4.061   2.983  0.2620  0.3109  0.0679
 1853SOL     OW 7482   2.695   4.316   3.082 -0.4924 -0.2102 -0.1079
 1853SOL    HW2 7483   2.712   4.325   3.175  0.6531  0.9220 -0.4130
 1853SOL    HW3 7484   2.622   4.376   3.064  1.7137  2.4114 -0.6025
 1853SOL    MW4 7485   2.688   4.325   3.092 -0.0503  0.2851 -0.2136
 1854SOL     OW 7486   2.940   4.432   3.003 -0.0266 -0.2336  0.3569
 1854SOL    HW2 7487   2.996   4.366   3.045 -1.4485 -1.7259 -0.0078
 1854SOL    HW3 7488   2.851   4.403   3.024 -0.6685  1.6230  0.2124
 1854SOL    MW4 7489   2.936   4.419   3.012 -0.2990 -0.1860  0.2899
 1855SOL     OW 7490   3.356   0.004   3.093  0.2766 -0.3295  0.1485
 1855SOL    HW2 7491   3.428   0.043   3.043  0.9353 -2.0429 -0.2894
 1855SOL    HW3 7492   3.352  -0.087   3.062 -0.6430 -0.8526  1.7563
 1855SOL    MW4 7493   3.365  -0.003   3.082  0.2420 -0.6246  0.3026
 1856SOL     OW 7494   3.129   0.143   3.013  0.3118 -0.4243 -0.3395
 1856SOL    HW2 7495   3.145   0.222   3.065 -0.7486  0.6444 -1.6052
 1856SOL    HW3 7496   3.210   0.093   3.018  1.4048  1.3299 -0.5302
 1856SOL    MW4 7497   3.141   0.146   3.021  0.3161 -0.0518 -0.5319
 1857SOL     OW 7498   3.201   0.396   3.116 -0.8360 -0.1410 -0.3526
 1857SOL    HW2 7499   3.266   0.449   3.070 -0.9535  0.6829  0.4147
 1857SOL    HW3 7500   3.117   0.428   3.084 -0.8820 -0.6045 -0.6912
 1857SOL    MW4 7501   3.199   0.407   3.106 -0.8576 -0.0934 -0.2961
 1858SOL     OW 7502   3.409   0.523   2.990  0.2596  0.2565  0.0199
 1858SOL    HW2 7503   3.483   0.465   3.010  0.2001 -0.0184 -0.5330
 1858SOL    HW3 7504   3.394   0.509   2.896 -0.5491  0.2543  0.1537
 1858SOL    MW4 7505   3.417   0.513   2.980  0.1450  0.2199 -0.0355
 1859SOL     OW 7506   3.385   0.763   3.100 -0.7503  0.0454  0.5218
 1859SOL    HW2 7507   3.386   0.739   3.193  2.7046 -0.7269  0.3281
 1859SOL    HW3 7508   3.391   0.679   3.054 -1.2723  0.5011 -0.3838
 1859SOL    MW4 7509   3.386   0.749   3.106 -0.3636  0.0036  0.3765
 1860SOL     OW 7510   3.163   0.887   3.016 -0.2969 -0.6264  0.3069
 1860SOL    HW2 7511   3.235   0.839   3.057 -1.4468 -1.3080  1.5408
 1860SOL    HW3 7512   3.084   0.844   3.047 -1.2491  0.0009 -1.1949
 1860SOL    MW4 7513   3.162   0.875   3.025 -0.5746 -0.6335  0.2716
 1861SOL     OW 7514   3.140   1.152   3.110 -0.1019 -0.1633 -0.0853
 1861SOL    HW2 7515   3.162   1.069   3.070 -0.8229 -0.7683  0.7495
 1861SOL    HW3 7516   3.065   1.185   3.060  2.1307  1.5136 -2.4170
 1861SOL    MW4 7517   3.133   1.146   3.098  0.0975 -0.0218 -0.2830
 1862SOL     OW 7518   3.369   1.282   3.031 -0.5459 -0.4112  0.2779
 1862SOL    HW2 7519   3.438   1.230   3.071 -0.6565 -0.2772  0.6446
 1862SOL    HW3 7520   3.290   1.229   3.043 -0.5582 -0.4281  0.1244
 1862SOL    MW4 7521   3.367   1.268   3.038 -0.5620 -0.3957  0.3061
 1863SOL     OW 7522   3.378   1.544   3.120 -0.2231 -0.0560  0.4538
 1863SOL    HW2 7523   3.386   1.539   3.216  2.6835  0.4047  0.2717
 1863SOL    HW3 7524   3.377   1.452   3.092 -1.2903 -0.1996  0.9080
 1863SOL    MW4 7525   3.379   1.531   3.129  0.0198 -0.0142  0.4897
 1864SOL     OW 7526   3.171   1.720   3.018 -0.0166  0.1123  0.3281
 1864SOL    HW2 7527   3.244   1.671   3.058  0.4210  0.9611  0.5791
 1864SOL    HW3 7528   3.187   1.713   2.924 -0.1467 -0.5154  0.3471
 1864SOL    MW4 7529   3.183   1.713   3.011  0.0241  0.1414  0.3636
 1865SOL     OW 7530   3.186   1.968   3.136  0.0203 -0.1844 -0.0006
 1865SOL    HW2 7531   3.185   1.882   3.093  0.1625  0.0237 -0.4323
 1865SOL    HW3 7532   3.109   2.013   3.101  0.4217  0.1739 -0.4380
 1865SOL    MW4 7533   3.176   1.963   3.126  0.0920 -0.1097 -0.1152
 1866SOL     OW 7534   3.402   2.087   3.018 -0.0541 -0.1599 -0.1496
 1866SOL    HW2 7535   3.478   2.032   3.038  0.6142  1.6538  2.5258
 1866SOL    HW3 7536   3.332   2.051   3.072 -0.1393  0.4037  0.1162
 1866SOL    MW4 7537   3.403   2.075   3.028  0.0229  0.1538  0.2382
 1867SOL     OW 7538   3.383   2.350   3.106  0.2330 -0.4173  0.3012
 1867SOL    HW2 7539   3.362   2.353   3.199 -1.8361  0.6094 -0.1486
 1867SOL    HW3 7540   3.356   2.263   3.077 -1.2735  0.0404  0.2423
 1867SOL    MW4 7541   3.377   2.339   3.114 -0.2389 -0.2215  0.2341
 1868SOL     OW 7542   3.146   2.479   3.009 -0.4872  0.1751 -0.2003
 1868SOL    HW2 7543   3.228   2.435   3.034 -0.2197  0.5904 -0.3366
 1868SOL    HW3 7544   3.140   2.467   2.915 -0.8809 -0.3494 -0.1142
 1868SOL    MW4 7545   3.156   2.471   3.000 -0.5038  0.1607 -0.2069
 1869SOL     OW 7546   3.161   2.730   3.115 -0.3996  0.4590  0.2281
 1869SOL    HW2 7547   3.160   2.724   3.211  1.8608  0.1678  0.2800
 1869SOL    HW3 7548   3.150   2.640   3.085 -0.7023  0.4971  0.2269
 1869SOL    MW4 7549   3.160   2.717   3.124 -0.1414  0.4256  0.2351
 1870SOL     OW 7550   3.402   2.874   3.032  0.0128 -0.4076  0.4270
 1870SOL    HW2 7551   3.393   2.965   3.059 -0.1731 -0.4229  0.4146
 1870SOL    HW3 7552   3.321   2.832   3.060  0.2352 -0.6393  0.7167
 1870SOL    MW4 7553   3.390   2.880   3.039  0.0179 -0.4404  0.4640
 1871SOL     OW 7554   3.371   3.129   3.145 -0.0498 -0.2237 -0.1512
 1871SOL    HW2 7555   3.359   3.118   3.239  0.8046  2.0608  0.2532
 1871SOL    HW3 7556   3.304   3.192   3.119  0.8418  0.5098 -0.7200
 1871SOL    MW4 7557   3.361   3.136   3.154  0.1802  0.1745 -0.1731
 1872SOL     OW 7558   3.145   3.252   3.024  0.2865  0.0969 -0.1165
 1872SOL    HW2 7559   3.080   3.184   3.044  0.6965 -0.1287  0.4578
 1872SOL    HW3 7560   3.155   3.248   2.929  0.7677 -1.0922 -0.0350
 1872SOL    MW4 7561   3.138   3.242   3.014  0.4044 -0.0896 -0.0296
 1873SOL     OW 7562   3.151   3.521   3.131 -0.1834 -0.5658  0.5847
 1873SOL    HW2 7563   3.232   3.561   3.100 -0.9843  0.5758 -0.0639
 1873SOL    HW3 7564   3.160   3.428   3.107  0.0221 -0.0638 -1.4245
 1873SOL    MW4 7565   3.163   3.514   3.123 -0.2618 -0.3488  0.2341
 1874SOL     OW 7566   3.379   3.632   3.037 -0.2404  0.2051 -0.0915
 1874SOL    HW2 7567   3.463   3.590   3.055 -0.8079 -0.5175  0.9188
 1874SOL    HW3 7568   3.391   3.722   3.067 -0.4140 -0.3757  1.8256
 1874SOL    MW4 7569   3.392   3.638   3.043 -0.3383  0.0329  0.2944
 1875SOL     OW 7570   3.420   3.877   3.143  0.0721 -0.3359 -0.0245
 1875SOL    HW2 7571   3.413   3.879   3.239 -1.0644  0.7311 -0.1050
 1875SOL    HW3 7572   3.346   3.931   3.114  1.7518  1.2803 -1.4226
 1875SOL    MW4 7573   3.409   3.885   3.152  0.1435  0.0184 -0.2196
 1876SOL     OW 7574   3.184   4.005   3.010  0.3075  0.1903 -0.3680
 1876SOL    HW2 7575   3.106   3.970   3.054  0.7108 -0.1388  0.0909
 1876SOL    HW3 7576   3.161   4.007   2.917  0.6871 -2.3850 -0.5375
 1876SOL    MW4 7577   3.171   4.001   3.004  0.4110 -0.1926 -0.3300
 1877SOL     OW 7578   3.148   4.255   3.130  0.0614 -0.0042 -0.1680
 1877SOL    HW2 7579   3.149   4.237   3.224 -0.6549  0.3593 -0.0905
 1877SOL    HW3 7580   3.171   4.171   3.089  2.2243  0.2866  0.3915
 1877SOL    MW4 7581   3.151   4.242   3.137  0.2525  0.0825 -0.0837
 1878SOL     OW 7582   3.357   4.398   3.036 -0.0122 -0.0860 -0.2029
 1878SOL    HW2 7583   3.427   4.343   3.071  1.6380  1.3040 -1.2953
 1878SOL    HW3 7584   3.277   4.350   3.059  1.3349 -2.5048 -0.3396
 1878SOL    MW4 7585   3.355   4.384   3.044  0.3836 -0.2217 -0.3650
 1879SOL     OW 7586   3.792   4.664   3.143 -0.6560 -0.4730  0.3117
 1879SOL    HW2 7587   3.782   4.574   3.112  0.1243 -0.5926  0.3954
 1879SOL    HW3 7588   3.715   4.710   3.109 -0.0964 -0.7222 -1.3439
 1879SOL    MW4 7589   3.780   4.659   3.135 -0.4792 -0.5217  0.1042
 1880SOL     OW 7590   3.591   0.106   3.008 -0.2556  0.0237  0.4722
 1880SOL    HW2 7591   3.589   0.201   3.018  1.2398  0.1452 -0.2095
 1880SOL    HW3 7592   3.604   0.092   2.914  2.0878 -0.7935  0.8868
 1880SOL    MW4 7593   3.592   0.116   2.997  0.2508 -0.0681  0.4373
 1881SOL     OW 7594   3.623   0.364   3.059 -0.0577  0.3325 -0.2965
 1881SOL    HW2 7595   3.607   0.371   3.153 -0.6772  0.7759 -0.4303
 1881SOL    HW3 7596   3.701   0.418   3.044 -0.3799  0.8507 -0.1435
 1881SOL    MW4 7597   3.631   0.372   3.069 -0.1819  0.4594 -0.2937
 1882SOL     OW 7598   3.841   0.540   3.024 -0.3914 -0.0816 -0.4800
 1882SOL    HW2 7599   3.911   0.502   3.077 -1.3475 -0.5112  0.5063
 1882SOL    HW3 7600   3.834   0.630   3.054 -2.0324 -0.7780  1.3197
 1882SOL    MW4 7601   3.849   0.546   3.035 -0.7339 -0.2301 -0.1123
 1883SOL     OW 7602   3.815   0.787   3.136 -0.3461 -0.4713  0.3246
 1883SOL    HW2 7603   3.800   0.810   3.227 -0.1933 -3.2339  1.0723
 1883SOL    HW3 7604   3.909   0.794   3.124 -0.2579 -1.0568  0.6564
 1883SOL    MW4 7605   3.825   0.791   3.146 -0.3140 -0.9130  0.4668
 1884SOL     OW 7606   3.598   0.908   3.008 -0.0600  0.1674  0.2161
 1884SOL    HW2 7607   3.671   0.866   3.051 -0.5517 -1.3821 -0.4411
 1884SOL    HW3 7608   3.520   0.863   3.041 -0.7236  1.6066  0.7001
 1884SOL    MW4 7609   3.597   0.897   3.018 -0.2124  0.1528  0.1934
 1885SOL     OW 7610   3.592   1.131   3.134  0.3086  0.0821  0.1493
 1885SOL    HW2 7611   3.653   1.192   3.093  2.5176 -2.1210  0.0405
 1885SOL    HW3 7612   3.599   1.051   3.082 -0.2951 -1.2229  2.0070
 1885SOL    MW4 7613   3.601   1.129   3.122  0.5205 -0.3806  0.3800
 1886SOL     OW 7614   3.793   1.254   2.983  0.1321 -0.6442  0.1057
 1886SOL    HW2 7615   3.804   1.340   3.024 -0.7507 -0.3792 -0.2075
 1886SOL    HW3 7616   3.793   1.272   2.889  1.1418 -1.1334 -0.0000
 1886SOL    MW4 7617   3.795   1.268   2.976  0.1490 -0.6738  0.0501
 1887SOL     OW 7618   3.851   1.497   3.141  0.1069 -0.1751 -0.0027
 1887SOL    HW2 7619   3.834   1.512   3.234  1.4205  0.7658  0.0892
 1887SOL    HW3 7620   3.781   1.545   3.096  0.5605  0.9463  0.4664
 1887SOL    MW4 7621   3.839   1.506   3.147  0.3400  0.0969  0.0713
 1888SOL     OW 7622   3.626   1.642   3.033  0.4968 -0.3948 -0.2506
 1888SOL    HW2 7623   3.540   1.611   3.062  0.3842 -0.0854 -0.2490
 1888SOL    HW3 7624   3.617   1.653   2.938  0.0792  1.0479 -0.0570
 1888SOL    MW4 7625   3.614   1.640   3.024  0.4268 -0.1636 -0.2248
 1889SOL     OW 7626   3.629   1.905   3.111 -0.0393  0.4759  0.3438
 1889SOL    HW2 7627   3.613   1.915   3.205 -1.4242 -0.1021  0.1839
 1889SOL    HW3 7628   3.632   1.810   3.098 -0.3700  0.5514 -0.2791
 1889SOL    MW4 7629   3.628   1.894   3.122 -0.2656  0.4095  0.2406
 1890SOL     OW 7630   3.841   2.046   3.015 -0.3563  0.1698 -0.0958
 1890SOL    HW2 7631   3.827   2.135   3.048  0.0156  0.1125  0.2265
 1890SOL    HW3 7632   3.770   1.995   3.054 -0.3311  0.2471  0.0551
 1890SOL    MW4 7633   3.830   2.051   3.025 -0.3037  0.1726 -0.0331
 1891SOL     OW 7634   3.827   2.327   3.105  0.3920  0.5312 -0.6767
 1891SOL    HW2 7635   3.816   2.336   3.199 -1.2640 -2.5470 -0.4859
 1891SOL    HW3 7636   3.755   2.377   3.067  0.2381  0.6301 -0.2527
 1891SOL    MW4 7637   3.816   2.335   3.112  0.1533  0.1380 -0.5956
 1892SOL     OW 7638   3.610   2.486   3.002 -0.0918 -0.1787  0.2833
 1892SOL    HW2 7639   3.622   2.569   3.048 -0.7185  0.5262 -0.7887
 1892SOL    HW3 7640   3.535   2.445   3.046 -0.4058  0.2831  0.1818
 1892SOL    MW4 7641   3.602   2.491   3.014 -0.2158 -0.0248  0.1287
 1893SOL     OW 7642   3.660   2.735   3.148  0.2545  0.4274 -0.2434
 1893SOL    HW2 7643   3.732   2.789   3.116  0.0412 -0.3479 -2.0950
 1893SOL    HW3 7644   3.582   2.789   3.135  0.3435  0.7694  0.5816
 1893SOL    MW4 7645   3.659   2.749   3.142  0.2382  0.3703 -0.3791
 1894SOL     OW 7646   3.873   2.859   3.023  0.3627  0.3205 -0.1268
 1894SOL    HW2 7647   3.858   2.950   3.049 -0.1551  0.2191 -0.0722
 1894SOL    HW3 7648   3.874   2.861   2.928  0.7368  0.4445 -0.1221
 1894SOL    MW4 7649   3.872   2.872   3.014  0.3438  0.3235 -0.1190
 1895SOL     OW 7650   3.859   3.129   3.126  0.0524 -0.8719  0.2568
 1895SOL    HW2 7651   3.927   3.173   3.075 -0.3477  0.3414  0.7508
 1895SOL    HW3 7652   3.777   3.171   3.100 -0.2961 -1.0491  1.0223
 1895SOL    MW4 7653   3.857   3.140   3.116 -0.0463 -0.7350  0.4230
 1896SOL     OW 7654   3.610   3.214   3.058  0.0626 -0.1206  0.4231
 1896SOL    HW2 7655   3.519   3.194   3.080  0.1021 -0.1619  0.5459
 1896SOL    HW3 7656   3.617   3.192   2.965  0.0174 -0.3650  0.4778
 1896SOL    MW4 7657   3.599   3.208   3.048  0.0620 -0.1583  0.4466
 1897SOL     OW 7658   3.578   3.474   3.129 -0.2794  0.1818 -0.2945
 1897SOL    HW2 7659   3.658   3.521   3.105  0.2420 -0.3557  0.3631
 1897SOL    HW3 7660   3.592   3.385   3.098 -0.3338 -0.0799  0.4209
 1897SOL    MW4 7661   3.590   3.468   3.122 -0.2177  0.0765 -0.1135
 1898SOL     OW 7662   3.787   3.611   3.022  0.0185 -0.6244  0.2641
 1898SOL    HW2 7663   3.796   3.702   3.052  0.6096 -0.7618  0.4992
 1898SOL    HW3 7664   3.792   3.617   2.926  4.0068 -0.8253  0.3752
 1898SOL    MW4 7665   3.788   3.624   3.013  0.6227 -0.6690  0.3099
 1899SOL     OW 7666   3.843   3.863   3.124  0.0517 -0.4894 -0.1087
 1899SOL    HW2 7667   3.842   3.875   3.219  0.6277  0.3798 -0.2084
 1899SOL    HW3 7668   3.766   3.911   3.093 -0.8593 -1.8412  0.0364
 1899SOL    MW4 7669   3.833   3.871   3.132  0.0074 -0.5531 -0.1028
 1900SOL     OW 7670   3.639   4.010   3.040 -0.6997 -0.0171 -0.3697
 1900SOL    HW2 7671   3.567   3.963   3.083 -0.6436  0.0290 -0.2224
 1900SOL    HW3 7672   3.625   3.998   2.947 -0.6554 -0.3726 -0.3295
 1900SOL    MW4 7673   3.628   4.002   3.034 -0.6864 -0.0577 -0.3450
 1901SOL     OW 7674   3.558   4.247   3.145  0.0711 -0.0821 -0.2964
 1901SOL    HW2 7675   3.635   4.300   3.126  0.5853 -0.6965  0.0696
 1901SOL    HW3 7676   3.581   4.160   3.113 -0.5591 -0.2138 -0.3912
 1901SOL    MW4 7677   3.571   4.243   3.138  0.0558 -0.1807 -0.2604
 1902SOL     OW 7678   3.781   4.386   3.069 -0.2410  0.0398  0.2194
 1902SOL    HW2 7679   3.854   4.342   3.112  0.2640  0.8961  0.2619
 1902SOL    HW3 7680   3.798   4.377   2.976 -0.3130 -0.1396  0.2235
 1902SOL    MW4 7681   3.793   4.379   3.063 -0.1836  0.1292  0.2255
 1903SOL     OW 7682   4.270   4.652   3.087 -0.1342  0.3756 -0.2191
 1903SOL    HW2 7683   4.279   4.654   3.182  1.9087 -0.1664 -0.3890
 1903SOL    HW3 7684   4.254   4.560   3.066 -1.9347  0.6799 -0.3210
 1903SOL    MW4 7685   4.269   4.640   3.097 -0.1020  0.3448 -0.2546
 1904SOL     OW 7686   4.023   0.144   3.048 -0.1899  0.1995 -0.3183
 1904SOL    HW2 7687   4.094   0.079   3.054  0.0980  0.6540  1.4015
 1904SOL    HW3 7688   3.945   0.095   3.074 -0.3567 -0.0339 -1.2287
 1904SOL    MW4 7689   4.022   0.129   3.052 -0.1736  0.2287 -0.2112
 1905SOL     OW 7690   4.048   0.427   3.155  0.0799 -0.0516 -0.0438
 1905SOL    HW2 7691   4.138   0.458   3.146  0.7976 -2.1470 -0.2906
 1905SOL    HW3 7692   4.048   0.341   3.115 -1.9794 -0.2033  0.2324
 1905SOL    MW4 7693   4.060   0.420   3.148 -0.0968 -0.3481 -0.0401
 1906SOL     OW 7694   4.279   0.531   3.053 -0.4462  0.5789  0.4879
 1906SOL    HW2 7695   4.296   0.622   3.079  0.2267  0.7849 -0.6372
 1906SOL    HW3 7696   4.273   0.534   2.957  0.4737 -0.7201  0.3794
 1906SOL    MW4 7697   4.280   0.544   3.044 -0.2360  0.4346  0.3252
 1907SOL     OW 7698   4.330   0.790   3.146 -0.9254 -0.1073 -0.8089
 1907SOL    HW2 7699   4.248   0.821   3.106 -0.0447  1.3234 -1.5227
 1907SOL    HW3 7700   4.397   0.850   3.114  0.2355 -0.5823  0.6737
 1907SOL    MW4 7701   4.328   0.802   3.137 -0.6557  0.0188 -0.7076
 1908SOL     OW 7702   4.084   0.842   3.054  0.1765  0.1083 -0.3683
 1908SOL    HW2 7703   4.062   0.928   3.089 -1.2334 -0.7947  1.0003
 1908SOL    HW3 7704   4.062   0.847   2.961  1.1099  1.5486 -0.5290
 1908SOL    MW4 7705   4.078   0.854   3.046  0.1135  0.1791 -0.2091
 1909SOL     OW 7706   4.028   1.145   3.096 -0.8669 -0.3145  0.1001
 1909SOL    HW2 7707   4.027   1.166   3.189 -0.2793  1.4940 -0.2692
 1909SOL    HW3 7708   3.940   1.168   3.066 -0.2708  1.5762 -0.2738
 1909SOL    MW4 7709   4.016   1.151   3.104 -0.7114  0.1733  0.0021
 1910SOL     OW 7710   4.285   1.277   3.042  0.1479 -0.3063 -0.1357
 1910SOL    HW2 7711   4.208   1.221   3.052 -0.8755  0.6871 -2.0275
 1910SOL    HW3 7712   4.303   1.276   2.948  2.5367 -0.6284  0.3061
 1910SOL    MW4 7713   4.277   1.270   3.031  0.3281 -0.2178 -0.3271
 1911SOL     OW 7714   4.247   1.544   3.118  0.4278  0.1106  0.3949
 1911SOL    HW2 7715   4.182   1.584   3.061 -0.3836  0.1820  1.3575
 1911SOL    HW3 7716   4.254   1.454   3.086 -0.2203  0.0730  0.3470
 1911SOL    MW4 7717   4.239   1.537   3.106  0.2346  0.1149  0.5159
 1912SOL     OW 7718   4.032   1.643   3.002  0.3294 -0.4716  0.2320
 1912SOL    HW2 7719   4.032   1.727   3.048 -1.0710 -0.2397 -0.1537
 1912SOL    HW3 7720   3.976   1.587   3.055  0.6816 -0.9469  0.1011
 1912SOL    MW4 7721   4.024   1.647   3.015  0.1907 -0.5038  0.1640
 1913SOL     OW 7722   4.065   1.907   3.109  0.2799 -0.0525 -0.0484
 1913SOL    HW2 7723   4.150   1.946   3.088  0.6650 -1.5055 -1.3104
 1913SOL    HW3 7724   4.001   1.961   3.064  0.7257 -0.2516 -0.9324
 1913SOL    MW4 7725   4.068   1.919   3.100  0.3901 -0.2705 -0.3316
 1914SOL     OW 7726   4.273   2.056   3.033  0.1771  0.2429  0.0505
 1914SOL    HW2 7727   4.273   2.144   3.071  1.2808  0.4148 -0.3105
 1914SOL    HW3 7728   4.276   2.071   2.938  0.3844 -0.1844 -0.0109
 1914SOL    MW4 7729   4.273   2.070   3.025  0.3505  0.2091 -0.0055
 1915SOL     OW 7730   4.249   2.321   3.140 -0.2450 -0.6463 -0.4743
 1915SOL    HW2 7731   4.184   2.358   3.080  0.7785  0.5071 -0.8835
 1915SOL    HW3 7732   4.330   2.366   3.119  0.3170 -0.8108  1.2471
 1915SOL    MW4 7733   4.251   2.332   3.129 -0.0353 -0.5157 -0.3011
 1916SOL     OW 7734   4.038   2.460   2.997 -0.0043 -0.0074 -0.2909
 1916SOL    HW2 7735   4.063   2.534   3.054 -0.2429  0.8010 -1.2303
 1916SOL    HW3 7736   3.966   2.418   3.043  1.2548 -0.7117  1.1044
 1916SOL    MW4 7737   4.032   2.464   3.011  0.1302  0.0067 -0.2308
 1917SOL     OW 7738   4.083   2.708   3.127 -0.2594  0.3616 -0.0551
 1917SOL    HW2 7739   4.070   2.720   3.221  0.7524  0.3523  0.0896
 1917SOL    HW3 7740   4.010   2.755   3.086  0.3650  1.9900  0.6798
 1917SOL    MW4 7741   4.072   2.716   3.134 -0.0439  0.5753  0.0613
 1918SOL     OW 7742   4.293   2.790   2.968 -0.1610  0.0451  0.0051
 1918SOL    HW2 7743   4.234   2.743   3.026  0.8055  0.3665  1.2768
 1918SOL    HW3 7744   4.381   2.772   3.003  0.4105  0.5082 -1.1613
 1918SOL    MW4 7745   4.297   2.782   2.980  0.0424  0.1485  0.0191
 1919SOL     OW 7746   4.285   3.035   3.076  0.0059  0.1016 -0.0810
 1919SOL    HW2 7747   4.220   3.089   3.031 -0.0672  0.6875  0.7264
 1919SOL    HW3 7748   4.264   2.946   3.050 -1.5397  0.2204  0.7234
 1919SOL    MW4 7749   4.274   3.031   3.067 -0.2074  0.1943  0.1316
 1920SOL     OW 7750   4.089   3.200   2.987 -0.1617 -0.0074  0.2561
 1920SOL    HW2 7751   4.082   3.287   3.025  0.5637 -0.0546  0.5146
 1920SOL    HW3 7752   4.083   3.214   2.892  0.3969  0.3727  0.2770
 1920SOL    MW4 7753   4.088   3.213   2.979  0.0076  0.0365  0.2928
 1921SOL     OW 7754   4.003   3.457   3.094  0.0124  0.2736  0.0950
 1921SOL    HW2 7755   3.989   3.459   3.188  0.9339  1.4842  0.2155
 1921SOL    HW3 7756   3.934   3.512   3.057  0.1199  0.4227  0.1179
 1921SOL    MW4 7757   3.992   3.464   3.101  0.1481  0.4532  0.1140
 1922SOL     OW 7758   4.222   3.626   2.992 -0.3707 -0.1036 -0.5104
 1922SOL    HW2 7759   4.224   3.717   3.023  0.8533 -0.5013  0.6289
 1922SOL    HW3 7760   4.140   3.591   3.027 -0.0459  0.0906  0.4723
 1922SOL    MW4 7761   4.212   3.633   3.001 -0.1664 -0.1302 -0.2306
 1923SOL     OW 7762   4.247   3.884   3.142  0.4475 -0.7383 -0.0098
 1923SOL    HW2 7763   4.170   3.928   3.106 -0.0451 -0.8121  0.9477
 1923SOL    HW3 7764   4.321   3.935   3.109 -0.0491 -0.1939 -0.2854
 1923SOL    MW4 7765   4.247   3.897   3.133  0.3171 -0.6759  0.0803
 1924SOL     OW 7766   4.049   3.997   2.985  0.0418 -0.3159 -0.3301
 1924SOL    HW2 7767   4.025   4.083   3.021  1.8293  0.4175 -0.8621
 1924SOL    HW3 7768   3.983   3.938   3.020 -0.7299  1.1323  0.7257
 1924SOL    MW4 7769   4.037   4.001   2.994  0.1760 -0.0281 -0.2606
 1925SOL     OW 7770   4.017   4.238   3.120 -0.2986  0.3026 -0.2041
 1925SOL    HW2 7771   4.019   4.240   3.216  0.4774  0.4101 -0.2143
 1925SOL    HW3 7772   4.101   4.276   3.094  0.5269 -1.9426 -0.8932
 1925SOL    MW4 7773   4.029   4.244   3.129 -0.0877  0.0210 -0.2964
 1926SOL     OW 7774   4.234   4.385   3.031 -0.6844  0.1388 -0.3093
 1926SOL    HW2 7775   4.322   4.362   3.063 -0.5553  1.7645  0.5590
 1926SOL    HW3 7776   4.246   4.402   2.938  0.2874  2.0533  0.1352
 1926SOL    MW4 7777   4.247   4.384   3.023 -0.5388  0.6061 -0.1359
 1927SOL     OW 7778   0.227   4.641   3.406 -0.8170 -0.1938  0.4834
 1927SOL    HW2 7779   0.292   4.705   3.434 -0.8608 -0.3165  0.8749
 1927SOL    HW3 7780   0.249   4.562   3.456 -1.3493 -0.1936  0.7228
 1927SOL    MW4 7781   0.238   4.639   3.417 -0.8930 -0.2098  0.5665
 1928SOL     OW 7782   4.472   0.099   3.513  0.3476  0.3952  0.1471
 1928SOL    HW2 7783   4.481   0.186   3.475  1.0737 -0.1284 -0.8906
 1928SOL    HW3 7784   4.552   0.053   3.490  1.2771  0.3665  3.1646
 1928SOL    MW4 7785   4.483   0.104   3.505  0.5660  0.3223  0.4084
 1929SOL     OW 7786   0.008   0.358   3.410 -0.1376 -0.0461  0.1335
 1929SOL    HW2 7787  -0.068   0.412   3.430 -0.5796  0.0234 -1.6377
 1929SOL    HW3 7788   0.080   0.401   3.456 -1.0004  0.3964  1.0946
 1929SOL    MW4 7789   0.008   0.371   3.419 -0.3099  0.0215  0.0265
 1930SOL     OW 7790   0.232   0.521   3.516  0.5699 -1.1623  0.5976
 1930SOL    HW2 7791   0.308   0.474   3.482 -0.4177 -2.0547 -0.4283
 1930SOL    HW3 7792   0.237   0.607   3.475  1.0980 -1.1697  0.6380
 1930SOL    MW4 7793   0.243   0.526   3.506  0.5093 -1.2810  0.4675
 1931SOL     OW 7794   0.235   0.774   3.383  0.0587 -0.2187  0.1221
 1931SOL    HW2 7795   0.313   0.810   3.425 -0.4334  0.6021  0.3300
 1931SOL    HW3 7796   0.162   0.818   3.426 -0.4747  0.0783 -1.0714
 1931SOL    MW4 7797   0.236   0.784   3.394 -0.0766 -0.0712 -0.0079
 1932SOL     OW 7798   0.007   0.911   3.506  0.1441  0.1352 -0.2427
 1932SOL    HW2 7799   0.026   0.918   3.600 -1.3779 -0.7762  0.1583
 1932SOL    HW3 7800  -0.013   1.000   3.479  2.4439  0.6947 -0.1204
 1932SOL    MW4 7801   0.007   0.923   3.515  0.2465  0.0888 -0.1733
 1933SOL     OW 7802   4.488   1.180   3.429  0.2295  0.1208  0.6457
 1933SOL    HW2 7803   4.572   1.213   3.462  1.4170 -2.4656  0.4087
 1933SOL    HW3 7804   4.492   1.194   3.335 -0.0200  0.8571  0.7417
 1933SOL    MW4 7805   4.500   1.186   3.421  0.3533 -0.1233  0.6270
 1934SOL     OW 7806   0.230   1.287   3.530 -0.3062 -0.6596  0.0283
 1934SOL    HW2 7807   0.299   1.248   3.476 -1.0378 -0.6361 -0.9273
 1934SOL    HW3 7808   0.209   1.370   3.487 -0.4669 -0.3514  0.6898
 1934SOL    MW4 7809   0.236   1.293   3.517 -0.4240 -0.6158 -0.0105
 1935SOL     OW 7810   0.227   1.549   3.408 -0.0278  0.6782  0.3521
 1935SOL    HW2 7811   0.310   1.588   3.436  1.5667 -1.7835 -0.7856
 1935SOL    HW3 7812   0.239   1.531   3.315 -1.7501  0.0550  0.2395
 1935SOL    MW4 7813   0.240   1.552   3.400 -0.0447  0.2711  0.1872
 1936SOL     OW 7814   4.487   1.686   3.502  0.5814  0.2576 -0.1867
 1936SOL    HW2 7815   4.411   1.635   3.475  0.8281 -0.8547  1.1164
 1936SOL    HW3 7816   4.561   1.643   3.460  0.6530  0.3416 -0.1477
 1936SOL    MW4 7817   4.487   1.674   3.493  0.6227  0.1221 -0.0098
 1937SOL     OW 7818   0.005   1.927   3.414  0.1857 -0.2738  0.6135
 1937SOL    HW2 7819   0.011   1.836   3.446  1.3375 -0.4261 -0.0146
 1937SOL    HW3 7820  -0.005   1.918   3.320 -0.2376  0.2417  0.6119
 1937SOL    MW4 7821   0.005   1.913   3.406  0.2818 -0.2259  0.5307
 1938SOL     OW 7822   0.232   2.088   3.513  0.2091  0.0330 -0.1116
 1938SOL    HW2 7823   0.227   2.078   3.608  2.9033 -2.6905 -0.2085
 1938SOL    HW3 7824   0.157   2.039   3.480 -0.6973  0.9269  0.5460
 1938SOL    MW4 7825   0.222   2.080   3.521  0.4449 -0.2084 -0.0377
 1939SOL     OW 7826   0.220   2.375   3.393 -0.3358  0.5078 -0.0722
 1939SOL    HW2 7827   0.131   2.404   3.412 -0.5889 -0.3884  0.1676
 1939SOL    HW3 7828   0.229   2.292   3.441  0.6161  0.5768 -0.1142
 1939SOL    MW4 7829   0.209   2.368   3.402 -0.2436  0.3986 -0.0460
 1940SOL     OW 7830   4.461   2.440   3.492 -0.1209 -0.2401 -0.5431
 1940SOL    HW2 7831   4.457   2.439   3.588  0.6995 -1.7241 -0.5089
 1940SOL    HW3 7832   4.385   2.388   3.465  0.3857 -0.9355 -0.6523
 1940SOL    MW4 7833   4.450   2.433   3.501  0.0544 -0.5276 -0.5531
 1941SOL     OW 7834   4.477   2.710   3.416  0.0923 -0.0049  0.2434
 1941SOL    HW2 7835   4.544   2.745   3.475  0.8006  1.7504 -1.5202
 1941SOL    HW3 7836   4.477   2.616   3.432  2.2971  0.0884  0.9774
 1941SOL    MW4 7837   4.486   2.702   3.426  0.4768  0.2389  0.1075
 1942SOL     OW 7838   0.228   2.835   3.503 -0.3646  0.5421 -0.4034
 1942SOL    HW2 7839   0.298   2.793   3.453  0.6790  0.9322  0.7101
 1942SOL    HW3 7840   0.230   2.926   3.473  0.5111  0.8633  0.6004
 1942SOL    MW4 7841   0.237   2.842   3.492 -0.1114  0.6361 -0.1240
 1943SOL     OW 7842   0.270   3.103   3.434  0.1912 -0.0980 -0.5274
 1943SOL    HW2 7843   0.191   3.147   3.467 -0.4883 -0.7517 -1.2800
 1943SOL    HW3 7844   0.268   3.116   3.340  0.9898 -0.1275 -0.5562
 1943SOL    MW4 7845   0.260   3.110   3.426  0.2069 -0.1884 -0.6306
 1944SOL     OW 7846   0.026   3.208   3.496 -0.0224 -0.5430  0.5290
 1944SOL    HW2 7847  -0.052   3.171   3.454  0.2852 -0.0487 -0.5093
 1944SOL    HW3 7848   0.019   3.302   3.479  1.1690 -0.5715 -0.2285
 1944SOL    MW4 7849   0.015   3.216   3.488  0.1754 -0.4816  0.2918
 1945SOL     OW 7850   4.474   3.476   3.396  0.2930  0.5636  0.1510
 1945SOL    HW2 7851   4.394   3.513   3.434 -0.9610 -0.9673 -0.8762
 1945SOL    HW3 7852   4.455   3.470   3.302  0.9046 -1.4427  0.1183
 1945SOL    MW4 7853   4.461   3.480   3.388  0.2079  0.0970  0.0112
 1946SOL     OW 7854   0.220   3.600   3.501  0.2382 -0.1258 -0.1377
 1946SOL    HW2 7855   0.215   3.580   3.595 -1.1722 -1.4831 -0.5031
 1946SOL    HW3 7856   0.141   3.562   3.463  2.2116 -2.1843 -2.3682
 1946SOL    MW4 7857   0.209   3.593   3.509  0.3125 -0.5763 -0.4799
 1947SOL     OW 7858   0.255   3.858   3.375  0.4614  0.0213  0.1948
 1947SOL    HW2 7859   0.192   3.912   3.423 -0.4491  0.9616 -1.9782
 1947SOL    HW3 7860   0.251   3.772   3.417 -1.2815  0.4500  0.9305
 1947SOL    MW4 7861   0.246   3.854   3.387  0.1113  0.2017  0.0052
 1948SOL     OW 7862   0.055   4.004   3.496  0.1913 -0.0892  0.0881
 1948SOL    HW2 7863   0.049   4.013   3.592  0.3472  0.0307  0.0869
 1948SOL    HW3 7864   0.048   4.094   3.464 -0.3702 -0.1798 -0.0404
 1948SOL    MW4 7865   0.053   4.017   3.505  0.1378 -0.0854  0.0710
 1949SOL     OW 7866   0.030   4.264   3.412  0.1216  0.3694 -0.1193
 1949SOL    HW2 7867  -0.048   4.309   3.445 -0.8074 -0.6185 -0.9271
 1949SOL    HW3 7868   0.103   4.320   3.439 -0.8067  0.9470  1.2509
 1949SOL    MW4 7869   0.029   4.277   3.420 -0.1235  0.3157 -0.0451
 1950SOL     OW 7870   0.233   4.397   3.519 -0.4034  0.0235 -0.2560
 1950SOL    HW2 7871   0.220   4.379   3.611 -0.0361 -2.7343 -0.6975
 1950SOL    HW3 7872   0.311   4.346   3.495 -0.5186  0.6496 -2.1086
 1950SOL    MW4 7873   0.242   4.388   3.528 -0.3702 -0.2575 -0.5586
 1951SOL     OW 7874   0.648   0.014   3.412 -0.2115 -0.2833 -0.0877
 1951SOL    HW2 7875   0.726   0.066   3.435  0.4450 -1.7251  1.0518
 1951SOL    HW3 7876   0.663  -0.014   3.322  0.5730 -0.4927  0.1005
 1951SOL    MW4 7877   0.660   0.017   3.403 -0.0214 -0.5012  0.0877
 1952SOL     OW 7878   0.410   0.124   3.524 -0.0547 -0.3083 -0.3400
 1952SOL    HW2 7879   0.391   0.093   3.613  0.8950 -1.4559 -0.5277
 1952SOL    HW3 7880   0.490   0.078   3.499 -1.1681 -1.1957 -2.3969
 1952SOL    MW4 7881   0.418   0.114   3.533 -0.0763 -0.5768 -0.6361
 1953SOL     OW 7882   0.464   0.398   3.427 -0.4480 -0.1554  0.1476
 1953SOL    HW2 7883   0.537   0.428   3.482  1.1789 -1.4192 -1.2788
 1953SOL    HW3 7884   0.443   0.311   3.461  0.0185 -0.5978 -0.6808
 1953SOL    MW4 7885   0.471   0.391   3.439 -0.1718 -0.3805 -0.1497
 1954SOL     OW 7886   0.674   0.554   3.561  0.5643  0.1896  0.0377
 1954SOL    HW2 7887   0.676   0.531   3.654  1.4729 -0.0602 -0.0413
 1954SOL    HW3 7888   0.757   0.521   3.526  0.3513  0.5301 -0.8025
 1954SOL    MW4 7889   0.685   0.547   3.569  0.6561  0.2015 -0.0837
 1955SOL     OW 7890   0.647   0.766   3.395 -0.3052  0.1153 -0.0566
 1955SOL    HW2 7891   0.574   0.823   3.423  0.5102  0.2576  1.8943
 1955SOL    HW3 7892   0.640   0.689   3.451  0.5218 -0.2704 -0.4713
 1955SOL    MW4 7893   0.636   0.764   3.406 -0.0885  0.0832  0.1462
 1956SOL     OW 7894   0.435   0.893   3.514 -0.3431  0.2607  0.0562
 1956SOL    HW2 7895   0.446   0.909   3.608 -0.9140 -1.2561  0.4098
 1956SOL    HW3 7896   0.448   0.978   3.473  1.5277  0.6502  1.3669
 1956SOL    MW4 7897   0.438   0.906   3.521 -0.1716  0.1119  0.2761
 1957SOL     OW 7898   0.441   1.141   3.413  0.5363  0.2251  0.2566
 1957SOL    HW2 7899   0.518   1.184   3.450  0.3058  0.9917 -0.1458
 1957SOL    HW3 7900   0.438   1.170   3.322 -0.2371  0.2075  0.2713
 1957SOL    MW4 7901   0.451   1.150   3.405  0.4038  0.3239  0.2055
 1958SOL     OW 7902   0.674   1.249   3.503 -0.2479  0.2519  0.1324
 1958SOL    HW2 7903   0.748   1.204   3.461 -0.1847 -0.6079  1.1548
 1958SOL    HW3 7904   0.681   1.339   3.472  0.9213  0.0579 -0.2126
 1958SOL    MW4 7905   0.685   1.255   3.493 -0.0854  0.1129  0.2220
 1959SOL     OW 7906   0.702   1.518   3.404 -0.2015  0.2816  0.1519
 1959SOL    HW2 7907   0.761   1.585   3.439 -0.4641  0.4235  0.3266
 1959SOL    HW3 7908   0.614   1.554   3.417 -0.5008 -1.3169  2.8516
 1959SOL    MW4 7909   0.698   1.532   3.410 -0.2757  0.0894  0.5310
 1960SOL     OW 7910   0.475   1.653   3.491  0.4584  0.3809  0.0894
 1960SOL    HW2 7911   0.458   1.649   3.585 -1.2095 -1.1635 -0.2541
 1960SOL    HW3 7912   0.463   1.745   3.467 -0.2350  0.5730  1.1816
 1960SOL    MW4 7913   0.471   1.665   3.500  0.1469  0.2024  0.1879
 1961SOL     OW 7914   0.460   1.917   3.411 -0.1972 -0.3560 -0.1450
 1961SOL    HW2 7915   0.380   1.963   3.434  1.7306  2.7385  0.6811
 1961SOL    HW3 7916   0.461   1.915   3.315 -0.8790  0.2553 -0.1641
 1961SOL    MW4 7917   0.450   1.923   3.401 -0.0328  0.1330 -0.0384
 1962SOL     OW 7918   0.695   2.057   3.493 -0.1002  0.5756  0.0264
 1962SOL    HW2 7919   0.691   2.065   3.588  0.0097  0.4678  0.0415
 1962SOL    HW3 7920   0.609   2.024   3.467  0.1790 -0.2947  0.1838
 1962SOL    MW4 7921   0.683   2.053   3.502 -0.0488  0.4466  0.0491
 1963SOL     OW 7922   0.671   2.300   3.350 -0.1417 -0.1629 -0.5201
 1963SOL    HW2 7923   0.752   2.336   3.386  0.9419 -1.7965 -1.2668
 1963SOL    HW3 7924   0.666   2.212   3.388 -0.8136 -0.5993 -1.6150
 1963SOL    MW4 7925   0.681   2.293   3.360 -0.0873 -0.4361 -0.7632
 1964SOL     OW 7926   0.457   2.437   3.497  0.2847 -0.3058  0.1158
 1964SOL    HW2 7927   0.528   2.389   3.454  0.7189  0.8493 -0.4936
 1964SOL    HW3 7928   0.380   2.415   3.445  0.4399 -0.5231 -0.0273
 1964SOL    MW4 7929   0.456   2.427   3.484  0.3624 -0.1819  0.0165
 1965SOL     OW 7930   0.435   2.693   3.382 -0.3219 -0.5914  0.5808
 1965SOL    HW2 7931   0.436   2.607   3.422  1.3699 -1.5165 -1.3169
 1965SOL    HW3 7932   0.439   2.676   3.288  0.8118  1.5440  0.1880
 1965SOL    MW4 7933   0.436   2.680   3.375  0.0509 -0.4318  0.2785
 1966SOL     OW 7934   0.649   2.847   3.455 -0.2296 -0.2642 -0.2840
 1966SOL    HW2 7935   0.717   2.806   3.401  0.1498 -1.4217  1.0171
 1966SOL    HW3 7936   0.570   2.796   3.436 -0.2199 -0.3224 -0.1720
 1966SOL    MW4 7937   0.647   2.835   3.445 -0.1783 -0.4244 -0.0973
 1967SOL     OW 7938   0.694   3.106   3.406  0.1575  0.1938 -0.3305
 1967SOL    HW2 7939   0.622   3.155   3.446 -1.0323 -0.1330 -2.0135
 1967SOL    HW3 7940   0.678   3.015   3.429  0.7807  0.2518  0.3815
 1967SOL    MW4 7941   0.683   3.101   3.414  0.0828  0.1585 -0.4582
 1968SOL     OW 7942   0.482   3.257   3.517 -0.2062 -0.4093  0.0822
 1968SOL    HW2 7943   0.481   3.252   3.613 -0.5504 -0.9379  0.0513
 1968SOL    HW3 7944   0.404   3.209   3.489 -0.5643  0.4558 -0.4318
 1968SOL    MW4 7945   0.472   3.250   3.526 -0.2989 -0.3650  0.0105
 1969SOL     OW 7946   0.459   3.507   3.397 -0.2202 -0.4426 -0.0906
 1969SOL    HW2 7947   0.468   3.424   3.443 -0.1026 -0.0400  0.6270
 1969SOL    HW3 7948   0.380   3.547   3.434 -0.0516 -0.0594 -0.1407
 1969SOL    MW4 7949   0.450   3.502   3.408 -0.1824 -0.3388 -0.0026
 1970SOL     OW 7950   0.708   3.600   3.501 -0.2604  0.0277  0.5262
 1970SOL    HW2 7951   0.785   3.544   3.494 -0.7964 -0.8924  1.6809
 1970SOL    HW3 7952   0.637   3.548   3.463 -0.8243 -0.2309  1.9021
 1970SOL    MW4 7953   0.709   3.586   3.495 -0.4055 -0.1278  0.8602
 1971SOL     OW 7954   0.709   3.886   3.415 -0.2410  0.4330  0.0458
 1971SOL    HW2 7955   0.628   3.929   3.444 -0.5847  0.2416 -0.6481
 1971SOL    HW3 7956   0.704   3.798   3.453  0.2115  0.8176  1.0170
 1971SOL    MW4 7957   0.698   3.880   3.424 -0.2267  0.4585  0.0825
 1972SOL     OW 7958   0.459   3.990   3.541  0.2358 -0.1161 -0.5076
 1972SOL    HW2 7959   0.470   4.080   3.512  0.1187  0.0135 -0.1454
 1972SOL    HW3 7960   0.401   3.951   3.476 -0.8209  0.4473  0.0869
 1972SOL    MW4 7961   0.453   3.997   3.529  0.0810 -0.0250 -0.3812
 1973SOL     OW 7962   0.484   4.254   3.451 -0.2668  0.1474  0.0369
 1973SOL    HW2 7963   0.561   4.305   3.475  0.8212 -1.4519  0.0529
 1973SOL    HW3 7964   0.486   4.251   3.355  0.0018 -0.3075  0.0498
 1973SOL    MW4 7965   0.494   4.260   3.441 -0.0878 -0.1235  0.0405
 1974SOL     OW 7966   0.682   4.423   3.503  0.0865  0.4842 -0.0773
 1974SOL    HW2 7967   0.755   4.384   3.455  0.4105  0.8116  0.1444
 1974SOL    HW3 7968   0.676   4.512   3.469 -1.2127 -0.0175 -1.2099
 1974SOL    MW4 7969   0.691   4.429   3.493 -0.0421  0.4606 -0.1972
 1975SOL     OW 7970   1.097   0.003   3.364  0.6966  0.1269 -0.2531
 1975SOL    HW2 7971   1.180   0.042   3.391  0.2275  0.9269  0.0621
 1975SOL    HW3 7972   1.103  -0.003   3.268  0.4150  1.8738 -0.4042
 1975SOL    MW4 7973   1.108   0.007   3.355  0.5975  0.4630 -0.2313
 1976SOL     OW 7974   0.882   0.127   3.471  0.1463  0.2193 -0.1169
 1976SOL    HW2 7975   0.885   0.128   3.566 -0.2517  1.5836 -0.1044
 1976SOL    HW3 7976   0.956   0.072   3.445  1.0909  0.9638  0.9456
 1976SOL    MW4 7977   0.892   0.120   3.480  0.2184  0.4975  0.0250
 1977SOL     OW 7978   0.863   0.399   3.431  0.3578 -0.0026  0.3279
 1977SOL    HW2 7979   0.947   0.439   3.456  0.1255  0.2003  0.7983
 1977SOL    HW3 7980   0.871   0.307   3.456  0.6222 -0.0896 -0.0779
 1977SOL    MW4 7981   0.875   0.392   3.437  0.3620  0.0127  0.3366
 1978SOL     OW 7982   1.120   0.500   3.512 -0.2526 -0.1005 -0.5008
 1978SOL    HW2 7983   1.120   0.503   3.607 -1.8406 -1.4906 -0.4396
 1978SOL    HW3 7984   1.110   0.591   3.484 -0.5531  0.2196  0.6604
 1978SOL    MW4 7985   1.119   0.512   3.521 -0.5019 -0.2417 -0.3395
 1979SOL     OW 7986   1.134   0.744   3.384  0.1776  0.2316 -0.4499
 1979SOL    HW2 7987   1.200   0.805   3.417  0.6438 -0.1174 -0.7172
 1979SOL    HW3 7988   1.050   0.785   3.405  0.4550 -0.0680  1.2972
 1979SOL    MW4 7989   1.132   0.758   3.391  0.2757  0.1460 -0.2546
 1980SOL     OW 7990   0.914   0.877   3.485  0.6598  0.0508 -0.6527
 1980SOL    HW2 7991   0.913   0.964   3.445  0.8603  0.5602  0.4284
 1980SOL    HW3 7992   0.821   0.851   3.488  0.3280  1.3434  1.3630
 1980SOL    MW4 7993   0.901   0.885   3.480  0.6424  0.2886 -0.2441
 1981SOL     OW 7994   0.923   1.138   3.387  0.0541 -0.0657 -0.2498
 1981SOL    HW2 7995   0.997   1.194   3.413  0.8442 -0.5638 -1.3963
 1981SOL    HW3 7996   0.910   1.158   3.294 -2.3931  1.3039  0.3627
 1981SOL    MW4 7997   0.931   1.148   3.378 -0.1646  0.0492 -0.3204
 1982SOL     OW 7998   1.148   1.272   3.472 -0.6136  0.1637  0.1186
 1982SOL    HW2 7999   1.128   1.254   3.564  0.3949 -1.2395  0.0729
 1982SOL    HW3 8000   1.160   1.366   3.469 -2.0573  0.4122  1.1488
 1982SOL    MW4 8001   1.147   1.282   3.484 -0.6710  0.0113  0.2482
 1983SOL     OW 8002   1.161   1.558   3.447  0.1893  0.5010  0.0626
 1983SOL    HW2 8003   1.248   1.589   3.474  0.9125  0.0290 -1.7076
 1983SOL    HW3 8004   1.160   1.567   3.352 -1.9829  1.1984  0.1292
 1983SOL    MW4 8005   1.172   1.563   3.438 -0.0019  0.5307 -0.1621
 1984SOL     OW 8006   0.910   1.686   3.505 -0.3059  0.0024 -0.4299
 1984SOL    HW2 8007   0.926   1.776   3.476 -0.5261  0.4284  0.7443
 1984SOL    HW3 8008   0.995   1.643   3.497  0.1721  0.7561  0.5361
 1984SOL    MW4 8009   0.923   1.692   3.500 -0.2719  0.1581 -0.1476
 1985SOL     OW 8010   0.927   1.936   3.360 -0.1149  0.1128 -0.0099
 1985SOL    HW2 8011   1.002   1.966   3.411  0.9698 -0.5034 -1.2406
 1985SOL    HW3 8012   0.855   1.992   3.390  0.6874  0.3141  1.5935
 1985SOL    MW4 8013   0.927   1.948   3.371  0.1341  0.0581  0.0391
 1986SOL     OW 8014   1.159   2.018   3.481  0.2786 -0.3394 -0.1576
 1986SOL    HW2 8015   1.246   1.992   3.448  0.0029 -1.2340 -0.2073
 1986SOL    HW3 8016   1.149   2.109   3.453  0.7671 -0.5543 -1.0586
 1986SOL    MW4 8017   1.169   2.026   3.473  0.3067 -0.4857 -0.2830
 1987SOL     OW 8018   1.136   2.282   3.407 -0.3414 -0.3132 -0.2269
 1987SOL    HW2 8019   1.210   2.323   3.449  0.8863 -2.2314 -0.4469
 1987SOL    HW3 8020   1.152   2.293   3.313  0.0039 -1.2947 -0.2871
 1987SOL    MW4 8021   1.148   2.289   3.400 -0.1339 -0.6957 -0.2637
 1988SOL     OW 8022   0.892   2.431   3.446 -0.1520  0.5111 -0.0627
 1988SOL    HW2 8023   0.900   2.444   3.541 -0.2788 -0.8081  0.1360
 1988SOL    HW3 8024   0.966   2.375   3.423 -0.7431 -0.0722 -0.5549
 1988SOL    MW4 8025   0.903   2.425   3.456 -0.2468  0.2601 -0.1011
 1989SOL     OW 8026   0.871   2.688   3.352  0.3732  0.0314 -0.2652
 1989SOL    HW2 8027   0.939   2.734   3.401 -0.6009  0.3664  0.7696
 1989SOL    HW3 8028   0.875   2.598   3.384  1.4485 -0.3641 -1.4189
 1989SOL    MW4 8029   0.881   2.682   3.362  0.3865  0.0236 -0.2809
 1990SOL     OW 8030   1.066   2.847   3.473  0.2915  1.0260 -0.1218
 1990SOL    HW2 8031   1.050   2.855   3.567  0.9499  0.6371  0.0284
 1990SOL    HW3 8032   1.140   2.787   3.467 -0.8184 -0.2639 -0.9669
 1990SOL    MW4 8033   1.074   2.840   3.485  0.2320  0.8047 -0.2134
 1991SOL     OW 8034   1.163   3.095   3.382 -0.0574 -0.4865 -0.1392
 1991SOL    HW2 8035   1.139   3.007   3.411  1.1692 -0.5235  0.7997
 1991SOL    HW3 8036   1.157   3.090   3.286 -0.0694 -1.5801 -0.0942
 1991SOL    MW4 8037   1.159   3.083   3.373  0.1029 -0.6359 -0.0093
 1992SOL     OW 8038   0.921   3.208   3.516 -0.1314 -0.2569  0.2494
 1992SOL    HW2 8039   0.997   3.171   3.473  0.3873  2.0705 -0.9087
 1992SOL    HW3 8040   0.847   3.156   3.484  0.1453  1.7806 -4.0831
 1992SOL    MW4 8041   0.921   3.197   3.506 -0.0265  0.3190 -0.4749
 1993SOL     OW 8042   0.946   3.463   3.424 -0.0671 -0.2661 -0.0325
 1993SOL    HW2 8043   0.926   3.373   3.451 -0.8219 -0.1620 -0.2210
 1993SOL    HW3 8044   0.925   3.465   3.331  1.4903 -0.3256 -0.3967
 1993SOL    MW4 8045   0.941   3.451   3.416  0.0389 -0.2604 -0.1056
 1994SOL     OW 8046   1.193   3.595   3.480 -0.2946  0.4339  0.0510
 1994SOL    HW2 8047   1.178   3.616   3.572  1.0933  0.1704  0.3506
 1994SOL    HW3 8048   1.118   3.541   3.455 -1.4752  1.7919  0.5837
 1994SOL    MW4 8049   1.181   3.591   3.489 -0.2673  0.5784  0.1607
 1995SOL     OW 8050   1.151   3.861   3.396 -0.1162 -0.3562  0.3362
 1995SOL    HW2 8051   1.229   3.916   3.411  0.3467 -0.5444 -1.2801
 1995SOL    HW3 8052   1.177   3.775   3.428  0.1152 -0.2578  0.4190
 1995SOL    MW4 8053   1.165   3.857   3.402 -0.0246 -0.3679  0.1340
 1996SOL     OW 8054   0.922   4.011   3.501 -0.4162  0.5921  0.0305
 1996SOL    HW2 8055   0.993   3.956   3.467 -0.3946  0.8355 -0.3198
 1996SOL    HW3 8056   0.842   3.963   3.478 -0.4236  1.0221 -0.8437
 1996SOL    MW4 8057   0.921   3.997   3.493 -0.4143  0.6814 -0.1311
 1997SOL     OW 8058   0.887   4.260   3.395  0.3996 -0.0337  0.1334
 1997SOL    HW2 8059   0.896   4.170   3.425 -1.7967 -0.5855 -0.6915
 1997SOL    HW3 8060   0.908   4.257   3.301  1.6356  0.5753  0.3827
 1997SOL    MW4 8061   0.891   4.248   3.386  0.2729 -0.0257  0.0575
 1998SOL     OW 8062   1.117   4.398   3.459  0.0177 -0.3317 -0.2421
 1998SOL    HW2 8063   1.034   4.360   3.433  0.2300 -0.4394 -0.7608
 1998SOL    HW3 8064   1.113   4.489   3.429 -0.1556 -0.1694  0.2667
 1998SOL    MW4 8065   1.106   4.405   3.452  0.0228 -0.3247 -0.2437
 1999SOL     OW 8066   1.557   4.656   3.343  0.2284  0.6178 -0.0113
 1999SOL    HW2 8067   1.556   4.568   3.381 -1.6778 -0.5841 -2.6633
 1999SOL    HW3 8068   1.490   4.704   3.392  0.5241  0.2739  0.7369
 1999SOL    MW4 8069   1.548   4.651   3.354  0.0159  0.4139 -0.2625
 2000SOL     OW 8070   1.333   0.122   3.448 -0.9146 -0.5372  0.1002
 2000SOL    HW2 8071   1.329   0.124   3.544 -1.0548  0.7295  0.0779
 2000SOL    HW3 8072   1.322   0.213   3.422  0.3170 -0.7079 -1.0792
 2000SOL    MW4 8073   1.331   0.134   3.457 -0.7706 -0.3926 -0.0584
 2001SOL     OW 8074   1.315   0.388   3.341 -0.3345  0.1015 -0.5502
 2001SOL    HW2 8075   1.396   0.431   3.369 -0.3487  0.4834 -1.1032
 2001SOL    HW3 8076   1.247   0.432   3.392 -0.1643 -0.4165  0.1283
 2001SOL    MW4 8077   1.317   0.399   3.352 -0.3140  0.0835 -0.5333
 2002SOL     OW 8078   1.558   0.479   3.438 -0.1813 -0.3448 -0.3344
 2002SOL    HW2 8079   1.582   0.465   3.530 -0.2226 -1.2292 -0.4548
 2002SOL    HW3 8080   1.628   0.437   3.388 -1.0987 -1.4979 -0.6897
 2002SOL    MW4 8081   1.570   0.471   3.444 -0.3078 -0.6137 -0.3972
 2003SOL     OW 8082   1.562   0.750   3.360 -0.3318  0.1837  0.3302
 2003SOL    HW2 8083   1.504   0.796   3.420  0.3566  1.5506 -0.0377
 2003SOL    HW3 8084   1.560   0.659   3.389 -1.2722  0.5459  1.4063
 2003SOL    MW4 8085   1.554   0.744   3.372 -0.3650  0.4119  0.4237
 2004SOL     OW 8086   1.350   0.890   3.506 -0.0594  0.4381  0.0654
 2004SOL    HW2 8087   1.346   0.918   3.597 -0.8923  0.4395  0.0383
 2004SOL    HW3 8088   1.368   0.970   3.457  1.4414  0.2584  0.3143
 2004SOL    MW4 8089   1.352   0.904   3.512  0.0287  0.4146  0.0947
 2005SOL     OW 8090   1.361   1.138   3.359  0.5075 -0.0789  0.2746
 2005SOL    HW2 8091   1.436   1.185   3.396  0.7857  0.0654 -0.4631
 2005SOL    HW3 8092   1.285   1.175   3.405  0.7852  0.6163  0.1898
 2005SOL    MW4 8093   1.361   1.149   3.370  0.5808  0.0319  0.1662
 2006SOL     OW 8094   1.567   1.254   3.497  0.4576 -0.4853 -0.1301
 2006SOL    HW2 8095   1.596   1.271   3.586 -0.4032  0.3636  0.0024
 2006SOL    HW3 8096   1.644   1.219   3.452  0.6067 -1.8925  1.2063
 2006SOL    MW4 8097   1.581   1.252   3.503  0.3636 -0.5590  0.0632
 2007SOL     OW 8098   1.572   1.540   3.419 -0.0552 -0.0627 -0.2589
 2007SOL    HW2 8099   1.562   1.450   3.448 -0.4612 -0.3791 -1.3422
 2007SOL    HW3 8100   1.639   1.577   3.477 -0.7379 -0.7054  0.9568
 2007SOL    MW4 8101   1.580   1.533   3.430 -0.1990 -0.1891 -0.2415
 2008SOL     OW 8102   1.373   1.708   3.492  0.1806  0.3626  0.0253
 2008SOL    HW2 8103   1.364   1.704   3.587  0.4149  1.9265  0.1199
 2008SOL    HW3 8104   1.444   1.648   3.472  1.1443  1.1663  0.9938
 2008SOL    MW4 8105   1.381   1.700   3.502  0.3387  0.6750  0.1655
 2009SOL     OW 8106   1.384   1.938   3.351  0.0828  0.0076 -0.1329
 2009SOL    HW2 8107   1.447   1.991   3.399 -0.6195 -0.6914  1.5810
 2009SOL    HW3 8108   1.377   1.857   3.401 -1.0311 -0.5417 -1.1444
 2009SOL    MW4 8109   1.392   1.934   3.364 -0.1568 -0.1570 -0.0403
 2010SOL     OW 8110   1.583   2.068   3.491  0.5190 -0.2297  0.7005
 2010SOL    HW2 8111   1.657   2.015   3.461  0.5138  0.9734 -1.5532
 2010SOL    HW3 8112   1.601   2.156   3.456 -0.5661  0.7378  2.5235
 2010SOL    MW4 8113   1.595   2.073   3.482  0.3750  0.0567  0.6437
 2011SOL     OW 8114   1.594   2.314   3.353  0.5071 -0.2894  0.3389
 2011SOL    HW2 8115   1.526   2.364   3.398  0.4631 -1.1548  1.2585
 2011SOL    HW3 8116   1.580   2.332   3.260 -1.5063 -1.1129  0.4626
 2011SOL    MW4 8117   1.584   2.323   3.347  0.2357 -0.5124  0.4766
 2012SOL     OW 8118   1.376   2.414   3.492 -0.1535 -0.5613 -0.7093
 2012SOL    HW2 8119   1.376   2.395   3.585 -0.6156 -0.4449 -0.6813
 2012SOL    HW3 8120   1.331   2.499   3.485  0.0201 -0.4945 -1.0175
 2012SOL    MW4 8121   1.370   2.423   3.503 -0.1917 -0.5372 -0.7460
 2013SOL     OW 8122   1.303   2.694   3.416  0.0367  0.0007  0.2784
 2013SOL    HW2 8123   1.375   2.748   3.447  0.9622 -1.1392  0.1633
 2013SOL    HW3 8124   1.314   2.693   3.321  0.7716 -1.3789  0.3595
 2013SOL    MW4 8125   1.314   2.701   3.407  0.2557 -0.3316  0.2737
 2014SOL     OW 8126   1.535   2.829   3.484  0.1343 -0.5598  0.0249
 2014SOL    HW2 8127   1.614   2.782   3.457  0.8135 -1.0827  2.7310
 2014SOL    HW3 8128   1.556   2.921   3.467  0.8232 -0.7985 -0.4737
 2014SOL    MW4 8129   1.548   2.835   3.478  0.3148 -0.6599  0.3161
 2015SOL     OW 8130   1.578   3.082   3.408 -0.1490 -0.5391 -0.0189
 2015SOL    HW2 8131   1.649   3.120   3.460 -0.4451 -0.4227  0.3066
 2015SOL    HW3 8132   1.501   3.133   3.433 -0.2280 -0.2418 -0.8452
 2015SOL    MW4 8133   1.577   3.094   3.418 -0.1985 -0.4842 -0.0849
 2016SOL     OW 8134   1.377   3.232   3.505  0.0513  0.1403 -0.0198
 2016SOL    HW2 8135   1.362   3.238   3.600  1.8165  1.4681  0.1935
 2016SOL    HW3 8136   1.302   3.182   3.473 -0.9601  0.2979  1.9780
 2016SOL    MW4 8137   1.365   3.226   3.513  0.1508  0.3364  0.2720
 2017SOL     OW 8138   1.407   3.466   3.360 -0.3478  0.0982 -0.2497
 2017SOL    HW2 8139   1.417   3.382   3.406  0.4995  0.4553  0.2379
 2017SOL    HW3 8140   1.325   3.502   3.393  0.0936  0.1988  0.7538
 2017SOL    MW4 8141   1.398   3.459   3.371 -0.1777  0.1583 -0.0527
 2018SOL     OW 8142   1.566   3.648   3.475  0.5486  0.3428  0.2495
 2018SOL    HW2 8143   1.557   3.647   3.570  0.3136  0.4167  0.2281
 2018SOL    HW3 8144   1.500   3.585   3.444  0.7880  0.1404  0.1513
 2018SOL    MW4 8145   1.556   3.639   3.483  0.5492  0.3259  0.2337
 2019SOL     OW 8146   1.559   3.919   3.372 -0.0438 -0.2449  0.1618
 2019SOL    HW2 8147   1.582   3.828   3.395 -0.5841 -0.3924  0.1113
 2019SOL    HW3 8148   1.514   3.912   3.288 -0.2485  0.0553  0.2465
 2019SOL    MW4 8149   1.556   3.906   3.364 -0.1421 -0.2246  0.1664
 2020SOL     OW 8150   1.361   4.028   3.511 -0.2850 -0.1840  0.2418
 2020SOL    HW2 8151   1.346   4.114   3.472 -0.1371  0.6421  1.9519
 2020SOL    HW3 8152   1.440   3.995   3.467 -0.7516  0.2442 -0.9205
 2020SOL    MW4 8153   1.370   4.035   3.500 -0.3271 -0.0186  0.3140
 2021SOL     OW 8154   1.336   4.266   3.357 -0.2826 -0.0024 -0.1014
 2021SOL    HW2 8155   1.271   4.324   3.398 -2.0364 -0.5030 -2.0799
 2021SOL    HW3 8156   1.328   4.284   3.264  0.8956 -1.6783 -0.5447
 2021SOL    MW4 8157   1.326   4.276   3.350 -0.3586 -0.2894 -0.4208
 2022SOL     OW 8158   1.547   4.409   3.463  1.0769 -0.0806 -0.0161
 2022SOL    HW2 8159   1.620   4.357   3.430  0.7406 -1.2149  0.9980
 2022SOL    HW3 8160   1.469   4.366   3.429  0.8557  1.1500 -1.1298
 2022SOL    MW4 8161   1.546   4.397   3.454  1.0034 -0.0672 -0.0291
 2023SOL     OW 8162   2.013   4.648   3.354 -0.4479 -0.4858 -0.5639
 2023SOL    HW2 8163   2.082   4.690   3.404  0.3114  0.1032 -2.0835
 2023SOL    HW3 8164   1.933   4.694   3.380 -0.1477 -0.5328  0.4738
 2023SOL    MW4 8165   2.011   4.659   3.364 -0.3080 -0.4144 -0.6275
 2024SOL     OW 8166   1.764   0.116   3.456  0.1657 -0.8376  0.0010
 2024SOL    HW2 8167   1.746   0.130   3.549 -0.1435  3.8533 -0.6697
 2024SOL    HW3 8168   1.693   0.060   3.426 -0.2870 -1.5739  2.3602
 2024SOL    MW4 8169   1.752   0.110   3.464  0.0653 -0.3158  0.2239
 2025SOL     OW 8170   1.796   0.368   3.320  0.3284 -0.3413  0.3132
 2025SOL    HW2 8171   1.791   0.278   3.351 -1.3929 -0.1029  0.7350
 2025SOL    HW3 8172   1.782   0.362   3.225 -0.3608 -0.4516  0.4248
 2025SOL    MW4 8173   1.794   0.356   3.311  0.0104 -0.3244  0.3836
 2026SOL     OW 8174   2.035   0.487   3.407 -0.0028  0.4128 -0.4836
 2026SOL    HW2 8175   2.022   0.578   3.378  0.0539  0.5790 -0.0028
 2026SOL    HW3 8176   1.958   0.440   3.375  0.3191  0.4739 -1.3658
 2026SOL    MW4 8177   2.024   0.493   3.399  0.0470  0.4428 -0.5367
 2027SOL     OW 8178   2.011   0.765   3.353 -0.0756  0.5531  0.0005
 2027SOL    HW2 8179   2.091   0.806   3.386  0.6195  0.0438 -0.9842
 2027SOL    HW3 8180   2.021   0.769   3.257 -0.7406 -0.4567 -0.1141
 2027SOL    MW4 8181   2.023   0.771   3.344 -0.0715  0.3526 -0.1445
 2028SOL     OW 8182   1.787   0.860   3.469 -0.2982  0.0466  0.4587
 2028SOL    HW2 8183   1.852   0.799   3.435  1.7427  2.4802 -0.0842
 2028SOL    HW3 8184   1.704   0.828   3.434  0.9195 -1.5374 -1.0640
 2028SOL    MW4 8185   1.785   0.848   3.460  0.1317  0.1588  0.1860
 2029SOL     OW 8186   1.788   1.118   3.368  0.3215 -0.6042 -0.1988
 2029SOL    HW2 8187   1.855   1.168   3.415  0.4868 -1.0806  0.0729
 2029SOL    HW3 8188   1.798   1.029   3.399 -0.1201 -0.7704 -0.5240
 2029SOL    MW4 8189   1.798   1.113   3.378  0.2849 -0.6890 -0.2055
 2030SOL     OW 8190   2.007   1.293   3.490  0.1178 -0.1508  0.1341
 2030SOL    HW2 8191   2.021   1.302   3.584  1.5020 -0.4402 -0.0246
 2030SOL    HW3 8192   2.019   1.381   3.455  0.1703 -0.1483  0.1589
 2030SOL    MW4 8193   2.010   1.306   3.498  0.3073 -0.1887  0.1163
 2031SOL     OW 8194   2.013   1.573   3.380 -0.4519  0.0940  0.1278
 2031SOL    HW2 8195   2.087   1.631   3.395 -0.8059  0.3009  1.0850
 2031SOL    HW3 8196   1.938   1.620   3.416 -0.9608 -0.3534 -0.3406
 2031SOL    MW4 8197   2.013   1.587   3.386 -0.5655  0.0622  0.1924
 2032SOL     OW 8198   1.799   1.670   3.538 -0.2734 -0.1653  0.1432
 2032SOL    HW2 8199   1.849   1.684   3.619  0.3825  1.1674 -0.4764
 2032SOL    HW3 8200   1.796   1.756   3.497 -0.5859 -0.8374 -1.2692
 2032SOL    MW4 8201   1.805   1.683   3.543 -0.2280 -0.0783 -0.1249
 2033SOL     OW 8202   1.803   1.925   3.380  0.2698 -0.2175  0.3045
 2033SOL    HW2 8203   1.867   1.990   3.411 -0.4157  0.2475  0.7791
 2033SOL    HW3 8204   1.806   1.932   3.285  1.2047 -0.4747  0.3126
 2033SOL    MW4 8205   1.812   1.935   3.372  0.3027 -0.1903  0.3681
 2034SOL     OW 8206   2.012   2.078   3.484  0.2123 -0.6114  0.1986
 2034SOL    HW2 8207   2.083   2.043   3.430 -0.2749 -0.2951 -0.6495
 2034SOL    HW3 8208   2.023   2.173   3.480  0.1654 -0.5871  0.6486
 2034SOL    MW4 8209   2.023   2.086   3.477  0.1419 -0.5665  0.1462
 2035SOL     OW 8210   2.039   2.329   3.413  0.1270  0.0207 -0.3601
 2035SOL    HW2 8211   2.118   2.367   3.451 -0.9584  1.2085  0.7543
 2035SOL    HW3 8212   2.056   2.326   3.319  1.4890  0.2648 -0.1245
 2035SOL    MW4 8213   2.052   2.334   3.406  0.1633  0.2096 -0.1819
 2036SOL     OW 8214   1.811   2.472   3.452  0.6523 -0.1348 -0.0906
 2036SOL    HW2 8215   1.888   2.417   3.444  0.5725 -0.0268 -2.0489
 2036SOL    HW3 8216   1.740   2.420   3.414  0.7159  1.5067 -2.6608
 2036SOL    MW4 8217   1.811   2.458   3.446  0.6502  0.0961 -0.6878
 2037SOL     OW 8218   1.757   2.732   3.377  0.0419 -0.2396  0.2963
 2037SOL    HW2 8219   1.833   2.784   3.405  0.4800 -0.2620 -0.7929
 2037SOL    HW3 8220   1.777   2.643   3.407  0.8043 -0.3884 -0.6174
 2037SOL    MW4 8221   1.770   2.727   3.385  0.2004 -0.2625  0.0317
 2038SOL     OW 8222   1.971   2.848   3.509  0.2927  0.2017 -0.3520
 2038SOL    HW2 8223   1.976   2.842   3.605  0.1846  0.9242 -0.3015
 2038SOL    HW3 8224   1.986   2.940   3.490  3.7251 -0.4847 -1.2705
 2038SOL    MW4 8225   1.973   2.859   3.519  0.7312  0.2065 -0.4666
 2039SOL     OW 8226   2.011   3.112   3.443 -0.8152  0.0477 -1.0254
 2039SOL    HW2 8227   2.075   3.182   3.457 -0.9142 -0.3009  1.4011
 2039SOL    HW3 8228   1.926   3.153   3.459 -0.9298 -0.4323 -0.3801
 2039SOL    MW4 8229   2.008   3.127   3.447 -0.8435 -0.0615 -0.6206
 2040SOL     OW 8230   1.778   3.226   3.525  0.2728  0.1432 -0.0710
 2040SOL    HW2 8231   1.785   3.234   3.620  0.0425  0.3196 -0.0704
 2040SOL    HW3 8232   1.793   3.314   3.492 -1.4075  0.4268 -0.1076
 2040SOL    MW4 8233   1.781   3.239   3.533  0.0206  0.2036 -0.0758
 2041SOL     OW 8234   1.811   3.474   3.403 -0.4064 -0.1669  0.1517
 2041SOL    HW2 8235   1.728   3.515   3.428 -0.7000 -1.7020  1.7894
 2041SOL    HW3 8236   1.807   3.468   3.307 -1.5222  1.1400  0.1072
 2041SOL    MW4 8237   1.800   3.479   3.394 -0.5924 -0.1969  0.3619
 2042SOL     OW 8238   1.997   3.672   3.482 -0.0415  0.1094  0.4411
 2042SOL    HW2 8239   2.076   3.623   3.460 -0.3413 -0.2053  0.0496
 2042SOL    HW3 8240   1.925   3.617   3.451 -0.3990  0.6125  0.3648
 2042SOL    MW4 8241   1.998   3.658   3.475 -0.1280  0.1342  0.3793
 2043SOL     OW 8242   2.072   3.904   3.371  0.1739  0.0513  0.1912
 2043SOL    HW2 8243   1.995   3.952   3.401  0.1676  0.1319  0.0451
 2043SOL    HW3 8244   2.056   3.814   3.400 -0.1516 -0.0062 -0.1758
 2043SOL    MW4 8245   2.059   3.899   3.379  0.1302  0.0546  0.1235
 2044SOL     OW 8246   1.798   4.033   3.470  0.2042 -0.2037 -0.6378
 2044SOL    HW2 8247   1.817   3.998   3.557  0.7550 -1.3327 -1.2089
 2044SOL    HW3 8248   1.714   3.994   3.446 -0.4139  0.8453 -0.2316
 2044SOL    MW4 8249   1.790   4.023   3.479  0.1954 -0.2151 -0.6597
 2045SOL     OW 8250   1.783   4.297   3.368 -0.2592 -0.0186  0.0765
 2045SOL    HW2 8251   1.800   4.210   3.404  0.0926 -0.0096 -0.0713
 2045SOL    HW3 8252   1.790   4.286   3.274  0.1055  0.2371  0.0720
 2045SOL    MW4 8253   1.786   4.284   3.361 -0.1647  0.0167  0.0567
 2046SOL     OW 8254   2.034   4.381   3.437 -0.0788  0.0407  0.1587
 2046SOL    HW2 8255   1.943   4.354   3.428  0.3048 -1.0423 -0.6557
 2046SOL    HW3 8256   2.035   4.473   3.412 -0.7898 -0.2131 -0.8596
 2046SOL    MW4 8257   2.022   4.390   3.432 -0.1218 -0.1354 -0.0830
 2047SOL     OW 8258   2.478   0.030   3.401  0.3282 -0.0064  0.4842
 2047SOL    HW2 8259   2.480  -0.064   3.416 -0.3972 -0.1210 -0.1037
 2047SOL    HW3 8260   2.473   0.039   3.306 -0.3032  0.6139  0.5695
 2047SOL    MW4 8261   2.477   0.019   3.390  0.1490  0.0604  0.4182
 2048SOL     OW 8262   2.226   0.112   3.484  0.2989  0.2157 -0.2161
 2048SOL    HW2 8263   2.224   0.202   3.450 -0.1958 -0.4936 -2.1668
 2048SOL    HW3 8264   2.315   0.082   3.468  0.1607 -0.0000 -0.6004
 2048SOL    MW4 8265   2.237   0.120   3.477  0.2151  0.0937 -0.5243
 2049SOL     OW 8266   2.267   0.356   3.362 -0.1122  0.0939  0.0250
 2049SOL    HW2 8267   2.347   0.403   3.387  0.1574 -1.3800  2.1295
 2049SOL    HW3 8268   2.196   0.412   3.391  0.2045 -0.8124  2.7616
 2049SOL    MW4 8269   2.268   0.369   3.369 -0.0348 -0.2201  0.6640
 2050SOL     OW 8270   2.471   0.514   3.461 -0.0746 -0.3061 -0.0871
 2050SOL    HW2 8271   2.560   0.478   3.465 -0.2450 -0.7546 -0.3252
 2050SOL    HW3 8272   2.482   0.601   3.423  0.5486  0.6117  2.0875
 2050SOL    MW4 8273   2.484   0.521   3.457 -0.0150 -0.2442  0.1688
 2051SOL     OW 8274   2.497   0.763   3.357 -0.2807  0.6853  0.2588
 2051SOL    HW2 8275   2.572   0.812   3.391  0.4042 -0.2491  0.0906
 2051SOL    HW3 8276   2.507   0.766   3.262  0.0254 -0.1913  0.2595
 2051SOL    MW4 8277   2.508   0.770   3.349 -0.1500  0.4463  0.2367
 2052SOL     OW 8278   2.234   0.890   3.420 -0.3790  0.0225  0.2783
 2052SOL    HW2 8279   2.234   0.981   3.392 -1.0891  0.1728  0.7584
 2052SOL    HW3 8280   2.318   0.855   3.390  0.0306  0.9214  0.3745
 2052SOL    MW4 8281   2.245   0.897   3.413 -0.4184  0.1609  0.3545
 2053SOL     OW 8282   2.219   1.174   3.380 -0.6771  0.2727 -0.0320
 2053SOL    HW2 8283   2.292   1.207   3.431 -0.7680 -1.6585  1.4130
 2053SOL    HW3 8284   2.143   1.223   3.412 -0.1204  2.0377 -1.3010
 2053SOL    MW4 8285   2.218   1.185   3.391 -0.6156  0.2508 -0.0088
 2054SOL     OW 8286   2.451   1.290   3.448 -0.4843 -0.2947 -0.6270
 2054SOL    HW2 8287   2.471   1.300   3.541  1.0108  1.1773 -1.0833
 2054SOL    HW3 8288   2.527   1.246   3.410 -0.9749 -0.6605 -1.2142
 2054SOL    MW4 8289   2.464   1.286   3.455 -0.3517 -0.1488 -0.7646
 2055SOL     OW 8290   2.425   1.537   3.337 -0.2017 -0.3542  0.3619
 2055SOL    HW2 8291   2.436   1.447   3.366 -2.8241 -1.2315 -1.1999
 2055SOL    HW3 8292   2.417   1.531   3.242  1.5296  1.7658  0.0323
 2055SOL    MW4 8293   2.425   1.525   3.328 -0.3192 -0.1903  0.1123
 2056SOL     OW 8294   2.240   1.719   3.437 -0.2360  0.2831  0.0856
 2056SOL    HW2 8295   2.242   1.699   3.530 -0.0804  0.6611  0.1671
 2056SOL    HW3 8296   2.295   1.653   3.396 -1.7408 -0.9712  0.0486
 2056SOL    MW4 8297   2.247   1.708   3.444 -0.4137  0.1675  0.0916
 2057SOL     OW 8298   2.226   1.962   3.335 -0.2269  0.3305 -0.4232
 2057SOL    HW2 8299   2.232   1.873   3.370 -0.4421  0.2555 -0.5761
 2057SOL    HW3 8300   2.210   1.949   3.241  0.2636  0.5283 -0.5401
 2057SOL    MW4 8301   2.225   1.948   3.327 -0.1905  0.3468 -0.4587
 2058SOL     OW 8302   2.443   2.039   3.502 -0.4902  0.0724  0.4355
 2058SOL    HW2 8303   2.417   2.045   3.593  0.1227  0.8107  0.5675
 2058SOL    HW3 8304   2.362   2.016   3.455 -1.4576  2.5425  0.8009
 2058SOL    MW4 8305   2.429   2.037   3.508 -0.5369  0.4957  0.5014
 2059SOL     OW 8306   2.468   2.275   3.378  0.0812 -0.0343 -1.0459
 2059SOL    HW2 8307   2.528   2.329   3.430 -1.8522  0.5431  0.6935
 2059SOL    HW3 8308   2.472   2.188   3.419 -0.2526  0.0028 -0.9316
 2059SOL    MW4 8309   2.477   2.271   3.391 -0.2179  0.0470 -0.8016
 2060SOL     OW 8310   2.267   2.420   3.535 -0.1795 -0.0277  0.0971
 2060SOL    HW2 8311   2.273   2.514   3.517  0.4595 -0.0002  0.4153
 2060SOL    HW3 8312   2.324   2.380   3.470 -0.2443 -0.1691  0.1282
 2060SOL    MW4 8313   2.276   2.427   3.524 -0.1040 -0.0427  0.1431
 2061SOL     OW 8314   2.215   2.681   3.471 -0.2948  0.1944 -0.3323
 2061SOL    HW2 8315   2.138   2.726   3.506 -0.8961  0.0173 -1.3714
 2061SOL    HW3 8316   2.207   2.692   3.376  0.7690 -0.1425 -0.4652
 2061SOL    MW4 8317   2.204   2.688   3.463 -0.2339  0.1266 -0.4869
 2062SOL     OW 8318   2.421   2.849   3.523  0.4764  0.0640  0.5833
 2062SOL    HW2 8319   2.401   2.932   3.479  0.7493  0.0711  0.4729
 2062SOL    HW3 8320   2.346   2.793   3.503  0.2191  0.3357  0.7859
 2062SOL    MW4 8321   2.408   2.853   3.515  0.4785  0.1006  0.5953
 2063SOL     OW 8322   2.434   3.086   3.376  0.2122  0.3891  0.0608
 2063SOL    HW2 8323   2.508   3.123   3.425  0.3157 -0.4478  0.5450
 2063SOL    HW3 8324   2.456   3.102   3.284  0.9535  0.2343  0.2073
 2063SOL    MW4 8325   2.447   3.093   3.370  0.3238  0.2584  0.1440
 2064SOL     OW 8326   2.218   3.291   3.463  0.5993 -0.5174 -0.2783
 2064SOL    HW2 8327   2.222   3.289   3.559 -0.9761 -0.2456 -0.1958
 2064SOL    HW3 8328   2.282   3.226   3.435  0.2547 -1.4193  0.9818
 2064SOL    MW4 8329   2.227   3.282   3.472  0.3462 -0.6006 -0.1013
 2065SOL     OW 8330   2.224   3.545   3.376 -0.0265 -0.6595 -0.2342
 2065SOL    HW2 8331   2.224   3.455   3.409  0.3970 -1.0011 -1.1697
 2065SOL    HW3 8332   2.254   3.538   3.286  1.4239  0.5854  0.1288
 2065SOL    MW4 8333   2.228   3.533   3.369  0.2210 -0.5403 -0.3099
 2066SOL     OW 8334   2.433   3.631   3.522 -0.7880  0.1709  0.1037
 2066SOL    HW2 8335   2.460   3.713   3.480  0.9305 -0.7595 -0.6497
 2066SOL    HW3 8336   2.357   3.602   3.472 -0.5125  0.5556 -0.5346
 2066SOL    MW4 8337   2.427   3.638   3.510 -0.5250  0.0989 -0.0799
 2067SOL     OW 8338   2.532   3.868   3.396  0.0978 -0.1120 -0.5430
 2067SOL    HW2 8339   2.605   3.924   3.421  0.1482 -0.6296  0.5180
 2067SOL    HW3 8340   2.454   3.917   3.422  0.1195 -0.2137 -0.2818
 2067SOL    MW4 8341   2.531   3.881   3.403  0.1070 -0.1936 -0.3686
 2068SOL     OW 8342   2.299   4.007   3.466 -0.9063  0.4427 -0.2656
 2068SOL    HW2 8343   2.294   4.096   3.431 -1.5948  0.6515  0.3766
 2068SOL    HW3 8344   2.219   3.964   3.436 -1.5268  0.6354  1.0961
 2068SOL    MW4 8345   2.288   4.013   3.457 -1.0793  0.4959 -0.0014
 2069SOL     OW 8346   2.273   4.262   3.357 -0.3259  0.5945  0.5513
 2069SOL    HW2 8347   2.198   4.321   3.367 -0.2772  0.8561 -0.5160
 2069SOL    HW3 8348   2.289   4.260   3.262  0.8732  0.3639  0.7450
 2069SOL    MW4 8349   2.265   4.270   3.346 -0.1612  0.5989  0.4358
 2070SOL     OW 8350   2.479   4.421   3.462  0.3215  0.1140 -0.4143
 2070SOL    HW2 8351   2.491   4.394   3.553  1.0912  0.1596 -0.4973
 2070SOL    HW3 8352   2.401   4.373   3.433 -0.7358  1.1205  0.6630
 2070SOL    MW4 8353   2.470   4.411   3.470  0.2835  0.2532 -0.2830
 2071SOL     OW 8354   2.923   0.005   3.426 -0.0956 -0.2119 -0.0711
 2071SOL    HW2 8355   2.840   0.032   3.465 -0.5323  0.5486 -1.5033
 2071SOL    HW3 8356   2.910   0.015   3.332  1.2448 -1.1729 -0.3718
 2071SOL    MW4 8357   2.911   0.010   3.419  0.0236 -0.2384 -0.2995
 2072SOL     OW 8358   2.695   0.141   3.522 -0.3717 -0.3153 -0.2658
 2072SOL    HW2 8359   2.703   0.226   3.480  0.4740 -0.2213  0.0755
 2072SOL    HW3 8360   2.617   0.102   3.484 -0.2206  0.2201 -1.1267
 2072SOL    MW4 8361   2.686   0.147   3.512 -0.2401 -0.2322 -0.3340
 2073SOL     OW 8362   2.730   0.400   3.419 -0.2815 -0.5313  0.4639
 2073SOL    HW2 8363   2.814   0.441   3.436 -0.9000  1.3410 -0.8455
 2073SOL    HW3 8364   2.721   0.402   3.323 -1.5603 -1.2377  0.5555
 2073SOL    MW4 8365   2.740   0.406   3.408 -0.5319 -0.3774  0.3030
 2074SOL     OW 8366   2.986   0.508   3.487 -0.2226 -0.4625 -0.3630
 2074SOL    HW2 8367   2.968   0.511   3.581  0.2260 -1.1944 -0.2447
 2074SOL    HW3 8368   2.993   0.600   3.460  1.2219 -0.2579  0.6388
 2074SOL    MW4 8369   2.984   0.521   3.496  0.0272 -0.5321 -0.2153
 2075SOL     OW 8370   2.948   0.755   3.368  0.0536  0.0142 -0.0234
 2075SOL    HW2 8371   3.027   0.778   3.416 -0.4286  2.3441 -0.2867
 2075SOL    HW3 8372   2.877   0.801   3.414 -0.5191  1.6536 -2.4315
 2075SOL    MW4 8373   2.949   0.764   3.380 -0.0856  0.5379 -0.3760
 2076SOL     OW 8374   2.736   0.907   3.463 -0.4841 -0.8164  0.0084
 2076SOL    HW2 8375   2.713   0.907   3.556  0.2502 -1.1792  0.1992
 2076SOL    HW3 8376   2.717   0.996   3.434  0.9687 -0.1640  0.9505
 2076SOL    MW4 8377   2.731   0.919   3.472 -0.1955 -0.7781  0.1581
 2077SOL     OW 8378   2.719   1.168   3.355  0.1316 -0.1399 -0.0919
 2077SOL    HW2 8379   2.794   1.219   3.386  0.7228 -0.5170 -0.8770
 2077SOL    HW3 8380   2.715   1.186   3.261  0.1258 -1.2452 -0.3075
 2077SOL    MW4 8381   2.729   1.177   3.347  0.2089 -0.3356 -0.2236
 2078SOL     OW 8382   2.952   1.305   3.439  0.1453 -0.1105  0.0527
 2078SOL    HW2 8383   2.920   1.283   3.527  0.4175  1.1399  0.4860
 2078SOL    HW3 8384   3.026   1.247   3.425 -0.0670 -0.5071  0.5482
 2078SOL    MW4 8385   2.958   1.295   3.449  0.1531  0.0021  0.1752
 2079SOL     OW 8386   2.945   1.584   3.409 -0.0877 -0.2098  0.4741
 2079SOL    HW2 8387   2.854   1.601   3.435  0.2573  2.2989  0.1378
 2079SOL    HW3 8388   2.954   1.489   3.417 -3.1391 -0.6879 -0.8316
 2079SOL    MW4 8389   2.934   1.573   3.414 -0.4447  0.0583  0.2573
 2080SOL     OW 8390   2.672   1.656   3.454 -0.1042  0.0212 -0.1166
 2080SOL    HW2 8391   2.675   1.747   3.425 -0.4499 -0.3355 -1.2830
 2080SOL    HW3 8392   2.597   1.618   3.408 -2.5319  0.2082  3.4760
 2080SOL    MW4 8393   2.662   1.663   3.444 -0.4702 -0.0011  0.2034
 2081SOL     OW 8394   2.684   1.919   3.373  0.0571  0.0065  0.1368
 2081SOL    HW2 8395   2.603   1.950   3.414 -1.0165 -0.4696 -1.6082
 2081SOL    HW3 8396   2.669   1.926   3.279  1.9284 -0.3981 -0.2262
 2081SOL    MW4 8397   2.672   1.924   3.366  0.1621 -0.1097 -0.1414
 2082SOL     OW 8398   2.898   2.068   3.468 -0.1085  0.0266  0.1829
 2082SOL    HW2 8399   2.885   2.066   3.563 -0.0653 -1.0816  0.1784
 2082SOL    HW3 8400   2.825   2.018   3.433  0.3998 -0.3956 -0.2909
 2082SOL    MW4 8401   2.887   2.061   3.476 -0.0355 -0.1755  0.1199
 2083SOL     OW 8402   2.899   2.339   3.402  0.0443  0.5098 -0.4523
 2083SOL    HW2 8403   2.901   2.247   3.426 -0.9236  0.2468 -1.3207
 2083SOL    HW3 8404   2.899   2.339   3.307 -0.8994  1.3592 -0.4690
 2083SOL    MW4 8405   2.899   2.327   3.393 -0.2079  0.5872 -0.5689
 2084SOL     OW 8406   2.641   2.448   3.507 -0.2181  0.6949 -0.6722
 2084SOL    HW2 8407   2.633   2.436   3.602 -0.6824  0.5408 -0.7351
 2084SOL    HW3 8408   2.730   2.418   3.487 -0.8138 -1.1711 -0.5972
 2084SOL    MW4 8409   2.652   2.443   3.517 -0.3576  0.4284 -0.6707
 2085SOL     OW 8410   2.658   2.713   3.418 -0.1155 -0.1099 -0.0661
 2085SOL    HW2 8411   2.646   2.621   3.443 -0.5164  0.2565  1.1119
 2085SOL    HW3 8412   2.580   2.757   3.451  0.0199  0.6428 -0.7275
 2085SOL    MW4 8413   2.646   2.707   3.425 -0.1507  0.0377  0.0021
 2086SOL     OW 8414   2.913   2.808   3.493  0.2108  0.1156 -0.2504
 2086SOL    HW2 8415   2.918   2.778   3.584 -0.0421 -1.7884 -0.8548
 2086SOL    HW3 8416   2.833   2.769   3.459  1.1664 -0.5658 -1.7736
 2086SOL    MW4 8417   2.903   2.799   3.501  0.3035 -0.2255 -0.5310
 2087SOL     OW 8418   2.933   3.080   3.430 -0.7857 -0.6407  0.1513
 2087SOL    HW2 8419   2.924   2.991   3.466 -0.4307 -0.3335  1.0102
 2087SOL    HW3 8420   2.952   3.066   3.337 -0.4721 -1.4729  0.3318
 2087SOL    MW4 8421   2.934   3.066   3.423 -0.6974 -0.7102  0.2885
 2088SOL     OW 8422   2.682   3.195   3.491 -0.2343  0.2710 -0.2507
 2088SOL    HW2 8423   2.684   3.202   3.586  2.2009  2.0049 -0.3655
 2088SOL    HW3 8424   2.767   3.158   3.468 -1.0973 -0.8677 -1.7248
 2088SOL    MW4 8425   2.694   3.191   3.501 -0.0269  0.3495 -0.4604
 2089SOL     OW 8426   2.691   3.483   3.450 -0.3089  0.1166 -0.7657
 2089SOL    HW2 8427   2.695   3.392   3.479  0.5569 -0.1721 -1.7729
 2089SOL    HW3 8428   2.618   3.521   3.500  0.8478 -0.4894  1.4245
 2089SOL    MW4 8429   2.682   3.476   3.461 -0.0420 -0.0014 -0.6096
 2090SOL     OW 8430   2.937   3.623   3.492 -0.4050 -0.0187  0.3222
 2090SOL    HW2 8431   2.923   3.712   3.459 -0.1789 -0.0272  0.1948
 2090SOL    HW3 8432   2.851   3.582   3.490 -0.1827 -0.4719 -1.6158
 2090SOL    MW4 8433   2.924   3.629   3.487 -0.3457 -0.0796  0.0494
 2091SOL     OW 8434   2.938   3.871   3.391 -0.0541 -0.0714 -0.3178
 2091SOL    HW2 8435   3.028   3.901   3.396 -0.0115 -0.2434 -0.0074
 2091SOL    HW3 8436   2.887   3.940   3.433  0.1306 -0.7913  1.1108
 2091SOL    MW4 8437   2.943   3.884   3.397 -0.0241 -0.1891 -0.0885
 2092SOL     OW 8438   2.721   4.058   3.430  0.0375 -0.3726 -0.2446
 2092SOL    HW2 8439   2.717   4.070   3.525 -2.0067 -1.2892 -0.1851
 2092SOL    HW3 8440   2.699   4.143   3.394  0.3151 -0.1518  0.1024
 2092SOL    MW4 8441   2.718   4.071   3.438 -0.1953 -0.4644 -0.1910
 2093SOL     OW 8442   2.721   4.327   3.355  0.1610 -0.1878  0.0264
 2093SOL    HW2 8443   2.793   4.354   3.412  0.6015  0.9454 -1.0232
 2093SOL    HW3 8444   2.644   4.370   3.391  0.4164  0.4298 -0.1499
 2093SOL    MW4 8445   2.720   4.336   3.367  0.2532  0.0434 -0.1352
 2094SOL     OW 8446   2.949   4.404   3.495  0.3794  0.2334 -0.2725
 2094SOL    HW2 8447   2.933   4.408   3.589 -1.3396 -1.5677 -0.4411
 2094SOL    HW3 8448   2.951   4.495   3.466 -0.8709  0.7442  1.2372
 2094SOL    MW4 8449   2.947   4.417   3.503 -0.0124  0.0629 -0.0958
 2095SOL     OW 8450   3.388   4.662   3.368 -0.2301  0.4014 -0.0161
 2095SOL    HW2 8451   3.307   4.687   3.411 -0.2252  1.3045 -0.5396
 2095SOL    HW3 8452   3.366   4.653   3.276  0.0322 -0.3891 -0.0125
 2095SOL    MW4 8453   3.375   4.664   3.362 -0.1948  0.4162 -0.0849
 2096SOL     OW 8454   3.172   0.057   3.515  0.2932 -0.2101 -0.4474
 2096SOL    HW2 8455   3.181   0.152   3.507 -1.0140  0.0187  0.6131
 2096SOL    HW3 8456   3.087   0.037   3.475  0.0711 -0.7797  0.2891
 2096SOL    MW4 8457   3.162   0.067   3.508  0.0916 -0.2551 -0.2103
 2097SOL     OW 8458   3.186   0.332   3.394  0.5397 -0.1906  0.6322
 2097SOL    HW2 8459   3.109   0.385   3.419  0.2441 -0.3339  0.0304
 2097SOL    HW3 8460   3.206   0.360   3.305  0.0560 -1.4764  0.1096
 2097SOL    MW4 8461   3.178   0.343   3.386  0.4368 -0.3791  0.4840
 2098SOL     OW 8462   3.391   0.486   3.504 -0.1361 -0.1790  0.3099
 2098SOL    HW2 8463   3.380   0.489   3.599 -0.4538  1.7393  0.2363
 2098SOL    HW3 8464   3.313   0.440   3.472  0.7843 -2.3429  1.0692
 2098SOL    MW4 8465   3.380   0.480   3.512 -0.0567 -0.2114  0.4005
 2099SOL     OW 8466   3.411   0.736   3.385  0.1160 -0.1077  0.3308
 2099SOL    HW2 8467   3.479   0.780   3.435  0.1027  1.1566 -0.7508
 2099SOL    HW3 8468   3.408   0.647   3.422  2.1467 -0.0953  0.5676
 2099SOL    MW4 8469   3.419   0.730   3.397  0.3822  0.0607  0.2193
 2100SOL     OW 8470   3.172   0.861   3.481  0.5548  0.5107  0.0946
 2100SOL    HW2 8471   3.185   0.955   3.465  2.2906  0.7251  2.5120
 2100SOL    HW3 8472   3.254   0.820   3.452 -0.4512 -0.3819 -1.5861
 2100SOL    MW4 8473   3.184   0.868   3.475  0.6509  0.4212  0.1917
 2101SOL     OW 8474   3.160   1.124   3.395  0.1200 -0.2459  0.5398
 2101SOL    HW2 8475   3.233   1.185   3.408 -0.7981  1.3195 -1.3470
 2101SOL    HW3 8476   3.145   1.123   3.301 -3.2754  0.6843  0.9745
 2101SOL    MW4 8477   3.167   1.132   3.385 -0.4492  0.0833  0.3483
 2102SOL     OW 8478   3.362   1.292   3.499  0.2135 -0.5042 -0.0474
 2102SOL    HW2 8479   3.444   1.245   3.485 -0.4332 -1.2437 -1.3462
 2102SOL    HW3 8480   3.375   1.376   3.454  0.4188 -0.4313  0.1420
 2102SOL    MW4 8481   3.375   1.297   3.492  0.1552 -0.5921 -0.1938
 2103SOL     OW 8482   3.416   1.541   3.384 -0.2749 -0.3461  0.6897
 2103SOL    HW2 8483   3.496   1.582   3.418  1.0560 -0.8285 -1.7504
 2103SOL    HW3 8484   3.345   1.587   3.429  1.2929  2.0994  0.7545
 2103SOL    MW4 8485   3.417   1.552   3.395  0.1075 -0.0870  0.3765
 2104SOL     OW 8486   3.195   1.678   3.446  0.2370 -0.3760 -0.0418
 2104SOL    HW2 8487   3.190   1.772   3.430 -0.1654 -0.3904  0.0051
 2104SOL    HW3 8488   3.106   1.646   3.432  0.0340 -0.5104  1.4343
 2104SOL    MW4 8489   3.183   1.686   3.442  0.1569 -0.3957  0.1593
 2105SOL     OW 8490   3.135   1.952   3.415 -0.2816  0.0247  0.3177
 2105SOL    HW2 8491   3.044   1.978   3.431 -0.2606 -0.0210  0.5067
 2105SOL    HW3 8492   3.147   1.964   3.320 -0.2022  0.9076  0.4371
 2105SOL    MW4 8493   3.124   1.957   3.404 -0.2682  0.1352  0.3583
 2106SOL     OW 8494   3.384   2.082   3.510 -0.0489 -0.1826  0.3172
 2106SOL    HW2 8495   3.402   2.163   3.462  0.4679 -0.2985  0.3169
 2106SOL    HW3 8496   3.290   2.067   3.498  0.3038 -0.8508 -1.6329
 2106SOL    MW4 8497   3.374   2.091   3.502  0.0656 -0.2861  0.0598
 2107SOL     OW 8498   3.364   2.328   3.387 -0.3886 -0.0517  0.1074
 2107SOL    HW2 8499   3.443   2.362   3.431  0.0580 -0.9539  0.0114
 2107SOL    HW3 8500   3.292   2.373   3.431  0.1354  0.2082  0.7253
 2107SOL    MW4 8501   3.365   2.339   3.399 -0.2606 -0.1366  0.1762
 2108SOL     OW 8502   3.139   2.429   3.510 -0.2855 -0.3103 -0.4754
 2108SOL    HW2 8503   3.154   2.516   3.472  0.2834 -0.4831 -0.6475
 2108SOL    HW3 8504   3.053   2.404   3.478 -0.7445  0.4714  0.1081
 2108SOL    MW4 8505   3.129   2.437   3.501 -0.2708 -0.2298 -0.4210
 2109SOL     OW 8506   3.142   2.690   3.393 -0.4742  0.2772 -0.2745
 2109SOL    HW2 8507   3.220   2.733   3.428 -0.2350 -0.5670  0.2485
 2109SOL    HW3 8508   3.069   2.735   3.435 -0.2575  0.8308 -0.4873
 2109SOL    MW4 8509   3.143   2.701   3.403 -0.4141  0.2389 -0.2332
 2110SOL     OW 8510   3.363   2.827   3.518 -0.3569 -0.1552  0.2532
 2110SOL    HW2 8511   3.446   2.784   3.494 -1.1061 -1.8700  0.6521
 2110SOL    HW3 8512   3.371   2.916   3.483  0.0789 -1.4426 -3.1440
 2110SOL    MW4 8513   3.375   2.833   3.510 -0.3986 -0.5512 -0.1423
 2111SOL     OW 8514   3.388   3.087   3.420 -0.3363 -0.4785  0.2380
 2111SOL    HW2 8515   3.474   3.122   3.444 -0.2577 -0.4803 -0.0297
 2111SOL    HW3 8516   3.325   3.152   3.450 -0.2904 -0.8478  1.1364
 2111SOL    MW4 8517   3.391   3.100   3.427 -0.3200 -0.5279  0.3214
 2112SOL     OW 8518   3.152   3.236   3.513 -0.4341  0.3855 -0.3599
 2112SOL    HW2 8519   3.148   3.321   3.468 -0.9544  0.0302 -0.9816
 2112SOL    HW3 8520   3.075   3.189   3.482 -0.1596 -0.3064  0.0135
 2112SOL    MW4 8521   3.142   3.241   3.503 -0.4666  0.2472 -0.3924
 2113SOL     OW 8522   3.151   3.490   3.405  0.1030  0.4052 -0.3787
 2113SOL    HW2 8523   3.080   3.546   3.435 -1.5460 -1.5864 -0.4703
 2113SOL    HW3 8524   3.146   3.492   3.309  0.3510  0.4878 -0.3917
 2113SOL    MW4 8525   3.141   3.498   3.396 -0.0818  0.1535 -0.3924
 2114SOL     OW 8526   3.383   3.602   3.514  0.0546 -0.0623  0.1734
 2114SOL    HW2 8527   3.393   3.693   3.485  0.7645 -0.3157 -0.4055
 2114SOL    HW3 8528   3.307   3.569   3.466  1.8047 -0.7757 -2.2129
 2114SOL    MW4 8529   3.374   3.610   3.504  0.3791 -0.1898 -0.2177
 2115SOL     OW 8530   3.410   3.873   3.415  0.1025 -0.1985  0.2112
 2115SOL    HW2 8531   3.476   3.933   3.448  1.3064 -1.1064 -0.5093
 2115SOL    HW3 8532   3.326   3.910   3.444  0.7933  2.0971 -0.6669
 2115SOL    MW4 8533   3.407   3.886   3.423  0.3521 -0.0153  0.0002
 2116SOL     OW 8534   3.168   3.979   3.512  0.4183 -0.3650 -0.0683
 2116SOL    HW2 8535   3.142   3.976   3.604 -1.7698 -1.7584 -0.6805
 2116SOL    HW3 8536   3.160   4.071   3.487 -0.6410 -0.2358  0.7008
 2116SOL    MW4 8537   3.163   3.991   3.520 -0.0100 -0.5317 -0.0474
 2117SOL     OW 8538   3.166   4.223   3.393 -0.0038 -0.5194 -0.1032
 2117SOL    HW2 8539   3.241   4.280   3.405 -0.2149  0.0529 -1.4135
 2117SOL    HW3 8540   3.096   4.264   3.443  0.0549 -0.0553 -0.4018
 2117SOL    MW4 8541   3.167   4.236   3.401 -0.0238 -0.3819 -0.3154
 2118SOL     OW 8542   3.359   4.398   3.468  0.0269 -0.2240 -0.1672
 2118SOL    HW2 8543   3.337   4.389   3.560  0.7815  0.4970  0.0783
 2118SOL    HW3 8544   3.375   4.491   3.455  1.2933 -0.5115 -0.7162
 2118SOL    MW4 8545   3.358   4.409   3.478  0.2935 -0.1669 -0.2074
 2119SOL     OW 8546   3.783   4.636   3.424 -0.4887 -0.0206 -0.2474
 2119SOL    HW2 8547   3.709   4.690   3.450 -0.6860  0.1603 -1.1591
 2119SOL    HW3 8548   3.778   4.633   3.328  0.1325 -0.7829 -0.2614
 2119SOL    MW4 8549   3.773   4.643   3.414 -0.4327 -0.0973 -0.3695
 2120SOL     OW 8550   3.582   0.151   3.498 -0.2348  0.2740  0.3659
 2120SOL    HW2 8551   3.587   0.234   3.450  0.2680  0.7641  1.2420
 2120SOL    HW3 8552   3.513   0.101   3.454  0.3140  0.6564 -0.9427
 2120SOL    MW4 8553   3.574   0.155   3.486 -0.0961  0.3891  0.3085
 2121SOL     OW 8554   3.584   0.396   3.329 -0.0424 -0.1298 -0.2751
 2121SOL    HW2 8555   3.649   0.457   3.364  0.3136 -0.7650  0.1842
 2121SOL    HW3 8556   3.502   0.420   3.372 -0.1753  0.8777 -1.0940
 2121SOL    MW4 8557   3.582   0.407   3.339 -0.0131 -0.0807 -0.3223
 2122SOL     OW 8558   3.795   0.541   3.482  0.2853 -0.3253  0.2541
 2122SOL    HW2 8559   3.782   0.533   3.577 -0.5896 -0.6542  0.1120
 2122SOL    HW3 8560   3.872   0.486   3.464  0.7895  0.1818  0.8479
 2122SOL    MW4 8561   3.803   0.532   3.492  0.2363 -0.3018  0.3140
 2123SOL     OW 8562   3.789   0.801   3.418  0.1166  0.0500 -0.2021
 2123SOL    HW2 8563   3.868   0.840   3.455  0.9167  0.0692 -1.8611
 2123SOL    HW3 8564   3.792   0.710   3.447  0.5101  0.1741  0.1467
 2123SOL    MW4 8565   3.800   0.794   3.426  0.2742  0.0690 -0.3748
 2124SOL     OW 8566   3.582   0.926   3.536  0.5835  0.2542 -0.1388
 2124SOL    HW2 8567   3.580   0.895   3.627  0.0648 -0.2396 -0.3129
 2124SOL    HW3 8568   3.664   0.891   3.502  0.5803  0.0816  0.0236
 2124SOL    MW4 8569   3.592   0.917   3.544  0.5147  0.1662 -0.1404
 2125SOL     OW 8570   3.593   1.161   3.404  0.2408 -0.2180  0.2839
 2125SOL    HW2 8571   3.586   1.074   3.445 -1.7921 -0.6215 -0.8926
 2125SOL    HW3 8572   3.587   1.144   3.310 -0.4344  1.2214  0.0582
 2125SOL    MW4 8573   3.592   1.147   3.397 -0.1163 -0.0814  0.0989
 2126SOL     OW 8574   3.803   1.289   3.494  0.0918 -0.0447  0.5588
 2126SOL    HW2 8575   3.798   1.300   3.590 -0.0931  1.6479  0.3807
 2126SOL    HW3 8576   3.716   1.258   3.470  0.1779 -0.6057  0.9541
 2126SOL    MW4 8577   3.791   1.286   3.504  0.0784  0.1045  0.5875
 2127SOL     OW 8578   3.820   1.556   3.406 -0.3146  0.0285 -0.2639
 2127SOL    HW2 8579   3.907   1.591   3.421 -0.9900  2.0984 -0.9902
 2127SOL    HW3 8580   3.820   1.470   3.449  1.5939  0.6341  0.9800
 2127SOL    MW4 8581   3.831   1.549   3.414 -0.1521  0.3815 -0.1955
 2128SOL     OW 8582   3.606   1.689   3.523 -0.1862 -0.1317  0.5332
 2128SOL    HW2 8583   3.593   1.772   3.478 -2.2177 -0.2730  0.8114
 2128SOL    HW3 8584   3.689   1.656   3.489  0.1463  1.5307 -0.3147
 2128SOL    MW4 8585   3.615   1.695   3.513 -0.4106  0.0690  0.4582
 2129SOL     OW 8586   3.582   1.936   3.399 -0.0921  0.1336  0.0429
 2129SOL    HW2 8587   3.654   1.981   3.444  0.2530 -1.0216  0.6765
 2129SOL    HW3 8588   3.503   1.981   3.430  0.3650  1.6981 -0.9978
 2129SOL    MW4 8589   3.581   1.948   3.409  0.0136  0.1876 -0.0107
 2130SOL     OW 8590   3.817   2.073   3.515  0.2576 -0.1166  0.0984
 2130SOL    HW2 8591   3.831   2.055   3.608 -0.9200  0.3772  0.3726
 2130SOL    HW3 8592   3.890   2.029   3.471  0.3182 -1.1284  1.1847
 2130SOL    MW4 8593   3.828   2.065   3.521  0.1101 -0.1850  0.2778
 2131SOL     OW 8594   3.803   2.333   3.372 -0.4560 -0.2984  0.1379
 2131SOL    HW2 8595   3.874   2.380   3.416 -0.3171  0.1276 -0.5246
 2131SOL    HW3 8596   3.802   2.247   3.413 -0.8542  0.3615  1.5154
 2131SOL    MW4 8597   3.812   2.328   3.383 -0.4902 -0.1552  0.2322
 2132SOL     OW 8598   3.588   2.459   3.509 -0.0771  0.0922 -0.0978
 2132SOL    HW2 8599   3.592   2.554   3.497 -1.9999  0.1211 -0.5691
 2132SOL    HW3 8600   3.666   2.426   3.464  0.4294  1.4017 -0.2149
 2132SOL    MW4 8601   3.599   2.467   3.502 -0.2639  0.2689 -0.1757
 2133SOL     OW 8602   3.614   2.722   3.426 -0.6414 -0.1403 -0.0194
 2133SOL    HW2 8603   3.681   2.785   3.451 -0.0650 -1.5351  2.0609
 2133SOL    HW3 8604   3.630   2.705   3.334  0.8268  0.7825  0.0527
 2133SOL    MW4 8605   3.625   2.728   3.417 -0.3719 -0.2027  0.2646
 2134SOL     OW 8606   3.816   2.897   3.500  0.1727  0.4856  0.5218
 2134SOL    HW2 8607   3.819   2.894   3.596 -0.6297  1.7921  0.6025
 2134SOL    HW3 8608   3.845   2.986   3.478  1.8175 -0.2782 -0.5255
 2134SOL    MW4 8609   3.820   2.908   3.510  0.2837  0.5572  0.3941
 2135SOL     OW 8610   3.864   3.138   3.411 -0.5494 -0.2284 -0.3681
 2135SOL    HW2 8611   3.945   3.177   3.442 -0.5015 -0.2584 -0.4565
 2135SOL    HW3 8612   3.864   3.154   3.316 -0.8381  0.1292 -0.3106
 2135SOL    MW4 8613   3.875   3.145   3.402 -0.5815 -0.1853 -0.3722
 2136SOL     OW 8614   3.623   3.206   3.517  0.7109 -0.1733  0.2039
 2136SOL    HW2 8615   3.603   3.296   3.490  0.6563 -0.1590  0.2925
 2136SOL    HW3 8616   3.710   3.189   3.481  0.7228 -0.0836  0.1911
 2136SOL    MW4 8617   3.632   3.216   3.509  0.7052 -0.1600  0.2139
 2137SOL     OW 8618   3.593   3.464   3.395  0.7670  0.4221 -0.4497
 2137SOL    HW2 8619   3.518   3.508   3.435  0.2934 -0.7317 -0.0362
 2137SOL    HW3 8620   3.574   3.463   3.301  0.6373  0.8345 -0.4250
 2137SOL    MW4 8621   3.580   3.470   3.388  0.6871  0.3240 -0.3917
 2138SOL     OW 8622   3.815   3.620   3.480 -0.1948 -0.3755 -0.2571
 2138SOL    HW2 8623   3.801   3.640   3.572 -1.7595  0.7631 -0.7255
 2138SOL    HW3 8624   3.733   3.577   3.453  0.8929 -2.2284 -0.7129
 2138SOL    MW4 8625   3.802   3.617   3.489 -0.2580 -0.4697 -0.3793
 2139SOL     OW 8626   3.822   3.897   3.403  0.1177 -0.0035  0.5177
 2139SOL    HW2 8627   3.737   3.930   3.431 -0.5037 -1.2965  0.1817
 2139SOL    HW3 8628   3.823   3.806   3.432  1.2433 -0.0981  0.2064
 2139SOL    MW4 8629   3.811   3.889   3.411  0.1843 -0.1862  0.4323
 2140SOL     OW 8630   3.616   4.014   3.512 -0.1917 -0.2969  0.1124
 2140SOL    HW2 8631   3.603   4.016   3.607  0.6588 -0.2686  0.2310
 2140SOL    HW3 8632   3.602   4.104   3.484 -1.5452 -0.5149  0.0555
 2140SOL    MW4 8633   3.612   4.026   3.521 -0.2582 -0.3223  0.1204
 2141SOL     OW 8634   3.578   4.268   3.414  0.1668 -0.1310  0.1316
 2141SOL    HW2 8635   3.497   4.310   3.444  0.4989  0.2074  0.5411
 2141SOL    HW3 8636   3.564   4.256   3.320 -0.0134  0.6981  0.0461
 2141SOL    MW4 8637   3.565   4.272   3.405  0.1869  0.0224  0.1743
 2142SOL     OW 8638   3.822   4.360   3.458  0.3369 -0.0626 -0.4152
 2142SOL    HW2 8639   3.736   4.320   3.446  0.1996 -1.0426  3.2878
 2142SOL    HW3 8640   3.806   4.454   3.448 -1.0849 -0.2803 -0.2279
 2142SOL    MW4 8641   3.809   4.367   3.455  0.1311 -0.2203  0.0982
 2143SOL     OW 8642   4.262   4.631   3.370  0.1212  0.4565 -0.2179
 2143SOL    HW2 8643   4.264   4.545   3.412 -1.0669  1.5472  2.1367
 2143SOL    HW3 8644   4.333   4.680   3.410  0.5141  0.7355 -1.2367
 2143SOL    MW4 8645   4.272   4.626   3.380  0.0162  0.6371 -0.0417
 2144SOL     OW 8646   4.029   0.085   3.481  0.7092 -0.5960  0.5746
 2144SOL    HW2 8647   4.098   0.040   3.432  1.2315  1.0655 -0.2274
 2144SOL    HW3 8648   3.948   0.043   3.453  1.2644 -1.6464  0.5172
 2144SOL    MW4 8649   4.027   0.073   3.471  0.8516 -0.5154  0.4611
 2145SOL     OW 8650   4.022   0.382   3.426  0.3743 -0.5614  0.2860
 2145SOL    HW2 8651   4.032   0.290   3.448  3.0637 -0.4907 -0.5066
 2145SOL    HW3 8652   4.001   0.382   3.333 -0.1769 -0.4009  0.4109
 2145SOL    MW4 8653   4.021   0.370   3.417  0.6566 -0.5309  0.1979
 2146SOL     OW 8654   4.266   0.470   3.483  0.5704 -0.1640  0.2327
 2146SOL    HW2 8655   4.275   0.560   3.452 -0.0041  0.0019  0.5459
 2146SOL    HW3 8656   4.174   0.450   3.470  0.6700 -0.6656  0.2963
 2146SOL    MW4 8657   4.255   0.479   3.477  0.5078 -0.2083  0.2823
 2147SOL     OW 8658   4.282   0.738   3.418  0.0354 -0.2768  0.1520
 2147SOL    HW2 8659   4.360   0.774   3.460  0.4205 -1.3229  0.3718
 2147SOL    HW3 8660   4.297   0.751   3.324  0.4391 -0.4028  0.1984
 2147SOL    MW4 8661   4.294   0.744   3.411  0.1397 -0.4315  0.1872
 2148SOL     OW 8662   4.038   0.894   3.507  0.4452  0.3945  0.4897
 2148SOL    HW2 8663   4.048   0.976   3.458  0.0557  0.1889  0.0657
 2148SOL    HW3 8664   4.111   0.839   3.478 -0.4756 -0.1822 -0.7705
 2148SOL    MW4 8665   4.049   0.897   3.497  0.2723  0.2912  0.2675
 2149SOL     OW 8666   4.029   1.157   3.375  0.9751 -0.4340  0.7295
 2149SOL    HW2 8667   4.102   1.208   3.409  0.5933 -0.3098  1.3685
 2149SOL    HW3 8668   3.953   1.188   3.424  0.6770 -1.3324  0.8374
 2149SOL    MW4 8669   4.028   1.168   3.386  0.8860 -0.5362  0.8278
 2150SOL     OW 8670   4.245   1.273   3.520  0.0447  0.5093 -0.1382
 2150SOL    HW2 8671   4.251   1.361   3.482  1.8343  0.8246  0.8086
 2150SOL    HW3 8672   4.331   1.234   3.504 -0.2233 -0.4906  0.8046
 2150SOL    MW4 8673   4.257   1.280   3.513  0.2456  0.4191  0.1111
 2151SOL     OW 8674   4.275   1.545   3.400  0.6505 -0.2618 -0.0232
 2151SOL    HW2 8675   4.191   1.581   3.428  0.0141 -1.6376 -0.1209
 2151SOL    HW3 8676   4.267   1.535   3.305  1.0150 -0.1833 -0.0659
 2151SOL    MW4 8677   4.263   1.548   3.391  0.6146 -0.4330 -0.0417
 2152SOL     OW 8678   4.059   1.685   3.473 -0.2199  0.1221  0.2525
 2152SOL    HW2 8679   4.051   1.696   3.568  1.0260 -0.2104  0.4032
 2152SOL    HW3 8680   4.061   1.775   3.439 -3.4990  0.2615  0.2581
 2152SOL    MW4 8681   4.058   1.698   3.481 -0.4878  0.0968  0.2730
 2153SOL     OW 8682   4.044   1.952   3.392 -0.4846 -0.0985 -0.4142
 2153SOL    HW2 8683   4.114   1.983   3.449  0.2386 -0.8478 -0.8777
 2153SOL    HW3 8684   4.080   1.959   3.303 -1.5031  0.8122 -0.7680
 2153SOL    MW4 8685   4.058   1.957   3.388 -0.5236 -0.0772 -0.5219
 2154SOL     OW 8686   4.272   2.058   3.537  0.5780 -0.1723 -0.2665
 2154SOL    HW2 8687   4.264   2.143   3.493 -0.3681 -1.0217 -1.8115
 2154SOL    HW3 8688   4.345   2.015   3.492 -0.3974 -1.0532 -1.0264
 2154SOL    MW4 8689   4.281   2.063   3.525  0.3242 -0.4005 -0.5705
 2155SOL     OW 8690   4.231   2.312   3.433 -0.2021 -0.2098  0.0860
 2155SOL    HW2 8691   4.158   2.338   3.489  0.0885 -1.7419  1.2064
 2155SOL    HW3 8692   4.200   2.327   3.344 -1.4562  0.2539  0.5962
 2155SOL    MW4 8693   4.217   2.317   3.429 -0.3290 -0.3507  0.3014
 2156SOL     OW 8694   3.986   2.483   3.523  0.3367  0.1450 -0.1747
 2156SOL    HW2 8695   3.968   2.487   3.617  0.8402 -1.5557  0.0099
 2156SOL    HW3 8696   3.987   2.575   3.495 -0.1833  0.6508  1.4011
 2156SOL    MW4 8697   3.983   2.496   3.532  0.3345 -0.0124  0.0575
 2157SOL     OW 8698   4.015   2.727   3.403 -0.1175 -0.0634 -0.3684
 2157SOL    HW2 8699   4.100   2.759   3.433 -1.0442  1.2734  0.8784
 2157SOL    HW3 8700   3.951   2.785   3.444 -1.5821 -0.1935 -2.3898
 2157SOL    MW4 8701   4.018   2.739   3.412 -0.4334  0.0958 -0.4704
 2158SOL     OW 8702   4.242   2.837   3.495  0.4359 -0.6188  0.3916
 2158SOL    HW2 8703   4.241   2.850   3.590  0.9335 -0.4792  0.3804
 2158SOL    HW3 8704   4.319   2.782   3.480  1.1807  0.5427 -0.0766
 2158SOL    MW4 8705   4.252   2.831   3.506  0.5999 -0.4470  0.3285
 2159SOL     OW 8706   4.265   3.090   3.370  0.1815  0.3608  0.1103
 2159SOL    HW2 8707   4.252   3.013   3.424 -0.4595  0.7523  0.5212
 2159SOL    HW3 8708   4.259   3.058   3.280 -1.0304  0.0980  0.2849
 2159SOL    MW4 8709   4.263   3.076   3.365 -0.0625  0.3777  0.1876
 2160SOL     OW 8710   4.087   3.230   3.508 -0.3670 -0.4455  0.4076
 2160SOL    HW2 8711   4.098   3.316   3.469 -2.7399  0.0379  0.7137
 2160SOL    HW3 8712   4.156   3.176   3.469 -1.1043  0.6506 -2.4970
 2160SOL    MW4 8713   4.098   3.234   3.498 -0.7777 -0.2375  0.0646
 2161SOL     OW 8714   4.023   3.493   3.372  0.4664  0.5910 -0.0504
 2161SOL    HW2 8715   4.095   3.548   3.404  0.8452  0.2319 -0.2879
 2161SOL    HW3 8716   3.944   3.533   3.410  0.9316 -0.0201  1.6015
 2161SOL    MW4 8717   4.022   3.506   3.381  0.5774  0.4630  0.1364
 2162SOL     OW 8718   4.249   3.612   3.493  0.5473  0.0835 -0.2243
 2162SOL    HW2 8719   4.251   3.605   3.589 -0.8608 -0.9674 -0.2465
 2162SOL    HW3 8720   4.274   3.703   3.475  2.5432 -0.1837  1.0430
 2162SOL    MW4 8721   4.253   3.623   3.503  0.6247 -0.0906 -0.0598
 2163SOL     OW 8722   4.289   3.882   3.421  0.4211 -0.4778  0.1548
 2163SOL    HW2 8723   4.374   3.921   3.442  0.9240 -1.2301 -0.4574
 2163SOL    HW3 8724   4.278   3.896   3.327 -1.4093  2.0671  0.6994
 2163SOL    MW4 8725   4.299   3.889   3.411  0.2456 -0.2410  0.1459
 2164SOL     OW 8726   4.046   3.995   3.524 -0.2546  0.2140  0.0547
 2164SOL    HW2 8727   4.114   3.948   3.476 -0.0392  1.0841 -0.4938
 2164SOL    HW3 8728   3.964   3.958   3.492 -0.0625 -0.4951  0.3631
 2164SOL    MW4 8729   4.044   3.984   3.513 -0.2007  0.2353  0.0234
 2165SOL     OW 8730   4.048   4.235   3.393 -0.2109 -0.5360 -0.1062
 2165SOL    HW2 8731   4.047   4.149   3.434  0.2318 -0.9035 -0.8593
 2165SOL    HW3 8732   3.973   4.281   3.431 -1.4732 -1.8584 -0.9588
 2165SOL    MW4 8733   4.038   4.230   3.403 -0.3195 -0.7591 -0.3178
 2166SOL     OW 8734   4.269   4.389   3.486  0.1010 -0.1273  0.0160
 2166SOL    HW2 8735   4.255   4.389   3.580  0.9391 -0.3915  0.1481
 2166SOL    HW3 8736   4.200   4.333   3.450  0.7009 -1.2686  0.6183
 2166SOL    MW4 8737   4.258   4.382   3.493  0.2899 -0.3119  0.1130
 2167SOL     OW 8738   0.190   4.609   3.893 -0.1145  0.4547 -0.4416
 2167SOL    HW2 8739   0.184   4.596   3.987  0.6430  0.2267 -0.4205
 2167SOL    HW3 8740   0.117   4.668   3.872 -0.0458  0.8249  0.3390
 2167SOL    MW4 8741   0.179   4.615   3.902 -0.0054  0.4730 -0.3359
 2168SOL     OW 8742   4.483   0.106   3.793  0.0559 -0.3122  0.3567
 2168SOL    HW2 8743   4.463   0.198   3.815 -1.0425 -0.9588  2.1999
 2168SOL    HW3 8744   4.473   0.101   3.698 -1.1288  1.1812  0.3879
 2168SOL    MW4 8745   4.479   0.118   3.784 -0.2454 -0.2005  0.6039
 2169SOL     OW 8746   4.455   0.366   3.877  0.2873 -0.0798 -0.1744
 2169SOL    HW2 8747   4.379   0.415   3.846  0.6511  0.6535  0.0775
 2169SOL    HW3 8748   4.530   0.408   3.834  0.6026 -0.3968  0.0588
 2169SOL    MW4 8749   4.455   0.378   3.867  0.3770 -0.0248 -0.1101
 2170SOL     OW 8750   0.207   0.509   3.785 -0.1761  0.0416  0.8256
 2170SOL    HW2 8751   0.219   0.600   3.814 -0.5599 -0.0798  1.3577
 2170SOL    HW3 8752   0.227   0.512   3.691 -1.9522  1.0326  0.4536
 2170SOL    MW4 8753   0.211   0.522   3.777 -0.4610  0.1563  0.8469
 2171SOL     OW 8754   0.239   0.763   3.874  0.2166 -0.0654  0.4097
 2171SOL    HW2 8755   0.228   0.758   3.969 -0.4201 -1.8209  0.2559
 2171SOL    HW3 8756   0.158   0.802   3.842 -0.0418 -0.5544  0.4755
 2171SOL    MW4 8757   0.227   0.768   3.882  0.0985 -0.3614  0.3982
 2172SOL     OW 8758   0.041   0.910   3.797 -0.1046 -0.0426  0.4287
 2172SOL    HW2 8759  -0.043   0.869   3.814 -0.9438  2.0511  1.6270
 2172SOL    HW3 8760   0.036   0.994   3.843  2.2779  0.5228 -0.2625
 2172SOL    MW4 8761   0.029   0.916   3.805  0.0990  0.3082  0.4954
 2173SOL     OW 8762   0.000   1.155   3.939 -0.2898  0.0305 -0.1560
 2173SOL    HW2 8763  -0.065   1.213   3.901 -0.5851  0.8591  1.5804
 2173SOL    HW3 8764   0.084   1.185   3.903 -0.7139 -0.1871 -1.3438
 2173SOL    MW4 8765   0.003   1.166   3.929 -0.3848  0.1112 -0.0839
 2174SOL     OW 8766   0.218   1.274   3.809 -0.1711  0.4100 -0.3267
 2174SOL    HW2 8767   0.200   1.367   3.822 -1.9132 -0.0070  0.3988
 2174SOL    HW3 8768   0.237   1.266   3.715 -0.3462  1.4350 -0.4522
 2174SOL    MW4 8769   0.218   1.285   3.798 -0.4241  0.4903 -0.2477
 2175SOL     OW 8770   0.230   1.538   3.924  0.2167 -0.0266 -0.0168
 2175SOL    HW2 8771   0.209   1.538   4.018  1.1221 -2.6941  0.2053
 2175SOL    HW3 8772   0.153   1.578   3.883 -0.3392  0.8396  1.8078
 2175SOL    MW4 8773   0.217   1.543   3.931  0.2628 -0.2643  0.2534
 2176SOL     OW 8774   0.013   1.673   3.782 -0.1018 -0.2290  0.3725
 2176SOL    HW2 8775   0.005   1.767   3.800 -0.9540 -0.0848 -0.7000
 2176SOL    HW3 8776  -0.004   1.665   3.688 -1.1318 -1.5779  0.6563
 2176SOL    MW4 8777   0.009   1.684   3.772 -0.3500 -0.3879  0.2685
 2177SOL     OW 8778   4.459   1.940   3.859  0.1167 -0.5688  0.0906
 2177SOL    HW2 8779   4.482   1.932   3.952 -0.9371 -1.7988  0.2639
 2177SOL    HW3 8780   4.375   1.987   3.860  1.2636  1.5531 -0.3865
 2177SOL    MW4 8781   4.451   1.945   3.871  0.1287 -0.4511  0.0505
 2178SOL     OW 8782   0.210   2.085   3.795  0.0888  0.2437 -0.3380
 2178SOL    HW2 8783   0.208   2.177   3.824  0.3412  0.5238 -1.1914
 2178SOL    HW3 8784   0.126   2.050   3.824 -0.0064  0.7483  0.0121
 2178SOL    MW4 8785   0.199   2.093   3.802  0.1095  0.3471 -0.4044
 2179SOL     OW 8786   0.202   2.359   3.874  0.0204 -0.1533  0.2216
 2179SOL    HW2 8787   0.196   2.357   3.969  0.2496  1.2568  0.2713
 2179SOL    HW3 8788   0.114   2.380   3.844 -0.0095 -0.4103  0.1208
 2179SOL    MW4 8789   0.190   2.362   3.882  0.0467 -0.0012  0.2148
 2180SOL     OW 8790   4.443   2.461   3.804  0.5807 -0.1239 -0.1647
 2180SOL    HW2 8791   4.369   2.417   3.846 -0.5170 -0.4198 -2.3670
 2180SOL    HW3 8792   4.435   2.552   3.832 -0.0897 -0.3246  0.3174
 2180SOL    MW4 8793   4.433   2.467   3.813  0.3471 -0.1893 -0.3915
 2181SOL     OW 8794   4.450   2.734   3.906 -0.0573 -0.1580 -0.1158
 2181SOL    HW2 8795   4.442   2.738   4.002 -0.2578  0.4912 -0.1587
 2181SOL    HW3 8796   4.535   2.773   3.888 -0.2341  0.1785 -0.2349
 2181SOL    MW4 8797   4.460   2.740   3.916 -0.1073 -0.0279 -0.1371
 2182SOL     OW 8798   0.199   2.819   3.799 -0.0701 -0.4173 -0.2719
 2182SOL    HW2 8799   0.270   2.772   3.842 -0.5467 -0.6065  0.3189
 2182SOL    HW3 8800   0.219   2.813   3.705  1.0007  0.0399 -0.0835
 2182SOL    MW4 8801   0.211   2.812   3.792  0.0083 -0.3822 -0.1693
 2183SOL     OW 8802   0.227   3.065   3.915 -0.1587 -0.6159  0.1807
 2183SOL    HW2 8803   0.198   3.062   4.006 -1.4220 -1.0867 -0.2226
 2183SOL    HW3 8804   0.223   2.974   3.886 -0.3491 -0.3867 -0.5153
 2183SOL    MW4 8805   0.223   3.053   3.923 -0.3505 -0.6478  0.0355
 2184SOL     OW 8806   0.022   3.219   3.789  0.1137 -0.3088  0.3112
 2184SOL    HW2 8807   0.082   3.156   3.830 -1.1427 -2.1340 -0.5512
 2184SOL    HW3 8808   0.025   3.197   3.696 -1.1966  0.1527  0.1467
 2184SOL    MW4 8809   0.030   3.208   3.782 -0.2249 -0.4888  0.1760
 2185SOL     OW 8810   0.024   3.461   3.920  0.2304  0.6046 -0.2374
 2185SOL    HW2 8811   0.093   3.499   3.866 -0.5185  0.7262 -1.1252
 2185SOL    HW3 8812   0.012   3.373   3.885  0.7649  0.1510  0.6986
 2185SOL    MW4 8813   0.032   3.454   3.908  0.2022  0.5610 -0.2310
 2186SOL     OW 8814   0.224   3.599   3.783 -0.1230 -0.0300 -0.0220
 2186SOL    HW2 8815   0.306   3.569   3.823  0.2551  0.3122 -0.5300
 2186SOL    HW3 8816   0.209   3.686   3.821  0.0477  0.1427 -0.3411
 2186SOL    MW4 8817   0.233   3.607   3.793 -0.0506  0.0377 -0.1309
 2187SOL     OW 8818   0.221   3.874   3.931  0.3347  0.5288  0.1145
 2187SOL    HW2 8819   0.224   3.874   4.027  1.0466  0.4101  0.0969
 2187SOL    HW3 8820   0.306   3.908   3.905 -0.2087  1.4513 -0.4770
 2187SOL    MW4 8821   0.233   3.878   3.941  0.3570  0.6351  0.0343
 2188SOL     OW 8822   0.025   3.970   3.765  0.1457  0.0827  0.2492
 2188SOL    HW2 8823  -0.052   3.914   3.776 -0.2677  0.6195  0.1358
 2188SOL    HW3 8824   0.086   3.939   3.832 -0.8347  0.7601  1.4992
 2188SOL    MW4 8825   0.023   3.958   3.776 -0.0382  0.2427  0.3989
 2189SOL     OW 8826   4.445   4.234   3.896  0.1693 -0.2175  0.1704
 2189SOL    HW2 8827   4.526   4.274   3.864  0.6338 -0.3272  1.1980
 2189SOL    HW3 8828   4.445   4.146   3.859  1.1978 -0.6875  1.2648
 2189SOL    MW4 8829   4.456   4.228   3.887  0.3667 -0.2942  0.4504
 2190SOL     OW 8830   0.190   4.346   3.804 -0.5382  0.2651 -0.0481
 2190SOL    HW2 8831   0.266   4.310   3.850 -0.3516  0.4417 -0.2143
 2190SOL    HW3 8832   0.188   4.438   3.830 -0.0264  0.5295 -0.9271
 2190SOL    MW4 8833   0.200   4.353   3.814 -0.4461  0.3233 -0.1860
 2191SOL     OW 8834   0.695   4.665   3.830 -0.1882  0.0262 -0.2714
 2191SOL    HW2 8835   0.687   4.570   3.833 -0.8894  0.0574 -1.0073
 2191SOL    HW3 8836   0.606   4.696   3.814 -0.3850  0.9310  2.3170
 2191SOL    MW4 8837   0.682   4.656   3.829 -0.3067  0.1497 -0.0269
 2192SOL     OW 8838   0.426   0.076   3.810 -0.1516  0.4968  0.1423
 2192SOL    HW2 8839   0.421   0.159   3.858 -0.2421  1.2459 -1.1403
 2192SOL    HW3 8840   0.358   0.021   3.850 -1.3240  1.6747 -0.1976
 2192SOL    MW4 8841   0.416   0.080   3.822 -0.3183  0.7510 -0.0718
 2193SOL     OW 8842   0.435   0.344   3.907  0.6297  0.1687 -0.0554
 2193SOL    HW2 8843   0.520   0.376   3.876  0.7160  0.2898  0.3043
 2193SOL    HW3 8844   0.372   0.411   3.879  0.9089  1.0511  1.3591
 2193SOL    MW4 8845   0.438   0.357   3.899  0.6779  0.3011  0.1788
 2194SOL     OW 8846   0.684   0.450   3.835 -0.3284  0.0562 -0.1861
 2194SOL    HW2 8847   0.770   0.408   3.839 -0.6752 -0.6169  0.3432
 2194SOL    HW3 8848   0.700   0.539   3.864  0.0149 -0.3590  0.9426
 2194SOL    MW4 8849   0.697   0.456   3.839 -0.3288 -0.0874  0.0329
 2195SOL     OW 8850   0.682   0.739   3.891  0.2614 -0.3198  0.1486
 2195SOL    HW2 8851   0.767   0.774   3.865  0.0162  0.4003  0.3169
 2195SOL    HW3 8852   0.618   0.792   3.842 -0.2546  1.5950  2.7929
 2195SOL    MW4 8853   0.685   0.751   3.881  0.1609  0.0279  0.5198
 2196SOL     OW 8854   0.476   0.919   3.789 -0.7946  0.0618  0.2023
 2196SOL    HW2 8855   0.470   1.008   3.821 -0.8272  0.0084  0.3459
 2196SOL    HW3 8856   0.396   0.876   3.820 -0.2988 -0.2927  0.9947
 2196SOL    MW4 8857   0.464   0.925   3.797 -0.7334  0.0079  0.3259
 2197SOL     OW 8858   0.467   1.178   3.907 -0.2068 -0.3464 -0.7668
 2197SOL    HW2 8859   0.545   1.218   3.866 -0.2539  1.2144  0.6078
 2197SOL    HW3 8860   0.394   1.229   3.871 -0.2501  1.0140  1.2068
 2197SOL    MW4 8861   0.468   1.190   3.897 -0.2187  0.0390 -0.3250
 2198SOL     OW 8862   0.694   1.272   3.784 -0.2411  0.4163 -0.2671
 2198SOL    HW2 8863   0.783   1.252   3.813  0.2487  3.0449  0.2256
 2198SOL    HW3 8864   0.693   1.250   3.691  1.3490  1.5846 -0.5877
 2198SOL    MW4 8865   0.706   1.267   3.776  0.0333  0.9173 -0.2444
 2199SOL     OW 8866   0.653   1.550   3.859  0.2758 -0.4618  0.2449
 2199SOL    HW2 8867   0.731   1.595   3.827 -0.2023 -0.5623 -1.0849
 2199SOL    HW3 8868   0.668   1.458   3.835 -0.4686 -0.4028 -0.4532
 2199SOL    MW4 8869   0.665   1.544   3.852  0.1145 -0.4673 -0.0229
 2200SOL     OW 8870   0.431   1.674   3.781 -0.3429  0.5442 -0.0493
 2200SOL    HW2 8871   0.505   1.623   3.814  0.5817  0.4421 -2.1904
 2200SOL    HW3 8872   0.354   1.629   3.816  0.5050 -1.5126 -0.7095
 2200SOL    MW4 8873   0.430   1.661   3.790 -0.1090  0.2594 -0.4184
 2201SOL     OW 8874   0.438   1.963   3.876  0.0952 -0.3801 -0.3745
 2201SOL    HW2 8875   0.425   1.874   3.843 -1.1752 -0.4988  0.4092
 2201SOL    HW3 8876   0.360   2.011   3.848  0.9216  0.5946 -1.0846
 2201SOL    MW4 8877   0.426   1.958   3.868  0.0367 -0.2671 -0.3648
 2202SOL     OW 8878   0.674   2.092   3.771 -0.0358 -0.3999  0.3755
 2202SOL    HW2 8879   0.694   2.178   3.805  1.0578  0.3035 -1.9191
 2202SOL    HW3 8880   0.594   2.065   3.817 -0.3674  1.8128  1.1191
 2202SOL    MW4 8881   0.666   2.100   3.781  0.0648 -0.0153  0.1707
 2203SOL     OW 8882   0.705   2.333   3.889 -0.3085 -0.4197 -0.3242
 2203SOL    HW2 8883   0.761   2.396   3.843  0.0213 -1.8254 -1.8826
 2203SOL    HW3 8884   0.616   2.353   3.858 -0.5884  1.2427  1.4886
 2203SOL    MW4 8885   0.700   2.344   3.879 -0.3020 -0.3858 -0.2906
 2204SOL     OW 8886   0.454   2.444   3.775  0.1836  0.5345 -0.2121
 2204SOL    HW2 8887   0.365   2.418   3.796  1.0586 -1.2965  1.3647
 2204SOL    HW3 8888   0.456   2.450   3.680 -1.1604 -1.1516 -0.3683
 2204SOL    MW4 8889   0.443   2.442   3.766  0.1217  0.0706 -0.0246
 2205SOL     OW 8890   0.428   2.702   3.893  0.2465 -0.7534 -0.0287
 2205SOL    HW2 8891   0.495   2.744   3.839 -0.8459 -0.2971 -1.0624
 2205SOL    HW3 8892   0.445   2.608   3.883  0.9370 -0.6323 -0.0164
 2205SOL    MW4 8893   0.439   2.695   3.884  0.1934 -0.6771 -0.1633
 2206SOL     OW 8894   0.624   2.831   3.732  0.3188  0.1064 -0.2705
 2206SOL    HW2 8895   0.702   2.778   3.749  1.2349  1.3778 -0.4182
 2206SOL    HW3 8896   0.617   2.834   3.636  0.4126  0.4516 -0.2682
 2206SOL    MW4 8897   0.633   2.824   3.722  0.4520  0.3197 -0.2897
 2207SOL     OW 8898   0.671   3.060   3.859 -0.4918 -0.1006  0.2979
 2207SOL    HW2 8899   0.658   3.057   3.954 -0.3006  1.4090  0.3838
 2207SOL    HW3 8900   0.658   2.969   3.830 -0.4262 -0.5962  1.7778
 2207SOL    MW4 8901   0.668   3.047   3.868 -0.4579  0.0329  0.5045
 2208SOL     OW 8902   0.457   3.220   3.799 -0.3003 -0.5141  0.3080
 2208SOL    HW2 8903   0.526   3.159   3.824  0.1711 -0.2651 -0.3770
 2208SOL    HW3 8904   0.376   3.176   3.826  0.0409 -1.3719 -0.0347
 2208SOL    MW4 8905   0.455   3.206   3.806 -0.1931 -0.5944  0.1721
 2209SOL     OW 8906   0.460   3.469   3.912  0.4483  0.2253  0.2637
 2209SOL    HW2 8907   0.534   3.514   3.871 -0.7626  1.4765 -0.5908
 2209SOL    HW3 8908   0.459   3.383   3.870  1.3798  0.2230  0.2347
 2209SOL    MW4 8909   0.469   3.464   3.901  0.4115  0.3901  0.1471
 2210SOL     OW 8910   0.686   3.584   3.768 -0.1708 -0.4733  0.0579
 2210SOL    HW2 8911   0.709   3.667   3.809  0.2843 -1.2083  1.3489
 2210SOL    HW3 8912   0.688   3.601   3.674 -1.0948  1.2324  0.3286
 2210SOL    MW4 8913   0.689   3.597   3.761 -0.2326 -0.3450  0.2639
 2211SOL     OW 8914   0.713   3.843   3.884  0.0998  0.6113 -0.3482
 2211SOL    HW2 8915   0.699   3.847   3.979  1.2553 -1.8390 -0.0254
 2211SOL    HW3 8916   0.776   3.913   3.867 -0.0337  1.0111  0.6970
 2211SOL    MW4 8917   0.719   3.853   3.895  0.2347  0.3407 -0.1678
 2212SOL     OW 8918   0.474   3.966   3.817  0.3382  0.4353  0.3293
 2212SOL    HW2 8919   0.546   3.910   3.842  0.8961  0.1107 -1.8813
 2212SOL    HW3 8920   0.464   3.953   3.722 -2.0811  1.0763  0.4432
 2212SOL    MW4 8921   0.482   3.957   3.807  0.0926  0.4768  0.0527
 2213SOL     OW 8922   0.446   4.232   3.866  0.2137  0.1707  0.0207
 2213SOL    HW2 8923   0.520   4.286   3.840  0.8606 -0.3682  0.6973
 2213SOL    HW3 8924   0.475   4.142   3.851 -0.2219 -0.0528  0.4905
 2213SOL    MW4 8925   0.460   4.227   3.861  0.2416  0.0706  0.1721
 2214SOL     OW 8926   0.668   4.391   3.784 -0.4919  0.0106  0.0119
 2214SOL    HW2 8927   0.752   4.346   3.798 -0.3219  0.4519  0.4218
 2214SOL    HW3 8928   0.661   4.400   3.689  0.0704  0.2432 -0.0093
 2214SOL    MW4 8929   0.678   4.386   3.774 -0.3953  0.0992  0.0632
 2215SOL     OW 8930   1.138   4.660   3.866  0.2969 -0.1430 -0.2042
 2215SOL    HW2 8931   1.205   4.714   3.824 -0.6140  0.5212 -0.8159
 2215SOL    HW3 8932   1.151   4.573   3.829  1.9418 -0.4361  0.9787
 2215SOL    MW4 8933   1.149   4.656   3.856  0.3937 -0.0939 -0.1287
 2216SOL     OW 8934   0.924   0.135   3.764  0.1414 -0.2978  0.1998
 2216SOL    HW2 8935   0.991   0.073   3.790 -0.2280 -0.7156  0.1632
 2216SOL    HW3 8936   0.842   0.096   3.795 -0.0972  0.1409  0.1260
 2216SOL    MW4 8937   0.922   0.122   3.772  0.0612 -0.2950  0.1853
 2217SOL     OW 8938   0.949   0.384   3.863 -0.5379  0.2359  0.2551
 2217SOL    HW2 8939   0.942   0.374   3.958  1.6121  0.1939  0.4266
 2217SOL    HW3 8940   0.942   0.294   3.830 -0.9318  0.2147  0.3847
 2217SOL    MW4 8941   0.947   0.371   3.871 -0.3062  0.2276  0.2947
 2218SOL     OW 8942   1.127   0.567   3.770 -0.1861 -0.4767 -0.1452
 2218SOL    HW2 8943   1.211   0.530   3.797  0.3714  0.9989  0.2079
 2218SOL    HW3 8944   1.062   0.507   3.806  0.6339 -0.0509  2.1499
 2218SOL    MW4 8945   1.130   0.554   3.778 -0.0043 -0.2258  0.2041
 2219SOL     OW 8946   1.108   0.796   3.918 -0.5199 -0.0647 -0.2268
 2219SOL    HW2 8947   1.100   0.782   4.012  3.1933  1.2494  0.3895
 2219SOL    HW3 8948   1.117   0.708   3.881 -0.7951 -0.5223  0.7842
 2219SOL    MW4 8949   1.108   0.783   3.926 -0.0663  0.0483 -0.0119
 2220SOL     OW 8950   0.906   0.887   3.772 -0.2798  0.2426 -0.4730
 2220SOL    HW2 8951   0.990   0.854   3.804 -1.2303 -1.4138  0.4113
 2220SOL    HW3 8952   0.916   0.889   3.677  1.7118  2.8074 -0.2777
 2220SOL    MW4 8953   0.918   0.883   3.764 -0.1423  0.3625 -0.3307
 2221SOL     OW 8954   0.914   1.146   3.877 -0.2989 -0.1167  0.4222
 2221SOL    HW2 8955   0.900   1.152   3.972 -1.1616  2.1346  0.1602
 2221SOL    HW3 8956   0.898   1.053   3.857  3.4406 -1.4350  3.0126
 2221SOL    MW4 8957   0.910   1.134   3.887  0.0806  0.0064  0.7296
 2222SOL     OW 8958   1.147   1.273   3.767  0.3754  0.3469  0.0007
 2222SOL    HW2 8959   1.131   1.363   3.793  0.8950  0.2891  0.5341
 2222SOL    HW3 8960   1.082   1.222   3.816  0.5595  0.3601  0.2598
 2222SOL    MW4 8961   1.136   1.278   3.777  0.4684  0.3411  0.1051
 2223SOL     OW 8962   1.104   1.533   3.850  0.5345 -0.0759  0.2332
 2223SOL    HW2 8963   1.102   1.534   3.946 -0.1595  0.3936  0.2189
 2223SOL    HW3 8964   1.184   1.580   3.828  1.7812 -1.9692  0.6010
 2223SOL    MW4 8965   1.114   1.540   3.860  0.6074 -0.2638  0.2799
 2224SOL     OW 8966   0.879   1.693   3.778 -0.0032 -0.2488  0.0522
 2224SOL    HW2 8967   0.954   1.642   3.806  0.3303  0.0393 -0.3106
 2224SOL    HW3 8968   0.886   1.696   3.682 -0.9155 -0.9028 -0.0440
 2224SOL    MW4 8969   0.890   1.687   3.769 -0.0796 -0.2971 -0.0081
 2225SOL     OW 8970   0.879   1.946   3.881 -0.4361  0.0876  0.4260
 2225SOL    HW2 8971   0.882   1.855   3.851  0.9443  0.3594 -0.2975
 2225SOL    HW3 8972   0.797   1.980   3.847 -1.2989 -1.0742  1.2793
 2225SOL    MW4 8973   0.869   1.938   3.873 -0.3678 -0.0298  0.4432
 2226SOL     OW 8974   1.104   2.065   3.769  0.0383 -0.3970  0.0797
 2226SOL    HW2 8975   1.021   2.032   3.803 -0.8687  1.4893 -0.2673
 2226SOL    HW3 8976   1.113   2.024   3.683 -0.4606 -0.7196  0.1797
 2226SOL    MW4 8977   1.095   2.055   3.763 -0.1471 -0.1910  0.0472
 2227SOL     OW 8978   1.085   2.326   3.877  0.1551 -0.4098  0.4119
 2227SOL    HW2 8979   1.093   2.313   3.971  1.9141  0.6080  0.4290
 2227SOL    HW3 8980   1.101   2.239   3.840 -0.4316 -0.7888  1.0364
 2227SOL    MW4 8981   1.088   2.312   3.884  0.3098 -0.3257  0.4966
 2228SOL     OW 8982   0.878   2.468   3.712  0.1351 -0.1530  0.3963
 2228SOL    HW2 8983   0.874   2.558   3.746  1.8633  0.7592 -1.7001
 2228SOL    HW3 8984   0.951   2.428   3.759  0.1949 -0.0524  0.3906
 2228SOL    MW4 8985   0.887   2.475   3.723  0.3711 -0.0193  0.1187
 2229SOL     OW 8986   0.844   2.708   3.841  0.6248 -0.2811 -0.3636
 2229SOL    HW2 8987   0.841   2.702   3.936  2.1606  1.2383 -0.1838
 2229SOL    HW3 8988   0.929   2.748   3.822  0.7949 -1.5327 -2.4269
 2229SOL    MW4 8989   0.855   2.713   3.851  0.8498 -0.2458 -0.6120
 2230SOL     OW 8990   1.063   2.838   3.755 -0.1041 -0.1637  0.0461
 2230SOL    HW2 8991   1.136   2.786   3.789 -0.5781 -0.8578  0.0054
 2230SOL    HW3 8992   1.069   2.921   3.803  0.8278 -0.1339 -0.0981
 2230SOL    MW4 8993   1.074   2.842   3.766 -0.0436 -0.2511  0.0217
 2231SOL     OW 8994   1.129   3.097   3.879  0.0847  0.1521 -0.4647
 2231SOL    HW2 8995   1.202   3.140   3.835  0.1296  0.0549 -0.4848
 2231SOL    HW3 8996   1.053   3.151   3.857  0.2036  0.4422 -0.1686
 2231SOL    MW4 8997   1.128   3.110   3.870  0.1063  0.1774 -0.4282
 2232SOL     OW 8998   0.896   3.227   3.793  0.4956 -0.0771  0.0359
 2232SOL    HW2 8999   0.817   3.175   3.811  1.2090 -1.1958 -0.0550
 2232SOL    HW3 9000   0.903   3.227   3.698  0.3219  0.4637  0.0203
 2232SOL    MW4 9001   0.886   3.220   3.783  0.5668 -0.1535  0.0219
 2233SOL     OW 9002   0.910   3.486   3.897  0.2959 -0.5733  0.0953
 2233SOL    HW2 9003   0.922   3.393   3.877 -0.3921 -0.9265  1.2611
 2233SOL    HW3 9004   0.832   3.512   3.848 -0.4544 -1.0325  1.0200
 2233SOL    MW4 9005   0.901   3.477   3.888  0.1061 -0.6804  0.3712
 2234SOL     OW 9006   1.136   3.622   3.748 -0.5077 -0.4683  0.4464
 2234SOL    HW2 9007   1.158   3.701   3.796 -0.2733 -0.7001  0.7258
 2234SOL    HW3 9008   1.053   3.593   3.786 -0.9578  0.0362 -0.1472
 2234SOL    MW4 9009   1.128   3.628   3.759 -0.5362 -0.4323  0.4048
 2235SOL     OW 9010   1.158   3.859   3.889  0.2588  0.5696 -0.3172
 2235SOL    HW2 9011   1.148   3.869   3.984  0.7241 -1.2034 -0.0722
 2235SOL    HW3 9012   1.235   3.912   3.868  0.4923  0.5146  0.3765
 2235SOL    MW4 9013   1.167   3.867   3.899  0.3511  0.3283 -0.1934
 2236SOL     OW 9014   0.932   3.999   3.793 -0.5098 -0.5544 -0.0097
 2236SOL    HW2 9015   1.007   3.950   3.828 -2.0331 -2.3144  0.8337
 2236SOL    HW3 9016   0.943   3.994   3.698  0.3017 -1.0216  0.1011
 2236SOL    MW4 9017   0.944   3.992   3.785 -0.6037 -0.8481  0.1159
 2237SOL     OW 9018   0.911   4.273   3.831 -0.4205 -0.0806 -0.8693
 2237SOL    HW2 9019   0.937   4.281   3.923 -1.7145 -0.0646 -0.4930
 2237SOL    HW3 9020   0.913   4.179   3.814  0.2002 -0.0590 -0.9535
 2237SOL    MW4 9021   0.915   4.262   3.841 -0.5093 -0.0753 -0.8307
 2238SOL     OW 9022   1.149   4.408   3.767  0.0617  0.2774  0.5202
 2238SOL    HW2 9023   1.070   4.357   3.784  0.4508 -0.5413 -0.0884
 2238SOL    HW3 9024   1.156   4.410   3.672  0.9701  0.0246  0.5705
 2238SOL    MW4 9025   1.140   4.401   3.757  0.2327  0.1364  0.4466
 2239SOL     OW 9026   1.560   0.023   3.794  0.5505  0.2716 -0.0251
 2239SOL    HW2 9027   1.555   0.020   3.890 -0.6735 -1.1174 -0.1046
 2239SOL    HW3 9028   1.562  -0.069   3.768 -0.1454  0.6300 -1.3727
 2239SOL    MW4 9029   1.560   0.010   3.803  0.2971  0.1359 -0.2134
 2240SOL     OW 9030   1.321   0.141   3.724  0.4512  0.3380 -0.7976
 2240SOL    HW2 9031   1.321   0.230   3.759 -0.9120 -0.1620  0.4987
 2240SOL    HW3 9032   1.403   0.103   3.754 -0.6290 -0.0351  1.7872
 2240SOL    MW4 9033   1.332   0.148   3.733  0.1289  0.2228 -0.2856
 2241SOL     OW 9034   1.356   0.412   3.822  0.0030  0.4022  0.1618
 2241SOL    HW2 9035   1.369   0.389   3.914 -0.4582 -0.6718 -0.0243
 2241SOL    HW3 9036   1.438   0.453   3.795  0.2077  0.5525  1.0071
 2241SOL    MW4 9037   1.368   0.414   3.831 -0.0309  0.2803  0.2487
 2242SOL     OW 9038   1.599   0.489   3.704  0.2933 -0.3696  0.1537
 2242SOL    HW2 9039   1.671   0.436   3.739 -0.5471 -1.5497  0.1310
 2242SOL    HW3 9040   1.621   0.578   3.729  1.0400 -0.8885  1.4195
 2242SOL    MW4 9041   1.612   0.493   3.712  0.2810 -0.5938  0.3181
 2243SOL     OW 9042   1.573   0.751   3.812 -0.1036 -0.6356 -0.3568
 2243SOL    HW2 9043   1.654   0.802   3.815 -0.4177 -0.1815  0.4723
 2243SOL    HW3 9044   1.504   0.816   3.802 -0.3571 -1.0318 -1.1906
 2243SOL    MW4 9045   1.575   0.766   3.811 -0.1785 -0.6279 -0.3572
 2244SOL     OW 9046   1.333   0.910   3.793 -0.4630 -0.6236  0.0158
 2244SOL    HW2 9047   1.353   0.992   3.836 -0.0390 -0.5480 -0.3180
 2244SOL    HW3 9048   1.247   0.885   3.826 -0.0431 -0.6804  1.0645
 2244SOL    MW4 9049   1.324   0.917   3.803 -0.3517 -0.6211  0.1101
 2245SOL     OW 9050   1.377   1.189   3.891 -0.1743 -0.1839 -0.0612
 2245SOL    HW2 9051   1.349   1.188   3.982  0.5339 -2.5959  0.1508
 2245SOL    HW3 9052   1.302   1.224   3.843 -1.6345 -1.6862  1.0983
 2245SOL    MW4 9053   1.364   1.194   3.896 -0.2735 -0.7004  0.1197
 2246SOL     OW 9054   1.594   1.314   3.769  0.5361  0.3504  0.0142
 2246SOL    HW2 9055   1.673   1.278   3.809  0.4337 -0.7067 -0.7211
 2246SOL    HW3 9056   1.522   1.261   3.805  0.4864 -0.9321 -1.8924
 2246SOL    MW4 9057   1.595   1.302   3.779  0.5159  0.0417 -0.3343
 2247SOL     OW 9058   1.608   1.580   3.844 -0.1112 -0.0412  0.1034
 2247SOL    HW2 9059   1.593   1.560   3.936  1.0643 -1.0645  0.0861
 2247SOL    HW3 9060   1.605   1.495   3.800  0.8133  0.2676 -0.5852
 2247SOL    MW4 9061   1.606   1.566   3.850  0.1658 -0.1353  0.0105
 2248SOL     OW 9062   1.330   1.666   3.767 -0.1425 -0.1039 -0.1054
 2248SOL    HW2 9063   1.325   1.759   3.793  0.8363 -0.0222 -0.1837
 2248SOL    HW3 9064   1.395   1.629   3.826 -0.4825 -0.7364 -0.1227
 2248SOL    MW4 9065   1.338   1.674   3.779 -0.0581 -0.1767 -0.1180
 2249SOL     OW 9066   1.327   1.918   3.866  0.0624  0.2999  0.2262
 2249SOL    HW2 9067   1.334   1.929   3.961  2.4782  2.7474 -0.1697
 2249SOL    HW3 9068   1.264   1.986   3.840 -2.4183 -1.8953  0.2826
 2249SOL    MW4 9069   1.320   1.929   3.875  0.0539  0.3333  0.1812
 2250SOL     OW 9070   1.592   1.981   3.774 -0.1574 -0.1166  0.0830
 2250SOL    HW2 9071   1.508   1.964   3.816 -0.1990  0.7684  0.3797
 2250SOL    HW3 9072   1.569   2.003   3.683 -0.2596  0.2270  0.1899
 2250SOL    MW4 9073   1.578   1.982   3.767 -0.1763  0.0455  0.1366
 2251SOL     OW 9074   1.507   2.268   3.933  0.4568  0.5562  0.1332
 2251SOL    HW2 9075   1.576   2.277   3.998  1.3216 -0.7565 -0.5845
 2251SOL    HW3 9076   1.528   2.187   3.887 -2.3011 -0.5644  0.7752
 2251SOL    MW4 9077   1.519   2.259   3.935  0.2071  0.2351  0.1230
 2252SOL     OW 9078   1.328   2.423   3.779  0.0927 -0.2958  0.5068
 2252SOL    HW2 9079   1.383   2.371   3.838  0.5159  0.4070  0.7360
 2252SOL    HW3 9080   1.239   2.392   3.796  0.4464 -1.7879 -0.2161
 2252SOL    MW4 9081   1.323   2.412   3.789  0.1951 -0.4001  0.4416
 2253SOL     OW 9082   1.282   2.692   3.809  0.4446  0.2726  0.3089
 2253SOL    HW2 9083   1.290   2.689   3.905  0.8992 -0.2632  0.2596
 2253SOL    HW3 9084   1.290   2.600   3.782  0.8407  0.4816 -0.2810
 2253SOL    MW4 9085   1.284   2.679   3.818  0.5568  0.2296  0.2246
 2254SOL     OW 9086   1.505   2.839   3.753  0.5526  0.0888 -0.3951
 2254SOL    HW2 9087   1.429   2.788   3.780  0.0971  0.4801 -0.9236
 2254SOL    HW3 9088   1.500   2.841   3.657  1.8701 -0.8663 -0.4978
 2254SOL    MW4 9089   1.494   2.833   3.744  0.6663  0.0141 -0.4783
 2255SOL     OW 9090   1.567   3.083   3.842  0.1916  0.0962  0.4606
 2255SOL    HW2 9091   1.595   3.086   3.934 -0.6595 -1.7551  0.8076
 2255SOL    HW3 9092   1.547   2.991   3.826  1.2197  0.2455 -1.8775
 2255SOL    MW4 9093   1.568   3.071   3.852  0.2151 -0.1280  0.1981
 2256SOL     OW 9094   1.348   3.242   3.775  0.0824  0.5224 -0.1218
 2256SOL    HW2 9095   1.354   3.321   3.828  0.6633  1.3346 -1.3667
 2256SOL    HW3 9096   1.422   3.188   3.805  0.2190  0.8364  0.1130
 2256SOL    MW4 9097   1.359   3.245   3.786  0.1770  0.6709 -0.2551
 2257SOL     OW 9098   1.342   3.498   3.889 -0.4058  0.5705 -0.4268
 2257SOL    HW2 9099   1.410   3.529   3.830  0.6602  0.6852  0.8334
 2257SOL    HW3 9100   1.261   3.539   3.857  0.2900  1.2713 -1.2994
 2257SOL    MW4 9101   1.340   3.507   3.877 -0.1734  0.6781 -0.3757
 2258SOL     OW 9102   1.565   3.592   3.750 -0.5151 -0.0368 -0.1518
 2258SOL    HW2 9103   1.640   3.547   3.789 -1.4787 -0.5644  1.1059
 2258SOL    HW3 9104   1.572   3.682   3.780 -0.7868 -0.2492  0.5409
 2258SOL    MW4 9105   1.576   3.598   3.759 -0.6782 -0.1342  0.1056
 2259SOL     OW 9106   1.605   3.869   3.864 -0.1805  0.0460 -0.1545
 2259SOL    HW2 9107   1.592   3.834   3.952 -0.5614  0.8718  0.1202
 2259SOL    HW3 9108   1.530   3.927   3.850  1.4117  2.2090  0.1185
 2259SOL    MW4 9109   1.593   3.872   3.873 -0.0207  0.4404 -0.0823
 2260SOL     OW 9110   1.355   4.027   3.795 -0.1191 -0.2897 -0.1147
 2260SOL    HW2 9111   1.351   4.118   3.822  1.2957 -0.3120  0.2376
 2260SOL    HW3 9112   1.349   4.029   3.700 -0.1834  0.1684 -0.0992
 2260SOL    MW4 9113   1.354   4.039   3.786  0.0591 -0.2322 -0.0665
 2261SOL     OW 9114   1.359   4.288   3.872  0.1024  0.1605 -0.5075
 2261SOL    HW2 9115   1.435   4.332   3.833  0.1299  0.0093 -0.6251
 2261SOL    HW3 9116   1.284   4.333   3.833  0.1288 -0.0772 -0.8396
 2261SOL    MW4 9117   1.359   4.300   3.862  0.1097  0.1087 -0.5670
 2262SOL     OW 9118   1.569   4.419   3.744 -0.0305  0.0252 -0.2384
 2262SOL    HW2 9119   1.634   4.351   3.763 -0.4759 -0.3058  0.1092
 2262SOL    HW3 9120   1.558   4.416   3.649  0.2163 -0.1421 -0.2634
 2262SOL    MW4 9121   1.576   4.409   3.734 -0.0567 -0.0401 -0.1962
 2263SOL     OW 9122   1.988   4.632   3.883 -0.4044  0.2686 -0.4134
 2263SOL    HW2 9123   2.060   4.680   3.841 -0.1210 -0.4740 -0.7882
 2263SOL    HW3 9124   1.972   4.557   3.825 -0.7239 -0.1880  0.2598
 2263SOL    MW4 9125   1.995   4.628   3.869 -0.4091  0.1106 -0.3741
 2264SOL     OW 9126   1.796   0.127   3.728 -0.0363 -0.3126 -0.1294
 2264SOL    HW2 9127   1.860   0.068   3.768 -0.4809 -0.8806 -0.2524
 2264SOL    HW3 9128   1.712   0.085   3.742 -0.0527 -1.5151 -3.3537
 2264SOL    MW4 9129   1.794   0.114   3.735 -0.0972 -0.5462 -0.5710
 2265SOL     OW 9130   1.847   0.394   3.803 -0.2320  0.4456  0.0588
 2265SOL    HW2 9131   1.825   0.405   3.895 -0.1260  0.8719  0.0341
 2265SOL    HW3 9132   1.846   0.299   3.789 -0.0274  0.3706  0.5474
 2265SOL    MW4 9133   1.844   0.383   3.813 -0.1910  0.4919  0.1202
 2266SOL     OW 9134   2.074   0.523   3.694  0.2617 -0.1108 -0.2731
 2266SOL    HW2 9135   1.988   0.492   3.722  0.1331  1.2954  0.9435
 2266SOL    HW3 9136   2.067   0.533   3.600 -1.5455  1.8772  0.0411
 2266SOL    MW4 9137   2.062   0.520   3.686  0.0064  0.3371 -0.0713
 2267SOL     OW 9138   2.067   0.764   3.816  0.4675 -0.3583 -0.3235
 2267SOL    HW2 9139   2.057   0.776   3.910  2.4626 -0.2173 -0.0998
 2267SOL    HW3 9140   2.080   0.669   3.805  0.2456 -0.3740 -0.4431
 2267SOL    MW4 9141   2.068   0.753   3.827  0.7014 -0.3418 -0.3097
 2268SOL     OW 9142   1.819   0.872   3.758  0.0331 -0.0672  0.1271
 2268SOL    HW2 9143   1.892   0.816   3.783 -1.8870 -2.8376 -0.2262
 2268SOL    HW3 9144   1.818   0.870   3.662  0.5851  1.4742  0.0665
 2268SOL    MW4 9145   1.829   0.865   3.749 -0.1475 -0.2292  0.0722
 2269SOL     OW 9146   1.802   1.150   3.872  0.6308 -0.2429  0.0789
 2269SOL    HW2 9147   1.809   1.142   3.967 -1.3568 -1.6253  0.1283
 2269SOL    HW3 9148   1.808   1.060   3.840  0.5497  0.1471 -1.0475
 2269SOL    MW4 9149   1.804   1.137   3.880  0.3579 -0.3738 -0.0632
 2270SOL     OW 9150   2.025   1.291   3.775 -0.0196 -0.3953  0.6076
 2270SOL    HW2 9151   2.111   1.258   3.802  0.2354 -1.1609 -1.0292
 2270SOL    HW3 9152   1.963   1.225   3.804  0.2229 -1.0751 -0.3839
 2270SOL    MW4 9153   2.029   1.278   3.782  0.0460 -0.5859  0.2606
 2271SOL     OW 9154   2.049   1.523   3.938  0.3224  0.3146  0.2742
 2271SOL    HW2 9155   1.996   1.584   3.888  0.4574 -0.4134 -0.7611
 2271SOL    HW3 9156   2.059   1.446   3.882  2.3006  0.3463  0.5123
 2271SOL    MW4 9157   2.044   1.521   3.924  0.6011  0.2227  0.1690
 2272SOL     OW 9158   1.864   1.702   3.822 -0.1284 -0.2610 -0.5563
 2272SOL    HW2 9159   1.862   1.794   3.845  2.3797  0.0438 -1.4168
 2272SOL    HW3 9160   1.778   1.668   3.849 -0.6919  2.0730  0.6685
 2272SOL    MW4 9161   1.853   1.710   3.828  0.1280  0.0871 -0.5083
 2273SOL     OW 9162   1.849   1.961   3.889 -0.2161 -0.0596 -0.0828
 2273SOL    HW2 9163   1.832   1.967   3.983 -0.5049 -0.1735 -0.1274
 2273SOL    HW3 9164   1.762   1.970   3.848 -0.2594 -1.3284 -0.2806
 2273SOL    MW4 9165   1.835   1.963   3.896 -0.2600 -0.2420 -0.1149
 2274SOL     OW 9166   2.072   1.966   3.730 -0.0830 -0.2004 -0.1196
 2274SOL    HW2 9167   2.001   1.973   3.794  0.8102  0.9332  0.7511
 2274SOL    HW3 9168   2.038   2.013   3.653 -0.1602  0.6084  0.4044
 2274SOL    MW4 9169   2.058   1.973   3.728  0.0246  0.0558  0.0644
 2275SOL     OW 9170   1.918   2.355   3.954 -0.0195  0.3874  0.2111
 2275SOL    HW2 9171   1.996   2.304   3.936 -0.0382  0.8249 -1.1943
 2275SOL    HW3 9172   1.894   2.393   3.869 -0.3486  2.2267  1.0912
 2275SOL    MW4 9173   1.925   2.354   3.940 -0.0653  0.6876  0.1421
 2276SOL     OW 9174   1.875   2.502   3.731  0.1363 -0.0085 -0.0838
 2276SOL    HW2 9175   1.834   2.588   3.743 -0.1214 -0.1377 -0.0557
 2276SOL    HW3 9176   1.853   2.478   3.641 -1.5351 -0.9813  0.5592
 2276SOL    MW4 9177   1.867   2.510   3.720 -0.1183 -0.1538  0.0050
 2277SOL     OW 9178   1.764   2.730   3.826 -0.0718 -0.5890  0.0436
 2277SOL    HW2 9179   1.765   2.714   3.920  3.0697  0.9335  0.3107
 2277SOL    HW3 9180   1.675   2.763   3.809 -0.6468 -0.7911  2.4589
 2277SOL    MW4 9181   1.752   2.733   3.836  0.2667 -0.4146  0.3974
 2278SOL     OW 9182   2.011   2.832   3.781 -0.2677  0.2633  0.0109
 2278SOL    HW2 9183   2.082   2.780   3.818  0.2460  1.0208  0.0986
 2278SOL    HW3 9184   1.931   2.788   3.811  0.1423  0.4411  1.3864
 2278SOL    MW4 9185   2.009   2.819   3.790 -0.1457  0.3865  0.2038
 2279SOL     OW 9186   2.027   3.097   3.855  0.5535 -0.0333  0.7405
 2279SOL    HW2 9187   2.100   3.141   3.811  0.0665 -0.9431 -1.0113
 2279SOL    HW3 9188   2.038   3.005   3.834  0.5147 -0.5370  2.8617
 2279SOL    MW4 9189   2.038   3.091   3.846  0.4845 -0.2196  0.7892
 2280SOL     OW 9190   1.791   3.234   3.786 -0.0188 -0.4399  0.2633
 2280SOL    HW2 9191   1.865   3.177   3.811  0.5982  1.0340  1.9114
 2280SOL    HW3 9192   1.714   3.178   3.795  0.9247 -2.1695 -2.0335
 2280SOL    MW4 9193   1.791   3.219   3.790  0.1872 -0.4737  0.1779
 2281SOL     OW 9194   1.805   3.508   3.866 -0.0925 -0.1161  0.4818
 2281SOL    HW2 9195   1.883   3.558   3.839 -0.7524  0.6374 -0.0468
 2281SOL    HW3 9196   1.825   3.418   3.841  0.4720  0.1289  0.0355
 2281SOL    MW4 9197   1.818   3.503   3.859 -0.1049  0.0155  0.3533
 2282SOL     OW 9198   2.030   3.641   3.774  0.4599 -0.1444  0.2962
 2282SOL    HW2 9199   2.101   3.582   3.797  1.8099  1.0148 -0.8247
 2282SOL    HW3 9200   2.022   3.634   3.679 -0.4383  0.2688  0.3340
 2282SOL    MW4 9201   2.038   3.632   3.764  0.5195  0.0629  0.1531
 2283SOL     OW 9202   2.072   3.902   3.861 -0.7195 -0.3601 -0.2061
 2283SOL    HW2 9203   2.153   3.943   3.831 -0.9064 -0.1985 -0.4936
 2283SOL    HW3 9204   2.074   3.814   3.821  0.0364 -0.9041  1.0143
 2283SOL    MW4 9205   2.083   3.896   3.852 -0.6444 -0.4103 -0.0827
 2284SOL     OW 9206   1.812   3.971   3.735 -0.4632 -0.2050  0.0158
 2284SOL    HW2 9207   1.893   3.950   3.783 -0.5598 -1.4548 -0.3453
 2284SOL    HW3 9208   1.743   3.930   3.787 -0.8106  0.4655  0.0752
 2284SOL    MW4 9209   1.814   3.963   3.748 -0.5217 -0.2816 -0.0241
 2285SOL     OW 9210   1.793   4.234   3.813 -0.2022 -0.2485  0.0566
 2285SOL    HW2 9211   1.864   4.293   3.785 -0.6663 -0.0779 -0.7740
 2285SOL    HW3 9212   1.818   4.149   3.777  0.1145 -0.4221  0.6701
 2285SOL    MW4 9213   1.806   4.231   3.804 -0.2217 -0.2494  0.0279
 2286SOL     OW 9214   1.994   4.409   3.713  0.5340  0.0264  0.0622
 2286SOL    HW2 9215   2.072   4.382   3.761  0.5087  0.2592  0.2331
 2286SOL    HW3 9216   2.016   4.393   3.621  0.1783 -1.4728  0.2131
 2286SOL    MW4 9217   2.007   4.403   3.707  0.4838 -0.1402  0.1047
 2287SOL     OW 9218   2.454   4.661   3.851  0.4404  0.9702 -0.4486
 2287SOL    HW2 9219   2.437   4.659   3.945 -2.0950  1.5647 -0.8550
 2287SOL    HW3 9220   2.515   4.733   3.839  1.2782  0.4858  0.8138
 2287SOL    MW4 9221   2.460   4.670   3.862  0.2165  0.9842 -0.3357
 2288SOL     OW 9222   2.201   0.100   3.773 -0.0416 -0.0911  0.1774
 2288SOL    HW2 9223   2.276   0.047   3.802 -0.7619 -0.9640  0.4445
 2288SOL    HW3 9224   2.203   0.095   3.678  0.4717  0.2166  0.1679
 2288SOL    MW4 9225   2.212   0.092   3.764 -0.0691 -0.1657  0.2117
 2289SOL     OW 9226   2.257   0.365   3.836 -0.0153  0.3373  0.0757
 2289SOL    HW2 9227   2.238   0.274   3.813  0.4177  0.1504  0.4413
 2289SOL    HW3 9228   2.194   0.416   3.786  0.8312 -0.0627 -1.4232
 2289SOL    MW4 9229   2.246   0.359   3.827  0.1533  0.2599 -0.0739
 2290SOL     OW 9230   2.486   0.502   3.720  0.1279  0.1192 -0.4473
 2290SOL    HW2 9231   2.409   0.449   3.743 -0.8686  1.3239 -0.9728
 2290SOL    HW3 9232   2.477   0.519   3.627  1.3845 -0.2670 -0.6467
 2290SOL    MW4 9233   2.474   0.497   3.711  0.1624  0.2272 -0.5426
 2291SOL     OW 9234   2.449   0.747   3.859  0.3251  0.0590 -0.6258
 2291SOL    HW2 9235   2.387   0.798   3.807  0.3671 -0.0453 -0.7794
 2291SOL    HW3 9236   2.464   0.667   3.808 -0.2232 -0.3920 -0.0822
 2291SOL    MW4 9237   2.443   0.743   3.845  0.2584 -0.0142 -0.5741
 2292SOL     OW 9238   2.294   0.909   3.702 -0.1688  0.3870 -0.3276
 2292SOL    HW2 9239   2.210   0.872   3.729 -0.6582  2.1705  0.6967
 2292SOL    HW3 9240   2.286   0.919   3.607 -0.2518 -1.5166 -0.5360
 2292SOL    MW4 9241   2.282   0.906   3.693 -0.2441  0.3712 -0.2201
 2293SOL     OW 9242   2.252   1.145   3.850 -0.1713  0.2164 -0.1008
 2293SOL    HW2 9243   2.245   1.125   3.943  0.2109  1.9279  0.3101
 2293SOL    HW3 9244   2.275   1.061   3.810 -0.1824 -0.5078  1.3533
 2293SOL    MW4 9245   2.254   1.131   3.857 -0.1223  0.3467  0.1454
 2294SOL     OW 9246   2.425   1.331   3.727 -0.4045 -0.0113  0.4227
 2294SOL    HW2 9247   2.453   1.395   3.792 -0.4301  0.2137  0.2128
 2294SOL    HW3 9248   2.363   1.274   3.774 -0.8096  0.4588  0.4613
 2294SOL    MW4 9249   2.420   1.332   3.741 -0.4613  0.0805  0.4001
 2295SOL     OW 9250   2.519   1.528   3.882  0.2402  0.1661  0.0139
 2295SOL    HW2 9251   2.570   1.579   3.819 -0.8028  0.2222 -0.7948
 2295SOL    HW3 9252   2.444   1.584   3.903 -0.1368 -0.4216  0.2445
 2295SOL    MW4 9253   2.516   1.542   3.876  0.0529  0.0961 -0.0622
 2296SOL     OW 9254   2.191   1.726   3.712 -0.5794 -0.4601  0.4849
 2296SOL    HW2 9255   2.137   1.804   3.721 -0.9375 -0.6604  0.1347
 2296SOL    HW3 9256   2.236   1.717   3.796 -1.7743 -0.7939  1.1100
 2296SOL    MW4 9257   2.189   1.735   3.724 -0.7844 -0.5307  0.5212
 2297SOL     OW 9258   2.088   2.085   4.061 -0.3944  0.0442  0.1779
 2297SOL    HW2 9259   2.153   2.016   4.078  0.0564 -0.0058 -1.6338
 2297SOL    HW3 9260   2.016   2.065   4.120  0.5754 -0.8262  1.0895
 2297SOL    MW4 9261   2.087   2.073   4.071 -0.2074 -0.0775  0.0591
 2298SOL     OW 9262   2.328   2.027   3.769 -0.3384  0.3370  0.1242
 2298SOL    HW2 9263   2.335   2.114   3.809  0.4191  0.2599  0.1580
 2298SOL    HW3 9264   2.234   2.010   3.767 -0.4774  1.0408  0.3709
 2298SOL    MW4 9265   2.317   2.036   3.774 -0.2568  0.4196  0.1609
 2299SOL     OW 9266   2.382   2.299   3.875 -0.2632 -0.0707  0.1771
 2299SOL    HW2 9267   2.458   2.343   3.838  0.4414 -0.8088  0.7198
 2299SOL    HW3 9268   2.308   2.355   3.853  0.6025  1.3163  0.7740
 2299SOL    MW4 9269   2.382   2.312   3.867 -0.0560  0.0148  0.3273
 2300SOL     OW 9270   2.161   2.467   3.802 -0.4562 -0.2049 -0.2007
 2300SOL    HW2 9271   2.066   2.478   3.799 -0.6134 -1.1891  0.8358
 2300SOL    HW3 9272   2.186   2.449   3.711 -1.3343 -0.5213 -0.3827
 2300SOL    MW4 9273   2.152   2.466   3.790 -0.5927 -0.3767 -0.0877
 2301SOL     OW 9274   2.239   2.720   3.884  0.0428  0.0813 -0.0718
 2301SOL    HW2 9275   2.242   2.738   3.978  2.3392 -0.6834  0.0317
 2301SOL    HW3 9276   2.224   2.626   3.878 -1.1796  0.3011 -0.4854
 2301SOL    MW4 9277   2.237   2.710   3.895  0.1845  0.0093 -0.1128
 2302SOL     OW 9278   2.482   2.807   3.793 -0.8359 -0.1766 -0.0730
 2302SOL    HW2 9279   2.402   2.768   3.829 -1.8655  1.0242 -0.9961
 2302SOL    HW3 9280   2.460   2.827   3.702  0.5480  0.0861 -0.3557
 2302SOL    MW4 9281   2.468   2.805   3.786 -0.7892  0.0169 -0.2320
 2303SOL     OW 9282   2.433   3.084   3.885 -0.1885  0.3622  0.0422
 2303SOL    HW2 9283   2.426   3.084   3.981 -0.8961  0.7315 -0.0034
 2303SOL    HW3 9284   2.437   2.992   3.862 -0.3201  0.2613  0.4097
 2303SOL    MW4 9285   2.433   3.072   3.895 -0.2992  0.3974  0.0849
 2304SOL     OW 9286   2.244   3.253   3.753  0.0911  0.0124 -0.3557
 2304SOL    HW2 9287   2.253   3.341   3.791 -0.6438  0.1937 -0.5862
 2304SOL    HW3 9288   2.319   3.204   3.787 -0.0570  0.4341  0.5928
 2304SOL    MW4 9289   2.255   3.258   3.762 -0.0253  0.0920 -0.2608
 2305SOL     OW 9290   2.246   3.509   3.887 -0.5175 -0.1360 -0.0969
 2305SOL    HW2 9291   2.248   3.486   3.979 -0.2700  0.7952  0.1387
 2305SOL    HW3 9292   2.328   3.556   3.872  0.0712 -1.4609 -1.1089
 2305SOL    MW4 9293   2.257   3.512   3.897 -0.4070 -0.1879 -0.1993
 2306SOL     OW 9294   2.482   3.649   3.796 -0.3958  0.4486 -0.1142
 2306SOL    HW2 9295   2.561   3.599   3.821 -2.1678 -1.9230  0.9673
 2306SOL    HW3 9296   2.471   3.631   3.703  0.1056  0.4274 -0.1707
 2306SOL    MW4 9297   2.491   3.640   3.787 -0.5634  0.1328  0.0210
 2307SOL     OW 9298   2.511   3.912   3.859  0.3240 -0.1505  0.3385
 2307SOL    HW2 9299   2.579   3.963   3.815 -0.5767  0.8587  0.0886
 2307SOL    HW3 9300   2.524   3.823   3.828  1.0155  0.1832 -0.3485
 2307SOL    MW4 9301   2.521   3.907   3.850  0.2964  0.0267  0.2151
 2308SOL     OW 9302   2.300   4.053   3.741 -0.0487  0.0475 -0.1343
 2308SOL    HW2 9303   2.371   4.004   3.784 -0.5368  0.4270  1.1452
 2308SOL    HW3 9304   2.308   4.031   3.648  2.4584  1.0040 -0.1681
 2308SOL    MW4 9305   2.311   4.043   3.735  0.2179  0.2241  0.0300
 2309SOL     OW 9306   2.222   4.313   3.839  0.7417  0.1121  0.0725
 2309SOL    HW2 9307   2.212   4.307   3.934 -1.6224 -1.0041 -0.2235
 2309SOL    HW3 9308   2.245   4.224   3.811  0.3632  0.1907 -0.5141
 2309SOL    MW4 9309   2.224   4.301   3.848  0.3800 -0.0253 -0.0441
 2310SOL     OW 9310   2.472   4.405   3.753 -0.1115 -0.3168 -0.3728
 2310SOL    HW2 9311   2.382   4.375   3.766 -0.2922  0.5523  0.4177
 2310SOL    HW3 9312   2.477   4.487   3.802  0.5291  0.6669 -2.0331
 2310SOL    MW4 9313   2.461   4.412   3.761 -0.0508 -0.0720 -0.4876
 2311SOL     OW 9314   2.871   0.010   3.875  0.0625 -0.0444  0.1157
 2311SOL    HW2 9315   2.894  -0.015   3.965 -0.3255 -1.7708 -0.2438
 2311SOL    HW3 9316   2.953   0.044   3.839 -0.1081  1.9345  1.5235
 2311SOL    MW4 9317   2.885   0.011   3.882 -0.0112 -0.0105  0.2539
 2312SOL     OW 9318   2.662   0.184   3.801 -0.0123 -0.4949 -0.1102
 2312SOL    HW2 9319   2.739   0.132   3.823  2.5830  2.8852 -0.6319
 2312SOL    HW3 9320   2.660   0.184   3.706  0.0602  0.3478 -0.1182
 2312SOL    MW4 9321   2.672   0.177   3.792  0.3397  0.0622 -0.1800
 2313SOL     OW 9322   2.701   0.456   3.888  0.2384  0.6555  0.1889
 2313SOL    HW2 9323   2.692   0.363   3.870  0.4919  0.7479 -0.4142
 2313SOL    HW3 9324   2.633   0.498   3.835 -0.1586  0.7812  0.7869
 2313SOL    MW4 9325   2.691   0.449   3.879  0.2193  0.6842  0.1881
 2314SOL     OW 9326   2.931   0.537   3.760  0.1664  0.3779 -0.1877
 2314SOL    HW2 9327   3.002   0.491   3.805 -0.5835 -1.5689 -0.9521
 2314SOL    HW3 9328   2.852   0.513   3.808 -0.2582  0.7809 -0.6719
 2314SOL    MW4 9329   2.930   0.528   3.772  0.0117  0.1742 -0.3524
 2315SOL     OW 9330   2.881   0.813   3.795  0.1394 -0.2542  0.4188
 2315SOL    HW2 9331   2.971   0.846   3.790  0.2644 -0.5653  0.5772
 2315SOL    HW3 9332   2.887   0.722   3.767 -0.6550  0.6128 -2.7639
 2315SOL    MW4 9333   2.894   0.805   3.791  0.0513 -0.1808  0.0196
 2316SOL     OW 9334   2.638   0.912   3.733  0.2205  0.1711  0.7025
 2316SOL    HW2 9335   2.720   0.870   3.759  0.2592 -0.2905 -0.1471
 2316SOL    HW3 9336   2.572   0.873   3.791  0.6348  0.7512  1.5777
 2316SOL    MW4 9337   2.640   0.901   3.744  0.2804  0.1867  0.7060
 2317SOL     OW 9338   2.643   1.178   3.826  0.0057  0.0090 -0.1533
 2317SOL    HW2 9339   2.621   1.090   3.795 -0.1993 -0.3499  0.9581
 2317SOL    HW3 9340   2.580   1.235   3.782 -0.9833 -0.6122  0.4161
 2317SOL    MW4 9341   2.632   1.174   3.816 -0.1516 -0.1202  0.0684
 2318SOL     OW 9342   2.888   1.249   3.717 -0.4824  0.5831 -0.6069
 2318SOL    HW2 9343   2.900   1.334   3.760 -0.4041  0.2703 -0.0050
 2318SOL    HW3 9344   2.800   1.222   3.744 -0.4508  0.4039 -0.6857
 2318SOL    MW4 9345   2.878   1.257   3.727 -0.4675  0.5182 -0.5379
 2319SOL     OW 9346   2.909   1.533   3.807  0.1380  0.1665 -0.3033
 2319SOL    HW2 9347   2.891   1.537   3.901 -0.2217 -1.8251 -0.2682
 2319SOL    HW3 9348   2.986   1.589   3.795  1.0744 -0.7195  1.4251
 2319SOL    MW4 9349   2.917   1.541   3.818  0.2139 -0.2133 -0.0703
 2320SOL     OW 9350   2.686   1.693   3.731 -0.3533 -0.1227 -0.2519
 2320SOL    HW2 9351   2.759   1.631   3.731 -0.2825 -0.0393 -1.1495
 2320SOL    HW3 9352   2.658   1.699   3.640 -0.6806  0.7938 -0.1049
 2320SOL    MW4 9353   2.692   1.686   3.719 -0.3872  0.0092 -0.3507
 2321SOL     OW 9354   2.608   1.943   3.831 -0.5815 -0.4940  0.4444
 2321SOL    HW2 9355   2.626   1.851   3.813 -1.5591 -0.9878  1.9086
 2321SOL    HW3 9356   2.515   1.954   3.812 -0.4924  0.1654  0.3759
 2321SOL    MW4 9357   2.598   1.933   3.826 -0.6986 -0.4722  0.6285
 2322SOL     OW 9358   2.864   2.048   3.766  0.4461  0.2456 -0.2571
 2322SOL    HW2 9359   2.877   2.128   3.818  0.2671  0.5276 -0.6453
 2322SOL    HW3 9360   2.781   2.012   3.797  0.2679  0.4911 -0.4495
 2322SOL    MW4 9361   2.855   2.054   3.777  0.3989  0.3152 -0.3338
 2323SOL     OW 9362   2.863   2.296   3.900  0.2150 -0.3704 -0.0967
 2323SOL    HW2 9363   2.878   2.312   3.993 -1.4679  0.6164  0.0294
 2323SOL    HW3 9364   2.938   2.335   3.856  1.6032 -1.8331  0.8866
 2323SOL    MW4 9365   2.875   2.303   3.906  0.1762 -0.4332  0.0496
 2324SOL     OW 9366   2.622   2.409   3.789 -0.0195 -0.1886  0.5553
 2324SOL    HW2 9367   2.632   2.502   3.809 -0.6242 -0.4858  2.3403
 2324SOL    HW3 9368   2.703   2.369   3.822 -0.5605 -0.5452  1.4523
 2324SOL    MW4 9369   2.634   2.416   3.796 -0.1705 -0.2749  0.9091
 2325SOL     OW 9370   2.691   2.659   3.867  0.2992 -0.1072 -0.3126
 2325SOL    HW2 9371   2.693   2.653   3.962 -1.2687 -1.5059 -0.3436
 2325SOL    HW3 9372   2.622   2.723   3.848  0.4723  0.0219 -0.5119
 2325SOL    MW4 9373   2.682   2.667   3.877  0.1154 -0.2747 -0.3431
 2326SOL     OW 9374   2.899   2.801   3.763  0.0867 -0.0386 -0.4950
 2326SOL    HW2 9375   2.899   2.893   3.788 -0.0439 -0.2539  0.3198
 2326SOL    HW3 9376   2.831   2.761   3.818 -0.1642 -0.5296 -1.1623
 2326SOL    MW4 9377   2.890   2.808   3.774  0.0367 -0.1316 -0.4752
 2327SOL     OW 9378   2.915   3.061   3.843 -0.1714  0.1570 -0.3014
 2327SOL    HW2 9379   2.988   3.114   3.812 -0.8723  0.3855 -1.6136
 2327SOL    HW3 9380   2.837   3.105   3.808 -0.9751  0.2307  1.5274
 2327SOL    MW4 9381   2.914   3.074   3.834 -0.3698  0.1969 -0.2334
 2328SOL     OW 9382   2.673   3.202   3.779  0.0261 -0.0974 -0.0335
 2328SOL    HW2 9383   2.693   3.286   3.820  0.1619 -0.3829  0.4886
 2328SOL    HW3 9384   2.593   3.172   3.823 -0.0685 -0.2052 -0.2748
 2328SOL    MW4 9385   2.665   3.209   3.790  0.0317 -0.1493  0.0036
 2329SOL     OW 9386   2.703   3.485   3.853  0.1651  0.1670 -0.2151
 2329SOL    HW2 9387   2.706   3.492   3.949  1.2441  1.0399 -0.2934
 2329SOL    HW3 9388   2.786   3.523   3.825  0.6979 -1.8129 -1.4089
 2329SOL    MW4 9389   2.715   3.491   3.862  0.3777  0.0212 -0.3827
 2330SOL     OW 9390   2.939   3.652   3.778  0.1367 -0.2445  0.3612
 2330SOL    HW2 9391   3.008   3.600   3.818  0.3169  0.1997  0.6281
 2330SOL    HW3 9392   2.955   3.643   3.684 -0.0905 -1.0176  0.3984
 2330SOL    MW4 9393   2.950   3.644   3.771  0.1307 -0.2878  0.4015
 2331SOL     OW 9394   2.886   3.924   3.864 -0.2609 -0.2818 -0.0594
 2331SOL    HW2 9395   2.881   3.940   3.958 -2.5223 -1.4027  0.0339
 2331SOL    HW3 9396   2.895   3.829   3.857 -2.2366 -0.4071 -1.0367
 2331SOL    MW4 9397   2.887   3.913   3.875 -0.8204 -0.4466 -0.1762
 2332SOL     OW 9398   2.697   4.052   3.707  0.3460  0.0521 -0.3155
 2332SOL    HW2 9399   2.687   4.130   3.762  1.4685  0.0354 -0.0651
 2332SOL    HW3 9400   2.769   4.004   3.748 -1.0494 -1.6651  0.1757
 2332SOL    MW4 9401   2.705   4.056   3.720  0.3102 -0.1774 -0.2177
 2333SOL     OW 9402   2.679   4.266   3.854  0.2563 -0.4714 -0.0231
 2333SOL    HW2 9403   2.754   4.302   3.806 -0.3104 -0.7853 -1.1625
 2333SOL    HW3 9404   2.604   4.317   3.824 -0.2284 -1.2081 -0.0815
 2333SOL    MW4 9405   2.679   4.278   3.844  0.1175 -0.6094 -0.1812
 2334SOL     OW 9406   2.890   4.418   3.751 -0.0763 -0.1400  0.4164
 2334SOL    HW2 9407   2.966   4.387   3.801  0.8026  0.7634 -0.3600
 2334SOL    HW3 9408   2.869   4.503   3.789  0.4349  0.4362 -0.5875
 2334SOL    MW4 9409   2.897   4.425   3.763  0.1073  0.0553  0.1817
 2335SOL     OW 9410   3.344   4.612   3.896 -0.6019  0.0111  0.5045
 2335SOL    HW2 9411   3.364   4.630   3.988 -0.7337  0.4746  0.4481
 2335SOL    HW3 9412   3.420   4.643   3.848 -0.1333 -1.0965  0.5266
 2335SOL    MW4 9413   3.356   4.619   3.902 -0.5577 -0.0744  0.5002
 2336SOL     OW 9414   3.125   0.068   3.787  0.4694  0.8606 -0.1267
 2336SOL    HW2 9415   3.198   0.029   3.834 -0.2152 -2.0279 -1.3316
 2336SOL    HW3 9416   3.143   0.050   3.695 -2.1147 -0.6729 -0.4009
 2336SOL    MW4 9417   3.137   0.060   3.781  0.0381  0.2772 -0.3219
 2337SOL     OW 9418   3.150   0.362   3.856  0.0190  0.7658 -0.7500
 2337SOL    HW2 9419   3.165   0.361   3.951  1.2317  0.2235 -0.9373
 2337SOL    HW3 9420   3.137   0.271   3.833 -1.8717  1.0571 -0.8784
 2337SOL    MW4 9421   3.150   0.350   3.866 -0.0706  0.7327 -0.7913
 2338SOL     OW 9422   3.371   0.497   3.790 -0.2080 -0.4602 -0.2016
 2338SOL    HW2 9423   3.436   0.447   3.840 -0.5521 -1.6607 -0.9355
 2338SOL    HW3 9424   3.288   0.453   3.808 -1.1167  1.9758  1.9673
 2338SOL    MW4 9425   3.369   0.485   3.799 -0.3734 -0.2972 -0.0124
 2339SOL     OW 9426   3.357   0.772   3.882  0.3194 -0.0022 -0.5828
 2339SOL    HW2 9427   3.366   0.777   3.977  1.8822  0.4467 -0.7280
 2339SOL    HW3 9428   3.361   0.679   3.862 -0.8595 -0.1518 -0.1429
 2339SOL    MW4 9429   3.359   0.760   3.892  0.3703  0.0373 -0.5436
 2340SOL     OW 9430   3.143   0.902   3.769  0.0295  0.1850  0.2197
 2340SOL    HW2 9431   3.214   0.851   3.807  0.4390  1.0472  0.6285
 2340SOL    HW3 9432   3.164   0.907   3.676 -0.8635 -1.7571 -0.1030
 2340SOL    MW4 9433   3.155   0.896   3.762 -0.0341  0.0425  0.2310
 2341SOL     OW 9434   3.135   1.169   3.843 -0.1051 -0.2519  0.1758
 2341SOL    HW2 9435   3.150   1.078   3.817  0.7222  0.1720 -0.8783
 2341SOL    HW3 9436   3.064   1.199   3.785 -0.7445 -0.3788  0.8856
 2341SOL    MW4 9437   3.127   1.160   3.832 -0.0803 -0.2128  0.1302
 2342SOL     OW 9438   3.360   1.310   3.782 -0.1210 -0.0698 -0.0187
 2342SOL    HW2 9439   3.281   1.259   3.801 -1.5130  1.5286 -1.3805
 2342SOL    HW3 9440   3.363   1.314   3.686  1.0207  0.7732  0.0465
 2342SOL    MW4 9441   3.350   1.304   3.772 -0.1540  0.2522 -0.1895
 2343SOL     OW 9442   3.346   1.556   3.896  0.0736 -0.2180 -0.1474
 2343SOL    HW2 9443   3.268   1.583   3.848 -1.7327 -0.2632  2.6473
 2343SOL    HW3 9444   3.356   1.463   3.873 -0.3643 -0.0791 -0.9432
 2343SOL    MW4 9445   3.337   1.547   3.887 -0.2227 -0.2055  0.1161
 2344SOL     OW 9446   3.149   1.676   3.740  0.3639 -0.0440  0.0652
 2344SOL    HW2 9447   3.118   1.759   3.775 -0.2529 -0.3432  0.2429
 2344SOL    HW3 9448   3.167   1.693   3.648 -1.3194 -0.1217 -0.2900
 2344SOL    MW4 9449   3.147   1.689   3.733  0.0606 -0.0936  0.0417
 2345SOL     OW 9450   3.103   1.920   3.831  0.7184 -0.3793 -0.6300
 2345SOL    HW2 9451   3.107   1.937   3.926  0.9556 -0.4404 -0.6291
 2345SOL    HW3 9452   3.021   1.961   3.803  0.7273 -0.2213 -0.4252
 2345SOL    MW4 9453   3.093   1.928   3.840  0.7508 -0.3666 -0.6027
 2346SOL     OW 9454   3.359   2.076   3.799 -0.4765 -0.6325 -0.1031
 2346SOL    HW2 9455   3.278   2.029   3.819 -1.4016  0.8885 -0.1729
 2346SOL    HW3 9456   3.363   2.075   3.703 -0.7605 -0.1508 -0.1228
 2346SOL    MW4 9457   3.348   2.070   3.789 -0.6363 -0.3686 -0.1152
 2347SOL     OW 9458   3.376   2.336   3.889 -0.0173 -0.0464  0.1037
 2347SOL    HW2 9459   3.297   2.373   3.849 -0.6752 -0.3357  1.1177
 2347SOL    HW3 9460   3.378   2.245   3.859 -1.2949 -0.6684  1.8714
 2347SOL    MW4 9461   3.366   2.329   3.880 -0.2728 -0.1667  0.4706
 2348SOL     OW 9462   3.130   2.391   3.780 -0.4206 -0.1749  0.0536
 2348SOL    HW2 9463   3.104   2.480   3.803  0.2483  0.0223  0.0557
 2348SOL    HW3 9464   3.130   2.390   3.684  0.0579 -0.0249  0.0497
 2348SOL    MW4 9465   3.127   2.402   3.770 -0.2694 -0.1292  0.0534
 2349SOL     OW 9466   3.125   2.648   3.849 -0.5161  0.2862 -0.2100
 2349SOL    HW2 9467   3.138   2.662   3.943  0.7902  2.3231 -0.6856
 2349SOL    HW3 9468   3.056   2.709   3.825 -1.4540 -0.8408 -0.4284
 2349SOL    MW4 9469   3.117   2.658   3.859 -0.4675  0.4063 -0.3016
 2350SOL     OW 9470   3.355   2.791   3.782  0.0550  0.6194  0.3512
 2350SOL    HW2 9471   3.277   2.737   3.791  0.9275 -0.7335 -0.0300
 2350SOL    HW3 9472   3.362   2.809   3.688  1.0557 -0.5614  0.1946
 2350SOL    MW4 9473   3.346   2.787   3.771  0.3023  0.2849  0.2801
 2351SOL     OW 9474   3.326   3.075   3.893  0.1091  0.0761 -0.2655
 2351SOL    HW2 9475   3.402   3.121   3.857 -0.9561 -0.0682 -2.8383
 2351SOL    HW3 9476   3.334   2.986   3.859 -0.4903 -0.3051  0.5793
 2351SOL    MW4 9477   3.337   3.069   3.884 -0.1104  0.0067 -0.4935
 2352SOL     OW 9478   3.128   3.230   3.803 -0.4241  0.0465 -0.1978
 2352SOL    HW2 9479   3.197   3.177   3.842  0.0792  0.4303 -0.5551
 2352SOL    HW3 9480   3.155   3.240   3.711 -1.7618 -1.1302 -0.7343
 2352SOL    MW4 9481   3.141   3.225   3.796 -0.5341 -0.0579 -0.3157
 2353SOL     OW 9482   3.118   3.484   3.944 -0.4500 -0.0966 -0.2862
 2353SOL    HW2 9483   3.202   3.504   3.903 -1.1389 -0.6829 -1.9967
 2353SOL    HW3 9484   3.093   3.399   3.908 -1.3613 -0.3449  0.8933
 2353SOL    MW4 9485   3.126   3.475   3.934 -0.6611 -0.2067 -0.3562
 2354SOL     OW 9486   3.336   3.582   3.797  0.1285  0.3298 -0.2936
 2354SOL    HW2 9487   3.347   3.674   3.823 -2.2931  1.0211 -1.5563
 2354SOL    HW3 9488   3.350   3.582   3.702 -0.4310 -0.4969 -0.3805
 2354SOL    MW4 9489   3.340   3.595   3.788 -0.2649  0.3123 -0.4716
 2355SOL     OW 9490   3.368   3.829   3.876  0.2147  0.4809 -0.1321
 2355SOL    HW2 9491   3.443   3.883   3.851  0.4465  0.8405  1.2900
 2355SOL    HW3 9492   3.292   3.877   3.845  0.5174  0.7133 -0.5090
 2355SOL    MW4 9493   3.368   3.842   3.869  0.2851  0.5591  0.0057
 2356SOL     OW 9494   3.137   4.001   3.787 -0.0813  0.5243  0.2567
 2356SOL    HW2 9495   3.137   4.096   3.798 -0.1967  0.7123 -1.2350
 2356SOL    HW3 9496   3.057   3.971   3.829 -1.0471  1.3165 -0.9979
 2356SOL    MW4 9497   3.127   4.009   3.794 -0.2241  0.6533 -0.1056
 2357SOL     OW 9498   3.092   4.265   3.878  0.0569  0.0524 -0.1597
 2357SOL    HW2 9499   3.099   4.261   3.974  0.6041  0.8676 -0.1630
 2357SOL    HW3 9500   3.181   4.284   3.848 -0.3523  1.0555 -0.7596
 2357SOL    MW4 9501   3.105   4.267   3.887  0.0753  0.2923 -0.2391
 2358SOL     OW 9502   3.323   4.364   3.764 -0.2826  0.2585  0.0425
 2358SOL    HW2 9503   3.402   4.316   3.791 -0.6698  0.3720  1.4165
 2358SOL    HW3 9504   3.325   4.444   3.816 -2.2274 -0.5526  1.4130
 2358SOL    MW4 9505   3.334   4.368   3.774 -0.5903  0.1669  0.4048
 2359SOL     OW 9506   3.811   4.657   3.813  0.1126 -0.3162 -0.1905
 2359SOL    HW2 9507   3.895   4.698   3.791 -0.2684 -0.3063 -1.6339
 2359SOL    HW3 9508   3.820   4.566   3.785  0.2261 -0.7281  1.1614
 2359SOL    MW4 9509   3.823   4.651   3.807  0.0772 -0.3691 -0.2027
 2360SOL     OW 9510   3.562   0.120   3.777 -0.1014 -0.5534 -0.3948
 2360SOL    HW2 9511   3.649   0.084   3.794  0.7815  1.5513 -0.2662
 2360SOL    HW3 9512   3.555   0.122   3.681  1.2018  1.9534 -0.4795
 2360SOL    MW4 9513   3.572   0.116   3.766  0.1869  0.0550 -0.3891
 2361SOL     OW 9514   3.595   0.368   3.900  0.1834  0.3057  0.0186
 2361SOL    HW2 9515   3.667   0.405   3.850 -0.1833  0.2016 -0.5932
 2361SOL    HW3 9516   3.589   0.277   3.869 -0.8723  0.6063 -0.6833
 2361SOL    MW4 9517   3.603   0.361   3.889 -0.0043  0.3316 -0.1547
 2362SOL     OW 9518   3.801   0.526   3.761 -0.1309 -0.5084  0.1984
 2362SOL    HW2 9519   3.874   0.468   3.784  0.7229  0.8998  1.1561
 2362SOL    HW3 9520   3.817   0.605   3.813 -1.3152  0.5428 -1.0195
 2362SOL    MW4 9521   3.813   0.529   3.771 -0.1745 -0.1839  0.1640
 2363SOL     OW 9522   3.817   0.770   3.889 -0.1099 -0.2730 -0.5357
 2363SOL    HW2 9523   3.895   0.808   3.849 -0.1711  1.0978  0.6086
 2363SOL    HW3 9524   3.744   0.811   3.843 -0.1736 -1.3690 -1.4363
 2363SOL    MW4 9525   3.817   0.780   3.878 -0.1264 -0.2367 -0.5040
 2364SOL     OW 9526   3.587   0.892   3.800 -0.3151 -0.5090 -0.6674
 2364SOL    HW2 9527   3.576   0.983   3.828  0.7340  0.1277 -2.2626
 2364SOL    HW3 9528   3.504   0.849   3.823  0.7177 -0.2370  4.0568
 2364SOL    MW4 9529   3.574   0.898   3.807 -0.0405 -0.3892 -0.2544
 2365SOL     OW 9530   3.564   1.165   3.889 -0.4393  0.1592  0.1027
 2365SOL    HW2 9531   3.640   1.210   3.854 -0.2046 -0.1664  0.1941
 2365SOL    HW3 9532   3.489   1.217   3.859 -0.1363  1.0188  0.8096
 2365SOL    MW4 9533   3.564   1.178   3.881 -0.3686  0.2297  0.2081
 2366SOL     OW 9534   3.776   1.305   3.775 -0.7704  0.6071 -0.0046
 2366SOL    HW2 9535   3.841   1.247   3.815 -2.0826 -1.0792 -0.3043
 2366SOL    HW3 9536   3.807   1.393   3.796  2.3809 -0.1257 -1.3146
 2366SOL    MW4 9537   3.789   1.309   3.783 -0.5279  0.2880 -0.2170
 2367SOL     OW 9538   3.833   1.566   3.888 -0.3006  0.0429 -0.6288
 2367SOL    HW2 9539   3.833   1.555   3.984 -1.1502 -0.1456 -0.6442
 2367SOL    HW3 9540   3.752   1.614   3.870 -0.4793 -0.5078 -1.3182
 2367SOL    MW4 9541   3.822   1.571   3.899 -0.4363 -0.0546 -0.7219
 2368SOL     OW 9542   3.581   1.678   3.808  0.5414 -0.0822 -0.1145
 2368SOL    HW2 9543   3.503   1.624   3.818 -0.5505  1.2811 -1.1718
 2368SOL    HW3 9544   3.590   1.692   3.714  0.5280  1.9712  0.1548
 2368SOL    MW4 9545   3.572   1.673   3.797  0.3958  0.3686 -0.2184
 2369SOL     OW 9546   3.584   1.936   3.891  0.0093 -0.2739 -0.5476
 2369SOL    HW2 9547   3.591   1.849   3.850  0.8052  0.0796 -1.1730
 2369SOL    HW3 9548   3.507   1.975   3.851  0.0078 -0.4515 -0.7220
 2369SOL    MW4 9549   3.575   1.929   3.880  0.1142 -0.2507 -0.6530
 2370SOL     OW 9550   3.821   2.054   3.820 -0.2207  0.4677 -0.1229
 2370SOL    HW2 9551   3.891   1.994   3.847 -1.0515 -0.4465  0.0458
 2370SOL    HW3 9552   3.742   2.017   3.860 -1.0405  0.6075 -1.5854
 2370SOL    MW4 9553   3.820   2.041   3.829 -0.4382  0.3655 -0.2940
 2371SOL     OW 9554   3.813   2.294   3.924 -0.4713 -0.4349 -0.3945
 2371SOL    HW2 9555   3.738   2.348   3.900 -0.9433 -0.5502  0.7523
 2371SOL    HW3 9556   3.792   2.207   3.891 -0.1339 -0.1260 -1.4326
 2371SOL    MW4 9557   3.800   2.290   3.917 -0.4892 -0.4091 -0.3803
 2372SOL     OW 9558   3.619   2.444   3.807  0.6039  0.4412 -0.1487
 2372SOL    HW2 9559   3.540   2.398   3.835  0.8769 -0.4146 -0.7587
 2372SOL    HW3 9560   3.611   2.449   3.712  1.2738  0.3493 -0.2126
 2372SOL    MW4 9561   3.607   2.438   3.798  0.7281  0.3161 -0.2375
 2373SOL     OW 9562   3.596   2.710   3.881  0.6726 -0.1117  0.0763
 2373SOL    HW2 9563   3.614   2.622   3.848 -0.6661  0.3300 -1.9674
 2373SOL    HW3 9564   3.506   2.728   3.851  0.0625  1.0487  2.4684
 2373SOL    MW4 9565   3.586   2.700   3.872  0.4156  0.0997  0.1223
 2374SOL     OW 9566   3.813   2.827   3.760  0.1153 -0.2003 -0.2489
 2374SOL    HW2 9567   3.883   2.777   3.803  0.0830 -0.4271 -0.4617
 2374SOL    HW3 9568   3.732   2.793   3.798  0.1259  0.1447  0.0843
 2374SOL    MW4 9569   3.812   2.816   3.771  0.1125 -0.1848 -0.2329
 2375SOL     OW 9570   3.810   3.088   3.857  0.1894  0.0685 -0.3778
 2375SOL    HW2 9571   3.724   3.122   3.831  0.7544  0.4980 -1.7531
 2375SOL    HW3 9572   3.805   2.995   3.836 -0.2953 -0.1116  0.5150
 2375SOL    MW4 9573   3.798   3.081   3.851  0.1998  0.1013 -0.4413
 2376SOL     OW 9574   3.571   3.186   3.795 -0.3921 -0.1723  0.3812
 2376SOL    HW2 9575   3.561   3.272   3.837 -2.2800 -0.7130  1.1191
 2376SOL    HW3 9576   3.581   3.206   3.702 -0.6456  0.8705  0.5645
 2376SOL    MW4 9577   3.571   3.200   3.789 -0.6747 -0.1061  0.5026
 2377SOL     OW 9578   3.579   3.457   3.900  0.2310  0.1948 -0.7247
 2377SOL    HW2 9579   3.596   3.488   3.989 -0.8992 -0.4861 -0.2623
 2377SOL    HW3 9580   3.497   3.501   3.875  0.2320 -0.0761 -1.1977
 2377SOL    MW4 9581   3.570   3.467   3.909  0.0823  0.0694 -0.7262
 2378SOL     OW 9582   3.794   3.617   3.773  0.4785 -0.5415 -0.0860
 2378SOL    HW2 9583   3.790   3.709   3.800  1.3935 -0.6590  0.4432
 2378SOL    HW3 9584   3.733   3.572   3.831 -1.0075 -0.0704 -1.2279
 2378SOL    MW4 9585   3.785   3.623   3.784  0.4032 -0.4947 -0.1669
 2379SOL     OW 9586   3.786   3.846   3.916 -0.1128  0.1228  0.3194
 2379SOL    HW2 9587   3.788   3.853   4.012  1.9796  0.2529  0.2847
 2379SOL    HW3 9588   3.864   3.893   3.887 -1.0845  0.6563 -1.5022
 2379SOL    MW4 9589   3.797   3.853   3.925  0.0350  0.2103  0.0744
 2380SOL     OW 9590   3.581   3.993   3.774 -0.1726 -0.1508  0.8644
 2380SOL    HW2 9591   3.582   4.085   3.798 -1.7814  0.0780  0.0910
 2380SOL    HW3 9592   3.654   3.955   3.824  0.8380  1.6175  0.7785
 2380SOL    MW4 9593   3.591   4.000   3.784 -0.2518  0.1128  0.7510
 2381SOL     OW 9594   3.565   4.261   3.827 -0.1909  0.2284 -0.0674
 2381SOL    HW2 9595   3.573   4.255   3.923 -1.9968 -0.2147  0.0855
 2381SOL    HW3 9596   3.640   4.313   3.800  1.5035 -1.3646  1.3913
 2381SOL    MW4 9597   3.576   4.267   3.836 -0.2055 -0.0401  0.1450
 2382SOL     OW 9598   3.804   4.391   3.752  0.2052 -0.1364  0.2496
 2382SOL    HW2 9599   3.880   4.351   3.795 -0.0721  0.5521  1.4106
 2382SOL    HW3 9600   3.819   4.376   3.659  1.4729 -0.5295  0.4990
 2382SOL    MW4 9601   3.816   4.383   3.745  0.3359 -0.0973  0.4356
 2383SOL     OW 9602   4.271   4.629   3.872 -0.1066 -0.1012 -0.3854
 2383SOL    HW2 9603   4.280   4.651   3.965 -0.2067 -0.7143 -0.2298
 2383SOL    HW3 9604   4.350   4.665   3.832  0.5226 -0.8817  0.1375
 2383SOL    MW4 9605   4.283   4.636   3.879 -0.0367 -0.2851 -0.2959
 2384SOL     OW 9606   4.061   0.104   3.756 -0.1585  0.1899  0.1206
 2384SOL    HW2 9607   4.142   0.069   3.795 -0.2347  0.5340  0.5865
 2384SOL    HW3 9608   4.080   0.107   3.662 -0.2783 -1.4388  0.0248
 2384SOL    MW4 9609   4.074   0.099   3.749 -0.1845  0.0204  0.1695
 2385SOL     OW 9610   4.023   0.369   3.834  0.1536  0.4257  0.3526
 2385SOL    HW2 9611   3.981   0.369   3.921 -2.3766  1.0278 -0.8205
 2385SOL    HW3 9612   4.016   0.278   3.805  0.6567  0.3049  0.5930
 2385SOL    MW4 9613   4.016   0.357   3.842 -0.1135  0.4892  0.2294
 2386SOL     OW 9614   4.243   0.529   3.758 -0.0048  0.1955 -0.6024
 2386SOL    HW2 9615   4.171   0.481   3.798  1.2652 -1.9090 -0.8169
 2386SOL    HW3 9616   4.227   0.523   3.664  0.0800  0.3369 -0.6268
 2386SOL    MW4 9617   4.232   0.522   3.751  0.1736 -0.0635 -0.6337
 2387SOL     OW 9618   4.298   0.776   3.858 -0.0689  0.0943  0.1213
 2387SOL    HW2 9619   4.213   0.815   3.836  0.7976  1.0032 -1.8087
 2387SOL    HW3 9620   4.300   0.694   3.808  0.6571  0.6633 -0.8104
 2387SOL    MW4 9621   4.287   0.771   3.848  0.1411  0.2893 -0.2563
 2388SOL     OW 9622   4.056   0.877   3.779  0.0807  0.6632  0.2177
 2388SOL    HW2 9623   4.033   0.965   3.808  0.3243  1.1634 -1.0954
 2388SOL    HW3 9624   4.058   0.882   3.684 -2.1344 -1.3182  0.0228
 2388SOL    MW4 9625   4.053   0.889   3.770 -0.1793  0.4678  0.0186
 2389SOL     OW 9626   3.992   1.149   3.854 -0.0382  0.0818 -0.0599
 2389SOL    HW2 9627   3.998   1.145   3.949 -0.2808 -0.8174 -0.0786
 2389SOL    HW3 9628   4.082   1.161   3.825 -0.0758  1.3116  0.3252
 2389SOL    MW4 9629   4.004   1.150   3.863 -0.0753  0.1253 -0.0114
 2390SOL     OW 9630   4.255   1.246   3.794 -0.1699 -1.0535 -0.0816
 2390SOL    HW2 9631   4.250   1.338   3.822  1.4025 -0.9865 -0.0245
 2390SOL    HW3 9632   4.257   1.250   3.698  3.1792 -0.8530 -0.0308
 2390SOL    MW4 9633   4.254   1.259   3.785  0.4797 -1.0180 -0.0677
 2391SOL     OW 9634   4.274   1.503   3.901  0.5351 -0.0138 -0.0773
 2391SOL    HW2 9635   4.206   1.554   3.856  1.0970 -0.0257 -0.9407
 2391SOL    HW3 9636   4.356   1.536   3.866  0.9198 -1.1382 -0.2429
 2391SOL    MW4 9637   4.276   1.514   3.890  0.6595 -0.1637 -0.2134
 2392SOL     OW 9638   4.065   1.635   3.755  0.0250  0.0483  0.0738
 2392SOL    HW2 9639   4.064   1.725   3.786 -1.2622  0.3840 -0.9102
 2392SOL    HW3 9640   3.987   1.596   3.792 -1.1857  0.2716 -2.1675
 2392SOL    MW4 9641   4.055   1.642   3.764 -0.3042  0.1222 -0.3519
 2393SOL     OW 9642   4.038   1.871   3.869 -0.6417  0.2679 -0.3125
 2393SOL    HW2 9643   4.050   1.836   3.957 -1.1954  0.7411 -0.0382
 2393SOL    HW3 9644   4.109   1.935   3.858  0.0835 -0.5908 -0.6328
 2393SOL    MW4 9645   4.049   1.875   3.879 -0.6189  0.2172 -0.3185
 2394SOL     OW 9646   4.217   2.057   3.811 -0.0363  0.4019 -0.1693
 2394SOL    HW2 9647   4.210   2.149   3.835  0.0239  0.1279  0.9471
 2394SOL    HW3 9648   4.218   2.056   3.715  1.2345  1.6419 -0.1694
 2394SOL    MW4 9649   4.216   2.069   3.801  0.1392  0.5295 -0.0219
 2395SOL     OW 9650   4.225   2.328   3.893  0.3021  0.6253 -0.1452
 2395SOL    HW2 9651   4.217   2.339   3.988 -0.1676 -0.1658 -0.0852
 2395SOL    HW3 9652   4.169   2.395   3.856  0.3912  0.8575  0.1373
 2395SOL    MW4 9653   4.217   2.338   3.901  0.2522  0.5517 -0.0999
 2396SOL     OW 9654   4.002   2.463   3.810  0.3607 -0.7394  0.2119
 2396SOL    HW2 9655   3.996   2.552   3.844 -0.1791 -1.2680  1.5406
 2396SOL    HW3 9656   3.930   2.416   3.852  0.2790 -1.6518 -0.9384
 2396SOL    MW4 9657   3.992   2.468   3.820  0.2792 -0.9294  0.2356
 2397SOL     OW 9658   4.043   2.735   3.909 -0.1849  0.2587  0.3407
 2397SOL    HW2 9659   4.053   2.738   4.005  0.8965 -0.2280  0.2607
 2397SOL    HW3 9660   4.125   2.771   3.876 -0.4156  0.0968 -0.4031
 2397SOL    MW4 9661   4.055   2.740   3.917 -0.0725  0.1733  0.2320
 2398SOL     OW 9662   4.242   2.890   3.785  0.1044 -0.0640 -0.5177
 2398SOL    HW2 9663   4.230   2.969   3.837 -0.2637 -0.0448 -0.6287
 2398SOL    HW3 9664   4.318   2.847   3.823 -0.4626 -0.3011  0.3504
 2398SOL    MW4 9665   4.251   2.895   3.797 -0.0191 -0.0927 -0.4179
 2399SOL     OW 9666   4.258   3.135   3.923 -0.6651 -0.3499  0.1726
 2399SOL    HW2 9667   4.176   3.176   3.896 -0.3978  1.5626  2.1165
 2399SOL    HW3 9668   4.320   3.157   3.854 -1.8547 -2.2031 -1.5431
 2399SOL    MW4 9669   4.255   3.143   3.911 -0.7863 -0.3421  0.2027
 2400SOL     OW 9670   4.045   3.250   3.802  0.2503  0.2662 -0.0588
 2400SOL    HW2 9671   3.958   3.214   3.817 -0.8695  2.2577 -1.5552
 2400SOL    HW3 9672   4.062   3.235   3.709  1.0918  0.7735  0.0043
 2400SOL    MW4 9673   4.036   3.243   3.792  0.2136  0.5958 -0.2480
 2401SOL     OW 9674   4.007   3.514   3.900 -0.6080  0.5316  0.2294
 2401SOL    HW2 9675   4.011   3.422   3.873 -3.4843  0.3002  0.5121
 2401SOL    HW3 9676   3.936   3.552   3.848  0.3113  2.5476  0.3622
 2401SOL    MW4 9677   3.998   3.507   3.890 -0.8659  0.7670  0.2844
 2402SOL     OW 9678   4.271   3.571   3.776 -0.0995  0.2796  0.2221
 2402SOL    HW2 9679   4.197   3.556   3.835  1.1219 -3.0416  1.0426
 2402SOL    HW3 9680   4.346   3.534   3.822  1.2981 -0.2742 -2.4023
 2402SOL    MW4 9681   4.271   3.564   3.790  0.2460 -0.2313 -0.0160
 2403SOL     OW 9682   4.273   3.857   3.849 -0.4382 -0.2469 -0.2811
 2403SOL    HW2 9683   4.190   3.894   3.817 -1.1503 -1.1442  0.5253
 2403SOL    HW3 9684   4.271   3.766   3.821  0.5670 -0.1185 -0.7979
 2403SOL    MW4 9685   4.262   3.850   3.841 -0.3996 -0.3486 -0.2432
 2404SOL     OW 9686   3.987   3.988   3.801 -0.5616 -0.1987  0.0973
 2404SOL    HW2 9687   3.997   4.078   3.834  0.0074 -0.4291  0.5648
 2404SOL    HW3 9688   3.996   3.997   3.707 -2.2838  0.4776 -0.0206
 2404SOL    MW4 9689   3.990   4.001   3.793 -0.7138 -0.1402  0.1435
 2405SOL     OW 9690   4.024   4.255   3.881  0.5319  0.1802 -0.3635
 2405SOL    HW2 9691   4.022   4.272   3.975  0.4776 -1.7643  0.0266
 2405SOL    HW3 9692   4.098   4.306   3.849  2.1636 -1.1029  1.1989
 2405SOL    MW4 9693   4.033   4.264   3.889  0.7396 -0.2456 -0.1061
 2406SOL     OW 9694   4.237   4.387   3.766 -0.4164  0.4052 -0.0740
 2406SOL    HW2 9695   4.249   4.471   3.810  1.3292 -0.3027  0.8444
 2406SOL    HW3 9696   4.311   4.333   3.795 -0.3000 -0.7397 -2.3261
 2406SOL    MW4 9697   4.248   4.391   3.775 -0.1707  0.1607 -0.2499
 2407SOL     OW 9698   0.199   4.577   4.164 -0.5921 -0.1973  0.3305
 2407SOL    HW2 9699   0.277   4.629   4.180 -0.5607 -0.2117  0.2252
 2407SOL    HW3 9700   0.202   4.507   4.229 -0.4326 -0.2920  0.2216
 2407SOL    MW4 9701   0.209   4.575   4.175 -0.5669 -0.2117  0.3023
 2408SOL     OW 9702   0.005   0.094   4.255 -0.4748 -0.2165 -0.4621
 2408SOL    HW2 9703   0.006   0.090   4.350 -0.7147 -0.7915 -0.4827
 2408SOL    HW3 9704   0.071   0.031   4.227  0.1367  0.5064 -0.6618
 2408SOL    MW4 9705   0.014   0.085   4.264 -0.4258 -0.1970 -0.4916
 2409SOL     OW 9706   0.012   0.370   4.142  0.2065  0.3458 -0.1530
 2409SOL    HW2 9707   0.012   0.279   4.171 -2.7370  0.5695  0.6442
 2409SOL    HW3 9708   0.004   0.366   4.047 -1.6948 -0.1996  0.0299
 2409SOL    MW4 9709   0.011   0.358   4.133 -0.4327  0.3034 -0.0238
 2410SOL     OW 9710   0.215   0.490   4.289 -0.0560 -0.2132  0.3227
 2410SOL    HW2 9711   0.287   0.435   4.257 -0.7666 -0.8496 -0.1854
 2410SOL    HW3 9712   0.137   0.455   4.246 -0.7279  0.2262  1.1769
 2410SOL    MW4 9713   0.214   0.478   4.279 -0.2384 -0.2392  0.3686
 2411SOL     OW 9714   0.216   0.738   4.162  0.5064  0.1073 -0.0423
 2411SOL    HW2 9715   0.143   0.786   4.202 -1.1608 -1.3560 -1.2291
 2411SOL    HW3 9716   0.216   0.653   4.206  1.4816  0.0779 -0.0851
 2411SOL    MW4 9717   0.206   0.733   4.173  0.4151 -0.0897 -0.2041
 2412SOL     OW 9718   4.464   0.867   4.264 -0.3110 -0.3490  0.0064
 2412SOL    HW2 9719   4.390   0.834   4.213 -1.2518  0.5509  0.7442
 2412SOL    HW3 9720   4.463   0.962   4.248 -1.0084  0.0369  2.1602
 2412SOL    MW4 9721   4.454   0.875   4.255 -0.5274 -0.1793  0.3877
 2413SOL     OW 9722   4.453   1.141   4.233  0.1989 -0.0657  0.0631
 2413SOL    HW2 9723   4.521   1.181   4.288  1.8417 -2.3750 -0.2339
 2413SOL    HW3 9724   4.483   1.154   4.144  0.1920 -1.0064 -0.0775
 2413SOL    MW4 9725   4.466   1.148   4.229  0.4148 -0.4945  0.0052
 2414SOL     OW 9726   0.192   1.302   4.298  0.1286  0.4848 -0.1508
 2414SOL    HW2 9727   0.222   1.308   4.389 -0.9226  0.4261  0.2127
 2414SOL    HW3 9728   0.266   1.266   4.250  0.9354  1.1873  0.5608
 2414SOL    MW4 9729   0.205   1.298   4.304  0.0963  0.5697 -0.0091
 2415SOL     OW 9730   0.093   1.459   4.698  0.1907 -0.2418 -0.1077
 2415SOL    HW2 9731   0.105   1.525   4.766 -1.1709 -0.5142  0.4225
 2415SOL    HW3 9732   0.028   1.497   4.639 -0.5443 -1.0695  0.1618
 2415SOL    MW4 9733   0.086   1.472   4.700 -0.0859 -0.3868 -0.0019
 2416SOL     OW 9734   4.418   1.669   4.305  0.5167  0.9284  0.0716
 2416SOL    HW2 9735   4.339   1.628   4.270  1.4758 -0.6109 -0.3261
 2416SOL    HW3 9736   4.438   1.739   4.242 -1.0312  1.9214  0.6612
 2416SOL    MW4 9737   4.411   1.673   4.292  0.4387  0.8564  0.0978
 2417SOL     OW 9738   0.220   2.016   4.199  0.1511  0.2044  0.3345
 2417SOL    HW2 9739   0.236   2.010   4.294 -0.3491 -0.3874  0.3781
 2417SOL    HW3 9740   0.291   1.965   4.160  1.0458  1.4201  0.3322
 2417SOL    MW4 9741   0.232   2.009   4.207  0.2031  0.2868  0.3405
 2418SOL     OW 9742   0.419   1.856   4.526  0.3786 -0.3409  0.6889
 2418SOL    HW2 9743   0.346   1.912   4.499  0.4409  0.2492  1.7197
 2418SOL    HW3 9744   0.429   1.793   4.455 -0.7970 -0.0971  0.3062
 2418SOL    MW4 9745   0.411   1.855   4.513  0.2317 -0.2309  0.7744
 2419SOL     OW 9746   0.206   2.295   4.137  0.3097 -0.1173 -0.0210
 2419SOL    HW2 9747   0.274   2.348   4.178  0.4903 -0.3760  0.0155
 2419SOL    HW3 9748   0.223   2.206   4.167 -0.1355 -0.1602  0.1044
 2419SOL    MW4 9749   0.217   2.290   4.146  0.2748 -0.1571  0.0000
 2420SOL     OW 9750   4.476   2.365   4.291 -0.1444  0.1325  0.1082
 2420SOL    HW2 9751   4.390   2.348   4.253 -0.5209 -0.5471  1.2048
 2420SOL    HW3 9752   4.538   2.334   4.226 -0.7713 -0.9185  0.0002
 2420SOL    MW4 9753   4.473   2.358   4.278 -0.2768 -0.0956  0.2389
 2421SOL     OW 9754   4.428   2.637   4.372 -0.5290 -0.4071  0.1955
 2421SOL    HW2 9755   4.512   2.681   4.357 -1.4162  0.5574 -2.0417
 2421SOL    HW3 9756   4.441   2.549   4.335 -0.3976 -0.3858  0.1908
 2421SOL    MW4 9757   4.441   2.631   4.365 -0.6289 -0.2770 -0.1001
 2422SOL     OW 9758   0.186   2.782   4.315  0.0114 -0.0071 -0.2235
 2422SOL    HW2 9759   0.269   2.762   4.271  0.0896  0.1767 -0.1615
 2422SOL    HW3 9760   0.159   2.866   4.278  0.5560  0.6075  0.7605
 2422SOL    MW4 9761   0.194   2.791   4.304  0.0935  0.0982 -0.0854
 2423SOL     OW 9762   0.163   3.054   4.184  0.4900 -0.0358  0.2649
 2423SOL    HW2 9763   0.240   3.110   4.189 -0.1163  0.7297  1.2764
 2423SOL    HW3 9764   0.090   3.111   4.209 -0.2918 -0.9564  0.1175
 2423SOL    MW4 9765   0.163   3.069   4.188  0.3068 -0.0565  0.3791
 2424SOL     OW 9766   4.471   3.257   4.278 -0.6359 -0.1692  0.2325
 2424SOL    HW2 9767   4.376   3.246   4.273 -0.5961 -0.8242  0.9386
 2424SOL    HW3 9768   4.487   3.344   4.241 -1.4162 -0.4519 -0.7859
 2424SOL    MW4 9769   4.461   3.267   4.272 -0.7334 -0.2930  0.1922
 2425SOL     OW 9770   0.022   3.500   4.184  0.4752 -0.3580 -0.1254
 2425SOL    HW2 9771  -0.050   3.560   4.203  0.9574 -0.4713  2.2332
 2425SOL    HW3 9772   0.020   3.489   4.089 -1.1866  1.4159 -0.3236
 2425SOL    MW4 9773   0.013   3.506   4.174  0.3195 -0.1390  0.1597
 2426SOL     OW 9774   0.284   3.628   4.247  0.8086  0.1261 -0.2829
 2426SOL    HW2 9775   0.353   3.571   4.213  1.0254 -0.3538  0.9532
 2426SOL    HW3 9776   0.204   3.576   4.238  0.9743 -0.2846  0.6389
 2426SOL    MW4 9777   0.283   3.613   4.241  0.8591  0.0088  0.0019
 2427SOL     OW 9778   0.247   3.894   4.212  0.5377  0.5376 -0.3343
 2427SOL    HW2 9779   0.170   3.916   4.265  0.2928 -0.5175 -0.2371
 2427SOL    HW3 9780   0.266   3.803   4.234  0.5813  0.1661 -1.8824
 2427SOL    MW4 9781   0.239   3.885   4.222  0.5111  0.3493 -0.5255
 2428SOL     OW 9782   4.466   4.002   4.248 -0.0114 -0.0839 -0.6281
 2428SOL    HW2 9783   4.459   3.966   4.337  1.0137  0.8267 -0.1654
 2428SOL    HW3 9784   4.389   3.968   4.203 -0.2797 -0.9845  0.4591
 2428SOL    MW4 9785   4.455   3.992   4.254  0.0887 -0.0827 -0.4239
 2429SOL     OW 9786   4.444   4.261   4.181 -0.7570  0.2392 -0.2220
 2429SOL    HW2 9787   4.456   4.171   4.211 -0.5031 -0.1036 -1.3516
 2429SOL    HW3 9788   4.445   4.256   4.086 -1.6542  1.3214 -0.3008
 2429SOL    MW4 9789   4.446   4.249   4.172 -0.8416  0.3362 -0.3810
 2430SOL     OW 9790   0.221   4.301   4.285  0.0272  0.7015 -0.4044
 2430SOL    HW2 9791   0.223   4.297   4.380 -0.9278  1.5313 -0.3506
 2430SOL    HW3 9792   0.129   4.289   4.262  0.1134  1.4774 -1.1826
 2430SOL    MW4 9793   0.209   4.299   4.294 -0.0874  0.9127 -0.5002
 2431SOL     OW 9794   0.704   4.630   4.124 -0.3646  0.2081  0.3202
 2431SOL    HW2 9795   0.613   4.657   4.140 -0.5186 -0.0839 -0.0668
 2431SOL    HW3 9796   0.716   4.641   4.030 -0.6559 -1.7818  0.0361
 2431SOL    MW4 9797   0.694   4.635   4.114 -0.4234 -0.0930  0.2313
 2432SOL     OW 9798   0.453   0.076   4.216  0.3164 -0.2455  0.3285
 2432SOL    HW2 9799   0.468   0.059   4.309 -0.0180  1.3616  0.6916
 2432SOL    HW3 9800   0.447   0.171   4.210  0.0735 -0.3544 -1.3022
 2432SOL    MW4 9801   0.454   0.086   4.227  0.2402 -0.0479  0.1607
 2433SOL     OW 9802   0.439   0.352   4.188  0.0662  0.1473 -0.1853
 2433SOL    HW2 9803   0.518   0.394   4.220  0.8375 -0.5493 -1.1537
 2433SOL    HW3 9804   0.442   0.365   4.093 -1.4890  0.9995 -0.1369
 2433SOL    MW4 9805   0.450   0.359   4.180 -0.0372  0.1678 -0.3066
 2434SOL     OW 9806   0.675   0.483   4.221  0.2904 -0.0042 -0.3967
 2434SOL    HW2 9807   0.765   0.457   4.201  0.3404 -0.0103 -0.1615
 2434SOL    HW3 9808   0.672   0.577   4.201  0.0958 -0.1906 -1.2984
 2434SOL    MW4 9809   0.687   0.492   4.216  0.2714 -0.0296 -0.4845
 2435SOL     OW 9810   0.660   0.740   4.168 -0.3405  0.3170 -0.0743
 2435SOL    HW2 9811   0.582   0.784   4.201 -0.6325 -0.6393  0.5282
 2435SOL    HW3 9812   0.654   0.749   4.073 -0.6241  1.1850  0.0204
 2435SOL    MW4 9813   0.649   0.747   4.160 -0.4165  0.3054  0.0176
 2436SOL     OW 9814   0.429   0.882   4.258  0.0776 -0.2413 -0.3240
 2436SOL    HW2 9815   0.413   0.975   4.241 -0.6186 -0.1411  0.8245
 2436SOL    HW3 9816   0.350   0.838   4.227  0.0541 -0.3631 -0.0905
 2436SOL    MW4 9817   0.417   0.889   4.251 -0.0173 -0.2442 -0.1416
 2437SOL     OW 9818   0.428   1.168   4.184 -0.1147  0.2639  0.1083
 2437SOL    HW2 9819   0.510   1.212   4.202  0.4210 -0.2252 -1.0884
 2437SOL    HW3 9820   0.424   1.163   4.089 -1.4451  0.1254  0.1612
 2437SOL    MW4 9821   0.438   1.173   4.174 -0.2195  0.1811 -0.0429
 2438SOL     OW 9822   0.610   1.649   4.137 -0.4892  0.4267  0.1684
 2438SOL    HW2 9823   0.701   1.658   4.163 -0.3366 -0.0193 -0.2006
 2438SOL    HW3 9824   0.613   1.598   4.056 -1.1425 -0.6822  0.8193
 2438SOL    MW4 9825   0.622   1.643   4.130 -0.5553  0.2216  0.2055
 2439SOL     OW 9826   0.425   1.614   4.352  0.4321  0.0392  0.4551
 2439SOL    HW2 9827   0.494   1.616   4.286  0.1078 -0.9101  0.0812
 2439SOL    HW3 9828   0.347   1.588   4.304 -0.4466  2.2604  0.6460
 2439SOL    MW4 9829   0.424   1.611   4.337  0.2734  0.2071  0.4311
 2440SOL     OW 9830   0.189   1.559   4.212 -0.1448 -0.0014  0.2181
 2440SOL    HW2 9831   0.190   1.467   4.238  0.7209  0.1751  0.8238
 2440SOL    HW3 9832   0.105   1.592   4.245 -0.9430 -0.8221 -0.9330
 2440SOL    MW4 9833   0.178   1.551   4.220 -0.1359 -0.0863  0.1464
 2441SOL     OW 9834   0.467   1.903   4.135 -0.8542  0.3610 -0.2898
 2441SOL    HW2 9835   0.489   1.811   4.146 -0.0987  0.7791  2.1451
 2441SOL    HW3 9836   0.474   1.919   4.041  0.4566 -1.7182 -0.5770
 2441SOL    MW4 9837   0.471   1.893   4.124 -0.5816  0.1417 -0.0062
 2442SOL     OW 9838   0.669   2.060   4.239  0.4616 -0.4210  0.2473
 2442SOL    HW2 9839   0.662   2.051   4.334 -1.2855  1.1479  0.3081
 2442SOL    HW3 9840   0.603   1.999   4.204 -1.3373  1.4837  0.1976
 2442SOL    MW4 9841   0.659   2.051   4.247 -0.0062  0.0374  0.2484
 2443SOL     OW 9842   0.642   2.320   4.155  0.0787 -0.2634  0.3214
 2443SOL    HW2 9843   0.655   2.229   4.182 -0.8624 -0.6365 -0.4840
 2443SOL    HW3 9844   0.655   2.319   4.060  0.0335  0.4380  0.3068
 2443SOL    MW4 9845   0.646   2.308   4.146 -0.0514 -0.2201  0.2131
 2444SOL     OW 9846   0.407   2.462   4.241 -1.1623 -0.1490  0.4789
 2444SOL    HW2 9847   0.426   2.550   4.208 -2.0155 -0.2762 -0.3488
 2444SOL    HW3 9848   0.487   2.412   4.223 -1.5184 -0.1505 -1.1731
 2444SOL    MW4 9849   0.420   2.467   4.234 -1.3219 -0.1662  0.1516
 2445SOL     OW 9850   0.426   2.749   4.170 -0.0376 -0.1910 -0.1837
 2445SOL    HW2 9851   0.510   2.786   4.196 -0.4271  0.7337 -0.2221
 2445SOL    HW3 9852   0.425   2.755   4.074  0.6962 -2.0709 -0.3375
 2445SOL    MW4 9853   0.437   2.754   4.161  0.0078 -0.3173 -0.2093
 2446SOL     OW 9854   0.684   2.849   4.252  0.3045  0.3801  0.1685
 2446SOL    HW2 9855   0.685   2.863   4.347  0.8544  2.0892 -0.0692
 2446SOL    HW3 9856   0.669   2.936   4.215  0.0783 -0.2788 -1.3115
 2446SOL    MW4 9857   0.682   2.862   4.259  0.3472  0.5186 -0.0582
 2447SOL     OW 9858   0.630   3.101   4.133  0.4999  0.1447 -0.2782
 2447SOL    HW2 9859   0.687   3.163   4.179  0.2766  0.1198  0.0309
 2447SOL    HW3 9860   0.541   3.133   4.148  0.3927 -0.1684 -0.2379
 2447SOL    MW4 9861   0.626   3.113   4.141  0.4562  0.0999 -0.2322
 2448SOL     OW 9862   0.380   3.202   4.224 -0.0315  0.0403 -0.0668
 2448SOL    HW2 9863   0.382   3.193   4.319 -0.1622  1.1545  0.0478
 2448SOL    HW3 9864   0.402   3.294   4.208  0.7537 -0.3222 -1.1525
 2448SOL    MW4 9865   0.383   3.213   4.234  0.0548  0.1392 -0.1945
 2449SOL     OW 9866   0.483   3.451   4.177  0.1393 -0.1979  0.1439
 2449SOL    HW2 9867   0.568   3.485   4.207 -0.4219  1.7652 -0.4148
 2449SOL    HW3 9868   0.482   3.468   4.083 -1.2919  0.7599  0.3186
 2449SOL    MW4 9869   0.494   3.458   4.169 -0.1235  0.1872  0.0930
 2450SOL     OW 9870   0.695   3.605   4.292  0.0909  0.2050 -0.1300
 2450SOL    HW2 9871   0.712   3.603   4.386 -1.2072 -1.7850  0.0927
 2450SOL    HW3 9872   0.755   3.540   4.255 -0.2636  0.1079 -0.5361
 2450SOL    MW4 9873   0.705   3.596   4.300 -0.1271 -0.0703 -0.1545
 2451SOL     OW 9874   0.674   3.858   4.157 -0.8159 -0.0098 -0.6307
 2451SOL    HW2 9875   0.607   3.911   4.200 -0.8378 -0.5966  0.0685
 2451SOL    HW3 9876   0.675   3.776   4.207 -0.2685 -0.3788 -1.2481
 2451SOL    MW4 9877   0.665   3.854   4.170 -0.7465 -0.1361 -0.6204
 2452SOL     OW 9878   0.487   4.035   4.270  0.2610 -0.3834 -0.4152
 2452SOL    HW2 9879   0.494   4.109   4.210  0.8445 -0.0069  0.1202
 2452SOL    HW3 9880   0.404   3.993   4.246  1.0817 -0.9945 -2.3555
 2452SOL    MW4 9881   0.477   4.039   4.259  0.4462 -0.4144 -0.6008
 2453SOL     OW 9882   0.450   4.264   4.141  0.8532 -0.2632  0.2544
 2453SOL    HW2 9883   0.363   4.288   4.170  0.8598 -1.2781  1.1589
 2453SOL    HW3 9884   0.442   4.254   4.046  0.1171  0.1822  0.2721
 2453SOL    MW4 9885   0.438   4.266   4.132  0.7570 -0.3381  0.3762
 2454SOL     OW 9886   0.690   4.370   4.246 -0.1661 -0.3379 -0.5902
 2454SOL    HW2 9887   0.600   4.338   4.234 -0.7602  0.7369  0.8616
 2454SOL    HW3 9888   0.692   4.454   4.200  0.1992 -0.5150 -0.9011
 2454SOL    MW4 9889   0.678   4.377   4.238 -0.1963 -0.2193 -0.4396
 2455SOL     OW 9890   1.181   4.629   4.129 -0.0528  0.2084  0.2527
 2455SOL    HW2 9891   1.235   4.551   4.124  1.0101  1.0088 -1.2009
 2455SOL    HW3 9892   1.152   4.645   4.039  0.6642  2.0992  0.3233
 2455SOL    MW4 9893   1.184   4.621   4.116  0.1820  0.5631  0.0706
 2456SOL     OW 9894   0.943   0.094   4.201 -0.3727  0.1152  0.4115
 2456SOL    HW2 9895   1.014   0.039   4.167  0.0385  1.0955 -0.3512
 2456SOL    HW3 9896   0.863   0.044   4.182  0.0062 -0.3224 -0.0618
 2456SOL    MW4 9897   0.942   0.080   4.194 -0.2685  0.1868  0.2484
 2457SOL     OW 9898   0.938   0.375   4.154 -0.0002 -0.1848 -0.4345
 2457SOL    HW2 9899   1.025   0.396   4.187 -0.6033 -0.0130  1.0983
 2457SOL    HW3 9900   0.928   0.281   4.169 -0.7329  0.1038  1.0505
 2457SOL    MW4 9901   0.948   0.366   4.161 -0.1764 -0.1240 -0.0367
 2458SOL     OW 9902   1.203   0.444   4.244  0.0889 -0.0399  0.1741
 2458SOL    HW2 9903   1.217   0.409   4.332  0.7741  0.2898  0.1934
 2458SOL    HW3 9904   1.257   0.389   4.187  0.1460  0.1642  0.0337
 2458SOL    MW4 9905   1.212   0.432   4.248  0.1867  0.0305  0.1583
 2459SOL     OW 9906   1.111   0.712   4.191  0.1297  0.2456 -0.1529
 2459SOL    HW2 9907   1.171   0.777   4.226 -1.3499  1.0921  0.8814
 2459SOL    HW3 9908   1.156   0.628   4.203  2.2786  1.0892 -2.0065
 2459SOL    MW4 9909   1.125   0.709   4.197  0.2182  0.4685 -0.2608
 2460SOL     OW 9910   0.885   0.883   4.215  0.2591  0.1122 -0.1301
 2460SOL    HW2 9911   0.956   0.820   4.225  0.3413  0.3291  0.7214
 2460SOL    HW3 9912   0.806   0.830   4.217  0.3059  0.0551  1.0022
 2460SOL    MW4 9913   0.884   0.868   4.217  0.2761  0.1333  0.1311
 2461SOL     OW 9914   0.854   1.156   4.152 -0.0347 -0.2095  0.0408
 2461SOL    HW2 9915   0.853   1.063   4.174 -0.6113 -0.3041 -0.3680
 2461SOL    HW3 9916   0.783   1.194   4.204 -0.2008 -0.1111 -0.2543
 2461SOL    MW4 9917   0.844   1.149   4.162 -0.1327 -0.2089 -0.0525
 2462SOL     OW 9918   1.090   1.305   4.261 -0.5367 -0.0063 -0.0353
 2462SOL    HW2 9919   1.091   1.284   4.355 -1.1558  0.3302  0.0544
 2462SOL    HW3 9920   1.011   1.261   4.228 -0.2921 -0.1662 -0.4069
 2462SOL    MW4 9921   1.079   1.297   4.269 -0.5860  0.0170 -0.0725
 2463SOL     OW 9922   1.106   1.554   4.137 -0.2458 -0.2880  0.1152
 2463SOL    HW2 9923   1.034   1.601   4.179  0.2829 -0.3726  1.1404
 2463SOL    HW3 9924   1.102   1.466   4.174 -0.2613 -0.5983 -0.6197
 2463SOL    MW4 9925   1.096   1.549   4.147 -0.1780 -0.3400  0.1531
 2464SOL     OW 9926   0.871   1.689   4.217  0.1458  0.0698  0.4621
 2464SOL    HW2 9927   0.873   1.686   4.313  2.8730  1.8772  0.4864
 2464SOL    HW3 9928   0.888   1.780   4.195  1.9979 -0.7738 -1.7850
 2464SOL    MW4 9929   0.873   1.700   4.227  0.7501  0.1969  0.1688
 2465SOL     OW 9930   0.901   1.957   4.153  0.4475 -0.4747  0.2038
 2465SOL    HW2 9931   0.817   1.996   4.180  1.2551  0.6547  1.1695
 2465SOL    HW3 9932   0.900   1.961   4.058 -0.0473  0.7453  0.2507
 2465SOL    MW4 9933   0.890   1.963   4.144  0.4888 -0.1646  0.3381
 2466SOL     OW 9934   1.130   2.042   4.256  0.2487 -0.1817 -0.3210
 2466SOL    HW2 9935   1.138   2.050   4.351 -0.4498 -0.7213 -0.2073
 2466SOL    HW3 9936   1.041   2.009   4.243 -0.3622  1.7968 -1.2807
 2466SOL    MW4 9937   1.120   2.039   4.267  0.0759  0.0083 -0.4330
 2467SOL     OW 9938   1.130   2.302   4.143  0.0973 -0.2675  0.0019
 2467SOL    HW2 9939   1.209   2.349   4.170 -0.0169  0.3288 -0.7050
 2467SOL    HW3 9940   1.147   2.211   4.169  1.0030 -0.1372 -0.1005
 2467SOL    MW4 9941   1.143   2.296   4.150  0.2016 -0.1714 -0.1049
 2468SOL     OW 9942   0.894   2.423   4.255  0.1783 -0.0907  0.2008
 2468SOL    HW2 9943   0.969   2.376   4.220 -0.4013 -0.4163 -0.6136
 2468SOL    HW3 9944   0.818   2.376   4.222 -0.4287  1.8524 -1.2982
 2468SOL    MW4 9945   0.894   2.411   4.246  0.0218  0.1230 -0.1044
 2469SOL     OW 9946   0.849   2.655   4.125  0.1444 -0.0164 -0.4661
 2469SOL    HW2 9947   0.846   2.571   4.171 -1.4167 -0.0894 -0.6587
 2469SOL    HW3 9948   0.785   2.709   4.171  0.3001  0.6876 -1.0691
 2469SOL    MW4 9949   0.840   2.651   4.137 -0.0411  0.0668 -0.5708
 2470SOL     OW 9950   1.067   2.794   4.225 -0.1948 -0.0831  0.0345
 2470SOL    HW2 9951   1.065   2.887   4.203  1.6378 -0.3222 -1.2557
 2470SOL    HW3 9952   0.988   2.757   4.185 -1.2093  0.9970  1.0097
 2470SOL    MW4 9953   1.057   2.801   4.217 -0.0868  0.0279 -0.0072
 2471SOL     OW 9954   1.102   3.067   4.168 -0.0363  0.7914  0.1914
 2471SOL    HW2 9955   1.191   3.080   4.202  0.5768  0.7823 -1.3593
 2471SOL    HW3 9956   1.111   3.080   4.074 -1.9161  1.9264  0.1530
 2471SOL    MW4 9957   1.115   3.070   4.160 -0.2036  0.9398 -0.0176
 2472SOL     OW 9958   0.876   3.208   4.289  0.4575  0.4323  0.0272
 2472SOL    HW2 9959   0.833   3.181   4.370  1.3574  1.3529  0.8399
 2472SOL    HW3 9960   0.947   3.145   4.278 -0.4400 -0.4528 -0.7392
 2472SOL    MW4 9961   0.880   3.196   4.298  0.4578  0.4368  0.0339
 2473SOL     OW 9962   0.897   3.462   4.185 -0.1077  0.0150  0.0354
 2473SOL    HW2 9963   0.905   3.372   4.216  0.4870  1.0696  3.1046
 2473SOL    HW3 9964   0.897   3.455   4.089 -0.9050 -3.2849  0.2323
 2473SOL    MW4 9965   0.898   3.449   4.176 -0.1344 -0.2811  0.4673
 2474SOL     OW 9966   1.152   3.568   4.263 -0.1365 -0.3299 -0.0302
 2474SOL    HW2 9967   1.139   3.654   4.224 -0.4680 -0.4256 -0.1360
 2474SOL    HW3 9968   1.071   3.521   4.244 -0.5259 -0.1928  1.2885
 2474SOL    MW4 9969   1.140   3.573   4.255 -0.2316 -0.3245  0.1302
 2475SOL     OW 9970   1.121   3.838   4.179 -0.3206  0.0330 -0.1915
 2475SOL    HW2 9971   1.195   3.863   4.234 -0.1203  0.1310 -0.5057
 2475SOL    HW3 9972   1.046   3.880   4.220  0.0106  1.1604 -0.7146
 2475SOL    MW4 9973   1.121   3.847   4.191 -0.2506  0.1950 -0.3018
 2476SOL     OW 9974   0.897   3.975   4.247  0.1513  0.1833  0.1178
 2476SOL    HW2 9975   0.917   4.058   4.202  1.3278 -1.2740 -2.1597
 2476SOL    HW3 9976   0.814   3.947   4.209  0.9642 -0.8729 -0.9105
 2476SOL    MW4 9977   0.889   3.982   4.236  0.4138 -0.1485 -0.3190
 2477SOL     OW 9978   0.934   4.240   4.133  0.0217 -0.0040 -0.2051
 2477SOL    HW2 9979   1.009   4.244   4.193 -0.4422 -2.5577  0.5851
 2477SOL    HW3 9980   0.866   4.291   4.177  0.5594  0.4350  0.1375
 2477SOL    MW4 9981   0.935   4.247   4.147  0.0314 -0.2837 -0.0548
 2478SOL     OW 9982   1.146   4.232   4.288 -0.5111  0.0245  0.0360
 2478SOL    HW2 9983   1.208   4.196   4.352 -0.5125 -0.7040 -0.3602
 2478SOL    HW3 9984   1.202   4.278   4.224 -0.3130 -1.1329 -0.6444
 2478SOL    MW4 9985   1.162   4.233   4.288 -0.4852 -0.2241 -0.1059
 2479SOL     OW 9986   1.530   0.082   4.069 -0.1083  0.4315  0.2256
 2479SOL    HW2 9987   1.617   0.094   4.106  0.2715 -0.5488 -0.3526
 2479SOL    HW3 9988   1.475   0.062   4.146  0.0681  1.5439  0.6497
 2479SOL    MW4 9989   1.534   0.081   4.084 -0.0349  0.4490  0.2050
 2480SOL     OW 9990   1.350   0.005   4.329 -0.1895  0.0386  0.0041
 2480SOL    HW2 9991   1.337  -0.069   4.387 -0.7657  0.2529  0.1511
 2480SOL    HW3 9992   1.274   0.005   4.271 -0.5713  0.9668  0.4981
 2480SOL    MW4 9993   1.338  -0.004   4.329 -0.3159  0.1893  0.0887
 2481SOL     OW 9994   1.392   0.317   4.061  0.1838  0.4108  0.6526
 2481SOL    HW2 9995   1.453   0.377   4.104  0.5560 -0.0395  0.7496
 2481SOL    HW3 9996   1.433   0.231   4.069 -0.2903  0.1617  0.3987
 2481SOL    MW4 9997   1.406   0.314   4.067  0.1705  0.3185  0.6318
 2482SOL     OW 9998   1.537   0.483   4.201 -0.0570  0.4835  0.1381
 2482SOL    HW2 9999   1.536   0.462   4.294 -0.8305  0.5715  0.1554
 2482SOL    HW310000   1.482   0.562   4.193 -0.2520  0.2974 -0.4296
 2482SOL    MW410001   1.530   0.491   4.212 -0.1848  0.4706  0.0653
 2483SOL     OW10002   1.451   0.778   4.096 -0.0883 -0.6008  0.0250
 2483SOL    HW210003   1.546   0.783   4.089 -0.1008  2.2381  0.9998
 2483SOL    HW310004   1.420   0.775   4.006  0.8591  1.2005 -0.3839
 2483SOL    MW410005   1.460   0.778   4.083  0.0349  0.0114  0.0992
 2484SOL     OW10006   1.293   0.925   4.276 -0.1242 -0.1108  0.2765
 2484SOL    HW210007   1.325   0.927   4.366 -1.9073 -1.7737  0.9744
 2484SOL    HW310008   1.351   0.863   4.232  1.2502  1.2963  0.0439
 2484SOL    MW410009   1.305   0.917   4.282 -0.1781 -0.1447  0.3381
 2485SOL     OW10010   1.320   1.180   4.163  0.1316 -0.0906 -0.1007
 2485SOL    HW210011   1.244   1.224   4.200  0.5807  0.2013  0.4770
 2485SOL    HW310012   1.308   1.088   4.185 -0.8867 -0.2990 -1.4417
 2485SOL    MW410013   1.308   1.173   4.171  0.0565 -0.0796 -0.2017
 2486SOL     OW10014   1.555   1.303   4.239 -0.3211  0.1236  0.6243
 2486SOL    HW210015   1.566   1.291   4.333 -1.9541  0.2326  0.8330
 2486SOL    HW310016   1.486   1.242   4.214  0.3080 -0.1234 -0.5680
 2486SOL    MW410017   1.547   1.294   4.248 -0.4536  0.1055  0.4945
 2487SOL     OW10018   1.544   1.555   4.114 -0.3132  0.5809 -0.5192
 2487SOL    HW210019   1.486   1.604   4.172  0.2548  0.4188  0.1931
 2487SOL    HW310020   1.527   1.463   4.135  0.0894  0.5301 -0.4140
 2487SOL    MW410021   1.534   1.549   4.124 -0.1853  0.5528 -0.4120
 2488SOL     OW10022   1.337   1.685   4.248 -0.1075 -0.4322  0.1147
 2488SOL    HW210023   1.344   1.768   4.201  2.7599 -1.2213 -0.8926
 2488SOL    HW310024   1.267   1.638   4.203 -1.2181  1.0667  0.2074
 2488SOL    MW410025   1.329   1.690   4.236  0.1242 -0.3386 -0.0057
 2489SOL     OW10026   1.359   1.937   4.157 -0.3351 -0.4958 -0.7845
 2489SOL    HW210027   1.432   1.972   4.210  1.0639 -1.1920 -2.2144
 2489SOL    HW310028   1.284   1.989   4.184  0.0929 -1.5365  2.6806
 2489SOL    MW410029   1.359   1.949   4.168 -0.0941 -0.7249 -0.5159
 2490SOL     OW10030   1.556   2.007   4.325 -0.0297 -0.2237 -0.0446
 2490SOL    HW210031   1.605   2.070   4.379  1.9632 -1.8985  0.1565
 2490SOL    HW310032   1.562   1.924   4.373  0.1902 -1.3182 -1.9286
 2490SOL    MW410033   1.563   2.004   4.339  0.2624 -0.5889 -0.2670
 2491SOL     OW10034   1.719   2.231   4.126 -0.1805 -0.0006  0.0801
 2491SOL    HW210035   1.769   2.268   4.053  0.2999  1.8479  1.3193
 2491SOL    HW310036   1.763   2.148   4.145  1.7462  1.0597  0.4032
 2491SOL    MW410037   1.732   2.225   4.119  0.1370  0.3831  0.2861
 2492SOL     OW10038   1.349   2.449   4.211 -0.1168 -0.4549 -0.2876
 2492SOL    HW210039   1.335   2.521   4.150 -0.5267  0.1323  0.4910
 2492SOL    HW310040   1.443   2.447   4.225 -0.2229  0.8119  0.7320
 2492SOL    MW410041   1.359   2.458   4.205 -0.1849 -0.2100 -0.0501
 2493SOL     OW10042   1.297   2.699   4.087 -0.6257 -0.0088  0.4861
 2493SOL    HW210043   1.370   2.740   4.132  0.2908 -1.8796  0.7370
 2493SOL    HW310044   1.220   2.747   4.118  0.1040 -0.4683  3.0955
 2493SOL    MW410045   1.296   2.711   4.097 -0.4086 -0.3161  0.8631
 2494SOL     OW10046   1.507   2.840   4.223 -0.3195 -0.0178  0.3830
 2494SOL    HW210047   1.540   2.827   4.312  0.3462  0.7083  0.2468
 2494SOL    HW310048   1.546   2.923   4.195 -0.5878 -0.2055 -0.5561
 2494SOL    MW410049   1.517   2.849   4.231 -0.2670  0.0534  0.2413
 2495SOL     OW10050   1.605   3.075   4.116  0.2683  0.0370 -0.0411
 2495SOL    HW210051   1.676   3.114   4.167 -0.6610 -0.1392  1.4102
 2495SOL    HW310052   1.526   3.099   4.163 -0.4912 -1.5167 -0.5046
 2495SOL    MW410053   1.604   3.084   4.129  0.0454 -0.1915  0.0892
 2496SOL     OW10054   1.372   3.139   4.232  0.1136 -0.1817 -0.1949
 2496SOL    HW210055   1.377   3.141   4.327  3.0766 -0.7587 -0.2944
 2496SOL    HW310056   1.364   3.232   4.207 -1.7999 -0.0989  0.6117
 2496SOL    MW410057   1.372   3.152   4.241  0.2520 -0.2468 -0.1011
 2497SOL     OW10058   1.334   3.397   4.137  0.0455  0.2098  0.1063
 2497SOL    HW210059   1.258   3.437   4.179 -0.0070 -0.7567  0.9477
 2497SOL    HW310060   1.340   3.441   4.052 -2.2169 -0.6194 -0.4985
 2497SOL    MW410061   1.325   3.408   4.131 -0.2599 -0.0272  0.1378
 2498SOL     OW10062   1.569   3.509   4.259  0.2199  0.0785 -0.0950
 2498SOL    HW210063   1.559   3.501   4.353  0.1331 -0.0680 -0.1151
 2498SOL    HW310064   1.488   3.472   4.223  1.4976 -2.6482 -0.3071
 2498SOL    MW410065   1.557   3.503   4.266  0.3771 -0.3006 -0.1254
 2499SOL     OW10066   1.571   3.813   4.136  0.3619  0.2272  0.1687
 2499SOL    HW210067   1.503   3.849   4.192 -0.7808 -0.7987 -0.5280
 2499SOL    HW310068   1.597   3.732   4.179 -1.2632 -1.1078 -1.2748
 2499SOL    MW410069   1.566   3.807   4.149 -0.0032 -0.0842 -0.1140
 2500SOL     OW10070   1.350   3.869   4.334  0.1322  0.2378  0.1284
 2500SOL    HW210071   1.339   3.791   4.388  0.9866 -0.2441 -0.3912
 2500SOL    HW310072   1.365   3.940   4.396 -2.6547  0.3624  0.7170
 2500SOL    MW410073   1.350   3.868   4.349 -0.1229  0.1907  0.1378
 2501SOL     OW10074   1.309   4.388   4.121  0.2918 -0.0700  0.1521
 2501SOL    HW210075   1.395   4.378   4.164 -0.1893 -0.7372  0.9964
 2501SOL    HW310076   1.316   4.336   4.041  0.6316 -0.2416  0.2912
 2501SOL    MW410077   1.321   4.379   4.116  0.2731 -0.1807  0.2823
 2502SOL     OW10078   1.571   4.340   4.226  0.0882 -0.1609  0.2831
 2502SOL    HW210079   1.624   4.416   4.252 -0.9247  1.7786 -3.0841
 2502SOL    HW310080   1.630   4.287   4.172 -0.7159  0.9051 -1.6753
 2502SOL    MW410081   1.586   4.343   4.223 -0.1515  0.2356 -0.4196
 2503SOL     OW10082   1.983   4.614   4.157  0.1061  0.5107  0.7923
 2503SOL    HW210083   1.905   4.668   4.173  0.2667  0.9431  0.1210
 2503SOL    HW310084   1.992   4.612   4.062  0.1419 -0.6575  0.8227
 2503SOL    MW410085   1.974   4.621   4.147  0.1321  0.4139  0.7071
 2504SOL     OW10086   1.769   0.138   4.197  0.0052  0.3491  0.0596
 2504SOL    HW210087   1.743   0.168   4.284 -2.2372  0.1177 -0.4981
 2504SOL    HW310088   1.786   0.218   4.147  0.3232  0.5049  0.4145
 2504SOL    MW410089   1.768   0.152   4.202 -0.2487  0.3391  0.0334
 2505SOL     OW10090   1.761   0.391   4.050 -0.2926 -0.2712 -0.6352
 2505SOL    HW210091   1.833   0.449   4.077 -0.6851  0.8994 -2.0488
 2505SOL    HW310092   1.684   0.428   4.093 -0.2485 -0.8684 -0.0281
 2505SOL    MW410093   1.761   0.404   4.059 -0.3384 -0.1956 -0.7415
 2506SOL     OW10094   1.981   0.499   4.177  0.0875 -0.1186 -0.3030
 2506SOL    HW210095   1.961   0.474   4.267 -0.0004 -1.1433 -0.6074
 2506SOL    HW310096   2.060   0.449   4.156  0.2031  0.2497 -0.7394
 2506SOL    MW410097   1.989   0.489   4.186  0.0911 -0.2052 -0.4005
 2507SOL     OW10098   2.001   0.764   4.095 -0.3613 -0.5239  0.4126
 2507SOL    HW210099   2.070   0.799   4.151 -0.7377 -0.1202  0.6326
 2507SOL    HW310100   1.992   0.673   4.121  0.0259 -0.5545  0.4434
 2507SOL    MW410101   2.009   0.757   4.106 -0.3600 -0.4747  0.4454
 2508SOL     OW10102   1.724   0.841   4.135 -0.0938 -0.4258  0.1028
 2508SOL    HW210103   1.732   0.936   4.143  0.3650 -0.5928  1.7921
 2508SOL    HW310104   1.814   0.809   4.128 -0.2152 -0.7767  0.1084
 2508SOL    MW410105   1.737   0.849   4.135 -0.0495 -0.4942  0.3262
 2509SOL     OW10106   1.791   1.138   4.146 -0.5230 -0.2541 -0.0391
 2509SOL    HW210107   1.870   1.180   4.180 -0.3972  1.3277 -2.2194
 2509SOL    HW310108   1.719   1.192   4.179 -0.4510  0.7431 -1.4893
 2509SOL    MW410109   1.791   1.150   4.155 -0.4970  0.0862 -0.5188
 2510SOL     OW10110   1.997   1.337   4.184 -0.2468 -0.8295  0.2378
 2510SOL    HW210111   2.083   1.296   4.171 -0.3310 -0.4707 -1.6439
 2510SOL    HW310112   1.990   1.400   4.112 -2.0051 -0.7171  0.4901
 2510SOL    MW410113   2.007   1.340   4.173 -0.4900 -0.7674  0.0229
 2511SOL     OW10114   2.295   1.663   3.962  0.4118  0.4482  0.3222
 2511SOL    HW210115   2.280   1.731   4.027  1.3337  1.1912 -0.2264
 2511SOL    HW310116   2.218   1.606   3.968  0.1690  0.8977  1.5671
 2511SOL    MW410117   2.283   1.664   3.971  0.5014  0.6055  0.4141
 2512SOL     OW10118   1.574   1.775   4.464 -0.6223  0.3271  0.0820
 2512SOL    HW210119   1.616   1.708   4.411 -0.2081  0.2546  0.4961
 2512SOL    HW310120   1.645   1.809   4.520 -1.3836 -0.6937  1.6999
 2512SOL    MW410121   1.589   1.771   4.464 -0.6682  0.1829  0.3500
 2513SOL     OW10122   1.736   1.599   4.334 -0.6356  0.2662  0.1884
 2513SOL    HW210123   1.691   1.588   4.251 -2.5197  0.7210  1.1310
 2513SOL    HW310124   1.807   1.661   4.316  0.4996 -1.5100 -1.6171
 2513SOL    MW410125   1.740   1.606   4.321 -0.7346  0.0919  0.0739
 2514SOL     OW10126   1.457   2.254   4.652 -0.7014  0.7708  0.1099
 2514SOL    HW210127   1.529   2.229   4.594 -1.4645  1.0631 -0.9890
 2514SOL    HW310128   1.462   2.193   4.725  0.6911  0.8244  0.0649
 2514SOL    MW410129   1.467   2.243   4.654 -0.6182  0.8163 -0.0415
 2515SOL     OW10130   2.025   1.679   4.327 -0.0828  0.0936 -0.1791
 2515SOL    HW210131   2.006   1.722   4.411  0.1345  0.2039 -0.1843
 2515SOL    HW310132   2.082   1.606   4.351 -0.0456  0.1074 -0.2263
 2515SOL    MW410133   2.030   1.675   4.341 -0.0491  0.1100 -0.1860
 2516SOL     OW10134   1.811   1.969   4.173  0.3696  0.1653  0.0904
 2516SOL    HW210135   1.873   1.975   4.245 -0.5370  0.0408  0.8886
 2516SOL    HW310136   1.726   1.962   4.215 -0.1034 -0.6680 -0.9842
 2516SOL    MW410137   1.808   1.969   4.188  0.1874  0.0390  0.0539
 2517SOL     OW10138   1.970   2.684   4.179 -0.0907  0.3349  0.1196
 2517SOL    HW210139   1.974   2.589   4.170  0.3693  0.3502  0.1744
 2517SOL    HW310140   1.884   2.707   4.144  0.0367 -0.0349 -0.4393
 2517SOL    MW410141   1.959   2.674   4.173 -0.0132  0.2882  0.0525
 2518SOL     OW10142   2.189   2.839   4.140  0.1469 -0.3649  0.3491
 2518SOL    HW210143   2.121   2.772   4.142  0.2092 -0.4203  0.7374
 2518SOL    HW310144   2.232   2.833   4.226 -0.8205  1.1804  0.9681
 2518SOL    MW410145   2.186   2.830   4.151  0.0274 -0.1683  0.4826
 2519SOL     OW10146   2.059   3.091   4.143 -0.2297 -0.5871 -0.0427
 2519SOL    HW210147   2.104   3.006   4.135 -0.9943 -0.9390 -0.7496
 2519SOL    HW310148   2.039   3.115   4.052 -0.3341  0.1779  0.1842
 2519SOL    MW410149   2.062   3.083   4.130 -0.3443 -0.5326 -0.1059
 2520SOL     OW10150   1.816   3.178   4.262 -0.5081  0.0784  0.2593
 2520SOL    HW210151   1.900   3.137   4.241 -0.3823 -0.6820  2.1751
 2520SOL    HW310152   1.826   3.269   4.236 -0.0312 -0.6036 -2.0290
 2520SOL    MW410153   1.828   3.184   4.256 -0.4286 -0.1121  0.2103
 2521SOL     OW10154   1.810   3.418   4.157  0.2956  0.0238  0.0679
 2521SOL    HW210155   1.734   3.470   4.185  1.0845  0.7686  0.8402
 2521SOL    HW310156   1.807   3.420   4.062 -1.3954 -1.0284  0.0770
 2521SOL    MW410157   1.799   3.425   4.148  0.1765 -0.0169  0.1717
 2522SOL     OW10158   2.043   3.550   4.230  0.0322  0.1431 -0.1782
 2522SOL    HW210159   2.044   3.642   4.201  0.7270 -0.2266 -1.3296
 2522SOL    HW310160   1.956   3.519   4.206  0.1510  0.2098 -0.6998
 2522SOL    MW410161   2.031   3.558   4.223  0.1397  0.1030 -0.3991
 2523SOL     OW10162   2.044   3.811   4.140  0.4160  0.2514  0.0154
 2523SOL    HW210163   1.955   3.842   4.156  0.4010 -0.3590  1.1682
 2523SOL    HW310164   2.059   3.828   4.047 -1.0604 -0.0199 -0.2862
 2523SOL    MW410165   2.034   3.817   4.130  0.2193  0.1352  0.1278
 2524SOL     OW10166   1.815   3.935   4.186  0.3714  0.3836 -0.3075
 2524SOL    HW210167   1.793   4.021   4.150 -1.5349  0.3078  0.6115
 2524SOL    HW310168   1.736   3.883   4.174  0.7263 -0.5437  1.2119
 2524SOL    MW410169   1.801   3.939   4.180  0.1667  0.2511  0.0143
 2525SOL     OW10170   1.755   4.201   4.097 -0.1847 -0.0936  0.2641
 2525SOL    HW210171   1.828   4.251   4.132  0.9577 -1.5641 -0.0020
 2525SOL    HW310172   1.769   4.200   4.003  0.8615 -2.5321  0.4188
 2525SOL    MW410173   1.766   4.208   4.089  0.1041 -0.6094  0.2499
 2526SOL     OW10174   1.975   4.346   4.208 -0.1272  0.4689  0.0820
 2526SOL    HW210175   1.982   4.341   4.303  1.2799 -0.5347 -0.0526
 2526SOL    HW310176   1.982   4.439   4.188  0.1597  0.6303  0.9278
 2526SOL    MW410177   1.977   4.358   4.218  0.0962  0.3572  0.1755
 2527SOL     OW10178   2.412   4.628   4.143  0.0378  0.8194 -0.1376
 2527SOL    HW210179   2.490   4.678   4.162  0.4523 -0.5116  1.8321
 2527SOL    HW310180   2.413   4.556   4.207 -2.1344  0.0844 -0.8716
 2527SOL    MW410181   2.422   4.625   4.154 -0.1938  0.5469  0.0257
 2528SOL     OW10182   2.193   0.131   4.196  0.0531 -0.0873 -0.2979
 2528SOL    HW210183   2.264   0.073   4.171 -0.4014 -1.2934  1.1247
 2528SOL    HW310184   2.114   0.075   4.193 -0.8185  1.1672 -1.6465
 2528SOL    MW410185   2.192   0.116   4.192 -0.1218 -0.0809 -0.2885
 2529SOL     OW10186   2.219   0.393   4.105  0.1596 -0.2260  0.1912
 2529SOL    HW210187   2.194   0.306   4.136  0.7624 -0.6143 -0.4139
 2529SOL    HW310188   2.216   0.387   4.010 -1.1635  0.8174  0.1537
 2529SOL    MW410189   2.215   0.381   4.097  0.0646 -0.1395  0.1068
 2530SOL     OW10190   2.452   0.484   4.229  0.1102  0.2781 -0.2645
 2530SOL    HW210191   2.433   0.462   4.320  1.0659 -0.4269 -0.2319
 2530SOL    HW310192   2.373   0.459   4.181 -0.0742 -0.1266  0.2513
 2530SOL    MW410193   2.439   0.478   4.234  0.2117  0.1316 -0.1922
 2531SOL     OW10194   2.481   0.742   4.127 -0.2747 -0.3226  0.3513
 2531SOL    HW210195   2.491   0.649   4.149  0.7020 -0.3515 -0.1760
 2531SOL    HW310196   2.469   0.742   4.032 -1.4804  0.0104  0.5005
 2531SOL    MW410197   2.481   0.729   4.117 -0.3049 -0.2824  0.3018
 2532SOL     OW10198   2.208   0.906   4.225 -0.0329 -0.1490 -0.5783
 2532SOL    HW210199   2.186   0.884   4.315  1.1618  2.4680  0.3832
 2532SOL    HW310200   2.283   0.850   4.205 -1.4105 -2.0603 -0.6224
 2532SOL    MW410201   2.215   0.895   4.234 -0.0570 -0.0559 -0.4568
 2533SOL     OW10202   2.213   1.156   4.128 -0.0411 -0.0409 -0.3599
 2533SOL    HW210203   2.289   1.192   4.174  0.2349  0.2130 -1.0123
 2533SOL    HW310204   2.208   1.065   4.158 -0.0192  0.2021  0.3680
 2533SOL    MW410205   2.223   1.148   4.138 -0.0017  0.0247 -0.3495
 2534SOL     OW10206   2.432   1.258   4.269 -0.1190  0.0860  0.2745
 2534SOL    HW210207   2.409   1.350   4.278 -0.5502 -0.1508  1.6876
 2534SOL    HW310208   2.521   1.258   4.233 -0.0668  1.0444  0.4010
 2534SOL    MW410209   2.440   1.270   4.266 -0.1690  0.1813  0.4778
 2535SOL     OW10210   2.203   1.839   4.163  0.2561  0.0311 -0.2123
 2535SOL    HW210211   2.124   1.785   4.173 -0.4344  0.9919 -0.4159
 2535SOL    HW310212   2.247   1.834   4.248 -0.3181 -0.0528  0.0792
 2535SOL    MW410213   2.198   1.831   4.176  0.0894  0.1467 -0.2007
 2536SOL     OW10214   2.018   2.002   4.358  0.2027  0.2103  0.3824
 2536SOL    HW210215   2.108   2.034   4.345  0.5701 -1.4032 -1.3098
 2536SOL    HW310216   2.026   1.934   4.425  0.3996 -0.6025 -0.4641
 2536SOL    MW410217   2.031   1.997   4.365  0.2773 -0.1099  0.0477
 2537SOL     OW10218   1.947   1.502   4.667  0.1252  0.0356 -0.2694
 2537SOL    HW210219   1.936   1.461   4.581  0.3402  0.7003 -0.6182
 2537SOL    HW310220   1.949   1.596   4.648  0.9443  0.1488  0.3769
 2537SOL    MW410221   1.946   1.509   4.653  0.2617  0.1383 -0.2303
 2538SOL     OW10222   2.566   1.815   4.274 -0.6521 -0.1208 -0.0938
 2538SOL    HW210223   2.489   1.790   4.324  0.3567 -1.3248  0.8708
 2538SOL    HW310224   2.575   1.746   4.208  0.2644 -0.5967  0.5262
 2538SOL    MW410225   2.557   1.803   4.272 -0.3982 -0.3425  0.1149
 2539SOL     OW10226   2.459   2.239   4.141  0.3223 -0.6003  0.5104
 2539SOL    HW210227   2.527   2.175   4.117  1.4566  0.8397 -0.2077
 2539SOL    HW310228   2.414   2.257   4.058  0.1306 -0.3147  0.6782
 2539SOL    MW410229   2.462   2.233   4.127  0.4468 -0.3724  0.4377
 2540SOL     OW10230   2.045   2.420   4.200  0.4779  0.8033  0.0993
 2540SOL    HW210231   2.000   2.379   4.273 -0.7580 -0.4352 -1.3279
 2540SOL    HW310232   2.003   2.384   4.122  0.5767  3.4078 -1.2334
 2540SOL    MW410233   2.034   2.410   4.199  0.3278  0.9832 -0.2646
 2541SOL     OW10234   2.318   2.454   4.298 -0.3397  0.1020 -0.5224
 2541SOL    HW210235   2.232   2.426   4.266 -0.2963  0.8361 -1.3082
 2541SOL    HW310236   2.381   2.407   4.243 -0.2355 -0.1802 -0.1671
 2541SOL    MW410237   2.315   2.444   4.286 -0.3202  0.1614 -0.5789
 2542SOL     OW10238   2.512   2.867   4.285 -0.2644  0.4484 -0.1181
 2542SOL    HW210239   2.571   2.880   4.359 -0.3650 -0.0226  0.0450
 2542SOL    HW310240   2.435   2.824   4.323 -0.2546  0.0785 -0.5240
 2542SOL    MW410241   2.510   2.863   4.300 -0.2766  0.3376 -0.1502
 2543SOL     OW10242   2.503   3.112   4.165  0.2619 -0.0798  0.0535
 2543SOL    HW210243   2.428   3.158   4.205 -0.0657 -1.4124  1.0188
 2543SOL    HW310244   2.509   3.030   4.214  1.1909 -0.8164 -1.2744
 2543SOL    MW410245   2.494   3.107   4.177  0.3412 -0.3529  0.0057
 2544SOL     OW10246   2.276   3.199   4.305  0.1656  0.0470 -0.0314
 2544SOL    HW210247   2.295   3.285   4.268 -1.2565  0.4542  0.1687
 2544SOL    HW310248   2.207   3.164   4.250 -0.5001 -0.2149  0.9538
 2544SOL    MW410249   2.269   3.206   4.293 -0.1099  0.0665  0.1245
 2545SOL     OW10250   2.285   3.449   4.154 -0.3089 -0.3277 -0.4063
 2545SOL    HW210251   2.350   3.506   4.196 -1.0486  0.2696 -0.0681
 2545SOL    HW310252   2.201   3.488   4.176 -0.8928 -2.1785  0.7736
 2545SOL    MW410253   2.283   3.462   4.162 -0.4833 -0.4928 -0.2055
 2546SOL     OW10254   2.475   3.635   4.271 -0.1344 -0.3491 -0.4763
 2546SOL    HW210255   2.467   3.642   4.366  0.3740 -0.4834 -0.4201
 2546SOL    HW310256   2.482   3.725   4.240 -1.0378 -0.2739 -0.4524
 2546SOL    MW410257   2.475   3.648   4.280 -0.1864 -0.3572 -0.4659
 2547SOL     OW10258   2.452   3.891   4.143 -0.0203  0.5161 -0.1956
 2547SOL    HW210259   2.531   3.924   4.186 -0.3505  2.1601 -0.8225
 2547SOL    HW310260   2.461   3.919   4.052 -0.6475 -0.5530 -0.6036
 2547SOL    MW410261   2.464   3.899   4.137 -0.1466  0.5920 -0.3319
 2548SOL     OW10262   2.216   3.994   4.220  0.2839  0.2307  0.8863
 2548SOL    HW210263   2.302   3.953   4.214  0.1574  0.1063 -0.1277
 2548SOL    HW310264   2.158   3.934   4.172  0.1088  1.6404 -0.6937
 2548SOL    MW410265   2.220   3.980   4.213  0.2439  0.4005  0.5436
 2549SOL     OW10266   2.221   4.246   4.128  0.1908  0.7332  0.1913
 2549SOL    HW210267   2.218   4.161   4.172  0.8621  0.3997 -0.4107
 2549SOL    HW310268   2.137   4.287   4.151 -0.7916 -0.6862 -0.7209
 2549SOL    MW410269   2.209   4.240   4.137  0.1497  0.5021 -0.0086
 2550SOL     OW10270   2.439   4.331   4.275  0.5353 -0.2147  0.3148
 2550SOL    HW210271   2.510   4.296   4.221  1.1113  0.3109  0.7115
 2550SOL    HW310272   2.359   4.308   4.228  0.9321 -1.4589  0.2358
 2550SOL    MW410273   2.438   4.324   4.261  0.6635 -0.3099  0.3562
 2551SOL     OW10274   2.883   4.623   4.151 -0.0654  0.0716 -0.3928
 2551SOL    HW210275   2.964   4.649   4.196  0.2268  0.4519 -1.1381
 2551SOL    HW310276   2.870   4.532   4.178  1.0221 -0.2305 -0.8622
 2551SOL    MW410277   2.892   4.614   4.161  0.1166  0.0825 -0.5536
 2552SOL     OW10278   2.652   0.099   4.204  0.3113 -0.0391  0.4666
 2552SOL    HW210279   2.665   0.188   4.172 -0.3676  0.4331  1.4748
 2552SOL    HW310280   2.737   0.057   4.194  1.0764  1.2045  1.4736
 2552SOL    MW410281   2.665   0.105   4.198  0.3226  0.1873  0.7329
 2553SOL     OW10282   2.677   0.368   4.139 -0.3420  0.1272 -0.2314
 2553SOL    HW210283   2.596   0.406   4.172  0.9412  2.1395  0.7217
 2553SOL    HW310284   2.684   0.400   4.049 -1.1400 -0.9441 -0.6811
 2553SOL    MW410285   2.668   0.377   4.131 -0.2780  0.2514 -0.1650
 2554SOL     OW10286   2.878   0.494   4.263 -0.3739  0.2022  0.0805
 2554SOL    HW210287   2.877   0.569   4.203  0.3099  0.4331  0.3459
 2554SOL    HW310288   2.819   0.431   4.224  1.5830 -0.4545 -1.8964
 2554SOL    MW410289   2.870   0.496   4.250 -0.0255  0.1461 -0.1454
 2555SOL     OW10290   2.904   0.723   4.075 -0.3327  0.1792 -0.0820
 2555SOL    HW210291   2.987   0.750   4.114 -0.3502 -1.6270  1.2306
 2555SOL    HW310292   2.900   0.771   3.992  1.1846  1.6160  0.6463
 2555SOL    MW410293   2.914   0.733   4.069 -0.1345  0.1304  0.1874
 2556SOL     OW10294   2.695   0.880   4.209 -0.1438  0.4621 -0.0862
 2556SOL    HW210295   2.770   0.828   4.179 -0.0764  1.6215 -2.0552
 2556SOL    HW310296   2.618   0.830   4.178 -0.0976  0.9964 -1.0948
 2556SOL    MW410297   2.694   0.866   4.201 -0.1287  0.6856 -0.4787
 2557SOL     OW10298   2.642   1.159   4.127 -0.3597  0.0958  0.3889
 2557SOL    HW210299   2.642   1.064   4.137 -1.8413 -0.0194 -0.5355
 2557SOL    HW310300   2.652   1.174   4.033 -0.4088  0.8456  0.5007
 2557SOL    MW410301   2.643   1.149   4.116 -0.5620  0.1796  0.2813
 2558SOL     OW10302   2.896   1.296   4.229  0.0344  0.0553  0.1369
 2558SOL    HW210303   2.967   1.252   4.183 -0.2264  0.1005 -0.3197
 2558SOL    HW310304   2.817   1.250   4.201 -0.0906 -0.1783  0.8671
 2558SOL    MW410305   2.895   1.284   4.219 -0.0165  0.0303  0.1736
 2559SOL     OW10306   2.885   1.533   4.080 -0.6364  0.6286  0.5365
 2559SOL    HW210307   2.949   1.596   4.113  0.2728 -0.3060  0.5812
 2559SOL    HW310308   2.884   1.463   4.146 -1.1221  0.2491  0.1342
 2559SOL    MW410309   2.893   1.532   4.093 -0.5805  0.4553  0.4892
 2560SOL     OW10310   2.620   1.571   4.127 -0.4556 -0.5657 -0.4080
 2560SOL    HW210311   2.714   1.570   4.110 -0.7154 -0.8890 -1.8985
 2560SOL    HW310312   2.580   1.553   4.042 -1.8797  0.0877  0.1077
 2560SOL    MW410313   2.627   1.569   4.114 -0.6778 -0.5221 -0.5364
 2561SOL     OW10314   2.637   2.024   4.109  0.0027 -0.2530  0.5787
 2561SOL    HW210315   2.600   1.948   4.153 -0.4237 -0.7428 -0.6054
 2561SOL    HW310316   2.624   2.006   4.016  0.8555  0.7821  0.2565
 2561SOL    MW410317   2.630   2.012   4.103  0.0591 -0.1810  0.3796
 2562SOL     OW10318   3.194   2.154   4.690  0.3027 -0.1732  0.0346
 2562SOL    HW210319   3.113   2.190   4.652  0.0894 -0.4452  0.2239
 2562SOL    HW310320   3.184   2.166   4.784  0.3536 -0.4628  0.0785
 2562SOL    MW410321   3.182   2.160   4.697  0.2811 -0.2470  0.0658
 2563SOL     OW10322   2.913   2.344   4.194 -0.1106  0.2383  0.3568
 2563SOL    HW210323   2.986   2.379   4.244 -0.7162 -0.4598  1.7684
 2563SOL    HW310324   2.836   2.392   4.227 -0.5512 -0.4126  0.2875
 2563SOL    MW410325   2.912   2.355   4.205 -0.2484  0.0598  0.5336
 2564SOL     OW10326   2.880   2.060   4.259 -0.1321  0.1432  0.0601
 2564SOL    HW210327   2.907   2.151   4.246  0.2881 -0.0353 -0.3215
 2564SOL    HW310328   2.801   2.051   4.206 -0.6107  0.4971  0.7048
 2564SOL    MW410329   2.873   2.071   4.250 -0.1397  0.1664  0.0954
 2565SOL     OW10330   2.695   2.687   4.164 -0.3029  0.1586  0.7728
 2565SOL    HW210331   2.676   2.601   4.201  1.2965  0.1356  1.5741
 2565SOL    HW310332   2.628   2.744   4.201 -0.7303 -0.5252  1.0736
 2565SOL    MW410333   2.683   2.683   4.174 -0.1483  0.0658  0.9184
 2566SOL     OW10334   2.920   2.827   4.222 -0.1488  0.0306  0.1085
 2566SOL    HW210335   2.933   2.832   4.317 -0.9060  1.0969  0.1600
 2566SOL    HW310336   2.835   2.783   4.212  0.8417 -1.8929 -0.1262
 2566SOL    MW410337   2.910   2.822   4.233 -0.1180 -0.0823  0.0844
 2567SOL     OW10338   2.941   3.089   4.133  0.3119 -0.2047 -0.1509
 2567SOL    HW210339   2.940   2.996   4.155  0.1126  0.1521  1.3933
 2567SOL    HW310340   2.924   3.091   4.039 -0.5616 -1.6803 -0.0417
 2567SOL    MW410341   2.939   3.077   4.123  0.1705 -0.3526  0.0672
 2568SOL     OW10342   2.746   3.233   4.251  0.0943  0.2428  0.0884
 2568SOL    HW210343   2.805   3.179   4.198 -0.6770  1.8408 -2.4523
 2568SOL    HW310344   2.661   3.190   4.244 -0.3397  1.2915 -1.2550
 2568SOL    MW410345   2.743   3.220   4.243 -0.0646  0.5920 -0.4244
 2569SOL     OW10346   2.692   3.521   4.125 -0.3325 -0.4015  0.3339
 2569SOL    HW210347   2.710   3.440   4.172 -1.1464 -0.6200  0.2707
 2569SOL    HW310348   2.622   3.563   4.174  1.6421  1.4114  1.7003
 2569SOL    MW410349   2.685   3.516   4.137 -0.1791 -0.1910  0.5059
 2570SOL     OW10350   2.882   3.659   4.276  0.3806  0.6796  0.1313
 2570SOL    HW210351   2.870   3.619   4.362  0.2034  0.1653 -0.1283
 2570SOL    HW310352   2.814   3.619   4.221  1.4386 -0.0876 -0.6184
 2570SOL    MW410353   2.871   3.649   4.280  0.4969  0.5105 -0.0019
 2571SOL     OW10354   2.917   3.904   4.135 -0.3862  0.2762 -0.1187
 2571SOL    HW210355   2.992   3.947   4.175 -0.6590  0.2024  0.4808
 2571SOL    HW310356   2.903   3.825   4.188 -1.3376  0.6692  0.2173
 2571SOL    MW410357   2.925   3.899   4.147 -0.5476  0.3183  0.0048
 2572SOL     OW10358   2.681   4.012   4.263  0.1806  0.3198 -0.4255
 2572SOL    HW210359   2.666   4.103   4.240  1.8653  0.8527  0.4877
 2572SOL    HW310360   2.767   3.992   4.226  0.7598 -0.2526  1.1992
 2572SOL    MW410361   2.690   4.021   4.255  0.4792  0.3142 -0.0911
 2573SOL     OW10362   2.667   4.251   4.151  0.0480  0.3362  0.5629
 2573SOL    HW210363   2.746   4.293   4.186 -0.1778  0.0759  1.4032
 2573SOL    HW310364   2.675   4.259   4.056  1.3891 -0.2306  0.6242
 2573SOL    MW410365   2.678   4.258   4.143  0.1950  0.2270  0.6819
 2574SOL     OW10366   2.899   4.366   4.246  0.2161 -0.3072  0.1937
 2574SOL    HW210367   2.906   4.366   4.341  0.3074 -1.5348  0.1923
 2574SOL    HW310368   2.981   4.327   4.216  0.2743  0.2618 -0.3979
 2574SOL    MW410369   2.911   4.361   4.255  0.2360 -0.3939  0.1154
 2575SOL     OW10370   3.359   4.654   4.186  0.1815  0.2124  0.1293
 2575SOL    HW210371   3.423   4.712   4.225  0.4365  0.3339 -0.4688
 2575SOL    HW310372   3.373   4.570   4.229  0.4621  0.3445  0.2926
 2575SOL    MW410373   3.369   4.650   4.197  0.2522  0.2456  0.0720
 2576SOL     OW10374   3.112   0.062   4.272 -0.3276  0.3941  0.2178
 2576SOL    HW210375   3.108   0.028   4.361  0.5877  1.3601  0.6321
 2576SOL    HW310376   3.192   0.024   4.235  0.7428  2.1021  0.7070
 2576SOL    MW410377   3.122   0.053   4.279 -0.0656  0.7469  0.3366
 2577SOL     OW10378   3.127   0.347   4.138  0.0125 -0.2179 -0.5640
 2577SOL    HW210379   3.139   0.264   4.183 -0.0092  0.3363  0.4903
 2577SOL    HW310380   3.047   0.383   4.176  0.6145  0.7795 -0.2285
 2577SOL    MW410381   3.118   0.341   4.149  0.0892 -0.0132 -0.3810
 2578SOL     OW10382   3.339   0.491   4.247  0.2093 -0.2235  0.0053
 2578SOL    HW210383   3.428   0.464   4.224  0.6184  0.6962  0.4897
 2578SOL    HW310384   3.283   0.446   4.184  1.1200  0.2057 -1.1286
 2578SOL    MW410385   3.343   0.482   4.236  0.3836 -0.0455 -0.0806
 2579SOL     OW10386   3.369   0.763   4.166 -0.3715  0.3673 -0.2946
 2579SOL    HW210387   3.290   0.808   4.196 -0.9835 -0.1782 -1.0854
 2579SOL    HW310388   3.359   0.673   4.197 -1.0821 -0.2423 -2.2459
 2579SOL    MW410389   3.357   0.757   4.174 -0.5460  0.2149 -0.6566
 2580SOL     OW10390   3.120   0.876   4.197  0.3204 -0.3211 -0.1311
 2580SOL    HW210391   3.101   0.870   4.290 -0.6606 -2.6399 -0.4450
 2580SOL    HW310392   3.088   0.962   4.171 -2.0928 -0.8055  1.0991
 2580SOL    MW410393   3.113   0.886   4.206 -0.1273 -0.6910 -0.0105
 2581SOL     OW10394   3.088   1.139   4.117  0.2703  0.4108 -0.1131
 2581SOL    HW210395   3.165   1.159   4.170 -0.2316 -1.1012  1.2478
 2581SOL    HW310396   3.115   1.154   4.027  1.9892  0.4051  0.3962
 2581SOL    MW410397   3.102   1.144   4.112  0.4308  0.2105  0.1335
 2582SOL     OW10398   3.330   1.268   4.248  0.0327  0.0790 -0.1824
 2582SOL    HW210399   3.312   1.281   4.341  0.5936  0.6176 -0.1516
 2582SOL    HW310400   3.308   1.352   4.207  0.2383 -0.0096 -0.4740
 2582SOL    MW410401   3.325   1.281   4.255  0.1338  0.1384 -0.2170
 2583SOL     OW10402   3.286   1.536   4.155  0.0138  0.1861 -0.2556
 2583SOL    HW210403   3.232   1.607   4.189  0.3739  0.4252 -0.1853
 2583SOL    HW310404   3.297   1.556   4.062 -1.1314 -0.5684 -0.5717
 2583SOL    MW410405   3.280   1.548   4.147 -0.0899  0.1180 -0.2875
 2584SOL     OW10406   3.062   1.695   4.216 -0.2827  0.1972 -0.2150
 2584SOL    HW210407   3.025   1.704   4.304 -0.3708 -0.3931 -0.1935
 2584SOL    HW310408   3.073   1.786   4.186 -0.2579  0.4007  0.3993
 2584SOL    MW410409   3.058   1.708   4.224 -0.2911  0.1462 -0.1311
 2585SOL     OW10410   3.102   1.957   4.115 -0.4493  0.2401 -0.1552
 2585SOL    HW210411   3.164   2.004   4.171 -0.5178  1.1750 -0.8533
 2585SOL    HW310412   3.016   1.983   4.147 -0.4887  0.7506 -0.6624
 2585SOL    MW410413   3.099   1.966   4.126 -0.4635  0.4309 -0.3147
 2586SOL     OW10414   3.313   2.069   4.268  0.0790  0.5316  0.1926
 2586SOL    HW210415   3.382   2.011   4.237 -0.5161  0.0167 -0.1937
 2586SOL    HW310416   3.327   2.151   4.222 -1.4271 -0.5426 -2.3213
 2586SOL    MW410417   3.324   2.072   4.258 -0.1984  0.3219 -0.1903
 2587SOL     OW10418   3.390   2.306   4.152 -0.1067 -0.1827  0.3389
 2587SOL    HW210419   3.464   2.360   4.178  1.1688 -1.3313 -0.8223
 2587SOL    HW310420   3.389   2.311   4.056 -1.5168 -0.1803  0.3467
 2587SOL    MW410421   3.400   2.314   4.143 -0.1245 -0.3338  0.1869
 2588SOL     OW10422   3.170   2.454   4.257  0.1459 -0.0362 -0.5674
 2588SOL    HW210423   3.177   2.527   4.194  0.9849 -0.1100 -0.5652
 2588SOL    HW310424   3.222   2.384   4.218  0.6742 -0.0829  0.2131
 2588SOL    MW410425   3.178   2.455   4.243  0.3262 -0.0522 -0.4640
 2589SOL     OW10426   3.156   2.727   4.112 -0.2842 -0.1835 -0.2190
 2589SOL    HW210427   3.230   2.757   4.165 -0.5210  0.2349 -0.1229
 2589SOL    HW310428   3.079   2.765   4.155 -0.6259 -1.2755  0.1445
 2589SOL    MW410429   3.156   2.736   4.125 -0.3605 -0.2725 -0.1578
 2590SOL     OW10430   3.359   2.825   4.294 -0.2272 -0.0518  0.0298
 2590SOL    HW210431   3.433   2.786   4.249 -0.7839 -0.9490 -0.1109
 2590SOL    HW310432   3.350   2.912   4.254 -0.2499 -0.5506 -1.0728
 2590SOL    MW410433   3.367   2.832   4.282 -0.3035 -0.2360 -0.1340
 2591SOL     OW10434   3.344   3.091   4.174 -0.4858  0.3615  0.1527
 2591SOL    HW210435   3.258   3.124   4.200  0.5104  3.0670  0.1806
 2591SOL    HW310436   3.339   3.084   4.078 -0.6579  0.7636  0.1318
 2591SOL    MW410437   3.332   3.094   4.165 -0.3769  0.7713  0.1535
 2592SOL     OW10438   3.116   3.216   4.306 -0.2373  0.1617 -0.0099
 2592SOL    HW210439   3.096   3.308   4.287 -0.9272  0.0901  0.3843
 2592SOL    HW310440   3.068   3.166   4.239  0.3207  0.0937 -0.3668
 2592SOL    MW410441   3.107   3.222   4.294 -0.2546  0.1433 -0.0048
 2593SOL     OW10442   3.083   3.488   4.215  0.0290 -0.6198 -0.1563
 2593SOL    HW210443   3.018   3.557   4.223  0.8806  0.3910 -1.6480
 2593SOL    HW310444   3.087   3.469   4.121  2.2893 -0.2375 -0.1617
 2593SOL    MW410445   3.075   3.495   4.204  0.4396 -0.4361 -0.3543
 2594SOL     OW10446   3.314   3.595   4.268 -0.0381 -0.2102  0.0686
 2594SOL    HW210447   3.331   3.592   4.362  0.2025 -0.7606  0.0148
 2594SOL    HW310448   3.226   3.559   4.258 -0.0901 -0.0875  0.0916
 2594SOL    MW410449   3.305   3.589   4.279 -0.0131 -0.2666  0.0648
 2595SOL     OW10450   3.358   3.841   4.153  0.1896 -0.0922 -0.2911
 2595SOL    HW210451   3.350   3.754   4.192  0.8842  0.3567  0.8924
 2595SOL    HW310452   3.347   3.827   4.059  1.5960 -1.6479 -0.2424
 2595SOL    MW410453   3.356   3.828   4.146  0.4666 -0.2382 -0.1287
 2596SOL     OW10454   3.141   4.015   4.237  0.1672  0.2750 -0.2085
 2596SOL    HW210455   3.139   3.982   4.327  0.4178  0.1789 -0.2380
 2596SOL    HW310456   3.208   3.962   4.194 -0.4189 -0.1286 -0.6272
 2596SOL    MW410457   3.150   4.003   4.243  0.1228  0.2084 -0.2685
 2597SOL     OW10458   3.140   4.276   4.165 -0.4228  0.5141 -0.4011
 2597SOL    HW210459   3.208   4.315   4.220  0.8552  0.1378 -1.6768
 2597SOL    HW310460   3.138   4.184   4.190  0.8177  0.1398 -1.5974
 2597SOL    MW410461   3.149   4.269   4.175 -0.0904  0.4148 -0.7277
 2598SOL     OW10462   3.381   4.382   4.265  0.0328  0.0772 -0.0580
 2598SOL    HW210463   3.418   4.354   4.349  0.6476  0.5494 -0.1661
 2598SOL    HW310464   3.437   4.340   4.200  0.3454  0.7485 -0.2249
 2598SOL    MW410465   3.393   4.373   4.268  0.1552  0.2279 -0.0939
 2599SOL     OW10466   3.771   4.629   4.120 -0.3806  0.5902  0.9333
 2599SOL    HW210467   3.844   4.680   4.154 -0.1477  0.3953  0.7218
 2599SOL    HW310468   3.787   4.622   4.026 -0.3184 -0.0215  0.9839
 2599SOL    MW410469   3.783   4.635   4.112 -0.3417  0.4840  0.9122
 2600SOL     OW10470   3.594   0.103   4.265 -0.1661 -0.3942  0.3125
 2600SOL    HW210471   3.610   0.195   4.245  1.5091 -0.2503  2.1059
 2600SOL    HW310472   3.651   0.056   4.204 -0.0309 -0.1795  0.2705
 2600SOL    MW410473   3.604   0.109   4.255  0.0727 -0.3469  0.5441
 2601SOL     OW10474   3.588   0.388   4.168  0.3188 -0.2787  0.0311
 2601SOL    HW210475   3.657   0.442   4.208  0.1035 -0.6562  0.9314
 2601SOL    HW310476   3.613   0.381   4.076  1.6664 -0.7041  0.4235
 2601SOL    MW410477   3.600   0.394   4.161  0.4683 -0.3847  0.2012
 2602SOL     OW10478   3.812   0.524   4.299  0.4847  0.7505 -0.4509
 2602SOL    HW210479   3.785   0.518   4.391 -2.9026  0.6782 -1.3885
 2602SOL    HW310480   3.823   0.618   4.283  0.2108  0.8290 -0.1813
 2602SOL    MW410481   3.810   0.536   4.309  0.0019  0.7514 -0.5388
 2603SOL     OW10482   3.836   0.787   4.172  0.1456  0.3084 -0.2070
 2603SOL    HW210483   3.754   0.835   4.186  1.0705  1.4506  1.5604
 2603SOL    HW310484   3.833   0.760   4.081 -2.5986 -0.4281  0.0434
 2603SOL    MW410485   3.825   0.790   4.162 -0.0944  0.3620  0.0596
 2604SOL     OW10486   3.594   0.889   4.263 -0.0304 -0.4607 -0.3044
 2604SOL    HW210487   3.586   0.983   4.250  0.1032 -0.2965  0.7686
 2604SOL    HW310488   3.510   0.853   4.235 -0.9566  0.2238  1.5594
 2604SOL    MW410489   3.582   0.896   4.258 -0.1352 -0.3487  0.0834
 2605SOL     OW10490   3.556   1.145   4.170 -0.0451 -0.2396 -0.1293
 2605SOL    HW210491   3.485   1.200   4.203 -1.2221 -1.5941 -0.3609
 2605SOL    HW310492   3.563   1.167   4.077 -0.2378 -0.1845 -0.1303
 2605SOL    MW410493   3.548   1.155   4.162 -0.2258 -0.4110 -0.1602
 2606SOL     OW10494   3.801   1.224   4.280  0.1410  0.0873 -0.3929
 2606SOL    HW210495   3.719   1.192   4.243 -0.6635  0.9397  0.6017
 2606SOL    HW310496   3.805   1.316   4.251  0.0031  0.4668  0.7823
 2606SOL    MW410497   3.791   1.232   4.271  0.0167  0.2499 -0.1063
 2607SOL     OW10498   3.779   1.489   4.213 -0.6087 -0.6331 -0.1999
 2607SOL    HW210499   3.834   1.535   4.276  1.2435 -2.5502 -0.3346
 2607SOL    HW310500   3.697   1.537   4.212  0.6667  1.6308  0.8879
 2607SOL    MW410501   3.776   1.501   4.221 -0.1960 -0.5873 -0.0739
 2608SOL     OW10502   3.531   1.628   4.263 -0.2180 -0.4110  0.7051
 2608SOL    HW210503   3.446   1.585   4.253  0.1485 -1.3870  1.6170
 2608SOL    HW310504   3.545   1.631   4.358  0.0860  1.1223  0.6231
 2608SOL    MW410505   3.522   1.623   4.274 -0.1292 -0.3374  0.8149
 2609SOL     OW10506   3.528   1.899   4.201  0.2858  0.0606 -0.1303
 2609SOL    HW210507   3.528   1.805   4.217  0.0303 -0.0171 -0.5810
 2609SOL    HW310508   3.558   1.908   4.110  0.3838  0.4198 -0.0644
 2609SOL    MW410509   3.532   1.888   4.191  0.2649  0.0978 -0.1812
 2610SOL     OW10510   3.732   2.100   4.327 -0.5482  0.0589  0.0138
 2610SOL    HW210511   3.810   2.044   4.333 -0.9885 -0.4979  0.7190
 2610SOL    HW310512   3.671   2.050   4.273  0.1199  1.1546 -1.7897
 2610SOL    MW410513   3.734   2.086   4.321 -0.5183  0.1299 -0.1316
 2611SOL     OW10514   3.872   2.346   4.204 -0.2856  0.5882 -0.3087
 2611SOL    HW210515   3.836   2.279   4.261  0.4090 -0.1808 -0.7667
 2611SOL    HW310516   3.858   2.313   4.115  0.7720  0.6788 -0.5168
 2611SOL    MW410517   3.866   2.333   4.200 -0.0546  0.4988 -0.3967
 2612SOL     OW10518   3.609   2.462   4.242  0.2266  0.0908  0.0617
 2612SOL    HW210519   3.593   2.456   4.336 -0.1178 -1.3109 -0.0790
 2612SOL    HW310520   3.699   2.431   4.231 -0.2461 -1.2079 -0.2332
 2612SOL    MW410521   3.619   2.457   4.253  0.1187 -0.2654  0.0038
 2613SOL     OW10522   3.584   2.715   4.148 -0.2694 -0.2189  0.2724
 2613SOL    HW210523   3.584   2.624   4.177  1.1754 -0.0106  0.9398
 2613SOL    HW310524   3.595   2.709   4.053 -1.7847 -0.7796  0.1134
 2613SOL    MW410525   3.585   2.702   4.139 -0.2787 -0.2654  0.3400
 2614SOL     OW10526   3.801   2.864   4.257 -0.3559 -0.7106  0.1134
 2614SOL    HW210527   3.790   2.874   4.351 -1.1517 -1.6884  0.1295
 2614SOL    HW310528   3.728   2.809   4.229  1.1343 -2.3426 -0.7320
 2614SOL    MW410529   3.790   2.858   4.265 -0.2644 -1.0548  0.0043
 2615SOL     OW10530   3.790   3.112   4.132  0.1770  0.0962  0.3373
 2615SOL    HW210531   3.807   3.020   4.153  3.2016  0.7628  1.0335
 2615SOL    HW310532   3.808   3.119   4.038 -1.2115 -0.2655  0.0408
 2615SOL    MW410533   3.795   3.101   4.122  0.3929  0.1366  0.3896
 2616SOL     OW10534   3.573   3.235   4.274 -0.0236 -0.1104 -0.2033
 2616SOL    HW210535   3.643   3.202   4.217  0.6539  1.2215 -0.1639
 2616SOL    HW310536   3.493   3.199   4.237  0.5327 -0.3665 -1.1880
 2616SOL    MW410537   3.572   3.226   4.262  0.1392  0.0317 -0.3285
 2617SOL     OW10538   3.563   3.501   4.180  0.0800 -0.6442 -0.0740
 2617SOL    HW210539   3.566   3.417   4.225 -1.0534 -1.0088 -0.6674
 2617SOL    HW310540   3.478   3.538   4.202  0.8081  0.6211  0.6590
 2617SOL    MW410541   3.552   3.495   4.189  0.0267 -0.5257 -0.0553
 2618SOL     OW10542   3.783   3.621   4.309 -0.2372 -0.5210 -0.0888
 2618SOL    HW210543   3.864   3.602   4.261 -0.2366  0.3756 -0.4413
 2618SOL    HW310544   3.715   3.576   4.260 -0.1459 -0.1360 -0.5706
 2618SOL    MW410545   3.785   3.612   4.296 -0.2253 -0.3519 -0.1988
 2619SOL     OW10546   3.790   3.884   4.194 -0.3788  0.5012  0.0227
 2619SOL    HW210547   3.709   3.923   4.226 -1.2027 -0.3618 -0.9612
 2619SOL    HW310548   3.797   3.801   4.241 -0.6219  0.0844 -0.6807
 2619SOL    MW410549   3.781   3.878   4.204 -0.5198  0.3321 -0.1998
 2620SOL     OW10550   3.546   4.013   4.233 -0.3023  0.6958 -0.4073
 2620SOL    HW210551   3.512   4.034   4.319  0.5561  1.2950 -0.2045
 2620SOL    HW310552   3.483   3.951   4.196 -0.0937 -0.4585  1.1036
 2620SOL    MW410553   3.533   4.007   4.239 -0.1612  0.6223 -0.1807
 2621SOL     OW10554   3.575   4.256   4.103 -0.1799 -0.3678 -0.6960
 2621SOL    HW210555   3.652   4.293   4.146 -1.6169  1.7479  0.1891
 2621SOL    HW310556   3.563   4.170   4.144 -0.4538  0.8533  1.8906
 2621SOL    MW410557   3.583   4.250   4.114 -0.4055  0.0725 -0.2379
 2622SOL     OW10558   3.776   4.408   4.285  0.2304 -0.5370  0.3610
 2622SOL    HW210559   3.862   4.370   4.270  1.1209  1.7021 -0.3796
 2622SOL    HW310560   3.776   4.489   4.234 -1.5884  0.4732  1.8896
 2622SOL    MW410561   3.787   4.414   4.276  0.1080 -0.1082  0.4649
 2623SOL     OW10562   4.248   0.020   4.149 -0.2519 -0.0251  0.4135
 2623SOL    HW210563   4.230  -0.060   4.198  0.9825 -0.5847 -0.0540
 2623SOL    HW310564   4.329   0.054   4.188 -0.8135  1.0551  0.6743
 2623SOL    MW410565   4.256   0.014   4.161 -0.1636  0.0434  0.3867
 2624SOL     OW10566   3.986   0.103   4.211  0.0674  0.3158  0.1100
 2624SOL    HW210567   3.981   0.184   4.161  0.2514  0.7749  0.8437
 2624SOL    HW310568   4.069   0.063   4.183  0.7080  1.1116  0.8719
 2624SOL    MW410569   3.997   0.108   4.201  0.1757  0.4814  0.3076
 2625SOL     OW10570   3.981   0.381   4.110 -0.4420 -0.1892  0.4675
 2625SOL    HW210571   4.072   0.393   4.139 -0.3342  0.3278 -0.0747
 2625SOL    HW310572   3.929   0.426   4.176 -0.2095  0.8065 -0.0260
 2625SOL    MW410573   3.986   0.388   4.122 -0.3974  0.0104  0.3309
 2626SOL     OW10574   4.223   0.451   4.193  0.0545  0.7335  0.7976
 2626SOL    HW210575   4.229   0.540   4.158  0.1502  0.2432 -0.4317
 2626SOL    HW310576   4.307   0.411   4.171 -1.1304 -0.6282 -1.3382
 2626SOL    MW410577   4.235   0.458   4.186 -0.0887  0.4891  0.3533
 2627SOL     OW10578   4.263   0.733   4.138 -0.4377 -0.4871 -0.1145
 2627SOL    HW210579   4.210   0.805   4.174 -1.1946 -0.6415 -0.8847
 2627SOL    HW310580   4.261   0.747   4.044  0.8412 -0.5510 -0.1588
 2627SOL    MW410581   4.255   0.744   4.130 -0.3686 -0.5159 -0.2217
 2628SOL     OW10582   4.075   0.904   4.256 -0.5867 -0.1707 -0.0422
 2628SOL    HW210583   4.049   0.990   4.223  0.1646  0.1620  0.2304
 2628SOL    HW310584   3.996   0.850   4.245 -1.0076  0.4975 -0.3810
 2628SOL    MW410585   4.061   0.908   4.250 -0.5431 -0.0387 -0.0510
 2629SOL     OW10586   4.019   1.142   4.133  0.1540 -0.6169  0.2052
 2629SOL    HW210587   4.093   1.189   4.172  0.1743 -1.2728  0.9731
 2629SOL    HW310588   3.944   1.168   4.186 -0.0006 -0.7183  0.0365
 2629SOL    MW410589   4.019   1.152   4.145  0.1364 -0.7168  0.2842
 2630SOL     OW10590   4.218   1.309   4.265 -0.4398  0.0778 -0.2280
 2630SOL    HW210591   4.193   1.294   4.356  0.0770  1.7267  0.1992
 2630SOL    HW310592   4.291   1.249   4.250 -1.1462 -0.8839  0.1446
 2630SOL    MW410593   4.224   1.299   4.275 -0.4649  0.1687 -0.1221
 2631SOL     OW10594   4.215   1.571   4.151 -0.0216 -0.0924 -0.2262
 2631SOL    HW210595   4.203   1.484   4.190  2.1218  0.0631  0.8396
 2631SOL    HW310596   4.249   1.554   4.064  0.3705 -0.3382 -0.0294
 2631SOL    MW410597   4.218   1.557   4.145  0.3128 -0.1044 -0.0596
 2632SOL     OW10598   3.900   1.610   4.425  0.1033 -0.5617  0.2233
 2632SOL    HW210599   3.820   1.618   4.477  0.2920  3.1162  0.0792
 2632SOL    HW310600   3.971   1.616   4.488  0.3114  2.3912 -0.2495
 2632SOL    MW410601   3.899   1.612   4.440  0.1557  0.3130  0.1421
 2633SOL     OW10602   4.090   1.813   4.153 -0.1710 -0.0648  0.0897
 2633SOL    HW210603   4.134   1.728   4.157 -1.1017 -0.5718 -0.1113
 2633SOL    HW310604   4.023   1.807   4.222 -1.6410 -0.3211 -1.3187
 2633SOL    MW410605   4.087   1.801   4.163 -0.4883 -0.1655 -0.1221
 2634SOL     OW10606   4.481   1.895   4.135 -0.1540  0.6672 -0.8292
 2634SOL    HW210607   4.563   1.932   4.165  0.0865  1.4902 -2.4401
 2634SOL    HW310608   4.413   1.952   4.171  0.0219  0.4937 -0.2219
 2634SOL    MW410609   4.483   1.907   4.144 -0.0992  0.7528 -0.9613
 2635SOL     OW10610   4.238   2.332   4.178 -0.2620 -0.0110 -0.8266
 2635SOL    HW210611   4.181   2.380   4.239 -0.7660  0.2924 -1.5376
 2635SOL    HW310612   4.232   2.241   4.207  0.0828  0.2272  0.0395
 2635SOL    MW410613   4.229   2.326   4.190 -0.2832  0.0603 -0.8063
 2636SOL     OW10614   4.054   2.484   4.370 -0.5531 -0.6427 -0.3447
 2636SOL    HW210615   4.040   2.430   4.447 -1.9662 -0.3325 -0.3718
 2636SOL    HW310616   3.993   2.449   4.305 -1.0176  0.5555 -0.5699
 2636SOL    MW410617   4.044   2.473   4.371 -0.8011 -0.4435 -0.3781
 2637SOL     OW10618   4.032   2.732   4.192 -0.1633 -0.0585  0.0439
 2637SOL    HW210619   4.021   2.658   4.252 -1.1370 -0.4044 -0.5480
 2637SOL    HW310620   3.964   2.794   4.217 -0.1545  0.0807 -0.2805
 2637SOL    MW410621   4.022   2.730   4.203 -0.2913 -0.0858 -0.0772
 2638SOL     OW10622   4.322   2.789   4.175 -0.0399 -0.4977  0.4201
 2638SOL    HW210623   4.230   2.762   4.179  0.0023 -0.4813  1.6670
 2638SOL    HW310624   4.367   2.728   4.234  0.5521  0.3072  0.8030
 2638SOL    MW410625   4.316   2.777   4.184  0.0439 -0.3896  0.6351
 2639SOL     OW10626   4.207   3.183   4.207  0.2741  0.2785  0.2607
 2639SOL    HW210627   4.226   3.105   4.258  0.1101  0.4248  0.5488
 2639SOL    HW310628   4.220   3.157   4.116  0.9218  0.1198  0.4027
 2639SOL    MW410629   4.211   3.169   4.202  0.3376  0.2768  0.3181
 2640SOL     OW10630   3.974   3.306   4.233  0.2284  0.2549  0.0739
 2640SOL    HW210631   4.057   3.258   4.239 -0.6502 -1.2400  0.3720
 2640SOL    HW310632   3.908   3.239   4.215 -1.1333  1.2337  1.2980
 2640SOL    MW410633   3.977   3.291   4.231 -0.0675  0.1867  0.2751
 2641SOL     OW10634   4.011   3.579   4.157 -0.2608  0.1682 -0.3824
 2641SOL    HW210635   4.009   3.492   4.196 -0.2572  0.1669 -0.3848
 2641SOL    HW310636   4.000   3.565   4.063 -2.0238  0.3024 -0.2024
 2641SOL    MW410637   4.009   3.566   4.150 -0.4930  0.1857 -0.3591
 2642SOL     OW10638   4.285   3.648   4.270 -0.0617  0.6505 -0.5830
 2642SOL    HW210639   4.310   3.735   4.239 -2.2166  1.1598 -0.9938
 2642SOL    HW310640   4.207   3.626   4.219  0.1615 -1.3076 -0.1183
 2642SOL    MW410641   4.278   3.656   4.259 -0.3161  0.4594 -0.5760
 2643SOL     OW10642   4.257   3.891   4.136  0.0964  0.3940 -0.4000
 2643SOL    HW210643   4.171   3.932   4.144 -0.3541 -0.6180  0.0540
 2643SOL    HW310644   4.279   3.900   4.043 -1.0410 -0.4098 -0.7544
 2643SOL    MW410645   4.249   3.898   4.125 -0.1135  0.1543 -0.3867
 2644SOL     OW10646   4.024   4.007   4.233  0.3097 -0.2239  0.0388
 2644SOL    HW210647   4.020   4.047   4.319  1.0687  0.0181 -0.0430
 2644SOL    HW310648   3.936   3.971   4.220  0.2100 -0.3070  0.9288
 2644SOL    MW410649   4.012   4.007   4.242  0.3967 -0.2027  0.1454
 2645SOL     OW10650   4.027   4.283   4.159  0.2467  0.2413  0.0508
 2645SOL    HW210651   4.101   4.331   4.195  0.7360  0.7958 -1.6230
 2645SOL    HW310652   4.041   4.192   4.185  1.9232  0.2185 -0.8820
 2645SOL    MW410653   4.039   4.277   4.167  0.5322  0.3114 -0.2933
 2646SOL     OW10654   4.227   4.519   4.526  0.6939 -0.1396 -0.0157
 2646SOL    HW210655   4.299   4.574   4.559 -0.4101 -1.3565  4.8942
 2646SOL    HW310656   4.151   4.578   4.525  0.8122  0.0009 -0.8319
 2646SOL    MW410657   4.227   4.534   4.530  0.5641 -0.2823  0.5245
 2647SOL     OW10658   0.015   0.257   4.512  0.3106 -0.0011  0.2811
 2647SOL    HW210659  -0.035   0.338   4.511 -0.7193 -0.6188  0.6070
 2647SOL    HW310660   0.106   0.284   4.525  0.0694  1.1347 -0.3628
 2647SOL    MW410661   0.021   0.271   4.513  0.1429  0.0673  0.2394
 2648SOL     OW10662   4.267   4.249   4.613 -0.5775  0.0117 -0.4386
 2648SOL    HW210663   4.234   4.245   4.702  1.0667  1.9658  0.3017
 2648SOL    HW310664   4.252   4.340   4.585 -1.0981 -0.5746 -2.1598
 2648SOL    MW410665   4.261   4.261   4.621 -0.4296  0.1922 -0.5684
 2649SOL     OW10666   3.979   0.011   4.506 -0.0949 -0.4896  0.5994
 2649SOL    HW210667   3.959   0.035   4.415  1.3265 -1.2947  0.0605
 2649SOL    HW310668   3.895   0.019   4.552 -1.2571 -1.9456 -1.1926
 2649SOL    MW410669   3.965   0.015   4.500 -0.0608 -0.7879  0.2913
 2650SOL     OW10670   4.106   1.189   4.876  0.4118  0.6319 -0.5250
 2650SOL    HW210671   4.068   1.252   4.815  1.1212  0.2538 -1.3797
 2650SOL    HW310672   4.200   1.191   4.857  0.3420 -1.3673 -1.2504
 2650SOL    MW410673   4.113   1.197   4.865  0.4964  0.3182 -0.7339
 2651SOL     OW10674   0.220   4.570   4.487  0.1069  0.4176  0.0771
 2651SOL    HW210675   0.156   4.576   4.558  0.1318  0.6595  0.0805
 2651SOL    HW310676   0.248   4.478   4.486  0.3003  0.4717  0.5514
 2651SOL    MW410677   0.215   4.559   4.496  0.1357  0.4568  0.1402
 2652SOL     OW10678   0.162   0.609   4.562  0.5038  0.0648 -0.1474
 2652SOL    HW210679   0.183   0.561   4.482  1.4931  0.8289 -0.3625
 2652SOL    HW310680   0.089   0.666   4.538  0.2203 -0.3514 -0.2664
 2652SOL    MW410681   0.155   0.610   4.548  0.5969  0.1107 -0.1917
 2653SOL     OW10682   4.405   0.766   4.529  0.2091  0.4129 -0.1246
 2653SOL    HW210683   4.377   0.676   4.512 -0.0731  0.5776 -0.5514
 2653SOL    HW310684   4.420   0.803   4.441  1.9436  0.2728  0.0873
 2653SOL    MW410685   4.403   0.759   4.515  0.4005  0.4162 -0.1531
 2654SOL     OW10686   0.495   1.505   4.612  0.6635  0.1639 -0.1636
 2654SOL    HW210687   0.476   1.549   4.529 -1.8835  0.1222  0.3432
 2654SOL    HW310688   0.462   1.416   4.600  1.4715 -0.2228  0.4523
 2654SOL    MW410689   0.488   1.499   4.600  0.4340  0.1074 -0.0153
 2655SOL     OW10690   0.645   2.031   4.524  0.1292  0.4520  0.4197
 2655SOL    HW210691   0.579   1.964   4.541  1.5099 -1.8338 -2.7432
 2655SOL    HW310692   0.719   2.008   4.579  0.8635 -1.0985 -1.1730
 2655SOL    MW410693   0.646   2.019   4.533  0.4082 -0.0539 -0.2079
 2656SOL     OW10694   4.205   1.208   4.535  0.0642 -0.1449 -0.0538
 2656SOL    HW210695   4.185   1.115   4.522  0.9228  0.0026 -2.8226
 2656SOL    HW310696   4.278   1.208   4.598  1.2220 -1.4695 -1.3495
 2656SOL    MW410697   4.212   1.196   4.542  0.3295 -0.3003 -0.5903
 2657SOL     OW10698   4.441   1.869   4.688  0.4817  0.3436  0.3006
 2657SOL    HW210699   4.422   1.792   4.635 -1.3308  0.4087  0.8383
 2657SOL    HW310700   4.494   1.837   4.760  2.8035  0.2148 -1.4007
 2657SOL    MW410701   4.446   1.855   4.691  0.5493  0.3353  0.1473
 2658SOL     OW10702   0.332   1.709   4.740  0.0789 -0.2460  0.6531
 2658SOL    HW210703   0.379   1.629   4.717  0.6403 -0.2306  1.6834
 2658SOL    HW310704   0.359   1.773   4.674 -0.4885 -0.9431 -0.2590
 2658SOL    MW410705   0.342   1.707   4.729  0.0781 -0.3359  0.6680
 2659SOL     OW10706   0.203   2.023   4.484 -0.3111 -0.2266 -0.1268
 2659SOL    HW210707   0.190   2.112   4.516 -1.0121  0.2077 -1.5688
 2659SOL    HW310708   0.139   1.970   4.531 -2.9570  0.7977 -2.4343
 2659SOL    MW410709   0.193   2.027   4.494 -0.7527 -0.0343 -0.6213
 2660SOL     OW10710   3.633   2.657   4.887  0.0144 -0.5460 -0.2891
 2660SOL    HW210711   3.609   2.624   4.973  0.0936 -0.1022 -0.0949
 2660SOL    HW310712   3.725   2.635   4.877  0.3638  0.6429  0.3190
 2660SOL    MW410713   3.642   2.650   4.897  0.0710 -0.3304 -0.1831
 2661SOL     OW10714   0.477   2.711   4.630  0.0902  0.4041 -0.2415
 2661SOL    HW210715   0.448   2.621   4.614  0.0842  0.2971  0.3743
 2661SOL    HW310716   0.533   2.706   4.707 -1.4580  1.2125  0.9637
 2661SOL    MW410717   0.480   2.699   4.638 -0.1148  0.4969 -0.0014
 2662SOL     OW10718   0.236   2.860   4.574 -0.3132  0.2328  0.0181
 2662SOL    HW210719   0.213   2.830   4.486 -0.4922  2.8974 -0.8879
 2662SOL    HW310720   0.311   2.806   4.599 -1.1370 -1.5106 -1.1732
 2662SOL    MW410721   0.243   2.848   4.566 -0.4455  0.3545 -0.2584
 2663SOL     OW10722   4.163   2.273   4.828  0.4090  0.0305  0.4957
 2663SOL    HW210723   4.242   2.319   4.800  0.6690 -0.1446  0.9334
 2663SOL    HW310724   4.132   2.324   4.903 -0.6023  0.8315 -0.4430
 2663SOL    MW410725   4.170   2.286   4.834  0.3099  0.1135  0.4296
 2664SOL     OW10726   4.234   3.411   4.638 -0.4969 -0.0838 -0.1738
 2664SOL    HW210727   4.312   3.357   4.626 -0.8140 -1.2375  2.5637
 2664SOL    HW310728   4.161   3.354   4.614 -0.6777 -0.1071  0.4057
 2664SOL    MW410729   4.235   3.397   4.634 -0.5627 -0.2389  0.2632
 2665SOL     OW10730   4.479   3.247   4.575 -0.3443  0.2404 -0.7613
 2665SOL    HW210731   4.500   3.248   4.481 -1.1029  0.4835 -0.9369
 2665SOL    HW310732   4.550   3.295   4.616  0.4719 -0.6396 -1.1083
 2665SOL    MW410733   4.491   3.253   4.568 -0.3367  0.1566 -0.8302
 2666SOL     OW10734   0.014   3.850   4.489 -0.2512  0.3364 -0.4218
 2666SOL    HW210735   0.070   3.810   4.555 -0.5968  1.8927  0.8302
 2666SOL    HW310736  -0.072   3.809   4.502 -0.5244  1.2228  0.6497
 2666SOL    MW410737   0.010   3.839   4.499 -0.3324  0.6590 -0.1149
 2667SOL     OW10738   4.464   4.657   4.637 -0.2480  0.0253  0.1277
 2667SOL    HW210739   4.468   4.660   4.733 -0.2077  0.0451  0.1251
 2667SOL    HW310740   4.469   4.749   4.610  0.6874 -0.0369  0.0649
 2667SOL    MW410741   4.465   4.670   4.646 -0.1192  0.0200  0.1192
 2668SOL     OW10742   3.813   0.535   4.581  0.2710  0.5057 -0.1406
 2668SOL    HW210743   3.767   0.490   4.653  2.5934  0.3326  1.2798
 2668SOL    HW310744   3.779   0.624   4.583 -0.3439  0.2632  0.5982
 2668SOL    MW410745   3.802   0.541   4.591  0.4964  0.4508  0.1440
 2669SOL     OW10746   3.889   3.534   4.862 -0.6557 -0.3529  0.1505
 2669SOL    HW210747   3.825   3.605   4.852  0.0894  0.6299  2.1605
 2669SOL    HW310748   3.972   3.573   4.834 -0.1752 -0.2885  1.6235
 2669SOL    MW410749   3.891   3.548   4.857 -0.4940 -0.2148  0.6099
 2670SOL     OW10750   3.869   4.210   4.677  0.2073  0.0163 -0.1205
 2670SOL    HW210751   3.823   4.276   4.625 -0.4961 -1.7480 -1.8027
 2670SOL    HW310752   3.805   4.141   4.691  1.7525 -1.6251 -0.8878
 2670SOL    MW410753   3.855   4.209   4.672  0.3185 -0.4334 -0.4435
 2671SOL     OW10754   0.962   0.152   4.487  0.3871  0.0187  0.0752
 2671SOL    HW210755   0.964   0.121   4.396  1.4247 -0.8063  0.3624
 2671SOL    HW310756   0.945   0.073   4.538  0.8962  0.2942  0.6760
 2671SOL    MW410757   0.960   0.137   4.481  0.5912 -0.0538  0.1922
 2672SOL     OW10758   0.029   0.987   4.647 -0.2974  0.1008  0.3842
 2672SOL    HW210759  -0.019   0.914   4.607  0.0239  1.0028 -1.7218
 2672SOL    HW310760   0.119   0.976   4.617  0.1190  0.3615  1.5226
 2672SOL    MW410761   0.034   0.976   4.638 -0.2001  0.2542  0.2565
 2673SOL     OW10762   1.309   1.241   4.724 -0.0957  0.0083  0.6687
 2673SOL    HW210763   1.404   1.239   4.732 -0.0369  0.0399  0.0215
 2673SOL    HW310764   1.285   1.332   4.744 -0.1556 -0.4071  2.5131
 2673SOL    MW410765   1.318   1.253   4.727 -0.0958 -0.0424  0.8268
 2674SOL     OW10766   0.449   0.058   4.525 -0.2362  0.2767 -0.0872
 2674SOL    HW210767   0.408   0.138   4.558 -0.1703  0.0137  0.6343
 2674SOL    HW310768   0.379  -0.007   4.526  0.2014 -0.1919  1.2105
 2674SOL    MW410769   0.434   0.060   4.530 -0.1698  0.1802  0.1793
 2675SOL     OW10770   1.157   1.020   4.757 -0.5254 -0.4257  0.2506
 2675SOL    HW210771   1.078   1.071   4.745 -0.3728 -0.2802 -0.1261
 2675SOL    HW310772   1.228   1.084   4.757 -0.2868 -0.6774 -0.7233
 2675SOL    MW410773   1.156   1.035   4.756 -0.4739 -0.4398  0.0725
 2676SOL     OW10774   0.321   1.041   4.651  0.2313  0.5061 -0.4358
 2676SOL    HW210775   0.398   1.000   4.611  0.4212  1.1827 -0.7721
 2676SOL    HW310776   0.305   0.990   4.730  0.2756 -0.4081 -1.0105
 2676SOL    MW410777   0.329   1.029   4.656  0.2622  0.4747 -0.5565
 2677SOL     OW10778   1.846   0.908   4.760 -0.4050  0.3481 -0.4924
 2677SOL    HW210779   1.856   0.814   4.746 -1.3220  0.1632  0.0534
 2677SOL    HW310780   1.906   0.948   4.697 -0.8770 -0.5762 -1.5382
 2677SOL    MW410781   1.855   0.901   4.750 -0.5882  0.2018 -0.5584
 2678SOL     OW10782   0.912   1.695   4.495  0.2287  0.5299 -0.2570
 2678SOL    HW210783   0.909   1.780   4.540 -1.5598  0.6963 -0.6621
 2678SOL    HW310784   1.005   1.677   4.485  0.6355  2.3596  0.0222
 2678SOL    MW410785   0.924   1.704   4.499  0.0464  0.7935 -0.2737
 2679SOL     OW10786   0.923   1.220   4.623 -0.1638  0.1005  0.3274
 2679SOL    HW210787   0.869   1.299   4.614 -0.3133 -0.0054  0.2744
 2679SOL    HW310788   0.877   1.154   4.570  0.9956  0.5013 -1.2003
 2679SOL    MW410789   0.910   1.221   4.615 -0.0305  0.1395  0.1183
 2680SOL     OW10790   0.885   1.950   4.639 -0.4040  0.0541 -0.2692
 2680SOL    HW210791   0.967   1.996   4.621 -0.5189  1.0089  1.5099
 2680SOL    HW310792   0.898   1.910   4.725 -1.2600 -1.0570 -0.6403
 2680SOL    MW410793   0.897   1.951   4.648 -0.5322  0.0334 -0.0834
 2681SOL     OW10794   0.608   2.342   4.573  0.0100  0.3550 -0.1914
 2681SOL    HW210795   0.701   2.359   4.556  0.5931  0.2530  2.6212
 2681SOL    HW310796   0.603   2.249   4.592 -0.7087  0.3258 -0.4953
 2681SOL    MW410797   0.620   2.332   4.573 -0.0079  0.3378  0.1392
 2682SOL     OW10798   1.183   1.639   4.482 -0.1218  0.0655 -0.4042
 2682SOL    HW210799   1.236   1.652   4.403  0.5225 -0.2645 -0.0256
 2682SOL    HW310800   1.180   1.544   4.494  0.1020  0.1348  0.1936
 2682SOL    MW410801   1.189   1.628   4.473 -0.0073  0.0311 -0.2756
 2683SOL     OW10802   0.116   2.294   4.525  0.3238 -0.2954 -0.1865
 2683SOL    HW210803   0.059   2.332   4.458 -0.0148  0.3156  0.4326
 2683SOL    HW310804   0.189   2.355   4.532  0.2786 -0.2736  0.1107
 2683SOL    MW410805   0.118   2.307   4.517  0.2732 -0.2120 -0.0653
 2684SOL     OW10806   0.849   2.654   4.558 -0.3253 -0.6829 -0.0553
 2684SOL    HW210807   0.933   2.694   4.536  0.5846 -0.9207  2.8571
 2684SOL    HW310808   0.863   2.560   4.549 -0.6228 -0.6714 -0.6751
 2684SOL    MW410809   0.862   2.647   4.554 -0.2446 -0.7129  0.2470
 2685SOL     OW10810   0.345   2.452   4.538  0.5758 -0.2776 -0.0158
 2685SOL    HW210811   0.427   2.402   4.537 -0.2518 -1.6213 -0.8068
 2685SOL    HW310812   0.345   2.498   4.454  0.1225 -0.9056 -0.3542
 2685SOL    MW410813   0.356   2.452   4.527  0.4068 -0.5374 -0.1645
 2686SOL     OW10814   1.401   3.144   4.502 -0.1952  0.6007 -0.2688
 2686SOL    HW210815   1.385   3.056   4.537 -1.0396  0.6243 -0.5787
 2686SOL    HW310816   1.486   3.170   4.539 -0.9594  0.5482  1.5894
 2686SOL    MW410817   1.410   3.136   4.512 -0.4075  0.5970 -0.0648
 2687SOL     OW10818   0.355   3.138   4.540  0.4475 -0.2749  0.2134
 2687SOL    HW210819   0.301   3.191   4.598 -1.7538  0.2860 -2.2493
 2687SOL    HW310820   0.331   3.048   4.560  0.7194 -0.1547  1.1074
 2687SOL    MW410821   0.345   3.133   4.550  0.1929 -0.1850  0.0062
 2688SOL     OW10822   1.350   4.444   4.502 -0.1634 -0.3798 -0.5423
 2688SOL    HW210823   1.269   4.400   4.529 -0.0191 -0.1133  0.3417
 2688SOL    HW310824   1.419   4.382   4.523 -0.1054 -0.4614 -0.9702
 2688SOL    MW410825   1.348   4.430   4.508 -0.1366 -0.3552 -0.4821
 2689SOL     OW10826   4.305   2.713   4.605 -0.0126  0.1917  0.3963
 2689SOL    HW210827   4.341   2.690   4.519 -0.2497 -1.4808  0.7250
 2689SOL    HW310828   4.346   2.796   4.626 -1.2075  1.4754 -2.0767
 2689SOL    MW410829   4.315   2.721   4.596 -0.2012  0.1404  0.1135
 2690SOL     OW10830   4.234   3.673   4.549 -0.0879 -0.1810  0.2940
 2690SOL    HW210831   4.234   3.585   4.585  1.5999 -0.3098  0.0136
 2690SOL    HW310832   4.240   3.661   4.454  2.1054  0.2280  0.3468
 2690SOL    MW410833   4.235   3.660   4.541  0.4239 -0.1445  0.2642
 2691SOL     OW10834   0.751   4.327   4.526  0.0912 -0.2653  0.3204
 2691SOL    HW210835   0.807   4.388   4.574 -0.4664  2.1571 -1.9624
 2691SOL    HW310836   0.747   4.363   4.437 -1.7598 -2.6622 -0.6429
 2691SOL    MW410837   0.758   4.340   4.520 -0.2267 -0.2623 -0.1082
 2692SOL     OW10838   0.037   4.097   4.634 -0.9955  0.2145  0.2506
 2692SOL    HW210839   0.028   4.016   4.582  0.6749 -0.7975  1.4955
 2692SOL    HW310840  -0.043   4.146   4.615 -1.0574 -0.7476 -2.2037
 2692SOL    MW410841   0.025   4.093   4.625 -0.7833 -0.0463  0.0916
 2693SOL     OW10842   0.253   3.780   4.620  0.2277  0.6633  0.3415
 2693SOL    HW210843   0.322   3.842   4.647 -0.6076  1.0135  1.7425
 2693SOL    HW310844   0.301   3.705   4.585  1.2839  1.6217 -0.3243
 2693SOL    MW410845   0.269   3.779   4.619  0.2568  0.8359  0.4377
 2694SOL     OW10846   0.258   4.281   4.561  0.5740  0.1223  0.4662
 2694SOL    HW210847   0.344   4.241   4.574  0.1360 -0.5613  1.2543
 2694SOL    HW310848   0.196   4.220   4.602 -0.0796  1.7316  1.9327
 2694SOL    MW410849   0.261   4.268   4.568  0.4299  0.2446  0.7634
 2695SOL     OW10850   1.205   0.273   4.468  0.2450  0.0699  0.1210
 2695SOL    HW210851   1.115   0.244   4.488 -0.4780  0.1100 -2.8001
 2695SOL    HW310852   1.251   0.192   4.446  0.1246  0.3173 -1.1225
 2695SOL    MW410853   1.199   0.258   4.468  0.1338  0.1079 -0.4282
 2696SOL     OW10854   0.702   0.234   4.587  0.1582 -0.0013  0.1933
 2696SOL    HW210855   0.791   0.206   4.566  0.3277 -0.8353  1.9751
 2696SOL    HW310856   0.650   0.154   4.584 -0.7441  0.6193 -1.7896
 2696SOL    MW410857   0.707   0.220   4.584  0.0615 -0.0295  0.1664
 2697SOL     OW10858   0.536   0.445   4.505 -0.0039  0.1878  0.1150
 2697SOL    HW210859   0.563   0.480   4.420 -2.3755 -1.5340 -1.4071
 2697SOL    HW310860   0.597   0.374   4.523  0.8395  0.9104  0.1256
 2697SOL    MW410861   0.548   0.441   4.496 -0.2055  0.0559 -0.0849
 2698SOL     OW10862   1.590   0.943   4.601  0.3190  0.2246 -0.2651
 2698SOL    HW210863   1.632   1.009   4.546  3.5905 -1.3898  0.1595
 2698SOL    HW310864   1.655   0.924   4.669 -0.4313 -3.5937 -0.5298
 2698SOL    MW410865   1.604   0.949   4.603  0.6516 -0.4921 -0.2437
 2699SOL     OW10866   1.655   0.734   4.426 -0.1093  0.0989  0.0860
 2699SOL    HW210867   1.622   0.800   4.488 -1.2128 -0.0777 -0.2932
 2699SOL    HW310868   1.658   0.781   4.343  0.5090  0.0845  0.1038
 2699SOL    MW410869   1.651   0.749   4.423 -0.1733  0.0737  0.0377
 2700SOL     OW10870   0.285   1.316   4.558  0.0158  0.5947  0.0414
 2700SOL    HW210871   0.278   1.227   4.590  1.8145  0.1020 -0.8979
 2700SOL    HW310872   0.232   1.368   4.619  1.8078 -0.5817  2.6682
 2700SOL    MW410873   0.277   1.311   4.570  0.4896  0.3746  0.2642
 2701SOL     OW10874   0.770   1.456   4.564 -0.0476  0.2305 -0.5329
 2701SOL    HW210875   0.813   1.539   4.544 -0.8890  0.7999  0.0203
 2701SOL    HW310876   0.685   1.481   4.600 -0.1814 -0.8658 -0.0881
 2701SOL    MW410877   0.765   1.470   4.566 -0.1763  0.1609 -0.4015
 2702SOL     OW10878   0.525   0.869   4.518  0.2824 -0.0417 -0.5690
 2702SOL    HW210879   0.487   0.858   4.430  2.0388 -1.9297 -1.1105
 2702SOL    HW310880   0.502   0.788   4.564  1.6956 -0.2189 -0.1727
 2702SOL    MW410881   0.517   0.857   4.512  0.7005 -0.3142 -0.5884
 2703SOL     OW10882   1.798   1.166   4.899  0.4083 -0.1219 -0.0631
 2703SOL    HW210883   1.884   1.208   4.900  0.6639 -0.6090  2.7782
 2703SOL    HW310884   1.816   1.077   4.869  1.1743 -0.6834  1.9540
 2703SOL    MW410885   1.812   1.160   4.895  0.5431 -0.2602  0.5774
 2704SOL     OW10886   0.682   1.290   4.345 -0.3034  0.2993  0.4339
 2704SOL    HW210887   0.675   1.216   4.406 -1.2513  0.8562  1.0139
 2704SOL    HW310888   0.707   1.364   4.401 -1.3639  0.8532  0.1838
 2704SOL    MW410889   0.684   1.290   4.361 -0.5684  0.4458  0.4778
 2705SOL     OW10890   1.187   2.325   4.595 -0.2456  0.2905  0.0598
 2705SOL    HW210891   1.274   2.294   4.620  0.2098  1.0189 -0.5994
 2705SOL    HW310892   1.203   2.410   4.554 -1.4941  1.4938  1.9970
 2705SOL    MW410893   1.201   2.332   4.593 -0.3504  0.5453  0.2289
 2706SOL     OW10894   1.472   2.538   4.669 -0.2741 -0.3094  0.0986
 2706SOL    HW210895   1.460   2.446   4.693  0.5736 -0.6894 -0.8973
 2706SOL    HW310896   1.404   2.554   4.604  0.0092 -0.4426 -0.2387
 2706SOL    MW410897   1.462   2.528   4.663 -0.1249 -0.3772 -0.0777
 2707SOL     OW10898   1.702   2.921   4.679  0.0342  0.2347 -0.3153
 2707SOL    HW210899   1.793   2.931   4.649 -0.1499 -1.5054 -1.4966
 2707SOL    HW310900   1.704   2.844   4.736 -0.8395 -0.2328 -0.9122
 2707SOL    MW410901   1.714   2.912   4.683 -0.1054 -0.0567 -0.5498
 2708SOL     OW10902   1.548   3.497   4.541 -0.5891 -0.4030 -0.1387
 2708SOL    HW210903   1.611   3.568   4.553  0.3031 -0.7143 -2.5724
 2708SOL    HW310904   1.586   3.423   4.589 -0.1709  0.0164  0.1866
 2708SOL    MW410905   1.562   3.496   4.549 -0.4163 -0.3886 -0.4168
 2709SOL     OW10906   0.689   2.886   4.528  0.5743 -0.0678  0.3923
 2709SOL    HW210907   0.742   2.808   4.541 -0.3231 -0.9339 -0.9918
 2709SOL    HW310908   0.601   2.860   4.553  0.0089  0.0667 -1.3604
 2709SOL    MW410909   0.685   2.872   4.533  0.3813 -0.1643 -0.0219
 2710SOL     OW10910   0.626   3.920   4.580 -0.3703 -0.0576  0.0283
 2710SOL    HW210911   0.721   3.936   4.575 -0.2306 -0.9483 -0.2841
 2710SOL    HW310912   0.586   4.004   4.558  0.3542  0.5056  0.8351
 2710SOL    MW410913   0.634   3.933   4.577 -0.2564 -0.1009  0.0939
 2711SOL     OW10914   1.360   2.875   4.587  0.1338  0.3242  0.5050
 2711SOL    HW210915   1.428   2.830   4.537  1.1781  2.0402  0.3392
 2711SOL    HW310916   1.386   2.863   4.678  0.0330  0.0238  0.4960
 2711SOL    MW410917   1.373   2.867   4.592  0.2583  0.5109  0.4816
 2712SOL     OW10918   0.650   3.141   4.437  0.4160 -0.0716  0.2551
 2712SOL    HW210919   0.569   3.159   4.485  1.4710  0.9891  1.6775
 2712SOL    HW310920   0.669   3.049   4.454 -0.4968 -0.3411 -0.1258
 2712SOL    MW410921   0.642   3.132   4.446  0.4348  0.0329  0.3929
 2713SOL     OW10922   1.787   3.653   4.555  0.1445  0.2234  0.2584
 2713SOL    HW210923   1.808   3.746   4.546  1.1616  0.1207  1.4096
 2713SOL    HW310924   1.870   3.608   4.543 -0.2358 -0.5011  0.3101
 2713SOL    MW410925   1.801   3.659   4.553  0.2286  0.1142  0.4177
 2714SOL     OW10926   0.224   3.343   4.684 -0.1850 -0.4931 -0.0895
 2714SOL    HW210927   0.263   3.375   4.765  0.3719 -0.1696 -0.4751
 2714SOL    HW310928   0.274   3.387   4.615 -2.0868  0.9206 -0.6063
 2714SOL    MW410929   0.236   3.353   4.685 -0.3625 -0.2639 -0.2084
 2715SOL     OW10930   0.501   4.167   4.516 -0.0406  0.2003  0.0448
 2715SOL    HW210931   0.577   4.220   4.492  2.1344 -2.1835  1.2757
 2715SOL    HW310932   0.474   4.125   4.435  0.9954 -0.1604 -0.1253
 2715SOL    MW410933   0.507   4.168   4.502  0.3830 -0.1621  0.1845
 2716SOL     OW10934   0.862   4.052   4.526  0.1057 -0.0295  0.1248
 2716SOL    HW210935   0.813   4.133   4.534 -1.8271 -1.2743  1.4373
 2716SOL    HW310936   0.855   4.028   4.434  1.3842  1.7042 -0.4256
 2716SOL    MW410937   0.855   4.059   4.515  0.0193  0.0348  0.2251
 2717SOL     OW10938   0.933   4.559   4.623  0.1887  0.1326 -0.0443
 2717SOL    HW210939   0.991   4.487   4.598  1.2864  1.1145 -0.4248
 2717SOL    HW310940   0.925   4.552   4.718  0.9638 -0.0146  0.0192
 2717SOL    MW410941   0.940   4.549   4.632  0.4358  0.2427 -0.0863
 2718SOL     OW10942   1.835   4.278   4.604  0.2086  0.8102  0.2954
 2718SOL    HW210943   1.824   4.368   4.637  1.4077  0.9686  0.2983
 2718SOL    HW310944   1.922   4.277   4.566 -0.2484 -0.0502 -0.7445
 2718SOL    MW410945   1.845   4.290   4.604  0.3065  0.7176  0.1583
 2719SOL     OW10946   1.573   4.263   4.509 -0.0462 -0.4723 -0.7083
 2719SOL    HW210947   1.664   4.275   4.536  0.1884 -1.3554 -1.0852
 2719SOL    HW310948   1.574   4.280   4.415 -0.7929  2.2385 -0.2634
 2719SOL    MW410949   1.585   4.267   4.500 -0.1137 -0.2317 -0.6995
 2720SOL     OW10950   1.085   4.335   4.548  0.3436  0.4699 -0.1845
 2720SOL    HW210951   1.090   4.260   4.606  1.5618  0.9464  0.3411
 2720SOL    HW310952   1.079   4.297   4.460  1.0167 -0.2445  0.0714
 2720SOL    MW410953   1.085   4.320   4.544  0.5932  0.4377 -0.0811
 2721SOL     OW10954   0.749   1.045   4.479 -0.8835 -0.1879 -0.0895
 2721SOL    HW210955   0.794   1.003   4.405 -1.2074  1.8859 -1.5016
 2721SOL    HW310956   0.700   0.974   4.520 -0.9386 -1.3276 -2.0488
 2721SOL    MW410957   0.748   1.030   4.474 -0.9335 -0.0646 -0.5345
 2722SOL     OW10958   1.831   4.545   4.697  0.1395  0.0093 -0.0538
 2722SOL    HW210959   1.860   4.589   4.617 -0.2976  1.2342  0.4393
 2722SOL    HW310960   1.893   4.575   4.764  0.7487 -1.3338 -0.0152
 2722SOL    MW410961   1.843   4.555   4.695  0.1622 -0.0057  0.0157
 2723SOL     OW10962   1.285   0.586   4.556 -0.2437 -0.8226  0.3664
 2723SOL    HW210963   1.207   0.565   4.607 -1.6259  1.3168 -0.7893
 2723SOL    HW310964   1.293   0.681   4.562  2.7773 -1.0577  1.1428
 2723SOL    MW410965   1.276   0.596   4.564 -0.0274 -0.5714  0.3161
 2724SOL     OW10966   1.875   1.386   4.419 -0.3031  0.6006  0.3654
 2724SOL    HW210967   1.814   1.454   4.390 -1.1176 -0.3185 -0.1159
 2724SOL    HW310968   1.948   1.393   4.358 -0.5159  0.8546  0.1353
 2724SOL    MW410969   1.876   1.396   4.407 -0.4387  0.5128  0.2718
 2725SOL     OW10970   0.421   0.647   4.666 -0.0667  0.2719 -0.0241
 2725SOL    HW210971   0.474   0.582   4.618 -0.1193 -0.2341  0.5869
 2725SOL    HW310972   0.333   0.635   4.632 -0.1770 -0.3554  0.4686
 2725SOL    MW410973   0.417   0.637   4.655 -0.0882  0.1224  0.1216
 2726SOL     OW10974   1.929   0.386   4.461 -0.4774  0.1233 -0.0906
 2726SOL    HW210975   2.005   0.333   4.485 -0.3691  0.4463  0.2900
 2726SOL    HW310976   1.855   0.326   4.470 -0.3060 -0.0929 -0.1144
 2726SOL    MW410977   1.929   0.371   4.465 -0.4405  0.1374 -0.0439
 2727SOL     OW10978   1.315   0.867   4.585 -0.3266  0.1478 -0.3406
 2727SOL    HW210979   1.260   0.885   4.661  0.2507 -0.6962  0.2950
 2727SOL    HW310980   1.398   0.909   4.606  0.0684 -0.6952 -0.1633
 2727SOL    MW410981   1.319   0.875   4.598 -0.1985 -0.0747 -0.2332
 2728SOL     OW10982   1.134   1.358   4.537 -0.2475  0.1778 -0.2216
 2728SOL    HW210983   1.059   1.304   4.563 -0.9739  0.5414 -1.5353
 2728SOL    HW310984   1.208   1.320   4.585 -1.1791 -0.4848  0.7152
 2728SOL    MW410985   1.134   1.346   4.546 -0.4662  0.1383 -0.2713
 2729SOL     OW10986   1.580   2.780   4.488  0.2586 -0.0746  0.2313
 2729SOL    HW210987   1.640   2.822   4.550 -0.5828 -1.2265  1.8482
 2729SOL    HW310988   1.606   2.688   4.489  1.8330  0.2502 -2.9940
 2729SOL    MW410989   1.592   2.774   4.496  0.3551 -0.1838  0.0196
 2730SOL     OW10990   1.677   2.529   4.486 -0.4775  0.7023 -0.0813
 2730SOL    HW210991   1.602   2.502   4.539 -1.2202  1.2080 -0.8819
 2730SOL    HW310992   1.749   2.537   4.550 -1.0372  0.0290  0.6543
 2730SOL    MW410993   1.677   2.526   4.502 -0.6493  0.6802 -0.0896
 2731SOL     OW10994   0.871   2.376   4.522  0.1817  0.0589 -0.0128
 2731SOL    HW210995   0.958   2.346   4.547  0.3933  1.1251  0.5536
 2731SOL    HW310996   0.879   2.400   4.430  0.0673 -1.3741 -0.4107
 2731SOL    MW410997   0.883   2.376   4.513  0.1945  0.0105  0.0095
 2732SOL     OW10998   1.155   3.880   4.831 -0.7518  0.1479 -0.5100
 2732SOL    HW210999   1.111   3.827   4.765 -1.2400 -1.2005  0.8351
 2732SOL    HW311000   1.148   3.827   4.911  1.5726  0.8073  0.1596
 2732SOL    MW411001   1.148   3.866   4.833 -0.5095  0.0572 -0.2441
 2733SOL     OW11002   1.295   2.547   4.473 -0.0217  0.2407  0.2080
 2733SOL    HW211003   1.303   2.530   4.379 -0.9825  0.3233  0.1108
 2733SOL    HW311004   1.228   2.615   4.480  0.0807  0.2722  0.9538
 2733SOL    MW411005   1.287   2.554   4.462 -0.1349  0.2558  0.2942
 2734SOL     OW11006   1.121   2.764   4.504 -0.1791 -0.1919 -0.3720
 2734SOL    HW211007   1.180   2.834   4.532  0.5190 -0.9901  0.2184
 2734SOL    HW311008   1.093   2.788   4.416 -2.1653  2.2391  0.8817
 2734SOL    MW411009   1.125   2.776   4.496 -0.3490  0.0236 -0.1287
 2735SOL     OW11010   1.652   3.242   4.613 -0.1265  0.1152 -0.2565
 2735SOL    HW211011   1.740   3.252   4.576  0.4638 -1.7378  0.5673
 2735SOL    HW311012   1.659   3.165   4.670 -2.8959 -1.5796 -2.0648
 2735SOL    MW411013   1.665   3.233   4.616 -0.4140 -0.3529 -0.3862
 2736SOL     OW11014   1.302   3.649   4.504 -0.3152 -0.3858  0.2944
 2736SOL    HW211015   1.384   3.610   4.535 -1.4382 -1.4108  2.0355
 2736SOL    HW311016   1.278   3.596   4.428  0.1289 -0.7066  0.3744
 2736SOL    MW411017   1.310   3.637   4.498 -0.4048 -0.5634  0.5345
 2737SOL     OW11018   0.650   3.638   4.590  0.3620  0.3367  0.0727
 2737SOL    HW211019   0.636   3.733   4.588  1.3234  0.4680 -1.5325
 2737SOL    HW311020   0.732   3.627   4.638  0.5885  0.3521 -0.3157
 2737SOL    MW411021   0.659   3.649   4.596  0.5187  0.3562 -0.1907
 2738SOL     OW11022   2.029   3.481   4.498  0.0479 -0.1898 -0.0095
 2738SOL    HW211023   2.049   3.489   4.405 -0.6113 -0.6907 -0.1977
 2738SOL    HW311024   2.002   3.389   4.510  0.4970 -0.2340  0.7446
 2738SOL    MW411025   2.028   3.470   4.488  0.0203 -0.2618  0.0653
 2739SOL     OW11026   1.914   3.216   4.536  0.2392  0.0442 -0.0866
 2739SOL    HW211027   1.929   3.127   4.567 -1.1197 -0.1135  0.1720
 2739SOL    HW311028   1.896   3.205   4.442  3.6316  0.4446 -0.8430
 2739SOL    MW411029   1.913   3.203   4.528  0.5076  0.0763 -0.1521
 2740SOL     OW11030   2.613   3.117   4.935  0.1324 -0.0729 -0.3485
 2740SOL    HW211031   2.594   3.203   4.974  0.4042 -0.1462 -0.0511
 2740SOL    HW311032   2.596   3.129   4.842  0.7914  0.4884 -0.4021
 2740SOL    MW411033   2.608   3.130   4.928  0.2551 -0.0083 -0.3161
 2741SOL     OW11034   1.095   4.097   4.687  0.0347  0.0058  0.1912
 2741SOL    HW211035   1.012   4.071   4.647  0.3730 -0.8438  0.0445
 2741SOL    HW311036   1.127   4.019   4.731  1.2572  0.0384 -0.6043
 2741SOL    MW411037   1.088   4.083   4.687  0.2407 -0.1025  0.0668
 2742SOL     OW11038   2.054   4.569   4.874 -0.4233  0.2617  0.1316
 2742SOL    HW211039   2.069   4.476   4.860  1.5738  0.6100 -0.2946
 2742SOL    HW311040   2.046   4.578   4.969 -0.9506 -0.3731  0.1525
 2742SOL    MW411041   2.055   4.558   4.885 -0.2294  0.2241  0.0782
 2743SOL     OW11042   2.162   0.241   4.458 -0.1104  0.4270  0.3196
 2743SOL    HW211043   2.237   0.298   4.478  0.3317 -0.2060  0.4708
 2743SOL    HW311044   2.187   0.198   4.376 -0.0812 -0.1799  0.6472
 2743SOL    MW411045   2.175   0.243   4.450 -0.0484  0.2634  0.3824
 2744SOL     OW11046   1.590   4.662   4.574  0.1900 -0.4835 -0.1365
 2744SOL    HW211047   1.658   4.618   4.625 -0.4555 -2.8353 -1.2282
 2744SOL    HW311048   1.510   4.614   4.595 -0.6029  0.4019 -1.0956
 2744SOL    MW411049   1.588   4.649   4.583  0.0002 -0.6771 -0.4072
 2745SOL     OW11050   1.696   0.217   4.467 -0.0625 -0.4481 -0.0839
 2745SOL    HW211051   1.654   0.148   4.518 -0.6442  1.5454  2.2420
 2745SOL    HW311052   1.644   0.295   4.485  0.8977  0.7328 -2.2172
 2745SOL    MW411053   1.684   0.218   4.476 -0.0126 -0.0293 -0.0587
 2746SOL     OW11054   2.241   0.014   4.658  0.0660 -0.2640  0.4204
 2746SOL    HW211055   2.204   0.086   4.606  1.7614  1.7487  1.9194
 2746SOL    HW311056   2.170  -0.014   4.715 -0.8338 -0.2980 -0.7006
 2746SOL    MW411057   2.227   0.020   4.658  0.1707 -0.0029  0.4706
 2747SOL     OW11058   1.922   0.645   4.512  0.0036 -0.5054  0.5064
 2747SOL    HW211059   1.919   0.550   4.505 -2.1128 -0.4947  0.9814
 2747SOL    HW311060   1.835   0.675   4.484  1.1415  1.4013 -1.1327
 2747SOL    MW411061   1.910   0.636   4.508 -0.1255 -0.2524  0.3524
 2748SOL     OW11062   1.519   0.462   4.482 -0.0595  0.1852  0.4135
 2748SOL    HW211063   1.574   0.540   4.494  0.1893 -0.1465  1.4394
 2748SOL    HW311064   1.437   0.483   4.527 -1.2212  1.0953 -1.9921
 2748SOL    MW411065   1.516   0.475   4.490 -0.1800  0.2615  0.2313
 2749SOL     OW11066   2.205   1.252   4.593 -0.1480 -0.2655 -0.1666
 2749SOL    HW211067   2.293   1.215   4.585  0.2513  0.9140 -1.4505
 2749SOL    HW311068   2.211   1.338   4.551 -2.2558 -0.7495 -1.5516
 2749SOL    MW411069   2.217   1.258   4.586 -0.3731 -0.1737 -0.5188
 2750SOL     OW11070   1.128   2.048   4.547  0.7296  0.3167  0.4024
 2750SOL    HW211071   1.206   1.995   4.556  1.6758  1.6529  0.2260
 2750SOL    HW311072   1.158   2.138   4.557 -0.6831  0.8932 -0.2682
 2750SOL    MW411073   1.142   2.053   4.549  0.6682  0.5689  0.2904
 2751SOL     OW11074   1.733   1.159   4.486  0.0300 -0.0045 -0.8151
 2751SOL    HW211075   1.774   1.236   4.447  0.3662  0.5350  0.5907
 2751SOL    HW311076   1.679   1.194   4.556 -1.0936 -0.9139 -1.2115
 2751SOL    MW411077   1.731   1.174   4.490 -0.0739 -0.0534 -0.6819
 2752SOL     OW11078   1.335   1.871   4.601  0.4356  0.2257  0.3910
 2752SOL    HW211079   1.268   1.805   4.583 -0.7230  1.4523  0.1764
 2752SOL    HW311080   1.411   1.842   4.550 -0.4125 -0.3477 -0.5617
 2752SOL    MW411081   1.336   1.858   4.592  0.1708  0.3119  0.2370
 2753SOL     OW11082   1.493   2.011   4.785 -0.0073 -0.1628  0.2498
 2753SOL    HW211083   1.573   2.003   4.734 -0.0656  1.0847 -0.0559
 2753SOL    HW311084   1.424   1.982   4.726  0.3196 -2.3222  0.8861
 2753SOL    MW411085   1.495   2.006   4.770  0.0283 -0.2830  0.2933
 2754SOL     OW11086   2.171   1.486   4.456  0.2604 -0.1493  0.4831
 2754SOL    HW211087   2.185   1.545   4.530 -1.2668  0.9716 -0.1016
 2754SOL    HW311088   2.245   1.503   4.398  0.3778  0.4336  0.8037
 2754SOL    MW411089   2.183   1.496   4.458  0.0746  0.0755  0.4482
 2755SOL     OW11090   1.625   2.465   4.215  0.1735 -0.2450  0.1364
 2755SOL    HW211091   1.656   2.375   4.213  0.4643 -0.1349 -0.4596
 2755SOL    HW311092   1.648   2.496   4.303 -0.6288 -0.9897  0.6195
 2755SOL    MW411093   1.632   2.457   4.226  0.1060 -0.3288  0.1221
 2756SOL     OW11094   2.013   2.732   4.453 -0.5414 -0.0997 -0.2773
 2756SOL    HW211095   1.981   2.657   4.502  2.1954 -0.9637  0.3073
 2756SOL    HW311096   1.983   2.717   4.363 -0.5354 -1.5847 -0.0371
 2756SOL    MW411097   2.005   2.720   4.447 -0.1793 -0.4096 -0.1688
 2757SOL     OW11098   1.958   2.943   4.609 -0.3374 -0.0593  0.2844
 2757SOL    HW211099   2.035   2.944   4.667 -0.9606 -0.3575  1.1140
 2757SOL    HW311100   1.980   2.878   4.542 -0.3589 -1.0129  1.1898
 2757SOL    MW411101   1.971   2.935   4.608 -0.4225 -0.2244  0.5136
 2758SOL     OW11102   1.327   4.132   4.467  0.1329 -0.0570 -0.3301
 2758SOL    HW211103   1.416   4.160   4.485 -0.5207  2.2454 -0.4412
 2758SOL    HW311104   1.291   4.108   4.552  0.5443 -0.0201 -0.1446
 2758SOL    MW411105   1.334   4.133   4.480  0.1009  0.2518 -0.3200
 2759SOL     OW11106   2.292   3.192   4.591  0.1701 -0.4958 -0.7133
 2759SOL    HW211107   2.280   3.195   4.496  0.7394 -0.4345 -0.7879
 2759SOL    HW311108   2.231   3.125   4.621 -1.4046  0.7972 -0.8923
 2759SOL    MW411109   2.282   3.184   4.582  0.0374 -0.3171 -0.7463
 2760SOL     OW11110   1.069   3.749   4.604  0.0949 -0.1153 -0.0392
 2760SOL    HW211111   1.150   3.718   4.563  0.5072  1.1385 -0.1880
 2760SOL    HW311112   1.016   3.782   4.531  0.5139  1.4087  0.3283
 2760SOL    MW411113   1.073   3.749   4.589  0.2046  0.2511 -0.0105
 2761SOL     OW11114   2.504   3.643   4.556 -0.4049  0.5875 -0.3783
 2761SOL    HW211115   2.423   3.594   4.568 -0.3697  0.8973  1.2939
 2761SOL    HW311116   2.477   3.735   4.564  0.3234  0.6399  1.6766
 2761SOL    MW411117   2.489   3.649   4.559 -0.3040  0.6354  0.1130
 2762SOL     OW11118   2.161   3.999   4.479  0.6680  0.1172  0.2489
 2762SOL    HW211119   2.177   4.000   4.385  1.1342  0.4549  0.3288
 2762SOL    HW311120   2.069   3.974   4.488  0.3777  0.9592 -0.3285
 2762SOL    MW411121   2.151   3.996   4.468  0.6914  0.2725  0.1831
 2763SOL     OW11122   2.285   3.475   4.578  0.2390 -0.1074 -0.2164
 2763SOL    HW211123   2.200   3.473   4.535  1.1845 -0.6596 -2.1103
 2763SOL    HW311124   2.293   3.389   4.619  0.7448 -0.8298 -1.7931
 2763SOL    MW411125   2.275   3.463   4.578  0.4306 -0.2756 -0.6742
 2764SOL     OW11126   1.877   3.951   4.468 -0.2486 -0.0547  0.2852
 2764SOL    HW211127   1.819   4.018   4.507 -0.5651  0.0096 -0.2912
 2764SOL    HW311128   1.861   3.958   4.374  2.4410  1.5978 -0.1028
 2764SOL    MW411129   1.867   3.961   4.461  0.0646  0.1719  0.1578
 2765SOL     OW11130   2.026   4.308   4.844 -0.4544  0.0507  0.3630
 2765SOL    HW211131   2.073   4.230   4.875  1.9391  0.6292 -1.6567
 2765SOL    HW311132   1.973   4.276   4.771  1.0292  0.3936 -0.8917
 2765SOL    MW411133   2.025   4.293   4.838  0.0572  0.1726 -0.0687
 2766SOL     OW11134   1.980   4.659   4.495 -0.1425 -0.0151 -0.5296
 2766SOL    HW211135   2.009   4.751   4.498  0.1785 -0.0666 -1.8289
 2766SOL    HW311136   2.057   4.609   4.523 -0.3727  0.1088  0.3570
 2766SOL    MW411137   1.994   4.665   4.499 -0.1305 -0.0052 -0.5836
 2767SOL     OW11138   2.080   4.268   4.494 -0.2082 -0.2027 -0.4717
 2767SOL    HW211139   2.119   4.184   4.471 -0.0025  0.2931 -2.0103
 2767SOL    HW311140   2.152   4.331   4.487 -0.3771  0.1099  0.5792
 2767SOL    MW411141   2.094   4.266   4.490 -0.2031 -0.0963 -0.5360
 2768SOL     OW11142   2.255   4.474   4.465  0.1602 -0.1451 -0.0937
 2768SOL    HW211143   2.324   4.431   4.413  0.7622  0.3285  0.3080
 2768SOL    HW311144   2.302   4.536   4.520 -0.5900  0.1328  0.2358
 2768SOL    MW411145   2.271   4.476   4.465  0.1407 -0.0458  0.0029
 2769SOL     OW11146   1.584   1.266   4.696 -0.2594 -0.0101  0.3334
 2769SOL    HW211147   1.583   1.362   4.691 -0.6182  0.0463  1.3692
 2769SOL    HW311148   1.643   1.246   4.768 -0.0538 -0.5780  0.0090
 2769SOL    MW411149   1.591   1.276   4.705 -0.2795 -0.0776  0.4272
 2770SOL     OW11150   2.665   0.104   4.475 -1.1879 -0.0110  0.3829
 2770SOL    HW211151   2.652   0.198   4.485 -1.0849  0.0654 -0.2017
 2770SOL    HW311152   2.673   0.090   4.381  1.5407 -0.2528  0.6068
 2770SOL    MW411153   2.664   0.114   4.464 -0.8142 -0.0328  0.3357
 2771SOL     OW11154   2.385   0.702   4.488 -0.3399  0.0207 -0.1330
 2771SOL    HW211155   2.308   0.758   4.499 -1.3287 -0.6673 -3.0490
 2771SOL    HW311156   2.457   0.762   4.469 -0.5073  0.5713  0.9890
 2771SOL    MW411157   2.384   0.717   4.487 -0.4926  0.0026 -0.3695
 2772SOL     OW11158   2.834   0.674   4.601 -0.0553  0.1579  0.1020
 2772SOL    HW211159   2.889   0.736   4.554 -0.2733  0.4596  0.2411
 2772SOL    HW311160   2.880   0.590   4.594  1.2090  0.7131  1.5359
 2772SOL    MW411161   2.847   0.671   4.594  0.0830  0.2709  0.3090
 2773SOL     OW11162   2.106   1.369   4.838 -0.1574 -0.1410 -0.3850
 2773SOL    HW211163   2.048   1.430   4.792 -0.6667 -0.3918 -0.0802
 2773SOL    HW311164   2.134   1.307   4.771 -0.7429 -0.3916 -0.4057
 2773SOL    MW411165   2.102   1.369   4.823 -0.3018 -0.2071 -0.3476
 2774SOL     OW11166   2.403   1.526   4.310  0.2995 -0.0845 -0.2755
 2774SOL    HW211167   2.451   1.559   4.386  1.1865 -1.0397 -0.4082
 2774SOL    HW311168   2.460   1.546   4.236 -0.7065  1.1373 -0.7459
 2774SOL    MW411169   2.417   1.533   4.310  0.2840 -0.0492 -0.3552
 2775SOL     OW11170   2.547   1.585   4.546  0.0586  0.0074 -0.3659
 2775SOL    HW211171   2.611   1.655   4.559  0.0684  0.1509 -1.2069
 2775SOL    HW311172   2.470   1.613   4.596  0.4777  0.0519  0.2662
 2775SOL    MW411173   2.545   1.598   4.555  0.1152  0.0322 -0.3934
 2776SOL     OW11174   2.332   1.840   4.419 -0.4254  0.7318 -0.2211
 2776SOL    HW211175   2.329   1.933   4.398  1.0237  0.7991 -0.1958
 2776SOL    HW311176   2.358   1.836   4.511  0.9718  0.2959 -0.6159
 2776SOL    MW411177   2.335   1.852   4.428 -0.0496  0.6831 -0.2704
 2777SOL     OW11178   1.683   2.178   4.507 -0.3625  0.6842 -0.3377
 2777SOL    HW211179   1.736   2.103   4.534 -1.0318  0.2782 -0.1361
 2777SOL    HW311180   1.746   2.241   4.472  0.3121  0.4577  0.4732
 2777SOL    MW411181   1.698   2.177   4.506 -0.3619  0.6008 -0.2046
 2778SOL     OW11182   2.295   2.104   4.343 -0.0529  0.2729 -0.4477
 2778SOL    HW211183   2.326   2.157   4.416 -0.4252  0.8014 -0.6788
 2778SOL    HW311184   2.354   2.125   4.271  1.7390 -1.8966  0.2865
 2778SOL    MW411185   2.307   2.114   4.344  0.1340  0.0565 -0.3810
 2779SOL     OW11186   2.294   2.716   4.380 -0.4319 -0.3698 -0.0577
 2779SOL    HW211187   2.205   2.724   4.412 -0.6823 -1.0536 -0.5687
 2779SOL    HW311188   2.306   2.623   4.364 -0.1694 -0.1008 -1.5061
 2779SOL    MW411189   2.284   2.705   4.382 -0.4301 -0.4244 -0.3161
 2780SOL     OW11190   1.705   2.679   4.785 -0.2771 -0.2265  0.1797
 2780SOL    HW211191   1.783   2.630   4.761 -0.4380 -0.7884  0.8029
 2780SOL    HW311192   1.632   2.621   4.761 -0.4817 -0.0770  0.4425
 2780SOL    MW411193   1.705   2.665   4.779 -0.3252 -0.2809  0.2961
 2781SOL     OW11194   1.696   2.694   4.076  0.6841 -0.1004  0.3985
 2781SOL    HW211195   1.667   2.607   4.102  1.5483 -0.3835  0.4254
 2781SOL    HW311196   1.622   2.751   4.097  0.3090 -0.7508  0.8611
 2781SOL    MW411197   1.683   2.690   4.082  0.7486 -0.2236  0.4630
 2782SOL     OW11198   2.346   2.337   4.532  0.3726 -0.0978 -0.4922
 2782SOL    HW211199   2.350   2.390   4.452 -0.1104 -1.3527 -1.3721
 2782SOL    HW311200   2.259   2.352   4.567  0.2115 -0.3492 -0.7791
 2782SOL    MW411201   2.335   2.346   4.526  0.2875 -0.2964 -0.6461
 2783SOL     OW11202   2.676   2.895   4.492 -0.2020  0.5633  0.1600
 2783SOL    HW211203   2.771   2.888   4.501 -0.1857  1.0903  0.4105
 2783SOL    HW311204   2.647   2.937   4.573 -0.6486  0.3985  0.0886
 2783SOL    MW411205   2.685   2.900   4.504 -0.2589  0.6108  0.1836
 2784SOL     OW11206   1.723   4.520   4.376  0.2453 -0.1056 -0.1304
 2784SOL    HW211207   1.803   4.570   4.362 -0.3602  0.7352 -0.6384
 2784SOL    HW311208   1.671   4.574   4.434 -0.8912  0.3918 -1.5838
 2784SOL    MW411209   1.727   4.534   4.381  0.0155  0.0715 -0.3891
 2785SOL     OW11210   2.667   4.065   4.535 -0.3056 -0.0273  0.3262
 2785SOL    HW211211   2.645   4.158   4.541 -0.1887 -0.0066  0.4109
 2785SOL    HW311212   2.676   4.049   4.441 -0.2138  0.0708  0.3191
 2785SOL    MW411213   2.665   4.075   4.523 -0.2780 -0.0119  0.3362
 2786SOL     OW11214   2.412   3.899   4.568 -0.2205  0.4940 -0.2750
 2786SOL    HW211215   2.469   3.976   4.561 -0.3351  0.6980  0.9301
 2786SOL    HW311216   2.328   3.930   4.534  0.2008  0.3629 -1.4962
 2786SOL    MW411217   2.408   3.913   4.562 -0.1800  0.5035 -0.2775
 2787SOL     OW11218   3.492   4.039   4.878 -0.0578 -0.2668  0.2399
 2787SOL    HW211219   3.420   4.097   4.854 -0.6620 -0.5208  1.4022
 2787SOL    HW311220   3.495   4.043   4.974  0.8713 -0.9733  0.2444
 2787SOL    MW411221   3.483   4.047   4.888 -0.0148 -0.3934  0.3939
 2788SOL     OW11222   3.096   3.959   4.511  0.0303 -0.1658  0.0107
 2788SOL    HW211223   3.007   3.929   4.530  0.0534  0.6962  1.6011
 2788SOL    HW311224   3.151   3.912   4.575  0.2321  2.1498  1.6040
 2788SOL    MW411225   3.092   3.949   4.522  0.0598  0.2532  0.4311
 2789SOL     OW11226   2.505   4.580   4.624 -0.2078 -0.2627 -0.6177
 2789SOL    HW211227   2.434   4.637   4.653 -0.4282 -0.1214 -1.4229
 2789SOL    HW311228   2.572   4.640   4.592  0.5592 -0.3703  0.7625
 2789SOL    MW411229   2.504   4.595   4.623 -0.1359 -0.2584 -0.5417
 2790SOL     OW11230   2.630   4.342   4.531 -0.0267  0.5325 -0.1160
 2790SOL    HW211231   2.574   4.372   4.459 -0.8444 -1.1246 -0.2018
 2790SOL    HW311232   2.610   4.402   4.603 -1.3010  0.4952 -0.4154
 2790SOL    MW411233   2.620   4.354   4.531 -0.3028  0.3085 -0.1664
 2791SOL     OW11234   2.971   0.419   4.515  0.3974  0.3919  0.4451
 2791SOL    HW211235   2.952   0.450   4.426  0.5432  1.0183  0.6313
 2791SOL    HW311236   3.064   0.394   4.513  0.0571 -0.8827  0.0527
 2791SOL    MW411237   2.981   0.419   4.503  0.3717  0.3064  0.4172
 2792SOL     OW11238   2.895   0.157   4.628  0.0488  0.1035 -0.7224
 2792SOL    HW211239   2.907   0.245   4.593 -1.2887  0.0048 -1.4621
 2792SOL    HW311240   2.815   0.125   4.587 -1.0007 -0.4147  1.6236
 2792SOL    MW411241   2.886   0.164   4.618 -0.2663  0.0221 -0.5107
 2793SOL     OW11242   3.084   4.639   4.528 -0.3955  0.2006  0.1117
 2793SOL    HW211243   3.046   4.712   4.577 -1.8356 -0.4007 -0.0923
 2793SOL    HW311244   3.026   4.565   4.545  1.0524 -0.9254  0.3254
 2793SOL    MW411245   3.071   4.639   4.536 -0.3946 -0.0267  0.1135
 2794SOL     OW11246   2.628   0.881   4.502 -0.5645 -0.2979 -0.6607
 2794SOL    HW211247   2.687   0.819   4.545 -1.2026 -0.8862 -0.6181
 2794SOL    HW311248   2.655   0.879   4.410 -0.2622 -0.2685 -0.5743
 2794SOL    MW411249   2.639   0.872   4.495 -0.6089 -0.3716 -0.6437
 2795SOL     OW11250   3.464   0.632   4.602  0.2611  0.4110  0.1263
 2795SOL    HW211251   3.524   0.687   4.551  0.5790  0.6489  0.7498
 2795SOL    HW311252   3.509   0.619   4.686 -1.2579  1.8661  1.1879
 2795SOL    MW411253   3.478   0.637   4.606  0.1028  0.6343  0.3490
 2796SOL     OW11254   1.976   1.077   4.579  0.0017  0.0049 -0.5404
 2796SOL    HW211255   1.902   1.110   4.528 -0.9160  1.6945  1.8078
 2796SOL    HW311256   2.039   1.149   4.579 -0.8606  0.8235  2.3207
 2796SOL    MW411257   1.974   1.091   4.572 -0.2333  0.3358  0.1469
 2797SOL     OW11258   2.463   1.121   4.528 -0.0777 -0.0567  0.5191
 2797SOL    HW211259   2.515   1.041   4.516  0.2024  0.2952 -0.6883
 2797SOL    HW311260   2.464   1.163   4.442  0.8961  1.9390  1.4861
 2797SOL    MW411261   2.470   1.116   4.515  0.0877  0.2531  0.4878
 2798SOL     OW11262   2.900   1.380   4.490  0.0833 -0.1388 -0.0928
 2798SOL    HW211263   2.818   1.358   4.534 -0.0856  1.1824  0.2739
 2798SOL    HW311264   2.881   1.368   4.397 -0.7937  0.9846 -0.0719
 2798SOL    MW411265   2.887   1.375   4.484 -0.0548  0.1838 -0.0415
 2799SOL     OW11266   2.976   1.681   4.481 -0.4614  0.0123  0.5351
 2799SOL    HW211267   2.901   1.724   4.524 -2.6615 -1.0177 -2.1236
 2799SOL    HW311268   2.958   1.587   4.490  0.3966 -0.2369 -0.2829
 2799SOL    MW411269   2.964   1.674   4.488 -0.6385 -0.1564  0.0763
 2800SOL     OW11270   2.698   1.819   4.531  0.3530 -0.4362  0.0871
 2800SOL    HW211271   2.716   1.910   4.556 -2.9289 -0.1463  1.5999
 2800SOL    HW311272   2.669   1.825   4.440 -1.3408  0.2777  0.6435
 2800SOL    MW411273   2.697   1.832   4.522 -0.3033 -0.3037  0.3600
 2801SOL     OW11274   2.764   2.085   4.520 -0.5206 -0.1584  0.1024
 2801SOL    HW211275   2.793   2.061   4.432  0.9866  0.4811  0.4098
 2801SOL    HW311276   2.714   2.165   4.508  1.0433  0.8172  0.0101
 2801SOL    MW411277   2.761   2.092   4.507 -0.1154  0.0546  0.1311
 2802SOL     OW11278   2.645   2.416   4.241 -0.5528 -0.2544 -0.1682
 2802SOL    HW211279   2.599   2.350   4.190 -2.6432 -0.9862  2.5437
 2802SOL    HW311280   2.630   2.391   4.332  0.9444  2.4189  0.8726
 2802SOL    MW411281   2.637   2.404   4.247 -0.6311  0.0017  0.3271
 2803SOL     OW11282   2.990   2.270   4.543 -0.3881  0.1974 -0.1035
 2803SOL    HW211283   2.929   2.341   4.562 -0.5899 -0.2627  0.9729
 2803SOL    HW311284   2.937   2.190   4.548  0.0268 -0.1043 -0.4318
 2803SOL    MW411285   2.975   2.269   4.546 -0.3600  0.0970 -0.0048
 2804SOL     OW11286   1.930   2.276   4.423 -0.5601 -0.1271  0.1260
 2804SOL    HW211287   1.987   2.308   4.493 -1.9698 -0.4427  1.4459
 2804SOL    HW311288   1.954   2.183   4.414 -1.1472 -0.3695  0.9776
 2804SOL    MW411289   1.941   2.268   4.431 -0.8234 -0.2007  0.4125
 2805SOL     OW11290   3.023   3.133   4.550 -0.4278  0.5411 -0.4697
 2805SOL    HW211291   3.054   3.165   4.465  0.2277 -1.3299 -0.9443
 2805SOL    HW311292   3.098   3.144   4.608  0.1518 -1.0769 -0.8848
 2805SOL    MW411293   3.037   3.139   4.547 -0.2649  0.0811 -0.5875
 2806SOL     OW11294   2.629   2.329   4.506 -0.3878  0.2327  0.2751
 2806SOL    HW211295   2.538   2.329   4.535 -0.3282  1.6929  0.4765
 2806SOL    HW311296   2.674   2.388   4.566  0.4185  0.5872 -0.6516
 2806SOL    MW411297   2.623   2.337   4.518 -0.2735  0.4721  0.1798
 2807SOL     OW11298   2.567   3.116   4.658  0.3011  0.4634 -0.0850
 2807SOL    HW211299   2.478   3.145   4.637  1.0408  1.5332 -1.8831
 2807SOL    HW311300   2.622   3.162   4.595  1.9606 -1.4635 -0.0965
 2807SOL    MW411301   2.562   3.126   4.647  0.6175  0.3502 -0.3233
 2808SOL     OW11302   2.793   3.282   4.515 -0.3359  0.3352  0.6317
 2808SOL    HW211303   2.867   3.230   4.546 -0.4101 -0.5480 -0.6386
 2808SOL    HW311304   2.788   3.263   4.421 -1.7477  0.9273  0.5773
 2808SOL    MW411305   2.802   3.273   4.507 -0.5324  0.2971  0.4573
 2809SOL     OW11306   2.846   3.877   4.599 -0.3475 -0.1498  0.3636
 2809SOL    HW211307   2.776   3.940   4.583 -1.1088 -1.3553 -1.1053
 2809SOL    HW311308   2.808   3.792   4.576  0.7113 -1.1473  2.1813
 2809SOL    MW411309   2.832   3.874   4.594 -0.3083 -0.4404  0.4101
 2810SOL     OW11310   3.335   3.872   4.666 -0.2241 -0.3576  0.2432
 2810SOL    HW211311   3.368   3.785   4.642  0.6873 -0.1149  0.5809
 2810SOL    HW311312   3.392   3.900   4.738 -1.3002  0.0017  0.9593
 2810SOL    MW411313   3.347   3.864   4.673 -0.2458 -0.2785  0.3824
 2811SOL     OW11314   3.763   3.745   4.714  0.4468 -0.0923 -0.3451
 2811SOL    HW211315   3.855   3.754   4.689  0.0356  0.7660 -1.6462
 2811SOL    HW311316   3.726   3.687   4.647 -0.0758  0.0511 -0.1832
 2811SOL    MW411317   3.770   3.739   4.702  0.3235  0.0398 -0.4954
 2812SOL     OW11318   2.795   3.570   4.544  0.2496  0.4028  0.2634
 2812SOL    HW211319   2.700   3.578   4.558  0.0681  1.1740 -1.2681
 2812SOL    HW311320   2.811   3.476   4.551 -0.5867  0.2888  0.8075
 2812SOL    MW411321   2.784   3.558   4.546  0.1154  0.4895  0.1330
 2813SOL     OW11322   2.989   4.151   4.676  0.2680  0.6341 -0.1278
 2813SOL    HW211323   2.916   4.099   4.710 -0.6231  1.9885  0.1062
 2813SOL    HW311324   3.029   4.096   4.609  2.0966 -2.1179  3.0771
 2813SOL    MW411325   2.984   4.137   4.672  0.3915  0.4497  0.3257
 2814SOL     OW11326   2.910   4.381   4.530 -0.4225  0.1123  0.6039
 2814SOL    HW211327   2.941   4.307   4.582  0.5165  0.4964  0.5954
 2814SOL    HW311328   2.815   4.373   4.532 -0.3159 -2.1149 -0.8491
 2814SOL    MW411329   2.901   4.370   4.537 -0.2847 -0.1311  0.4110
 2815SOL     OW11330   3.264   0.434   4.512  0.0229  0.0896  0.5324
 2815SOL    HW211331   3.287   0.451   4.421  0.6633 -0.7127  0.5374
 2815SOL    HW311332   3.318   0.494   4.562  0.8830 -0.6133  0.4589
 2815SOL    MW411333   3.274   0.444   4.507  0.2210 -0.1090  0.5231
 2816SOL     OW11334   2.354   0.429   4.482 -0.0540  0.1060  0.5705
 2816SOL    HW211335   2.441   0.420   4.522 -0.5168 -0.5029  1.4525
 2816SOL    HW311336   2.334   0.522   4.489  0.9973  0.4375 -0.6389
 2816SOL    MW411337   2.363   0.440   4.488  0.0236  0.0694  0.5274
 2817SOL     OW11338   2.142   0.850   4.487  0.6437 -0.0398  0.5167
 2817SOL    HW211339   2.072   0.785   4.494  1.0274 -0.5633 -0.4104
 2817SOL    HW311340   2.106   0.928   4.528  0.0996 -0.7776  1.4603
 2817SOL    MW411341   2.128   0.852   4.493  0.6223 -0.2062  0.5188
 2818SOL     OW11342   2.633   0.395   4.525 -0.0118 -0.0099 -0.1749
 2818SOL    HW211343   2.661   0.478   4.488 -2.8380  0.7618 -0.6924
 2818SOL    HW311344   2.680   0.388   4.608  1.4556  1.3219 -0.8678
 2818SOL    MW411345   2.643   0.405   4.531 -0.1910  0.2676 -0.3347
 2819SOL     OW11346   3.268   0.834   4.501  0.2333 -0.3902 -0.2934
 2819SOL    HW211347   3.319   0.910   4.528  0.3655 -1.0465  1.3810
 2819SOL    HW311348   3.322   0.759   4.527 -0.8434 -1.0703  0.0251
 2819SOL    MW411349   3.282   0.834   4.508  0.1087 -0.5665 -0.0305
 2820SOL     OW11350   3.253   1.272   4.525  0.3814  0.3215 -0.0431
 2820SOL    HW211351   3.169   1.233   4.548  0.7457 -0.3705  0.1277
 2820SOL    HW311352   3.317   1.202   4.538  1.2517  1.3964  1.7314
 2820SOL    MW411353   3.250   1.258   4.530  0.5445  0.3721  0.2136
 2821SOL     OW11354   2.657   1.313   4.604  0.6850 -0.1995  0.6424
 2821SOL    HW211355   2.599   1.237   4.607  0.5020 -0.1088 -0.5769
 2821SOL    HW311356   2.597   1.388   4.598  0.9140 -0.1762 -2.0432
 2821SOL    MW411357   2.641   1.313   4.604  0.6912 -0.1844  0.1273
 2822SOL     OW11358   3.964   0.959   4.730  0.0838 -0.1731  0.3746
 2822SOL    HW211359   3.993   1.024   4.794 -1.3228  2.4859 -1.6072
 2822SOL    HW311360   4.043   0.934   4.683  0.5883  0.2202  1.0098
 2822SOL    MW411361   3.978   0.964   4.733 -0.0353  0.2296  0.1965
 2823SOL     OW11362   3.381   1.511   4.489 -0.1689 -0.8313  0.1415
 2823SOL    HW211363   3.331   1.590   4.510  2.0300  0.5152  0.4678
 2823SOL    HW311364   3.322   1.439   4.513 -2.9884  0.6573 -2.0115
 2823SOL    MW411365   3.366   1.512   4.495 -0.2506 -0.4573 -0.0997
 2824SOL     OW11366   3.229   1.749   4.522 -0.3811  0.2396  0.4966
 2824SOL    HW211367   3.242   1.843   4.535  1.4001  0.0269  0.2974
 2824SOL    HW311368   3.134   1.740   4.513 -0.5478  2.0635  0.1335
 2824SOL    MW411369   3.218   1.760   4.523 -0.1681  0.4522  0.4225
 2825SOL     OW11370   3.383   2.038   4.529  0.1377 -0.1027 -0.1770
 2825SOL    HW211371   3.325   2.092   4.584  1.0721 -0.0987  0.8168
 2825SOL    HW311372   3.353   2.055   4.440 -0.7692  0.6500  0.2566
 2825SOL    MW411373   3.371   2.048   4.525  0.1414 -0.0029  0.0105
 2826SOL     OW11374   3.804   1.804   4.637  0.0363 -0.3189 -0.4127
 2826SOL    HW211375   3.882   1.822   4.689  0.1752 -1.4228 -0.2198
 2826SOL    HW311376   3.756   1.886   4.636  0.5106 -0.0252  0.6424
 2826SOL    MW411377   3.808   1.817   4.644  0.1171 -0.4259 -0.2484
 2827SOL     OW11378   2.950   2.874   4.481  0.0538  0.0270 -0.1678
 2827SOL    HW211379   3.012   2.817   4.526  0.1395  0.0622 -0.2397
 2827SOL    HW311380   2.983   2.963   4.498 -0.1024  0.0563 -0.0199
 2827SOL    MW411381   2.963   2.878   4.489  0.0446  0.0355 -0.1578
 2828SOL     OW11382   3.533   2.484   4.500  0.4471 -0.1127  0.2244
 2828SOL    HW211383   3.439   2.471   4.507  0.2417  0.0191 -1.9658
 2828SOL    HW311384   3.547   2.576   4.525  0.2059 -0.5201  1.9566
 2828SOL    MW411385   3.523   2.494   4.505  0.3884 -0.1490  0.1645
 2829SOL     OW11386   3.265   2.470   4.514  0.2257  0.2058 -0.5572
 2829SOL    HW211387   3.228   2.464   4.426 -1.4753  0.0760  0.1515
 2829SOL    HW311388   3.231   2.394   4.560  1.2642  0.1685  0.1567
 2829SOL    MW411389   3.255   2.459   4.508  0.1385  0.1836 -0.3695
 2830SOL     OW11390   3.566   2.730   4.621 -0.1819  0.3760  0.2335
 2830SOL    HW211391   3.639   2.786   4.596  0.5434 -1.1515 -1.1403
 2830SOL    HW311392   3.585   2.704   4.711  0.2020  1.1635  0.3836
 2830SOL    MW411393   3.578   2.734   4.629 -0.0358  0.2782  0.0725
 2831SOL     OW11394   3.230   3.107   4.750 -0.0960 -0.0967 -0.2449
 2831SOL    HW211395   3.243   3.015   4.726  1.5017  0.3327 -1.0422
 2831SOL    HW311396   3.311   3.150   4.726 -0.3798  1.3168  1.2637
 2831SOL    MW411397   3.242   3.100   4.743  0.0775  0.1466 -0.1512
 2832SOL     OW11398   3.331   2.894   4.591  0.2417  0.2440 -0.1217
 2832SOL    HW211399   3.348   2.892   4.497 -0.8830 -0.5845 -0.3059
 2832SOL    HW311400   3.403   2.844   4.630 -0.2278 -0.8630 -0.6775
 2832SOL    MW411401   3.343   2.887   4.584  0.0317 -0.0112 -0.2193
 2833SOL     OW11402   4.019   2.679   4.570 -0.2978 -0.1960 -0.2526
 2833SOL    HW211403   4.110   2.702   4.585 -0.7157  1.9001 -0.7629
 2833SOL    HW311404   4.022   2.605   4.510  1.0669 -0.1775 -0.2159
 2833SOL    MW411405   4.031   2.673   4.564 -0.1726  0.0830 -0.3152
 2834SOL     OW11406   3.611   3.160   4.538  0.3879 -0.7968 -0.1315
 2834SOL    HW211407   3.662   3.219   4.594 -2.0136  1.7892 -0.5124
 2834SOL    HW311408   3.609   3.205   4.453 -1.4344 -1.4758 -0.4631
 2834SOL    MW411409   3.618   3.174   4.534 -0.1693 -0.5453 -0.2255
 2835SOL     OW11410   3.479   4.049   4.483  0.1600  0.4086  0.2008
 2835SOL    HW211411   3.553   4.019   4.535  0.4106  0.2533 -0.2422
 2835SOL    HW311412   3.403   4.002   4.519  0.0513  1.6050  1.5578
 2835SOL    MW411413   3.479   4.038   4.494  0.1788  0.5460  0.3214
 2836SOL     OW11414   3.264   4.179   4.773 -0.7589 -0.2351 -0.1840
 2836SOL    HW211415   3.176   4.145   4.758 -1.0725 -0.5529  2.1853
 2836SOL    HW311416   3.257   4.273   4.755 -1.6603 -0.2023  0.3337
 2836SOL    MW411417   3.252   4.187   4.768 -0.9193 -0.2728  0.1965
 2837SOL     OW11418   3.277   4.489   4.665 -0.0493  0.4752 -0.1782
 2837SOL    HW211419   3.334   4.432   4.613 -0.3036 -0.6051  0.6931
 2837SOL    HW311420   3.222   4.534   4.600  0.6121  0.2238 -0.9198
 2837SOL    MW411421   3.277   4.487   4.649  0.0045  0.2990 -0.1607
 2838SOL     OW11422   3.454   4.312   4.544 -0.4875 -0.4025  0.1228
 2838SOL    HW211423   3.452   4.217   4.528 -1.1752 -0.1742 -1.2544
 2838SOL    HW311424   3.546   4.333   4.555 -0.3006 -1.1894  0.0873
 2838SOL    MW411425   3.466   4.302   4.543 -0.5534 -0.4759 -0.0634
 2839SOL     OW11426   3.672   4.001   4.671  0.0702  0.2076  0.0927
 2839SOL    HW211427   3.707   3.912   4.679  0.7018  0.4775  0.3710
 2839SOL    HW311428   3.624   4.015   4.752 -0.2702  0.0169 -0.0748
 2839SOL    MW411429   3.670   3.991   4.682  0.1087  0.2182  0.1073
 2840SOL     OW11430   3.472   0.251   4.654 -0.2496  0.0765 -0.4523
 2840SOL    HW211431   3.407   0.267   4.585 -0.1872  0.6962 -0.3698
 2840SOL    HW311432   3.430   0.188   4.713 -0.0661 -0.9373 -1.3897
 2840SOL    MW411433   3.458   0.245   4.653 -0.2170  0.0245 -0.5651
 2841SOL     OW11434   2.992   0.867   4.459 -0.5593 -0.4865  0.2602
 2841SOL    HW211435   2.966   0.956   4.485 -1.7717 -0.7506 -0.0319
 2841SOL    HW311436   3.084   0.861   4.485 -0.3671  0.9694 -0.0118
 2841SOL    MW411437   3.001   0.878   4.466 -0.6938 -0.3293  0.1855
 2842SOL     OW11438   3.010   1.138   4.584 -0.3819 -0.2588  0.3046
 2842SOL    HW211439   2.978   1.129   4.674 -1.5202 -1.1025 -0.1754
 2842SOL    HW311440   2.964   1.214   4.550 -0.4247 -0.3141  0.2391
 2842SOL    MW411441   3.000   1.147   4.591 -0.5379 -0.3774  0.2327
 2843SOL     OW11442   4.010   1.340   4.672 -0.3911 -0.2982  0.1931
 2843SOL    HW211443   4.068   1.291   4.614 -1.1066  0.9103 -1.5931
 2843SOL    HW311444   3.922   1.312   4.648 -0.6206 -1.1300  1.9576
 2843SOL    MW411445   4.006   1.330   4.661 -0.5159 -0.2486  0.1903
 2844SOL     OW11446   3.746   1.024   4.595  0.6830  0.7084  0.0107
 2844SOL    HW211447   3.739   1.117   4.574  1.8200  0.8541  0.2414
 2844SOL    HW311448   3.825   1.018   4.649 -0.3516 -0.1366  1.4574
 2844SOL    MW411449   3.755   1.036   4.599  0.6962  0.6162  0.2322
 2845SOL     OW11450   4.172   0.945   4.507 -0.1267 -0.5675  0.5509
 2845SOL    HW211451   4.225   0.868   4.527  0.9726 -0.1507 -0.6913
 2845SOL    HW311452   4.121   0.919   4.431  0.0444 -0.1586  0.2991
 2845SOL    MW411453   4.172   0.931   4.500  0.0415 -0.4585  0.3538
 2846SOL     OW11454   4.312   0.471   4.459  0.1398 -0.0307  0.3084
 2846SOL    HW211455   4.291   0.469   4.365 -0.1449 -0.2928  0.3772
 2846SOL    HW311456   4.230   0.448   4.503  0.3117 -0.0626  0.6160
 2846SOL    MW411457   4.299   0.468   4.452  0.1249 -0.0695  0.3581
 2847SOL     OW11458   3.646   1.583   4.549 -0.3387 -0.9461 -0.1637
 2847SOL    HW211459   3.671   1.639   4.622  0.1907 -0.7070 -0.5209
 2847SOL    HW311460   3.553   1.565   4.563 -0.1652 -1.1683  0.7414
 2847SOL    MW411461   3.637   1.588   4.560 -0.2458 -0.9439 -0.0916
 2848SOL     OW11462   4.035   1.785   4.818  0.2377  0.3476  0.2237
 2848SOL    HW211463   4.046   1.765   4.910  0.3134 -0.7352 -0.0171
 2848SOL    HW311464   4.100   1.853   4.800  0.9773 -0.2266  0.7125
 2848SOL    MW411465   4.045   1.792   4.828  0.3452  0.1290  0.2570
 2849SOL     OW11466   3.646   2.019   4.572 -0.3596  0.1591  0.5028
 2849SOL    HW211467   3.676   2.049   4.486 -1.2305  1.0227  0.4810
 2849SOL    HW311468   3.550   2.017   4.564 -0.3047 -3.6816  0.1792
 2849SOL    MW411469   3.637   2.023   4.559 -0.4673 -0.2334  0.4578
 2850SOL     OW11470   4.116   2.074   4.512 -0.1297  0.4735  0.4401
 2850SOL    HW211471   4.072   2.156   4.533 -0.8989  0.1992 -0.0216
 2850SOL    HW311472   4.149   2.041   4.595 -1.3901  0.3669  0.9067
 2850SOL    MW411473   4.114   2.080   4.525 -0.3977  0.4230  0.4406
 2851SOL     OW11474   4.388   1.610   4.569  0.4428 -0.6168 -0.3531
 2851SOL    HW211475   4.395   1.646   4.480 -0.3118 -0.6797 -0.4460
 2851SOL    HW311476   4.294   1.595   4.581  0.4604  0.1641  0.7655
 2851SOL    MW411477   4.376   1.612   4.559  0.3452 -0.5221 -0.2174
 2852SOL     OW11478   3.999   2.320   4.589 -0.0075 -0.2376  0.4016
 2852SOL    HW211479   3.908   2.311   4.616 -0.3393  1.5289 -0.0337
 2852SOL    HW311480   4.050   2.309   4.669 -0.8094  2.0229  1.2676
 2852SOL    MW411481   3.994   2.318   4.603 -0.1571  0.2935  0.4587
 2853SOL     OW11482   3.872   2.549   4.777  0.5254  0.0595  0.1785
 2853SOL    HW211483   3.831   2.474   4.732  0.5226  0.7483 -0.9868
 2853SOL    HW311484   3.914   2.599   4.707 -1.1701  2.2433  0.6447
 2853SOL    MW411485   3.872   2.546   4.762  0.3014  0.4387  0.0858
 2854SOL     OW11486   3.744   2.918   4.520  0.2829 -0.3086  0.0645
 2854SOL    HW211487   3.824   2.941   4.568 -1.0723 -0.5006  2.5309
 2854SOL    HW311488   3.687   2.994   4.530 -1.2930 -1.6420  1.6731
 2854SOL    MW411489   3.747   2.931   4.528 -0.1040 -0.5100  0.6022
 2855SOL     OW11490   4.020   2.944   4.499  0.3069  0.2487  0.8782
 2855SOL    HW211491   4.000   2.857   4.535 -0.8171  0.1887  0.1384
 2855SOL    HW311492   4.096   2.930   4.443 -0.0786 -0.3372  0.4842
 2855SOL    MW411493   4.027   2.930   4.497  0.1082  0.1633  0.7286
 2856SOL     OW11494   3.343   3.312   4.506 -0.2398  0.2919 -0.3084
 2856SOL    HW211495   3.425   3.264   4.498  0.1393  0.9437 -0.3061
 2856SOL    HW311496   3.279   3.259   4.458  0.2320 -0.0828 -0.5211
 2856SOL    MW411497   3.345   3.299   4.499 -0.1276  0.3285 -0.3366
 2857SOL     OW11498   3.811   3.321   4.683  0.4790 -0.4692  0.4989
 2857SOL    HW211499   3.835   3.363   4.766  1.9653 -2.3419  1.0373
 2857SOL    HW311500   3.894   3.301   4.641 -0.2258 -1.5374 -0.4241
 2857SOL    MW411501   3.825   3.324   4.689  0.5820 -0.8576  0.4482
 2858SOL     OW11502   3.395   3.587   4.535  0.4279 -0.4141 -0.1890
 2858SOL    HW211503   3.365   3.499   4.557  0.4315 -0.0363  1.4358
 2858SOL    HW311504   3.490   3.580   4.531  0.5770 -0.0431  2.1245
 2858SOL    MW411505   3.404   3.574   4.537  0.4478 -0.3152  0.3309
 2859SOL     OW11506   3.681   3.518   4.545  0.1732  0.0200 -0.3897
 2859SOL    HW211507   3.736   3.537   4.470  2.0812 -0.2888  0.8889
 2859SOL    HW311508   3.729   3.452   4.594 -0.3907  1.1680  1.7926
 2859SOL    MW411509   3.695   3.512   4.542  0.3505  0.1307  0.0672
 2860SOL     OW11510   4.461   2.962   4.604  0.1235  0.1830 -0.6816
 2860SOL    HW211511   4.471   3.056   4.614  0.7427  0.1347 -0.7966
 2860SOL    HW311512   4.550   2.930   4.592  0.0419 -0.5687  0.6359
 2860SOL    MW411513   4.474   2.970   4.604  0.1950  0.0777 -0.5231
 2861SOL     OW11514   4.043   4.107   4.484 -0.2371 -0.2006 -0.1564
 2861SOL    HW211515   4.129   4.142   4.507  0.6089 -2.7572  0.7284
 2861SOL    HW311516   3.986   4.134   4.557  0.0714  0.4399 -0.1416
 2861SOL    MW411517   4.047   4.115   4.497 -0.0844 -0.4535 -0.0372
 2862SOL     OW11518   3.729   4.423   4.564 -0.3649 -0.1941  0.0290
 2862SOL    HW211519   3.748   4.412   4.470  0.8614  0.8253  0.1401
 2862SOL    HW311520   3.734   4.517   4.578 -2.5830 -0.1618  0.7213
 2862SOL    MW411521   3.732   4.434   4.553 -0.4959 -0.0553  0.1349
 2863SOL     OW11522   3.373   0.050   4.806  0.1793  0.2532  0.0498
 2863SOL    HW211523   3.330   0.035   4.891  0.1967 -1.2262 -0.1951
 2863SOL    HW311524   3.370  -0.035   4.763  1.3991  0.6801 -0.8814
 2863SOL    MW411525   3.367   0.037   4.812  0.3426  0.1143 -0.1059
 2864SOL     OW11526   3.456   1.073   4.522  0.1558 -0.1398 -0.0084
 2864SOL    HW211527   3.542   1.052   4.558  0.4370  0.5416 -0.2726
 2864SOL    HW311528   3.470   1.077   4.428 -0.1147  0.2300 -0.0331
 2864SOL    MW411529   3.469   1.070   4.514  0.1569 -0.0011 -0.0467
 2865SOL     OW11530   3.685   0.758   4.484 -0.1132 -0.2976  0.0552
 2865SOL    HW211531   3.729   0.834   4.521  1.9981 -1.1409 -0.6595
 2865SOL    HW311532   3.647   0.790   4.402 -0.1875  0.2471  0.2996
 2865SOL    MW411533   3.685   0.773   4.478  0.1554 -0.3370 -0.0067
 2866SOL     OW11534   0.311   0.294   4.583 -0.3990 -0.1363 -0.8837
 2866SOL    HW211535   0.314   0.319   4.675  0.5317 -0.0175 -0.9406
 2866SOL    HW311536   0.375   0.350   4.540  1.0898 -1.9746 -1.1493
 2866SOL    MW411537   0.320   0.304   4.589 -0.0798 -0.3632 -0.9270
 2867SOL     OW11538   0.264   0.430   4.830 -0.3588  0.3308  0.0213
 2867SOL    HW211539   0.330   0.493   4.801 -0.8435  1.5223  1.4658
 2867SOL    HW311540   0.180   0.471   4.809 -0.6807  0.2390  1.0902
 2867SOL    MW411541   0.262   0.444   4.823 -0.4652  0.4759  0.3529
 2868SOL     OW11542   4.052   0.400   4.534 -0.0961  0.3122  0.0518
 2868SOL    HW211543   4.026   0.346   4.460  1.7508 -0.6446  0.0774
 2868SOL    HW311544   3.971   0.444   4.561 -0.8932  0.3215 -2.2159
 2868SOL    MW411545   4.038   0.399   4.528  0.0429  0.1872 -0.2441
 2869SOL     OW11546   3.760   1.316   4.555  0.0968 -0.2703  0.0940
 2869SOL    HW211547   3.788   1.295   4.466  0.9566 -0.1092  0.3251
 2869SOL    HW311548   3.709   1.396   4.546 -0.9824 -1.0080 -0.4380
 2869SOL    MW411549   3.757   1.324   4.542  0.0679 -0.3464  0.0544
 2870SOL     OW11550   4.385   1.231   4.751  0.2132  0.2925  0.5874
 2870SOL    HW211551   4.448   1.301   4.734  0.8038 -0.1417  0.9613
 2870SOL    HW311552   4.434   1.150   4.732  0.2964 -0.1153  2.4681
 2870SOL    MW411553   4.400   1.230   4.746  0.3018  0.1816  0.8850
 2871SOL     OW11554   0.091   1.705   4.866 -0.0882 -0.4461 -0.4936
 2871SOL    HW211555   0.167   1.702   4.808  0.2197 -0.1772 -0.1140
 2871SOL    HW311556   0.129   1.713   4.954 -0.5050 -2.4333 -0.1068
 2871SOL    MW411557   0.106   1.706   4.870 -0.1026 -0.6727 -0.3924
 2872SOL     OW11558   4.110   1.585   4.608 -0.0834  0.1957 -0.3805
 2872SOL    HW211559   4.070   1.502   4.635  0.1268 -0.2119 -1.2855
 2872SOL    HW311560   4.106   1.640   4.686 -0.4262 -0.5914  0.1690
 2872SOL    MW411561   4.104   1.581   4.622 -0.1006  0.0380 -0.4272
 2873SOL     OW11562   3.124   2.687   4.590  0.1538 -0.0987  0.1462
 2873SOL    HW211563   3.200   2.742   4.611 -0.9308  1.9438 -1.1732
 2873SOL    HW311564   3.162   2.602   4.569  2.1618  1.0523 -1.0735
 2873SOL    MW411565   3.139   2.683   4.590  0.2756  0.3226 -0.1884
 2874SOL     OW11566   4.247   2.022   4.255  0.0694  0.4653 -0.0531
 2874SOL    HW211567   4.193   1.950   4.224 -0.5218  1.4122 -1.2666
 2874SOL    HW311568   4.216   2.040   4.344  0.2071 -0.7487  0.2410
 2874SOL    MW411569   4.236   2.015   4.263  0.0095  0.4299 -0.1740
 2875SOL     OW11570   4.200   1.990   4.756  0.4903 -0.2243  0.2220
 2875SOL    HW211571   4.291   1.968   4.733  0.3429 -1.5840  0.9035
 2875SOL    HW311572   4.204   2.081   4.785  1.3706  0.2262 -1.2253
 2875SOL    MW411573   4.213   1.999   4.757  0.5870 -0.3444  0.1206
 2876SOL     OW11574   3.936   1.904   4.372  0.1258  0.0770 -0.3758
 2876SOL    HW211575   3.905   1.836   4.431  0.4402  0.4145  0.1830
 2876SOL    HW311576   4.013   1.941   4.415 -0.4583  1.2682 -0.3245
 2876SOL    MW411577   3.942   1.900   4.385  0.0901  0.2785 -0.2947
 2877SOL     OW11578   3.729   2.312   4.641 -0.8755 -0.5712 -0.3781
 2877SOL    HW211579   3.653   2.358   4.605 -1.0568 -0.6745 -0.1306
 2877SOL    HW311580   3.700   2.221   4.650 -0.6564 -0.6504 -0.4727
 2877SOL    MW411581   3.715   2.306   4.637 -0.8707 -0.5951 -0.3581
 2878SOL     OW11582   4.382   2.423   4.727 -0.0238  0.2296  0.3207
 2878SOL    HW211583   4.369   2.501   4.674  2.2583  2.7040  3.1934
 2878SOL    HW311584   4.468   2.390   4.700 -0.4073 -0.5795  0.0478
 2878SOL    MW411585   4.392   2.429   4.716  0.2270  0.4494  0.6642
 2879SOL     OW11586   4.292   2.965   4.378  0.0167 -0.0227  0.2917
 2879SOL    HW211587   4.339   2.959   4.461 -0.9003 -1.8157  0.7024
 2879SOL    HW311588   4.321   2.889   4.328  1.2433  1.5323 -1.4180
 2879SOL    MW411589   4.302   2.954   4.383  0.0572 -0.0541  0.1206
 2880SOL     OW11590   4.028   3.246   4.532  0.1549 -0.3084 -0.0162
 2880SOL    HW211591   3.999   3.258   4.442 -0.6926  0.6759  0.3772
 2880SOL    HW311592   4.017   3.153   4.549  0.1163 -0.4585 -0.8561
 2880SOL    MW411593   4.023   3.236   4.523  0.0377 -0.1981 -0.0753
 2881SOL     OW11594   0.402   3.514   4.533  0.3192 -0.4902 -0.1423
 2881SOL    HW211595   0.409   3.515   4.438 -0.7445  1.8354 -0.2373
 2881SOL    HW311596   0.490   3.532   4.564  0.3166  0.6053 -0.7438
 2881SOL    MW411597   0.414   3.517   4.525  0.1785 -0.0386 -0.2346
 2882SOL     OW11598   4.081   4.250   4.843  0.3715 -0.3098  0.6240
 2882SOL    HW211599   4.002   4.248   4.788  0.7623 -0.3496  0.0632
 2882SOL    HW311600   4.068   4.179   4.906  0.6218 -1.2766 -0.3985
 2882SOL    MW411601   4.069   4.240   4.844  0.4568 -0.4430  0.4148
 2883SOL     OW11602   3.693   0.060   4.544 -0.1748 -0.1715 -0.4334
 2883SOL    HW211603   3.649   0.129   4.593  0.9080  0.4073 -0.2634
 2883SOL    HW311604   3.659   0.067   4.455  0.9961  1.5448 -0.7827
 2883SOL    MW411605   3.683   0.070   4.539  0.1225  0.1313 -0.4573
 2884SOL     OW11606   4.002   3.827   4.591 -0.1224 -0.3819 -0.2052
 2884SOL    HW211607   4.027   3.914   4.561 -1.3341  0.4500  1.1682
 2884SOL    HW311608   4.079   3.773   4.575 -0.0002  0.4980 -2.8654
 2884SOL    MW411609   4.016   3.831   4.585 -0.2661 -0.1562 -0.3753
 2885SOL     OW11610   3.639   0.443   4.788  0.2228  0.1093  0.3539
 2885SOL    HW211611   3.675   0.403   4.867  1.5208 -0.7045 -0.6264
 2885SOL    HW311612   3.590   0.373   4.746  1.2352 -0.0540 -0.5868
 2885SOL    MW411613   3.638   0.429   4.793  0.5274 -0.0197  0.1006
 2886SOL     OW11614   4.236   4.435   4.253  0.0293  0.8776  0.4951
 2886SOL    HW211615   4.301   4.368   4.234 -1.6314 -0.3770 -0.8755
 2886SOL    HW311616   4.233   4.441   4.348  1.2419  0.0613  0.5796
 2886SOL    MW411617   4.244   4.427   4.263 -0.0296  0.6046  0.3247
 2887NA      NA11618   4.377   0.850   0.689 -0.2742  0.5665  0.1474
 2888NA      NA11619   2.373   3.887   0.364 -0.0547  0.5183 -0.1463
   4.49070   4.66690  10.00000
