Gromacs Runs On Most of All Computer Systems in water
   97
    1RU5    O5'    1   2.203   1.730   5.315
    1RU5    H5T    2   2.291   1.768   5.286
    1RU5    C5'    3   2.108   1.747   5.211
    1RU5   H5'1    4   2.147   1.700   5.132
    1RU5   H5'2    5   2.105   1.845   5.194
    1RU5    C4'    6   1.963   1.693   5.239
    1RU5    H4'    7   1.899   1.719   5.167
    1RU5    O4'    8   1.979   1.548   5.250
    1RU5    C1'    9   1.913   1.503   5.364
    1RU5    H1'   10   1.820   1.473   5.343
    1RU5     N1   11   1.978   1.383   5.413
    1RU5     C6   12   2.109   1.391   5.457
    1RU5     H6   13   2.158   1.478   5.455
    1RU5     C5   14   2.171   1.278   5.504
    1RU5     H5   15   2.267   1.285   5.531
    1RU5     C4   16   2.106   1.151   5.517
    1RU5     O4   17   2.159   1.049   5.553
    1RU5     N3   18   1.973   1.157   5.485
    1RU5     H3   19   1.921   1.072   5.496
    1RU5     C2   20   1.901   1.268   5.438
    1RU5     O2   21   1.779   1.261   5.417
    1RU5    C3'   22   1.904   1.743   5.370
    1RU5    H3'   23   1.937   1.832   5.401
    1RU5    C2'   24   1.929   1.625   5.462
    1RU5   H2'1   25   2.013   1.635   5.516
    1RU5    O2'   26   1.847   1.615   5.573
    1RU5   HO'2   27   1.861   1.695   5.632
    1RU5    O3'   28   1.768   1.772   5.360
    2RG       P   29   1.714   1.924   5.335
    2RG     O1P   30   1.566   1.920   5.365
    2RG     O2P   31   1.760   1.972   5.205
    2RG     O5'   32   1.787   2.022   5.442
    2RG     C5'   33   1.723   2.064   5.556
    2RG    H5'1   34   1.711   1.983   5.614
    2RG    H5'2   35   1.633   2.098   5.527
    2RG     C4'   36   1.806   2.174   5.628
    2RG     H4'   37   1.743   2.206   5.699
    2RG     O4'   38   1.920   2.123   5.698
    2RG     C1'   39   2.036   2.202   5.673
    2RG     H1'   40   2.081   2.218   5.761
    2RG      N9   41   2.130   2.126   5.590
    2RG      C8   42   2.104   2.056   5.477
    2RG      H8   43   2.015   2.056   5.432
    2RG      N7   44   2.208   1.987   5.431
    2RG      C5   45   2.315   2.027   5.515
    2RG      C6   46   2.457   2.002   5.524
    2RG      O6   47   2.525   1.931   5.449
    2RG      N1   48   2.528   2.078   5.618
    2RG      H1   49   2.628   2.072   5.618
    2RG      C2   50   2.470   2.157   5.706
    2RG      N2   51   2.538   2.212   5.802
    2RG     H21   52   2.636   2.195   5.810
    2RG     H22   53   2.492   2.272   5.868
    2RG      N3   54   2.337   2.172   5.709
    2RG      C4   55   2.263   2.110   5.614
    2RG     C3'   56   1.855   2.295   5.541
    2RG     H3'   57   1.856   2.278   5.442
    2RG     C2'   58   1.993   2.334   5.603
    2RG    H2'1   59   2.057   2.378   5.540
    2RG     O2'   60   1.972   2.426   5.710
    2RG    HO'2   61   1.944   2.514   5.673
    2RG     O3'   62   1.765   2.404   5.550
    3RG3      P   63   1.825   2.526   5.240
    3RG3    O1P   64   1.712   2.544   5.337
    3RG3    O2P   65   1.825   2.615   5.126
    3RG3    O5'   66   1.951   2.575   5.321
    3RG3    C5'   67   1.959   2.680   5.411
    3RG3   H5'1   68   1.927   2.647   5.500
    3RG3   H5'2   69   1.899   2.753   5.379
    3RG3    C4'   70   2.101   2.727   5.419
    3RG3    H4'   71   2.093   2.807   5.479
    3RG3    O4'   72   2.194   2.637   5.473
    3RG3    C1'   73   2.323   2.692   5.447
    3RG3    H1'   74   2.347   2.755   5.521
    3RG3     N9   75   2.429   2.592   5.458
    3RG3     C8   76   2.415   2.452   5.451
    3RG3     H8   77   2.327   2.405   5.444
    3RG3     N7   78   2.529   2.390   5.454
    3RG3     C5   79   2.623   2.491   5.468
    3RG3     C6   80   2.767   2.487   5.483
    3RG3     O6   81   2.841   2.391   5.477
    3RG3     N1   82   2.822   2.615   5.508
    3RG3     H1   83   2.920   2.622   5.529
    3RG3     C2   84   2.751   2.725   5.505
    3RG3     N2   85   2.816   2.838   5.535
    3RG3    H21   86   2.913   2.835   5.558
    3RG3    H22   87   2.767   2.925   5.534
    3RG3     N3   88   2.622   2.732   5.487
    3RG3     C4   89   2.563   2.613   5.471
    3RG3    C3'   90   2.163   2.738   5.278
    3RG3    H3'   91   2.140   2.664   5.214
    3RG3    C2'   92   2.314   2.761   5.310
    3RG3   H2'1   93   2.384   2.734   5.244
    3RG3    O2'   94   2.326   2.903   5.329
    3RG3   HO'2   95   2.320   2.949   5.240
    3RG3    O3'   96   2.113   2.850   5.212
    3RG3    H3T   97   2.154   2.856   5.121
   4.49070   4.66690  10.00000
