Gromacs Runs On Most of All Computer Systems in water
11622
    1U      O5'    1   3.094   2.632   4.624  0.1668  0.1061  0.7586
    1U      H5T    2   3.085   2.702   4.689  0.9231 -0.6419  1.6829
    1U      C5'    3   2.999   2.649   4.520 -0.6417 -0.5831 -0.5522
    1U     H5'1    4   3.035   2.600   4.430  1.3165  0.7672 -0.5410
    1U     H5'2    5   2.995   2.755   4.495 -1.1642 -0.4009  0.2551
    1U      C4'    6   2.854   2.595   4.548 -0.6603  0.3164 -0.1503
    1U      H4'    7   2.787   2.617   4.465  0.3337  2.3116 -0.4547
    1U      O4'    8   2.870   2.450   4.559  0.1131 -0.6950 -0.1994
    1U      C1'    9   2.804   2.405   4.673 -0.0965 -0.0826 -0.5579
    1U      H1'   10   2.699   2.390   4.648 -0.7124  2.7930  0.0880
    1U       N1   11   2.869   2.285   4.722 -0.2115  0.4074  0.2446
    1U       C6   12   3.000   2.293   4.766 -0.1142  0.2565 -0.0900
    1U       H6   13   3.066   2.374   4.741  1.1696 -0.8325 -0.2712
    1U       C5   14   3.062   2.180   4.813 -0.5469  0.7173  0.3673
    1U       H5   15   3.168   2.177   4.831 -0.2450 -0.5138 -1.4946
    1U       C4   16   2.997   2.053   4.826  0.1660  0.5254  0.1195
    1U       O4   17   3.050   1.951   4.862  0.1403 -0.0199  0.7774
    1U       N3   18   2.864   2.059   4.794  0.2511 -0.2326 -0.0918
    1U       H3   19   2.810   1.977   4.815 -0.9127  0.4583 -0.3462
    1U       C2   20   2.792   2.170   4.747 -0.5859 -0.6160 -0.0864
    1U       O2   21   2.670   2.163   4.726  0.5919  0.2538 -0.7567
    1U      C3'   22   2.795   2.645   4.679  0.1348 -0.8105  0.2625
    1U      H3'   23   2.856   2.730   4.711 -1.6403  1.1676 -1.5092
    1U      C2'   24   2.820   2.527   4.771 -0.1027  0.2580  0.0556
    1U     H2'1   25   2.924   2.528   4.804  0.1225 -2.3462 -0.4440
    1U      O2'   26   2.738   2.517   4.882 -0.0203 -0.0696  0.2732
    1U     HO'2   27   2.648   2.531   4.851  0.2958  1.0240 -0.1685
    1U      O3'   28   2.659   2.674   4.669 -0.0883 -0.5290 -0.0182
    2RG3      P   29   2.605   2.826   4.644  0.0837 -0.1582 -0.1474
    2RG3    O1P   30   2.457   2.822   4.674 -0.3430 -0.2724  0.5259
    2RG3    O2P   31   2.651   2.874   4.514  0.1208  0.5034 -0.0703
    2RG3    O5'   32   2.678   2.924   4.751  0.2270  0.1518  0.1253
    2RG3    C5'   33   2.614   2.966   4.865 -0.2601  0.1179  0.2521
    2RG3   H5'1   34   2.599   2.880   4.931 -1.8102  0.7765  0.7841
    2RG3   H5'2   35   2.515   3.004   4.840 -0.6358 -0.4395  0.8671
    2RG3    C4'   36   2.697   3.076   4.937  0.0306  0.0276 -0.7816
    2RG3    H4'   37   2.632   3.122   5.012  2.7314  1.0538  0.9872
    2RG3    O4'   38   2.811   3.025   5.007 -0.1926  0.0176 -0.3448
    2RG3    C1'   39   2.927   3.104   4.982 -0.7974 -0.4130 -0.1418
    2RG3    H1'   40   2.984   3.128   5.072  0.2905  0.0481 -0.9444
    2RG3     N9   41   3.021   3.028   4.899  0.2017  0.4220 -0.0345
    2RG3     C8   42   2.995   2.958   4.786  0.0786 -0.4198  0.0383
    2RG3     H8   43   2.896   2.967   4.745 -0.9154 -2.6560  1.8316
    2RG3     N7   44   3.099   2.889   4.740  0.3370 -0.2090  0.2207
    2RG3     C5   45   3.206   2.929   4.824 -0.4696 -0.4816 -0.2208
    2RG3     C6   46   3.348   2.904   4.833  0.3252  0.0851  0.2639
    2RG3     O6   47   3.416   2.833   4.758  0.3958 -0.2824 -0.0788
    2RG3     N1   48   3.419   2.980   4.927 -0.3253  0.4400  0.4694
    2RG3     H1   49   3.515   2.997   4.899 -0.6770  0.8983 -0.4727
    2RG3     C2   50   3.361   3.059   5.015 -0.6347 -0.5560  0.2839
    2RG3     N2   51   3.429   3.114   5.111 -0.6456 -0.0219  0.1717
    2RG3    H21   52   3.527   3.092   5.120 -0.3779  1.4487  1.0108
    2RG3    H22   53   3.375   3.176   5.170 -1.8395 -0.6774 -0.2282
    2RG3     N3   54   3.228   3.074   5.018 -0.1014  0.0639 -0.2472
    2RG3     C4   55   3.154   3.012   4.923 -0.3144  0.5141 -0.3995
    2RG3    C3'   56   2.746   3.197   4.850  0.4746  0.5107  0.1046
    2RG3    H3'   57   2.761   3.181   4.743 -1.1490 -2.0639  0.2382
    2RG3    C2'   58   2.884   3.236   4.912 -0.1138  0.5219  0.0992
    2RG3   H2'1   59   2.952   3.270   4.834 -0.1357  0.0711 -0.1190
    2RG3    O2'   60   2.863   3.328   5.019 -0.0542 -0.4917 -0.2175
    2RG3   HO'2   61   2.774   3.359   5.000 -0.2683 -1.2148 -0.4350
    2RG3    O3'   62   2.656   3.306   4.859 -0.7086 -0.1531 -0.6824
    2RG3    H3T   63   2.657   3.360   4.780  1.3980  2.3652  0.9604
    3RG35     P   64   2.716   3.428   4.549  0.0358  0.4105 -0.0045
    3RG35   O1P   65   2.603   3.446   4.646 -0.1924  0.1774  0.4743
    3RG35   O2P   66   2.716   3.517   4.435  0.5514  0.3744 -0.5337
    3RG35   O5'   67   2.842   3.477   4.630  0.0498 -0.0348 -0.0966
    3RG35   C5'   68   2.850   3.582   4.720  0.5958  0.0503  0.5612
    3RG35  H5'1   69   2.827   3.548   4.820  2.8280  0.1610  1.1380
    3RG35  H5'2   70   2.784   3.662   4.688  0.7134  1.2040  3.1309
    3RG35   C4'   71   2.992   3.629   4.728  0.2485 -0.5509  0.3791
    3RG35   H4'   72   2.987   3.724   4.781 -0.4603 -0.2922 -0.1298
    3RG35   O4'   73   3.085   3.539   4.782  0.1063  0.3167  0.4520
    3RG35   C1'   74   3.214   3.594   4.756 -0.2503  0.1109 -0.0028
    3RG35   H1'   75   3.231   3.675   4.827 -0.7284 -2.2329  2.8871
    3RG35    N9   76   3.320   3.494   4.767  0.6551 -0.1217  0.1561
    3RG35    C8   77   3.306   3.354   4.760 -0.2764 -0.1938 -0.2576
    3RG35    H8   78   3.213   3.301   4.751 -0.0881 -0.4292 -0.8492
    3RG35    N7   79   3.420   3.292   4.763  0.3004 -0.4441  0.2958
    3RG35    C5   80   3.514   3.393   4.777 -0.1911 -0.2457  0.1488
    3RG35    C6   81   3.658   3.389   4.792 -0.1329 -0.4643 -0.2304
    3RG35    O6   82   3.732   3.293   4.786 -0.0079 -0.4194  0.3001
    3RG35    N1   83   3.713   3.517   4.817 -0.1894  0.3217 -0.3021
    3RG35    H1   84   3.813   3.527   4.821 -0.0272 -1.3873  0.0734
    3RG35    C2   85   3.642   3.627   4.814  0.5994 -0.8744 -0.1637
    3RG35    N2   86   3.707   3.740   4.844 -0.4751  0.1104  0.3043
    3RG35   H21   87   3.804   3.741   4.870  0.1135  0.4116 -1.8335
    3RG35   H22   88   3.646   3.820   4.839  0.1788  0.6511  0.9373
    3RG35    N3   89   3.513   3.634   4.796  0.6466 -0.0386 -0.0778
    3RG35    C4   90   3.454   3.515   4.780  0.1285  0.1265  0.7513
    3RG35   C3'   91   3.054   3.640   4.587 -0.2587  0.2927 -0.2458
    3RG35   H3'   92   3.057   3.549   4.528  0.9413 -0.6449  1.2297
    3RG35   C2'   93   3.205   3.663   4.619  0.1846  0.1395 -0.0733
    3RG35  H2'1   94   3.272   3.629   4.540  3.0671  0.9036  1.9831
    3RG35   O2'   95   3.217   3.805   4.638  0.2286  0.1241  0.2964
    3RG35  HO'2   96   3.142   3.830   4.583 -0.1821  1.4576  1.4307
    3RG35   O3'   97   3.004   3.752   4.521 -0.1268 -0.9208  0.0537
    3RG35   H3T   98   2.953   3.730   4.443  1.0626 -0.8822 -0.7532
    3RG35   O3P   99   2.745   3.288   4.515  0.1058 -0.4611 -0.3493
    7SOL     OW  100   0.468   0.024   0.516 -0.3747  0.4039 -0.0163
    7SOL    HW2  101   0.547   0.078   0.522  0.2829 -0.6333  0.9009
    7SOL    HW3  102   0.399   0.085   0.492  0.4256  1.5957  0.6530
    7SOL    MW4  103   0.469   0.039   0.514 -0.1823  0.4243  0.1930
    8SOL     OW  104   4.112   0.092   0.535  0.3353  0.3937  0.2772
    8SOL    HW2  105   4.193   0.054   0.501 -0.8613 -1.0890 -1.0437
    8SOL    HW3  106   4.110   0.181   0.500  0.1422 -0.4318 -1.9217
    8SOL    MW4  107   4.122   0.098   0.526  0.1521  0.0892 -0.1872
    9SOL     OW  108   4.145   0.124   0.207  0.0338  0.0692  0.4357
    9SOL    HW2  109   4.060   0.084   0.229 -0.2466 -0.1168 -0.9898
    9SOL    HW3  110   4.209   0.063   0.243 -0.4061 -1.1591 -0.8458
    9SOL    MW4  111   4.142   0.111   0.215 -0.0606 -0.1174  0.0786
   10SOL     OW  112   4.447   1.427   0.479 -0.0059 -0.1628  0.2692
   10SOL    HW2  113   4.475   1.404   0.568  1.0025  0.0952  0.0202
   10SOL    HW3  114   4.526   1.460   0.437 -0.5768  0.0970 -0.6015
   10SOL    MW4  115   4.461   1.429   0.485  0.0515 -0.0945  0.1215
   11SOL     OW  116   1.321   0.758   0.236 -0.3235 -0.1737  0.1612
   11SOL    HW2  117   1.244   0.802   0.273 -0.7199 -0.8069  0.1002
   11SOL    HW3  118   1.300   0.747   0.143 -0.2041 -0.4325  0.1638
   11SOL    MW4  119   1.308   0.762   0.229 -0.3600 -0.2913  0.1535
   12SOL     OW  120   0.167   0.479   0.461  0.2151  0.0321 -0.2128
   12SOL    HW2  121   0.171   0.492   0.556 -0.2467  0.8575 -0.3000
   12SOL    HW3  122   0.192   0.387   0.448  0.7612  0.0521  0.6648
   12SOL    MW4  123   0.170   0.468   0.472  0.2263  0.1436 -0.1085
   13SOL     OW  124   0.413   0.876   0.501  0.1062  0.1073 -0.0152
   13SOL    HW2  125   0.431   0.891   0.594  2.9783  0.0602 -0.5190
   13SOL    HW3  126   0.419   0.781   0.490 -1.9480 -0.0481  0.0591
   13SOL    MW4  127   0.416   0.865   0.512  0.2141  0.0806 -0.0719
   14SOL     OW  128   0.830   0.706   0.479 -0.0436 -0.4327  0.1823
   14SOL    HW2  129   0.912   0.724   0.432  0.2493 -1.5614  0.2467
   14SOL    HW3  130   0.841   0.749   0.563 -0.3848  1.2201 -0.5910
   14SOL    MW4  131   0.842   0.714   0.484 -0.0500 -0.3636  0.0888
   15SOL     OW  132   0.676   0.965   0.389 -0.1027  0.4373 -0.1592
   15SOL    HW2  133   0.716   0.900   0.448  1.7682  0.6656 -1.1332
   15SOL    HW3  134   0.583   0.941   0.387  0.3349 -1.4587  0.4699
   15SOL    MW4  135   0.669   0.953   0.397  0.2019  0.2173 -0.2047
   16SOL     OW  136   4.304   1.741   0.235  0.0998 -0.2302  0.3786
   16SOL    HW2  137   4.256   1.659   0.244 -0.6796  0.2758  0.8613
   16SOL    HW3  138   4.251   1.806   0.282 -0.3706  0.9837 -1.7486
   16SOL    MW4  139   4.291   1.739   0.242 -0.0658 -0.0033  0.1616
   17SOL     OW  140   4.195   1.466   0.371  0.3753 -0.0429  0.1114
   17SOL    HW2  141   4.158   1.541   0.418 -1.1971 -0.7635  0.0728
   17SOL    HW3  142   4.272   1.440   0.422 -1.4005 -0.9323  2.4219
   17SOL    MW4  143   4.200   1.472   0.384 -0.0663 -0.2553  0.4112
   18SOL     OW  144   0.074   1.840   0.461  0.1500 -0.1888  0.3973
   18SOL    HW2  145   0.052   1.787   0.538 -1.6728  0.2436  0.1910
   18SOL    HW3  146   0.071   1.779   0.388  1.3359 -0.4837  0.5879
   18SOL    MW4  147   0.071   1.825   0.462  0.0659 -0.1707  0.3952
   19SOL     OW  148   0.057   2.260   0.369 -0.2414  0.5516 -0.2149
   19SOL    HW2  149   0.077   2.285   0.278 -1.0793 -0.5995 -0.7278
   19SOL    HW3  150   0.143   2.246   0.409  0.1118 -0.5293 -1.3046
   19SOL    MW4  151   0.071   2.261   0.362 -0.3054  0.2570 -0.4263
   20SOL     OW  152   4.110   2.808   0.262 -0.1943 -0.2060  0.3681
   20SOL    HW2  153   4.134   2.820   0.170 -0.8045  0.2985  0.2709
   20SOL    HW3  154   4.193   2.798   0.307  0.1588  0.4737 -0.1147
   20SOL    MW4  155   4.124   2.808   0.255 -0.2284 -0.0498  0.2916
   21SOL     OW  156   0.128   3.037   0.399 -0.0557  0.0518 -0.7526
   21SOL    HW2  157   0.089   3.037   0.312  0.1186 -1.9907 -0.8638
   21SOL    HW3  158   0.057   3.061   0.458 -0.7287 -0.6743 -1.2599
   21SOL    MW4  159   0.114   3.040   0.395 -0.1215 -0.3135 -0.8342
   22SOL     OW  160   0.245   3.303   0.398 -0.1462  0.1752  0.1466
   22SOL    HW2  161   0.317   3.308   0.462 -1.3470 -0.2296  1.5723
   22SOL    HW3  162   0.228   3.209   0.389  0.1468  0.2287 -0.9208
   22SOL    MW4  163   0.252   3.291   0.405 -0.2660  0.1290  0.1939
   23SOL     OW  164   0.688   3.495   0.580 -0.4960  0.0183  0.2622
   23SOL    HW2  165   0.657   3.583   0.561 -0.3957  0.4141  1.8008
   23SOL    HW3  166   0.730   3.503   0.666  2.5711 -0.7803 -1.0620
   23SOL    MW4  167   0.690   3.508   0.589 -0.0781 -0.0348  0.2905
   24SOL     OW  168   1.055   3.879   0.384 -0.0992 -0.1743 -0.0321
   24SOL    HW2  169   1.091   3.951   0.331  0.0019 -0.7288 -0.7241
   24SOL    HW3  170   0.971   3.913   0.416  0.0319  0.3183 -0.2029
   24SOL    MW4  171   1.048   3.893   0.381 -0.0685 -0.1824 -0.1459
   25SOL     OW  172   3.802   3.427   0.446 -0.0461 -0.3088 -0.0281
   25SOL    HW2  173   3.828   3.513   0.481  0.0868 -0.3026 -0.1411
   25SOL    HW3  174   3.885   3.383   0.427 -0.1169 -0.1328 -0.7646
   25SOL    MW4  175   3.816   3.433   0.448 -0.0377 -0.2851 -0.1402
   26SOL     OW  176   0.076   3.773   0.422  0.2336 -0.1191  0.4356
   26SOL    HW2  177   0.167   3.797   0.403  0.4535 -0.4904  1.0089
   26SOL    HW3  178   0.034   3.856   0.445  0.0366  0.2983 -1.3322
   26SOL    MW4  179   0.083   3.787   0.422  0.2366 -0.1130  0.2780
   27SOL     OW  180   0.463   4.450   0.370  0.1272 -0.0571  0.6231
   27SOL    HW2  181   0.474   4.534   0.414  0.7867  0.0732  0.2169
   27SOL    HW3  182   0.440   4.473   0.280 -1.1175 -0.3212  0.8782
   27SOL    MW4  183   0.462   4.464   0.364  0.0500 -0.0749  0.6032
   28SOL     OW  184   0.222   4.404   0.532  0.3672  0.0024  0.6070
   28SOL    HW2  185   0.295   4.409   0.471  0.6414  1.3729  1.0263
   28SOL    HW3  186   0.155   4.353   0.486  0.7763  0.5530 -0.6068
   28SOL    MW4  187   0.223   4.398   0.518  0.4573  0.2556  0.5022
   29SOL     OW  188   0.020   4.229   0.440  0.0914  0.1943  0.3083
   29SOL    HW2  189  -0.010   4.139   0.437 -0.3385  0.3539 -0.0774
   29SOL    HW3  190  -0.057   4.282   0.422  0.5055  0.6133 -0.2858
   29SOL    MW4  191   0.006   4.224   0.437  0.0892  0.2708  0.1790
   30SOL     OW  192   0.348   3.826   0.526 -0.3643 -0.3265  0.1762
   30SOL    HW2  193   0.435   3.787   0.524  0.5146  1.5171  0.9298
   30SOL    HW3  194   0.362   3.917   0.502 -2.5076 -0.6500 -2.5123
   30SOL    MW4  195   0.361   3.833   0.523 -0.5312 -0.1259 -0.0791
   31SOL     OW  196   0.876   4.568   0.267  0.1091  0.0374 -0.2599
   31SOL    HW2  197   0.909   4.640   0.320 -0.2405 -0.6131  0.8653
   31SOL    HW3  198   0.954   4.530   0.225  0.1675  1.7802 -1.7994
   31SOL    MW4  199   0.891   4.572   0.268  0.0706  0.1817 -0.3145
   32SOL     OW  200   0.347   0.028   0.177 -0.0321  0.2970 -0.1926
   32SOL    HW2  201   0.439   0.036   0.202 -0.3423 -0.9014  1.4036
   32SOL    HW3  202   0.341   0.074   0.093  1.9489  0.6511 -0.1661
   32SOL    MW4  203   0.358   0.035   0.169  0.1883  0.1856  0.0215
   33SOL     OW  204   4.358   0.508   0.447 -0.0952 -0.3622  0.1704
   33SOL    HW2  205   4.452   0.513   0.430 -0.0381 -0.1389  0.5413
   33SOL    HW3  206   4.332   0.598   0.463 -0.8747 -0.0715 -2.4978
   33SOL    MW4  207   4.367   0.520   0.447 -0.1898 -0.2943 -0.1327
   34SOL     OW  208   1.115   4.427   0.507  0.2622  0.0264 -0.1661
   34SOL    HW2  209   1.034   4.396   0.466  0.1865  0.9054 -0.7055
   34SOL    HW3  210   1.102   4.414   0.601  0.1845 -1.4313 -0.3700
   34SOL    MW4  211   1.103   4.421   0.514  0.2420 -0.0501 -0.2642
   35SOL     OW  212   1.108   0.778   0.461 -0.2074  0.0367  0.2654
   35SOL    HW2  213   1.143   0.832   0.532  2.8704 -0.9825 -0.3864
   35SOL    HW3  214   1.133   0.689   0.485 -0.7102 -0.5189 -1.2215
   35SOL    MW4  215   1.116   0.773   0.473  0.1324 -0.1711 -0.0168
   36SOL     OW  216   0.690   0.197   0.485 -0.4137 -0.4321  0.0059
   36SOL    HW2  217   0.757   0.183   0.552 -0.7104 -1.3982  0.1049
   36SOL    HW3  218   0.685   0.292   0.476 -0.1231 -0.3100  1.1038
   36SOL    MW4  219   0.699   0.208   0.492 -0.4146 -0.5434  0.1638
   37SOL     OW  220   0.201   1.047   0.470  0.0539 -0.2115  0.2481
   37SOL    HW2  221   0.117   1.001   0.474  1.0291 -2.1312 -0.5160
   37SOL    HW3  222   0.266   0.977   0.473  1.6800  1.3305  2.4082
   37SOL    MW4  223   0.199   1.031   0.471  0.3971 -0.2613  0.4323
   38SOL     OW  224   0.422   1.606   0.388  0.2393  0.2593 -0.3769
   38SOL    HW2  225   0.494   1.555   0.352  0.5015  0.1923  0.2266
   38SOL    HW3  226   0.343   1.565   0.352  0.4735 -0.1499 -0.4282
   38SOL    MW4  227   0.421   1.594   0.379  0.3048  0.1965 -0.3040
   39SOL     OW  228   0.188   1.495   0.292 -0.1675 -0.1246  0.0549
   39SOL    HW2  229   0.157   1.412   0.255  0.3318 -0.8222  1.1812
   39SOL    HW3  230   0.138   1.562   0.245 -0.7851 -1.0685 -0.6638
   39SOL    MW4  231   0.177   1.493   0.281 -0.1831 -0.3412  0.1086
   40SOL     OW  232   0.325   2.185   0.399 -0.2462  0.3565  0.1314
   40SOL    HW2  233   0.410   2.228   0.388 -0.1223  0.7582  2.3670
   40SOL    HW3  234   0.330   2.107   0.344  1.2526  0.8274 -0.4141
   40SOL    MW4  235   0.337   2.180   0.391 -0.0321  0.4714  0.3544
   41SOL     OW  236   4.356   2.728   0.406  0.7482 -0.3336  0.6515
   41SOL    HW2  237   4.354   2.633   0.412  1.3627 -0.5214 -1.6256
   41SOL    HW3  238   4.447   2.751   0.423  0.8990 -0.2908 -0.1593
   41SOL    MW4  239   4.368   2.719   0.409  0.8488 -0.3529  0.2441
   42SOL     OW  240   3.784   2.269   0.256  0.1982  0.2985  0.0445
   42SOL    HW2  241   3.821   2.350   0.290  0.2239  0.5078 -0.4899
   42SOL    HW3  242   3.791   2.276   0.161 -1.7511  0.6064 -0.1073
   42SOL    MW4  243   3.789   2.280   0.248 -0.0560  0.3667 -0.0460
   43SOL     OW  244   0.582   2.525   0.512  0.6669 -0.6749  0.0961
   43SOL    HW2  245   0.595   2.433   0.488  1.4345 -0.7267  0.7289
   43SOL    HW3  246   0.668   2.565   0.504  0.5816 -0.2895  1.0750
   43SOL    MW4  247   0.595   2.518   0.508  0.7569 -0.6309  0.3087
   44SOL     OW  248   0.415   2.750   0.516 -0.0609 -0.0497  0.2661
   44SOL    HW2  249   0.465   2.669   0.501 -0.8354 -0.1386 -2.0642
   44SOL    HW3  250   0.478   2.820   0.501  0.0915 -0.2094  0.1477
   44SOL    MW4  251   0.430   2.748   0.512 -0.1430 -0.0825 -0.0569
   45SOL     OW  252   4.368   3.064   0.511 -0.3861 -0.6697  0.3052
   45SOL    HW2  253   4.287   3.085   0.465 -1.2044 -0.9399  1.5937
   45SOL    HW3  254   4.340   3.009   0.585  0.6873  1.1140  2.0774
   45SOL    MW4  255   4.353   3.059   0.515 -0.3524 -0.4699  0.7091
   46SOL     OW  256   0.149   2.784   0.497  0.1462 -0.1284  0.0265
   46SOL    HW2  257   0.141   2.873   0.463 -1.3119  0.0497  0.8035
   46SOL    HW3  258   0.243   2.766   0.496  0.3673  1.0149 -1.1431
   46SOL    MW4  259   0.160   2.793   0.492 -0.0170  0.0460 -0.0253
   47SOL     OW  260   1.095   4.426   0.157  0.5077  0.4372 -0.1303
   47SOL    HW2  261   1.176   4.447   0.109  0.3053 -0.2901 -0.8025
   47SOL    HW3  262   1.103   4.332   0.176 -0.6240  0.1532 -1.0517
   47SOL    MW4  263   1.107   4.416   0.153  0.3316  0.3033 -0.3405
   48SOL     OW  264   0.070   3.488   0.289 -0.3144 -0.4136  0.0044
   48SOL    HW2  265   0.142   3.431   0.317  0.4858  0.1469 -0.8748
   48SOL    HW3  266   0.097   3.520   0.203 -2.5196 -1.7673 -1.2474
   48SOL    MW4  267   0.083   3.485   0.282 -0.4998 -0.5183 -0.2767
   49SOL     OW  268   0.616   3.764   0.543 -0.3470  0.0672 -0.2602
   49SOL    HW2  269   0.666   3.839   0.510 -1.0615  0.7859  0.2773
   49SOL    HW3  270   0.629   3.767   0.638  0.6807 -1.2629 -0.3384
   49SOL    MW4  271   0.624   3.775   0.551 -0.3057 -0.0134 -0.1996
   50SOL     OW  272   1.157   3.418   0.509 -0.5007 -0.0051  0.0206
   50SOL    HW2  273   1.174   3.490   0.447 -1.0113  0.3860  0.3237
   50SOL    HW3  274   1.062   3.406   0.504 -0.5000 -0.1882  0.4976
   50SOL    MW4  275   1.146   3.426   0.500 -0.5678  0.0222  0.1235
   51SOL     OW  276   0.367   4.122   0.488  0.4522 -0.0671 -0.1170
   51SOL    HW2  277   0.454   4.161   0.495 -0.1137  1.3903 -1.0773
   51SOL    HW3  278   0.306   4.195   0.503 -0.6112 -0.8270 -0.6236
   51SOL    MW4  279   0.370   4.137   0.491  0.2373  0.0248 -0.3105
   52SOL     OW  280   1.220   3.647   0.353  0.0041  0.1232  0.0700
   52SOL    HW2  281   1.276   3.676   0.425  0.0382  0.7739 -0.2166
   52SOL    HW3  282   1.153   3.715   0.345  0.2205  0.2460 -0.7604
   52SOL    MW4  283   1.218   3.660   0.361  0.0371  0.2255 -0.0773
   53SOL     OW  284   0.608   4.248   0.498  0.1063 -0.1624  0.2704
   53SOL    HW2  285   0.564   4.316   0.447  0.5381 -0.1600 -0.1033
   53SOL    HW3  286   0.609   4.283   0.588  1.0674  0.7177 -0.0647
   53SOL    MW4  287   0.603   4.262   0.503  0.2901 -0.0458  0.1769
   54SOL     OW  288   0.626   0.049   0.236 -0.3622 -0.3519 -0.0442
   54SOL    HW2  289   0.648   0.110   0.307  0.4299  0.8442 -1.2870
   54SOL    HW3  290   0.705  -0.002   0.222 -0.1275  0.2085 -0.8272
   54SOL    MW4  291   0.639   0.050   0.244 -0.2268 -0.1201 -0.3115
   55SOL     OW  292   0.684   0.485   0.485  0.0369 -0.2093 -0.2160
   55SOL    HW2  293   0.740   0.562   0.485 -0.7534  0.3689 -0.6916
   55SOL    HW3  294   0.597   0.517   0.460 -0.5316 -1.0776  0.5817
   55SOL    MW4  295   0.680   0.499   0.482 -0.1424 -0.2476 -0.1735
   56SOL     OW  296   0.412   0.605   0.381  0.1355  0.1156 -0.5316
   56SOL    HW2  297   0.424   0.602   0.286  1.2667  0.1442 -0.4034
   56SOL    HW3  298   0.322   0.575   0.396  0.1393 -0.4156 -1.5751
   56SOL    MW4  299   0.402   0.601   0.371  0.2853  0.0493 -0.6523
   57SOL     OW  300   1.447   0.531   0.355  0.0984  0.1356  0.3873
   57SOL    HW2  301   1.426   0.611   0.306  2.0663  0.0721 -0.5743
   57SOL    HW3  302   1.528   0.552   0.402 -0.3498 -0.7062  1.5637
   57SOL    MW4  303   1.455   0.544   0.355  0.2990  0.0162  0.4157
   58SOL     OW  304   1.906   0.687   0.429 -0.0381  0.1913 -0.1136
   58SOL    HW2  305   1.873   0.777   0.437 -0.4962  0.0749 -0.7189
   58SOL    HW3  306   1.835   0.632   0.461  0.8371  0.1175  1.7829
   58SOL    MW4  307   1.893   0.692   0.434  0.0169  0.1662  0.0567
   59SOL     OW  308   1.473   0.942   0.438  0.2119 -0.5989 -0.2812
   59SOL    HW2  309   1.434   0.890   0.369  0.9090  0.3545 -1.4182
   59SOL    HW3  310   1.415   0.931   0.513 -0.8550 -1.2027 -1.1846
   59SOL    MW4  311   1.461   0.934   0.439  0.1633 -0.5527 -0.5504
   60SOL     OW  312   0.680   1.492   0.330 -0.0695  0.1482  0.1832
   60SOL    HW2  313   0.689   1.396   0.330 -0.2287  0.1256 -0.5325
   60SOL    HW3  314   0.752   1.523   0.385 -0.0141 -0.3839  0.4166
   60SOL    MW4  315   0.690   1.483   0.337 -0.0831  0.0749  0.1196
   61SOL     OW  316   0.760   1.225   0.387 -0.2589  0.4750  0.2306
   61SOL    HW2  317   0.736   1.133   0.395  1.1803  0.1500  1.0759
   61SOL    HW3  318   0.855   1.226   0.400 -0.0835  1.9350 -0.9669
   61SOL    MW4  319   0.769   1.213   0.390 -0.0459  0.6247  0.1841
   62SOL     OW  320   1.709   1.398   0.335  0.2290  0.3935  0.5505
   62SOL    HW2  321   1.732   1.486   0.364  0.5189  0.0454  1.3762
   62SOL    HW3  322   1.775   1.342   0.375 -0.2232 -0.2500  0.3893
   62SOL    MW4  323   1.720   1.402   0.344  0.2074  0.2626  0.6382
   63SOL     OW  324   1.022   1.331   0.464 -0.0408 -0.7661  0.7267
   63SOL    HW2  325   1.086   1.332   0.393 -0.1570 -2.6558  0.5712
   63SOL    HW3  326   0.995   1.423   0.473  0.9863 -0.2968 -0.7324
   63SOL    MW4  327   1.027   1.343   0.456  0.0793 -0.9534  0.5136
   64SOL     OW  328   0.947   1.602   0.451  0.1390  0.2974  0.2437
   64SOL    HW2  329   1.037   1.633   0.443  0.0487  0.5759  0.2717
   64SOL    HW3  330   0.926   1.616   0.544  0.0577  0.2643  0.2298
   64SOL    MW4  331   0.956   1.608   0.462  0.1164  0.3299  0.2455
   65SOL     OW  332   0.365   1.893   0.422  0.0540 -0.0289  0.4332
   65SOL    HW2  333   0.270   1.886   0.435  0.0772 -0.9306  0.1351
   65SOL    HW3  334   0.393   1.803   0.403  0.8493  0.3744 -0.2994
   65SOL    MW4  335   0.356   1.880   0.421  0.1619 -0.0945  0.2972
   66SOL     OW  336   0.792   1.813   0.334  0.1035  0.7860 -0.2541
   66SOL    HW2  337   0.837   1.732   0.357  0.5258  1.2260  0.4729
   66SOL    HW3  338   0.755   1.796   0.247  1.9348  0.5308 -1.0016
   66SOL    MW4  339   0.793   1.800   0.325  0.4008  0.8104 -0.2568
   67SOL     OW  340   0.864   2.559   0.493 -0.1670  0.0595 -0.1585
   67SOL    HW2  341   0.887   2.488   0.432 -0.1494 -0.9819  1.0458
   67SOL    HW3  342   0.873   2.520   0.580 -2.1997  0.9422  0.4714
   67SOL    MW4  343   0.868   2.544   0.496 -0.4328  0.0386  0.0835
   68SOL     OW  344   0.649   1.994   0.491 -0.2968 -0.4642  0.7689
   68SOL    HW2  345   0.709   1.926   0.461  0.8584 -0.3708  2.7564
   68SOL    HW3  346   0.562   1.955   0.483  0.1917 -1.3822 -0.1249
   68SOL    MW4  347   0.646   1.980   0.486 -0.0799 -0.5729  0.9132
   69SOL     OW  348   0.977   2.860   0.438  0.2036 -0.3048 -0.0154
   69SOL    HW2  349   0.922   2.782   0.446  0.0493 -0.3077 -1.1081
   69SOL    HW3  350   0.915   2.933   0.439  0.1633 -0.3106 -1.3068
   69SOL    MW4  351   0.961   2.859   0.439  0.1779 -0.3057 -0.3300
   70SOL     OW  352   0.597   2.268   0.425 -0.6233  0.3705 -0.3772
   70SOL    HW2  353   0.680   2.307   0.396  0.2600 -0.7811  0.5544
   70SOL    HW3  354   0.620   2.178   0.450 -1.7792  0.6063  1.6721
   70SOL    MW4  355   0.611   2.261   0.425 -0.6592  0.2499  0.0161
   71SOL     OW  356   0.547   3.022   0.531  0.3172  0.0491 -0.1097
   71SOL    HW2  357   0.581   2.994   0.616 -1.4333 -2.2826 -0.1189
   71SOL    HW3  358   0.505   3.106   0.549  0.9847  0.1366  1.0891
   71SOL    MW4  359   0.546   3.029   0.544  0.1743 -0.2470  0.0472
   72SOL     OW  360   0.892   3.339   0.504 -0.1065 -0.1830  0.4270
   72SOL    HW2  361   0.892   3.296   0.589 -0.2746  0.7829  0.9227
   72SOL    HW3  362   0.827   3.409   0.511  2.0110  1.8749  0.5485
   72SOL    MW4  363   0.883   3.343   0.516  0.1507  0.2162  0.5085
   73SOL     OW  364   1.414   3.730   0.524  0.0130  0.9111  0.1495
   73SOL    HW2  365   1.481   3.715   0.457  0.1132 -0.4454  0.5470
   73SOL    HW3  366   1.459   3.716   0.607 -0.7510 -0.0199  0.4209
   73SOL    MW4  367   1.429   3.726   0.526 -0.0746  0.6094  0.2377
   74SOL     OW  368   1.117   4.157   0.308 -0.0623  0.1608 -0.0650
   74SOL    HW2  369   1.192   4.211   0.334 -0.5213  0.6820  0.1731
   74SOL    HW3  370   1.041   4.199   0.349 -0.5160 -0.2384 -0.4875
   74SOL    MW4  371   1.117   4.170   0.316 -0.1826  0.1774 -0.0893
   75SOL     OW  372   0.785   4.012   0.487 -0.1191 -0.3997 -0.2485
   75SOL    HW2  373   0.816   4.041   0.573 -0.7164 -2.4686  0.6904
   75SOL    HW3  374   0.712   4.071   0.467  1.5320  1.6487 -0.4733
   75SOL    MW4  375   0.779   4.024   0.496  0.0200 -0.4025 -0.1543
   76SOL     OW  376   1.370   4.335   0.338  0.2854  0.0579  0.4739
   76SOL    HW2  377   1.377   4.378   0.253 -1.4646 -2.0444 -0.7545
   76SOL    HW3  378   1.327   4.400   0.394 -0.9996  0.4830 -0.9686
   76SOL    MW4  379   1.365   4.350   0.334 -0.1149 -0.1636  0.1215
   77SOL     OW  380   1.194   0.492   0.464 -0.6800  0.2401 -0.9783
   77SOL    HW2  381   1.168   0.401   0.452 -1.2000  0.1934  0.4090
   77SOL    HW3  382   1.284   0.496   0.430 -0.3565 -0.9826 -0.3150
   77SOL    MW4  383   1.203   0.481   0.458 -0.7061  0.0726 -0.7077
   78SOL     OW  384   1.026   0.031   0.470  0.5636 -0.0054 -0.1055
   78SOL    HW2  385   1.062  -0.057   0.482 -0.3508 -0.3177  0.3739
   78SOL    HW3  386   0.977   0.048   0.550  0.6028  0.8847 -0.2632
   78SOL    MW4  387   1.024   0.022   0.482  0.4481  0.0708 -0.0630
   79SOL     OW  388   1.517   0.237   0.344  0.1440  0.5727 -0.7778
   79SOL    HW2  389   1.610   0.242   0.367  0.2600  0.2679 -1.1703
   79SOL    HW3  390   1.486   0.327   0.350  0.5993  0.7607 -1.1877
   79SOL    MW4  391   1.525   0.250   0.347  0.2193  0.5573 -0.8836
   80SOL     OW  392   1.697   0.540   0.499  0.2284 -0.3571 -0.1820
   80SOL    HW2  393   1.732   0.455   0.472 -1.8765 -1.9449  1.9256
   80SOL    HW3  394   1.673   0.529   0.591  1.1577  2.9578  0.5360
   80SOL    MW4  395   1.698   0.528   0.507  0.0733 -0.1293  0.1908
   81SOL     OW  396   1.266   0.166   0.473 -0.0586  0.4192  0.4229
   81SOL    HW2  397   1.187   0.116   0.452  0.8027 -0.7204 -0.1935
   81SOL    HW3  398   1.335   0.124   0.422  1.5127 -0.4266  3.1624
   81SOL    MW4  399   1.265   0.154   0.463  0.2625  0.1573  0.7030
   82SOL     OW  400   1.992   0.464   0.247  0.6002  0.5421 -0.0842
   82SOL    HW2  401   2.003   0.479   0.153 -0.3455  0.6992 -0.1747
   82SOL    HW3  402   1.960   0.548   0.281  0.5591  0.3690  0.3124
   82SOL    MW4  403   1.989   0.477   0.239  0.4700  0.5400 -0.0438
   83SOL     OW  404   2.144   0.641   0.546 -0.7309  0.0842  0.4057
   83SOL    HW2  405   2.066   0.664   0.495 -0.4566  0.6954  0.2491
   83SOL    HW3  406   2.179   0.564   0.501  0.2930  1.4415 -1.2125
   83SOL    MW4  407   2.138   0.634   0.533 -0.5598  0.3438  0.1715
   84SOL     OW  408   1.760   0.954   0.446  0.1912  0.5793  0.1163
   84SOL    HW2  409   1.769   0.965   0.541 -0.0443 -0.4194  0.2588
   84SOL    HW3  410   1.666   0.964   0.430  0.3101  1.3853 -0.1008
   84SOL    MW4  411   1.748   0.957   0.457  0.1757  0.5538  0.1065
   85SOL     OW  412   1.480   1.276   0.404 -0.0647  0.4530 -0.2099
   85SOL    HW2  413   1.480   1.181   0.393  2.2131  0.3474  0.2522
   85SOL    HW3  414   1.566   1.304   0.371 -0.1997  2.1810  0.8031
   85SOL    MW4  415   1.492   1.268   0.398  0.2180  0.6671 -0.0152
   86SOL     OW  416   1.358   1.493   0.288 -0.0230 -0.3325 -0.3644
   86SOL    HW2  417   1.390   1.419   0.340 -0.5747 -0.1027  0.3038
   86SOL    HW3  418   1.435   1.525   0.241  0.5044 -0.4416  0.4261
   86SOL    MW4  419   1.372   1.487   0.288 -0.0262 -0.3165 -0.1720
   87SOL     OW  420   1.241   1.683   0.455 -0.4547  0.4196  0.2315
   87SOL    HW2  421   1.286   1.669   0.538  0.8203  1.0389 -0.3474
   87SOL    HW3  422   1.281   1.621   0.395 -2.0921 -0.7564  0.3252
   87SOL    MW4  423   1.252   1.673   0.458 -0.5026  0.3463  0.1675
   88SOL     OW  424   0.949   2.072   0.355  0.4862  0.0744  0.4679
   88SOL    HW2  425   0.882   2.007   0.333  0.7385 -0.1491  0.3586
   88SOL    HW3  426   1.021   2.021   0.393  0.6098  0.3090  0.5509
   88SOL    MW4  427   0.950   2.057   0.357  0.5358  0.0761  0.4645
   89SOL     OW  428   1.328   2.710   0.335  0.2241  0.2585  0.0914
   89SOL    HW2  429   1.280   2.728   0.253 -0.0948 -0.4302  0.1248
   89SOL    HW3  430   1.415   2.745   0.319  0.8928 -1.9600 -1.4479
   89SOL    MW4  431   1.333   2.717   0.322  0.2702 -0.1252 -0.1072
   90SOL     OW  432   1.927   2.011   0.455 -0.1416  0.0703 -0.0179
   90SOL    HW2  433   1.938   2.015   0.550 -1.7447 -2.4499  0.3359
   90SOL    HW3  434   2.015   1.999   0.420  0.4609  1.0786  1.1194
   90SOL    MW4  435   1.940   2.010   0.463 -0.2737 -0.1292  0.1789
   91SOL     OW  436   1.463   1.980   0.519 -0.2303 -0.1775 -0.4956
   91SOL    HW2  437   1.479   2.063   0.475 -0.6138  1.1001  1.6737
   91SOL    HW3  438   1.367   1.973   0.524 -0.1984 -0.6360 -0.4436
   91SOL    MW4  439   1.452   1.990   0.514 -0.2767 -0.0691 -0.2025
   92SOL     OW  440   0.864   2.331   0.331  0.0437 -0.5567  0.0472
   92SOL    HW2  441   0.871   2.327   0.235  1.7525 -0.8956  0.1539
   92SOL    HW3  442   0.896   2.245   0.360 -0.0350 -0.2862  0.9353
   92SOL    MW4  443   0.869   2.319   0.322  0.2587 -0.5660  0.1784
   93SOL     OW  444   0.813   3.081   0.484  0.5918  0.2370  0.3525
   93SOL    HW2  445   0.721   3.061   0.503  0.6980 -0.9489 -0.3191
   93SOL    HW3  446   0.812   3.173   0.456 -0.5689 -0.1094 -0.8010
   93SOL    MW4  447   0.801   3.091   0.483  0.4526  0.0346  0.1117
   94SOL     OW  448   1.765   2.226   0.424  0.1060 -0.2038 -0.0248
   94SOL    HW2  449   1.809   2.305   0.394 -0.6892  0.2960  0.1183
   94SOL    HW3  450   1.829   2.156   0.409  1.4421  0.6962  1.3921
   94SOL    MW4  451   1.779   2.227   0.418  0.1773 -0.0188  0.1810
   95SOL     OW  452   1.755   4.022   0.496 -0.1320 -0.0574 -0.1926
   95SOL    HW2  453   1.670   4.048   0.461 -0.6776  1.0326  1.8434
   95SOL    HW3  454   1.788   3.956   0.435 -1.5760  0.9015 -2.0347
   95SOL    MW4  455   1.748   4.017   0.483 -0.3946  0.2127 -0.1670
   96SOL     OW  456   1.273   3.965   0.535 -0.1417 -0.1958 -0.0289
   96SOL    HW2  457   1.319   3.881   0.525  1.0783  0.3363  0.9854
   96SOL    HW3  458   1.188   3.951   0.493 -0.5961 -2.4740  1.5349
   96SOL    MW4  459   1.268   3.952   0.529 -0.0407 -0.4263  0.3113
   97SOL     OW  460   1.687   2.573   0.472 -0.2500  0.3149 -0.8783
   97SOL    HW2  461   1.598   2.540   0.486 -0.7365  0.9530 -2.3783
   97SOL    HW3  462   1.675   2.664   0.443  0.8518  0.1792 -1.8059
   97SOL    MW4  463   1.674   2.581   0.470 -0.1688  0.3810 -1.1986
   98SOL     OW  464   1.714   3.424   0.286  0.1774  0.3000  0.4155
   98SOL    HW2  465   1.696   3.412   0.192 -0.7269  0.7479  0.5281
   98SOL    HW3  466   1.809   3.426   0.292  0.2480 -0.1597 -0.4432
   98SOL    MW4  467   1.724   3.423   0.274  0.0674  0.2985  0.3171
   99SOL     OW  468   1.361   3.223   0.480 -0.3897  0.0307  0.4919
   99SOL    HW2  469   1.329   3.135   0.462 -0.4089  0.2208 -0.3927
   99SOL    HW3  470   1.289   3.281   0.456 -0.0082  0.3536  0.1250
   99SOL    MW4  471   1.348   3.219   0.475 -0.3420  0.0987  0.3267
  100SOL     OW  472   1.634   3.306   0.528 -0.3864  0.7132 -0.5248
  100SOL    HW2  473   1.540   3.290   0.520 -0.0072 -0.6279 -2.5219
  100SOL    HW3  474   1.652   3.373   0.462  0.3637 -0.3389 -1.3936
  100SOL    MW4  475   1.624   3.313   0.518 -0.2375  0.3974 -0.9030
  101SOL     OW  476   0.878   4.323   0.394  0.0422 -0.2486 -0.4014
  101SOL    HW2  477   0.802   4.304   0.449  0.3136 -0.1839 -0.0023
  101SOL    HW3  478   0.845   4.386   0.330  0.1187  0.8829  0.6561
  101SOL    MW4  479   0.863   4.329   0.393  0.0880 -0.0911 -0.2092
  102SOL     OW  480   2.303   4.585   0.488 -0.4048  0.2185 -0.0033
  102SOL    HW2  481   2.254   4.516   0.444  0.4667  0.1761 -0.9347
  102SOL    HW3  482   2.340   4.544   0.566 -1.5128  0.1525  0.4932
  102SOL    MW4  483   2.301   4.571   0.492 -0.4361  0.2041 -0.0607
  103SOL     OW  484   1.858   4.451   0.468 -0.5180 -0.0540  0.2900
  103SOL    HW2  485   1.763   4.456   0.468 -0.6035 -1.4542  0.1447
  103SOL    HW3  486   1.877   4.359   0.446  0.8513  0.1167  0.7342
  103SOL    MW4  487   1.848   4.439   0.465 -0.3486 -0.2160  0.3295
  104SOL     OW  488   1.907   0.062   0.511  0.7460 -0.1390 -0.4055
  104SOL    HW2  489   1.847   0.077   0.584  1.0392  0.7022 -0.3317
  104SOL    HW3  490   1.894  -0.030   0.488 -1.2692  0.2660 -1.0143
  104SOL    MW4  491   1.897   0.052   0.517  0.5186  0.0254 -0.4760
  105SOL     OW  492   1.427   4.648   0.325  0.0675 -0.1235 -0.0545
  105SOL    HW2  493   1.478   4.728   0.312  0.0160 -0.3013 -1.4025
  105SOL    HW3  494   1.487   4.589   0.370  0.2337  0.5278  0.5983
  105SOL    MW4  495   1.441   4.651   0.329  0.0826 -0.0606 -0.1462
  106SOL     OW  496   2.216   0.411   0.404 -0.4892 -0.1915  0.4018
  106SOL    HW2  497   2.212   0.315   0.412  1.5094 -0.3550 -0.4684
  106SOL    HW3  498   2.137   0.434   0.356 -0.5444 -1.4900 -0.1439
  106SOL    MW4  499   2.205   0.401   0.399 -0.2327 -0.3844  0.2150
  107SOL     OW  500   2.310   1.535   0.427  0.2971  0.3787  0.6940
  107SOL    HW2  501   2.369   1.578   0.366  1.0044  0.4104  1.3948
  107SOL    HW3  502   2.237   1.597   0.436 -0.3375 -0.1015 -0.9263
  107SOL    MW4  503   2.308   1.549   0.420  0.3066  0.3196  0.5727
  108SOL     OW  504   2.239   1.259   0.487 -0.0040 -0.1094 -0.0790
  108SOL    HW2  505   2.249   1.354   0.487 -0.9108 -0.0105  1.3079
  108SOL    HW3  506   2.245   1.234   0.579  0.2277 -1.3983 -0.4371
  108SOL    MW4  507   2.241   1.268   0.499 -0.0935 -0.2662  0.0567
  109SOL     OW  508   1.906   1.222   0.448  0.5731  0.3486  0.3516
  109SOL    HW2  509   1.893   1.127   0.452  1.4191  0.1991 -0.2230
  109SOL    HW3  510   1.991   1.233   0.405 -0.3210  1.4048 -1.2260
  109SOL    MW4  511   1.915   1.211   0.443  0.5670  0.4683  0.0677
  110SOL     OW  512   2.476   1.274   0.330 -0.2809  0.0253 -0.2219
  110SOL    HW2  513   2.487   1.369   0.321  1.0651 -0.1682 -0.7409
  110SOL    HW3  514   2.396   1.264   0.381  0.2000  1.4753  0.8581
  110SOL    MW4  515   2.467   1.285   0.336 -0.0401  0.1910 -0.1479
  111SOL     OW  516   2.122   1.735   0.495  0.3421  0.3822 -0.3926
  111SOL    HW2  517   2.151   1.822   0.467  0.7837  0.2752 -0.2725
  111SOL    HW3  518   2.030   1.731   0.469  0.5121  0.6122 -1.0561
  111SOL    MW4  519   2.114   1.746   0.488  0.4227  0.3983 -0.4643
  112SOL     OW  520   1.681   1.843   0.404 -0.4955 -0.2191 -0.4260
  112SOL    HW2  521   1.748   1.911   0.409 -0.0951 -0.4971 -1.6248
  112SOL    HW3  522   1.601   1.885   0.436  0.1688  0.2249  0.6663
  112SOL    MW4  523   1.679   1.858   0.409 -0.3550 -0.1973 -0.4401
  113SOL     OW  524   2.307   2.429   0.537 -0.3426  0.2803  0.2171
  113SOL    HW2  525   2.390   2.477   0.536  0.3445 -0.8764 -1.5864
  113SOL    HW3  526   2.289   2.413   0.629  1.2959  0.8037  0.6401
  113SOL    MW4  527   2.316   2.433   0.549 -0.0360  0.1967  0.0350
  114SOL     OW  528   2.026   3.167   0.410 -0.2043 -0.1820 -0.3784
  114SOL    HW2  529   2.118   3.162   0.436 -0.0300 -0.2371 -0.9981
  114SOL    HW3  530   2.014   3.258   0.385 -0.5099 -0.0064  0.3902
  114SOL    MW4  531   2.037   3.178   0.410 -0.2217 -0.1662 -0.3588
  115SOL     OW  532   1.579   2.836   0.415  0.0180 -0.1105  0.0225
  115SOL    HW2  533   1.556   2.861   0.505 -1.3327  0.7066 -0.5351
  115SOL    HW3  534   1.619   2.914   0.378  0.6559 -0.4773 -0.0593
  115SOL    MW4  535   1.581   2.849   0.422 -0.0761 -0.0510 -0.0619
  116SOL     OW  536   1.258   2.979   0.450 -0.2209 -0.0479 -0.0994
  116SOL    HW2  537   1.166   2.972   0.423 -0.5171 -1.1001  1.0840
  116SOL    HW3  538   1.289   2.888   0.450  0.3889  0.1565  0.9027
  116SOL    MW4  539   1.250   2.966   0.447 -0.1794 -0.1595  0.1889
  117SOL     OW  540   1.199   1.961   0.495  0.6042 -0.0898 -0.1893
  117SOL    HW2  541   1.169   1.957   0.586 -0.0447 -1.4953 -0.4672
  117SOL    HW3  542   1.218   1.870   0.471  0.0941  0.1870 -1.6908
  117SOL    MW4  543   1.198   1.949   0.504  0.4512 -0.2385 -0.4240
  118SOL     OW  544   3.515   2.196   0.281  0.4769  0.0087 -0.1440
  118SOL    HW2  545   3.608   2.217   0.272  0.2952  1.0049  0.2599
  118SOL    HW3  546   3.515   2.109   0.321  1.2426  0.5542  1.0726
  118SOL    MW4  547   3.528   2.187   0.285  0.5541  0.2122  0.0698
  119SOL     OW  548   2.037   2.555   0.484  0.2427 -0.4203  0.1528
  119SOL    HW2  549   2.042   2.651   0.480 -0.3021 -0.4302 -0.8040
  119SOL    HW3  550   2.129   2.527   0.493  0.3915  0.1907  0.5624
  119SOL    MW4  551   2.050   2.564   0.485  0.1903 -0.3407  0.0806
  120SOL     OW  552   1.415   2.464   0.449 -0.0439  0.2270 -0.3268
  120SOL    HW2  553   1.417   2.383   0.398 -1.4359 -0.4399  0.6246
  120SOL    HW3  554   1.368   2.526   0.394  0.5907  0.2236 -0.8613
  120SOL    MW4  555   1.409   2.461   0.435 -0.1439  0.1385 -0.2718
  121SOL     OW  556   1.746   3.061   0.407  0.2826 -0.0932  0.1109
  121SOL    HW2  557   1.698   3.135   0.444  0.9271  0.3038  0.1593
  121SOL    HW3  558   1.836   3.093   0.398  0.4260 -0.6518 -0.4773
  121SOL    MW4  559   1.751   3.075   0.410  0.3866 -0.1144  0.0397
  122SOL     OW  560   2.310   3.204   0.496  0.5289 -0.2722 -0.8964
  122SOL    HW2  561   2.397   3.165   0.491  0.9083  0.1377  1.8251
  122SOL    HW3  562   2.293   3.213   0.590 -2.0756  0.4866 -1.4018
  122SOL    MW4  563   2.319   3.200   0.508  0.2356 -0.1180 -0.6040
  123SOL     OW  564   1.897   3.807   0.354  0.6349 -0.0745  0.4880
  123SOL    HW2  565   1.938   3.808   0.268  1.1871 -0.7760  0.7381
  123SOL    HW3  566   1.958   3.759   0.410 -0.4190 -0.9409  0.9247
  123SOL    MW4  567   1.910   3.801   0.350  0.5687 -0.2813  0.5786
  124SOL     OW  568   1.501   4.086   0.407 -0.4834 -0.3477 -0.0480
  124SOL    HW2  569   1.449   4.041   0.474 -0.8396  0.9485  0.5473
  124SOL    HW3  570   1.448   4.160   0.380  0.4711  0.2213 -0.3967
  124SOL    MW4  571   1.487   4.090   0.412 -0.4045 -0.1016 -0.0154
  125SOL     OW  572   1.587   4.453   0.467  0.4256 -0.0107  0.4249
  125SOL    HW2  573   1.574   4.436   0.561 -0.7671  0.6263  0.3747
  125SOL    HW3  574   1.520   4.401   0.424 -2.0391  3.2184  0.1683
  125SOL    MW4  575   1.576   4.444   0.474 -0.0571  0.4997  0.3844
  126SOL     OW  576   1.391   4.484   0.095  0.1909 -0.1341  0.2153
  126SOL    HW2  577   1.395   4.568   0.140  1.4998 -0.3607  0.5305
  126SOL    HW3  578   1.476   4.475   0.053  0.0387 -1.2753  0.1302
  126SOL    MW4  579   1.402   4.494   0.095  0.3436 -0.3147  0.2457
  127SOL     OW  580   2.517   0.105   0.408 -0.0658 -0.0280  0.6274
  127SOL    HW2  581   2.570   0.075   0.481 -0.6832  0.8604  1.4492
  127SOL    HW3  582   2.448   0.038   0.401  0.7192 -0.7902  0.0263
  127SOL    MW4  583   2.515   0.092   0.417 -0.0436 -0.0113  0.6565
  128SOL     OW  584   2.181   0.149   0.484  0.5150 -0.0205  0.1597
  128SOL    HW2  585   2.227   0.065   0.477 -0.6218 -0.4911 -2.2629
  128SOL    HW3  586   2.089   0.126   0.487  0.2668  1.0830  1.1081
  128SOL    MW4  587   2.175   0.135   0.483  0.3324  0.0630 -0.0348
  129SOL     OW  588   2.851   0.908   0.437  0.3102 -0.1838 -0.0829
  129SOL    HW2  589   2.848   0.827   0.385 -1.3753 -0.4199  0.3403
  129SOL    HW3  590   2.801   0.971   0.384 -0.0336  0.0253  0.4906
  129SOL    MW4  591   2.844   0.905   0.423  0.0427 -0.1873  0.0486
  130SOL     OW  592   2.707   0.461   0.312  0.2835 -0.3964  0.3608
  130SOL    HW2  593   2.648   0.458   0.388  0.7055 -0.5371  0.6886
  130SOL    HW3  594   2.663   0.407   0.246 -0.5431  0.4875  0.1674
  130SOL    MW4  595   2.693   0.454   0.313  0.2303 -0.2984  0.3786
  131SOL     OW  596   3.113   0.941   0.162 -0.0121 -0.4745  0.2576
  131SOL    HW2  597   3.029   0.897   0.154  0.0503 -0.7170  0.8918
  131SOL    HW3  598   3.091   1.031   0.188 -0.0465 -0.7237  1.0933
  131SOL    MW4  599   3.099   0.947   0.164 -0.0083 -0.5394  0.4515
  132SOL     OW  600   3.121   0.918   0.491 -0.8648 -0.0765  0.5694
  132SOL    HW2  601   3.131   0.902   0.584 -1.1291  0.1097  0.6325
  132SOL    HW3  602   3.026   0.922   0.478 -0.8477 -0.8279  0.1680
  132SOL    MW4  603   3.110   0.916   0.501 -0.8976 -0.1511  0.5248
  133SOL     OW  604   2.848   1.299   0.422 -0.2792 -0.0188  0.5922
  133SOL    HW2  605   2.865   1.392   0.406  0.4088 -0.3721 -0.8273
  133SOL    HW3  606   2.841   1.292   0.517  0.4131  1.3646  0.7619
  133SOL    MW4  607   2.850   1.310   0.433 -0.0970  0.1172  0.4273
  134SOL     OW  608   2.586   1.592   0.320 -0.2367  0.2401 -0.2016
  134SOL    HW2  609   2.619   1.605   0.231  0.8945 -1.9119 -0.1277
  134SOL    HW3  610   2.664   1.576   0.373 -1.0199  0.0753  0.9297
  134SOL    MW4  611   2.601   1.592   0.315 -0.1910 -0.0656 -0.0426
  135SOL     OW  612   2.867   0.682   0.270 -0.0670 -0.1284 -0.1453
  135SOL    HW2  613   2.810   0.606   0.284  0.7635 -0.3152  2.4874
  135SOL    HW3  614   2.827   0.729   0.197 -1.7787 -1.9724 -0.4290
  135SOL    MW4  615   2.854   0.678   0.263 -0.1831 -0.3964  0.1646
  136SOL     OW  616   2.215   1.971   0.368 -0.0169 -0.1911  0.0475
  136SOL    HW2  617   2.256   1.936   0.289  0.8016  0.9379 -0.0294
  136SOL    HW3  618   2.283   2.022   0.411 -1.3107  1.6734 -0.0485
  136SOL    MW4  619   2.229   1.973   0.363 -0.0796  0.2040  0.0247
  137SOL     OW  620   1.860   1.637   0.428 -0.3181  0.5125  0.2867
  137SOL    HW2  621   1.845   1.648   0.522  1.1675  2.4202  0.3247
  137SOL    HW3  622   1.791   1.689   0.386  0.1450  1.1914  0.3560
  137SOL    MW4  623   1.849   1.645   0.435 -0.0609  0.8538  0.3009
  138SOL     OW  624   2.402   2.180   0.504 -0.6377  0.1434  0.2262
  138SOL    HW2  625   2.359   2.265   0.505 -1.6670 -0.3151 -2.0079
  138SOL    HW3  626   2.491   2.198   0.474 -0.4845  0.5871  0.9536
  138SOL    MW4  627   2.408   2.193   0.500 -0.7532  0.1414  0.0274
  139SOL     OW  628   2.701   2.220   0.465 -0.1201 -0.0246 -0.3236
  139SOL    HW2  629   2.744   2.303   0.443 -3.5632  2.2763  1.1156
  139SOL    HW3  630   2.733   2.198   0.552  0.3793  0.1153 -0.4752
  139SOL    MW4  631   2.711   2.228   0.474 -0.5083  0.2978 -0.1537
  140SOL     OW  632   2.563   2.858   0.507 -0.3122  0.0895 -0.1748
  140SOL    HW2  633   2.564   2.947   0.470  1.2048  0.0533 -0.2681
  140SOL    HW3  634   2.502   2.863   0.580  1.8244  1.9492  1.5638
  140SOL    MW4  635   2.555   2.870   0.511  0.1698  0.3300  0.0423
  141SOL     OW  636   1.507   2.203   0.378  0.0314  0.2651  0.2927
  141SOL    HW2  637   1.492   2.163   0.292 -0.7264 -1.3200  1.1556
  141SOL    HW3  638   1.602   2.212   0.384  0.2321 -1.5679  0.1457
  141SOL    MW4  639   1.518   2.199   0.367 -0.0420 -0.1860  0.3872
  142SOL     OW  640   1.910   2.815   0.552  0.3058 -0.2204  0.3644
  142SOL    HW2  641   1.844   2.875   0.517 -0.4226 -0.9959  0.4204
  142SOL    HW3  642   1.949   2.863   0.625 -0.0937  0.2889  0.2479
  142SOL    MW4  643   1.907   2.830   0.557  0.1570 -0.2556  0.3564
  143SOL     OW  644   2.062   3.617   0.543 -0.0099 -0.2646 -0.1119
  143SOL    HW2  645   2.144   3.665   0.561  0.5610 -1.0738 -0.5322
  143SOL    HW3  646   2.027   3.598   0.630  0.4859 -0.3096  0.0818
  143SOL    MW4  647   2.068   3.621   0.557  0.1307 -0.3774 -0.1418
  144SOL     OW  648   2.135   4.010   0.465  0.0150  0.2945 -0.2293
  144SOL    HW2  649   2.154   3.955   0.389  0.0891  0.2402 -0.1717
  144SOL    HW3  650   2.216   4.058   0.481 -0.7361  2.0629 -1.6361
  144SOL    MW4  651   2.148   4.009   0.457 -0.0744  0.5207 -0.4073
  145SOL     OW  652   1.651   3.672   0.379  0.4160  0.5937  0.4406
  145SOL    HW2  653   1.668   3.594   0.325  1.2898  2.4941 -2.1102
  145SOL    HW3  654   1.728   3.728   0.366 -1.9320  3.6414 -1.0144
  145SOL    MW4  655   1.663   3.669   0.370  0.2215  1.2467 -0.0879
  146SOL     OW  656   1.995   3.451   0.313 -0.7311  0.1101  0.3045
  146SOL    HW2  657   2.065   3.482   0.257 -0.4718 -2.1769 -0.7007
  146SOL    HW3  658   2.012   3.491   0.398  2.5767 -1.4352  0.4371
  146SOL    MW4  659   2.006   3.460   0.317 -0.2604 -0.3955  0.1894
  147SOL     OW  660   2.202   4.331   0.355 -0.1269  0.4041  0.3251
  147SOL    HW2  661   2.108   4.317   0.360 -0.4083  1.7088 -1.0647
  147SOL    HW3  662   2.221   4.334   0.261  1.8340 -3.2368  0.5042
  147SOL    MW4  663   2.192   4.329   0.343  0.0949  0.0963  0.1654
  148SOL     OW  664   1.946   4.198   0.394 -0.2237  0.1403 -0.2892
  148SOL    HW2  665   1.874   4.141   0.422 -0.7034  0.6969 -0.4016
  148SOL    HW3  666   2.023   4.141   0.396 -0.5238 -0.2462  0.6168
  148SOL    MW4  667   1.947   4.183   0.398 -0.3265  0.1626 -0.1845
  149SOL     OW  668   2.370   4.143   0.500 -0.0413  0.2817 -0.7202
  149SOL    HW2  669   2.403   4.199   0.570 -2.5262 -1.2871  1.7653
  149SOL    HW3  670   2.331   4.205   0.437  0.0872  1.5357  0.4062
  149SOL    MW4  671   2.369   4.159   0.501 -0.3524  0.2403 -0.2437
  150SOL     OW  672   2.217   3.838   0.251  0.3713  0.1537 -0.3350
  150SOL    HW2  673   2.218   3.743   0.248 -0.7400  0.0292  2.1167
  150SOL    HW3  674   2.310   3.862   0.261  0.5305 -0.7392  0.4080
  150SOL    MW4  675   2.230   3.829   0.252  0.2456  0.0196  0.0865
  151SOL     OW  676   2.730   3.937   0.493  0.4429 -0.0879 -0.4777
  151SOL    HW2  677   2.663   3.887   0.446  1.2504  0.0117 -1.7407
  151SOL    HW3  678   2.812   3.913   0.451  1.1979 -0.1478  1.0310
  151SOL    MW4  679   2.732   3.927   0.481  0.6492 -0.0825 -0.4453
  152SOL     OW  680   2.504   0.374   0.470 -0.0849 -0.1074 -0.2611
  152SOL    HW2  681   2.418   0.408   0.444  0.6448  1.0504 -1.1964
  152SOL    HW3  682   2.502   0.282   0.445 -0.9630 -0.0286 -0.5032
  152SOL    MW4  683   2.492   0.366   0.463 -0.1044  0.0557 -0.4164
  153SOL     OW  684   1.799   0.310   0.380 -0.0305  0.3974  0.4479
  153SOL    HW2  685   1.860   0.359   0.325  0.0173  0.5955  0.6787
  153SOL    HW3  686   1.854   0.249   0.429 -0.0165  0.5855  0.6663
  153SOL    MW4  687   1.814   0.309   0.379 -0.0223  0.4484  0.5071
  154SOL     OW  688   3.157   0.477   0.544 -0.6041 -0.1327 -0.0360
  154SOL    HW2  689   3.226   0.513   0.600 -0.8372  0.1231  0.0853
  154SOL    HW3  690   3.181   0.384   0.534 -0.2481 -0.0451  0.0112
  154SOL    MW4  691   3.169   0.469   0.550 -0.5879 -0.0874 -0.0138
  155SOL     OW  692   2.700   1.097   0.297 -0.1511 -0.3556 -0.1066
  155SOL    HW2  693   2.758   1.163   0.336 -0.7662 -0.9869  1.9533
  155SOL    HW3  694   2.613   1.136   0.301 -0.2868 -0.6192 -0.4555
  155SOL    MW4  695   2.696   1.111   0.303 -0.2501 -0.4736  0.1191
  156SOL     OW  696   3.430   0.909   0.216 -0.0412 -0.4404  0.2289
  156SOL    HW2  697   3.383   0.939   0.138  0.1762 -0.6611  0.0126
  156SOL    HW3  698   3.487   0.982   0.239 -0.3637 -0.2396  0.3874
  156SOL    MW4  699   3.431   0.922   0.209 -0.0553 -0.4431  0.2213
  157SOL     OW  700   3.354   1.555   0.307 -0.0205 -0.4114 -0.2125
  157SOL    HW2  701   3.375   1.475   0.355 -0.6561 -1.6145 -1.9053
  157SOL    HW3  702   3.439   1.596   0.290  0.1689  0.5915  2.8066
  157SOL    MW4  703   3.368   1.550   0.311 -0.0792 -0.4377 -0.0375
  158SOL     OW  704   3.136   1.180   0.389  0.2129 -0.4749  0.0854
  158SOL    HW2  705   3.049   1.220   0.401  0.4719  0.2381 -0.3850
  158SOL    HW3  706   3.131   1.099   0.438  0.0301  0.6323  1.9533
  158SOL    MW4  707   3.124   1.175   0.397  0.2229 -0.2346  0.2697
  159SOL     OW  708   3.125   1.677   0.434  0.7242 -0.4579  0.4388
  159SOL    HW2  709   3.198   1.633   0.391  1.5221  0.8842  0.3675
  159SOL    HW3  710   3.143   1.770   0.421 -1.4804 -0.1162 -0.3465
  159SOL    MW4  711   3.137   1.684   0.427  0.5383 -0.2358  0.3258
  160SOL     OW  712   2.818   0.182   0.713 -0.1445  0.1243  0.2190
  160SOL    HW2  713   2.779   0.245   0.774  0.3802 -0.3090  1.0128
  160SOL    HW3  714   2.857   0.236   0.644  2.2496  0.7924  2.0298
  160SOL    MW4  715   2.818   0.197   0.712  0.2408  0.1553  0.5626
  161SOL     OW  716   3.084   2.072   0.611  0.1879 -0.2525  0.0567
  161SOL    HW2  717   2.992   2.095   0.619  0.1471 -0.2947 -0.2832
  161SOL    HW3  718   3.104   2.022   0.690 -0.1701 -0.5568 -0.0470
  161SOL    MW4  719   3.075   2.069   0.623  0.1352 -0.2983 -0.0018
  162SOL     OW  720   2.793   2.473   0.385  0.1755  0.1399 -0.0888
  162SOL    HW2  721   2.788   2.485   0.290 -0.8724  1.0376  0.0655
  162SOL    HW3  722   2.874   2.517   0.410 -0.1807  1.0266 -0.4289
  162SOL    MW4  723   2.803   2.481   0.376 -0.0098  0.3757 -0.1133
  163SOL     OW  724   2.848   1.599   0.433  0.0779 -0.4159  0.0730
  163SOL    HW2  725   2.825   1.630   0.521  0.9937 -1.4218  0.6874
  163SOL    HW3  726   2.936   1.631   0.419 -0.9221  1.7426 -1.4649
  163SOL    MW4  727   2.856   1.607   0.443  0.0665 -0.2638 -0.0488
  164SOL     OW  728   2.544   2.575   0.498 -0.2845 -0.3606 -0.2214
  164SOL    HW2  729   2.564   2.668   0.491 -0.8259 -0.2559 -0.4674
  164SOL    HW3  730   2.617   2.530   0.455  0.6174 -0.1151  1.0352
  164SOL    MW4  731   2.556   2.581   0.492 -0.2370 -0.3142 -0.0881
  165SOL     OW  732   2.847   3.191   0.535  0.0422 -0.3688 -0.0896
  165SOL    HW2  733   2.881   3.276   0.510  1.2933 -0.3560  1.5788
  165SOL    HW3  734   2.798   3.207   0.616  0.0681 -1.1716  0.0958
  165SOL    MW4  735   2.845   3.204   0.543  0.2105 -0.4728  0.1550
  166SOL     OW  736   2.964   3.433   0.436 -0.1108  0.0232 -0.1180
  166SOL    HW2  737   3.032   3.366   0.426  0.1511  0.2421  0.1777
  166SOL    HW3  738   3.013   3.516   0.445 -0.4159  0.1932 -0.0106
  166SOL    MW4  739   2.980   3.435   0.436 -0.1166  0.0744 -0.0648
  167SOL     OW  740   3.178   3.225   0.483 -0.5841  0.0400 -0.3429
  167SOL    HW2  741   3.186   3.131   0.468  1.3714  0.2572 -0.7745
  167SOL    HW3  742   3.171   3.233   0.578  0.7849 -0.4552 -0.1853
  167SOL    MW4  743   3.178   3.213   0.493 -0.1454  0.0033 -0.3791
  168SOL     OW  744   2.389   3.464   0.392 -0.6939 -0.2631  0.3633
  168SOL    HW2  745   2.485   3.462   0.397 -0.6889  0.2581  0.5261
  168SOL    HW3  746   2.361   3.378   0.422 -0.2432 -0.6909 -0.4283
  168SOL    MW4  747   2.398   3.453   0.397 -0.6337 -0.2508  0.2804
  169SOL     OW  748   2.222   3.572   0.218  0.1547 -0.2802 -0.2751
  169SOL    HW2  749   2.289   3.528   0.270  0.1284  0.6025  0.5299
  169SOL    HW3  750   2.241   3.546   0.128  2.3707  0.9444 -0.2064
  169SOL    MW4  751   2.233   3.563   0.213  0.4437 -0.0021 -0.1598
  170SOL     OW  752   3.662   3.573   0.254  0.1433 -0.2342  0.3513
  170SOL    HW2  753   3.586   3.517   0.238  0.3940 -0.4185 -0.1772
  170SOL    HW3  754   3.703   3.537   0.333 -0.2104 -0.2444  0.5302
  170SOL    MW4  755   3.657   3.561   0.263  0.1299 -0.2599  0.3051
  171SOL     OW  756   2.473   3.902   0.382 -0.8461  0.0029 -0.4806
  171SOL    HW2  757   2.472   3.992   0.414  0.8111  0.9241 -2.8428
  171SOL    HW3  758   2.418   3.854   0.444 -1.1881  2.4806  1.2304
  171SOL    MW4  759   2.466   3.907   0.394 -0.6728  0.4513 -0.5665
  172SOL     OW  760   2.335   3.706   0.539 -0.0046 -0.1036 -0.3861
  172SOL    HW2  761   2.368   3.682   0.625  1.1281 -0.1897 -0.8410
  172SOL    HW3  762   2.361   3.633   0.482 -0.7286 -0.0405 -0.8111
  172SOL    MW4  763   2.343   3.693   0.543  0.0494 -0.1068 -0.5022
  173SOL     OW  764   3.612   4.054   0.434  0.6064  0.3683 -0.0329
  173SOL    HW2  765   3.521   4.077   0.413  0.1685 -0.5925  0.7868
  173SOL    HW3  766   3.619   3.961   0.410  0.4178 -0.4648  2.9372
  173SOL    MW4  767   3.601   4.045   0.428  0.5238  0.1321  0.4671
  174SOL     OW  768   2.981   4.372   0.443  0.4885  0.0031 -0.1073
  174SOL    HW2  769   2.921   4.378   0.518 -1.1093  0.2803 -1.3918
  174SOL    HW3  770   2.926   4.390   0.367  1.7187 -2.0050 -1.5106
  174SOL    MW4  771   2.965   4.375   0.443  0.4399 -0.2251 -0.4619
  175SOL     OW  772   3.449   4.451   0.430 -0.1095 -0.1789  0.1659
  175SOL    HW2  773   3.503   4.491   0.362  1.0933 -0.5245  0.9032
  175SOL    HW3  774   3.371   4.506   0.434  0.1855  0.3283 -0.9088
  175SOL    MW4  775   3.445   4.463   0.422  0.0882 -0.1569  0.1214
  176SOL     OW  776   3.185   4.572   0.505 -0.9958 -0.1887  0.8588
  176SOL    HW2  777   3.115   4.522   0.464 -0.9728  0.7208 -0.3136
  176SOL    HW3  778   3.168   4.566   0.599 -0.9025 -2.5289  0.7569
  176SOL    MW4  779   3.174   4.565   0.512 -0.9804 -0.3777  0.6907
  177SOL     OW  780   2.820   4.449   0.680 -0.6442  0.1545 -0.0626
  177SOL    HW2  781   2.755   4.513   0.650 -2.6041 -1.9740 -0.4662
  177SOL    HW3  782   2.773   4.395   0.744  1.3015 -0.2079  1.0971
  177SOL    MW4  783   2.805   4.451   0.685 -0.6461 -0.1745  0.0372
  178SOL     OW  784   2.830   0.908   0.110 -0.3813  0.2289  0.3416
  178SOL    HW2  785   2.837   0.933   0.018 -1.0321 -1.6454 -0.2369
  178SOL    HW3  786   2.769   0.971   0.148 -0.4020  0.7805 -0.5941
  178SOL    MW4  787   2.823   0.920   0.103 -0.4699  0.0544  0.1418
  179SOL     OW  788   3.415   0.729   0.459 -0.0781  0.1930  0.2043
  179SOL    HW2  789   3.452   0.646   0.432 -0.1418  0.1886  0.1292
  179SOL    HW3  790   3.489   0.789   0.463 -0.1264  0.2943 -0.3704
  179SOL    MW4  791   3.429   0.726   0.456 -0.0930  0.2058  0.1186
  180SOL     OW  792   2.901   0.359   0.509  0.2947 -0.3709  0.0342
  180SOL    HW2  793   2.842   0.384   0.438 -0.3780 -0.5236  0.5303
  180SOL    HW3  794   2.987   0.393   0.483 -0.1620  0.4958 -0.3441
  180SOL    MW4  795   2.905   0.367   0.496  0.1454 -0.2767  0.0497
  181SOL     OW  796   3.583   0.448   0.438 -0.0761 -0.3436  0.5524
  181SOL    HW2  797   3.667   0.494   0.444  0.1000 -0.6047  0.0732
  181SOL    HW3  798   3.606   0.356   0.426 -0.4098 -0.2603 -0.8941
  181SOL    MW4  799   3.597   0.442   0.437 -0.0968 -0.3670  0.2983
  182SOL     OW  800   3.130   0.628   0.307 -0.1939 -0.1723  0.6662
  182SOL    HW2  801   3.037   0.641   0.285 -0.3847 -1.4416  0.7059
  182SOL    HW3  802   3.128   0.577   0.388  0.5445 -0.2417  0.6408
  182SOL    MW4  803   3.117   0.623   0.315 -0.1214 -0.3489  0.6681
  183SOL     OW  804   3.582   1.739   0.258 -0.4265 -0.2134 -0.1991
  183SOL    HW2  805   3.541   1.795   0.324 -0.9857 -0.6317 -0.1814
  183SOL    HW3  806   3.566   1.783   0.175 -0.6321 -0.2124 -0.1581
  183SOL    MW4  807   3.574   1.752   0.256 -0.5274 -0.2685 -0.1913
  184SOL     OW  808   3.181   1.952   0.385 -0.1798 -0.3003  0.4234
  184SOL    HW2  809   3.149   1.995   0.465 -0.7792 -2.2245  1.2348
  184SOL    HW3  810   3.206   2.025   0.328 -1.1130  1.1414  1.7973
  184SOL    MW4  811   3.180   1.968   0.388 -0.3817 -0.3639  0.7118
  185SOL     OW  812   3.569   1.117   0.344  0.3786 -0.3290 -0.1263
  185SOL    HW2  813   3.490   1.163   0.372 -0.3429 -2.0653  0.8146
  185SOL    HW3  814   3.641   1.172   0.374 -0.4600  0.7878 -0.1234
  185SOL    MW4  815   3.568   1.130   0.352  0.1729 -0.4108 -0.0018
  186SOL     OW  816   3.500   1.947   0.423  0.2250  0.0774  0.6977
  186SOL    HW2  817   3.406   1.942   0.438  0.0024  2.1424  0.2058
  186SOL    HW3  818   3.540   1.945   0.510 -0.3326  0.0766  0.9503
  186SOL    MW4  819   3.493   1.946   0.436  0.1218  0.3498  0.6661
  187SOL     OW  820   3.240   2.290   0.625  0.3489 -0.0403 -0.1395
  187SOL    HW2  821   3.180   2.215   0.623  0.7129 -0.3097 -1.7920
  187SOL    HW3  822   3.285   2.282   0.709 -1.5241 -0.1454  0.8813
  187SOL    MW4  823   3.238   2.279   0.636  0.1497 -0.0896 -0.2229
  188SOL     OW  824   3.531   2.789   0.622 -0.4129 -0.3057  0.2262
  188SOL    HW2  825   3.562   2.779   0.712 -0.6802  0.7100  0.4404
  188SOL    HW3  826   3.533   2.701   0.585  0.7066 -0.5674  0.9013
  188SOL    MW4  827   3.536   2.776   0.629 -0.3004 -0.2065  0.3434
  189SOL     OW  828   2.573   3.134   0.454 -0.0123  0.1367 -0.3152
  189SOL    HW2  829   2.594   3.155   0.363 -0.8676  3.2720  0.1313
  189SOL    HW3  830   2.634   3.187   0.505 -1.1686  0.3265  0.9159
  189SOL    MW4  831   2.584   3.144   0.449 -0.2778  0.5753 -0.0939
  190SOL     OW  832   3.239   2.710   0.362  0.6375  0.2154 -1.0723
  190SOL    HW2  833   3.173   2.652   0.400  0.7187  0.6466 -0.2604
  190SOL    HW3  834   3.257   2.673   0.275 -0.7314  0.1503 -1.3381
  190SOL    MW4  835   3.233   2.697   0.355  0.4675  0.2637 -1.0003
  191SOL     OW  836   2.954   2.922   0.816 -0.3105 -0.2349  0.0058
  191SOL    HW2  837   2.929   2.905   0.725 -1.7324  0.7629  0.1940
  191SOL    HW3  838   3.010   2.848   0.840  1.5709  0.3805 -2.2428
  191SOL    MW4  839   2.958   2.910   0.807 -0.2499 -0.0224 -0.2661
  192SOL     OW  840   3.229   0.200   0.528 -0.0452  0.2156 -0.8411
  192SOL    HW2  841   3.233   0.222   0.621  0.1166  0.7515 -0.9759
  192SOL    HW3  842   3.210   0.106   0.526  0.2204  0.1526 -0.2670
  192SOL    MW4  843   3.227   0.190   0.540  0.0112  0.2780 -0.7831
  193SOL     OW  844   2.994   3.925   0.370  0.5061  0.0534 -0.0214
  193SOL    HW2  845   3.047   3.891   0.297  0.6313  1.4282 -0.5837
  193SOL    HW3  846   3.046   3.997   0.405 -0.7379  1.0651 -0.2274
  193SOL    MW4  847   3.008   3.930   0.365  0.3583  0.3681 -0.1227
  194SOL     OW  848   3.571   3.777   0.427  0.2722  0.0525  0.0731
  194SOL    HW2  849   3.597   3.728   0.349  0.1544 -0.5606  0.4178
  194SOL    HW3  850   3.492   3.733   0.458 -0.0352  0.6775  0.1871
  194SOL    MW4  851   3.564   3.765   0.421  0.2160  0.0539  0.1336
  195SOL     OW  852   3.590   3.263   0.513 -0.3239 -0.3489 -0.1727
  195SOL    HW2  853   3.665   3.312   0.477 -0.1410  0.6421  1.5379
  195SOL    HW3  854   3.616   3.171   0.505  1.3309 -0.0016  0.8943
  195SOL    MW4  855   3.604   3.258   0.507 -0.0813 -0.1724  0.1937
  196SOL     OW  856   3.387   3.381   0.381  0.0555  0.1318 -0.1596
  196SOL    HW2  857   3.313   3.327   0.412  0.3422 -0.2598 -0.1512
  196SOL    HW3  858   3.462   3.349   0.430  0.3757  0.0154 -0.7165
  196SOL    MW4  859   3.387   3.369   0.391  0.1359  0.0648 -0.2320
  197SOL     OW  860   3.122   4.138   0.485  0.3112 -0.3972  0.1602
  197SOL    HW2  861   3.127   4.137   0.580  1.2681 -1.6821  0.1205
  197SOL    HW3  862   3.091   4.225   0.462  1.1523  0.2852  1.6039
  197SOL    MW4  863   3.119   4.149   0.494  0.5486 -0.4773  0.3455
  198SOL     OW  864   2.667   3.476   0.471  0.2560  0.8322  0.4907
  198SOL    HW2  865   2.760   3.480   0.451  0.2461 -0.8476  0.0243
  198SOL    HW3  866   2.664   3.472   0.567  0.8042 -1.2911  0.4602
  198SOL    MW4  867   2.679   3.476   0.481  0.3273  0.3304  0.4251
  199SOL     OW  868   4.322   4.667   0.392  0.3106  0.0194 -0.2436
  199SOL    HW2  869   4.415   4.678   0.409  0.2358 -1.0319  0.9324
  199SOL    HW3  870   4.306   4.573   0.405 -1.3736  0.5579  2.0725
  199SOL    MW4  871   4.332   4.656   0.396  0.0787 -0.0482  0.2171
  200SOL     OW  872   3.876   4.640   0.380  0.6595  0.6547 -0.5321
  200SOL    HW2  873   3.937   4.689   0.435  0.9650 -0.0901 -0.1944
  200SOL    HW3  874   3.899   4.548   0.395 -1.2993  0.2965  0.5276
  200SOL    MW4  875   3.887   4.634   0.389  0.4416  0.5088 -0.3477
  201SOL     OW  876   3.525   0.156   0.464 -0.1195 -0.1507  0.0463
  201SOL    HW2  877   3.433   0.180   0.466  0.1001  0.7218 -0.0922
  201SOL    HW3  878   3.529   0.084   0.400 -0.7037 -0.2149  0.0780
  201SOL    MW4  879   3.513   0.150   0.456 -0.1676 -0.0441  0.0322
  202SOL     OW  880   3.877   0.488   0.479 -0.2487 -0.2760 -0.3934
  202SOL    HW2  881   3.872   0.467   0.572  0.4069  0.7890 -0.1116
  202SOL    HW3  882   3.948   0.433   0.446 -0.3469 -0.5040 -0.2251
  202SOL    MW4  883   3.886   0.478   0.487 -0.1752 -0.1656 -0.3340
  203SOL     OW  884   4.135   0.339   0.402 -0.1001  0.3577  0.1022
  203SOL    HW2  885   4.214   0.392   0.408 -0.6995  1.3891 -0.9706
  203SOL    HW3  886   4.153   0.277   0.332 -0.2504  0.6189 -0.1696
  203SOL    MW4  887   4.148   0.338   0.394 -0.1993  0.5282 -0.0752
  204SOL     OW  888   4.216   0.747   0.439 -0.1978  0.1080  0.1990
  204SOL    HW2  889   4.220   0.736   0.344  0.1646  0.7468  0.1328
  204SOL    HW3  890   4.131   0.788   0.455 -0.6509 -0.8483  0.2415
  204SOL    MW4  891   4.205   0.751   0.429 -0.2098  0.0661  0.1959
  205SOL     OW  892   3.655   0.895   0.483 -0.0740  0.2002 -0.2032
  205SOL    HW2  893   3.633   0.970   0.427  0.4513  1.2401  0.9704
  205SOL    HW3  894   3.624   0.920   0.570  4.2000  1.0721  1.1887
  205SOL    MW4  895   3.648   0.908   0.487  0.5593  0.4525  0.1353
  206SOL     OW  896   4.015   1.258   0.336  0.5950  0.4090  0.1148
  206SOL    HW2  897   4.035   1.236   0.244 -0.2245  0.5928 -0.1119
  206SOL    HW3  898   4.070   1.334   0.355  1.1128  0.0927 -0.0745
  206SOL    MW4  899   4.025   1.265   0.326  0.5550  0.3915  0.0598
  207SOL     OW  900   3.755   1.313   0.447 -0.4851  0.4807 -0.1168
  207SOL    HW2  901   3.835   1.286   0.401 -1.4267  0.0923 -1.5488
  207SOL    HW3  902   3.754   1.408   0.441  0.6204  0.5992  1.2056
  207SOL    MW4  903   3.766   1.322   0.440 -0.4635  0.4450 -0.1312
  208SOL     OW  904   3.371   1.294   0.480  0.4725 -0.0546  0.3217
  208SOL    HW2  905   3.369   1.276   0.574 -0.3283 -0.2425  0.2687
  208SOL    HW3  906   3.284   1.269   0.449  0.2709  1.3062 -0.2372
  208SOL    MW4  907   3.359   1.288   0.488  0.3402  0.1000  0.2410
  209SOL     OW  908   3.760   1.624   0.459  0.1662  0.5688 -0.2569
  209SOL    HW2  909   3.709   1.621   0.540  1.3854 -0.3372  0.5052
  209SOL    HW3  910   3.701   1.662   0.394 -0.6268  1.8969  1.2092
  209SOL    MW4  911   3.745   1.629   0.461  0.2224  0.6244  0.0371
  210SOL     OW  912   3.525   2.541   0.500 -0.4922  0.0948 -0.3187
  210SOL    HW2  913   3.444   2.506   0.465 -1.2220  0.6591  0.7571
  210SOL    HW3  914   3.529   2.506   0.590  1.5599 -1.7137 -1.0595
  210SOL    MW4  915   3.515   2.532   0.507 -0.3178 -0.0696 -0.2745
  211SOL     OW  916   3.806   2.535   0.395  0.3805  0.4632 -0.1490
  211SOL    HW2  917   3.712   2.534   0.414  0.5223  0.7996  0.5719
  211SOL    HW3  918   3.848   2.553   0.479  1.0921  0.3296 -0.4695
  211SOL    MW4  919   3.799   2.537   0.409  0.4933  0.4900 -0.0962
  212SOL     OW  920   3.055   2.513   0.421  0.4157  0.2269  0.1594
  212SOL    HW2  921   3.112   2.442   0.389 -1.4587 -0.9117 -0.8144
  212SOL    HW3  922   3.060   2.507   0.516  1.6670 -0.0744  0.0804
  212SOL    MW4  923   3.063   2.503   0.429  0.3335  0.0367  0.0205
  213SOL     OW  924   3.053   3.686   0.502  0.1727  0.1718  0.2307
  213SOL    HW2  925   3.148   3.691   0.499  0.2555 -2.0125 -2.2306
  213SOL    HW3  926   3.023   3.763   0.454  0.7138  0.0696 -0.2677
  213SOL    MW4  927   3.061   3.697   0.495  0.2551 -0.1295 -0.1598
  214SOL     OW  928   3.162   2.947   0.493 -0.0256  0.4771 -0.1790
  214SOL    HW2  929   3.211   2.872   0.460  0.9342  1.3589 -0.7955
  214SOL    HW3  930   3.070   2.919   0.490  0.1586  0.0410 -2.3166
  214SOL    MW4  931   3.156   2.933   0.488  0.1252  0.5360 -0.5424
  215SOL     OW  932   3.839   2.799   0.357  0.2623  0.4106  0.2403
  215SOL    HW2  933   3.931   2.806   0.331  0.7181 -0.2114  1.6567
  215SOL    HW3  934   3.819   2.706   0.350 -0.2843  0.5525 -0.1261
  215SOL    MW4  935   3.849   2.788   0.352  0.2501  0.3474  0.3788
  216SOL     OW  936   3.676   3.004   0.510 -0.2194  0.1671 -0.0377
  216SOL    HW2  937   3.702   2.957   0.430  1.5554 -0.3799  0.8331
  216SOL    HW3  938   3.630   2.938   0.562  3.3623 -1.1164  1.7441
  216SOL    MW4  939   3.674   2.989   0.506  0.4873 -0.0741  0.3123
  217SOL     OW  940   4.026   3.801   0.352 -0.3363  0.6555  0.1466
  217SOL    HW2  941   3.968   3.779   0.425 -0.2415 -0.3185 -0.0590
  217SOL    HW3  942   3.970   3.799   0.275 -0.2057  0.5690  0.0530
  217SOL    MW4  943   4.011   3.798   0.352 -0.3066  0.5155  0.1071
  218SOL     OW  944   3.315   2.387   0.368  0.3510 -0.1863 -0.5910
  218SOL    HW2  945   3.291   2.334   0.445  0.0593  0.0849 -0.4941
  218SOL    HW3  946   3.369   2.329   0.315  1.5062 -0.0065  0.3740
  218SOL    MW4  947   3.319   2.372   0.371  0.4649 -0.1268 -0.4509
  219SOL     OW  948   3.327   3.631   0.504  0.4190 -0.5702  0.0735
  219SOL    HW2  949   3.346   3.550   0.456  1.3380 -0.6768  0.6053
  219SOL    HW3  950   3.346   3.610   0.595  1.6254  0.5229  0.0963
  219SOL    MW4  951   3.332   3.617   0.510  0.6995 -0.4401  0.1467
  220SOL     OW  952   4.223   3.577   0.360 -0.1281  0.4344  0.1726
  220SOL    HW2  953   4.168   3.501   0.377 -0.3484  0.8545  1.3491
  220SOL    HW3  954   4.164   3.652   0.364  0.5482  0.8983  1.5805
  220SOL    MW4  955   4.208   3.576   0.363 -0.0677  0.5510  0.5136
  221SOL     OW  956   3.380   4.172   0.337 -0.0050  0.5588 -0.4757
  221SOL    HW2  957   3.416   4.259   0.355  1.3967 -0.6675  3.1977
  221SOL    HW3  958   3.295   4.171   0.382  0.2827 -0.1364  0.0845
  221SOL    MW4  959   3.374   4.183   0.346  0.2177  0.3057  0.0829
  222SOL     OW  960   3.977   4.385   0.443 -0.0579  0.0453  0.1182
  222SOL    HW2  961   3.916   4.336   0.388  0.1705  1.0057 -1.0100
  222SOL    HW3  962   3.938   4.382   0.530 -1.2251 -0.1751 -0.3936
  222SOL    MW4  963   3.964   4.378   0.447 -0.1814  0.1431 -0.0981
  223SOL     OW  964   0.080   4.664   0.526  0.3404 -0.6376  0.0245
  223SOL    HW2  965   0.123   4.579   0.536  0.0835 -0.8859 -0.8622
  223SOL    HW3  966   0.029   4.675   0.606  1.2529 -0.8036  0.6344
  223SOL    MW4  967   0.079   4.654   0.538  0.4269 -0.6922 -0.0120
  224SOL     OW  968   3.904   0.774   0.507 -0.3358  0.1677 -0.3151
  224SOL    HW2  969   3.818   0.806   0.480 -0.4110  0.4242  0.2292
  224SOL    HW3  970   3.898   0.679   0.498 -0.6311  0.1964 -0.4132
  224SOL    MW4  971   3.892   0.765   0.502 -0.3848  0.2053 -0.2562
  225SOL     OW  972   0.092   1.734   0.196 -0.2363  0.6003  0.3346
  225SOL    HW2  973  -0.002   1.753   0.194 -0.3364  0.0667 -0.2082
  225SOL    HW3  974   0.122   1.750   0.106 -0.1933 -1.1155  0.0295
  225SOL    MW4  975   0.083   1.739   0.184 -0.2439  0.3035  0.2227
  226SOL     OW  976   0.259   0.204   0.403  0.1962 -0.1202  0.8112
  226SOL    HW2  977   0.177   0.165   0.432 -0.0882  0.9491  1.4704
  226SOL    HW3  978   0.279   0.159   0.321 -2.1782  1.0930 -0.5066
  226SOL    MW4  979   0.251   0.193   0.396 -0.1546  0.1809  0.7243
  227SOL     OW  980   4.418   0.936   0.491 -0.6019 -0.2844 -0.0953
  227SOL    HW2  981   4.369   1.017   0.474 -0.3973 -0.1722 -0.1552
  227SOL    HW3  982   4.356   0.866   0.473 -1.4567 -0.1142  1.9811
  227SOL    MW4  983   4.403   0.938   0.486 -0.6876 -0.2471  0.1708
  228SOL     OW  984   3.630   4.612   0.255 -0.2602  0.3482  0.5441
  228SOL    HW2  985   3.644   4.579   0.166  0.5889  0.7096  0.5407
  228SOL    HW3  986   3.718   4.617   0.293 -0.5708  0.7072  1.2224
  228SOL    MW4  987   3.643   4.608   0.248 -0.1893  0.4435  0.6331
  229SOL     OW  988   4.257   1.161   0.498 -0.0816 -0.1124  0.2494
  229SOL    HW2  989   4.268   1.217   0.575 -0.7351  0.1436  0.1569
  229SOL    HW3  990   4.174   1.188   0.460  0.4605  0.0729 -0.8112
  229SOL    MW4  991   4.248   1.172   0.503 -0.0963 -0.0540  0.0973
  230SOL     OW  992   0.079   1.228   0.265  0.1471 -0.3025  0.2544
  230SOL    HW2  993   0.003   1.243   0.320 -0.3123  0.4757 -0.5726
  230SOL    HW3  994   0.142   1.183   0.321 -0.4081  0.2566  1.3335
  230SOL    MW4  995   0.078   1.224   0.279  0.0132 -0.1260  0.2877
  231SOL     OW  996   3.955   2.092   0.423  0.0030  0.1672  0.2349
  231SOL    HW2  997   3.899   2.125   0.352  0.0369 -0.6770 -0.1921
  231SOL    HW3  998   4.000   2.170   0.456 -1.7773  0.9285  0.9057
  231SOL    MW4  999   3.953   2.107   0.418 -0.2277  0.1562  0.2671
  232SOL     OW 1000   4.049   1.673   0.513 -0.3067  0.0887 -0.0372
  232SOL    HW2 1001   4.081   1.754   0.470  0.6607  0.5848  1.5698
  232SOL    HW3 1002   3.959   1.664   0.483 -0.1500  1.3003 -0.9277
  232SOL    MW4 1003   4.042   1.683   0.503 -0.1583  0.3141  0.0573
  233SOL     OW 1004   4.386   2.047   0.449 -0.4686  0.1152 -0.9820
  233SOL    HW2 1005   4.432   2.121   0.410 -1.0637  0.6139 -0.7533
  233SOL    HW3 1006   4.451   1.978   0.454 -0.2092  0.2733 -2.2121
  233SOL    MW4 1007   4.400   2.048   0.445 -0.5131  0.2017 -1.1142
  234SOL     OW 1008   4.140   1.899   0.399  0.0836 -0.5846 -0.0557
  234SOL    HW2 1009   4.066   1.960   0.406  0.3247 -0.1917 -0.8922
  234SOL    HW3 1010   4.217   1.951   0.422  0.2033 -0.7720 -0.0301
  234SOL    MW4 1011   4.140   1.914   0.403  0.1311 -0.5577 -0.1627
  235SOL     OW 1012   4.333   2.455   0.453  0.1105  0.0886 -0.0520
  235SOL    HW2 1013   4.394   2.389   0.419 -0.7801 -0.6992 -0.1332
  235SOL    HW3 1014   4.362   2.470   0.543 -0.7583 -1.7545  0.5731
  235SOL    MW4 1015   4.345   2.448   0.460 -0.1221 -0.2584  0.0197
  236SOL     OW 1016   4.097   3.060   0.429 -0.2887  0.7568  0.0426
  236SOL    HW2 1017   4.107   2.988   0.366  1.4589  0.0316  1.1140
  236SOL    HW3 1018   4.024   3.033   0.485  1.2376 -0.8418  1.2891
  236SOL    MW4 1019   4.088   3.047   0.428  0.1435  0.4504  0.3484
  237SOL     OW 1020   4.060   2.335   0.521 -0.4210  0.0517  0.1447
  237SOL    HW2 1021   4.027   2.422   0.544  0.0598 -0.1449  1.6277
  237SOL    HW3 1022   4.141   2.352   0.473 -0.7952  0.4407 -0.3575
  237SOL    MW4 1023   4.066   2.349   0.518 -0.4067  0.0770  0.2741
  238SOL     OW 1024   0.051   3.407   0.572  0.0803 -0.0337 -0.5046
  238SOL    HW2 1025   0.093   3.423   0.656 -2.3981  1.5791  0.4713
  238SOL    HW3 1026   0.119   3.365   0.519  1.9071 -0.3817  2.0285
  238SOL    MW4 1027   0.066   3.403   0.576 -0.0057  0.1330 -0.0416
  239SOL     OW 1028   3.827   3.791   0.140  0.1649 -0.2253 -0.2165
  239SOL    HW2 1029   3.851   3.781   0.047 -0.0505 -0.2360 -0.2708
  239SOL    HW3 1030   3.791   3.706   0.165  3.2734 -1.3184  0.7867
  239SOL    MW4 1031   3.826   3.779   0.131  0.5465 -0.3707 -0.0913
  240SOL     OW 1032   0.463   3.314   0.554  0.0966 -0.2843  0.0686
  240SOL    HW2 1033   0.463   3.303   0.649  0.3240 -0.2331  0.0754
  240SOL    HW3 1034   0.537   3.372   0.537 -0.8736  0.9610  0.0044
  240SOL    MW4 1035   0.473   3.320   0.564 -0.0014 -0.1132  0.0610
  241SOL     OW 1036   3.823   3.697   0.519  0.1706  0.0694  0.5230
  241SOL    HW2 1037   3.735   3.724   0.492  0.3472  1.2474  1.0514
  241SOL    HW3 1038   3.817   3.688   0.614  0.1858 -1.5698  0.3768
  241SOL    MW4 1039   3.810   3.700   0.528  0.1962  0.0083  0.5734
  242SOL     OW 1040   4.082   3.342   0.457 -0.0845  0.4392 -0.1855
  242SOL    HW2 1041   4.059   3.341   0.550  0.5896 -0.3865 -0.0204
  242SOL    HW3 1042   4.099   3.251   0.435  0.1487  0.6785 -1.0243
  242SOL    MW4 1043   4.081   3.330   0.466  0.0358  0.3622 -0.2744
  243SOL     OW 1044   4.399   3.981   0.529 -0.1740  0.5214 -0.2581
  243SOL    HW2 1045   4.304   3.995   0.526  0.0172  2.2815  0.7737
  243SOL    HW3 1046   4.423   4.003   0.619  0.9473 -1.8986  0.0684
  243SOL    MW4 1047   4.390   3.986   0.541 -0.0010  0.4342 -0.0789
  244SOL     OW 1048   4.093   4.046   0.490  0.2435 -0.3939 -0.2488
  244SOL    HW2 1049   4.073   3.985   0.419 -0.9444  0.4863 -0.6929
  244SOL    HW3 1050   4.059   4.130   0.459 -0.4018 -0.0263  1.4156
  244SOL    MW4 1051   4.086   4.049   0.477  0.0019 -0.2289 -0.0878
  245SOL     OW 1052   3.838   4.187   0.304  0.1666 -0.0943  0.2605
  245SOL    HW2 1053   3.768   4.164   0.365 -0.2911 -2.0451 -0.9363
  245SOL    HW3 1054   3.817   4.137   0.225  1.7544  0.9643 -0.8457
  245SOL    MW4 1055   3.826   4.177   0.301  0.3152 -0.2122 -0.0433
  246SOL     OW 1056   4.264   4.405   0.459  0.0678 -0.3190 -0.0302
  246SOL    HW2 1057   4.275   4.408   0.554  1.2090 -1.8635 -0.1007
  246SOL    HW3 1058   4.169   4.411   0.446  0.0275  2.2402  1.0808
  246SOL    MW4 1059   4.253   4.406   0.470  0.2131 -0.1850  0.1071
  247SOL     OW 1060   0.249   4.649   0.905  0.5316  0.1815 -0.0386
  247SOL    HW2 1061   0.234   4.563   0.867  1.2289  0.2839 -0.5626
  247SOL    HW3 1062   0.176   4.703   0.873  0.1579 -0.1763  0.2021
  247SOL    MW4 1063   0.237   4.645   0.896  0.5743  0.1478 -0.0760
  248SOL     OW 1064   0.027   0.082   0.805  0.1197 -0.0078  0.0607
  248SOL    HW2 1065  -0.056   0.042   0.828 -0.2421  2.1620  2.8650
  248SOL    HW3 1066   0.015   0.175   0.826  2.4265  0.7537 -1.8082
  248SOL    MW4 1067   0.015   0.089   0.811  0.3763  0.3789  0.1841
  249SOL     OW 1068   0.001   0.395   0.876 -0.3416  0.4111 -0.3356
  249SOL    HW2 1069   0.017   0.377   0.969 -0.9353  1.8516  0.0425
  249SOL    HW3 1070   0.082   0.438   0.847 -1.6602  3.5682  0.4895
  249SOL    MW4 1071   0.014   0.398   0.885 -0.5937  1.0177 -0.1768
  250SOL     OW 1072   0.211   0.514   0.770 -0.2821  0.0220  0.2245
  250SOL    HW2 1073   0.279   0.468   0.819 -0.2892 -1.0438 -0.7371
  250SOL    HW3 1074   0.225   0.607   0.790  0.3253 -0.3283  1.4382
  250SOL    MW4 1075   0.222   0.520   0.779 -0.2029 -0.1649  0.2578
  251SOL     OW 1076   0.222   0.791   0.843 -0.2666 -0.4260 -0.3728
  251SOL    HW2 1077   0.245   0.801   0.935  1.2152 -1.1886 -0.6506
  251SOL    HW3 1078   0.133   0.827   0.837 -0.7478 -1.2279  1.5295
  251SOL    MW4 1079   0.213   0.797   0.854 -0.1346 -0.6324 -0.1584
  252SOL     OW 1080   4.455   0.900   0.767 -0.6663  0.4497 -0.4925
  252SOL    HW2 1081   4.386   0.851   0.811 -0.0128 -0.5194 -0.5357
  252SOL    HW3 1082   4.422   0.911   0.678 -0.9959  0.4486 -0.3734
  252SOL    MW4 1083   4.441   0.895   0.761 -0.6236  0.3217 -0.4826
  253SOL     OW 1084   4.486   1.156   0.857  0.1434  0.7283  0.2318
  253SOL    HW2 1085   4.484   1.156   0.953  0.0056  0.7145  0.2279
  253SOL    HW3 1086   4.476   1.064   0.833 -1.6348  0.9387  0.1529
  253SOL    MW4 1087   4.485   1.144   0.867 -0.1092  0.7544  0.2210
  254SOL     OW 1088   0.189   1.243   0.691  0.7436 -0.1461 -0.4426
  254SOL    HW2 1089   0.118   1.212   0.747  0.4928  1.0904 -0.0479
  254SOL    HW3 1090   0.203   1.173   0.628 -1.3803 -0.0876 -1.0211
  254SOL    MW4 1091   0.182   1.230   0.690  0.4303  0.0247 -0.4669
  255SOL     OW 1092   0.219   1.494   0.845 -0.2054  0.0528  0.3141
  255SOL    HW2 1093   0.292   1.520   0.789  0.6281 -0.1799  1.2614
  255SOL    HW3 1094   0.180   1.419   0.801  0.6989 -0.3837  0.2548
  255SOL    MW4 1095   0.224   1.488   0.832  0.0238 -0.0356  0.4312
  256SOL     OW 1096   0.052   1.702   0.707 -0.1346  0.2106 -0.9149
  256SOL    HW2 1097  -0.028   1.652   0.724 -1.1271  0.7471 -3.7979
  256SOL    HW3 1098   0.122   1.648   0.744 -1.4232 -2.1054 -1.7460
  256SOL    MW4 1099   0.051   1.688   0.714 -0.4356 -0.0242 -1.4049
  257SOL     OW 1100   0.047   1.972   0.832 -0.3021  0.2471  0.2121
  257SOL    HW2 1101   0.114   2.021   0.785  0.8742  0.1060  1.6772
  257SOL    HW3 1102   0.041   1.889   0.785 -0.1016  0.6186 -0.4766
  257SOL    MW4 1103   0.055   1.967   0.820 -0.1204  0.2775  0.3145
  258SOL     OW 1104   0.233   2.096   0.668 -0.5696 -0.3713  0.0837
  258SOL    HW2 1105   0.219   2.190   0.683 -1.1011 -0.5775  0.9027
  258SOL    HW3 1106   0.274   2.092   0.581 -0.3440  0.6309  0.1306
  258SOL    MW4 1107   0.237   2.108   0.658 -0.6099 -0.2661  0.1979
  259SOL     OW 1108   0.191   2.350   0.762  0.3769  0.6692  0.2157
  259SOL    HW2 1109   0.190   2.331   0.856 -1.5638  0.8532  0.2648
  259SOL    HW3 1110   0.275   2.392   0.746  1.7209 -1.4567  1.4329
  259SOL    MW4 1111   0.202   2.353   0.772  0.2982  0.4129  0.3828
  260SOL     OW 1112   4.450   2.500   0.729  0.2026 -0.1295 -0.0581
  260SOL    HW2 1113   4.389   2.432   0.759 -0.0164 -0.8168 -1.9970
  260SOL    HW3 1114   4.535   2.456   0.726  0.4428  0.2763  0.7271
  260SOL    MW4 1115   4.453   2.485   0.733  0.2050 -0.1667 -0.2103
  261SOL     OW 1116   4.400   2.736   0.852  0.2473 -0.2084 -0.0173
  261SOL    HW2 1117   4.425   2.720   0.943  2.0423  0.3106 -0.3913
  261SOL    HW3 1118   4.403   2.649   0.811 -0.9219 -0.4975  0.4843
  261SOL    MW4 1119   4.404   2.722   0.859  0.3295 -0.1779 -0.0004
  262SOL     OW 1120   0.143   2.873   0.756  0.5923 -0.1407 -0.0871
  262SOL    HW2 1121   0.060   2.841   0.793  0.9421 -1.2660 -0.2493
  262SOL    HW3 1122   0.147   2.834   0.669  2.1441 -1.6246  0.6005
  262SOL    MW4 1123   0.133   2.863   0.750  0.8432 -0.4849 -0.0177
  263SOL     OW 1124   0.234   3.158   0.819  0.4425  0.2523 -0.4688
  263SOL    HW2 1125   0.205   3.168   0.910 -3.0926  1.4138 -1.6433
  263SOL    HW3 1126   0.229   3.063   0.803  0.3284  0.1234  0.3124
  263SOL    MW4 1127   0.230   3.146   0.829 -0.0390  0.3884 -0.5206
  264SOL     OW 1128   4.448   3.199   0.753 -0.1705 -0.3282  0.1744
  264SOL    HW2 1129   4.538   3.178   0.779  0.5364  1.2780 -0.8125
  264SOL    HW3 1130   4.450   3.197   0.657 -0.9065  0.7118  0.1213
  264SOL    MW4 1131   4.460   3.196   0.744 -0.1740  0.0212  0.0372
  265SOL     OW 1132   4.326   3.448   0.820  0.2718 -0.6346 -0.5509
  265SOL    HW2 1133   4.379   3.512   0.772 -0.5255 -0.5830 -1.3699
  265SOL    HW3 1134   4.376   3.367   0.815  0.6084 -0.4162 -0.7309
  265SOL    MW4 1135   4.339   3.446   0.813  0.2112 -0.5991 -0.6827
  266SOL     OW 1136   0.193   3.524   0.846 -0.5527  0.3345 -0.2023
  266SOL    HW2 1137   0.159   3.515   0.935 -1.2408  1.5024 -0.3320
  266SOL    HW3 1138   0.202   3.619   0.834  0.5202  0.1277 -1.0070
  266SOL    MW4 1139   0.189   3.535   0.856 -0.5019  0.4616 -0.3257
  267SOL     OW 1140   0.187   3.785   0.763  0.1115 -0.1585 -0.1005
  267SOL    HW2 1141   0.253   3.829   0.816  1.2660 -0.4652 -1.2680
  267SOL    HW3 1142   0.216   3.797   0.673 -0.3588 -1.9982 -0.5170
  267SOL    MW4 1143   0.200   3.792   0.758  0.2018 -0.4420 -0.3095
  268SOL     OW 1144   4.483   3.990   0.797 -0.0133 -0.0924  0.1936
  268SOL    HW2 1145   4.417   3.939   0.844  0.6333 -0.2777  0.9336
  268SOL    HW3 1146   4.555   3.928   0.784 -0.7263 -0.4306 -2.2835
  268SOL    MW4 1147   4.484   3.975   0.802 -0.0215 -0.1614 -0.0356
  269SOL     OW 1148   0.007   4.252   0.893  0.3784 -0.3439  0.3196
  269SOL    HW2 1149  -0.006   4.256   0.988 -0.0731  0.5132  0.2243
  269SOL    HW3 1150   0.001   4.159   0.873 -1.0709 -0.3973  0.9230
  269SOL    MW4 1151   0.005   4.240   0.903  0.1276 -0.2379  0.3866
  270SOL     OW 1152   0.240   4.379   0.809 -0.3895  0.4600  0.0959
  270SOL    HW2 1153   0.155   4.340   0.832 -0.5219  0.6379 -0.0932
  270SOL    HW3 1154   0.234   4.396   0.715 -0.6791  1.8012  0.3537
  270SOL    MW4 1155   0.228   4.376   0.800 -0.4451  0.6604  0.1050
  271SOL     OW 1156   0.661   4.645   0.818  0.1304 -0.1301 -0.2788
  271SOL    HW2 1157   0.678   4.641   0.912 -0.0846 -1.0487 -0.2781
  271SOL    HW3 1158   0.595   4.714   0.809  1.6103  1.3485  0.0207
  271SOL    MW4 1159   0.654   4.654   0.829  0.2973 -0.0563 -0.2392
  272SOL     OW 1160   0.443   0.137   0.769 -0.3901  0.1464  0.5478
  272SOL    HW2 1161   0.378   0.099   0.828  1.2060 -1.9586  1.0051
  272SOL    HW3 1162   0.437   0.084   0.689  0.0710  0.5753  0.2282
  272SOL    MW4 1163   0.434   0.125   0.766 -0.1187 -0.0748  0.5660
  273SOL     OW 1164   0.447   0.396   0.874  0.0728  0.1925  0.2373
  273SOL    HW2 1165   0.527   0.440   0.846 -1.6702  2.4321 -1.4590
  273SOL    HW3 1166   0.449   0.311   0.830  1.5588  0.2070  0.2728
  273SOL    MW4 1167   0.458   0.390   0.865  0.0389  0.4898  0.0182
  274SOL     OW 1168   0.677   0.484   0.768  0.3877  0.2004  0.0951
  274SOL    HW2 1169   0.758   0.435   0.783 -0.4016 -1.4761 -0.9919
  274SOL    HW3 1170   0.668   0.488   0.673 -0.3666  1.1478  0.1925
  274SOL    MW4 1171   0.687   0.478   0.758  0.1841  0.1042 -0.0355
  275SOL     OW 1172   0.706   0.776   0.836 -0.0661 -0.0298 -0.0934
  275SOL    HW2 1173   0.627   0.825   0.815 -1.1203 -1.3180  0.7660
  275SOL    HW3 1174   0.681   0.685   0.826  1.6521 -0.4174 -0.9181
  275SOL    MW4 1175   0.692   0.771   0.832  0.0215 -0.2509 -0.0888
  276SOL     OW 1176   0.470   0.901   0.783  0.3427  0.1591  0.2197
  276SOL    HW2 1177   0.465   0.993   0.809  1.2124 -0.2044  1.6686
  276SOL    HW3 1178   0.382   0.867   0.800 -0.0515  0.7793 -0.5535
  276SOL    MW4 1179   0.457   0.909   0.789  0.4054  0.1930  0.3089
  277SOL     OW 1180   0.443   1.173   0.850 -0.2705 -0.2285 -0.4128
  277SOL    HW2 1181   0.519   1.191   0.795 -0.9601  0.7336 -1.0711
  277SOL    HW3 1182   0.370   1.214   0.804 -1.1465 -0.9314  0.3389
  277SOL    MW4 1183   0.443   1.181   0.837 -0.4770 -0.1943 -0.4004
  278SOL     OW 1184   0.694   1.253   0.656  0.0098 -0.2025 -0.4293
  278SOL    HW2 1185   0.688   1.343   0.687  1.6091 -0.5295  0.9180
  278SOL    HW3 1186   0.700   1.260   0.561 -1.9489  0.9810 -0.4916
  278SOL    MW4 1187   0.694   1.265   0.648 -0.0376 -0.0895 -0.2597
  279SOL     OW 1188   0.653   1.507   0.789 -0.1629 -0.4856  0.2811
  279SOL    HW2 1189   0.659   1.515   0.884 -0.5592  0.3431  0.2455
  279SOL    HW3 1190   0.564   1.538   0.768  0.7574  1.7206 -0.5744
  279SOL    MW4 1191   0.642   1.512   0.799 -0.0938 -0.0851  0.1636
  280SOL     OW 1192   0.407   1.609   0.685  0.0130 -0.3364 -0.3552
  280SOL    HW2 1193   0.409   1.700   0.712 -0.5310 -0.5597  0.4549
  280SOL    HW3 1194   0.399   1.613   0.589 -0.6286  0.4670 -0.2779
  280SOL    MW4 1195   0.406   1.621   0.676 -0.1434 -0.2599 -0.2382
  281SOL     OW 1196   0.388   1.872   0.780 -0.6519 -0.2247 -0.1718
  281SOL    HW2 1197   0.384   1.876   0.876 -0.5679 -1.2720 -0.1147
  281SOL    HW3 1198   0.336   1.947   0.750 -0.3732  0.3215  0.6934
  281SOL    MW4 1199   0.381   1.882   0.789 -0.6041 -0.2906 -0.0501
  282SOL     OW 1200   0.624   2.002   0.767  0.4513  0.6694  0.4889
  282SOL    HW2 1201   0.538   1.961   0.774  0.6951  0.1966  0.7444
  282SOL    HW3 1202   0.648   1.993   0.675  0.2066  0.8488  0.4072
  282SOL    MW4 1203   0.616   1.995   0.756  0.4512  0.6306  0.5119
  283SOL     OW 1204   0.645   2.281   0.839 -0.3956 -0.1059  0.3574
  283SOL    HW2 1205   0.643   2.292   0.934  0.1758 -0.6230  0.4306
  283SOL    HW3 1206   0.640   2.186   0.827  0.1671 -0.0727 -0.1136
  283SOL    MW4 1207   0.644   2.270   0.850 -0.2460 -0.1698  0.3049
  284SOL     OW 1208   0.445   2.494   0.763 -0.2088 -0.3402 -0.1291
  284SOL    HW2 1209   0.516   2.437   0.792  1.1251  2.2377  1.8579
  284SOL    HW3 1210   0.473   2.526   0.677  1.3508  1.1317  0.9032
  284SOL    MW4 1211   0.458   2.491   0.755  0.1729  0.1941  0.2692
  285SOL     OW 1212   0.390   2.741   0.854  0.0038  0.2015 -0.2716
  285SOL    HW2 1213   0.409   2.647   0.847  0.7100  0.4212 -1.3996
  285SOL    HW3 1214   0.318   2.755   0.792  0.7156  0.6311 -0.9975
  285SOL    MW4 1215   0.383   2.730   0.844  0.1909  0.2871 -0.5162
  286SOL     OW 1216   0.614   2.870   0.761  0.5043 -0.2032  0.1936
  286SOL    HW2 1217   0.681   2.803   0.773 -0.8504 -1.7498 -0.7380
  286SOL    HW3 1218   0.531   2.827   0.783 -0.2874  1.4810  0.6558
  286SOL    MW4 1219   0.612   2.856   0.766  0.2212 -0.1850  0.1317
  287SOL     OW 1220   0.702   3.115   0.893 -0.0651  0.0403 -0.0927
  287SOL    HW2 1221   0.625   3.166   0.868  0.5166 -0.0631 -2.2549
  287SOL    HW3 1222   0.674   3.024   0.883 -0.0299 -0.0065  0.2585
  287SOL    MW4 1223   0.688   3.110   0.888  0.0163  0.0203 -0.3316
  288SOL     OW 1224   0.481   3.267   0.825  0.0525  0.6534  0.4165
  288SOL    HW2 1225   0.461   3.357   0.849 -0.4600  0.5640  0.3332
  288SOL    HW3 1226   0.395   3.227   0.807  0.2145 -0.0639  1.1995
  288SOL    MW4 1227   0.467   3.274   0.826  0.0063  0.5467  0.5087
  289SOL     OW 1228   0.474   3.527   0.928 -0.4518  0.0601  0.4075
  289SOL    HW2 1229   0.483   3.506   1.021  0.5855 -1.2727  0.0265
  289SOL    HW3 1230   0.383   3.554   0.918 -0.7500 -0.4359  1.6861
  289SOL    MW4 1231   0.463   3.528   0.939 -0.3543 -0.1810  0.5260
  290SOL     OW 1232   0.741   3.569   0.846 -0.3897  0.2065 -0.6185
  290SOL    HW2 1233   0.655   3.550   0.885 -0.2427  0.3093 -0.2455
  290SOL    HW3 1234   0.739   3.663   0.829 -0.3288  0.2170 -0.5637
  290SOL    MW4 1235   0.729   3.579   0.849 -0.3623  0.2215 -0.5621
  291SOL     OW 1236   0.648   3.828   0.828 -0.0059  0.5100 -0.1279
  291SOL    HW2 1237   0.709   3.901   0.820  1.1622 -0.2733  1.5452
  291SOL    HW3 1238   0.563   3.869   0.843  0.9431  1.4985  2.7046
  291SOL    MW4 1239   0.645   3.843   0.829  0.2734  0.5369  0.4666
  292SOL     OW 1240   0.406   3.945   0.867  0.2963 -0.1514 -0.2306
  292SOL    HW2 1241   0.420   4.039   0.862 -2.2972  0.2555 -0.7087
  292SOL    HW3 1242   0.373   3.929   0.955  0.5768 -0.5930 -0.2016
  292SOL    MW4 1243   0.403   3.955   0.878 -0.0089 -0.1564 -0.2899
  293SOL     OW 1244   0.433   4.212   0.908 -0.1309 -0.1217  0.4770
  293SOL    HW2 1245   0.444   4.212   1.003  0.8258 -0.1221  0.3753
  293SOL    HW3 1246   0.355   4.265   0.893 -1.0961 -1.2669  1.3384
  293SOL    MW4 1247   0.424   4.219   0.919 -0.1320 -0.2732  0.5773
  294SOL     OW 1248   0.612   4.374   0.739 -0.4782 -0.1774  0.1967
  294SOL    HW2 1249   0.529   4.354   0.781 -1.6576  0.6902 -1.6543
  294SOL    HW3 1250   0.630   4.465   0.764 -0.3991 -0.1592  0.0735
  294SOL    MW4 1251   0.604   4.384   0.748 -0.6235 -0.0606 -0.0637
  295SOL     OW 1252   1.057   4.666   0.878  0.2245  0.2586 -0.2478
  295SOL    HW2 1253   1.120   4.724   0.835  1.7543 -1.4164 -0.3107
  295SOL    HW3 1254   0.977   4.675   0.827  0.8296  1.3379 -1.0219
  295SOL    MW4 1255   1.055   4.675   0.866  0.5062  0.1798 -0.3582
  296SOL     OW 1256   0.867   0.098   0.683  0.3255 -0.3094  0.1558
  296SOL    HW2 1257   0.875   0.180   0.732  0.1754  0.0411 -0.4009
  296SOL    HW3 1258   0.797   0.050   0.727 -2.0455  1.3885 -1.6189
  296SOL    MW4 1259   0.859   0.102   0.695 -0.0071 -0.0391 -0.1518
  297SOL     OW 1260   0.902   0.322   0.825 -0.3083 -0.3817  0.4082
  297SOL    HW2 1261   0.888   0.331   0.920 -0.2264  0.5826  0.3279
  297SOL    HW3 1262   0.978   0.377   0.806 -1.4630  0.9322 -0.5222
  297SOL    MW4 1263   0.910   0.330   0.835 -0.4498 -0.0812  0.2748
  298SOL     OW 1264   1.103   0.482   0.722  0.1828  0.2624 -0.1698
  298SOL    HW2 1265   1.186   0.460   0.763  0.7462  0.3885 -1.2105
  298SOL    HW3 1266   1.125   0.494   0.629 -1.1493 -0.5455 -0.5968
  298SOL    MW4 1267   1.117   0.481   0.715  0.0815  0.1724 -0.3634
  299SOL     OW 1268   1.151   0.745   0.791 -0.5245 -0.1375 -0.0760
  299SOL    HW2 1269   1.133   0.751   0.885 -0.1557 -1.4585  0.0990
  299SOL    HW3 1270   1.136   0.653   0.770  1.7169 -0.3658 -0.8096
  299SOL    MW4 1271   1.147   0.734   0.801 -0.1800 -0.3420 -0.1497
  300SOL     OW 1272   0.930   0.897   0.720 -0.1066 -0.2351  0.0503
  300SOL    HW2 1273   1.005   0.843   0.744 -0.5803 -1.6112 -1.4922
  300SOL    HW3 1274   0.856   0.860   0.767 -0.2213 -0.2127 -0.1109
  300SOL    MW4 1275   0.930   0.885   0.729 -0.1842 -0.4136 -0.1745
  301SOL     OW 1276   0.897   1.153   0.821  0.1656  0.2837  0.3002
  301SOL    HW2 1277   0.924   1.080   0.765 -0.6780 -0.4444  0.8341
  301SOL    HW3 1278   0.823   1.192   0.776 -0.8519 -0.6303  1.1483
  301SOL    MW4 1279   0.891   1.149   0.808 -0.0800  0.0670  0.4826
  302SOL     OW 1280   1.113   1.262   0.725  0.1375 -0.0176 -0.2808
  302SOL    HW2 1281   1.032   1.239   0.770  0.0312 -1.7110 -1.2695
  302SOL    HW3 1282   1.085   1.288   0.637  0.5935  0.0811 -0.3984
  302SOL    MW4 1283   1.099   1.262   0.719  0.1835 -0.2279 -0.4268
  303SOL     OW 1284   1.118   1.520   0.858 -0.0414 -0.1907 -0.3670
  303SOL    HW2 1285   1.038   1.555   0.819 -1.3815 -0.1109  2.2748
  303SOL    HW3 1286   1.119   1.428   0.831 -0.3407  0.1205 -1.4617
  303SOL    MW4 1287   1.108   1.512   0.849 -0.2576 -0.1391 -0.1630
  304SOL     OW 1288   0.888   1.623   0.717 -0.0876 -0.2123 -0.3029
  304SOL    HW2 1289   0.876   1.713   0.749  0.3030 -1.1642  2.6565
  304SOL    HW3 1290   0.802   1.582   0.730  0.1462 -0.6885 -0.2772
  304SOL    MW4 1291   0.875   1.630   0.723 -0.0051 -0.4007  0.0910
  305SOL     OW 1292   0.874   1.870   0.815  0.6368 -0.0889 -0.1562
  305SOL    HW2 1293   0.884   1.875   0.910  1.7030  0.4195 -0.2866
  305SOL    HW3 1294   0.793   1.917   0.797  0.3021 -0.3979  0.5254
  305SOL    MW4 1295   0.865   1.877   0.825  0.7334 -0.0626 -0.0835
  306SOL     OW 1296   1.120   1.992   0.753 -0.2936 -0.1548  0.1824
  306SOL    HW2 1297   1.108   2.086   0.766  0.4486  0.3034 -2.1514
  306SOL    HW3 1298   1.036   1.953   0.779 -1.8818  1.5222 -2.1924
  306SOL    MW4 1299   1.107   1.999   0.758 -0.4053  0.1268 -0.4388
  307SOL     OW 1300   1.093   2.269   0.778  0.6224 -0.0724  0.1336
  307SOL    HW2 1301   1.078   2.290   0.871 -0.0930  1.4786 -0.3122
  307SOL    HW3 1302   1.171   2.319   0.754  0.2212  0.3290 -0.3547
  307SOL    MW4 1303   1.101   2.278   0.787  0.4750  0.1850  0.0104
  308SOL     OW 1304   0.865   2.434   0.750  0.1249 -0.1999  0.0050
  308SOL    HW2 1305   0.942   2.377   0.748  0.6019  0.4358  0.1181
  308SOL    HW3 1306   0.799   2.383   0.797  0.4587 -0.7690 -0.1343
  308SOL    MW4 1307   0.866   2.420   0.756  0.2319 -0.1910  0.0016
  309SOL     OW 1308   0.830   2.707   0.831  0.2881  0.0718 -0.4145
  309SOL    HW2 1309   0.846   2.718   0.925  0.9398  0.5612 -0.5772
  309SOL    HW3 1310   0.856   2.616   0.813  0.9496  0.2262 -0.2726
  309SOL    MW4 1311   0.836   2.696   0.841  0.4613  0.1566 -0.4173
  310SOL     OW 1312   1.049   2.841   0.722 -0.0954 -0.2604 -0.2647
  310SOL    HW2 1313   0.976   2.807   0.773 -0.4618 -0.2600 -0.7863
  310SOL    HW3 1314   1.017   2.841   0.632  0.8862 -1.2208 -0.6310
  310SOL    MW4 1315   1.035   2.836   0.717 -0.0142 -0.3872 -0.3818
  311SOL     OW 1316   1.115   3.094   0.845  0.3309 -0.1124 -0.0044
  311SOL    HW2 1317   1.041   3.137   0.802  0.5028  0.7637  0.5731
  311SOL    HW3 1318   1.109   3.003   0.818 -0.5662  0.0973 -0.5073
  311SOL    MW4 1319   1.105   3.088   0.836  0.2352  0.0308  0.0055
  312SOL     OW 1320   0.908   3.254   0.756  0.5716  0.5983  0.1352
  312SOL    HW2 1321   0.926   3.312   0.830 -0.3549  1.0100  0.0371
  312SOL    HW3 1322   0.829   3.206   0.782  1.0391 -0.2476 -0.0005
  312SOL    MW4 1323   0.900   3.255   0.769  0.5110  0.5410  0.1043
  313SOL     OW 1324   0.966   3.450   0.955 -0.3501  0.1921 -0.7668
  313SOL    HW2 1325   1.037   3.472   0.895 -1.4399 -0.2893 -2.2759
  313SOL    HW3 1326   0.890   3.498   0.921 -0.9623 -0.0179  0.2847
  313SOL    MW4 1327   0.966   3.459   0.943 -0.5747  0.1006 -0.8272
  314SOL     OW 1328   1.177   3.561   0.776  0.2804  0.6007  0.3003
  314SOL    HW2 1329   1.267   3.539   0.802  0.5628  2.1363  0.6979
  314SOL    HW3 1330   1.161   3.507   0.699  1.0545 -0.6963  1.0343
  314SOL    MW4 1331   1.187   3.551   0.769  0.4197  0.6325  0.4497
  315SOL     OW 1332   1.066   3.835   0.821  0.4664 -0.4889  0.0702
  315SOL    HW2 1333   1.068   3.825   0.916 -0.9744 -3.6063 -0.1466
  315SOL    HW3 1334   1.095   3.750   0.788  1.9531  0.8952 -2.3072
  315SOL    MW4 1335   1.070   3.822   0.829  0.4724 -0.7176 -0.2721
  316SOL     OW 1336   0.829   4.020   0.768  0.1553  0.1715  0.3965
  316SOL    HW2 1337   0.813   4.103   0.812 -0.2678 -0.2034  0.9636
  316SOL    HW3 1338   0.912   3.989   0.806 -0.2072 -0.1494  0.9387
  316SOL    MW4 1339   0.838   4.027   0.779  0.0517  0.0796  0.5429
  317SOL     OW 1340   0.833   4.268   0.882  0.0448  0.0197  0.5995
  317SOL    HW2 1341   0.905   4.317   0.843 -0.6799  0.1185 -0.6350
  317SOL    HW3 1342   0.754   4.300   0.837 -0.8259  0.1631  2.1654
  317SOL    MW4 1343   0.832   4.279   0.871 -0.1657  0.0515  0.6433
  318SOL     OW 1344   1.043   4.409   0.791  0.3193  0.0236  0.7447
  318SOL    HW2 1345   1.109   4.352   0.833 -1.4598 -1.0860  2.1100
  318SOL    HW3 1346   1.045   4.490   0.842  0.1889 -0.2456  1.1790
  318SOL    MW4 1347   1.052   4.412   0.803  0.0674 -0.1578  0.9822
  319SOL     OW 1348   1.507   0.018   0.858  0.3404  0.4937  0.1303
  319SOL    HW2 1349   1.486   0.034   0.950 -0.9341 -0.7384  0.0683
  319SOL    HW3 1350   1.449   0.077   0.810  0.0492  0.1614  0.0757
  319SOL    MW4 1351   1.496   0.028   0.864  0.1340  0.2873  0.1149
  320SOL     OW 1352   1.258   0.143   0.753  0.2116  0.1754 -0.2212
  320SOL    HW2 1353   1.267   0.235   0.778  0.2481  0.1179 -0.0197
  320SOL    HW3 1354   1.261   0.143   0.657  1.3258  0.2725 -0.1949
  320SOL    MW4 1355   1.260   0.155   0.744  0.3633  0.1806 -0.1912
  321SOL     OW 1356   1.319   0.390   0.864 -0.1462  0.1773 -0.1821
  321SOL    HW2 1357   1.315   0.395   0.960 -1.1439  0.0602 -0.2209
  321SOL    HW3 1358   1.406   0.424   0.843 -0.1103  0.6809  0.7347
  321SOL    MW4 1359   1.330   0.396   0.874 -0.2731  0.2282 -0.0662
  322SOL     OW 1360   1.594   0.497   0.754  0.3311  0.0065  0.2444
  322SOL    HW2 1361   1.580   0.586   0.787 -0.3633  0.0446 -0.1384
  322SOL    HW3 1362   1.667   0.463   0.806  1.5512  1.3025 -0.5717
  322SOL    MW4 1363   1.602   0.504   0.765  0.4004  0.1825  0.0862
  323SOL     OW 1364   1.544   0.760   0.814  0.2990 -0.3262  0.1615
  323SOL    HW2 1365   1.604   0.818   0.767  1.3901  0.2776  2.2493
  323SOL    HW3 1366   1.457   0.790   0.789  0.8579  1.5054  0.3836
  323SOL    MW4 1367   1.540   0.772   0.804  0.5167 -0.0048  0.4662
  324SOL     OW 1368   1.318   0.917   0.678 -0.3540 -0.0647  0.0730
  324SOL    HW2 1369   1.317   0.995   0.732 -0.0297 -0.9335  1.3396
  324SOL    HW3 1370   1.259   0.856   0.721  0.8087 -1.1950  0.1188
  324SOL    MW4 1371   1.310   0.919   0.691 -0.1578 -0.3284  0.2462
  325SOL     OW 1372   1.333   1.141   0.825  0.2421  0.1160 -0.0332
  325SOL    HW2 1373   1.412   1.179   0.787 -0.5206  1.3588 -0.4165
  325SOL    HW3 1374   1.261   1.186   0.781 -0.6600  0.5306  1.8091
  325SOL    MW4 1375   1.334   1.152   0.815  0.0225  0.3346  0.1593
  326SOL     OW 1376   1.541   1.262   0.683  0.7959  0.0071 -0.2544
  326SOL    HW2 1377   1.543   1.352   0.716 -1.6498  0.5103 -1.3553
  326SOL    HW3 1378   1.531   1.271   0.588  1.2634 -1.4371 -0.4637
  326SOL    MW4 1379   1.540   1.275   0.675  0.5349 -0.1171 -0.4274
  327SOL     OW 1380   1.561   1.518   0.794 -0.2353 -0.0257  0.0258
  327SOL    HW2 1381   1.547   1.503   0.888  0.0138 -1.2385 -0.1271
  327SOL    HW3 1382   1.481   1.560   0.764 -0.2989  0.4069  0.7887
  327SOL    MW4 1383   1.549   1.522   0.803 -0.2108 -0.1286  0.1062
  328SOL     OW 1384   1.311   1.651   0.720 -0.3183 -0.2067  0.4391
  328SOL    HW2 1385   1.323   1.732   0.768 -0.0933  0.4593 -0.7212
  328SOL    HW3 1386   1.243   1.604   0.769 -0.3889  0.6370  1.1588
  328SOL    MW4 1387   1.303   1.655   0.733 -0.2979 -0.0075  0.3810
  329SOL     OW 1388   1.354   1.862   0.876 -0.3625  0.0831  0.2479
  329SOL    HW2 1389   1.359   1.872   0.972  0.4868 -0.1991  0.2417
  329SOL    HW3 1390   1.280   1.917   0.850 -1.2117 -0.6143  1.1728
  329SOL    MW4 1391   1.345   1.871   0.885 -0.3625 -0.0461  0.3691
  330SOL     OW 1392   1.538   2.050   0.781 -0.4089  0.5806  0.6417
  330SOL    HW2 1393   1.471   1.995   0.821 -0.4058  0.8292  0.9984
  330SOL    HW3 1394   1.532   2.032   0.687 -0.9100  0.5313  0.6821
  330SOL    MW4 1395   1.528   2.041   0.774 -0.4746  0.6068  0.6942
  331SOL     OW 1396   1.565   2.318   0.808  0.1592  0.0203 -0.2358
  331SOL    HW2 1397   1.483   2.363   0.789  0.0266  0.4909  1.3652
  331SOL    HW3 1398   1.545   2.225   0.794 -0.7924  0.0891  0.6094
  331SOL    MW4 1399   1.552   2.311   0.804  0.0162  0.0916  0.0869
  332SOL     OW 1400   1.319   2.421   0.720  0.4513  0.0781 -0.2046
  332SOL    HW2 1401   1.311   2.516   0.730 -1.0910  0.0678 -1.0389
  332SOL    HW3 1402   1.347   2.409   0.629  1.9055 -0.2245  0.2805
  332SOL    MW4 1403   1.321   2.432   0.709  0.4396  0.0370 -0.2507
  333SOL     OW 1404   1.295   2.729   0.779  0.1294  0.3930 -0.6713
  333SOL    HW2 1405   1.312   2.753   0.870 -0.3457 -0.3296 -0.3914
  333SOL    HW3 1406   1.212   2.772   0.757 -1.3196 -1.9037  0.1918
  333SOL    MW4 1407   1.286   2.738   0.788 -0.1246 -0.0052 -0.5204
  334SOL     OW 1408   1.537   2.826   0.688 -0.1235 -0.0870 -0.4390
  334SOL    HW2 1409   1.537   2.908   0.737 -0.1600 -1.4832  1.9805
  334SOL    HW3 1410   1.451   2.788   0.705  0.4160 -1.2945 -0.3923
  334SOL    MW4 1411   1.525   2.832   0.696 -0.0571 -0.4303 -0.1136
  335SOL     OW 1412   1.538   3.048   0.841  0.1431  0.3272  0.1857
  335SOL    HW2 1413   1.527   3.059   0.936 -0.4111 -1.1048  0.2935
  335SOL    HW3 1414   1.470   3.104   0.803  0.2544  0.7722  0.6253
  335SOL    MW4 1415   1.528   3.057   0.849  0.0846  0.1969  0.2579
  336SOL     OW 1416   1.330   3.225   0.762 -0.4238 -0.2194  0.4235
  336SOL    HW2 1417   1.247   3.181   0.781 -0.7762 -0.1053 -0.8438
  336SOL    HW3 1418   1.331   3.236   0.667  1.4506 -1.0284  0.3150
  336SOL    MW4 1419   1.319   3.220   0.752 -0.2230 -0.3111  0.2419
  337SOL     OW 1420   1.428   3.453   0.883  0.2111 -0.5446  0.1608
  337SOL    HW2 1421   1.520   3.476   0.881  0.3895 -1.3049 -0.5860
  337SOL    HW3 1422   1.424   3.364   0.847 -1.1601  0.6413 -2.7541
  337SOL    MW4 1423   1.439   3.444   0.878  0.0536 -0.4885 -0.3223
  338SOL     OW 1424   1.622   3.717   0.715 -0.0279 -0.4159  0.1157
  338SOL    HW2 1425   1.661   3.656   0.777  1.1995 -0.0053 -0.2321
  338SOL    HW3 1426   1.673   3.706   0.635  1.8933  2.7820  0.7657
  338SOL    MW4 1427   1.634   3.708   0.713  0.3874  0.0603  0.1555
  339SOL     OW 1428   1.520   3.933   0.890 -0.1893 -0.2757  0.3673
  339SOL    HW2 1429   1.435   3.970   0.869  0.5936  0.7833 -1.0194
  339SOL    HW3 1430   1.529   3.859   0.830 -0.7994 -1.3618  1.6027
  339SOL    MW4 1431   1.510   3.928   0.879 -0.1664 -0.2794  0.3474
  340SOL     OW 1432   1.268   4.036   0.787 -0.2386  0.0413 -0.2074
  340SOL    HW2 1433   1.188   3.990   0.812 -0.6642  0.5616 -0.6038
  340SOL    HW3 1434   1.274   4.025   0.692 -0.3902  0.8748 -0.3173
  340SOL    MW4 1435   1.258   4.028   0.778 -0.3148  0.2198 -0.2742
  341SOL     OW 1436   1.287   4.288   0.873 -0.2481  0.5132 -0.2586
  341SOL    HW2 1437   1.357   4.322   0.816  2.3521  0.0573  2.5478
  341SOL    HW3 1438   1.278   4.196   0.847  0.9717  0.2901  0.0755
  341SOL    MW4 1439   1.295   4.281   0.862  0.2557  0.4234  0.1557
  342SOL     OW 1440   1.526   4.432   0.754  0.1894 -0.2708  0.1934
  342SOL    HW2 1441   1.599   4.390   0.800 -0.1959 -0.8427  0.3008
  342SOL    HW3 1442   1.517   4.518   0.796  0.4949 -0.3878  0.4995
  342SOL    MW4 1443   1.534   4.438   0.766  0.1789 -0.3614  0.2480
  343SOL     OW 1444   1.991   0.014   0.883 -0.1325 -0.0299  0.3398
  343SOL    HW2 1445   2.065   0.067   0.855  0.5726 -0.9439  0.4637
  343SOL    HW3 1446   2.003  -0.070   0.839 -0.6319 -0.4749  1.0326
  343SOL    MW4 1447   2.002   0.010   0.873 -0.1054 -0.2092  0.4476
  344SOL     OW 1448   1.764   0.096   0.757  0.1511 -0.3369 -0.3724
  344SOL    HW2 1449   1.833   0.055   0.810  0.0860  0.2162  0.1492
  344SOL    HW3 1450   1.685   0.047   0.777  0.2781 -0.5990 -0.5190
  344SOL    MW4 1451   1.763   0.084   0.767  0.1593 -0.2986 -0.3229
  345SOL     OW 1452   1.807   0.371   0.874 -0.0016 -0.1796 -0.4999
  345SOL    HW2 1453   1.802   0.286   0.831  1.8267 -0.7716  0.3958
  345SOL    HW3 1454   1.888   0.410   0.841 -0.3894  0.8438 -0.2547
  345SOL    MW4 1455   1.817   0.365   0.864  0.1884 -0.1226 -0.3493
  346SOL     OW 1456   2.022   0.512   0.771 -0.4850 -0.0763 -0.3267
  346SOL    HW2 1457   2.095   0.474   0.821 -0.5193  0.7805  0.3741
  346SOL    HW3 1458   2.057   0.522   0.682  0.3824  0.6864  0.0967
  346SOL    MW4 1459   2.036   0.508   0.766 -0.3750  0.1374 -0.1783
  347SOL     OW 1460   1.979   0.783   0.824 -0.0527 -0.1215 -0.3421
  347SOL    HW2 1461   2.063   0.824   0.802 -0.1144  0.2970  0.1897
  347SOL    HW3 1462   1.986   0.693   0.792 -0.4442  0.6832 -2.8497
  347SOL    MW4 1463   1.991   0.777   0.817 -0.1127  0.0399 -0.6027
  348SOL     OW 1464   1.767   0.910   0.719 -0.1960  0.1813 -0.0516
  348SOL    HW2 1465   1.774   0.994   0.763  0.4016 -0.6665  1.4943
  348SOL    HW3 1466   1.838   0.857   0.755 -0.4400 -0.9290 -1.1468
  348SOL    MW4 1467   1.777   0.914   0.729 -0.1494 -0.0769  0.0079
  349SOL     OW 1468   1.767   1.171   0.809 -0.0922  0.2083 -0.0037
  349SOL    HW2 1469   1.836   1.213   0.758  1.1419 -0.9427  0.7121
  349SOL    HW3 1470   1.686   1.205   0.771  0.8191  0.0469 -2.1378
  349SOL    MW4 1471   1.765   1.181   0.797  0.1910  0.0352 -0.1907
  350SOL     OW 1472   1.991   1.301   0.695 -0.3436  0.5786  0.3960
  350SOL    HW2 1473   2.065   1.241   0.699 -0.4351  0.4547  0.2579
  350SOL    HW3 1474   1.960   1.295   0.605 -0.2924  0.9089  0.3552
  350SOL    MW4 1475   1.996   1.292   0.684 -0.3487  0.6058  0.3723
  351SOL     OW 1476   2.034   1.548   0.827  0.0587  0.0446 -0.0439
  351SOL    HW2 1477   2.115   1.590   0.799  0.3671  0.1077  0.9153
  351SOL    HW3 1478   2.034   1.463   0.782 -0.0000  0.5860 -1.0790
  351SOL    MW4 1479   2.045   1.542   0.817  0.0916  0.1243 -0.0539
  352SOL     OW 1480   1.808   1.661   0.722 -0.0751 -0.0939  0.4927
  352SOL    HW2 1481   1.875   1.609   0.767  0.7973  0.3870 -0.2353
  352SOL    HW3 1482   1.725   1.618   0.745  0.5060 -0.9075  1.1083
  352SOL    MW4 1483   1.806   1.648   0.731  0.1167 -0.1379  0.4780
  353SOL     OW 1484   1.769   1.897   0.856  0.1649  0.3607  0.5273
  353SOL    HW2 1485   1.786   1.823   0.797 -1.1439 -0.8380  1.6348
  353SOL    HW3 1486   1.694   1.942   0.816 -0.2720 -0.0440  0.8812
  353SOL    MW4 1487   1.761   1.893   0.843 -0.0653  0.1491  0.7201
  354SOL     OW 1488   1.980   2.023   0.731 -0.4133  0.2338 -0.1454
  354SOL    HW2 1489   1.997   2.108   0.771  1.5676 -0.6728  0.9897
  354SOL    HW3 1490   1.899   1.993   0.772 -1.4846  1.8152 -1.0211
  354SOL    MW4 1491   1.972   2.031   0.742 -0.2933  0.3228 -0.1112
  355SOL     OW 1492   2.007   2.287   0.832  0.1779 -0.3661 -0.1062
  355SOL    HW2 1493   2.011   2.309   0.925  1.7049 -0.3668 -0.1535
  355SOL    HW3 1494   1.930   2.334   0.799 -0.4828 -0.5137  1.1883
  355SOL    MW4 1495   1.997   2.296   0.840  0.2924 -0.3855  0.0583
  356SOL     OW 1496   1.801   2.366   0.667 -0.1777 -0.2925  0.0812
  356SOL    HW2 1497   1.718   2.351   0.713 -0.0065  0.2840  0.5950
  356SOL    HW3 1498   1.802   2.302   0.596 -1.2082 -0.0812 -0.1213
  356SOL    MW4 1499   1.790   2.356   0.664 -0.2909 -0.1886  0.1223
  357SOL     OW 1500   1.683   2.631   0.825 -0.2212  0.2843 -0.8267
  357SOL    HW2 1501   1.613   2.565   0.826  1.2793 -1.3551 -0.2712
  357SOL    HW3 1502   1.646   2.705   0.777 -2.4972 -0.3531 -0.1180
  357SOL    MW4 1503   1.668   2.632   0.819 -0.3234 -0.0165 -0.6599
  358SOL     OW 1504   2.003   2.655   0.832 -0.4416 -0.0928  0.2923
  358SOL    HW2 1505   2.093   2.674   0.857 -0.0910 -0.0930 -0.9317
  358SOL    HW3 1506   1.950   2.691   0.902  0.4162  1.7322  0.0128
  358SOL    MW4 1507   2.008   2.662   0.844 -0.2818  0.1481  0.0940
  359SOL     OW 1508   1.987   3.059   0.675  0.0717  0.2864 -0.2853
  359SOL    HW2 1509   1.896   3.082   0.693  0.3931  1.0802  0.3993
  359SOL    HW3 1510   2.012   3.115   0.601 -0.8535 -2.0298 -2.4145
  359SOL    MW4 1511   1.978   3.069   0.668 -0.0079  0.0854 -0.4759
  360SOL     OW 1512   1.756   3.187   0.736 -0.1211  0.2378  0.1872
  360SOL    HW2 1513   1.685   3.138   0.776 -0.6078  0.1899 -0.7276
  360SOL    HW3 1514   1.717   3.231   0.661  0.9919 -0.4924 -0.8467
  360SOL    MW4 1515   1.742   3.186   0.731 -0.0385  0.1349 -0.0699
  361SOL     OW 1516   1.729   3.452   0.855  0.0753  0.8564  0.3745
  361SOL    HW2 1517   1.759   3.457   0.946  0.3372  0.2564  0.3209
  361SOL    HW3 1518   1.749   3.363   0.827  0.3117  1.1350 -0.3807
  361SOL    MW4 1519   1.735   3.441   0.863  0.1410  0.8140  0.2678
  362SOL     OW 1520   1.989   3.570   0.824 -0.0305  0.4146 -0.0671
  362SOL    HW2 1521   1.961   3.660   0.838 -1.2062  0.0465  0.0164
  362SOL    HW3 1522   1.910   3.518   0.836  0.5754 -0.6078 -0.3985
  362SOL    MW4 1523   1.975   3.575   0.828 -0.1057  0.2310 -0.0998
  363SOL     OW 1524   1.920   3.833   0.879 -0.4806 -0.0864 -0.5162
  363SOL    HW2 1525   1.951   3.872   0.961  0.6955 -1.5411 -0.2567
  363SOL    HW3 1526   1.855   3.895   0.847 -0.9119  0.5323  1.4863
  363SOL    MW4 1527   1.916   3.847   0.886 -0.3824 -0.1967 -0.2178
  364SOL     OW 1528   1.765   4.049   0.786 -0.3979 -0.2086 -0.2177
  364SOL    HW2 1529   1.674   4.030   0.810 -0.6633  0.0883 -0.9712
  364SOL    HW3 1530   1.765   4.050   0.690  0.8993 -2.6320 -0.2885
  364SOL    MW4 1531   1.753   4.047   0.776 -0.2618 -0.4888 -0.3265
  365SOL     OW 1532   1.750   4.312   0.850 -0.5066 -0.0491 -0.0688
  365SOL    HW2 1533   1.745   4.310   0.946 -4.2912 -0.8761 -0.2231
  365SOL    HW3 1534   1.753   4.220   0.824 -0.6825  0.1500 -0.8043
  365SOL    MW4 1535   1.750   4.300   0.859 -1.0294 -0.1321 -0.1862
  366SOL     OW 1536   1.967   4.444   0.732  0.0685  0.2287  0.1293
  366SOL    HW2 1537   1.895   4.394   0.771  0.3003 -0.4920 -0.3396
  366SOL    HW3 1538   1.951   4.439   0.638  0.4784  0.4457  0.0458
  366SOL    MW4 1539   1.956   4.437   0.725  0.1532  0.1621  0.0564
  367SOL     OW 1540   2.417   4.638   0.838  0.0590  0.3782  0.0564
  367SOL    HW2 1541   2.433   4.644   0.933 -0.8354 -0.7222  0.2935
  367SOL    HW3 1542   2.409   4.544   0.822  1.4670  0.4857 -1.3408
  367SOL    MW4 1543   2.418   4.626   0.849  0.1268  0.2480 -0.0967
  368SOL     OW 1544   2.222   0.161   0.788 -0.0374  0.2782  0.1983
  368SOL    HW2 1545   2.280   0.092   0.821  0.0005  0.3364  0.2542
  368SOL    HW3 1546   2.237   0.162   0.694 -0.6638 -0.3687  0.0887
  368SOL    MW4 1547   2.232   0.152   0.780 -0.1152  0.2005  0.1912
  369SOL     OW 1548   2.242   0.415   0.894  0.2210  0.1152  0.1208
  369SOL    HW2 1549   2.319   0.455   0.854  0.3764 -0.4151 -0.1205
  369SOL    HW3 1550   2.239   0.327   0.857 -0.3905  0.0655  0.2808
  369SOL    MW4 1551   2.252   0.409   0.884  0.1607  0.0387  0.1101
  370SOL     OW 1552   2.482   0.505   0.756 -0.1770  0.3255 -0.2101
  370SOL    HW2 1553   2.564   0.478   0.796 -0.8688  0.1583  1.1282
  370SOL    HW3 1554   2.485   0.469   0.667  1.2548  0.4649 -0.2352
  370SOL    MW4 1555   2.493   0.497   0.749 -0.0792  0.3218 -0.0369
  371SOL     OW 1556   2.490   0.772   0.795  0.4119 -0.2540 -0.6658
  371SOL    HW2 1557   2.566   0.818   0.761  0.3571  0.1446 -0.2502
  371SOL    HW3 1558   2.510   0.679   0.780  0.6091 -0.1076 -1.3112
  371SOL    MW4 1559   2.503   0.766   0.788  0.4308 -0.1822 -0.6961
  372SOL     OW 1560   2.239   0.887   0.741  0.3128  0.0386  0.4980
  372SOL    HW2 1561   2.320   0.839   0.759  0.1432  0.3349  2.1082
  372SOL    HW3 1562   2.195   0.836   0.673  1.4903 -0.5352  0.1656
  372SOL    MW4 1563   2.244   0.874   0.734  0.4456  0.0020  0.6666
  373SOL     OW 1564   2.256   1.170   0.744  0.1735 -0.3909 -0.2447
  373SOL    HW2 1565   2.258   1.193   0.837  0.7716  0.8514 -0.5540
  373SOL    HW3 1566   2.248   1.075   0.742 -0.0469 -0.3993  1.0784
  373SOL    MW4 1567   2.255   1.161   0.756  0.2234 -0.2280 -0.1110
  374SOL     OW 1568   2.525   1.261   0.661  0.3020 -0.2787  0.5874
  374SOL    HW2 1569   2.444   1.214   0.681 -0.3179  0.8677  0.7880
  374SOL    HW3 1570   2.542   1.242   0.569 -0.2421 -0.4516  0.5261
  374SOL    MW4 1571   2.517   1.252   0.651  0.1483 -0.1502  0.6058
  375SOL     OW 1572   2.518   1.502   0.787  0.7285 -0.3915 -0.3303
  375SOL    HW2 1573   2.593   1.545   0.745  0.9016 -0.2321  0.1443
  375SOL    HW3 1574   2.508   1.420   0.740  0.2378  0.2741 -1.4160
  375SOL    MW4 1575   2.526   1.497   0.775  0.6864 -0.2828 -0.4109
  376SOL     OW 1576   2.280   1.663   0.729  0.1390  0.1639  0.0975
  376SOL    HW2 1577   2.364   1.619   0.741  0.2176  0.1952 -0.3311
  376SOL    HW3 1578   2.273   1.676   0.635 -1.0775 -1.2717 -0.0180
  376SOL    MW4 1579   2.290   1.659   0.718 -0.0112 -0.0213  0.0257
  377SOL     OW 1580   2.243   1.930   0.802  0.8815 -0.1538  0.1250
  377SOL    HW2 1581   2.249   1.835   0.793  1.6044  0.0137 -1.3557
  377SOL    HW3 1582   2.153   1.952   0.777  0.5058 -0.5210  1.1618
  377SOL    MW4 1583   2.232   1.920   0.797  0.9274 -0.1801  0.0664
  378SOL     OW 1584   2.482   2.038   0.743  0.0828  0.2677  0.1753
  378SOL    HW2 1585   2.408   1.983   0.769  1.0897 -1.2361 -0.0883
  378SOL    HW3 1586   2.460   2.068   0.655 -0.1646 -0.2538  0.0615
  378SOL    MW4 1587   2.469   2.035   0.735  0.1831  0.0005  0.1255
  379SOL     OW 1588   2.462   2.261   0.914 -0.2526  0.1643  0.6386
  379SOL    HW2 1589   2.514   2.325   0.866 -0.3537 -0.0811  0.1969
  379SOL    HW3 1590   2.467   2.181   0.861  0.0074 -0.2434  1.2689
  379SOL    MW4 1591   2.469   2.259   0.901 -0.2317  0.0780  0.6635
  380SOL     OW 1592   2.248   2.408   0.816 -0.1794  0.2010 -0.1338
  380SOL    HW2 1593   2.314   2.347   0.850  0.1636  0.4668 -0.3301
  380SOL    HW3 1594   2.165   2.362   0.829  0.1635 -0.7577 -1.2294
  380SOL    MW4 1595   2.246   2.394   0.822 -0.0889  0.1099 -0.3042
  381SOL     OW 1596   2.282   2.663   0.892  0.0816 -0.1763  0.2148
  381SOL    HW2 1597   2.309   2.656   0.984  1.6909 -0.2578 -0.2475
  381SOL    HW3 1598   2.281   2.572   0.861 -1.4293 -0.2329  0.4185
  381SOL    MW4 1599   2.285   2.650   0.900  0.0949 -0.1943  0.1807
  382SOL     OW 1600   2.457   2.844   0.779  0.2239  0.2318  0.4186
  382SOL    HW2 1601   2.545   2.818   0.805  0.1008 -0.0253  0.5783
  382SOL    HW3 1602   2.400   2.777   0.817  0.0696 -0.3656 -0.8368
  382SOL    MW4 1603   2.461   2.832   0.787  0.1872  0.1190  0.2740
  383SOL     OW 1604   2.468   3.123   0.835 -0.1951  0.0900  0.1614
  383SOL    HW2 1605   2.464   3.121   0.930 -0.4457  0.3388  0.1591
  383SOL    HW3 1606   2.461   3.032   0.808 -0.8085  0.0773  0.3590
  383SOL    MW4 1607   2.466   3.111   0.844 -0.3090  0.1209  0.1873
  384SOL     OW 1608   2.215   3.211   0.750 -0.3280 -0.1024  0.3723
  384SOL    HW2 1609   2.146   3.144   0.749 -0.4005 -0.0288 -0.8266
  384SOL    HW3 1610   2.294   3.165   0.777  0.0576 -1.1504 -2.3698
  384SOL    MW4 1611   2.216   3.196   0.753 -0.2868 -0.2310 -0.1476
  385SOL     OW 1612   2.251   3.485   0.849  0.1484  0.6455  0.3850
  385SOL    HW2 1613   2.244   3.393   0.823 -0.6795  0.9648 -0.5284
  385SOL    HW3 1614   2.161   3.515   0.854  0.4564  1.7501 -0.5209
  385SOL    MW4 1615   2.238   3.477   0.846  0.0799  0.8335  0.1449
  386SOL     OW 1616   2.452   3.662   0.781  0.3253 -0.2775  0.0456
  386SOL    HW2 1617   2.535   3.616   0.778  0.0144 -0.7844 -1.7526
  386SOL    HW3 1618   2.388   3.595   0.806  0.3722 -0.0257  0.8403
  386SOL    MW4 1619   2.454   3.647   0.784  0.2904 -0.3111 -0.0867
  387SOL     OW 1620   2.433   3.915   0.827  0.4919 -0.2086 -0.2707
  387SOL    HW2 1621   2.341   3.932   0.811  0.6837  1.4681  0.3533
  387SOL    HW3 1622   2.442   3.820   0.814 -0.9866 -0.1671 -1.8445
  387SOL    MW4 1623   2.422   3.905   0.823  0.3221  0.0181 -0.3960
  388SOL     OW 1624   2.147   3.984   0.762 -0.5605 -0.0868  0.0954
  388SOL    HW2 1625   2.088   3.917   0.798 -1.3662 -0.2987 -1.5618
  388SOL    HW3 1626   2.124   3.988   0.669  0.2297  1.7322 -0.0382
  388SOL    MW4 1627   2.136   3.975   0.755 -0.5627  0.1249 -0.1410
  389SOL     OW 1628   2.170   4.269   0.831  0.3240 -0.7541  0.3407
  389SOL    HW2 1629   2.157   4.181   0.795 -1.3609  0.3529 -1.8446
  389SOL    HW3 1630   2.099   4.321   0.793 -0.3190  0.9615  3.6910
  389SOL    MW4 1631   2.159   4.264   0.821  0.0169 -0.3819  0.4944
  390SOL     OW 1632   2.413   4.361   0.704 -0.1588 -0.3766  0.4990
  390SOL    HW2 1633   2.342   4.318   0.754 -0.0856 -1.1136 -0.0250
  390SOL    HW3 1634   2.493   4.329   0.745 -0.0861 -1.4513 -0.4659
  390SOL    MW4 1635   2.414   4.351   0.716 -0.1397 -0.6156  0.3026
  391SOL     OW 1636   3.025   0.099   0.870 -0.6527  0.4014 -0.2068
  391SOL    HW2 1637   3.051   0.017   0.828 -0.5721  0.4187 -0.1914
  391SOL    HW3 1638   2.948   0.128   0.821  0.0175  0.9181 -0.9654
  391SOL    MW4 1639   3.018   0.092   0.858 -0.5534  0.4719 -0.3048
  392SOL     OW 1640   2.629   4.652   0.637 -0.3736 -0.0537 -0.2214
  392SOL    HW2 1641   2.691   4.712   0.678 -1.0176  0.7176 -0.3628
  392SOL    HW3 1642   2.566   4.632   0.707 -0.8786  0.4393 -0.5318
  392SOL    MW4 1643   2.629   4.657   0.652 -0.5252  0.1130 -0.2810
  393SOL     OW 1644   2.724   0.410   0.854 -0.3874  0.4409  0.0475
  393SOL    HW2 1645   2.704   0.396   0.947  1.2003 -1.6148  0.0938
  393SOL    HW3 1646   2.811   0.450   0.853 -0.5149  0.7164 -0.5504
  393SOL    MW4 1647   2.733   0.413   0.866 -0.1948  0.2060 -0.0253
  394SOL     OW 1648   2.980   0.488   0.795  0.5770  0.4765 -0.2921
  394SOL    HW2 1649   3.062   0.491   0.845  0.9340  1.6191 -0.9245
  394SOL    HW3 1650   3.005   0.452   0.710  0.2894  0.1184 -0.2227
  394SOL    MW4 1651   2.994   0.484   0.791  0.5860  0.5800 -0.3664
  395SOL     OW 1652   2.902   0.755   0.859  0.1429 -0.0720  0.6099
  395SOL    HW2 1653   2.872   0.753   0.950 -1.6968  0.1977  0.0369
  395SOL    HW3 1654   2.919   0.664   0.836  0.1905 -0.1846  1.1063
  395SOL    MW4 1655   2.900   0.743   0.868 -0.0937 -0.0513  0.5998
  396SOL     OW 1656   2.721   0.904   0.722  0.1166 -0.3041 -0.1791
  396SOL    HW2 1657   2.799   0.866   0.762 -0.9066 -2.8403 -0.4974
  396SOL    HW3 1658   2.744   0.915   0.629  0.6923  0.6645  0.0687
  396SOL    MW4 1659   2.735   0.901   0.715  0.0577 -0.5109 -0.1884
  397SOL     OW 1660   2.699   1.155   0.850 -0.0678  0.6695 -0.0347
  397SOL    HW2 1661   2.713   1.064   0.825 -0.1613  0.6368  0.0340
  397SOL    HW3 1662   2.639   1.189   0.785 -0.1672  0.6350  0.0390
  397SOL    MW4 1663   2.693   1.147   0.838 -0.0932  0.6605 -0.0159
  398SOL     OW 1664   2.913   1.267   0.701 -0.4376 -0.0210 -0.3662
  398SOL    HW2 1665   2.978   1.212   0.744  0.8249  0.7248 -1.2857
  398SOL    HW3 1666   2.832   1.252   0.750  0.7807  0.2647  1.8055
  398SOL    MW4 1667   2.911   1.258   0.713 -0.1101  0.1150 -0.2010
  399SOL     OW 1668   2.935   1.503   0.853  0.2478 -0.1050 -0.3459
  399SOL    HW2 1669   3.003   1.546   0.801 -0.5735  1.5103 -0.1305
  399SOL    HW3 1670   2.917   1.422   0.806  1.3499  0.1050 -1.1569
  399SOL    MW4 1671   2.942   1.498   0.840  0.2847  0.1359 -0.4244
  400SOL     OW 1672   2.739   1.657   0.694  0.2548 -0.0916  0.1720
  400SOL    HW2 1673   2.712   1.743   0.728 -0.2321  0.2527 -1.0260
  400SOL    HW3 1674   2.802   1.624   0.758 -0.2724  0.7410  1.1373
  400SOL    MW4 1675   2.744   1.664   0.707  0.1209  0.0638  0.1413
  401SOL     OW 1676   2.717   1.917   0.826 -0.1403 -0.1106  0.1505
  401SOL    HW2 1677   2.718   1.895   0.919  0.6953  0.1111  0.2022
  401SOL    HW3 1678   2.627   1.941   0.808 -0.4921 -0.9620  0.7121
  401SOL    MW4 1679   2.705   1.917   0.836 -0.0768 -0.1936  0.2314
  402SOL     OW 1680   2.827   2.134   0.705  0.5277 -0.8381 -0.5342
  402SOL    HW2 1681   2.844   2.197   0.774 -0.0905 -0.3901 -0.7882
  402SOL    HW3 1682   2.792   2.057   0.750  0.2096 -0.5790 -0.3487
  402SOL    MW4 1683   2.825   2.132   0.720  0.4041 -0.7446 -0.5433
  403SOL     OW 1684   2.844   2.365   0.873  0.1556  0.3598 -0.2197
  403SOL    HW2 1685   2.846   2.367   0.969 -0.6923  1.4638 -0.2177
  403SOL    HW3 1686   2.757   2.397   0.850 -0.3006 -1.5853 -1.3340
  403SOL    MW4 1687   2.833   2.369   0.883 -0.0165  0.2487 -0.3665
  404SOL     OW 1688   2.596   2.486   0.789 -0.0166 -0.3200  0.3094
  404SOL    HW2 1689   2.567   2.494   0.698  1.5795 -1.0462 -0.2719
  404SOL    HW3 1690   2.615   2.576   0.816 -2.0302  0.0792  0.4498
  404SOL    MW4 1691   2.595   2.499   0.781 -0.0718 -0.3631  0.2512
  405SOL     OW 1692   2.717   2.744   0.863  0.8081 -0.1149 -0.4196
  405SOL    HW2 1693   2.702   2.725   0.956  1.0821  0.2092 -0.3094
  405SOL    HW3 1694   2.803   2.786   0.860  0.3563  0.7990 -0.7040
  405SOL    MW4 1695   2.726   2.747   0.875  0.7846  0.0484 -0.4426
  406SOL     OW 1696   2.892   2.907   0.520 -0.3403 -0.0534  0.3993
  406SOL    HW2 1697   2.803   2.880   0.495 -1.2046  0.8470  2.3602
  406SOL    HW3 1698   2.887   3.003   0.526  0.7640  0.0044  0.5295
  406SOL    MW4 1699   2.879   2.916   0.518 -0.3083  0.0730  0.6752
  407SOL     OW 1700   2.917   3.171   0.912 -0.3103  0.0361  0.2824
  407SOL    HW2 1701   2.849   3.215   0.860 -0.3115  1.3414  1.3549
  407SOL    HW3 1702   2.928   3.086   0.870 -1.1205  0.6255 -1.1665
  407SOL    MW4 1703   2.909   3.165   0.900 -0.4175  0.2861  0.2328
  408SOL     OW 1704   2.697   3.266   0.757 -0.1082  0.0709 -0.8077
  408SOL    HW2 1705   2.689   3.356   0.788 -0.5891 -0.1177 -0.3822
  408SOL    HW3 1706   2.619   3.221   0.791 -0.3511 -0.2751 -1.8087
  408SOL    MW4 1707   2.686   3.272   0.766 -0.2036  0.0005 -0.8836
  409SOL     OW 1708   2.709   3.541   0.833 -0.3264  0.3616  0.2639
  409SOL    HW2 1709   2.724   3.537   0.927  1.5457  1.7380  0.0622
  409SOL    HW3 1710   2.788   3.584   0.798 -2.3167  2.6264 -1.5992
  409SOL    MW4 1711   2.722   3.546   0.841 -0.3421  0.8421 -0.0085
  410SOL     OW 1712   2.938   3.676   0.788 -0.1047 -0.0376  0.2693
  410SOL    HW2 1713   2.940   3.758   0.838  0.5600  0.3035 -0.2967
  410SOL    HW3 1714   2.991   3.695   0.710 -2.0675 -0.1676 -1.1516
  410SOL    MW4 1715   2.945   3.689   0.784 -0.2756 -0.0098  0.0072
  411SOL     OW 1716   2.940   3.949   0.868 -0.5143  0.0372 -0.1976
  411SOL    HW2 1717   2.915   3.940   0.960 -0.9212 -3.0243 -0.5566
  411SOL    HW3 1718   2.857   3.960   0.822 -0.5060 -0.8972 -0.4422
  411SOL    MW4 1719   2.926   3.949   0.874 -0.5670 -0.4902 -0.2772
  412SOL     OW 1720   2.694   4.016   0.752 -0.0866 -0.1148  0.1752
  412SOL    HW2 1721   2.605   3.986   0.770 -0.3557  0.1856 -0.6192
  412SOL    HW3 1722   2.710   3.990   0.661  0.9873 -1.0127  0.6172
  412SOL    MW4 1723   2.684   4.009   0.742  0.0198 -0.1936  0.1287
  413SOL     OW 1724   2.633   4.278   0.834  0.0528  0.3085 -0.1577
  413SOL    HW2 1725   2.656   4.281   0.927 -0.1252 -1.2694 -0.0413
  413SOL    HW3 1726   2.657   4.189   0.807 -3.1039 -0.4152 -0.7453
  413SOL    MW4 1727   2.639   4.267   0.843 -0.3870  0.0052 -0.2198
  414SOL     OW 1728   3.076   4.527   0.749 -0.1028  0.0971 -0.3765
  414SOL    HW2 1729   3.121   4.451   0.787 -0.0707 -0.1171 -0.8469
  414SOL    HW3 1730   2.991   4.494   0.722  0.3670 -0.0640 -1.7032
  414SOL    MW4 1731   3.071   4.513   0.751 -0.0365  0.0477 -0.6136
  415SOL     OW 1732   3.406   4.662   0.841 -0.1375 -0.0971  0.3640
  415SOL    HW2 1733   3.418   4.639   0.933  0.7076  0.1198  0.3155
  415SOL    HW3 1734   3.355   4.742   0.842  0.8963  0.5601  0.6833
  415SOL    MW4 1735   3.401   4.669   0.853  0.1104  0.0181  0.3998
  416SOL     OW 1736   3.253   0.225   0.796  0.1344 -0.3687 -0.5469
  416SOL    HW2 1737   3.266   0.299   0.855 -0.1262  0.7786 -1.9095
  416SOL    HW3 1738   3.172   0.183   0.828 -0.4075  0.6729 -0.5444
  416SOL    MW4 1739   3.244   0.229   0.808  0.0286 -0.0799 -0.7263
  417SOL     OW 1740   3.240   0.460   0.960  0.5169  0.5535 -0.0641
  417SOL    HW2 1741   3.206   0.431   1.045  1.0188  0.2151  0.0259
  417SOL    HW3 1742   3.285   0.542   0.979  1.1238  0.1893  0.1077
  417SOL    MW4 1743   3.242   0.467   0.974  0.6635  0.4608 -0.0295
  418SOL     OW 1744   3.430   0.492   0.677 -0.0672 -0.1543 -0.0903
  418SOL    HW2 1745   3.494   0.443   0.729  0.9296  0.2585 -0.9004
  418SOL    HW3 1746   3.453   0.471   0.586  0.0996  1.4981 -0.4325
  418SOL    MW4 1747   3.442   0.483   0.672  0.0863  0.1181 -0.2424
  419SOL     OW 1748   3.368   0.713   0.829  0.5332  0.1887 -0.2427
  419SOL    HW2 1749   3.289   0.751   0.791  0.4486 -0.1349 -0.3875
  419SOL    HW3 1750   3.387   0.637   0.775  0.2397 -0.4502  0.5326
  419SOL    MW4 1751   3.360   0.708   0.817  0.4833  0.0617 -0.1595
  420SOL     OW 1752   3.138   0.849   0.770 -0.1177  0.6323  0.0058
  420SOL    HW2 1753   3.134   0.944   0.782  0.1272  0.7441 -0.7782
  420SOL    HW3 1754   3.056   0.817   0.807 -0.5599  1.2291 -0.4478
  420SOL    MW4 1755   3.127   0.857   0.776 -0.1440  0.7257 -0.1575
  421SOL     OW 1756   3.114   1.110   0.816  0.0715  0.4007 -0.6330
  421SOL    HW2 1757   3.109   1.077   0.906  1.2618 -0.9275 -1.0431
  421SOL    HW3 1758   3.189   1.170   0.817  0.4469 -0.0594 -0.8689
  421SOL    MW4 1759   3.123   1.114   0.828  0.2782  0.1647 -0.7183
  422SOL     OW 1760   3.350   1.250   0.760 -0.6369  0.0197  0.4858
  422SOL    HW2 1761   3.440   1.226   0.781 -0.3163 -0.1298 -0.9873
  422SOL    HW3 1762   3.346   1.344   0.774 -0.8994 -0.2893  2.7571
  422SOL    MW4 1763   3.362   1.259   0.765 -0.6292 -0.0409  0.5911
  423SOL     OW 1764   3.343   1.525   0.797 -0.1784  0.0389 -0.2787
  423SOL    HW2 1765   3.343   1.523   0.893 -1.2245  0.6725 -0.2611
  423SOL    HW3 1766   3.432   1.550   0.773 -0.2640  1.1800  0.5615
  423SOL    MW4 1767   3.354   1.528   0.807 -0.3278  0.2730 -0.1655
  424SOL     OW 1768   3.113   1.667   0.721  0.0729 -0.5342 -0.0896
  424SOL    HW2 1769   3.189   1.615   0.746  1.2636  1.1719 -0.0213
  424SOL    HW3 1770   3.125   1.684   0.628  0.6766  1.1161  0.2643
  424SOL    MW4 1771   3.125   1.663   0.712  0.3095 -0.0914 -0.0339
  425SOL     OW 1772   3.154   1.923   0.838 -0.0542  0.1881  0.3304
  425SOL    HW2 1773   3.111   1.929   0.923 -0.8165  1.6573 -0.1374
  425SOL    HW3 1774   3.134   1.835   0.806  0.3102 -0.3960  1.6999
  425SOL    MW4 1775   3.146   1.912   0.845 -0.1068  0.3048  0.4494
  426SOL     OW 1776   3.404   1.984   0.751 -0.0067 -0.1874  0.0849
  426SOL    HW2 1777   3.409   2.079   0.762  1.0968 -0.4404  1.9432
  426SOL    HW3 1778   3.319   1.960   0.787 -0.1531  0.0596 -0.0964
  426SOL    MW4 1779   3.393   1.993   0.757  0.1197 -0.1882  0.3062
  427SOL     OW 1780   3.404   2.293   0.840 -0.0545 -0.1652  0.1838
  427SOL    HW2 1781   3.376   2.293   0.932 -0.4946  2.5028  0.0878
  427SOL    HW3 1782   3.469   2.363   0.835  0.2260 -0.5178 -1.4836
  427SOL    MW4 1783   3.409   2.302   0.852 -0.0756  0.1404 -0.0488
  428SOL     OW 1784   3.049   2.478   0.706  0.1879  0.1456 -0.1898
  428SOL    HW2 1785   3.122   2.416   0.698 -0.8411 -1.1165  0.1597
  428SOL    HW3 1786   2.988   2.436   0.766 -2.1610 -0.1022 -2.6685
  428SOL    MW4 1787   3.051   2.464   0.713 -0.2575 -0.0536 -0.4708
  429SOL     OW 1788   3.081   2.697   0.878  0.6256  0.0964  0.2921
  429SOL    HW2 1789   3.057   2.629   0.815 -0.3149 -0.9335  1.7394
  429SOL    HW3 1790   3.162   2.734   0.843 -0.2497  0.0424 -1.8955
  429SOL    MW4 1791   3.089   2.693   0.865  0.3860 -0.0465  0.1944
  430SOL     OW 1792   3.261   2.852   0.730  0.1052  0.5206  0.2038
  430SOL    HW2 1793   3.223   2.914   0.667  0.8206  0.3155 -0.4390
  430SOL    HW3 1794   3.353   2.846   0.705  0.3310  0.2041  1.0883
  430SOL    MW4 1795   3.268   2.860   0.718  0.2294  0.4516  0.2357
  431SOL     OW 1796   3.352   3.086   0.879  0.2760 -0.2401 -0.2882
  431SOL    HW2 1797   3.349   3.073   0.974  1.1810 -0.1527 -0.2439
  431SOL    HW3 1798   3.322   3.002   0.843 -0.4460 -0.1418  0.0755
  431SOL    MW4 1799   3.347   3.073   0.887  0.3002 -0.2155 -0.2344
  432SOL     OW 1800   3.162   3.239   0.757 -0.1814  0.3858 -0.1589
  432SOL    HW2 1801   3.221   3.188   0.812 -0.5351  1.4206  1.2101
  432SOL    HW3 1802   3.075   3.226   0.796 -0.3533  1.5642 -0.1297
  432SOL    MW4 1803   3.158   3.231   0.770 -0.2508  0.6776  0.0255
  433SOL     OW 1804   3.152   3.489   0.879  0.1597 -0.3456  0.2143
  433SOL    HW2 1805   3.158   3.399   0.846  0.4682  0.3035 -1.5597
  433SOL    HW3 1806   3.085   3.530   0.824  0.8841  0.8570  0.2162
  433SOL    MW4 1807   3.144   3.482   0.867  0.2956 -0.1013 -0.0195
  434SOL     OW 1808   3.387   3.621   0.786  0.3643  1.0154  0.0990
  434SOL    HW2 1809   3.378   3.716   0.787  1.6442  1.1601 -0.8476
  434SOL    HW3 1810   3.305   3.589   0.824 -1.5051  2.3730 -2.6374
  434SOL    MW4 1811   3.375   3.629   0.791  0.2866  1.2140 -0.3870
  435SOL     OW 1812   3.361   3.906   0.827  0.7075 -0.3442  0.6349
  435SOL    HW2 1813   3.376   3.891   0.920  2.0733 -2.7251  0.0683
  435SOL    HW3 1814   3.449   3.921   0.791  0.1857  0.5626 -0.2811
  435SOL    MW4 1815   3.375   3.906   0.834  0.8187 -0.5383  0.4393
  436SOL     OW 1816   3.140   4.084   0.756  0.5849  0.2693 -0.0499
  436SOL    HW2 1817   3.218   4.031   0.770  0.3791 -0.7478 -2.5099
  436SOL    HW3 1818   3.068   4.030   0.791  0.6271 -0.1746 -0.6373
  436SOL    MW4 1819   3.141   4.070   0.763  0.5634  0.0768 -0.4519
  437SOL     OW 1820   3.224   4.325   0.857  0.3210  0.1089  0.5333
  437SOL    HW2 1821   3.304   4.341   0.809 -0.6789  1.6047 -0.6767
  437SOL    HW3 1822   3.194   4.239   0.826 -0.6120  1.3148 -1.9547
  437SOL    MW4 1823   3.230   4.315   0.847  0.0663  0.4659  0.0454
  438SOL     OW 1824   3.441   4.408   0.707 -0.6191  0.5797  0.3732
  438SOL    HW2 1825   3.437   4.498   0.741  0.6481  1.1572 -0.9526
  438SOL    HW3 1826   3.440   4.419   0.612 -1.4614 -0.8759  0.2111
  438SOL    MW4 1827   3.440   4.422   0.699 -0.5631  0.4635  0.1768
  439SOL     OW 1828   3.852   4.600   0.857  0.8240  0.4590 -0.1697
  439SOL    HW2 1829   3.920   4.655   0.818  0.6257  0.3876 -0.6173
  439SOL    HW3 1830   3.770   4.638   0.826  0.6040  1.3956  1.4924
  439SOL    MW4 1831   3.850   4.613   0.847  0.7689  0.5727 -0.0095
  440SOL     OW 1832   3.646   0.092   0.748  0.6416  0.2823  0.1256
  440SOL    HW2 1833   3.571   0.048   0.788  1.1745 -1.4513 -0.7576
  440SOL    HW3 1834   3.622   0.102   0.656  1.7538 -0.9185 -0.3123
  440SOL    MW4 1835   3.633   0.088   0.741  0.8585 -0.1049 -0.0488
  441SOL     OW 1836   3.595   0.364   0.864  0.1296 -0.1843  0.5796
  441SOL    HW2 1837   3.591   0.364   0.960  1.3355 -0.5234  0.6298
  441SOL    HW3 1838   3.601   0.271   0.840 -0.7350 -0.1367  0.1410
  441SOL    MW4 1839   3.595   0.352   0.873  0.1745 -0.2228  0.5284
  442SOL     OW 1840   3.819   0.471   0.758  0.3653  0.1192 -0.1579
  442SOL    HW2 1841   3.800   0.557   0.795 -0.4086  0.3761 -1.1171
  442SOL    HW3 1842   3.752   0.413   0.795 -0.5848  0.4357 -1.3552
  442SOL    MW4 1843   3.808   0.475   0.768  0.1378  0.1949 -0.4424
  443SOL     OW 1844   3.772   0.732   0.858  0.0010 -0.1026  0.0476
  443SOL    HW2 1845   3.780   0.731   0.953 -0.1420  0.4553  0.0665
  443SOL    HW3 1846   3.854   0.772   0.827 -0.5000  0.9122  0.0035
  443SOL    MW4 1847   3.784   0.737   0.867 -0.0839  0.1049  0.0443
  444SOL     OW 1848   3.581   0.894   0.756  0.2033 -0.4028 -0.1074
  444SOL    HW2 1849   3.646   0.830   0.786  0.7868  0.1154 -0.2307
  444SOL    HW3 1850   3.498   0.848   0.760  0.7519 -1.5279 -1.2343
  444SOL    MW4 1851   3.579   0.880   0.760  0.3526 -0.4828 -0.2723
  445SOL     OW 1852   3.612   1.170   0.835  0.0588  0.1920 -0.0345
  445SOL    HW2 1853   3.610   1.173   0.931  0.5961  0.7959 -0.0423
  445SOL    HW3 1854   3.593   1.079   0.814 -0.6590  0.1759  0.6328
  445SOL    MW4 1855   3.609   1.158   0.845  0.0350  0.2694  0.0525
  446SOL     OW 1856   3.842   1.293   0.719 -0.0816 -0.3453 -0.2800
  446SOL    HW2 1857   3.773   1.237   0.755 -0.3339  0.2283  0.1548
  446SOL    HW3 1858   3.820   1.302   0.627  0.2735 -1.4098 -0.4757
  446SOL    MW4 1859   3.830   1.287   0.712 -0.0677 -0.4101 -0.2485
  447SOL     OW 1860   3.823   1.544   0.845  0.1555 -0.2146  0.3472
  447SOL    HW2 1861   3.909   1.577   0.821  0.3053 -0.4978  0.5004
  447SOL    HW3 1862   3.826   1.451   0.824 -0.5536  0.0191 -0.9052
  447SOL    MW4 1863   3.835   1.536   0.839  0.0818 -0.2210  0.2021
  448SOL     OW 1864   3.601   1.629   0.704  0.0721 -0.2595  0.3779
  448SOL    HW2 1865   3.589   1.717   0.740  1.0816 -0.5145  1.3867
  448SOL    HW3 1866   3.668   1.589   0.760 -0.8468 -1.9033  0.3480
  448SOL    MW4 1867   3.608   1.635   0.716  0.0839 -0.5100  0.5071
  449SOL     OW 1868   3.653   1.888   0.806 -0.0033  0.4176  0.1583
  449SOL    HW2 1869   3.721   1.951   0.781 -0.2600  0.6590  0.0669
  449SOL    HW3 1870   3.571   1.931   0.783 -0.1881  0.1294  0.2792
  449SOL    MW4 1871   3.651   1.902   0.800 -0.0615  0.4114  0.1622
  450SOL     OW 1872   3.854   2.065   0.702  0.3010 -0.6993 -0.1207
  450SOL    HW2 1873   3.928   2.027   0.750  0.4868  0.9702  0.9399
  450SOL    HW3 1874   3.887   2.079   0.614  1.1897 -0.1712  0.2877
  450SOL    MW4 1875   3.868   2.062   0.697  0.4430 -0.4096  0.0731
  451SOL     OW 1876   3.837   2.331   0.840 -0.0678 -0.0717  0.3479
  451SOL    HW2 1877   3.814   2.318   0.932  0.2190 -1.7124  0.2006
  451SOL    HW3 1878   3.810   2.250   0.797  3.4300 -0.9749 -0.3128
  451SOL    MW4 1879   3.830   2.318   0.846  0.4315 -0.4072  0.2413
  452SOL     OW 1880   3.593   2.495   0.801  0.4150  0.0075 -0.1842
  452SOL    HW2 1881   3.603   2.588   0.821  0.4053  0.6345 -2.9187
  452SOL    HW3 1882   3.682   2.460   0.803  0.4526  0.1381  0.5258
  452SOL    MW4 1883   3.606   2.503   0.804  0.4187  0.1078 -0.4513
  453SOL     OW 1884   3.595   2.771   0.885  0.6560 -0.2329  0.1328
  453SOL    HW2 1885   3.561   2.750   0.972  0.1384  1.1684  0.2741
  453SOL    HW3 1886   3.645   2.851   0.896 -0.3622  0.5962 -1.0674
  453SOL    MW4 1887   3.597   2.779   0.898  0.4530  0.0613 -0.0070
  454SOL     OW 1888   3.922   3.008   0.641  0.1450  0.4279 -0.1008
  454SOL    HW2 1889   3.940   3.095   0.676 -1.6897 -0.0230  2.1447
  454SOL    HW3 1890   3.838   3.017   0.596  0.2355 -0.0381 -0.3659
  454SOL    MW4 1891   3.913   3.021   0.640 -0.0849  0.3068  0.1605
  455SOL     OW 1892   3.738   3.025   0.885  0.1751 -0.3500 -0.1353
  455SOL    HW2 1893   3.782   2.977   0.815  0.1264  0.1394 -0.5060
  455SOL    HW3 1894   3.698   3.101   0.841  0.3400  0.0845  0.4559
  455SOL    MW4 1895   3.739   3.029   0.870  0.1903 -0.2284 -0.1062
  456SOL     OW 1896   3.592   3.225   0.788 -0.0076 -0.0062  0.1928
  456SOL    HW2 1897   3.509   3.188   0.819  0.1787 -0.0122  0.6755
  456SOL    HW3 1898   3.574   3.249   0.697 -0.5742  0.0893  0.3267
  456SOL    MW4 1899   3.579   3.223   0.780 -0.0577  0.0052  0.2741
  457SOL     OW 1900   3.627   3.514   0.888  0.2918 -0.4562  0.4302
  457SOL    HW2 1901   3.642   3.421   0.872 -1.0444 -0.8296  1.2837
  457SOL    HW3 1902   3.546   3.534   0.842  0.5973  0.3158  0.2037
  457SOL    MW4 1903   3.619   3.505   0.880  0.1559 -0.4036  0.5129
  458SOL     OW 1904   3.831   3.659   0.789 -0.3954 -0.2878 -0.2218
  458SOL    HW2 1905   3.909   3.610   0.814 -0.5928 -0.6562 -0.3241
  458SOL    HW3 1906   3.760   3.617   0.837 -0.9128 -1.5543 -2.0564
  458SOL    MW4 1907   3.832   3.647   0.799 -0.4897 -0.5035 -0.4774
  459SOL     OW 1908   3.799   3.914   0.880 -0.0449 -0.1883  0.1026
  459SOL    HW2 1909   3.723   3.953   0.838 -0.0360  0.4479  0.6762
  459SOL    HW3 1910   3.809   3.829   0.837 -0.3290  0.2436 -0.8384
  459SOL    MW4 1911   3.791   3.908   0.868 -0.0808 -0.0472  0.0541
  460SOL     OW 1912   3.607   4.005   0.708  0.5465 -0.4980  0.1074
  460SOL    HW2 1913   3.614   4.091   0.751  1.7578 -0.5150 -0.0295
  460SOL    HW3 1914   3.590   4.026   0.616 -1.1355 -0.4462  0.4162
  460SOL    MW4 1915   3.606   4.019   0.702  0.4845 -0.4930  0.1301
  461SOL     OW 1916   3.660   4.257   0.838  0.5733 -0.4496  0.4570
  461SOL    HW2 1917   3.743   4.289   0.803  0.7290  0.0403  1.2714
  461SOL    HW3 1918   3.593   4.301   0.785  0.8200 -0.5117  0.0869
  461SOL    MW4 1919   3.662   4.267   0.826  0.6263 -0.3929  0.5156
  462SOL     OW 1920   3.886   4.369   0.711  0.1270 -0.0560 -0.2893
  462SOL    HW2 1921   3.956   4.318   0.751 -1.2975 -0.7440  1.4104
  462SOL    HW3 1922   3.879   4.447   0.765 -1.0606 -0.4509  0.1452
  462SOL    MW4 1923   3.895   4.372   0.723 -0.2177 -0.1988 -0.0077
  463SOL     OW 1924   4.274   4.623   0.852 -0.0505 -0.5478 -0.1460
  463SOL    HW2 1925   4.271   4.611   0.947 -0.2323  0.8396  0.0300
  463SOL    HW3 1926   4.206   4.688   0.834  0.7210  0.0067 -1.0915
  463SOL    MW4 1927   4.265   4.630   0.862  0.0272 -0.2918 -0.2475
  464SOL     OW 1928   4.055   0.126   0.801  0.2326 -0.0571  0.3524
  464SOL    HW2 1929   4.072   0.215   0.829  1.9919 -0.0593 -0.6646
  464SOL    HW3 1930   4.061   0.128   0.706  0.5723 -1.3156  0.3287
  464SOL    MW4 1931   4.058   0.138   0.793  0.5097 -0.2234  0.2151
  465SOL     OW 1932   4.076   0.393   0.874  0.0765  0.2705  0.2914
  465SOL    HW2 1933   4.138   0.445   0.823 -0.9365 -1.1405 -2.4867
  465SOL    HW3 1934   3.991   0.414   0.837 -0.8853  0.2726  2.3938
  465SOL    MW4 1935   4.073   0.403   0.863 -0.1841  0.0846  0.2022
  466SOL     OW 1936   4.278   0.498   0.726  0.5695 -1.0434 -0.3027
  466SOL    HW2 1937   4.354   0.469   0.776 -0.4647 -2.3317  0.5268
  466SOL    HW3 1938   4.306   0.492   0.635  2.4670  1.3445  0.0714
  466SOL    MW4 1939   4.292   0.494   0.720  0.6833 -0.8983 -0.1439
  467SOL     OW 1940   4.241   0.746   0.853 -0.5413  0.4210 -0.1994
  467SOL    HW2 1941   4.152   0.763   0.821 -0.6280  0.0232 -0.1754
  467SOL    HW3 1942   4.280   0.689   0.787 -0.2405  0.7385 -0.2980
  467SOL    MW4 1943   4.234   0.741   0.840 -0.5131  0.4103 -0.2093
  468SOL     OW 1944   3.995   0.858   0.767 -0.2949  0.1872 -0.2691
  468SOL    HW2 1945   3.996   0.952   0.785  1.1357  0.4130 -1.4699
  468SOL    HW3 1946   3.949   0.849   0.684  0.3463 -0.0905 -0.5996
  468SOL    MW4 1947   3.989   0.869   0.759 -0.0212  0.1804 -0.4711
  469SOL     OW 1948   4.029   1.124   0.835  0.4290  0.5281 -0.6101
  469SOL    HW2 1949   4.032   1.155   0.925  0.8600 -0.2880 -0.3378
  469SOL    HW3 1950   3.977   1.190   0.789 -0.6990  0.4143  0.4562
  469SOL    MW4 1951   4.022   1.136   0.841  0.3371  0.4054 -0.4334
  470SOL     OW 1952   4.269   1.271   0.736  0.4982 -0.1765  0.1398
  470SOL    HW2 1953   4.186   1.227   0.756  1.3894 -0.8851  2.3800
  470SOL    HW3 1954   4.332   1.231   0.796  2.5858 -0.0212 -1.9159
  470SOL    MW4 1955   4.266   1.260   0.747  0.8912 -0.2496  0.1642
  471SOL     OW 1956   4.326   1.528   0.785 -0.3386  0.0315 -0.5386
  471SOL    HW2 1957   4.329   1.533   0.880 -1.6526  0.3123 -0.5011
  471SOL    HW3 1958   4.297   1.439   0.766 -1.8745  0.5466 -0.6320
  471SOL    MW4 1959   4.323   1.517   0.795 -0.7143  0.1365 -0.5460
  472SOL     OW 1960   4.051   1.676   0.789  0.0506  0.5543 -0.1011
  472SOL    HW2 1961   4.138   1.639   0.805 -0.1968  0.0298  0.0375
  472SOL    HW3 1962   4.037   1.666   0.695 -0.2046 -0.1234  0.0072
  472SOL    MW4 1963   4.060   1.670   0.779 -0.0153  0.3957 -0.0685
  473SOL     OW 1964   4.086   1.945   0.841 -0.2353  0.2758  0.0631
  473SOL    HW2 1965   4.157   1.968   0.780 -1.0982 -1.9358 -1.8531
  473SOL    HW3 1966   4.073   1.851   0.827 -1.1928 -0.0409  2.9361
  473SOL    MW4 1967   4.094   1.935   0.831 -0.4749 -0.0578  0.1893
  474SOL     OW 1968   4.305   2.067   0.705 -0.5080 -0.0280 -0.3829
  474SOL    HW2 1969   4.379   2.027   0.750 -1.5362 -2.1689 -0.5299
  474SOL    HW3 1970   4.332   2.070   0.613  0.3191  1.4031 -0.1117
  474SOL    MW4 1971   4.318   2.062   0.698 -0.5345 -0.1216 -0.3664
  475SOL     OW 1972   4.242   2.315   0.759 -0.1182  0.3710  0.4739
  475SOL    HW2 1973   4.181   2.313   0.685 -0.5894  0.8558  0.8459
  475SOL    HW3 1974   4.279   2.227   0.761 -0.0564  0.3697 -0.3747
  475SOL    MW4 1975   4.239   2.303   0.749 -0.1721  0.4349  0.4111
  476SOL     OW 1976   3.922   2.536   0.654 -0.2497  0.1434  0.0390
  476SOL    HW2 1977   3.951   2.606   0.713 -0.6698 -0.2511  0.7119
  476SOL    HW3 1978   3.898   2.464   0.711  2.3598 -1.4020 -0.7280
  476SOL    MW4 1979   3.923   2.536   0.669  0.0391 -0.1125  0.0266
  477SOL     OW 1980   4.008   2.770   0.788 -0.3961  0.1533  0.2762
  477SOL    HW2 1981   4.103   2.763   0.783 -0.5194 -1.8385  0.3769
  477SOL    HW3 1982   3.986   2.845   0.732  1.0312 -0.7511 -1.5396
  477SOL    MW4 1983   4.017   2.779   0.780 -0.2241 -0.2291  0.0499
  478SOL     OW 1984   4.261   2.864   0.647 -0.0555 -0.0136  0.0062
  478SOL    HW2 1985   4.316   2.807   0.700  1.1544  1.8721  0.8411
  478SOL    HW3 1986   4.264   2.825   0.559  2.8844  0.1835 -0.0447
  478SOL    MW4 1987   4.269   2.851   0.642  0.4916  0.2615  0.1097
  479SOL     OW 1988   4.232   3.063   0.872 -0.3613 -0.2751  0.2876
  479SOL    HW2 1989   4.205   2.992   0.813 -0.0973 -0.3286  0.2331
  479SOL    HW3 1990   4.308   3.102   0.830 -0.6599  0.2063  0.1921
  479SOL    MW4 1991   4.238   3.058   0.859 -0.3657 -0.2186  0.2677
  480SOL     OW 1992   4.025   3.246   0.756 -0.0292 -0.0551  0.3834
  480SOL    HW2 1993   4.019   3.333   0.795 -0.3101  0.3957 -0.6343
  480SOL    HW3 1994   4.078   3.195   0.817  0.6697  1.0089  0.6692
  480SOL    MW4 1995   4.031   3.251   0.769  0.0262  0.1447  0.2869
  481SOL     OW 1996   4.033   3.494   0.885 -0.3571  0.1792 -0.0108
  481SOL    HW2 1997   4.037   3.483   0.980 -0.0558  2.4148  0.2723
  481SOL    HW3 1998   4.125   3.500   0.858 -0.3986 -1.6085 -0.6199
  481SOL    MW4 1999   4.046   3.493   0.894 -0.3233  0.2379 -0.0539
  482SOL     OW 2000   4.417   3.674   0.683 -0.0014 -0.0532  0.3634
  482SOL    HW2 2001   4.363   3.723   0.745 -0.6496  0.4360 -0.5703
  482SOL    HW3 2002   4.506   3.707   0.697 -0.3401  0.9491  0.1752
  482SOL    MW4 2003   4.422   3.685   0.693 -0.1316  0.1433  0.2154
  483SOL     OW 2004   4.271   3.831   0.867 -0.1327  0.2125  0.6575
  483SOL    HW2 2005   4.269   3.821   0.962  0.5292 -1.3139  0.5298
  483SOL    HW3 2006   4.186   3.869   0.845 -0.8887 -0.8412  1.7163
  483SOL    MW4 2007   4.259   3.835   0.876 -0.1450 -0.1280  0.7803
  484SOL     OW 2008   4.057   3.986   0.782 -0.1741 -0.2371 -0.1628
  484SOL    HW2 2009   3.967   3.966   0.811 -0.2558  0.2959 -0.0569
  484SOL    HW3 2010   4.049   3.994   0.687 -0.1561 -0.6257 -0.1996
  484SOL    MW4 2011   4.044   3.984   0.773 -0.1826 -0.2182 -0.1537
  485SOL     OW 2012   4.079   4.268   0.878  0.1905  0.0115  0.1000
  485SOL    HW2 2013   4.160   4.303   0.842 -0.5758  0.9821 -0.7161
  485SOL    HW3 2014   4.077   4.177   0.849  0.5534  0.2326 -0.6300
  485SOL    MW4 2015   4.089   4.260   0.870  0.1373  0.1688 -0.1040
  486SOL     OW 2016   4.299   4.370   0.741 -0.4492 -0.2847 -0.1384
  486SOL    HW2 2017   4.296   4.461   0.771  0.1957  0.5523 -2.5257
  486SOL    HW3 2018   4.370   4.330   0.793 -0.9701  0.4516  1.1662
  486SOL    MW4 2019   4.308   4.376   0.752 -0.4330 -0.0768 -0.2812
  487SOL     OW 2020   0.272   4.646   1.188 -0.3124  0.4783  0.0654
  487SOL    HW2 2021   0.348   4.693   1.224 -0.3278  0.4664  0.1135
  487SOL    HW3 2022   0.279   4.659   1.094  1.0662 -1.4936 -0.1414
  487SOL    MW4 2023   0.283   4.654   1.180 -0.1326  0.2165  0.0443
  488SOL     OW 2024   0.015   0.074   1.228  0.2331  0.2866 -0.5014
  488SOL    HW2 2025  -0.051   0.011   1.197 -0.1567  0.8525 -0.8399
  488SOL    HW3 2026   0.099   0.030   1.213 -0.0018  0.1248 -1.3850
  488SOL    MW4 2027   0.017   0.060   1.222  0.1508  0.3399 -0.6627
  489SOL     OW 2028   0.040   0.348   1.145  0.0178  0.0635  0.0091
  489SOL    HW2 2029  -0.038   0.385   1.186 -1.0493 -1.7257 -0.3532
  489SOL    HW3 2030   0.043   0.258   1.176  1.5214 -0.0975 -0.5883
  489SOL    MW4 2031   0.030   0.341   1.154  0.0754 -0.1938 -0.1173
  490SOL     OW 2032   0.249   0.506   1.229  0.2875 -0.0874  0.4333
  490SOL    HW2 2033   0.235   0.596   1.200 -1.5577 -0.0794  1.2634
  490SOL    HW3 2034   0.168   0.460   1.206  1.0275 -1.4382  0.4379
  490SOL    MW4 2035   0.237   0.511   1.222  0.1417 -0.2645  0.5432
  491SOL     OW 2036   0.225   0.773   1.139 -0.3050  0.1958  0.0894
  491SOL    HW2 2037   0.288   0.820   1.195 -0.8044  1.2980 -0.2518
  491SOL    HW3 2038   0.143   0.820   1.152 -1.1861 -1.5221  0.8906
  491SOL    MW4 2039   0.223   0.786   1.148 -0.4872  0.1146  0.1502
  492SOL     OW 2040   4.462   0.900   1.202  0.0414  0.2378 -0.4146
  492SOL    HW2 2041   4.480   0.896   1.296 -0.8048 -0.8766 -0.2907
  492SOL    HW3 2042   4.390   0.839   1.188  0.1699  0.3720 -1.7965
  492SOL    MW4 2043   4.455   0.891   1.212 -0.0533  0.1085 -0.5804
  493SOL     OW 2044   4.456   1.167   1.135  0.2759  0.1148  0.3573
  493SOL    HW2 2045   4.379   1.201   1.182  0.4821 -0.2259  0.9457
  493SOL    HW3 2046   4.452   1.073   1.149  0.2354 -0.0125 -0.4807
  493SOL    MW4 2047   4.445   1.159   1.143  0.2975  0.0530  0.3242
  494SOL     OW 2048   0.177   1.303   1.224 -0.5584 -0.1705  0.2358
  494SOL    HW2 2049   0.242   1.249   1.182 -0.5822  0.3915 -0.5313
  494SOL    HW3 2050   0.093   1.262   1.202 -0.4788 -0.8065  1.0969
  494SOL    MW4 2051   0.174   1.291   1.216 -0.5510 -0.1804  0.2482
  495SOL     OW 2052   0.222   1.560   1.117  0.2607  0.4915 -0.0443
  495SOL    HW2 2053   0.210   1.480   1.168 -1.2375  0.1862 -0.8587
  495SOL    HW3 2054   0.218   1.532   1.026  0.0232  1.4496 -0.3362
  495SOL    MW4 2055   0.220   1.546   1.112  0.0317  0.5778 -0.1901
  496SOL     OW 2056   0.005   1.696   1.213 -0.3520  0.2514  0.3398
  496SOL    HW2 2057   0.012   1.788   1.187 -0.1774  0.3929  0.8683
  496SOL    HW3 2058   0.089   1.657   1.188  0.2193  0.6310  1.6131
  496SOL    MW4 2059   0.017   1.703   1.207 -0.2532  0.3202  0.5776
  497SOL     OW 2060   0.035   1.958   1.108 -0.1740  0.1563  0.2241
  497SOL    HW2 2061  -0.050   1.997   1.130  0.4179  0.5378  1.8714
  497SOL    HW3 2062   0.041   1.967   1.013 -1.5963  0.9088  0.1844
  497SOL    MW4 2063   0.024   1.964   1.098 -0.2835  0.3059  0.4362
  498SOL     OW 2064   0.275   2.083   1.196  0.2507  0.3864  0.1549
  498SOL    HW2 2065   0.281   2.151   1.129 -0.9037  1.3791  1.0340
  498SOL    HW3 2066   0.199   2.030   1.170  1.1075 -0.5505 -0.4929
  498SOL    MW4 2067   0.266   2.085   1.184  0.2114  0.3936  0.1855
  499SOL     OW 2068   0.237   2.300   1.048  0.5375  0.5895 -0.0771
  499SOL    HW2 2069   0.299   2.357   1.092  1.0162  0.5102 -0.6439
  499SOL    HW3 2070   0.155   2.310   1.098  0.7431  1.4032  0.1040
  499SOL    MW4 2071   0.234   2.309   1.061  0.6277  0.6864 -0.1281
  500SOL     OW 2072   4.480   2.412   1.193 -0.0446 -0.3689  0.3183
  500SOL    HW2 2073   4.473   2.429   1.287 -0.1541  0.1007  0.2307
  500SOL    HW3 2074   4.390   2.400   1.163  0.0334 -1.0745  0.3720
  500SOL    MW4 2075   4.468   2.413   1.201 -0.0486 -0.3998  0.3139
  501SOL     OW 2076   0.015   2.703   1.129 -0.1880  0.1055 -0.4686
  501SOL    HW2 2077  -0.066   2.736   1.168 -0.7367 -0.4459 -1.1258
  501SOL    HW3 2078   0.020   2.612   1.159 -1.1653 -0.6563 -2.4908
  501SOL    MW4 2079   0.005   2.695   1.139 -0.3891 -0.0675 -0.8222
  502SOL     OW 2080   0.199   2.890   1.201  0.4531  0.3188  0.3493
  502SOL    HW2 2081   0.198   2.879   1.296  2.5816 -0.4833  0.2896
  502SOL    HW3 2082   0.134   2.827   1.169 -0.8928  1.1843  1.3016
  502SOL    MW4 2083   0.190   2.880   1.209  0.5563  0.3271  0.4671
  503SOL     OW 2084   0.218   3.146   1.107  0.5152 -0.1263 -0.0340
  503SOL    HW2 2085   0.295   3.180   1.153  1.0031 -1.7847  0.4377
  503SOL    HW3 2086   0.205   3.059   1.144 -0.2600 -0.7351 -1.6806
  503SOL    MW4 2087   0.227   3.139   1.118  0.4773 -0.4251 -0.1889
  504SOL     OW 2088   4.486   3.232   1.236  0.2706  0.2576  0.0112
  504SOL    HW2 2089   4.411   3.180   1.206 -0.0402  2.0719 -2.4919
  504SOL    HW3 2090   4.562   3.191   1.196  0.3772 -0.2660  0.7525
  504SOL    MW4 2091   4.486   3.220   1.227  0.2437  0.4282 -0.2214
  505SOL     OW 2092   4.482   3.481   1.052 -0.1970 -0.1623  0.3957
  505SOL    HW2 2093   4.478   3.389   1.080 -1.5701 -0.4734 -0.7794
  505SOL    HW3 2094   4.416   3.488   0.983  1.5291  1.1555 -1.1555
  505SOL    MW4 2095   4.473   3.470   1.047 -0.1505 -0.0293  0.0361
  506SOL     OW 2096   0.231   3.640   1.176 -0.1241 -0.5300 -0.1917
  506SOL    HW2 2097   0.225   3.638   1.272 -1.2769  1.4884 -0.1777
  506SOL    HW3 2098   0.145   3.607   1.147 -1.3205  2.6317 -0.4328
  506SOL    MW4 2099   0.219   3.635   1.185 -0.4341  0.1535 -0.2216
  507SOL     OW 2100   0.282   3.900   1.101  0.0686 -0.1552  0.2043
  507SOL    HW2 2101   0.200   3.941   1.127  0.3942  0.7495 -0.1850
  507SOL    HW3 2102   0.269   3.807   1.119 -0.9162  0.0297  0.4656
  507SOL    MW4 2103   0.269   3.893   1.107 -0.0184 -0.0114  0.1875
  508SOL     OW 2104   0.029   3.968   1.244  0.1047 -0.2139  0.0933
  508SOL    HW2 2105   0.023   3.978   1.339  1.2689 -0.5575  0.2105
  508SOL    HW3 2106  -0.040   3.906   1.222  0.3885 -0.7946  0.8214
  508SOL    MW4 2107   0.019   3.961   1.254  0.2958 -0.3357  0.2047
  509SOL     OW 2108   0.004   4.234   1.170  0.1023  0.2495 -0.2037
  509SOL    HW2 2109   0.080   4.283   1.201  0.7313 -0.0550 -1.2555
  509SOL    HW3 2110   0.017   4.145   1.203 -0.1590  0.3711  0.2256
  509SOL    MW4 2111   0.016   4.229   1.178  0.1512  0.2260 -0.2859
  510SOL     OW 2112   0.221   4.384   1.288  0.3097  0.5370  0.1764
  510SOL    HW2 2113   0.233   4.379   1.383  1.1805 -0.2222  0.0404
  510SOL    HW3 2114   0.235   4.477   1.267  0.2429  0.6842  0.7792
  510SOL    MW4 2115   0.225   4.396   1.298  0.4158  0.4559  0.2379
  511SOL     OW 2116   0.708   4.654   1.093 -0.0637  0.0479  0.2157
  511SOL    HW2 2117   0.772   4.701   1.145 -0.3159 -0.5499  1.0770
  511SOL    HW3 2118   0.686   4.577   1.145 -0.4862 -0.4417 -0.6713
  511SOL    MW4 2119   0.713   4.650   1.106 -0.1528 -0.0954  0.2123
  512SOL     OW 2120   0.492   0.117   1.277 -0.0509  0.0071  0.1249
  512SOL    HW2 2121   0.472   0.207   1.250  0.6655  0.0325 -0.3442
  512SOL    HW3 2122   0.576   0.098   1.235  0.5568 -0.3422  1.4798
  512SOL    MW4 2123   0.500   0.127   1.268  0.1237 -0.0356  0.2418
  513SOL     OW 2124   0.480   0.362   1.161  0.1363  0.3016 -0.8737
  513SOL    HW2 2125   0.395   0.394   1.192  0.6312  0.7500  0.0447
  513SOL    HW3 2126   0.474   0.366   1.066  0.0673  2.8429 -0.7933
  513SOL    MW4 2127   0.468   0.367   1.153  0.1924  0.6961 -0.7418
  514SOL     OW 2128   0.680   0.524   1.234  0.7104 -0.1579  0.4271
  514SOL    HW2 2129   0.683   0.606   1.185  2.2185 -0.7015 -0.4459
  514SOL    HW3 2130   0.598   0.482   1.207  0.0591  0.9389  0.6870
  514SOL    MW4 2131   0.670   0.529   1.224  0.8234 -0.0849  0.3462
  515SOL     OW 2132   0.664   0.776   1.108 -0.3328 -0.0835 -0.5312
  515SOL    HW2 2133   0.589   0.822   1.145 -1.4560 -1.7724 -0.6662
  515SOL    HW3 2134   0.664   0.799   1.015  0.2736  1.1662 -0.2387
  515SOL    MW4 2135   0.654   0.785   1.100 -0.4010 -0.1416 -0.5105
  516SOL     OW 2136   0.462   0.892   1.253 -0.2180 -0.4686 -0.1011
  516SOL    HW2 2137   0.474   0.884   1.348 -0.0054  0.4350 -0.0462
  516SOL    HW3 2138   0.433   0.983   1.240 -1.5149 -0.9601 -0.7794
  516SOL    MW4 2139   0.459   0.903   1.264 -0.3611 -0.4143 -0.1833
  517SOL     OW 2140   0.426   1.174   1.150  0.1585  0.0174  0.2877
  517SOL    HW2 2141   0.509   1.212   1.177  0.0218  0.1052  0.5894
  517SOL    HW3 2142   0.432   1.166   1.054  0.5704 -0.1215  0.3278
  517SOL    MW4 2143   0.438   1.178   1.141  0.1948  0.0107  0.3327
  518SOL     OW 2144   0.678   1.293   1.226 -0.1242  0.0248 -0.1745
  518SOL    HW2 2145   0.745   1.240   1.183  0.1776  0.2010  0.0745
  518SOL    HW3 2146   0.675   1.374   1.174 -0.0253  0.0839 -0.0895
  518SOL    MW4 2147   0.687   1.297   1.213 -0.0713  0.0558 -0.1304
  519SOL     OW 2148   0.686   1.537   1.071  0.2222 -0.3106  0.0740
  519SOL    HW2 2149   0.753   1.584   1.120  0.1766 -0.5169  0.3358
  519SOL    HW3 2150   0.603   1.564   1.110 -0.0733  2.1604 -2.1011
  519SOL    MW4 2151   0.684   1.547   1.083  0.1772 -0.0118 -0.1783
  520SOL     OW 2152   0.465   1.661   1.171 -0.2272  0.9059  0.1037
  520SOL    HW2 2153   0.468   1.658   1.266 -0.0540  0.2344  0.0827
  520SOL    HW3 2154   0.378   1.628   1.148  0.8031 -1.8701 -0.0568
  520SOL    MW4 2155   0.454   1.656   1.180 -0.0684  0.4508  0.0798
  521SOL     OW 2156   0.454   1.901   1.058  0.3132  0.0214 -0.1787
  521SOL    HW2 2157   0.456   1.818   1.106  0.8530 -0.1164 -0.4455
  521SOL    HW3 2158   0.389   1.954   1.106  0.3624 -0.3558  0.3123
  521SOL    MW4 2159   0.445   1.897   1.071  0.3909 -0.0464 -0.1493
  522SOL     OW 2160   0.666   2.072   1.164  0.2093  0.0903  0.6220
  522SOL    HW2 2161   0.664   2.054   1.258  0.0572 -1.9915  0.2560
  522SOL    HW3 2162   0.588   2.028   1.129 -0.3972  1.8636 -0.3190
  522SOL    MW4 2163   0.655   2.064   1.171  0.1092  0.0496  0.4494
  523SOL     OW 2164   0.638   2.350   1.106  0.4358  0.4410  0.1203
  523SOL    HW2 2165   0.559   2.386   1.144  0.4068  1.0063 -0.4772
  523SOL    HW3 2166   0.645   2.262   1.145 -0.4384  0.4121  0.2218
  523SOL    MW4 2167   0.629   2.343   1.116  0.3166  0.5116  0.0548
  524SOL     OW 2168   0.407   2.463   1.208  0.2625  0.1997 -0.0727
  524SOL    HW2 2169   0.421   2.460   1.303  0.9468 -0.2379 -0.1825
  524SOL    HW3 2170   0.408   2.556   1.186  1.7206  0.2453  0.1239
  524SOL    MW4 2171   0.409   2.475   1.218  0.5452  0.1481 -0.0614
  525SOL     OW 2172   0.448   2.739   1.131 -0.0206 -0.0764 -0.4896
  525SOL    HW2 2173   0.380   2.798   1.164  1.2648  1.0023  0.3265
  525SOL    HW3 2174   0.432   2.733   1.037 -2.0253 -0.8900 -0.1206
  525SOL    MW4 2175   0.437   2.746   1.123 -0.1155 -0.0415 -0.3332
  526SOL     OW 2176   0.696   2.849   1.200 -0.0361  0.1024 -0.7296
  526SOL    HW2 2177   0.683   2.941   1.177  0.0622 -0.0293 -1.3439
  526SOL    HW3 2178   0.627   2.803   1.153  1.0443 -0.3228 -1.9342
  526SOL    MW4 2179   0.685   2.855   1.191  0.1194  0.0291 -0.9695
  527SOL     OW 2180   0.673   3.119   1.175 -1.0637 -0.4434 -0.2820
  527SOL    HW2 2181   0.752   3.150   1.220 -1.4688  0.3299 -0.0896
  527SOL    HW3 2182   0.692   3.132   1.083 -1.3338  0.6582 -0.1910
  527SOL    MW4 2183   0.686   3.125   1.169 -1.1528 -0.1960 -0.2445
  528SOL     OW 2184   0.432   3.249   1.222 -0.6139 -0.4016  0.2347
  528SOL    HW2 2185   0.462   3.340   1.222 -0.1298 -0.5595 -1.0951
  528SOL    HW3 2186   0.509   3.198   1.199 -1.2189 -1.0405 -0.4158
  528SOL    MW4 2187   0.446   3.254   1.219 -0.6298 -0.5069 -0.0267
  529SOL     OW 2188   0.472   3.498   1.218 -0.3594 -0.6650 -0.5543
  529SOL    HW2 2189   0.543   3.556   1.246 -0.5835 -0.6734  0.0438
  529SOL    HW3 2190   0.395   3.555   1.216 -0.2564 -0.5531 -1.6377
  529SOL    MW4 2191   0.471   3.513   1.222 -0.3754 -0.6516 -0.6183
  530SOL     OW 2192   0.715   3.640   1.236  0.4722 -0.7945  0.3521
  530SOL    HW2 2193   0.716   3.659   1.330  1.4448 -0.0155  0.1927
  530SOL    HW3 2194   0.727   3.725   1.195 -0.3409 -1.0845 -0.4973
  530SOL    MW4 2195   0.716   3.654   1.243  0.4932 -0.7298  0.2190
  531SOL     OW 2196   0.694   3.873   1.099 -0.4612 -0.3068  0.3407
  531SOL    HW2 2197   0.617   3.915   1.139 -1.3534 -1.2516 -0.3614
  531SOL    HW3 2198   0.662   3.840   1.015  0.3412 -2.0090  0.6875
  531SOL    MW4 2199   0.679   3.874   1.093 -0.4730 -0.6559  0.2939
  532SOL     OW 2200   0.489   3.996   1.268  0.0141  0.3194 -0.2070
  532SOL    HW2 2201   0.510   4.087   1.248  0.0730  0.1681 -0.8195
  532SOL    HW3 2202   0.413   3.976   1.214 -0.2558  0.1280  0.2375
  532SOL    MW4 2203   0.482   4.006   1.259 -0.0137  0.2742 -0.2291
  533SOL     OW 2204   0.458   4.262   1.185  0.1366  0.3229  0.0685
  533SOL    HW2 2205   0.516   4.337   1.193  1.0000 -0.3619  0.3700
  533SOL    HW3 2206   0.375   4.291   1.222  0.0620  1.5532 -1.0315
  533SOL    MW4 2207   0.455   4.275   1.191  0.2407  0.3948 -0.0371
  534SOL     OW 2208   0.670   4.433   1.248 -0.1853 -0.3453 -0.3823
  534SOL    HW2 2209   0.686   4.446   1.342 -0.1603 -1.2920 -0.2451
  534SOL    HW3 2210   0.741   4.376   1.220 -0.8633 -1.0430 -0.7146
  534SOL    MW4 2211   0.681   4.427   1.257 -0.2714 -0.5622 -0.4079
  535SOL     OW 2212   1.139   0.003   1.145 -0.1371  0.9813  0.5245
  535SOL    HW2 2213   1.123  -0.088   1.168  1.9294  0.8056  1.3695
  535SOL    HW3 2214   1.133   0.006   1.050  1.4010 -0.4039  0.3636
  535SOL    MW4 2215   1.136  -0.008   1.136  0.3383  0.7753  0.6146
  536SOL     OW 2216   0.908   0.143   1.236 -0.0707  0.1957  0.0024
  536SOL    HW2 2217   0.918   0.156   1.330  0.1995 -0.3820  0.0577
  536SOL    HW3 2218   0.984   0.090   1.211 -0.8286 -0.7667 -0.3077
  536SOL    MW4 2219   0.919   0.137   1.245 -0.1350 -0.0075 -0.0311
  537SOL     OW 2220   0.856   0.368   1.091  0.0925  0.3304  0.1307
  537SOL    HW2 2221   0.876   0.292   1.144  1.4227  1.9008  1.9714
  537SOL    HW3 2222   0.793   0.418   1.143 -0.0542  0.9454 -0.6258
  537SOL    MW4 2223   0.851   0.365   1.105  0.2487  0.6187  0.2737
  538SOL     OW 2224   1.079   0.533   1.240 -0.2497  0.1856 -0.3393
  538SOL    HW2 2225   1.083   0.556   1.333 -1.4044 -1.0761  0.0318
  538SOL    HW3 2226   0.999   0.482   1.231  0.5979 -0.9206 -1.7565
  538SOL    MW4 2227   1.069   0.530   1.251 -0.2903 -0.1269 -0.4773
  539SOL     OW 2228   1.109   0.766   1.068 -0.4267 -0.2635  0.3680
  539SOL    HW2 2229   1.044   0.826   1.103 -2.3201 -1.3983 -1.0687
  539SOL    HW3 2230   1.093   0.684   1.115  0.1270 -0.4868  0.1696
  539SOL    MW4 2231   1.098   0.763   1.079 -0.6034 -0.4427  0.1523
  540SOL     OW 2232   0.889   0.889   1.218 -0.2572  0.1639  0.0706
  540SOL    HW2 2233   0.885   0.977   1.181 -0.2899  1.1525  2.3267
  540SOL    HW3 2234   0.817   0.842   1.176 -1.6932  1.9039  0.5373
  540SOL    MW4 2235   0.879   0.894   1.207 -0.4510  0.5239  0.4297
  541SOL     OW 2236   0.865   1.139   1.098  0.2162  0.2071  0.4199
  541SOL    HW2 2237   0.946   1.179   1.130  0.3755  0.4789 -0.3156
  541SOL    HW3 2238   0.868   1.152   1.003 -0.5177 -0.1006  0.3550
  541SOL    MW4 2239   0.876   1.146   1.090  0.1404  0.2024  0.3144
  542SOL     OW 2240   1.089   1.259   1.196 -0.0845 -0.1666  0.3718
  542SOL    HW2 2241   1.089   1.259   1.292  0.4495 -0.2254  0.3733
  542SOL    HW3 2242   1.180   1.243   1.172 -0.2497 -0.3331 -0.1490
  542SOL    MW4 2243   1.101   1.257   1.206 -0.0356 -0.1963  0.3031
  543SOL     OW 2244   1.093   1.525   1.128  0.5011 -0.5740 -0.2067
  543SOL    HW2 2245   1.099   1.434   1.157 -1.4119 -0.8535 -0.6618
  543SOL    HW3 2246   1.105   1.521   1.033  1.2023 -0.2432 -0.1424
  543SOL    MW4 2247   1.096   1.513   1.119  0.3412 -0.5672 -0.2583
  544SOL     OW 2248   0.882   1.681   1.198 -0.2033 -0.0051  0.2361
  544SOL    HW2 2249   0.889   1.766   1.155 -1.2848 -0.3680 -0.6858
  544SOL    HW3 2250   0.949   1.627   1.156 -0.6065 -0.0691 -0.3452
  544SOL    MW4 2251   0.891   1.685   1.187 -0.3992 -0.0614  0.0377
  545SOL     OW 2252   0.889   1.924   1.082 -0.2780 -0.5155  0.1972
  545SOL    HW2 2253   0.960   1.981   1.108 -0.1576 -0.8352  0.5740
  545SOL    HW3 2254   0.809   1.973   1.102 -0.1660 -0.1568 -0.2299
  545SOL    MW4 2255   0.888   1.938   1.088 -0.2474 -0.5105  0.1904
  546SOL     OW 2256   1.117   2.059   1.150 -0.2345  0.1541 -0.0242
  546SOL    HW2 2257   1.133   2.062   1.245 -0.3123  1.0928 -0.0439
  546SOL    HW3 2258   1.104   2.150   1.125 -0.1377 -0.0908 -0.9577
  546SOL    MW4 2259   1.117   2.071   1.159 -0.2320  0.2456 -0.1498
  547SOL     OW 2260   1.071   2.320   1.073  0.3210 -0.5095 -0.7404
  547SOL    HW2 2261   1.151   2.373   1.074  0.9309 -1.4242 -0.8411
  547SOL    HW3 2262   1.005   2.376   1.113  0.8339  0.5355 -1.3258
  547SOL    MW4 2263   1.073   2.335   1.078  0.4691 -0.4923 -0.8310
  548SOL     OW 2264   0.868   2.465   1.205  0.2993  0.5271  0.2855
  548SOL    HW2 2265   0.870   2.447   1.299 -0.3928  0.4614  0.2866
  548SOL    HW3 2266   0.785   2.429   1.175 -0.5951  2.7244  0.0821
  548SOL    MW4 2267   0.858   2.458   1.214  0.0900  0.8085  0.2588
  549SOL     OW 2268   0.914   2.727   1.090 -0.2261 -0.3396  0.1122
  549SOL    HW2 2269   0.912   2.639   1.126 -1.5916 -0.5260 -0.3937
  549SOL    HW3 2270   0.843   2.773   1.135  0.3016  0.4166  0.1767
  549SOL    MW4 2271   0.904   2.722   1.101 -0.3366 -0.2644  0.0539
  550SOL     OW 2272   1.132   2.864   1.193 -0.2958 -0.2241  0.2074
  550SOL    HW2 2273   1.120   2.874   1.287  1.0450  0.1509  0.3488
  550SOL    HW3 2274   1.060   2.808   1.165 -1.1056  0.2402  1.3430
  550SOL    MW4 2275   1.121   2.858   1.202 -0.2258 -0.1132  0.3759
  551SOL     OW 2276   1.104   3.131   1.121 -0.1297 -0.0284 -0.8297
  551SOL    HW2 2277   1.124   3.040   1.145  1.5793  0.9545  1.7443
  551SOL    HW3 2278   1.107   3.132   1.026  0.0162 -2.6348 -0.9010
  551SOL    MW4 2279   1.107   3.119   1.112  0.1152 -0.2425 -0.4995
  552SOL     OW 2280   0.908   3.191   1.295  0.3077  0.0977 -0.2986
  552SOL    HW2 2281   0.905   3.287   1.293 -1.7853  0.0500 -0.3755
  552SOL    HW3 2282   0.978   3.168   1.235 -0.3161  1.5347 -1.6197
  552SOL    MW4 2283   0.917   3.201   1.287 -0.0508  0.2809 -0.4830
  553SOL     OW 2284   0.942   3.461   1.240  0.1802 -0.0575  0.2813
  553SOL    HW2 2285   0.864   3.517   1.240  0.5183  0.4093 -0.4798
  553SOL    HW3 2286   0.957   3.440   1.148  0.0860 -1.3708  0.5460
  553SOL    MW4 2287   0.934   3.466   1.228  0.2124 -0.1693  0.2160
  554SOL     OW 2288   1.169   3.628   1.238  0.1646  0.0754 -0.1234
  554SOL    HW2 2289   1.233   3.562   1.211 -0.8583 -0.9906  0.0198
  554SOL    HW3 2290   1.089   3.578   1.254 -0.3196  1.2108  1.0479
  554SOL    MW4 2291   1.167   3.613   1.236 -0.0342  0.0844  0.0501
  555SOL     OW 2292   1.121   3.859   1.102 -0.5229 -0.1669 -0.2043
  555SOL    HW2 2293   1.052   3.897   1.156 -0.6137 -1.1532  0.3760
  555SOL    HW3 2294   1.142   3.775   1.144 -0.0542 -0.5825 -1.2455
  555SOL    MW4 2295   1.115   3.853   1.114 -0.4729 -0.3517 -0.2651
  556SOL     OW 2296   0.909   4.003   1.210  0.3584  0.2636  0.2350
  556SOL    HW2 2297   0.901   4.005   1.305  0.0743 -1.9221  0.3018
  556SOL    HW3 2298   0.836   3.948   1.181  1.3263 -0.3743 -1.0902
  556SOL    MW4 2299   0.898   3.996   1.219  0.4486 -0.1094  0.0689
  557SOL     OW 2300   0.869   4.267   1.156  0.1559  0.1111  0.2511
  557SOL    HW2 2301   0.885   4.175   1.179 -0.4140 -0.1901 -0.5396
  557SOL    HW3 2302   0.848   4.265   1.062  0.3313  1.0724  0.1863
  557SOL    MW4 2303   0.868   4.254   1.146  0.1038  0.1984  0.1382
  558SOL     OW 2304   1.081   4.414   1.225 -0.2783  0.2875 -0.1277
  558SOL    HW2 2305   1.099   4.422   1.318  0.8824 -0.7674 -0.2488
  558SOL    HW3 2306   1.006   4.354   1.219 -0.2531  0.2332  0.1188
  558SOL    MW4 2307   1.074   4.407   1.236 -0.1218  0.1407 -0.1112
  559SOL     OW 2308   1.544   4.662   1.144 -0.0493 -0.5084 -0.3117
  559SOL    HW2 2309   1.626   4.700   1.176 -0.2591 -0.1947 -0.1379
  559SOL    HW3 2310   1.549   4.569   1.165  0.0842 -0.4131  0.0672
  559SOL    MW4 2311   1.555   4.655   1.151 -0.0594 -0.4544 -0.2388
  560SOL     OW 2312   1.334   0.177   1.244  0.3372  0.0813 -0.0100
  560SOL    HW2 2313   1.418   0.146   1.210  0.6898 -0.1857  1.1012
  560SOL    HW3 2314   1.271   0.112   1.213  0.8786 -1.0212  1.1469
  560SOL    MW4 2315   1.337   0.164   1.235  0.4551 -0.0994  0.2892
  561SOL     OW 2316   1.295   0.417   1.127  0.1008  0.1835  0.0706
  561SOL    HW2 2317   1.306   0.336   1.178  1.5726  1.4397  1.8358
  561SOL    HW3 2318   1.232   0.468   1.178 -0.2461  0.4566 -0.6377
  561SOL    MW4 2319   1.288   0.413   1.141  0.2493  0.3853  0.2100
  562SOL     OW 2320   1.531   0.524   1.235 -0.0711 -0.0624  0.1309
  562SOL    HW2 2321   1.548   0.613   1.203 -0.6103  0.9833  2.5589
  562SOL    HW3 2322   1.445   0.502   1.200  0.3625  0.1120 -1.0465
  562SOL    MW4 2323   1.522   0.533   1.226 -0.0850  0.0985  0.2958
  563SOL     OW 2324   1.536   0.761   1.091  0.1025 -0.2579 -0.2484
  563SOL    HW2 2325   1.604   0.819   1.126  0.9513 -0.4543 -1.5365
  563SOL    HW3 2326   1.546   0.767   0.996 -2.2284  0.3402 -0.4856
  563SOL    MW4 2327   1.546   0.769   1.083 -0.0932 -0.2050 -0.4498
  564SOL     OW 2328   1.316   0.911   1.186  0.2686  0.1193 -0.7212
  564SOL    HW2 2329   1.389   0.851   1.169  1.1191  0.8799  0.1565
  564SOL    HW3 2330   1.248   0.884   1.124  1.0331 -1.0512 -1.0761
  564SOL    MW4 2331   1.317   0.900   1.175  0.4816  0.0652 -0.6522
  565SOL     OW 2332   1.332   1.190   1.108  0.1081  0.0276 -0.5529
  565SOL    HW2 2333   1.338   1.096   1.125  0.4749 -0.0160 -0.9283
  565SOL    HW3 2334   1.340   1.198   1.013 -0.6541  0.3792 -0.5971
  565SOL    MW4 2335   1.334   1.179   1.098  0.0559  0.0683 -0.6082
  566SOL     OW 2336   1.555   1.275   1.243  0.0817  0.0628 -0.0073
  566SOL    HW2 2337   1.623   1.244   1.184  0.1443  1.6916 -0.8356
  566SOL    HW3 2338   1.479   1.220   1.224  0.3789 -0.0313 -0.9605
  566SOL    MW4 2339   1.554   1.264   1.233  0.1292  0.2651 -0.2424
  567SOL     OW 2340   1.542   1.519   1.082 -0.3496  0.1817  0.1803
  567SOL    HW2 2341   1.612   1.569   1.124 -0.8853  1.2962 -0.2301
  567SOL    HW3 2342   1.537   1.437   1.132 -0.1232  0.9501  1.4697
  567SOL    MW4 2343   1.551   1.515   1.094 -0.3905  0.4300  0.2962
  568SOL     OW 2344   1.336   1.648   1.227 -0.1309 -0.4363  0.3995
  568SOL    HW2 2345   1.405   1.598   1.184  0.5291  0.5151  0.3170
  568SOL    HW3 2346   1.255   1.601   1.207  0.0842  0.2266 -2.3360
  568SOL    MW4 2347   1.334   1.635   1.218 -0.0155 -0.2233  0.0278
  569SOL     OW 2348   1.371   1.920   1.147  0.3491 -0.4636 -0.2038
  569SOL    HW2 2349   1.350   1.832   1.177 -1.0739 -0.7704 -2.0063
  569SOL    HW3 2350   1.293   1.971   1.166  1.0923  0.3758  0.6406
  569SOL    MW4 2351   1.358   1.915   1.154  0.2594 -0.3934 -0.3303
  570SOL     OW 2352   1.583   2.070   1.248 -0.0239 -0.4344 -0.1591
  570SOL    HW2 2353   1.565   2.160   1.220 -0.7070  0.2445  2.3921
  570SOL    HW3 2354   1.512   2.018   1.211  1.3775 -0.2635 -3.2273
  570SOL    MW4 2355   1.572   2.075   1.239  0.0709 -0.3223 -0.2273
  571SOL     OW 2356   1.592   2.333   1.150 -0.1457 -0.4633  0.4484
  571SOL    HW2 2357   1.502   2.367   1.150  0.0827  0.1539  0.3564
  571SOL    HW3 2358   1.607   2.307   1.059  0.4304  1.2442  0.0345
  571SOL    MW4 2359   1.582   2.334   1.138 -0.0396 -0.1566  0.3816
  572SOL     OW 2360   1.320   2.457   1.180 -0.0817  0.5143 -0.3019
  572SOL    HW2 2361   1.308   2.458   1.275 -1.5182 -1.0541 -0.4468
  572SOL    HW3 2362   1.323   2.550   1.156  1.7606  0.9349  1.4303
  572SOL    MW4 2363   1.319   2.469   1.190 -0.0281  0.3629 -0.0924
  573SOL     OW 2364   1.335   2.744   1.062  0.0851  0.2831  0.1941
  573SOL    HW2 2365   1.419   2.765   1.104  0.2710  1.9078 -0.9496
  573SOL    HW3 2366   1.269   2.782   1.121  0.3257  2.1073 -0.6653
  573SOL    MW4 2367   1.337   2.752   1.076  0.1414  0.7379 -0.0701
  574SOL     OW 2368   1.583   2.799   1.204  0.1257 -0.1206 -0.1445
  574SOL    HW2 2369   1.661   2.759   1.165 -0.7506 -1.2005 -0.8256
  574SOL    HW3 2370   1.592   2.892   1.184  2.2839  0.0945  1.6116
  574SOL    MW4 2371   1.595   2.806   1.196  0.2950 -0.2346 -0.0026
  575SOL     OW 2372   1.561   3.063   1.117  0.1879 -0.3693 -0.0410
  575SOL    HW2 2373   1.630   3.125   1.141 -1.0872  1.6745 -1.4589
  575SOL    HW3 2374   1.489   3.083   1.177 -0.6302  0.2949 -1.2251
  575SOL    MW4 2375   1.561   3.074   1.128 -0.0883 -0.0119 -0.3844
  576SOL     OW 2376   1.346   3.205   1.244 -0.0448  0.3595 -0.2909
  576SOL    HW2 2377   1.327   3.219   1.337  0.7841  0.1871 -0.0895
  576SOL    HW3 2378   1.260   3.195   1.203 -0.3570 -0.8962  0.6654
  576SOL    MW4 2379   1.332   3.206   1.251  0.0235  0.1712 -0.1382
  577SOL     OW 2380   1.390   3.470   1.153  0.3188  0.3045 -0.1154
  577SOL    HW2 2381   1.376   3.380   1.183  0.4395  0.7966  1.4475
  577SOL    HW3 2382   1.401   3.462   1.058  0.9091 -1.3975  0.0816
  577SOL    MW4 2383   1.389   3.457   1.144  0.4127  0.1447  0.1167
  578SOL     OW 2384   1.582   3.618   1.238 -0.2311 -0.2535 -0.0983
  578SOL    HW2 2385   1.573   3.712   1.221  1.9699  0.0541  0.3707
  578SOL    HW3 2386   1.498   3.582   1.210 -0.4684  1.6103 -1.9920
  578SOL    MW4 2387   1.570   3.626   1.232  0.0280  0.0327 -0.2862
  579SOL     OW 2388   1.551   3.890   1.172  0.0297 -0.1623  0.8684
  579SOL    HW2 2389   1.465   3.921   1.201 -0.4586 -1.5850  0.9548
  579SOL    HW3 2390   1.551   3.905   1.078  0.1126  0.8401  1.0185
  579SOL    MW4 2391   1.540   3.896   1.163 -0.0238 -0.2179  0.8996
  580SOL     OW 2392   1.320   4.015   1.223 -0.0519  0.3531 -0.2145
  580SOL    HW2 2393   1.305   4.107   1.199 -0.2523  0.7488  1.4063
  580SOL    HW3 2394   1.256   3.966   1.170 -0.4380  1.1997 -0.5493
  580SOL    MW4 2395   1.309   4.021   1.213 -0.1291  0.5169 -0.0448
  581SOL     OW 2396   1.295   4.279   1.139  0.3543  0.5257  0.0871
  581SOL    HW2 2397   1.223   4.330   1.176  0.3823  1.6682 -1.4134
  581SOL    HW3 2398   1.285   4.286   1.044  1.1029 -1.2173 -0.1567
  581SOL    MW4 2399   1.285   4.286   1.131  0.4568  0.4468 -0.1429
  582SOL     OW 2400   1.544   4.382   1.220  0.1033  0.2410  0.1765
  582SOL    HW2 2401   1.547   4.371   1.315  0.6847 -0.5233  0.0674
  582SOL    HW3 2402   1.461   4.343   1.194  0.2413 -0.1209  0.2880
  582SOL    MW4 2403   1.533   4.376   1.229  0.1982  0.0925  0.1768
  583SOL     OW 2404   2.006   4.662   1.153  0.3058  0.3614 -0.1172
  583SOL    HW2 2405   2.017   4.567   1.159 -0.4608  0.3255  0.9498
  583SOL    HW3 2406   2.005   4.680   1.059 -1.0455 -0.8801 -0.3808
  583SOL    MW4 2407   2.007   4.652   1.142  0.0262  0.1931 -0.0113
  584SOL     OW 2408   1.781   0.124   1.245 -0.1248 -0.1813  0.0469
  584SOL    HW2 2409   1.790   0.209   1.203 -0.1766 -0.1603  0.0780
  584SOL    HW3 2410   1.862   0.077   1.223 -0.0247 -0.0635  0.1681
  584SOL    MW4 2411   1.793   0.129   1.237 -0.1184 -0.1630  0.0669
  585SOL     OW 2412   1.785   0.411   1.148  0.0128 -0.4059 -0.4864
  585SOL    HW2 2413   1.705   0.453   1.180  1.3432  1.1321  0.8837
  585SOL    HW3 2414   1.776   0.412   1.053 -1.0004  0.9785 -0.3911
  585SOL    MW4 2415   1.773   0.417   1.140  0.0547 -0.0203 -0.2931
  586SOL     OW 2416   1.992   0.569   1.210 -0.2572 -0.0124 -0.6365
  586SOL    HW2 2417   2.002   0.568   1.306  1.2830  0.0433 -0.7819
  586SOL    HW3 2418   1.925   0.503   1.193  0.3599 -0.9311  0.3935
  586SOL    MW4 2419   1.985   0.560   1.221  0.0274 -0.1262 -0.5199
  587SOL     OW 2420   1.973   0.810   1.095 -0.0551 -0.0382 -0.1366
  587SOL    HW2 2421   1.980   0.723   1.135  0.3707  0.2978  0.5357
  587SOL    HW3 2422   1.987   0.794   1.002 -1.7116 -0.9126 -0.2453
  587SOL    MW4 2423   1.976   0.796   1.088 -0.2174 -0.1092 -0.0622
  588SOL     OW 2424   1.742   0.908   1.183  0.0888  0.2583 -0.1664
  588SOL    HW2 2425   1.750   0.910   1.279 -1.0375 -0.9500 -0.0271
  588SOL    HW3 2426   1.820   0.859   1.154 -1.7137 -3.1656  0.4811
  588SOL    MW4 2427   1.753   0.902   1.192 -0.2977 -0.3529 -0.0627
  589SOL     OW 2428   1.776   1.181   1.115 -0.0492  0.1577  0.1631
  589SOL    HW2 2429   1.782   1.089   1.142 -1.4958  0.6612  2.3693
  589SOL    HW3 2430   1.763   1.177   1.020 -1.0999 -1.9619  0.3549
  589SOL    MW4 2431   1.775   1.168   1.106 -0.3787 -0.0554  0.4797
  590SOL     OW 2432   2.030   1.297   1.195 -0.3188 -0.3117 -0.2251
  590SOL    HW2 2433   2.100   1.278   1.133 -0.2540 -0.9363  0.0327
  590SOL    HW3 2434   1.960   1.237   1.171 -0.1611 -0.8063  0.5197
  590SOL    MW4 2435   2.030   1.286   1.184 -0.2892 -0.4596 -0.0927
  591SOL     OW 2436   2.008   1.557   1.117 -0.1457 -0.2327  0.4319
  591SOL    HW2 2437   2.012   1.469   1.153  0.3034 -0.1224  0.6513
  591SOL    HW3 2438   2.034   1.546   1.025 -2.3958 -0.6849 -0.1675
  591SOL    MW4 2439   2.012   1.544   1.110 -0.3834 -0.2780  0.3817
  592SOL     OW 2440   1.759   1.638   1.184  0.7144 -0.6446 -0.0765
  592SOL    HW2 2441   1.769   1.727   1.149  1.2219 -0.4076  0.6552
  592SOL    HW3 2442   1.843   1.596   1.168  1.3568 -0.1649  1.8543
  592SOL    MW4 2443   1.772   1.645   1.177  0.8662 -0.5500  0.2748
  593SOL     OW 2444   1.799   1.923   1.126  0.2290  0.3347 -0.3681
  593SOL    HW2 2445   1.724   1.971   1.160  0.4167  0.1326  0.3287
  593SOL    HW3 2446   1.797   1.940   1.032 -1.0031 -0.1114 -0.4347
  593SOL    MW4 2447   1.789   1.931   1.118  0.0913  0.2491 -0.2850
  594SOL     OW 2448   2.025   2.064   1.198  0.2741  0.1168 -0.3351
  594SOL    HW2 2449   2.037   2.067   1.293 -0.5714  1.6821 -0.2619
  594SOL    HW3 2450   1.949   2.007   1.186  0.5482 -0.3004 -0.0771
  594SOL    MW4 2451   2.016   2.057   1.209  0.1988  0.2680 -0.2913
  595SOL     OW 2452   1.992   2.318   1.115  0.1685 -0.0113  0.0511
  595SOL    HW2 2453   2.064   2.354   1.166  1.1878 -0.5037 -1.0338
  595SOL    HW3 2454   1.996   2.224   1.130 -0.0098 -0.0779 -0.3085
  595SOL    MW4 2455   2.002   2.311   1.123  0.2794 -0.0854 -0.1396
  596SOL     OW 2456   1.809   2.504   1.210 -0.0481 -0.1906 -0.3013
  596SOL    HW2 2457   1.878   2.447   1.175  0.1091  0.9520 -1.8919
  596SOL    HW3 2458   1.728   2.455   1.197  0.1407 -0.2692 -1.2179
  596SOL    MW4 2459   1.808   2.490   1.204 -0.0024 -0.0503 -0.6320
  597SOL     OW 2460   1.823   2.719   1.043  0.3606 -0.2293 -0.3225
  597SOL    HW2 2461   1.820   2.643   1.101 -1.4786 -0.1087 -0.2325
  597SOL    HW3 2462   1.766   2.696   0.970 -2.3901  2.0596  0.9896
  597SOL    MW4 2463   1.815   2.706   1.041 -0.2451  0.0887 -0.1374
  598SOL     OW 2464   2.036   2.830   1.158  0.1513 -0.2164 -0.1634
  598SOL    HW2 2465   2.034   2.926   1.150 -1.6687 -0.1133  1.2498
  598SOL    HW3 2466   1.964   2.799   1.103 -0.8590 -0.5975  1.3429
  598SOL    MW4 2467   2.026   2.839   1.150 -0.2222 -0.2530  0.2218
  599SOL     OW 2468   1.999   3.096   1.032  0.0217  0.1333  0.1415
  599SOL    HW2 2469   1.939   3.143   1.089  0.5760  0.7967  0.1807
  599SOL    HW3 2470   1.957   3.097   0.946  0.7001  1.9489 -0.1765
  599SOL    MW4 2471   1.985   3.102   1.028  0.1843  0.4606  0.1047
  600SOL     OW 2472   1.796   3.219   1.201 -0.2507 -0.2383 -0.1090
  600SOL    HW2 2473   1.778   3.227   1.294  0.1933 -0.3502 -0.0112
  600SOL    HW3 2474   1.813   3.308   1.171  1.0753 -0.3638  0.2268
  600SOL    MW4 2475   1.796   3.231   1.209 -0.0170 -0.2699 -0.0517
  601SOL     OW 2476   1.802   3.487   1.113 -0.0344  0.2526  0.3184
  601SOL    HW2 2477   1.877   3.532   1.151 -0.1188 -1.1384  2.2437
  601SOL    HW3 2478   1.726   3.529   1.154 -0.2482  0.5187 -0.3413
  601SOL    MW4 2479   1.802   3.498   1.124 -0.0738  0.1040  0.4853
  602SOL     OW 2480   1.997   3.632   1.230  0.0839  0.1731 -0.0586
  602SOL    HW2 2481   1.996   3.630   1.326 -0.1786 -1.2164 -0.0807
  602SOL    HW3 2482   2.084   3.599   1.206  1.5665  4.0385 -0.2547
  602SOL    MW4 2483   2.008   3.627   1.239  0.2449  0.4997 -0.0874
  603SOL     OW 2484   2.028   3.899   1.115  0.1101  0.0149  0.0631
  603SOL    HW2 2485   1.958   3.949   1.157  1.3596  0.2976  1.8942
  603SOL    HW3 2486   2.020   3.811   1.151  1.1314  0.2344  0.8446
  603SOL    MW4 2487   2.018   3.894   1.125  0.4098  0.0811  0.4078
  604SOL     OW 2488   1.817   4.021   1.251 -0.1194  0.0593 -0.1186
  604SOL    HW2 2489   1.825   4.015   1.346  1.7785 -1.1006 -0.3220
  604SOL    HW3 2490   1.732   3.981   1.232 -0.2536 -0.2329  1.0366
  604SOL    MW4 2491   1.807   4.015   1.261  0.1132 -0.1321  0.0070
  605SOL     OW 2492   1.775   4.268   1.119 -0.1572 -0.5095 -0.2643
  605SOL    HW2 2493   1.769   4.185   1.167 -1.2205  0.4882  1.3915
  605SOL    HW3 2494   1.708   4.324   1.159  0.8964  1.3281 -0.9824
  605SOL    MW4 2495   1.766   4.265   1.131 -0.1584 -0.1359 -0.1407
  606SOL     OW 2496   2.031   4.384   1.183 -0.0435  0.4864 -0.1285
  606SOL    HW2 2497   2.025   4.369   1.278  1.9899 -1.3268 -0.2442
  606SOL    HW3 2498   1.951   4.344   1.148  0.3216 -0.9144  0.6068
  606SOL    MW4 2499   2.019   4.377   1.191  0.2730  0.0620 -0.0468
  607SOL     OW 2500   2.459   0.010   1.097 -0.2758  0.6374  0.4498
  607SOL    HW2 2501   2.536   0.061   1.121  0.0730 -0.1859  1.1050
  607SOL    HW3 2502   2.386   0.057   1.137  0.1314  0.1718  1.7708
  607SOL    MW4 2503   2.459   0.023   1.106 -0.1762  0.4673  0.7104
  608SOL     OW 2504   2.249   0.119   1.242 -0.1506  0.1165  0.1168
  608SOL    HW2 2505   2.238   0.212   1.219  0.6522 -0.1214 -1.3082
  608SOL    HW3 2506   2.168   0.077   1.214  0.1268  0.1257 -0.7147
  608SOL    MW4 2507   2.237   0.126   1.235 -0.0079  0.0863 -0.1808
  609SOL     OW 2508   2.210   0.379   1.169  0.1302 -0.4424  0.2387
  609SOL    HW2 2509   2.133   0.426   1.199  0.8002  0.3440  0.7255
  609SOL    HW3 2510   2.218   0.403   1.076 -0.6239 -1.1035 -0.0083
  609SOL    MW4 2511   2.201   0.388   1.160  0.1194 -0.4258  0.2704
  610SOL     OW 2512   2.434   0.513   1.220 -0.8540  0.1305  0.1937
  610SOL    HW2 2513   2.453   0.501   1.313 -0.4638  0.8903  0.2167
  610SOL    HW3 2514   2.355   0.461   1.205  0.6417 -2.2658  0.3040
  610SOL    MW4 2515   2.426   0.505   1.231 -0.6051 -0.0855  0.2114
  611SOL     OW 2516   2.417   0.774   1.076 -0.0963  0.0610 -0.1437
  611SOL    HW2 2517   2.427   0.692   1.125 -0.7147  0.1222  0.0889
  611SOL    HW3 2518   2.447   0.753   0.988  0.6740 -0.1527  0.1636
  611SOL    MW4 2519   2.422   0.761   1.071 -0.0765  0.0409 -0.0725
  612SOL     OW 2520   2.196   0.944   1.186  0.3367 -0.1195  0.2383
  612SOL    HW2 2521   2.262   0.888   1.147  0.1614  0.3132 -0.6961
  612SOL    HW3 2522   2.113   0.914   1.148  0.0172 -0.4910  1.2040
  612SOL    MW4 2523   2.194   0.933   1.176  0.2713 -0.1115  0.2425
  613SOL     OW 2524   2.227   1.193   1.029  0.4278 -0.1709 -0.1524
  613SOL    HW2 2525   2.300   1.231   1.079  0.9182  0.1994 -1.1303
  613SOL    HW3 2526   2.214   1.107   1.067  0.7633  0.1260  0.6505
  613SOL    MW4 2527   2.235   1.187   1.041  0.5367 -0.0829 -0.1755
  614SOL     OW 2528   2.396   1.294   1.236  0.1333 -0.2473 -0.0133
  614SOL    HW2 2529   2.484   1.267   1.208 -0.8733 -1.2714 -2.3159
  614SOL    HW3 2530   2.392   1.387   1.215  1.2841  0.2659  1.8422
  614SOL    MW4 2531   2.407   1.303   1.230  0.1523 -0.3147 -0.0722
  615SOL     OW 2532   2.449   1.534   1.063  0.2634 -0.2620 -0.0770
  615SOL    HW2 2533   2.369   1.585   1.073 -0.0747 -0.9078  0.5698
  615SOL    HW3 2534   2.461   1.527   0.969 -0.5061 -0.2596 -0.1790
  615SOL    MW4 2535   2.440   1.540   1.052  0.1173 -0.3468 -0.0051
  616SOL     OW 2536   2.249   1.675   1.210 -0.5481  0.1973  0.1535
  616SOL    HW2 2537   2.256   1.765   1.180  0.9365  0.2594  0.6418
  616SOL    HW3 2538   2.156   1.653   1.200 -0.9708  1.8652  0.3093
  616SOL    MW4 2539   2.237   1.684   1.205 -0.4079  0.4256  0.2384
  617SOL     OW 2540   2.250   1.926   1.099  0.1094 -0.2472  0.0613
  617SOL    HW2 2541   2.178   1.986   1.115 -1.0523 -1.5868  0.0143
  617SOL    HW3 2542   2.255   1.920   1.003  1.1321  0.8402  0.0475
  617SOL    MW4 2543   2.241   1.933   1.088  0.0911 -0.2804  0.0533
  618SOL     OW 2544   2.491   1.989   1.232 -0.2810  0.1287  0.1468
  618SOL    HW2 2545   2.563   1.951   1.182  0.7398  0.2286  1.5175
  618SOL    HW3 2546   2.412   1.960   1.186  0.5813 -1.1572 -0.5541
  618SOL    MW4 2547   2.490   1.980   1.220 -0.0327 -0.0278  0.2352
  619SOL     OW 2548   2.463   2.268   1.184  0.2733 -0.1419  0.2419
  619SOL    HW2 2549   2.488   2.177   1.200  0.5397 -0.2242 -0.5969
  619SOL    HW3 2550   2.469   2.278   1.089  2.6287  1.4047  0.5001
  619SOL    MW4 2551   2.467   2.257   1.173  0.6192  0.0515  0.1655
  620SOL     OW 2552   2.216   2.391   1.265  0.4369  0.2615 -0.5370
  620SOL    HW2 2553   2.198   2.402   1.358  1.4115  1.6899 -0.4908
  620SOL    HW3 2554   2.292   2.333   1.261 -0.0921 -0.4352 -0.4753
  620SOL    MW4 2555   2.224   2.385   1.277  0.4957  0.3579 -0.5227
  621SOL     OW 2556   2.274   2.660   1.177 -0.0541  0.8548  0.5446
  621SOL    HW2 2557   2.275   2.577   1.225 -1.5927 -0.2551 -1.2771
  621SOL    HW3 2558   2.191   2.701   1.201 -0.3967  0.7323 -0.4017
  621SOL    MW4 2559   2.263   2.654   1.187 -0.3023  0.6921  0.1794
  622SOL     OW 2560   2.464   2.839   1.228 -0.4474  0.1521 -0.1279
  622SOL    HW2 2561   2.458   2.845   1.324  0.2870  0.4970 -0.1052
  622SOL    HW3 2562   2.398   2.773   1.205 -0.4306 -0.1435  0.6398
  622SOL    MW4 2563   2.454   2.831   1.238 -0.3481  0.1585 -0.0236
  623SOL     OW 2564   2.439   3.108   1.141 -0.2737  0.0675  0.2446
  623SOL    HW2 2565   2.350   3.131   1.165 -0.9218 -1.2001 -0.8846
  623SOL    HW3 2566   2.447   3.015   1.164 -0.0391 -0.4531 -1.8408
  623SOL    MW4 2567   2.428   3.098   1.147 -0.3281 -0.1686 -0.1796
  624SOL     OW 2568   2.180   3.214   1.205 -0.0081 -0.2023  0.7113
  624SOL    HW2 2569   2.191   3.298   1.161  1.2327 -0.1011  1.1685
  624SOL    HW3 2570   2.116   3.166   1.153 -0.0189  0.6739 -0.0775
  624SOL    MW4 2571   2.173   3.218   1.192  0.1543 -0.0732  0.6676
  625SOL     OW 2572   2.232   3.499   1.129  0.1667  0.2267  0.2152
  625SOL    HW2 2573   2.315   3.534   1.162  0.3412 -0.0653  0.0867
  625SOL    HW3 2574   2.247   3.486   1.036  0.1832 -0.4181  0.3053
  625SOL    MW4 2575   2.245   3.502   1.121  0.1919  0.1032  0.2102
  626SOL     OW 2576   2.443   3.662   1.209  0.6457 -0.0081  0.0274
  626SOL    HW2 2577   2.453   3.640   1.302 -3.1655 -0.1726  0.4850
  626SOL    HW3 2578   2.440   3.757   1.207  1.3838  0.0215 -0.0498
  626SOL    MW4 2579   2.444   3.672   1.221  0.2406 -0.0260  0.0775
  627SOL     OW 2580   2.471   3.933   1.116  0.1854  0.3372  0.1997
  627SOL    HW2 2581   2.390   3.972   1.148  0.2550  1.6747 -1.2221
  627SOL    HW3 2582   2.456   3.919   1.023  0.5031 -2.2328  0.4957
  627SOL    MW4 2583   2.458   3.936   1.108  0.2365  0.1748  0.0511
  628SOL     OW 2584   2.257   4.054   1.206  0.1670  0.7263  0.3039
  628SOL    HW2 2585   2.257   4.141   1.166 -0.6859  0.4421 -0.3252
  628SOL    HW3 2586   2.182   4.010   1.167  0.9600 -0.5076  0.1447
  628SOL    MW4 2587   2.247   4.060   1.195  0.1588  0.5260  0.1999
  629SOL     OW 2588   2.277   4.301   1.083  0.0566 -0.2839  0.3153
  629SOL    HW2 2589   2.200   4.341   1.124  0.8386  1.0234  0.5559
  629SOL    HW3 2590   2.247   4.273   0.997 -0.4944  0.9297  0.1041
  629SOL    MW4 2591   2.263   4.303   1.077  0.0870  0.0482  0.3191
  630SOL     OW 2592   2.499   4.407   1.193 -0.4432 -0.4315 -0.6474
  630SOL    HW2 2593   2.421   4.357   1.169 -1.0878  0.6852 -0.9315
  630SOL    HW3 2594   2.479   4.497   1.167  0.5321  0.0547  0.2166
  630SOL    MW4 2595   2.486   4.412   1.187 -0.3994 -0.2203 -0.5708
  631SOL     OW 2596   2.954   0.045   1.130 -0.1016  0.5330 -0.2785
  631SOL    HW2 2597   2.929  -0.047   1.133 -2.1700  1.0905 -0.0510
  631SOL    HW3 2598   2.987   0.059   1.041  1.2367 -0.6570  0.0082
  631SOL    MW4 2599   2.955   0.035   1.119 -0.1981  0.4496 -0.2106
  632SOL     OW 2600   2.686   0.113   1.207 -0.2758 -0.1468 -0.0861
  632SOL    HW2 2601   2.687   0.105   1.303 -0.4018  2.0812  0.1198
  632SOL    HW3 2602   2.772   0.079   1.180  0.6395  1.2193  1.0083
  632SOL    MW4 2603   2.698   0.107   1.216 -0.1719  0.3274  0.0855
  633SOL     OW 2604   2.682   0.382   1.128 -0.6219 -0.0682 -0.1317
  633SOL    HW2 2605   2.686   0.300   1.177 -0.7948 -0.3078 -0.5216
  633SOL    HW3 2606   2.597   0.420   1.152 -0.9055 -0.4011 -0.5835
  633SOL    MW4 2607   2.671   0.376   1.138 -0.6824 -0.1437 -0.2426
  634SOL     OW 2608   2.931   0.475   1.205  0.7535 -0.1781 -0.1932
  634SOL    HW2 2609   2.930   0.569   1.187  1.4821 -0.0600  0.3898
  634SOL    HW3 2610   2.842   0.446   1.184  0.3108  0.7783  0.3421
  634SOL    MW4 2611   2.919   0.483   1.199  0.7913 -0.0363 -0.0457
  635SOL     OW 2612   2.871   0.752   1.144  0.1209  0.7053 -0.5203
  635SOL    HW2 2613   2.956   0.784   1.174 -0.3631 -0.3382  2.1558
  635SOL    HW3 2614   2.807   0.801   1.197 -0.7723 -1.4790  0.4946
  635SOL    MW4 2615   2.874   0.763   1.155 -0.0608  0.2794 -0.0333
  636SOL     OW 2616   2.639   0.903   1.229 -0.5491  0.7391  0.1090
  636SOL    HW2 2617   2.623   0.994   1.205 -1.2677  0.6817  0.3527
  636SOL    HW3 2618   2.563   0.856   1.194 -0.9543  0.4643  1.3354
  636SOL    MW4 2619   2.627   0.909   1.221 -0.6971  0.6953  0.3029
  637SOL     OW 2620   2.625   1.180   1.128 -0.2174  0.4133 -0.4152
  637SOL    HW2 2621   2.712   1.194   1.166 -0.7939  0.2983  0.9858
  637SOL    HW3 2622   2.640   1.178   1.033  1.1501  1.4596 -0.2351
  637SOL    MW4 2623   2.639   1.181   1.120 -0.1130  0.5362 -0.2065
  638SOL     OW 2624   2.881   1.211   1.202 -0.6233  0.7693 -0.0818
  638SOL    HW2 2625   2.882   1.207   1.298  2.9379 -1.8037 -0.1104
  638SOL    HW3 2626   2.905   1.302   1.182 -2.1527  1.5322  1.4368
  638SOL    MW4 2627   2.884   1.223   1.212 -0.3550  0.5304  0.1147
  639SOL     OW 2628   2.920   1.478   1.155 -0.3461 -0.2788 -0.0906
  639SOL    HW2 2629   2.999   1.520   1.191 -0.4168  1.4130 -1.8330
  639SOL    HW3 2630   2.930   1.485   1.060 -1.8685 -1.4403 -0.3564
  639SOL    MW4 2631   2.932   1.485   1.147 -0.5562 -0.2087 -0.3557
  640SOL     OW 2632   2.682   1.624   1.232 -0.5928  0.2391  0.0733
  640SOL    HW2 2633   2.746   1.559   1.201 -2.1935 -1.5012  0.3048
  640SOL    HW3 2634   2.606   1.611   1.175 -1.4080  1.0325  0.9672
  640SOL    MW4 2635   2.680   1.614   1.220 -0.9115  0.1141  0.2218
  641SOL     OW 2636   2.696   1.874   1.106 -0.1689  0.4019  0.0295
  641SOL    HW2 2637   2.756   1.932   1.154  0.7069 -0.8276  0.4401
  641SOL    HW3 2638   2.703   1.790   1.151 -0.2816 -0.4372 -1.5008
  641SOL    MW4 2639   2.705   1.871   1.118 -0.0684  0.1290 -0.1181
  642SOL     OW 2640   2.895   2.056   1.229 -0.1512 -0.0469  0.4695
  642SOL    HW2 2641   2.910   2.056   1.323 -1.2358  0.0027  0.6531
  642SOL    HW3 2642   2.892   2.148   1.204 -0.1934 -0.0561  0.4398
  642SOL    MW4 2643   2.897   2.068   1.238 -0.2999 -0.0417  0.4896
  643SOL     OW 2644   2.886   2.325   1.134  0.2647  0.2030 -0.5971
  643SOL    HW2 2645   2.970   2.353   1.171  1.1121 -0.3239 -2.1008
  643SOL    HW3 2646   2.821   2.372   1.186  1.4099 -0.6270  1.6642
  643SOL    MW4 2647   2.888   2.335   1.146  0.5279  0.0238 -0.4971
  644SOL     OW 2648   2.668   2.437   1.257  0.4890  0.5111  0.0153
  644SOL    HW2 2649   2.673   2.436   1.353 -1.4450 -0.1037  0.1320
  644SOL    HW3 2650   2.603   2.370   1.236  0.8729  0.6698 -1.7430
  644SOL    MW4 2651   2.660   2.428   1.267  0.2842  0.4508 -0.2015
  645SOL     OW 2652   2.657   2.683   1.128 -0.3639  0.2409  0.2323
  645SOL    HW2 2653   2.664   2.599   1.174 -0.2968  1.0028  1.6469
  645SOL    HW3 2654   2.596   2.734   1.181 -1.6346  0.5370 -1.4775
  645SOL    MW4 2655   2.650   2.679   1.141 -0.5229  0.3805  0.1934
  646SOL     OW 2656   2.877   2.831   1.188  0.4117  0.3377  0.1738
  646SOL    HW2 2657   2.878   2.828   1.284 -1.8097  0.2300  0.2228
  646SOL    HW3 2658   2.802   2.776   1.164  1.8410 -0.8441 -1.6961
  646SOL    MW4 2659   2.867   2.823   1.198  0.3071  0.1678 -0.0665
  647SOL     OW 2660   2.836   3.106   1.181 -0.0754  0.3699 -0.0484
  647SOL    HW2 2661   2.850   3.011   1.189 -1.9668  0.1392  0.8155
  647SOL    HW3 2662   2.867   3.127   1.093  0.7377 -0.9715 -0.1109
  647SOL    MW4 2663   2.842   3.096   1.171 -0.2177  0.1626  0.0573
  648SOL     OW 2664   2.639   3.261   1.256 -0.4555 -0.5437  0.3129
  648SOL    HW2 2665   2.716   3.209   1.232 -0.0227  0.7862 -1.3642
  648SOL    HW3 2666   2.564   3.208   1.227  0.0119  0.2379 -2.5406
  648SOL    MW4 2667   2.639   3.247   1.249 -0.3369 -0.2651 -0.2848
  649SOL     OW 2668   2.664   3.502   1.109  0.3794  0.1634 -0.3664
  649SOL    HW2 2669   2.643   3.418   1.150  2.0590 -1.0921 -1.9750
  649SOL    HW3 2670   2.587   3.556   1.123 -0.5202 -1.4647  1.1777
  649SOL    MW4 2671   2.651   3.498   1.117  0.4823 -0.2170 -0.3750
  650SOL     OW 2672   2.925   3.607   1.242 -0.2474 -0.1715 -0.2026
  650SOL    HW2 2673   2.995   3.552   1.208 -0.3103  0.6515 -1.7285
  650SOL    HW3 2674   2.844   3.568   1.207 -0.2740  0.9888 -1.5051
  650SOL    MW4 2675   2.923   3.595   1.233 -0.2592  0.0901 -0.5758
  651SOL     OW 2676   2.885   3.889   1.132 -0.9849 -0.2048  0.3226
  651SOL    HW2 2677   2.968   3.912   1.173 -0.8517  0.8018 -0.4897
  651SOL    HW3 2678   2.855   3.812   1.180  0.6630 -0.8862  0.2684
  651SOL    MW4 2679   2.892   3.882   1.144 -0.7498 -0.1621  0.2084
  652SOL     OW 2680   2.702   4.073   1.196  0.2328  0.2216 -0.0723
  652SOL    HW2 2681   2.768   4.014   1.159 -0.2572  0.2774 -1.0509
  652SOL    HW3 2682   2.619   4.031   1.175 -0.0558  0.2727  0.9532
  652SOL    MW4 2683   2.700   4.059   1.189  0.1299  0.2356 -0.0660
  653SOL     OW 2684   2.721   4.317   1.084 -0.0707 -0.2245  0.1546
  653SOL    HW2 2685   2.728   4.233   1.130  0.5361 -1.0702 -1.4818
  653SOL    HW3 2686   2.649   4.362   1.130  1.1922 -0.6073  2.6131
  653SOL    MW4 2687   2.712   4.312   1.096  0.1762 -0.3862  0.2631
  654SOL     OW 2688   2.963   4.432   1.171 -0.2094 -0.1204 -0.6200
  654SOL    HW2 2689   3.041   4.380   1.152 -0.3922 -0.4778 -0.4101
  654SOL    HW3 2690   2.891   4.382   1.132 -0.3085  0.3140 -0.9954
  654SOL    MW4 2691   2.964   4.418   1.164 -0.2468 -0.1106 -0.6419
  655SOL     OW 2692   3.401   4.603   1.131  0.0326 -0.0413  0.0306
  655SOL    HW2 2693   3.477   4.648   1.167  0.3597 -0.5177 -0.0525
  655SOL    HW3 2694   3.325   4.651   1.166  0.3794  0.8386 -0.4127
  655SOL    MW4 2695   3.401   4.615   1.140  0.1216  0.0119 -0.0387
  656SOL     OW 2696   3.205   0.094   1.228 -0.1147 -0.3968 -0.2421
  656SOL    HW2 2697   3.205   0.085   1.323  2.5940 -1.1337 -0.2736
  656SOL    HW3 2698   3.114   0.078   1.203 -0.8412 -0.3553  2.1995
  656SOL    MW4 2699   3.193   0.091   1.237  0.1469 -0.4885  0.0759
  657SOL     OW 2700   3.204   0.390   1.221 -0.2050 -0.4766 -0.8298
  657SOL    HW2 2701   3.213   0.294   1.223 -0.3900 -0.5129 -1.5156
  657SOL    HW3 2702   3.111   0.405   1.236  0.4118 -0.2286  3.1791
  657SOL    MW4 2703   3.193   0.379   1.223 -0.1481 -0.4487 -0.3912
  658SOL     OW 2704   3.429   0.511   1.304 -0.1647  0.0727  0.1121
  658SOL    HW2 2705   3.423   0.594   1.256 -1.9085 -0.5787 -0.8598
  658SOL    HW3 2706   3.350   0.463   1.278  0.5717 -1.6883  1.0484
  658SOL    MW4 2707   3.418   0.516   1.294 -0.2975 -0.2456  0.1074
  659SOL     OW 2708   3.376   0.728   1.111  0.1683  0.2048  0.0537
  659SOL    HW2 2709   3.289   0.762   1.134  0.5458  0.7581  0.6851
  659SOL    HW3 2710   3.384   0.744   1.017  0.7678  2.9164  0.5229
  659SOL    MW4 2711   3.366   0.735   1.102  0.2975  0.6356  0.1987
  660SOL     OW 2712   3.131   0.832   1.197  0.0202 -0.4182 -0.3581
  660SOL    HW2 2713   3.121   0.830   1.292 -1.1766 -0.3095 -0.4794
  660SOL    HW3 2714   3.123   0.924   1.174 -0.5605 -0.5373 -0.6485
  660SOL    MW4 2715   3.129   0.844   1.207 -0.2141 -0.4196 -0.4125
  661SOL     OW 2716   3.098   1.092   1.089  0.0730 -0.1573 -0.0103
  661SOL    HW2 2717   3.166   1.152   1.119 -0.3537  1.1250 -1.5978
  661SOL    HW3 2718   3.017   1.126   1.128  0.0441 -0.5844  0.3134
  661SOL    MW4 2719   3.096   1.104   1.098  0.0129 -0.0445 -0.1770
  662SOL     OW 2720   3.322   1.254   1.195  0.2123 -0.2420 -0.3119
  662SOL    HW2 2721   3.324   1.259   1.290  2.0434 -1.4167 -0.2563
  662SOL    HW3 2722   3.309   1.344   1.166  1.6977  0.4220  1.0162
  662SOL    MW4 2723   3.321   1.266   1.203  0.6499 -0.3095 -0.1295
  663SOL     OW 2724   3.325   1.527   1.092  0.0504  0.2852  0.4189
  663SOL    HW2 2725   3.404   1.556   1.138  0.1413  0.6370  0.0525
  663SOL    HW3 2726   3.253   1.570   1.138  0.1143  0.3666  0.4443
  663SOL    MW4 2727   3.326   1.537   1.104  0.0710  0.3424  0.3738
  664SOL     OW 2728   3.137   1.647   1.248 -0.3716  0.5692 -0.3630
  664SOL    HW2 2729   3.116   1.659   1.340 -0.7119 -0.8135 -0.2543
  664SOL    HW3 2730   3.125   1.734   1.209  0.2665  1.2742  0.9765
  664SOL    MW4 2731   3.133   1.660   1.255 -0.3321  0.4798 -0.1720
  665SOL     OW 2732   3.124   1.921   1.125  0.2763  0.3046  0.5422
  665SOL    HW2 2733   3.204   1.963   1.156  0.2828  0.0828  0.8299
  665SOL    HW3 2734   3.053   1.975   1.161  0.2604 -0.6404  1.9594
  665SOL    MW4 2735   3.125   1.934   1.134  0.2749  0.1506  0.7672
  666SOL     OW 2736   3.364   2.043   1.223 -0.3215  0.0388 -0.2843
  666SOL    HW2 2737   3.438   2.006   1.175 -0.3364 -0.8018  0.3375
  666SOL    HW3 2738   3.350   2.129   1.183  0.3499 -0.2143 -1.0698
  666SOL    MW4 2739   3.372   2.050   1.211 -0.2348 -0.1056 -0.3058
  667SOL     OW 2740   3.329   2.307   1.115  0.1436  0.1837  0.0799
  667SOL    HW2 2741   3.397   2.349   1.168  0.1858 -0.0036  0.1752
  667SOL    HW3 2742   3.248   2.348   1.143  0.3389  1.2486 -0.8606
  667SOL    MW4 2743   3.328   2.318   1.126  0.1748  0.2997 -0.0317
  668SOL     OW 2744   3.111   2.431   1.237 -0.2449 -0.4719  1.0520
  668SOL    HW2 2745   3.100   2.441   1.332 -0.6873 -0.4152  0.9983
  668SOL    HW3 2746   3.119   2.520   1.204  1.8996 -0.5780  1.2568
  668SOL    MW4 2747   3.110   2.444   1.245 -0.0203 -0.4785  1.0718
  669SOL     OW 2748   3.106   2.697   1.145  0.0209  0.0273 -0.2975
  669SOL    HW2 2749   3.024   2.726   1.186  1.4355  0.8571  2.0991
  669SOL    HW3 2750   3.094   2.712   1.052 -3.3999 -2.0131 -0.2622
  669SOL    MW4 2751   3.094   2.703   1.138 -0.2439 -0.1326  0.0234
  670SOL     OW 2752   3.349   2.788   1.251 -0.4748  0.1461  0.0576
  670SOL    HW2 2753   3.353   2.879   1.219  1.5958  0.2986  0.6574
  670SOL    HW3 2754   3.266   2.754   1.218 -1.4433  2.3714  0.1122
  670SOL    MW4 2755   3.339   2.796   1.243 -0.3293  0.4601  0.1441
  671SOL     OW 2756   3.329   3.067   1.159 -0.1930  0.3009 -0.3040
  671SOL    HW2 2757   3.412   3.103   1.188 -0.3210  0.3661 -0.0107
  671SOL    HW3 2758   3.263   3.128   1.193 -0.4522 -0.5195  0.7229
  671SOL    MW4 2759   3.331   3.080   1.168 -0.2441  0.2015 -0.1296
  672SOL     OW 2760   3.103   3.196   1.267  0.5790  0.4986  0.4212
  672SOL    HW2 2761   3.109   3.282   1.225  1.8412 -0.7657 -2.1419
  672SOL    HW3 2762   3.015   3.166   1.248  0.1696  1.1515  1.2321
  672SOL    MW4 2763   3.092   3.204   1.259  0.6914  0.4182  0.1900
  673SOL     OW 2764   3.125   3.449   1.144  0.3221  0.4044  0.4037
  673SOL    HW2 2765   3.202   3.493   1.179  0.8544 -0.2571  0.0550
  673SOL    HW3 2766   3.129   3.464   1.050  0.4614 -0.3192  0.2930
  673SOL    MW4 2767   3.135   3.457   1.136  0.4110  0.2217  0.3431
  674SOL     OW 2768   3.345   3.576   1.230 -0.4578  0.1687  0.4175
  674SOL    HW2 2769   3.350   3.589   1.325  0.8103  0.1956  0.3520
  674SOL    HW3 2770   3.422   3.524   1.209  0.1171  1.4853 -0.8117
  674SOL    MW4 2771   3.356   3.571   1.240 -0.2148  0.3457  0.2466
  675SOL     OW 2772   3.345   3.838   1.116 -0.4338  0.3110  0.5248
  675SOL    HW2 2773   3.263   3.874   1.151 -0.4052 -0.2883  1.2053
  675SOL    HW3 2774   3.352   3.751   1.155  0.6852  0.4746  0.7066
  675SOL    MW4 2775   3.335   3.831   1.125 -0.2823  0.2532  0.6386
  676SOL     OW 2776   3.128   3.986   1.217  0.0253 -0.0684 -0.4066
  676SOL    HW2 2777   3.119   3.988   1.312 -2.0450 -0.4605 -0.5882
  676SOL    HW3 2778   3.131   4.078   1.191  0.4515  0.0364  0.0133
  676SOL    MW4 2779   3.127   3.999   1.226 -0.1915 -0.1066 -0.3752
  677SOL     OW 2780   3.165   4.260   1.124  0.3921  0.0801  0.0016
  677SOL    HW2 2781   3.238   4.292   1.176  0.3534 -0.0787  0.1539
  677SOL    HW3 2782   3.186   4.284   1.034  0.0425  1.1297  0.2002
  677SOL    MW4 2783   3.177   4.267   1.119  0.3407  0.1979  0.0478
  678SOL     OW 2784   3.374   4.376   1.259  0.1385 -0.3024  0.7148
  678SOL    HW2 2785   3.448   4.326   1.224 -0.3779 -0.2448 -0.4467
  678SOL    HW3 2786   3.380   4.461   1.216 -2.2142 -1.2001 -1.5176
  678SOL    MW4 2787   3.385   4.381   1.249 -0.2401 -0.4134  0.2671
  679SOL     OW 2788   3.876   4.629   1.117 -0.2941 -0.0676 -0.5197
  679SOL    HW2 2789   3.848   4.548   1.160 -0.3444  0.8546  1.2551
  679SOL    HW3 2790   3.859   4.615   1.024 -1.3071 -1.6807 -0.1059
  679SOL    MW4 2791   3.870   4.617   1.111 -0.4344 -0.1588 -0.2309
  680SOL     OW 2792   3.628   0.064   1.235 -0.0328 -0.5381  0.2496
  680SOL    HW2 2793   3.623   0.154   1.205 -0.3045 -0.7710 -0.3993
  680SOL    HW3 2794   3.700   0.025   1.185 -1.2743 -1.2690 -1.0293
  680SOL    MW4 2795   3.637   0.070   1.225 -0.2327 -0.6652 -0.0048
  681SOL     OW 2796   3.624   0.345   1.150 -0.1596  0.0461 -0.3887
  681SOL    HW2 2797   3.716   0.370   1.161  0.1215 -1.8222  2.0171
  681SOL    HW3 2798   3.575   0.415   1.193  0.2903 -0.2867  0.6807
  681SOL    MW4 2799   3.630   0.358   1.157 -0.0632 -0.2443  0.0699
  682SOL     OW 2800   3.862   0.481   1.190  0.3020 -0.0747  0.1938
  682SOL    HW2 2801   3.947   0.449   1.161 -0.5228 -0.9719 -1.2514
  682SOL    HW3 2802   3.858   0.571   1.158 -0.2295 -0.7664 -1.7286
  682SOL    MW4 2803   3.873   0.489   1.182  0.1233 -0.2844 -0.2506
  683SOL     OW 2804   3.822   0.757   1.134 -0.1978  0.1138  0.3889
  683SOL    HW2 2805   3.896   0.812   1.163 -0.3858  1.0718 -0.8914
  683SOL    HW3 2806   3.746   0.796   1.176 -0.6460  2.2911 -2.3050
  683SOL    MW4 2807   3.822   0.770   1.144 -0.2816  0.5274 -0.1354
  684SOL     OW 2808   3.581   0.888   1.208  0.7377  0.1946  0.2997
  684SOL    HW2 2809   3.567   0.975   1.171  1.4766  0.1314 -0.1343
  684SOL    HW3 2810   3.519   0.832   1.161 -0.7454  0.7316  1.5770
  684SOL    MW4 2811   3.571   0.892   1.197  0.6394  0.2570  0.4110
  685SOL     OW 2812   3.569   1.146   1.100 -0.4553  0.3984 -0.1233
  685SOL    HW2 2813   3.641   1.189   1.148  0.6973 -1.3854 -0.2180
  685SOL    HW3 2814   3.490   1.180   1.142  0.4717  1.2068  1.0282
  685SOL    MW4 2815   3.568   1.156   1.112 -0.1810  0.2698  0.0162
  686SOL     OW 2816   3.794   1.269   1.221  0.5673 -0.5294  0.5890
  686SOL    HW2 2817   3.811   1.281   1.314  0.2878  2.1978  0.3063
  686SOL    HW3 2818   3.791   1.357   1.185 -2.5125 -1.4170 -1.4667
  686SOL    MW4 2819   3.796   1.282   1.228  0.1242 -0.2867  0.2805
  687SOL     OW 2820   3.825   1.531   1.121 -0.1348 -0.0373 -0.3506
  687SOL    HW2 2821   3.907   1.577   1.136 -0.0062 -0.2164 -0.5102
  687SOL    HW3 2822   3.809   1.540   1.027  0.8036 -1.8560 -0.6983
  687SOL    MW4 2823   3.833   1.538   1.111  0.0060 -0.3009 -0.4176
  688SOL     OW 2824   3.566   1.628   1.176 -0.0702 -0.1348 -0.1650
  688SOL    HW2 2825   3.570   1.716   1.139  0.7942 -0.0325  0.1540
  688SOL    HW3 2826   3.656   1.596   1.173 -0.1438 -0.4766  0.9783
  688SOL    MW4 2827   3.579   1.635   1.171  0.0339 -0.1663  0.0279
  689SOL     OW 2828   3.579   1.903   1.083  0.0371 -0.4071 -0.0621
  689SOL    HW2 2829   3.652   1.934   1.135 -0.0722 -0.4607  0.1233
  689SOL    HW3 2830   3.617   1.883   0.998 -0.3676  2.8551 -1.0848
  689SOL    MW4 2831   3.593   1.905   1.079 -0.0308  0.0163 -0.1726
  690SOL     OW 2832   3.793   2.048   1.210  0.4360  0.3429  0.2311
  690SOL    HW2 2833   3.800   2.035   1.305 -0.7019 -1.0752  0.1343
  690SOL    HW3 2834   3.881   2.033   1.178  0.3330 -1.5548  0.8019
  690SOL    MW4 2835   3.805   2.045   1.218  0.2725 -0.0944  0.2935
  691SOL     OW 2836   3.783   2.325   1.105 -0.2471  0.2938  0.1437
  691SOL    HW2 2837   3.865   2.364   1.135  0.3521 -1.4510  0.8532
  691SOL    HW3 2838   3.783   2.238   1.145 -2.6451  0.4353  0.4776
  691SOL    MW4 2839   3.794   2.319   1.114 -0.4845  0.0823  0.2813
  692SOL     OW 2840   3.541   2.418   1.229  0.0562 -0.0725 -0.1675
  692SOL    HW2 2841   3.563   2.425   1.322 -0.6354 -1.8059  0.1427
  692SOL    HW3 2842   3.623   2.391   1.187  0.8444  2.5025 -0.3455
  692SOL    MW4 2843   3.555   2.415   1.235  0.0691  0.0386 -0.1501
  693SOL     OW 2844   3.573   2.667   1.152 -0.0984 -0.0285 -0.8881
  693SOL    HW2 2845   3.564   2.575   1.176  1.4966  0.0690  0.1602
  693SOL    HW3 2846   3.509   2.713   1.207  0.3539 -0.3105 -0.1272
  693SOL    MW4 2847   3.563   2.661   1.163  0.1717 -0.0527 -0.6493
  694SOL     OW 2848   3.797   2.788   1.261  0.7529  0.1043 -0.1183
  694SOL    HW2 2849   3.776   2.798   1.353 -2.0591  1.2938 -0.8292
  694SOL    HW3 2850   3.734   2.724   1.229  2.5337 -1.2824 -0.9799
  694SOL    MW4 2851   3.786   2.781   1.269  0.6170  0.0782 -0.3257
  695SOL     OW 2852   3.810   3.040   1.162  0.0581  0.1244 -0.7785
  695SOL    HW2 2853   3.801   2.950   1.191 -0.1813  0.1343 -0.8212
  695SOL    HW3 2854   3.782   3.039   1.070 -0.7158  0.3929 -0.5480
  695SOL    MW4 2855   3.805   3.028   1.154 -0.0753  0.1612 -0.7536
  696SOL     OW 2856   3.584   3.170   1.238  0.3791  0.2898 -0.3228
  696SOL    HW2 2857   3.597   3.257   1.201  0.1860 -0.6662 -2.6873
  696SOL    HW3 2858   3.668   3.127   1.228 -0.0408 -0.4148 -0.7998
  696SOL    MW4 2859   3.597   3.176   1.232  0.2983  0.0706 -0.6977
  697SOL     OW 2860   3.586   3.435   1.146 -0.0153  0.1428  0.1063
  697SOL    HW2 2861   3.653   3.482   1.197  0.5161 -1.1830  0.6458
  697SOL    HW3 2862   3.595   3.471   1.057  1.9763 -0.5659 -0.0173
  697SOL    MW4 2863   3.596   3.446   1.141  0.3176 -0.1259  0.1613
  698SOL     OW 2864   3.811   3.599   1.245  0.0958 -0.2384 -0.2566
  698SOL    HW2 2865   3.814   3.603   1.341 -0.5667 -0.3238 -0.2308
  698SOL    HW3 2866   3.802   3.690   1.217  0.6970 -0.1766 -0.2546
  698SOL    MW4 2867   3.810   3.611   1.254  0.0875 -0.2415 -0.2531
  699SOL     OW 2868   3.814   3.873   1.160  0.8035  0.5123 -0.7276
  699SOL    HW2 2869   3.730   3.909   1.189  0.5789 -0.1866 -0.4815
  699SOL    HW3 2870   3.822   3.901   1.070  0.6412  1.1861 -0.5338
  699SOL    MW4 2871   3.804   3.881   1.152  0.7527  0.5088 -0.6695
  700SOL     OW 2872   3.562   3.998   1.214 -0.0372  0.2017 -0.0523
  700SOL    HW2 2873   3.573   3.995   1.309  1.0224 -0.7314 -0.1930
  700SOL    HW3 2874   3.482   3.947   1.198 -0.3796  0.6065  0.3590
  700SOL    MW4 2875   3.553   3.991   1.225  0.0572  0.1321 -0.0165
  701SOL     OW 2876   3.606   4.244   1.126  0.0495  0.0628 -0.0973
  701SOL    HW2 2877   3.571   4.156   1.133  0.0096  0.2025  1.6643
  701SOL    HW3 2878   3.626   4.255   1.033  3.3031 -3.0440  0.1465
  701SOL    MW4 2879   3.604   4.234   1.115  0.4737 -0.3285  0.1673
  702SOL     OW 2880   3.810   4.407   1.240  0.8083 -0.2723  0.0708
  702SOL    HW2 2881   3.785   4.416   1.332  0.4163  0.7578 -0.1271
  702SOL    HW3 2882   3.741   4.352   1.203  0.6751 -0.2513  0.2827
  702SOL    MW4 2883   3.797   4.401   1.247  0.7391 -0.1335  0.0727
  703SOL     OW 2884   4.307   4.593   1.130 -0.1768 -0.6024  0.2010
  703SOL    HW2 2885   4.306   4.510   1.178  0.4442 -1.2972 -0.9560
  703SOL    HW3 2886   4.237   4.645   1.170 -0.3859 -1.5740  1.1219
  703SOL    MW4 2887   4.298   4.589   1.142 -0.1221 -0.8225  0.1698
  704SOL     OW 2888   4.101   0.100   1.193  0.0755 -0.1608 -0.4672
  704SOL    HW2 2889   4.092   0.096   1.289 -0.7647 -0.9897 -0.5705
  704SOL    HW3 2890   4.026   0.050   1.160  0.7776 -0.4997 -1.5569
  704SOL    MW4 2891   4.090   0.093   1.202  0.0577 -0.3149 -0.6247
  705SOL     OW 2892   4.116   0.355   1.157  0.1740 -0.1450 -0.3510
  705SOL    HW2 2893   4.099   0.262   1.173 -0.3237 -0.2029 -1.2208
  705SOL    HW3 2894   4.118   0.363   1.062 -1.5869  1.0770 -0.2944
  705SOL    MW4 2895   4.114   0.344   1.147 -0.1240  0.0086 -0.4585
  706SOL     OW 2896   4.339   0.497   1.262 -0.2514 -0.1074  0.2169
  706SOL    HW2 2897   4.338   0.532   1.351  1.0693 -1.0767  0.6381
  706SOL    HW3 2898   4.259   0.444   1.256 -0.8385  0.7351  0.4957
  706SOL    MW4 2899   4.328   0.495   1.273 -0.1545 -0.1241  0.3092
  707SOL     OW 2900   4.250   0.732   1.139 -0.4166 -0.4264  0.6025
  707SOL    HW2 2901   4.267   0.639   1.152 -0.1464 -0.4073  0.3916
  707SOL    HW3 2902   4.241   0.742   1.044 -2.1547 -0.5287  0.7375
  707SOL    MW4 2903   4.251   0.721   1.128 -0.6099 -0.4374  0.5925
  708SOL     OW 2904   4.047   0.895   1.224  0.1325  0.4507  0.4783
  708SOL    HW2 2905   4.043   0.880   1.318 -3.0019 -2.4605 -0.0247
  708SOL    HW3 2906   4.129   0.853   1.196  1.4511  1.9743  1.9418
  708SOL    MW4 2907   4.058   0.887   1.233 -0.1068  0.2676  0.6049
  709SOL     OW 2908   4.032   1.175   1.123  0.6967 -0.1496 -0.2193
  709SOL    HW2 2909   4.057   1.094   1.167 -0.0681  0.1058  0.6942
  709SOL    HW3 2910   3.941   1.189   1.149  1.0624  1.4116  0.2510
  709SOL    MW4 2911   4.023   1.166   1.132  0.6437  0.0901 -0.0366
  710SOL     OW 2912   4.224   1.344   1.247  0.2869  0.0048 -0.3576
  710SOL    HW2 2913   4.223   1.314   1.338  0.3360 -1.6210 -0.8897
  710SOL    HW3 2914   4.142   1.313   1.210  0.5888  0.0409 -1.0649
  710SOL    MW4 2915   4.213   1.336   1.254  0.3333 -0.2049 -0.5212
  711SOL     OW 2916   4.307   1.563   1.072 -0.2065  0.2006  0.3828
  711SOL    HW2 2917   4.271   1.506   1.140  0.7401  0.7504  1.3607
  711SOL    HW3 2918   4.381   1.607   1.114  0.9028 -0.0553 -1.2392
  711SOL    MW4 2919   4.312   1.561   1.087  0.0648  0.2394  0.2979
  712SOL     OW 2920   4.050   1.701   1.140  0.2227 -0.4036 -0.2885
  712SOL    HW2 2921   4.048   1.700   1.235  1.1819 -0.6404 -0.2642
  712SOL    HW3 2922   4.135   1.662   1.117 -0.4932 -1.4218 -1.2552
  712SOL    MW4 2923   4.061   1.696   1.149  0.2551 -0.5692 -0.4128
  713SOL     OW 2924   4.036   1.995   1.116 -0.5516  0.6334 -0.8584
  713SOL    HW2 2925   4.037   1.903   1.143 -0.5610  0.5332 -1.1879
  713SOL    HW3 2926   4.043   1.991   1.020  0.8312  1.0196 -0.7874
  713SOL    MW4 2927   4.037   1.982   1.107 -0.3705  0.6711 -0.8924
  714SOL     OW 2928   4.284   2.108   1.194  0.2924 -0.1480  0.3301
  714SOL    HW2 2929   4.282   2.187   1.140 -0.2913  0.9360  1.9070
  714SOL    HW3 2930   4.207   2.058   1.166  1.0756 -0.5208 -1.1848
  714SOL    MW4 2931   4.273   2.112   1.183  0.3185 -0.0541  0.3384
  715SOL     OW 2932   4.255   2.337   1.053 -0.7231  0.1212  0.0433
  715SOL    HW2 2933   4.174   2.376   1.087 -1.2740  0.0058 -1.1009
  715SOL    HW3 2934   4.239   2.329   0.959  1.1653  1.4147 -0.4191
  715SOL    MW4 2935   4.242   2.341   1.045 -0.5474  0.2768 -0.1687
  716SOL     OW 2936   4.030   2.457   1.179  0.3587 -0.0747 -0.1770
  716SOL    HW2 2937   4.029   2.451   1.275  0.0724 -1.2011 -0.2364
  716SOL    HW3 2938   4.035   2.551   1.161  1.5187  0.0963  0.9417
  716SOL    MW4 2939   4.031   2.468   1.190  0.4745 -0.2010 -0.0373
  717SOL     OW 2940   4.030   2.736   1.117  0.1479  0.3802  0.1454
  717SOL    HW2 2941   3.947   2.755   1.161  0.6907 -0.9598  1.8343
  717SOL    HW3 2942   4.007   2.728   1.025 -1.7450 -0.7209  0.6804
  717SOL    MW4 2943   4.016   2.738   1.111 -0.0305  0.0582  0.4387
  718SOL     OW 2944   4.271   2.819   1.222 -0.6878 -0.4116 -0.1068
  718SOL    HW2 2945   4.263   2.906   1.183  2.0480 -0.8025 -1.5988
  718SOL    HW3 2946   4.192   2.773   1.193 -1.8802  1.3476  0.2164
  718SOL    MW4 2947   4.259   2.824   1.213 -0.4845 -0.2310 -0.2609
  719SOL     OW 2948   4.268   3.087   1.138  0.6735  0.0005  0.1864
  719SOL    HW2 2949   4.183   3.108   1.176 -0.1038  0.1773 -1.5737
  719SOL    HW3 2950   4.251   3.077   1.044  2.5463 -0.2168 -0.1684
  719SOL    MW4 2951   4.255   3.089   1.131  0.8178 -0.0048 -0.0927
  720SOL     OW 2952   4.026   3.189   1.245 -0.0743 -0.5015  0.3157
  720SOL    HW2 2953   4.026   3.183   1.341  2.0977 -1.3043  0.2828
  720SOL    HW3 2954   3.948   3.141   1.218 -1.5222  0.9723  1.7262
  720SOL    MW4 2955   4.015   3.182   1.254  0.0210 -0.4129  0.4975
  721SOL     OW 2956   4.040   3.471   1.155  0.2279 -0.1145 -0.1603
  721SOL    HW2 2957   4.017   3.384   1.187  0.4148  0.2818  1.0458
  721SOL    HW3 2958   3.963   3.525   1.173 -0.8643 -0.5495 -3.1097
  721SOL    MW4 2959   4.027   3.466   1.161  0.1082 -0.1194 -0.3903
  722SOL     OW 2960   4.270   3.610   1.252 -0.2194  0.5771  0.5625
  722SOL    HW2 2961   4.191   3.561   1.231  0.3574 -0.4956  0.8864
  722SOL    HW3 2962   4.342   3.558   1.217  0.2932  2.0644 -0.6715
  722SOL    MW4 2963   4.269   3.597   1.245 -0.0763  0.6318  0.4424
  723SOL     OW 2964   4.290   3.851   1.137 -0.5453 -0.5919  0.0174
  723SOL    HW2 2965   4.229   3.907   1.186 -0.5796 -0.9869  0.4278
  723SOL    HW3 2966   4.270   3.762   1.167 -0.0051 -0.7553 -0.1074
  723SOL    MW4 2967   4.279   3.847   1.148 -0.4787 -0.6652  0.0551
  724SOL     OW 2968   4.063   3.984   1.258 -0.3146  0.2473  0.0471
  724SOL    HW2 2969   4.054   4.075   1.229  1.3347 -0.1088 -1.7026
  724SOL    HW3 2970   3.977   3.945   1.244 -0.7836  1.3096 -0.0462
  724SOL    MW4 2971   4.050   3.991   1.252 -0.1583  0.3402 -0.1960
  725SOL     OW 2972   4.025   4.248   1.177  0.0727  0.2599  0.3271
  725SOL    HW2 2973   3.961   4.314   1.203 -0.6032  0.0010 -0.6261
  725SOL    HW3 2974   4.049   4.272   1.087  1.5360  0.5180  0.7735
  725SOL    MW4 2975   4.020   4.260   1.168  0.1764  0.2599  0.2602
  726SOL     OW 2976   4.259   4.358   1.248 -0.2311 -0.2645  0.4212
  726SOL    HW2 2977   4.180   4.312   1.218  0.0243 -1.1135  1.0608
  726SOL    HW3 2978   4.332   4.304   1.217  0.0468 -0.9099  2.1825
  726SOL    MW4 2979   4.258   4.345   1.240 -0.1607 -0.4621  0.7380
  727SOL     OW 2980   0.229   4.627   1.609 -0.0368 -0.2867  0.2877
  727SOL    HW2 2981   0.313   4.662   1.578  0.0172 -0.1553  0.5832
  727SOL    HW3 2982   0.164   4.672   1.555  0.1149 -0.7915 -0.3106
  727SOL    MW4 2983   0.232   4.638   1.598 -0.0097 -0.3362  0.2477
  728SOL     OW 2984   0.030   0.109   1.505 -0.1252 -0.0413  0.7903
  728SOL    HW2 2985  -0.050   0.081   1.549 -0.1817 -1.6697 -0.2977
  728SOL    HW3 2986   0.009   0.102   1.411  0.9838  0.4496  0.4942
  728SOL    MW4 2987   0.016   0.105   1.498  0.0137 -0.1914  0.6076
  729SOL     OW 2988   0.071   0.366   1.593 -0.0230  0.4839  0.3696
  729SOL    HW2 2989   0.047   0.369   1.686 -0.5845  0.5185  0.2251
  729SOL    HW3 2990   0.067   0.274   1.570 -0.1929  0.5083  0.3006
  729SOL    MW4 2991   0.068   0.355   1.602 -0.1195  0.4917  0.3414
  730SOL     OW 2992   0.246   0.572   1.510 -0.1527 -0.6143  0.2210
  730SOL    HW2 2993   0.176   0.508   1.521  0.7266 -1.7746 -0.8441
  730SOL    HW3 2994   0.274   0.563   1.419  0.7400  0.5079  0.3644
  730SOL    MW4 2995   0.241   0.562   1.500  0.0811 -0.6193  0.0993
  731SOL     OW 2996   0.226   0.797   1.662  0.2755 -0.2403  0.2128
  731SOL    HW2 2997   0.298   0.855   1.636  0.1551 -0.6539 -1.0555
  731SOL    HW3 2998   0.234   0.722   1.604 -0.9510 -0.4638  0.3287
  731SOL    MW4 2999   0.237   0.795   1.651  0.0978 -0.3244  0.0608
  732SOL     OW 3000   0.005   0.906   1.489 -0.4400  0.0408 -0.0856
  732SOL    HW2 3001  -0.001   0.997   1.519  0.1050  0.3702 -0.9690
  732SOL    HW3 3002   0.087   0.874   1.526 -0.1568  0.2021 -0.5833
  732SOL    MW4 3003   0.015   0.913   1.498 -0.3309  0.1056 -0.2677
  733SOL     OW 3004   0.004   1.174   1.602  0.6100 -0.0788 -0.4886
  733SOL    HW2 3005   0.004   1.155   1.695  1.6513 -0.4459 -0.5541
  733SOL    HW3 3006   0.091   1.212   1.585  0.2455  0.4458 -1.2071
  733SOL    MW4 3007   0.016   1.176   1.612  0.6995 -0.0582 -0.5919
  734SOL     OW 3008   0.232   1.292   1.523 -0.3245  0.1295  0.2597
  734SOL    HW2 3009   0.231   1.385   1.545  0.9084  0.3107 -0.4245
  734SOL    HW3 3010   0.224   1.290   1.427  0.6227 -0.4285  0.1865
  734SOL    MW4 3011   0.231   1.304   1.513 -0.0369  0.0799  0.1597
  735SOL     OW 3012   0.224   1.553   1.600  0.1731  0.1878 -0.1120
  735SOL    HW2 3013   0.215   1.527   1.692  0.9714 -0.0516 -0.1004
  735SOL    HW3 3014   0.139   1.591   1.578 -0.1925 -0.2139  0.5780
  735SOL    MW4 3015   0.211   1.555   1.609  0.2302  0.1032 -0.0194
  736SOL     OW 3016   4.453   1.665   1.520  0.2896 -0.0745 -0.1108
  736SOL    HW2 3017   4.482   1.753   1.545 -1.1352  0.2964  0.2584
  736SOL    HW3 3018   4.447   1.668   1.425  0.8874  0.0270 -0.1457
  736SOL    MW4 3019   4.456   1.677   1.511  0.1802 -0.0122 -0.0666
  737SOL     OW 3020   0.024   1.931   1.598 -0.8413  0.0025  0.2362
  737SOL    HW2 3021  -0.006   1.931   1.689 -0.3117  0.5172  0.4158
  737SOL    HW3 3022  -0.045   1.975   1.549 -1.6700 -1.3102  0.2001
  737SOL    MW4 3023   0.011   1.937   1.603 -0.8807 -0.1028  0.2552
  738SOL     OW 3024   0.254   2.100   1.468  0.3770 -0.8773  0.0967
  738SOL    HW2 3025   0.177   2.053   1.501 -0.0507  0.5773  1.2081
  738SOL    HW3 3026   0.243   2.100   1.373 -1.1477 -0.4395  0.2607
  738SOL    MW4 3027   0.242   2.094   1.460  0.1194 -0.6275  0.2649
  739SOL     OW 3028   0.225   2.336   1.619 -0.1649  0.1633 -0.5355
  739SOL    HW2 3029   0.227   2.321   1.713 -2.4925  0.9340 -0.3415
  739SOL    HW3 3030   0.236   2.249   1.580 -1.1714 -0.4194  0.4683
  739SOL    MW4 3031   0.227   2.322   1.626 -0.6048  0.1879 -0.3774
  740SOL     OW 3032   0.004   2.457   1.503 -0.2322 -0.3403 -0.0700
  740SOL    HW2 3033  -0.070   2.413   1.546 -0.0344 -1.4495 -0.8546
  740SOL    HW3 3034   0.081   2.409   1.534  0.0234 -0.2348 -0.5469
  740SOL    MW4 3035   0.004   2.445   1.513 -0.1724 -0.4728 -0.2365
  741SOL     OW 3036   0.000   2.716   1.578 -0.0263 -0.0896 -0.0480
  741SOL    HW2 3037  -0.088   2.744   1.553  0.4855  0.9449 -0.7043
  741SOL    HW3 3038   0.006   2.626   1.548 -0.2709  0.3701 -1.4996
  741SOL    MW4 3039  -0.011   2.708   1.571  0.0095  0.1073 -0.3263
  742SOL     OW 3040   0.210   2.838   1.466  0.4067  0.9450  0.2042
  742SOL    HW2 3041   0.283   2.785   1.498  0.2159  1.0171  0.7648
  742SOL    HW3 3042   0.132   2.793   1.498  0.1826  0.6040 -0.7990
  742SOL    MW4 3043   0.209   2.825   1.474  0.3519  0.9096  0.1457
  743SOL     OW 3044   0.234   3.097   1.560  0.1842  0.5067  0.0055
  743SOL    HW2 3045   0.148   3.135   1.541 -0.2682 -1.0966 -1.2420
  743SOL    HW3 3046   0.227   3.006   1.533  2.5844  0.5899 -1.0218
  743SOL    MW4 3047   0.222   3.090   1.554  0.4412  0.3061 -0.2946
  744SOL     OW 3048   4.474   3.224   1.512  0.0308  0.2237 -0.3384
  744SOL    HW2 3049   4.498   3.307   1.552 -0.8365  0.5061 -0.3969
  744SOL    HW3 3050   4.469   3.243   1.419 -0.3554  0.1441 -0.3313
  744SOL    MW4 3051   4.477   3.237   1.505 -0.1345  0.2508 -0.3452
  745SOL     OW 3052   0.048   3.476   1.606  0.6486 -0.1733  0.1229
  745SOL    HW2 3053   0.037   3.482   1.701 -0.7852  0.6434 -0.0829
  745SOL    HW3 3054  -0.034   3.509   1.570  2.0029  1.5666 -1.4352
  745SOL    MW4 3055   0.036   3.481   1.614  0.6375  0.1640 -0.1099
  746SOL     OW 3056   0.237   3.628   1.459 -0.1559 -0.4952  0.3318
  746SOL    HW2 3057   0.239   3.706   1.515  1.6471 -0.1145 -0.2342
  746SOL    HW3 3058   0.166   3.575   1.495  0.0172  0.4131  2.0827
  746SOL    MW4 3059   0.228   3.631   1.471  0.1048 -0.3250  0.4880
  747SOL     OW 3060   0.230   3.848   1.608  0.0775 -0.2436 -0.0948
  747SOL    HW2 3061   0.227   3.853   1.704  1.4534 -2.3489  0.0942
  747SOL    HW3 3062   0.311   3.895   1.585 -0.7578  1.1189 -0.3291
  747SOL    MW4 3063   0.240   3.855   1.618  0.1488 -0.3419 -0.1007
  748SOL     OW 3064   0.018   4.020   1.537  0.2001  0.0517  0.2139
  748SOL    HW2 3065   0.033   4.103   1.583  1.7855 -0.6985  1.0472
  748SOL    HW3 3066   0.083   3.960   1.573  0.9713 -0.7656 -2.4387
  748SOL    MW4 3067   0.028   4.023   1.548  0.5110 -0.1550 -0.0262
  749SOL     OW 3068   0.043   4.256   1.673 -0.1393 -0.1576 -0.2702
  749SOL    HW2 3069   0.030   4.246   1.767 -0.3370  0.0884 -0.2724
  749SOL    HW3 3070  -0.032   4.306   1.643  0.4714  0.7130 -0.3767
  749SOL    MW4 3071   0.032   4.262   1.681 -0.0848 -0.0100 -0.2846
  750SOL     OW 3072   0.274   4.369   1.571  0.1949 -0.2307  0.3023
  750SOL    HW2 3073   0.200   4.329   1.617 -0.7990 -0.3521 -1.3449
  750SOL    HW3 3074   0.269   4.462   1.594 -0.3002 -0.2936  0.4512
  750SOL    MW4 3075   0.264   4.376   1.580 -0.0016 -0.2556  0.1045
  751SOL     OW 3076   0.716   0.003   1.613 -0.0937  0.5563  0.1241
  751SOL    HW2 3077   0.791   0.051   1.578  0.7474  0.0400  1.1867
  751SOL    HW3 3078   0.640   0.056   1.589  0.5166  0.6385 -1.7393
  751SOL    MW4 3079   0.716   0.016   1.605  0.0978  0.4990  0.0184
  752SOL     OW 3080   0.463   0.114   1.541  0.4570 -0.1039  0.3160
  752SOL    HW2 3081   0.441   0.205   1.561 -1.8740 -0.7452  0.7868
  752SOL    HW3 3082   0.486   0.115   1.448 -0.7239  0.7850  0.0173
  752SOL    MW4 3083   0.463   0.126   1.531 -0.0064 -0.0712  0.3387
  753SOL     OW 3084   0.442   0.390   1.596 -0.2197 -0.2143 -0.5918
  753SOL    HW2 3085   0.523   0.420   1.556  0.1734 -0.7378 -0.1945
  753SOL    HW3 3086   0.376   0.453   1.567  0.2654  0.0264 -1.1763
  753SOL    MW4 3087   0.444   0.402   1.587 -0.1038 -0.2516 -0.6166
  754SOL     OW 3088   0.693   0.468   1.507 -0.2917  0.1957 -0.4220
  754SOL    HW2 3089   0.673   0.550   1.554 -1.1455  0.6456 -1.5535
  754SOL    HW3 3090   0.707   0.495   1.416 -0.7374 -0.9405 -0.8380
  754SOL    MW4 3091   0.693   0.483   1.501 -0.4632  0.1052 -0.6262
  755SOL     OW 3092   0.666   0.724   1.622  0.4281 -0.4993  0.1060
  755SOL    HW2 3093   0.665   0.742   1.716 -1.0053  0.4509 -0.0604
  755SOL    HW3 3094   0.722   0.792   1.585  1.4964 -1.2506  0.3358
  755SOL    MW4 3095   0.673   0.735   1.629  0.3799 -0.4731  0.1143
  756SOL     OW 3096   0.459   0.900   1.539 -0.4439 -0.5008  0.8538
  756SOL    HW2 3097   0.475   0.984   1.581 -1.2420 -0.4962  1.1605
  756SOL    HW3 3098   0.525   0.841   1.576  0.1334 -0.0047  0.6170
  756SOL    MW4 3099   0.470   0.903   1.549 -0.4731 -0.4348  0.8631
  757SOL     OW 3100   0.447   1.162   1.658  0.3042 -0.5179 -0.5096
  757SOL    HW2 3101   0.513   1.225   1.629  0.4667  0.1466  1.2716
  757SOL    HW3 3102   0.364   1.197   1.627  0.6762 -0.9294 -2.0345
  757SOL    MW4 3103   0.445   1.175   1.650  0.3747 -0.4845 -0.4758
  758SOL     OW 3104   0.666   1.276   1.505  0.1908  0.0405  0.0390
  758SOL    HW2 3105   0.681   1.368   1.525 -0.6583 -0.2211  1.9546
  758SOL    HW3 3106   0.674   1.270   1.410 -0.6143  2.2472 -0.1754
  758SOL    MW4 3107   0.669   1.287   1.495 -0.0274  0.2971  0.2635
  759SOL     OW 3108   0.676   1.551   1.548 -0.1631 -0.1367 -0.1513
  759SOL    HW2 3109   0.742   1.609   1.511  0.5410  0.3451  1.7800
  759SOL    HW3 3110   0.593   1.584   1.514  0.4517  0.3247 -1.2181
  759SOL    MW4 3111   0.674   1.563   1.539  0.0108 -0.0122 -0.0371
  760SOL     OW 3112   0.440   1.646   1.442 -0.1204  0.5304 -0.0555
  760SOL    HW2 3113   0.443   1.733   1.483  0.3269  0.0455  0.9659
  760SOL    HW3 3114   0.373   1.599   1.492 -0.1179  0.1764 -0.3848
  760SOL    MW4 3115   0.431   1.651   1.454 -0.0611  0.4196  0.0358
  761SOL     OW 3116   0.475   1.954   1.550  0.0510 -0.1842 -0.0127
  761SOL    HW2 3117   0.464   1.941   1.644 -2.2490  0.2618 -0.2118
  761SOL    HW3 3118   0.395   1.996   1.521  1.2567  0.8631 -1.9730
  761SOL    MW4 3119   0.463   1.958   1.559 -0.0934  0.0129 -0.2975
  762SOL     OW 3120   0.689   2.079   1.444  0.1592  0.2005 -0.2641
  762SOL    HW2 3121   0.766   2.036   1.480  0.0651  0.1791 -0.0856
  762SOL    HW3 3122   0.616   2.046   1.497  0.0778  0.5297 -0.1661
  762SOL    MW4 3123   0.689   2.069   1.456  0.1360  0.2413 -0.2277
  763SOL     OW 3124   0.711   2.320   1.579  0.2376  0.3472 -0.3711
  763SOL    HW2 3125   0.642   2.359   1.525 -0.3751 -0.0194  0.1285
  763SOL    HW3 3126   0.716   2.229   1.550 -0.9247 -0.1745  0.9627
  763SOL    MW4 3127   0.703   2.313   1.568  0.0033  0.2301 -0.1292
  764SOL     OW 3128   0.465   2.435   1.473 -0.4506 -0.1964 -0.2446
  764SOL    HW2 3129   0.450   2.525   1.503  0.8540  0.4020 -1.3261
  764SOL    HW3 3130   0.389   2.386   1.505 -1.3859  1.3783  0.0045
  764SOL    MW4 3131   0.453   2.441   1.481 -0.4019  0.0901 -0.3544
  765SOL     OW 3132   0.423   2.719   1.569  0.0660  0.3870  0.1231
  765SOL    HW2 3133   0.416   2.724   1.664  0.0347 -1.7674  0.2696
  765SOL    HW3 3134   0.513   2.747   1.550 -0.1364  1.4601  0.7191
  765SOL    MW4 3135   0.434   2.723   1.579  0.0352  0.2444  0.2211
  766SOL     OW 3136   0.656   2.826   1.471 -0.3645  0.4363  0.3198
  766SOL    HW2 3137   0.624   2.908   1.508 -0.7947  0.6153 -0.4579
  766SOL    HW3 3138   0.668   2.844   1.378 -1.4393 -0.6797 -0.0461
  766SOL    MW4 3139   0.653   2.839   1.464 -0.5631  0.3128  0.1690
  767SOL     OW 3140   0.606   3.078   1.583  0.5887  0.0074 -0.2887
  767SOL    HW2 3141   0.697   3.106   1.573  0.3136  1.8062  1.7480
  767SOL    HW3 3142   0.555   3.155   1.559 -0.3287 -0.4001  0.3157
  767SOL    MW4 3143   0.611   3.092   1.579  0.4314  0.1910  0.0596
  768SOL     OW 3144   0.428   3.269   1.499 -0.2627 -0.0764 -0.3482
  768SOL    HW2 3145   0.366   3.198   1.515 -0.2194 -0.3794 -1.4255
  768SOL    HW3 3146   0.447   3.262   1.405 -0.3196  1.4034 -0.4804
  768SOL    MW4 3147   0.422   3.259   1.488 -0.2645  0.0789 -0.5078
  769SOL     OW 3148   0.427   3.518   1.621 -0.1496 -0.0742 -0.0470
  769SOL    HW2 3149   0.436   3.430   1.584 -0.6681  0.1248 -0.6508
  769SOL    HW3 3150   0.351   3.555   1.577 -0.2366  0.4948  0.5758
  769SOL    MW4 3151   0.418   3.511   1.610 -0.2295  0.0269 -0.0446
  770SOL     OW 3152   0.665   3.635   1.526 -0.1467  0.0084 -0.0979
  770SOL    HW2 3153   0.731   3.579   1.567  0.2643  0.8842  0.4566
  770SOL    HW3 3154   0.581   3.602   1.559 -0.1484 -2.2988 -2.2337
  770SOL    MW4 3155   0.663   3.623   1.536 -0.0927 -0.1805 -0.3066
  771SOL     OW 3156   0.700   3.873   1.649  0.2112  0.0112 -0.3612
  771SOL    HW2 3157   0.764   3.915   1.591  0.2913 -0.4082 -0.5757
  771SOL    HW3 3158   0.692   3.784   1.615  0.4126 -0.2982  0.3995
  771SOL    MW4 3159   0.708   3.867   1.637  0.2483 -0.0849 -0.2892
  772SOL     OW 3160   0.467   4.001   1.550  0.7350  0.9790  0.6385
  772SOL    HW2 3161   0.539   3.952   1.590  0.2683 -0.1894  0.0641
  772SOL    HW3 3162   0.481   3.994   1.456 -1.2581 -1.0283  0.4542
  772SOL    MW4 3163   0.478   3.994   1.543  0.4105  0.5605  0.5383
  773SOL     OW 3164   0.506   4.258   1.651  0.1486  0.2365  0.4123
  773SOL    HW2 3165   0.490   4.174   1.610  0.7762 -0.4813  1.5937
  773SOL    HW3 3166   0.427   4.310   1.634  0.2628 -0.1608 -1.3582
  773SOL    MW4 3167   0.494   4.254   1.643  0.2465  0.0896  0.3346
  774SOL     OW 3168   0.699   4.417   1.519 -0.0688 -0.1857 -0.2434
  774SOL    HW2 3169   0.636   4.364   1.569 -0.9125  0.6138 -0.4635
  774SOL    HW3 3170   0.702   4.501   1.565  0.4405 -0.0297 -0.5522
  774SOL    MW4 3171   0.691   4.421   1.532 -0.1129 -0.0601 -0.3132
  775SOL     OW 3172   1.110   4.664   1.628  0.0902  0.2531 -0.8408
  775SOL    HW2 3173   1.108   4.664   1.723  1.3944  1.0212 -0.7979
  775SOL    HW3 3174   1.189   4.713   1.606 -0.4047  0.4026 -2.3215
  775SOL    MW4 3175   1.120   4.670   1.637  0.1968  0.3738 -1.0306
  776SOL     OW 3176   0.922   0.148   1.507 -0.4789  0.4021  0.3332
  776SOL    HW2 3177   0.916   0.237   1.542  0.1780  0.9402 -0.8827
  776SOL    HW3 3178   0.994   0.108   1.555 -0.6196  0.6010  0.7136
  776SOL    MW4 3179   0.931   0.155   1.518 -0.4108  0.4993  0.2230
  777SOL     OW 3180   0.912   0.380   1.643  0.0829 -0.2868 -0.1250
  777SOL    HW2 3181   0.906   0.376   1.738  2.3663  0.8602  0.0976
  777SOL    HW3 3182   0.825   0.410   1.615 -0.7342 -1.0149  1.5421
  777SOL    MW4 3183   0.900   0.384   1.652  0.2763 -0.2315  0.1242
  778SOL     OW 3184   1.109   0.535   1.519  0.8730 -0.4178 -0.2419
  778SOL    HW2 3185   1.109   0.616   1.570  0.8001 -0.4555 -0.1814
  778SOL    HW3 3186   1.033   0.486   1.552  0.5837 -0.2614 -0.6738
  778SOL    MW4 3187   1.099   0.539   1.530  0.8252 -0.4022 -0.2910
  779SOL     OW 3188   1.088   0.802   1.613 -0.2684  0.0770  0.0024
  779SOL    HW2 3189   1.104   0.812   1.707  0.0665 -0.8515  0.0486
  779SOL    HW3 3190   1.167   0.839   1.572  0.0254 -0.4246  0.1130
  779SOL    MW4 3191   1.101   0.808   1.620 -0.1855 -0.1117  0.0231
  780SOL     OW 3192   0.840   0.885   1.491 -0.0999  0.0662  0.2311
  780SOL    HW2 3193   0.920   0.851   1.529  0.1991  1.2087  0.6410
  780SOL    HW3 3194   0.857   0.886   1.396  0.3293  0.2317  0.3102
  780SOL    MW4 3195   0.852   0.881   1.483 -0.0038  0.2388  0.2955
  781SOL     OW 3196   0.890   1.145   1.587 -0.0082 -0.0885 -0.7950
  781SOL    HW2 3197   0.857   1.057   1.566 -0.2107 -0.6034  1.5007
  781SOL    HW3 3198   0.819   1.204   1.561 -0.3375 -0.7011 -1.2976
  781SOL    MW4 3199   0.876   1.141   1.581 -0.0783 -0.2373 -0.5585
  782SOL     OW 3200   1.117   1.297   1.479  0.5237  0.0104  0.1620
  782SOL    HW2 3201   1.201   1.253   1.496 -0.0213 -1.6905 -1.3625
  782SOL    HW3 3202   1.051   1.236   1.510 -0.2984 -0.8713 -3.0901
  782SOL    MW4 3203   1.120   1.283   1.485  0.3433 -0.3303 -0.4683
  783SOL     OW 3204   1.106   1.544   1.596  0.4416  0.3040  0.6632
  783SOL    HW2 3205   1.188   1.587   1.570  1.1489  0.0073  2.3155
  783SOL    HW3 3206   1.113   1.455   1.561  0.6946  0.3725  0.5399
  783SOL    MW4 3207   1.118   1.538   1.588  0.5684  0.2738  0.8647
  784SOL     OW 3208   0.901   1.703   1.470  0.4167  0.2123 -0.3789
  784SOL    HW2 3209   0.984   1.663   1.497  0.2466 -0.2265 -0.4974
  784SOL    HW3 3210   0.895   1.684   1.376  0.4562  0.7369 -0.4874
  784SOL    MW4 3211   0.912   1.695   1.461  0.3995  0.2236 -0.4088
  785SOL     OW 3212   0.894   1.963   1.558  0.2789 -0.2262  0.2533
  785SOL    HW2 3213   0.970   1.996   1.509 -1.2861  0.7159 -1.6142
  785SOL    HW3 3214   0.887   1.871   1.531 -0.7705  0.3785 -1.5689
  785SOL    MW4 3215   0.903   1.955   1.548 -0.0660 -0.0223 -0.2337
  786SOL     OW 3216   1.144   2.058   1.428 -0.0352  0.0828 -0.0336
  786SOL    HW2 3217   1.201   2.020   1.494 -0.0864 -1.7061 -0.9930
  786SOL    HW3 3218   1.134   2.150   1.454  1.6883 -0.0741  1.2156
  786SOL    MW4 3219   1.150   2.065   1.440  0.1856 -0.1738  0.0046
  787SOL     OW 3220   1.143   2.306   1.530  0.3417  0.2393  0.3499
  787SOL    HW2 3221   1.223   2.352   1.506  0.5243  0.2650  0.9970
  787SOL    HW3 3222   1.073   2.368   1.512  0.3450 -0.2319 -1.4284
  787SOL    MW4 3223   1.144   2.320   1.524  0.3662  0.1810  0.2006
  788SOL     OW 3224   0.923   2.464   1.478 -0.0753 -0.1726  0.2450
  788SOL    HW2 3225   0.912   2.546   1.526 -0.8805 -0.1114 -0.0393
  788SOL    HW3 3226   0.864   2.402   1.522 -0.4080 -0.2612 -0.3300
  788SOL    MW4 3227   0.913   2.466   1.490 -0.2255 -0.1762  0.1317
  789SOL     OW 3228   0.860   2.707   1.602  0.0684 -0.2877  0.0423
  789SOL    HW2 3229   0.836   2.712   1.694 -1.5247 -0.8121 -0.3260
  789SOL    HW3 3230   0.784   2.741   1.555  0.8333 -0.0870 -1.0844
  789SOL    MW4 3231   0.847   2.712   1.608 -0.0409 -0.3302 -0.1549
  790SOL     OW 3232   1.068   2.833   1.476 -0.5057  0.1466 -0.2524
  790SOL    HW2 3233   1.070   2.918   1.519  1.7653  0.4440 -0.8741
  790SOL    HW3 3234   1.003   2.783   1.524 -1.3222  1.9828  0.5990
  790SOL    MW4 3235   1.060   2.838   1.488 -0.3138  0.4282 -0.2221
  791SOL     OW 3236   1.089   3.067   1.630 -0.7114 -1.0351  0.5177
  791SOL    HW2 3237   1.106   3.059   1.724 -0.7006 -0.6422  0.5490
  791SOL    HW3 3238   1.168   3.109   1.595  0.0121 -2.7213  0.0700
  791SOL    MW4 3239   1.102   3.071   1.638 -0.6144 -1.2059  0.4628
  792SOL     OW 3240   0.855   3.180   1.563 -0.1143  0.4486 -0.2103
  792SOL    HW2 3241   0.931   3.138   1.604 -0.7666 -0.5878 -0.0649
  792SOL    HW3 3242   0.873   3.175   1.469 -0.4754 -0.7026 -0.2197
  792SOL    MW4 3243   0.868   3.174   1.556 -0.2481  0.1600 -0.1924
  793SOL     OW 3244   0.889   3.481   1.582 -0.2980  0.1659 -0.5351
  793SOL    HW2 3245   0.971   3.519   1.550 -0.9343  2.3235  0.2751
  793SOL    HW3 3246   0.894   3.389   1.558  2.9689 -0.0573  0.6874
  793SOL    MW4 3247   0.901   3.474   1.575  0.0491  0.4208 -0.2669
  794SOL     OW 3248   1.131   3.609   1.520 -0.1846 -0.1390 -0.2386
  794SOL    HW2 3249   1.192   3.544   1.555  0.5968 -0.1768 -1.6382
  794SOL    HW3 3250   1.164   3.627   1.432 -1.0636  1.3015 -0.2759
  794SOL    MW4 3251   1.143   3.603   1.513 -0.1975  0.0460 -0.4282
  795SOL     OW 3252   1.102   3.875   1.610 -0.1420 -0.1239 -0.0979
  795SOL    HW2 3253   1.190   3.907   1.596 -0.9278  1.3495 -1.8379
  795SOL    HW3 3254   1.106   3.782   1.589  1.1531 -0.2252  0.5857
  795SOL    MW4 3255   1.114   3.867   1.606 -0.0747  0.0572 -0.2373
  796SOL     OW 3256   0.888   4.008   1.497 -0.5185 -0.1762  0.1807
  796SOL    HW2 3257   0.881   4.096   1.535 -1.5439 -0.5350  0.8560
  796SOL    HW3 3258   0.955   3.965   1.550 -0.5788 -0.0555  0.3576
  796SOL    MW4 3259   0.896   4.014   1.509 -0.6617 -0.2079  0.2931
  797SOL     OW 3260   0.918   4.264   1.582 -0.0858  0.5751  0.3677
  797SOL    HW2 3261   0.912   4.267   1.677 -1.2817 -0.7327  0.3355
  797SOL    HW3 3262   0.840   4.310   1.551 -0.8647 -0.9720  0.0157
  797SOL    MW4 3263   0.907   4.271   1.590 -0.3463  0.1984  0.3172
  798SOL     OW 3264   1.131   4.410   1.503  0.3760  0.2853  0.0549
  798SOL    HW2 3265   1.054   4.362   1.534  0.4216 -0.6062 -1.1850
  798SOL    HW3 3266   1.122   4.497   1.541 -0.3527 -0.3315  1.3155
  798SOL    MW4 3267   1.120   4.415   1.512  0.2859  0.0868  0.0576
  799SOL     OW 3268   1.557   0.004   1.584 -0.0260 -0.6591 -0.1535
  799SOL    HW2 3269   1.563  -0.006   1.679  1.5673 -0.1462 -0.1755
  799SOL    HW3 3270   1.479   0.057   1.570  0.5655  0.5479  0.9813
  799SOL    MW4 3271   1.548   0.010   1.595  0.2623 -0.4322 -0.0067
  800SOL     OW 3272   1.332   0.144   1.524  0.5340  0.3801 -0.6047
  800SOL    HW2 3273   1.341   0.232   1.560  0.4653  0.5397 -0.9715
  800SOL    HW3 3274   1.331   0.157   1.429  1.5783 -0.1145 -0.6931
  800SOL    MW4 3275   1.333   0.158   1.516  0.6627  0.3359 -0.6647
  801SOL     OW 3276   1.326   0.408   1.628 -0.1883  0.3702  0.3805
  801SOL    HW2 3277   1.397   0.439   1.571  0.4725  0.6049  1.3169
  801SOL    HW3 3278   1.248   0.455   1.597 -0.0856 -0.4644 -1.1378
  801SOL    MW4 3279   1.325   0.419   1.617 -0.0875  0.2910  0.3037
  802SOL     OW 3280   1.571   0.516   1.529  0.3726  0.3395 -0.0493
  802SOL    HW2 3281   1.644   0.473   1.573 -0.0068 -0.8239 -0.5479
  802SOL    HW3 3282   1.581   0.493   1.437 -1.0429 -0.4543 -0.0254
  802SOL    MW4 3283   1.582   0.508   1.522  0.1359  0.0812 -0.1121
  803SOL     OW 3284   1.584   0.784   1.560 -0.8320 -0.7775 -0.2091
  803SOL    HW2 3285   1.593   0.793   1.655 -0.6197  0.8506 -0.3744
  803SOL    HW3 3286   1.572   0.690   1.546 -2.1196 -0.9011  1.5411
  803SOL    MW4 3287   1.583   0.773   1.571 -0.9739 -0.5789 -0.0001
  804SOL     OW 3288   1.340   0.880   1.495 -0.3468 -0.1430 -0.0485
  804SOL    HW2 3289   1.424   0.838   1.514 -0.4842 -0.7336 -0.7359
  804SOL    HW3 3290   1.344   0.899   1.401 -0.2537  1.4563  0.2635
  804SOL    MW4 3291   1.352   0.877   1.485 -0.3527 -0.0100 -0.0982
  805SOL     OW 3292   1.346   1.152   1.553 -0.3437 -0.1299 -0.4003
  805SOL    HW2 3293   1.343   1.159   1.648  0.3062 -1.0835 -0.3047
  805SOL    HW3 3294   1.354   1.058   1.536  0.0544  0.0753 -1.3735
  805SOL    MW4 3295   1.347   1.141   1.563 -0.2053 -0.2286 -0.5162
  806SOL     OW 3296   1.604   1.299   1.517 -0.1019  0.1921 -0.2603
  806SOL    HW2 3297   1.522   1.261   1.548  0.1455 -0.8063 -0.8241
  806SOL    HW3 3298   1.593   1.307   1.422  0.9900 -1.2746 -0.5218
  806SOL    MW4 3299   1.591   1.295   1.509  0.0747 -0.1330 -0.3693
  807SOL     OW 3300   1.601   1.557   1.588 -0.3732  0.1050 -0.1839
  807SOL    HW2 3301   1.612   1.576   1.681 -1.8695  1.4970 -0.2632
  807SOL    HW3 3302   1.590   1.462   1.585 -2.0277  0.2055  1.2869
  807SOL    MW4 3303   1.601   1.547   1.600 -0.7889  0.3020 -0.0002
  808SOL     OW 3304   1.347   1.656   1.509  0.2191  0.0192 -0.4983
  808SOL    HW2 3305   1.439   1.630   1.518 -0.0608 -1.0274 -0.6037
  808SOL    HW3 3306   1.331   1.654   1.414  0.0077 -0.0934 -0.4603
  808SOL    MW4 3307   1.357   1.652   1.497  0.1543 -0.1336 -0.5072
  809SOL     OW 3308   1.325   1.938   1.580  0.1196  0.0906  0.0852
  809SOL    HW2 3309   1.327   1.936   1.675 -1.3289  0.1879  0.1301
  809SOL    HW3 3310   1.327   1.846   1.554 -1.6112 -0.0360  0.2939
  809SOL    MW4 3311   1.325   1.926   1.589 -0.2997  0.0868  0.1187
  810SOL     OW 3312   1.585   2.030   1.513 -0.1751 -0.2119  0.3691
  810SOL    HW2 3313   1.496   2.004   1.537  0.5230 -0.4019  2.8359
  810SOL    HW3 3314   1.588   2.019   1.418 -2.7476 -0.3006  0.2610
  810SOL    MW4 3315   1.574   2.025   1.504 -0.4222 -0.2484  0.6802
  811SOL     OW 3316   1.554   2.317   1.597 -0.2770 -0.4625  0.2308
  811SOL    HW2 3317   1.636   2.358   1.568 -0.1359 -1.4380 -0.7595
  811SOL    HW3 3318   1.555   2.230   1.557 -2.2206 -0.1617 -0.5015
  811SOL    MW4 3319   1.565   2.311   1.588 -0.5147 -0.5515  0.0035
  812SOL     OW 3320   1.368   2.461   1.444  0.0754 -0.1205  0.0248
  812SOL    HW2 3321   1.366   2.551   1.474 -1.8432 -0.3708  0.7174
  812SOL    HW3 3322   1.428   2.417   1.504 -0.1615  0.3700  0.6210
  812SOL    MW4 3323   1.375   2.467   1.456 -0.2091 -0.0887  0.1948
  813SOL     OW 3324   1.314   2.711   1.562 -0.1649 -0.4710 -0.0782
  813SOL    HW2 3325   1.383   2.768   1.529 -0.4223 -0.6295 -0.8965
  813SOL    HW3 3326   1.232   2.753   1.535 -0.3421 -1.6845 -1.4949
  813SOL    MW4 3327   1.312   2.724   1.555 -0.2223 -0.6521 -0.3731
  814SOL     OW 3328   1.554   2.836   1.490 -0.3542  0.6829 -0.0087
  814SOL    HW2 3329   1.626   2.787   1.530 -0.9023  0.1953  0.3841
  814SOL    HW3 3330   1.564   2.820   1.396 -0.2603  0.1858  0.0829
  814SOL    MW4 3331   1.565   2.827   1.483 -0.4141  0.5529  0.0553
  815SOL     OW 3332   1.578   3.113   1.558  0.4499  0.4921 -0.0216
  815SOL    HW2 3333   1.660   3.152   1.528  0.7437 -0.9073 -1.0802
  815SOL    HW3 3334   1.581   3.022   1.526 -1.0812  0.1528  0.7396
  815SOL    MW4 3335   1.589   3.106   1.550  0.2868  0.2630 -0.0609
  816SOL     OW 3336   1.311   3.197   1.523 -0.0580  0.3638  0.1203
  816SOL    HW2 3337   1.327   3.288   1.549 -0.8741  0.7498 -0.6866
  816SOL    HW3 3338   1.398   3.158   1.520  0.2493  0.9616  1.0421
  816SOL    MW4 3339   1.325   3.204   1.526 -0.1252  0.4935  0.1357
  817SOL     OW 3340   1.354   3.457   1.604 -0.0891 -0.0297  0.2694
  817SOL    HW2 3341   1.363   3.464   1.699 -1.2570  0.1039  0.3758
  817SOL    HW3 3342   1.431   3.503   1.569  0.2294  0.1060  1.1442
  817SOL    MW4 3343   1.365   3.464   1.612 -0.2011  0.0055  0.3989
  818SOL     OW 3344   1.569   3.613   1.524  0.3817  0.1105  0.4665
  818SOL    HW2 3345   1.585   3.705   1.545 -0.5507  0.4631 -0.3593
  818SOL    HW3 3346   1.574   3.608   1.429  0.5509 -0.7251  0.5129
  818SOL    MW4 3347   1.572   3.624   1.514  0.2809  0.0467  0.3636
  819SOL     OW 3348   1.573   3.885   1.591 -0.1714  0.2336 -0.0884
  819SOL    HW2 3349   1.568   3.872   1.686  1.2285  0.5477  0.0305
  819SOL    HW3 3350   1.489   3.925   1.568 -0.3833  0.4748  1.0656
  819SOL    MW4 3351   1.561   3.888   1.600 -0.0148  0.3068  0.0795
  820SOL     OW 3352   1.325   4.032   1.530 -0.1284 -0.4255  0.9390
  820SOL    HW2 3353   1.325   4.123   1.561  1.7243 -0.7197  1.9066
  820SOL    HW3 3354   1.334   4.038   1.435  0.1886  0.3957  1.0206
  820SOL    MW4 3355   1.326   4.045   1.522  0.1578 -0.3562  1.0773
  821SOL     OW 3356   1.343   4.286   1.616  0.1227 -0.2362 -0.1063
  821SOL    HW2 3357   1.423   4.326   1.581  0.4550 -0.3745  0.4847
  821SOL    HW3 3358   1.272   4.335   1.575  0.5097 -0.0073 -0.5142
  821SOL    MW4 3359   1.344   4.298   1.606  0.2176 -0.2241 -0.0821
  822SOL     OW 3360   1.561   4.408   1.494  0.3042 -0.5283  0.2476
  822SOL    HW2 3361   1.648   4.372   1.514  0.9821  0.3476 -1.0732
  822SOL    HW3 3362   1.571   4.502   1.505 -0.8864 -0.5355  1.5108
  822SOL    MW4 3363   1.574   4.416   1.498  0.2365 -0.4139  0.2400
  823SOL     OW 3364   2.016   4.644   1.579 -0.1836  0.2718  0.2339
  823SOL    HW2 3365   2.010   4.649   1.675 -0.7140  1.0002  0.1618
  823SOL    HW3 3366   1.943   4.697   1.547  0.3735  0.5579 -0.5793
  823SOL    MW4 3367   2.006   4.651   1.588 -0.1800  0.4053  0.1172
  824SOL     OW 3368   1.805   0.132   1.511 -0.2577 -0.1308  0.4802
  824SOL    HW2 3369   1.722   0.102   1.548 -0.4335 -0.7638 -0.4065
  824SOL    HW3 3370   1.791   0.129   1.417  0.2916  1.1610  0.3541
  824SOL    MW4 3371   1.792   0.127   1.504 -0.2085 -0.0438  0.3465
  825SOL     OW 3372   1.818   0.384   1.616  0.0816 -0.3481  0.1384
  825SOL    HW2 3373   1.893   0.433   1.580  0.0254  0.9455  1.7021
  825SOL    HW3 3374   1.827   0.297   1.579  2.7685 -0.4142  0.7714
  825SOL    MW4 3375   1.829   0.379   1.606  0.4288 -0.1861  0.4282
  826SOL     OW 3376   2.040   0.532   1.475  0.2170 -0.3377 -0.2147
  826SOL    HW2 3377   2.111   0.471   1.494  0.6607  0.0020 -0.7581
  826SOL    HW3 3378   2.069   0.614   1.515 -1.2235 -0.9403  2.1300
  826SOL    MW4 3379   2.053   0.535   1.483  0.0856 -0.3724  0.0229
  827SOL     OW 3380   2.020   0.794   1.578 -0.3373 -0.2906 -0.0010
  827SOL    HW2 3381   2.090   0.834   1.526  0.2198 -1.0047  0.1933
  827SOL    HW3 3382   1.940   0.819   1.533  0.0544  0.3548 -0.3532
  827SOL    MW4 3383   2.019   0.802   1.565 -0.2122 -0.2997 -0.0217
  828SOL     OW 3384   1.801   0.900   1.449 -0.6745 -0.6127  0.0200
  828SOL    HW2 3385   1.803   0.976   1.506 -1.3177 -0.0148 -0.7408
  828SOL    HW3 3386   1.722   0.852   1.475  0.0953 -1.3972  0.9626
  828SOL    MW4 3387   1.791   0.904   1.460 -0.6578 -0.6374  0.0439
  829SOL     OW 3388   1.817   1.144   1.602  0.2567 -0.9228  0.0624
  829SOL    HW2 3389   1.893   1.188   1.564 -0.1541  0.0722  0.3916
  829SOL    HW3 3390   1.743   1.200   1.581 -0.2987 -1.5557  0.3151
  829SOL    MW4 3391   1.817   1.157   1.594  0.1293 -0.8751  0.1392
  830SOL     OW 3392   2.050   1.238   1.510 -0.4775  0.1557 -0.0195
  830SOL    HW2 3393   2.055   1.330   1.536 -0.3674  0.0643  0.2825
  830SOL    HW3 3394   2.081   1.237   1.420  0.8886  0.2010  0.4401
  830SOL    MW4 3395   2.055   1.250   1.502 -0.2830  0.1496  0.0811
  831SOL     OW 3396   2.026   1.511   1.566 -0.6967  0.2383  0.0710
  831SOL    HW2 3397   2.103   1.567   1.558 -1.1708  1.2339  2.0248
  831SOL    HW3 3398   1.954   1.566   1.537 -1.0977  0.4769  1.4857
  831SOL    MW4 3399   2.027   1.526   1.561 -0.8121  0.4011  0.5153
  832SOL     OW 3400   1.812   1.673   1.467  0.4846 -0.7426 -0.4115
  832SOL    HW2 3401   1.742   1.635   1.520  0.0090  1.3772  0.5391
  832SOL    HW3 3402   1.786   1.655   1.376  1.0365 -3.9395  0.0324
  832SOL    MW4 3403   1.799   1.666   1.462  0.4946 -0.8848 -0.2273
  833SOL     OW 3404   1.821   1.912   1.588  0.2586 -0.1695 -0.3708
  833SOL    HW2 3405   1.818   1.835   1.530 -0.1827 -0.1542 -0.3688
  833SOL    HW3 3406   1.735   1.952   1.578 -0.1700 -0.7168  1.0557
  833SOL    MW4 3407   1.809   1.907   1.579  0.1439 -0.2397 -0.1823
  834SOL     OW 3408   2.053   2.072   1.483 -0.3305 -0.6159 -0.2868
  834SOL    HW2 3409   2.125   2.040   1.536 -0.0889  1.2603  0.5519
  834SOL    HW3 3410   1.976   2.024   1.515  0.0817 -0.6473  0.6656
  834SOL    MW4 3411   2.052   2.062   1.494 -0.2441 -0.3726 -0.0504
  835SOL     OW 3412   2.028   2.315   1.584  0.3410  0.5261 -0.2573
  835SOL    HW2 3413   2.020   2.315   1.680  0.0869 -1.6612 -0.2555
  835SOL    HW3 3414   2.040   2.223   1.561  0.6133  1.0564 -2.3270
  835SOL    MW4 3415   2.029   2.303   1.594  0.3433  0.3073 -0.5300
  836SOL     OW 3416   1.798   2.431   1.496  0.2739 -0.0859  0.2680
  836SOL    HW2 3417   1.880   2.391   1.526  0.5016 -0.2030 -0.5023
  836SOL    HW3 3418   1.810   2.445   1.402 -0.4202  0.3116  0.2290
  836SOL    MW4 3419   1.810   2.428   1.488  0.2124 -0.0489  0.1614
  837SOL     OW 3420   1.760   2.687   1.593  0.6449 -0.2666 -0.0523
  837SOL    HW2 3421   1.815   2.726   1.526 -0.1859 -2.9633 -2.3618
  837SOL    HW3 3422   1.762   2.593   1.576  0.5503 -1.0599  3.8286
  837SOL    MW4 3423   1.767   2.680   1.582  0.5227 -0.7272  0.1551
  838SOL     OW 3424   1.938   2.820   1.436  0.1814 -0.5630  0.2513
  838SOL    HW2 3425   1.938   2.909   1.470  0.2213 -0.1041 -0.9387
  838SOL    HW3 3426   1.950   2.830   1.342 -1.4331 -1.7347 -0.1038
  838SOL    MW4 3427   1.939   2.833   1.428 -0.0265 -0.6573  0.0474
  839SOL     OW 3428   1.996   3.064   1.570  0.0076  0.2523  0.4007
  839SOL    HW2 3429   2.006   3.064   1.665  1.0697  1.0884  0.2985
  839SOL    HW3 3430   2.080   3.098   1.537 -0.4688  0.2753 -0.8193
  839SOL    MW4 3431   2.009   3.068   1.578  0.0849  0.3657  0.2264
  840SOL     OW 3432   1.820   3.242   1.476  0.2318  0.0392 -0.3012
  840SOL    HW2 3433   1.822   3.319   1.533  0.4386  0.2331 -0.5737
  840SOL    HW3 3434   1.882   3.181   1.516  1.1409  0.5749 -0.8940
  840SOL    MW4 3435   1.828   3.244   1.489  0.3790  0.1354 -0.4154
  841SOL     OW 3436   1.809   3.486   1.608  0.1757 -0.2972 -0.7387
  841SOL    HW2 3437   1.794   3.476   1.702  0.2613 -2.5241 -0.9279
  841SOL    HW3 3438   1.725   3.514   1.573  0.0870  0.3411 -0.0311
  841SOL    MW4 3439   1.796   3.488   1.616  0.1754 -0.5066 -0.6703
  842SOL     OW 3440   2.028   3.639   1.530 -0.0034 -0.9659 -0.0474
  842SOL    HW2 3441   2.108   3.603   1.569  0.0475  0.1605  0.8918
  842SOL    HW3 3442   1.958   3.583   1.564  0.2284 -1.0650  0.2674
  842SOL    MW4 3443   2.029   3.627   1.540  0.0339 -0.8302  0.1180
  843SOL     OW 3444   2.037   3.911   1.589 -0.6841 -0.0795 -0.1462
  843SOL    HW2 3445   2.125   3.942   1.566 -0.8366  0.3763 -0.1062
  843SOL    HW3 3446   2.037   3.819   1.561 -1.0356  0.6088 -2.4666
  843SOL    MW4 3447   2.049   3.903   1.582 -0.7505  0.0713 -0.4470
  844SOL     OW 3448   1.812   4.055   1.518  0.0404 -0.1296 -0.2937
  844SOL    HW2 3449   1.888   4.000   1.537 -1.1800 -0.9514  2.4518
  844SOL    HW3 3450   1.737   4.004   1.549 -1.2173  2.6925  1.4766
  844SOL    MW4 3451   1.812   4.041   1.525 -0.2866  0.1340  0.3021
  845SOL     OW 3452   1.800   4.315   1.593 -0.2569  0.0616 -0.3682
  845SOL    HW2 3453   1.868   4.364   1.548 -0.1453 -0.8431 -1.2051
  845SOL    HW3 3454   1.817   4.224   1.570  0.8906 -0.6404  2.9394
  845SOL    MW4 3455   1.811   4.309   1.584 -0.0907 -0.1502 -0.0422
  846SOL     OW 3456   2.016   4.396   1.454  0.0725 -0.1124  0.2749
  846SOL    HW2 3457   2.093   4.345   1.479  1.5018  0.9003 -1.9032
  846SOL    HW3 3458   2.029   4.481   1.498 -0.0922 -0.1422  0.3794
  846SOL    MW4 3459   2.028   4.401   1.463  0.2394  0.0176  0.0013
  847SOL     OW 3460   2.505   4.594   1.615 -0.1135  0.0053  0.0595
  847SOL    HW2 3461   2.489   4.603   1.709  0.8054  1.0433  0.1314
  847SOL    HW3 3462   2.424   4.624   1.574 -0.3265  0.0602  0.5122
  847SOL    MW4 3463   2.493   4.599   1.622 -0.0205  0.1497  0.1287
  848SOL     OW 3464   2.267   0.054   1.498  0.1551  0.0354 -0.2079
  848SOL    HW2 3465   2.175   0.036   1.521  0.3258  0.8510  1.1615
  848SOL    HW3 3466   2.265   0.071   1.404 -0.9319 -1.0503 -0.4018
  848SOL    MW4 3467   2.254   0.054   1.489  0.0341 -0.0002 -0.0529
  849SOL     OW 3468   2.234   0.330   1.558  0.4037  0.2113 -0.0453
  849SOL    HW2 3469   2.235   0.347   1.653 -0.7597  0.1892 -0.0155
  849SOL    HW3 3470   2.242   0.235   1.552  1.1961  0.2744  0.0038
  849SOL    MW4 3471   2.235   0.319   1.570  0.3548  0.2168 -0.0348
  850SOL     OW 3472   2.502   0.464   1.494  0.1499  0.1493 -0.5537
  850SOL    HW2 3473   2.566   0.404   1.533 -0.2316 -1.7393 -2.6940
  850SOL    HW3 3474   2.419   0.417   1.501 -0.0222  0.0023 -3.0531
  850SOL    MW4 3475   2.499   0.450   1.500  0.0768 -0.1193 -1.1657
  851SOL     OW 3476   2.491   0.710   1.598  0.5971  0.2783  0.6929
  851SOL    HW2 3477   2.430   0.750   1.536 -1.2044 -1.3287  1.3404
  851SOL    HW3 3478   2.492   0.617   1.573  2.3004  0.1848  1.0978
  851SOL    MW4 3479   2.483   0.703   1.587  0.5841  0.0538  0.8317
  852SOL     OW 3480   2.321   0.850   1.445 -0.1403  0.4242  0.0963
  852SOL    HW2 3481   2.311   0.930   1.497  1.2634  1.5316 -1.2855
  852SOL    HW3 3482   2.307   0.878   1.355 -3.2985 -1.6199 -0.1078
  852SOL    MW4 3483   2.318   0.865   1.440 -0.3719  0.3006 -0.1130
  853SOL     OW 3484   2.257   1.070   1.591  0.5512  0.2857  0.1055
  853SOL    HW2 3485   2.272   1.077   1.686 -0.2991  1.0457  0.1934
  853SOL    HW3 3486   2.172   1.112   1.578  0.4208 -0.3061 -0.9266
  853SOL    MW4 3487   2.248   1.076   1.602  0.4218  0.3079 -0.0191
  854SOL     OW 3488   2.423   1.267   1.512  0.4505  0.3310  0.1479
  854SOL    HW2 3489   2.363   1.205   1.554  0.2726 -0.6066 -1.4492
  854SOL    HW3 3490   2.397   1.266   1.420  1.4775  1.6036 -0.1617
  854SOL    MW4 3491   2.412   1.258   1.505  0.5624  0.3753 -0.1037
  855SOL     OW 3492   2.451   1.546   1.595  0.3474 -0.1273 -0.1321
  855SOL    HW2 3493   2.531   1.596   1.578  1.0135 -0.4754  1.8116
  855SOL    HW3 3494   2.479   1.455   1.590 -0.5307 -0.3063 -2.1216
  855SOL    MW4 3495   2.466   1.541   1.592  0.3192 -0.1968 -0.1383
  856SOL     OW 3496   2.229   1.673   1.505  0.2540 -0.5969 -0.3181
  856SOL    HW2 3497   2.308   1.636   1.544  0.5304  0.3582  0.0391
  856SOL    HW3 3498   2.247   1.673   1.411  1.3360  1.0817 -0.1336
  856SOL    MW4 3499   2.242   1.668   1.498  0.4332 -0.2493 -0.2466
  857SOL     OW 3500   2.260   1.943   1.621 -0.2523 -0.6761 -0.0658
  857SOL    HW2 3501   2.254   1.913   1.712 -1.1257  0.4905  0.2757
  857SOL    HW3 3502   2.234   1.867   1.569  0.2912 -1.3648  0.6531
  857SOL    MW4 3503   2.256   1.929   1.626 -0.2956 -0.6131  0.0739
  858SOL     OW 3504   2.482   2.086   1.495  0.2592  0.1549  0.0277
  858SOL    HW2 3505   2.413   2.038   1.540  0.6755 -0.2256  0.2701
  858SOL    HW3 3506   2.479   2.054   1.405  0.2002  0.0461  0.0680
  858SOL    MW4 3507   2.473   2.075   1.489  0.3064  0.0904  0.0650
  859SOL     OW 3508   2.451   2.340   1.593  0.0716 -0.2960  0.2155
  859SOL    HW2 3509   2.446   2.323   1.687  3.7387 -0.3551  0.4474
  859SOL    HW3 3510   2.453   2.254   1.552  1.2040 -0.3091  0.2809
  859SOL    MW4 3511   2.450   2.327   1.600  0.7048 -0.3057  0.2546
  860SOL     OW 3512   2.220   2.489   1.528  0.3707  0.1322  0.2394
  860SOL    HW2 3513   2.298   2.437   1.551 -0.2870 -1.6233 -1.3773
  860SOL    HW3 3514   2.147   2.438   1.563 -0.2549  0.1415 -1.0458
  860SOL    MW4 3515   2.221   2.475   1.536  0.2010 -0.0982 -0.1435
  861SOL     OW 3516   2.182   2.740   1.578  0.1719 -0.2758 -0.0371
  861SOL    HW2 3517   2.187   2.645   1.565  0.9766 -0.4217  1.1832
  861SOL    HW3 3518   2.098   2.765   1.541 -0.8201 -1.7458  1.1247
  861SOL    MW4 3519   2.172   2.731   1.572  0.1471 -0.4885  0.2772
  862SOL     OW 3520   2.421   2.873   1.505  0.0987 -0.0318  0.2567
  862SOL    HW2 3521   2.439   2.949   1.562  0.6932  0.3331 -0.4114
  862SOL    HW3 3522   2.335   2.842   1.534  0.7145 -0.3044  1.8509
  862SOL    MW4 3523   2.412   2.879   1.516  0.2584 -0.0196  0.3787
  863SOL     OW 3524   2.461   3.099   1.664  0.1545 -0.0661  0.2811
  863SOL    HW2 3525   2.522   3.146   1.607 -0.8480  1.4707  0.4551
  863SOL    HW3 3526   2.376   3.106   1.619 -0.2190 -0.7597  0.8611
  863SOL    MW4 3527   2.457   3.106   1.650 -0.0267  0.0455  0.3806
  864SOL     OW 3528   2.235   3.214   1.490  0.1636  0.2759 -0.3066
  864SOL    HW2 3529   2.248   3.294   1.542  0.3023  0.6390 -0.8889
  864SOL    HW3 3530   2.224   3.246   1.400 -0.4565 -0.3174 -0.4478
  864SOL    MW4 3531   2.235   3.229   1.485  0.1001  0.2456 -0.4021
  865SOL     OW 3532   2.271   3.477   1.578  0.1092  0.3033 -0.2501
  865SOL    HW2 3533   2.275   3.490   1.673  0.7979 -0.8703 -0.1062
  865SOL    HW3 3534   2.347   3.524   1.544  1.0857 -1.0272  0.0110
  865SOL    MW4 3535   2.282   3.485   1.586  0.3288 -0.0269 -0.1967
  866SOL     OW 3536   2.480   3.617   1.485 -0.1529 -0.2432  0.3172
  866SOL    HW2 3537   2.555   3.565   1.514 -0.3224 -1.6606 -1.7245
  866SOL    HW3 3538   2.507   3.708   1.499  1.0099 -0.7886  1.8243
  866SOL    MW4 3539   2.493   3.622   1.491 -0.0217 -0.5021  0.2466
  867SOL     OW 3540   2.536   3.878   1.568 -0.1891  0.0712 -0.2282
  867SOL    HW2 3541   2.534   3.887   1.663 -0.4800  0.5426 -0.2739
  867SOL    HW3 3542   2.596   3.946   1.538 -0.4677  0.2389 -0.4129
  867SOL    MW4 3543   2.544   3.888   1.577 -0.2642  0.1557 -0.2586
  868SOL     OW 3544   2.282   4.009   1.493 -0.0970  0.0479  0.2520
  868SOL    HW2 3545   2.371   3.985   1.521 -0.8896 -2.6188  0.5435
  868SOL    HW3 3546   2.288   4.015   1.398  0.3458 -0.3167  0.2563
  868SOL    MW4 3547   2.295   4.007   1.484 -0.1433 -0.3519  0.2911
  869SOL     OW 3548   2.264   4.278   1.548  0.3196  0.3082 -0.7443
  869SOL    HW2 3549   2.352   4.308   1.527  0.0139  1.4516 -0.3921
  869SOL    HW3 3550   2.260   4.189   1.512  1.7593  0.0894 -0.3627
  869SOL    MW4 3551   2.275   4.270   1.540  0.4690  0.4306 -0.6474
  870SOL     OW 3552   2.508   4.349   1.470  0.1181 -0.4766  0.4807
  870SOL    HW2 3553   2.510   4.431   1.519 -0.6876  0.2450 -0.6600
  870SOL    HW3 3554   2.498   4.376   1.379  1.0074 -1.8154 -0.0269
  870SOL    MW4 3555   2.507   4.364   1.464  0.1290 -0.5584  0.2633
  871SOL     OW 3556   2.943   4.646   1.589  0.4001 -0.2917  0.2890
  871SOL    HW2 3557   2.939   4.666   1.683 -0.3412  0.2631  0.1453
  871SOL    HW3 3558   2.866   4.689   1.552  1.0108 -0.0040 -0.6717
  871SOL    MW4 3559   2.932   4.654   1.597  0.3829 -0.1802  0.1433
  872SOL     OW 3560   2.703   0.070   1.492  0.1919  0.0584  0.0388
  872SOL    HW2 3561   2.702   0.153   1.539 -0.2081  0.1404 -0.1170
  872SOL    HW3 3562   2.634   0.018   1.534  0.2569 -0.0965 -0.0468
  872SOL    MW4 3563   2.694   0.074   1.504  0.1478  0.0488  0.0068
  873SOL     OW 3564   2.711   0.329   1.607  0.1063 -0.3884 -0.6232
  873SOL    HW2 3565   2.727   0.353   1.699 -1.8555  0.3803 -0.4585
  873SOL    HW3 3566   2.786   0.364   1.560 -0.6881  2.5962  0.1989
  873SOL    MW4 3567   2.723   0.337   1.613 -0.2575  0.1068 -0.4929
  874SOL     OW 3568   2.925   0.478   1.496 -0.2910  0.5282 -0.1993
  874SOL    HW2 3569   2.922   0.567   1.529 -0.0769  1.0506 -1.5740
  874SOL    HW3 3570   2.937   0.487   1.401  2.1768 -0.9754 -0.0773
  874SOL    MW4 3571   2.926   0.491   1.488  0.0627  0.3988 -0.3644
  875SOL     OW 3572   2.905   0.740   1.558 -0.0485  0.0194 -0.1740
  875SOL    HW2 3573   2.904   0.728   1.653  1.5303 -1.6537 -0.3395
  875SOL    HW3 3574   2.826   0.791   1.540 -1.3593 -1.1985  1.8369
  875SOL    MW4 3575   2.894   0.745   1.568 -0.0134 -0.3621  0.0695
  876SOL     OW 3576   2.679   0.893   1.506 -0.8435  0.1959 -0.0840
  876SOL    HW2 3577   2.608   0.848   1.551  0.3578 -0.9092  0.7554
  876SOL    HW3 3578   2.654   0.892   1.414 -0.8307 -2.2233 -0.0875
  876SOL    MW4 3579   2.667   0.887   1.500 -0.6833 -0.2691  0.0263
  877SOL     OW 3580   2.680   1.123   1.636  0.0716 -0.3392  0.9311
  877SOL    HW2 3581   2.687   1.041   1.589  1.1173  0.2033  0.1213
  877SOL    HW3 3582   2.592   1.155   1.615  0.7537  0.2089 -1.1979
  877SOL    MW4 3583   2.669   1.117   1.627  0.2995 -0.1953  0.5434
  878SOL     OW 3584   2.862   1.226   1.470  0.0675  0.2267 -0.5768
  878SOL    HW2 3585   2.948   1.188   1.489 -0.2734 -0.6095 -0.6898
  878SOL    HW3 3586   2.806   1.198   1.543  0.0142  1.2027 -0.2322
  878SOL    MW4 3587   2.866   1.218   1.482  0.0153  0.2450 -0.5462
  879SOL     OW 3588   2.862   1.488   1.574 -0.0978  0.1395  0.0341
  879SOL    HW2 3589   2.796   1.547   1.537  1.2084  0.6606 -1.5547
  879SOL    HW3 3590   2.854   1.408   1.521 -0.6056 -0.4353  0.9673
  879SOL    MW4 3591   2.852   1.485   1.562  0.0074  0.1324 -0.0525
  880SOL     OW 3592   2.682   1.679   1.510  0.5367 -0.3843 -0.1857
  880SOL    HW2 3593   2.697   1.771   1.533 -2.2211  0.0797 -0.0641
  880SOL    HW3 3594   2.686   1.678   1.415 -0.6239  0.0936 -0.2423
  880SOL    MW4 3595   2.685   1.691   1.501  0.0196 -0.2600 -0.1770
  881SOL     OW 3596   2.716   1.952   1.570 -0.0727  0.0607 -0.0531
  881SOL    HW2 3597   2.715   1.946   1.665  2.0354  2.2350  0.1650
  881SOL    HW3 3598   2.633   1.995   1.548 -1.8288 -2.9572  0.5429
  881SOL    MW4 3599   2.705   1.957   1.579 -0.0265 -0.0505  0.0544
  882SOL     OW 3600   2.949   2.065   1.503  0.0170  0.5704  0.3645
  882SOL    HW2 3601   2.945   2.152   1.544 -0.0227 -0.4089  2.5269
  882SOL    HW3 3602   2.870   2.021   1.533  0.3140 -0.3926 -0.2653
  882SOL    MW4 3603   2.938   2.071   1.513  0.0510  0.3142  0.5667
  883SOL     OW 3604   2.908   2.308   1.624  0.1644  0.0553  0.0871
  883SOL    HW2 3605   2.915   2.329   1.717 -0.4413  0.7996 -0.0243
  883SOL    HW3 3606   2.825   2.348   1.597  1.2896  1.5554 -1.2213
  883SOL    MW4 3607   2.898   2.316   1.633  0.2327  0.3512 -0.1001
  884SOL     OW 3608   2.694   2.446   1.526  0.0511 -0.0282  0.1221
  884SOL    HW2 3609   2.697   2.535   1.562 -1.0160  0.4715 -0.9803
  884SOL    HW3 3610   2.612   2.410   1.559 -0.3211 -0.0113 -0.7735
  884SOL    MW4 3611   2.683   2.453   1.535 -0.1388  0.0401 -0.1417
  885SOL     OW 3612   2.672   2.715   1.601  0.4301  0.3734 -0.4484
  885SOL    HW2 3613   2.733   2.774   1.558  0.0544  1.4040  0.4062
  885SOL    HW3 3614   2.587   2.757   1.591  0.0470 -0.3907 -0.4721
  885SOL    MW4 3615   2.669   2.728   1.594  0.3300  0.4082 -0.3387
  886SOL     OW 3616   2.891   2.869   1.471 -0.0032 -0.6256  0.4169
  886SOL    HW2 3617   2.959   2.813   1.509  0.6794 -0.2963 -0.3203
  886SOL    HW3 3618   2.906   2.955   1.511  0.2138 -0.4739  0.0091
  886SOL    MW4 3619   2.902   2.873   1.482  0.1156 -0.5622  0.2658
  887SOL     OW 3620   2.910   3.132   1.590 -0.3068  0.6926 -0.0894
  887SOL    HW2 3621   2.910   3.134   1.686 -1.1708 -1.1844 -0.0112
  887SOL    HW3 3622   2.988   3.181   1.564 -0.3410  1.6333  1.5588
  887SOL    MW4 3623   2.920   3.139   1.599 -0.4253  0.5689  0.1382
  888SOL     OW 3624   2.662   3.220   1.529 -0.2569 -0.2219 -0.1895
  888SOL    HW2 3625   2.746   3.177   1.542 -0.2873 -0.3128 -0.2912
  888SOL    HW3 3626   2.660   3.240   1.435  1.4136  3.4210  0.4515
  888SOL    MW4 3627   2.673   3.217   1.518 -0.0403  0.2470 -0.1183
  889SOL     OW 3628   2.699   3.481   1.600 -0.0650 -0.2179 -0.1782
  889SOL    HW2 3629   2.709   3.474   1.695 -0.3040 -1.9255 -0.2627
  889SOL    HW3 3630   2.683   3.392   1.571 -0.5289  0.3654 -1.7750
  889SOL    MW4 3631   2.699   3.469   1.609 -0.1576 -0.3662 -0.4001
  890SOL     OW 3632   2.930   3.598   1.515 -0.0487  0.4158 -0.1748
  890SOL    HW2 3633   2.850   3.554   1.543  0.5798  0.1823  1.3443
  890SOL    HW3 3634   2.926   3.598   1.420 -0.8681 -1.4504 -0.1724
  890SOL    MW4 3635   2.919   3.592   1.506 -0.0741  0.1385  0.0261
  891SOL     OW 3636   2.921   3.865   1.613  0.0576  0.0135  0.0805
  891SOL    HW2 3637   2.853   3.917   1.569  0.0381  0.5439  0.7398
  891SOL    HW3 3638   2.911   3.777   1.575  0.9445  0.7778 -1.9903
  891SOL    MW4 3639   2.911   3.860   1.602  0.1719  0.1845 -0.1057
  892SOL     OW 3640   2.735   4.016   1.467  0.0226 -0.1472  0.6885
  892SOL    HW2 3641   2.747   4.105   1.499 -0.7085 -0.4953  1.9673
  892SOL    HW3 3642   2.720   4.026   1.373  1.6166  0.9286  0.5458
  892SOL    MW4 3643   2.734   4.029   1.459  0.1361 -0.0510  0.8384
  893SOL     OW 3644   2.754   4.270   1.593 -0.1946 -0.2544  0.0518
  893SOL    HW2 3645   2.832   4.314   1.558 -0.2052  0.7500  1.2459
  893SOL    HW3 3646   2.682   4.304   1.541 -0.0810  0.4141  0.3273
  893SOL    MW4 3647   2.755   4.280   1.582 -0.1810 -0.0339  0.2456
  894SOL     OW 3648   2.959   4.400   1.437  0.0300 -0.0105 -0.5678
  894SOL    HW2 3649   2.953   4.484   1.482 -2.2539 -0.5020  0.1086
  894SOL    HW3 3650   2.959   4.422   1.344  0.5370  0.7733 -0.3849
  894SOL    MW4 3651   2.958   4.414   1.431 -0.2046  0.0281 -0.4543
  895SOL     OW 3652   3.384   4.649   1.636  0.1460  0.7042 -0.3059
  895SOL    HW2 3653   3.466   4.686   1.604  0.5170 -0.8306 -1.2227
  895SOL    HW3 3654   3.393   4.555   1.621 -1.2702  0.3728  0.7646
  895SOL    MW4 3655   3.396   4.641   1.630  0.0081  0.4582 -0.2854
  896SOL     OW 3656   3.172   0.091   1.507 -0.2759 -0.5281  0.2487
  896SOL    HW2 3657   3.244   0.055   1.558 -0.1275 -0.1452  0.3115
  896SOL    HW3 3658   3.093   0.054   1.546 -0.1794 -0.0090  0.9385
  896SOL    MW4 3659   3.171   0.081   1.519 -0.2437 -0.4091  0.3480
  897SOL     OW 3660   3.172   0.345   1.630  0.0383 -0.2684 -0.3537
  897SOL    HW2 3661   3.180   0.260   1.587  0.6241 -0.9162  0.9887
  897SOL    HW3 3662   3.093   0.383   1.592  0.1763 -1.1005 -1.5028
  897SOL    MW4 3663   3.162   0.339   1.619  0.1338 -0.4636 -0.3283
  898SOL     OW 3664   3.399   0.489   1.575  0.3546 -0.2819 -0.2594
  898SOL    HW2 3665   3.312   0.454   1.595  0.3092 -0.0161  0.0221
  898SOL    HW3 3666   3.406   0.483   1.480  0.4931 -1.3854 -0.1812
  898SOL    MW4 3667   3.388   0.484   1.565  0.3667 -0.3924 -0.2117
  899SOL     OW 3668   3.386   0.770   1.576 -0.4583 -0.0698 -0.5785
  899SOL    HW2 3669   3.399   0.787   1.669  1.3089 -2.3503 -0.3625
  899SOL    HW3 3670   3.395   0.675   1.567 -4.4117 -0.3841 -2.5087
  899SOL    MW4 3671   3.389   0.760   1.587 -0.7465 -0.4122 -0.8045
  900SOL     OW 3672   3.138   0.862   1.475 -0.1902 -0.0289  0.5264
  900SOL    HW2 3673   3.208   0.824   1.528  0.1970  0.8285  0.6284
  900SOL    HW3 3674   3.057   0.830   1.517  0.1034  1.5162  2.2965
  900SOL    MW4 3675   3.136   0.853   1.488 -0.1001  0.2881  0.7734
  901SOL     OW 3676   3.117   1.121   1.556  0.2421 -0.0101  0.1949
  901SOL    HW2 3677   3.127   1.108   1.650 -1.6624  0.4408  0.4786
  901SOL    HW3 3678   3.116   1.032   1.520 -0.2340 -0.2281  0.7372
  901SOL    MW4 3679   3.118   1.108   1.564 -0.0718  0.0205  0.3040
  902SOL     OW 3680   3.331   1.270   1.466  0.1239 -0.1695 -0.4672
  902SOL    HW2 3681   3.414   1.233   1.497  0.2086  0.7098  0.3842
  902SOL    HW3 3682   3.264   1.218   1.509  0.2379 -0.4582 -0.6384
  902SOL    MW4 3683   3.333   1.258   1.476  0.1500 -0.0916 -0.3772
  903SOL     OW 3684   3.364   1.529   1.586  0.6438  0.0233  0.0125
  903SOL    HW2 3685   3.370   1.518   1.680  1.4956  0.1918 -0.0168
  903SOL    HW3 3686   3.352   1.441   1.551 -0.6593  0.0604  0.3423
  903SOL    MW4 3687   3.363   1.516   1.594  0.5841  0.0504  0.0520
  904SOL     OW 3688   3.109   1.649   1.520 -0.8290 -0.0337 -0.3508
  904SOL    HW2 3689   3.190   1.608   1.548 -0.1117  0.6312 -1.4115
  904SOL    HW3 3690   3.040   1.590   1.549 -0.0234 -0.1190  1.4289
  904SOL    MW4 3691   3.110   1.636   1.528 -0.6280  0.0428 -0.2559
  905SOL     OW 3692   3.152   1.903   1.619  0.2126  0.3671 -0.0076
  905SOL    HW2 3693   3.144   1.822   1.570 -0.3365  0.2756  0.2293
  905SOL    HW3 3694   3.076   1.955   1.592 -0.8949 -0.2666  1.8247
  905SOL    MW4 3695   3.141   1.899   1.609 -0.0060  0.2714  0.2654
  906SOL     OW 3696   3.361   2.052   1.518  0.0030 -0.1799 -0.1104
  906SOL    HW2 3697   3.279   2.022   1.558 -0.0048  0.4343  0.3357
  906SOL    HW3 3698   3.350   2.035   1.424 -0.7182  0.1028 -0.0757
  906SOL    MW4 3699   3.349   2.046   1.511 -0.0930 -0.0618 -0.0470
  907SOL     OW 3700   3.357   2.322   1.574 -0.2241 -0.1857  0.5301
  907SOL    HW2 3701   3.440   2.365   1.556 -1.1358  1.1569 -0.5793
  907SOL    HW3 3702   3.370   2.232   1.544  1.6402 -0.6826  2.7106
  907SOL    MW4 3703   3.369   2.316   1.567 -0.0987 -0.0739  0.6715
  908SOL     OW 3704   3.111   2.444   1.493 -0.8845 -0.4060 -0.2653
  908SOL    HW2 3705   3.187   2.392   1.520 -0.3371  1.1698  1.3685
  908SOL    HW3 3706   3.038   2.409   1.544 -0.7606 -0.3651 -0.0591
  908SOL    MW4 3707   3.112   2.433   1.504 -0.7961 -0.1926 -0.0225
  909SOL     OW 3708   3.081   2.703   1.611  0.6257  0.2059  0.1054
  909SOL    HW2 3709   3.160   2.755   1.597  0.5082 -0.1162 -1.9525
  909SOL    HW3 3710   3.103   2.616   1.579 -0.1255 -0.2454  0.7909
  909SOL    MW4 3711   3.094   2.699   1.605  0.5112  0.1040 -0.0757
  910SOL     OW 3712   3.354   2.819   1.549 -0.1581  0.3854  0.1585
  910SOL    HW2 3713   3.364   2.913   1.565 -0.0893  0.4160 -0.0578
  910SOL    HW3 3714   3.352   2.811   1.453  2.3869 -0.0990  0.1058
  910SOL    MW4 3715   3.355   2.830   1.538  0.1869  0.3257  0.1229
  911SOL     OW 3716   3.350   3.079   1.606  0.2041  0.1905 -0.0115
  911SOL    HW2 3717   3.356   3.093   1.701  1.7385 -0.2533 -0.0290
  911SOL    HW3 3718   3.426   3.125   1.571 -0.1972  0.0959 -1.0042
  911SOL    MW4 3719   3.361   3.087   1.614  0.3536  0.1199 -0.1448
  912SOL     OW 3720   3.145   3.269   1.523 -0.5224 -0.0988 -0.8143
  912SOL    HW2 3721   3.212   3.207   1.551  1.3096  1.1901 -2.1778
  912SOL    HW3 3722   3.131   3.251   1.430 -0.1406  1.3306 -1.1698
  912SOL    MW4 3723   3.152   3.259   1.514 -0.2303  0.2599 -1.0411
  913SOL     OW 3724   3.147   3.512   1.658 -0.3097  0.0274 -0.1421
  913SOL    HW2 3725   3.145   3.425   1.617 -1.2042 -0.4171  0.8193
  913SOL    HW3 3726   3.071   3.557   1.621  1.3581  1.1862 -2.2758
  913SOL    MW4 3727   3.137   3.507   1.648 -0.2077  0.1216 -0.2966
  914SOL     OW 3728   3.381   3.586   1.533  0.0124 -0.2610 -0.0683
  914SOL    HW2 3729   3.457   3.556   1.584 -0.2835  2.0602  1.8810
  914SOL    HW3 3730   3.306   3.549   1.578 -0.1813  0.6476  0.3710
  914SOL    MW4 3731   3.381   3.577   1.546 -0.0520  0.1655  0.2470
  915SOL     OW 3732   3.381   3.860   1.614  0.3943 -0.1121 -0.2016
  915SOL    HW2 3733   3.302   3.896   1.574 -0.1498 -0.3021  0.6841
  915SOL    HW3 3734   3.381   3.768   1.589  0.3782 -0.0954 -0.2635
  915SOL    MW4 3735   3.371   3.853   1.606  0.3202 -0.1349 -0.0930
  916SOL     OW 3736   3.151   3.956   1.498  0.0463  0.4415  0.2632
  916SOL    HW2 3737   3.147   4.049   1.522 -0.1466  1.0018 -1.8848
  916SOL    HW3 3738   3.078   3.917   1.547  1.0716  1.0877  2.4077
  916SOL    MW4 3739   3.141   3.963   1.508  0.1559  0.6008  0.2627
  917SOL     OW 3740   3.155   4.215   1.579 -0.4651  0.1447  0.0663
  917SOL    HW2 3741   3.156   4.238   1.672 -0.5936  1.8631 -0.3286
  917SOL    HW3 3742   3.083   4.267   1.542  0.0131 -0.0031 -1.1187
  917SOL    MW4 3743   3.146   4.225   1.586 -0.4187  0.3524 -0.1420
  918SOL     OW 3744   3.379   4.383   1.543 -0.0692  0.0756  0.0907
  918SOL    HW2 3745   3.289   4.352   1.547 -0.8451  2.0091 -1.5620
  918SOL    HW3 3746   3.401   4.381   1.450  0.5792  2.4145  0.1742
  918SOL    MW4 3747   3.370   4.379   1.531 -0.0858  0.6394 -0.1165
  919SOL     OW 3748   3.844   4.652   1.601  0.1879 -0.3078  0.1816
  919SOL    HW2 3749   3.847   4.662   1.696  1.8678 -1.9792  0.3157
  919SOL    HW3 3750   3.917   4.706   1.569 -0.1933  0.0173 -0.1512
  919SOL    MW4 3751   3.854   4.661   1.609  0.3593 -0.4854  0.1553
  920SOL     OW 3752   3.605   0.113   1.504  0.9345 -0.2136 -0.1314
  920SOL    HW2 3753   3.684   0.070   1.536 -0.0033 -2.0215 -0.1555
  920SOL    HW3 3754   3.598   0.084   1.413  0.4548  0.2571 -0.2461
  920SOL    MW4 3755   3.615   0.103   1.496  0.7477 -0.3900 -0.1497
  921SOL     OW 3756   3.642   0.383   1.590 -0.5129 -0.0142 -0.1176
  921SOL    HW2 3757   3.634   0.300   1.543 -2.4667  0.3746 -0.5387
  921SOL    HW3 3758   3.551   0.414   1.599  0.0327  1.1537  1.6921
  921SOL    MW4 3759   3.629   0.376   1.585 -0.6988  0.1912  0.0657
  922SOL     OW 3760   3.859   0.512   1.462  0.5204 -0.0949  0.4654
  922SOL    HW2 3761   3.792   0.449   1.486  0.1025  0.2663  0.2454
  922SOL    HW3 3762   3.859   0.512   1.366  2.0813 -1.4332  0.4306
  922SOL    MW4 3763   3.850   0.504   1.452  0.6709 -0.2238  0.4317
  923SOL     OW 3764   3.827   0.739   1.610  0.4782 -0.0604  0.0692
  923SOL    HW2 3765   3.754   0.789   1.573  0.8246 -0.2020 -0.8371
  923SOL    HW3 3766   3.822   0.654   1.566  1.3163  0.0069 -0.1775
  923SOL    MW4 3767   3.817   0.734   1.599  0.6344 -0.0702 -0.0830
  924SOL     OW 3768   3.620   0.897   1.485  0.0958 -0.5533 -0.0858
  924SOL    HW2 3769   3.544   0.848   1.515  0.3508 -0.2103  1.1752
  924SOL    HW3 3770   3.621   0.886   1.390 -1.0169 -1.2826 -0.0149
  924SOL    MW4 3771   3.610   0.889   1.476 -0.0172 -0.6042  0.0899
  925SOL     OW 3772   3.565   1.173   1.563  0.0903 -0.0593  0.1383
  925SOL    HW2 3773   3.648   1.220   1.550  0.1450 -0.3759 -0.6735
  925SOL    HW3 3774   3.585   1.082   1.543 -0.8123  0.0991 -1.5966
  925SOL    MW4 3775   3.578   1.167   1.559 -0.0215 -0.0802 -0.1978
  926SOL     OW 3776   3.808   1.300   1.499  0.5031  0.0627  0.0888
  926SOL    HW2 3777   3.882   1.257   1.541 -0.0427 -0.0460  0.9440
  926SOL    HW3 3778   3.819   1.393   1.520  0.9083  0.1685 -0.5751
  926SOL    MW4 3779   3.819   1.307   1.507  0.4847  0.0623  0.1141
  927SOL     OW 3780   3.832   1.573   1.522  0.0862 -0.0694  0.1528
  927SOL    HW2 3781   3.854   1.575   1.615 -0.2652  0.1278  0.2319
  927SOL    HW3 3782   3.743   1.607   1.517  0.0557 -0.2008 -0.2428
  927SOL    MW4 3783   3.823   1.578   1.533  0.0355 -0.0608  0.1110
  928SOL     OW 3784   3.573   1.657   1.457  0.3100 -0.0070 -0.3358
  928SOL    HW2 3785   3.502   1.613   1.502  0.0650  0.9155  0.1848
  928SOL    HW3 3786   3.542   1.668   1.367 -0.6751  1.4193  0.1669
  928SOL    MW4 3787   3.560   1.653   1.451  0.1478  0.3028 -0.2009
  929SOL     OW 3788   3.591   1.895   1.591 -0.1218  0.2053  0.1761
  929SOL    HW2 3789   3.577   1.804   1.564 -0.9033  0.5838 -0.7127
  929SOL    HW3 3790   3.511   1.940   1.566  0.1357  1.0792  0.9141
  929SOL    MW4 3791   3.579   1.889   1.584 -0.1907  0.3706  0.1560
  930SOL     OW 3792   3.803   2.036   1.488 -0.6104  1.0085 -0.1583
  930SOL    HW2 3793   3.799   2.125   1.523  0.4707  0.6783  0.8229
  930SOL    HW3 3794   3.723   1.994   1.520 -1.0827  1.5867 -0.5523
  930SOL    MW4 3795   3.792   2.042   1.497 -0.5300  1.0412 -0.0809
  931SOL     OW 3796   3.820   2.289   1.583  0.0018  0.1171 -0.2543
  931SOL    HW2 3797   3.827   2.285   1.678  0.0494 -0.4784 -0.2792
  931SOL    HW3 3798   3.902   2.330   1.555  0.1329 -0.0105 -0.0594
  931SOL    MW4 3799   3.832   2.294   1.592  0.0253  0.0219 -0.2319
  932SOL     OW 3800   3.599   2.440   1.491 -0.2978 -0.1956  0.0530
  932SOL    HW2 3801   3.597   2.520   1.544  1.3786  1.0199 -1.6203
  932SOL    HW3 3802   3.668   2.387   1.532 -0.4829 -0.1898  0.3721
  932SOL    MW4 3803   3.608   2.443   1.504 -0.1009 -0.0346 -0.1256
  933SOL     OW 3804   3.567   2.666   1.628 -0.2254 -0.3327  0.4380
  933SOL    HW2 3805   3.575   2.685   1.722 -0.4168 -0.9142  0.5706
  933SOL    HW3 3806   3.487   2.712   1.602  1.3109  2.1305 -0.0360
  933SOL    MW4 3807   3.558   2.675   1.637 -0.0479 -0.0842  0.3929
  934SOL     OW 3808   3.785   2.813   1.541  0.6146  0.1955  0.1205
  934SOL    HW2 3809   3.854   2.754   1.572  1.6629  1.3406  0.0056
  934SOL    HW3 3810   3.706   2.781   1.584  1.3717 -0.5905  0.9635
  934SOL    MW4 3811   3.784   2.801   1.551  0.8526  0.2427  0.2166
  935SOL     OW 3812   3.785   3.078   1.610 -0.3238  0.3792 -0.0955
  935SOL    HW2 3813   3.869   3.114   1.582 -0.1773  0.2167  0.1324
  935SOL    HW3 3814   3.788   2.987   1.583  0.2292 -0.0399  1.3277
  935SOL    MW4 3815   3.797   3.071   1.603 -0.2315  0.3023  0.1223
  936SOL     OW 3816   3.572   3.229   1.510 -0.1252  0.3076 -0.2382
  936SOL    HW2 3817   3.638   3.162   1.530 -0.9277 -0.4827 -0.2137
  936SOL    HW3 3818   3.572   3.235   1.414  0.7846  1.1279 -0.1934
  936SOL    MW4 3819   3.581   3.221   1.500 -0.1109  0.3116 -0.2290
  937SOL     OW 3820   3.609   3.463   1.656 -0.1547  0.6263  0.2808
  937SOL    HW2 3821   3.675   3.516   1.610 -1.3310  1.4671 -0.4942
  937SOL    HW3 3822   3.613   3.378   1.613 -0.2780  0.9866 -0.4706
  937SOL    MW4 3823   3.619   3.459   1.644 -0.3264  0.7846  0.0795
  938SOL     OW 3824   3.818   3.608   1.522  0.2633 -0.3729  0.1357
  938SOL    HW2 3825   3.896   3.563   1.555  0.9497  0.6750 -0.0407
  938SOL    HW3 3826   3.819   3.693   1.565  0.2453  0.3564 -1.2924
  938SOL    MW4 3827   3.828   3.613   1.532  0.3514 -0.1388 -0.0761
  939SOL     OW 3828   3.838   3.873   1.612 -0.2937  0.3819 -0.4924
  939SOL    HW2 3829   3.917   3.921   1.587 -0.7593  1.1050 -0.6012
  939SOL    HW3 3830   3.767   3.925   1.575 -0.8517  0.0637  0.1446
  939SOL    MW4 3831   3.839   3.886   1.604 -0.4289  0.4351 -0.4227
  940SOL     OW 3832   3.592   3.986   1.504 -0.2426  0.1063  0.3711
  940SOL    HW2 3833   3.604   4.073   1.543  0.7019  0.0454  0.2175
  940SOL    HW3 3834   3.518   3.948   1.552  0.2461  0.4370  1.3974
  940SOL    MW4 3835   3.584   3.993   1.516 -0.0539  0.1423  0.4861
  941SOL     OW 3836   3.593   4.239   1.617  0.0033  0.2379 -0.1274
  941SOL    HW2 3837   3.605   4.237   1.712  0.9752  1.6802 -0.1989
  941SOL    HW3 3838   3.504   4.273   1.605 -0.1180  0.0621  0.2663
  941SOL    MW4 3839   3.583   4.243   1.628  0.1156  0.4053 -0.0848
  942SOL     OW 3840   3.805   4.377   1.533  0.0887 -0.3885  0.2807
  942SOL    HW2 3841   3.732   4.333   1.577  0.1843 -1.6922 -0.8124
  942SOL    HW3 3842   3.807   4.465   1.571 -3.0554  0.2093 -0.7814
  942SOL    MW4 3843   3.795   4.383   1.544 -0.3135 -0.4816 -0.0037
  943SOL     OW 3844   4.284   4.646   1.593 -0.0465 -0.5388  0.0447
  943SOL    HW2 3845   4.257   4.660   1.684 -1.0958 -1.1349 -0.1623
  943SOL    HW3 3846   4.288   4.551   1.583 -3.4493 -0.6245 -1.4701
  943SOL    MW4 3847   4.281   4.636   1.604 -0.6337 -0.6289 -0.1824
  944SOL     OW 3848   4.061   0.118   1.474 -0.2873  0.3684  0.4445
  944SOL    HW2 3849   4.064   0.202   1.519 -1.2779 -0.5159  2.2183
  944SOL    HW3 3850   4.125   0.064   1.519  0.2387  0.1103 -0.5916
  944SOL    MW4 3851   4.070   0.122   1.486 -0.3481  0.2177  0.5418
  945SOL     OW 3852   4.092   0.398   1.590 -0.2732 -0.5866 -0.8489
  945SOL    HW2 3853   4.070   0.382   1.681 -0.6230  0.0122 -0.8183
  945SOL    HW3 3854   4.018   0.449   1.556 -0.0795 -0.6776 -1.4218
  945SOL    MW4 3855   4.079   0.403   1.598 -0.2942 -0.5196 -0.9204
  946SOL     OW 3856   4.337   0.516   1.537 -0.1254  0.3763  0.3039
  946SOL    HW2 3857   4.257   0.466   1.549 -0.4072  0.7759  0.1175
  946SOL    HW3 3858   4.408   0.453   1.550 -0.4183  0.4846  2.6654
  946SOL    MW4 3859   4.336   0.501   1.540 -0.2017  0.4432  0.5908
  947SOL     OW 3860   4.274   0.764   1.626  0.2122  0.5580  0.3123
  947SOL    HW2 3861   4.297   0.679   1.589  0.0213 -0.3770  2.3209
  947SOL    HW3 3862   4.349   0.820   1.606  1.2433 -0.6394  0.8321
  947SOL    MW4 3863   4.287   0.760   1.618  0.3228  0.2767  0.6460
  948SOL     OW 3864   4.048   0.853   1.493  0.1005 -0.0632  0.0342
  948SOL    HW2 3865   4.124   0.822   1.542 -0.6649 -0.6333  0.8668
  948SOL    HW3 3866   3.975   0.801   1.525 -0.6743  0.5639 -0.6732
  948SOL    MW4 3867   4.048   0.842   1.503 -0.1030 -0.0557  0.0505
  949SOL     OW 3868   4.021   1.118   1.585  0.2940 -0.3682  0.3492
  949SOL    HW2 3869   4.028   1.118   1.680 -0.8423 -0.6690  0.4396
  949SOL    HW3 3870   4.012   1.026   1.561 -2.5298 -0.1014  0.2128
  949SOL    MW4 3871   4.021   1.106   1.594 -0.2289 -0.3726  0.3431
  950SOL     OW 3872   4.234   1.288   1.518 -0.3292  0.0868  0.2664
  950SOL    HW2 3873   4.163   1.227   1.537  0.1861 -0.9099 -0.9542
  950SOL    HW3 3874   4.313   1.242   1.547  0.2693 -0.6667 -2.3885
  950SOL    MW4 3875   4.235   1.274   1.525 -0.1822 -0.1441 -0.2449
  951SOL     OW 3876   4.214   1.565   1.626  0.3179 -0.1098 -0.0013
  951SOL    HW2 3877   4.206   1.479   1.585  0.5027  0.0205 -0.3144
  951SOL    HW3 3878   4.295   1.601   1.591  0.4401  0.0315  0.4331
  951SOL    MW4 3879   4.223   1.559   1.616  0.3586 -0.0739  0.0147
  952SOL     OW 3880   4.052   1.692   1.418 -0.1502 -0.5214 -0.8313
  952SOL    HW2 3881   4.113   1.638   1.469 -1.7234 -1.6891 -0.1541
  952SOL    HW3 3882   3.965   1.663   1.447 -1.0223  1.6208 -1.2610
  952SOL    MW4 3883   4.049   1.681   1.429 -0.4730 -0.3928 -0.7987
  953SOL     OW 3884   4.049   1.925   1.583  0.0963 -0.5626  0.2959
  953SOL    HW2 3885   4.045   1.843   1.535  0.4078  0.0787 -0.8369
  953SOL    HW3 3886   3.963   1.964   1.572  0.2964 -0.2220 -0.1065
  953SOL    MW4 3887   4.037   1.919   1.576  0.1636 -0.4331  0.0932
  954SOL     OW 3888   4.303   2.058   1.479  0.1029  0.7288  0.2517
  954SOL    HW2 3889   4.226   2.003   1.496 -0.8860  2.3140  0.9623
  954SOL    HW3 3890   4.302   2.071   1.384 -1.1692  1.6764  0.3824
  954SOL    MW4 3891   4.293   2.052   1.469 -0.1955  1.0631  0.3626
  955SOL     OW 3892   4.305   2.304   1.611  0.0373 -0.2433  0.3601
  955SOL    HW2 3893   4.297   2.297   1.706  0.0876 -0.3654  0.3556
  955SOL    HW3 3894   4.305   2.213   1.580  0.2863 -0.2129  0.2659
  955SOL    MW4 3895   4.304   2.291   1.619  0.0768 -0.2553  0.3470
  956SOL     OW 3896   4.037   2.420   1.476 -0.1159  0.1594  0.2544
  956SOL    HW2 3897   4.032   2.503   1.524  0.5388  1.3124 -1.6344
  956SOL    HW3 3898   4.120   2.382   1.503  0.2277  0.7809  0.0827
  956SOL    MW4 3899   4.047   2.426   1.486  0.0162  0.3934 -0.0174
  957SOL     OW 3900   4.009   2.684   1.603  0.1507  0.0770 -0.0430
  957SOL    HW2 3901   4.020   2.682   1.698  0.1496 -0.7319 -0.0599
  957SOL    HW3 3902   4.093   2.715   1.570 -0.3578  1.8725  0.3105
  957SOL    MW4 3903   4.021   2.688   1.612  0.0839  0.2069  0.0014
  958SOL     OW 3904   4.248   2.792   1.494  0.3472  0.5418 -0.0581
  958SOL    HW2 3905   4.236   2.875   1.539 -0.5456  0.8051 -0.7589
  958SOL    HW3 3906   4.261   2.817   1.402 -1.0272 -0.1321 -0.4490
  958SOL    MW4 3907   4.248   2.806   1.488  0.0482  0.4873 -0.2022
  959SOL     OW 3908   4.249   3.048   1.611 -0.4352 -0.0467 -0.1655
  959SOL    HW2 3909   4.230   3.046   1.704 -0.9125 -1.1880 -0.2655
  959SOL    HW3 3910   4.336   3.086   1.604 -0.6949  0.7033  0.6907
  959SOL    MW4 3911   4.258   3.052   1.622 -0.5322 -0.0985 -0.0657
  960SOL     OW 3912   4.038   3.207   1.513  0.4843  0.1880  0.2778
  960SOL    HW2 3913   4.045   3.297   1.545  1.4733 -0.0565  0.7501
  960SOL    HW3 3914   4.120   3.165   1.539  0.6382 -0.4639 -1.1947
  960SOL    MW4 3915   4.050   3.214   1.521  0.6347  0.0696  0.1459
  961SOL     OW 3916   4.043   3.462   1.622  0.2708 -0.6705 -0.0944
  961SOL    HW2 3917   4.037   3.464   1.718  1.1012 -1.1058 -0.0230
  961SOL    HW3 3918   4.129   3.501   1.603  0.4421 -1.2867 -0.6147
  961SOL    MW4 3919   4.054   3.467   1.632  0.4034 -0.8094 -0.1537
  962SOL     OW 3920   4.261   3.592   1.528  0.4241  0.1648  0.3237
  962SOL    HW2 3921   4.256   3.674   1.577 -1.4806  0.7776 -0.8417
  962SOL    HW3 3922   4.255   3.619   1.436  1.8558 -1.1371 -0.1704
  962SOL    MW4 3923   4.260   3.607   1.523  0.3619  0.0739  0.1047
  963SOL     OW 3924   4.284   3.867   1.627 -0.1423 -0.4458 -0.1629
  963SOL    HW2 3925   4.207   3.911   1.590 -0.5584 -0.5887  0.5151
  963SOL    HW3 3926   4.357   3.926   1.609 -0.5484  0.0937 -0.0590
  963SOL    MW4 3927   4.283   3.881   1.620 -0.2508 -0.3934 -0.0597
  964SOL     OW 3928   4.044   4.016   1.536  0.2245  0.1507  0.2004
  964SOL    HW2 3929   4.044   4.112   1.540 -0.7144  0.2132 -1.1529
  964SOL    HW3 3930   4.057   3.996   1.443 -2.1799 -0.9955  0.0818
  964SOL    MW4 3931   4.046   4.026   1.524 -0.2165  0.0076  0.0062
  965SOL     OW 3932   4.053   4.279   1.587 -0.2693  0.2315  0.4535
  965SOL    HW2 3933   4.042   4.273   1.682 -1.3000 -1.5368  0.2482
  965SOL    HW3 3934   3.968   4.307   1.554 -0.1126  0.1719 -0.0043
  965SOL    MW4 3935   4.040   4.282   1.595 -0.3848 -0.0095  0.3661
  966SOL     OW 3936   4.329   4.373   1.533  0.5987  0.3113  0.0431
  966SOL    HW2 3937   4.254   4.314   1.544  0.9502 -0.1879 -0.2634
  966SOL    HW3 3938   4.323   4.403   1.443  0.3406  0.8598  0.2377
  966SOL    MW4 3939   4.318   4.369   1.523  0.6108  0.3176  0.0284
  967SOL     OW 3940   0.225   4.634   1.890 -0.3689  0.3192 -0.2129
  967SOL    HW2 3941   0.303   4.682   1.917 -0.6419 -0.2088  1.5865
  967SOL    HW3 3942   0.234   4.625   1.795  1.1599  1.2970 -0.1777
  967SOL    MW4 3943   0.237   4.639   1.881 -0.2032  0.3786  0.0291
  968SOL     OW 3944   4.485   0.130   1.998  0.4252  0.4434  0.3125
  968SOL    HW2 3945   4.489   0.218   1.961 -0.1822  0.2299 -0.2688
  968SOL    HW3 3946   4.564   0.087   1.966  0.4941  0.6353  0.2264
  968SOL    MW4 3947   4.496   0.136   1.989  0.3541  0.4405  0.2245
  969SOL     OW 3948   0.007   0.367   1.865  0.2204 -0.4605  0.1340
  969SOL    HW2 3949  -0.073   0.400   1.905  0.6461 -0.5822  1.0948
  969SOL    HW3 3950   0.078   0.413   1.910  0.6980 -0.3749 -0.6879
  969SOL    MW4 3951   0.006   0.377   1.876  0.3396 -0.4652  0.1523
  970SOL     OW 3952   0.204   0.475   2.017  0.4664  0.2498 -0.4744
  970SOL    HW2 3953   0.280   0.438   1.972  0.3221 -0.0839 -0.4469
  970SOL    HW3 3954   0.197   0.564   1.984  0.8864  0.2911 -0.4593
  970SOL    MW4 3955   0.213   0.482   2.007  0.5027  0.2113 -0.4687
  971SOL     OW 3956   0.220   0.724   1.927 -0.0376 -0.0089 -0.0468
  971SOL    HW2 3957   0.297   0.768   1.963 -0.5813  0.5920  0.3998
  971SOL    HW3 3958   0.220   0.746   1.834  0.7130 -0.5853 -0.1867
  971SOL    MW4 3959   0.230   0.733   1.919 -0.0103 -0.0057 -0.0064
  972SOL     OW 3960   0.010   0.888   2.020  0.2517  0.1654  0.3461
  972SOL    HW2 3961  -0.065   0.847   1.975  0.1902  0.6439  0.0028
  972SOL    HW3 3962   0.084   0.830   2.001  0.3623  0.6994 -0.9400
  972SOL    MW4 3963   0.010   0.875   2.011  0.2580  0.2990  0.1311
  973SOL     OW 3964   0.047   1.127   1.875  0.3648  0.3398  0.1567
  973SOL    HW2 3965  -0.035   1.169   1.901  0.0070 -0.0358 -0.3492
  973SOL    HW3 3966   0.048   1.043   1.920 -0.1070 -0.1748 -0.7763
  973SOL    MW4 3967   0.037   1.122   1.884  0.2556  0.2223 -0.0331
  974SOL     OW 3968   0.245   1.271   2.013  0.2600 -0.4616 -0.1616
  974SOL    HW2 3969   0.212   1.357   1.986  0.7257  0.0368  0.8314
  974SOL    HW3 3970   0.187   1.209   1.971 -1.5657  0.3942  1.0466
  974SOL    MW4 3971   0.233   1.274   2.004  0.0805 -0.2829  0.1287
  975SOL     OW 3972   0.198   1.513   1.867  0.0138  0.0007  0.4242
  975SOL    HW2 3973   0.280   1.560   1.885  0.3657 -0.5029  0.1574
  975SOL    HW3 3974   0.130   1.567   1.907  0.6202 -0.3150  1.8952
  975SOL    MW4 3975   0.200   1.527   1.874  0.1402 -0.1074  0.5832
  976SOL     OW 3976   4.477   1.675   2.021 -0.0622 -0.0203 -0.5483
  976SOL    HW2 3977   4.477   1.670   2.117  0.4797 -0.1866 -0.5554
  976SOL    HW3 3978   4.396   1.632   1.995  0.0235 -0.4043 -0.1836
  976SOL    MW4 3979   4.466   1.669   2.030  0.0210 -0.0929 -0.5012
  977SOL     OW 3980   0.023   1.931   1.880 -0.3874  0.2249 -0.1146
  977SOL    HW2 3981  -0.053   1.977   1.915 -2.2182 -2.1128 -0.9375
  977SOL    HW3 3982   0.009   1.839   1.903  1.8003 -0.3655 -0.9907
  977SOL    MW4 3983   0.011   1.925   1.888 -0.3403 -0.1614 -0.3387
  978SOL     OW 3984   0.241   2.049   1.982  0.1838 -0.0099  0.1542
  978SOL    HW2 3985   0.226   2.134   1.941 -0.1078  0.3872  1.0672
  978SOL    HW3 3986   0.161   2.000   1.966 -0.1398  0.3345  0.7140
  978SOL    MW4 3987   0.229   2.054   1.974  0.1027  0.0880  0.3486
  979SOL     OW 3988   0.262   2.323   1.889  0.3086 -0.2052  0.1208
  979SOL    HW2 3989   0.340   2.364   1.926  0.6492 -0.1817 -0.6198
  979SOL    HW3 3990   0.189   2.363   1.937  0.7544 -0.3897  0.9703
  979SOL    MW4 3991   0.262   2.333   1.901  0.4123 -0.2265  0.1351
  980SOL     OW 3992   0.025   2.458   1.971 -1.2484  0.2535 -0.3767
  980SOL    HW2 3993   0.023   2.464   2.066  2.6864  0.1032 -0.1773
  980SOL    HW3 3994   0.009   2.547   1.941 -0.7556  0.6632  0.5339
  980SOL    MW4 3995   0.023   2.471   1.980 -0.6642  0.2878 -0.2303
  981SOL     OW 3996   4.486   2.705   1.867 -0.1024 -0.1382  0.1013
  981SOL    HW2 3997   4.409   2.741   1.911 -0.5814 -2.0685  0.9314
  981SOL    HW3 3998   4.473   2.725   1.774 -0.2282  1.9656  0.5534
  981SOL    MW4 3999   4.474   2.712   1.861 -0.1822 -0.1152  0.2705
  982SOL     OW 4000   0.211   2.834   1.997  0.6183 -0.1563  0.5346
  982SOL    HW2 4001   0.222   2.920   1.955  1.5340 -1.6038 -2.2913
  982SOL    HW3 4002   0.134   2.797   1.955  1.6727 -1.7281 -0.0282
  982SOL    MW4 4003   0.202   2.841   1.986  0.8783 -0.5548  0.0874
  983SOL     OW 4004   0.211   3.084   1.869  0.0058 -0.0410  0.1769
  983SOL    HW2 4005   0.292   3.121   1.904  0.4394 -0.2519 -0.5932
  983SOL    HW3 4006   0.216   3.101   1.775 -0.4316 -0.8328  0.0103
  983SOL    MW4 4007   0.223   3.091   1.861  0.0053 -0.1733  0.0533
  984SOL     OW 4008   4.478   3.216   1.961  0.1233  0.4948 -0.0609
  984SOL    HW2 4009   4.412   3.148   1.946 -0.3588  0.7030  1.0533
  984SOL    HW3 4010   4.561   3.172   1.946 -0.1632 -0.5135  1.2070
  984SOL    MW4 4011   4.480   3.201   1.957  0.0219  0.3891  0.2533
  985SOL     OW 4012   4.488   3.497   1.878  0.2655 -0.3119 -0.7077
  985SOL    HW2 4013   4.568   3.531   1.918  0.0315  0.9394 -1.2973
  985SOL    HW3 4014   4.476   3.411   1.918  0.6878  0.4239  1.0367
  985SOL    MW4 4015   4.497   3.490   1.889  0.2904 -0.0496 -0.5554
  986SOL     OW 4016   0.228   3.578   1.997 -0.5311 -0.0085  0.5270
  986SOL    HW2 4017   0.232   3.581   2.093 -1.0352  0.5511  0.5340
  986SOL    HW3 4018   0.313   3.544   1.970 -0.8827 -1.4971  1.2326
  986SOL    MW4 4019   0.240   3.574   2.006 -0.6440 -0.1307  0.6213
  987SOL     OW 4020   0.260   3.839   1.893  0.4859  0.5417 -0.5159
  987SOL    HW2 4021   0.338   3.886   1.924  2.2473 -1.3990 -1.9158
  987SOL    HW3 4022   0.269   3.751   1.930 -1.9647  0.7823  0.7544
  987SOL    MW4 4023   0.271   3.834   1.902  0.3950  0.3173 -0.5330
  988SOL     OW 4024   0.020   3.943   2.028  0.0663  0.0076 -0.1842
  988SOL    HW2 4025   0.015   4.037   2.012 -2.3917  0.0398  0.5936
  988SOL    HW3 4026   0.099   3.915   1.982  1.6131  2.6654  0.7227
  988SOL    MW4 4027   0.030   3.952   2.020 -0.0539  0.3626  0.0379
  989SOL     OW 4028   0.004   4.199   1.943  0.2029  0.5630  0.2947
  989SOL    HW2 4029  -0.066   4.263   1.953 -0.3567 -0.0124  0.1292
  989SOL    HW3 4030   0.084   4.247   1.961 -0.2738  1.1361  0.8953
  989SOL    MW4 4031   0.005   4.214   1.947  0.0658  0.5631  0.3521
  990SOL     OW 4032   0.213   4.381   1.994  0.0776 -0.1345  0.3115
  990SOL    HW2 4033   0.197   4.389   2.088 -0.3015  0.4071  0.2050
  990SOL    HW3 4034   0.192   4.467   1.959  0.0847 -0.3744 -0.2895
  990SOL    MW4 4035   0.208   4.393   2.002  0.0285 -0.0944  0.2182
  991SOL     OW 4036   0.680   0.040   1.893 -0.1260  0.1804 -0.1826
  991SOL    HW2 4037   0.680  -0.045   1.938 -0.1755  0.2407 -0.0699
  991SOL    HW3 4038   0.695   0.018   1.801 -1.5666 -0.0733 -0.3731
  991SOL    MW4 4039   0.682   0.026   1.887 -0.3225  0.1550 -0.1930
  992SOL     OW 4040   0.430   0.121   1.990 -0.0513 -0.1901  0.4459
  992SOL    HW2 4041   0.418   0.206   1.949 -0.2556 -0.1423  0.5983
  992SOL    HW3 4042   0.517   0.092   1.963  0.0803  0.1370  0.5202
  992SOL    MW4 4043   0.440   0.128   1.981 -0.0609 -0.1406  0.4758
  993SOL     OW 4044   0.418   0.361   1.881 -0.4164 -0.0720 -0.0185
  993SOL    HW2 4045   0.500   0.402   1.906 -1.9604  2.3284  1.3458
  993SOL    HW3 4046   0.412   0.373   1.786  0.0385  1.2327  0.1112
  993SOL    MW4 4047   0.428   0.368   1.872 -0.5601  0.4168  0.1786
  994SOL     OW 4048   0.647   0.478   2.001  0.2356  0.5918  0.0370
  994SOL    HW2 4049   0.673   0.481   2.093  1.7305  2.1729 -0.4151
  994SOL    HW3 4050   0.730   0.480   1.953 -0.5576  0.4105 -1.3659
  994SOL    MW4 4051   0.662   0.478   2.007  0.3282  0.7765 -0.2077
  995SOL     OW 4052   0.676   0.740   1.898 -0.5030  0.2043 -0.2169
  995SOL    HW2 4053   0.766   0.764   1.920  0.2659 -0.2184 -2.7008
  995SOL    HW3 4054   0.662   0.655   1.938  0.5382 -0.1426 -0.5799
  995SOL    MW4 4055   0.686   0.732   1.906 -0.2641  0.1028 -0.5925
  996SOL     OW 4056   0.459   0.872   1.966  0.3778 -0.1381 -0.6830
  996SOL    HW2 4057   0.478   0.966   1.960  3.6399 -0.5174  2.2987
  996SOL    HW3 4058   0.542   0.830   1.949 -0.7870 -2.4757 -0.7329
  996SOL    MW4 4059   0.472   0.879   1.963  0.6545 -0.4965 -0.2961
  997SOL     OW 4060   0.480   1.148   1.925  0.6115 -0.0743 -0.4442
  997SOL    HW2 4061   0.400   1.182   1.965  1.2944  1.4395 -0.3525
  997SOL    HW3 4062   0.462   1.151   1.831  0.5215  0.1728 -0.4205
  997SOL    MW4 4063   0.467   1.153   1.918  0.6897  0.1580 -0.4292
  998SOL     OW 4064   0.700   1.320   1.973  0.0139  0.6908 -0.0562
  998SOL    HW2 4065   0.700   1.315   2.068 -0.0614 -0.8298 -0.1094
  998SOL    HW3 4066   0.618   1.276   1.947  1.6657 -2.0277 -0.9106
  998SOL    MW4 4067   0.689   1.313   1.982  0.2218  0.1315 -0.1760
  999SOL     OW 4068   0.689   1.587   1.836  0.4050 -0.1048  0.3296
  999SOL    HW2 4069   0.693   1.495   1.862  0.0955 -0.1303  0.2940
  999SOL    HW3 4070   0.691   1.585   1.740  1.9566  0.0100  0.3408
  999SOL    MW4 4071   0.690   1.575   1.827  0.5689 -0.0930  0.3265
 1000SOL     OW 4072   0.441   1.656   1.936  0.5274  0.2350  0.0270
 1000SOL    HW2 4073   0.446   1.662   2.032  1.8113  0.2434 -0.0226
 1000SOL    HW3 4074   0.531   1.637   1.909  0.3681  1.2152 -1.2459
 1000SOL    MW4 4075   0.454   1.654   1.945  0.6758  0.3654 -0.1475
 1001SOL     OW 4076   0.412   1.909   1.828  0.5557  0.3063 -0.1152
 1001SOL    HW2 4077   0.413   1.823   1.871  2.1709  0.4860  0.2489
 1001SOL    HW3 4078   0.360   1.964   1.887  1.5620  0.1871  0.8910
 1001SOL    MW4 4079   0.405   1.905   1.842  0.9015  0.3142  0.0656
 1002SOL     OW 4080   0.652   2.009   1.921  0.0253 -0.5668  0.2863
 1002SOL    HW2 4081   0.650   2.029   2.014 -0.7831 -1.0202  0.3756
 1002SOL    HW3 4082   0.562   1.982   1.901 -0.3442  1.4901 -1.0422
 1002SOL    MW4 4083   0.640   2.008   1.930 -0.1301 -0.3552  0.1228
 1003SOL     OW 4084   0.676   2.277   1.851 -0.0681 -0.4005 -0.7975
 1003SOL    HW2 4085   0.662   2.183   1.860  0.4772 -0.3428  0.6661
 1003SOL    HW3 4086   0.692   2.289   1.757  1.2733 -1.9624 -0.8014
 1003SOL    MW4 4087   0.677   2.266   1.840  0.1808 -0.5991 -0.6049
 1004SOL     OW 4088   0.498   2.471   1.992 -0.1221 -0.0994 -0.3892
 1004SOL    HW2 4089   0.501   2.462   2.088  0.0553 -0.4715 -0.4299
 1004SOL    HW3 4090   0.570   2.416   1.961 -1.0988 -1.1343 -0.8219
 1004SOL    MW4 4091   0.508   2.462   2.001 -0.2276 -0.2851 -0.4518
 1005SOL     OW 4092   0.435   2.718   1.845 -0.3312  0.1228  0.0699
 1005SOL    HW2 4093   0.459   2.631   1.879 -0.2210  0.3680  0.6144
 1005SOL    HW3 4094   0.357   2.743   1.894  0.4164  0.9200  0.8780
 1005SOL    MW4 4095   0.428   2.710   1.856 -0.2180  0.2604  0.2483
 1006SOL     OW 4096   0.651   2.839   1.989 -0.2981 -0.1699 -0.4276
 1006SOL    HW2 4097   0.639   2.826   2.083  0.5224  0.8873 -0.1674
 1006SOL    HW3 4098   0.571   2.804   1.949 -0.1441 -1.6688  0.5764
 1006SOL    MW4 4099   0.639   2.833   1.996 -0.1695 -0.2284 -0.2607
 1007SOL     OW 4100   0.666   3.100   1.861  0.6260 -0.1264 -0.0955
 1007SOL    HW2 4101   0.690   3.015   1.899 -0.7906  0.3620  1.9597
 1007SOL    HW3 4102   0.648   3.080   1.769 -0.0876 -2.1543  0.4409
 1007SOL    MW4 4103   0.667   3.086   1.854  0.3449 -0.3297  0.2465
 1008SOL     OW 4104   0.437   3.204   1.972  0.1362  0.2323  0.0561
 1008SOL    HW2 4105   0.440   3.295   1.943 -0.1927 -0.4593 -2.3191
 1008SOL    HW3 4106   0.515   3.164   1.931 -0.6288 -0.9129 -0.3167
 1008SOL    MW4 4107   0.448   3.211   1.963 -0.0081 -0.0098 -0.3066
 1009SOL     OW 4108   0.463   3.485   1.900  0.4867  0.0370  0.1092
 1009SOL    HW2 4109   0.534   3.532   1.943  0.3573  1.3563 -1.0721
 1009SOL    HW3 4110   0.469   3.511   1.808 -2.1617  0.9996  0.1650
 1009SOL    MW4 4111   0.473   3.494   1.893  0.1202  0.3378 -0.0392
 1010SOL     OW 4112   0.654   3.615   2.029  0.0674 -0.6820 -0.2113
 1010SOL    HW2 4113   0.732   3.571   1.995 -0.1676 -0.3223 -1.2366
 1010SOL    HW3 4114   0.666   3.707   2.005  0.7077 -0.0990  2.2105
 1010SOL    MW4 4115   0.666   3.621   2.022  0.1209 -0.5579 -0.0269
 1011SOL     OW 4116   0.695   3.875   1.930  0.1281  0.0822  0.2152
 1011SOL    HW2 4117   0.754   3.944   1.962 -0.5188  0.0766  1.4501
 1011SOL    HW3 4118   0.711   3.872   1.836  2.9805 -0.7314  0.6830
 1011SOL    MW4 4119   0.705   3.884   1.922  0.4191 -0.0260  0.4400
 1012SOL     OW 4120   0.458   4.000   2.016  0.2049 -0.1058 -0.0821
 1012SOL    HW2 4121   0.471   4.088   1.980 -1.9335 -0.1527 -1.0573
 1012SOL    HW3 4122   0.535   3.951   1.988  0.1907  0.7814 -1.7566
 1012SOL    MW4 4123   0.470   4.005   2.008 -0.0791  0.0057 -0.4318
 1013SOL     OW 4124   0.468   4.268   1.921  0.0653 -0.0107  0.1707
 1013SOL    HW2 4125   0.388   4.317   1.938  0.6682  1.5078 -1.1821
 1013SOL    HW3 4126   0.480   4.274   1.826  2.1999  0.4714  0.4398
 1013SOL    MW4 4127   0.459   4.275   1.910  0.4265  0.2527  0.0278
 1014SOL     OW 4128   0.677   4.447   1.969 -0.0091  0.8542  0.1812
 1014SOL    HW2 4129   0.754   4.403   1.933 -1.3014  0.0427 -1.6755
 1014SOL    HW3 4130   0.606   4.383   1.959 -1.0625  1.8160  1.3014
 1014SOL    MW4 4131   0.678   4.432   1.963 -0.3186  0.8740  0.0840
 1015SOL     OW 4132   1.123   4.659   1.896 -0.1908 -0.2060  0.6117
 1015SOL    HW2 4133   1.206   4.694   1.928 -0.1643  0.6146 -0.3247
 1015SOL    HW3 4134   1.120   4.569   1.929  1.0082 -0.1930  0.7633
 1015SOL    MW4 4135   1.134   4.652   1.905 -0.0291 -0.0958  0.5082
 1016SOL     OW 4136   0.899   0.117   2.031  0.1785 -0.3323 -0.0080
 1016SOL    HW2 4137   0.964   0.069   1.980  1.4439  0.3985  0.9119
 1016SOL    HW3 4138   0.817   0.104   1.983  1.1016 -0.7589 -1.4856
 1016SOL    MW4 4139   0.896   0.109   2.018  0.4672 -0.2922 -0.0818
 1017SOL     OW 4140   0.901   0.408   1.930  0.2377  0.2942  0.1006
 1017SOL    HW2 4141   0.980   0.454   1.957  0.0669  0.8294 -0.3072
 1017SOL    HW3 4142   0.905   0.324   1.977  0.7011  0.5936  0.6011
 1017SOL    MW4 4143   0.912   0.403   1.940  0.2763  0.4043  0.1127
 1018SOL     OW 4144   1.159   0.520   1.990  0.1603  0.4130  0.5284
 1018SOL    HW2 4145   1.236   0.479   1.949 -0.2832  0.7621 -0.6603
 1018SOL    HW3 4146   1.159   0.609   1.957  0.1520  0.9014  1.8002
 1018SOL    MW4 4147   1.169   0.526   1.980  0.1007  0.5235  0.5393
 1019SOL     OW 4148   1.175   0.796   1.885 -0.0884 -0.3563  0.2091
 1019SOL    HW2 4149   1.257   0.828   1.923  0.4102 -0.9521 -0.3462
 1019SOL    HW3 4150   1.106   0.836   1.938  0.5745 -0.2749  1.0174
 1019SOL    MW4 4151   1.177   0.805   1.897  0.0648 -0.4241  0.2425
 1020SOL     OW 4152   0.923   0.882   2.004 -0.3494  0.0478 -0.1257
 1020SOL    HW2 4153   0.913   0.884   2.099 -0.8670  0.8272 -0.1906
 1020SOL    HW3 4154   0.925   0.974   1.978  1.6057 -0.1372 -0.6933
 1020SOL    MW4 4155   0.922   0.894   2.013 -0.1597  0.1262 -0.2093
 1021SOL     OW 4156   0.913   1.123   1.866  0.0464  0.3523 -0.2301
 1021SOL    HW2 4157   0.836   1.162   1.907  0.1125 -0.5197  0.7566
 1021SOL    HW3 4158   0.890   1.117   1.773 -1.7650 -1.4123  0.2879
 1021SOL    MW4 4159   0.900   1.127   1.859 -0.1838  0.0044 -0.0315
 1022SOL     OW 4160   1.157   1.227   1.969 -0.3970 -0.7118 -0.3403
 1022SOL    HW2 4161   1.144   1.319   1.947 -1.1921 -0.5955  0.6013
 1022SOL    HW3 4162   1.083   1.182   1.928  0.1066 -0.9665 -0.9814
 1022SOL    MW4 4163   1.146   1.233   1.961 -0.4355 -0.7300 -0.3008
 1023SOL     OW 4164   1.156   1.493   1.868  0.2561  0.8122 -0.2782
 1023SOL    HW2 4165   1.085   1.537   1.914  0.6127  1.3635 -0.2531
 1023SOL    HW3 4166   1.131   1.497   1.775 -0.3582 -0.1140 -0.1633
 1023SOL    MW4 4167   1.144   1.499   1.862  0.2221  0.7628 -0.2595
 1024SOL     OW 4168   0.931   1.673   1.972  0.0379 -0.3768  0.3600
 1024SOL    HW2 4169   0.939   1.764   1.942 -0.3693  0.4264  2.6076
 1024SOL    HW3 4170   0.850   1.641   1.932  0.0302  0.3465 -0.2061
 1024SOL    MW4 4171   0.922   1.681   1.963 -0.0168 -0.1754  0.5819
 1025SOL     OW 4172   0.910   1.935   1.890  0.1612 -0.0065  0.1144
 1025SOL    HW2 4173   0.816   1.955   1.885  0.3623  0.9566  0.1454
 1025SOL    HW3 4174   0.941   1.947   1.801  0.2014 -0.5915  0.0518
 1025SOL    MW4 4175   0.901   1.939   1.878  0.1931  0.0434  0.1104
 1026SOL     OW 4176   1.130   2.059   2.001  0.5729  0.4807 -0.3994
 1026SOL    HW2 4177   1.121   2.137   1.946  0.5362  1.1809  0.5961
 1026SOL    HW3 4178   1.049   2.011   1.986  0.0012  1.2997  0.0085
 1026SOL    MW4 4179   1.118   2.063   1.991  0.4926  0.6809 -0.2141
 1027SOL     OW 4180   1.126   2.284   1.813  0.2281  0.4316  0.0724
 1027SOL    HW2 4181   1.206   2.331   1.839  1.9811 -2.6226  0.4090
 1027SOL    HW3 4182   1.139   2.264   1.720 -1.0161  1.5463 -0.3563
 1027SOL    MW4 4183   1.138   2.288   1.804  0.2952  0.1757  0.0602
 1028SOL     OW 4184   0.905   2.397   1.948 -0.4526  0.5387 -0.4503
 1028SOL    HW2 4185   0.978   2.369   1.893 -1.0007 -0.0555 -0.8891
 1028SOL    HW3 4186   0.827   2.363   1.903 -0.7605 -2.4076  2.1888
 1028SOL    MW4 4187   0.904   2.389   1.935 -0.5655  0.0715 -0.1600
 1029SOL     OW 4188   0.856   2.678   1.877 -0.3278  0.4671 -0.0910
 1029SOL    HW2 4189   0.854   2.584   1.893 -0.3328  0.5427  0.3464
 1029SOL    HW3 4190   0.775   2.711   1.915 -0.9730  0.4673 -1.4131
 1029SOL    MW4 4191   0.845   2.670   1.884 -0.4136  0.4771 -0.2078
 1030SOL     OW 4192   1.108   2.789   1.950 -0.0480  0.6175  0.3492
 1030SOL    HW2 4193   1.104   2.816   2.042 -0.6561  1.5745  0.0478
 1030SOL    HW3 4194   1.024   2.746   1.933 -0.0221  0.6301  0.1861
 1030SOL    MW4 4195   1.097   2.787   1.960 -0.1247  0.7451  0.2880
 1031SOL     OW 4196   1.155   3.061   1.897  0.3905  0.6443 -0.6946
 1031SOL    HW2 4197   1.064   3.088   1.910 -0.4605 -1.8202 -1.2164
 1031SOL    HW3 4198   1.155   2.968   1.918  2.6466  0.4701 -1.3972
 1031SOL    MW4 4199   1.143   3.052   1.901  0.5759  0.2961 -0.8562
 1032SOL     OW 4200   0.907   3.200   1.918  0.7707 -0.6802  0.4007
 1032SOL    HW2 4201   0.888   3.195   2.011  0.0063  0.1434  0.2950
 1032SOL    HW3 4202   0.829   3.163   1.875  1.2321 -1.3199  0.0865
 1032SOL    MW4 4203   0.894   3.194   1.924  0.7307 -0.6559  0.3453
 1033SOL     OW 4204   0.860   3.492   1.871 -0.4533  0.2568 -0.3294
 1033SOL    HW2 4205   0.867   3.397   1.885  1.7204  0.4223 -0.1365
 1033SOL    HW3 4206   0.879   3.505   1.778  0.5708  0.6120 -0.0789
 1033SOL    MW4 4207   0.864   3.481   1.861 -0.0314  0.3259 -0.2707
 1034SOL     OW 4208   1.114   3.595   1.935 -0.3981 -0.0938 -0.0433
 1034SOL    HW2 4209   1.118   3.601   2.030 -2.6998  0.6060  0.0603
 1034SOL    HW3 4210   1.029   3.554   1.917 -0.6384  1.0630 -1.7934
 1034SOL    MW4 4211   1.103   3.591   1.945 -0.7336  0.1512 -0.2606
 1035SOL     OW 4212   1.087   3.878   1.888  0.2584 -0.7512 -0.4217
 1035SOL    HW2 4213   1.082   3.783   1.899 -2.3488 -0.7032 -0.9611
 1035SOL    HW3 4214   1.105   3.890   1.794  1.3888 -0.6985 -0.2122
 1035SOL    MW4 4215   1.089   3.867   1.877  0.0634 -0.7379 -0.4654
 1036SOL     OW 4216   0.901   4.064   1.997 -0.1827  0.3172 -0.4163
 1036SOL    HW2 4217   0.903   4.053   2.093 -0.7377 -0.5031 -0.4875
 1036SOL    HW3 4218   0.971   4.007   1.965 -3.1890 -3.4409 -0.7999
 1036SOL    MW4 4219   0.910   4.055   2.006 -0.6526 -0.2866 -0.4764
 1037SOL     OW 4220   0.892   4.302   1.855 -0.1994  0.1903 -0.2696
 1037SOL    HW2 4221   0.967   4.344   1.898 -0.7462  0.6383  0.2515
 1037SOL    HW3 4222   0.896   4.211   1.884 -0.4838  0.4600  0.6269
 1037SOL    MW4 4223   0.903   4.295   1.864 -0.3091  0.2851 -0.0825
 1038SOL     OW 4224   1.110   4.407   1.987  0.3059 -0.0259  0.1881
 1038SOL    HW2 4225   1.108   4.400   2.082  1.1147 -0.7682  0.1651
 1038SOL    HW3 4226   1.185   4.353   1.961  0.2100  0.3238 -0.8535
 1038SOL    MW4 4227   1.120   4.399   1.996  0.3998 -0.0782  0.0477
 1039SOL     OW 4228   1.564   4.640   1.856 -0.1648  0.1061 -0.1887
 1039SOL    HW2 4229   1.645   4.675   1.893  0.5412 -0.1436 -1.4341
 1039SOL    HW3 4230   1.563   4.548   1.882 -0.0426  0.1096 -0.1703
 1039SOL    MW4 4231   1.574   4.632   1.864 -0.0554  0.0739 -0.3506
 1040SOL     OW 4232   1.366   0.143   1.964  0.0599 -0.1356  0.2685
 1040SOL    HW2 4233   1.361   0.129   2.059  2.3483  0.0070  0.4311
 1040SOL    HW3 4234   1.431   0.080   1.934  0.7441  1.1157 -0.9337
 1040SOL    MW4 4235   1.374   0.133   1.973  0.4520  0.0483  0.1315
 1041SOL     OW 4236   1.394   0.412   1.910 -0.2215  0.3736  0.4703
 1041SOL    HW2 4237   1.380   0.318   1.922 -0.6361  0.1465 -1.7236
 1041SOL    HW3 4238   1.397   0.425   1.816 -1.1135  2.7197  0.7242
 1041SOL    MW4 4239   1.393   0.401   1.899 -0.3937  0.6532  0.2143
 1042SOL     OW 4240   1.614   0.549   1.998  0.1269 -0.3391 -0.3899
 1042SOL    HW2 4241   1.685   0.488   1.980 -0.4648 -1.4286  0.8747
 1042SOL    HW3 4242   1.534   0.503   1.970 -0.5390 -1.0578  2.5086
 1042SOL    MW4 4243   1.613   0.535   1.992 -0.0391 -0.5777  0.1595
 1043SOL     OW 4244   1.641   0.779   1.852 -0.1638 -0.1868 -0.3554
 1043SOL    HW2 4245   1.699   0.834   1.903  0.9205 -1.7993  0.1966
 1043SOL    HW3 4246   1.634   0.698   1.903 -2.0587 -0.4091 -0.9305
 1043SOL    MW4 4247   1.648   0.775   1.865 -0.2706 -0.4289 -0.3583
 1044SOL     OW 4248   1.412   0.896   1.971 -0.0514  0.4525  0.4177
 1044SOL    HW2 4249   1.425   0.892   2.065 -0.3328 -0.5674  0.4196
 1044SOL    HW3 4250   1.482   0.842   1.934 -0.4514  0.1425  0.0976
 1044SOL    MW4 4251   1.423   0.888   1.978 -0.1411  0.2770  0.3757
 1045SOL     OW 4252   1.387   1.135   1.831 -0.3414 -0.0603 -0.2296
 1045SOL    HW2 4253   1.413   1.056   1.877  0.8454 -0.2115 -1.1450
 1045SOL    HW3 4254   1.314   1.170   1.882  0.4717 -0.6234  1.3465
 1045SOL    MW4 4255   1.381   1.129   1.844 -0.0775 -0.1546 -0.1425
 1046SOL     OW 4256   1.558   1.330   1.925  0.0514 -0.5390  0.3299
 1046SOL    HW2 4257   1.531   1.410   1.880 -0.0225 -0.7047  0.0800
 1046SOL    HW3 4258   1.495   1.264   1.896  0.0591 -0.6675  0.6044
 1046SOL    MW4 4259   1.546   1.332   1.915  0.0426 -0.5778  0.3331
 1047SOL     OW 4260   1.573   1.597   1.857 -0.1524 -0.3983 -0.3682
 1047SOL    HW2 4261   1.643   1.624   1.917 -0.3616 -0.4232 -0.1086
 1047SOL    HW3 4262   1.493   1.632   1.897 -0.1623  0.5942 -1.2450
 1047SOL    MW4 4263   1.571   1.605   1.870 -0.1813 -0.2705 -0.4497
 1048SOL     OW 4264   1.329   1.673   1.944 -0.0857  0.2875  0.0110
 1048SOL    HW2 4265   1.329   1.667   2.040 -1.0742  0.2313  0.0107
 1048SOL    HW3 4266   1.265   1.607   1.916 -0.9251  1.3442 -0.6136
 1048SOL    MW4 4267   1.320   1.663   1.953 -0.3270  0.4195 -0.0713
 1049SOL     OW 4268   1.322   1.938   1.857 -0.5019 -0.0947 -0.0174
 1049SOL    HW2 4269   1.314   1.846   1.881 -0.6216 -0.4811 -1.4817
 1049SOL    HW3 4270   1.259   1.983   1.913 -1.6909 -1.1270 -0.4891
 1049SOL    MW4 4271   1.313   1.932   1.867 -0.6745 -0.2820 -0.2729
 1050SOL     OW 4272   1.571   2.033   1.932 -0.5355  0.1048  0.2335
 1050SOL    HW2 4273   1.560   2.127   1.916 -1.0301  0.2194  1.2281
 1050SOL    HW3 4274   1.487   1.994   1.909 -0.7544  0.0764  1.0676
 1050SOL    MW4 4275   1.559   2.041   1.927 -0.6297  0.1159  0.4748
 1051SOL     OW 4276   1.588   2.302   1.869  0.2084 -0.0977 -0.1029
 1051SOL    HW2 4277   1.659   2.364   1.884 -1.2638  1.6708 -0.2344
 1051SOL    HW3 4278   1.574   2.306   1.774 -0.0862 -0.4069 -0.0709
 1051SOL    MW4 4279   1.595   2.311   1.858 -0.0248  0.0944 -0.1161
 1052SOL     OW 4280   1.347   2.394   1.955 -0.0194  0.0366  0.1255
 1052SOL    HW2 4281   1.343   2.486   1.929  0.9005  0.3435  0.9959
 1052SOL    HW3 4282   1.435   2.366   1.929 -0.0400 -0.3895  0.5111
 1052SOL    MW4 4283   1.358   2.403   1.948  0.0993  0.0207  0.2913
 1053SOL     OW 4284   1.329   2.648   1.846 -0.0500  0.1007 -0.1749
 1053SOL    HW2 4285   1.252   2.685   1.889 -0.6685 -1.8808  0.4841
 1053SOL    HW3 4286   1.320   2.674   1.755 -1.8013 -0.5752 -0.2113
 1053SOL    MW4 4287   1.317   2.656   1.840 -0.3626 -0.2499 -0.0927
 1054SOL     OW 4288   1.540   2.858   1.902  0.1968  0.0047 -0.0786
 1054SOL    HW2 4289   1.621   2.811   1.884 -0.0199 -1.1355  1.7509
 1054SOL    HW3 4290   1.470   2.798   1.878 -0.1203  0.7096 -0.9667
 1054SOL    MW4 4291   1.541   2.844   1.897  0.1264 -0.0527  0.0457
 1055SOL     OW 4292   1.580   3.117   1.830 -0.1828 -0.5980 -0.3935
 1055SOL    HW2 4293   1.563   3.029   1.864  1.6020 -0.6126  0.5187
 1055SOL    HW3 4294   1.568   3.109   1.735 -2.9936 -1.0919 -0.0328
 1055SOL    MW4 4295   1.577   3.104   1.822 -0.3183 -0.6652 -0.2254
 1056SOL     OW 4296   1.363   3.212   1.980 -0.0077  0.2952  0.1953
 1056SOL    HW2 4297   1.434   3.188   1.920  1.0099  0.0431  1.4769
 1056SOL    HW3 4298   1.288   3.163   1.948  0.8704 -0.9235 -0.0448
 1056SOL    MW4 4299   1.363   3.202   1.968  0.2424  0.1011  0.3328
 1057SOL     OW 4300   1.361   3.472   1.867  0.2031  0.3512  0.6185
 1057SOL    HW2 4301   1.370   3.388   1.912  3.1502  0.5894  0.5165
 1057SOL    HW3 4302   1.283   3.512   1.907  0.6386 -1.0311  2.9346
 1057SOL    MW4 4303   1.352   3.466   1.879  0.6493  0.2003  0.9106
 1058SOL     OW 4304   1.589   3.596   2.009  0.2136 -0.0522 -0.1323
 1058SOL    HW2 4305   1.585   3.580   2.104 -0.9172 -0.6420 -0.2654
 1058SOL    HW3 4306   1.511   3.552   1.975 -0.8389  2.4275 -1.0141
 1058SOL    MW4 4307   1.578   3.588   2.017 -0.0744  0.1974 -0.2663
 1059SOL     OW 4308   1.579   3.849   1.853 -0.1127  0.1743  0.5982
 1059SOL    HW2 4309   1.643   3.916   1.878 -0.0492  0.0390  0.8008
 1059SOL    HW3 4310   1.594   3.777   1.915  1.7510 -1.2088 -1.4126
 1059SOL    MW4 4311   1.589   3.849   1.865  0.1417 -0.0262  0.3597
 1060SOL     OW 4312   1.354   3.981   1.970  0.1516 -0.1057 -0.3644
 1060SOL    HW2 4313   1.425   3.947   1.915  1.0818  0.1846  0.6279
 1060SOL    HW3 4314   1.277   3.932   1.944  1.3593 -2.6655  0.7323
 1060SOL    MW4 4315   1.354   3.970   1.960  0.4336 -0.4053 -0.0888
 1061SOL     OW 4316   1.331   4.249   1.892 -0.0030 -0.1513 -0.0603
 1061SOL    HW2 4317   1.341   4.155   1.908  0.5583 -0.2907 -1.1216
 1061SOL    HW3 4318   1.348   4.259   1.798  0.8710  1.1360  0.2116
 1061SOL    MW4 4319   1.334   4.238   1.881  0.1864  0.0000 -0.1645
 1062SOL     OW 4320   1.561   4.388   1.980  0.2904  0.2101 -0.2683
 1062SOL    HW2 4321   1.568   4.389   2.076  0.8844  1.5113 -0.3141
 1062SOL    HW3 4322   1.488   4.329   1.962  0.4682 -0.4061  0.9727
 1062SOL    MW4 4323   1.552   4.381   1.990  0.3924  0.2999 -0.1107
 1063SOL     OW 4324   2.056   4.652   1.844 -0.1286  0.2122 -0.2449
 1063SOL    HW2 4325   2.133   4.700   1.874  0.5013  0.0438 -1.5493
 1063SOL    HW3 4326   2.055   4.572   1.897  1.7188 -0.7017 -1.5169
 1063SOL    MW4 4327   2.066   4.648   1.855  0.1981  0.0696 -0.5848
 1064SOL     OW 4328   1.823   0.102   1.928  0.2567  0.0945 -0.1995
 1064SOL    HW2 4329   1.824   0.085   2.022 -0.0134  0.0698 -0.2011
 1064SOL    HW3 4330   1.902   0.059   1.895  0.6061  0.5081  0.0852
 1064SOL    MW4 4331   1.834   0.094   1.936  0.2671  0.1458 -0.1621
 1065SOL     OW 4332   1.796   0.374   1.887  0.2333 -0.5941  0.7823
 1065SOL    HW2 4333   1.797   0.283   1.918  1.8320 -1.1696 -0.9154
 1065SOL    HW3 4334   1.797   0.368   1.792 -0.5015  1.2145  0.6338
 1065SOL    MW4 4335   1.796   0.361   1.879  0.3471 -0.4314  0.5388
 1066SOL     OW 4336   2.055   0.514   1.931  0.0013  0.2859  0.5066
 1066SOL    HW2 4337   2.025   0.596   1.891 -2.1511 -1.1179 -0.8805
 1066SOL    HW3 4338   1.994   0.448   1.897  0.7549 -1.6361  2.7972
 1066SOL    MW4 4339   2.043   0.516   1.921 -0.1833 -0.1529  0.6257
 1067SOL     OW 4340   2.025   0.816   1.880  0.2596 -0.2686 -0.2836
 1067SOL    HW2 4341   2.106   0.837   1.927  0.2206 -0.0328 -0.3242
 1067SOL    HW3 4342   2.043   0.840   1.789 -0.1877  0.6569 -0.1239
 1067SOL    MW4 4343   2.038   0.822   1.874  0.1955 -0.1154 -0.2680
 1068SOL     OW 4344   1.801   0.940   1.995 -0.0124 -0.3793  0.3877
 1068SOL    HW2 4345   1.801   1.026   1.953 -1.0972 -0.0949  0.9414
 1068SOL    HW3 4346   1.873   0.893   1.954  0.1267  0.5423 -0.4433
 1068SOL    MW4 4347   1.810   0.945   1.984 -0.1372 -0.2202  0.3512
 1069SOL     OW 4348   1.806   1.196   1.876  0.0536 -0.2748  0.3788
 1069SOL    HW2 4349   1.735   1.258   1.895 -0.5334 -0.6507 -0.5621
 1069SOL    HW3 4350   1.807   1.190   1.781  0.8362 -0.8773  0.4253
 1069SOL    MW4 4351   1.797   1.203   1.866  0.0794 -0.4039  0.2609
 1070SOL     OW 4352   2.055   1.274   1.978 -0.8501  0.3425 -0.1404
 1070SOL    HW2 4353   2.119   1.204   1.968  0.1736  1.0349  1.2980
 1070SOL    HW3 4354   1.972   1.236   1.949 -0.0568 -1.0364 -0.6129
 1070SOL    MW4 4355   2.052   1.260   1.973 -0.6106  0.2520 -0.0129
 1071SOL     OW 4356   2.027   1.534   1.844 -0.3403  0.2862 -0.1450
 1071SOL    HW2 4357   2.035   1.443   1.871  0.2718  0.5398  0.5451
 1071SOL    HW3 4358   1.999   1.530   1.753 -1.0334 -0.5839  0.1098
 1071SOL    MW4 4359   2.025   1.522   1.836 -0.3510  0.2048 -0.0204
 1072SOL     OW 4360   1.829   1.664   1.970  0.1663  0.4188 -0.2795
 1072SOL    HW2 4361   1.814   1.736   1.910  2.2861  1.0680 -0.0748
 1072SOL    HW3 4362   1.908   1.622   1.937 -0.0416 -0.7141  0.6456
 1072SOL    MW4 4363   1.837   1.668   1.958  0.4187  0.3550 -0.1305
 1073SOL     OW 4364   1.803   1.901   1.849 -0.3030  0.1364  0.6659
 1073SOL    HW2 4365   1.719   1.941   1.874  0.6492  1.9545  1.0007
 1073SOL    HW3 4366   1.806   1.909   1.754  0.8477  2.8398  0.9052
 1073SOL    MW4 4367   1.792   1.907   1.840 -0.0256  0.7330  0.7417
 1074SOL     OW 4368   1.999   2.053   1.966  0.4429 -0.1337 -0.3868
 1074SOL    HW2 4369   2.082   2.016   1.935 -0.0717 -1.7515  0.1114
 1074SOL    HW3 4370   1.932   1.997   1.926 -0.3309 -0.0529  0.7751
 1074SOL    MW4 4371   2.001   2.040   1.956  0.2730 -0.3364 -0.1677
 1075SOL     OW 4372   2.043   2.318   1.866 -0.1427  0.0555  0.1005
 1075SOL    HW2 4373   2.117   2.359   1.910 -0.0183 -0.3547  0.2681
 1075SOL    HW3 4374   2.025   2.239   1.917  0.2364 -0.6124 -0.8104
 1075SOL    MW4 4375   2.050   2.313   1.879 -0.0763 -0.0870  0.0025
 1076SOL     OW 4376   1.817   2.450   1.959  0.1103  0.2562  0.4758
 1076SOL    HW2 4377   1.810   2.413   2.047 -0.0819  0.1441  0.4150
 1076SOL    HW3 4378   1.898   2.413   1.924 -0.4691 -0.7299  0.1327
 1076SOL    MW4 4379   1.827   2.440   1.966  0.0085  0.1113  0.4225
 1077SOL     OW 4380   1.803   2.751   1.859  0.2226 -0.0299  0.2334
 1077SOL    HW2 4381   1.796   2.659   1.884  1.5667 -0.4171 -0.7833
 1077SOL    HW3 4382   1.780   2.752   1.766  0.7855  0.5832  0.1033
 1077SOL    MW4 4383   1.799   2.739   1.850  0.4743  0.0002  0.0821
 1078SOL     OW 4384   2.019   2.844   1.989 -0.5399 -0.0374 -0.2396
 1078SOL    HW2 4385   1.985   2.856   2.078  0.1776 -0.1311  0.0485
 1078SOL    HW3 4386   1.945   2.809   1.940 -1.2368  0.9864  0.0700
 1078SOL    MW4 4387   2.005   2.841   1.994 -0.5372  0.0851 -0.1606
 1079SOL     OW 4388   2.016   3.073   1.860  0.7504  0.6676  0.5477
 1079SOL    HW2 4389   1.937   3.115   1.892 -0.1012 -0.1096 -0.4713
 1079SOL    HW3 4390   2.025   2.994   1.914 -0.4996 -0.4695 -0.8617
 1079SOL    MW4 4391   2.007   3.068   1.871  0.4730  0.4151  0.2272
 1080SOL     OW 4392   1.807   3.222   1.953 -0.0741  0.2439  0.1162
 1080SOL    HW2 4393   1.793   3.220   2.047  0.6174 -1.4629  0.1929
 1080SOL    HW3 4394   1.727   3.184   1.916  0.0679  0.0103  0.0525
 1080SOL    MW4 4395   1.795   3.217   1.960  0.0359 -0.0122  0.1179
 1081SOL     OW 4396   1.802   3.482   1.873 -0.0611  0.6528 -0.2695
 1081SOL    HW2 4397   1.802   3.388   1.892  0.5751  0.0590 -3.0211
 1081SOL    HW3 4398   1.733   3.517   1.929 -1.9121 -1.8106 -0.9192
 1081SOL    MW4 4399   1.793   3.474   1.883 -0.2214  0.2494 -0.7182
 1082SOL     OW 4400   2.016   3.617   1.983 -0.3159  0.1716 -0.0981
 1082SOL    HW2 4401   2.021   3.708   1.954  0.1233  0.4390  0.7826
 1082SOL    HW3 4402   1.947   3.578   1.930  0.0116  0.8183 -1.0045
 1082SOL    MW4 4403   2.008   3.624   1.972 -0.2148  0.2923 -0.1014
 1083SOL     OW 4404   2.010   3.885   1.866  0.0912 -0.1260  0.0149
 1083SOL    HW2 4405   2.091   3.932   1.888  0.3760 -0.6411  0.0571
 1083SOL    HW3 4406   2.012   3.879   1.770 -0.0001  0.0383  0.0012
 1083SOL    MW4 4407   2.021   3.891   1.856  0.1168 -0.1721  0.0187
 1084SOL     OW 4408   1.773   4.026   1.946 -0.2648  0.1851 -0.2822
 1084SOL    HW2 4409   1.788   4.120   1.939  2.1293 -0.0707  0.9912
 1084SOL    HW3 4410   1.850   3.986   1.905  0.0977 -1.2104  1.6715
 1084SOL    MW4 4411   1.785   4.033   1.939  0.0988 -0.0324  0.1436
 1085SOL     OW 4412   1.800   4.303   1.895 -0.0444  0.2033 -0.2434
 1085SOL    HW2 4413   1.711   4.329   1.919 -0.1928  0.9703 -1.5882
 1085SOL    HW3 4414   1.803   4.314   1.800  1.2887 -0.4427 -0.2800
 1085SOL    MW4 4415   1.788   4.308   1.885  0.1119  0.2189 -0.4258
 1086SOL     OW 4416   2.025   4.415   1.990 -0.0691  0.0828  0.2819
 1086SOL    HW2 4417   2.088   4.360   1.944 -0.4292  1.8348 -2.3930
 1086SOL    HW3 4418   1.940   4.380   1.964 -0.2657  0.6192  0.2152
 1086SOL    MW4 4419   2.022   4.403   1.981 -0.1423  0.3843 -0.0798
 1087SOL     OW 4420   2.466   4.644   1.892  0.0028 -0.5569 -0.0811
 1087SOL    HW2 4421   2.552   4.654   1.933  0.3840 -0.9003 -0.7934
 1087SOL    HW3 4422   2.445   4.551   1.905 -0.9084 -0.1486  1.3726
 1087SOL    MW4 4423   2.475   4.633   1.899 -0.0672 -0.5488  0.0167
 1088SOL     OW 4424   2.269   0.151   1.955 -0.0958  0.6495  0.1325
 1088SOL    HW2 4425   2.266   0.155   2.050  0.3313  1.1160  0.1295
 1088SOL    HW3 4426   2.344   0.094   1.936  1.1863  2.3117  0.0633
 1088SOL    MW4 4427   2.278   0.144   1.965  0.1297  0.9303  0.1231
 1089SOL     OW 4428   2.279   0.387   1.834 -0.2522  0.5042 -0.0074
 1089SOL    HW2 4429   2.273   0.297   1.867 -0.2839  0.5794  0.1952
 1089SOL    HW3 4430   2.208   0.434   1.879 -1.2378  0.2720 -1.2926
 1089SOL    MW4 4431   2.269   0.382   1.845 -0.3867  0.4835 -0.1502
 1090SOL     OW 4432   2.481   0.476   1.993 -0.3876  0.0244 -0.4195
 1090SOL    HW2 4433   2.564   0.434   1.969 -0.2947 -0.1335  0.1784
 1090SOL    HW3 4434   2.419   0.448   1.925  0.3990  1.3060 -1.7007
 1090SOL    MW4 4435   2.484   0.467   1.981 -0.2713  0.1726 -0.5097
 1091SOL     OW 4436   2.508   0.719   1.882  0.0326 -0.3786 -0.1202
 1091SOL    HW2 4437   2.492   0.630   1.913  0.0172  0.0391  1.1362
 1091SOL    HW3 4438   2.489   0.717   1.789  1.0908 -1.9433 -0.3137
 1091SOL    MW4 4439   2.503   0.707   1.874  0.1700 -0.5299  0.0201
 1092SOL     OW 4440   2.267   0.822   2.028  0.0962  0.6897 -0.4543
 1092SOL    HW2 4441   2.257   0.810   2.123  1.6412  1.8500 -0.1334
 1092SOL    HW3 4442   2.336   0.761   2.003  0.4346  1.1446 -0.6408
 1092SOL    MW4 4443   2.274   0.812   2.038  0.3448  0.9028 -0.4368
 1093SOL     OW 4444   2.291   1.083   1.883  0.1608  0.2991  0.3277
 1093SOL    HW2 4445   2.363   1.135   1.919  0.0772  0.6841 -0.0642
 1093SOL    HW3 4446   2.278   1.013   1.947  1.2266 -0.0725  0.1383
 1093SOL    MW4 4447   2.299   1.081   1.896  0.2906  0.3010  0.2509
 1094SOL     OW 4448   2.476   1.252   1.979 -0.3446  0.2283 -0.1471
 1094SOL    HW2 4449   2.506   1.258   2.069  0.1767 -0.0082 -0.3041
 1094SOL    HW3 4450   2.477   1.343   1.948 -1.4937  0.4256  0.3961
 1094SOL    MW4 4451   2.480   1.265   1.987 -0.4275  0.2232 -0.0962
 1095SOL     OW 4452   2.482   1.518   1.878 -0.0766 -0.4235  0.2029
 1095SOL    HW2 4453   2.403   1.560   1.911  0.1603  0.0763  0.1379
 1095SOL    HW3 4454   2.472   1.518   1.783  0.0488 -0.2705  0.1900
 1095SOL    MW4 4455   2.470   1.523   1.870 -0.0286 -0.3372  0.1926
 1096SOL     OW 4456   2.249   1.644   1.962  0.3659 -0.2954 -0.1196
 1096SOL    HW2 4457   2.251   1.630   2.057 -1.3716  0.9609  0.1216
 1096SOL    HW3 4458   2.173   1.596   1.932  0.0772  0.4934 -0.6694
 1096SOL    MW4 4459   2.239   1.636   1.971  0.0985 -0.0255 -0.1603
 1097SOL     OW 4460   2.262   1.921   1.898  0.4310  0.3617  0.4890
 1097SOL    HW2 4461   2.330   1.965   1.950  0.7130  1.3975 -0.7407
 1097SOL    HW3 4462   2.262   1.831   1.931  2.2211  0.4127  0.6759
 1097SOL    MW4 4463   2.271   1.915   1.910  0.7045  0.5052  0.3514
 1098SOL     OW 4464   2.500   2.046   1.968  0.3328  0.1803  0.1646
 1098SOL    HW2 4465   2.570   2.004   1.918 -1.1871 -1.4240 -0.6631
 1098SOL    HW3 4466   2.488   2.131   1.924  0.5512 -0.2761 -0.7973
 1098SOL    MW4 4467   2.508   2.052   1.955  0.1609 -0.0918 -0.0714
 1099SOL     OW 4468   2.434   2.286   1.847 -0.2965  0.3734  0.4011
 1099SOL    HW2 4469   2.520   2.328   1.856 -0.3205  0.6445 -0.5288
 1099SOL    HW3 4470   2.376   2.339   1.901  0.0969  0.2689  0.9292
 1099SOL    MW4 4471   2.438   2.298   1.855 -0.2475  0.3955  0.3481
 1100SOL     OW 4472   2.264   2.459   1.971 -0.1458 -0.2155  0.1763
 1100SOL    HW2 4473   2.238   2.471   2.063 -0.3993  1.0905 -0.0640
 1100SOL    HW3 4474   2.265   2.547   1.934 -0.6398 -0.7945 -1.2486
 1100SOL    MW4 4475   2.261   2.472   1.979 -0.2446 -0.1194 -0.0434
 1101SOL     OW 4476   2.245   2.741   1.860 -0.4389 -0.0213 -0.0948
 1101SOL    HW2 4477   2.167   2.785   1.895  0.3500  0.5779  0.9355
 1101SOL    HW3 4478   2.230   2.739   1.765 -1.4214  0.6445  0.0341
 1101SOL    MW4 4479   2.233   2.747   1.852 -0.4647  0.1454  0.0582
 1102SOL     OW 4480   2.484   2.850   2.004 -0.4672 -0.3457  0.5867
 1102SOL    HW2 4481   2.492   2.942   1.978 -0.2497 -0.5726 -0.1601
 1102SOL    HW3 4482   2.400   2.823   1.969 -0.4809 -0.4636  0.7118
 1102SOL    MW4 4483   2.474   2.859   1.996 -0.4401 -0.3910  0.5046
 1103SOL     OW 4484   2.481   3.123   1.943 -0.4770  0.2331  0.4188
 1103SOL    HW2 4485   2.397   3.160   1.969 -0.8503  0.0946 -0.5602
 1103SOL    HW3 4486   2.480   3.127   1.847  1.1538  1.4076  0.4185
 1103SOL    MW4 4487   2.470   3.129   1.934 -0.3109  0.3695  0.2896
 1104SOL     OW 4488   2.242   3.246   1.970  0.3702 -0.2932 -0.1394
 1104SOL    HW2 4489   2.229   3.244   2.065  0.3274  0.2703 -0.1323
 1104SOL    HW3 4490   2.171   3.192   1.935  1.4215 -1.9831  0.2516
 1104SOL    MW4 4491   2.231   3.238   1.978  0.5033 -0.4418 -0.0868
 1105SOL     OW 4492   2.239   3.513   1.853 -0.1009 -0.1758  0.3682
 1105SOL    HW2 4493   2.266   3.431   1.894 -0.8286  0.2461  1.6925
 1105SOL    HW3 4494   2.167   3.545   1.907  0.4011  1.5155  0.0649
 1105SOL    MW4 4495   2.233   3.507   1.865 -0.1307  0.1030  0.5029
 1106SOL     OW 4496   2.462   3.662   1.916  0.4371  0.0533  0.3845
 1106SOL    HW2 4497   2.461   3.655   2.011  0.6067 -1.0804  0.3117
 1106SOL    HW3 4498   2.377   3.625   1.889  1.0202 -1.0509  0.0211
 1106SOL    MW4 4499   2.450   3.656   1.925  0.5362 -0.2422  0.3269
 1107SOL     OW 4500   2.503   3.922   1.845  0.0679 -0.1570  0.0731
 1107SOL    HW2 4501   2.414   3.955   1.859  0.0359 -0.0038 -0.4764
 1107SOL    HW3 4502   2.500   3.831   1.875 -0.7767 -0.7256 -1.6737
 1107SOL    MW4 4503   2.491   3.914   1.851 -0.0477 -0.2117 -0.2298
 1108SOL     OW 4504   2.267   4.020   1.933  0.5210  0.5585 -0.0943
 1108SOL    HW2 4505   2.258   4.025   2.028 -1.4558 -0.1936 -0.2259
 1108SOL    HW3 4506   2.237   4.105   1.901 -0.1662  0.3016 -0.1347
 1108SOL    MW4 4507   2.262   4.032   1.941  0.1693  0.4253 -0.1168
 1109SOL     OW 4508   2.220   4.273   1.830 -0.1063 -0.2441 -0.1289
 1109SOL    HW2 4509   2.303   4.304   1.867 -0.0288  0.9039 -1.2325
 1109SOL    HW3 4510   2.231   4.283   1.735 -1.7187  0.4340 -0.2420
 1109SOL    MW4 4511   2.233   4.278   1.822 -0.3090 -0.0029 -0.2896
 1110SOL     OW 4512   2.453   4.365   1.945  0.8323 -0.1627 -0.2459
 1110SOL    HW2 4513   2.466   4.376   2.039 -0.3378  0.7148 -0.1715
 1110SOL    HW3 4514   2.537   4.332   1.912  0.9782 -1.2896  1.2230
 1110SOL    MW4 4515   2.466   4.362   1.953  0.6969 -0.1955 -0.0422
 1111SOL     OW 4516   2.940   4.664   1.868  0.1108 -0.2865 -0.6619
 1111SOL    HW2 4517   3.023   4.694   1.906 -0.5508  0.0703  0.5257
 1111SOL    HW3 4518   2.931   4.574   1.899  0.4175 -0.5828 -1.4174
 1111SOL    MW4 4519   2.950   4.656   1.877  0.0639 -0.2785 -0.6051
 1112SOL     OW 4520   2.699   0.079   1.990  0.2895  0.0706  0.4796
 1112SOL    HW2 4521   2.701   0.086   2.086  0.9109  2.6221  0.3087
 1112SOL    HW3 4522   2.790   0.060   1.966 -0.1809 -2.3525  0.4742
 1112SOL    MW4 4523   2.711   0.077   2.000  0.3095  0.0875  0.4563
 1113SOL     OW 4524   2.714   0.342   1.904  0.0809 -0.0482  0.3363
 1113SOL    HW2 4525   2.795   0.378   1.941  0.2717 -1.1905  1.0462
 1113SOL    HW3 4526   2.705   0.256   1.945 -1.3189 -0.0686  0.0088
 1113SOL    MW4 4527   2.724   0.336   1.915 -0.0789 -0.2016  0.3868
 1114SOL     OW 4528   2.943   0.468   1.992 -0.2606 -0.2447  0.2197
 1114SOL    HW2 4529   3.028   0.426   1.984 -0.4146 -0.2391 -1.7410
 1114SOL    HW3 4530   2.944   0.538   1.927 -1.2183  0.6984  1.1985
 1114SOL    MW4 4531   2.954   0.471   1.982 -0.4075 -0.1195  0.0902
 1115SOL     OW 4532   2.921   0.682   1.826  0.5035  0.0127  0.2045
 1115SOL    HW2 4533   2.997   0.730   1.857 -0.3595  1.8854 -0.5093
 1115SOL    HW3 4534   2.847   0.722   1.871 -0.1230 -1.4474  0.5075
 1115SOL    MW4 4535   2.921   0.693   1.836  0.3071  0.0672  0.1503
 1116SOL     OW 4536   2.751   0.822   1.977 -0.2708 -0.0468 -0.4453
 1116SOL    HW2 4537   2.726   0.914   1.967 -1.9761 -0.1065  2.6493
 1116SOL    HW3 4538   2.670   0.773   1.958 -0.0035 -0.7748  0.2539
 1116SOL    MW4 4539   2.737   0.828   1.973 -0.4606 -0.1507  0.0553
 1117SOL     OW 4540   2.688   1.093   1.915 -0.1699  0.0238  0.0794
 1117SOL    HW2 4541   2.616   1.148   1.945 -1.1619 -1.6061  0.7599
 1117SOL    HW3 4542   2.680   1.092   1.820 -1.2888 -0.4694  0.1751
 1117SOL    MW4 4543   2.678   1.100   1.907 -0.4487 -0.2563  0.1817
 1118SOL     OW 4544   2.934   1.211   1.976  0.0123 -0.1603 -0.0092
 1118SOL    HW2 4545   2.923   1.299   1.940 -0.2279 -1.0324 -2.1335
 1118SOL    HW3 4546   2.856   1.164   1.946  1.0122 -1.5816 -0.4047
 1118SOL    MW4 4547   2.922   1.217   1.967  0.1128 -0.4628 -0.3417
 1119SOL     OW 4548   2.919   1.467   1.859 -0.2472 -0.2192 -0.7370
 1119SOL    HW2 4549   2.993   1.523   1.885  0.4371 -0.7490 -1.5180
 1119SOL    HW3 4550   2.913   1.479   1.765 -1.0534 -0.3153 -0.6968
 1119SOL    MW4 4551   2.928   1.476   1.850 -0.2635 -0.3017 -0.8348
 1120SOL     OW 4552   2.701   1.649   1.945 -0.4922 -0.1427 -0.1574
 1120SOL    HW2 4553   2.775   1.600   1.908 -0.1289  0.4455 -0.2167
 1120SOL    HW3 4554   2.626   1.592   1.931  0.1180 -1.2099  0.8535
 1120SOL    MW4 4555   2.701   1.635   1.938 -0.3638 -0.2059 -0.0318
 1121SOL     OW 4556   2.717   1.921   1.851 -0.4725 -0.0790  0.0473
 1121SOL    HW2 4557   2.797   1.946   1.897  1.0726 -3.1126 -0.8217
 1121SOL    HW3 4558   2.707   1.827   1.871 -3.0863 -0.0590 -0.9459
 1121SOL    MW4 4559   2.726   1.912   1.860 -0.6137 -0.4766 -0.1985
 1122SOL     OW 4560   2.922   2.062   1.978  0.1805 -0.1109 -0.1132
 1122SOL    HW2 4561   2.931   2.066   2.073  0.5452  1.5914 -0.2024
 1122SOL    HW3 4562   2.985   1.995   1.950 -0.2655 -0.9512  0.8753
 1122SOL    MW4 4563   2.931   2.053   1.987  0.1698  0.0029  0.0055
 1123SOL     OW 4564   2.921   2.332   1.903 -0.0599 -0.1644  0.0269
 1123SOL    HW2 4565   2.980   2.384   1.958  0.0224 -0.9717  0.7024
 1123SOL    HW3 4566   2.947   2.242   1.918  0.3960 -0.3793 -1.8331
 1123SOL    MW4 4567   2.933   2.327   1.912  0.0114 -0.2992 -0.1295
 1124SOL     OW 4568   2.660   2.441   1.961 -0.1891 -0.0415 -0.1023
 1124SOL    HW2 4569   2.668   2.533   1.936 -0.5832  0.4780  1.5992
 1124SOL    HW3 4570   2.744   2.402   1.938  0.1855  0.8749 -0.3117
 1124SOL    MW4 4571   2.672   2.448   1.955 -0.1919  0.1481  0.0944
 1125SOL     OW 4572   2.687   2.698   1.876 -0.1487 -0.4801  0.0385
 1125SOL    HW2 4573   2.614   2.755   1.897  0.8392  1.0669 -0.6618
 1125SOL    HW3 4574   2.685   2.690   1.781  1.0530  0.1985 -0.0531
 1125SOL    MW4 4575   2.677   2.704   1.866  0.1402 -0.1864 -0.0660
 1126SOL     OW 4576   2.896   2.866   1.964 -0.2582 -0.3799  0.5735
 1126SOL    HW2 4577   2.888   2.953   1.924  1.8277  0.5021  1.9601
 1126SOL    HW3 4578   2.826   2.814   1.923 -0.5490  1.4952 -1.4253
 1126SOL    MW4 4579   2.886   2.871   1.953 -0.0215 -0.0160  0.4926
 1127SOL     OW 4580   2.898   3.105   1.856 -0.2473  0.4963 -0.0842
 1127SOL    HW2 4581   2.983   3.128   1.893  0.3219 -3.5721  1.4061
 1127SOL    HW3 4582   2.834   3.152   1.909  0.9267  0.8912  0.9971
 1127SOL    MW4 4583   2.901   3.114   1.868 -0.0174  0.0117  0.2549
 1128SOL     OW 4584   2.714   3.267   2.036 -0.0856  0.1868  0.5349
 1128SOL    HW2 4585   2.720   3.350   1.987 -1.0497  0.6003  1.0948
 1128SOL    HW3 4586   2.632   3.228   2.006  0.1486 -0.3635  0.6040
 1128SOL    MW4 4587   2.704   3.273   2.025 -0.1819  0.1688  0.6180
 1129SOL     OW 4588   2.689   3.504   1.875 -0.1924 -0.4367 -0.1867
 1129SOL    HW2 4589   2.756   3.556   1.918 -1.1007 -0.6535  1.5444
 1129SOL    HW3 4590   2.609   3.556   1.883 -0.9717 -1.8006  0.9931
 1129SOL    MW4 4591   2.687   3.518   1.881 -0.4148 -0.6449  0.1973
 1130SOL     OW 4592   2.930   3.605   1.984  0.0838 -0.1332 -0.0059
 1130SOL    HW2 4593   2.912   3.599   2.077  0.1937 -1.1764 -0.0434
 1130SOL    HW3 4594   3.003   3.545   1.969  0.9070  0.9874 -0.5499
 1130SOL    MW4 4595   2.937   3.596   1.994  0.2069 -0.1233 -0.0826
 1131SOL     OW 4596   2.908   3.901   1.924 -0.3061  0.1305  0.4011
 1131SOL    HW2 4597   2.928   3.813   1.954 -0.6456 -0.1580 -0.2044
 1131SOL    HW3 4598   2.902   3.893   1.828 -0.2500  0.8231  0.3338
 1131SOL    MW4 4599   2.910   3.888   1.915 -0.3433  0.1838  0.3123
 1132SOL     OW 4600   2.685   4.041   2.013  0.0296  0.0213 -0.0774
 1132SOL    HW2 4601   2.754   3.981   1.985  0.3738 -0.1559  1.1453
 1132SOL    HW3 4602   2.607   4.012   1.965  0.3305 -1.0310  0.0692
 1132SOL    MW4 4603   2.684   4.029   2.003  0.1144 -0.1411  0.1032
 1133SOL     OW 4604   2.715   4.290   1.880 -0.4118 -0.6875  0.1833
 1133SOL    HW2 4605   2.706   4.199   1.907 -1.8945 -0.9288 -1.0977
 1133SOL    HW3 4606   2.735   4.286   1.787  1.6172  0.2429  0.5521
 1133SOL    MW4 4607   2.716   4.278   1.871 -0.3397 -0.5965  0.0628
 1134SOL     OW 4608   2.943   4.420   1.974  0.0962  0.1033 -0.0767
 1134SOL    HW2 4609   2.939   4.422   2.070  0.4866 -1.9412  0.0166
 1134SOL    HW3 4610   2.869   4.365   1.948  0.8494 -0.5706 -0.8473
 1134SOL    MW4 4611   2.933   4.413   1.984  0.2472 -0.2561 -0.1661
 1135SOL     OW 4612   3.426   4.612   1.914  0.3469 -0.5000 -0.2260
 1135SOL    HW2 4613   3.427   4.517   1.928 -2.1337 -0.5693 -0.2362
 1135SOL    HW3 4614   3.421   4.622   1.819 -1.4986 -0.4419 -0.1494
 1135SOL    MW4 4615   3.425   4.601   1.903 -0.2236 -0.5021 -0.2171
 1136SOL     OW 4616   3.188   0.083   1.978  0.5419  0.3013 -0.2081
 1136SOL    HW2 4617   3.187   0.103   2.072  1.2400  1.9593 -0.5377
 1136SOL    HW3 4618   3.271   0.036   1.965  0.2089 -0.3750  0.0863
 1136SOL    MW4 4619   3.199   0.080   1.989  0.5901  0.4308 -0.2127
 1137SOL     OW 4620   3.184   0.362   1.892 -0.0210  0.0346  0.3403
 1137SOL    HW2 4621   3.173   0.269   1.912 -0.4817 -0.0737 -0.4196
 1137SOL    HW3 4622   3.165   0.369   1.799 -2.2791  1.2546  0.8491
 1137SOL    MW4 4623   3.180   0.351   1.883 -0.3798  0.1813  0.3072
 1138SOL     OW 4624   3.423   0.527   1.943 -0.1288 -0.2408  0.2899
 1138SOL    HW2 4625   3.503   0.480   1.918 -0.0757  0.5885 -1.1385
 1138SOL    HW3 4626   3.352   0.471   1.912 -0.0880 -0.3083  0.3173
 1138SOL    MW4 4627   3.424   0.513   1.935 -0.1163 -0.1403  0.1049
 1139SOL     OW 4628   3.404   0.788   1.855  0.2133  0.3219 -0.0168
 1139SOL    HW2 4629   3.315   0.810   1.881  0.0351 -0.3935 -0.0192
 1139SOL    HW3 4630   3.418   0.700   1.889 -0.0449 -0.6640 -2.3568
 1139SOL    MW4 4631   3.394   0.779   1.863  0.1557  0.0975 -0.3260
 1140SOL     OW 4632   3.133   0.820   1.933  0.0576 -0.1901 -0.3131
 1140SOL    HW2 4633   3.135   0.821   2.029  0.1993 -0.9131 -0.3125
 1140SOL    HW3 4634   3.123   0.913   1.909 -1.2011 -0.1248  0.4199
 1140SOL    MW4 4635   3.132   0.833   1.942 -0.0901 -0.2769 -0.2161
 1141SOL     OW 4636   3.148   1.080   1.828 -0.2483 -0.1067 -0.1502
 1141SOL    HW2 4637   3.224   1.129   1.859 -0.8166 -0.3720  1.7074
 1141SOL    HW3 4638   3.073   1.127   1.866 -0.9690 -0.3622 -1.2423
 1141SOL    MW4 4639   3.148   1.093   1.837 -0.4184 -0.1755 -0.0491
 1142SOL     OW 4640   3.372   1.217   1.938  0.2410  0.2939  0.1593
 1142SOL    HW2 4641   3.381   1.216   2.033  1.3000  0.9805  0.0664
 1142SOL    HW3 4642   3.356   1.308   1.916  0.5770  0.2238 -0.3833
 1142SOL    MW4 4643   3.371   1.229   1.948  0.4251  0.3753  0.0755
 1143SOL     OW 4644   3.354   1.488   1.883  0.7117  0.2248 -0.1059
 1143SOL    HW2 4645   3.423   1.554   1.882 -0.1132  1.1065  0.1366
 1143SOL    HW3 4646   3.273   1.538   1.889  0.0554 -0.8029 -0.2195
 1143SOL    MW4 4647   3.352   1.503   1.884  0.5159  0.2055 -0.0890
 1144SOL     OW 4648   3.113   1.635   1.949 -0.2684  0.3525  0.2183
 1144SOL    HW2 4649   3.110   1.631   2.044 -1.3060  0.5294  0.1919
 1144SOL    HW3 4650   3.123   1.728   1.929 -0.6607  0.3799  0.1409
 1144SOL    MW4 4651   3.114   1.647   1.959 -0.4570  0.3794  0.2047
 1145SOL     OW 4652   3.139   1.904   1.885 -0.2089  0.0238  0.0104
 1145SOL    HW2 4653   3.223   1.939   1.913 -1.1556  2.3657  0.0278
 1145SOL    HW3 4654   3.142   1.906   1.789  0.5673 -1.9919 -0.0455
 1145SOL    MW4 4655   3.150   1.909   1.876 -0.2315  0.0669  0.0054
 1146SOL     OW 4656   3.353   2.030   1.992  0.0612 -0.2833  0.2328
 1146SOL    HW2 4657   3.428   1.980   1.958 -0.3983 -0.1399 -1.0108
 1146SOL    HW3 4658   3.363   2.117   1.953 -0.4368 -0.0946  0.5303
 1146SOL    MW4 4659   3.364   2.034   1.982 -0.0651 -0.2394  0.1081
 1147SOL     OW 4660   3.353   2.273   1.864  0.1137  0.2776  0.0379
 1147SOL    HW2 4661   3.271   2.309   1.897 -0.3992  1.3850 -2.3487
 1147SOL    HW3 4662   3.360   2.306   1.775  0.8791 -3.4796 -1.4047
 1147SOL    MW4 4663   3.343   2.282   1.857  0.1469 -0.0718 -0.4673
 1148SOL     OW 4664   3.148   2.454   2.010 -0.6076 -0.0030  0.1986
 1148SOL    HW2 4665   3.137   2.487   2.099  0.6561  0.7421  0.0893
 1148SOL    HW3 4666   3.141   2.532   1.955 -0.0716 -0.2713 -0.2503
 1148SOL    MW4 4667   3.146   2.469   2.014 -0.3705  0.0598  0.1249
 1149SOL     OW 4668   3.119   2.710   1.882  0.3801  0.3093  0.1437
 1149SOL    HW2 4669   3.049   2.764   1.919  0.6419  1.0202 -0.3941
 1149SOL    HW3 4670   3.099   2.706   1.789  0.5386 -0.2734  0.1309
 1149SOL    MW4 4671   3.107   2.717   1.875  0.4356  0.3262  0.0712
 1150SOL     OW 4672   3.368   2.835   1.981 -0.3374 -0.4945 -0.3611
 1150SOL    HW2 4673   3.372   2.843   2.076 -0.2677 -0.0939 -0.3957
 1150SOL    HW3 4674   3.287   2.785   1.965 -1.3415  1.0230 -0.1654
 1150SOL    MW4 4675   3.358   2.830   1.991 -0.4609 -0.2413 -0.3399
 1151SOL     OW 4676   3.375   3.099   1.876  0.3457 -0.8540 -0.0453
 1151SOL    HW2 4677   3.460   3.134   1.901  0.0456 -0.8341  0.9582
 1151SOL    HW3 4678   3.376   3.008   1.907 -0.3798 -0.5557  0.8704
 1151SOL    MW4 4679   3.386   3.092   1.883  0.2103 -0.8118  0.2080
 1152SOL     OW 4680   3.129   3.184   2.010  0.2764 -0.2794  0.2302
 1152SOL    HW2 4681   3.140   3.275   1.983 -1.1906 -0.3633 -0.6897
 1152SOL    HW3 4682   3.203   3.138   1.970  0.9057  0.4665  0.5250
 1152SOL    MW4 4683   3.141   3.190   2.001  0.1657 -0.1922  0.1476
 1153SOL     OW 4684   3.153   3.444   1.932  0.0688  0.0665  0.6826
 1153SOL    HW2 4685   3.218   3.498   1.977 -0.2468  0.0430  1.1687
 1153SOL    HW3 4686   3.169   3.460   1.839  0.7174  0.1187  0.8014
 1153SOL    MW4 4687   3.163   3.453   1.925  0.1125  0.0703  0.7623
 1154SOL     OW 4688   3.361   3.600   2.011 -0.0520 -0.1312  0.4554
 1154SOL    HW2 4689   3.442   3.558   1.981  0.2509  0.9612 -0.2920
 1154SOL    HW3 4690   3.364   3.688   1.974 -2.4649 -0.6622 -1.1483
 1154SOL    MW4 4691   3.372   3.606   2.002 -0.3304 -0.0570  0.1452
 1155SOL     OW 4692   3.376   3.864   1.901  0.4603  0.0517 -0.1344
 1155SOL    HW2 4693   3.290   3.905   1.912  0.7069  0.4827  0.1730
 1155SOL    HW3 4694   3.393   3.871   1.807 -0.3462 -1.0471 -0.3654
 1155SOL    MW4 4695   3.367   3.871   1.890  0.3862 -0.0367 -0.1242
 1156SOL     OW 4696   3.153   4.039   1.977  0.1885 -0.6494 -0.1870
 1156SOL    HW2 4697   3.154   4.036   2.073 -0.8249  1.9173 -0.0464
 1156SOL    HW3 4698   3.076   3.989   1.952  0.3783 -1.2138  0.3568
 1156SOL    MW4 4699   3.143   4.032   1.987  0.0799 -0.3853 -0.0966
 1157SOL     OW 4700   3.151   4.298   1.847  0.0467  0.1137 -0.3441
 1157SOL    HW2 4701   3.153   4.212   1.889  0.0038 -0.1453 -0.8745
 1157SOL    HW3 4702   3.084   4.347   1.895 -1.0075 -0.6501 -1.0285
 1157SOL    MW4 4703   3.143   4.293   1.859 -0.0980 -0.0215 -0.5044
 1158SOL     OW 4704   3.402   4.352   1.975  0.5946 -0.3522 -0.0234
 1158SOL    HW2 4705   3.477   4.302   1.946  0.4922 -0.8374  0.5318
 1158SOL    HW3 4706   3.327   4.312   1.931  0.6549  0.1298 -0.5759
 1158SOL    MW4 4707   3.402   4.340   1.966  0.5891 -0.3524 -0.0229
 1159SOL     OW 4708   3.803   0.000   1.861  0.2074  0.1283  0.3087
 1159SOL    HW2 4709   3.819  -0.082   1.906  0.7579  0.6236  1.0348
 1159SOL    HW3 4710   3.728   0.039   1.907 -0.6459 -0.3946 -0.6246
 1159SOL    MW4 4711   3.795  -0.005   1.873  0.1671  0.1245  0.2815
 1160SOL     OW 4712   3.617   0.139   2.013 -0.2030  0.0314 -0.4737
 1160SOL    HW2 4713   3.623   0.130   2.108 -1.1836 -1.3612 -0.5372
 1160SOL    HW3 4714   3.541   0.087   1.988  0.4759 -0.2106 -2.1098
 1160SOL    MW4 4715   3.608   0.131   2.022 -0.2429 -0.1843 -0.6981
 1161SOL     OW 4716   3.651   0.385   1.882  0.0688  0.2950 -0.1479
 1161SOL    HW2 4717   3.632   0.295   1.908  1.2926 -0.2806 -1.1976
 1161SOL    HW3 4718   3.647   0.384   1.786  2.1040  0.8824 -0.2595
 1161SOL    MW4 4719   3.648   0.373   1.873  0.4990  0.2965 -0.3012
 1162SOL     OW 4720   3.868   0.523   2.008  0.1442 -0.5288 -0.5329
 1162SOL    HW2 4721   3.850   0.611   1.974  1.2963  0.1564  0.5998
 1162SOL    HW3 4722   3.796   0.470   1.974 -1.5539  1.2177  0.1970
 1162SOL    MW4 4723   3.856   0.528   1.999  0.0722 -0.2080 -0.2871
 1163SOL     OW 4724   3.822   0.773   1.879 -0.1161  0.4837 -0.6234
 1163SOL    HW2 4725   3.744   0.823   1.901 -2.0769 -2.2051 -1.2586
 1163SOL    HW3 4726   3.818   0.763   1.784 -0.1418 -1.4138 -0.4535
 1163SOL    MW4 4727   3.811   0.778   1.869 -0.3781 -0.1214 -0.6847
 1164SOL     OW 4728   3.598   0.925   1.965 -0.5150  0.0313  0.0326
 1164SOL    HW2 4729   3.588   1.009   1.921 -0.9228 -0.4947 -0.8939
 1164SOL    HW3 4730   3.520   0.875   1.940 -1.6050  0.3178  2.7127
 1164SOL    MW4 4731   3.586   0.929   1.956 -0.7126 -0.0002  0.2639
 1165SOL     OW 4732   3.608   1.157   1.838 -0.3110  0.2760 -0.5027
 1165SOL    HW2 4733   3.525   1.192   1.869  0.5686  0.8203  1.3685
 1165SOL    HW3 4734   3.596   1.142   1.745 -2.7909 -0.5028 -0.0797
 1165SOL    MW4 4735   3.596   1.159   1.830 -0.5224  0.2451 -0.2000
 1166SOL     OW 4736   3.824   1.305   1.920  0.2846  0.2253  0.2936
 1166SOL    HW2 4737   3.812   1.318   2.014  0.6720  1.2227  0.2122
 1166SOL    HW3 4738   3.766   1.232   1.898 -3.6703  3.1537  0.4279
 1166SOL    MW4 4739   3.815   1.297   1.929 -0.1862  0.7434  0.3005
 1167SOL     OW 4740   3.840   1.539   1.784  0.6127 -0.2370 -0.8177
 1167SOL    HW2 4741   3.918   1.576   1.825  0.4676  0.9181 -1.5867
 1167SOL    HW3 4742   3.825   1.458   1.833  2.5804 -0.7396 -0.9808
 1167SOL    MW4 4743   3.849   1.533   1.796  0.8535 -0.1508 -0.9407
 1168SOL     OW 4744   3.614   1.608   1.914 -0.5487  0.0161  0.5626
 1168SOL    HW2 4745   3.618   1.703   1.901 -0.2631 -0.1615 -0.7761
 1168SOL    HW3 4746   3.690   1.575   1.867 -0.4619 -0.8512  1.3205
 1168SOL    MW4 4747   3.624   1.617   1.906 -0.4995 -0.1217  0.4860
 1169SOL     OW 4748   3.575   1.904   1.887 -0.3610 -0.0573 -0.1270
 1169SOL    HW2 4749   3.660   1.941   1.913 -1.1001  2.0299 -0.6035
 1169SOL    HW3 4750   3.570   1.922   1.793 -1.4309  0.0442 -0.0503
 1169SOL    MW4 4751   3.586   1.911   1.878 -0.5999  0.2316 -0.1798
 1170SOL     OW 4752   3.836   2.004   1.950 -0.6022  0.3783 -0.0504
 1170SOL    HW2 4753   3.915   1.955   1.927  0.3305  1.3443  1.0467
 1170SOL    HW3 4754   3.851   2.091   1.914 -0.5800  0.9401  1.2973
 1170SOL    MW4 4755   3.848   2.009   1.942 -0.4764  0.5798  0.2722
 1171SOL     OW 4756   3.830   2.264   1.850 -0.2220  0.5857  0.3828
 1171SOL    HW2 4757   3.901   2.307   1.897  0.1501 -0.9491  1.2516
 1171SOL    HW3 4758   3.751   2.303   1.886  0.0853  0.0321  1.6826
 1171SOL    MW4 4759   3.829   2.275   1.861 -0.1323  0.3102  0.6689
 1172SOL     OW 4760   3.611   2.377   1.971  0.0456 -0.2997 -0.1805
 1172SOL    HW2 4761   3.601   2.467   1.940  0.4950 -0.7934 -1.8359
 1172SOL    HW3 4762   3.525   2.337   1.956 -0.3734  0.0414  1.2413
 1172SOL    MW4 4763   3.598   2.384   1.965  0.0498 -0.3197 -0.2114
 1173SOL     OW 4764   3.565   2.658   1.906  0.4908  0.4480 -0.4626
 1173SOL    HW2 4765   3.641   2.705   1.940 -0.6233  0.9160  1.4672
 1173SOL    HW3 4766   3.490   2.710   1.935 -0.7082 -1.7791  0.5611
 1173SOL    MW4 4767   3.565   2.671   1.914  0.1860  0.2158 -0.0730
 1174SOL     OW 4768   3.789   2.802   1.994  0.0813  0.2036 -0.2550
 1174SOL    HW2 4769   3.794   2.806   2.089  2.1072 -0.2066 -0.3135
 1174SOL    HW3 4770   3.802   2.892   1.965 -0.2429  0.2833 -0.1508
 1174SOL    MW4 4771   3.791   2.814   2.002  0.3057  0.1600 -0.2489
 1175SOL     OW 4772   3.823   3.073   1.897 -0.0030 -0.2849  0.6282
 1175SOL    HW2 4773   3.754   3.133   1.925  0.8414  0.6143  0.8130
 1175SOL    HW3 4774   3.808   3.063   1.803 -0.3920 -0.1030  0.6675
 1175SOL    MW4 4775   3.812   3.080   1.888  0.0570 -0.1421  0.6578
 1176SOL     OW 4776   3.592   3.222   1.992 -0.2516  0.0508 -0.0959
 1176SOL    HW2 4777   3.589   3.218   2.088  2.2123  1.3764  0.0749
 1176SOL    HW3 4778   3.592   3.316   1.972  1.4241 -0.1731 -1.2732
 1176SOL    MW4 4779   3.592   3.234   2.002  0.2949  0.1962 -0.2286
 1177SOL     OW 4780   3.600   3.498   1.924 -0.5242  0.4725  0.0916
 1177SOL    HW2 4781   3.679   3.545   1.950  0.2659 -0.7897  0.0180
 1177SOL    HW3 4782   3.607   3.489   1.829 -0.3543 -0.3386  0.1766
 1177SOL    MW4 4783   3.611   3.503   1.915 -0.3972  0.1991  0.0930
 1178SOL     OW 4784   3.819   3.604   2.015  0.2272  0.2752  0.1179
 1178SOL    HW2 4785   3.887   3.548   1.978 -0.0510 -1.2063  1.7393
 1178SOL    HW3 4786   3.846   3.693   1.993  0.8450 -0.4623 -2.2664
 1178SOL    MW4 4787   3.831   3.608   2.007  0.2718 -0.0174  0.0172
 1179SOL     OW 4788   3.861   3.872   1.917  0.1231 -0.2740 -0.0099
 1179SOL    HW2 4789   3.779   3.909   1.949 -0.2037 -0.8187 -0.2161
 1179SOL    HW3 4790   3.847   3.861   1.823 -0.3537 -2.3979  0.2894
 1179SOL    MW4 4791   3.848   3.875   1.909  0.0174 -0.6261  0.0023
 1180SOL     OW 4792   3.614   3.978   2.008 -0.0046 -0.3798  0.0640
 1180SOL    HW2 4793   3.602   3.988   2.102 -0.0315 -0.6458  0.0873
 1180SOL    HW3 4794   3.529   3.949   1.975  0.2426 -1.1047  0.0710
 1180SOL    MW4 4795   3.601   3.976   2.016  0.0246 -0.5107  0.0682
 1181SOL     OW 4796   3.638   4.246   1.886 -0.2034  0.1579 -0.2376
 1181SOL    HW2 4797   3.704   4.302   1.926 -1.7497  0.9963  1.1826
 1181SOL    HW3 4798   3.647   4.162   1.931 -0.6712  0.5352  0.5680
 1181SOL    MW4 4799   3.648   4.242   1.897 -0.4690  0.3181  0.0560
 1182SOL     OW 4800   3.831   4.424   1.992  0.3608  0.3194 -0.2504
 1182SOL    HW2 4801   3.823   4.416   2.087 -0.5783 -2.9487 -0.5599
 1182SOL    HW3 4802   3.908   4.372   1.969 -0.8335 -0.9244 -1.5170
 1182SOL    MW4 4803   3.840   4.416   2.001  0.0794 -0.2766 -0.4585
 1183SOL     OW 4804   4.274   0.001   1.872 -0.1754 -0.1029 -0.3515
 1183SOL    HW2 4805   4.190   0.035   1.904 -0.0769 -0.7267  0.6142
 1183SOL    HW3 4806   4.338   0.064   1.903 -0.2675  0.2801 -0.9378
 1183SOL    MW4 4807   4.271   0.014   1.881 -0.1750 -0.1349 -0.3015
 1184SOL     OW 4808   4.033   0.130   1.974 -0.2028 -0.2667  0.3410
 1184SOL    HW2 4809   4.038   0.113   2.068 -0.7256  0.1993  0.4646
 1184SOL    HW3 4810   3.951   0.088   1.947 -0.7718  0.7952  0.3768
 1184SOL    MW4 4811   4.023   0.122   1.983 -0.3467 -0.0651  0.3622
 1185SOL     OW 4812   4.016   0.369   1.860  0.8969  0.1426  0.0734
 1185SOL    HW2 4813   4.009   0.289   1.912 -1.9872 -0.4466 -1.1477
 1185SOL    HW3 4814   3.965   0.433   1.909  0.8119  0.4576 -0.4332
 1185SOL    MW4 4815   4.009   0.367   1.874  0.5054  0.1064 -0.1545
 1186SOL     OW 4816   4.264   0.463   1.978  0.1577  0.2266  0.1785
 1186SOL    HW2 4817   4.264   0.491   2.070  1.0005  0.9810 -0.0411
 1186SOL    HW3 4818   4.181   0.418   1.966  0.0415  0.1336  1.3169
 1186SOL    MW4 4819   4.253   0.461   1.989  0.2532  0.3139  0.2997
 1187SOL     OW 4820   4.283   0.734   1.900  0.2913  0.0802  0.0337
 1187SOL    HW2 4821   4.294   0.640   1.912 -0.4322 -0.0152 -0.0340
 1187SOL    HW3 4822   4.266   0.744   1.806  1.9333  0.4336 -0.2382
 1187SOL    MW4 4823   4.283   0.723   1.889  0.4120  0.1143 -0.0111
 1188SOL     OW 4824   4.077   0.893   1.955 -0.2557  0.5306 -0.0394
 1188SOL    HW2 4825   4.149   0.830   1.949 -0.1729  0.5485  0.7678
 1188SOL    HW3 4826   4.000   0.844   1.927 -0.1880  0.0751  0.5599
 1188SOL    MW4 4827   4.076   0.878   1.950 -0.2360  0.4729  0.1462
 1189SOL     OW 4828   4.063   1.143   1.856  0.3070 -0.0072 -0.0274
 1189SOL    HW2 4829   4.051   1.053   1.885  0.0398  0.0547  0.0608
 1189SOL    HW3 4830   3.990   1.190   1.896  1.5783  0.6446  1.5830
 1189SOL    MW4 4831   4.052   1.137   1.865  0.4396  0.0871  0.1967
 1190SOL     OW 4832   4.305   1.261   1.945  0.3839  0.3858  0.2696
 1190SOL    HW2 4833   4.309   1.261   2.040  1.2548 -1.1039  0.2440
 1190SOL    HW3 4834   4.223   1.216   1.924  0.4012  0.3338  0.3140
 1190SOL    MW4 4835   4.294   1.255   1.954  0.5012  0.1823  0.2720
 1191SOL     OW 4836   4.289   1.525   1.887  0.3781 -0.9506 -0.7922
 1191SOL    HW2 4837   4.291   1.430   1.898  0.2531 -0.8996 -0.3075
 1191SOL    HW3 4838   4.254   1.538   1.799  0.9686 -1.3636 -1.0939
 1191SOL    MW4 4839   4.284   1.514   1.877  0.4396 -0.9984 -0.7679
 1192SOL     OW 4840   4.033   1.658   1.941  0.4402  0.0911  0.3133
 1192SOL    HW2 4841   4.006   1.670   2.032 -0.0414 -1.2089  0.3489
 1192SOL    HW3 4842   4.121   1.622   1.946  0.3306 -0.1827  0.2647
 1192SOL    MW4 4843   4.041   1.655   1.953  0.3624 -0.1167  0.3116
 1193SOL     OW 4844   4.092   1.912   1.856 -0.0127  0.0009 -0.5889
 1193SOL    HW2 4845   4.093   1.818   1.876  1.0369 -0.1588 -1.3237
 1193SOL    HW3 4846   4.084   1.915   1.761 -1.4010  0.6853 -0.4562
 1193SOL    MW4 4847   4.091   1.900   1.846 -0.0567  0.0702 -0.6684
 1194SOL     OW 4848   4.298   2.059   1.986  0.7767  0.2022  1.1504
 1194SOL    HW2 4849   4.274   2.058   2.078 -0.2610 -1.1151  0.8816
 1194SOL    HW3 4850   4.231   2.006   1.943  1.2735  0.7633 -0.3523
 1194SOL    MW4 4851   4.286   2.052   1.992  0.7052  0.1025  0.9168
 1195SOL     OW 4852   4.280   2.309   1.871 -0.4364  0.3501  0.1770
 1195SOL    HW2 4853   4.296   2.232   1.926 -2.6291  0.3058  0.7820
 1195SOL    HW3 4854   4.347   2.372   1.898  0.4717 -0.8263  0.6885
 1195SOL    MW4 4855   4.291   2.307   1.882 -0.6061  0.1893  0.3244
 1196SOL     OW 4856   4.028   2.415   1.961  0.7026  0.1596 -0.0472
 1196SOL    HW2 4857   4.024   2.411   2.057 -0.0877 -0.9366 -0.1100
 1196SOL    HW3 4858   4.118   2.392   1.940  0.9172  0.5342  0.4353
 1196SOL    MW4 4859   4.039   2.411   1.971  0.6261  0.0641  0.0082
 1197SOL     OW 4860   4.008   2.676   1.870 -0.1299  0.2838  0.1753
 1197SOL    HW2 4861   4.008   2.587   1.905  1.1685  0.3423  0.3416
 1197SOL    HW3 4862   3.937   2.720   1.917  0.8567  0.0486  1.9451
 1197SOL    MW4 4863   3.999   2.670   1.881  0.1717  0.2606  0.4307
 1198SOL     OW 4864   4.264   2.803   1.997  0.0299 -0.0134  0.3211
 1198SOL    HW2 4865   4.275   2.800   2.092 -0.1933 -1.5243  0.3109
 1198SOL    HW3 4866   4.177   2.767   1.982 -0.5274  1.5899 -0.3657
 1198SOL    MW4 4867   4.254   2.798   2.008 -0.0734 -0.0012  0.2289
 1199SOL     OW 4868   4.232   3.064   1.884 -0.1253 -0.3293  0.0272
 1199SOL    HW2 4869   4.167   3.123   1.924  1.0971  1.1018 -0.0606
 1199SOL    HW3 4870   4.229   2.985   1.938 -1.3277  0.0435  0.5372
 1199SOL    MW4 4871   4.223   3.061   1.896 -0.1225 -0.0913  0.0829
 1200SOL     OW 4872   4.045   3.203   1.997 -0.4381 -0.3837 -0.1452
 1200SOL    HW2 4873   4.050   3.198   2.093 -0.0467  2.2901  0.0209
 1200SOL    HW3 4874   3.963   3.157   1.975 -0.1367 -1.7034  1.3847
 1200SOL    MW4 4875   4.035   3.196   2.007 -0.3471 -0.2053  0.0784
 1201SOL     OW 4876   4.034   3.480   1.902  0.2044 -0.0372 -0.2147
 1201SOL    HW2 4877   4.121   3.516   1.917  0.4304  0.2672 -2.1912
 1201SOL    HW3 4878   4.037   3.392   1.940  0.9664  0.4412  0.8522
 1201SOL    MW4 4879   4.046   3.473   1.909  0.3352  0.0660 -0.3347
 1202SOL     OW 4880   4.266   3.604   1.991  0.1938  0.3574 -0.4871
 1202SOL    HW2 4881   4.268   3.696   1.965  3.3774  0.2560 -0.7766
 1202SOL    HW3 4882   4.339   3.564   1.945  0.0650 -1.8987  1.1774
 1202SOL    MW4 4883   4.276   3.611   1.982  0.5965  0.0465 -0.3057
 1203SOL     OW 4884   4.280   3.876   1.908 -0.6555  0.2413 -0.5470
 1203SOL    HW2 4885   4.368   3.893   1.942 -0.9329  0.4378  0.0915
 1203SOL    HW3 4886   4.289   3.882   1.813  0.1969 -0.5915 -0.5259
 1203SOL    MW4 4887   4.293   3.879   1.900 -0.5798  0.1576 -0.4600
 1204SOL     OW 4888   4.067   4.038   2.005 -0.4043  0.1372 -0.0016
 1204SOL    HW2 4889   4.150   3.993   1.987 -0.3129  0.5727 -0.6808
 1204SOL    HW3 4890   4.000   3.979   1.971 -0.3081  0.3200 -0.5104
 1204SOL    MW4 4891   4.069   4.024   1.999 -0.3791  0.2193 -0.1584
 1205SOL     OW 4892   4.037   4.285   1.864  0.0433 -0.5792 -0.3587
 1205SOL    HW2 4893   4.111   4.339   1.894 -0.6650  0.6886 -0.8411
 1205SOL    HW3 4894   4.047   4.202   1.911  1.4878 -0.2433 -0.0407
 1205SOL    MW4 4895   4.048   4.281   1.875  0.1407 -0.3681 -0.3803
 1206SOL     OW 4896   4.290   4.395   1.964  0.3305 -0.2888 -0.1421
 1206SOL    HW2 4897   4.278   4.414   2.058  0.4109  0.5719 -0.3008
 1206SOL    HW3 4898   4.310   4.480   1.925  0.2065 -0.6330 -0.9600
 1206SOL    MW4 4899   4.291   4.409   1.972  0.3242 -0.2203 -0.2710
 1207SOL     OW 4900   0.204   4.647   2.349 -0.2865 -0.4840  0.0198
 1207SOL    HW2 4901   0.212   4.649   2.445 -1.4746 -0.8127  0.1386
 1207SOL    HW3 4902   0.287   4.683   2.317 -1.5882  3.8557  1.2034
 1207SOL    MW4 4903   0.216   4.652   2.358 -0.6150  0.0453  0.1915
 1208SOL     OW 4904   4.474   0.150   2.286 -0.1264 -0.0503 -0.0292
 1208SOL    HW2 4905   4.539   0.094   2.328  0.3154  1.2822  1.1249
 1208SOL    HW3 4906   4.483   0.132   2.192 -0.6285 -2.5343  0.3717
 1208SOL    MW4 4907   4.484   0.141   2.279 -0.1343 -0.2022  0.1760
 1209SOL     OW 4908   4.482   0.408   2.392  0.0953 -0.1452 -0.2909
 1209SOL    HW2 4909   4.573   0.437   2.379 -0.7877  2.1763 -1.6248
 1209SOL    HW3 4910   4.480   0.319   2.357  1.4025  0.5010 -2.0858
 1209SOL    MW4 4911   4.494   0.400   2.386  0.1512  0.2463 -0.7038
 1210SOL     OW 4912   0.244   0.524   2.302 -0.1087  0.1865 -0.1862
 1210SOL    HW2 4913   0.318   0.476   2.338 -0.2256 -0.4428 -0.7761
 1210SOL    HW3 4914   0.231   0.487   2.215 -1.0069  0.4054 -0.1529
 1210SOL    MW4 4915   0.252   0.513   2.295 -0.2426  0.1323 -0.2596
 1211SOL     OW 4916   0.243   0.787   2.376  0.6874 -0.4682  0.0076
 1211SOL    HW2 4917   0.233   0.788   2.471  0.4853  0.7970 -0.0060
 1211SOL    HW3 4918   0.243   0.695   2.352  1.2110 -0.8046  1.2835
 1211SOL    MW4 4919   0.241   0.775   2.386  0.7298 -0.3456  0.1743
 1212SOL     OW 4920   4.464   0.900   2.286  0.0013  0.2443 -0.1395
 1212SOL    HW2 4921   4.540   0.850   2.317 -0.9898 -1.1083  0.1411
 1212SOL    HW3 4922   4.481   0.912   2.192  1.1769  1.0775  0.1646
 1212SOL    MW4 4923   4.476   0.895   2.277  0.0253  0.1758 -0.0622
 1213SOL     OW 4924   4.489   1.166   2.378 -0.3669  0.1207 -0.3797
 1213SOL    HW2 4925   4.472   1.173   2.472  0.1000 -0.0381 -0.2865
 1213SOL    HW3 4926   4.488   1.072   2.360  1.1369  0.0733 -0.2468
 1213SOL    MW4 4927   4.486   1.154   2.388 -0.1068  0.0935 -0.3500
 1214SOL     OW 4928   0.232   1.283   2.297  0.3140 -0.2711  0.7322
 1214SOL    HW2 4929   0.153   1.240   2.328  0.0725 -0.0465  0.4270
 1214SOL    HW3 4930   0.231   1.272   2.202  1.1299 -1.0820  0.8160
 1214SOL    MW4 4931   0.221   1.276   2.289  0.3898 -0.3486  0.7029
 1215SOL     OW 4932   0.224   1.564   2.363  0.0332  0.2270  0.0761
 1215SOL    HW2 4933   0.216   1.556   2.459  1.5758 -1.1271  0.1243
 1215SOL    HW3 4934   0.220   1.474   2.332 -0.4704  0.6735 -1.1559
 1215SOL    MW4 4935   0.223   1.551   2.372  0.1703  0.1073 -0.0801
 1216SOL     OW 4936   4.479   1.667   2.298 -0.3470 -0.0124  0.6463
 1216SOL    HW2 4937   4.492   1.752   2.339 -1.5868  0.0406  0.9584
 1216SOL    HW3 4938   4.553   1.614   2.328  0.1085  0.7739  0.9215
 1216SOL    MW4 4939   4.491   1.671   2.307 -0.4506  0.0981  0.7236
 1217SOL     OW 4940   4.482   1.964   2.391 -0.1583  0.5286  0.1490
 1217SOL    HW2 4941   4.419   2.000   2.329 -0.2976  2.4586  1.3700
 1217SOL    HW3 4942   4.566   2.003   2.365  0.1405 -0.2727 -0.0932
 1217SOL    MW4 4943   4.485   1.974   2.379 -0.1374  0.6775  0.2782
 1218SOL     OW 4944   0.244   2.057   2.298  0.2541  0.3005  0.1317
 1218SOL    HW2 4945   0.298   1.989   2.338  1.1672  1.0910  0.2275
 1218SOL    HW3 4946   0.263   2.050   2.204 -1.2684 -0.9979 -0.1162
 1218SOL    MW4 4947   0.253   2.047   2.291  0.1737  0.2334  0.1118
 1219SOL     OW 4948   0.227   2.340   2.340  0.1859  0.2220  0.1592
 1219SOL    HW2 4949   0.221   2.352   2.435  1.2144  0.2084  0.2231
 1219SOL    HW3 4950   0.250   2.247   2.329 -2.9174 -0.5658 -0.1951
 1219SOL    MW4 4951   0.229   2.329   2.351 -0.0878  0.1166  0.1209
 1220SOL     OW 4952   4.489   2.475   2.243  0.2922 -0.0584  0.2920
 1220SOL    HW2 4953   4.498   2.557   2.292  0.2809 -0.0926  0.3516
 1220SOL    HW3 4954   4.562   2.420   2.273 -0.4283 -0.5426  1.1889
 1220SOL    MW4 4955   4.500   2.478   2.254  0.1960 -0.1266  0.4182
 1221SOL     OW 4956   0.022   2.685   2.410 -0.2501 -0.0578  0.6033
 1221SOL    HW2 4957   0.021   2.676   2.505 -0.7031  2.3552  0.8460
 1221SOL    HW3 4958   0.109   2.720   2.390 -1.0520  1.8753  0.3938
 1221SOL    MW4 4959   0.034   2.688   2.420 -0.4158  0.5155  0.6077
 1222SOL     OW 4960   0.260   2.821   2.330 -0.1035  0.0264 -0.5519
 1222SOL    HW2 4961   0.343   2.784   2.359  0.0412 -0.9061 -2.0974
 1222SOL    HW3 4962   0.267   2.826   2.234 -1.0955  1.7174 -0.5781
 1222SOL    MW4 4963   0.272   2.817   2.321 -0.2154  0.1264 -0.7596
 1223SOL     OW 4964   0.212   3.114   2.357 -0.2013  0.2461 -0.1819
 1223SOL    HW2 4965   0.130   3.146   2.318 -0.2818 -0.5144 -0.6461
 1223SOL    HW3 4966   0.212   3.020   2.341  0.2459  0.0698  0.7995
 1223SOL    MW4 4967   0.201   3.106   2.349 -0.1529  0.1223 -0.1135
 1224SOL     OW 4968   4.487   3.251   2.263  0.4940 -0.4428 -0.0268
 1224SOL    HW2 4969   4.478   3.334   2.310 -1.4792 -0.9007  0.4151
 1224SOL    HW3 4970   4.490   3.277   2.170 -1.8570  0.0250 -0.0034
 1224SOL    MW4 4971   4.486   3.265   2.257 -0.0765 -0.4416  0.0346
 1225SOL     OW 4972   4.491   3.513   2.395 -0.3261 -0.0384 -0.6690
 1225SOL    HW2 4973   4.495   3.487   2.487 -1.0548 -0.0377 -0.6306
 1225SOL    HW3 4974   4.397   3.528   2.378  0.0652  2.7370 -0.6378
 1225SOL    MW4 4975   4.479   3.511   2.405 -0.3700  0.3278 -0.6602
 1226SOL     OW 4976   0.257   3.555   2.276  0.6234 -0.5246 -0.5757
 1226SOL    HW2 4977   0.315   3.499   2.328  0.8666 -0.3994 -0.7081
 1226SOL    HW3 4978   0.170   3.542   2.313  0.9870  0.5318  0.6905
 1226SOL    MW4 4979   0.254   3.546   2.288  0.7035 -0.3688 -0.4263
 1227SOL     OW 4980   0.273   3.827   2.418 -0.4439  0.5924  0.0094
 1227SOL    HW2 4981   0.201   3.878   2.381  0.5426  1.9854 -0.0503
 1227SOL    HW3 4982   0.258   3.738   2.387 -0.9423  1.2895 -1.7997
 1227SOL    MW4 4983   0.262   3.822   2.409 -0.3794  0.8683 -0.2372
 1228SOL     OW 4984   0.087   3.993   2.288 -0.7783  0.1759  0.0718
 1228SOL    HW2 4985   0.050   4.078   2.313 -0.8892  0.3467 -0.6815
 1228SOL    HW3 4986   0.078   3.989   2.193  0.8943  0.1103 -0.1097
 1228SOL    MW4 4987   0.081   4.004   2.279 -0.5723  0.1893 -0.0515
 1229SOL     OW 4988   4.486   4.251   2.382  0.3568 -0.0785  0.2175
 1229SOL    HW2 4989   4.508   4.233   2.473 -0.3014 -0.9917  0.2061
 1229SOL    HW3 4990   4.555   4.310   2.351 -0.3778  1.6220  1.7984
 1229SOL    MW4 4991   4.498   4.256   2.390  0.1731  0.0262  0.4244
 1230SOL     OW 4992   0.199   4.392   2.270  0.3168  0.0795 -0.3391
 1230SOL    HW2 4993   0.279   4.353   2.305  0.7569  0.2459 -1.1484
 1230SOL    HW3 4994   0.197   4.480   2.307 -0.8039 -0.7675  1.6852
 1230SOL    MW4 4995   0.210   4.399   2.279  0.2270 -0.0105 -0.1786
 1231SOL     OW 4996   0.702   4.658   2.364  0.5662  0.3444 -0.4279
 1231SOL    HW2 4997   0.687   4.666   2.458  0.4793  1.0146 -0.4968
 1231SOL    HW3 4998   0.779   4.711   2.347  0.5578  0.2598 -0.7421
 1231SOL    MW4 4999   0.710   4.666   2.374  0.5537  0.4216 -0.4785
 1232SOL     OW 5000   0.432   0.097   2.268  0.5221 -0.2761  0.2749
 1232SOL    HW2 5001   0.518   0.063   2.292  0.7006  0.2654  0.4205
 1232SOL    HW3 5002   0.433   0.102   2.172  0.8237  0.1511  0.2966
 1232SOL    MW4 5003   0.443   0.093   2.258  0.5855 -0.1483  0.2968
 1233SOL     OW 5004   0.461   0.359   2.376 -0.1876 -0.5600  0.4750
 1233SOL    HW2 5005   0.425   0.358   2.464 -2.1146 -2.0094 -0.3029
 1233SOL    HW3 5006   0.461   0.268   2.348  0.5892 -0.1479 -0.9655
 1233SOL    MW4 5007   0.456   0.347   2.384 -0.3393 -0.6968  0.1819
 1234SOL     OW 5008   0.687   0.504   2.277  0.5532  0.0862 -0.0677
 1234SOL    HW2 5009   0.675   0.596   2.303 -0.3779  0.3338 -1.3189
 1234SOL    HW3 5010   0.617   0.458   2.323  0.6379  0.0954  0.0715
 1234SOL    MW4 5011   0.676   0.510   2.286  0.4416  0.1201 -0.2143
 1235SOL     OW 5012   0.684   0.774   2.359  0.4172 -0.1158  0.4219
 1235SOL    HW2 5013   0.674   0.777   2.454 -0.7079  0.7068  0.2816
 1235SOL    HW3 5014   0.617   0.833   2.326  1.3737  0.2811 -0.8472
 1235SOL    MW4 5015   0.674   0.782   2.368  0.3949  0.0451  0.2358
 1236SOL     OW 5016   0.474   0.911   2.253  0.7850  0.2595 -0.0758
 1236SOL    HW2 5017   0.396   0.876   2.296  0.9189  0.9077  0.7117
 1236SOL    HW3 5018   0.471   0.875   2.165  0.0601 -0.4236  0.2182
 1236SOL    MW4 5019   0.463   0.902   2.247  0.7070  0.2549  0.0670
 1237SOL     OW 5020   0.473   1.160   2.368  0.1112 -0.0382  0.4041
 1237SOL    HW2 5021   0.484   1.071   2.333  0.6566  0.0649  0.3094
 1237SOL    HW3 5022   0.388   1.189   2.334  0.2527 -0.2560 -0.1431
 1237SOL    MW4 5023   0.463   1.152   2.359  0.2018 -0.0534  0.3197
 1238SOL     OW 5024   0.684   1.304   2.249  0.1038 -0.6405  0.4840
 1238SOL    HW2 5025   0.684   1.396   2.275  0.9365 -0.6826  0.6483
 1238SOL    HW3 5026   0.602   1.269   2.284 -1.5883  0.7001 -1.9999
 1238SOL    MW4 5027   0.673   1.311   2.257 -0.0096 -0.4692  0.1779
 1239SOL     OW 5028   0.652   1.571   2.298  0.5283 -0.0983  0.1364
 1239SOL    HW2 5029   0.620   1.565   2.388  1.6003 -0.1717  0.5162
 1239SOL    HW3 5030   0.735   1.618   2.305  0.2703  0.5476 -0.9009
 1239SOL    MW4 5031   0.658   1.577   2.310  0.6356 -0.0229  0.0494
 1240SOL     OW 5032   0.423   1.685   2.211  0.0584  0.3858  0.1922
 1240SOL    HW2 5033   0.498   1.642   2.252  0.4748 -0.5155 -1.4646
 1240SOL    HW3 5034   0.347   1.639   2.245  0.3383  0.3629  0.7890
 1240SOL    MW4 5035   0.423   1.673   2.221  0.1503  0.2638  0.0522
 1241SOL     OW 5036   0.475   1.904   2.378 -0.2633  0.0198 -0.1286
 1241SOL    HW2 5037   0.530   1.965   2.329  0.1573  0.0705  0.4016
 1241SOL    HW3 5038   0.458   1.832   2.317 -1.3807  1.0024 -1.0218
 1241SOL    MW4 5039   0.480   1.902   2.364 -0.3552  0.1560 -0.1764
 1242SOL     OW 5040   0.669   2.034   2.213 -0.4414  0.3865  0.1580
 1242SOL    HW2 5041   0.754   1.997   2.237 -0.7334 -0.5788 -0.2505
 1242SOL    HW3 5042   0.662   2.114   2.264  0.5399  0.2638  0.4968
 1242SOL    MW4 5043   0.679   2.040   2.223 -0.3505  0.2429  0.1488
 1243SOL     OW 5044   0.659   2.276   2.334  0.0275  0.1937  0.1299
 1243SOL    HW2 5045   0.642   2.290   2.428  0.8921 -0.1143  0.3386
 1243SOL    HW3 5046   0.734   2.332   2.315  0.3726 -0.3723 -0.1852
 1243SOL    MW4 5047   0.666   2.286   2.344  0.1870  0.0784  0.1161
 1244SOL     OW 5048   0.459   2.459   2.267  0.5021 -0.2375 -0.6970
 1244SOL    HW2 5049   0.527   2.394   2.285  0.4258 -0.0550  0.2400
 1244SOL    HW3 5050   0.377   2.414   2.286  0.3427 -0.4835 -1.9042
 1244SOL    MW4 5051   0.457   2.445   2.272  0.4710 -0.2458 -0.7324
 1245SOL     OW 5052   0.462   2.681   2.436 -0.0635  0.3948  0.1263
 1245SOL    HW2 5053   0.445   2.669   2.529  1.3282  1.8823  0.6016
 1245SOL    HW3 5054   0.425   2.603   2.394 -1.3268  0.0438  1.8358
 1245SOL    MW4 5055   0.455   2.669   2.442 -0.0466  0.5448  0.4146
 1246SOL     OW 5056   0.673   2.806   2.284  0.0836  0.1375 -0.0290
 1246SOL    HW2 5057   0.757   2.764   2.304  0.2462 -0.4668 -1.9015
 1246SOL    HW3 5058   0.609   2.759   2.340  0.8676  0.1430  0.8879
 1246SOL    MW4 5059   0.675   2.794   2.294  0.2085  0.0584 -0.1550
 1247SOL     OW 5060   0.671   3.062   2.377 -0.0088  0.0760 -0.1707
 1247SOL    HW2 5061   0.594   3.104   2.339  0.5595  0.6330 -0.7187
 1247SOL    HW3 5062   0.671   2.973   2.341 -0.2923  0.1377 -0.3188
 1247SOL    MW4 5063   0.661   3.056   2.367  0.0287  0.1578 -0.2623
 1248SOL     OW 5064   0.452   3.173   2.240 -0.2245 -0.2031 -0.6627
 1248SOL    HW2 5065   0.361   3.156   2.264  0.2678 -1.5919  0.2876
 1248SOL    HW3 5066   0.450   3.186   2.145 -1.2038 -1.7792 -0.8684
 1248SOL    MW4 5067   0.440   3.172   2.230 -0.2887 -0.5941 -0.5643
 1249SOL     OW 5068   0.443   3.396   2.403  0.2370  0.0092 -0.1138
 1249SOL    HW2 5069   0.529   3.433   2.384  0.1247 -0.0788 -0.8264
 1249SOL    HW3 5070   0.446   3.308   2.367 -0.1411 -0.0058 -0.1172
 1249SOL    MW4 5071   0.455   3.390   2.396  0.1723 -0.0045 -0.2081
 1250SOL     OW 5072   0.649   3.555   2.293 -0.0820  0.3533 -0.3281
 1250SOL    HW2 5073   0.653   3.644   2.328 -0.1118  0.3012 -0.1924
 1250SOL    HW3 5074   0.637   3.567   2.199  0.6465  0.4935 -0.4052
 1250SOL    MW4 5075   0.648   3.568   2.285  0.0102  0.3648 -0.3202
 1251SOL     OW 5076   0.663   3.819   2.386  0.7553  0.0268  0.1842
 1251SOL    HW2 5077   0.656   3.842   2.479  0.3515  1.0008 -0.0792
 1251SOL    HW3 5078   0.588   3.862   2.345  0.9859 -0.3182 -0.6144
 1251SOL    MW4 5079   0.652   3.828   2.393  0.7325  0.1097  0.0441
 1252SOL     OW 5080   0.462   3.997   2.291  0.1354 -0.2595  0.6489
 1252SOL    HW2 5081   0.384   3.945   2.311  0.3760 -0.3629  1.3130
 1252SOL    HW3 5082   0.462   4.002   2.195 -1.1299  0.4198  0.6657
 1252SOL    MW4 5083   0.451   3.991   2.281  0.0002 -0.1836  0.7386
 1253SOL     OW 5084   0.433   4.270   2.368 -0.3878  0.1623  0.4541
 1253SOL    HW2 5085   0.508   4.318   2.333 -0.0885 -0.7348 -0.1670
 1253SOL    HW3 5086   0.443   4.181   2.333 -1.1547 -0.2468  1.2383
 1253SOL    MW4 5087   0.444   4.264   2.359 -0.4495 -0.0105  0.4756
 1254SOL     OW 5088   0.672   4.398   2.246 -0.0135 -0.0763  0.4188
 1254SOL    HW2 5089   0.698   4.485   2.279 -0.0025  0.0244  0.1429
 1254SOL    HW3 5090   0.672   4.408   2.151  1.3729 -0.7880  0.3428
 1254SOL    MW4 5091   0.675   4.411   2.238  0.1709 -0.1569  0.3724
 1255SOL     OW 5092   1.135   4.645   2.392 -0.4673  0.3502 -0.3399
 1255SOL    HW2 5093   1.157   4.634   2.484 -0.7354 -1.2737 -0.4519
 1255SOL    HW3 5094   1.053   4.695   2.393 -0.4359  0.3927  0.2933
 1255SOL    MW4 5095   1.127   4.650   2.404 -0.4985  0.1411 -0.2711
 1256SOL     OW 5096   0.935   0.140   2.300 -0.5328  0.1817 -0.1839
 1256SOL    HW2 5097   0.940   0.235   2.307 -1.9226  0.2627 -0.1525
 1256SOL    HW3 5098   0.926   0.122   2.207  0.6719  0.0227 -0.2765
 1256SOL    MW4 5099   0.934   0.150   2.289 -0.5572  0.1714 -0.1919
 1257SOL     OW 5100   0.920   0.418   2.388  0.3914 -0.5625  0.1017
 1257SOL    HW2 5101   0.980   0.484   2.354 -0.5688  0.4143  0.2571
 1257SOL    HW3 5102   0.837   0.437   2.344  0.2567 -2.0553 -0.3115
 1257SOL    MW4 5103   0.917   0.429   2.378  0.2469 -0.6306  0.0677
 1258SOL     OW 5104   1.165   0.531   2.283  0.0408  0.1057 -1.0235
 1258SOL    HW2 5105   1.216   0.457   2.316 -0.9116 -0.4975 -0.8701
 1258SOL    HW3 5106   1.178   0.528   2.188  0.1132 -0.1850 -1.0067
 1258SOL    MW4 5107   1.173   0.521   2.275 -0.0753 -0.0122 -1.0011
 1259SOL     OW 5108   1.166   0.794   2.403  0.2571 -0.2644  0.1566
 1259SOL    HW2 5109   1.084   0.832   2.372  0.4469  0.8708  1.0234
 1259SOL    HW3 5110   1.175   0.713   2.353 -0.2201  0.7525 -1.6415
 1259SOL    MW4 5111   1.157   0.788   2.392  0.2192  0.0196  0.0336
 1260SOL     OW 5112   0.925   0.890   2.295  0.2681 -0.2952 -0.1021
 1260SOL    HW2 5113   0.908   0.977   2.332  1.4215  0.9998 -2.4838
 1260SOL    HW3 5114   0.843   0.843   2.305 -0.1335  0.7873  1.9571
 1260SOL    MW4 5115   0.912   0.895   2.301  0.3673  0.0185 -0.1445
 1261SOL     OW 5116   0.888   1.150   2.358  0.0898 -0.0255  0.0531
 1261SOL    HW2 5117   0.958   1.201   2.317 -0.7048  1.1768  0.1473
 1261SOL    HW3 5118   0.808   1.198   2.336 -0.6365 -1.0006  0.5268
 1261SOL    MW4 5119   0.887   1.163   2.350 -0.1109  0.0044  0.1280
 1262SOL     OW 5120   1.101   1.249   2.247 -0.6509 -0.6499 -0.0666
 1262SOL    HW2 5121   1.179   1.215   2.290 -0.4606  0.2871  0.3499
 1262SOL    HW3 5122   1.121   1.246   2.153 -0.2391 -0.7083  0.0239
 1262SOL    MW4 5123   1.114   1.244   2.240 -0.5714 -0.5339  0.0000
 1263SOL     OW 5124   1.120   1.525   2.336  0.0405  0.2571  0.3675
 1263SOL    HW2 5125   1.040   1.570   2.308  1.0048  0.9308 -1.3488
 1263SOL    HW3 5126   1.105   1.434   2.312  0.8456  0.8135 -2.4484
 1263SOL    MW4 5127   1.107   1.519   2.329  0.2739  0.4193 -0.2306
 1264SOL     OW 5128   0.919   1.676   2.264  0.0112 -0.1943  0.0625
 1264SOL    HW2 5129   0.925   1.763   2.303  1.0629 -0.0984 -0.2809
 1264SOL    HW3 5130   0.925   1.692   2.170  1.2958 -0.7086  0.0402
 1264SOL    MW4 5131   0.921   1.690   2.257  0.3195 -0.2496  0.0145
 1265SOL     OW 5132   0.907   1.942   2.354 -0.0954  0.6849 -0.4534
 1265SOL    HW2 5133   0.887   1.950   2.447 -0.3332 -1.7461 -0.2707
 1265SOL    HW3 5134   0.986   1.994   2.342  0.5853  0.1097  1.3563
 1265SOL    MW4 5135   0.915   1.950   2.365 -0.0370  0.2884 -0.1903
 1266SOL     OW 5136   1.131   2.064   2.276 -0.2219 -0.4244 -0.5314
 1266SOL    HW2 5137   1.207   2.008   2.295  0.1138  0.3552  0.4539
 1266SOL    HW3 5138   1.133   2.074   2.180  0.6952 -0.7184 -0.5521
 1266SOL    MW4 5139   1.142   2.058   2.266 -0.0566 -0.3603 -0.4041
 1267SOL     OW 5140   1.123   2.333   2.337  0.3892  0.3088  0.0411
 1267SOL    HW2 5141   1.207   2.369   2.309 -0.4323  0.7570 -1.9526
 1267SOL    HW3 5142   1.129   2.240   2.317  0.0994  0.4917 -0.9264
 1267SOL    MW4 5143   1.135   2.326   2.330  0.2426  0.3920 -0.3498
 1268SOL     OW 5144   0.881   2.431   2.221 -0.0021  0.1749 -0.4433
 1268SOL    HW2 5145   0.939   2.366   2.262 -0.4102  0.0192 -0.1130
 1268SOL    HW3 5146   0.886   2.411   2.128 -0.8532 -0.9368 -0.2584
 1268SOL    MW4 5147   0.889   2.419   2.214 -0.1682  0.0074 -0.3753
 1269SOL     OW 5148   0.926   2.701   2.354 -0.6942 -0.1150 -0.1623
 1269SOL    HW2 5149   0.910   2.703   2.448 -1.1139  1.0463 -0.2486
 1269SOL    HW3 5150   0.924   2.608   2.331 -0.6035 -0.4024  0.9672
 1269SOL    MW4 5151   0.924   2.689   2.363 -0.7376  0.0002 -0.0246
 1270SOL     OW 5152   1.154   2.829   2.243  0.1002 -0.2248  0.0884
 1270SOL    HW2 5153   1.238   2.796   2.275 -0.2361 -0.0380  1.1687
 1270SOL    HW3 5154   1.089   2.780   2.293 -0.4177  1.2188  0.8304
 1270SOL    MW4 5155   1.157   2.818   2.253 -0.0126 -0.0095  0.3288
 1271SOL     OW 5156   1.111   3.083   2.321  0.0226  0.4916 -0.4956
 1271SOL    HW2 5157   1.030   3.109   2.279 -0.9474 -1.0731  0.3423
 1271SOL    HW3 5158   1.121   2.990   2.298  0.5390  0.1571  0.9901
 1271SOL    MW4 5159   1.102   3.074   2.312 -0.0372  0.2413 -0.1888
 1272SOL     OW 5160   0.872   3.160   2.194 -0.1603 -0.1205  0.1362
 1272SOL    HW2 5161   0.863   3.239   2.248  1.2269 -0.5733  1.0593
 1272SOL    HW3 5162   0.817   3.095   2.238  0.2559 -0.2241  0.5189
 1272SOL    MW4 5163   0.864   3.162   2.207  0.0777 -0.1941  0.3085
 1273SOL     OW 5164   0.895   3.443   2.330 -0.3748  0.4040 -0.1442
 1273SOL    HW2 5165   0.908   3.451   2.424 -0.7635 -0.3489 -0.0207
 1273SOL    HW3 5166   0.809   3.482   2.314 -0.9110 -0.6852  0.0165
 1273SOL    MW4 5167   0.885   3.449   2.340 -0.4969  0.1612 -0.1070
 1274SOL     OW 5168   1.104   3.613   2.225 -0.6820 -0.2997  0.2790
 1274SOL    HW2 5169   1.179   3.572   2.268  0.4580  1.1195 -0.3067
 1274SOL    HW3 5170   1.031   3.554   2.242  0.6287 -1.8541  0.6044
 1274SOL    MW4 5171   1.104   3.600   2.233 -0.3587 -0.3176  0.2446
 1275SOL     OW 5172   1.104   3.870   2.329  0.3972 -0.8417  0.3508
 1275SOL    HW2 5173   1.179   3.917   2.292  0.0510 -0.2443  0.4064
 1275SOL    HW3 5174   1.109   3.783   2.289  1.2665 -0.8885  0.5487
 1275SOL    MW4 5175   1.114   3.864   2.319  0.4661 -0.7694  0.3841
 1276SOL     OW 5176   0.865   3.997   2.276 -0.0898 -0.1812  0.2238
 1276SOL    HW2 5177   0.937   3.941   2.304  0.0418 -0.6651 -1.0158
 1276SOL    HW3 5178   0.787   3.959   2.317  0.0040 -1.2727 -0.5809
 1276SOL    MW4 5179   0.864   3.985   2.285 -0.0600 -0.3891 -0.0458
 1277SOL     OW 5180   0.873   4.270   2.378  0.0651 -0.3987 -0.4961
 1277SOL    HW2 5181   0.867   4.180   2.346  0.5253 -0.1985 -1.1750
 1277SOL    HW3 5182   0.792   4.311   2.349 -0.0484 -0.5444 -0.3788
 1277SOL    MW4 5183   0.862   4.264   2.370  0.1109 -0.3915 -0.5703
 1278SOL     OW 5184   1.093   4.382   2.268  0.1065  0.2023 -0.2595
 1278SOL    HW2 5185   1.007   4.347   2.292 -0.3364  1.0704 -0.5693
 1278SOL    HW3 5186   1.101   4.464   2.317  1.4045 -0.6084  0.9378
 1278SOL    MW4 5187   1.083   4.388   2.278  0.2193  0.2098 -0.1423
 1279SOL     OW 5188   1.575   4.658   2.347 -0.1856  0.5580 -0.1860
 1279SOL    HW2 5189   1.657   4.685   2.306 -0.5843  2.1043 -0.0022
 1279SOL    HW3 5190   1.508   4.711   2.303 -0.8581  0.6840  0.9877
 1279SOL    MW4 5191   1.577   4.668   2.335 -0.3269  0.7792 -0.0069
 1280SOL     OW 5192   1.340   0.089   2.232 -0.1080 -0.2400 -0.1436
 1280SOL    HW2 5193   1.342   0.181   2.259 -0.9100 -0.4090  0.5519
 1280SOL    HW3 5194   1.269   0.051   2.285 -1.1245 -0.8023 -1.8600
 1280SOL    MW4 5195   1.331   0.096   2.243 -0.3481 -0.3365 -0.2782
 1281SOL     OW 5196   1.360   0.343   2.348  0.1337 -0.0398  0.4502
 1281SOL    HW2 5197   1.361   0.342   2.444 -0.5658  0.2494  0.4674
 1281SOL    HW3 5198   1.435   0.398   2.324 -1.2778  2.1487  0.9034
 1281SOL    MW4 5199   1.370   0.350   2.357 -0.1448  0.2871  0.5124
 1282SOL     OW 5200   1.578   0.498   2.266 -0.2475 -1.1596 -0.2542
 1282SOL    HW2 5201   1.654   0.442   2.283 -0.3587 -1.5116 -0.8907
 1282SOL    HW3 5202   1.588   0.523   2.174  0.0613  0.2604  0.1514
 1282SOL    MW4 5203   1.589   0.494   2.256 -0.2215 -1.0187 -0.2849
 1283SOL     OW 5204   1.567   0.747   2.396  0.0185 -0.0764 -0.4932
 1283SOL    HW2 5205   1.635   0.799   2.354 -0.7487  1.1010 -0.2896
 1283SOL    HW3 5206   1.579   0.659   2.361  1.9305  0.0202 -0.1197
 1283SOL    MW4 5207   1.577   0.742   2.386  0.1696  0.0917 -0.4170
 1284SOL     OW 5208   1.390   0.892   2.257  0.1974 -0.4996 -0.1500
 1284SOL    HW2 5209   1.453   0.851   2.316  1.1463 -0.5620 -1.1896
 1284SOL    HW3 5210   1.305   0.857   2.284  0.5410 -0.0767  1.5512
 1284SOL    MW4 5211   1.387   0.882   2.269  0.3680 -0.4520 -0.0627
 1285SOL     OW 5212   1.341   1.155   2.332 -0.0625  0.2039 -0.3451
 1285SOL    HW2 5213   1.349   1.163   2.427 -1.7003  0.2384 -0.1964
 1285SOL    HW3 5214   1.364   1.064   2.313  2.0348  0.6526 -0.1451
 1285SOL    MW4 5215   1.345   1.144   2.342 -0.0017  0.2677 -0.2990
 1286SOL     OW 5216   1.565   1.273   2.212 -0.3280  0.1472 -0.3096
 1286SOL    HW2 5217   1.495   1.216   2.244  0.4001 -0.3179  0.4588
 1286SOL    HW3 5218   1.536   1.297   2.124 -0.7296 -1.2827 -0.5930
 1286SOL    MW4 5219   1.552   1.269   2.204 -0.2850 -0.1028 -0.2458
 1287SOL     OW 5220   1.568   1.527   2.357  0.2281  0.1513  0.2158
 1287SOL    HW2 5221   1.649   1.568   2.327  0.5602 -1.1658 -0.7444
 1287SOL    HW3 5222   1.560   1.449   2.302 -0.6260 -0.8046  1.6988
 1287SOL    MW4 5223   1.578   1.522   2.346  0.1593 -0.1484  0.2849
 1288SOL     OW 5224   1.363   1.649   2.208  0.2523 -0.6519  0.0428
 1288SOL    HW2 5225   1.439   1.606   2.246  0.3705 -0.8640 -0.4217
 1288SOL    HW3 5226   1.288   1.610   2.253  0.3719 -1.1774 -0.2064
 1288SOL    MW4 5227   1.363   1.638   2.219  0.2836 -0.7491 -0.0513
 1289SOL     OW 5228   1.351   1.920   2.342 -0.7143  0.5257  0.0412
 1289SOL    HW2 5229   1.436   1.957   2.319 -0.9201  0.7531 -0.3538
 1289SOL    HW3 5230   1.354   1.830   2.309 -0.2561  0.2101  0.9056
 1289SOL    MW4 5231   1.362   1.913   2.335 -0.6809  0.5141  0.1035
 1290SOL     OW 5232   1.580   2.031   2.210  0.1462 -0.3487 -0.0327
 1290SOL    HW2 5233   1.658   1.981   2.233  1.3945  1.5761  0.0521
 1290SOL    HW3 5234   1.580   2.031   2.114  0.6859  0.2759 -0.0384
 1290SOL    MW4 5235   1.590   2.024   2.200  0.3821 -0.0122 -0.0222
 1291SOL     OW 5236   1.541   2.295   2.343  0.1564 -0.3613 -0.7736
 1291SOL    HW2 5237   1.505   2.298   2.431 -0.2378 -0.9690 -0.9075
 1291SOL    HW3 5238   1.560   2.202   2.328  2.3867  0.0108 -0.4712
 1291SOL    MW4 5239   1.539   2.283   2.352  0.3986 -0.3922 -0.7515
 1292SOL     OW 5240   1.356   2.441   2.223  0.4563  0.3249 -0.3185
 1292SOL    HW2 5241   1.425   2.385   2.257 -1.2582 -2.0822 -0.7317
 1292SOL    HW3 5242   1.339   2.408   2.134 -1.3847  0.7026 -0.1310
 1292SOL    MW4 5243   1.362   2.430   2.216 -0.0128  0.0572 -0.3483
 1293SOL     OW 5244   1.375   2.684   2.332  0.2049 -0.0982 -0.5632
 1293SOL    HW2 5245   1.443   2.738   2.292  1.4257 -1.5377 -0.4837
 1293SOL    HW3 5246   1.390   2.597   2.296  0.0239 -0.9745  1.4487
 1293SOL    MW4 5247   1.386   2.680   2.322  0.3422 -0.4039 -0.2873
 1294SOL     OW 5248   1.571   2.830   2.187  0.0983 -0.6052 -0.5492
 1294SOL    HW2 5249   1.554   2.917   2.224  1.4025 -1.1584  1.3882
 1294SOL    HW3 5250   1.592   2.847   2.095 -1.1057  0.9797 -0.5500
 1294SOL    MW4 5251   1.572   2.844   2.180  0.1115 -0.4690 -0.2935
 1295SOL     OW 5252   1.587   3.069   2.330 -0.2485  0.3312  0.3018
 1295SOL    HW2 5253   1.584   3.071   2.425 -0.4196 -0.9220  0.3323
 1295SOL    HW3 5254   1.510   3.118   2.302 -1.2202 -0.8877  0.8215
 1295SOL    MW4 5255   1.576   3.076   2.339 -0.3994  0.0048  0.3743
 1296SOL     OW 5256   1.357   3.207   2.274  0.0547  0.1826 -0.1250
 1296SOL    HW2 5257   1.276   3.167   2.304 -0.2367  0.5657 -0.3892
 1296SOL    HW3 5258   1.353   3.200   2.178 -0.5293  1.8227 -0.2440
 1296SOL    MW4 5259   1.346   3.201   2.265 -0.0606  0.4494 -0.1755
 1297SOL     OW 5260   1.334   3.478   2.344 -0.1257  0.4880  0.5296
 1297SOL    HW2 5261   1.328   3.482   2.439  0.7187 -0.1792  0.6056
 1297SOL    HW3 5262   1.359   3.388   2.324  1.3895  1.0577 -0.2368
 1297SOL    MW4 5263   1.336   3.467   2.354  0.1857  0.4749  0.4385
 1298SOL     OW 5264   1.573   3.614   2.282  0.0952  0.3727  0.0754
 1298SOL    HW2 5265   1.568   3.709   2.276 -0.7470  0.4472  1.5393
 1298SOL    HW3 5266   1.488   3.588   2.318  0.5342 -0.8808  0.2512
 1298SOL    MW4 5267   1.561   3.623   2.286  0.0420  0.2170  0.2918
 1299SOL     OW 5268   1.574   3.893   2.331  0.2119 -0.2805 -0.1090
 1299SOL    HW2 5269   1.580   3.897   2.427 -1.5548  1.9227 -0.0549
 1299SOL    HW3 5270   1.648   3.945   2.301  0.5231 -0.6206  0.0631
 1299SOL    MW4 5271   1.584   3.900   2.340  0.0199 -0.0348 -0.0792
 1300SOL     OW 5272   1.332   4.015   2.253 -0.0587  0.5632  0.1753
 1300SOL    HW2 5273   1.413   3.971   2.280  0.3699  1.3695  0.2333
 1300SOL    HW3 5274   1.334   4.010   2.157 -0.2976 -0.0443  0.2007
 1300SOL    MW4 5275   1.343   4.009   2.244 -0.0337  0.5894  0.1864
 1301SOL     OW 5276   1.350   4.258   2.364 -0.5188 -0.0288  0.5523
 1301SOL    HW2 5277   1.336   4.169   2.332 -0.5194  0.3216 -0.4101
 1301SOL    HW3 5278   1.271   4.306   2.341  0.1563  0.6451 -0.3883
 1301SOL    MW4 5279   1.338   4.253   2.357 -0.4299  0.1059  0.3014
 1302SOL     OW 5280   1.580   4.391   2.261  0.0995 -0.5988  0.3407
 1302SOL    HW2 5281   1.526   4.329   2.311 -1.4840  0.2887 -0.2603
 1302SOL    HW3 5282   1.563   4.476   2.301  1.4412 -0.3653  0.4575
 1302SOL    MW4 5283   1.571   4.394   2.273  0.0675 -0.4511  0.2766
 1303SOL     OW 5284   2.034   0.002   2.285 -0.3290  0.0683 -0.0002
 1303SOL    HW2 5285   2.115   0.051   2.269 -1.2646  1.9340  0.7784
 1303SOL    HW3 5286   2.061  -0.090   2.285  1.9898  0.7099  1.2860
 1303SOL    MW4 5287   2.049  -0.004   2.283 -0.1462  0.3990  0.2723
 1304SOL     OW 5288   1.796   0.119   2.210  0.2805  0.1684  0.0513
 1304SOL    HW2 5289   1.792   0.213   2.228  1.9391  0.2484  0.1018
 1304SOL    HW3 5290   1.876   0.089   2.255 -0.7889 -1.4669  0.9349
 1304SOL    MW4 5291   1.806   0.127   2.219  0.3581 -0.0368  0.1745
 1305SOL     OW 5292   1.811   0.369   2.332  0.1173  0.2798  0.0252
 1305SOL    HW2 5293   1.809   0.397   2.424  2.8958 -2.1845  0.9185
 1305SOL    HW3 5294   1.882   0.420   2.293  0.4062 -0.2785 -0.1804
 1305SOL    MW4 5295   1.820   0.379   2.339  0.5220 -0.1190  0.1156
 1306SOL     OW 5296   2.027   0.495   2.213  0.3712  0.0815  0.6474
 1306SOL    HW2 5297   2.004   0.574   2.261 -0.8738  0.0307  0.1658
 1306SOL    HW3 5298   2.037   0.524   2.122 -0.0598 -0.3031  0.4736
 1306SOL    MW4 5299   2.025   0.509   2.207  0.1502  0.0241  0.5610
 1307SOL     OW 5300   1.981   0.731   2.377 -0.4364  0.6926  0.4708
 1307SOL    HW2 5301   2.068   0.768   2.364 -0.5853  0.6692 -0.6454
 1307SOL    HW3 5302   1.921   0.803   2.362 -0.6321  0.6167  0.8694
 1307SOL    MW4 5303   1.985   0.745   2.374 -0.4818  0.6794  0.3760
 1308SOL     OW 5304   1.774   0.923   2.297  0.2014 -0.1267 -0.3133
 1308SOL    HW2 5305   1.788   1.007   2.341  0.9930  0.0067 -0.8120
 1308SOL    HW3 5306   1.783   0.942   2.204 -1.9611 -0.3180 -0.5966
 1308SOL    MW4 5307   1.777   0.937   2.291  0.0204 -0.1343 -0.4165
 1309SOL     OW 5308   1.781   1.181   2.379 -0.2331  0.2038  0.1246
 1309SOL    HW2 5309   1.861   1.215   2.339 -0.7772  0.0349 -1.1219
 1309SOL    HW3 5310   1.710   1.216   2.326 -1.0139  0.5567  1.3779
 1309SOL    MW4 5311   1.782   1.190   2.367 -0.4079  0.2280  0.1259
 1310SOL     OW 5312   2.008   1.282   2.265  0.2333 -0.0135  0.0989
 1310SOL    HW2 5313   2.010   1.376   2.282  0.0392  0.2605 -1.3071
 1310SOL    HW3 5314   2.011   1.275   2.169 -0.5751 -1.4111  0.1673
 1310SOL    MW4 5315   2.009   1.294   2.255  0.1009 -0.1619 -0.0777
 1311SOL     OW 5316   2.021   1.555   2.342 -0.1303 -0.1655  0.0562
 1311SOL    HW2 5317   1.997   1.541   2.434 -1.2629  0.6023 -0.1167
 1311SOL    HW3 5318   1.940   1.584   2.300 -0.0679 -2.1904 -1.5684
 1311SOL    MW4 5319   2.007   1.557   2.349 -0.2716 -0.3314 -0.1810
 1312SOL     OW 5320   1.798   1.644   2.241  0.3277  0.0079 -0.2275
 1312SOL    HW2 5321   1.809   1.733   2.274  2.8579 -0.1596 -0.5390
 1312SOL    HW3 5322   1.821   1.650   2.148  0.5694 -0.9857 -0.2333
 1312SOL    MW4 5323   1.803   1.657   2.233  0.6934 -0.1453 -0.2692
 1313SOL     OW 5324   1.797   1.906   2.330 -0.5952  0.0474  0.3189
 1313SOL    HW2 5325   1.802   1.913   2.425 -1.3322  1.2760  0.2800
 1313SOL    HW3 5326   1.864   1.968   2.299 -0.4294 -0.2750  0.0326
 1313SOL    MW4 5327   1.807   1.915   2.338 -0.6706  0.1669  0.2761
 1314SOL     OW 5328   1.998   2.067   2.239 -0.0074 -0.4258  0.3658
 1314SOL    HW2 5329   2.074   2.016   2.265  0.3866  0.1621  0.3745
 1314SOL    HW3 5330   1.997   2.063   2.144  1.1507  1.1750  0.2817
 1314SOL    MW4 5331   2.008   2.060   2.230  0.1972 -0.1371  0.3557
 1315SOL     OW 5332   1.991   2.336   2.350 -0.0426 -0.3986  0.1489
 1315SOL    HW2 5333   2.064   2.378   2.305 -0.5491 -0.8323 -1.1118
 1315SOL    HW3 5334   2.006   2.242   2.338 -0.5987 -0.4977  0.2184
 1315SOL    MW4 5335   2.003   2.329   2.342 -0.1829 -0.4690 -0.0081
 1316SOL     OW 5336   1.758   2.410   2.234  0.2746  0.4516  0.3993
 1316SOL    HW2 5337   1.830   2.373   2.285 -0.3255 -2.0512 -0.4895
 1316SOL    HW3 5338   1.681   2.361   2.263 -1.0090  2.7019  0.9201
 1316SOL    MW4 5339   1.757   2.399   2.245  0.0261  0.4184  0.3507
 1317SOL     OW 5340   1.766   2.679   2.311  0.0096  0.4874  0.1332
 1317SOL    HW2 5341   1.756   2.589   2.280  0.8978  0.7757 -1.0328
 1317SOL    HW3 5342   1.698   2.728   2.265 -0.5480  0.4004  0.8548
 1317SOL    MW4 5343   1.756   2.674   2.301  0.0532  0.5140  0.0744
 1318SOL     OW 5344   1.964   2.856   2.256 -0.3673 -0.1842  0.4438
 1318SOL    HW2 5345   2.044   2.808   2.276 -1.2095 -1.1921  1.4966
 1318SOL    HW3 5346   1.894   2.790   2.265 -1.3189  0.6849 -0.4138
 1318SOL    MW4 5347   1.965   2.841   2.260 -0.6039 -0.2024  0.4692
 1319SOL     OW 5348   1.993   3.112   2.351  0.5493  0.1626 -0.0169
 1319SOL    HW2 5349   2.066   3.166   2.319 -0.8713  2.4692  0.5328
 1319SOL    HW3 5350   2.014   3.023   2.321  2.9437  1.0055 -0.9506
 1319SOL    MW4 5351   2.006   3.107   2.342  0.6778  0.5779 -0.0675
 1320SOL     OW 5352   1.779   3.234   2.225  0.1516 -0.0566 -0.1035
 1320SOL    HW2 5353   1.866   3.203   2.249 -0.3829 -0.4857  1.3252
 1320SOL    HW3 5354   1.719   3.174   2.268 -0.8729  1.2565  0.3499
 1320SOL    MW4 5355   1.782   3.222   2.233 -0.0540  0.0601  0.1447
 1321SOL     OW 5356   1.771   3.465   2.380 -0.4308 -0.2742  0.4497
 1321SOL    HW2 5357   1.769   3.384   2.329 -0.1702  0.1959 -0.3076
 1321SOL    HW3 5358   1.697   3.515   2.348  0.1411  0.3164  0.0336
 1321SOL    MW4 5359   1.761   3.461   2.369 -0.3209 -0.1345  0.2949
 1322SOL     OW 5360   1.981   3.622   2.276  0.2628 -0.0674  0.1411
 1322SOL    HW2 5361   1.904   3.572   2.305 -0.2040  0.5787  0.0198
 1322SOL    HW3 5362   1.978   3.617   2.181  0.0552  0.4331  0.1199
 1322SOL    MW4 5363   1.970   3.614   2.267  0.1737  0.0842  0.1223
 1323SOL     OW 5364   2.024   3.897   2.352  0.1910  0.5491 -0.5038
 1323SOL    HW2 5365   2.012   3.909   2.446  1.1903  0.7337 -0.3858
 1323SOL    HW3 5366   2.021   3.802   2.339  1.3419  0.4478 -0.0870
 1323SOL    MW4 5367   2.022   3.886   2.362  0.4747  0.5600 -0.4332
 1324SOL     OW 5368   1.793   4.031   2.237 -0.5736 -0.2298 -0.2757
 1324SOL    HW2 5369   1.869   3.982   2.269 -1.1184 -1.0447 -0.2220
 1324SOL    HW3 5370   1.798   4.024   2.142 -0.6985 -0.4724 -0.2660
 1324SOL    MW4 5371   1.804   4.023   2.229 -0.6620 -0.3695 -0.2677
 1325SOL     OW 5372   1.836   4.291   2.355 -0.2321 -0.3712  0.6671
 1325SOL    HW2 5373   1.831   4.198   2.332 -0.6305 -0.2080  0.0706
 1325SOL    HW3 5374   1.759   4.330   2.314  1.5688  0.7869 -1.7783
 1325SOL    MW4 5375   1.825   4.284   2.347 -0.0471 -0.1965  0.2658
 1326SOL     OW 5376   2.072   4.397   2.272  0.6716  0.0943 -0.2878
 1326SOL    HW2 5377   1.991   4.362   2.309 -0.1644  1.9633 -0.2565
 1326SOL    HW3 5378   2.064   4.383   2.178  0.7254 -0.5347 -0.1999
 1326SOL    MW4 5379   2.060   4.391   2.265  0.5684  0.2580 -0.2723
 1327SOL     OW 5380   2.461   0.009   2.357 -0.2800  0.4415  0.2107
 1327SOL    HW2 5381   2.544   0.053   2.341 -0.2252 -0.5400 -2.5944
 1327SOL    HW3 5382   2.463  -0.067   2.298 -1.9153 -1.2279  2.2448
 1327SOL    MW4 5383   2.472   0.005   2.347 -0.4888  0.0916  0.1087
 1328SOL     OW 5384   2.251   0.164   2.251 -0.0564  0.2101  0.3226
 1328SOL    HW2 5385   2.239   0.235   2.313 -2.3042 -0.1927  0.3849
 1328SOL    HW3 5386   2.321   0.111   2.288  0.3969  1.3896  1.1848
 1328SOL    MW4 5387   2.258   0.167   2.264 -0.2930  0.3126  0.4447
 1329SOL     OW 5388   2.215   0.409   2.403 -0.0507 -0.3831 -0.0845
 1329SOL    HW2 5389   2.294   0.452   2.373 -0.7481  1.2208  0.2818
 1329SOL    HW3 5390   2.144   0.451   2.353 -0.7694 -0.9490  0.4433
 1329SOL    MW4 5391   2.216   0.420   2.393 -0.2375 -0.2462  0.0334
 1330SOL     OW 5392   2.444   0.500   2.282  0.1421 -0.0310  0.0461
 1330SOL    HW2 5393   2.525   0.460   2.311  0.6520  1.2004  0.3333
 1330SOL    HW3 5394   2.442   0.484   2.188  0.4061 -0.6096  0.1378
 1330SOL    MW4 5395   2.454   0.493   2.273  0.2441  0.0551  0.0961
 1331SOL     OW 5396   2.455   0.747   2.391  0.1108  0.1871 -0.5086
 1331SOL    HW2 5397   2.535   0.784   2.353  1.3954 -1.0694  0.9401
 1331SOL    HW3 5398   2.455   0.656   2.362  0.5013 -0.4736  1.5269
 1331SOL    MW4 5399   2.466   0.740   2.382  0.3316 -0.0659 -0.0491
 1332SOL     OW 5400   2.222   0.844   2.303  0.1962 -0.2571 -0.0640
 1332SOL    HW2 5401   2.217   0.938   2.323 -1.0043  0.2884 -2.6702
 1332SOL    HW3 5402   2.306   0.816   2.338  0.0738  1.5495  1.7346
 1332SOL    MW4 5403   2.232   0.853   2.310  0.0217  0.0532 -0.1705
 1333SOL     OW 5404   2.229   1.120   2.331 -0.2104 -0.0768  0.1489
 1333SOL    HW2 5405   2.298   1.177   2.296 -0.6334 -0.5025 -1.4182
 1333SOL    HW3 5406   2.147   1.160   2.301 -0.6115 -0.1136  1.1755
 1333SOL    MW4 5407   2.227   1.133   2.323 -0.3192 -0.1378  0.0775
 1334SOL     OW 5408   2.468   1.301   2.269  0.4620 -0.1638  0.5779
 1334SOL    HW2 5409   2.546   1.251   2.293  0.1406 -0.4322  1.1016
 1334SOL    HW3 5410   2.477   1.384   2.315  1.7376  0.8972 -1.5041
 1334SOL    MW4 5411   2.479   1.305   2.278  0.5879 -0.0594  0.3719
 1335SOL     OW 5412   2.459   1.554   2.361  0.1877 -0.3779  0.1890
 1335SOL    HW2 5413   2.469   1.562   2.456  0.8301 -0.8660  0.1674
 1335SOL    HW3 5414   2.544   1.580   2.326  0.2647 -1.1243 -0.1993
 1335SOL    MW4 5415   2.472   1.558   2.369  0.2825 -0.5409  0.1349
 1336SOL     OW 5416   2.243   1.669   2.242  0.0288  0.3307  0.1248
 1336SOL    HW2 5417   2.324   1.637   2.281 -0.1431  0.7109  0.8147
 1336SOL    HW3 5418   2.174   1.618   2.284 -0.1513  0.6951  0.2838
 1336SOL    MW4 5419   2.245   1.658   2.253 -0.0176  0.4290  0.2370
 1337SOL     OW 5420   2.231   1.934   2.317 -0.0263 -0.2886  0.3827
 1337SOL    HW2 5421   2.316   1.970   2.291 -0.0839 -0.1267  0.4207
 1337SOL    HW3 5422   2.232   1.844   2.283 -0.8569  0.5051 -1.8631
 1337SOL    MW4 5423   2.242   1.927   2.309 -0.1435 -0.1625  0.0916
 1338SOL     OW 5424   2.472   2.052   2.249  0.0527  0.3177  0.1575
 1338SOL    HW2 5425   2.551   2.006   2.275  0.8975  0.5466 -1.9091
 1338SOL    HW3 5426   2.475   2.053   2.153 -2.9242 -0.4904  0.0143
 1338SOL    MW4 5427   2.483   2.046   2.240 -0.2286  0.2413 -0.1338
 1339SOL     OW 5428   2.435   2.328   2.326 -0.0578 -0.6152  0.1432
 1339SOL    HW2 5429   2.512   2.378   2.297  1.0377 -1.4288  1.5732
 1339SOL    HW3 5430   2.454   2.238   2.299 -0.5935 -0.7866  0.3503
 1339SOL    MW4 5431   2.448   2.323   2.319  0.0160 -0.7453  0.3591
 1340SOL     OW 5432   2.197   2.489   2.251 -0.1004  0.5340  0.6806
 1340SOL    HW2 5433   2.214   2.583   2.255  0.6300  0.4255  0.2035
 1340SOL    HW3 5434   2.275   2.449   2.290  0.3953  0.0646 -0.7611
 1340SOL    MW4 5435   2.210   2.496   2.257  0.0615  0.4575  0.4275
 1341SOL     OW 5436   2.224   2.759   2.325 -0.7526 -0.2152  0.2347
 1341SOL    HW2 5437   2.217   2.740   2.419 -0.2725  0.2862  0.3694
 1341SOL    HW3 5438   2.306   2.806   2.315 -0.0355 -1.6036 -0.6664
 1341SOL    MW4 5439   2.234   2.762   2.336 -0.5949 -0.3319  0.1338
 1342SOL     OW 5440   2.467   2.888   2.275  0.3274  0.5085  0.0845
 1342SOL    HW2 5441   2.541   2.837   2.310 -0.6432 -0.5548  0.6173
 1342SOL    HW3 5442   2.468   2.869   2.181  0.4619  0.1357  0.1581
 1342SOL    MW4 5443   2.477   2.878   2.267  0.2170  0.3188  0.1645
 1343SOL     OW 5444   2.475   3.176   2.309  0.4071  0.1425  0.1262
 1343SOL    HW2 5445   2.567   3.203   2.311  1.2193 -2.5382  0.7255
 1343SOL    HW3 5446   2.478   3.081   2.293 -2.2654  0.0815 -0.2608
 1343SOL    MW4 5447   2.488   3.167   2.307  0.1616 -0.2191  0.1543
 1344SOL     OW 5448   2.221   3.260   2.243  0.0310  0.1997  0.0524
 1344SOL    HW2 5449   2.222   3.353   2.266 -1.7462  0.0233  0.9179
 1344SOL    HW3 5450   2.306   3.227   2.273  0.9954  1.7012 -0.9736
 1344SOL    MW4 5451   2.233   3.268   2.250 -0.0761  0.3746  0.0312
 1345SOL     OW 5452   2.224   3.519   2.344 -0.5239 -0.1726 -0.2089
 1345SOL    HW2 5453   2.224   3.518   2.440 -2.6497  0.9214 -0.1572
 1345SOL    HW3 5454   2.143   3.565   2.321  0.6242  0.7618 -2.5274
 1345SOL    MW4 5455   2.213   3.525   2.354 -0.6528  0.0949 -0.5078
 1346SOL     OW 5456   2.433   3.634   2.188  0.1763 -0.2207 -0.1745
 1346SOL    HW2 5457   2.445   3.717   2.234 -1.9408  0.5970 -1.0208
 1346SOL    HW3 5458   2.358   3.594   2.232  0.4898 -1.1707 -0.5030
 1346SOL    MW4 5459   2.424   3.640   2.200 -0.0613 -0.2384 -0.3297
 1347SOL     OW 5460   2.454   3.870   2.338  0.2709  0.1787  0.2197
 1347SOL    HW2 5461   2.444   3.853   2.432  0.4966 -0.0434  0.2041
 1347SOL    HW3 5462   2.375   3.918   2.314  0.8459  1.4747  0.8187
 1347SOL    MW4 5463   2.442   3.874   2.347  0.3767  0.3204  0.2968
 1348SOL     OW 5464   2.251   4.012   2.208 -0.0131 -0.5968 -0.1071
 1348SOL    HW2 5465   2.266   4.096   2.251 -0.1677  0.3811 -1.9479
 1348SOL    HW3 5466   2.176   3.974   2.255 -0.3895  0.5989  0.2761
 1348SOL    MW4 5467   2.243   4.018   2.220 -0.0832 -0.3099 -0.2995
 1349SOL     OW 5468   2.308   4.267   2.355 -0.0686  0.5315 -0.2075
 1349SOL    HW2 5469   2.302   4.241   2.447 -0.4392  1.6410  0.0891
 1349SOL    HW3 5470   2.229   4.319   2.340  0.0157  0.3914 -1.1409
 1349SOL    MW4 5471   2.297   4.271   2.365 -0.1066  0.6599 -0.2918
 1350SOL     OW 5472   2.510   4.434   2.216 -0.2091  0.0759  0.0279
 1350SOL    HW2 5473   2.594   4.398   2.244 -0.4780 -1.4325 -1.0569
 1350SOL    HW3 5474   2.445   4.383   2.264 -0.5368  0.9295  0.5083
 1350SOL    MW4 5475   2.513   4.422   2.226 -0.2878 -0.0110 -0.0517
 1351SOL     OW 5476   2.936   0.033   2.365  0.0394  0.0600 -0.4034
 1351SOL    HW2 5477   3.023   0.062   2.338  0.4228 -1.0265 -0.3586
 1351SOL    HW3 5478   2.932  -0.060   2.341 -1.7860  0.5225 -2.0669
 1351SOL    MW4 5479   2.947   0.025   2.359 -0.1509 -0.0223 -0.6170
 1352SOL     OW 5480   2.690   0.144   2.254  0.4708 -0.5005 -0.1571
 1352SOL    HW2 5481   2.668   0.230   2.291 -1.1655 -1.3041  0.8394
 1352SOL    HW3 5482   2.780   0.129   2.282  0.6424  0.7242 -0.0006
 1352SOL    MW4 5483   2.699   0.154   2.263  0.2775 -0.4449 -0.0045
 1353SOL     OW 5484   2.668   0.397   2.379  0.2115  0.2194 -0.2708
 1353SOL    HW2 5485   2.666   0.385   2.473  1.4718 -1.5791 -0.4507
 1353SOL    HW3 5486   2.756   0.431   2.361  0.2155 -0.0878 -0.8542
 1353SOL    MW4 5487   2.679   0.400   2.389  0.3784 -0.0584 -0.3715
 1354SOL     OW 5488   2.909   0.509   2.288 -0.4855 -0.2994 -0.4061
 1354SOL    HW2 5489   2.921   0.599   2.320  1.2059  0.3561 -2.7853
 1354SOL    HW3 5490   2.909   0.517   2.193  1.6626 -3.0705 -0.6921
 1354SOL    MW4 5491   2.911   0.522   2.280  0.0212 -0.5785 -0.7575
 1355SOL     OW 5492   2.942   0.764   2.397 -0.1022 -0.3192  0.2121
 1355SOL    HW2 5493   2.929   0.775   2.492 -0.5199  0.5992  0.0622
 1355SOL    HW3 5494   2.857   0.786   2.359  0.3333  0.2597 -0.4397
 1355SOL    MW4 5495   2.929   0.768   2.405 -0.1001 -0.1217  0.1063
 1356SOL     OW 5496   2.703   0.847   2.290 -0.2920  0.3570  0.1737
 1356SOL    HW2 5497   2.711   0.941   2.310  2.1431  0.3072 -0.3863
 1356SOL    HW3 5498   2.695   0.844   2.194 -0.8814 -0.0008  0.2282
 1356SOL    MW4 5499   2.703   0.859   2.280 -0.0484  0.3033  0.1070
 1357SOL     OW 5500   2.667   1.120   2.346 -0.0735 -0.1479 -0.0234
 1357SOL    HW2 5501   2.665   1.123   2.441 -1.1613  1.9892 -0.0656
 1357SOL    HW3 5502   2.756   1.146   2.322  0.1156 -0.4083  0.4077
 1357SOL    MW4 5503   2.678   1.124   2.355 -0.1922  0.0998  0.0279
 1358SOL     OW 5504   2.916   1.198   2.247 -0.2066 -0.0727 -0.4753
 1358SOL    HW2 5505   3.005   1.190   2.281  0.1839  0.7087 -1.2786
 1358SOL    HW3 5506   2.926   1.194   2.152 -1.1398 -0.9566 -0.5449
 1358SOL    MW4 5507   2.929   1.196   2.239 -0.2778 -0.0862 -0.5908
 1359SOL     OW 5508   2.946   1.473   2.317  0.2936  0.3879 -0.2235
 1359SOL    HW2 5509   2.940   1.466   2.412  2.1113 -1.6313 -0.2227
 1359SOL    HW3 5510   2.937   1.383   2.285 -0.0003  0.9998 -1.9654
 1359SOL    MW4 5511   2.944   1.460   2.325  0.4945  0.2023 -0.4530
 1360SOL     OW 5512   2.700   1.640   2.223  0.3339 -0.2892 -0.3075
 1360SOL    HW2 5513   2.773   1.586   2.253 -0.8954 -1.7893  0.0025
 1360SOL    HW3 5514   2.711   1.644   2.128  0.6318 -0.7820 -0.2941
 1360SOL    MW4 5515   2.711   1.633   2.214  0.2108 -0.5521 -0.2649
 1361SOL     OW 5516   2.718   1.890   2.319 -0.1433 -0.1342  0.1892
 1361SOL    HW2 5517   2.711   1.879   2.414  0.8946  0.2515  0.3169
 1361SOL    HW3 5518   2.711   1.801   2.284  0.8002 -0.4235  0.7142
 1361SOL    MW4 5519   2.716   1.877   2.327  0.1183 -0.1215  0.2756
 1362SOL     OW 5520   2.924   2.066   2.265 -0.0738 -0.1456 -0.0842
 1362SOL    HW2 5521   2.989   2.013   2.311 -0.4869 -0.3936  0.2174
 1362SOL    HW3 5522   2.846   2.011   2.262 -0.3844  0.2920 -0.1222
 1362SOL    MW4 5523   2.923   2.052   2.270 -0.1695 -0.1206 -0.0496
 1363SOL     OW 5524   2.891   2.343   2.310 -0.4806  0.0861 -0.1238
 1363SOL    HW2 5525   2.871   2.347   2.403  0.5235  0.0062  0.1070
 1363SOL    HW3 5526   2.891   2.250   2.289  1.1760 -0.0214  0.2434
 1363SOL    MW4 5527   2.889   2.331   2.320 -0.1297  0.0615 -0.0451
 1364SOL     OW 5528   2.643   2.471   2.241 -0.0178 -0.4000 -0.3189
 1364SOL    HW2 5529   2.725   2.431   2.269  1.4245  1.9844 -0.9867
 1364SOL    HW3 5530   2.635   2.446   2.149 -0.5690 -1.4560  0.0081
 1364SOL    MW4 5531   2.653   2.462   2.233  0.0999 -0.2246 -0.3641
 1365SOL     OW 5532   2.663   2.714   2.362  0.1336  0.0188  0.2739
 1365SOL    HW2 5533   2.746   2.758   2.343 -0.2996  0.1273 -1.4617
 1365SOL    HW3 5534   2.667   2.633   2.312 -0.9669  0.2099 -0.1358
 1365SOL    MW4 5535   2.675   2.709   2.353 -0.0687  0.0584 -0.0091
 1366SOL     OW 5536   2.900   2.862   2.269  0.1094  0.2089 -0.2366
 1366SOL    HW2 5537   2.929   2.945   2.307 -1.0400  0.6687 -0.3391
 1366SOL    HW3 5538   2.885   2.882   2.176 -0.8452  0.0776 -0.1246
 1366SOL    MW4 5539   2.902   2.876   2.262 -0.1683  0.2522 -0.2353
 1367SOL     OW 5540   2.959   3.097   2.406  0.2596  0.0197  0.2704
 1367SOL    HW2 5541   3.032   3.128   2.353  0.2939  0.5071  0.5990
 1367SOL    HW3 5542   2.884   3.149   2.376  0.6448  1.6472  1.9580
 1367SOL    MW4 5543   2.959   3.108   2.395  0.3150  0.2990  0.5364
 1368SOL     OW 5544   2.752   3.255   2.308  0.2933 -0.1571  0.1729
 1368SOL    HW2 5545   2.705   3.337   2.327  0.0335 -0.2768  0.0575
 1368SOL    HW3 5546   2.749   3.248   2.213 -0.2264 -0.6158  0.2213
 1368SOL    MW4 5547   2.745   3.265   2.298  0.1905 -0.2337  0.1640
 1369SOL     OW 5548   2.631   3.503   2.349  0.0007  0.0290  0.0924
 1369SOL    HW2 5549   2.708   3.550   2.317  0.4017 -0.7314 -0.0640
 1369SOL    HW3 5550   2.557   3.547   2.306  0.1328  2.3882  2.1645
 1369SOL    MW4 5551   2.631   3.515   2.339  0.0710  0.2398  0.3452
 1370SOL     OW 5552   2.877   3.617   2.271 -0.0362  0.1906  0.3425
 1370SOL    HW2 5553   2.956   3.572   2.302  0.1945 -0.9521 -1.7730
 1370SOL    HW3 5554   2.883   3.705   2.308  2.1156  0.0485  0.3971
 1370SOL    MW4 5555   2.889   3.623   2.280  0.2780  0.0210  0.0706
 1371SOL     OW 5556   2.925   3.868   2.365 -0.2378 -0.4589  0.2552
 1371SOL    HW2 5557   2.929   3.872   2.460 -1.0917 -0.0813  0.2745
 1371SOL    HW3 5558   2.842   3.909   2.342  0.6268  0.7913 -0.7347
 1371SOL    MW4 5559   2.915   3.874   2.374 -0.2363 -0.2439  0.1271
 1372SOL     OW 5560   2.704   4.014   2.297 -0.3429 -0.1134 -0.7782
 1372SOL    HW2 5561   2.622   3.982   2.333 -0.7759  0.9924 -0.7737
 1372SOL    HW3 5562   2.683   4.041   2.208  0.0840 -0.1232 -0.8856
 1372SOL    MW4 5563   2.690   4.014   2.290 -0.3440  0.0310 -0.7915
 1373SOL     OW 5564   2.702   4.294   2.369  0.2067 -0.1361 -0.0444
 1373SOL    HW2 5565   2.691   4.294   2.464 -1.7579 -1.2976 -0.2426
 1373SOL    HW3 5566   2.694   4.202   2.344  2.6153 -0.0813 -1.1583
 1373SOL    MW4 5567   2.700   4.282   2.378  0.2654 -0.2818 -0.2174
 1374SOL     OW 5568   2.924   4.422   2.298 -0.4912  0.2432  0.1669
 1374SOL    HW2 5569   3.004   4.371   2.311 -0.0879  0.2638 -2.0262
 1374SOL    HW3 5570   2.855   4.369   2.340  0.5211 -0.1658  1.3449
 1374SOL    MW4 5571   2.925   4.408   2.305 -0.3045  0.1917  0.0329
 1375SOL     OW 5572   3.417   4.632   2.344 -0.4123  0.0827 -0.5627
 1375SOL    HW2 5573   3.399   4.618   2.437  0.1234  0.9009 -0.3351
 1375SOL    HW3 5574   3.487   4.697   2.342 -0.4495  0.1045 -1.5414
 1375SOL    MW4 5575   3.424   4.639   2.356 -0.3467  0.1931 -0.6618
 1376SOL     OW 5576   3.191   0.118   2.252 -0.5127 -0.5448  0.1397
 1376SOL    HW2 5577   3.194   0.197   2.307 -2.9223 -0.7205  0.5970
 1376SOL    HW3 5578   3.266   0.066   2.280 -0.2622  0.5242  1.4999
 1376SOL    MW4 5579   3.201   0.122   2.263 -0.7975 -0.4269  0.3791
 1377SOL     OW 5580   3.175   0.388   2.370 -0.0809 -0.6233  0.0718
 1377SOL    HW2 5581   3.247   0.415   2.314 -1.1209 -0.4686 -1.2306
 1377SOL    HW3 5582   3.098   0.429   2.331 -0.9280 -1.0854  1.2207
 1377SOL    MW4 5583   3.174   0.397   2.357 -0.3297 -0.6639  0.0517
 1378SOL     OW 5584   3.392   0.476   2.219 -0.3476 -0.2404 -0.5976
 1378SOL    HW2 5585   3.475   0.445   2.254 -0.4554  0.5083  0.3351
 1378SOL    HW3 5586   3.408   0.487   2.125  1.0216  1.2419 -0.2033
 1378SOL    MW4 5587   3.405   0.474   2.211 -0.1810  0.0539 -0.4225
 1379SOL     OW 5588   3.346   0.738   2.311 -0.1000 -0.0404 -0.0164
 1379SOL    HW2 5589   3.415   0.790   2.269 -0.4538  0.4140 -0.0341
 1379SOL    HW3 5590   3.360   0.649   2.278 -0.7870  0.4348 -1.6346
 1379SOL    MW4 5591   3.357   0.733   2.301 -0.2372  0.0823 -0.2322
 1380SOL     OW 5592   3.140   0.864   2.219  0.2571  0.4424 -0.2152
 1380SOL    HW2 5593   3.213   0.812   2.254  1.0897  1.4299 -0.4480
 1380SOL    HW3 5594   3.065   0.840   2.272  0.7929 -0.4928  0.1204
 1380SOL    MW4 5595   3.140   0.854   2.230  0.4377  0.4493 -0.2017
 1381SOL     OW 5596   3.153   1.124   2.348  0.1947  0.3582  0.1702
 1381SOL    HW2 5597   3.242   1.151   2.324  1.3112 -3.1391  0.1599
 1381SOL    HW3 5598   3.146   1.033   2.318 -2.9300  0.1339  1.3929
 1381SOL    MW4 5599   3.164   1.116   2.341 -0.0703 -0.1329  0.3304
 1382SOL     OW 5600   3.383   1.237   2.246  0.1253  0.4037 -0.2101
 1382SOL    HW2 5601   3.475   1.220   2.268  0.0620 -1.3099 -1.1844
 1382SOL    HW3 5602   3.369   1.329   2.270  1.8522  0.4390  0.7338
 1382SOL    MW4 5603   3.393   1.247   2.252  0.3448  0.1823 -0.2141
 1383SOL     OW 5604   3.354   1.515   2.295 -0.2428 -0.1291 -0.4094
 1383SOL    HW2 5605   3.376   1.546   2.383 -0.4082  0.2915 -0.5158
 1383SOL    HW3 5606   3.276   1.564   2.271 -0.5025 -0.6263 -0.5856
 1383SOL    MW4 5607   3.347   1.525   2.304 -0.2990 -0.1391 -0.4463
 1384SOL     OW 5608   3.122   1.658   2.218  0.0567  0.1310  0.3796
 1384SOL    HW2 5609   3.134   1.742   2.261 -1.6390  1.0779 -0.9175
 1384SOL    HW3 5610   3.061   1.610   2.273  1.0597 -0.2867  1.1431
 1384SOL    MW4 5611   3.116   1.662   2.231 -0.0348  0.2009  0.3090
 1385SOL     OW 5612   3.135   1.902   2.344  0.0649  0.1523 -0.1194
 1385SOL    HW2 5613   3.109   1.918   2.435 -1.3065 -0.2897 -0.4254
 1385SOL    HW3 5614   3.207   1.963   2.328 -1.0157  1.6501  0.6357
 1385SOL    MW4 5615   3.141   1.912   2.354 -0.2587  0.2917 -0.0598
 1386SOL     OW 5616   3.355   2.052   2.261 -0.4207  0.8416 -0.0942
 1386SOL    HW2 5617   3.437   2.018   2.297  0.1412  1.3354 -0.8927
 1386SOL    HW3 5618   3.365   2.044   2.166 -1.3613  0.7629 -0.1897
 1386SOL    MW4 5619   3.367   2.046   2.253 -0.4706  0.8962 -0.2122
 1387SOL     OW 5620   3.357   2.327   2.354 -0.4536 -0.1711 -0.0108
 1387SOL    HW2 5621   3.284   2.380   2.325 -0.8673 -0.1006  1.1175
 1387SOL    HW3 5622   3.333   2.237   2.331 -0.0138  0.0580 -1.3911
 1387SOL    MW4 5623   3.344   2.322   2.347 -0.4501 -0.1316 -0.0441
 1388SOL     OW 5624   3.140   2.474   2.294  0.8581 -0.0971 -0.1682
 1388SOL    HW2 5625   3.132   2.568   2.309  0.5853  0.0894 -1.4007
 1388SOL    HW3 5626   3.052   2.439   2.307  0.8749 -0.1158 -0.1068
 1388SOL    MW4 5627   3.127   2.482   2.298  0.8245 -0.0751 -0.3228
 1389SOL     OW 5628   3.139   2.746   2.365 -0.3370 -0.6054 -0.0114
 1389SOL    HW2 5629   3.134   2.740   2.461 -0.4569 -0.2898  0.0009
 1389SOL    HW3 5630   3.049   2.760   2.337 -0.1605  0.3706 -0.0991
 1389SOL    MW4 5631   3.127   2.747   2.374 -0.3297 -0.4349 -0.0212
 1390SOL     OW 5632   3.371   2.839   2.244  0.0068  0.0677 -0.2849
 1390SOL    HW2 5633   3.383   2.913   2.304  0.6688 -2.1250  2.4330
 1390SOL    HW3 5634   3.292   2.796   2.276 -1.4882  0.6666 -3.0651
 1390SOL    MW4 5635   3.362   2.843   2.256 -0.1032 -0.1426 -0.2933
 1391SOL     OW 5636   3.382   3.083   2.373  0.3408  0.1393  0.0361
 1391SOL    HW2 5637   3.457   3.126   2.332  0.5320  0.1471  0.3955
 1391SOL    HW3 5638   3.306   3.126   2.333  0.5193 -0.0979 -0.5732
 1391SOL    MW4 5639   3.382   3.095   2.362  0.3896  0.1090  0.0033
 1392SOL     OW 5640   3.161   3.232   2.290  0.3432  0.3186 -0.7892
 1392SOL    HW2 5641   3.114   3.310   2.319  0.7824 -0.0950  1.1214
 1392SOL    HW3 5642   3.149   3.230   2.195 -1.6462  1.4049 -0.5833
 1392SOL    MW4 5643   3.154   3.242   2.281  0.1385  0.4072 -0.5102
 1393SOL     OW 5644   3.115   3.500   2.351 -0.2149 -0.1698 -0.0878
 1393SOL    HW2 5645   3.130   3.499   2.445  1.0199 -2.2558 -0.2828
 1393SOL    HW3 5646   3.190   3.548   2.315 -0.8856  0.9715 -0.0056
 1393SOL    MW4 5647   3.127   3.506   2.359 -0.1404 -0.2944 -0.1028
 1394SOL     OW 5648   3.363   3.657   2.289  0.6903 -0.1944  0.0486
 1394SOL    HW2 5649   3.407   3.586   2.337  0.9135  0.1593  0.3650
 1394SOL    HW3 5650   3.380   3.636   2.197  0.3222 -0.8328  0.1169
 1394SOL    MW4 5651   3.371   3.645   2.283  0.6711 -0.2322  0.0997
 1395SOL     OW 5652   3.373   3.926   2.365 -0.1845  0.0731 -0.3960
 1395SOL    HW2 5653   3.451   3.953   2.317 -1.3497 -0.8066 -2.8395
 1395SOL    HW3 5654   3.375   3.830   2.361 -0.3567 -0.0257  1.2673
 1395SOL    MW4 5655   3.384   3.917   2.358 -0.3612 -0.0558 -0.4992
 1396SOL     OW 5656   3.145   4.023   2.250  0.9137 -0.1459 -0.3677
 1396SOL    HW2 5657   3.225   4.005   2.300  0.7487 -0.6050 -0.2738
 1396SOL    HW3 5658   3.077   3.971   2.293  0.4295  0.7326 -0.0516
 1396SOL    MW4 5659   3.147   4.014   2.263  0.8280 -0.0906 -0.3135
 1397SOL     OW 5660   3.137   4.269   2.359  0.1178 -0.2645  0.3930
 1397SOL    HW2 5661   3.218   4.304   2.322 -0.2026  0.0723  0.0150
 1397SOL    HW3 5662   3.123   4.186   2.313  1.4292 -1.4185  2.0077
 1397SOL    MW4 5663   3.146   4.263   2.348  0.2487 -0.3729  0.5560
 1398SOL     OW 5664   3.373   4.376   2.271 -0.3720 -0.1207 -0.0999
 1398SOL    HW2 5665   3.388   4.466   2.300  2.3825 -0.9033  1.0173
 1398SOL    HW3 5666   3.394   4.376   2.178 -0.3159  0.3576 -0.0888
 1398SOL    MW4 5667   3.377   4.388   2.263 -0.0012 -0.1607  0.0489
 1399SOL     OW 5668   3.841   4.641   2.388 -0.3957 -0.1793 -0.1961
 1399SOL    HW2 5669   3.841   4.639   2.483 -0.6564 -0.6456 -0.2019
 1399SOL    HW3 5670   3.929   4.668   2.364 -0.3193 -0.0959  0.1768
 1399SOL    MW4 5671   3.852   4.644   2.397 -0.4196 -0.2298 -0.1476
 1400SOL     OW 5672   3.624   0.137   2.314  0.2803 -0.3354 -0.3921
 1400SOL    HW2 5673   3.635   0.228   2.342 -1.3582 -0.8182  1.9008
 1400SOL    HW3 5674   3.706   0.095   2.340  0.3563  0.1056  0.1120
 1400SOL    MW4 5675   3.637   0.144   2.321  0.0744 -0.3409 -0.0231
 1401SOL     OW 5676   3.634   0.413   2.354  0.1129 -0.1158  0.2318
 1401SOL    HW2 5677   3.632   0.416   2.449  2.0992 -1.9675  0.3764
 1401SOL    HW3 5678   3.706   0.472   2.330 -1.6157  1.8459 -0.2555
 1401SOL    MW4 5679   3.644   0.421   2.363  0.1471 -0.1013  0.1864
 1402SOL     OW 5680   3.882   0.555   2.284 -0.0941 -0.3924 -0.0940
 1402SOL    HW2 5681   3.868   0.647   2.306 -2.0485 -0.8730  0.7975
 1402SOL    HW3 5682   3.891   0.554   2.188  0.6721  0.8049 -0.0362
 1402SOL    MW4 5683   3.881   0.567   2.274 -0.2511 -0.2978  0.0312
 1403SOL     OW 5684   3.829   0.807   2.357 -0.3266  0.4986  0.4973
 1403SOL    HW2 5685   3.851   0.785   2.448  0.5955  1.2837  0.4665
 1403SOL    HW3 5686   3.909   0.845   2.321 -0.6968  0.2248 -0.6416
 1403SOL    MW4 5687   3.843   0.809   2.364 -0.2539  0.5661  0.3426
 1404SOL     OW 5688   3.583   0.878   2.240  0.5149  0.0086 -0.6541
 1404SOL    HW2 5689   3.661   0.840   2.279  2.0535  2.6091 -1.1618
 1404SOL    HW3 5690   3.606   0.892   2.148 -0.3943  1.1947 -0.7113
 1404SOL    MW4 5691   3.596   0.875   2.233  0.5977  0.5082 -0.7288
 1405SOL     OW 5692   3.639   1.150   2.316 -0.5841  0.5058 -0.1750
 1405SOL    HW2 5693   3.625   1.167   2.409 -0.3643 -0.4075  0.0291
 1405SOL    HW3 5694   3.613   1.059   2.304  0.9869  0.1064 -0.6554
 1405SOL    MW4 5695   3.634   1.140   2.327 -0.3476  0.3325 -0.2115
 1406SOL     OW 5696   3.832   1.313   2.208 -0.2213  0.0544  0.0631
 1406SOL    HW2 5697   3.816   1.395   2.254  0.1497  0.3556 -0.3478
 1406SOL    HW3 5698   3.763   1.254   2.240 -0.6451  0.6011  0.1643
 1406SOL    MW4 5699   3.821   1.316   2.219 -0.2282  0.1662  0.0226
 1407SOL     OW 5700   3.792   1.551   2.333  0.1914 -0.1422  0.2144
 1407SOL    HW2 5701   3.774   1.548   2.427  0.2122 -0.0225  0.2213
 1407SOL    HW3 5702   3.719   1.601   2.296  0.4572  0.2486  0.2273
 1407SOL    MW4 5703   3.780   1.557   2.340  0.2291 -0.0749  0.2170
 1408SOL     OW 5704   3.576   1.654   2.199  0.4433  0.4854 -0.4627
 1408SOL    HW2 5705   3.490   1.617   2.217  0.2010  0.6833 -1.2034
 1408SOL    HW3 5706   3.603   1.612   2.117  1.5044 -0.3652  0.3024
 1408SOL    MW4 5707   3.568   1.643   2.190  0.5515  0.3994 -0.4592
 1409SOL     OW 5708   3.592   1.914   2.352  0.4686 -0.2412 -0.4768
 1409SOL    HW2 5709   3.652   1.973   2.306  0.5020 -0.0552 -0.1979
 1409SOL    HW3 5710   3.598   1.832   2.304 -0.8405  0.4713 -1.8995
 1409SOL    MW4 5711   3.601   1.911   2.339  0.3004 -0.1227 -0.6278
 1410SOL     OW 5712   3.782   2.050   2.215 -0.3075 -0.1205 -0.2524
 1410SOL    HW2 5713   3.853   2.020   2.273  0.1515  0.2892 -0.5955
 1410SOL    HW3 5714   3.815   2.032   2.127 -0.4374  0.4971 -0.4249
 1410SOL    MW4 5715   3.796   2.043   2.211 -0.2639  0.0148 -0.3204
 1411SOL     OW 5716   3.833   2.295   2.351  0.4530  0.3180 -0.1271
 1411SOL    HW2 5717   3.758   2.349   2.328  0.3328  0.1161 -0.2084
 1411SOL    HW3 5718   3.826   2.218   2.295 -0.1124 -0.3997  0.9255
 1411SOL    MW4 5719   3.822   2.292   2.341  0.3629  0.1967  0.0012
 1412SOL     OW 5720   3.600   2.431   2.252 -0.1922 -0.4560  0.2732
 1412SOL    HW2 5721   3.521   2.390   2.287  1.1380 -3.0379  0.3503
 1412SOL    HW3 5722   3.600   2.406   2.159  0.1353  0.2168  0.0901
 1412SOL    MW4 5723   3.589   2.422   2.244  0.0265 -0.7079  0.2594
 1413SOL     OW 5724   3.582   2.691   2.345 -0.5447  0.2059 -0.0844
 1413SOL    HW2 5725   3.607   2.607   2.305 -0.9218 -0.3895  0.9301
 1413SOL    HW3 5726   3.502   2.716   2.298  0.7425  1.0833 -1.8867
 1413SOL    MW4 5727   3.575   2.683   2.333 -0.4246  0.2432 -0.1884
 1414SOL     OW 5728   3.806   2.811   2.256  0.3509 -0.2053 -0.2939
 1414SOL    HW2 5729   3.811   2.900   2.291 -0.1749 -0.4598  0.4384
 1414SOL    HW3 5730   3.724   2.776   2.292  1.7693 -1.8412  1.4430
 1414SOL    MW4 5731   3.796   2.818   2.266  0.4687 -0.4547  0.0317
 1415SOL     OW 5732   3.815   3.063   2.355 -0.2309 -0.1400 -0.3051
 1415SOL    HW2 5733   3.804   3.074   2.450 -0.0224 -1.5861 -0.1060
 1415SOL    HW3 5734   3.891   3.116   2.333 -0.3979  0.3578  0.3016
 1415SOL    MW4 5735   3.823   3.071   2.365 -0.2253 -0.2651 -0.1988
 1416SOL     OW 5736   3.600   3.215   2.263 -0.4873  0.6517  0.1977
 1416SOL    HW2 5737   3.591   3.300   2.306 -0.9688 -0.0401  1.4973
 1416SOL    HW3 5738   3.681   3.179   2.297 -1.6021 -0.5315  1.6845
 1416SOL    MW4 5739   3.609   3.221   2.273 -0.6979  0.4044  0.5653
 1417SOL     OW 5740   3.556   3.461   2.392  0.1990 -0.1431  0.2523
 1417SOL    HW2 5741   3.571   3.468   2.487 -1.1682  0.4742  0.4259
 1417SOL    HW3 5742   3.621   3.520   2.354 -0.9503  1.6253  0.9492
 1417SOL    MW4 5743   3.567   3.469   2.400 -0.1333  0.1721  0.3669
 1418SOL     OW 5744   3.767   3.629   2.294 -0.0462  0.2142 -0.0884
 1418SOL    HW2 5745   3.777   3.720   2.321 -2.2946  0.8171 -1.1686
 1418SOL    HW3 5746   3.767   3.631   2.199  0.5065 -0.9908 -0.1281
 1418SOL    MW4 5747   3.768   3.641   2.285 -0.2701  0.1349 -0.2363
 1419SOL     OW 5748   3.832   3.894   2.387  0.4349  0.0054  0.5167
 1419SOL    HW2 5749   3.832   3.903   2.482  1.0173 -0.6145  0.5820
 1419SOL    HW3 5750   3.909   3.944   2.359 -0.3120  1.0237  0.2862
 1419SOL    MW4 5751   3.842   3.902   2.396  0.4132  0.0579  0.4952
 1420SOL     OW 5752   3.616   4.017   2.278  0.2327  0.0968  0.1167
 1420SOL    HW2 5753   3.623   4.105   2.315 -0.0976  0.1003  0.1735
 1420SOL    HW3 5754   3.680   3.965   2.327  1.4438  0.6270 -0.8818
 1420SOL    MW4 5755   3.625   4.022   2.290  0.3490  0.1669 -0.0076
 1421SOL     OW 5756   3.589   4.273   2.391 -0.0019 -0.2481 -0.2183
 1421SOL    HW2 5757   3.657   4.321   2.344 -0.9216  1.8901  0.5955
 1421SOL    HW3 5758   3.507   4.303   2.352 -0.6382 -0.3813  0.9871
 1421SOL    MW4 5759   3.587   4.283   2.379 -0.2069  0.0167  0.0484
 1422SOL     OW 5760   3.812   4.397   2.266 -0.0879 -0.1009 -0.2436
 1422SOL    HW2 5761   3.895   4.355   2.289 -0.3781 -0.2948  0.4590
 1422SOL    HW3 5762   3.819   4.485   2.303 -0.0709 -0.0119 -0.4562
 1422SOL    MW4 5763   3.824   4.403   2.274 -0.1242 -0.1144 -0.1791
 1423SOL     OW 5764   4.274   4.642   2.373  0.3242 -0.7613  0.6817
 1423SOL    HW2 5765   4.281   4.644   2.469  2.4675 -2.1019  0.6093
 1423SOL    HW3 5766   4.344   4.699   2.343  0.0571 -0.8431 -0.0946
 1423SOL    MW4 5767   4.284   4.650   2.382  0.5717 -0.9489  0.5698
 1424SOL     OW 5768   4.048   0.095   2.267  0.2055  0.5024  0.1132
 1424SOL    HW2 5769   4.047   0.182   2.308  3.2131  0.8601 -0.4379
 1424SOL    HW3 5770   4.126   0.053   2.304  0.0253 -1.1225 -1.3269
 1424SOL    MW4 5771   4.058   0.101   2.278  0.5784  0.3352 -0.1495
 1425SOL     OW 5772   4.058   0.356   2.362  0.1889 -0.2156 -0.6093
 1425SOL    HW2 5773   4.142   0.391   2.334 -0.0084  0.7648  0.0226
 1425SOL    HW3 5774   3.993   0.416   2.324 -0.2007 -0.5768 -0.5193
 1425SOL    MW4 5775   4.061   0.368   2.353  0.1116 -0.1339 -0.5140
 1426SOL     OW 5776   4.274   0.511   2.253 -0.1088  0.0345 -0.3778
 1426SOL    HW2 5777   4.279   0.602   2.284  0.0259 -0.3014  0.6020
 1426SOL    HW3 5778   4.342   0.465   2.302 -0.3066 -0.6393 -0.7277
 1426SOL    MW4 5779   4.284   0.517   2.263 -0.1168 -0.0986 -0.2947
 1427SOL     OW 5780   4.252   0.756   2.377 -0.2406 -0.0509 -0.3882
 1427SOL    HW2 5781   4.175   0.807   2.350 -0.5694  0.3801  1.2941
 1427SOL    HW3 5782   4.326   0.812   2.357 -0.5327  0.6210  0.3938
 1427SOL    MW4 5783   4.252   0.770   2.371 -0.3223  0.0947 -0.0632
 1428SOL     OW 5784   4.073   0.909   2.229  0.3306 -0.1701 -0.2872
 1428SOL    HW2 5785   4.072   1.003   2.247  0.8686 -0.1362 -0.4093
 1428SOL    HW3 5786   4.059   0.903   2.134 -0.0384 -0.2277 -0.2276
 1428SOL    MW4 5787   4.071   0.921   2.219  0.3529 -0.1732 -0.2956
 1429SOL     OW 5788   4.052   1.190   2.302  0.6982 -0.2192  0.3601
 1429SOL    HW2 5789   4.051   1.189   2.398  1.4969  0.6366  0.3861
 1429SOL    HW3 5790   3.975   1.242   2.278  1.1742  0.5977  0.5737
 1429SOL    MW4 5791   4.042   1.197   2.312  0.8664  0.0014  0.3917
 1430SOL     OW 5792   4.291   1.308   2.213 -0.2984  0.6743 -0.2640
 1430SOL    HW2 5793   4.207   1.272   2.240  0.4830 -1.5312 -0.6556
 1430SOL    HW3 5794   4.356   1.259   2.264  0.7769  1.9826 -0.3411
 1430SOL    MW4 5795   4.289   1.296   2.223 -0.0539  0.5560 -0.3259
 1431SOL     OW 5796   4.238   1.564   2.326  0.3899 -0.5905 -0.0357
 1431SOL    HW2 5797   4.252   1.486   2.272  1.9333 -0.4506  0.1322
 1431SOL    HW3 5798   4.320   1.614   2.318 -0.3957  0.7720  0.2483
 1431SOL    MW4 5799   4.251   1.560   2.318  0.4897 -0.3922  0.0238
 1432SOL     OW 5800   4.001   1.699   2.237 -0.3501  0.2836  0.2533
 1432SOL    HW2 5801   4.081   1.664   2.275 -1.0348  0.2998  1.7607
 1432SOL    HW3 5802   3.932   1.640   2.268 -1.1151  1.1425  0.2242
 1432SOL    MW4 5803   4.002   1.686   2.246 -0.5422  0.3991  0.4485
 1433SOL     OW 5804   4.012   1.957   2.362  0.0846  0.2123 -0.1147
 1433SOL    HW2 5805   4.004   1.926   2.452  0.1359 -0.0475 -0.1998
 1433SOL    HW3 5806   4.001   1.878   2.308 -0.4788  0.4485 -0.3548
 1433SOL    MW4 5807   4.009   1.942   2.367  0.0172  0.2090 -0.1576
 1434SOL     OW 5808   4.248   2.071   2.253 -0.3973  0.7706  0.2547
 1434SOL    HW2 5809   4.262   2.163   2.276  0.6704  0.3453  1.3983
 1434SOL    HW3 5810   4.172   2.044   2.304 -0.9032  1.1057 -0.3239
 1434SOL    MW4 5811   4.240   2.079   2.263 -0.3233  0.7586  0.3293
 1435SOL     OW 5812   4.291   2.327   2.368  0.1063 -0.3289 -0.3777
 1435SOL    HW2 5813   4.211   2.366   2.333  0.3608 -0.3724 -1.0260
 1435SOL    HW3 5814   4.362   2.379   2.331  0.5342 -2.4841 -2.7549
 1435SOL    MW4 5815   4.290   2.339   2.358  0.1960 -0.6189 -0.7768
 1436SOL     OW 5816   4.050   2.443   2.269  0.2767  0.0045  0.5342
 1436SOL    HW2 5817   4.047   2.527   2.314  1.6952  0.6057 -0.4256
 1436SOL    HW3 5818   3.981   2.391   2.309 -0.9268  1.7815  0.8282
 1436SOL    MW4 5819   4.041   2.447   2.280  0.3052  0.3181  0.4463
 1437SOL     OW 5820   4.043   2.687   2.363 -0.0311 -0.1420 -0.4960
 1437SOL    HW2 5821   4.019   2.683   2.456  0.8395  0.5440 -0.2350
 1437SOL    HW3 5822   3.962   2.708   2.318 -0.7934 -1.9925 -0.0515
 1437SOL    MW4 5823   4.030   2.689   2.370 -0.0172 -0.2959 -0.4027
 1438SOL     OW 5824   4.302   2.796   2.265  0.1345 -0.2227 -0.3025
 1438SOL    HW2 5825   4.221   2.770   2.308 -0.6148  0.1650 -1.4433
 1438SOL    HW3 5826   4.371   2.759   2.319 -0.8105 -0.8526  0.4952
 1438SOL    MW4 5827   4.300   2.788   2.278 -0.0892 -0.2544 -0.3476
 1439SOL     OW 5828   4.269   3.068   2.342 -0.0491 -0.5744 -0.1243
 1439SOL    HW2 5829   4.283   2.978   2.313  1.3919 -0.5079  0.3401
 1439SOL    HW3 5830   4.343   3.117   2.305 -1.1775  0.5514 -0.9311
 1439SOL    MW4 5831   4.281   3.063   2.333 -0.0076 -0.4170 -0.1693
 1440SOL     OW 5832   4.037   3.195   2.274  0.0693 -0.6359 -0.1812
 1440SOL    HW2 5833   4.041   3.285   2.306  1.8341 -0.3397 -1.1485
 1440SOL    HW3 5834   4.121   3.157   2.301 -0.2518 -1.7051 -0.6426
 1440SOL    MW4 5835   4.049   3.202   2.282  0.2599 -0.7379 -0.3698
 1441SOL     OW 5836   3.999   3.458   2.340  0.4836  0.0789 -0.2695
 1441SOL    HW2 5837   4.074   3.508   2.310  0.3278  0.5733  0.1579
 1441SOL    HW3 5838   3.924   3.499   2.297  0.5951 -1.4653 -2.0455
 1441SOL    MW4 5839   3.999   3.470   2.330  0.4778 -0.0596 -0.4473
 1442SOL     OW 5840   4.238   3.600   2.264  0.2203 -0.5323 -0.2089
 1442SOL    HW2 5841   4.252   3.689   2.296 -0.9015 -0.3776 -0.1412
 1442SOL    HW3 5842   4.242   3.607   2.169 -0.4817 -0.2979 -0.2247
 1442SOL    MW4 5843   4.241   3.612   2.256 -0.0205 -0.4811 -0.2022
 1443SOL     OW 5844   4.313   3.849   2.350  0.0996 -0.2622  0.2061
 1443SOL    HW2 5845   4.311   3.840   2.445 -0.3899  3.5632  0.6336
 1443SOL    HW3 5846   4.394   3.896   2.332  0.3951 -1.3235 -1.3284
 1443SOL    MW4 5847   4.323   3.854   2.360  0.0739  0.1028  0.0603
 1444SOL     OW 5848   4.070   3.997   2.269 -0.5660  0.7360 -0.0791
 1444SOL    HW2 5849   4.157   3.958   2.273 -1.1694 -0.6146 -0.0698
 1444SOL    HW3 5850   4.056   4.011   2.175 -0.6239  0.3165 -0.1334
 1444SOL    MW4 5851   4.080   3.994   2.257 -0.6533  0.5021 -0.0849
 1445SOL     OW 5852   4.034   4.270   2.324 -0.6276 -0.2327 -0.3748
 1445SOL    HW2 5853   4.124   4.303   2.326 -0.9816  0.7850 -1.0836
 1445SOL    HW3 5854   4.044   4.176   2.306  0.2891 -0.1156 -0.5178
 1445SOL    MW4 5855   4.048   4.262   2.321 -0.5527 -0.0834 -0.4873
 1446SOL     OW 5856   4.301   4.392   2.233 -0.1984 -0.3843 -0.0146
 1446SOL    HW2 5857   4.293   4.469   2.288 -0.3374 -0.9904  0.8142
 1446SOL    HW3 5858   4.366   4.337   2.277  0.3101 -0.4966 -0.8840
 1446SOL    MW4 5859   4.309   4.395   2.246 -0.1493 -0.4792 -0.0198
 1447SOL     OW 5860   0.174   4.641   2.620 -0.5275  0.0977 -0.6475
 1447SOL    HW2 5861   0.202   4.557   2.656  1.0057  1.4667  1.4392
 1447SOL    HW3 5862   0.110   4.674   2.683 -3.1272 -0.6565 -2.7873
 1447SOL    MW4 5863   0.169   4.634   2.633 -0.6682  0.1788 -0.6547
 1448SOL     OW 5864   4.481   0.103   2.780 -0.7468  0.0957 -0.2497
 1448SOL    HW2 5865   4.481   0.111   2.875 -0.5817  0.5980 -0.2904
 1448SOL    HW3 5866   4.491   0.193   2.748 -1.2117 -0.0257 -0.7455
 1448SOL    MW4 5867   4.483   0.116   2.788 -0.7864  0.1460 -0.3202
 1449SOL     OW 5868   0.003   0.367   2.666 -0.8105  0.2270  0.4475
 1449SOL    HW2 5869   0.070   0.428   2.695  0.8647 -1.1637 -0.4265
 1449SOL    HW3 5870   0.000   0.379   2.571 -0.7786 -0.7504  0.3240
 1449SOL    MW4 5871   0.011   0.377   2.657 -0.5852 -0.0854  0.3159
 1450SOL     OW 5872   0.200   0.526   2.751 -0.1487 -0.0349 -0.1850
 1450SOL    HW2 5873   0.212   0.509   2.845 -0.6491 -2.1150 -0.4781
 1450SOL    HW3 5874   0.269   0.474   2.709 -1.5947 -1.2521 -1.1058
 1450SOL    MW4 5875   0.211   0.516   2.758 -0.4055 -0.4699 -0.3452
 1451SOL     OW 5876   0.223   0.786   2.652  0.1581  0.5786 -0.2789
 1451SOL    HW2 5877   0.298   0.828   2.695  0.6514  0.3991 -0.9671
 1451SOL    HW3 5878   0.214   0.702   2.696  0.6118  0.4301 -0.4736
 1451SOL    MW4 5879   0.232   0.781   2.664  0.2830  0.5352 -0.3955
 1452SOL     OW 5880   4.473   0.911   2.746  0.2434 -0.0304  0.1357
 1452SOL    HW2 5881   4.401   0.849   2.731  0.5129 -0.8231  1.9174
 1452SOL    HW3 5882   4.550   0.868   2.709  0.0825  0.1110 -0.3632
 1452SOL    MW4 5883   4.473   0.897   2.739  0.2570 -0.1163  0.3049
 1453SOL     OW 5884   4.423   1.165   2.652 -0.3190  0.5153 -0.3370
 1453SOL    HW2 5885   4.499   1.210   2.690 -1.1968 -0.3357  2.5350
 1453SOL    HW3 5886   4.433   1.075   2.680 -2.2180  0.3246 -0.2591
 1453SOL    MW4 5887   4.435   1.159   2.660 -0.6852  0.3779  0.0522
 1454SOL     OW 5888   0.202   1.257   2.731  0.3787  0.2775 -0.0475
 1454SOL    HW2 5889   0.282   1.212   2.707 -0.8714 -1.5578 -0.8478
 1454SOL    HW3 5890   0.208   1.342   2.688  1.4708 -0.1964 -0.8456
 1454SOL    MW4 5891   0.213   1.262   2.722  0.3579 -0.0272 -0.2584
 1455SOL     OW 5892   0.200   1.513   2.640  0.0956 -0.0319  0.4378
 1455SOL    HW2 5893   0.263   1.584   2.649  0.7296 -0.6276  0.6933
 1455SOL    HW3 5894   0.118   1.549   2.673  0.3253  0.7072  0.2052
 1455SOL    MW4 5895   0.197   1.527   2.645  0.2095 -0.0129  0.4408
 1456SOL     OW 5896   0.013   1.667   2.749  0.1636  0.2143 -0.4280
 1456SOL    HW2 5897   0.019   1.669   2.844  2.0145  0.9531 -0.5468
 1456SOL    HW3 5898  -0.002   1.758   2.724  1.3813  0.2802 -0.9383
 1456SOL    MW4 5899   0.012   1.679   2.758  0.5684  0.3206 -0.5114
 1457SOL     OW 5900   4.443   1.936   2.669  0.5779 -0.0970 -0.1328
 1457SOL    HW2 5901   4.514   1.993   2.699  0.4496  0.5513 -1.0393
 1457SOL    HW3 5902   4.443   1.946   2.574 -1.5332  0.8783 -0.0598
 1457SOL    MW4 5903   4.453   1.945   2.661  0.2823  0.1172 -0.2427
 1458SOL     OW 5904   0.180   2.103   2.727 -0.0897  0.0092  0.0663
 1458SOL    HW2 5905   0.258   2.064   2.688  0.6296  0.6845  0.8180
 1458SOL    HW3 5906   0.173   2.189   2.687 -0.4968 -0.0654 -0.0358
 1458SOL    MW4 5907   0.189   2.109   2.716 -0.0485  0.0882  0.1521
 1459SOL     OW 5908   0.225   2.382   2.626  0.1195 -0.3430 -0.0082
 1459SOL    HW2 5909   0.306   2.373   2.677 -0.1477 -0.0894  0.4681
 1459SOL    HW3 5910   0.159   2.404   2.691  0.0989  1.6692 -0.6744
 1459SOL    MW4 5911   0.227   2.384   2.641  0.0815 -0.0443 -0.0329
 1460SOL     OW 5912   0.000   2.388   2.786 -0.1356 -0.2778 -0.2706
 1460SOL    HW2 5913  -0.009   2.412   2.878  3.2899 -2.1234  0.6424
 1460SOL    HW3 5914  -0.082   2.344   2.765 -1.0971  0.4534  1.8196
 1460SOL    MW4 5915  -0.012   2.385   2.795  0.1893 -0.4251  0.1259
 1461SOL     OW 5916   4.469   2.662   2.669  0.0606 -0.0853 -0.8239
 1461SOL    HW2 5917   4.396   2.706   2.713 -2.2023 -0.8702 -3.7067
 1461SOL    HW3 5918   4.466   2.572   2.703  0.1068  0.0544 -0.4451
 1461SOL    MW4 5919   4.459   2.656   2.680 -0.2322 -0.1705 -1.1542
 1462SOL     OW 5920   0.210   2.791   2.756 -0.2618  0.3687  0.2245
 1462SOL    HW2 5921   0.192   2.881   2.729 -3.0190 -0.1299  0.2451
 1462SOL    HW3 5922   0.144   2.739   2.710  1.2168 -1.6329  0.3052
 1462SOL    MW4 5923   0.199   2.796   2.746 -0.4305  0.0386  0.2379
 1463SOL     OW 5924   0.218   3.047   2.622 -0.0130 -0.4115 -0.0318
 1463SOL    HW2 5925   0.289   3.093   2.666  0.5278 -0.2917 -1.0119
 1463SOL    HW3 5926   0.222   3.077   2.531 -1.1398 -0.6160 -0.1647
 1463SOL    MW4 5927   0.228   3.057   2.616 -0.0903 -0.4230 -0.1786
 1464SOL     OW 5928   0.020   3.166   2.775  0.0794  0.4499 -0.3211
 1464SOL    HW2 5929  -0.064   3.141   2.736  0.2441 -2.0428  0.8271
 1464SOL    HW3 5930   0.085   3.125   2.718  0.5059  1.3497 -0.4932
 1464SOL    MW4 5931   0.017   3.157   2.762  0.1578  0.2398 -0.1924
 1465SOL     OW 5932   4.473   3.439   2.685  0.3254 -0.1249  0.2281
 1465SOL    HW2 5933   4.534   3.493   2.736 -0.7860  0.2261  1.2012
 1465SOL    HW3 5934   4.494   3.349   2.711 -1.3233  0.1316  2.5733
 1465SOL    MW4 5935   4.484   3.435   2.695 -0.0388 -0.0448  0.6661
 1466SOL     OW 5936   0.196   3.563   2.794  0.1441  0.1116  0.3597
 1466SOL    HW2 5937   0.194   3.579   2.888 -0.1092 -0.0711  0.3878
 1466SOL    HW3 5938   0.279   3.519   2.779  0.0477 -0.1390  0.5483
 1466SOL    MW4 5939   0.206   3.559   2.805  0.0980  0.0546  0.3884
 1467SOL     OW 5940   0.256   3.815   2.689  0.1430  0.3637 -0.1654
 1467SOL    HW2 5941   0.223   3.729   2.714  0.7818  0.2324  0.2518
 1467SOL    HW3 5942   0.264   3.811   2.594  0.7675 -0.2647 -0.0921
 1467SOL    MW4 5943   0.253   3.803   2.680  0.3097  0.2635 -0.1006
 1468SOL     OW 5944   0.030   3.979   2.740 -0.4961 -0.1878 -0.1159
 1468SOL    HW2 5945   0.023   4.071   2.719  0.9602  0.2074  0.9620
 1468SOL    HW3 5946   0.123   3.959   2.727 -1.0289 -1.8309 -1.6028
 1468SOL    MW4 5947   0.042   3.988   2.736 -0.3742 -0.3524 -0.1700
 1469SOL     OW 5948   0.012   4.242   2.650 -0.3794 -0.3160 -0.4797
 1469SOL    HW2 5949  -0.067   4.294   2.665 -0.8132 -0.7075 -1.4150
 1469SOL    HW3 5950   0.083   4.300   2.678 -1.0297 -0.2212  1.0355
 1469SOL    MW4 5951   0.011   4.257   2.656 -0.5225 -0.3552 -0.4034
 1470SOL     OW 5952   0.225   4.412   2.735  0.1787  0.0689 -0.0568
 1470SOL    HW2 5953   0.210   4.412   2.830 -0.9226 -2.6231 -0.1788
 1470SOL    HW3 5954   0.298   4.351   2.723 -1.3848 -1.6249 -1.1324
 1470SOL    MW4 5955   0.232   4.404   2.746 -0.1729 -0.5093 -0.2146
 1471SOL     OW 5956   0.688   0.021   2.641 -0.1642 -0.0500 -0.4441
 1471SOL    HW2 5957   0.759   0.068   2.685 -0.2268 -0.5719  0.2139
 1471SOL    HW3 5958   0.608   0.053   2.683 -0.2265 -0.5152 -0.2071
 1471SOL    MW4 5959   0.687   0.032   2.652 -0.1807 -0.1803 -0.3259
 1472SOL     OW 5960   0.426   0.114   2.721 -0.1648  0.0595 -0.1311
 1472SOL    HW2 5961   0.454   0.129   2.811 -1.3200 -0.3490  0.3011
 1472SOL    HW3 5962   0.346   0.062   2.729 -1.7918  2.3163 -1.2735
 1472SOL    MW4 5963   0.419   0.109   2.734 -0.5319  0.3034 -0.2246
 1473SOL     OW 5964   0.409   0.373   2.651 -0.4495 -0.1064 -0.0407
 1473SOL    HW2 5965   0.485   0.419   2.685  0.3850 -1.1420 -0.4849
 1473SOL    HW3 5966   0.421   0.282   2.678 -0.4991 -0.6740 -1.8157
 1473SOL    MW4 5967   0.421   0.367   2.659 -0.3460 -0.3179 -0.3338
 1474SOL     OW 5968   0.654   0.496   2.752  0.1173  0.1923 -0.1250
 1474SOL    HW2 5969   0.671   0.510   2.846 -0.3952  1.2475 -0.1811
 1474SOL    HW3 5970   0.738   0.470   2.716 -0.2946 -3.1085  1.1521
 1474SOL    MW4 5971   0.667   0.494   2.760 -0.0047 -0.1040  0.0362
 1475SOL     OW 5972   0.636   0.765   2.658 -0.0970  0.1031  0.0779
 1475SOL    HW2 5973   0.719   0.798   2.695 -0.4268 -0.3527  1.2602
 1475SOL    HW3 5974   0.622   0.681   2.703 -0.7296 -0.2696 -0.8044
 1475SOL    MW4 5975   0.645   0.758   2.669 -0.2240 -0.0062  0.1173
 1476SOL     OW 5976   0.435   0.921   2.765 -0.2871  0.4083  1.0349
 1476SOL    HW2 5977   0.443   1.007   2.725  0.4618 -0.4275 -0.6316
 1476SOL    HW3 5978   0.500   0.867   2.721 -1.1496 -1.1763  1.6438
 1476SOL    MW4 5979   0.444   0.926   2.754 -0.3021  0.0889  0.8953
 1477SOL     OW 5980   0.469   1.161   2.646 -0.3265  0.2894 -0.2040
 1477SOL    HW2 5981   0.538   1.213   2.686 -0.6176  0.4535  0.0838
 1477SOL    HW3 5982   0.475   1.181   2.552  0.2795 -0.0146 -0.2322
 1477SOL    MW4 5983   0.479   1.170   2.639 -0.2850  0.2708 -0.1700
 1478SOL     OW 5984   0.681   1.320   2.737 -0.1619 -0.5507  0.4577
 1478SOL    HW2 5985   0.665   1.316   2.831  0.3375  0.0498  0.5720
 1478SOL    HW3 5986   0.768   1.284   2.725  0.0001 -0.1120  0.2909
 1478SOL    MW4 5987   0.690   1.315   2.748 -0.0746 -0.4135  0.4506
 1479SOL     OW 5988   0.626   1.580   2.604  0.1254 -0.1249  0.1641
 1479SOL    HW2 5989   0.543   1.621   2.626  0.9101  0.5501  1.9243
 1479SOL    HW3 5990   0.623   1.495   2.647  0.1653 -0.2802 -0.1392
 1479SOL    MW4 5991   0.615   1.574   2.613  0.2341 -0.0564  0.3562
 1480SOL     OW 5992   0.404   1.711   2.704 -0.3294  0.1196  0.1923
 1480SOL    HW2 5993   0.429   1.720   2.796 -0.1190 -1.3154  0.2961
 1480SOL    HW3 5994   0.400   1.801   2.671  1.5169  0.5640  1.0930
 1480SOL    MW4 5995   0.407   1.724   2.711 -0.0581 -0.0112  0.3252
 1481SOL     OW 5996   0.408   2.003   2.623  0.0240  0.4281 -0.5785
 1481SOL    HW2 5997   0.489   2.032   2.664  0.9680 -1.6295 -0.9143
 1481SOL    HW3 5998   0.435   1.966   2.539 -0.9566 -2.0158  0.1161
 1481SOL    MW4 5999   0.422   2.002   2.617  0.0192 -0.1655 -0.5314
 1482SOL     OW 6000   0.658   2.073   2.702  0.0728  0.5097  0.2756
 1482SOL    HW2 6001   0.663   2.075   2.797 -0.5607 -0.9683  0.3525
 1482SOL    HW3 6002   0.732   2.019   2.674 -0.9479 -0.8240  0.0710
 1482SOL    MW4 6003   0.668   2.066   2.711 -0.1454  0.1388  0.2584
 1483SOL     OW 6004   0.670   2.318   2.602 -0.0063 -0.1147  0.2211
 1483SOL    HW2 6005   0.741   2.361   2.650 -0.2290 -0.1687  0.5987
 1483SOL    HW3 6006   0.659   2.234   2.645 -1.0689  0.3568  0.8922
 1483SOL    MW4 6007   0.678   2.313   2.614 -0.1759 -0.0594  0.3598
 1484SOL     OW 6008   0.465   2.411   2.760 -0.0910  0.0840  0.2120
 1484SOL    HW2 6009   0.453   2.506   2.766 -1.1268 -0.0870  0.9944
 1484SOL    HW3 6010   0.543   2.400   2.705 -1.0305  1.3519 -1.4238
 1484SOL    MW4 6011   0.474   2.422   2.754 -0.3516  0.2284  0.0992
 1485SOL     OW 6012   0.459   2.679   2.734  0.2414 -0.4770 -0.1959
 1485SOL    HW2 6013   0.531   2.742   2.743 -1.1613  1.2597 -0.9758
 1485SOL    HW3 6014   0.380   2.729   2.755 -0.9286 -1.9207 -1.0829
 1485SOL    MW4 6015   0.458   2.694   2.738 -0.0980 -0.4385 -0.4158
 1486SOL     OW 6016   0.665   2.831   2.758  0.3716  0.2528  0.4372
 1486SOL    HW2 6017   0.678   2.834   2.853  1.4386 -0.6129  0.3282
 1486SOL    HW3 6018   0.665   2.922   2.731  0.2898  0.4957  1.2483
 1486SOL    MW4 6019   0.667   2.843   2.767  0.5016  0.1705  0.5298
 1487SOL     OW 6020   0.681   3.083   2.673 -0.2822 -0.3666 -0.1144
 1487SOL    HW2 6021   0.757   3.127   2.712 -0.4950  0.1197 -0.2456
 1487SOL    HW3 6022   0.692   3.097   2.579  0.5049 -1.9741 -0.2813
 1487SOL    MW4 6023   0.693   3.091   2.666 -0.2064 -0.5147 -0.1540
 1488SOL     OW 6024   0.423   3.179   2.746  0.0802  0.2436  0.5566
 1488SOL    HW2 6025   0.427   3.181   2.842 -0.3298  0.4554  0.5715
 1488SOL    HW3 6026   0.510   3.151   2.719 -0.4775 -2.0205  1.0630
 1488SOL    MW4 6027   0.435   3.176   2.755 -0.0474 -0.0272  0.6254
 1489SOL     OW 6028   0.453   3.433   2.678 -0.3847 -0.0323  0.0660
 1489SOL    HW2 6029   0.447   3.343   2.710 -1.3993 -0.1340 -0.3996
 1489SOL    HW3 6030   0.410   3.432   2.593 -0.4847  0.9198  0.0990
 1489SOL    MW4 6031   0.447   3.421   2.671 -0.5318  0.0799  0.0093
 1490SOL     OW 6032   0.675   3.586   2.731 -0.2839 -0.3590 -0.2529
 1490SOL    HW2 6033   0.690   3.573   2.824 -0.4557 -0.4615 -0.2393
 1490SOL    HW3 6034   0.597   3.534   2.711 -0.9832  0.6508 -0.1983
 1490SOL    MW4 6035   0.666   3.577   2.740 -0.3988 -0.2391 -0.2441
 1491SOL     OW 6036   0.654   3.866   2.655 -0.0291 -0.1198 -0.2542
 1491SOL    HW2 6037   0.589   3.910   2.710  1.4425  0.9174  0.6831
 1491SOL    HW3 6038   0.669   3.782   2.700 -1.1405 -0.6253 -0.7998
 1491SOL    MW4 6039   0.647   3.860   2.668  0.0184 -0.0496 -0.2024
 1492SOL     OW 6040   0.446   4.000   2.762  0.4083 -0.3727  0.0980
 1492SOL    HW2 6041   0.430   4.080   2.712 -0.9077 -0.7675 -0.1569
 1492SOL    HW3 6042   0.381   3.938   2.728  1.5812 -1.6288  0.1101
 1492SOL    MW4 6043   0.435   4.002   2.751  0.3895 -0.5903  0.0660
 1493SOL     OW 6044   0.430   4.249   2.640 -0.2801 -0.4002 -0.3433
 1493SOL    HW2 6045   0.512   4.288   2.669 -0.1826 -0.0289 -1.1144
 1493SOL    HW3 6046   0.427   4.265   2.546 -0.4822 -1.8203 -0.5835
 1493SOL    MW4 6047   0.440   4.257   2.632 -0.2939 -0.5383 -0.4768
 1494SOL     OW 6048   0.650   4.410   2.730  0.5298 -0.3499  0.9430
 1494SOL    HW2 6049   0.723   4.366   2.686  2.7047  1.3606  2.7194
 1494SOL    HW3 6050   0.654   4.500   2.697  0.0114  0.0601  1.9901
 1494SOL    MW4 6051   0.660   4.416   2.720  0.7484 -0.0701  1.3156
 1495SOL     OW 6052   1.095   4.627   2.688  0.2565 -0.5165 -0.2551
 1495SOL    HW2 6053   1.176   4.662   2.724 -0.6971  0.1378  1.2913
 1495SOL    HW3 6054   1.094   4.535   2.717 -0.1828 -0.1725  0.8243
 1495SOL    MW4 6055   1.106   4.619   2.697  0.0730 -0.3848  0.0913
 1496SOL     OW 6056   0.919   0.149   2.754 -0.0309  0.2790  0.0650
 1496SOL    HW2 6057   0.916   0.154   2.849 -0.1567 -0.1078  0.0791
 1496SOL    HW3 6058   0.983   0.081   2.735 -0.6947 -0.3040 -0.1170
 1496SOL    MW4 6059   0.927   0.141   2.764 -0.1351  0.1511  0.0432
 1497SOL     OW 6060   0.901   0.415   2.674 -0.4279  0.1469 -0.2870
 1497SOL    HW2 6061   0.897   0.325   2.705  1.1620 -0.1009 -0.7600
 1497SOL    HW3 6062   0.919   0.407   2.581  0.1370  0.9509 -0.2509
 1497SOL    MW4 6063   0.903   0.402   2.666 -0.1437  0.2203 -0.3445
 1498SOL     OW 6064   1.144   0.486   2.786 -0.1445  0.3419 -0.1999
 1498SOL    HW2 6065   1.137   0.577   2.760 -2.0568  0.2033 -0.2211
 1498SOL    HW3 6066   1.065   0.444   2.751  1.1831 -1.5321 -1.0615
 1498SOL    MW4 6067   1.133   0.492   2.778 -0.2216  0.0764 -0.3166
 1499SOL     OW 6068   1.142   0.764   2.694  0.2877 -0.0004  0.2583
 1499SOL    HW2 6069   1.221   0.799   2.735 -0.1186  0.1391  0.9379
 1499SOL    HW3 6070   1.157   0.774   2.600  1.1381 -0.1156  0.3780
 1499SOL    MW4 6071   1.154   0.770   2.687  0.3462  0.0027  0.3638
 1500SOL     OW 6072   0.892   0.870   2.726  0.1740 -0.0865  0.2058
 1500SOL    HW2 6073   0.903   0.862   2.821  2.1233  0.7372  0.0645
 1500SOL    HW3 6074   0.979   0.853   2.690 -0.2326  1.0636 -1.3527
 1500SOL    MW4 6075   0.905   0.866   2.734  0.3776  0.1739 -0.0184
 1501SOL     OW 6076   0.914   1.150   2.662  0.0514  0.1261 -0.3549
 1501SOL    HW2 6077   0.910   1.055   2.668  0.0243  0.0072 -2.0156
 1501SOL    HW3 6078   0.917   1.168   2.568  1.3447  1.7088 -0.0392
 1501SOL    MW4 6079   0.914   1.140   2.650  0.2184  0.3191 -0.5322
 1502SOL     OW 6080   1.139   1.283   2.739 -0.3575  0.2338 -0.1968
 1502SOL    HW2 6081   1.116   1.369   2.704  0.0357  0.4659  0.1031
 1502SOL    HW3 6082   1.063   1.228   2.720  0.1958  0.1227 -2.2100
 1502SOL    MW4 6083   1.126   1.287   2.732 -0.2327  0.2497 -0.4230
 1503SOL     OW 6084   1.102   1.528   2.618  0.0902  0.1527  0.0937
 1503SOL    HW2 6085   1.019   1.570   2.641  0.9799  1.3351  1.2750
 1503SOL    HW3 6086   1.104   1.528   2.522 -2.1867 -1.7863 -0.0020
 1503SOL    MW4 6087   1.092   1.534   2.609 -0.0929  0.0528  0.2372
 1504SOL     OW 6088   0.881   1.673   2.684  0.0258 -0.3415 -0.3611
 1504SOL    HW2 6089   0.878   1.665   2.779 -0.1728 -1.0373 -0.4285
 1504SOL    HW3 6090   0.794   1.647   2.654  0.3051 -0.7849 -0.7859
 1504SOL    MW4 6091   0.869   1.669   2.692  0.0365 -0.4916 -0.4261
 1505SOL     OW 6092   0.864   1.931   2.627  0.5715  0.4558 -0.2720
 1505SOL    HW2 6093   0.949   1.943   2.669 -0.2213  0.4264  1.3913
 1505SOL    HW3 6094   0.844   1.838   2.640 -0.1557  0.6737  0.2427
 1505SOL    MW4 6095   0.873   1.920   2.634  0.3710  0.4807  0.0155
 1506SOL     OW 6096   1.112   2.065   2.702 -0.1699 -0.2521 -0.5135
 1506SOL    HW2 6097   1.196   2.027   2.679 -0.0525  0.5647 -1.4642
 1506SOL    HW3 6098   1.110   2.149   2.656 -1.3195 -0.0697 -0.1553
 1506SOL    MW4 6099   1.123   2.071   2.693 -0.3061 -0.1202 -0.5915
 1507SOL     OW 6100   1.101   2.322   2.612 -0.3768 -0.4523  0.1148
 1507SOL    HW2 6101   1.169   2.378   2.649 -1.9068  1.4516  0.1416
 1507SOL    HW3 6102   1.104   2.341   2.518  0.9336 -2.4229 -0.2754
 1507SOL    MW4 6103   1.111   2.332   2.605 -0.4058 -0.4613  0.0668
 1508SOL     OW 6104   0.884   2.443   2.741 -0.1209  0.0601 -0.1126
 1508SOL    HW2 6105   0.891   2.529   2.701  0.6428  0.2597  0.4387
 1508SOL    HW3 6106   0.956   2.393   2.703 -0.8927 -0.5048 -0.8436
 1508SOL    MW4 6107   0.895   2.447   2.731 -0.1220  0.0117 -0.1364
 1509SOL     OW 6108   0.860   2.684   2.616 -0.3435  0.3894  0.1421
 1509SOL    HW2 6109   0.943   2.729   2.633 -0.4571  0.3660  0.7765
 1509SOL    HW3 6110   0.798   2.727   2.675 -0.7881  0.4223 -0.3491
 1509SOL    MW4 6111   0.863   2.696   2.626 -0.4172  0.3905  0.1612
 1510SOL     OW 6112   1.083   2.832   2.684  0.0000  0.0000  0.2226
 1510SOL    HW2 6113   1.106   2.825   2.777  0.0000  0.0000  0.2240
 1510SOL    HW3 6114   1.159   2.795   2.638  0.0000  0.0000  0.2280
 1510SOL    MW4 6115   1.096   2.826   2.690  0.0000  0.0000  0.2236
 1511SOL     OW 6116   1.148   3.096   2.631  0.0000  0.0000  0.0055
 1511SOL    HW2 6117   1.122   3.007   2.654  0.0000  0.0000  0.0094
 1511SOL    HW3 6118   1.136   3.101   2.536  0.0000  0.0000  0.0057
 1511SOL    MW4 6119   1.143   3.085   2.622  0.0000  0.0000  0.0062
 1512SOL     OW 6120   0.919   3.208   2.746  0.0000  0.0000  0.0846
 1512SOL    HW2 6121   0.903   3.287   2.694  0.0000  0.0000  0.0843
 1512SOL    HW3 6122   1.006   3.179   2.718  0.0000  0.0000  0.0877
 1512SOL    MW4 6123   0.928   3.215   2.735  0.0000  0.0000  0.0849
 1513SOL     OW 6124   0.887   3.462   2.610  0.0000  0.0000  0.0618
 1513SOL    HW2 6125   0.961   3.509   2.651  0.0000  0.0000  0.0587
 1513SOL    HW3 6126   0.810   3.512   2.639  0.0000  0.0000  0.0510
 1513SOL    MW4 6127   0.887   3.475   2.619  0.0000  0.0000  0.0601
 1514SOL     OW 6128   1.102   3.599   2.723  0.0000  0.0000 -0.0002
 1514SOL    HW2 6129   1.101   3.626   2.815  0.0000  0.0000 -0.0006
 1514SOL    HW3 6130   1.100   3.681   2.674  0.0000  0.0000 -0.0020
 1514SOL    MW4 6131   1.102   3.613   2.729  0.0000  0.0000 -0.0005
 1515SOL     OW 6132   1.098   3.851   2.593  0.0000  0.0000  0.0264
 1515SOL    HW2 6133   1.178   3.889   2.631  0.0000  0.0000  0.0247
 1515SOL    HW3 6134   1.110   3.859   2.499  0.0000  0.0000  0.0262
 1515SOL    MW4 6135   1.110   3.857   2.586  0.0000  0.0000  0.0262
 1516SOL     OW 6136   0.893   4.008   2.746  0.0000  0.0000  0.0832
 1516SOL    HW2 6137   0.957   3.963   2.691  0.0000  0.0000  0.0767
 1516SOL    HW3 6138   0.809   3.969   2.721  0.0000  0.0000  0.0840
 1516SOL    MW4 6139   0.890   3.997   2.736  0.0000  0.0000  0.0827
 1517SOL     OW 6140   0.888   4.266   2.648  0.0000  0.0000 -0.3128
 1517SOL    HW2 6141   0.892   4.173   2.673  0.0000  0.0000 -0.3220
 1517SOL    HW3 6142   0.884   4.265   2.553  0.0000  0.0000 -0.3128
 1517SOL    MW4 6143   0.888   4.254   2.639  0.0000  0.0000 -0.3142
 1518SOL     OW 6144   1.144   4.351   2.761  0.0000  0.0000  0.2618
 1518SOL    HW2 6145   1.137   4.378   2.853  0.0000  0.0000  0.2633
 1518SOL    HW3 6146   1.055   4.327   2.736  0.0000  0.0000  0.2568
 1518SOL    MW4 6147   1.131   4.351   2.770  0.0000  0.0000  0.2613
 1519SOL     OW 6148   1.546   4.650   2.632 -0.4609 -0.2339  0.5059
 1519SOL    HW2 6149   1.573   4.561   2.656  0.5383 -0.0160  0.2488
 1519SOL    HW3 6150   1.541   4.648   2.536 -1.4748 -0.2941  0.5574
 1519SOL    MW4 6151   1.549   4.638   2.623 -0.4629 -0.2131  0.4787
 1520SOL     OW 6152   1.322   0.122   2.746  0.2009 -0.0185 -0.3104
 1520SOL    HW2 6153   1.319   0.210   2.710 -0.7512 -0.1603 -0.5724
 1520SOL    HW3 6154   1.398   0.082   2.703 -0.0585  0.2901 -1.0581
 1520SOL    MW4 6155   1.332   0.128   2.735  0.0410  0.0035 -0.4437
 1521SOL     OW 6156   1.323   0.368   2.612 -0.1728  0.2733  0.3807
 1521SOL    HW2 6157   1.412   0.387   2.641 -0.0856  1.0164 -0.3444
 1521SOL    HW3 6158   1.266   0.410   2.677 -0.0039 -0.7613  1.2057
 1521SOL    MW4 6159   1.327   0.376   2.624 -0.1390  0.2348  0.3941
 1522SOL     OW 6160   1.550   0.485   2.747  0.1682 -0.0284  0.2239
 1522SOL    HW2 6161   1.617   0.447   2.691 -0.8027 -0.7452 -0.4555
 1522SOL    HW3 6162   1.550   0.578   2.724  0.4968 -0.1344 -0.2124
 1522SOL    MW4 6163   1.559   0.492   2.737  0.0836 -0.1370  0.0765
 1523SOL     OW 6164   1.572   0.743   2.682 -0.2160 -0.4748  0.1763
 1523SOL    HW2 6165   1.501   0.801   2.710 -1.4325 -1.0992 -1.5995
 1523SOL    HW3 6166   1.559   0.731   2.588  2.0256 -0.9047 -0.1188
 1523SOL    MW4 6167   1.561   0.749   2.674 -0.0808 -0.6140 -0.0966
 1524SOL     OW 6168   1.368   0.912   2.754  0.0134  0.2012  0.4488
 1524SOL    HW2 6169   1.361   0.936   2.846 -0.0246  0.9625  0.2576
 1524SOL    HW3 6170   1.350   0.994   2.707 -2.2673 -0.6487 -0.2661
 1524SOL    MW4 6171   1.364   0.926   2.760 -0.2925  0.1895  0.3290
 1525SOL     OW 6172   1.356   1.150   2.611 -0.2262 -0.2059  0.0792
 1525SOL    HW2 6173   1.423   1.194   2.664 -0.0685 -0.0935 -0.2158
 1525SOL    HW3 6174   1.274   1.192   2.637 -0.1904 -0.3823  0.4830
 1525SOL    MW4 6175   1.354   1.161   2.622 -0.2006 -0.2143  0.0932
 1526SOL     OW 6176   1.524   1.298   2.782 -0.5578  0.4198 -0.2322
 1526SOL    HW2 6177   1.544   1.324   2.871  0.6039 -1.5776  0.1282
 1526SOL    HW3 6178   1.605   1.260   2.749 -1.5783 -0.8566 -1.3616
 1526SOL    MW4 6179   1.537   1.296   2.789 -0.5392 -0.0120 -0.3338
 1527SOL     OW 6180   1.555   1.557   2.655 -0.5483 -0.1003 -0.3150
 1527SOL    HW2 6181   1.537   1.469   2.686  2.0565 -0.5800 -0.0892
 1527SOL    HW3 6182   1.553   1.549   2.559 -1.4255 -0.1483 -0.2979
 1527SOL    MW4 6183   1.552   1.544   2.646 -0.3203 -0.1699 -0.2828
 1528SOL     OW 6184   1.294   1.696   2.730 -0.2575 -0.5059  0.3153
 1528SOL    HW2 6185   1.366   1.641   2.700 -0.9793 -1.4055  0.2077
 1528SOL    HW3 6186   1.215   1.650   2.703 -0.8827  0.9153 -0.3719
 1528SOL    MW4 6187   1.293   1.683   2.723 -0.4351 -0.4370  0.2103
 1529SOL     OW 6188   1.354   1.951   2.620 -0.3697  0.3976 -0.0050
 1529SOL    HW2 6189   1.341   1.866   2.662  2.2577 -0.2119 -0.2910
 1529SOL    HW3 6190   1.350   1.932   2.526  0.7863  0.4546 -0.0773
 1529SOL    MW4 6191   1.352   1.937   2.613  0.1295  0.3247 -0.0520
 1530SOL     OW 6192   1.579   2.063   2.717 -0.1781 -0.1336  0.4191
 1530SOL    HW2 6193   1.653   2.019   2.675  0.7445 -0.2478  2.1061
 1530SOL    HW3 6194   1.502   2.017   2.685  0.4476  0.1853 -1.6202
 1530SOL    MW4 6195   1.579   2.051   2.707  0.0262 -0.1066  0.3726
 1531SOL     OW 6196   1.514   2.335   2.620 -0.0027 -0.6703 -0.1308
 1531SOL    HW2 6197   1.599   2.368   2.648 -0.8294  0.0482  1.6581
 1531SOL    HW3 6198   1.516   2.242   2.641  1.0270 -1.0376 -1.8473
 1531SOL    MW4 6199   1.525   2.327   2.627  0.0241 -0.6237 -0.1214
 1532SOL     OW 6200   1.297   2.468   2.724 -0.4404  0.1311 -0.3688
 1532SOL    HW2 6201   1.303   2.553   2.680 -0.1307 -0.5024 -1.5757
 1532SOL    HW3 6202   1.381   2.426   2.707 -0.2707 -0.0813  0.9495
 1532SOL    MW4 6203   1.309   2.474   2.716 -0.3771  0.0196 -0.3541
 1533SOL     OW 6204   1.320   2.724   2.597  0.2498 -0.0133  0.2669
 1533SOL    HW2 6205   1.403   2.754   2.633 -0.1684  0.2312  1.0160
 1533SOL    HW3 6206   1.342   2.697   2.507  0.8094  1.5803 -0.0901
 1533SOL    MW4 6207   1.334   2.724   2.590  0.2685  0.2291  0.3185
 1534SOL     OW 6208   1.551   2.811   2.707 -0.2134 -0.3145 -0.1707
 1534SOL    HW2 6209   1.553   2.804   2.802 -2.6704 -0.9732 -0.1404
 1534SOL    HW3 6210   1.617   2.748   2.677 -1.2030 -1.9593  1.0350
 1534SOL    MW4 6211   1.560   2.801   2.715 -0.6680 -0.6182 -0.0079
 1535SOL     OW 6212   1.581   3.067   2.619 -0.4475 -0.3614  0.2458
 1535SOL    HW2 6213   1.656   3.092   2.672  0.8642 -1.4726 -1.0410
 1535SOL    HW3 6214   1.559   2.978   2.647  0.5825 -1.1615 -1.3654
 1535SOL    MW4 6215   1.588   3.059   2.629 -0.1385 -0.6137 -0.1366
 1536SOL     OW 6216   1.375   3.231   2.670 -0.1311  0.6317 -0.2167
 1536SOL    HW2 6217   1.454   3.182   2.647 -0.5654 -0.3536  0.3369
 1536SOL    HW3 6218   1.304   3.167   2.660 -0.6318  0.9504  1.1794
 1536SOL    MW4 6219   1.376   3.216   2.666 -0.2545  0.5436  0.0408
 1537SOL     OW 6220   1.342   3.507   2.636 -0.3191  0.5397  0.1665
 1537SOL    HW2 6221   1.325   3.413   2.630 -0.2586  0.6328 -1.9486
 1537SOL    HW3 6222   1.258   3.544   2.663 -0.8789  0.0462 -0.8424
 1537SOL    MW4 6223   1.329   3.499   2.639 -0.3848  0.4866 -0.2456
 1538SOL     OW 6224   1.612   3.631   2.663  0.1269 -0.0045  0.7355
 1538SOL    HW2 6225   1.670   3.555   2.663  1.5241  1.0315 -0.0012
 1538SOL    HW3 6226   1.525   3.595   2.645  0.9151 -1.3064 -0.5682
 1538SOL    MW4 6227   1.608   3.616   2.661  0.4152 -0.0398  0.4663
 1539SOL     OW 6228   1.592   3.892   2.607 -0.0103  0.2425  0.3805
 1539SOL    HW2 6229   1.501   3.908   2.630  0.1347  0.3475  0.8804
 1539SOL    HW3 6230   1.601   3.797   2.606  0.2101  0.2414  1.6646
 1539SOL    MW4 6231   1.581   3.882   2.610  0.0379  0.2561  0.6161
 1540SOL     OW 6232   1.342   3.981   2.687 -0.3299  0.5124  0.2428
 1540SOL    HW2 6233   1.330   3.979   2.782  0.1020  0.0253  0.2878
 1540SOL    HW3 6234   1.346   4.074   2.665 -0.2873  0.6240  0.7197
 1540SOL    MW4 6235   1.341   3.993   2.696 -0.2673  0.4628  0.3116
 1541SOL     OW 6236   1.373   4.235   2.634 -0.0799  0.0462  0.1171
 1541SOL    HW2 6237   1.302   4.290   2.668  0.2884  0.5888  0.0136
 1541SOL    HW3 6238   1.367   4.244   2.539  0.3797  0.4109  0.1222
 1541SOL    MW4 6239   1.363   4.244   2.626  0.0292  0.1655  0.1040
 1542SOL     OW 6240   1.614   4.405   2.728  0.2208 -0.2854  0.2514
 1542SOL    HW2 6241   1.604   4.407   2.823 -1.8653  2.3050  0.0503
 1542SOL    HW3 6242   1.546   4.346   2.697 -1.0730  1.2110  0.1998
 1542SOL    MW4 6243   1.604   4.398   2.736 -0.2251  0.2537  0.2182
 1543SOL     OW 6244   2.003   4.660   2.577  0.2945 -0.3856  0.3223
 1543SOL    HW2 6245   2.071   4.706   2.626  0.1019  2.0828 -1.6429
 1543SOL    HW3 6246   2.024   4.676   2.485 -1.7181 -1.4206 -0.3529
 1543SOL    MW4 6247   2.014   4.668   2.572  0.0036 -0.1965 -0.0262
 1544SOL     OW 6248   1.778   0.119   2.693 -0.0455 -0.2397 -0.2590
 1544SOL    HW2 6249   1.852   0.062   2.673 -1.4041 -1.9204 -0.6165
 1544SOL    HW3 6250   1.701   0.063   2.680 -1.3322  1.2090  0.9890
 1544SOL    MW4 6251   1.778   0.104   2.689 -0.3945 -0.2703 -0.1414
 1545SOL     OW 6252   1.775   0.391   2.613  0.1276  0.0137  0.8201
 1545SOL    HW2 6253   1.844   0.422   2.671 -0.5435 -0.3165  1.8102
 1545SOL    HW3 6254   1.776   0.296   2.623 -0.8501  0.0465  1.2910
 1545SOL    MW4 6255   1.784   0.383   2.622 -0.0899 -0.0255  1.0128
 1546SOL     OW 6256   1.985   0.499   2.766  0.0466  0.0507  0.1243
 1546SOL    HW2 6257   2.071   0.460   2.750  0.0107 -0.4197  1.0512
 1546SOL    HW3 6258   1.991   0.587   2.728  1.0975  0.1932  0.6041
 1546SOL    MW4 6259   1.997   0.506   2.759  0.1805  0.0075  0.3099
 1547SOL     OW 6260   2.010   0.756   2.642 -0.0711  0.3172  0.0523
 1547SOL    HW2 6261   1.935   0.810   2.667 -1.8881 -1.8132 -0.6163
 1547SOL    HW3 6262   1.997   0.740   2.549  0.4922 -1.1601  0.2263
 1547SOL    MW4 6263   1.998   0.761   2.633 -0.2365 -0.1588 -0.0129
 1548SOL     OW 6264   1.810   0.919   2.720 -0.0088 -0.5554  0.1093
 1548SOL    HW2 6265   1.782   1.008   2.702  0.6898 -0.2685  0.4214
 1548SOL    HW3 6266   1.732   0.866   2.707 -0.0818 -0.0812 -1.5121
 1548SOL    MW4 6267   1.796   0.923   2.716  0.0737 -0.4550 -0.0634
 1549SOL     OW 6268   1.762   1.188   2.656 -0.1667  0.2558  0.0600
 1549SOL    HW2 6269   1.831   1.236   2.703 -1.1752  1.9301 -0.1320
 1549SOL    HW3 6270   1.786   1.197   2.564  0.1843 -0.4569  0.0844
 1549SOL    MW4 6271   1.774   1.196   2.650 -0.2534  0.3827  0.0379
 1550SOL     OW 6272   1.992   1.301   2.767  0.8457 -0.1831  0.0022
 1550SOL    HW2 6273   2.015   1.277   2.857  1.0655 -0.7451 -0.1998
 1550SOL    HW3 6274   2.067   1.272   2.715  1.2971  1.3160 -0.2072
 1550SOL    MW4 6275   2.005   1.294   2.772  0.9341 -0.0595 -0.0522
 1551SOL     OW 6276   1.969   1.544   2.619  0.5069  0.2209  0.1162
 1551SOL    HW2 6277   1.898   1.598   2.654  0.3805  0.9433 -1.2309
 1551SOL    HW3 6278   1.967   1.465   2.673  0.7789  1.5949  2.1944
 1551SOL    MW4 6279   1.959   1.541   2.630  0.5261  0.4975  0.2124
 1552SOL     OW 6280   1.778   1.708   2.744 -0.1666  0.4060 -1.0299
 1552SOL    HW2 6281   1.795   1.714   2.838 -0.5505  1.4080 -1.0139
 1552SOL    HW3 6282   1.694   1.662   2.738  0.0849 -0.0689 -0.8997
 1552SOL    MW4 6283   1.769   1.703   2.756 -0.1841  0.4756 -1.0107
 1553SOL     OW 6284   1.813   1.937   2.604  0.0288 -0.1364  0.3176
 1553SOL    HW2 6285   1.886   1.979   2.649 -1.5943  0.7131  2.2959
 1553SOL    HW3 6286   1.793   1.860   2.657  0.5044 -1.2547 -1.1085
 1553SOL    MW4 6287   1.820   1.932   2.617 -0.1227 -0.1719  0.3903
 1554SOL     OW 6288   2.013   2.069   2.728 -0.2025 -0.7061  0.1209
 1554SOL    HW2 6289   2.021   2.085   2.822 -0.8082  0.1318  0.0285
 1554SOL    HW3 6290   2.012   2.156   2.688  0.9514 -1.0670 -0.7447
 1554SOL    MW4 6291   2.014   2.083   2.735 -0.1302 -0.6433 -0.0055
 1555SOL     OW 6292   2.014   2.333   2.619  0.4235  0.1530  0.4360
 1555SOL    HW2 6293   2.099   2.362   2.654  0.3872  0.1521  0.5256
 1555SOL    HW3 6294   2.021   2.348   2.525  0.1790  1.0474  0.5499
 1555SOL    MW4 6295   2.026   2.339   2.611  0.3865  0.2711  0.4628
 1556SOL     OW 6296   1.768   2.409   2.696  0.0825 -0.7916 -0.0852
 1556SOL    HW2 6297   1.788   2.409   2.790  0.6241 -1.1532 -0.1994
 1556SOL    HW3 6298   1.841   2.362   2.656 -1.0851 -2.3071 -0.4970
 1556SOL    MW4 6299   1.780   2.403   2.703  0.0000 -1.0393 -0.1545
 1557SOL     OW 6300   1.744   2.656   2.599  0.5427 -0.0913  0.1529
 1557SOL    HW2 6301   1.737   2.570   2.641  0.3630 -0.5626 -0.8473
 1557SOL    HW3 6302   1.762   2.637   2.507  0.2434  0.9361 -0.1243
 1557SOL    MW4 6303   1.745   2.642   2.593  0.4796 -0.0176 -0.0155
 1558SOL     OW 6304   1.956   2.810   2.708 -0.3466 -0.9155  0.5954
 1558SOL    HW2 6305   2.043   2.778   2.682 -0.5205  0.2372 -1.4866
 1558SOL    HW3 6306   1.895   2.747   2.670 -0.5883  0.6082 -1.6195
 1558SOL    MW4 6307   1.959   2.798   2.699 -0.4014 -0.5624  0.0284
 1559SOL     OW 6308   2.060   3.068   2.611 -0.7109  0.6458 -0.6508
 1559SOL    HW2 6309   2.031   2.982   2.642  1.0589 -0.1485 -1.1414
 1559SOL    HW3 6310   2.019   3.078   2.525 -1.3907  0.5506 -0.3387
 1559SOL    MW4 6311   2.051   3.058   2.604 -0.5672  0.5286 -0.6742
 1560SOL     OW 6312   1.810   3.152   2.756 -0.1582 -0.1237  0.3711
 1560SOL    HW2 6313   1.822   3.247   2.749  1.2147 -0.2061  1.3596
 1560SOL    HW3 6314   1.887   3.115   2.713  0.0905 -0.7591  1.3393
 1560SOL    MW4 6315   1.822   3.159   2.749  0.0558 -0.2184  0.6294
 1561SOL     OW 6316   1.793   3.435   2.672 -0.4181  0.3726  0.1994
 1561SOL    HW2 6317   1.849   3.504   2.709  1.5372 -0.6022 -0.9004
 1561SOL    HW3 6318   1.800   3.447   2.578 -1.1724 -0.4810  0.0356
 1561SOL    MW4 6319   1.801   3.446   2.665 -0.2596  0.1314  0.0324
 1562SOL     OW 6320   1.978   3.641   2.754 -0.0415  0.2234 -0.1261
 1562SOL    HW2 6321   1.993   3.646   2.848  0.2770 -0.7322 -0.1180
 1562SOL    HW3 6322   2.052   3.589   2.721 -0.9907 -0.7838 -0.6855
 1562SOL    MW4 6323   1.990   3.635   2.762 -0.1247 -0.0355 -0.1986
 1563SOL     OW 6324   2.000   3.880   2.625 -0.3287  0.6291  0.5906
 1563SOL    HW2 6325   1.929   3.935   2.659  0.2114  1.3225  0.6274
 1563SOL    HW3 6326   1.985   3.794   2.664 -1.8199  0.4537 -0.3289
 1563SOL    MW4 6327   1.989   3.876   2.634 -0.4539  0.6976  0.4742
 1564SOL     OW 6328   1.787   4.014   2.756  0.8903 -0.2551 -0.1343
 1564SOL    HW2 6329   1.788   4.102   2.719  1.1083 -0.7538 -1.3226
 1564SOL    HW3 6330   1.717   3.969   2.708 -0.1654 -0.3241  1.4328
 1564SOL    MW4 6331   1.778   4.020   2.745  0.7797 -0.3300 -0.0844
 1565SOL     OW 6332   1.835   4.284   2.646 -0.7675  0.4077  0.7938
 1565SOL    HW2 6333   1.764   4.338   2.681 -0.1732  0.4528  1.9585
 1565SOL    HW3 6334   1.819   4.283   2.552 -1.9301  0.9709  0.9642
 1565SOL    MW4 6335   1.823   4.291   2.638 -0.8423  0.4883  0.9699
 1566SOL     OW 6336   2.059   4.428   2.706 -0.2547  0.3168  0.1665
 1566SOL    HW2 6337   1.976   4.383   2.694  1.2880 -2.2960 -0.9668
 1566SOL    HW3 6338   2.051   4.507   2.652 -0.8971 -1.4013 -2.3490
 1566SOL    MW4 6339   2.047   4.433   2.697 -0.1357 -0.2542 -0.3150
 1567SOL     OW 6340   2.465   4.635   2.640 -0.3124 -0.5094 -0.0913
 1567SOL    HW2 6341   2.525   4.687   2.694 -1.6110  0.1796  0.7176
 1567SOL    HW3 6342   2.484   4.662   2.550  0.0614  0.2775  0.2187
 1567SOL    MW4 6343   2.475   4.645   2.635 -0.4344 -0.3147  0.0563
 1568SOL     OW 6344   2.222   0.102   2.710 -0.5829  0.0908  0.2280
 1568SOL    HW2 6345   2.202   0.077   2.801  0.6574  0.3587  0.5767
 1568SOL    HW3 6346   2.305   0.059   2.691 -0.0464  1.3166 -0.2453
 1568SOL    MW4 6347   2.230   0.093   2.720 -0.3483  0.2878  0.2117
 1569SOL     OW 6348   2.216   0.378   2.682  0.6205  0.1863 -0.0078
 1569SOL    HW2 6349   2.212   0.284   2.701 -1.1635  0.4244  0.9315
 1569SOL    HW3 6350   2.205   0.383   2.587 -0.6590 -0.4987  0.0915
 1569SOL    MW4 6351   2.214   0.366   2.672  0.2165  0.1274  0.1292
 1570SOL     OW 6352   2.461   0.533   2.769  0.7949  0.1318 -0.1730
 1570SOL    HW2 6353   2.441   0.625   2.750  0.0228  0.0341  0.1788
 1570SOL    HW3 6354   2.384   0.485   2.741  1.3299 -0.4463 -0.6527
 1570SOL    MW4 6355   2.448   0.539   2.763  0.7637  0.0426 -0.1900
 1571SOL     OW 6356   2.417   0.780   2.666 -0.3786 -0.0088 -0.0515
 1571SOL    HW2 6357   2.361   0.854   2.691 -1.7911 -1.3551  0.8275
 1571SOL    HW3 6358   2.427   0.788   2.571 -0.6298  1.2183  0.0106
 1571SOL    MW4 6359   2.411   0.791   2.657 -0.5980 -0.0246  0.0725
 1572SOL     OW 6360   2.201   0.961   2.739 -0.0116 -0.3706  0.3918
 1572SOL    HW2 6361   2.191   0.952   2.834 -1.3605 -0.5580  0.2433
 1572SOL    HW3 6362   2.138   0.898   2.702  2.0622 -1.9224 -0.6370
 1572SOL    MW4 6363   2.191   0.951   2.747  0.0842 -0.6000  0.2365
 1573SOL     OW 6364   2.184   1.191   2.598 -0.0731  0.2780 -0.4525
 1573SOL    HW2 6365   2.192   1.104   2.639 -0.0290 -0.1606 -1.3920
 1573SOL    HW3 6366   2.195   1.175   2.505 -0.5024  1.2443 -0.6721
 1573SOL    MW4 6367   2.187   1.177   2.591 -0.1240  0.3477 -0.6053
 1574SOL     OW 6368   2.433   1.302   2.738 -0.3549 -0.0805  0.3688
 1574SOL    HW2 6369   2.510   1.247   2.724 -1.3976 -2.1996  2.6442
 1574SOL    HW3 6370   2.363   1.257   2.691 -1.3475 -1.0555  2.7366
 1574SOL    MW4 6371   2.434   1.289   2.730 -0.6232 -0.4889  0.9816
 1575SOL     OW 6372   2.453   1.573   2.632  0.2624 -0.2329 -0.4991
 1575SOL    HW2 6373   2.369   1.617   2.643  0.8150  0.2223  2.0195
 1575SOL    HW3 6374   2.437   1.483   2.661  0.7243 -0.0628  0.2862
 1575SOL    MW4 6375   2.440   1.567   2.637  0.3965 -0.1504 -0.0634
 1576SOL     OW 6376   2.206   1.676   2.698 -0.0384 -0.1274 -0.7216
 1576SOL    HW2 6377   2.204   1.766   2.665 -0.6910  0.1723  0.1091
 1576SOL    HW3 6378   2.116   1.644   2.688 -0.8757  0.8124  2.9768
 1576SOL    MW4 6379   2.194   1.684   2.692 -0.2353  0.0361 -0.1242
 1577SOL     OW 6380   2.225   1.924   2.608  0.3909 -0.2294 -0.2077
 1577SOL    HW2 6381   2.169   1.995   2.641 -0.1941 -0.0593 -1.5373
 1577SOL    HW3 6382   2.211   1.924   2.514 -0.8769 -3.2009 -0.0789
 1577SOL    MW4 6383   2.216   1.933   2.600  0.1464 -0.5990 -0.3660
 1578SOL     OW 6384   2.462   2.017   2.697  0.2429  0.3368  0.1188
 1578SOL    HW2 6385   2.463   2.111   2.679  0.4487  0.2822 -0.1604
 1578SOL    HW3 6386   2.373   1.989   2.676  0.3591  0.3533 -0.3967
 1578SOL    MW4 6387   2.451   2.026   2.692  0.2854  0.3319  0.0138
 1579SOL     OW 6388   2.459   2.279   2.598  0.1653  0.0605  0.1129
 1579SOL    HW2 6389   2.525   2.340   2.630  1.9501 -1.1933 -1.1394
 1579SOL    HW3 6390   2.446   2.302   2.506  0.4845 -1.1215 -0.2373
 1579SOL    MW4 6391   2.466   2.290   2.590  0.4430 -0.2608 -0.0987
 1580SOL     OW 6392   2.239   2.452   2.723  0.1195  0.0376 -0.1785
 1580SOL    HW2 6393   2.241   2.446   2.819  0.5665 -1.5046 -0.2655
 1580SOL    HW3 6394   2.305   2.389   2.694 -1.9693 -1.5781 -1.5757
 1580SOL    MW4 6395   2.248   2.443   2.732 -0.0970 -0.3788 -0.3743
 1581SOL     OW 6396   2.196   2.719   2.619  0.0905  0.7836 -0.4414
 1581SOL    HW2 6397   2.268   2.768   2.660 -0.9766  2.2183 -0.2806
 1581SOL    HW3 6398   2.193   2.637   2.669  0.8354  1.2084  0.3370
 1581SOL    MW4 6399   2.205   2.714   2.631  0.0482  1.0288 -0.3176
 1582SOL     OW 6400   2.416   2.874   2.705  0.5270 -0.2410  0.2509
 1582SOL    HW2 6401   2.492   2.825   2.673  0.3157  0.5690 -1.5228
 1582SOL    HW3 6402   2.427   2.962   2.669 -1.2234 -0.0999  0.0271
 1582SOL    MW4 6403   2.427   2.879   2.696  0.2685 -0.1154 -0.0126
 1583SOL     OW 6404   2.470   3.156   2.602  0.7224  0.1146  0.1206
 1583SOL    HW2 6405   2.395   3.198   2.644  0.1245 -0.8504  0.0312
 1583SOL    HW3 6406   2.457   3.174   2.508  0.3130 -0.5129  0.0563
 1583SOL    MW4 6407   2.458   3.164   2.595  0.5894 -0.0954  0.1004
 1584SOL     OW 6408   2.244   3.248   2.729 -0.3816 -0.4545  0.4839
 1584SOL    HW2 6409   2.244   3.230   2.823 -3.1442 -2.0448  0.2123
 1584SOL    HW3 6410   2.184   3.184   2.691 -1.4684  1.9353 -2.0288
 1584SOL    MW4 6411   2.236   3.238   2.736 -0.8893 -0.3490  0.1166
 1585SOL     OW 6412   2.177   3.512   2.626  0.1872 -0.1306 -0.3237
 1585SOL    HW2 6413   2.252   3.544   2.676 -1.0625 -0.6610  1.9815
 1585SOL    HW3 6414   2.177   3.418   2.642 -1.1015 -0.0942 -0.0895
 1585SOL    MW4 6415   2.187   3.504   2.635 -0.1478 -0.1957  0.0112
 1586SOL     OW 6416   2.438   3.608   2.767  0.1958 -0.0526  0.2386
 1586SOL    HW2 6417   2.441   3.631   2.860 -1.0862 -0.1181  0.3091
 1586SOL    HW3 6418   2.449   3.691   2.721 -1.6660  0.3423  0.4744
 1586SOL    MW4 6419   2.440   3.622   2.773 -0.2193 -0.0093  0.2792
 1587SOL     OW 6420   2.455   3.834   2.616  0.6484  0.2612 -0.3569
 1587SOL    HW2 6421   2.529   3.889   2.643 -0.0370  1.4292 -0.7899
 1587SOL    HW3 6422   2.378   3.886   2.640 -0.0480 -1.3145  0.8889
 1587SOL    MW4 6423   2.454   3.848   2.623  0.4663  0.2074 -0.2496
 1588SOL     OW 6424   2.241   3.968   2.752  0.0935  0.1622  0.0696
 1588SOL    HW2 6425   2.222   3.978   2.845  1.1331  1.7498  0.1406
 1588SOL    HW3 6426   2.170   3.915   2.718 -0.8207  0.3948  1.5784
 1588SOL    MW4 6427   2.229   3.963   2.760  0.1101  0.4022  0.2780
 1589SOL     OW 6428   2.277   4.248   2.639  0.3276 -0.8316 -0.2461
 1589SOL    HW2 6429   2.277   4.157   2.670  0.3828 -0.7346  0.0335
 1589SOL    HW3 6430   2.202   4.288   2.683  0.7838 -0.5229  0.2557
 1589SOL    MW4 6431   2.267   4.241   2.649  0.3951 -0.7782 -0.1431
 1590SOL     OW 6432   2.483   4.395   2.772  0.1777 -0.3890 -0.6576
 1590SOL    HW2 6433   2.418   4.341   2.727  0.7347 -0.6953 -1.1040
 1590SOL    HW3 6434   2.473   4.482   2.734 -0.6893 -0.1825  0.0281
 1590SOL    MW4 6435   2.473   4.399   2.761  0.1371 -0.4020 -0.6263
 1591SOL     OW 6436   2.894   0.004   2.646 -0.2387  0.1586 -0.0685
 1591SOL    HW2 6437   2.984   0.027   2.671  0.1425 -0.3060 -0.9729
 1591SOL    HW3 6438   2.889   0.027   2.553 -1.0250  0.0879 -0.0421
 1591SOL    MW4 6439   2.905   0.010   2.637 -0.2921  0.0880 -0.1841
 1592SOL     OW 6440   2.659   0.117   2.744  0.4117  0.5619 -0.3064
 1592SOL    HW2 6441   2.648   0.120   2.839  0.3674 -0.5689 -0.2786
 1592SOL    HW3 6442   2.742   0.072   2.730  0.3147  0.5279 -0.8125
 1592SOL    MW4 6443   2.668   0.112   2.754  0.3932  0.4082 -0.3695
 1593SOL     OW 6444   2.669   0.364   2.642 -0.1088 -0.0203 -0.2018
 1593SOL    HW2 6445   2.652   0.276   2.674  1.6989 -0.7318 -1.1351
 1593SOL    HW3 6446   2.600   0.418   2.682 -0.4371 -1.6054  1.4293
 1593SOL    MW4 6447   2.658   0.359   2.652  0.0863 -0.3233 -0.1097
 1594SOL     OW 6448   2.907   0.475   2.750  0.1604 -0.1021  0.3416
 1594SOL    HW2 6449   2.902   0.561   2.709  1.4242 -0.8941 -1.5428
 1594SOL    HW3 6450   2.828   0.429   2.721  0.0647  0.0260  0.4021
 1594SOL    MW4 6451   2.896   0.480   2.741  0.3147 -0.1897  0.1009
 1595SOL     OW 6452   2.892   0.761   2.660 -0.0460 -0.1191  0.1907
 1595SOL    HW2 6453   2.975   0.806   2.677  0.4680 -0.1074 -2.1886
 1595SOL    HW3 6454   2.827   0.814   2.705  1.0036  0.8898  0.5589
 1595SOL    MW4 6455   2.895   0.774   2.669  0.1600  0.0155 -0.0749
 1596SOL     OW 6456   2.679   0.895   2.758  0.3431  0.0235  0.0667
 1596SOL    HW2 6457   2.694   0.888   2.852  1.9902  0.5496 -0.1377
 1596SOL    HW3 6458   2.614   0.827   2.739  0.4363 -0.4831  1.4818
 1596SOL    MW4 6459   2.672   0.885   2.768  0.5729  0.0262  0.2265
 1597SOL     OW 6460   2.637   1.136   2.627 -0.2507 -0.0835 -0.2448
 1597SOL    HW2 6461   2.725   1.167   2.646 -0.2884  0.6287 -1.2080
 1597SOL    HW3 6462   2.630   1.053   2.674  0.3160  0.7029  1.2639
 1597SOL    MW4 6463   2.648   1.129   2.636 -0.1810  0.1142 -0.1726
 1598SOL     OW 6464   2.882   1.243   2.715  0.3254  0.0065  0.2728
 1598SOL    HW2 6465   2.883   1.240   2.811 -1.4992 -0.7090  0.2842
 1598SOL    HW3 6466   2.968   1.210   2.690  1.3213  1.4492  1.6849
 1598SOL    MW4 6467   2.894   1.238   2.724  0.2160  0.1024  0.4606
 1599SOL     OW 6468   2.917   1.509   2.592  0.4282  0.2316 -0.1522
 1599SOL    HW2 6469   2.854   1.556   2.647  1.4324  0.8407  0.5007
 1599SOL    HW3 6470   2.917   1.419   2.626  0.5861  0.4550  0.4436
 1599SOL    MW4 6471   2.909   1.503   2.603  0.5815  0.3415  0.0129
 1600SOL     OW 6472   2.715   1.650   2.698  0.0491 -0.1287 -0.4731
 1600SOL    HW2 6473   2.712   1.659   2.793  1.1512 -1.0456 -0.3547
 1600SOL    HW3 6474   2.632   1.609   2.675  0.8051 -2.1267  0.3300
 1600SOL    MW4 6475   2.703   1.646   2.707  0.2942 -0.5131 -0.3519
 1601SOL     OW 6476   2.719   1.921   2.592  0.0243  0.1027  0.1933
 1601SOL    HW2 6477   2.719   1.837   2.637  1.1238  1.0480  2.0401
 1601SOL    HW3 6478   2.631   1.956   2.606 -0.2805 -0.5092 -0.1668
 1601SOL    MW4 6479   2.708   1.915   2.600  0.1292  0.1466  0.3893
 1602SOL     OW 6480   2.966   2.062   2.729  0.3888 -0.1085 -0.1494
 1602SOL    HW2 6481   2.946   2.150   2.698 -1.5260  0.3215  2.1599
 1602SOL    HW3 6482   2.895   2.007   2.697  2.2871 -1.1582 -2.7657
 1602SOL    MW4 6483   2.954   2.066   2.721  0.3862 -0.1903 -0.1898
 1603SOL     OW 6484   2.883   2.341   2.587 -0.3099  0.0562 -0.3893
 1603SOL    HW2 6485   2.959   2.377   2.631 -0.9045 -0.7151  1.3308
 1603SOL    HW3 6486   2.808   2.383   2.630 -0.8844 -0.0697 -1.2508
 1603SOL    MW4 6487   2.883   2.351   2.598 -0.4642 -0.0622 -0.2759
 1604SOL     OW 6488   2.655   2.455   2.711  0.0272  0.2246 -0.3815
 1604SOL    HW2 6489   2.671   2.448   2.805  0.7492 -1.1089 -0.5902
 1604SOL    HW3 6490   2.629   2.546   2.697  0.0304  0.4529  1.0892
 1604SOL    MW4 6491   2.654   2.466   2.721  0.1230  0.0787 -0.2148
 1605SOL     OW 6492   2.616   2.711   2.629 -0.1441  0.5029 -0.6277
 1605SOL    HW2 6493   2.703   2.740   2.659 -0.1655  0.2240 -0.2946
 1605SOL    HW3 6494   2.627   2.698   2.535  0.5586 -0.9032 -0.3679
 1605SOL    MW4 6495   2.629   2.713   2.621 -0.0541  0.2806 -0.5493
 1606SOL     OW 6496   2.858   2.840   2.727  0.0861  0.0201  0.1177
 1606SOL    HW2 6497   2.861   2.833   2.822 -3.0501 -1.3487  0.1869
 1606SOL    HW3 6498   2.864   2.934   2.709  1.0656  0.2584  1.6249
 1606SOL    MW4 6499   2.859   2.852   2.737 -0.1986 -0.1287  0.3257
 1607SOL     OW 6500   2.947   3.129   2.702 -0.0009 -0.8081  0.4026
 1607SOL    HW2 6501   2.861   3.171   2.710 -0.0621 -1.1537  1.6957
 1607SOL    HW3 6502   2.955   3.108   2.609 -1.1184 -0.3532  0.1950
 1607SOL    MW4 6503   2.937   3.132   2.691 -0.1564 -0.7939  0.5460
 1608SOL     OW 6504   2.687   3.256   2.711  0.1422  0.3310 -0.5345
 1608SOL    HW2 6505   2.691   3.341   2.668 -0.8273 -0.0104 -1.3118
 1608SOL    HW3 6506   2.609   3.214   2.676 -0.1098 -0.3686  0.8173
 1608SOL    MW4 6507   2.677   3.261   2.701 -0.0188  0.1938 -0.4587
 1609SOL     OW 6508   2.676   3.511   2.644  0.0118 -0.6306  0.1402
 1609SOL    HW2 6509   2.596   3.522   2.695  0.6353  0.8385  0.8254
 1609SOL    HW3 6510   2.646   3.510   2.553 -0.8085 -0.1806  0.3991
 1609SOL    MW4 6511   2.661   3.513   2.639 -0.0143 -0.3774  0.2649
 1610SOL     OW 6512   2.919   3.614   2.717 -0.9469  0.5184  0.3498
 1610SOL    HW2 6513   2.921   3.620   2.813 -0.3345  0.0702  0.3710
 1610SOL    HW3 6514   2.833   3.578   2.697 -0.4002 -1.1116  0.8450
 1610SOL    MW4 6515   2.908   3.610   2.727 -0.7939  0.2441  0.4179
 1611SOL     OW 6516   2.878   3.880   2.640  0.4782 -0.1607 -0.5008
 1611SOL    HW2 6517   2.956   3.923   2.674  0.9061 -0.3619 -1.2120
 1611SOL    HW3 6518   2.882   3.791   2.675 -0.2807  0.2979  0.7744
 1611SOL    MW4 6519   2.889   3.874   2.649  0.4344 -0.1271 -0.4263
 1612SOL     OW 6520   2.647   4.031   2.707  0.1413  0.0411  0.3546
 1612SOL    HW2 6521   2.677   4.120   2.690  0.4310  0.1749  1.4968
 1612SOL    HW3 6522   2.725   3.977   2.694 -0.1279 -0.0906 -0.7142
 1612SOL    MW4 6523   2.661   4.035   2.703  0.1440  0.0410  0.3643
 1613SOL     OW 6524   2.717   4.310   2.638 -0.1436  0.5864  0.4619
 1613SOL    HW2 6525   2.787   4.341   2.696 -0.5728 -2.2407  2.6265
 1613SOL    HW3 6526   2.637   4.336   2.682 -0.4633  0.3393  0.0280
 1613SOL    MW4 6527   2.716   4.317   2.652 -0.2425  0.1807  0.6902
 1614SOL     OW 6528   2.925   4.404   2.773  0.4689 -0.3013  0.0094
 1614SOL    HW2 6529   2.929   4.424   2.867  0.9173 -0.3463 -0.0010
 1614SOL    HW3 6530   2.906   4.489   2.732 -0.8737 -0.4796  0.2286
 1614SOL    MW4 6531   2.923   4.418   2.780  0.3510 -0.3309  0.0370
 1615SOL     OW 6532   3.371   4.655   2.634 -0.2018  0.2833 -0.1904
 1615SOL    HW2 6533   3.368   4.563   2.662  0.2629  0.3481  0.0735
 1615SOL    HW3 6534   3.291   4.693   2.670  0.4192  0.3843  1.1446
 1615SOL    MW4 6535   3.360   4.647   2.643 -0.0584  0.3052  0.0207
 1616SOL     OW 6536   3.137   0.093   2.745 -0.0880  0.0920  0.3123
 1616SOL    HW2 6537   3.133   0.103   2.840 -0.2306  0.7897  0.2365
 1616SOL    HW3 6538   3.149   0.182   2.712  2.1352 -0.3778 -0.2189
 1616SOL    MW4 6539   3.138   0.106   2.753  0.1867  0.1221  0.2322
 1617SOL     OW 6540   3.147   0.363   2.660  0.2108  0.1928  0.3690
 1617SOL    HW2 6541   3.057   0.382   2.689  0.0155 -0.4736  0.2194
 1617SOL    HW3 6542   3.146   0.381   2.566  0.3488  0.5926  0.4435
 1617SOL    MW4 6543   3.135   0.368   2.651  0.2034  0.1576  0.3588
 1618SOL     OW 6544   3.382   0.482   2.720  0.0984  0.0293  0.2188
 1618SOL    HW2 6545   3.375   0.570   2.682 -0.2376  1.0227  2.5116
 1618SOL    HW3 6546   3.302   0.438   2.691  0.4893  0.2904 -1.3438
 1618SOL    MW4 6547   3.370   0.488   2.711  0.1056  0.1948  0.3152
 1619SOL     OW 6548   3.371   0.736   2.597  0.1819 -0.0428 -0.1268
 1619SOL    HW2 6549   3.444   0.791   2.627  0.6716 -1.5518  1.5661
 1619SOL    HW3 6550   3.379   0.735   2.502  0.3591  2.5266 -0.1797
 1619SOL    MW4 6551   3.382   0.743   2.589  0.2699  0.0972  0.0896
 1620SOL     OW 6552   3.148   0.883   2.708 -0.1901  0.2311  0.1419
 1620SOL    HW2 6553   3.153   0.878   2.803  0.6937 -0.0423  0.0799
 1620SOL    HW3 6554   3.218   0.825   2.677  0.1330  1.0544 -0.6739
 1620SOL    MW4 6555   3.158   0.875   2.716 -0.0305  0.3037  0.0260
 1621SOL     OW 6556   3.136   1.161   2.634  0.0873  0.3812 -0.1586
 1621SOL    HW2 6557   3.133   1.071   2.666  0.1828  0.2438 -0.5291
 1621SOL    HW3 6558   3.144   1.152   2.539 -0.9755  0.7721 -0.2989
 1621SOL    MW4 6559   3.137   1.148   2.625 -0.0403  0.4147 -0.2258
 1622SOL     OW 6560   3.359   1.323   2.704 -0.5550  0.2362 -0.1226
 1622SOL    HW2 6561   3.358   1.328   2.800 -0.3630 -0.5820 -0.0732
 1622SOL    HW3 6562   3.287   1.264   2.682 -0.2717  0.0049 -0.4506
 1622SOL    MW4 6563   3.349   1.316   2.714 -0.4923  0.0978 -0.1595
 1623SOL     OW 6564   3.412   1.552   2.561 -0.4705  0.6711 -0.3995
 1623SOL    HW2 6565   3.334   1.596   2.596  0.0324  1.1812  0.0920
 1623SOL    HW3 6566   3.411   1.466   2.604 -1.2606  0.3304 -1.0926
 1623SOL    MW4 6567   3.402   1.546   2.571 -0.5083  0.6933 -0.4263
 1624SOL     OW 6568   3.163   1.629   2.652 -0.6476  0.0859  0.8122
 1624SOL    HW2 6569   3.155   1.722   2.632 -0.7197  0.4620  2.5358
 1624SOL    HW3 6570   3.080   1.591   2.624 -0.0819  0.2627 -1.2288
 1624SOL    MW4 6571   3.151   1.636   2.646 -0.5825  0.1587  0.7703
 1625SOL     OW 6572   3.171   1.921   2.630  0.0409  0.2142 -0.5101
 1625SOL    HW2 6573   3.245   1.954   2.679 -0.7198 -0.7617  1.3653
 1625SOL    HW3 6574   3.096   1.972   2.661 -0.4876 -0.5836 -0.4320
 1625SOL    MW4 6575   3.171   1.932   2.640 -0.1292 -0.0198 -0.2525
 1626SOL     OW 6576   3.383   2.051   2.741 -0.4092 -0.6048 -0.3071
 1626SOL    HW2 6577   3.402   2.057   2.835  0.1410 -0.3334 -0.4397
 1626SOL    HW3 6578   3.352   2.139   2.717 -0.6580 -0.7049 -0.3577
 1626SOL    MW4 6579   3.381   2.063   2.750 -0.3693 -0.5822 -0.3312
 1627SOL     OW 6580   3.324   2.310   2.625 -0.1070  0.1515 -0.1687
 1627SOL    HW2 6581   3.399   2.353   2.665  1.0037  0.0650 -2.0625
 1627SOL    HW3 6582   3.344   2.308   2.531 -1.7427 -1.3071 -0.5392
 1627SOL    MW4 6583   3.336   2.315   2.618 -0.1764 -0.0522 -0.4673
 1628SOL     OW 6584   3.112   2.447   2.741 -0.4602 -0.6022  0.0212
 1628SOL    HW2 6585   3.102   2.538   2.715 -0.3789 -0.8541 -0.8978
 1628SOL    HW3 6586   3.179   2.412   2.682 -2.5483 -2.0206 -1.5968
 1628SOL    MW4 6587   3.119   2.454   2.730 -0.7253 -0.8225 -0.3140
 1629SOL     OW 6588   3.106   2.732   2.628  0.3206 -0.5681  0.3508
 1629SOL    HW2 6589   3.178   2.767   2.681  0.1344 -1.0025  0.8949
 1629SOL    HW3 6590   3.028   2.778   2.659  0.2409 -0.6677  0.2990
 1629SOL    MW4 6591   3.105   2.743   2.639  0.2856 -0.6385  0.4160
 1630SOL     OW 6592   3.341   2.871   2.732 -0.1154 -0.5500  0.1814
 1630SOL    HW2 6593   3.355   2.859   2.826  0.5594 -0.5438  0.0817
 1630SOL    HW3 6594   3.410   2.819   2.690 -0.3586 -0.4794 -0.3082
 1630SOL    MW4 6595   3.352   2.863   2.739 -0.0587 -0.5400  0.1037
 1631SOL     OW 6596   3.386   3.134   2.657  0.2055 -0.6351 -0.0209
 1631SOL    HW2 6597   3.361   3.052   2.699 -2.2083  1.2674  2.4739
 1631SOL    HW3 6598   3.371   3.119   2.564 -0.4774 -2.8986  0.4246
 1631SOL    MW4 6599   3.381   3.121   2.650 -0.2029 -0.6826  0.3672
 1632SOL     OW 6600   3.179   3.279   2.759  0.5248  0.4546 -0.0294
 1632SOL    HW2 6601   3.247   3.225   2.719  0.4663 -0.3242  0.8778
 1632SOL    HW3 6602   3.097   3.238   2.732  0.4990 -0.4930  1.4139
 1632SOL    MW4 6603   3.177   3.266   2.750  0.5140  0.2270  0.2809
 1633SOL     OW 6604   3.165   3.516   2.628  0.1089  0.1857  0.3856
 1633SOL    HW2 6605   3.151   3.440   2.685 -0.0337  1.2740  1.8352
 1633SOL    HW3 6606   3.087   3.570   2.641  0.6043  0.9893  0.0247
 1633SOL    MW4 6607   3.153   3.513   2.637  0.1552  0.4351  0.5295
 1634SOL     OW 6608   3.377   3.641   2.762 -0.3087 -0.5953  0.2646
 1634SOL    HW2 6609   3.347   3.649   2.852  0.1036 -0.7235  0.4150
 1634SOL    HW3 6610   3.304   3.600   2.715 -0.9347  0.4548  0.3116
 1634SOL    MW4 6611   3.363   3.636   2.768 -0.3369 -0.4735  0.2906
 1635SOL     OW 6612   3.342   3.901   2.632  0.1116  0.1315  0.1867
 1635SOL    HW2 6613   3.358   3.809   2.651  1.3692  0.3885  0.4667
 1635SOL    HW3 6614   3.357   3.909   2.538  0.4200  0.1249  0.2340
 1635SOL    MW4 6615   3.346   3.890   2.622  0.3183  0.1647  0.2296
 1636SOL     OW 6616   3.107   4.001   2.743  0.9260  0.3687  0.0922
 1636SOL    HW2 6617   3.106   4.093   2.717 -0.9869 -0.1135 -1.5839
 1636SOL    HW3 6618   3.189   3.967   2.706  0.2282  0.6882 -1.7962
 1636SOL    MW4 6619   3.118   4.009   2.735  0.5817  0.3471 -0.3781
 1637SOL     OW 6620   3.138   4.269   2.645  0.4451  0.2470 -0.5885
 1637SOL    HW2 6621   3.074   4.332   2.679  0.8137  0.2458  0.1186
 1637SOL    HW3 6622   3.136   4.281   2.551 -0.4656  0.3862 -0.5564
 1637SOL    MW4 6623   3.129   4.279   2.637  0.3736  0.2651 -0.4911
 1638SOL     OW 6624   3.374   4.405   2.724  0.3111  0.7981  0.2512
 1638SOL    HW2 6625   3.359   4.413   2.818 -0.1393 -0.1846  0.2707
 1638SOL    HW3 6626   3.299   4.354   2.692  1.3550 -0.3795 -0.3605
 1638SOL    MW4 6627   3.362   4.400   2.732  0.3893  0.5131  0.1731
 1639SOL     OW 6628   3.814   4.635   2.657  0.6452  0.1709 -0.4528
 1639SOL    HW2 6629   3.823   4.549   2.700 -1.2732  0.3578  0.3554
 1639SOL    HW3 6630   3.754   4.684   2.713 -0.8444  0.9025 -2.6302
 1639SOL    MW4 6631   3.808   4.630   2.670  0.1953  0.2923 -0.6332
 1640SOL     OW 6632   3.584   0.121   2.741 -0.5065  0.3358 -0.0405
 1640SOL    HW2 6633   3.589   0.209   2.705 -1.0805 -0.0114 -1.0037
 1640SOL    HW3 6634   3.508   0.082   2.699 -0.8161 -0.3047  1.0952
 1640SOL    MW4 6635   3.575   0.127   2.731 -0.6232  0.2055 -0.0181
 1641SOL     OW 6636   3.628   0.381   2.644  0.4163  0.0036  0.1918
 1641SOL    HW2 6637   3.696   0.416   2.701  1.0078 -0.2786 -0.3368
 1641SOL    HW3 6638   3.550   0.431   2.667  0.4697 -0.6260  1.7758
 1641SOL    MW4 6639   3.627   0.392   2.654  0.5012 -0.1167  0.3309
 1642SOL     OW 6640   3.833   0.530   2.770  0.2494  0.2541 -0.3578
 1642SOL    HW2 6641   3.849   0.508   2.862 -1.6640  0.5769  0.0682
 1642SOL    HW3 6642   3.912   0.500   2.724  0.0582 -2.4971  0.9876
 1642SOL    MW4 6643   3.845   0.523   2.776 -0.0284 -0.0663 -0.1237
 1643SOL     OW 6644   3.814   0.770   2.636  0.4809 -0.1221 -0.0224
 1643SOL    HW2 6645   3.734   0.823   2.640  0.2391 -0.4863 -0.0162
 1643SOL    HW3 6646   3.803   0.706   2.706  0.2476 -0.9165 -0.7772
 1643SOL    MW4 6647   3.802   0.769   2.646  0.4182 -0.2750 -0.1214
 1644SOL     OW 6648   3.585   0.925   2.682  0.3921 -0.3316  0.6919
 1644SOL    HW2 6649   3.585   0.928   2.777 -0.1459 -0.0481  0.6815
 1644SOL    HW3 6650   3.565   1.014   2.654  0.4417 -0.4355  0.3123
 1644SOL    MW4 6651   3.583   0.937   2.691  0.3276 -0.3079  0.6404
 1645SOL     OW 6652   3.570   1.180   2.588 -0.0660 -0.0161 -0.5116
 1645SOL    HW2 6653   3.647   1.217   2.631  0.0201 -1.2403  0.4073
 1645SOL    HW3 6654   3.496   1.217   2.636  0.0023 -0.4639 -0.0593
 1645SOL    MW4 6655   3.570   1.189   2.600 -0.0458 -0.2367 -0.3307
 1646SOL     OW 6656   3.790   1.291   2.728 -0.3149  0.0409  0.5014
 1646SOL    HW2 6657   3.851   1.235   2.681  1.3819  1.6745  0.7024
 1646SOL    HW3 6658   3.804   1.379   2.692 -0.9672  0.8236  2.0739
 1646SOL    MW4 6659   3.800   1.296   2.717 -0.1774  0.3598  0.7353
 1647SOL     OW 6660   3.806   1.535   2.622 -0.1052 -0.0255  0.3281
 1647SOL    HW2 6661   3.883   1.566   2.670  0.4586 -1.9895  0.7539
 1647SOL    HW3 6662   3.734   1.586   2.658  0.7110  0.3950  1.4129
 1647SOL    MW4 6663   3.807   1.545   2.633  0.0770 -0.2291  0.5271
 1648SOL     OW 6664   3.586   1.680   2.732  0.3309 -0.5563 -0.1107
 1648SOL    HW2 6665   3.599   1.764   2.689  1.2142 -0.6752 -0.0767
 1648SOL    HW3 6666   3.520   1.636   2.677 -1.2579  0.7341  0.7188
 1648SOL    MW4 6667   3.579   1.685   2.719  0.2379 -0.4019  0.0033
 1649SOL     OW 6668   3.601   1.938   2.629 -0.0384 -0.1154  0.0375
 1649SOL    HW2 6669   3.524   1.972   2.674  0.0882  0.5586 -0.2484
 1649SOL    HW3 6670   3.583   1.952   2.536  0.4032 -0.0140 -0.0337
 1649SOL    MW4 6671   3.589   1.944   2.622  0.0365 -0.0131 -0.0098
 1650SOL     OW 6672   3.810   2.072   2.765  0.0524  0.3594  0.0750
 1650SOL    HW2 6673   3.887   2.039   2.719  0.1324 -1.1106  1.2199
 1650SOL    HW3 6674   3.736   2.027   2.724 -0.2872  2.2797 -1.4821
 1650SOL    MW4 6675   3.811   2.061   2.754  0.0181  0.4187  0.0203
 1651SOL     OW 6676   3.770   2.313   2.637  0.2201  0.1474  0.1186
 1651SOL    HW2 6677   3.803   2.244   2.694  0.0039 -0.6224 -0.6909
 1651SOL    HW3 6678   3.790   2.284   2.548 -1.5195  0.2290 -0.3324
 1651SOL    MW4 6679   3.777   2.300   2.633 -0.0381  0.0563 -0.0479
 1652SOL     OW 6680   3.539   2.468   2.715 -0.2797 -0.0823 -0.0010
 1652SOL    HW2 6681   3.528   2.466   2.810  1.9865  1.4550  0.3224
 1652SOL    HW3 6682   3.623   2.426   2.699 -0.1012  0.7127 -1.2315
 1652SOL    MW4 6683   3.549   2.462   2.726  0.0429  0.2255 -0.1206
 1653SOL     OW 6684   3.542   2.721   2.613 -0.1662  0.4851 -0.2232
 1653SOL    HW2 6685   3.543   2.631   2.645 -1.5114  0.4780 -0.1987
 1653SOL    HW3 6686   3.549   2.713   2.518 -2.4107  0.2700 -0.3771
 1653SOL    MW4 6687   3.543   2.708   2.605 -0.6399  0.4559 -0.2403
 1654SOL     OW 6688   3.798   2.868   2.746 -0.1121  0.2748 -0.4247
 1654SOL    HW2 6689   3.877   2.841   2.699  1.0783  1.0177  1.1394
 1654SOL    HW3 6690   3.729   2.812   2.710  1.4402 -1.5929 -0.5761
 1654SOL    MW4 6691   3.799   2.857   2.735  0.2496  0.1264 -0.2384
 1655SOL     OW 6692   3.798   3.104   2.631 -0.1403  0.2517  0.3313
 1655SOL    HW2 6693   3.731   3.160   2.671 -0.8947  0.8211 -1.6781
 1655SOL    HW3 6694   3.791   3.022   2.679 -1.1813  0.8404  1.2315
 1655SOL    MW4 6695   3.788   3.101   2.643 -0.3769  0.4044  0.1850
 1656SOL     OW 6696   3.608   3.233   2.763  0.3712  0.4205 -0.5228
 1656SOL    HW2 6697   3.611   3.327   2.744 -0.5585  0.3999 -0.7829
 1656SOL    HW3 6698   3.524   3.204   2.726  0.8167 -0.5787 -0.7501
 1656SOL    MW4 6699   3.597   3.242   2.756  0.3078  0.2861 -0.5870
 1657SOL     OW 6700   3.617   3.509   2.673  0.5291  0.1130 -0.3688
 1657SOL    HW2 6701   3.686   3.571   2.695  0.6356 -0.2369  0.2782
 1657SOL    HW3 6702   3.538   3.544   2.715  0.3655  0.3727 -0.8881
 1657SOL    MW4 6703   3.615   3.522   2.681  0.5217  0.1011 -0.3521
 1658SOL     OW 6704   3.818   3.657   2.773  0.2719  0.5066  0.2464
 1658SOL    HW2 6705   3.880   3.617   2.712 -1.1183 -1.1978 -0.1041
 1658SOL    HW3 6706   3.799   3.743   2.735  2.1795  0.9323  0.2188
 1658SOL    MW4 6707   3.824   3.663   2.760  0.3402  0.3376  0.1969
 1659SOL     OW 6708   3.804   3.917   2.675 -0.4056 -0.3371 -0.0722
 1659SOL    HW2 6709   3.878   3.967   2.710  0.0972 -1.9417  1.2074
 1659SOL    HW3 6710   3.727   3.961   2.713 -0.0917  0.8071 -0.7240
 1659SOL    MW4 6711   3.803   3.930   2.685 -0.2980 -0.3979  0.0107
 1660SOL     OW 6712   3.562   4.052   2.749  0.1844  0.6107  0.1091
 1660SOL    HW2 6713   3.566   4.138   2.707  2.0137  0.1042 -0.8186
 1660SOL    HW3 6714   3.489   4.008   2.707 -0.1730  1.3773 -0.0806
 1660SOL    MW4 6715   3.553   4.058   2.738  0.3784  0.6447 -0.0386
 1661SOL     OW 6716   3.625   4.296   2.654 -0.1253  0.0295  0.2471
 1661SOL    HW2 6717   3.546   4.345   2.678  0.5442  0.9443  0.6283
 1661SOL    HW3 6718   3.623   4.292   2.559 -1.0082 -0.5945  0.2862
 1661SOL    MW4 6719   3.615   4.302   2.645 -0.1538  0.0672  0.3026
 1662SOL     OW 6720   3.844   4.393   2.790 -0.1093 -0.1268 -0.5934
 1662SOL    HW2 6721   3.915   4.347   2.745 -0.5431  1.8875 -3.4658
 1662SOL    HW3 6722   3.765   4.364   2.747 -1.0794 -1.9912  2.2869
 1662SOL    MW4 6723   3.843   4.383   2.779 -0.2944 -0.1073 -0.5922
 1663SOL     OW 6724   4.282   4.649   2.652  0.0139 -0.3461  0.3474
 1663SOL    HW2 6725   4.201   4.695   2.673 -0.4191 -1.6694  1.6703
 1663SOL    HW3 6726   4.350   4.700   2.696 -0.4975 -1.0766  2.0397
 1663SOL    MW4 6727   4.281   4.662   2.661 -0.1111 -0.6170  0.7451
 1664SOL     OW 6728   4.058   0.125   2.747  0.0503 -0.3914  0.0850
 1664SOL    HW2 6729   4.037   0.142   2.839  0.0468 -0.1907  0.0487
 1664SOL    HW3 6730   3.988   0.068   2.716 -0.4461  0.2807 -0.0373
 1664SOL    MW4 6731   4.046   0.120   2.755 -0.0157 -0.2763  0.0641
 1665SOL     OW 6732   4.052   0.390   2.651 -0.1572 -0.0438  0.3811
 1665SOL    HW2 6733   4.060   0.297   2.672  1.1432  0.4524  2.1940
 1665SOL    HW3 6734   4.058   0.393   2.555 -1.4547 -1.9175  0.2036
 1665SOL    MW4 6735   4.054   0.378   2.641 -0.1569 -0.2255  0.5968
 1666SOL     OW 6736   4.298   0.500   2.783 -0.2918 -0.0503  0.2304
 1666SOL    HW2 6737   4.209   0.469   2.764 -0.2807 -0.4920  0.8806
 1666SOL    HW3 6738   4.355   0.439   2.736 -0.2866 -0.7396  1.1166
 1666SOL    MW4 6739   4.294   0.488   2.774 -0.2894 -0.1995  0.4330
 1667SOL     OW 6740   4.269   0.745   2.698 -0.0679  0.0083 -0.0699
 1667SOL    HW2 6741   4.278   0.652   2.720  0.8316  0.1496  0.2157
 1667SOL    HW3 6742   4.256   0.746   2.603  0.1311 -0.4080 -0.1065
 1667SOL    MW4 6743   4.269   0.733   2.688  0.0772 -0.0280 -0.0370
 1668SOL     OW 6744   4.054   0.912   2.725 -0.2944 -0.6587  0.0422
 1668SOL    HW2 6745   4.125   0.849   2.713 -0.5067 -0.6808 -1.1569
 1668SOL    HW3 6746   3.974   0.861   2.714 -0.4974 -0.5241  0.8530
 1668SOL    MW4 6747   4.053   0.897   2.722 -0.3490 -0.6439 -0.0091
 1669SOL     OW 6748   4.014   1.160   2.601 -0.4218  0.0240 -0.2103
 1669SOL    HW2 6749   4.079   1.209   2.652 -1.0746  1.4138 -0.6747
 1669SOL    HW3 6750   4.029   1.069   2.624 -0.6734  0.6024  2.4921
 1669SOL    MW4 6751   4.025   1.155   2.611 -0.5412  0.2836  0.0851
 1670SOL     OW 6752   4.225   1.294   2.785 -0.0179  0.2965  0.4176
 1670SOL    HW2 6753   4.245   1.373   2.735 -0.7271  0.3718  0.2547
 1670SOL    HW3 6754   4.288   1.229   2.753 -1.4296 -0.0860 -1.6739
 1670SOL    MW4 6755   4.236   1.296   2.774 -0.2980  0.2561  0.1199
 1671SOL     OW 6756   4.287   1.513   2.634 -0.2350  0.4684 -0.0055
 1671SOL    HW2 6757   4.353   1.575   2.666 -0.5033  0.4982  0.5093
 1671SOL    HW3 6758   4.286   1.525   2.539  0.3870  0.5802  0.0035
 1671SOL    MW4 6759   4.295   1.523   2.626 -0.1884  0.4871  0.0637
 1672SOL     OW 6760   4.066   1.669   2.704 -0.2173 -0.3384 -0.2670
 1672SOL    HW2 6761   4.072   1.659   2.799 -0.3891 -0.1137 -0.2298
 1672SOL    HW3 6762   4.123   1.601   2.669  0.1113 -0.2086  0.0029
 1672SOL    MW4 6763   4.074   1.659   2.712 -0.1965 -0.2916 -0.2265
 1673SOL     OW 6764   4.020   1.929   2.645  0.2471 -0.3556  0.3805
 1673SOL    HW2 6765   4.094   1.976   2.683 -0.9538  1.9189  0.0154
 1673SOL    HW3 6766   4.031   1.838   2.674  1.4164  0.5740  2.9750
 1673SOL    MW4 6767   4.031   1.923   2.654  0.2427  0.0672  0.6747
 1674SOL     OW 6768   4.233   2.064   2.786 -0.1038 -0.2537  0.2955
 1674SOL    HW2 6769   4.227   2.144   2.735  1.0473 -0.8887 -0.8370
 1674SOL    HW3 6770   4.306   2.015   2.748 -2.2058 -2.9010 -0.5222
 1674SOL    MW4 6771   4.242   2.068   2.775 -0.2298 -0.6866  0.0381
 1675SOL     OW 6772   4.272   2.299   2.660 -0.0871 -0.5936 -0.3637
 1675SOL    HW2 6773   4.189   2.340   2.681  0.6648  0.9205 -0.2890
 1675SOL    HW3 6774   4.277   2.301   2.564  0.4268  0.4520 -0.3154
 1675SOL    MW4 6775   4.262   2.305   2.650  0.0801 -0.2558 -0.3471
 1676SOL     OW 6776   4.019   2.425   2.696  0.2766  0.7989 -0.0542
 1676SOL    HW2 6777   4.018   2.443   2.790 -1.4694  1.8652 -0.2380
 1676SOL    HW3 6778   3.931   2.393   2.677  1.2881 -1.5337 -0.9718
 1676SOL    MW4 6779   4.007   2.423   2.706  0.1798  0.6318 -0.1998
 1677SOL     OW 6780   4.032   2.721   2.650  0.0844  0.0789  0.2067
 1677SOL    HW2 6781   4.115   2.757   2.683  1.0146 -0.2510 -1.6824
 1677SOL    HW3 6782   4.037   2.627   2.670  0.4755 -0.0575 -0.5399
 1677SOL    MW4 6783   4.044   2.713   2.657  0.2589  0.0174 -0.1411
 1678SOL     OW 6784   4.270   2.827   2.754 -0.2874 -0.2101  0.1077
 1678SOL    HW2 6785   4.287   2.839   2.848  2.3747  0.2718 -0.4048
 1678SOL    HW3 6786   4.265   2.916   2.720  3.1165 -0.3494 -0.9137
 1678SOL    MW4 6787   4.271   2.841   2.762  0.5136 -0.1647 -0.0944
 1679SOL     OW 6788   4.266   3.082   2.645  0.2326 -0.1041  0.6871
 1679SOL    HW2 6789   4.203   3.149   2.672  0.8373  0.1639  1.4780
 1679SOL    HW3 6790   4.265   3.085   2.550 -2.5367 -1.6243  0.6396
 1679SOL    MW4 6791   4.258   3.092   2.636 -0.0525 -0.2694  0.7854
 1680SOL     OW 6792   4.032   3.263   2.703 -0.6842 -0.1066 -0.3489
 1680SOL    HW2 6793   4.010   3.344   2.656 -0.5851 -1.1349 -2.2296
 1680SOL    HW3 6794   3.956   3.207   2.690 -1.5467  0.3485  2.5492
 1680SOL    MW4 6795   4.019   3.266   2.695 -0.7849 -0.1826 -0.2146
 1681SOL     OW 6796   4.001   3.531   2.608 -0.4629 -0.1133  0.4137
 1681SOL    HW2 6797   4.085   3.556   2.648  0.6698 -2.8080 -0.2017
 1681SOL    HW3 6798   4.019   3.527   2.515 -1.4925 -0.0078  0.2050
 1681SOL    MW4 6799   4.015   3.534   2.601 -0.4497 -0.4554  0.3052
 1682SOL     OW 6800   4.239   3.610   2.715 -0.5505  0.0594  0.3258
 1682SOL    HW2 6801   4.225   3.628   2.808 -0.4876  0.3668  0.2779
 1682SOL    HW3 6802   4.307   3.542   2.714 -0.6556 -0.0502  0.5072
 1682SOL    MW4 6803   4.246   3.603   2.727 -0.5560  0.0851  0.3433
 1683SOL     OW 6804   4.278   3.871   2.644 -0.3140  0.0051  0.3069
 1683SOL    HW2 6805   4.262   3.779   2.667  0.1757 -0.2180 -0.2463
 1683SOL    HW3 6806   4.360   3.893   2.688  0.0304 -0.0843 -0.2899
 1683SOL    MW4 6807   4.286   3.862   2.653 -0.2041 -0.0360  0.1552
 1684SOL     OW 6808   4.070   4.023   2.753 -0.2420  0.2556 -0.2114
 1684SOL    HW2 6809   4.073   4.005   2.847  0.2400  1.2666 -0.0225
 1684SOL    HW3 6810   4.146   3.977   2.717 -0.3453 -0.0112 -0.0944
 1684SOL    MW4 6811   4.080   4.014   2.760 -0.1922  0.3538 -0.1712
 1685SOL     OW 6812   4.032   4.293   2.638 -0.2485  0.4917  0.2637
 1685SOL    HW2 6813   4.022   4.206   2.678 -1.3192  0.3320 -0.3262
 1685SOL    HW3 6814   4.010   4.280   2.546  1.3712  1.0355 -0.2157
 1685SOL    MW4 6815   4.028   4.280   2.631 -0.1755  0.5426  0.1225
 1686SOL     OW 6816   4.277   4.376   2.748 -0.1179  0.4631  0.2387
 1686SOL    HW2 6817   4.202   4.335   2.705  0.4472 -0.0842 -0.2270
 1686SOL    HW3 6818   4.268   4.470   2.728 -0.5478  0.3710 -0.0084
 1686SOL    MW4 6819   4.265   4.383   2.740 -0.1001  0.3781  0.1445
 1687SOL     OW 6820   0.255   4.663   3.135 -0.2022 -0.5266 -0.2741
 1687SOL    HW2 6821   0.252   4.655   3.230  0.9009  0.1507 -0.1761
 1687SOL    HW3 6822   0.171   4.702   3.111 -0.7868 -1.3947  0.3436
 1687SOL    MW4 6823   0.244   4.667   3.144 -0.1338 -0.5517 -0.1798
 1688SOL     OW 6824   0.006   0.114   3.051  0.0162  0.0590  0.0439
 1688SOL    HW2 6825  -0.068   0.058   3.076  1.6209 -2.1649 -0.1235
 1688SOL    HW3 6826  -0.004   0.192   3.107 -2.0502 -0.5187  0.5237
 1688SOL    MW4 6827  -0.005   0.117   3.062 -0.0447 -0.3106  0.0851
 1689SOL     OW 6828   0.026   0.357   3.184  0.0468 -0.0946 -0.2342
 1689SOL    HW2 6829   0.007   0.375   3.276  1.6051 -0.5214  0.1932
 1689SOL    HW3 6830  -0.041   0.406   3.135  0.7627  2.2811  1.0599
 1689SOL    MW4 6831   0.015   0.366   3.190  0.3471  0.1625 -0.0072
 1690SOL     OW 6832   0.215   0.495   3.024 -0.5415  0.2471 -0.4754
 1690SOL    HW2 6833   0.303   0.472   3.055 -0.3686  0.9851 -0.4200
 1690SOL    HW3 6834   0.157   0.441   3.077 -0.1962  0.7945  0.4724
 1690SOL    MW4 6835   0.219   0.485   3.035 -0.4732  0.4167 -0.3431
 1691SOL     OW 6836   0.197   0.778   3.118  0.6062  0.0938 -0.2225
 1691SOL    HW2 6837   0.208   0.776   3.213  1.5512 -0.2909 -0.3331
 1691SOL    HW3 6838   0.193   0.686   3.092  0.9507  0.1874 -0.6175
 1691SOL    MW4 6839   0.198   0.765   3.127  0.7764  0.0553 -0.2892
 1692SOL     OW 6840   4.470   0.922   3.036  0.3375  0.0484  0.1777
 1692SOL    HW2 6841   4.540   0.868   3.074  0.9122  0.1622 -0.7149
 1692SOL    HW3 6842   4.489   0.924   2.943 -1.2664 -0.5086 -0.1842
 1692SOL    MW4 6843   4.482   0.915   3.029  0.2017 -0.0101  0.0124
 1693SOL     OW 6844   0.014   1.185   3.100 -0.0546 -0.3631 -0.2215
 1693SOL    HW2 6845  -0.071   1.224   3.080  0.4974 -0.1120 -2.1709
 1693SOL    HW3 6846   0.005   1.093   3.077  0.2730 -0.2833 -0.6840
 1693SOL    MW4 6847   0.002   1.178   3.095  0.0620 -0.3195 -0.5398
 1694SOL     OW 6848   0.240   1.307   3.005 -0.0635 -0.0096 -0.2858
 1694SOL    HW2 6849   0.158   1.260   3.017 -0.2954  0.3538 -0.4309
 1694SOL    HW3 6850   0.247   1.319   2.910  0.5121 -0.6703 -0.3256
 1694SOL    MW4 6851   0.230   1.303   2.994 -0.0181 -0.0489 -0.3102
 1695SOL     OW 6852   0.271   1.562   3.112 -0.0139  0.1418  0.1305
 1695SOL    HW2 6853   0.187   1.607   3.099  0.0142  0.2507  0.3225
 1695SOL    HW3 6854   0.251   1.470   3.099 -0.3133  0.0972  0.8922
 1695SOL    MW4 6855   0.257   1.556   3.109 -0.0497  0.1502  0.2565
 1696SOL     OW 6856   0.002   1.689   3.020 -0.2536 -0.2153 -0.2632
 1696SOL    HW2 6857  -0.067   1.639   3.064 -0.7990 -0.8245 -1.7912
 1696SOL    HW3 6858   0.004   1.773   3.067 -0.4038 -1.0713  1.3070
 1696SOL    MW4 6859  -0.007   1.694   3.032 -0.3454 -0.4084 -0.2575
 1697SOL     OW 6860   0.024   1.936   3.145 -0.0495  0.0242  0.4414
 1697SOL    HW2 6861  -0.053   1.985   3.115  0.6695 -0.3121 -2.0518
 1697SOL    HW3 6862   0.098   1.979   3.102  0.9318 -1.0457  1.0512
 1697SOL    MW4 6863   0.024   1.948   3.135  0.1748 -0.1613  0.1926
 1698SOL     OW 6864   0.241   2.095   3.013 -0.0572  0.0557 -0.2525
 1698SOL    HW2 6865   0.218   2.186   3.032  1.0726  0.2793  0.0370
 1698SOL    HW3 6866   0.220   2.084   2.920 -0.4482  0.5223 -0.2223
 1698SOL    MW4 6867   0.235   2.105   3.003  0.0403  0.1466 -0.2100
 1699SOL     OW 6868   0.215   2.348   3.105 -0.0142 -0.4698  0.8779
 1699SOL    HW2 6869   0.211   2.323   3.197  0.4690 -0.6908  0.8385
 1699SOL    HW3 6870   0.299   2.392   3.095  0.9601 -2.4361  0.0475
 1699SOL    MW4 6871   0.226   2.350   3.116  0.1781 -0.7586  0.7632
 1700SOL     OW 6872   4.445   2.466   3.035  0.4431  0.0912  0.1563
 1700SOL    HW2 6873   4.436   2.559   3.059  0.2743  0.3464 -0.8627
 1700SOL    HW3 6874   4.537   2.446   3.052  0.4772  0.4384  0.4023
 1700SOL    MW4 6875   4.456   2.476   3.041  0.4253  0.1705  0.0544
 1701SOL     OW 6876   0.001   2.707   3.145 -0.2334 -0.0710 -0.0829
 1701SOL    HW2 6877  -0.001   2.731   3.237 -0.6012  1.0493 -0.3789
 1701SOL    HW3 6878   0.085   2.739   3.113  0.3565 -1.3940  0.1029
 1701SOL    MW4 6879   0.012   2.714   3.153 -0.2046 -0.0978 -0.0973
 1702SOL     OW 6880   0.220   2.812   3.018 -0.0403  0.4610 -0.1272
 1702SOL    HW2 6881   0.296   2.767   3.054  0.3326  0.0643 -1.3965
 1702SOL    HW3 6882   0.230   2.805   2.923 -0.0580  3.0362 -0.3682
 1702SOL    MW4 6883   0.231   2.805   3.010  0.0066  0.7482 -0.3264
 1703SOL     OW 6884   0.205   3.083   3.084 -0.1283 -0.0498  0.1678
 1703SOL    HW2 6885   0.128   3.128   3.049  0.6576  0.5512 -0.8118
 1703SOL    HW3 6886   0.194   2.992   3.056 -1.8622 -0.5653  2.3967
 1703SOL    MW4 6887   0.193   3.077   3.076 -0.2534 -0.0389  0.3328
 1704SOL     OW 6888   4.468   3.257   3.031 -0.1086 -0.4132  0.1051
 1704SOL    HW2 6889   4.376   3.238   3.051 -0.8953  2.9249 -0.0006
 1704SOL    HW3 6890   4.478   3.238   2.938 -1.2432  1.0624 -0.3335
 1704SOL    MW4 6891   4.457   3.252   3.022 -0.3619  0.2220  0.0334
 1705SOL     OW 6892   4.480   3.528   3.131 -0.4686  0.0401 -0.2887
 1705SOL    HW2 6893   4.419   3.585   3.085 -0.5286 -0.2692 -0.5915
 1705SOL    HW3 6894   4.468   3.442   3.091  0.3120  0.0186 -0.4872
 1705SOL    MW4 6895   4.471   3.524   3.120 -0.3736 -0.0036 -0.3550
 1706SOL     OW 6896   0.229   3.628   3.061 -0.2642 -0.2170 -0.0244
 1706SOL    HW2 6897   0.220   3.720   3.089 -1.4492  0.2501 -1.8207
 1706SOL    HW3 6898   0.151   3.585   3.095 -0.4388 -0.2179 -0.4184
 1706SOL    MW4 6899   0.218   3.635   3.069 -0.4436 -0.1557 -0.3135
 1707SOL     OW 6900   0.204   3.888   3.121  0.3330  0.0738  0.3699
 1707SOL    HW2 6901   0.188   3.893   3.215 -0.1243  0.8450  0.2566
 1707SOL    HW3 6902   0.283   3.941   3.107 -0.6746  1.5486  0.0784
 1707SOL    MW4 6903   0.212   3.896   3.132  0.1397  0.3703  0.3164
 1708SOL     OW 6904   4.482   4.003   3.021 -0.2525  0.2846  0.4278
 1708SOL    HW2 6905   4.555   3.949   3.051  0.1794 -0.0191 -1.1056
 1708SOL    HW3 6906   4.486   3.997   2.926 -2.6546 -0.2635  0.3271
 1708SOL    MW4 6907   4.492   3.995   3.012 -0.5124  0.1724  0.2124
 1709SOL     OW 6908   0.039   4.250   3.112 -0.1439  0.1475 -0.0386
 1709SOL    HW2 6909   0.027   4.252   3.207  0.4875 -0.9981  0.0717
 1709SOL    HW3 6910   0.037   4.157   3.090  0.2502  0.3824 -1.0826
 1709SOL    MW4 6911   0.037   4.238   3.122 -0.0086  0.0272 -0.1619
 1710SOL     OW 6912   0.249   4.394   3.030 -0.0286  0.0590 -0.3503
 1710SOL    HW2 6913   0.177   4.348   3.072 -0.1770 -0.1142 -0.7927
 1710SOL    HW3 6914   0.254   4.478   3.076  1.1097 -0.9157  1.3522
 1710SOL    MW4 6915   0.241   4.399   3.041  0.1020 -0.0930 -0.1841
 1711SOL     OW 6916   0.680   0.024   3.172 -0.1234  0.3309  0.5955
 1711SOL    HW2 6917   0.686  -0.062   3.131 -0.9337  1.1129 -1.2100
 1711SOL    HW3 6918   0.607   0.066   3.127  1.9680  2.9724 -0.4225
 1711SOL    MW4 6919   0.671   0.018   3.161  0.0456  0.7825  0.2229
 1712SOL     OW 6920   0.466   0.123   3.010 -0.1451 -0.1560  0.1723
 1712SOL    HW2 6921   0.447   0.211   3.043 -1.0884 -0.3705  0.2056
 1712SOL    HW3 6922   0.406   0.066   3.058  0.5184 -0.8269  0.2008
 1712SOL    MW4 6923   0.456   0.127   3.021 -0.1820 -0.2728  0.1807
 1713SOL     OW 6924   0.461   0.381   3.116 -0.1926  0.2228 -0.4406
 1713SOL    HW2 6925   0.473   0.355   3.207 -0.1969  1.6292 -0.0368
 1713SOL    HW3 6926   0.539   0.431   3.093 -1.0495  1.5235 -0.6070
 1713SOL    MW4 6927   0.473   0.384   3.125 -0.3063  0.5800 -0.4091
 1714SOL     OW 6928   0.696   0.538   3.023  0.3460 -0.3671  0.0192
 1714SOL    HW2 6929   0.776   0.500   3.060  0.5304 -0.4326 -0.4503
 1714SOL    HW3 6930   0.695   0.628   3.056  0.3294 -0.5265  0.4651
 1714SOL    MW4 6931   0.706   0.545   3.032  0.3682 -0.3968  0.0162
 1715SOL     OW 6932   0.665   0.805   3.113  0.1586  0.0799  0.2924
 1715SOL    HW2 6933   0.662   0.784   3.206  0.7309  0.1372  0.3245
 1715SOL    HW3 6934   0.583   0.852   3.097 -0.0689 -0.1678  0.7058
 1715SOL    MW4 6935   0.654   0.809   3.123  0.2040  0.0548  0.3514
 1716SOL     OW 6936   0.414   0.921   3.050  0.4193 -0.1528 -0.3011
 1716SOL    HW2 6937   0.339   0.869   3.077  0.9245 -0.6818  0.0961
 1716SOL    HW3 6938   0.400   0.937   2.957 -0.6666  0.5730 -0.0250
 1716SOL    MW4 6939   0.402   0.917   3.041  0.3427 -0.1269 -0.2122
 1717SOL     OW 6940   0.450   1.177   3.133 -0.1166 -0.6623  0.2059
 1717SOL    HW2 6941   0.441   1.085   3.110  0.1847 -0.6387 -0.0112
 1717SOL    HW3 6942   0.373   1.219   3.095  0.5101 -0.5819 -1.0039
 1717SOL    MW4 6943   0.439   1.171   3.125  0.0059 -0.6485  0.0174
 1718SOL     OW 6944   0.663   1.304   3.023 -0.1252 -0.2563  0.2200
 1718SOL    HW2 6945   0.741   1.255   3.050 -0.2165 -0.2131  0.5547
 1718SOL    HW3 6946   0.590   1.255   3.060 -0.3227 -0.8893 -0.9749
 1718SOL    MW4 6947   0.664   1.291   3.031 -0.1633 -0.3340  0.1063
 1719SOL     OW 6948   0.698   1.573   3.114 -0.1729  0.0814  0.0078
 1719SOL    HW2 6949   0.693   1.563   3.210 -0.5774 -1.4130 -0.1505
 1719SOL    HW3 6950   0.688   1.484   3.081  1.0889  0.4397 -1.3947
 1719SOL    MW4 6951   0.696   1.560   3.123 -0.0597 -0.0685 -0.1981
 1720SOL     OW 6952   0.467   1.701   2.996 -0.0016 -0.0449  0.5216
 1720SOL    HW2 6953   0.550   1.665   3.029  0.3336 -0.1947 -0.4886
 1720SOL    HW3 6954   0.399   1.649   3.039  0.4413 -0.4671  0.7066
 1720SOL    MW4 6955   0.469   1.690   3.006  0.1011 -0.1204  0.4127
 1721SOL     OW 6956   0.456   1.940   3.146 -0.1317 -1.0148  0.0629
 1721SOL    HW2 6957   0.444   1.859   3.097 -0.4811 -0.1566 -1.2899
 1721SOL    HW3 6958   0.383   1.996   3.119  0.7017  0.1447  0.1593
 1721SOL    MW4 6959   0.445   1.937   3.136 -0.0678 -0.7485 -0.1030
 1722SOL     OW 6960   0.672   2.049   2.989 -0.1476  0.5272  0.6217
 1722SOL    HW2 6961   0.751   2.004   3.018  0.2390  1.2895  0.7662
 1722SOL    HW3 6962   0.603   2.016   3.047 -0.0017 -0.3569  0.3049
 1722SOL    MW4 6963   0.673   2.038   3.001 -0.0773  0.5114  0.5991
 1723SOL     OW 6964   0.735   2.291   3.099  0.4061 -0.2487  0.1065
 1723SOL    HW2 6965   0.715   2.288   3.193 -1.2313 -0.8034 -0.2443
 1723SOL    HW3 6966   0.719   2.202   3.068  1.3766 -0.1748 -0.6304
 1723SOL    MW4 6967   0.730   2.279   3.107  0.3181 -0.3121 -0.0370
 1724SOL     OW 6968   0.492   2.399   3.027 -0.0984 -0.0006  0.2166
 1724SOL    HW2 6969   0.573   2.355   3.052 -1.9719 -2.9193  1.5897
 1724SOL    HW3 6970   0.484   2.384   2.933  0.6873 -0.1843  0.1747
 1724SOL    MW4 6971   0.501   2.391   3.018 -0.2420 -0.4096  0.3922
 1725SOL     OW 6972   0.459   2.663   3.089 -0.6498  0.0269  0.5461
 1725SOL    HW2 6973   0.538   2.715   3.078 -0.6357  0.1704  1.2686
 1725SOL    HW3 6974   0.484   2.574   3.067 -0.1414 -0.0227  1.3113
 1725SOL    MW4 6975   0.473   2.658   3.085 -0.5808  0.0391  0.7422
 1726SOL     OW 6976   0.693   2.844   3.049 -0.1576 -0.0151  1.0757
 1726SOL    HW2 6977   0.776   2.798   3.064 -0.2354 -0.4261  0.2580
 1726SOL    HW3 6978   0.714   2.936   3.067  0.5997 -0.0491  0.3986
 1726SOL    MW4 6979   0.707   2.850   3.053 -0.0679 -0.0739  0.8783
 1727SOL     OW 6980   0.732   3.111   3.111  0.4120 -0.3975 -0.3788
 1727SOL    HW2 6981   0.724   3.110   3.207 -1.6795 -0.6843 -0.5351
 1727SOL    HW3 6982   0.647   3.143   3.080  1.2786  0.2786 -2.1276
 1727SOL    MW4 6983   0.720   3.115   3.120  0.2504 -0.3459 -0.6299
 1728SOL     OW 6984   0.477   3.188   3.038 -0.1685 -0.1264 -0.1603
 1728SOL    HW2 6985   0.468   3.280   3.064  0.5819 -0.2612  0.5755
 1728SOL    HW3 6986   0.394   3.148   3.064 -0.8273  0.5075 -1.2160
 1728SOL    MW4 6987   0.465   3.195   3.044 -0.1564 -0.0603 -0.2024
 1729SOL     OW 6988   0.465   3.469   3.106 -0.0695  0.3804 -0.3239
 1729SOL    HW2 6989   0.487   3.491   3.196  0.2272  1.8970 -0.7517
 1729SOL    HW3 6990   0.396   3.530   3.082  0.2003  0.3199 -1.2886
 1729SOL    MW4 6991   0.459   3.480   3.114  0.0053  0.5724 -0.5074
 1730SOL     OW 6992   0.701   3.573   3.007 -0.8460 -0.1469 -0.1090
 1730SOL    HW2 6993   0.769   3.516   3.042 -1.4568 -2.0562 -1.9650
 1730SOL    HW3 6994   0.619   3.537   3.041 -1.0984  1.0316  0.5855
 1730SOL    MW4 6995   0.699   3.561   3.016 -0.9599 -0.2432 -0.2625
 1731SOL     OW 6996   0.672   3.857   3.114  0.3158 -0.0427  0.1152
 1731SOL    HW2 6997   0.677   3.847   3.209 -2.5548  0.8807  0.4235
 1731SOL    HW3 6998   0.679   3.768   3.080  0.4055 -0.4766  1.2494
 1731SOL    MW4 6999   0.673   3.844   3.122 -0.0511  0.0217  0.3057
 1732SOL     OW 7000   0.451   4.014   3.040 -0.4773 -0.0628 -0.2263
 1732SOL    HW2 7001   0.517   3.949   3.063  1.5522  1.5767 -1.2550
 1732SOL    HW3 7002   0.461   4.027   2.946 -2.4898  0.0088 -0.4565
 1732SOL    MW4 7003   0.461   4.007   3.031 -0.4750  0.1636 -0.3922
 1733SOL     OW 7004   0.500   4.292   3.110  0.1371  0.2657 -0.1603
 1733SOL    HW2 7005   0.489   4.202   3.078  0.0145  0.6387 -1.1987
 1733SOL    HW3 7006   0.417   4.335   3.091 -0.2985  0.2324  1.6077
 1733SOL    MW4 7007   0.488   4.286   3.103  0.0634  0.3109 -0.0644
 1734SOL     OW 7008   0.702   4.445   3.026 -0.0050 -0.3288  0.3634
 1734SOL    HW2 7009   0.625   4.396   3.054  0.4910 -1.4144 -0.1219
 1734SOL    HW3 7010   0.702   4.436   2.930  0.6254 -0.2062  0.3508
 1734SOL    MW4 7011   0.692   4.437   3.017  0.1436 -0.4559  0.2980
 1735SOL     OW 7012   1.123   4.661   3.148 -0.0547  0.3651  0.0653
 1735SOL    HW2 7013   1.189   4.715   3.105 -0.1774  2.2259  2.1508
 1735SOL    HW3 7014   1.040   4.706   3.131 -0.2928  0.2474  0.8988
 1735SOL    MW4 7015   1.121   4.674   3.140 -0.1022  0.5951  0.4504
 1736SOL     OW 7016   0.891   0.145   3.035  0.3907  0.6317  0.2733
 1736SOL    HW2 7017   0.880   0.229   3.080  0.7019  0.9157 -0.1720
 1736SOL    HW3 7018   0.825   0.088   3.075 -0.0151  1.1670  0.3849
 1736SOL    MW4 7019   0.881   0.149   3.046  0.3783  0.7398  0.2291
 1737SOL     OW 7020   0.904   0.393   3.148 -0.3560  0.4349 -0.2594
 1737SOL    HW2 7021   0.902   0.381   3.243 -1.4695  0.6402 -0.2461
 1737SOL    HW3 7022   0.983   0.443   3.132  0.3514 -0.4381  0.4611
 1737SOL    MW4 7023   0.914   0.398   3.158 -0.4097  0.3468 -0.1626
 1738SOL     OW 7024   1.119   0.529   3.043 -0.5879 -0.9692 -0.4283
 1738SOL    HW2 7025   1.187   0.470   3.076  0.3930 -0.5230 -1.6284
 1738SOL    HW3 7026   1.120   0.517   2.948 -1.9754 -0.7278 -0.4847
 1738SOL    MW4 7027   1.128   0.520   3.035 -0.6415 -0.8784 -0.5941
 1739SOL     OW 7028   1.099   0.783   3.145  0.3322 -0.1252  0.3787
 1739SOL    HW2 7029   1.085   0.779   3.239 -2.5769  2.2197  0.1300
 1739SOL    HW3 7030   1.085   0.693   3.114 -0.0692 -0.6434  2.0261
 1739SOL    MW4 7031   1.095   0.771   3.153 -0.1047  0.1158  0.5629
 1740SOL     OW 7032   0.902   0.910   3.012  0.7274 -0.4501 -0.5221
 1740SOL    HW2 7033   0.969   0.856   3.053 -0.3633 -1.5446 -0.1603
 1740SOL    HW3 7034   0.820   0.882   3.054  0.2515  2.1319  0.3669
 1740SOL    MW4 7035   0.900   0.899   3.023  0.5207 -0.2538 -0.3569
 1741SOL     OW 7036   0.896   1.178   3.109  0.5350  0.1360  0.1906
 1741SOL    HW2 7037   0.966   1.225   3.064  0.5188 -0.3815 -0.3828
 1741SOL    HW3 7038   0.898   1.090   3.072 -0.3098  0.0674  0.2894
 1741SOL    MW4 7039   0.905   1.173   3.098  0.4215  0.0587  0.1278
 1742SOL     OW 7040   1.113   1.319   3.010  0.7139  0.1643  0.2120
 1742SOL    HW2 7041   1.180   1.272   3.058  1.1875  1.0907  0.4640
 1742SOL    HW3 7042   1.141   1.314   2.918  0.5363 -0.4089  0.1880
 1742SOL    MW4 7043   1.125   1.312   3.004  0.7529  0.2109  0.2420
 1743SOL     OW 7044   1.125   1.579   3.090  0.1768 -0.3871 -0.0758
 1743SOL    HW2 7045   1.212   1.619   3.083  0.7041 -1.0483  2.2336
 1743SOL    HW3 7046   1.132   1.498   3.041  1.2195 -0.9694  1.0023
 1743SOL    MW4 7047   1.138   1.574   3.083  0.3840 -0.5511  0.3710
 1744SOL     OW 7048   0.904   1.682   2.965 -0.0599  0.0660  0.1194
 1744SOL    HW2 7049   0.987   1.648   2.999  0.7543  0.2484 -1.6414
 1744SOL    HW3 7050   0.837   1.634   3.013  1.0716 -0.8829  0.7767
 1744SOL    MW4 7051   0.906   1.672   2.976  0.1968 -0.0352 -0.0262
 1745SOL     OW 7052   0.911   1.951   3.080 -0.2149  0.4790  0.0247
 1745SOL    HW2 7053   0.909   1.949   3.175  0.0466  1.4851  0.0550
 1745SOL    HW3 7054   0.931   1.861   3.054 -0.8674  0.0837  0.8993
 1745SOL    MW4 7055   0.914   1.939   3.089 -0.2665  0.5596  0.1442
 1746SOL     OW 7056   1.134   2.077   2.980  0.1177 -0.2184 -0.2041
 1746SOL    HW2 7057   1.058   2.034   3.019  0.7540 -0.9805  0.2164
 1746SOL    HW3 7058   1.118   2.074   2.886  0.3534 -1.7485 -0.1938
 1746SOL    MW4 7059   1.122   2.071   2.973  0.2328 -0.5209 -0.1473
 1747SOL     OW 7060   1.130   2.296   3.141  0.0817 -0.0588 -1.0110
 1747SOL    HW2 7061   1.055   2.350   3.118  0.9336  1.8867  0.6028
 1747SOL    HW3 7062   1.125   2.221   3.082 -1.9891  1.0312 -2.2712
 1747SOL    MW4 7063   1.120   2.294   3.130 -0.0790  0.3414 -0.9644
 1748SOL     OW 7064   0.935   2.452   3.005  0.2515 -0.3174 -0.1213
 1748SOL    HW2 7065   0.861   2.405   3.043  1.2250 -2.3656 -0.6236
 1748SOL    HW3 7066   0.918   2.450   2.910  0.2128  0.4931 -0.1285
 1748SOL    MW4 7067   0.923   2.445   2.997  0.3749 -0.4804 -0.1884
 1749SOL     OW 7068   0.928   2.704   3.092  0.1654 -0.2252  0.0595
 1749SOL    HW2 7069   0.911   2.691   3.185 -1.6075 -1.7113 -0.4297
 1749SOL    HW3 7070   0.923   2.616   3.054  1.2513  0.3091 -1.3791
 1749SOL    MW4 7071   0.925   2.691   3.099  0.0747 -0.3505 -0.1950
 1750SOL     OW 7072   1.141   2.821   2.962  0.1535  0.1974 -0.1593
 1750SOL    HW2 7073   1.159   2.906   3.003 -0.5112  0.4590 -0.3999
 1750SOL    HW3 7074   1.073   2.782   3.017  0.7455 -0.3611  0.1851
 1750SOL    MW4 7075   1.134   2.827   2.975  0.1439  0.1583 -0.1457
 1751SOL     OW 7076   1.214   3.052   3.115  0.0463 -0.1676  0.0241
 1751SOL    HW2 7077   1.282   3.110   3.081 -0.2824  0.7903  0.9875
 1751SOL    HW3 7078   1.132   3.098   3.098 -0.2901 -0.7651 -0.0169
 1751SOL    MW4 7079   1.212   3.065   3.108 -0.0415 -0.1199  0.1457
 1752SOL     OW 7080   0.968   3.207   3.029 -0.1191 -0.2599  0.0868
 1752SOL    HW2 7081   0.891   3.159   3.061  0.1561 -0.5049  0.3923
 1752SOL    HW3 7082   0.962   3.203   2.934 -0.3448 -0.5053  0.1119
 1752SOL    MW4 7083   0.957   3.200   3.021 -0.1126 -0.3247  0.1304
 1753SOL     OW 7084   0.918   3.457   3.121  0.1680  0.1056 -0.7462
 1753SOL    HW2 7085   0.983   3.520   3.092 -0.7339  0.0478 -2.9137
 1753SOL    HW3 7086   0.951   3.372   3.091 -0.1468 -0.1152 -0.4854
 1753SOL    MW4 7087   0.931   3.454   3.113  0.0075  0.0687 -0.9978
 1754SOL     OW 7088   1.080   3.629   2.990  0.6908 -0.5656  0.5037
 1754SOL    HW2 7089   1.157   3.593   3.033  0.5219 -0.5517  0.8168
 1754SOL    HW3 7090   1.083   3.723   3.010  1.0614 -0.4217 -0.2037
 1754SOL    MW4 7091   1.091   3.637   2.998  0.7174 -0.5448  0.4513
 1755SOL     OW 7092   1.099   3.887   3.081  0.1389  0.1956  0.3237
 1755SOL    HW2 7093   1.119   3.866   3.173 -1.6731 -0.1291  0.6494
 1755SOL    HW3 7094   1.012   3.926   3.084  0.0374  0.0928 -1.2901
 1755SOL    MW4 7095   1.090   3.889   3.094 -0.1136  0.1395  0.1538
 1756SOL     OW 7096   0.840   4.036   3.010 -0.2824 -0.6584  0.0016
 1756SOL    HW2 7097   0.775   3.966   3.022 -2.0331  0.5283 -2.1131
 1756SOL    HW3 7098   0.862   4.032   2.917  0.5319  0.7968  0.1241
 1756SOL    MW4 7099   0.834   4.026   3.000 -0.4060 -0.3095 -0.2613
 1757SOL     OW 7100   0.898   4.274   3.139  0.2535  0.2454 -0.1746
 1757SOL    HW2 7101   0.873   4.190   3.100  0.4340  0.8086 -1.5197
 1757SOL    HW3 7102   0.831   4.335   3.108 -0.1775  0.5027  1.2223
 1757SOL    MW4 7103   0.886   4.271   3.130  0.2204  0.3538 -0.1678
 1758SOL     OW 7104   1.113   4.416   3.022 -0.5395 -0.3650 -0.3896
 1758SOL    HW2 7105   1.033   4.370   3.048 -1.4376  1.2380 -0.2058
 1758SOL    HW3 7106   1.107   4.501   3.067  0.7427  0.1917 -1.2307
 1758SOL    MW4 7107   1.101   4.421   3.032 -0.4889 -0.0801 -0.4761
 1759SOL     OW 7108   1.570   0.003   3.064  0.4138 -0.0711 -0.2549
 1759SOL    HW2 7109   1.581   0.002   3.159  1.2060  0.4035 -0.3417
 1759SOL    HW3 7110   1.489   0.052   3.051  0.2824 -0.1645  0.1701
 1759SOL    MW4 7111   1.561   0.009   3.075  0.5009 -0.0205 -0.2103
 1760SOL     OW 7112   1.315   0.140   3.043  0.3225 -0.0467 -0.1982
 1760SOL    HW2 7113   1.295   0.230   3.069 -0.1873 -0.1733 -0.1461
 1760SOL    HW3 7114   1.313   0.142   2.947 -0.9125 -0.2682 -0.1880
 1760SOL    MW4 7115   1.312   0.152   3.033  0.0924 -0.0926 -0.1898
 1761SOL     OW 7116   1.322   0.393   3.155 -0.0987 -0.0319 -0.2527
 1761SOL    HW2 7117   1.340   0.409   3.248 -0.2989  0.0021 -0.2197
 1761SOL    HW3 7118   1.402   0.420   3.110 -0.3366  0.8325 -0.1738
 1761SOL    MW4 7119   1.335   0.399   3.161 -0.1565  0.0867 -0.2377
 1762SOL     OW 7120   1.555   0.483   3.030 -0.6151  0.0140  0.0415
 1762SOL    HW2 7121   1.559   0.575   3.057  0.4185  0.0845 -0.3492
 1762SOL    HW3 7122   1.558   0.485   2.934  0.2914 -0.4725  0.0580
 1762SOL    MW4 7123   1.556   0.495   3.021 -0.3592 -0.0409 -0.0079
 1763SOL     OW 7124   1.577   0.775   3.093 -0.2272 -0.6216  0.1486
 1763SOL    HW2 7125   1.581   0.784   3.189  1.1390 -0.7813  0.1238
 1763SOL    HW3 7126   1.495   0.817   3.068 -0.9476 -1.2030  1.4676
 1763SOL    MW4 7127   1.567   0.781   3.103 -0.1420 -0.7194  0.3192
 1764SOL     OW 7128   1.337   0.916   3.044  0.3870 -0.0701  0.0387
 1764SOL    HW2 7129   1.341   1.002   3.086  1.9997 -0.4391  0.7048
 1764SOL    HW3 7130   1.254   0.879   3.072 -0.2123  1.1809 -0.0646
 1764SOL    MW4 7131   1.327   0.922   3.053  0.5207  0.0463  0.1128
 1765SOL     OW 7132   1.343   1.183   3.113 -0.1530  0.4294 -0.1512
 1765SOL    HW2 7133   1.327   1.186   3.207  1.6473  0.2884  0.1820
 1765SOL    HW3 7134   1.421   1.238   3.100 -0.3941  0.4546 -1.5517
 1765SOL    MW4 7135   1.351   1.191   3.124  0.0527  0.4141 -0.2921
 1766SOL     OW 7136   1.585   1.345   3.056 -0.2931  0.2760  0.3464
 1766SOL    HW2 7137   1.641   1.273   3.084 -0.8511 -0.2086  0.2256
 1766SOL    HW3 7138   1.632   1.424   3.083  0.0651 -0.1435  0.9626
 1766SOL    MW4 7139   1.598   1.346   3.063 -0.3194  0.1568  0.4120
 1767SOL     OW 7140   1.574   1.607   3.174 -0.2766  0.1005 -0.7099
 1767SOL    HW2 7141   1.655   1.647   3.142 -0.6817  0.8770 -0.7459
 1767SOL    HW3 7142   1.509   1.625   3.106 -0.4951 -0.5164 -0.6741
 1767SOL    MW4 7143   1.576   1.614   3.161 -0.3588  0.1216 -0.7098
 1768SOL     OW 7144   1.356   1.700   3.007 -0.2157  0.1033 -0.0011
 1768SOL    HW2 7145   1.356   1.792   3.035  2.3312  0.1604 -0.1018
 1768SOL    HW3 7146   1.345   1.704   2.912  0.4341  0.3179 -0.0656
 1768SOL    MW4 7147   1.354   1.713   2.998  0.2060  0.1392 -0.0229
 1769SOL     OW 7148   1.366   1.964   3.105 -0.3306 -0.5266  0.5407
 1769SOL    HW2 7149   1.364   1.946   3.198  0.0551  2.0007  1.0753
 1769SOL    HW3 7150   1.287   2.017   3.089  0.4005  0.3389 -0.2608
 1769SOL    MW4 7151   1.355   1.969   3.115 -0.1832 -0.0790  0.5057
 1770SOL     OW 7152   1.601   2.069   2.987 -0.2171 -0.0842  0.4781
 1770SOL    HW2 7153   1.518   2.027   3.009 -0.0375 -0.5255  0.3248
 1770SOL    HW3 7154   1.596   2.084   2.893 -0.6778  1.1254  0.6786
 1770SOL    MW4 7155   1.589   2.066   2.978 -0.2542  0.0172  0.4842
 1771SOL     OW 7156   1.587   2.295   3.152 -0.3459  0.0140  0.4269
 1771SOL    HW2 7157   1.514   2.351   3.126 -0.5454 -0.1835  0.5570
 1771SOL    HW3 7158   1.578   2.217   3.097  0.6232  0.6107 -0.5981
 1771SOL    MW4 7159   1.576   2.292   3.141 -0.2445  0.0668  0.3088
 1772SOL     OW 7160   1.350   2.399   2.990 -0.1588 -0.0306 -0.1836
 1772SOL    HW2 7161   1.281   2.355   3.039 -0.2865  1.1087  0.6723
 1772SOL    HW3 7162   1.316   2.406   2.900  0.4581 -2.9484 -0.6853
 1772SOL    MW4 7163   1.337   2.394   2.984 -0.0942 -0.2651 -0.1369
 1773SOL     OW 7164   1.340   2.680   3.070 -0.2790 -0.0251 -0.4861
 1773SOL    HW2 7165   1.342   2.599   3.020 -0.1028  0.7689 -1.7943
 1773SOL    HW3 7166   1.271   2.732   3.029 -1.5814 -0.1953  1.4451
 1773SOL    MW4 7167   1.331   2.676   3.058 -0.4276  0.0570 -0.4039
 1774SOL     OW 7168   1.544   2.818   2.983  0.0310  0.6621  0.3761
 1774SOL    HW2 7169   1.612   2.774   3.033  0.1693 -1.0306 -1.2571
 1774SOL    HW3 7170   1.462   2.778   3.013  0.2154 -1.3279 -1.6679
 1774SOL    MW4 7171   1.542   2.807   2.993  0.0736  0.1764 -0.1090
 1775SOL     OW 7172   1.542   3.091   3.078  0.0442  0.3120  0.1134
 1775SOL    HW2 7173   1.562   3.091   3.171  0.6887  1.1188 -0.0125
 1775SOL    HW3 7174   1.552   3.000   3.051  0.4294  0.1695  0.7200
 1775SOL    MW4 7175   1.546   3.079   3.086  0.1801  0.3996  0.1767
 1776SOL     OW 7176   1.362   3.278   2.952  0.3931  0.3980  0.1644
 1776SOL    HW2 7177   1.432   3.216   2.971 -0.0753 -0.4613 -0.8971
 1776SOL    HW3 7178   1.353   3.277   2.857 -0.8251  0.7558  0.2648
 1776SOL    MW4 7179   1.370   3.270   2.942  0.1706  0.3316  0.0372
 1777SOL     OW 7180   1.330   3.516   3.098  0.1633 -0.2373  0.1259
 1777SOL    HW2 7181   1.334   3.512   3.194  1.7650  0.4782  0.1021
 1777SOL    HW3 7182   1.328   3.424   3.071  0.4098 -0.4548  0.8249
 1777SOL    MW4 7183   1.330   3.503   3.107  0.4071 -0.1717  0.2148
 1778SOL     OW 7184   1.559   3.635   2.983 -0.2931 -0.1307  0.2337
 1778SOL    HW2 7185   1.495   3.572   3.016 -0.1407 -0.2928  0.2189
 1778SOL    HW3 7186   1.565   3.617   2.889 -1.0513  0.6194  0.0324
 1778SOL    MW4 7187   1.551   3.624   2.975 -0.3730 -0.0532  0.2053
 1779SOL     OW 7188   1.497   3.889   3.133  0.0630 -0.2143 -0.2370
 1779SOL    HW2 7189   1.575   3.942   3.116 -0.4539  0.0689 -1.8175
 1779SOL    HW3 7190   1.514   3.806   3.088 -0.0814 -0.5648  0.3515
 1779SOL    MW4 7191   1.510   3.885   3.124 -0.0243 -0.2232 -0.3681
 1780SOL     OW 7192   1.295   4.030   2.960 -0.7315 -0.0686 -0.3090
 1780SOL    HW2 7193   1.365   3.986   3.009 -0.2123  1.4655  0.3335
 1780SOL    HW3 7194   1.214   4.002   3.003 -0.4123 -0.5040  0.0095
 1780SOL    MW4 7195   1.293   4.020   2.972 -0.6210  0.0758 -0.1824
 1781SOL     OW 7196   1.331   4.260   3.111 -0.4640 -0.0470 -0.4137
 1781SOL    HW2 7197   1.317   4.188   3.048 -2.8867 -0.8869  1.0024
 1781SOL    HW3 7198   1.256   4.318   3.097 -0.9686 -0.1795  1.5894
 1781SOL    MW4 7199   1.319   4.258   3.101 -0.8503 -0.1755  0.0377
 1782SOL     OW 7200   1.581   4.397   2.998 -0.4831  0.0180  0.2771
 1782SOL    HW2 7201   1.504   4.344   3.019 -0.9356  0.3776 -0.4382
 1782SOL    HW3 7202   1.561   4.483   3.034 -0.6404  0.2473 -0.3502
 1782SOL    MW4 7203   1.568   4.401   3.006 -0.5635  0.0958  0.0999
 1783SOL     OW 7204   2.017   4.601   3.094 -0.0704 -0.0891 -0.2342
 1783SOL    HW2 7205   2.018   4.606   3.190  0.0142 -2.2892 -0.1076
 1783SOL    HW3 7206   1.935   4.643   3.069 -0.5908 -0.4464  0.8543
 1783SOL    MW4 7207   2.006   4.607   3.104 -0.1280 -0.4268 -0.0739
 1784SOL     OW 7208   1.819   0.122   2.984 -0.2374  0.7270 -0.1226
 1784SOL    HW2 7209   1.736   0.087   3.013 -0.2801  0.9492  0.0256
 1784SOL    HW3 7210   1.809   0.132   2.889 -0.1333  0.1004 -0.2005
 1784SOL    MW4 7211   1.807   0.119   2.975 -0.2294  0.6737 -0.1132
 1785SOL     OW 7212   1.813   0.376   3.134  0.5196 -0.3439 -0.2158
 1785SOL    HW2 7213   1.822   0.288   3.097 -0.9808 -0.1784 -1.0352
 1785SOL    HW3 7214   1.724   0.402   3.111  0.2412  0.5648  1.8251
 1785SOL    MW4 7215   1.802   0.368   3.126  0.2848 -0.2021 -0.0546
 1786SOL     OW 7216   2.006   0.524   3.037 -0.4241  0.1683  1.0362
 1786SOL    HW2 7217   1.925   0.490   3.075 -0.9389 -0.3117 -0.4727
 1786SOL    HW3 7218   1.989   0.526   2.943  1.5563 -0.5584  0.6510
 1786SOL    MW4 7219   1.993   0.520   3.030 -0.2308  0.0091  0.7863
 1787SOL     OW 7220   2.027   0.791   3.106 -0.0720 -0.2743 -0.2280
 1787SOL    HW2 7221   1.949   0.822   3.059  0.3112  0.1436 -0.5919
 1787SOL    HW3 7222   2.029   0.697   3.088 -1.2854 -0.5494  0.9503
 1787SOL    MW4 7223   2.017   0.782   3.097 -0.1814 -0.2555 -0.1206
 1788SOL     OW 7224   1.802   0.904   2.997 -0.0659 -0.2040  0.2760
 1788SOL    HW2 7225   1.723   0.857   3.024 -0.5278  0.4923  0.1507
 1788SOL    HW3 7226   1.790   0.918   2.903  1.1864 -1.9517 -0.1655
 1788SOL    MW4 7227   1.790   0.899   2.988  0.0384 -0.3426  0.2015
 1789SOL     OW 7228   1.754   1.129   3.140  0.1578  0.0677  0.4842
 1789SOL    HW2 7229   1.765   1.110   3.234  0.0156  0.0275  0.4922
 1789SOL    HW3 7230   1.777   1.047   3.097  1.1380  0.3546  0.4314
 1789SOL    MW4 7231   1.759   1.116   3.147  0.2683  0.1001  0.4783
 1790SOL     OW 7232   1.982   1.268   3.033 -0.1030  0.2154  0.0861
 1790SOL    HW2 7233   2.051   1.230   3.087 -0.1592 -2.3117 -1.5933
 1790SOL    HW3 7234   1.902   1.222   3.061 -0.4303  0.1956 -0.8881
 1790SOL    MW4 7235   1.980   1.257   3.044 -0.1535 -0.1206 -0.2642
 1791SOL     OW 7236   2.067   1.535   3.104  0.1771 -0.3359 -0.5399
 1791SOL    HW2 7237   2.077   1.528   3.199 -0.6031 -0.2725 -0.4518
 1791SOL    HW3 7238   2.055   1.445   3.075 -0.7819 -0.2516 -0.4350
 1791SOL    MW4 7239   2.067   1.523   3.113 -0.0522 -0.3164 -0.5145
 1792SOL     OW 7240   1.824   1.688   3.037  0.8845  0.6045 -0.3235
 1792SOL    HW2 7241   1.838   1.777   3.068  0.2936  0.4783  0.2961
 1792SOL    HW3 7242   1.902   1.640   3.066  1.1631  0.8883 -0.5854
 1792SOL    MW4 7243   1.836   1.693   3.045  0.8434  0.6254 -0.2763
 1793SOL     OW 7244   1.818   1.967   3.134 -0.2302 -0.2484  0.2375
 1793SOL    HW2 7245   1.897   2.009   3.101  0.0757 -1.1227 -0.1645
 1793SOL    HW3 7246   1.746   2.021   3.102  0.1896  0.3267  0.2674
 1793SOL    MW4 7247   1.819   1.980   3.125 -0.1346 -0.2877  0.1884
 1794SOL     OW 7248   2.038   2.100   3.009 -0.0659 -0.0694 -0.0518
 1794SOL    HW2 7249   2.113   2.051   3.043  0.7304  0.5285 -0.9304
 1794SOL    HW3 7250   2.050   2.189   3.044 -0.4614 -0.0259 -0.0324
 1794SOL    MW4 7251   2.050   2.106   3.018 -0.0131  0.0150 -0.1652
 1795SOL     OW 7252   2.045   2.352   3.145  0.1607 -0.1776 -0.1984
 1795SOL    HW2 7253   2.116   2.398   3.100  0.2221  0.0677  0.1466
 1795SOL    HW3 7254   1.971   2.359   3.085  0.2047  0.2657 -0.2048
 1795SOL    MW4 7255   2.045   2.359   3.131  0.1745 -0.0865 -0.1540
 1796SOL     OW 7256   1.815   2.418   2.997 -0.3757 -0.1395 -0.3519
 1796SOL    HW2 7257   1.829   2.503   3.040 -1.1942 -0.3790  0.4082
 1796SOL    HW3 7258   1.733   2.386   3.034  0.0421 -1.3732 -0.4794
 1796SOL    MW4 7259   1.806   2.425   3.007 -0.4286 -0.3338 -0.2685
 1797SOL     OW 7260   1.776   2.682   3.092  0.2131 -0.5129  0.1410
 1797SOL    HW2 7261   1.790   2.702   3.185 -0.7254  0.9308 -0.0291
 1797SOL    HW3 7262   1.844   2.731   3.046  0.1764 -0.5909  0.0038
 1797SOL    MW4 7263   1.787   2.691   3.099  0.0845 -0.3328  0.1004
 1798SOL     OW 7264   2.009   2.809   2.992  0.4187  0.0158 -0.2813
 1798SOL    HW2 7265   1.970   2.890   3.025  0.3149 -0.0288 -0.2937
 1798SOL    HW3 7266   1.986   2.808   2.899  0.3223 -0.0850 -0.2557
 1798SOL    MW4 7267   2.001   2.820   2.984  0.3920 -0.0033 -0.2797
 1799SOL     OW 7268   1.990   3.076   3.099  0.4378  0.6925  0.0624
 1799SOL    HW2 7269   2.024   3.084   3.189 -1.0790 -0.4127  0.7610
 1799SOL    HW3 7270   1.914   3.133   3.097 -0.6719 -0.7497  0.0923
 1799SOL    MW4 7271   1.985   3.084   3.111  0.0913  0.3564  0.1583
 1800SOL     OW 7272   1.783   3.226   3.027 -0.4000  0.5457 -0.2353
 1800SOL    HW2 7273   1.702   3.185   3.057  1.7011 -2.7621  1.1924
 1800SOL    HW3 7274   1.787   3.206   2.934 -0.3823 -0.7779  0.0468
 1800SOL    MW4 7275   1.773   3.218   3.019 -0.1204 -0.0656 -0.0098
 1801SOL     OW 7276   1.766   3.502   3.102 -0.5754 -0.0227 -0.0730
 1801SOL    HW2 7277   1.752   3.415   3.066 -0.9054  0.6109 -1.5023
 1801SOL    HW3 7278   1.695   3.555   3.065 -0.1648  0.9283  0.4936
 1801SOL    MW4 7279   1.755   3.497   3.092 -0.5648  0.1864 -0.1869
 1802SOL     OW 7280   2.005   3.639   3.035 -0.1000 -0.1579 -0.3368
 1802SOL    HW2 7281   1.968   3.717   3.076 -0.0570  0.2882 -1.1274
 1802SOL    HW3 7282   1.948   3.568   3.063  0.5453 -0.0347  1.3385
 1802SOL    MW4 7283   1.992   3.640   3.044 -0.0093 -0.0830 -0.2201
 1803SOL     OW 7284   1.933   3.878   3.132  0.1216 -0.2040 -0.4412
 1803SOL    HW2 7285   1.940   3.906   3.223  0.2516  0.6585 -0.7120
 1803SOL    HW3 7286   1.856   3.924   3.099  0.2547 -0.2702 -0.8454
 1803SOL    MW4 7287   1.924   3.888   3.140  0.1563 -0.0992 -0.5302
 1804SOL     OW 7288   1.730   4.030   3.032  0.1582  0.0453  0.3726
 1804SOL    HW2 7289   1.768   4.113   3.062  1.2479 -0.5945  0.7676
 1804SOL    HW3 7290   1.745   4.030   2.938  0.2920  0.2181  0.3931
 1804SOL    MW4 7291   1.737   4.041   3.024  0.3196 -0.0162  0.4277
 1805SOL     OW 7292   1.800   4.280   3.120  0.1004  0.2294 -0.3431
 1805SOL    HW2 7293   1.880   4.289   3.068 -1.1683 -1.5554 -2.7234
 1805SOL    HW3 7294   1.735   4.333   3.073 -0.2718  1.1962  1.2458
 1805SOL    MW4 7295   1.802   4.288   3.107 -0.1161  0.1216 -0.4475
 1806SOL     OW 7296   2.036   4.370   2.971  0.2125 -0.7061 -0.0992
 1806SOL    HW2 7297   2.037   4.456   3.014 -1.0514 -0.3947 -0.6819
 1806SOL    HW3 7298   2.062   4.389   2.881  1.1578 -1.1226  0.0749
 1806SOL    MW4 7299   2.040   4.384   2.965  0.1705 -0.7200 -0.1533
 1807SOL     OW 7300   2.443   0.011   3.131  0.3347 -0.0894  0.3843
 1807SOL    HW2 7301   2.439  -0.081   3.103 -1.4371 -0.2838  1.2423
 1807SOL    HW3 7302   2.366   0.052   3.091  0.5692  0.7939  0.8282
 1807SOL    MW4 7303   2.432   0.004   3.122  0.1321  0.0014  0.5562
 1808SOL     OW 7304   2.224   0.090   2.992  0.0871  0.2411  0.1365
 1808SOL    HW2 7305   2.190   0.176   3.015 -0.8261  0.0157 -0.3548
 1808SOL    HW3 7306   2.167   0.029   3.038  0.6965 -0.1060  0.4366
 1808SOL    MW4 7307   2.212   0.093   3.001  0.0470  0.1656  0.1111
 1809SOL     OW 7308   2.219   0.358   3.101  0.4788  0.2314 -0.0727
 1809SOL    HW2 7309   2.238   0.370   3.194  0.7339 -0.8140  0.0212
 1809SOL    HW3 7310   2.145   0.415   3.084 -1.0890 -1.3242  1.3263
 1809SOL    MW4 7311   2.212   0.367   3.111  0.3057 -0.1118  0.1242
 1810SOL     OW 7312   2.446   0.524   3.053  0.3653  0.0700 -0.3405
 1810SOL    HW2 7313   2.369   0.469   3.071  0.8447 -0.3707  0.3780
 1810SOL    HW3 7314   2.450   0.528   2.957  0.4032 -1.2826 -0.4054
 1810SOL    MW4 7315   2.436   0.517   3.043  0.4337 -0.1666 -0.2542
 1811SOL     OW 7316   2.464   0.807   3.129  0.2512 -0.0616  0.5229
 1811SOL    HW2 7317   2.551   0.838   3.108  0.2626  0.3749  1.1950
 1811SOL    HW3 7318   2.459   0.719   3.090  1.8987 -1.1413  2.6639
 1811SOL    MW4 7319   2.475   0.799   3.121  0.4702 -0.1465  0.8941
 1812SOL     OW 7320   2.246   0.938   3.011 -0.2109 -0.0890 -0.2750
 1812SOL    HW2 7321   2.325   0.899   3.049 -0.5433  0.5204  1.0724
 1812SOL    HW3 7322   2.175   0.880   3.038 -0.3931  0.0965 -0.3578
 1812SOL    MW4 7323   2.247   0.926   3.019 -0.2787  0.0159 -0.1082
 1813SOL     OW 7324   2.221   1.190   3.125 -0.0910 -0.0239  0.0806
 1813SOL    HW2 7325   2.221   1.177   3.220  3.0994 -0.0987  0.1019
 1813SOL    HW3 7326   2.228   1.102   3.088  0.8312  0.1539 -0.1746
 1813SOL    MW4 7327   2.222   1.177   3.133  0.4520 -0.0103  0.0501
 1814SOL     OW 7328   2.471   1.252   3.014  0.3492 -0.4317 -0.1091
 1814SOL    HW2 7329   2.397   1.224   3.069  0.8261  0.7512  1.1434
 1814SOL    HW3 7330   2.433   1.258   2.926 -0.8916 -0.4671  0.4019
 1814SOL    MW4 7331   2.456   1.249   3.009  0.2487 -0.2804  0.1235
 1815SOL     OW 7332   2.478   1.516   3.088 -0.0448 -0.3754 -0.4557
 1815SOL    HW2 7333   2.409   1.559   3.037  0.6285 -0.1236 -1.1665
 1815SOL    HW3 7334   2.467   1.423   3.070 -0.5016 -0.3776 -0.1818
 1815SOL    MW4 7335   2.467   1.510   3.079 -0.0162 -0.3426 -0.5136
 1816SOL     OW 7336   2.284   1.653   2.958 -0.3625  0.0750 -0.3321
 1816SOL    HW2 7337   2.206   1.611   2.996 -0.7980  0.6246 -0.5990
 1816SOL    HW3 7338   2.264   1.660   2.865 -0.5396  1.3556 -0.2102
 1816SOL    MW4 7339   2.271   1.649   2.951 -0.4435  0.3165 -0.3512
 1817SOL     OW 7340   2.247   1.908   3.092  0.3918  0.0036  0.3041
 1817SOL    HW2 7341   2.323   1.959   3.063  0.1296  0.8295  1.0328
 1817SOL    HW3 7342   2.251   1.828   3.041  1.1801  0.4821 -0.4010
 1817SOL    MW4 7343   2.257   1.904   3.082  0.4611  0.1758  0.3068
 1818SOL     OW 7344   2.463   2.028   2.975 -0.2564  0.4546  0.2328
 1818SOL    HW2 7345   2.548   1.989   2.994 -0.6141 -0.3347  0.2246
 1818SOL    HW3 7346   2.464   2.044   2.880  0.3004  1.4677  0.3963
 1818SOL    MW4 7347   2.474   2.025   2.965 -0.2301  0.4842  0.2534
 1819SOL     OW 7348   2.451   2.296   3.072 -0.5477 -0.4633 -0.2788
 1819SOL    HW2 7349   2.465   2.303   3.166  0.1936 -0.8376 -0.3542
 1819SOL    HW3 7350   2.424   2.205   3.058 -3.5132  0.3380 -0.0957
 1819SOL    MW4 7351   2.449   2.285   3.082 -0.8411 -0.4072 -0.2644
 1820SOL     OW 7352   2.243   2.462   2.998 -0.0762 -0.0623  0.1950
 1820SOL    HW2 7353   2.251   2.548   3.039 -0.5962  0.0667  0.0284
 1820SOL    HW3 7354   2.315   2.411   3.037  0.8474  0.7292 -0.4496
 1820SOL    MW4 7355   2.254   2.467   3.009 -0.0229  0.0591  0.0880
 1821SOL     OW 7356   2.239   2.721   3.105  0.3451 -0.4931 -0.1676
 1821SOL    HW2 7357   2.311   2.750   3.049  0.2169 -1.7302 -0.9946
 1821SOL    HW3 7358   2.161   2.753   3.061  0.3169 -0.3299  0.0031
 1821SOL    MW4 7359   2.239   2.729   3.092  0.3242 -0.6347 -0.2542
 1822SOL     OW 7360   2.467   2.836   2.968  0.2594 -0.7340 -0.0776
 1822SOL    HW2 7361   2.472   2.923   3.008  2.2800 -0.5225 -0.7216
 1822SOL    HW3 7362   2.462   2.854   2.874  1.5620 -1.3058 -0.2681
 1822SOL    MW4 7363   2.467   2.850   2.961  0.6979 -0.7815 -0.1876
 1823SOL     OW 7364   2.446   3.065   3.111 -0.2205 -0.4384  0.3223
 1823SOL    HW2 7365   2.517   3.127   3.097 -0.2258 -0.3750  0.5884
 1823SOL    HW3 7366   2.370   3.105   3.067 -0.3836  0.0423  1.0376
 1823SOL    MW4 7367   2.445   3.078   3.103 -0.2427 -0.3667  0.4520
 1824SOL     OW 7368   2.228   3.213   3.007  0.3656  0.3123 -0.2371
 1824SOL    HW2 7369   2.223   3.297   3.053 -0.1198  0.2583 -0.1925
 1824SOL    HW3 7370   2.148   3.167   3.032 -0.1883  0.5184 -1.6107
 1824SOL    MW4 7371   2.217   3.218   3.016  0.2282  0.3324 -0.4125
 1825SOL     OW 7372   2.229   3.494   3.112 -0.1171  0.5802  0.5566
 1825SOL    HW2 7373   2.306   3.549   3.097 -0.9753  2.0756  1.4032
 1825SOL    HW3 7374   2.155   3.553   3.097 -1.0880 -0.7742 -0.0065
 1825SOL    MW4 7375   2.229   3.509   3.108 -0.3586  0.5987  0.5941
 1826SOL     OW 7376   2.458   3.649   3.067  0.5524  0.0676  0.0712
 1826SOL    HW2 7377   2.544   3.616   3.094 -0.2571 -0.4021  2.1792
 1826SOL    HW3 7378   2.453   3.737   3.105  0.2901  0.2796 -0.4465
 1826SOL    MW4 7379   2.469   3.656   3.076  0.4110  0.0336  0.2811
 1827SOL     OW 7380   2.383   3.918   3.150 -0.4531  0.1691  0.2306
 1827SOL    HW2 7381   2.398   3.893   3.242 -1.7472  1.0103  0.6813
 1827SOL    HW3 7382   2.460   3.971   3.128 -0.0286 -0.2101  0.7594
 1827SOL    MW4 7383   2.395   3.922   3.160 -0.5679  0.2301  0.3598
 1828SOL     OW 7384   2.158   3.985   3.007 -0.1865  0.0706  0.0978
 1828SOL    HW2 7385   2.241   3.958   3.047  0.1057 -0.8038 -1.0529
 1828SOL    HW3 7386   2.091   3.948   3.064  0.2260  0.2125  0.6737
 1828SOL    MW4 7387   2.160   3.976   3.020 -0.0932 -0.0262  0.0222
 1829SOL     OW 7388   2.258   4.246   3.142 -0.0677 -0.1072 -0.0962
 1829SOL    HW2 7389   2.255   4.154   3.117  0.3812  0.4436 -2.2815
 1829SOL    HW3 7390   2.176   4.283   3.110  0.6037  0.6637 -0.9690
 1829SOL    MW4 7391   2.247   4.239   3.134  0.0799  0.0668 -0.4997
 1830SOL     OW 7392   2.451   4.424   3.053 -0.2010  0.7656  0.0940
 1830SOL    HW2 7393   2.373   4.385   3.092  1.0260 -2.5603 -0.6082
 1830SOL    HW3 7394   2.443   4.406   2.960  1.1827  0.7697 -0.0383
 1830SOL    MW4 7395   2.439   4.417   3.046  0.1433  0.3276 -0.0165
 1831SOL     OW 7396   2.902   0.003   3.121  0.1337 -0.2511 -0.8658
 1831SOL    HW2 7397   2.991   0.030   3.099  0.9842 -2.9308 -0.8887
 1831SOL    HW3 7398   2.899  -0.091   3.100 -2.8700 -0.0817 -1.3939
 1831SOL    MW4 7399   2.913  -0.006   3.116 -0.1504 -0.5824 -0.9384
 1832SOL     OW 7400   2.666   0.117   3.010 -0.1225  0.2186 -0.4619
 1832SOL    HW2 7401   2.744   0.064   3.027 -0.2031 -0.0883 -1.0340
 1832SOL    HW3 7402   2.596   0.071   3.056  0.0493  0.5349  0.1141
 1832SOL    MW4 7403   2.667   0.104   3.018 -0.1106  0.2199 -0.4611
 1833SOL     OW 7404   2.685   0.374   3.118 -0.7257 -0.2320 -0.3926
 1833SOL    HW2 7405   2.685   0.291   3.070 -0.1687  0.2983 -1.3218
 1833SOL    HW3 7406   2.606   0.419   3.087 -0.8125 -0.2485 -0.1911
 1833SOL    MW4 7407   2.675   0.369   3.107 -0.6635 -0.1642 -0.4888
 1834SOL     OW 7408   2.930   0.494   3.048 -0.4253 -0.1571  0.1868
 1834SOL    HW2 7409   2.851   0.448   3.077 -0.9033  0.3774 -0.2489
 1834SOL    HW3 7410   2.922   0.496   2.952  0.0648 -0.0095  0.1507
 1834SOL    MW4 7411   2.918   0.488   3.039 -0.4237 -0.0671  0.1247
 1835SOL     OW 7412   2.937   0.777   3.112 -0.1306  0.0988 -0.0980
 1835SOL    HW2 7413   2.928   0.790   3.206  1.1922  1.8821 -0.1799
 1835SOL    HW3 7414   2.938   0.682   3.101 -3.4394 -0.1621  1.3295
 1835SOL    MW4 7415   2.936   0.766   3.123 -0.3927  0.2996  0.0796
 1836SOL     OW 7416   2.710   0.899   3.034 -0.2744  0.4564 -0.1612
 1836SOL    HW2 7417   2.715   0.992   3.059 -0.6846  0.1003  1.2931
 1836SOL    HW3 7418   2.796   0.864   3.058  0.6422  0.9064 -2.6571
 1836SOL    MW4 7419   2.722   0.907   3.041 -0.2074  0.4689 -0.2985
 1837SOL     OW 7420   2.714   1.167   3.109  0.5314 -0.3031  0.0971
 1837SOL    HW2 7421   2.787   1.213   3.068  0.3851 -0.4443 -0.3291
 1837SOL    HW3 7422   2.636   1.204   3.067  0.3707 -0.3346  0.3645
 1837SOL    MW4 7423   2.713   1.178   3.098  0.4911 -0.3259  0.0761
 1838SOL     OW 7424   2.942   1.269   2.981 -0.3947 -0.1244  0.1309
 1838SOL    HW2 7425   3.022   1.243   3.027  0.8575 -0.5963 -2.1982
 1838SOL    HW3 7426   2.929   1.360   3.004  0.4081 -0.2513  1.1165
 1838SOL    MW4 7427   2.951   1.277   2.990 -0.1237 -0.2034 -0.0463
 1839SOL     OW 7428   2.911   1.536   3.044  0.1742 -0.2779 -0.1551
 1839SOL    HW2 7429   2.911   1.528   3.140 -0.2548  1.5274  0.0221
 1839SOL    HW3 7430   2.983   1.596   3.025 -0.6036  0.4388 -0.8529
 1839SOL    MW4 7431   2.920   1.543   3.055  0.0150  0.0548 -0.2239
 1840SOL     OW 7432   2.680   1.669   2.984 -0.0625  0.0120 -0.0609
 1840SOL    HW2 7433   2.766   1.631   3.002  0.3576  1.5258  1.2394
 1840SOL    HW3 7434   2.618   1.607   3.022  0.5694  0.1811  1.2503
 1840SOL    MW4 7435   2.683   1.656   2.991  0.0763  0.2342  0.2837
 1841SOL     OW 7436   2.703   1.926   3.081  0.4644  0.5512 -0.2140
 1841SOL    HW2 7437   2.787   1.967   3.059  0.3092  0.2276 -1.4572
 1841SOL    HW3 7438   2.710   1.837   3.047 -0.4322  0.5660 -0.4551
 1841SOL    MW4 7439   2.715   1.920   3.074  0.3254  0.5105 -0.4098
 1842SOL     OW 7440   2.955   2.057   3.017 -0.5130 -0.3046 -0.1176
 1842SOL    HW2 7441   2.944   2.146   3.049  1.5239 -0.4709  1.1366
 1842SOL    HW3 7442   2.948   2.064   2.922  0.2299  1.2874 -0.0703
 1842SOL    MW4 7443   2.953   2.069   3.009 -0.1464 -0.1166  0.0541
 1843SOL     OW 7444   2.913   2.323   3.084  0.2861  0.0960 -0.1674
 1843SOL    HW2 7445   2.981   2.386   3.062  0.9679 -0.3112  0.7467
 1843SOL    HW3 7446   2.832   2.365   3.056  0.7889  1.1364 -0.0840
 1843SOL    MW4 7447   2.911   2.337   3.078  0.4425  0.1791 -0.0360
 1844SOL     OW 7448   2.674   2.424   2.991 -0.2978 -0.0731 -0.2092
 1844SOL    HW2 7449   2.671   2.511   3.030 -0.3397  0.1246 -0.6488
 1844SOL    HW3 7450   2.595   2.380   3.023 -0.4122  0.1415 -0.1985
 1844SOL    MW4 7451   2.663   2.429   3.000 -0.3185 -0.0184 -0.2656
 1845SOL     OW 7452   2.659   2.674   3.099  0.3194  0.1894 -0.4549
 1845SOL    HW2 7453   2.666   2.707   3.188 -0.1724  0.7091 -0.6030
 1845SOL    HW3 7454   2.594   2.731   3.057 -0.5084 -0.9198 -0.7305
 1845SOL    MW4 7455   2.651   2.686   3.105  0.1452  0.1116 -0.5107
 1846SOL     OW 7456   2.861   2.849   3.014  0.0158 -0.1781  0.0980
 1846SOL    HW2 7457   2.950   2.833   3.046  0.6427 -0.5612 -1.7814
 1846SOL    HW3 7458   2.806   2.794   3.069  1.0583 -0.7638  0.5717
 1846SOL    MW4 7459   2.866   2.840   3.025  0.2358 -0.3059 -0.0875
 1847SOL     OW 7460   2.895   3.111   3.083 -0.0291 -0.1774  0.3542
 1847SOL    HW2 7461   2.816   3.156   3.055  0.6807  0.1953 -1.0817
 1847SOL    HW3 7462   2.885   3.021   3.051  0.2492 -0.0598 -0.0641
 1847SOL    MW4 7463   2.883   3.105   3.075  0.1011 -0.1125  0.1094
 1848SOL     OW 7464   2.652   3.245   3.025 -0.0230  0.2230 -0.0098
 1848SOL    HW2 7465   2.647   3.334   3.061  1.9933  0.3330  0.0148
 1848SOL    HW3 7466   2.646   3.258   2.931 -0.2381  0.3382  0.0182
 1848SOL    MW4 7467   2.650   3.259   3.018  0.2146  0.2527 -0.0031
 1849SOL     OW 7468   2.691   3.505   3.113 -0.3257  0.2793 -0.0644
 1849SOL    HW2 7469   2.709   3.507   3.207 -0.7793 -0.4910  0.0388
 1849SOL    HW3 7470   2.768   3.546   3.073  0.1816 -0.0368  0.5881
 1849SOL    MW4 7471   2.704   3.511   3.120 -0.3185  0.1359  0.0353
 1850SOL     OW 7472   2.922   3.637   3.002 -0.1414 -0.1639 -0.0298
 1850SOL    HW2 7473   3.001   3.610   3.048 -0.1640  0.7502  0.5683
 1850SOL    HW3 7474   2.909   3.728   3.030 -0.9386 -0.0542 -0.7620
 1850SOL    MW4 7475   2.931   3.646   3.012 -0.2496 -0.0286 -0.0477
 1851SOL     OW 7476   2.832   3.893   3.091 -0.0534  0.4131  0.3349
 1851SOL    HW2 7477   2.843   3.882   3.185  0.8518 -2.0835 -0.0159
 1851SOL    HW3 7478   2.744   3.929   3.081 -1.0938 -1.5866  2.0047
 1851SOL    MW4 7479   2.822   3.896   3.102 -0.0713 -0.1800  0.5090
 1852SOL     OW 7480   2.602   4.038   2.995  0.2287  0.3230 -0.0907
 1852SOL    HW2 7481   2.626   4.129   3.015 -1.9445  1.4534 -2.3336
 1852SOL    HW3 7482   2.613   4.031   2.900 -0.8027 -1.3924 -0.0935
 1852SOL    MW4 7483   2.606   4.049   2.985 -0.1943  0.2456 -0.3872
 1853SOL     OW 7484   2.674   4.267   3.143 -0.6614 -0.1951 -0.3504
 1853SOL    HW2 7485   2.680   4.250   3.237 -2.0042 -1.0311 -0.4047
 1853SOL    HW3 7486   2.603   4.331   3.134  0.5665  1.1416 -0.6589
 1853SOL    MW4 7487   2.665   4.273   3.154 -0.6766 -0.1287 -0.3984
 1854SOL     OW 7488   2.894   4.413   3.050  0.4362 -0.3574 -0.1522
 1854SOL    HW2 7489   2.976   4.377   3.084  0.1856 -1.2912 -0.5296
 1854SOL    HW3 7490   2.827   4.351   3.077  0.2352 -1.1431 -2.3560
 1854SOL    MW4 7491   2.896   4.400   3.058  0.3767 -0.5841 -0.4926
 1855SOL     OW 7492   3.373   4.650   3.140  0.3388 -0.1499 -0.4449
 1855SOL    HW2 7493   3.440   4.701   3.096 -1.5866  1.1844 -1.9037
 1855SOL    HW3 7494   3.363   4.571   3.086  0.7193 -0.3471 -0.2292
 1855SOL    MW4 7495   3.380   4.646   3.127  0.1352  0.0002 -0.6087
 1856SOL     OW 7496   3.148   0.112   3.034  0.1530  0.0702  0.7265
 1856SOL    HW2 7497   3.155   0.204   3.056  0.3471 -0.0568  1.2095
 1856SOL    HW3 7498   3.226   0.072   3.072  0.1059 -0.2826  0.4613
 1856SOL    MW4 7499   3.159   0.119   3.042  0.1721  0.0069  0.7553
 1857SOL     OW 7500   3.148   0.371   3.131  0.2320 -0.3426 -0.0965
 1857SOL    HW2 7501   3.224   0.419   3.099 -0.1305  0.4653  0.2416
 1857SOL    HW3 7502   3.073   0.422   3.101 -0.1364 -0.1437  1.1172
 1857SOL    MW4 7503   3.148   0.384   3.123  0.1354 -0.2098  0.1082
 1858SOL     OW 7504   3.370   0.487   3.015  0.0055 -0.1568  0.1603
 1858SOL    HW2 7505   3.454   0.442   3.029 -0.6903 -1.8153 -0.8567
 1858SOL    HW3 7506   3.357   0.483   2.920 -0.3284  1.7681  0.1121
 1858SOL    MW4 7507   3.379   0.481   3.004 -0.1304 -0.1217  0.0203
 1859SOL     OW 7508   3.404   0.751   3.090 -0.2920 -0.1109  0.0483
 1859SOL    HW2 7509   3.383   0.752   3.184  0.5435 -0.2634  0.2501
 1859SOL    HW3 7510   3.410   0.658   3.068 -0.9306 -0.0760 -0.2589
 1859SOL    MW4 7511   3.402   0.739   3.100 -0.2658 -0.1264  0.0343
 1860SOL     OW 7512   3.190   0.889   2.976 -0.0698  0.2100  0.0241
 1860SOL    HW2 7513   3.266   0.834   2.995  0.0371  0.3459 -0.0095
 1860SOL    HW3 7514   3.118   0.848   3.024 -0.4109 -1.0937 -1.5484
 1860SOL    MW4 7515   3.191   0.876   2.985 -0.1006  0.0559 -0.1879
 1861SOL     OW 7516   3.196   1.131   3.096 -0.4781  0.0153  0.1283
 1861SOL    HW2 7517   3.273   1.174   3.059 -1.4037  1.6398  0.0460
 1861SOL    HW3 7518   3.201   1.041   3.064  0.3983  0.5918 -1.4077
 1861SOL    MW4 7519   3.207   1.124   3.087 -0.4847  0.3057 -0.0851
 1862SOL     OW 7520   3.372   1.298   2.992 -0.0901  0.2522 -0.4334
 1862SOL    HW2 7521   3.454   1.266   3.029 -0.4780 -1.8082 -1.2622
 1862SOL    HW3 7522   3.350   1.374   3.045  1.9587  0.3913  0.2860
 1862SOL    MW4 7523   3.380   1.304   3.004  0.1290 -0.0013 -0.4480
 1863SOL     OW 7524   3.341   1.548   3.102  0.0117  0.1050 -0.6190
 1863SOL    HW2 7525   3.350   1.547   3.198  0.0305 -0.4996 -0.6221
 1863SOL    HW3 7526   3.429   1.570   3.070 -0.2739  1.4932 -0.4719
 1863SOL    MW4 7527   3.354   1.551   3.111 -0.0234  0.2085 -0.6003
 1864SOL     OW 7528   3.148   1.646   2.941 -0.1068  0.0287  0.0041
 1864SOL    HW2 7529   3.218   1.602   2.990 -1.4103 -2.4336 -0.2782
 1864SOL    HW3 7530   3.164   1.621   2.850 -0.8216  0.2072 -0.1697
 1864SOL    MW4 7531   3.160   1.637   2.936 -0.3731 -0.2726 -0.0563
 1865SOL     OW 7532   3.181   1.921   3.113 -0.6464  0.0848  0.4479
 1865SOL    HW2 7533   3.180   1.837   3.066 -2.0372  1.0623 -1.3277
 1865SOL    HW3 7534   3.104   1.967   3.081 -0.1777  1.8564  1.7944
 1865SOL    MW4 7535   3.171   1.916   3.102 -0.7679  0.4476  0.3915
 1866SOL     OW 7536   3.404   2.065   3.005  0.2766  0.0699 -0.3109
 1866SOL    HW2 7537   3.481   2.022   3.042 -0.0517  0.9025  1.4429
 1866SOL    HW3 7538   3.330   2.015   3.039 -0.0139  0.3918 -0.4631
 1866SOL    MW4 7539   3.405   2.053   3.015  0.1948  0.2220 -0.0997
 1867SOL     OW 7540   3.338   2.315   3.137 -0.4705  0.1152 -0.0646
 1867SOL    HW2 7541   3.347   2.321   3.233  2.1452  0.3752 -0.3008
 1867SOL    HW3 7542   3.386   2.236   3.113 -1.0329  0.1047 -1.1989
 1867SOL    MW4 7543   3.346   2.306   3.147 -0.1998  0.1483 -0.2451
 1868SOL     OW 7544   3.135   2.476   3.017 -0.1981  0.5148 -0.1706
 1868SOL    HW2 7545   3.205   2.419   3.048  0.3612  1.4037  0.1973
 1868SOL    HW3 7546   3.131   2.459   2.922  0.6343  0.5857 -0.2237
 1868SOL    MW4 7547   3.144   2.466   3.008 -0.0143  0.6416 -0.1290
 1869SOL     OW 7548   3.120   2.751   3.084 -0.4638 -0.2210  0.0705
 1869SOL    HW2 7549   3.133   2.743   3.178  1.9064 -0.7579 -0.2722
 1869SOL    HW3 7550   3.129   2.662   3.050  0.8804  0.2476 -0.8849
 1869SOL    MW4 7551   3.123   2.739   3.092  0.0265 -0.2303 -0.1004
 1870SOL     OW 7552   3.372   2.864   3.008 -0.3656  0.0562  0.2894
 1870SOL    HW2 7553   3.381   2.933   3.073 -1.9353  0.0767  0.5132
 1870SOL    HW3 7554   3.284   2.829   3.023 -0.7166  0.0282 -1.7889
 1870SOL    MW4 7555   3.362   2.868   3.019 -0.6189  0.0556  0.0446
 1871SOL     OW 7556   3.390   3.111   3.130  0.2093  0.3518 -0.1085
 1871SOL    HW2 7557   3.373   3.124   3.223 -0.2506 -1.0062  0.0008
 1871SOL    HW3 7558   3.307   3.133   3.087 -0.7527 -2.5483  0.1212
 1871SOL    MW4 7559   3.377   3.116   3.136  0.0219 -0.2103 -0.0639
 1872SOL     OW 7560   3.137   3.221   3.040  0.5673 -0.7226  0.2905
 1872SOL    HW2 7561   3.046   3.204   3.064 -0.2996  2.0763 -0.8188
 1872SOL    HW3 7562   3.135   3.228   2.944  1.8746 -0.2532  0.2944
 1872SOL    MW4 7563   3.125   3.220   3.030  0.6254 -0.2913  0.1447
 1873SOL     OW 7564   3.139   3.497   3.120  0.8662  0.0237  0.3109
 1873SOL    HW2 7565   3.214   3.540   3.079  0.7362  0.1291  0.1817
 1873SOL    HW3 7566   3.146   3.406   3.092  0.4565  0.2091 -0.4268
 1873SOL    MW4 7567   3.150   3.491   3.111  0.7951  0.0625  0.1965
 1874SOL     OW 7568   3.341   3.656   3.032  0.4466 -0.0189  0.3211
 1874SOL    HW2 7569   3.425   3.621   3.060  1.5152  2.0399 -0.2419
 1874SOL    HW3 7570   3.334   3.741   3.077 -0.4426  0.6792 -1.0938
 1874SOL    MW4 7571   3.351   3.663   3.041  0.4704  0.3450  0.0603
 1875SOL     OW 7572   3.318   3.916   3.126 -0.5566  0.1026 -0.1971
 1875SOL    HW2 7573   3.317   3.910   3.222  0.8219 -0.4622 -0.2040
 1875SOL    HW3 7574   3.238   3.963   3.104 -0.0126  1.7997  1.3412
 1875SOL    MW4 7575   3.307   3.921   3.136 -0.3028  0.2518  0.0050
 1876SOL     OW 7576   3.059   4.032   3.031  0.1088 -0.5779  0.1449
 1876SOL    HW2 7577   2.973   3.993   3.041  0.0284 -0.3081  0.5305
 1876SOL    HW3 7578   3.082   4.017   2.939 -0.4201 -0.4994 -0.0017
 1876SOL    MW4 7579   3.051   4.025   3.020  0.0284 -0.5317  0.1767
 1877SOL     OW 7580   3.126   4.291   3.134 -0.3615 -0.1046  0.3452
 1877SOL    HW2 7581   3.109   4.279   3.227 -0.2232 -0.0138  0.3823
 1877SOL    HW3 7582   3.108   4.206   3.095 -1.3459  0.1156  0.3172
 1877SOL    MW4 7583   3.121   4.278   3.141 -0.4730 -0.0634  0.3462
 1878SOL     OW 7584   3.326   4.406   2.991  0.5087 -0.1851 -0.3678
 1878SOL    HW2 7585   3.398   4.363   3.038 -0.1430  0.1795  1.0157
 1878SOL    HW3 7586   3.248   4.381   3.041 -0.1862  0.3624 -1.1763
 1878SOL    MW4 7587   3.325   4.397   3.004  0.3312 -0.0648 -0.2921
 1879SOL     OW 7588   3.803   4.628   3.167 -0.6428  0.2463 -0.2218
 1879SOL    HW2 7589   3.819   4.540   3.133 -1.1006 -0.2835  0.8976
 1879SOL    HW3 7590   3.741   4.667   3.106 -0.4462 -0.2143 -0.7166
 1879SOL    MW4 7591   3.797   4.621   3.155 -0.6771  0.1154 -0.1392
 1880SOL     OW 7592   3.620   0.106   3.015  0.1990  0.0936  0.2144
 1880SOL    HW2 7593   3.609   0.194   3.052 -1.7753 -0.3874  0.7830
 1880SOL    HW3 7594   3.616   0.119   2.920 -2.1734  0.3712  0.3300
 1880SOL    MW4 7595   3.618   0.119   3.007 -0.3746  0.0667  0.3047
 1881SOL     OW 7596   3.608   0.356   3.096 -0.1409 -0.0200  0.0870
 1881SOL    HW2 7597   3.584   0.356   3.189  0.7206  0.9860  0.3273
 1881SOL    HW3 7598   3.700   0.383   3.095  0.0166 -0.5573 -1.0260
 1881SOL    MW4 7599   3.617   0.360   3.108 -0.0067  0.0418 -0.0281
 1882SOL     OW 7600   3.862   0.464   3.050  0.2282 -0.0086 -0.1753
 1882SOL    HW2 7601   3.931   0.433   3.109  0.3618 -0.5732 -0.6251
 1882SOL    HW3 7602   3.846   0.554   3.077  1.4552  0.2668 -0.3658
 1882SOL    MW4 7603   3.869   0.472   3.062  0.4075 -0.0468 -0.2599
 1883SOL     OW 7604   3.838   0.720   3.130 -0.1127 -0.3533 -0.2692
 1883SOL    HW2 7605   3.846   0.712   3.225  0.3412 -0.0280 -0.2798
 1883SOL    HW3 7606   3.906   0.782   3.105  0.2979 -1.0444 -0.9016
 1883SOL    MW4 7607   3.848   0.727   3.139  0.0014 -0.4016 -0.3541
 1884SOL     OW 7608   3.624   0.880   2.997  0.1940  0.4200  0.4213
 1884SOL    HW2 7609   3.691   0.827   3.040  0.5628  1.1460  0.7479
 1884SOL    HW3 7610   3.541   0.846   3.031  0.4292  0.0339  0.6095
 1884SOL    MW4 7611   3.622   0.869   3.007  0.2735  0.4649  0.4892
 1885SOL     OW 7612   3.589   1.138   3.077 -0.5457 -0.1735  0.0666
 1885SOL    HW2 7613   3.678   1.170   3.068 -0.2323 -0.7701  0.9809
 1885SOL    HW3 7614   3.591   1.051   3.038 -0.6838 -0.2712  0.2815
 1885SOL    MW4 7615   3.601   1.131   3.071 -0.5229 -0.2650  0.2155
 1886SOL     OW 7616   3.835   1.261   3.009 -0.4362  0.0636 -0.0439
 1886SOL    HW2 7617   3.833   1.354   3.033 -0.7081  0.5354 -1.8277
 1886SOL    HW3 7618   3.813   1.260   2.916 -0.6788 -1.8178  0.0187
 1886SOL    MW4 7619   3.832   1.273   3.000 -0.5043 -0.1223 -0.2711
 1887SOL     OW 7620   3.820   1.526   3.092 -0.2608  0.0180 -0.1631
 1887SOL    HW2 7621   3.816   1.515   3.187  0.3037 -0.6623 -0.2204
 1887SOL    HW3 7622   3.736   1.567   3.069 -0.6545 -0.3942  0.5446
 1887SOL    MW4 7623   3.808   1.530   3.102 -0.2384 -0.1262 -0.0775
 1888SOL     OW 7624   3.592   1.661   3.021 -0.8008  0.0919  0.2185
 1888SOL    HW2 7625   3.615   1.746   3.059  1.4127  0.2662 -1.3859
 1888SOL    HW3 7626   3.600   1.674   2.926 -2.3080 -1.4022 -0.1482
 1888SOL    MW4 7627   3.596   1.674   3.013 -0.7076 -0.0823 -0.0415
 1889SOL     OW 7628   3.612   1.944   3.104  0.0296 -0.6220  0.0303
 1889SOL    HW2 7629   3.599   1.953   3.198 -0.7515  0.0804 -0.1321
 1889SOL    HW3 7630   3.685   2.002   3.083  0.8863 -1.5646  0.3499
 1889SOL    MW4 7631   3.620   1.953   3.113  0.0396 -0.6539  0.0510
 1890SOL     OW 7632   3.826   2.089   3.047  0.3639 -0.0525 -0.1636
 1890SOL    HW2 7633   3.817   2.182   3.068 -0.3522 -0.4416  1.3509
 1890SOL    HW3 7634   3.809   2.083   2.953 -2.8446  0.9224  0.3085
 1890SOL    MW4 7635   3.823   2.100   3.038 -0.1540  0.0248  0.0987
 1891SOL     OW 7636   3.808   2.361   3.084  0.8142 -0.4319 -0.1936
 1891SOL    HW2 7637   3.814   2.354   3.180  0.9743 -0.0025 -0.1703
 1891SOL    HW3 7638   3.720   2.395   3.068  1.8690  2.5614 -0.0197
 1891SOL    MW4 7639   3.798   2.365   3.095  0.9744  0.0196 -0.1676
 1892SOL     OW 7640   3.553   2.447   3.003  0.3897 -0.2997  0.3255
 1892SOL    HW2 7641   3.557   2.538   3.034 -1.7298 -0.2298  0.4822
 1892SOL    HW3 7642   3.484   2.407   3.056  0.2487 -1.5748 -0.8087
 1892SOL    MW4 7643   3.544   2.454   3.014  0.0916 -0.4587  0.1967
 1893SOL     OW 7644   3.585   2.719   3.073  0.1792 -0.4266  0.6417
 1893SOL    HW2 7645   3.666   2.767   3.052 -0.0487 -0.6919 -0.8710
 1893SOL    HW3 7646   3.515   2.779   3.050 -0.0859 -0.9729  0.0095
 1893SOL    MW4 7647   3.587   2.733   3.067  0.1142 -0.5336  0.3588
 1894SOL     OW 7648   3.838   2.871   3.018 -0.0200  0.4219  0.0434
 1894SOL    HW2 7649   3.825   2.962   3.041 -1.2943  0.3746 -0.4263
 1894SOL    HW3 7650   3.826   2.868   2.923 -0.2350 -0.2629  0.0841
 1894SOL    MW4 7651   3.834   2.882   3.008 -0.2165  0.3252 -0.0134
 1895SOL     OW 7652   3.816   3.130   3.114  0.4669 -0.3786  0.0238
 1895SOL    HW2 7653   3.888   3.159   3.059  1.3347  0.5387  1.6172
 1895SOL    HW3 7654   3.741   3.182   3.085  0.2510 -1.7772 -2.0651
 1895SOL    MW4 7655   3.816   3.140   3.103  0.5531 -0.4423 -0.0417
 1896SOL     OW 7656   3.605   3.283   3.025 -0.2381  0.1874  0.1072
 1896SOL    HW2 7657   3.536   3.224   3.056 -0.2686 -0.9034 -1.9096
 1896SOL    HW3 7658   3.611   3.264   2.931  0.8263  2.3232 -0.2714
 1896SOL    MW4 7659   3.597   3.273   3.017 -0.1016  0.3254 -0.2091
 1897SOL     OW 7660   3.579   3.544   3.113  0.8516 -0.1485 -0.0423
 1897SOL    HW2 7661   3.663   3.580   3.084 -0.0128  1.8395 -0.1443
 1897SOL    HW3 7662   3.584   3.451   3.091  2.8943  0.0074 -0.3388
 1897SOL    MW4 7663   3.591   3.536   3.107  1.0073  0.1342 -0.0947
 1898SOL     OW 7664   3.828   3.646   3.050 -0.0284 -0.7667  0.0050
 1898SOL    HW2 7665   3.835   3.740   3.069 -0.8116 -0.5958 -0.5097
 1898SOL    HW3 7666   3.815   3.641   2.956 -0.6835 -1.3490  0.1186
 1898SOL    MW4 7667   3.827   3.658   3.040 -0.2182 -0.8211 -0.0479
 1899SOL     OW 7668   3.812   3.922   3.114 -0.2116  0.3085 -0.1891
 1899SOL    HW2 7669   3.817   3.931   3.209 -1.2372  0.9379 -0.1803
 1899SOL    HW3 7670   3.724   3.953   3.092 -0.5368 -1.2664 -1.1861
 1899SOL    MW4 7671   3.801   3.927   3.124 -0.3898  0.1836 -0.3195
 1900SOL     OW 7672   3.577   4.028   3.032 -0.0628 -0.2767 -0.1100
 1900SOL    HW2 7673   3.500   3.981   3.065 -0.5008  0.3003 -0.2870
 1900SOL    HW3 7674   3.560   4.040   2.939 -0.1155  0.5189 -0.0038
 1900SOL    MW4 7675   3.564   4.023   3.024 -0.1276 -0.0958 -0.1192
 1901SOL     OW 7676   3.560   4.303   3.098 -0.2023 -0.2159 -0.3428
 1901SOL    HW2 7677   3.639   4.357   3.098 -0.3912  0.0624  0.5142
 1901SOL    HW3 7678   3.591   4.215   3.078  0.5706 -0.4571  1.8018
 1901SOL    MW4 7679   3.574   4.299   3.095 -0.1252 -0.2108  0.0532
 1902SOL     OW 7680   3.826   4.369   3.069 -0.3427 -0.2945 -0.2887
 1902SOL    HW2 7681   3.900   4.320   3.104 -0.4863 -0.0600  0.3415
 1902SOL    HW3 7682   3.829   4.352   2.975  0.3246 -0.5367 -0.2258
 1902SOL    MW4 7683   3.836   4.360   3.061 -0.2732 -0.2956 -0.1972
 1903SOL     OW 7684   4.255   4.626   3.081 -0.6778  0.4948 -0.5789
 1903SOL    HW2 7685   4.264   4.623   3.176 -3.3261 -1.5898 -0.3471
 1903SOL    HW3 7686   4.250   4.534   3.054 -1.8582  1.0903 -2.5184
 1903SOL    MW4 7687   4.256   4.614   3.090 -1.1826  0.2985 -0.8042
 1904SOL     OW 7688   4.035   0.099   3.024  0.0259 -0.2220  0.2033
 1904SOL    HW2 7689   4.109   0.041   3.045 -0.3863 -0.6948  0.3728
 1904SOL    HW3 7690   3.963   0.065   3.077 -0.1184  0.6999  0.6067
 1904SOL    MW4 7691   4.035   0.087   3.034 -0.0477 -0.1627  0.2789
 1905SOL     OW 7692   4.066   0.323   3.179  0.2308  0.2002 -0.0821
 1905SOL    HW2 7693   4.151   0.358   3.151  0.3753 -0.3256 -0.2879
 1905SOL    HW3 7694   4.052   0.246   3.125  1.3193 -1.8524  2.4377
 1905SOL    MW4 7695   4.075   0.318   3.168  0.3934 -0.1400  0.2232
 1906SOL     OW 7696   4.283   0.474   3.067  0.2364  0.0367  0.1696
 1906SOL    HW2 7697   4.266   0.564   3.095  0.6643  0.5050 -1.0659
 1906SOL    HW3 7698   4.305   0.481   2.974  0.0195 -1.3730  0.0050
 1906SOL    MW4 7699   4.284   0.487   3.059  0.2642 -0.0875 -0.0150
 1907SOL     OW 7700   4.250   0.752   3.112 -0.0900 -0.0420 -0.0486
 1907SOL    HW2 7701   4.178   0.797   3.069 -0.6826 -1.5668 -0.6838
 1907SOL    HW3 7702   4.322   0.815   3.109 -0.8379  0.7884 -1.1048
 1907SOL    MW4 7703   4.250   0.766   3.106 -0.2670 -0.1338 -0.2718
 1908SOL     OW 7704   4.052   0.893   3.002  0.1508  0.0266 -0.1080
 1908SOL    HW2 7705   4.051   0.978   3.046 -0.6520 -0.7079  1.3367
 1908SOL    HW3 7706   4.068   0.914   2.910 -0.8901  1.8128  0.0843
 1908SOL    MW4 7707   4.054   0.907   2.995 -0.0930  0.1654  0.1080
 1909SOL     OW 7708   4.041   1.132   3.129  0.8812 -0.3350 -0.2436
 1909SOL    HW2 7709   4.022   1.145   3.222  0.9066 -0.6714 -0.1873
 1909SOL    HW3 7710   3.970   1.175   3.083  0.3802 -0.9489 -0.0516
 1909SOL    MW4 7711   4.029   1.139   3.135  0.8187 -0.4603 -0.2105
 1910SOL     OW 7712   4.246   1.294   3.059  0.2375 -0.2811  0.4029
 1910SOL    HW2 7713   4.180   1.235   3.095  0.2594  0.1506  1.1439
 1910SOL    HW3 7714   4.231   1.292   2.964 -0.7145 -0.3218  0.5591
 1910SOL    MW4 7715   4.236   1.286   3.051  0.1149 -0.2295  0.5214
 1911SOL     OW 7716   4.269   1.568   3.132 -0.6123  0.4582 -0.3614
 1911SOL    HW2 7717   4.201   1.612   3.082 -1.9502 -0.9867  0.1520
 1911SOL    HW3 7718   4.262   1.476   3.106  1.3332  0.3364 -0.5205
 1911SOL    MW4 7719   4.259   1.562   3.122 -0.5326  0.2515 -0.3147
 1912SOL     OW 7720   4.055   1.690   2.999  0.0527  0.1935 -0.1191
 1912SOL    HW2 7721   4.049   1.774   3.045  1.0668 -0.3672  1.0508
 1912SOL    HW3 7722   3.988   1.635   3.041 -1.0348  0.5922 -1.2945
 1912SOL    MW4 7723   4.045   1.694   3.010  0.0429  0.1723 -0.1199
 1913SOL     OW 7724   4.043   1.937   3.126  0.2968  0.1676 -0.2178
 1913SOL    HW2 7725   4.112   2.004   3.121 -0.8155  1.3449 -0.1043
 1913SOL    HW3 7726   3.964   1.982   3.097 -0.5264 -1.0430  0.1164
 1913SOL    MW4 7727   4.042   1.952   3.121  0.0420  0.1632 -0.1585
 1914SOL     OW 7728   4.283   2.081   3.077 -0.3075 -0.4636  0.3581
 1914SOL    HW2 7729   4.259   2.170   3.102  0.7712 -0.3921  1.1641
 1914SOL    HW3 7730   4.263   2.076   2.983 -0.4257  0.6023  0.3257
 1914SOL    MW4 7731   4.277   2.092   3.068 -0.1807 -0.3135  0.4601
 1915SOL     OW 7732   4.229   2.336   3.157 -0.0265  0.1865 -0.1205
 1915SOL    HW2 7733   4.153   2.379   3.117  0.2761  1.5155  0.7406
 1915SOL    HW3 7734   4.305   2.384   3.125  0.2232  1.3514  2.0890
 1915SOL    MW4 7735   4.229   2.348   3.148  0.0463  0.5159  0.2849
 1916SOL     OW 7736   4.032   2.457   2.978  0.2660 -0.1532  0.0942
 1916SOL    HW2 7737   4.031   2.545   3.015  2.2600  0.1805 -0.5818
 1916SOL    HW3 7738   3.949   2.419   3.004 -0.7996  2.0749  0.0770
 1916SOL    MW4 7739   4.021   2.464   2.986  0.3881  0.1850  0.0026
 1917SOL     OW 7740   4.041   2.705   3.086 -0.0399  0.1649  0.2708
 1917SOL    HW2 7741   4.048   2.703   3.181  1.5284  2.6283  0.2496
 1917SOL    HW3 7742   3.975   2.771   3.067  1.2209  1.2791 -0.3661
 1917SOL    MW4 7743   4.033   2.713   3.096  0.3338  0.6368  0.1838
 1918SOL     OW 7744   4.269   2.871   3.033 -0.1700 -0.3069 -0.2262
 1918SOL    HW2 7745   4.201   2.811   3.066 -0.2690 -1.1922 -1.9917
 1918SOL    HW3 7746   4.345   2.853   3.089 -0.7924 -0.6921  0.5116
 1918SOL    MW4 7747   4.270   2.860   3.045 -0.2651 -0.4747 -0.3619
 1919SOL     OW 7748   4.232   3.128   3.120 -0.1010 -0.1607 -0.8293
 1919SOL    HW2 7749   4.150   3.162   3.082 -1.3441 -0.6348  1.3247
 1919SOL    HW3 7750   4.245   3.044   3.077 -1.2150 -0.4708 -0.5836
 1919SOL    MW4 7751   4.223   3.121   3.109 -0.4115 -0.2642 -0.5126
 1920SOL     OW 7752   4.023   3.235   2.964 -0.5259 -0.3239  0.0682
 1920SOL    HW2 7753   4.027   3.314   3.017 -0.3035 -0.4144  0.1864
 1920SOL    HW3 7754   4.024   3.266   2.874  0.8966 -0.2530  0.0944
 1920SOL    MW4 7755   4.023   3.249   2.959 -0.3095 -0.3264  0.0873
 1921SOL     OW 7756   4.042   3.488   3.080 -0.7131  0.8681 -0.3439
 1921SOL    HW2 7757   4.040   3.500   3.175  0.2890  1.5785 -0.4136
 1921SOL    HW3 7758   3.979   3.553   3.047  0.8284  2.3892 -0.3411
 1921SOL    MW4 7759   4.033   3.498   3.088 -0.3777  1.1625 -0.3526
 1922SOL     OW 7760   4.246   3.647   2.989 -0.3018  0.5189  0.2314
 1922SOL    HW2 7761   4.244   3.723   3.047 -1.8088  0.2371  0.5821
 1922SOL    HW3 7762   4.191   3.582   3.033 -0.0223 -0.3396 -0.6566
 1922SOL    MW4 7763   4.238   3.648   3.002 -0.4640  0.3684  0.1605
 1923SOL     OW 7764   4.269   3.864   3.164  0.0216 -0.0855  0.0188
 1923SOL    HW2 7765   4.197   3.909   3.120  0.2809  0.4924  0.1765
 1923SOL    HW3 7766   4.348   3.895   3.118  0.2662  0.2574  0.6620
 1923SOL    MW4 7767   4.270   3.874   3.152  0.0887  0.0358  0.1247
 1924SOL     OW 7768   4.061   3.999   3.022 -0.1053 -0.3884  0.6412
 1924SOL    HW2 7769   4.074   4.087   3.057  0.9811 -0.8656  1.4719
 1924SOL    HW3 7770   3.976   3.972   3.057  0.0421 -0.0764  1.2517
 1924SOL    MW4 7771   4.052   4.007   3.032  0.0572 -0.4101  0.8314
 1925SOL     OW 7772   4.075   4.240   3.154  0.2763  0.1250 -0.5087
 1925SOL    HW2 7773   4.083   4.266   3.246 -0.6871  0.5520 -0.5420
 1925SOL    HW3 7774   4.144   4.288   3.109 -0.3779  1.2852 -0.2886
 1925SOL    MW4 7775   4.085   4.250   3.160  0.0629  0.3347 -0.4842
 1926SOL     OW 7776   4.295   4.346   3.020 -0.0696 -0.6672  0.0071
 1926SOL    HW2 7777   4.380   4.311   3.047  0.9347  1.2087 -0.6690
 1926SOL    HW3 7778   4.291   4.330   2.926 -0.2107 -0.2422 -0.0618
 1926SOL    MW4 7779   4.305   4.339   3.011  0.0443 -0.3638 -0.0913
 1927SOL     OW 7780   0.193   4.662   3.417 -0.0266  0.0952 -0.2320
 1927SOL    HW2 7781   0.275   4.702   3.445 -1.0806  0.9872  1.6662
 1927SOL    HW3 7782   0.201   4.570   3.444 -0.0557  0.4100  0.8766
 1927SOL    MW4 7783   0.205   4.655   3.424 -0.1695  0.2546  0.1647
 1928SOL     OW 7784   4.463   0.118   3.546 -0.4267  0.0345  0.1785
 1928SOL    HW2 7785   4.461   0.211   3.525 -0.8688 -0.2042 -0.9059
 1928SOL    HW3 7786   4.546   0.087   3.508 -0.3655 -0.0490  0.3798
 1928SOL    MW4 7787   4.474   0.126   3.538 -0.4769 -0.0080  0.0620
 1929SOL     OW 7788   4.483   0.381   3.454 -0.1497 -0.0163 -0.1941
 1929SOL    HW2 7789   4.420   0.437   3.499  0.4868  0.2874  0.3431
 1929SOL    HW3 7790   4.568   0.418   3.478  0.2478 -0.7697 -0.4352
 1929SOL    MW4 7791   4.486   0.393   3.463 -0.0134 -0.0756 -0.1550
 1930SOL     OW 7792   0.231   0.525   3.501  0.0655 -0.4934  0.0497
 1930SOL    HW2 7793   0.307   0.479   3.466  0.6472 -0.9316  1.8315
 1930SOL    HW3 7794   0.228   0.607   3.452  0.5536 -1.2949 -1.3510
 1930SOL    MW4 7795   0.240   0.530   3.490  0.2067 -0.6569  0.0999
 1931SOL     OW 7796   0.205   0.786   3.383 -0.2543  0.1742 -0.4738
 1931SOL    HW2 7797   0.278   0.826   3.430 -0.5678  0.6379 -0.3795
 1931SOL    HW3 7798   0.127   0.820   3.427 -0.5601  0.9596 -1.6087
 1931SOL    MW4 7799   0.204   0.796   3.395 -0.3361  0.3390 -0.6111
 1932SOL     OW 7800   4.468   0.900   3.504 -0.4642  0.6352 -0.0722
 1932SOL    HW2 7801   4.463   0.901   3.600  2.7798 -0.4660  0.1635
 1932SOL    HW3 7802   4.478   0.992   3.479 -0.7545  0.8696  0.6567
 1932SOL    MW4 7803   4.468   0.912   3.513 -0.0744  0.5207  0.0553
 1933SOL     OW 7804   0.030   1.160   3.394 -0.0080 -0.3413 -0.2789
 1933SOL    HW2 7805   0.101   1.205   3.439 -1.5744  0.9558  0.9642
 1933SOL    HW3 7806   0.044   1.179   3.302  0.5567  0.9306  0.0603
 1933SOL    MW4 7807   0.041   1.169   3.388 -0.1402 -0.0024 -0.0703
 1934SOL     OW 7808   0.234   1.299   3.492 -0.0093  0.4890  0.1142
 1934SOL    HW2 7809   0.323   1.270   3.472  0.1404  0.4480  0.8358
 1934SOL    HW3 7810   0.230   1.389   3.459  0.3020  0.4972  0.1044
 1934SOL    MW4 7811   0.245   1.307   3.485  0.0515  0.4847  0.2081
 1935SOL     OW 7812   0.227   1.569   3.379  0.2809 -0.1652  0.1782
 1935SOL    HW2 7813   0.300   1.597   3.434 -0.7045  1.9144  0.4740
 1935SOL    HW3 7814   0.250   1.601   3.291 -0.4312  0.8250  0.3455
 1935SOL    MW4 7815   0.240   1.577   3.374  0.0569  0.2400  0.2394
 1936SOL     OW 7816   4.487   1.684   3.512  0.3299  0.2277 -0.4110
 1936SOL    HW2 7817   4.417   1.627   3.480  1.1575 -0.8291 -0.3645
 1936SOL    HW3 7818   4.565   1.655   3.464  0.8601  0.9647  0.0074
 1936SOL    MW4 7819   4.488   1.672   3.501  0.5093  0.1855 -0.3498
 1937SOL     OW 7820   4.477   1.929   3.423 -0.1322 -0.1396 -0.2050
 1937SOL    HW2 7821   4.491   1.845   3.466  0.6361  0.5514  0.9224
 1937SOL    HW3 7822   4.497   1.913   3.331  2.0313 -0.6906  0.3420
 1937SOL    MW4 7823   4.481   1.916   3.417  0.2546 -0.1212  0.0160
 1938SOL     OW 7824   0.218   2.065   3.484 -0.2554 -0.6818  0.4490
 1938SOL    HW2 7825   0.229   2.049   3.577 -0.2900 -1.7963  0.2638
 1938SOL    HW3 7826   0.133   2.026   3.462  0.8859 -2.6704 -0.5518
 1938SOL    MW4 7827   0.208   2.058   3.493 -0.1094 -1.0912  0.2923
 1939SOL     OW 7828   0.210   2.315   3.366  0.1947 -0.0499  0.2506
 1939SOL    HW2 7829   0.140   2.372   3.397  0.4831 -0.5024  1.7919
 1939SOL    HW3 7830   0.210   2.242   3.428  0.0285 -1.5795 -1.5106
 1939SOL    MW4 7831   0.201   2.313   3.379  0.2109 -0.3114  0.2213
 1940SOL     OW 7832   0.017   2.480   3.458 -0.5333 -0.0794 -0.1572
 1940SOL    HW2 7833   0.040   2.458   3.548 -1.7090  0.6917  0.3541
 1940SOL    HW3 7834  -0.074   2.451   3.449 -0.3463 -0.3565 -1.1692
 1940SOL    MW4 7835   0.008   2.474   3.469 -0.6638 -0.0143 -0.2232
 1941SOL     OW 7836   4.470   2.766   3.414 -0.0624 -0.4759 -0.5320
 1941SOL    HW2 7837   4.555   2.805   3.435 -0.3138 -0.0703 -0.2792
 1941SOL    HW3 7838   4.470   2.682   3.460  0.6797 -1.0094 -1.4728
 1941SOL    MW4 7839   4.481   2.760   3.423  0.0024 -0.4930 -0.6227
 1942SOL     OW 7840   0.229   2.857   3.440  0.3911 -0.1874 -0.9023
 1942SOL    HW2 7841   0.297   2.800   3.406  0.8921  0.1598 -0.4967
 1942SOL    HW3 7842   0.240   2.940   3.394  0.3124 -0.0943 -0.7576
 1942SOL    MW4 7843   0.239   2.861   3.430  0.4468 -0.1295 -0.8295
 1943SOL     OW 7844   0.255   3.133   3.352 -0.3911  0.2935  0.2747
 1943SOL    HW2 7845   0.185   3.186   3.391 -1.2991 -1.0730  0.5142
 1943SOL    HW3 7846   0.234   3.131   3.258 -0.8412 -0.3634  0.3884
 1943SOL    MW4 7847   0.243   3.140   3.345 -0.5703  0.0267  0.3216
 1944SOL     OW 7848   0.058   3.259   3.491  0.0233  0.0399  0.5277
 1944SOL    HW2 7849  -0.027   3.221   3.467 -0.3222  1.3786 -0.4354
 1944SOL    HW3 7850   0.042   3.353   3.491  1.7204  0.3340 -0.4275
 1944SOL    MW4 7851   0.045   3.266   3.488  0.2017  0.2553  0.2747
 1945SOL     OW 7852   0.023   3.526   3.412 -0.8281 -0.3602 -0.2428
 1945SOL    HW2 7853  -0.069   3.539   3.434 -0.5407  1.1159  0.1323
 1945SOL    HW3 7854   0.024   3.518   3.317 -1.0852  2.1662 -0.4937
 1945SOL    MW4 7855   0.011   3.527   3.402 -0.8241  0.1678 -0.2260
 1946SOL     OW 7856   0.252   3.622   3.539  0.3248  0.2176  0.1116
 1946SOL    HW2 7857   0.246   3.642   3.633 -1.6840  0.9528 -0.1500
 1946SOL    HW3 7858   0.165   3.593   3.515  0.0864  2.5761 -2.1060
 1946SOL    MW4 7859   0.240   3.621   3.549  0.0283  0.6258 -0.2153
 1947SOL     OW 7860   0.253   3.891   3.430  0.4407 -0.1261  0.3071
 1947SOL    HW2 7861   0.165   3.910   3.464 -0.2139  0.0547 -1.4095
 1947SOL    HW3 7862   0.266   3.798   3.449 -0.6375 -0.4541 -0.5195
 1947SOL    MW4 7863   0.243   3.881   3.437  0.2121 -0.1452 -0.0286
 1948SOL     OW 7864   0.006   3.982   3.528  0.1032  0.2240  0.3043
 1948SOL    HW2 7865   0.007   4.002   3.622  3.4793 -0.8546  0.5634
 1948SOL    HW3 7866   0.017   4.067   3.486  0.2368  0.5341  0.9556
 1948SOL    MW4 7867   0.008   3.996   3.535  0.5665  0.1225  0.4241
 1949SOL     OW 7868   0.022   4.218   3.403  0.5027 -0.0815 -0.5327
 1949SOL    HW2 7869  -0.055   4.265   3.437  0.3843  0.1564 -1.1368
 1949SOL    HW3 7870   0.096   4.273   3.428  0.4456 -0.0891 -0.3401
 1949SOL    MW4 7871   0.022   4.231   3.411  0.4797 -0.0510 -0.5870
 1950SOL     OW 7872   0.210   4.401   3.471  0.1355  0.7713  0.2348
 1950SOL    HW2 7873   0.205   4.397   3.567 -0.2472  0.4025  0.2017
 1950SOL    HW3 7874   0.295   4.362   3.450 -0.2371 -0.1425  0.3671
 1950SOL    MW4 7875   0.220   4.395   3.481  0.0359  0.6022  0.2480
 1951SOL     OW 7876   0.678   0.009   3.451 -0.2416 -0.5416 -0.1033
 1951SOL    HW2 7877   0.750   0.055   3.493 -0.8330 -0.5591  0.9635
 1951SOL    HW3 7878   0.688   0.027   3.358 -0.1553  1.3039  0.2469
 1951SOL    MW4 7879   0.689   0.018   3.444 -0.3082 -0.3004  0.0834
 1952SOL     OW 7880   0.429   0.104   3.505  0.0407  0.2587  0.0822
 1952SOL    HW2 7881   0.432   0.109   3.601  1.2663 -0.3102  0.0863
 1952SOL    HW3 7882   0.512   0.065   3.481 -0.2552  0.4180 -1.2303
 1952SOL    MW4 7883   0.440   0.100   3.515  0.1633  0.2046 -0.0904
 1953SOL     OW 7884   0.461   0.368   3.394 -0.0129  0.5862  0.3006
 1953SOL    HW2 7885   0.529   0.429   3.423  1.5400  0.5356 -2.9586
 1953SOL    HW3 7886   0.486   0.284   3.432  0.7434  0.9549  0.6134
 1953SOL    MW4 7887   0.473   0.365   3.403  0.2917  0.6281 -0.0882
 1954SOL     OW 7888   0.661   0.534   3.472 -0.0641 -0.2676 -0.0011
 1954SOL    HW2 7889   0.638   0.531   3.565  0.0699 -2.2859  0.0084
 1954SOL    HW3 7890   0.753   0.507   3.469 -0.4980 -1.7519 -0.8172
 1954SOL    MW4 7891   0.670   0.530   3.484 -0.1037 -0.7297 -0.1075
 1955SOL     OW 7892   0.658   0.793   3.369  0.0137  0.5114  0.0018
 1955SOL    HW2 7893   0.586   0.836   3.416 -0.1478  0.3283 -0.0755
 1955SOL    HW3 7894   0.657   0.703   3.402  1.3711  0.9752  1.3464
 1955SOL    MW4 7895   0.648   0.786   3.380  0.1714  0.5484  0.1693
 1956SOL     OW 7896   0.439   0.926   3.506 -0.4201 -0.2657  0.0081
 1956SOL    HW2 7897   0.466   0.934   3.597  0.4627 -0.9533 -0.1859
 1956SOL    HW3 7898   0.453   1.014   3.469  1.2787 -0.5361 -0.0073
 1956SOL    MW4 7899   0.444   0.939   3.513 -0.0795 -0.3920 -0.0193
 1957SOL     OW 7900   0.476   1.174   3.404 -0.1076 -0.3627 -0.7038
 1957SOL    HW2 7901   0.554   1.217   3.440  0.3816 -2.1808  0.4560
 1957SOL    HW3 7902   0.480   1.193   3.310 -0.7236  3.3727 -0.0711
 1957SOL    MW4 7903   0.487   1.182   3.396 -0.1243 -0.1097 -0.4673
 1958SOL     OW 7904   0.697   1.291   3.504  0.5812  0.0369 -0.7080
 1958SOL    HW2 7905   0.771   1.239   3.474 -0.1494 -0.9303 -0.8409
 1958SOL    HW3 7906   0.715   1.379   3.471  0.3719 -0.7528 -2.9676
 1958SOL    MW4 7907   0.709   1.296   3.496  0.4572 -0.1949 -1.0238
 1959SOL     OW 7908   0.676   1.559   3.389  0.7023  0.4002 -0.2533
 1959SOL    HW2 7909   0.747   1.617   3.417  0.0690  1.6969 -1.2839
 1959SOL    HW3 7910   0.597   1.598   3.424  0.1692  0.6800 -1.7343
 1959SOL    MW4 7911   0.675   1.572   3.397  0.5484  0.6082 -0.5846
 1960SOL     OW 7912   0.455   1.658   3.523  0.1277  0.1862  0.0258
 1960SOL    HW2 7913   0.479   1.654   3.615  2.8268 -1.0664 -0.6838
 1960SOL    HW3 7914   0.459   1.752   3.502  2.7871  0.2078  0.4126
 1960SOL    MW4 7915   0.459   1.670   3.532  0.8347  0.0238 -0.0167
 1961SOL     OW 7916   0.444   1.916   3.423  0.0779 -0.1657  0.3845
 1961SOL    HW2 7917   0.359   1.956   3.441  0.3350  0.7796 -0.4414
 1961SOL    HW3 7918   0.450   1.914   3.327  0.6293 -0.9863  0.4311
 1961SOL    MW4 7919   0.434   1.921   3.412  0.1845 -0.1493  0.2816
 1962SOL     OW 7920   0.672   2.074   3.458  0.0283  0.4169  0.4005
 1962SOL    HW2 7921   0.677   2.071   3.554 -1.3665  0.7557  0.4900
 1962SOL    HW3 7922   0.586   2.038   3.437  1.4655 -2.3709 -0.9042
 1962SOL    MW4 7923   0.662   2.069   3.468  0.0338  0.0937  0.2401
 1963SOL     OW 7924   0.661   2.326   3.367 -0.0128 -0.0645 -0.2507
 1963SOL    HW2 7925   0.727   2.365   3.424  0.7018 -0.7421 -0.6078
 1963SOL    HW3 7926   0.658   2.234   3.391  0.4124 -0.3952 -1.4079
 1963SOL    MW4 7927   0.669   2.319   3.377  0.1376 -0.1976 -0.4504
 1964SOL     OW 7928   0.435   2.465   3.462 -0.2307 -0.1998  0.1528
 1964SOL    HW2 7929   0.511   2.424   3.422 -0.4122 -0.4930  0.1079
 1964SOL    HW3 7930   0.360   2.415   3.430 -0.3948 -0.3134  0.6956
 1964SOL    MW4 7931   0.435   2.453   3.453 -0.2763 -0.2534  0.2184
 1965SOL     OW 7932   0.439   2.705   3.363  0.0096 -0.2726  0.5882
 1965SOL    HW2 7933   0.427   2.615   3.394 -0.5508 -0.2272  0.5156
 1965SOL    HW3 7934   0.460   2.695   3.270 -1.3896 -0.2809  0.2534
 1965SOL    MW4 7935   0.440   2.691   3.355 -0.2489 -0.2677  0.5341
 1966SOL     OW 7936   0.680   2.824   3.442  0.1211 -0.1903 -0.2318
 1966SOL    HW2 7937   0.744   2.761   3.408 -1.2284 -2.0100  0.5352
 1966SOL    HW3 7938   0.595   2.789   3.416 -0.6637  1.2325  0.3658
 1966SOL    MW4 7939   0.677   2.811   3.434 -0.1605 -0.2427 -0.0517
 1967SOL     OW 7940   0.707   3.103   3.401 -0.4839 -0.3734 -0.2196
 1967SOL    HW2 7941   0.627   3.148   3.429 -0.6119  0.1994 -1.4695
 1967SOL    HW3 7942   0.686   3.010   3.410 -1.2625 -0.2270 -0.4502
 1967SOL    MW4 7943   0.694   3.097   3.406 -0.6035 -0.2782 -0.4151
 1968SOL     OW 7944   0.477   3.247   3.471  0.1101  0.2045 -0.0231
 1968SOL    HW2 7945   0.454   3.258   3.564  1.8010  0.4570  0.3705
 1968SOL    HW3 7946   0.400   3.204   3.433 -0.1979 -0.8254  1.6947
 1968SOL    MW4 7947   0.464   3.243   3.478  0.2926  0.1020  0.2556
 1969SOL     OW 7948   0.445   3.509   3.388 -0.4591  0.1494  0.2644
 1969SOL    HW2 7949   0.462   3.420   3.416 -1.0776  0.2162  0.8528
 1969SOL    HW3 7950   0.377   3.541   3.447  0.6074  1.4139  0.8273
 1969SOL    MW4 7951   0.438   3.502   3.399 -0.4000  0.3250  0.4163
 1970SOL     OW 7952   0.672   3.626   3.527 -0.2706 -0.6295 -0.0160
 1970SOL    HW2 7953   0.745   3.581   3.486  0.2648 -0.3882  0.6691
 1970SOL    HW3 7954   0.594   3.591   3.483  0.2740 -0.6305 -0.9825
 1970SOL    MW4 7955   0.671   3.616   3.515 -0.1281 -0.5980 -0.0529
 1971SOL     OW 7956   0.674   3.889   3.394  0.5550  0.0219 -0.0810
 1971SOL    HW2 7957   0.605   3.937   3.440  1.3380  0.0157  1.1518
 1971SOL    HW3 7958   0.672   3.802   3.433 -0.9236 -1.0188 -2.3786
 1971SOL    MW4 7959   0.665   3.884   3.405  0.4632 -0.1161 -0.2217
 1972SOL     OW 7960   0.476   4.037   3.522  0.3723 -0.4515  0.3622
 1972SOL    HW2 7961   0.465   4.125   3.486  1.0255 -0.3260  0.4563
 1972SOL    HW3 7962   0.394   3.993   3.504  1.3094 -0.9783 -2.8593
 1972SOL    MW4 7963   0.464   4.043   3.515  0.5822 -0.5045 -0.0503
 1973SOL     OW 7964   0.452   4.275   3.372 -0.2747  0.6144  0.1385
 1973SOL    HW2 7965   0.524   4.330   3.404 -0.3063  0.5666  0.2923
 1973SOL    HW3 7966   0.467   4.268   3.277  0.2670  0.1117  0.2548
 1973SOL    MW4 7967   0.463   4.281   3.363 -0.2074  0.5412  0.1743
 1974SOL     OW 7968   0.682   4.404   3.486  0.3663 -0.5139 -0.0574
 1974SOL    HW2 7969   0.769   4.370   3.464 -0.5274 -1.6709 -1.9289
 1974SOL    HW3 7970   0.689   4.498   3.471  1.8266 -0.3056  1.6820
 1974SOL    MW4 7971   0.694   4.412   3.481  0.4411 -0.6390 -0.0749
 1975SOL     OW 7972   1.126   4.657   3.444 -0.3079 -0.6403  0.0213
 1975SOL    HW2 7973   1.206   4.699   3.473 -0.0357 -1.6392  0.7698
 1975SOL    HW3 7974   1.132   4.656   3.349  0.1947  0.0080  0.0469
 1975SOL    MW4 7975   1.137   4.662   3.436 -0.2055 -0.6862  0.1233
 1976SOL     OW 7976   0.909   0.155   3.498  0.1562  0.3095 -0.1228
 1976SOL    HW2 7977   0.913   0.147   3.593 -1.8574 -0.2327 -0.0454
 1976SOL    HW3 7978   0.984   0.105   3.466  1.1353  0.9126  1.1804
 1976SOL    MW4 7979   0.919   0.147   3.506  0.0197  0.3175  0.0591
 1977SOL     OW 7980   0.908   0.425   3.421  0.2734  0.8743 -0.5011
 1977SOL    HW2 7981   0.992   0.456   3.454  0.6719  0.2468 -0.9194
 1977SOL    HW3 7982   0.897   0.338   3.459 -0.4360  1.1650 -0.0238
 1977SOL    MW4 7983   0.917   0.418   3.430  0.2324  0.8299 -0.4933
 1978SOL     OW 7984   1.144   0.529   3.559  0.2231 -0.1666 -0.0485
 1978SOL    HW2 7985   1.122   0.542   3.652 -1.9623 -1.6220 -0.3235
 1978SOL    HW3 7986   1.116   0.611   3.517  1.1505  0.4688  0.5510
 1978SOL    MW4 7987   1.137   0.542   3.566  0.0571 -0.2748 -0.0057
 1979SOL     OW 7988   1.107   0.774   3.419 -0.1863  0.0099 -0.8518
 1979SOL    HW2 7989   1.184   0.823   3.448 -0.2138  0.4162 -1.4747
 1979SOL    HW3 7990   1.034   0.812   3.468  0.1204 -0.9523  0.3964
 1979SOL    MW4 7991   1.108   0.785   3.429 -0.1494 -0.0635 -0.7691
 1980SOL     OW 7992   0.865   0.892   3.525 -0.1050 -0.4681  0.0646
 1980SOL    HW2 7993   0.888   0.975   3.483  0.2988 -0.3073  0.6066
 1980SOL    HW3 7994   0.793   0.858   3.471  0.3942 -0.2558 -0.7431
 1980SOL    MW4 7995   0.858   0.899   3.512  0.0142 -0.4188  0.0298
 1981SOL     OW 7996   0.920   1.128   3.390 -0.2288 -0.1277 -0.5091
 1981SOL    HW2 7997   0.998   1.173   3.422  0.8032 -1.7229 -0.6786
 1981SOL    HW3 7998   0.923   1.138   3.295 -1.1776  1.2715 -0.4070
 1981SOL    MW4 7999   0.931   1.135   3.382 -0.2179 -0.1534 -0.5181
 1982SOL     OW 8000   1.101   1.290   3.522  0.2812 -0.1345 -0.3099
 1982SOL    HW2 8001   1.136   1.307   3.610  0.0488  0.3292 -0.3037
 1982SOL    HW3 8002   1.103   1.375   3.479 -1.1542 -0.0327 -0.1955
 1982SOL    MW4 8003   1.106   1.303   3.528  0.0613 -0.0598 -0.2937
 1983SOL     OW 8004   1.111   1.527   3.370 -0.6592  0.3524  0.4574
 1983SOL    HW2 8005   1.184   1.570   3.415 -1.9949  2.4426  0.6897
 1983SOL    HW3 8006   1.122   1.550   3.278 -0.5431 -0.0612  0.3665
 1983SOL    MW4 8007   1.122   1.535   3.364 -0.8200  0.5735  0.4761
 1984SOL     OW 8008   0.911   1.676   3.491  0.0680  0.0536  0.3076
 1984SOL    HW2 8009   0.915   1.760   3.446 -0.1691 -0.2115 -0.2078
 1984SOL    HW3 8010   0.973   1.621   3.444 -0.8875 -0.5096 -0.2959
 1984SOL    MW4 8011   0.920   1.680   3.479 -0.0894 -0.0557  0.1597
 1985SOL     OW 8012   0.894   1.929   3.353 -0.2003 -0.1483 -0.2591
 1985SOL    HW2 8013   0.970   1.970   3.394 -0.3652  0.2561 -0.3530
 1985SOL    HW3 8014   0.819   1.972   3.394 -0.3621  1.1011 -1.8141
 1985SOL    MW4 8015   0.894   1.940   3.364 -0.2434  0.0700 -0.4766
 1986SOL     OW 8016   1.118   2.022   3.486 -0.3687 -0.1968  0.7621
 1986SOL    HW2 8017   1.199   1.989   3.448 -0.5761 -0.0177  0.1649
 1986SOL    HW3 8018   1.122   2.117   3.472  0.7442  0.2106  3.4368
 1986SOL    MW4 8019   1.129   2.030   3.479 -0.2493 -0.1194  1.0362
 1987SOL     OW 8020   1.109   2.291   3.415 -0.2935 -0.1700  0.1101
 1987SOL    HW2 8021   1.185   2.341   3.446 -0.5001 -0.2520  0.7530
 1987SOL    HW3 8022   1.114   2.298   3.320  0.9423 -0.7937  0.1208
 1987SOL    MW4 8023   1.120   2.299   3.407 -0.1576 -0.2630  0.1965
 1988SOL     OW 8024   0.877   2.412   3.511 -0.0251 -0.6850  0.2638
 1988SOL    HW2 8025   0.900   2.424   3.604  0.8869  1.4159 -0.1844
 1988SOL    HW3 8026   0.948   2.359   3.476 -0.3036 -1.3774  0.7254
 1988SOL    MW4 8027   0.889   2.407   3.519  0.0585 -0.4992  0.2656
 1989SOL     OW 8028   0.895   2.659   3.370 -0.4691 -0.1674 -0.0249
 1989SOL    HW2 8029   0.970   2.713   3.395 -0.4031 -0.7278  1.0113
 1989SOL    HW3 8030   0.913   2.573   3.407 -0.7709 -0.8098 -1.3244
 1989SOL    MW4 8031   0.907   2.655   3.378 -0.5001 -0.3262 -0.0596
 1990SOL     OW 8032   1.106   2.805   3.447 -0.0830  0.3806  0.3139
 1990SOL    HW2 8033   1.116   2.813   3.542  1.2247  1.5158  0.1038
 1990SOL    HW3 8034   1.192   2.772   3.417  0.1367  1.7908 -0.6579
 1990SOL    MW4 8035   1.119   2.802   3.455  0.1186  0.7164  0.1576
 1991SOL     OW 8036   1.153   3.066   3.375 -0.4104 -0.4530 -0.0436
 1991SOL    HW2 8037   1.126   2.979   3.403  1.2356 -1.6169 -1.9022
 1991SOL    HW3 8038   1.171   3.056   3.281 -0.1480  1.8793 -0.2706
 1991SOL    MW4 8039   1.152   3.054   3.366 -0.1585 -0.2990 -0.3185
 1992SOL     OW 8040   0.935   3.232   3.511 -0.0262 -0.2984  0.2561
 1992SOL    HW2 8041   1.007   3.178   3.477 -0.6562 -1.6249  0.9696
 1992SOL    HW3 8042   0.856   3.190   3.476 -0.4668  1.1199 -0.4835
 1992SOL    MW4 8043   0.934   3.219   3.502 -0.1675 -0.2863  0.2525
 1993SOL     OW 8044   0.874   3.486   3.406  0.2858  0.1833  0.3301
 1993SOL    HW2 8045   0.892   3.401   3.445 -0.4016 -0.3991 -0.6131
 1993SOL    HW3 8046   0.859   3.468   3.313 -1.0334  1.1708  0.3366
 1993SOL    MW4 8047   0.874   3.473   3.399  0.0210  0.2370  0.2067
 1994SOL     OW 8048   1.102   3.616   3.508  0.1592  0.2390  0.2162
 1994SOL    HW2 8049   1.095   3.605   3.603  1.2886 -1.2742  0.1423
 1994SOL    HW3 8050   1.018   3.586   3.474  0.7104 -1.7250  0.5442
 1994SOL    MW4 8051   1.090   3.611   3.516  0.3809 -0.2198  0.2496
 1995SOL     OW 8052   1.154   3.850   3.363 -0.2581 -0.2244 -0.3893
 1995SOL    HW2 8053   1.214   3.910   3.407  0.0671  0.7889 -2.1638
 1995SOL    HW3 8054   1.150   3.774   3.420  1.3105  0.4420  0.6418
 1995SOL    MW4 8055   1.161   3.848   3.376 -0.0082 -0.0029 -0.4876
 1996SOL     OW 8056   0.917   3.967   3.462 -0.3356  0.3272  0.1815
 1996SOL    HW2 8057   0.980   3.904   3.426 -0.8855 -0.2502  0.2074
 1996SOL    HW3 8058   0.832   3.939   3.426 -0.6844  0.6065  0.7765
 1996SOL    MW4 8059   0.914   3.955   3.453 -0.4542  0.2878  0.2635
 1997SOL     OW 8060   0.919   4.252   3.422 -0.0452  0.0978 -0.2605
 1997SOL    HW2 8061   0.919   4.162   3.455  1.7905 -0.1392 -0.8136
 1997SOL    HW3 8062   0.900   4.243   3.329 -1.7334  0.4635  0.0322
 1997SOL    MW4 8063   0.917   4.239   3.414 -0.0258  0.1149 -0.2949
 1998SOL     OW 8064   1.151   4.377   3.498  0.2651  0.3050 -0.1918
 1998SOL    HW2 8065   1.074   4.328   3.471  0.7027  0.7857 -2.4491
 1998SOL    HW3 8066   1.132   4.468   3.474  2.0760  0.2201 -2.1222
 1998SOL    MW4 8067   1.138   4.383   3.491  0.5618  0.3572 -0.7443
 1999SOL     OW 8068   1.597   4.634   3.386 -0.1001 -0.0926  0.3735
 1999SOL    HW2 8069   1.588   4.548   3.426 -0.5455 -1.0047 -1.6068
 1999SOL    HW3 8070   1.529   4.687   3.427 -0.6301 -1.0326  0.7191
 1999SOL    MW4 8071   1.587   4.629   3.397 -0.2289 -0.3366  0.1578
 2000SOL     OW 8072   1.360   0.122   3.505 -0.6116 -0.1210 -0.1629
 2000SOL    HW2 8073   1.363   0.143   3.598  1.0300 -0.5832 -0.0976
 2000SOL    HW3 8074   1.340   0.206   3.462  0.3939  0.4539  0.4757
 2000SOL    MW4 8075   1.358   0.136   3.512 -0.2624 -0.1061 -0.0701
 2001SOL     OW 8076   1.357   0.421   3.428 -0.3876 -0.2030  0.2530
 2001SOL    HW2 8077   1.428   0.481   3.452  0.6686 -1.8177  1.2407
 2001SOL    HW3 8078   1.280   0.457   3.472  0.0319  0.9634  0.0596
 2001SOL    MW4 8079   1.356   0.434   3.437 -0.1930 -0.2622  0.3579
 2002SOL     OW 8080   1.588   0.559   3.500  0.1391 -0.3525  0.0345
 2002SOL    HW2 8081   1.589   0.533   3.592  1.2558 -0.8003 -0.0973
 2002SOL    HW3 8082   1.653   0.503   3.458  0.7270  0.8749 -0.7401
 2002SOL    MW4 8083   1.596   0.548   3.507  0.3639 -0.2497 -0.0854
 2003SOL     OW 8084   1.573   0.811   3.371  0.0997  0.0011 -0.2162
 2003SOL    HW2 8085   1.501   0.854   3.418 -1.1415 -0.3278 -1.7918
 2003SOL    HW3 8086   1.571   0.720   3.402 -1.3801 -0.4669 -1.6638
 2003SOL    MW4 8087   1.563   0.805   3.381 -0.2593 -0.1040 -0.6151
 2004SOL     OW 8088   1.336   0.911   3.507 -0.0492 -0.0349  0.0101
 2004SOL    HW2 8089   1.346   0.928   3.600  0.5165  0.5651 -0.1569
 2004SOL    HW3 8090   1.325   0.997   3.468 -2.8919 -0.4213 -0.1939
 2004SOL    MW4 8091   1.336   0.924   3.514 -0.3495 -0.0067 -0.0386
 2005SOL     OW 8092   1.307   1.160   3.390  0.0304 -0.7801  0.1137
 2005SOL    HW2 8093   1.390   1.195   3.420  0.5587 -0.9579 -1.0874
 2005SOL    HW3 8094   1.241   1.203   3.444  0.8730 -0.2499  0.7210
 2005SOL    MW4 8095   1.309   1.171   3.401  0.2112 -0.7335  0.0353
 2006SOL     OW 8096   1.533   1.259   3.516 -0.2649  0.1979  0.5181
 2006SOL    HW2 8097   1.538   1.264   3.611 -0.7728  0.9424  0.5112
 2006SOL    HW3 8098   1.616   1.219   3.489 -0.9186 -1.7742  1.3942
 2006SOL    MW4 8099   1.545   1.254   3.525 -0.4184  0.0359  0.6328
 2007SOL     OW 8100   1.614   1.535   3.451  0.2559  0.0803 -0.1865
 2007SOL    HW2 8101   1.610   1.440   3.460  0.1494  0.0229 -0.8728
 2007SOL    HW3 8102   1.583   1.553   3.362 -0.0005  0.7770  0.0395
 2007SOL    MW4 8103   1.610   1.525   3.441  0.2079  0.1646 -0.2470
 2008SOL     OW 8104   1.357   1.624   3.473  0.5893 -0.0764  0.2645
 2008SOL    HW2 8105   1.352   1.637   3.568  2.4343 -2.3071  0.7189
 2008SOL    HW3 8106   1.443   1.582   3.459 -0.9794 -2.7246 -1.9900
 2008SOL    MW4 8107   1.368   1.620   3.484  0.6258 -0.7203  0.0272
 2009SOL     OW 8108   1.361   1.882   3.377 -0.3133 -0.0992  0.5769
 2009SOL    HW2 8109   1.423   1.933   3.429 -0.1323  0.4324 -0.1547
 2009SOL    HW3 8110   1.363   1.795   3.417 -0.3347  0.3507  1.5894
 2009SOL    MW4 8111   1.370   1.877   3.389 -0.2922  0.0303  0.6142
 2010SOL     OW 8112   1.571   2.000   3.512 -0.0975  0.1840  0.7052
 2010SOL    HW2 8113   1.652   1.964   3.475 -0.5069 -0.3717  0.3348
 2010SOL    HW3 8114   1.567   2.089   3.478 -1.2414 -0.8065 -1.8662
 2010SOL    MW4 8115   1.581   2.007   3.502 -0.3026 -0.0200  0.3171
 2011SOL     OW 8116   1.559   2.278   3.434 -0.4965  0.0043 -0.1373
 2011SOL    HW2 8117   1.489   2.342   3.445 -0.1117  0.7418 -1.8525
 2011SOL    HW3 8118   1.571   2.271   3.339  1.3831 -0.4971  0.1124
 2011SOL    MW4 8119   1.551   2.286   3.423 -0.1978  0.0355 -0.3307
 2012SOL     OW 8120   1.332   2.438   3.491  0.1434  0.2252  0.4893
 2012SOL    HW2 8121   1.330   2.457   3.585  2.3355 -1.0326  0.8214
 2012SOL    HW3 8122   1.326   2.524   3.449 -0.5517  0.8207  1.7696
 2012SOL    MW4 8123   1.331   2.452   3.498  0.3408  0.1376  0.7021
 2013SOL     OW 8124   1.331   2.664   3.351  0.0367 -0.2129 -0.2985
 2013SOL    HW2 8125   1.410   2.701   3.391 -0.5646  1.7098 -0.8474
 2013SOL    HW3 8126   1.346   2.673   3.257 -0.3818 -0.8357 -0.4255
 2013SOL    MW4 8127   1.343   2.670   3.344 -0.0979 -0.0412 -0.3874
 2014SOL     OW 8128   1.540   2.806   3.449 -0.2669 -0.0881  0.2751
 2014SOL    HW2 8129   1.626   2.771   3.428  0.2820  1.2740  0.1762
 2014SOL    HW3 8130   1.544   2.898   3.422 -1.3704  0.2803  1.2971
 2014SOL    MW4 8131   1.552   2.814   3.443 -0.3402  0.1402  0.3970
 2015SOL     OW 8132   1.570   3.066   3.350  0.5571  0.0049  0.0811
 2015SOL    HW2 8133   1.644   3.122   3.375  0.6241 -0.2644  0.4932
 2015SOL    HW3 8134   1.493   3.111   3.384  0.2654  1.5421 -2.4509
 2015SOL    MW4 8135   1.569   3.080   3.358  0.5275  0.1721 -0.1986
 2016SOL     OW 8136   1.366   3.217   3.480  0.5713  0.5245 -0.0289
 2016SOL    HW2 8137   1.366   3.222   3.576 -0.6495  0.7297 -0.0245
 2016SOL    HW3 8138   1.288   3.166   3.459  0.2030  1.4400 -0.9503
 2016SOL    MW4 8139   1.355   3.211   3.490  0.3617  0.6726 -0.1497
 2017SOL     OW 8140   1.341   3.491   3.400  0.2855 -0.1673  0.2142
 2017SOL    HW2 8141   1.368   3.404   3.430 -0.4927 -0.4362  0.1413
 2017SOL    HW3 8142   1.262   3.510   3.450  0.5475  0.5765  0.3556
 2017SOL    MW4 8143   1.334   3.482   3.411  0.2174 -0.1044  0.2232
 2018SOL     OW 8144   1.573   3.594   3.481 -0.1961 -0.2731 -0.2183
 2018SOL    HW2 8145   1.568   3.588   3.577 -1.4710 -0.6311 -0.2901
 2018SOL    HW3 8146   1.488   3.560   3.451  0.6656 -1.3068 -1.5331
 2018SOL    MW4 8147   1.561   3.589   3.490 -0.2506 -0.4566 -0.4010
 2019SOL     OW 8148   1.595   3.869   3.391 -0.0923 -0.2894  0.5778
 2019SOL    HW2 8149   1.570   3.782   3.421 -1.8887 -0.0903 -0.2413
 2019SOL    HW3 8150   1.555   3.877   3.304  1.2131  0.8316  0.0603
 2019SOL    MW4 8151   1.586   3.859   3.383 -0.1572 -0.1154  0.4015
 2020SOL     OW 8152   1.354   3.998   3.482  0.0470  0.3464  0.6850
 2020SOL    HW2 8153   1.357   4.087   3.448  0.1537  0.6145  1.3847
 2020SOL    HW3 8154   1.437   3.958   3.455  0.0912  0.5296  0.5535
 2020SOL    MW4 8155   1.365   4.004   3.474  0.0669  0.4058  0.7598
 2021SOL     OW 8156   1.383   4.266   3.388  0.1435  0.2500 -0.1783
 2021SOL    HW2 8157   1.309   4.315   3.424 -0.0960  1.0978 -1.7872
 2021SOL    HW3 8158   1.365   4.259   3.294  1.6913 -0.2365 -0.4624
 2021SOL    MW4 8159   1.371   4.272   3.380  0.3161  0.2980 -0.4277
 2022SOL     OW 8160   1.579   4.395   3.520 -0.2364 -0.2403 -0.4935
 2022SOL    HW2 8161   1.648   4.341   3.482 -0.5780 -0.3886 -0.9104
 2022SOL    HW3 8162   1.498   4.363   3.480 -0.4227  0.7063 -0.9045
 2022SOL    MW4 8163   1.577   4.384   3.509 -0.3061 -0.1349 -0.6030
 2023SOL     OW 8164   2.038   4.617   3.368  0.5051  0.0016  0.3703
 2023SOL    HW2 8165   2.124   4.654   3.391  0.5394 -0.0387  0.3081
 2023SOL    HW3 8166   1.975   4.671   3.416  0.6011 -0.3277  0.8720
 2023SOL    MW4 8167   2.041   4.629   3.378  0.5224 -0.0472  0.4284
 2024SOL     OW 8168   1.829   0.096   3.478  0.1149 -0.3045 -0.0768
 2024SOL    HW2 8169   1.819   0.114   3.572 -1.1247  1.1045 -0.4616
 2024SOL    HW3 8170   1.748   0.051   3.454  0.0694  0.0757 -0.6375
 2024SOL    MW4 8171   1.817   0.093   3.488 -0.0546 -0.0684 -0.2015
 2025SOL     OW 8172   1.774   0.374   3.417  0.4121  0.5378  0.3443
 2025SOL    HW2 8173   1.794   0.286   3.451 -0.2814  0.0485 -0.5010
 2025SOL    HW3 8174   1.788   0.366   3.323 -1.5362  0.8074  0.0254
 2025SOL    MW4 8175   1.779   0.361   3.409  0.0635  0.5088  0.1910
 2026SOL     OW 8176   2.006   0.508   3.543 -0.3331 -0.2825 -0.0288
 2026SOL    HW2 8177   2.001   0.594   3.502 -2.2729  0.5495  1.8461
 2026SOL    HW3 8178   1.935   0.458   3.503  0.0010 -0.5969 -0.2250
 2026SOL    MW4 8179   1.996   0.513   3.532 -0.5450 -0.2142  0.1926
 2027SOL     OW 8180   2.027   0.743   3.387  0.3972 -0.2156  0.2049
 2027SOL    HW2 8181   2.092   0.802   3.425 -1.3238  1.3402  0.8505
 2027SOL    HW3 8182   2.036   0.753   3.293 -0.1667  1.4603  0.3105
 2027SOL    MW4 8183   2.037   0.752   3.380  0.0954  0.2108  0.3042
 2028SOL     OW 8184   1.799   0.872   3.537 -0.4691 -0.3166  0.0830
 2028SOL    HW2 8185   1.881   0.847   3.495 -0.0590 -0.9171  1.2276
 2028SOL    HW3 8186   1.731   0.835   3.480  0.0443 -0.1891 -0.6287
 2028SOL    MW4 8187   1.800   0.864   3.524 -0.3473 -0.3790  0.1402
 2029SOL     OW 8188   1.767   1.142   3.423  0.3158 -0.1670 -0.0304
 2029SOL    HW2 8189   1.845   1.189   3.453  0.2646  0.0961 -0.3118
 2029SOL    HW3 8190   1.770   1.059   3.470 -0.1534  0.5388  1.2731
 2029SOL    MW4 8191   1.778   1.137   3.433  0.2472 -0.0391  0.1047
 2030SOL     OW 8192   1.999   1.276   3.510  0.2992  0.1310 -0.1495
 2030SOL    HW2 8193   2.021   1.286   3.603 -0.2709 -0.8603  0.1076
 2030SOL    HW3 8194   2.012   1.363   3.472  1.7051  0.2716  0.6096
 2030SOL    MW4 8195   2.004   1.288   3.518  0.4096  0.0187 -0.0155
 2031SOL     OW 8196   2.018   1.542   3.385  0.0695 -0.1899  0.0195
 2031SOL    HW2 8197   2.105   1.573   3.408 -0.6455  1.7462  0.1516
 2031SOL    HW3 8198   1.959   1.587   3.445 -1.0260 -1.5645  0.0119
 2031SOL    MW4 8199   2.021   1.552   3.396 -0.1695 -0.1156  0.0360
 2032SOL     OW 8200   1.824   1.668   3.541  0.1328 -0.3726  0.1821
 2032SOL    HW2 8201   1.815   1.750   3.494  2.8864 -0.3995 -0.4996
 2032SOL    HW3 8202   1.751   1.614   3.510  0.0326  0.7620 -1.6343
 2032SOL    MW4 8203   1.813   1.672   3.530  0.4828 -0.2264 -0.1473
 2033SOL     OW 8204   1.827   1.916   3.408  0.1862 -0.3001  0.6144
 2033SOL    HW2 8205   1.898   1.970   3.445 -0.3086  0.7781 -0.0124
 2033SOL    HW3 8206   1.819   1.945   3.318 -0.4677 -1.0461  0.4295
 2033SOL    MW4 8207   1.836   1.927   3.401  0.0346 -0.2562  0.5076
 2034SOL     OW 8208   2.030   2.074   3.526 -0.0924 -0.1088 -0.1718
 2034SOL    HW2 8209   2.103   2.040   3.474 -0.0231 -1.0841  0.5512
 2034SOL    HW3 8210   2.011   2.160   3.488  0.6055 -0.3922 -1.1682
 2034SOL    MW4 8211   2.037   2.081   3.514  0.0088 -0.2751 -0.2079
 2035SOL     OW 8212   2.005   2.322   3.417 -0.3596  0.6931  0.5491
 2035SOL    HW2 8213   2.082   2.365   3.455 -0.6308  1.8323 -0.1500
 2035SOL    HW3 8214   2.025   2.315   3.324 -0.4154 -0.5111  0.6293
 2035SOL    MW4 8215   2.018   2.327   3.410 -0.4027  0.6845  0.4675
 2036SOL     OW 8216   1.764   2.441   3.489 -0.0334 -0.4002  0.1583
 2036SOL    HW2 8217   1.843   2.400   3.455  0.3409 -0.3680  0.9795
 2036SOL    HW3 8218   1.695   2.377   3.474  0.2712 -0.7015  0.0523
 2036SOL    MW4 8219   1.765   2.427   3.482  0.0563 -0.4356  0.2527
 2037SOL     OW 8220   1.778   2.690   3.373  0.3972 -0.4264  0.3021
 2037SOL    HW2 8221   1.856   2.730   3.411 -0.8242  0.0850  2.3679
 2037SOL    HW3 8222   1.767   2.607   3.420 -1.2655  0.3217  1.2957
 2037SOL    MW4 8223   1.787   2.684   3.384  0.0167 -0.2601  0.7057
 2038SOL     OW 8224   2.003   2.838   3.447 -0.4644  0.0037 -0.0858
 2038SOL    HW2 8225   2.017   2.839   3.541  1.2448  0.6852 -0.3326
 2038SOL    HW3 8226   2.017   2.929   3.419 -0.0423 -0.3660 -1.1147
 2038SOL    MW4 8227   2.007   2.850   3.456 -0.1831  0.0448 -0.2542
 2039SOL     OW 8228   2.037   3.100   3.371  0.1057  0.4896 -0.3955
 2039SOL    HW2 8229   2.100   3.154   3.420  0.1857 -0.5176  0.6253
 2039SOL    HW3 8230   1.952   3.131   3.401  0.1346  0.7437 -0.5715
 2039SOL    MW4 8231   2.034   3.111   3.381  0.1199  0.3901 -0.2842
 2040SOL     OW 8232   1.785   3.217   3.454  0.2134  0.2579 -0.0688
 2040SOL    HW2 8233   1.789   3.212   3.549  2.3265 -0.4868 -0.1607
 2040SOL    HW3 8234   1.794   3.311   3.434 -0.2915  0.4172  0.4753
 2040SOL    MW4 8235   1.787   3.229   3.464  0.4256  0.1807 -0.0091
 2041SOL     OW 8236   1.799   3.479   3.371 -0.1846  0.3389 -0.2907
 2041SOL    HW2 8237   1.726   3.523   3.416 -0.3565 -0.0695 -0.1742
 2041SOL    HW3 8238   1.785   3.500   3.278 -0.9135 -0.4131 -0.3615
 2041SOL    MW4 8239   1.787   3.488   3.364 -0.3034  0.1857 -0.2844
 2042SOL     OW 8240   2.005   3.637   3.477  0.7277  0.1280 -0.3417
 2042SOL    HW2 8241   2.094   3.606   3.465  0.7777  0.1822 -0.1154
 2042SOL    HW3 8242   1.951   3.576   3.426  0.9726  0.6193 -1.2102
 2042SOL    MW4 8243   2.010   3.625   3.469  0.7665  0.1998 -0.4268
 2043SOL     OW 8244   2.010   3.883   3.391 -0.5897 -0.2318 -0.4146
 2043SOL    HW2 8245   1.931   3.919   3.430 -0.0221  0.0094  0.5278
 2043SOL    HW3 8246   2.014   3.792   3.421 -1.0873 -0.5748 -1.3599
 2043SOL    MW4 8247   2.000   3.876   3.400 -0.5805 -0.2453 -0.4146
 2044SOL     OW 8248   1.814   4.015   3.515 -0.6155 -0.1135  0.8111
 2044SOL    HW2 8249   1.799   4.007   3.610 -0.3417 -1.1200  0.7741
 2044SOL    HW3 8250   1.740   3.969   3.475 -0.2343 -0.5088  0.5556
 2044SOL    MW4 8251   1.802   4.008   3.523 -0.5291 -0.2980  0.7730
 2045SOL     OW 8252   1.790   4.261   3.412 -0.0609 -0.3662 -0.1766
 2045SOL    HW2 8253   1.792   4.171   3.445 -0.2173 -0.0263  0.7809
 2045SOL    HW3 8254   1.788   4.252   3.317 -0.4879 -1.3784 -0.0755
 2045SOL    MW4 8255   1.790   4.248   3.404 -0.1379 -0.4554 -0.0367
 2046SOL     OW 8256   2.008   4.380   3.518  0.2667 -0.4327  0.0899
 2046SOL    HW2 8257   1.927   4.358   3.472  1.6141 -1.2400 -1.9494
 2046SOL    HW3 8258   2.034   4.465   3.482  1.1201 -0.8920 -0.4046
 2046SOL    MW4 8259   2.001   4.388   3.507  0.5572 -0.5999 -0.2444
 2047SOL     OW 8260   2.472   0.008   3.417  0.0422  0.4040 -0.0024
 2047SOL    HW2 8261   2.465  -0.081   3.453 -1.4488  0.7737  0.6565
 2047SOL    HW3 8262   2.472  -0.005   3.322  0.1530 -0.3180  0.0918
 2047SOL    MW4 8263   2.471  -0.006   3.409 -0.1400  0.3576  0.0968
 2048SOL     OW 8264   2.236   0.122   3.483 -0.0436 -0.0343 -0.1818
 2048SOL    HW2 8265   2.236   0.209   3.443 -0.6037 -0.4527 -1.1133
 2048SOL    HW3 8266   2.322   0.086   3.462  0.2187  0.3246  0.2738
 2048SOL    MW4 8267   2.247   0.129   3.475 -0.0830 -0.0421 -0.2449
 2049SOL     OW 8268   2.241   0.393   3.401  0.4851  0.2195  0.2953
 2049SOL    HW2 8269   2.312   0.427   3.455  0.1384  0.8956  0.3260
 2049SOL    HW3 8270   2.162   0.426   3.442  0.2678  1.7600 -1.3310
 2049SOL    MW4 8271   2.240   0.402   3.413  0.4108  0.5119  0.0849
 2050SOL     OW 8272   2.472   0.535   3.527  0.1125  0.0078  0.4842
 2050SOL    HW2 8273   2.547   0.484   3.496  0.1201 -0.1381  0.7407
 2050SOL    HW3 8274   2.481   0.619   3.483 -0.4086 -0.5140 -0.6635
 2050SOL    MW4 8275   2.483   0.539   3.517  0.0446 -0.0803  0.3664
 2051SOL     OW 8276   2.473   0.793   3.415  0.5134  0.2083 -0.1299
 2051SOL    HW2 8277   2.552   0.832   3.452  1.0759 -1.2545  0.2756
 2051SOL    HW3 8278   2.484   0.799   3.321  1.1259  0.0026 -0.0724
 2051SOL    MW4 8279   2.485   0.799   3.408  0.6685 -0.0117 -0.0684
 2052SOL     OW 8280   2.210   0.899   3.511  0.0493  0.3426 -0.0180
 2052SOL    HW2 8281   2.217   0.985   3.470  0.3502  0.5038  0.3758
 2052SOL    HW3 8282   2.295   0.858   3.497  0.0291  0.2526  0.1168
 2052SOL    MW4 8283   2.222   0.905   3.504  0.0865  0.3521  0.0515
 2053SOL     OW 8284   2.226   1.159   3.398 -0.1729 -0.3873  0.3205
 2053SOL    HW2 8285   2.302   1.200   3.440 -0.6696 -0.5843  1.4325
 2053SOL    HW3 8286   2.151   1.206   3.432 -0.7482 -2.1236  1.5590
 2053SOL    MW4 8287   2.226   1.170   3.408 -0.3142 -0.6423  0.6304
 2054SOL     OW 8288   2.472   1.248   3.472  0.3119  0.7062  0.0529
 2054SOL    HW2 8289   2.471   1.261   3.567 -1.1152  0.3814  0.1017
 2054SOL    HW3 8290   2.558   1.211   3.453 -0.2395 -1.4121  1.5202
 2054SOL    MW4 8291   2.483   1.245   3.482  0.0510  0.3839  0.2527
 2055SOL     OW 8292   2.473   1.531   3.380 -0.0877  0.0104 -0.6135
 2055SOL    HW2 8293   2.458   1.441   3.407 -0.6654  0.1202 -0.5601
 2055SOL    HW3 8294   2.481   1.527   3.285  1.8933 -0.3711 -0.4656
 2055SOL    MW4 8295   2.472   1.519   3.371  0.0975 -0.0256 -0.5870
 2056SOL     OW 8296   2.254   1.669   3.467 -0.5235  0.4586 -0.0988
 2056SOL    HW2 8297   2.255   1.675   3.563  0.9523  2.2184 -0.2099
 2056SOL    HW3 8298   2.340   1.635   3.445 -0.9195 -0.0934 -0.8248
 2056SOL    MW4 8299   2.265   1.665   3.477 -0.3808  0.6181 -0.2093
 2057SOL     OW 8300   2.241   1.954   3.387 -0.1690  0.2745 -0.2887
 2057SOL    HW2 8301   2.233   1.866   3.425  0.7185  0.7161  0.9993
 2057SOL    HW3 8302   2.250   1.939   3.293  0.1303 -1.0343 -0.0706
 2057SOL    MW4 8303   2.241   1.940   3.380 -0.0124  0.1602 -0.0904
 2058SOL     OW 8304   2.487   2.058   3.440  0.4040  0.1878  0.1701
 2058SOL    HW2 8305   2.480   2.057   3.535 -0.4626  1.0712  0.1200
 2058SOL    HW3 8306   2.402   2.026   3.409  0.8534 -0.5724 -0.3060
 2058SOL    MW4 8307   2.474   2.053   3.448  0.3490  0.2041  0.1009
 2059SOL     OW 8308   2.454   2.309   3.352  0.2507  0.1201 -0.0232
 2059SOL    HW2 8309   2.520   2.353   3.406  0.1836 -0.1164  0.2519
 2059SOL    HW3 8310   2.457   2.218   3.380 -0.4369  0.1742  0.2327
 2059SOL    MW4 8311   2.464   2.303   3.363  0.1509  0.0961  0.0467
 2060SOL     OW 8312   2.257   2.450   3.498 -0.4480 -0.3314 -0.2480
 2060SOL    HW2 8313   2.260   2.541   3.469  0.4016 -0.4708 -0.6347
 2060SOL    HW3 8314   2.317   2.404   3.439 -0.2235 -0.9883  0.4770
 2060SOL    MW4 8315   2.266   2.456   3.486 -0.3061 -0.4363 -0.2034
 2061SOL     OW 8316   2.274   2.721   3.401  0.1598  0.1467  0.0459
 2061SOL    HW2 8317   2.193   2.762   3.433 -0.4470 -1.6246  0.8390
 2061SOL    HW3 8318   2.262   2.714   3.307 -0.4224  0.2846  0.1059
 2061SOL    MW4 8319   2.262   2.726   3.393  0.0031 -0.0689  0.1585
 2062SOL     OW 8320   2.490   2.882   3.503 -0.1870 -0.0425 -0.1279
 2062SOL    HW2 8321   2.468   2.971   3.475 -1.2461 -0.3653 -0.3325
 2062SOL    HW3 8322   2.414   2.829   3.478  0.9348 -1.2261 -1.0614
 2062SOL    MW4 8323   2.477   2.887   3.496 -0.1788 -0.2413 -0.2782
 2063SOL     OW 8324   2.458   3.123   3.379 -0.0234 -0.5748 -0.1823
 2063SOL    HW2 8325   2.543   3.161   3.399  0.9343 -2.2667 -0.9589
 2063SOL    HW3 8326   2.463   3.100   3.286 -1.7797  0.4523 -0.5533
 2063SOL    MW4 8327   2.470   3.125   3.369 -0.1285 -0.6626 -0.3335
 2064SOL     OW 8328   2.243   3.240   3.505  0.5279  0.1960 -0.1275
 2064SOL    HW2 8329   2.273   3.256   3.595  0.8293 -0.2649 -0.1465
 2064SOL    HW3 8330   2.312   3.188   3.465 -0.3935 -1.0664 -0.1053
 2064SOL    MW4 8331   2.256   3.235   3.512  0.4461 -0.0312 -0.1271
 2065SOL     OW 8332   2.246   3.507   3.409  0.0888  0.2408  0.3938
 2065SOL    HW2 8333   2.243   3.419   3.445 -0.7961  0.2329  0.3079
 2065SOL    HW3 8334   2.245   3.494   3.314 -0.9094  0.3614  0.3796
 2065SOL    MW4 8335   2.245   3.494   3.401 -0.1597  0.2558  0.3808
 2066SOL     OW 8336   2.479   3.611   3.489 -0.2812 -0.2977 -0.1259
 2066SOL    HW2 8337   2.475   3.702   3.460 -1.0112 -0.4501 -0.5396
 2066SOL    HW3 8338   2.396   3.573   3.458  0.9639 -1.6588 -1.9057
 2066SOL    MW4 8339   2.467   3.618   3.481 -0.2131 -0.4971 -0.4153
 2067SOL     OW 8340   2.451   3.869   3.411  0.3147  0.0368 -0.1933
 2067SOL    HW2 8341   2.530   3.911   3.444 -0.1185 -0.7532  1.9365
 2067SOL    HW3 8342   2.381   3.903   3.467 -0.4628 -1.2099 -0.3966
 2067SOL    MW4 8343   2.452   3.879   3.423  0.1552 -0.2315  0.0606
 2068SOL     OW 8344   2.227   3.970   3.553  0.0572  0.5060  0.0132
 2068SOL    HW2 8345   2.232   4.063   3.527 -1.6906  0.6841  0.2457
 2068SOL    HW3 8346   2.154   3.935   3.502 -0.1485 -0.4082  0.9190
 2068SOL    MW4 8347   2.218   3.978   3.543 -0.2005  0.4089  0.1633
 2069SOL     OW 8348   2.231   4.239   3.448  0.1897  0.1508  0.1677
 2069SOL    HW2 8349   2.142   4.273   3.454  0.6125  1.1017  1.0815
 2069SOL    HW3 8350   2.252   4.244   3.354 -0.9435 -0.6841 -0.1429
 2069SOL    MW4 8351   2.222   4.244   3.436  0.0961  0.1659  0.2475
 2070SOL     OW 8352   2.452   4.402   3.495  0.2674 -0.1206  0.2135
 2070SOL    HW2 8353   2.462   4.412   3.589  0.4929 -1.1660  0.3061
 2070SOL    HW3 8354   2.372   4.350   3.485  0.2114  0.0395 -0.1654
 2070SOL    MW4 8355   2.443   4.396   3.506  0.2899 -0.2370  0.1757
 2071SOL     OW 8356   2.885   0.030   3.416  0.2580  0.0874 -0.4009
 2071SOL    HW2 8357   2.815   0.085   3.453  0.7677 -0.1416  0.9121
 2071SOL    HW3 8358   2.854   0.010   3.327 -0.2390  1.9519 -0.6773
 2071SOL    MW4 8359   2.871   0.035   3.409  0.2596  0.3032 -0.2642
 2072SOL     OW 8360   2.676   0.160   3.520  0.2252 -0.6087 -0.3454
 2072SOL    HW2 8361   2.678   0.247   3.479 -0.0839  0.0581  1.0298
 2072SOL    HW3 8362   2.596   0.119   3.485  0.1686 -0.1913 -0.7087
 2072SOL    MW4 8363   2.665   0.166   3.510  0.1767 -0.4656 -0.2120
 2073SOL     OW 8364   2.675   0.397   3.396 -0.4342 -0.0222 -0.2774
 2073SOL    HW2 8365   2.757   0.445   3.409 -0.4806 -0.0237  0.0174
 2073SOL    HW3 8366   2.666   0.392   3.301 -0.2919  0.3224 -0.3108
 2073SOL    MW4 8367   2.685   0.403   3.385 -0.4215  0.0231 -0.2432
 2074SOL     OW 8368   2.898   0.531   3.478 -0.3026 -0.3568  0.1028
 2074SOL    HW2 8369   2.884   0.543   3.573  0.1489 -0.7624  0.2181
 2074SOL    HW3 8370   2.890   0.619   3.442  0.7490 -0.0156  0.6791
 2074SOL    MW4 8371   2.895   0.544   3.486 -0.1042 -0.3653  0.1941
 2075SOL     OW 8372   2.912   0.791   3.399 -0.3272  0.4787 -0.2213
 2075SOL    HW2 8373   2.995   0.817   3.439 -0.5853  0.2536  0.4728
 2075SOL    HW3 8374   2.847   0.850   3.437 -0.4412  0.8475 -0.9884
 2075SOL    MW4 8375   2.914   0.802   3.410 -0.3762  0.4977 -0.2310
 2076SOL     OW 8376   2.690   0.917   3.506  0.3141 -0.4068 -0.1955
 2076SOL    HW2 8377   2.715   0.932   3.597 -1.7946 -0.0063  0.3341
 2076SOL    HW3 8378   2.709   1.000   3.462  0.5692 -0.3342  0.0521
 2076SOL    MW4 8379   2.696   0.930   3.512  0.0694 -0.3444 -0.0927
 2077SOL     OW 8380   2.724   1.163   3.397  0.0349  0.0436 -0.7185
 2077SOL    HW2 8381   2.803   1.206   3.430  0.7868 -1.3691 -0.6308
 2077SOL    HW3 8382   2.725   1.179   3.302  0.8497 -0.6282 -0.8292
 2077SOL    MW4 8383   2.734   1.171   3.389  0.2415 -0.2315 -0.7217
 2078SOL     OW 8384   2.936   1.302   3.508  0.0716  0.7556 -0.3640
 2078SOL    HW2 8385   2.924   1.306   3.603  0.8918  4.2063 -0.3418
 2078SOL    HW3 8386   3.010   1.243   3.496 -0.6749 -0.5082  1.0554
 2078SOL    MW4 8387   2.944   1.295   3.519  0.0813  1.0442 -0.1740
 2079SOL     OW 8388   2.929   1.513   3.321 -0.0813  0.1212 -0.5314
 2079SOL    HW2 8389   2.864   1.576   3.352  0.5478  0.3856  0.2827
 2079SOL    HW3 8390   2.927   1.443   3.386  1.5601  0.8835  0.3691
 2079SOL    MW4 8391   2.920   1.512   3.334  0.2182  0.2567 -0.3052
 2080SOL     OW 8392   2.715   1.652   3.432 -0.1090 -0.1239 -0.3080
 2080SOL    HW2 8393   2.706   1.744   3.405 -0.7772 -0.4705 -1.2699
 2080SOL    HW3 8394   2.626   1.619   3.435  0.0754 -0.5135  0.8664
 2080SOL    MW4 8395   2.702   1.660   3.429 -0.1729 -0.2210 -0.2801
 2081SOL     OW 8396   2.707   1.932   3.365 -0.0669 -0.2158  0.4739
 2081SOL    HW2 8397   2.637   1.986   3.403  0.2040  0.2043  0.3727
 2081SOL    HW3 8398   2.686   1.928   3.272 -0.3653 -0.7054  0.5570
 2081SOL    MW4 8399   2.695   1.939   3.358 -0.0703 -0.2249  0.4716
 2082SOL     OW 8400   2.923   2.094   3.423  0.1760 -0.0827  0.4139
 2082SOL    HW2 8401   2.917   2.080   3.518 -1.8635 -0.1366  0.3007
 2082SOL    HW3 8402   2.854   2.039   3.387  0.1778  0.8373 -1.0144
 2082SOL    MW4 8403   2.913   2.085   3.431 -0.0927  0.0315  0.2105
 2083SOL     OW 8404   2.919   2.353   3.362 -0.0351 -0.7203 -0.1043
 2083SOL    HW2 8405   2.939   2.265   3.393  0.2722 -0.7327 -0.3276
 2083SOL    HW3 8406   2.936   2.350   3.268  2.9589  0.3775  0.3266
 2083SOL    MW4 8407   2.924   2.341   3.354  0.4003 -0.5772 -0.0770
 2084SOL     OW 8408   2.671   2.480   3.449 -0.2038  0.1581 -0.2305
 2084SOL    HW2 8409   2.705   2.477   3.538 -1.6298  0.1227  0.3302
 2084SOL    HW3 8410   2.735   2.432   3.397  0.7360  0.3475  0.7361
 2084SOL    MW4 8411   2.684   2.473   3.454 -0.2680  0.1786 -0.0291
 2085SOL     OW 8412   2.680   2.737   3.361 -0.0380 -0.3798  0.1492
 2085SOL    HW2 8413   2.669   2.644   3.381  0.0177 -0.5574 -0.6300
 2085SOL    HW3 8414   2.609   2.780   3.409 -1.2224 -1.0304 -0.9872
 2085SOL    MW4 8415   2.669   2.731   3.370 -0.1872 -0.4890 -0.1035
 2086SOL     OW 8416   2.914   2.888   3.431 -0.3161  0.2384  0.1388
 2086SOL    HW2 8417   2.909   2.882   3.526 -0.5493 -0.1270  0.1043
 2086SOL    HW3 8418   2.841   2.834   3.400  0.1040 -0.0991 -0.2603
 2086SOL    MW4 8419   2.903   2.880   3.439 -0.2913  0.1454  0.0815
 2087SOL     OW 8420   2.961   3.133   3.337 -0.2216  0.0815  0.1244
 2087SOL    HW2 8421   2.948   3.048   3.378 -0.7573  0.0467 -0.1208
 2087SOL    HW3 8422   2.940   3.119   3.245  0.8314  0.1946 -0.1432
 2087SOL    MW4 8423   2.957   3.120   3.330 -0.1535  0.0918  0.0567
 2088SOL     OW 8424   2.718   3.238   3.442 -0.0670 -0.0315  0.0625
 2088SOL    HW2 8425   2.734   3.215   3.534 -1.4050  0.1426  0.3569
 2088SOL    HW3 8426   2.788   3.196   3.394 -0.3101 -1.5328  0.9914
 2088SOL    MW4 8427   2.729   3.230   3.448 -0.2754 -0.2065  0.2239
 2089SOL     OW 8428   2.714   3.519   3.376  0.1594  0.6099 -0.6757
 2089SOL    HW2 8429   2.718   3.426   3.398  0.5205  0.1440 -2.6277
 2089SOL    HW3 8430   2.632   3.550   3.416  0.6411 -0.2580  1.0058
 2089SOL    MW4 8431   2.703   3.511   3.384  0.2706  0.4339 -0.7114
 2090SOL     OW 8432   2.944   3.639   3.487 -0.0918 -0.1679 -0.1903
 2090SOL    HW2 8433   2.942   3.723   3.440  0.3479 -0.4422 -0.7044
 2090SOL    HW3 8434   2.862   3.596   3.463  0.2382 -0.4065 -0.8868
 2090SOL    MW4 8435   2.933   3.645   3.477  0.0098 -0.2356 -0.3500
 2091SOL     OW 8436   2.896   3.884   3.364 -0.2548  0.0594 -0.4088
 2091SOL    HW2 8437   2.970   3.935   3.398  0.2146 -1.2869  0.6334
 2091SOL    HW3 8438   2.820   3.919   3.412 -0.0543  0.3413 -0.2936
 2091SOL    MW4 8439   2.896   3.896   3.375 -0.1667 -0.0811 -0.2561
 2092SOL     OW 8440   2.697   3.998   3.489  0.1546  0.1880  0.2378
 2092SOL    HW2 8441   2.698   3.994   3.585  3.0437  2.1373  0.3533
 2092SOL    HW3 8442   2.692   4.092   3.470  0.8621 -0.1200 -1.5024
 2092SOL    MW4 8443   2.696   4.010   3.499  0.6292  0.4048  0.0236
 2093SOL     OW 8444   2.675   4.260   3.422 -0.1540  0.0097  0.0546
 2093SOL    HW2 8445   2.741   4.310   3.471  0.3271 -0.1999 -0.3721
 2093SOL    HW3 8446   2.591   4.300   3.447  0.1447  0.3662  0.4979
 2093SOL    MW4 8447   2.673   4.272   3.432 -0.0515  0.0291  0.0570
 2094SOL     OW 8448   2.866   4.429   3.524 -0.2054 -0.3014  0.1080
 2094SOL    HW2 8449   2.877   4.448   3.617  1.3760  0.0726 -0.1468
 2094SOL    HW3 8450   2.867   4.515   3.481  0.3215 -0.5425 -0.3745
 2094SOL    MW4 8451   2.867   4.443   3.531  0.0727 -0.2837  0.0110
 2095SOL     OW 8452   3.355   4.650   3.411  0.2147  0.4178 -0.2955
 2095SOL    HW2 8453   3.277   4.702   3.428 -0.5160 -0.7318 -0.0165
 2095SOL    HW3 8454   3.359   4.643   3.315  0.5127  1.2634 -0.3465
 2095SOL    MW4 8455   3.345   4.656   3.401  0.1578  0.3772 -0.2651
 2096SOL     OW 8456   3.131   0.127   3.460 -0.1310 -0.4760  0.0727
 2096SOL    HW2 8457   3.120   0.217   3.431 -0.1706 -0.4866  0.0540
 2096SOL    HW3 8458   3.046   0.086   3.442 -0.1813 -0.4625  0.2800
 2096SOL    MW4 8459   3.118   0.133   3.453 -0.1428 -0.4756  0.0978
 2097SOL     OW 8460   3.125   0.404   3.397 -0.3785  0.1244 -0.2868
 2097SOL    HW2 8461   3.042   0.451   3.409  1.1440  2.5583  1.0867
 2097SOL    HW3 8462   3.132   0.393   3.302 -1.9801  0.4358 -0.4575
 2097SOL    MW4 8463   3.115   0.409   3.386 -0.3891  0.4866 -0.1280
 2098SOL     OW 8464   3.351   0.553   3.489  0.0093 -0.0814 -0.1968
 2098SOL    HW2 8465   3.353   0.536   3.583  1.3535 -1.8198 -0.5158
 2098SOL    HW3 8466   3.276   0.503   3.457 -0.3824  0.4218 -0.0632
 2098SOL    MW4 8467   3.341   0.544   3.497  0.1349 -0.2443 -0.2213
 2099SOL     OW 8468   3.372   0.794   3.371  0.1295 -0.1426  0.0652
 2099SOL    HW2 8469   3.441   0.844   3.416 -0.8095  0.7112  0.5701
 2099SOL    HW3 8470   3.376   0.708   3.412  1.0235 -0.1562 -0.0321
 2099SOL    MW4 8471   3.382   0.790   3.382  0.1235 -0.0318  0.1187
 2100SOL     OW 8472   3.157   0.911   3.490 -0.3825  0.0428 -0.1609
 2100SOL    HW2 8473   3.158   0.988   3.434 -2.2757 -0.3467 -0.7475
 2100SOL    HW3 8474   3.237   0.863   3.465 -0.0486  0.9898 -0.9483
 2100SOL    MW4 8475   3.168   0.915   3.479 -0.5882  0.1164 -0.3421
 2101SOL     OW 8476   3.128   1.143   3.367 -0.1156  0.5597 -0.2025
 2101SOL    HW2 8477   3.218   1.169   3.386  0.1506 -0.0231 -0.6159
 2101SOL    HW3 8478   3.119   1.156   3.272 -0.6218  1.0762 -0.0844
 2101SOL    MW4 8479   3.139   1.148   3.357 -0.1473  0.5510 -0.2413
 2102SOL     OW 8480   3.380   1.250   3.425 -0.5461 -0.1555 -0.0759
 2102SOL    HW2 8481   3.471   1.221   3.430 -0.5436  0.1007  1.7406
 2102SOL    HW3 8482   3.385   1.344   3.410 -0.5081  0.0265  1.0926
 2102SOL    MW4 8483   3.392   1.259   3.424 -0.5410 -0.0975  0.3181
 2103SOL     OW 8484   3.380   1.525   3.370  0.1728 -0.5598 -0.4413
 2103SOL    HW2 8485   3.461   1.561   3.406 -0.4156 -0.0005  0.3695
 2103SOL    HW3 8486   3.311   1.576   3.412 -0.5848 -0.7398 -1.4528
 2103SOL    MW4 8487   3.381   1.536   3.381 -0.0045 -0.5097 -0.4678
 2104SOL     OW 8488   3.143   1.649   3.438  0.1949 -0.6640 -0.0351
 2104SOL    HW2 8489   3.146   1.742   3.416  0.6312 -0.5490  0.5201
 2104SOL    HW3 8490   3.083   1.611   3.373  0.5244 -0.1116 -0.6690
 2104SOL    MW4 8491   3.135   1.656   3.427  0.2961 -0.5760 -0.0455
 2105SOL     OW 8492   3.164   1.911   3.380  0.2578 -0.6746 -0.3131
 2105SOL    HW2 8493   3.085   1.963   3.391  1.2664  0.9053 -0.3558
 2105SOL    HW3 8494   3.173   1.900   3.285  0.2278 -0.6276 -0.3215
 2105SOL    MW4 8495   3.155   1.916   3.369  0.3872 -0.4599 -0.3197
 2106SOL     OW 8496   3.392   2.036   3.448 -0.4681 -0.0397 -0.4384
 2106SOL    HW2 8497   3.382   2.132   3.451  0.4968  0.0663 -0.5939
 2106SOL    HW3 8498   3.303   2.004   3.431 -0.7205  0.8507 -0.8711
 2106SOL    MW4 8499   3.379   2.045   3.446 -0.3743  0.0916 -0.5159
 2107SOL     OW 8500   3.374   2.330   3.421  0.2037  0.3454 -0.2789
 2107SOL    HW2 8501   3.453   2.374   3.453  0.9640  0.1517 -1.8717
 2107SOL    HW3 8502   3.303   2.393   3.438  0.5148  0.1209  2.0642
 2107SOL    MW4 8503   3.375   2.344   3.428  0.3448  0.2904 -0.1798
 2108SOL     OW 8504   3.150   2.476   3.468 -0.4300  0.1989  0.2423
 2108SOL    HW2 8505   3.130   2.560   3.427 -1.1379  0.3135  0.8123
 2108SOL    HW3 8506   3.074   2.421   3.450 -0.4235  0.0159  0.7636
 2108SOL    MW4 8507   3.137   2.480   3.460 -0.5229  0.1895  0.3860
 2109SOL     OW 8508   3.121   2.723   3.368 -0.1784  0.3340  0.1269
 2109SOL    HW2 8509   3.198   2.775   3.390  0.1397 -0.8960  1.9909
 2109SOL    HW3 8510   3.046   2.779   3.391  0.1546 -0.4071  3.1202
 2109SOL    MW4 8511   3.121   2.737   3.374 -0.0925  0.0739  0.7679
 2110SOL     OW 8512   3.354   2.839   3.442  0.0050 -0.3271  0.4430
 2110SOL    HW2 8513   3.439   2.804   3.415 -0.4822 -0.9421 -0.3100
 2110SOL    HW3 8514   3.355   2.930   3.413  0.1573 -0.5096 -0.1264
 2110SOL    MW4 8515   3.365   2.847   3.435 -0.0391 -0.4325  0.2687
 2111SOL     OW 8516   3.341   3.137   3.401  0.3386 -0.2862 -0.6003
 2111SOL    HW2 8517   3.413   3.195   3.428  0.5074  0.8705 -3.3528
 2111SOL    HW3 8518   3.262   3.183   3.428  0.5709 -0.7857  0.9769
 2111SOL    MW4 8519   3.340   3.151   3.408  0.3917 -0.1996 -0.7553
 2112SOL     OW 8520   3.118   3.239   3.533  0.1518  0.4348  0.0526
 2112SOL    HW2 8521   3.148   3.325   3.503  0.4392  0.1444 -0.5083
 2112SOL    HW3 8522   3.063   3.206   3.461  0.3958 -0.0296  0.0719
 2112SOL    MW4 8523   3.115   3.246   3.519  0.2220  0.3350 -0.0188
 2113SOL     OW 8524   3.165   3.503   3.418 -0.5449  0.3009  0.2230
 2113SOL    HW2 8525   3.089   3.554   3.446 -1.0019  0.7809 -1.8152
 2113SOL    HW3 8526   3.156   3.497   3.323  0.4639 -2.0560  0.2338
 2113SOL    MW4 8527   3.154   3.509   3.409 -0.4718  0.0534 -0.0446
 2114SOL     OW 8528   3.395   3.641   3.503  0.3339 -0.4400 -0.0295
 2114SOL    HW2 8529   3.394   3.731   3.472  2.1649 -0.2953  0.2561
 2114SOL    HW3 8530   3.310   3.605   3.477  0.5199  0.6498 -2.2962
 2114SOL    MW4 8531   3.384   3.648   3.495  0.5999 -0.2770 -0.2906
 2115SOL     OW 8532   3.305   3.906   3.394 -0.4157  0.4153 -0.2525
 2115SOL    HW2 8533   3.380   3.954   3.429 -0.4345  0.5474 -0.3894
 2115SOL    HW3 8534   3.229   3.945   3.438 -0.1746 -2.0137  2.4606
 2115SOL    MW4 8535   3.305   3.918   3.404 -0.3860  0.1123  0.0875
 2116SOL     OW 8536   3.082   4.043   3.476  0.0056 -0.2567  0.6640
 2116SOL    HW2 8537   3.098   4.047   3.570  0.8827 -1.2240  0.5687
 2116SOL    HW3 8538   3.079   4.135   3.448 -1.0819  0.0487  1.7563
 2116SOL    MW4 8539   3.084   4.056   3.485 -0.0224 -0.3438  0.7954
 2117SOL     OW 8540   3.079   4.313   3.408 -0.1822 -0.0131  0.1679
 2117SOL    HW2 8541   3.167   4.329   3.444  0.4535 -3.4232  0.2407
 2117SOL    HW3 8542   3.021   4.359   3.468  1.4046  0.5870  1.2942
 2117SOL    MW4 8543   3.083   4.321   3.421  0.1111 -0.3834  0.3259
 2118SOL     OW 8544   3.329   4.383   3.517  0.4658  0.2145  0.1798
 2118SOL    HW2 8545   3.327   4.385   3.613  1.0741 -0.1457  0.2034
 2118SOL    HW3 8546   3.341   4.475   3.491  0.9305  0.2400  0.4710
 2118SOL    MW4 8547   3.330   4.396   3.526  0.6073  0.1702  0.2213
 2119SOL     OW 8548   3.829   0.019   3.450 -0.4615 -0.0800 -0.0566
 2119SOL    HW2 8549   3.746   0.062   3.467 -0.1420  0.2562  0.6641
 2119SOL    HW3 8550   3.821  -0.014   3.360 -0.5873  1.7573 -0.7301
 2119SOL    MW4 8551   3.817   0.020   3.440 -0.4363  0.2068 -0.0503
 2120SOL     OW 8552   3.569   0.146   3.509 -0.0445  0.1105 -0.2034
 2120SOL    HW2 8553   3.547   0.230   3.469  0.0063 -0.4007 -1.3239
 2120SOL    HW3 8554   3.495   0.090   3.489 -0.8015  0.3087  1.8922
 2120SOL    MW4 8555   3.557   0.150   3.501 -0.1376  0.0692 -0.0749
 2121SOL     OW 8556   3.541   0.377   3.363  0.2017  0.3587  0.4769
 2121SOL    HW2 8557   3.627   0.401   3.397  0.8236 -0.4620 -0.4860
 2121SOL    HW3 8558   3.481   0.438   3.405  1.2351  0.8515  1.2672
 2121SOL    MW4 8559   3.544   0.388   3.373  0.4199  0.3155  0.4539
 2122SOL     OW 8560   3.785   0.459   3.498  0.1916 -0.6260 -0.2426
 2122SOL    HW2 8561   3.779   0.464   3.594  0.4306  0.5960 -0.2879
 2122SOL    HW3 8562   3.876   0.435   3.482  0.6559  1.0444 -0.2107
 2122SOL    MW4 8563   3.796   0.456   3.509  0.2844 -0.2444 -0.2446
 2123SOL     OW 8564   3.821   0.738   3.421 -0.0498  0.1980 -0.0525
 2123SOL    HW2 8565   3.880   0.788   3.478  1.1130 -0.2846 -0.8299
 2123SOL    HW3 8566   3.812   0.653   3.465 -1.0528  0.6439  0.6315
 2123SOL    MW4 8567   3.827   0.734   3.435 -0.0291  0.1932 -0.0646
 2124SOL     OW 8568   3.604   0.897   3.482 -0.0180 -0.0371  0.6071
 2124SOL    HW2 8569   3.607   0.883   3.576  0.6153 -1.6184  0.3712
 2124SOL    HW3 8570   3.666   0.833   3.446  0.5447  1.2586 -0.8068
 2124SOL    MW4 8571   3.613   0.887   3.489  0.1397 -0.0747  0.3893
 2125SOL     OW 8572   3.659   1.142   3.349  0.3443 -0.3386  0.0497
 2125SOL    HW2 8573   3.658   1.052   3.382  2.9914 -0.8340 -1.1016
 2125SOL    HW3 8574   3.639   1.134   3.256 -1.0353  0.4613  0.2578
 2125SOL    MW4 8575   3.656   1.129   3.341  0.5116 -0.2984 -0.0746
 2126SOL     OW 8576   3.840   1.296   3.516 -0.0679  0.0846 -0.0333
 2126SOL    HW2 8577   3.838   1.276   3.609 -1.3538  1.4852  0.2505
 2126SOL    HW3 8578   3.779   1.234   3.477 -0.8482  0.6612  0.2807
 2126SOL    MW4 8579   3.832   1.285   3.523 -0.3405  0.3453  0.0455
 2127SOL     OW 8580   3.861   1.523   3.372  0.1468 -0.0411 -0.2042
 2127SOL    HW2 8581   3.934   1.565   3.417  2.4103 -2.0862 -1.7702
 2127SOL    HW3 8582   3.843   1.444   3.424 -0.8870  0.4051  0.1179
 2127SOL    MW4 8583   3.869   1.518   3.385  0.3090 -0.2521 -0.3684
 2128SOL     OW 8584   3.615   1.660   3.463 -0.1354 -0.2201 -0.6041
 2128SOL    HW2 8585   3.605   1.748   3.428 -0.1458 -0.7226 -1.8705
 2128SOL    HW3 8586   3.706   1.637   3.443  0.1450 -0.1577  0.5338
 2128SOL    MW4 8587   3.626   1.668   3.456 -0.0999 -0.2781 -0.6208
 2129SOL     OW 8588   3.615   1.909   3.373 -0.1889  0.0073 -0.1144
 2129SOL    HW2 8589   3.687   1.951   3.419  0.9706 -2.1099  0.0756
 2129SOL    HW3 8590   3.536   1.948   3.410  0.8015  0.4280  1.5734
 2129SOL    MW4 8591   3.614   1.920   3.384  0.0949 -0.2165  0.1335
 2130SOL     OW 8592   3.832   2.078   3.456 -0.0191 -0.2831 -0.6749
 2130SOL    HW2 8593   3.828   2.066   3.551  0.2062  0.1460 -0.6078
 2130SOL    HW3 8594   3.905   2.022   3.429  2.5058  2.5931 -0.0668
 2130SOL    MW4 8595   3.841   2.069   3.465  0.3438  0.1531 -0.5858
 2131SOL     OW 8596   3.828   2.333   3.365 -0.0004 -0.0262  0.0539
 2131SOL    HW2 8597   3.907   2.380   3.394  0.4954 -0.5072 -0.5063
 2131SOL    HW3 8598   3.839   2.245   3.400 -1.3182  0.4704  1.7970
 2131SOL    MW4 8599   3.840   2.328   3.374 -0.1092 -0.0243  0.2098
 2132SOL     OW 8600   3.618   2.484   3.476  0.1113 -0.3800  0.1022
 2132SOL    HW2 8601   3.620   2.567   3.429  0.0615 -1.0362 -1.0684
 2132SOL    HW3 8602   3.684   2.430   3.433  0.5098 -0.7765  1.1886
 2132SOL    MW4 8603   3.627   2.488   3.464  0.1571 -0.5188  0.0913
 2133SOL     OW 8604   3.593   2.732   3.351 -0.4744 -0.0898 -0.6635
 2133SOL    HW2 8605   3.668   2.778   3.388 -1.3726  0.7751  0.0842
 2133SOL    HW3 8606   3.607   2.735   3.256 -0.6788  1.9841 -0.6422
 2133SOL    MW4 8607   3.605   2.738   3.343 -0.6199  0.2980 -0.5620
 2134SOL     OW 8608   3.822   2.854   3.459 -0.0566 -0.1709 -0.3284
 2134SOL    HW2 8609   3.818   2.865   3.554 -2.2123 -1.3444 -0.2561
 2134SOL    HW3 8610   3.810   2.942   3.424  3.0388  0.6382  0.4706
 2134SOL    MW4 8611   3.820   2.867   3.467  0.0672 -0.2186 -0.2136
 2135SOL     OW 8612   3.777   3.120   3.387 -0.4368  0.2253  0.2077
 2135SOL    HW2 8613   3.846   3.177   3.420 -0.5761  0.4175  0.1686
 2135SOL    HW3 8614   3.794   3.115   3.293  0.3082 -0.7933  0.3848
 2135SOL    MW4 8615   3.789   3.127   3.379 -0.3572  0.1161  0.2258
 2136SOL     OW 8616   3.571   3.271   3.486 -0.5155 -0.4445 -0.4024
 2136SOL    HW2 8617   3.591   3.358   3.450  1.0382  0.1644  1.8754
 2136SOL    HW3 8618   3.637   3.214   3.446  0.2011 -0.0617  0.2180
 2136SOL    MW4 8619   3.583   3.275   3.476 -0.2160 -0.3138 -0.0198
 2137SOL     OW 8620   3.617   3.530   3.383 -0.2846 -0.5020  0.1593
 2137SOL    HW2 8621   3.542   3.574   3.422 -0.6256 -0.0613 -0.9834
 2137SOL    HW3 8622   3.598   3.527   3.289  0.2047 -2.1776  0.0923
 2137SOL    MW4 8623   3.605   3.535   3.376 -0.2649 -0.6649 -0.0002
 2138SOL     OW 8624   3.849   3.665   3.478  0.6285 -0.0442  0.2111
 2138SOL    HW2 8625   3.838   3.673   3.573  1.0653 -0.2704  0.2843
 2138SOL    HW3 8626   3.773   3.614   3.449  0.7512 -0.4007  0.5091
 2138SOL    MW4 8627   3.838   3.659   3.487  0.7021 -0.1211  0.2601
 2139SOL     OW 8628   3.794   3.919   3.398 -0.5513 -0.3029  0.3336
 2139SOL    HW2 8629   3.707   3.945   3.429 -0.4563 -0.0430  0.3832
 2139SOL    HW3 8630   3.804   3.828   3.427 -1.6763 -1.0481 -1.4933
 2139SOL    MW4 8631   3.783   3.910   3.406 -0.6871 -0.3669  0.0992
 2140SOL     OW 8632   3.544   4.036   3.470 -0.4226  0.1288 -0.0356
 2140SOL    HW2 8633   3.548   4.039   3.566 -0.2304  0.1685 -0.0432
 2140SOL    HW3 8634   3.555   4.127   3.443  1.5672 -0.1166 -0.1570
 2140SOL    MW4 8635   3.546   4.049   3.479 -0.1345  0.1016 -0.0527
 2141SOL     OW 8636   3.562   4.302   3.390  0.6048 -0.3927 -0.2660
 2141SOL    HW2 8637   3.478   4.337   3.418  0.5222 -0.6381 -0.2019
 2141SOL    HW3 8638   3.556   4.298   3.294  1.1312  1.0624 -0.3718
 2141SOL    MW4 8639   3.550   4.306   3.381  0.6630 -0.2332 -0.2718
 2142SOL     OW 8640   3.839   4.418   3.514  0.1863 -0.0943 -0.8328
 2142SOL    HW2 8641   3.758   4.388   3.473  0.2767 -1.6676  0.0957
 2142SOL    HW3 8642   3.844   4.511   3.493 -1.5763 -0.1077 -1.3562
 2142SOL    MW4 8643   3.829   4.426   3.506 -0.0341 -0.3037 -0.7794
 2143SOL     OW 8644   4.302   4.623   3.375 -0.0522 -0.0731 -0.1372
 2143SOL    HW2 8645   4.319   4.540   3.419 -2.0436  0.6934  2.1555
 2143SOL    HW3 8646   4.357   4.686   3.421 -1.6605  0.6126  0.8804
 2143SOL    MW4 8647   4.311   4.620   3.386 -0.5274  0.1187  0.2995
 2144SOL     OW 8648   4.086   0.117   3.502  0.4052  0.4367 -0.3527
 2144SOL    HW2 8649   4.137   0.049   3.459 -0.0003 -0.6386  0.8513
 2144SOL    HW3 8650   3.995   0.087   3.494  0.2575  0.6419  0.5116
 2144SOL    MW4 8651   4.081   0.104   3.495  0.3324  0.3219 -0.0799
 2145SOL     OW 8652   4.069   0.379   3.439 -0.0967  0.1479 -0.2250
 2145SOL    HW2 8653   4.075   0.290   3.473 -0.0613  0.7106  1.2498
 2145SOL    HW3 8654   4.074   0.369   3.344  1.5666 -1.2765  0.0065
 2145SOL    MW4 8655   4.070   0.366   3.431  0.1273  0.0342  0.0002
 2146SOL     OW 8656   4.280   0.542   3.555  0.2306 -0.2541  0.2502
 2146SOL    HW2 8657   4.263   0.635   3.538  0.3596 -0.2799 -0.0298
 2146SOL    HW3 8658   4.210   0.496   3.509  0.0823 -0.2874  0.5122
 2146SOL    MW4 8659   4.269   0.548   3.546  0.2284 -0.2619  0.2477
 2147SOL     OW 8660   4.249   0.772   3.403  0.3700  0.1100  0.4408
 2147SOL    HW2 8661   4.333   0.815   3.423 -0.1192  0.9185  0.8048
 2147SOL    HW3 8662   4.251   0.760   3.308  0.5614  0.8559  0.3439
 2147SOL    MW4 8663   4.261   0.776   3.393  0.3304  0.3151  0.4759
 2148SOL     OW 8664   4.020   0.890   3.523 -0.3866 -0.1798 -0.4750
 2148SOL    HW2 8665   4.038   0.979   3.491 -0.3929 -0.6482 -1.8001
 2148SOL    HW3 8666   4.087   0.836   3.481 -0.9001 -0.9346 -0.3226
 2148SOL    MW4 8667   4.031   0.895   3.513 -0.4549 -0.3412 -0.6297
 2149SOL     OW 8668   4.040   1.136   3.417  0.2021  0.4066 -0.3427
 2149SOL    HW2 8669   4.125   1.170   3.447  0.1923  1.8362 -1.8430
 2149SOL    HW3 8670   3.976   1.200   3.449 -0.1478  0.1480 -0.5205
 2149SOL    MW4 8671   4.043   1.149   3.425  0.1545  0.5612 -0.5643
 2150SOL     OW 8672   4.282   1.276   3.511 -0.4554 -0.0980  0.0958
 2150SOL    HW2 8673   4.269   1.367   3.484 -1.6837  0.2999  1.8959
 2150SOL    HW3 8674   4.364   1.250   3.469  1.0507  2.5285  1.2204
 2150SOL    MW4 8675   4.291   1.285   3.502 -0.4187  0.3011  0.4816
 2151SOL     OW 8676   4.277   1.530   3.413  0.4240 -0.4425  0.4678
 2151SOL    HW2 8677   4.200   1.583   3.436 -0.1647 -1.0676 -0.0306
 2151SOL    HW3 8678   4.286   1.541   3.319 -1.0682 -2.9917 -0.0084
 2151SOL    MW4 8679   4.268   1.539   3.404  0.1493 -0.8613  0.3390
 2152SOL     OW 8680   4.047   1.653   3.532 -0.0147  0.1558 -0.6230
 2152SOL    HW2 8681   4.038   1.673   3.625  2.8540  0.5777 -0.3944
 2152SOL    HW3 8682   4.025   1.735   3.487 -1.2568 -0.0089 -0.3288
 2152SOL    MW4 8683   4.043   1.667   3.538  0.1998  0.1898 -0.5543
 2153SOL     OW 8684   4.031   1.894   3.395 -0.1245  0.0482  0.1594
 2153SOL    HW2 8685   4.102   1.950   3.427 -0.0672  0.0133  0.0946
 2153SOL    HW3 8686   4.032   1.906   3.300  0.0990 -0.3081  0.1157
 2153SOL    MW4 8687   4.041   1.903   3.387 -0.0873 -0.0035  0.1450
 2154SOL     OW 8688   4.240   2.063   3.495 -0.3433  0.3028 -0.0172
 2154SOL    HW2 8689   4.270   2.151   3.470  1.2602 -0.5663 -1.2424
 2154SOL    HW3 8690   4.311   2.005   3.469 -0.5575 -1.1774  2.5435
 2154SOL    MW4 8691   4.253   2.067   3.488 -0.1597 -0.0074  0.1588
 2155SOL     OW 8692   4.274   2.347   3.442 -0.0136 -0.4563 -0.3517
 2155SOL    HW2 8693   4.201   2.406   3.458  0.5975  0.2513 -0.1648
 2155SOL    HW3 8694   4.275   2.334   3.348  0.7635  1.0134 -0.5589
 2155SOL    MW4 8695   4.264   2.353   3.432  0.1698 -0.1690 -0.3545
 2156SOL     OW 8696   4.036   2.480   3.463 -0.6157 -0.2198  0.0917
 2156SOL    HW2 8697   4.041   2.483   3.559  1.0451  1.0304 -0.0027
 2156SOL    HW3 8698   4.043   2.572   3.436  0.4986 -0.6899 -1.2812
 2156SOL    MW4 8699   4.038   2.492   3.472 -0.2499 -0.1168 -0.1020
 2157SOL     OW 8700   4.064   2.728   3.355  0.1504  0.1733  0.5185
 2157SOL    HW2 8701   4.131   2.783   3.396  0.3299  0.9555 -0.8238
 2157SOL    HW3 8702   3.981   2.772   3.374  0.0914 -0.2668  1.3194
 2157SOL    MW4 8703   4.062   2.741   3.363  0.1659  0.2184  0.4468
 2158SOL     OW 8704   4.246   2.893   3.482 -0.0927  0.2175 -0.0983
 2158SOL    HW2 8705   4.244   2.890   3.578 -2.0820 -0.2165 -0.1436
 2158SOL    HW3 8706   4.333   2.858   3.459 -1.2013 -3.7816  1.4282
 2158SOL    MW4 8707   4.257   2.888   3.492 -0.5016 -0.3676  0.0970
 2159SOL     OW 8708   4.278   3.152   3.398  0.3385 -0.3933  0.0426
 2159SOL    HW2 8709   4.267   3.060   3.424  0.5083 -0.0949  1.2046
 2159SOL    HW3 8710   4.272   3.151   3.302 -0.6082 -1.4832  0.1036
 2159SOL    MW4 8711   4.276   3.139   3.389  0.2360 -0.4978  0.2041
 2160SOL     OW 8712   4.027   3.233   3.447  0.0290  0.3675  0.0529
 2160SOL    HW2 8713   4.028   3.320   3.408  2.0018  0.2539 -0.2073
 2160SOL    HW3 8714   4.115   3.198   3.431 -0.0331 -0.8114  2.0775
 2160SOL    MW4 8715   4.039   3.240   3.440  0.2809  0.1969  0.2856
 2161SOL     OW 8716   4.045   3.495   3.364 -0.3590 -0.5217  0.1132
 2161SOL    HW2 8717   4.123   3.536   3.401 -0.8059 -0.4928  1.0483
 2161SOL    HW3 8718   3.974   3.557   3.383 -0.6548 -0.6745 -0.4793
 2161SOL    MW4 8719   4.046   3.508   3.371 -0.4573 -0.5379  0.1583
 2162SOL     OW 8720   4.258   3.616   3.484  0.4966  0.2304  0.1422
 2162SOL    HW2 8721   4.248   3.604   3.578 -0.8395 -0.3106 -0.0580
 2162SOL    HW3 8722   4.236   3.707   3.468  2.2451  0.7458  0.5407
 2162SOL    MW4 8723   4.254   3.626   3.494  0.5512  0.2267  0.1683
 2163SOL     OW 8724   4.248   3.907   3.447 -0.1077  0.0935 -0.2520
 2163SOL    HW2 8725   4.336   3.932   3.476 -0.2484 -0.3732  0.6179
 2163SOL    HW3 8726   4.252   3.907   3.352  0.6946  0.5723 -0.2167
 2163SOL    MW4 8727   4.260   3.910   3.439 -0.0200  0.0951 -0.1328
 2164SOL     OW 8728   4.003   4.047   3.540 -0.5793  0.5379  0.3259
 2164SOL    HW2 8729   4.082   4.000   3.513 -0.6006 -1.9775  4.2628
 2164SOL    HW3 8730   3.932   4.002   3.496  0.0625  2.3377 -2.6467
 2164SOL    MW4 8731   4.004   4.035   3.531 -0.4973  0.4435  0.4535
 2165SOL     OW 8732   4.076   4.305   3.415  0.2172  0.4532 -0.0451
 2165SOL    HW2 8733   4.058   4.216   3.446 -0.3942  0.1807 -1.1513
 2165SOL    HW3 8734   3.999   4.355   3.441  0.9919  0.8975  1.4504
 2165SOL    MW4 8735   4.063   4.300   3.422  0.2394  0.4754  0.0062
 2166SOL     OW 8736   4.313   4.374   3.523  0.3074  0.3512  0.1257
 2166SOL    HW2 8737   4.310   4.376   3.619  0.3164 -2.2406  0.2260
 2166SOL    HW3 8738   4.224   4.350   3.498  0.5984 -0.1263 -0.4513
 2166SOL    MW4 8739   4.301   4.371   3.533  0.3476 -0.0539  0.0629
 2167SOL     OW 8740   0.227   4.652   3.893 -0.1384  0.5227  0.1683
 2167SOL    HW2 8741   0.226   4.657   3.989 -1.8003 -1.3217  0.2935
 2167SOL    HW3 8742   0.154   4.707   3.865  0.1105  0.7588 -0.0120
 2167SOL    MW4 8743   0.217   4.660   3.902 -0.3248  0.3109  0.1609
 2168SOL     OW 8744   0.001   0.135   3.821  0.5052  0.5610 -0.0072
 2168SOL    HW2 8745   0.026   0.226   3.836  0.5871  0.9216 -2.1636
 2168SOL    HW3 8746  -0.015   0.130   3.727  0.9266 -1.7598  0.0161
 2168SOL    MW4 8747   0.002   0.146   3.811  0.5716  0.3024 -0.2885
 2169SOL     OW 8748   0.039   0.395   3.858  0.5587  0.0115  0.1046
 2169SOL    HW2 8749  -0.041   0.445   3.841  0.9717  0.9812  0.9630
 2169SOL    HW3 8750   0.109   0.451   3.826  0.8150 -1.6376 -2.4069
 2169SOL    MW4 8751   0.038   0.409   3.851  0.6470 -0.0781 -0.1137
 2170SOL     OW 8752   0.264   0.531   3.779 -0.0560  0.2764  0.4768
 2170SOL    HW2 8753   0.279   0.617   3.818 -0.1631  1.0907 -1.2452
 2170SOL    HW3 8754   0.253   0.548   3.686  0.3698 -1.6560  0.0425
 2170SOL    MW4 8755   0.265   0.544   3.772 -0.0139  0.1289  0.1924
 2171SOL     OW 8756   0.287   0.781   3.875  0.1414 -0.5527 -0.3339
 2171SOL    HW2 8757   0.283   0.773   3.970  0.6866  0.1181 -0.2537
 2171SOL    HW3 8758   0.207   0.827   3.850  1.7055  2.5159  0.1510
 2171SOL    MW4 8759   0.276   0.786   3.884  0.4197 -0.0594 -0.2594
 2172SOL     OW 8760   0.011   0.889   3.813 -0.3984 -0.0278  0.1011
 2172SOL    HW2 8761  -0.065   0.861   3.865 -0.1971  0.6410  0.7622
 2172SOL    HW3 8762   0.020   0.982   3.833 -0.7646  0.4211 -1.7026
 2172SOL    MW4 8763   0.002   0.897   3.823 -0.4202  0.1197 -0.0498
 2173SOL     OW 8764   0.025   1.157   3.840 -0.3502  0.2406  0.2891
 2173SOL    HW2 8765  -0.053   1.204   3.812  0.8851  1.0968 -1.8510
 2173SOL    HW3 8766   0.098   1.217   3.819  0.9422 -0.8727  1.4794
 2173SOL    MW4 8767   0.025   1.171   3.833 -0.0167  0.2067  0.1638
 2174SOL     OW 8768   0.264   1.308   3.787  0.2610  0.2379  0.2337
 2174SOL    HW2 8769   0.275   1.399   3.814  1.4674 -0.0735  0.8138
 2174SOL    HW3 8770   0.269   1.311   3.692  0.2500  0.7880  0.2471
 2174SOL    MW4 8771   0.266   1.320   3.778  0.4187  0.2693  0.3121
 2175SOL     OW 8772   0.231   1.568   3.872 -0.1536 -0.0599 -0.0777
 2175SOL    HW2 8773   0.246   1.583   3.966  1.1901  1.6858 -0.5585
 2175SOL    HW3 8774   0.150   1.617   3.854 -1.0379 -1.3175  0.3883
 2175SOL    MW4 8775   0.222   1.577   3.882 -0.0930  0.0045 -0.0796
 2176SOL     OW 8776   4.458   1.649   3.783  0.0418 -0.0210 -0.0166
 2176SOL    HW2 8777   4.465   1.742   3.803  0.4755 -0.0074 -0.2212
 2176SOL    HW3 8778   4.471   1.644   3.688 -0.5433 -0.2307 -0.0856
 2176SOL    MW4 8779   4.461   1.661   3.773  0.0219 -0.0468 -0.0527
 2177SOL     OW 8780   4.447   1.910   3.845  0.1215 -0.6088  0.1698
 2177SOL    HW2 8781   4.478   1.934   3.933  1.0018 -1.9933  0.2401
 2177SOL    HW3 8782   4.376   1.973   3.828  1.6083  1.3148  0.8241
 2177SOL    MW4 8783   4.442   1.922   3.855  0.4334 -0.5376  0.2654
 2178SOL     OW 8784   0.218   2.017   3.754  0.1105  0.4679 -0.0232
 2178SOL    HW2 8785   0.225   2.108   3.784  1.0446  0.8458 -1.3654
 2178SOL    HW3 8786   0.130   1.991   3.780 -0.1842  1.7708  0.3474
 2178SOL    MW4 8787   0.207   2.026   3.761  0.1948  0.6895 -0.1514
 2179SOL     OW 8788   0.261   2.299   3.818 -0.0528  0.4079 -0.1151
 2179SOL    HW2 8789   0.262   2.306   3.913 -1.2576 -0.9380  0.0083
 2179SOL    HW3 8790   0.178   2.336   3.792 -0.8917 -1.5934 -0.4134
 2179SOL    MW4 8791   0.250   2.305   3.827 -0.3224 -0.0336 -0.1380
 2180SOL     OW 8792   0.042   2.432   3.735 -0.2383 -0.3865 -0.5451
 2180SOL    HW2 8793  -0.038   2.388   3.763  0.5677 -0.4958  1.7140
 2180SOL    HW3 8794   0.029   2.524   3.759  0.1986 -0.3564 -0.4102
 2180SOL    MW4 8795   0.030   2.438   3.742 -0.0744 -0.3970 -0.2291
 2181SOL     OW 8796   0.005   2.694   3.821 -0.1395 -0.0715  0.8716
 2181SOL    HW2 8797   0.019   2.703   3.916  0.6816 -0.7369  0.8241
 2181SOL    HW3 8798   0.072   2.750   3.782  0.9365 -1.4472  0.6709
 2181SOL    MW4 8799   0.016   2.702   3.829  0.1108 -0.3407  0.8385
 2182SOL     OW 8800   0.222   2.869   3.727  0.4054 -0.4989 -0.2541
 2182SOL    HW2 8801   0.313   2.841   3.739  0.5932 -0.1128 -0.7495
 2182SOL    HW3 8802   0.212   2.878   3.632  0.4482  1.4184 -0.0920
 2182SOL    MW4 8803   0.233   2.866   3.716  0.4358 -0.1950 -0.2983
 2183SOL     OW 8804   0.248   3.138   3.873 -0.4779  0.1266  0.1084
 2183SOL    HW2 8805   0.260   3.119   3.966  1.4023  0.5684 -0.0239
 2183SOL    HW3 8806   0.243   3.051   3.831  1.8972 -0.1132  0.2535
 2183SOL    MW4 8807   0.249   3.124   3.879  0.0835  0.1533  0.1101
 2184SOL     OW 8808   4.490   3.226   3.766  0.6338 -0.0351 -0.0712
 2184SOL    HW2 8809   4.563   3.179   3.805  0.6802  0.2997  0.2536
 2184SOL    HW3 8810   4.511   3.231   3.673  1.5116  0.9173  0.1628
 2184SOL    MW4 8811   4.502   3.221   3.759  0.7558  0.1349  0.0024
 2185SOL     OW 8812   4.464   3.480   3.884 -0.0183 -0.1162 -0.3360
 2185SOL    HW2 8813   4.535   3.529   3.844  0.9747 -2.2831 -1.3379
 2185SOL    HW3 8814   4.473   3.391   3.848 -0.9076 -1.3940  2.4272
 2185SOL    MW4 8815   4.475   3.475   3.874 -0.0043 -0.5710 -0.1037
 2186SOL     OW 8816   0.236   3.601   3.850  0.0237  0.1130 -0.5857
 2186SOL    HW2 8817   0.318   3.557   3.873 -0.4608 -0.1723  0.6491
 2186SOL    HW3 8818   0.253   3.694   3.865  0.0483  0.0291 -0.0676
 2186SOL    MW4 8819   0.249   3.607   3.855 -0.0370  0.0641 -0.3543
 2187SOL     OW 8820   0.243   3.869   3.896 -0.4196 -0.0738  0.1751
 2187SOL    HW2 8821   0.261   3.872   3.990  1.0166  0.2345 -0.0942
 2187SOL    HW3 8822   0.308   3.928   3.858 -1.0945 -0.0906 -0.9938
 2187SOL    MW4 8823   0.254   3.877   3.904 -0.3192 -0.0350 -0.0148
 2188SOL     OW 8824   0.023   4.013   3.810 -0.2356  0.0654  0.3094
 2188SOL    HW2 8825  -0.047   3.967   3.857  0.1420 -0.8464 -0.0124
 2188SOL    HW3 8826   0.101   3.960   3.825  0.0166  0.0927 -0.8260
 2188SOL    MW4 8827   0.024   4.000   3.818 -0.1525 -0.0508  0.1171
 2189SOL     OW 8828   0.018   4.284   3.871  0.1866 -0.2627 -0.0924
 2189SOL    HW2 8829   0.093   4.322   3.826 -0.9673  0.6675 -1.2557
 2189SOL    HW3 8830   0.023   4.190   3.851  0.5926 -0.0934 -0.8066
 2189SOL    MW4 8831   0.029   4.277   3.863  0.0879 -0.1178 -0.3405
 2190SOL     OW 8832   0.243   4.394   3.750 -0.2329 -0.2458  0.2585
 2190SOL    HW2 8833   0.301   4.335   3.798 -1.8280 -1.4309  0.8056
 2190SOL    HW3 8834   0.240   4.474   3.803  1.0388 -0.0967  0.1171
 2190SOL    MW4 8835   0.250   4.397   3.763 -0.2756 -0.3824  0.3119
 2191SOL     OW 8836   0.685   4.622   3.881 -0.2118  0.0495  0.1487
 2191SOL    HW2 8837   0.677   4.538   3.836 -0.9940 -0.1956  0.7420
 2191SOL    HW3 8838   0.604   4.668   3.859 -0.4179  0.0845  0.9771
 2191SOL    MW4 8839   0.673   4.617   3.872 -0.3422  0.0219  0.3364
 2192SOL     OW 8840   0.474   0.117   3.793  0.2088  0.1060  0.0489
 2192SOL    HW2 8841   0.460   0.199   3.841  0.0650 -0.2569  0.6263
 2192SOL    HW3 8842   0.402   0.061   3.819  0.2293 -0.1585 -0.4593
 2192SOL    MW4 8843   0.463   0.120   3.803  0.1926  0.0232  0.0584
 2193SOL     OW 8844   0.481   0.389   3.895  0.2735 -0.3782 -0.1138
 2193SOL    HW2 8845   0.552   0.432   3.846 -0.5189  1.9672  0.7038
 2193SOL    HW3 8846   0.401   0.420   3.852 -0.2986 -2.0932 -0.3092
 2193SOL    MW4 8847   0.480   0.399   3.883  0.0935 -0.2950 -0.0317
 2194SOL     OW 8848   0.668   0.540   3.751 -0.0919 -0.0015 -0.6046
 2194SOL    HW2 8849   0.737   0.476   3.766 -0.3132 -0.4381 -1.4124
 2194SOL    HW3 8850   0.694   0.617   3.802  1.0752 -0.1006 -1.0440
 2194SOL    MW4 8851   0.681   0.542   3.760  0.0328 -0.0722 -0.7691
 2195SOL     OW 8852   0.675   0.786   3.907 -0.3026 -0.1759  0.0092
 2195SOL    HW2 8853   0.751   0.836   3.879 -0.5256  0.2646  0.1863
 2195SOL    HW3 8854   0.599   0.837   3.878 -0.5521 -1.8805 -2.4298
 2195SOL    MW4 8855   0.675   0.799   3.900 -0.3649 -0.3427 -0.2892
 2196SOL     OW 8856   0.484   0.940   3.796 -0.4081  0.2036 -0.4838
 2196SOL    HW2 8857   0.471   1.024   3.840  0.3605  0.1521 -0.1627
 2196SOL    HW3 8858   0.401   0.894   3.809 -1.0391  1.1298 -1.1510
 2196SOL    MW4 8859   0.471   0.945   3.803 -0.3899  0.3190 -0.5295
 2197SOL     OW 8860   0.488   1.193   3.910  0.3111  0.1848 -0.1282
 2197SOL    HW2 8861   0.565   1.239   3.876  0.4113  0.1442  0.0409
 2197SOL    HW3 8862   0.414   1.236   3.867  0.3809  0.8199  0.3808
 2197SOL    MW4 8863   0.488   1.205   3.900  0.3335  0.2632 -0.0386
 2198SOL     OW 8864   0.679   1.361   3.773 -0.0762  0.1588  0.0360
 2198SOL    HW2 8865   0.767   1.328   3.792 -0.5942 -1.2445  0.0376
 2198SOL    HW3 8866   0.666   1.341   3.680  0.0042  1.2997 -0.2255
 2198SOL    MW4 8867   0.689   1.354   3.763 -0.1339  0.1240  0.0017
 2199SOL     OW 8868   0.718   1.581   3.933 -0.0910 -0.2980 -0.1633
 2199SOL    HW2 8869   0.790   1.622   3.885  0.4264 -1.3725 -0.3173
 2199SOL    HW3 8870   0.690   1.508   3.878 -0.8722 -0.2763  0.1979
 2199SOL    MW4 8871   0.724   1.577   3.920 -0.1258 -0.4369 -0.1359
 2200SOL     OW 8872   0.473   1.655   3.808  0.2506 -0.0054 -0.0191
 2200SOL    HW2 8873   0.529   1.631   3.882 -1.1187 -0.1180  1.0061
 2200SOL    HW3 8874   0.385   1.630   3.836 -0.2389 -0.4096 -1.8538
 2200SOL    MW4 8875   0.469   1.648   3.822  0.0054 -0.0734 -0.1256
 2201SOL     OW 8876   0.455   1.917   3.876 -0.0287 -0.0711 -0.3512
 2201SOL    HW2 8877   0.467   1.835   3.829  0.5925  0.2581 -0.7823
 2201SOL    HW3 8878   0.377   1.956   3.837  0.2776  0.0320 -0.8604
 2201SOL    MW4 8879   0.446   1.911   3.865  0.0936 -0.0139 -0.4752
 2202SOL     OW 8880   0.661   2.054   3.739 -0.4692 -0.6045  0.8406
 2202SOL    HW2 8881   0.652   2.142   3.777 -0.1007 -0.5668  0.8369
 2202SOL    HW3 8882   0.587   2.005   3.776 -0.7610 -0.2518  0.7263
 2202SOL    MW4 8883   0.650   2.059   3.749 -0.4591 -0.5529  0.8252
 2203SOL     OW 8884   0.657   2.331   3.823  0.4944  0.1018 -0.0197
 2203SOL    HW2 8885   0.730   2.387   3.799 -0.3510  0.2795 -2.3071
 2203SOL    HW3 8886   0.579   2.384   3.805 -0.2607 -0.8998  0.2223
 2203SOL    MW4 8887   0.656   2.346   3.818  0.2832 -0.0072 -0.2897
 2204SOL     OW 8888   0.443   2.507   3.750  0.2631 -0.1146 -0.1814
 2204SOL    HW2 8889   0.386   2.436   3.779  1.8332 -1.6513 -0.7170
 2204SOL    HW3 8890   0.450   2.494   3.655  1.3420  0.1423 -0.1472
 2204SOL    MW4 8891   0.437   2.496   3.741  0.6126 -0.2835 -0.2477
 2205SOL     OW 8892   0.483   2.786   3.766 -0.0181 -0.1016 -0.0672
 2205SOL    HW2 8893   0.564   2.823   3.731  0.3045 -0.3763  0.3859
 2205SOL    HW3 8894   0.493   2.692   3.756 -0.6286 -0.0986 -0.7566
 2205SOL    MW4 8895   0.495   2.779   3.760 -0.0561 -0.1376 -0.0982
 2206SOL     OW 8896   0.719   2.916   3.716  0.0673 -0.1830 -0.4865
 2206SOL    HW2 8897   0.782   2.860   3.761  0.3366 -0.5671 -1.3135
 2206SOL    HW3 8898   0.728   2.892   3.623  1.1612  2.1685 -1.0420
 2206SOL    MW4 8899   0.729   2.906   3.709  0.2472  0.0765 -0.6692
 2207SOL     OW 8900   0.654   3.163   3.841  0.2300  0.1978  0.3170
 2207SOL    HW2 8901   0.663   3.146   3.935  1.7066  1.7452  0.4779
 2207SOL    HW3 8902   0.675   3.080   3.799  0.5774 -0.2225  1.3019
 2207SOL    MW4 8903   0.658   3.150   3.848  0.4706  0.3464  0.4680
 2208SOL     OW 8904   0.436   3.275   3.743  0.2469  0.7018 -0.4801
 2208SOL    HW2 8905   0.513   3.230   3.778  0.1427 -1.0902 -2.4180
 2208SOL    HW3 8906   0.361   3.227   3.779  0.0732  1.2858 -0.0608
 2208SOL    MW4 8907   0.436   3.263   3.752  0.2102  0.5424 -0.6804
 2209SOL     OW 8908   0.492   3.482   3.917 -0.1345  0.0966 -0.1282
 2209SOL    HW2 8909   0.570   3.528   3.888  0.1409 -1.2078 -1.4815
 2209SOL    HW3 8910   0.484   3.408   3.858 -1.7470 -0.4350  0.7257
 2209SOL    MW4 8911   0.501   3.479   3.906 -0.3109 -0.1459 -0.1941
 2210SOL     OW 8912   0.707   3.610   3.803  0.1302  0.0812  0.1592
 2210SOL    HW2 8913   0.705   3.695   3.848  1.1604  0.0952  0.1784
 2210SOL    HW3 8914   0.696   3.631   3.711 -0.3011  0.1790  0.2301
 2210SOL    MW4 8915   0.705   3.624   3.797  0.2093  0.0961  0.1712
 2211SOL     OW 8916   0.667   3.880   3.894 -0.0355 -0.0621  0.5408
 2211SOL    HW2 8917   0.684   3.899   3.987 -0.9371  0.5857  0.5895
 2211SOL    HW3 8918   0.736   3.927   3.847 -0.1169  0.3760  0.8507
 2211SOL    MW4 8919   0.678   3.889   3.900 -0.1652  0.0808  0.5884
 2212SOL     OW 8920   0.444   4.022   3.793 -0.1647 -0.5687 -0.0004
 2212SOL    HW2 8921   0.510   3.964   3.830 -0.2659 -0.2863  0.6311
 2212SOL    HW3 8922   0.466   4.028   3.700 -0.6751 -2.3404 -0.2667
 2212SOL    MW4 8923   0.455   4.015   3.786 -0.2454 -0.7648  0.0474
 2213SOL     OW 8924   0.439   4.276   3.899 -0.1505  0.3434  0.1518
 2213SOL    HW2 8925   0.514   4.319   3.858 -0.8598  1.3757 -0.0746
 2213SOL    HW3 8926   0.449   4.184   3.876  2.6124 -0.0175  2.4896
 2213SOL    MW4 8927   0.450   4.270   3.891  0.1205  0.4320  0.4301
 2214SOL     OW 8928   0.652   4.367   3.749 -0.3958  0.4059 -0.4255
 2214SOL    HW2 8929   0.728   4.322   3.785 -1.2512 -0.4845  0.3408
 2214SOL    HW3 8930   0.671   4.377   3.656  0.2026 -0.7682 -0.4426
 2214SOL    MW4 8931   0.664   4.362   3.741 -0.4297  0.1335 -0.3264
 2215SOL     OW 8932   1.132   0.017   3.900  0.3384  0.0855  0.5877
 2215SOL    HW2 8933   1.207   0.069   3.871 -0.5751  0.7490 -0.6692
 2215SOL    HW3 8934   1.143  -0.067   3.856  0.2087  0.2785  0.1792
 2215SOL    MW4 8935   1.143   0.013   3.890  0.2007  0.1984  0.3679
 2216SOL     OW 8936   0.894   0.112   3.780  0.1619 -0.1850  0.4404
 2216SOL    HW2 8937   0.974   0.085   3.827  0.6043 -1.1828 -0.8630
 2216SOL    HW3 8938   0.828   0.048   3.807  0.1797 -0.2195  0.4024
 2216SOL    MW4 8939   0.896   0.100   3.790  0.2226 -0.3212  0.2635
 2217SOL     OW 8940   0.877   0.373   3.831  0.1409 -0.3022  0.7110
 2217SOL    HW2 8941   0.905   0.369   3.923 -0.7588 -1.8124  0.9358
 2217SOL    HW3 8942   0.857   0.283   3.808 -0.8910  0.2395 -0.5873
 2217SOL    MW4 8943   0.878   0.361   3.840 -0.1140 -0.4300  0.5698
 2218SOL     OW 8944   1.082   0.560   3.812 -0.5335  0.0406  0.0111
 2218SOL    HW2 8945   1.153   0.509   3.850 -0.0216  0.3765 -0.5058
 2218SOL    HW3 8946   1.007   0.499   3.812  0.1075 -0.7624 -0.7425
 2218SOL    MW4 8947   1.081   0.545   3.817 -0.3814 -0.0211 -0.1566
 2219SOL     OW 8948   1.091   0.824   3.893  0.1815  0.2882 -0.0275
 2219SOL    HW2 8949   1.084   0.803   3.986 -1.7003  0.5848 -0.0988
 2219SOL    HW3 8950   1.084   0.739   3.849 -0.6691  0.3442  0.0082
 2219SOL    MW4 8951   1.089   0.810   3.900 -0.1791  0.3347 -0.0319
 2220SOL     OW 8952   0.875   0.962   3.799  0.2506  0.0677 -0.5472
 2220SOL    HW2 8953   0.961   0.927   3.823  1.0418  0.2635 -2.9818
 2220SOL    HW3 8954   0.860   0.932   3.710 -1.4563  1.4405 -0.7592
 2220SOL    MW4 8955   0.885   0.954   3.790  0.1298  0.2747 -0.8962
 2221SOL     OW 8956   0.898   1.248   3.889 -0.6471 -0.4309 -0.0604
 2221SOL    HW2 8957   0.902   1.249   3.984 -2.2227  1.2035  0.0129
 2221SOL    HW3 8958   0.868   1.160   3.867  1.5259 -1.4350  0.8414
 2221SOL    MW4 8959   0.895   1.236   3.898 -0.5683 -0.3477  0.0684
 2222SOL     OW 8960   1.159   1.317   3.812  0.2392 -0.3029  0.1600
 2222SOL    HW2 8961   1.145   1.405   3.849  0.0983 -0.7583  1.2149
 2222SOL    HW3 8962   1.073   1.275   3.818  0.9658 -1.5688  2.5310
 2222SOL    MW4 8963   1.146   1.323   3.818  0.3166 -0.5300  0.6123
 2223SOL     OW 8964   1.128   1.594   3.870 -0.3589  0.2868  0.4205
 2223SOL    HW2 8965   1.140   1.589   3.965 -0.8573  1.2721  0.5411
 2223SOL    HW3 8966   1.209   1.633   3.837 -0.6944  1.1140  0.5738
 2223SOL    MW4 8967   1.140   1.599   3.878 -0.4690  0.5260  0.4566
 2224SOL     OW 8968   0.911   1.698   3.769  0.2691  0.3530 -0.3477
 2224SOL    HW2 8969   0.990   1.672   3.817  0.1579 -0.8857 -0.8363
 2224SOL    HW3 8970   0.928   1.674   3.678 -1.1422 -1.0521 -0.2677
 2224SOL    MW4 8971   0.924   1.692   3.764  0.0683  0.0042 -0.4015
 2225SOL     OW 8972   0.895   1.941   3.869  0.8283 -0.4581 -0.0694
 2225SOL    HW2 8973   0.885   1.860   3.819 -1.4197 -1.8805  2.5854
 2225SOL    HW3 8974   0.815   1.991   3.851  0.4815 -0.5207  1.2520
 2225SOL    MW4 8975   0.883   1.937   3.860  0.4860 -0.6540  0.4554
 2226SOL     OW 8976   1.135   2.016   3.766 -0.0014  0.0737  0.2620
 2226SOL    HW2 8977   1.055   1.980   3.804  0.9763 -1.9319  0.4812
 2226SOL    HW3 8978   1.123   2.008   3.671  0.4618 -1.4807  0.3122
 2226SOL    MW4 8979   1.123   2.010   3.759  0.1885 -0.3960  0.2978
 2227SOL     OW 8980   1.110   2.291   3.889  0.1009  0.1880  0.3236
 2227SOL    HW2 8981   1.111   2.287   3.985  0.6339  0.3133  0.3294
 2227SOL    HW3 8982   1.122   2.201   3.861  0.3849  0.2052  0.3821
 2227SOL    MW4 8983   1.112   2.279   3.898  0.2089  0.2072  0.3321
 2228SOL     OW 8984   0.896   2.467   3.778 -0.0451 -0.0282  0.5472
 2228SOL    HW2 8985   0.922   2.557   3.799 -1.1167  0.0502  1.6322
 2228SOL    HW3 8986   0.964   2.412   3.816 -0.7174  0.2263  2.1655
 2228SOL    MW4 8987   0.908   2.472   3.786 -0.2751  0.0155  0.9038
 2229SOL     OW 8988   0.918   2.739   3.838  0.2674  0.1009  0.1462
 2229SOL    HW2 8989   0.918   2.761   3.931  1.1291 -0.4099  0.2645
 2229SOL    HW3 8990   0.995   2.783   3.803 -0.6447  1.1720 -0.5372
 2229SOL    MW4 8991   0.928   2.748   3.846  0.2607  0.1750  0.0718
 2230SOL     OW 8992   1.150   2.841   3.729  0.2286  0.5422  0.0008
 2230SOL    HW2 8993   1.220   2.790   3.770 -0.0085  0.0433 -0.2142
 2230SOL    HW3 8994   1.150   2.924   3.776 -0.2705 -0.1480  1.2403
 2230SOL    MW4 8995   1.159   2.845   3.741  0.1315  0.3853  0.1359
 2231SOL     OW 8996   1.159   3.077   3.858 -0.0165 -0.3688 -0.6423
 2231SOL    HW2 8997   1.231   3.122   3.815  0.7682 -0.1204  0.9112
 2231SOL    HW3 8998   1.080   3.121   3.826  0.4017 -1.4449 -3.3194
 2231SOL    MW4 8999   1.158   3.088   3.848  0.1422 -0.4783 -0.7906
 2232SOL     OW 9000   0.931   3.227   3.793  0.0725 -0.1719 -0.4913
 2232SOL    HW2 9001   0.842   3.193   3.807 -1.0949  2.6233 -0.8938
 2232SOL    HW3 9002   0.934   3.252   3.701  0.5254  1.8278  0.0444
 2232SOL    MW4 9003   0.920   3.226   3.783 -0.0218  0.4609 -0.4735
 2233SOL     OW 9004   0.903   3.468   3.919 -0.1503  0.3876  0.7055
 2233SOL    HW2 9005   0.913   3.381   3.881  0.2641  0.3025  0.9985
 2233SOL    HW3 9006   0.834   3.510   3.867  0.0633  0.0983  0.1836
 2233SOL    MW4 9007   0.895   3.462   3.907 -0.0674  0.3381  0.6754
 2234SOL     OW 9008   1.115   3.590   3.772 -0.1132 -0.3508  0.4559
 2234SOL    HW2 9009   1.124   3.675   3.815  0.3790 -0.5311  0.7135
 2234SOL    HW3 9010   1.041   3.548   3.817  0.5387 -0.6276  1.2809
 2234SOL    MW4 9011   1.106   3.595   3.783  0.0378 -0.4113  0.5989
 2235SOL     OW 9012   1.113   3.875   3.855  0.6865  0.1402  0.4971
 2235SOL    HW2 9013   1.110   3.872   3.951 -0.0705 -0.3244  0.4637
 2235SOL    HW3 9014   1.194   3.923   3.835  1.3255 -0.5734  1.3516
 2235SOL    MW4 9015   1.123   3.881   3.865  0.6709 -0.0153  0.6056
 2236SOL     OW 9016   0.875   3.972   3.742  0.0688 -0.1954 -0.1577
 2236SOL    HW2 9017   0.945   3.923   3.785  0.0418  0.0852  0.2031
 2236SOL    HW3 9018   0.886   3.952   3.649  0.4936 -0.3245 -0.0817
 2236SOL    MW4 9019   0.886   3.963   3.735  0.1213 -0.1752 -0.0999
 2237SOL     OW 9020   0.873   4.254   3.822 -0.0250  0.0886  0.1400
 2237SOL    HW2 9021   0.880   4.262   3.917  1.0916 -0.2165  0.0946
 2237SOL    HW3 9022   0.888   4.161   3.804  0.5597  0.2803 -0.3924
 2237SOL    MW4 9023   0.876   4.243   3.832  0.1995  0.0739  0.0637
 2238SOL     OW 9024   1.129   4.431   3.767 -0.0588  0.5160 -0.4877
 2238SOL    HW2 9025   1.044   4.392   3.783  0.0810  0.0142 -0.9446
 2238SOL    HW3 9026   1.148   4.411   3.675  1.5200 -1.2662  0.1891
 2238SOL    MW4 9027   1.120   4.424   3.757  0.1680  0.2146 -0.4587
 2239SOL     OW 9028   1.584   0.032   3.860  0.7032  0.0996 -0.0386
 2239SOL    HW2 9029   1.595   0.016   3.953  1.0726 -1.1280 -0.2772
 2239SOL    HW3 9030   1.564  -0.055   3.823  0.1766  0.6321 -1.0412
 2239SOL    MW4 9031   1.582   0.018   3.867  0.6824  0.0078 -0.2022
 2240SOL     OW 9032   1.358   0.159   3.797 -0.5880  0.0027  0.1211
 2240SOL    HW2 9033   1.368   0.250   3.825  0.9334  0.4574 -1.7540
 2240SOL    HW3 9034   1.445   0.120   3.809 -0.6373 -0.5615 -1.2244
 2240SOL    MW4 9035   1.371   0.166   3.802 -0.3939 -0.0118 -0.3037
 2241SOL     OW 9036   1.315   0.424   3.865 -0.1866 -0.4365 -0.4979
 2241SOL    HW2 9037   1.336   0.399   3.955  0.1717 -1.0076 -0.7378
 2241SOL    HW3 9038   1.400   0.448   3.827 -0.6140  1.9202 -0.0378
 2241SOL    MW4 9039   1.329   0.424   3.872 -0.1957 -0.2009 -0.4687
 2242SOL     OW 9040   1.562   0.489   3.776 -0.5900  0.5423 -0.0526
 2242SOL    HW2 9041   1.642   0.459   3.819 -0.1322  1.4212 -0.2856
 2242SOL    HW3 9042   1.545   0.575   3.815 -1.4227  0.3624 -0.0070
 2242SOL    MW4 9043   1.570   0.496   3.787 -0.6394  0.6345 -0.0775
 2243SOL     OW 9044   1.540   0.751   3.904 -0.4979 -0.3841  0.0183
 2243SOL    HW2 9045   1.628   0.781   3.880 -0.1587 -1.4552 -0.1341
 2243SOL    HW3 9046   1.481   0.817   3.869  0.2850  0.7480  0.7889
 2243SOL    MW4 9047   1.544   0.764   3.897 -0.3498 -0.3760  0.0997
 2244SOL     OW 9048   1.352   0.913   3.794 -0.0472  0.6871  0.6381
 2244SOL    HW2 9049   1.355   0.997   3.840 -0.9134  0.6188  0.8247
 2244SOL    HW3 9050   1.277   0.867   3.831  1.0594 -0.6283  1.3001
 2244SOL    MW4 9051   1.343   0.918   3.805 -0.0156  0.5045  0.7503
 2245SOL     OW 9052   1.358   1.173   3.901  0.3274  0.1570 -0.2124
 2245SOL    HW2 9053   1.436   1.205   3.855  0.8386 -1.7158 -0.6597
 2245SOL    HW3 9054   1.287   1.228   3.867  0.7746 -0.8634 -2.8843
 2245SOL    MW4 9055   1.359   1.185   3.890  0.4539 -0.2247 -0.6239
 2246SOL     OW 9056   1.597   1.266   3.784  0.5387 -0.4013 -0.0964
 2246SOL    HW2 9057   1.685   1.234   3.801  0.8009  0.2589 -0.2166
 2246SOL    HW3 9058   1.593   1.352   3.825  0.1103 -0.2188 -0.5043
 2246SOL    MW4 9059   1.608   1.273   3.791  0.5169 -0.2902 -0.1664
 2247SOL     OW 9060   1.573   1.527   3.914  0.0658 -0.5743 -0.1475
 2247SOL    HW2 9061   1.581   1.533   4.009 -0.6922  1.2461 -0.1749
 2247SOL    HW3 9062   1.648   1.575   3.880 -0.4113 -0.0113 -0.4391
 2247SOL    MW4 9063   1.584   1.534   3.922 -0.0972 -0.2599 -0.1895
 2248SOL     OW 9064   1.377   1.690   3.749  0.0528  0.0794  0.4809
 2248SOL    HW2 9065   1.366   1.766   3.806  1.3780  1.6282 -1.2483
 2248SOL    HW3 9066   1.450   1.642   3.787  0.2665  0.5589  0.6808
 2248SOL    MW4 9067   1.385   1.694   3.761  0.2559  0.3470  0.2792
 2249SOL     OW 9068   1.344   1.915   3.903 -0.0937 -0.3568 -0.0670
 2249SOL    HW2 9069   1.353   1.946   3.993 -0.0992 -0.6099  0.0214
 2249SOL    HW3 9070   1.265   1.958   3.870 -0.0088 -0.1504  0.0022
 2249SOL    MW4 9071   1.335   1.924   3.910 -0.0832 -0.3630 -0.0460
 2250SOL     OW 9072   1.566   2.069   3.806 -0.4666  0.3766 -0.1131
 2250SOL    HW2 9073   1.483   2.045   3.848  0.7235 -1.1743  1.4364
 2250SOL    HW3 9074   1.554   2.047   3.714 -2.0679  0.9526 -0.0555
 2250SOL    MW4 9075   1.553   2.063   3.800 -0.5208  0.2480  0.0989
 2251SOL     OW 9076   1.553   2.337   3.842 -0.0439  0.4036  0.0240
 2251SOL    HW2 9077   1.635   2.377   3.812  0.1104 -0.4595 -0.7422
 2251SOL    HW3 9078   1.572   2.243   3.844 -0.6820  0.2799  0.9072
 2251SOL    MW4 9079   1.567   2.330   3.838 -0.1078  0.2735  0.0396
 2252SOL     OW 9080   1.299   2.443   3.778  0.0091  0.4380  0.3039
 2252SOL    HW2 9081   1.384   2.408   3.805 -0.2790 -1.2119 -0.8612
 2252SOL    HW3 9082   1.235   2.392   3.826 -0.3860  0.1838 -0.4806
 2252SOL    MW4 9083   1.302   2.432   3.788 -0.0811  0.1867  0.0470
 2253SOL     OW 9084   1.365   2.704   3.839 -0.3659 -0.1487  0.1807
 2253SOL    HW2 9085   1.354   2.717   3.933  0.4550  0.2508  0.2209
 2253SOL    HW3 9086   1.337   2.613   3.824 -0.4159 -0.2381  0.8150
 2253SOL    MW4 9087   1.360   2.694   3.850 -0.2643 -0.1075  0.2697
 2254SOL     OW 9088   1.590   2.818   3.717  0.5992 -0.0851  0.3472
 2254SOL    HW2 9089   1.513   2.773   3.753  0.4018  0.6269  0.8136
 2254SOL    HW3 9090   1.573   2.822   3.623  0.8147 -1.3610  0.2450
 2254SOL    MW4 9091   1.577   2.812   3.709  0.6016 -0.1593  0.3953
 2255SOL     OW 9092   1.564   3.058   3.845 -0.4374  0.0968 -0.1372
 2255SOL    HW2 9093   1.561   3.041   3.939  2.0384  0.5536  0.0602
 2255SOL    HW3 9094   1.568   2.971   3.805  0.9086 -0.0482  0.3063
 2255SOL    MW4 9095   1.564   3.044   3.852  0.0670  0.1380 -0.0527
 2256SOL     OW 9096   1.353   3.213   3.757  0.0334 -0.0806  0.1414
 2256SOL    HW2 9097   1.348   3.300   3.797  0.8784  0.0294  0.0144
 2256SOL    HW3 9098   1.436   3.176   3.788 -0.3885 -0.8998  0.3093
 2256SOL    MW4 9099   1.363   3.220   3.766  0.0892 -0.1740  0.1469
 2257SOL     OW 9100   1.344   3.468   3.877  0.2073  0.3070  0.0703
 2257SOL    HW2 9101   1.419   3.516   3.845 -0.4100 -0.5289 -2.7764
 2257SOL    HW3 9102   1.268   3.514   3.841 -0.5149 -0.7257  0.2293
 2257SOL    MW4 9103   1.344   3.480   3.868  0.0306  0.0603 -0.2847
 2258SOL     OW 9104   1.572   3.602   3.788  0.2310  0.5355  0.0404
 2258SOL    HW2 9105   1.639   3.554   3.837 -0.2017  0.4427  0.5428
 2258SOL    HW3 9106   1.565   3.686   3.833 -2.2417 -0.6338  1.9350
 2258SOL    MW4 9107   1.580   3.607   3.800 -0.1522  0.3691  0.3567
 2259SOL     OW 9108   1.559   3.868   3.911  0.3051  0.3201 -0.5184
 2259SOL    HW2 9109   1.578   3.885   4.003  0.7603  0.6283 -0.6640
 2259SOL    HW3 9110   1.470   3.899   3.898 -0.3878 -1.2990  0.2192
 2259SOL    MW4 9111   1.550   3.874   3.921  0.2737  0.1469 -0.4404
 2260SOL     OW 9112   1.335   4.008   3.774  0.3087 -0.3053 -0.5903
 2260SOL    HW2 9113   1.313   4.095   3.807 -2.1627 -1.6043  1.2978
 2260SOL    HW3 9114   1.337   4.019   3.679 -1.3327  1.5061 -0.4429
 2260SOL    MW4 9115   1.333   4.021   3.766 -0.2340 -0.2379 -0.3219
 2261SOL     OW 9116   1.325   4.271   3.914  0.0232  0.0213  0.2879
 2261SOL    HW2 9117   1.408   4.305   3.880  0.1571 -0.2921  0.2950
 2261SOL    HW3 9118   1.258   4.328   3.876  0.1200 -0.7127 -1.0123
 2261SOL    MW4 9119   1.327   4.283   3.904  0.0536 -0.1168  0.1171
 2262SOL     OW 9120   1.574   4.402   3.793 -0.1538  0.0436 -0.3441
 2262SOL    HW2 9121   1.646   4.347   3.824 -1.2139 -1.4775 -0.5525
 2262SOL    HW3 9122   1.587   4.407   3.698  1.1172  1.8757 -0.1031
 2262SOL    MW4 9123   1.585   4.396   3.784 -0.1260  0.0849 -0.3402
 2263SOL     OW 9124   2.001   4.647   3.881 -0.0512 -0.4030 -0.0807
 2263SOL    HW2 9125   2.065   4.693   3.827 -1.2742 -0.3074 -1.4565
 2263SOL    HW3 9126   1.998   4.558   3.846 -1.5755 -0.0711 -0.8313
 2263SOL    MW4 9127   2.009   4.641   3.869 -0.4134 -0.3462 -0.3612
 2264SOL     OW 9128   1.821   0.136   3.740  0.0958  0.1911 -0.5760
 2264SOL    HW2 9129   1.892   0.089   3.782 -1.1934 -0.0446  1.4081
 2264SOL    HW3 9130   1.741   0.091   3.770 -1.0152  2.0041 -0.7321
 2264SOL    MW4 9131   1.820   0.124   3.749 -0.2209  0.3992 -0.3347
 2265SOL     OW 9132   1.778   0.382   3.881  0.0997  0.0745  0.2114
 2265SOL    HW2 9133   1.786   0.385   3.976 -0.3950 -0.1179  0.2569
 2265SOL    HW3 9134   1.797   0.291   3.858  0.3401  0.1478  0.1134
 2265SOL    MW4 9135   1.782   0.370   3.891  0.0660  0.0588  0.2043
 2266SOL     OW 9136   2.004   0.525   3.811  0.4769  0.1199 -0.3095
 2266SOL    HW2 9137   1.926   0.478   3.841 -0.0591  0.7461 -0.6985
 2266SOL    HW3 9138   2.002   0.516   3.715  0.8148  0.2381 -0.3290
 2266SOL    MW4 9139   1.994   0.518   3.802  0.4507  0.2182 -0.3633
 2267SOL     OW 9140   2.013   0.790   3.899  0.1427  0.0522 -0.6465
 2267SOL    HW2 9141   2.006   0.802   3.994  1.3467  0.1170 -0.5565
 2267SOL    HW3 9142   2.007   0.695   3.886 -1.3401  0.1399 -0.6276
 2267SOL    MW4 9143   2.011   0.779   3.910  0.1059  0.0723 -0.6320
 2268SOL     OW 9144   1.775   0.886   3.810  0.3253  0.7161 -0.3251
 2268SOL    HW2 9145   1.857   0.858   3.850 -0.1499 -0.2445  0.0031
 2268SOL    HW3 9146   1.794   0.888   3.716  0.3550 -0.8249 -0.3650
 2268SOL    MW4 9147   1.788   0.882   3.803  0.2664  0.3860 -0.2871
 2269SOL     OW 9148   1.839   1.136   3.875 -0.3735  0.1069  0.4252
 2269SOL    HW2 9149   1.822   1.141   3.969  0.9045 -0.3586  0.6935
 2269SOL    HW3 9150   1.822   1.045   3.852  1.0146 -0.2001  0.5634
 2269SOL    MW4 9151   1.835   1.125   3.885 -0.0216  0.0050  0.4787
 2270SOL     OW 9152   2.037   1.291   3.784  0.2040  0.5102  0.2486
 2270SOL    HW2 9153   2.117   1.250   3.815  0.1062  0.9478  1.0930
 2270SOL    HW3 9154   1.967   1.235   3.815  0.1918 -0.0965 -0.8419
 2270SOL    MW4 9155   2.038   1.278   3.792  0.1895  0.4878  0.2160
 2271SOL     OW 9156   2.060   1.540   3.913  0.1193 -0.1999  0.1804
 2271SOL    HW2 9157   1.971   1.571   3.899  0.2078 -0.1746 -0.3350
 2271SOL    HW3 9158   2.070   1.466   3.853  1.3607  1.5447 -1.8197
 2271SOL    MW4 9159   2.050   1.534   3.903  0.2947  0.0336 -0.1514
 2272SOL     OW 9160   1.823   1.663   3.822 -0.2038  0.6846  0.1151
 2272SOL    HW2 9161   1.834   1.752   3.857 -2.4773  1.2568 -0.5391
 2272SOL    HW3 9162   1.817   1.676   3.727 -1.3556 -0.0780  0.0826
 2272SOL    MW4 9163   1.824   1.677   3.814 -0.6557  0.6595  0.0243
 2273SOL     OW 9164   1.803   1.938   3.913 -0.0239  0.0836  0.4765
 2273SOL    HW2 9165   1.811   1.940   4.008 -0.9968  0.7728  0.5426
 2273SOL    HW3 9166   1.731   1.998   3.893  0.5936  0.4404 -0.7347
 2273SOL    MW4 9167   1.795   1.947   3.923 -0.0708  0.2216  0.3254
 2274SOL     OW 9168   2.034   2.061   3.807 -0.4571 -0.2387 -0.1031
 2274SOL    HW2 9169   1.951   2.019   3.832  0.3558 -1.1435  1.1206
 2274SOL    HW3 9170   2.027   2.072   3.712 -2.0370 -0.1980  0.0021
 2274SOL    MW4 9171   2.022   2.057   3.798 -0.5584 -0.3529  0.0722
 2275SOL     OW 9172   2.049   2.329   3.851  0.1875  0.4248  0.2076
 2275SOL    HW2 9173   1.963   2.362   3.825  0.5258 -0.3081 -1.9168
 2275SOL    HW3 9174   2.047   2.236   3.832  1.2874  0.3032  0.5973
 2275SOL    MW4 9175   2.038   2.321   3.845  0.3774  0.3119 -0.0210
 2276SOL     OW 9176   1.793   2.447   3.761 -0.6046 -0.7397 -0.4106
 2276SOL    HW2 9177   1.799   2.541   3.776  0.1732 -0.8989  0.2722
 2276SOL    HW3 9178   1.790   2.439   3.665 -2.4134  0.0689 -0.4466
 2276SOL    MW4 9179   1.793   2.458   3.750 -0.7406 -0.6537 -0.3252
 2277SOL     OW 9180   1.822   2.723   3.799 -0.2754  0.0435  0.5842
 2277SOL    HW2 9181   1.795   2.683   3.882 -2.5699  0.5977  0.1485
 2277SOL    HW3 9182   1.739   2.748   3.757  0.7936 -1.1595 -2.3347
 2277SOL    MW4 9183   1.807   2.721   3.804 -0.4371 -0.0422  0.1416
 2278SOL     OW 9184   2.050   2.850   3.722 -0.1658  0.3628 -0.1060
 2278SOL    HW2 9185   2.119   2.802   3.768  0.3136  0.4241 -0.7491
 2278SOL    HW3 9186   1.969   2.809   3.752  0.3100 -2.4761 -2.4075
 2278SOL    MW4 9187   2.048   2.838   3.732 -0.0398 -0.0038 -0.4945
 2279SOL     OW 9188   2.055   3.118   3.798 -0.6954  0.1070  0.5368
 2279SOL    HW2 9189   2.043   3.102   3.891  1.9127  0.8520  1.0429
 2279SOL    HW3 9190   2.062   3.031   3.759 -1.1984 -0.1967  1.1285
 2279SOL    MW4 9191   2.054   3.105   3.805 -0.4175  0.1652  0.6816
 2280SOL     OW 9192   1.778   3.205   3.726 -0.0676 -0.0436  0.2224
 2280SOL    HW2 9193   1.868   3.180   3.747 -0.5352  0.2772  2.7225
 2280SOL    HW3 9194   1.724   3.162   3.792 -1.6324  0.8458 -0.4300
 2280SOL    MW4 9195   1.783   3.196   3.738 -0.3357  0.1159  0.4661
 2281SOL     OW 9196   1.824   3.443   3.864 -0.3277  0.0670 -0.1369
 2281SOL    HW2 9197   1.892   3.491   3.818  0.0422  0.4446  0.7817
 2281SOL    HW3 9198   1.808   3.366   3.810  0.5416  0.1849 -0.5726
 2281SOL    MW4 9199   1.831   3.439   3.851 -0.1642  0.1326 -0.0730
 2282SOL     OW 9200   2.007   3.606   3.757 -0.9236 -0.4973  0.2503
 2282SOL    HW2 9201   2.100   3.581   3.758 -0.8277 -0.2679 -1.5857
 2282SOL    HW3 9202   1.990   3.629   3.666 -2.2233  1.6374  1.0250
 2282SOL    MW4 9203   2.017   3.606   3.745 -1.0827 -0.1857  0.1101
 2283SOL     OW 9204   2.011   3.838   3.900 -0.3445  0.1267 -0.1249
 2283SOL    HW2 9205   2.088   3.888   3.873  0.0955 -0.1128  0.6460
 2283SOL    HW3 9206   2.023   3.752   3.861  0.2770 -0.2112  0.7809
 2283SOL    MW4 9207   2.023   3.833   3.892 -0.2046  0.0505  0.0963
 2284SOL     OW 9208   1.797   3.998   3.790  0.1258 -0.0295  0.0912
 2284SOL    HW2 9209   1.877   3.954   3.819 -0.0734 -1.7858 -1.8985
 2284SOL    HW3 9210   1.726   3.940   3.818 -0.4005  1.0724  1.0521
 2284SOL    MW4 9211   1.798   3.984   3.797  0.0302 -0.1161 -0.0448
 2285SOL     OW 9212   1.766   4.248   3.902  0.3925 -0.6243  0.1038
 2285SOL    HW2 9213   1.833   4.308   3.867 -0.0074  1.1980  2.3326
 2285SOL    HW3 9214   1.787   4.163   3.863  3.1569  0.2123 -0.3347
 2285SOL    MW4 9215   1.778   4.245   3.892  0.7046 -0.2732  0.3405
 2286SOL     OW 9216   1.968   4.393   3.807 -0.3929 -0.0024  0.0113
 2286SOL    HW2 9217   2.039   4.346   3.850 -0.8651 -0.7485  0.0058
 2286SOL    HW3 9218   1.985   4.382   3.714 -0.7879 -0.6274  0.0067
 2286SOL    MW4 9219   1.979   4.385   3.801 -0.5072 -0.1836  0.0098
 2287SOL     OW 9220   2.454   0.020   3.839 -0.0565 -0.5445 -0.2111
 2287SOL    HW2 9221   2.455   0.003   3.933  0.3790  0.9739  0.0762
 2287SOL    HW3 9222   2.524   0.083   3.826 -0.8221  0.0670 -1.3939
 2287SOL    MW4 9223   2.463   0.026   3.850 -0.1001 -0.2635 -0.3293
 2288SOL     OW 9224   2.220   0.136   3.754  0.3277 -0.4316 -0.1709
 2288SOL    HW2 9225   2.296   0.085   3.781 -0.2262 -0.5053  1.2861
 2288SOL    HW3 9226   2.227   0.140   3.658  1.3923 -1.6265 -0.1632
 2288SOL    MW4 9227   2.231   0.130   3.745  0.3951 -0.5990  0.0222
 2289SOL     OW 9228   2.251   0.386   3.911  0.7430  0.2145 -0.5065
 2289SOL    HW2 9229   2.243   0.304   3.863  1.6347 -0.5309  0.5889
 2289SOL    HW3 9230   2.170   0.434   3.891 -1.7152 -2.6214  1.9888
 2289SOL    MW4 9231   2.239   0.381   3.902  0.5362 -0.2580 -0.0329
 2290SOL     OW 9232   2.444   0.537   3.794  0.2125  0.3523 -0.1048
 2290SOL    HW2 9233   2.378   0.480   3.836 -0.7108 -0.4621 -2.5771
 2290SOL    HW3 9234   2.423   0.533   3.701  2.6304  1.6030 -0.7375
 2290SOL    MW4 9235   2.432   0.529   3.788  0.4096  0.4099 -0.5145
 2291SOL     OW 9236   2.468   0.774   3.911 -0.0857 -0.1315  0.0892
 2291SOL    HW2 9237   2.393   0.817   3.869 -0.5657  0.1070  1.1720
 2291SOL    HW3 9238   2.459   0.682   3.886 -0.5907 -0.0604 -0.0087
 2291SOL    MW4 9239   2.457   0.768   3.902 -0.2158 -0.0907  0.2189
 2292SOL     OW 9240   2.250   0.883   3.787 -0.1867 -0.1560 -0.2111
 2292SOL    HW2 9241   2.173   0.851   3.834  0.2455 -0.4796  0.2818
 2292SOL    HW3 9242   2.220   0.894   3.696  0.0292 -3.3861 -0.7162
 2292SOL    MW4 9243   2.236   0.880   3.781 -0.1011 -0.6250 -0.2127
 2293SOL     OW 9244   2.266   1.167   3.850  0.1695 -0.1941  0.2697
 2293SOL    HW2 9245   2.272   1.172   3.945 -3.7255  0.9285  0.5615
 2293SOL    HW3 9246   2.272   1.073   3.831 -1.5061 -0.6807  1.9116
 2293SOL    MW4 9247   2.267   1.155   3.860 -0.5653 -0.1101  0.5248
 2294SOL     OW 9248   2.509   1.280   3.749  0.1919  0.5929 -0.9210
 2294SOL    HW2 9249   2.509   1.372   3.778  0.4753  0.2870  0.0649
 2294SOL    HW3 9250   2.429   1.243   3.785  0.0246  0.4765 -1.4091
 2294SOL    MW4 9251   2.499   1.287   3.757  0.2069  0.5372 -0.8554
 2295SOL     OW 9252   2.477   1.545   3.839 -0.0502  0.1090  0.0871
 2295SOL    HW2 9253   2.553   1.593   3.808  0.2550 -0.9234 -0.8105
 2295SOL    HW3 9254   2.403   1.605   3.827  0.7058  1.3588  1.6002
 2295SOL    MW4 9255   2.477   1.559   3.833  0.0896  0.1377  0.1681
 2296SOL     OW 9256   2.253   1.678   3.771  0.0772 -0.4993 -0.1972
 2296SOL    HW2 9257   2.256   1.768   3.803  0.7213 -0.6514  0.1886
 2296SOL    HW3 9258   2.179   1.638   3.816 -0.4808 -0.0439 -0.6979
 2296SOL    MW4 9259   2.244   1.685   3.781  0.0887 -0.4592 -0.2122
 2297SOL     OW 9260   2.275   1.925   3.868  0.2108  0.7761  0.1931
 2297SOL    HW2 9261   2.283   1.914   3.963  2.9026  1.2278  0.0597
 2297SOL    HW3 9262   2.189   1.966   3.856  0.4024  1.9722  2.5408
 2297SOL    MW4 9263   2.265   1.929   3.879  0.5910  0.9935  0.4852
 2298SOL     OW 9264   2.479   2.048   3.712 -0.0762 -0.8403 -0.1204
 2298SOL    HW2 9265   2.493   2.138   3.742  1.2794 -1.0961  0.0311
 2298SOL    HW3 9266   2.414   2.012   3.773  0.1271 -0.2811  0.4226
 2298SOL    MW4 9267   2.472   2.055   3.724  0.1295 -0.7999 -0.0288
 2299SOL     OW 9268   2.522   2.311   3.813 -0.0152 -0.1994  0.4452
 2299SOL    HW2 9269   2.582   2.377   3.778 -0.5014  0.3882  0.7129
 2299SOL    HW3 9270   2.436   2.353   3.809 -0.2032 -0.5007  1.4251
 2299SOL    MW4 9271   2.519   2.325   3.808 -0.1042 -0.1614  0.6096
 2300SOL     OW 9272   2.290   2.463   3.774 -0.5303 -0.2642 -0.2105
 2300SOL    HW2 9273   2.211   2.432   3.818 -0.6960  0.1183 -0.2314
 2300SOL    HW3 9274   2.270   2.456   3.681 -0.4303 -0.4431 -0.2178
 2300SOL    MW4 9275   2.277   2.458   3.768 -0.5388 -0.2375 -0.2146
 2301SOL     OW 9276   2.296   2.760   3.846 -0.1231  0.3662  0.4770
 2301SOL    HW2 9277   2.254   2.784   3.928 -0.3482  0.7998  0.2377
 2301SOL    HW3 9278   2.281   2.666   3.838 -0.2498  0.3536  0.8430
 2301SOL    MW4 9279   2.289   2.751   3.856 -0.1698  0.4215  0.4938
 2302SOL     OW 9280   2.549   2.852   3.779  0.3578 -0.3918 -0.1815
 2302SOL    HW2 9281   2.465   2.839   3.823  0.4412 -0.1111  0.0644
 2302SOL    HW3 9282   2.529   2.841   3.686 -0.0925  0.3405 -0.1746
 2302SOL    MW4 9283   2.535   2.849   3.772  0.3095 -0.2582 -0.1483
 2303SOL     OW 9284   2.560   3.099   3.896 -0.0095  0.2158 -0.5087
 2303SOL    HW2 9285   2.490   3.155   3.862 -0.8622 -0.6249 -0.1580
 2303SOL    HW3 9286   2.541   3.012   3.860 -1.5723 -0.9433  2.8955
 2303SOL    MW4 9287   2.548   3.095   3.887 -0.3281 -0.0482 -0.0131
 2304SOL     OW 9288   2.308   3.276   3.778 -0.1843 -0.3822  0.2560
 2304SOL    HW2 9289   2.284   3.368   3.784 -0.5629 -0.5315  1.1006
 2304SOL    HW3 9290   2.233   3.229   3.815 -0.4218 -1.0839 -1.0835
 2304SOL    MW4 9291   2.295   3.282   3.784 -0.2656 -0.4945  0.1905
 2305SOL     OW 9292   2.263   3.542   3.841  0.1148  0.4581  0.4229
 2305SOL    HW2 9293   2.279   3.517   3.932  0.6225 -2.0596 -0.3123
 2305SOL    HW3 9294   2.346   3.581   3.813  0.4586 -0.1238  0.6089
 2305SOL    MW4 9295   2.276   3.544   3.850  0.2272  0.0491  0.3502
 2306SOL     OW 9296   2.521   3.669   3.763 -0.4740 -0.7930 -0.3010
 2306SOL    HW2 9297   2.589   3.616   3.807  0.3900  0.4625 -0.1107
 2306SOL    HW3 9298   2.521   3.637   3.673 -0.6339 -1.7815  0.0374
 2306SOL    MW4 9299   2.530   3.658   3.757 -0.3812 -0.7577 -0.2313
 2307SOL     OW 9300   2.471   3.909   3.874 -0.5762 -0.0976  0.2686
 2307SOL    HW2 9301   2.544   3.957   3.835 -1.1952 -0.0928 -0.9300
 2307SOL    HW3 9302   2.475   3.822   3.833 -1.3572 -0.0277  0.0238
 2307SOL    MW4 9303   2.481   3.904   3.863 -0.7608 -0.0882  0.0784
 2308SOL     OW 9304   2.219   3.992   3.830 -0.0017 -0.4022 -0.1215
 2308SOL    HW2 9305   2.306   3.957   3.850  0.3999 -0.1399 -1.3670
 2308SOL    HW3 9306   2.212   3.985   3.735 -0.7464  0.9886 -0.1764
 2308SOL    MW4 9307   2.230   3.987   3.820 -0.0467 -0.1841 -0.2930
 2309SOL     OW 9308   2.183   4.257   3.907 -0.1629 -0.2111 -0.0529
 2309SOL    HW2 9309   2.200   4.238   3.999  0.0832  0.1297 -0.0263
 2309SOL    HW3 9310   2.210   4.178   3.860 -1.1263 -0.7276  0.2489
 2309SOL    MW4 9311   2.189   4.244   3.913 -0.2575 -0.2341 -0.0098
 2310SOL     OW 9312   2.396   4.413   3.773  0.4392 -0.0075 -0.3724
 2310SOL    HW2 9313   2.336   4.379   3.839 -0.1268 -0.7344 -1.2552
 2310SOL    HW3 9314   2.419   4.501   3.804 -1.8266  0.6670 -0.5097
 2310SOL    MW4 9315   2.391   4.420   3.786  0.0656 -0.0148 -0.5071
 2311SOL     OW 9316   2.903   0.013   3.876 -0.4681 -0.2003  0.1598
 2311SOL    HW2 9317   2.905   0.044   3.967  0.1187  0.3402 -0.0273
 2311SOL    HW3 9318   2.980   0.054   3.836 -0.1407 -1.2587 -0.3163
 2311SOL    MW4 9319   2.914   0.023   3.883 -0.3476 -0.2685  0.0722
 2312SOL     OW 9320   2.685   0.156   3.801  0.0302 -0.0659 -0.1670
 2312SOL    HW2 9321   2.763   0.104   3.822  1.1687  1.4885 -0.5020
 2312SOL    HW3 9322   2.676   0.148   3.706  0.4209  0.6591 -0.2634
 2312SOL    MW4 9323   2.694   0.148   3.791  0.2320  0.2348 -0.2241
 2313SOL     OW 9324   2.680   0.420   3.897  0.0107  0.1516  0.1982
 2313SOL    HW2 9325   2.674   0.325   3.888  0.6434 -0.1399  2.5961
 2313SOL    HW3 9326   2.598   0.453   3.860 -0.7480 -1.4054  0.4615
 2313SOL    MW4 9327   2.668   0.412   3.891 -0.0060 -0.0923  0.5493
 2314SOL     OW 9328   2.896   0.556   3.772  0.1437 -0.1294 -0.2177
 2314SOL    HW2 9329   2.968   0.496   3.788 -0.5899 -1.1866 -0.8396
 2314SOL    HW3 9330   2.819   0.511   3.805 -0.5389  0.1000 -1.4612
 2314SOL    MW4 9331   2.895   0.542   3.778 -0.0434 -0.2385 -0.4640
 2315SOL     OW 9332   2.930   0.793   3.921 -0.0191  0.1328 -0.1803
 2315SOL    HW2 9333   2.998   0.841   3.874  1.6373 -1.2440  0.7468
 2315SOL    HW3 9334   2.917   0.714   3.869 -0.8208  0.3352 -0.2867
 2315SOL    MW4 9335   2.937   0.789   3.908  0.0939 -0.0222 -0.0722
 2316SOL     OW 9336   2.702   0.910   3.792  0.0857 -0.2204  0.5601
 2316SOL    HW2 9337   2.775   0.863   3.831 -0.9490 -0.8622  1.7569
 2316SOL    HW3 9338   2.624   0.865   3.825 -0.8750  1.0447  0.0633
 2316SOL    MW4 9339   2.701   0.897   3.801 -0.1779 -0.1382  0.6526
 2317SOL     OW 9340   2.724   1.165   3.883  0.0060  0.1512 -0.1975
 2317SOL    HW2 9341   2.720   1.071   3.864  0.3471  0.5559 -2.3526
 2317SOL    HW3 9342   2.644   1.200   3.845 -0.3120  0.6914  0.9545
 2317SOL    MW4 9343   2.713   1.157   3.876  0.0088  0.2760 -0.3297
 2318SOL     OW 9344   2.934   1.301   3.793 -0.9181  0.0711 -0.0905
 2318SOL    HW2 9345   2.939   1.391   3.824  0.0853  0.5929 -1.7454
 2318SOL    HW3 9346   2.863   1.262   3.844 -0.0446  1.2228  2.0543
 2318SOL    MW4 9347   2.925   1.307   3.804 -0.6702  0.2919 -0.0257
 2319SOL     OW 9348   2.970   1.586   3.840 -0.0172  0.3022  0.4775
 2319SOL    HW2 9349   2.951   1.614   3.929 -0.1847 -0.0536  0.5513
 2319SOL    HW3 9350   3.063   1.607   3.828  0.9054 -2.7303  1.8920
 2319SOL    MW4 9351   2.980   1.592   3.850  0.0823 -0.1448  0.6738
 2320SOL     OW 9352   2.722   1.664   3.733  0.7306  0.7888 -0.0793
 2320SOL    HW2 9353   2.804   1.625   3.763  0.2414  0.2614  0.5967
 2320SOL    HW3 9354   2.732   1.673   3.638  1.7442  1.1500  0.0625
 2320SOL    MW4 9355   2.734   1.660   3.725  0.7994  0.7669  0.0286
 2321SOL     OW 9356   2.721   1.937   3.823  0.1565  0.1054  0.4388
 2321SOL    HW2 9357   2.723   1.843   3.806 -0.2981  0.1489  0.1453
 2321SOL    HW3 9358   2.631   1.963   3.803  1.0208  1.1209 -2.4563
 2321SOL    MW4 9359   2.710   1.928   3.818  0.2105  0.2452  0.0181
 2322SOL     OW 9360   2.927   2.050   3.691 -0.1012 -0.3971 -0.0551
 2322SOL    HW2 9361   2.937   2.134   3.736  0.2316 -0.4383 -0.0559
 2322SOL    HW3 9362   2.850   2.010   3.732  0.3494 -0.5448  0.6402
 2322SOL    MW4 9363   2.918   2.056   3.702  0.0021 -0.4218  0.0362
 2323SOL     OW 9364   2.963   2.290   3.818 -0.3433  0.1681 -0.0793
 2323SOL    HW2 9365   2.934   2.294   3.910  1.0611  0.0814  0.3740
 2323SOL    HW3 9366   3.041   2.345   3.814  0.3225 -0.8175 -0.9449
 2323SOL    MW4 9367   2.969   2.298   3.830 -0.0703  0.0269 -0.1338
 2324SOL     OW 9368   2.753   2.445   3.720  0.2027 -0.0473  0.5499
 2324SOL    HW2 9369   2.754   2.533   3.757 -0.1387  0.1062  0.1973
 2324SOL    HW3 9370   2.830   2.403   3.757  1.1480  0.8589 -0.3822
 2324SOL    MW4 9371   2.763   2.451   3.730  0.2823  0.0923  0.3803
 2325SOL     OW 9372   2.772   2.701   3.814 -0.3744 -0.1796 -0.0400
 2325SOL    HW2 9373   2.787   2.679   3.906  1.9072  0.6131 -0.1906
 2325SOL    HW3 9374   2.680   2.728   3.810 -1.1159 -2.3243  1.5723
 2325SOL    MW4 9375   2.762   2.702   3.825 -0.1712 -0.3576  0.1528
 2326SOL     OW 9376   2.883   2.930   3.698 -0.1072  0.1654  0.1915
 2326SOL    HW2 9377   2.864   3.022   3.718 -0.3281 -0.2395  1.9231
 2326SOL    HW3 9378   2.823   2.881   3.753  0.1572 -1.0397 -0.5769
 2326SOL    MW4 9379   2.873   2.936   3.708 -0.1013 -0.0470  0.3183
 2327SOL     OW 9380   3.022   3.054   4.026  0.2728  0.1583 -0.0915
 2327SOL    HW2 9381   3.036   3.091   3.939  0.4033  0.0339 -0.1225
 2327SOL    HW3 9382   2.928   3.066   4.043  0.0186 -0.8892 -0.7370
 2327SOL    MW4 9383   3.012   3.060   4.017  0.2565  0.0036 -0.1807
 2328SOL     OW 9384   2.737   3.189   3.716 -0.6576  0.3394 -0.0620
 2328SOL    HW2 9385   2.753   3.283   3.728 -0.9906  0.3406  0.3906
 2328SOL    HW3 9386   2.676   3.166   3.786  0.5032 -0.5148  0.6780
 2328SOL    MW4 9387   2.731   3.199   3.726 -0.5484  0.2267  0.0954
 2329SOL     OW 9388   2.732   3.474   3.758  0.1984 -0.2434 -0.1396
 2329SOL    HW2 9389   2.698   3.452   3.844 -0.8676  1.9513  0.0330
 2329SOL    HW3 9390   2.810   3.527   3.775  1.0281 -1.3342 -0.5269
 2329SOL    MW4 9391   2.738   3.478   3.771  0.1674 -0.0975 -0.1681
 2330SOL     OW 9392   2.937   3.651   3.772 -0.3362 -0.2683 -0.2414
 2330SOL    HW2 9393   3.003   3.591   3.808  1.7920  0.5122 -2.6691
 2330SOL    HW3 9394   2.946   3.641   3.677 -2.1599  1.5800 -0.6339
 2330SOL    MW4 9395   2.947   3.641   3.764 -0.2961  0.0787 -0.6135
 2331SOL     OW 9396   2.921   3.913   3.881 -0.0002 -0.3830 -0.1101
 2331SOL    HW2 9397   2.964   3.908   3.966  0.4820 -1.0045 -0.3857
 2331SOL    HW3 9398   2.927   3.824   3.846 -0.9814 -0.3321 -0.4070
 2331SOL    MW4 9399   2.928   3.901   3.888 -0.0660 -0.4582 -0.1857
 2332SOL     OW 9400   2.696   4.027   3.765  0.5680  0.0861  0.1203
 2332SOL    HW2 9401   2.692   4.116   3.801 -0.8662  0.1372 -0.0995
 2332SOL    HW3 9402   2.769   3.986   3.810 -0.2124  0.6429  1.9480
 2332SOL    MW4 9403   2.705   4.034   3.775  0.2759  0.1664  0.3328
 2333SOL     OW 9404   2.638   4.291   3.871 -0.4546  0.2532  0.2020
 2333SOL    HW2 9405   2.716   4.344   3.857 -0.8716  1.1933  1.3906
 2333SOL    HW3 9406   2.565   4.346   3.842 -0.7425 -0.3357 -0.2040
 2333SOL    MW4 9407   2.639   4.305   3.865 -0.5479  0.2995  0.3054
 2334SOL     OW 9408   2.881   4.413   3.812 -0.3883  0.5189  0.4588
 2334SOL    HW2 9409   2.962   4.367   3.835 -0.1272  0.9374  0.3844
 2334SOL    HW3 9410   2.897   4.504   3.837 -0.2714  0.8903 -0.9095
 2334SOL    MW4 9411   2.894   4.419   3.818 -0.3386  0.6232  0.2682
 2335SOL     OW 9412   3.337   0.010   3.857  0.4816  0.4218 -0.0697
 2335SOL    HW2 9413   3.339   0.004   3.952 -1.4550  0.5221 -0.0011
 2335SOL    HW3 9414   3.413   0.065   3.835  0.2132  1.4485  1.5069
 2335SOL    MW4 9415   3.348   0.017   3.867  0.1910  0.5703  0.1473
 2336SOL     OW 9416   3.120   0.132   3.741  0.1876  0.2969  0.1590
 2336SOL    HW2 9417   3.205   0.103   3.774  0.6362  1.4816  0.0294
 2336SOL    HW3 9418   3.127   0.126   3.646  0.2695  0.8155  0.1341
 2336SOL    MW4 9419   3.132   0.127   3.733  0.2577  0.5216  0.1385
 2337SOL     OW 9420   3.082   0.371   3.864 -0.0509 -0.0017  0.1443
 2337SOL    HW2 9421   3.084   0.369   3.960 -1.1397 -0.3792  0.1669
 2337SOL    HW3 9422   3.095   0.280   3.837 -0.0419  0.0590 -0.0613
 2337SOL    MW4 9423   3.084   0.359   3.873 -0.1931 -0.0435  0.1202
 2338SOL     OW 9424   3.354   0.504   3.784  0.1700 -0.7419  0.5298
 2338SOL    HW2 9425   3.433   0.465   3.822 -0.5709 -1.4900  1.3315
 2338SOL    HW3 9426   3.283   0.450   3.818 -0.6312 -0.5018 -0.7467
 2338SOL    MW4 9427   3.355   0.492   3.794 -0.0336 -0.8089  0.4668
 2339SOL     OW 9428   3.370   0.782   3.845 -0.3103 -0.4809 -0.0120
 2339SOL    HW2 9429   3.377   0.785   3.941  0.6763  0.1790 -0.0989
 2339SOL    HW3 9430   3.357   0.689   3.825 -0.2027 -0.6653  0.7406
 2339SOL    MW4 9431   3.369   0.770   3.855 -0.1659 -0.4182  0.0758
 2340SOL     OW 9432   3.130   0.899   3.762 -0.5474 -0.0579  0.3286
 2340SOL    HW2 9433   3.217   0.865   3.785 -0.1427  1.5640  1.2815
 2340SOL    HW3 9434   3.132   0.907   3.667  1.1547  2.0449  0.5034
 2340SOL    MW4 9435   3.142   0.895   3.753 -0.2694  0.4335  0.4773
 2341SOL     OW 9436   3.172   1.184   3.838 -0.2569 -0.1172 -0.1608
 2341SOL    HW2 9437   3.163   1.091   3.815 -0.3945  0.0301 -0.7081
 2341SOL    HW3 9438   3.091   1.224   3.808  0.6208  0.5350 -1.7056
 2341SOL    MW4 9439   3.160   1.177   3.831 -0.1595 -0.0117 -0.4368
 2342SOL     OW 9440   3.372   1.311   3.695  0.2438  0.1559 -0.0956
 2342SOL    HW2 9441   3.298   1.265   3.735  0.4334  0.7158  0.9256
 2342SOL    HW3 9442   3.363   1.295   3.601 -0.7643 -0.3724  0.0856
 2342SOL    MW4 9443   3.361   1.303   3.688  0.1359  0.1601  0.0629
 2343SOL     OW 9444   3.412   1.549   3.830  0.1808  0.2905 -0.3800
 2343SOL    HW2 9445   3.352   1.614   3.793  1.6366  1.2830 -1.0341
 2343SOL    HW3 9446   3.392   1.469   3.781 -0.2006  0.7705 -1.0270
 2343SOL    MW4 9447   3.401   1.547   3.818  0.3223  0.4847 -0.5517
 2344SOL     OW 9448   3.202   1.691   3.709  0.2206  0.0531 -0.4498
 2344SOL    HW2 9449   3.176   1.778   3.739 -0.4243 -0.5732  0.8764
 2344SOL    HW3 9450   3.159   1.682   3.624  1.7738  1.7176 -1.4447
 2344SOL    MW4 9451   3.193   1.701   3.702  0.3405  0.1901 -0.4063
 2345SOL     OW 9452   3.145   1.941   3.819  0.5951  0.0679 -0.1648
 2345SOL    HW2 9453   3.122   1.932   3.911  1.6293 -0.4366  0.0511
 2345SOL    HW3 9454   3.063   1.965   3.776  0.7074  3.3988  1.3271
 2345SOL    MW4 9455   3.132   1.943   3.825  0.7463  0.4410  0.0606
 2346SOL     OW 9456   3.388   2.072   3.736 -0.4714  0.4228 -0.3400
 2346SOL    HW2 9457   3.306   2.031   3.763 -0.3314 -0.1903 -0.8383
 2346SOL    HW3 9458   3.391   2.059   3.641  1.0582 -1.1178 -0.0999
 2346SOL    MW4 9459   3.378   2.065   3.727 -0.2513  0.1390 -0.3741
 2347SOL     OW 9460   3.367   2.339   3.812  0.3206  0.3060 -0.3087
 2347SOL    HW2 9461   3.285   2.379   3.785 -0.6511 -0.9280  0.7684
 2347SOL    HW3 9462   3.363   2.250   3.778  1.4494  0.4036 -0.7079
 2347SOL    MW4 9463   3.356   2.333   3.804  0.3414  0.1564 -0.2191
 2348SOL     OW 9464   3.142   2.495   3.750  0.0181 -0.5019 -0.4096
 2348SOL    HW2 9465   3.116   2.583   3.779 -1.1723 -0.9737 -0.0016
 2348SOL    HW3 9466   3.160   2.504   3.657  0.9564  0.4048 -0.1500
 2348SOL    MW4 9467   3.141   2.508   3.742 -0.0150 -0.4444 -0.3214
 2349SOL     OW 9468   3.099   2.768   3.818  0.5444  0.3100 -0.3560
 2349SOL    HW2 9469   3.131   2.798   3.903 -0.2074  2.0502 -0.6570
 2349SOL    HW3 9470   3.032   2.832   3.793 -2.8294 -2.8768 -0.0049
 2349SOL    MW4 9471   3.094   2.780   3.826  0.0000  0.1194 -0.3495
 2350SOL     OW 9472   3.366   2.824   3.726  0.3759  0.4066  0.0261
 2350SOL    HW2 9473   3.283   2.801   3.768  0.1644 -0.0498 -0.6387
 2350SOL    HW3 9474   3.346   2.827   3.632  0.5643  2.6002  0.0188
 2350SOL    MW4 9475   3.353   2.821   3.719  0.3729  0.6359 -0.0625
 2351SOL     OW 9476   3.353   3.076   3.834  0.2468  0.2568 -0.4778
 2351SOL    HW2 9477   3.430   3.127   3.810  0.3185  0.1137 -0.5540
 2351SOL    HW3 9478   3.366   2.992   3.790  0.0326  0.2437 -0.5141
 2351SOL    MW4 9479   3.365   3.072   3.825  0.2279  0.2363 -0.4926
 2352SOL     OW 9480   3.113   3.216   3.807  0.0881 -0.3510 -0.0378
 2352SOL    HW2 9481   3.199   3.176   3.808  0.4675  0.4542  0.3270
 2352SOL    HW3 9482   3.095   3.235   3.715 -0.4992 -2.2063 -0.3138
 2352SOL    MW4 9483   3.122   3.213   3.795  0.0606 -0.4895 -0.0262
 2353SOL     OW 9484   3.124   3.480   3.891  0.5479 -0.3299 -0.3450
 2353SOL    HW2 9485   3.195   3.523   3.844 -1.6259  1.3482 -2.1637
 2353SOL    HW3 9486   3.138   3.387   3.876  3.1248 -0.1106  0.4777
 2353SOL    MW4 9487   3.135   3.473   3.883  0.6011 -0.0796 -0.4764
 2354SOL     OW 9488   3.360   3.609   3.773 -0.3469  0.0529  0.0480
 2354SOL    HW2 9489   3.347   3.701   3.798  0.5435  0.0726  0.4901
 2354SOL    HW3 9490   3.382   3.612   3.680 -1.6627  0.1672 -0.2587
 2354SOL    MW4 9491   3.361   3.622   3.764 -0.4029  0.0706  0.0660
 2355SOL     OW 9492   3.342   3.877   3.846  0.0368  0.1145 -0.0197
 2355SOL    HW2 9493   3.424   3.922   3.823 -0.0929 -0.7516 -2.2640
 2355SOL    HW3 9494   3.274   3.934   3.811 -0.2845  0.1127  0.5961
 2355SOL    MW4 9495   3.344   3.891   3.838 -0.0226 -0.0002 -0.2346
 2356SOL     OW 9496   3.138   4.037   3.739 -0.7902  0.5537 -0.1547
 2356SOL    HW2 9497   3.128   4.117   3.791  0.6794  1.1802 -0.8289
 2356SOL    HW3 9498   3.074   3.976   3.777 -1.1667  1.6795  1.0557
 2356SOL    MW4 9499   3.128   4.039   3.751 -0.6459  0.7844 -0.0837
 2357SOL     OW 9500   3.127   4.280   3.870 -0.6034  0.6438 -0.0558
 2357SOL    HW2 9501   3.135   4.254   3.962 -0.7288 -0.0098 -0.2299
 2357SOL    HW3 9502   3.201   4.339   3.855 -0.1529  0.1571  0.2561
 2357SOL    MW4 9503   3.138   4.285   3.880 -0.5605  0.4935 -0.0377
 2358SOL     OW 9504   3.341   4.420   3.791 -0.0788  0.0476  0.2640
 2358SOL    HW2 9505   3.427   4.383   3.810  0.7176  0.3492 -2.4877
 2358SOL    HW3 9506   3.352   4.514   3.804  0.4752  0.2575 -1.5279
 2358SOL    MW4 9507   3.354   4.427   3.795  0.0992  0.1149 -0.3355
 2359SOL     OW 9508   3.796   4.656   3.900 -0.4073  0.0191  0.3361
 2359SOL    HW2 9509   3.877   4.691   3.863  0.3735 -0.5529  1.5046
 2359SOL    HW3 9510   3.798   4.563   3.877 -1.0687  0.1443 -0.2335
 2359SOL    MW4 9511   3.807   4.648   3.892 -0.3915 -0.0399  0.4153
 2360SOL     OW 9512   3.574   0.123   3.792  0.4795  0.3169 -0.2193
 2360SOL    HW2 9513   3.649   0.074   3.826  0.5143 -0.2093 -1.0222
 2360SOL    HW3 9514   3.592   0.130   3.698  0.2783  1.5430 -0.1691
 2360SOL    MW4 9515   3.587   0.117   3.784  0.4573  0.4093 -0.3185
 2361SOL     OW 9516   3.568   0.365   3.905 -0.5293  0.3684  0.0133
 2361SOL    HW2 9517   3.645   0.411   3.874 -1.5761  1.6271 -0.7617
 2361SOL    HW3 9518   3.574   0.278   3.865  0.0269  0.7514 -0.7485
 2361SOL    MW4 9519   3.579   0.359   3.896 -0.5939  0.5850 -0.1891
 2362SOL     OW 9520   3.785   0.501   3.774  0.3931 -0.5914  0.3119
 2362SOL    HW2 9521   3.855   0.443   3.803  1.5534  0.4201 -0.4402
 2362SOL    HW3 9522   3.803   0.585   3.816 -0.2464 -0.2709 -0.0404
 2362SOL    MW4 9523   3.796   0.504   3.783  0.4618 -0.4157  0.1664
 2363SOL     OW 9524   3.825   0.757   3.875  0.2530 -0.4298 -0.0013
 2363SOL    HW2 9525   3.904   0.806   3.854 -0.0385  0.6174  1.2477
 2363SOL    HW3 9526   3.754   0.811   3.840  0.0911 -1.5098 -1.3803
 2363SOL    MW4 9527   3.826   0.771   3.867  0.1934 -0.4341 -0.0184
 2364SOL     OW 9528   3.611   0.878   3.765  0.4217  0.1375  0.4904
 2364SOL    HW2 9529   3.609   0.972   3.781 -0.3175  0.3671 -0.9834
 2364SOL    HW3 9530   3.526   0.846   3.795 -0.1672  0.2604 -1.0535
 2364SOL    MW4 9531   3.600   0.886   3.771  0.2463  0.1840  0.0923
 2365SOL     OW 9532   3.584   1.148   3.811  0.6792  0.4245  0.5027
 2365SOL    HW2 9533   3.663   1.202   3.805  0.5060  0.7510  1.1353
 2365SOL    HW3 9534   3.513   1.207   3.786  0.5956  0.2340  0.2923
 2365SOL    MW4 9535   3.585   1.163   3.807  0.6452  0.4424  0.5584
 2366SOL     OW 9536   3.827   1.272   3.809  0.2372  0.0934  0.0283
 2366SOL    HW2 9537   3.904   1.230   3.848 -0.3707 -1.2614 -0.2055
 2366SOL    HW3 9538   3.827   1.360   3.846  1.7005 -0.0111  0.3044
 2366SOL    MW4 9539   3.837   1.278   3.819  0.3498 -0.0992  0.0343
 2367SOL     OW 9540   3.832   1.536   3.902  0.0604 -0.4046  0.0515
 2367SOL    HW2 9541   3.792   1.537   3.989 -0.8530  0.6282 -0.3680
 2367SOL    HW3 9542   3.769   1.581   3.846  1.2405  0.1234 -0.8797
 2367SOL    MW4 9543   3.818   1.542   3.906  0.0956 -0.1985 -0.1271
 2368SOL     OW 9544   3.641   1.672   3.729 -0.1505  0.1896 -0.0148
 2368SOL    HW2 9545   3.558   1.631   3.754  1.4803 -2.6589  0.9521
 2368SOL    HW3 9546   3.641   1.668   3.633 -0.3670 -1.4533  0.0334
 2368SOL    MW4 9547   3.630   1.666   3.720  0.0362 -0.4029  0.1192
 2369SOL     OW 9548   3.601   1.947   3.877 -0.3418  0.0123  0.2874
 2369SOL    HW2 9549   3.619   1.864   3.832  0.8745  0.1502  0.5003
 2369SOL    HW3 9550   3.531   1.987   3.826 -0.1208 -0.6077 -0.5128
 2369SOL    MW4 9551   3.594   1.941   3.864 -0.1521 -0.0514  0.2100
 2370SOL     OW 9552   3.828   2.061   3.766  0.5064 -0.4588 -0.3283
 2370SOL    HW2 9553   3.901   2.026   3.816  0.8966  0.3894 -0.2945
 2370SOL    HW3 9554   3.750   2.027   3.810  0.8736 -1.1022 -0.1764
 2370SOL    MW4 9555   3.827   2.052   3.778  0.6063 -0.4318 -0.3037
 2371SOL     OW 9556   3.793   2.313   3.923  0.4243  0.2370  0.2426
 2371SOL    HW2 9557   3.730   2.334   3.855 -0.1855 -0.9431  0.4420
 2371SOL    HW3 9558   3.829   2.228   3.898 -0.8883 -0.9123  2.1619
 2371SOL    MW4 9559   3.790   2.305   3.911  0.1705 -0.0706  0.5224
 2372SOL     OW 9560   3.610   2.439   3.746 -0.1371  0.7765 -0.0468
 2372SOL    HW2 9561   3.522   2.404   3.761  0.2944 -1.1190 -1.6912
 2372SOL    HW3 9562   3.619   2.442   3.651  1.5428  1.0311  0.0987
 2372SOL    MW4 9563   3.600   2.435   3.736  0.1414  0.5600 -0.2446
 2373SOL     OW 9564   3.613   2.718   3.766 -0.0185  0.6141 -0.1723
 2373SOL    HW2 9565   3.610   2.623   3.760  0.3067  0.5086  1.1025
 2373SOL    HW3 9566   3.525   2.747   3.741 -0.6526 -0.1333  1.1535
 2373SOL    MW4 9567   3.601   2.709   3.762 -0.0594  0.5019  0.1709
 2374SOL     OW 9568   3.826   2.891   3.746  0.0312 -0.0747  0.3049
 2374SOL    HW2 9569   3.901   2.847   3.786  0.1746  0.0418  0.1613
 2374SOL    HW3 9570   3.752   2.834   3.767 -0.0907  0.6346  1.8056
 2374SOL    MW4 9571   3.826   2.877   3.754  0.0343  0.0341  0.4840
 2375SOL     OW 9572   3.805   3.131   3.864  0.2211 -0.0344 -0.2308
 2375SOL    HW2 9573   3.721   3.160   3.828  0.7547 -1.1518 -2.4239
 2375SOL    HW3 9574   3.822   3.047   3.822  2.2296 -0.0437  0.5409
 2375SOL    MW4 9575   3.796   3.124   3.854  0.5565 -0.1831 -0.4187
 2376SOL     OW 9576   3.572   3.219   3.755  0.1202 -0.0294 -0.3817
 2376SOL    HW2 9577   3.560   3.300   3.805 -0.5468 -0.9708  1.0154
 2376SOL    HW3 9578   3.575   3.248   3.664  2.9246  1.8906  0.2376
 2376SOL    MW4 9579   3.571   3.234   3.749  0.4022  0.0994 -0.1156
 2377SOL     OW 9580   3.594   3.489   3.838  0.0060 -0.3359  0.3747
 2377SOL    HW2 9581   3.605   3.500   3.932 -2.0125  0.1109  0.5863
 2377SOL    HW3 9582   3.511   3.532   3.818 -0.1615 -1.4107 -1.4214
 2377SOL    MW4 9583   3.584   3.496   3.847 -0.2825 -0.4189  0.1657
 2378SOL     OW 9584   3.794   3.664   3.776  0.3450 -0.5127 -0.6575
 2378SOL    HW2 9585   3.792   3.745   3.828 -1.2982 -0.7431 -0.3580
 2378SOL    HW3 9586   3.705   3.630   3.781  0.6149 -1.4565 -2.2054
 2378SOL    MW4 9587   3.782   3.670   3.784  0.1638 -0.6673 -0.8221
 2379SOL     OW 9588   3.792   3.904   3.902  0.0239 -0.2658  0.7102
 2379SOL    HW2 9589   3.781   3.921   3.996  1.7224  1.4930  0.6152
 2379SOL    HW3 9590   3.879   3.937   3.882  0.3394 -2.1514 -1.1748
 2379SOL    MW4 9591   3.802   3.910   3.912  0.2897 -0.2825  0.4492
 2380SOL     OW 9592   3.558   4.023   3.744  0.5816 -0.0643  0.0237
 2380SOL    HW2 9593   3.550   4.108   3.787  1.3267 -0.4511  0.9397
 2380SOL    HW3 9594   3.638   3.985   3.781  0.4066 -1.0454 -0.5904
 2380SOL    MW4 9595   3.568   4.029   3.754  0.6566 -0.2446  0.0639
 2381SOL     OW 9596   3.561   4.270   3.845 -0.1087 -0.1064 -0.6774
 2381SOL    HW2 9597   3.558   4.291   3.938  1.1464 -1.5701 -0.2899
 2381SOL    HW3 9598   3.648   4.301   3.816 -0.2355 -0.2348 -1.2111
 2381SOL    MW4 9599   3.572   4.277   3.853  0.0398 -0.3157 -0.6964
 2382SOL     OW 9600   3.830   4.379   3.794  0.0132 -0.2828 -0.2378
 2382SOL    HW2 9601   3.898   4.329   3.838  1.2705 -1.0089 -2.8769
 2382SOL    HW3 9602   3.851   4.371   3.701 -2.1149  1.7754 -0.9500
 2382SOL    MW4 9603   3.842   4.371   3.787 -0.1016 -0.1073 -0.6800
 2383SOL     OW 9604   4.271   4.623   3.876 -0.7069  0.3186  0.5597
 2383SOL    HW2 9605   4.284   4.618   3.971 -1.0222  1.1603  0.6526
 2383SOL    HW3 9606   4.352   4.663   3.843 -0.0906 -1.0823  0.3314
 2383SOL    MW4 9607   4.284   4.628   3.884 -0.6671  0.2451  0.5419
 2384SOL     OW 9608   4.033   0.083   3.779 -0.1384  0.2739 -0.0390
 2384SOL    HW2 9609   4.101   0.033   3.825 -0.9207 -0.2338  0.5870
 2384SOL    HW3 9610   4.062   0.085   3.688  1.2766  1.0086  0.4070
 2384SOL    MW4 9611   4.046   0.077   3.773 -0.0544  0.3039  0.1025
 2385SOL     OW 9612   4.020   0.350   3.869  0.0745  0.5707  0.1880
 2385SOL    HW2 9613   4.028   0.325   3.961  1.4248  0.5847  0.0919
 2385SOL    HW3 9614   4.039   0.270   3.821  0.7196  0.8801 -0.0825
 2385SOL    MW4 9615   4.024   0.336   3.875  0.3381  0.6134  0.1397
 2386SOL     OW 9616   4.259   0.504   3.824 -0.2785 -0.5458 -0.1106
 2386SOL    HW2 9617   4.182   0.457   3.854 -1.0047  0.6918  0.0314
 2386SOL    HW3 9618   4.246   0.514   3.729 -2.2226  2.9739  0.4303
 2386SOL    MW4 9619   4.247   0.499   3.815 -0.6309  0.0819 -0.0205
 2387SOL     OW 9620   4.265   0.789   3.916 -0.1220 -0.1438  0.5190
 2387SOL    HW2 9621   4.190   0.828   3.872 -0.2106 -0.1683  0.6495
 2387SOL    HW3 9622   4.257   0.695   3.897 -0.4366 -0.2169  1.0043
 2387SOL    MW4 9623   4.254   0.782   3.908 -0.1745 -0.1566  0.6003
 2388SOL     OW 9624   4.047   0.912   3.792  0.7276  0.0009 -0.1269
 2388SOL    HW2 9625   4.045   1.004   3.817 -0.1001  0.2986 -1.2008
 2388SOL    HW3 9626   4.038   0.913   3.696  2.0333 -1.1428 -0.2800
 2388SOL    MW4 9627   4.045   0.924   3.782  0.7906 -0.1107 -0.2890
 2389SOL     OW 9628   4.048   1.146   3.923 -0.2024  0.8134  0.2848
 2389SOL    HW2 9629   4.045   1.144   4.019  1.0574 -0.1659  0.3082
 2389SOL    HW3 9630   4.128   1.195   3.902  0.3710 -0.3241 -0.2511
 2389SOL    MW4 9631   4.058   1.152   3.933  0.0401  0.5342  0.2174
 2390SOL     OW 9632   4.264   1.256   3.788  0.3857 -0.3077 -0.1312
 2390SOL    HW2 9633   4.253   1.349   3.809  0.3155 -0.2035 -0.6292
 2390SOL    HW3 9634   4.265   1.253   3.693  0.5534 -0.8020 -0.1133
 2390SOL    MW4 9635   4.262   1.268   3.778  0.3986 -0.3592 -0.1945
 2391SOL     OW 9636   4.231   1.531   3.880 -0.0655  0.1347 -0.1919
 2391SOL    HW2 9637   4.155   1.587   3.862 -0.5883  0.1377  1.8709
 2391SOL    HW3 9638   4.306   1.579   3.847 -0.6367  1.5528  0.5605
 2391SOL    MW4 9639   4.231   1.544   3.873 -0.2093  0.3222  0.1793
 2392SOL     OW 9640   4.028   1.720   3.797 -0.0964  0.1243 -0.1716
 2392SOL    HW2 9641   4.052   1.802   3.840  1.4060 -0.1797 -0.4161
 2392SOL    HW3 9642   3.953   1.688   3.848  0.1823  0.9529  0.7727
 2392SOL    MW4 9643   4.021   1.727   3.810  0.1383  0.1935 -0.0794
 2393SOL     OW 9644   4.031   1.985   3.935 -0.1893  0.6064  0.3586
 2393SOL    HW2 9645   4.045   1.983   4.030  0.2486  0.3216  0.2865
 2393SOL    HW3 9646   4.110   2.027   3.901  1.2803 -2.5301 -0.1998
 2393SOL    MW4 9647   4.043   1.990   3.943  0.0620  0.1550  0.2756
 2394SOL     OW 9648   4.248   2.077   3.779 -0.5599 -0.2690  0.1962
 2394SOL    HW2 9649   4.261   2.170   3.796 -0.3648 -0.4502  1.0510
 2394SOL    HW3 9650   4.252   2.069   3.684 -1.8981  0.8018  0.0272
 2394SOL    MW4 9651   4.250   2.088   3.769 -0.7110 -0.1519  0.2868
 2395SOL     OW 9652   4.279   2.343   3.832 -0.1361  0.3636  0.6521
 2395SOL    HW2 9653   4.264   2.331   3.926 -1.0561  0.8547  0.5695
 2395SOL    HW3 9654   4.215   2.408   3.805  1.1828  1.4234 -0.0072
 2395SOL    MW4 9655   4.269   2.350   3.841 -0.0834  0.5684  0.5541
 2396SOL     OW 9656   3.999   2.479   3.781  0.1572 -0.6106  0.1410
 2396SOL    HW2 9657   4.003   2.561   3.830  0.8877 -0.4822 -0.1248
 2396SOL    HW3 9658   3.941   2.423   3.832 -0.6876  0.2192  0.1038
 2396SOL    MW4 9659   3.992   2.483   3.794  0.1419 -0.4840  0.1009
 2397SOL     OW 9660   4.041   2.741   3.858 -0.3534  0.3123  0.2657
 2397SOL    HW2 9661   4.081   2.726   3.943 -0.9245  1.3103  0.7275
 2397SOL    HW3 9662   4.112   2.775   3.804 -0.0023 -0.2700  0.3579
 2397SOL    MW4 9663   4.056   2.744   3.862 -0.3829  0.3674  0.3388
 2398SOL     OW 9664   4.264   2.842   3.747 -0.6989 -0.2436 -0.2034
 2398SOL    HW2 9665   4.252   2.922   3.798 -1.2262 -0.7001  0.3848
 2398SOL    HW3 9666   4.346   2.804   3.780 -1.3054 -0.8052  0.6588
 2398SOL    MW4 9667   4.273   2.848   3.758 -0.8488 -0.3774 -0.0119
 2399SOL     OW 9668   4.220   3.097   3.869  0.1292  0.1504 -0.0610
 2399SOL    HW2 9669   4.149   3.136   3.818 -0.8443  1.2033  2.0379
 2399SOL    HW3 9670   4.300   3.132   3.829 -0.6027  0.8135 -0.9691
 2399SOL    MW4 9671   4.221   3.107   3.857 -0.0958  0.3767  0.0961
 2400SOL     OW 9672   4.031   3.233   3.735 -0.2474 -0.5196 -0.5007
 2400SOL    HW2 9673   3.947   3.204   3.771 -0.5163  1.2315  0.3413
 2400SOL    HW3 9674   4.018   3.234   3.641 -1.2561 -0.0066 -0.3612
 2400SOL    MW4 9675   4.018   3.229   3.728 -0.4163 -0.2208 -0.3712
 2401SOL     OW 9676   4.014   3.501   3.896  0.1395 -0.4409  0.1470
 2401SOL    HW2 9677   3.993   3.412   3.870 -0.4616 -0.6356  1.2771
 2401SOL    HW3 9678   3.943   3.554   3.860  0.8554 -0.3215 -1.1088
 2401SOL    MW4 9679   4.002   3.497   3.888  0.1540 -0.4508  0.1304
 2402SOL     OW 9680   4.237   3.612   3.777  0.1741  0.1347  0.1816
 2402SOL    HW2 9681   4.159   3.569   3.811  0.8524  1.6957  3.9035
 2402SOL    HW3 9682   4.311   3.563   3.812  0.8942  0.8814 -0.2491
 2402SOL    MW4 9683   4.236   3.600   3.786  0.3586  0.4392  0.6158
 2403SOL     OW 9684   4.262   3.885   3.876  0.0986  0.2134 -0.1988
 2403SOL    HW2 9685   4.173   3.914   3.859 -0.6122 -1.6796  0.1676
 2403SOL    HW3 9686   4.265   3.795   3.843  2.3359  0.7620 -1.6431
 2403SOL    MW4 9687   4.251   3.877   3.869  0.2999  0.0362 -0.3409
 2404SOL     OW 9688   4.027   4.023   3.828 -0.1649  0.3077 -0.3060
 2404SOL    HW2 9689   4.017   4.110   3.867 -2.3603  0.1536 -0.4405
 2404SOL    HW3 9690   4.005   4.036   3.735 -1.0554 -0.4930 -0.2098
 2404SOL    MW4 9691   4.023   4.036   3.821 -0.5722  0.1826 -0.3111
 2405SOL     OW 9692   4.044   4.269   3.916  0.3086  0.3995  0.6445
 2405SOL    HW2 9693   4.041   4.293   4.009  0.5447 -0.3945  0.8624
 2405SOL    HW3 9694   4.127   4.306   3.884 -0.0643  1.2003  0.5998
 2405SOL    MW4 9695   4.055   4.277   3.924  0.2904  0.4010  0.6671
 2406SOL     OW 9696   4.256   4.371   3.786  0.4174  0.2393  0.2031
 2406SOL    HW2 9697   4.253   4.464   3.807 -0.4146  0.3630 -0.4443
 2406SOL    HW3 9698   4.338   4.340   3.825  0.5746  1.1865  0.6316
 2406SOL    MW4 9699   4.267   4.379   3.794  0.3290  0.3805  0.1743
 2407SOL     OW 9700   0.241   0.001   4.169  0.6543 -0.2568 -0.4137
 2407SOL    HW2 9701   0.302   0.048   4.226 -0.2986 -0.0454  0.4380
 2407SOL    HW3 9702   0.243  -0.089   4.201 -0.1784 -0.0565  0.2195
 2407SOL    MW4 9703   0.249  -0.004   4.180  0.4188 -0.2027 -0.2174
 2408SOL     OW 9704   0.002   0.136   4.253 -0.0800 -0.0665  0.3268
 2408SOL    HW2 9705  -0.007   0.141   4.348  1.0999 -2.5329  0.6061
 2408SOL    HW3 9706   0.084   0.089   4.239 -0.7162 -0.5782 -1.9230
 2408SOL    MW4 9707   0.012   0.131   4.264 -0.0081 -0.4594  0.0668
 2409SOL     OW 9708   0.033   0.392   4.149  0.0177 -0.2271 -0.2257
 2409SOL    HW2 9709   0.022   0.300   4.173  0.9453 -0.0660  0.8547
 2409SOL    HW3 9710   0.032   0.392   4.053 -0.8061 -1.2512 -0.2268
 2409SOL    MW4 9711   0.031   0.380   4.140  0.0314 -0.3410 -0.0830
 2410SOL     OW 9712   0.247   0.542   4.250 -0.2801  0.0710 -0.1841
 2410SOL    HW2 9713   0.318   0.490   4.212  1.0485  0.8086  1.2271
 2410SOL    HW3 9714   0.167   0.494   4.229  0.6307 -0.7590 -1.8256
 2410SOL    MW4 9715   0.246   0.529   4.242  0.0153  0.0588 -0.2151
 2411SOL     OW 9716   0.231   0.798   4.139 -0.3299 -0.0924 -0.1458
 2411SOL    HW2 9717   0.152   0.841   4.170 -1.0103  0.5357 -2.6179
 2411SOL    HW3 9718   0.231   0.712   4.181 -1.7110  0.3554  0.7756
 2411SOL    MW4 9719   0.221   0.792   4.148 -0.6019  0.0495 -0.3505
 2412SOL     OW 9720   4.471   0.895   4.258  0.1234  0.2119 -0.3471
 2412SOL    HW2 9721   4.399   0.833   4.243 -0.4446  0.0968  2.5668
 2412SOL    HW3 9722   4.443   0.974   4.212 -0.6933 -0.6376 -1.3503
 2412SOL    MW4 9723   4.458   0.897   4.250 -0.0596  0.0847 -0.0954
 2413SOL     OW 9724   4.487   1.189   4.140 -0.7641 -0.3106 -0.1561
 2413SOL    HW2 9725   4.555   1.249   4.169 -0.5306 -1.0125  0.7639
 2413SOL    HW3 9726   4.505   1.175   4.047 -0.4824  0.5810 -0.2408
 2413SOL    MW4 9727   4.498   1.195   4.131 -0.6961 -0.2855 -0.0463
 2414SOL     OW 9728   0.222   1.349   4.204 -0.0454  0.2277 -0.2899
 2414SOL    HW2 9729   0.210   1.390   4.290  0.0736 -1.0869  0.3653
 2414SOL    HW3 9730   0.306   1.304   4.210 -0.4294 -0.5834 -0.7891
 2414SOL    MW4 9731   0.231   1.348   4.216 -0.0803 -0.0527 -0.2689
 2415SOL     OW 9732   0.165   1.516   4.422 -0.1446  0.2604  0.1295
 2415SOL    HW2 9733   0.204   1.565   4.495 -2.2166  0.6724  0.9800
 2415SOL    HW3 9734   0.106   1.578   4.380  1.0117  0.0189 -1.9322
 2415SOL    MW4 9735   0.163   1.531   4.426 -0.2654  0.2830 -0.0305
 2416SOL     OW 9736   0.005   1.690   4.250  0.1465  0.2873 -0.4516
 2416SOL    HW2 9737  -0.082   1.660   4.223 -0.2113  0.5328  0.3783
 2416SOL    HW3 9738  -0.013   1.771   4.299  0.7508 -0.1798  0.5662
 2416SOL    MW4 9739  -0.009   1.697   4.253  0.1788  0.2581 -0.2079
 2417SOL     OW 9740   0.213   2.075   4.262 -0.4632 -0.3615 -0.1137
 2417SOL    HW2 9741   0.223   2.045   4.352 -1.5311 -0.7885 -0.1354
 2417SOL    HW3 9742   0.271   2.018   4.211  0.5662  0.2419  0.3628
 2417SOL    MW4 9743   0.222   2.064   4.267 -0.4682 -0.3383 -0.0539
 2418SOL     OW 9744   0.443   1.846   4.607 -0.0204 -0.0174  0.4187
 2418SOL    HW2 9745   0.368   1.887   4.564  1.0828  2.2005  0.5632
 2418SOL    HW3 9746   0.475   1.782   4.543 -1.4509 -0.3064 -0.0108
 2418SOL    MW4 9747   0.438   1.843   4.593 -0.0636  0.2372  0.3810
 2419SOL     OW 9748   0.232   2.324   4.088 -0.4735  0.0194  0.4991
 2419SOL    HW2 9749   0.310   2.379   4.096 -0.4233 -0.2469  2.0753
 2419SOL    HW3 9750   0.249   2.250   4.146 -0.8146 -1.3455 -1.1109
 2419SOL    MW4 9751   0.244   2.322   4.097 -0.5119 -0.1960  0.4950
 2420SOL     OW 9752   0.017   2.457   4.200 -0.0593 -0.2240  0.3909
 2420SOL    HW2 9753  -0.063   2.418   4.165  0.5796 -0.4159 -0.8864
 2420SOL    HW3 9754   0.087   2.399   4.170  0.6951  0.7148  0.3175
 2420SOL    MW4 9755   0.016   2.445   4.191  0.1245 -0.1254  0.2127
 2421SOL     OW 9756   0.055   2.695   4.083 -0.0376  0.3918 -0.4412
 2421SOL    HW2 9757   0.135   2.727   4.124  0.2117 -1.5322  0.6428
 2421SOL    HW3 9758   0.039   2.610   4.124 -1.9554  0.1822 -1.5365
 2421SOL    MW4 9759   0.063   2.688   4.094 -0.2577  0.1101 -0.4430
 2422SOL     OW 9760   0.291   2.807   4.199 -0.4020 -0.0156  0.3950
 2422SOL    HW2 9761   0.370   2.791   4.147 -0.0179  0.7131  0.7398
 2422SOL    HW3 9762   0.277   2.901   4.192 -1.3573 -0.1738  0.1862
 2422SOL    MW4 9763   0.300   2.817   4.191 -0.4774  0.0598  0.4129
 2423SOL     OW 9764   0.253   3.086   4.148  0.3351  0.3131 -0.1814
 2423SOL    HW2 9765   0.327   3.125   4.195 -1.0783 -0.0577  2.4537
 2423SOL    HW3 9766   0.177   3.136   4.177 -0.8017 -1.0167 -0.8075
 2423SOL    MW4 9767   0.253   3.097   4.158 -0.0014  0.0885  0.0839
 2424SOL     OW 9768   0.024   3.224   4.250  0.1160 -0.0205  0.1992
 2424SOL    HW2 9769  -0.056   3.189   4.210  0.2741  0.0883 -0.2132
 2424SOL    HW3 9770   0.025   3.316   4.224 -0.1644  0.2369  1.0704
 2424SOL    MW4 9771   0.013   3.231   4.242  0.0998  0.0281  0.2599
 2425SOL     OW 9772   0.012   3.497   4.167  0.0674  0.0755 -0.3634
 2425SOL    HW2 9773  -0.057   3.552   4.204 -1.7390 -1.2977 -1.5980
 2425SOL    HW3 9774  -0.010   3.490   4.074  2.7475  0.8617 -1.0953
 2425SOL    MW4 9775   0.000   3.503   4.160  0.1827 -0.0017 -0.6223
 2426SOL     OW 9776   0.231   3.659   4.270 -0.0230 -0.6575  0.0448
 2426SOL    HW2 9777   0.305   3.603   4.246  0.2355  0.0664 -0.8979
 2426SOL    HW3 9778   0.154   3.613   4.237  0.3102  0.2011 -1.9931
 2426SOL    MW4 9779   0.231   3.646   4.263  0.0550 -0.4487 -0.3490
 2427SOL     OW 9780   0.263   3.910   4.170  0.5763 -0.8778  0.5050
 2427SOL    HW2 9781   0.173   3.942   4.180  0.2765 -0.9069 -1.8369
 2427SOL    HW3 9782   0.258   3.819   4.198 -0.8292 -1.7441 -2.2812
 2427SOL    MW4 9783   0.250   3.902   4.175  0.3513 -0.9956 -0.1717
 2428SOL     OW 9784   4.488   3.979   4.249 -0.5103  0.1835 -0.2900
 2428SOL    HW2 9785   4.467   3.980   4.343 -0.9362 -0.2016 -0.3816
 2428SOL    HW3 9786   4.406   3.955   4.206  0.1682 -1.6155 -0.6250
 2428SOL    MW4 9787   4.475   3.976   4.256 -0.4768 -0.1047 -0.3457
 2429SOL     OW 9788   0.044   4.237   4.158  0.3339  0.3150  0.0427
 2429SOL    HW2 9789   0.043   4.142   4.166  1.1696  0.2547 -0.4856
 2429SOL    HW3 9790   0.054   4.253   4.064  0.4099  0.9247  0.1508
 2429SOL    MW4 9791   0.045   4.227   4.147  0.4542  0.3872 -0.0124
 2430SOL     OW 9792   0.237   4.410   4.264 -0.5497  0.2647 -0.0558
 2430SOL    HW2 9793   0.251   4.377   4.353  1.7946 -1.3028 -0.9579
 2430SOL    HW3 9794   0.166   4.356   4.229 -0.0264 -0.5653  0.1485
 2430SOL    MW4 9795   0.230   4.399   4.271 -0.1714 -0.0510 -0.1478
 2431SOL     OW 9796   0.703   4.647   4.166  0.3636 -0.1651  0.0732
 2431SOL    HW2 9797   0.621   4.674   4.206  0.3305 -0.9633  0.5456
 2431SOL    HW3 9798   0.698   4.680   4.076  0.0622  0.8598  0.4582
 2431SOL    MW4 9799   0.692   4.655   4.159  0.3194 -0.1354  0.1869
 2432SOL     OW 9800   0.463   0.116   4.306  0.0240 -0.5774  0.4498
 2432SOL    HW2 9801   0.471   0.119   4.402  0.9240  1.2837  0.3190
 2432SOL    HW3 9802   0.436   0.204   4.281 -2.3683 -1.6100 -0.8467
 2432SOL    MW4 9803   0.460   0.128   4.316 -0.1729 -0.4680  0.2618
 2433SOL     OW 9804   0.455   0.384   4.186  0.6648  0.3473  0.2384
 2433SOL    HW2 9805   0.538   0.409   4.226  1.5598 -0.6657 -0.9283
 2433SOL    HW3 9806   0.470   0.396   4.092  0.0083 -1.3227 -0.0880
 2433SOL    MW4 9807   0.468   0.389   4.178  0.6963 -0.0067  0.0410
 2434SOL     OW 9808   0.694   0.483   4.261 -0.8688  0.0693  0.0321
 2434SOL    HW2 9809   0.764   0.460   4.200  0.7608  2.1852  1.0372
 2434SOL    HW3 9810   0.680   0.577   4.247 -0.5905  0.5498  2.7566
 2434SOL    MW4 9811   0.701   0.492   4.251 -0.6171  0.4119  0.5245
 2435SOL     OW 9812   0.676   0.763   4.185  0.0653  0.2392 -0.0632
 2435SOL    HW2 9813   0.599   0.818   4.199  0.3843  0.5673  0.4326
 2435SOL    HW3 9814   0.690   0.765   4.090 -0.3266  0.4613 -0.1187
 2435SOL    MW4 9815   0.667   0.770   4.174  0.0557  0.3119 -0.0052
 2436SOL     OW 9816   0.453   0.920   4.246 -0.1996 -0.1291  0.3539
 2436SOL    HW2 9817   0.452   1.015   4.234  1.1077  0.0532  1.4398
 2436SOL    HW3 9818   0.378   0.888   4.197 -0.4848  1.4434 -0.2616
 2436SOL    MW4 9819   0.443   0.928   4.238 -0.0647  0.1025  0.4163
 2437SOL     OW 9820   0.461   1.207   4.198 -0.2520 -0.1362  0.6901
 2437SOL    HW2 9821   0.539   1.235   4.246 -0.4332  1.1245  0.2833
 2437SOL    HW3 9822   0.488   1.211   4.106 -0.5502 -0.4729  0.5892
 2437SOL    MW4 9823   0.475   1.212   4.192 -0.3152 -0.0143  0.6232
 2438SOL     OW 9824   0.671   1.345   4.311  0.4581 -0.2218  0.6774
 2438SOL    HW2 9825   0.711   1.361   4.397 -0.3077  0.9227  0.8426
 2438SOL    HW3 9826   0.652   1.433   4.277  0.8543 -0.6597 -0.7190
 2438SOL    MW4 9827   0.674   1.359   4.318  0.4092 -0.1286  0.5150
 2439SOL     OW 9828   0.693   1.586   4.196 -0.7011  0.3708  0.1350
 2439SOL    HW2 9829   0.769   1.632   4.231  0.5614 -1.4365 -0.1700
 2439SOL    HW3 9830   0.710   1.580   4.102 -0.5782 -1.2072  0.2484
 2439SOL    MW4 9831   0.705   1.592   4.188 -0.5183 -0.0758  0.1097
 2440SOL     OW 9832   0.263   1.641   4.136 -0.5484 -0.0505 -0.1102
 2440SOL    HW2 9833   0.257   1.549   4.164  0.3671  0.7979  3.1019
 2440SOL    HW3 9834   0.177   1.677   4.156 -0.2976  0.2520  0.4288
 2440SOL    MW4 9835   0.251   1.633   4.142 -0.3945  0.1014  0.3848
 2441SOL     OW 9836   0.394   1.910   4.139 -0.2890 -0.3476  0.1347
 2441SOL    HW2 9837   0.366   1.819   4.151 -2.2055  0.0957 -0.7774
 2441SOL    HW3 9838   0.419   1.915   4.047  0.0623 -0.0191  0.2495
 2441SOL    MW4 9839   0.393   1.899   4.128 -0.4954 -0.2457  0.0296
 2442SOL     OW 9840   0.652   2.041   4.205  0.3927 -0.0622  0.1961
 2442SOL    HW2 9841   0.658   2.050   4.300 -0.0489 -1.9310  0.4339
 2442SOL    HW3 9842   0.564   2.005   4.190  0.5200  0.0604 -0.9020
 2442SOL    MW4 9843   0.641   2.037   4.215  0.3513 -0.2928  0.0830
 2443SOL     OW 9844   0.699   2.307   4.103 -0.3060 -0.3148 -0.2138
 2443SOL    HW2 9845   0.705   2.213   4.120 -0.6926 -0.0335  1.5469
 2443SOL    HW3 9846   0.676   2.313   4.010  0.2889 -1.9362 -0.4908
 2443SOL    MW4 9847   0.697   2.295   4.093 -0.2785 -0.4916 -0.0186
 2444SOL     OW 9848   0.465   2.448   4.135 -0.0276 -0.4285 -0.3920
 2444SOL    HW2 9849   0.487   2.530   4.091 -0.4804 -1.4696 -2.5929
 2444SOL    HW3 9850   0.550   2.407   4.152  0.1133 -0.4231 -1.0699
 2444SOL    MW4 9851   0.479   2.454   4.132 -0.0687 -0.5651 -0.7715
 2445SOL     OW 9852   0.514   2.726   4.062  0.2251  0.6177 -0.0742
 2445SOL    HW2 9853   0.573   2.777   4.117  0.3142  1.0458 -0.5528
 2445SOL    HW3 9854   0.519   2.770   3.976  0.9680 -0.7177 -0.7235
 2445SOL    MW4 9855   0.523   2.739   4.058  0.3349  0.4978 -0.2236
 2446SOL     OW 9856   0.695   2.893   4.189  0.3565 -0.0410 -0.0714
 2446SOL    HW2 9857   0.705   2.891   4.285 -0.1783 -2.2677 -0.0515
 2446SOL    HW3 9858   0.664   2.982   4.171 -2.5356 -0.5413  2.1194
 2446SOL    MW4 9859   0.692   2.905   4.200 -0.0957 -0.4008  0.2198
 2447SOL     OW 9860   0.675   3.150   4.108  0.8329 -0.4693 -0.3224
 2447SOL    HW2 9861   0.746   3.203   4.144  0.6863 -0.4971  0.0171
 2447SOL    HW3 9862   0.601   3.167   4.167  0.8958 -1.3488  0.0213
 2447SOL    MW4 9863   0.674   3.159   4.121  0.8218 -0.5894 -0.2322
 2448SOL     OW 9864   0.462   3.225   4.275  0.0607 -0.3013  0.3964
 2448SOL    HW2 9865   0.428   3.221   4.364 -2.6629  0.3848 -0.5789
 2448SOL    HW3 9866   0.451   3.316   4.249 -0.8175 -0.8580 -1.2511
 2448SOL    MW4 9867   0.456   3.237   4.283 -0.4145 -0.2840  0.0505
 2449SOL     OW 9868   0.449   3.497   4.214  0.4922 -0.0164 -0.5446
 2449SOL    HW2 9869   0.525   3.539   4.254  0.5548 -0.8273  0.2070
 2449SOL    HW3 9870   0.467   3.499   4.120  1.2307  0.2061 -0.4031
 2449SOL    MW4 9871   0.461   3.503   4.207  0.5978 -0.0939 -0.4263
 2450SOL     OW 9872   0.676   3.650   4.289 -0.1835 -0.1640  0.4403
 2450SOL    HW2 9873   0.691   3.701   4.369  0.7148  0.9412 -0.4128
 2450SOL    HW3 9874   0.757   3.600   4.278  0.2042  0.6566 -0.4743
 2450SOL    MW4 9875   0.689   3.650   4.298 -0.0138  0.0901  0.2074
 2451SOL     OW 9876   0.665   3.898   4.159 -0.3474 -0.3593 -0.2535
 2451SOL    HW2 9877   0.618   3.949   4.225  0.4376 -0.4873  0.4062
 2451SOL    HW3 9878   0.656   3.807   4.188 -0.4617 -0.4638 -0.6141
 2451SOL    MW4 9879   0.658   3.893   4.172 -0.2589 -0.3898 -0.2136
 2452SOL     OW 9880   0.473   4.040   4.311 -0.0699 -0.6852 -0.1195
 2452SOL    HW2 9881   0.487   4.125   4.270  2.3114 -1.4143 -0.9106
 2452SOL    HW3 9882   0.402   4.000   4.262 -0.2633  0.2935 -0.6358
 2452SOL    MW4 9883   0.466   4.046   4.299  0.2188 -0.6528 -0.2913
 2453SOL     OW 9884   0.460   4.273   4.178  0.4881 -0.3736 -0.2643
 2453SOL    HW2 9885   0.388   4.328   4.209  1.0334  0.2690 -0.1289
 2453SOL    HW3 9886   0.454   4.277   4.083  0.1499 -0.5817 -0.2528
 2453SOL    MW4 9887   0.450   4.281   4.170  0.5154 -0.3161 -0.2451
 2454SOL     OW 9888   0.700   4.400   4.240 -0.2961 -0.1013 -0.3153
 2454SOL    HW2 9889   0.606   4.385   4.240 -0.5019  1.1465 -0.5860
 2454SOL    HW3 9890   0.711   4.487   4.202  0.9519 -0.1454 -0.0912
 2454SOL    MW4 9891   0.689   4.410   4.235 -0.1586  0.0572 -0.3214
 2455SOL     OW 9892   1.140   4.651   4.165 -0.1038 -0.5303  0.4477
 2455SOL    HW2 9893   1.113   4.563   4.191 -1.3678  0.4061  2.4329
 2455SOL    HW3 9894   1.118   4.657   4.073 -1.4634 -1.7584  0.6838
 2455SOL    MW4 9895   1.134   4.640   4.157 -0.4500 -0.5689  0.7410
 2456SOL     OW 9896   0.915   0.122   4.269 -0.0904  0.4180  0.1057
 2456SOL    HW2 9897   0.989   0.077   4.229 -0.0344 -0.3579  1.0750
 2456SOL    HW3 9898   0.840   0.065   4.254 -0.2788  0.6623  0.1110
 2456SOL    MW4 9899   0.915   0.109   4.262 -0.1079  0.3478  0.2341
 2457SOL     OW 9900   0.890   0.348   4.100 -0.0337 -0.2934  0.0311
 2457SOL    HW2 9901   0.967   0.398   4.125  0.7330 -0.5307 -1.7783
 2457SOL    HW3 9902   0.891   0.271   4.158 -0.7126  1.2791  2.1871
 2457SOL    MW4 9903   0.900   0.344   4.111 -0.0222 -0.1172  0.0768
 2458SOL     OW 9904   1.118   0.477   4.211  0.3563  0.4456  0.3569
 2458SOL    HW2 9905   1.111   0.502   4.303 -0.0473 -1.3536  0.8366
 2458SOL    HW3 9906   1.204   0.436   4.203 -0.0237 -0.3152  0.1544
 2458SOL    MW4 9907   1.128   0.475   4.222  0.2530  0.1079  0.3934
 2459SOL     OW 9908   1.122   0.766   4.167  0.4242 -0.1648  0.0778
 2459SOL    HW2 9909   1.197   0.814   4.203  0.4334  0.0032 -0.1626
 2459SOL    HW3 9910   1.144   0.674   4.177  0.1439 -0.1245  1.1038
 2459SOL    MW4 9911   1.135   0.760   4.173  0.3883 -0.1373  0.1817
 2460SOL     OW 9912   0.909   0.928   4.270  0.3712 -0.3802 -0.3311
 2460SOL    HW2 9913   0.971   0.878   4.217  0.8337 -1.7694  1.4848
 2460SOL    HW3 9914   0.825   0.884   4.258  0.4037 -0.4776 -0.2044
 2460SOL    MW4 9915   0.906   0.916   4.262  0.4365 -0.5764 -0.0749
 2461SOL     OW 9916   0.876   1.203   4.161 -0.0381 -0.0998 -0.3090
 2461SOL    HW2 9917   0.865   1.112   4.190 -0.5625 -0.0186 -0.2426
 2461SOL    HW3 9918   0.803   1.250   4.203  1.5628  0.7983  1.5766
 2461SOL    MW4 9919   0.865   1.197   4.171  0.1040  0.0294 -0.0515
 2462SOL     OW 9920   1.097   1.330   4.284  0.0670 -0.2146  0.2955
 2462SOL    HW2 9921   1.079   1.325   4.378 -0.1849 -0.3674  0.2399
 2462SOL    HW3 9922   1.026   1.281   4.243 -0.7154  1.2248 -0.0828
 2462SOL    MW4 9923   1.085   1.323   4.291 -0.0695 -0.0448  0.2384
 2463SOL     OW 9924   1.151   1.567   4.145 -0.4316  0.5705 -0.1639
 2463SOL    HW2 9925   1.087   1.605   4.204 -0.6218 -1.0153  0.6810
 2463SOL    HW3 9926   1.144   1.473   4.159  0.0023  0.2040 -2.2168
 2463SOL    MW4 9927   1.142   1.560   4.155 -0.3995  0.3129 -0.3238
 2464SOL     OW 9928   0.930   1.720   4.251 -0.0011 -0.3764 -0.3551
 2464SOL    HW2 9929   0.920   1.720   4.346 -0.7826 -0.0504 -0.4341
 2464SOL    HW3 9930   0.919   1.811   4.225  0.0667 -0.4839 -0.7697
 2464SOL    MW4 9931   0.927   1.732   4.260 -0.0953 -0.3477 -0.4206
 2465SOL     OW 9932   0.913   1.983   4.146 -0.0437  0.2204  0.7392
 2465SOL    HW2 9933   0.826   2.011   4.175 -0.3020 -0.7442  0.9191
 2465SOL    HW3 9934   0.901   1.964   4.053  0.6887  2.9280  0.0384
 2465SOL    MW4 9935   0.900   1.984   4.137  0.0188  0.4504  0.6704
 2466SOL     OW 9936   1.112   2.062   4.322 -0.4209  0.0201 -0.2643
 2466SOL    HW2 9937   1.088   2.046   4.413 -0.4914  1.1493 -0.0716
 2466SOL    HW3 9938   1.042   2.022   4.271 -0.9763  0.3892  0.2092
 2466SOL    MW4 9939   1.100   2.055   4.327 -0.5034  0.2179 -0.1764
 2467SOL     OW 9940   1.134   2.341   4.195  0.3541 -0.2589  0.0533
 2467SOL    HW2 9941   1.209   2.395   4.219  0.8726 -0.5764 -0.7950
 2467SOL    HW3 9942   1.138   2.266   4.255  0.6670 -0.2304  0.0684
 2467SOL    MW4 9943   1.145   2.338   4.206  0.4640 -0.2971 -0.0572
 2468SOL     OW 9944   0.906   2.474   4.230 -0.1810  0.3132  0.2042
 2468SOL    HW2 9945   0.989   2.427   4.224  0.3536  1.3524 -0.6073
 2468SOL    HW3 9946   0.841   2.413   4.195  0.6593  0.5540 -1.8009
 2468SOL    MW4 9947   0.908   2.459   4.225  0.0004  0.4823 -0.1674
 2469SOL     OW 9948   0.933   2.722   4.121 -0.1692  0.2265 -0.6248
 2469SOL    HW2 9949   0.913   2.635   4.157 -0.6863  0.5751 -0.0631
 2469SOL    HW3 9950   0.861   2.777   4.150  1.0639  1.2564  0.5746
 2469SOL    MW4 9951   0.921   2.718   4.130 -0.0748  0.4082 -0.3929
 2470SOL     OW 9952   1.129   2.847   4.280 -0.0242  0.0999 -0.3695
 2470SOL    HW2 9953   1.137   2.932   4.236  0.4914  0.1768 -0.1234
 2470SOL    HW3 9954   1.051   2.808   4.241  1.4886 -0.6482 -2.7228
 2470SOL    MW4 9955   1.120   2.853   4.269  0.2433  0.0114 -0.6475
 2471SOL     OW 9956   1.105   3.111   4.143  0.2664  0.1748 -0.7113
 2471SOL    HW2 9957   1.179   3.153   4.187 -0.6962  0.7245  0.3880
 2471SOL    HW3 9958   1.133   3.104   4.052  1.1754  1.5213 -0.5460
 2471SOL    MW4 9959   1.118   3.116   4.137  0.2593  0.4251 -0.5441
 2472SOL     OW 9960   0.905   3.243   4.274 -0.4042 -0.0255  0.2119
 2472SOL    HW2 9961   0.886   3.183   4.346 -1.8361 -0.5593 -0.5861
 2472SOL    HW3 9962   0.966   3.195   4.218  0.3929  0.2336  0.8605
 2472SOL    MW4 9963   0.911   3.228   4.276 -0.4880 -0.0618  0.1926
 2473SOL     OW 9964   0.921   3.504   4.208 -0.6419 -0.2765 -0.4735
 2473SOL    HW2 9965   0.901   3.418   4.246 -0.8549 -0.4632 -1.0037
 2473SOL    HW3 9966   0.903   3.494   4.114 -0.2784  0.2295 -0.6015
 2473SOL    MW4 9967   0.916   3.491   4.201 -0.6220 -0.2344 -0.5608
 2474SOL     OW 9968   1.159   3.642   4.267 -0.5107  0.5505  0.0754
 2474SOL    HW2 9969   1.135   3.718   4.213  0.1183  0.6037 -0.1252
 2474SOL    HW3 9970   1.084   3.583   4.259 -1.1484  1.2799  0.4839
 2474SOL    MW4 9971   1.146   3.645   4.259 -0.5118  0.6537  0.1030
 2475SOL     OW 9972   1.115   3.875   4.131  0.1428  0.2210  0.1900
 2475SOL    HW2 9973   1.195   3.900   4.178  0.4784 -0.5550  0.0363
 2475SOL    HW3 9974   1.048   3.935   4.165  0.4946  0.0131  1.2805
 2475SOL    MW4 9975   1.117   3.886   4.142  0.2335  0.0913  0.3133
 2476SOL     OW 9976   0.900   4.031   4.224  0.2989 -0.3580  0.3517
 2476SOL    HW2 9977   0.898   4.119   4.186  0.3536 -0.7116 -0.4720
 2476SOL    HW3 9978   0.823   3.987   4.188 -0.5118 -0.2079  1.8524
 2476SOL    MW4 9979   0.890   4.037   4.215  0.1991 -0.3848  0.4406
 2477SOL     OW 9980   0.906   4.289   4.095  0.0159  0.0349  0.0877
 2477SOL    HW2 9981   0.977   4.322   4.149 -0.6313 -2.2644  2.4624
 2477SOL    HW3 9982   0.828   4.337   4.124 -0.2015 -0.6977  0.7463
 2477SOL    MW4 9983   0.905   4.300   4.106 -0.0982 -0.3653  0.4883
 2478SOL     OW 9984   1.098   4.382   4.252 -0.4642  0.0478 -0.2318
 2478SOL    HW2 9985   1.106   4.395   4.346  0.0587 -1.4842 -0.0436
 2478SOL    HW3 9986   1.182   4.344   4.226 -0.5440  0.6247 -1.3449
 2478SOL    MW4 9987   1.110   4.378   4.261 -0.4058 -0.0777 -0.3533
 2479SOL     OW 9988   1.595   4.635   4.139 -0.0019  0.2921  0.1565
 2479SOL    HW2 9989   1.668   4.687   4.172 -0.6356  1.4353 -0.2233
 2479SOL    HW3 9990   1.516   4.682   4.168 -0.5773 -0.3733 -0.3084
 2479SOL    MW4 9991   1.594   4.648   4.147 -0.1614  0.3551  0.0448
 2480SOL     OW 9992   1.380   0.115   4.234  0.3279 -0.3846 -0.2156
 2480SOL    HW2 9993   1.371   0.126   4.329  1.5324  0.3078 -0.1681
 2480SOL    HW3 9994   1.311   0.053   4.210  0.4910 -1.1389  1.2247
 2480SOL    MW4 9995   1.370   0.108   4.243  0.5083 -0.3928 -0.0191
 2481SOL     OW 9996   1.362   0.361   4.132 -0.0267 -0.4839 -0.2921
 2481SOL    HW2 9997   1.438   0.405   4.171 -0.3419 -0.1454 -0.0436
 2481SOL    HW3 9998   1.363   0.274   4.171 -0.6665  0.0401  0.9428
 2481SOL    MW4 9999   1.372   0.355   4.143 -0.1527 -0.3701 -0.0968
 2482SOL     OW10000   1.549   0.543   4.254 -0.5349  0.2846 -0.5212
 2482SOL    HW210001   1.557   0.553   4.349  0.6924 -0.5989 -0.5262
 2482SOL    HW310002   1.549   0.633   4.221 -0.0966  0.5735  0.2506
 2482SOL    MW410003   1.550   0.557   4.262 -0.3153  0.2062 -0.4206
 2483SOL     OW10004   1.526   0.804   4.186 -0.1714 -0.0986  0.4885
 2483SOL    HW210005   1.605   0.858   4.191 -0.4724  0.2571  1.4616
 2483SOL    HW310006   1.513   0.790   4.092  0.4774  0.6846  0.2762
 2483SOL    MW410007   1.535   0.809   4.174 -0.1255  0.0517  0.5889
 2484SOL     OW10008   1.300   0.927   4.281 -0.4040 -0.4662  0.1895
 2484SOL    HW210009   1.310   1.022   4.273 -2.1888 -0.1059  1.8311
 2484SOL    HW310010   1.381   0.891   4.244  0.7543  1.7310  0.5046
 2484SOL    MW410011   1.312   0.935   4.275 -0.4866 -0.1288  0.4478
 2485SOL     OW10012   1.341   1.207   4.195  0.5704  0.0921  0.2131
 2485SOL    HW210013   1.264   1.256   4.224  1.6210  1.1688  1.2340
 2485SOL    HW310014   1.333   1.203   4.100 -0.5652  0.4944  0.2863
 2485SOL    MW410015   1.330   1.213   4.186  0.5590  0.2873  0.3576
 2486SOL     OW10016   1.585   1.282   4.291 -0.5633 -0.4871  0.1516
 2486SOL    HW210017   1.567   1.303   4.383 -0.7682  0.2030 -0.0460
 2486SOL    HW310018   1.506   1.237   4.261  0.4236 -2.8769  0.9717
 2486SOL    MW410019   1.572   1.279   4.299 -0.4600 -0.7114  0.2337
 2487SOL     OW10020   1.617   1.568   4.196  0.3299 -0.4054 -0.0223
 2487SOL    HW210021   1.545   1.629   4.206  1.3759  0.7411  0.7030
 2487SOL    HW310022   1.594   1.493   4.250  0.3337  0.5670  1.3379
 2487SOL    MW410023   1.605   1.566   4.204  0.4684 -0.1258  0.2527
 2488SOL     OW10024   1.391   1.722   4.209  0.1141  0.2572 -0.4674
 2488SOL    HW210025   1.374   1.810   4.178 -1.7947 -0.3634 -1.2264
 2488SOL    HW310026   1.307   1.677   4.202  0.7995 -1.3036  0.9651
 2488SOL    MW410027   1.378   1.727   4.204 -0.0473 -0.0305 -0.3781
 2489SOL     OW10028   1.347   1.998   4.165  0.6253  0.1101  0.1489
 2489SOL    HW210029   1.420   2.043   4.208 -0.4491  2.0053  0.0453
 2489SOL    HW310030   1.272   2.014   4.223 -0.0958 -0.2610 -0.6681
 2489SOL    MW410031   1.347   2.006   4.178  0.3883  0.3111  0.0277
 2490SOL     OW10032   1.570   2.110   4.291 -0.4057 -0.1345 -0.0354
 2490SOL    HW210033   1.543   2.091   4.381 -0.1558  0.8395  0.2578
 2490SOL    HW310034   1.629   2.186   4.299 -0.8890  0.3673 -1.0758
 2490SOL    MW410035   1.574   2.118   4.304 -0.4364  0.0598 -0.1340
 2491SOL     OW10036   1.628   2.406   4.138 -0.0313 -0.2309  0.1188
 2491SOL    HW210037   1.685   2.483   4.128  0.0157 -0.2774  0.0314
 2491SOL    HW310038   1.617   2.374   4.049 -0.5691  0.0507  0.0843
 2491SOL    MW410039   1.634   2.412   4.125 -0.0962 -0.2000  0.1020
 2492SOL     OW10040   1.349   2.489   4.257  0.0455 -0.0410  0.1010
 2492SOL    HW210041   1.343   2.574   4.213  1.3679 -0.2568 -0.5132
 2492SOL    HW310042   1.434   2.454   4.230  0.1925 -0.8610  1.6091
 2492SOL    MW410043   1.359   2.495   4.247  0.2394 -0.1774  0.2184
 2493SOL     OW10044   1.339   2.738   4.116 -0.0537  0.1372  0.2849
 2493SOL    HW210045   1.421   2.775   4.147  0.6009 -0.6908 -0.4473
 2493SOL    HW310046   1.275   2.764   4.182  0.7931  0.7811  0.8613
 2493SOL    MW410047   1.341   2.746   4.129  0.1444  0.1130  0.2646
 2494SOL     OW10048   1.611   2.832   4.198 -0.3792 -0.5050 -0.2623
 2494SOL    HW210049   1.660   2.854   4.276  0.1599  0.0848 -0.7617
 2494SOL    HW310050   1.573   2.915   4.169  0.3323 -0.5110 -1.2399
 2494SOL    MW410051   1.612   2.846   4.204 -0.2141 -0.4282 -0.4573
 2495SOL     OW10052   1.518   3.095   4.129 -0.8071 -0.0077  0.0646
 2495SOL    HW210053   1.598   3.135   4.164 -0.8905  1.7549 -1.6930
 2495SOL    HW310054   1.448   3.131   4.183 -0.5134 -0.8377  1.0109
 2495SOL    MW410055   1.520   3.105   4.141 -0.7793  0.1154 -0.0429
 2496SOL     OW10056   1.312   3.196   4.312  0.2637  0.0283  0.0414
 2496SOL    HW210057   1.322   3.215   4.405  0.5380 -1.2703  0.2847
 2496SOL    HW310058   1.337   3.277   4.268  1.6614  0.1553  1.0472
 2496SOL    MW410059   1.317   3.209   4.319  0.4843 -0.1261  0.2065
 2497SOL     OW10060   1.346   3.456   4.153 -0.2699 -0.3263  0.0319
 2497SOL    HW210061   1.275   3.509   4.190 -0.0266 -0.9954  1.5213
 2497SOL    HW310062   1.334   3.462   4.059 -0.6513  1.8131  0.1810
 2497SOL    MW410063   1.335   3.464   4.146 -0.2880 -0.1326  0.2480
 2498SOL     OW10064   1.560   3.598   4.234 -0.0553  0.7265 -0.1412
 2498SOL    HW210065   1.551   3.589   4.329 -0.0840  0.4066 -0.1743
 2498SOL    HW310066   1.489   3.546   4.198  0.8784 -0.3953 -0.3760
 2498SOL    MW410067   1.549   3.590   4.242  0.0640  0.5362 -0.1769
 2499SOL     OW10068   1.581   3.867   4.178 -0.0405 -0.0650  0.1238
 2499SOL    HW210069   1.506   3.907   4.221  2.1425  1.5908  2.5399
 2499SOL    HW310070   1.572   3.773   4.197 -0.9578  0.2426  1.2430
 2499SOL    MW410071   1.570   3.860   4.186  0.1265  0.1938  0.5898
 2500SOL     OW10072   1.329   3.972   4.271  0.0079  0.1410  0.1399
 2500SOL    HW210073   1.310   3.968   4.364  0.2466  3.4905  0.4151
 2500SOL    HW310074   1.347   4.065   4.254  1.8719 -0.6755 -2.8610
 2500SOL    MW410075   1.329   3.984   4.281  0.2854  0.4756 -0.2198
 2501SOL     OW10076   1.352   4.244   4.201 -0.2244  0.2543  0.5152
 2501SOL    HW210077   1.432   4.292   4.222  0.0598  0.2090 -0.4279
 2501SOL    HW310078   1.350   4.243   4.105 -1.0140 -0.3097  0.5371
 2501SOL    MW410079   1.362   4.250   4.191 -0.2911  0.1736  0.3934
 2502SOL     OW10080   1.580   4.393   4.254  0.4590  0.1756  0.4229
 2502SOL    HW210081   1.580   4.477   4.208  0.8010 -0.5029 -0.8482
 2502SOL    HW310082   1.662   4.351   4.226  0.2876 -0.5788  1.0462
 2502SOL    MW410083   1.591   4.399   4.244  0.4816 -0.0129  0.3376
 2503SOL     OW10084   2.026   4.637   4.171 -0.4251  0.1557  0.3583
 2503SOL    HW210085   1.952   4.678   4.215 -0.9163  0.5678 -0.8324
 2503SOL    HW310086   2.010   4.652   4.078  0.5381 -0.8031  0.0275
 2503SOL    MW410087   2.014   4.645   4.164 -0.3626  0.0834  0.1574
 2504SOL     OW10088   1.789   0.130   4.233 -0.1717 -0.9048  0.3351
 2504SOL    HW210089   1.754   0.138   4.322 -0.0029 -0.7586  0.3881
 2504SOL    HW310090   1.785   0.218   4.197 -0.7849 -1.0706 -0.0113
 2504SOL    MW410091   1.784   0.143   4.240 -0.2303 -0.9074  0.2966
 2505SOL     OW10092   1.791   0.424   4.154 -0.4291 -0.5362 -0.0115
 2505SOL    HW210093   1.861   0.476   4.192 -0.1502 -0.4365 -0.6646
 2505SOL    HW310094   1.713   0.446   4.206 -0.2180  0.1850  0.0008
 2505SOL    MW410095   1.790   0.433   4.166 -0.3644 -0.4279 -0.0963
 2506SOL     OW10096   2.016   0.534   4.272  0.1656 -0.1938 -0.5224
 2506SOL    HW210097   2.000   0.519   4.365  0.8239  2.1378 -0.0054
 2506SOL    HW310098   2.090   0.478   4.251 -1.2638 -2.2913 -0.1690
 2506SOL    MW410099   2.023   0.525   4.281  0.0639 -0.1630 -0.4077
 2507SOL     OW10100   2.008   0.792   4.176  0.0396  0.4667  0.0342
 2507SOL    HW210101   2.080   0.835   4.222 -0.8321  0.6947  1.2234
 2507SOL    HW310102   2.004   0.704   4.213 -0.3736  0.5025  0.0844
 2507SOL    MW410103   2.017   0.786   4.187 -0.1299  0.5015  0.1974
 2508SOL     OW10104   1.768   0.911   4.247  0.3628 -0.0889  0.5582
 2508SOL    HW210105   1.778   0.999   4.211 -1.6445 -0.6258 -1.3883
 2508SOL    HW310106   1.854   0.870   4.234  0.4835  0.6542 -1.0744
 2508SOL    MW410107   1.781   0.917   4.241  0.1138 -0.0616  0.0858
 2509SOL     OW10108   1.785   1.156   4.148 -0.1017 -0.5327  0.0034
 2509SOL    HW210109   1.857   1.218   4.162  0.5192 -1.1174 -0.5521
 2509SOL    HW310110   1.709   1.197   4.190  0.1616  0.8763 -0.8543
 2509SOL    MW410111   1.785   1.170   4.156  0.0149 -0.4238 -0.1826
 2510SOL     OW10112   2.053   1.254   4.242  0.1919 -0.3042  0.3059
 2510SOL    HW210113   2.123   1.206   4.198  1.1417  0.8973  0.4783
 2510SOL    HW310114   2.073   1.346   4.226 -1.0260  0.0712  0.8580
 2510SOL    MW410115   2.065   1.260   4.234  0.1566 -0.0961  0.4020
 2511SOL     OW10116   2.074   1.523   4.189  0.2600  0.4103  0.6450
 2511SOL    HW210117   2.146   1.576   4.222  2.5321 -1.6547 -0.7645
 2511SOL    HW310118   2.069   1.544   4.096 -2.2433  1.9151  1.0771
 2511SOL    MW410119   2.083   1.533   4.181  0.2294  0.3363  0.5164
 2512SOL     OW10120   1.839   1.708   4.291 -0.2064  0.1473 -0.2919
 2512SOL    HW210121   1.924   1.671   4.269  0.3639  1.3145 -0.0685
 2512SOL    HW310122   1.776   1.645   4.255  0.7330 -0.9480 -0.0714
 2512SOL    MW410123   1.842   1.695   4.283 -0.0073  0.1566 -0.2337
 2513SOL     OW10124   1.816   1.963   4.200 -0.3217 -0.7872  0.3150
 2513SOL    HW210125   1.815   1.876   4.240 -2.6788 -1.1998 -0.5858
 2513SOL    HW310126   1.731   2.001   4.222 -0.1657  0.4463 -1.1503
 2513SOL    MW410127   1.805   1.957   4.208 -0.6121 -0.6789  0.0033
 2514SOL     OW10128   2.064   2.096   4.227  0.2749  0.4607  0.2692
 2514SOL    HW210129   2.131   2.036   4.194  0.0769  0.4333 -0.0862
 2514SOL    HW310130   1.982   2.047   4.218 -0.0869  1.3626 -1.4767
 2514SOL    MW410131   2.062   2.081   4.221  0.2012  0.5760 -0.0076
 2515SOL     OW10132   2.070   2.348   4.137  0.2365  0.3592 -0.1724
 2515SOL    HW210133   2.048   2.262   4.172  1.6533 -0.0458 -0.2261
 2515SOL    HW310134   2.080   2.333   4.043  0.6640  0.5421 -0.1574
 2515SOL    MW410135   2.068   2.335   4.129  0.4797  0.3300 -0.1774
 2516SOL     OW10136   2.009   2.606   4.207 -0.3543 -0.1495  0.2758
 2516SOL    HW210137   2.042   2.610   4.297 -1.3547  0.3742  0.6303
 2516SOL    HW310138   2.047   2.526   4.171 -1.1192 -1.1547  1.6538
 2516SOL    MW410139   2.019   2.596   4.214 -0.5872 -0.2129  0.5040
 2517SOL     OW10140   1.766   2.629   4.067  0.0124  0.2650 -0.0083
 2517SOL    HW210141   1.851   2.620   4.110  0.3397 -0.1461 -0.7237
 2517SOL    HW310142   1.727   2.708   4.105  0.3799  0.0202  0.8871
 2517SOL    MW410143   1.772   2.638   4.078  0.1041  0.1786  0.0157
 2518SOL     OW10144   2.011   3.078   4.070  0.2335  0.0829  0.5059
 2518SOL    HW210145   2.092   3.126   4.087  0.9918 -0.9542 -0.0828
 2518SOL    HW310146   2.031   2.988   4.098 -0.6234 -0.2386  0.0999
 2518SOL    MW410147   2.024   3.072   4.076  0.2205 -0.0961  0.3753
 2519SOL     OW10148   2.250   2.991   4.385 -0.2514  0.5951  0.0147
 2519SOL    HW210149   2.280   2.974   4.475  1.4046 -0.1017 -0.6587
 2519SOL    HW310150   2.239   3.086   4.381  0.8487  0.7524  0.5966
 2519SOL    MW410151   2.253   3.002   4.397  0.1121  0.5238  0.0024
 2520SOL     OW10152   1.767   3.222   4.205 -0.6197  0.1639  0.5044
 2520SOL    HW210153   1.780   3.315   4.186 -0.9268  0.4794  1.7829
 2520SOL    HW310154   1.846   3.179   4.172  0.2789  1.0914  1.4257
 2520SOL    MW410155   1.779   3.229   4.198 -0.5416  0.3278  0.7944
 2521SOL     OW10156   1.806   3.496   4.141  0.1996 -0.0952  0.1688
 2521SOL    HW210157   1.716   3.529   4.148 -0.1640 -1.0710  0.1489
 2521SOL    HW310158   1.820   3.487   4.047  1.0716  2.0642  0.0534
 2521SOL    MW410159   1.796   3.499   4.129  0.2666  0.0610  0.1507
 2522SOL     OW10160   2.053   3.606   4.224  0.1113 -0.0182 -0.0427
 2522SOL    HW210161   2.056   3.701   4.209  2.3989 -0.0804 -0.1016
 2522SOL    HW310162   1.972   3.578   4.182 -0.3002  1.8326 -0.5394
 2522SOL    MW410163   2.043   3.615   4.216  0.3586  0.2177 -0.1159
 2523SOL     OW10164   2.065   3.873   4.180  0.1714 -0.3365  0.0685
 2523SOL    HW210165   1.978   3.910   4.191  0.9433  1.6317 -0.2596
 2523SOL    HW310166   2.075   3.861   4.086  0.2524 -0.5408  0.1029
 2523SOL    MW410167   2.055   3.876   4.169  0.2837 -0.1037  0.0296
 2524SOL     OW10168   1.816   3.975   4.261 -0.1977 -0.3896  0.0050
 2524SOL    HW210169   1.805   4.065   4.232  0.0354 -0.0201  1.0304
 2524SOL    HW310170   1.739   3.928   4.228  0.2778 -0.0851 -1.5551
 2524SOL    MW410171   1.804   3.980   4.253 -0.1042 -0.3006 -0.0653
 2525SOL     OW10172   1.818   4.240   4.183 -0.0425  0.0152  0.0404
 2525SOL    HW210173   1.894   4.292   4.210 -0.5327  0.1493  1.2044
 2525SOL    HW310174   1.814   4.250   4.088  1.0567  0.4667  0.0346
 2525SOL    MW410175   1.828   4.248   4.174  0.0379  0.0925  0.1936
 2526SOL     OW10176   2.038   4.381   4.282  0.0915  0.1720 -0.0876
 2526SOL    HW210177   2.048   4.405   4.374 -3.6447  1.5671  0.0435
 2526SOL    HW310178   2.056   4.462   4.234 -0.8850  0.2033 -0.4024
 2526SOL    MW410179   2.042   4.395   4.288 -0.5302  0.3605 -0.1121
 2527SOL     OW10180   2.469   4.648   4.116  0.0970 -0.3307 -0.6008
 2527SOL    HW210181   2.536   4.704   4.156  1.7975 -1.5764 -1.6113
 2527SOL    HW310182   2.463   4.573   4.175  0.5870 -0.8557 -1.2082
 2527SOL    MW410183   2.477   4.645   4.129  0.3860 -0.5646 -0.8144
 2528SOL     OW10184   2.245   0.138   4.282 -0.3362  0.1598  0.2651
 2528SOL    HW210185   2.294   0.119   4.202  1.2275 -0.4484  1.3414
 2528SOL    HW310186   2.184   0.065   4.292 -0.7195  0.3743 -0.5129
 2528SOL    MW410187   2.243   0.126   4.273 -0.1802  0.1079  0.3047
 2529SOL     OW10188   2.242   0.400   4.204 -0.6647  0.1083 -0.2457
 2529SOL    HW210189   2.252   0.316   4.250  1.0340  0.3758 -0.1052
 2529SOL    HW310190   2.237   0.376   4.112 -0.5152 -0.1852 -0.1793
 2529SOL    MW410191   2.243   0.386   4.198 -0.4208  0.1049 -0.2179
 2530SOL     OW10192   2.469   0.527   4.269 -0.1398 -0.4892 -0.0933
 2530SOL    HW210193   2.468   0.527   4.364 -0.8677  0.1715 -0.0967
 2530SOL    HW310194   2.392   0.475   4.244 -0.4473  0.0782 -0.3229
 2530SOL    MW410195   2.459   0.520   4.278 -0.2763 -0.3272 -0.1240
 2531SOL     OW10196   2.441   0.798   4.186 -0.0974  0.5314 -0.1901
 2531SOL    HW210197   2.455   0.709   4.217  1.4590  0.7997 -0.0576
 2531SOL    HW310198   2.451   0.792   4.091  0.1955  0.5892 -0.1644
 2531SOL    MW410199   2.445   0.786   4.178  0.1466  0.5744 -0.1693
 2532SOL     OW10200   2.227   0.950   4.269  0.0827 -0.2978 -0.1855
 2532SOL    HW210201   2.228   0.944   4.365  1.9548 -0.2502 -0.1782
 2532SOL    HW310202   2.297   0.891   4.241 -0.8581 -0.7765 -1.5697
 2532SOL    MW410203   2.236   0.941   4.278  0.2055 -0.3546 -0.3672
 2533SOL     OW10204   2.288   1.164   4.123 -0.7126 -0.1666 -0.0210
 2533SOL    HW210205   2.310   1.229   4.189 -2.3201 -0.3339  0.7192
 2533SOL    HW310206   2.283   1.081   4.172 -1.6185 -0.3376 -0.3961
 2533SOL    MW410207   2.290   1.161   4.138 -1.0443 -0.2114  0.0272
 2534SOL     OW10208   2.465   1.325   4.260 -0.6458  0.5555  0.1290
 2534SOL    HW210209   2.462   1.328   4.356 -0.4055  1.2591  0.1182
 2534SOL    HW310210   2.555   1.298   4.241 -0.9022 -0.3016  0.1098
 2534SOL    MW410211   2.477   1.322   4.270 -0.6478  0.5352  0.1249
 2535SOL     OW10212   2.485   1.575   4.126 -0.5189 -0.0529 -0.1056
 2535SOL    HW210213   2.475   1.493   4.175 -0.4163 -0.8462 -1.3833
 2535SOL    HW310214   2.482   1.548   4.034  2.4520  1.0055 -0.5613
 2535SOL    MW410215   2.483   1.560   4.121 -0.1135 -0.0180 -0.3347
 2536SOL     OW10216   2.267   1.687   4.283 -0.4084 -0.7651  0.1745
 2536SOL    HW210217   2.288   1.688   4.376  0.3463  0.2646  0.0044
 2536SOL    HW310218   2.342   1.644   4.242  0.3143  0.7798 -0.1788
 2536SOL    MW410219   2.279   1.681   4.289 -0.2136 -0.4253  0.1054
 2537SOL     OW10220   2.296   1.916   4.129  0.2269  0.0655  0.4937
 2537SOL    HW210221   2.382   1.949   4.155  0.8358 -0.6401 -0.5648
 2537SOL    HW310222   2.279   1.843   4.188 -0.0044  0.7084  1.2221
 2537SOL    MW410223   2.305   1.911   4.140  0.2768  0.0573  0.4501
 2538SOL     OW10224   2.527   2.030   4.219  0.2177 -0.1880  0.2604
 2538SOL    HW210225   2.539   2.046   4.312  0.8614 -1.4852  0.4068
 2538SOL    HW310226   2.523   2.117   4.180  0.7486  0.3498  1.3947
 2538SOL    MW410227   2.528   2.043   4.226  0.3729 -0.2882  0.4292
 2539SOL     OW10228   2.487   2.288   4.078  0.1175 -0.2880 -0.2709
 2539SOL    HW210229   2.423   2.358   4.090 -0.0683 -0.3318 -0.9712
 2539SOL    HW310230   2.504   2.287   3.984 -1.5794 -2.6862 -0.5774
 2539SOL    MW410231   2.481   2.297   4.067 -0.1311 -0.6101 -0.4039
 2540SOL     OW10232   2.311   2.494   4.138  0.2014  0.1798  0.5198
 2540SOL    HW210233   2.338   2.498   4.230  1.0681 -2.4052  0.4043
 2540SOL    HW310234   2.222   2.461   4.141  0.3929 -0.3462  0.4049
 2540SOL    MW410235   2.303   2.490   4.151  0.3407 -0.2308  0.4897
 2541SOL     OW10236   2.162   2.814   4.089  0.3960 -0.5757 -0.2313
 2541SOL    HW210237   2.143   2.739   4.145 -0.4868 -0.0095  0.2342
 2541SOL    HW310238   2.241   2.853   4.127 -0.4712  0.0886  0.9028
 2541SOL    MW410239   2.170   2.809   4.101  0.1650 -0.4132 -0.0200
 2542SOL     OW10240   2.413   2.948   4.172 -0.7112  0.3906  0.4248
 2542SOL    HW210241   2.375   2.952   4.260  1.0090  0.1988  1.2115
 2542SOL    HW310242   2.498   2.906   4.185  0.1576  1.5988 -1.1306
 2542SOL    MW410243   2.420   2.943   4.186 -0.3698  0.5248  0.3238
 2543SOL     OW10244   2.261   3.203   4.135 -0.1368  0.3613  0.0285
 2543SOL    HW210245   2.307   3.287   4.141  1.0251 -0.3330  1.0403
 2543SOL    HW310246   2.329   3.137   4.151 -0.9537 -0.7968 -1.1478
 2543SOL    MW410247   2.276   3.205   4.138 -0.0913  0.1168  0.0067
 2544SOL     OW10248   2.206   3.267   4.415  0.3651  0.0473  0.2670
 2544SOL    HW210249   2.215   3.269   4.320  0.2532 -0.0571  0.2527
 2544SOL    HW310250   2.260   3.339   4.447  0.3813  0.0987  0.1218
 2544SOL    MW410251   2.214   3.277   4.407  0.3524  0.0405  0.2460
 2545SOL     OW10252   2.302   3.500   4.130 -0.1852  0.2107  0.3319
 2545SOL    HW210253   2.386   3.530   4.166  0.0243  0.7949 -0.6316
 2545SOL    HW310254   2.236   3.534   4.190  0.2676 -0.2781  1.1121
 2545SOL    MW410255   2.305   3.508   4.143 -0.0978  0.2236  0.3080
 2546SOL     OW10256   2.545   3.578   4.246 -0.3102 -0.2015 -0.2016
 2546SOL    HW210257   2.609   3.564   4.315 -0.3052  1.7034  0.2298
 2546SOL    HW310258   2.545   3.673   4.233 -0.7795 -0.4671 -2.3690
 2546SOL    MW410259   2.554   3.589   4.253 -0.3715  0.0148 -0.4301
 2547SOL     OW10260   2.513   3.855   4.148  0.1906  0.8088 -0.2842
 2547SOL    HW210261   2.586   3.912   4.175  0.5004  0.8322 -1.1720
 2547SOL    HW310262   2.497   3.878   4.057  0.6287 -0.8503 -0.7856
 2547SOL    MW410263   2.521   3.866   4.140  0.2894  0.5932 -0.4678
 2548SOL     OW10264   2.299   3.970   4.301 -0.3101  0.2041 -0.6349
 2548SOL    HW210265   2.359   3.945   4.230 -0.4831 -1.0095 -0.3759
 2548SOL    HW310266   2.215   3.934   4.274 -0.6641  0.8759 -0.4301
 2548SOL    MW410267   2.296   3.962   4.288 -0.3796  0.1326 -0.5746
 2549SOL     OW10268   2.241   4.218   4.190  0.2096  0.4727  0.4103
 2549SOL    HW210269   2.231   4.130   4.226 -2.7598  0.9763  0.9317
 2549SOL    HW310270   2.176   4.271   4.236  2.4431  3.1304  0.6152
 2549SOL    MW410271   2.231   4.214   4.201  0.1128  0.8898  0.5059
 2550SOL     OW10272   2.457   4.423   4.274  0.3841  0.6203  0.5577
 2550SOL    HW210273   2.539   4.375   4.259 -0.3635 -0.5328  0.1455
 2550SOL    HW310274   2.390   4.370   4.232 -0.3080  2.6538 -0.9663
 2550SOL    MW410275   2.459   4.410   4.266  0.1943  0.7367  0.3023
 2551SOL     OW10276   2.915   0.054   4.144  0.2548  0.1663  0.0318
 2551SOL    HW210277   2.988   0.099   4.188  1.2335 -0.6886 -0.6793
 2551SOL    HW310278   2.930  -0.038   4.165 -0.6291 -0.0106 -0.1358
 2551SOL    MW410279   2.927   0.048   4.153  0.2673  0.0301 -0.0839
 2552SOL     OW10280   2.674   0.134   4.218  0.3483 -0.2336 -0.0357
 2552SOL    HW210281   2.687   0.229   4.213 -0.6140 -0.1167 -0.6608
 2552SOL    HW310282   2.759   0.096   4.198  0.3631  0.4930 -1.4461
 2552SOL    MW410283   2.687   0.142   4.215  0.2229 -0.1223 -0.3042
 2553SOL     OW10284   2.700   0.403   4.190  0.3096  0.0865  0.2069
 2553SOL    HW210285   2.620   0.448   4.220 -0.0342 -0.2588 -0.1860
 2553SOL    HW310286   2.697   0.411   4.095  0.6371 -0.1137  0.1821
 2553SOL    MW410287   2.689   0.410   4.181  0.3073  0.0145  0.1516
 2554SOL     OW10288   2.922   0.555   4.310 -0.3273  0.7372  0.2470
 2554SOL    HW210289   2.908   0.640   4.267 -0.2387  0.3079 -0.6538
 2554SOL    HW310290   2.851   0.500   4.277 -0.5022  0.5158  0.9879
 2554SOL    MW410291   2.911   0.559   4.300 -0.3388  0.6514  0.2260
 2555SOL     OW10292   2.901   0.803   4.190 -0.3410  0.0527  0.2027
 2555SOL    HW210293   2.981   0.836   4.232 -1.1063  0.8878  1.0357
 2555SOL    HW310294   2.927   0.785   4.100  0.6853  0.7188  0.3555
 2555SOL    MW410295   2.915   0.805   4.184 -0.3066  0.2508  0.3328
 2556SOL     OW10296   2.661   0.956   4.241  0.6461  0.4225 -0.4959
 2556SOL    HW210297   2.732   0.896   4.216  1.6987  1.2284  0.4768
 2556SOL    HW310298   2.581   0.908   4.221  1.4689 -0.7791 -0.9863
 2556SOL    MW410299   2.660   0.942   4.235  0.8934  0.3703 -0.4325
 2557SOL     OW10300   2.714   1.222   4.160  0.3288 -0.1716  0.1380
 2557SOL    HW210301   2.698   1.134   4.194 -0.7993 -0.2244 -0.4829
 2557SOL    HW310302   2.712   1.212   4.065 -0.0839  0.5571  0.0623
 2557SOL    MW410303   2.711   1.210   4.152  0.1256 -0.0824  0.0467
 2558SOL     OW10304   2.952   1.340   4.233 -0.2262  0.0017 -0.3760
 2558SOL    HW210305   3.018   1.299   4.177  0.2871  0.7923 -0.3699
 2558SOL    HW310306   2.869   1.301   4.206  0.2204 -0.8627 -0.5216
 2558SOL    MW410307   2.950   1.329   4.222 -0.0997 -0.0080 -0.3948
 2559SOL     OW10308   2.872   1.590   4.115 -0.3052  0.2199  0.0585
 2559SOL    HW210309   2.948   1.641   4.145 -1.4171  1.2426  1.1850
 2559SOL    HW310310   2.890   1.501   4.145  1.2578  0.0988 -1.1863
 2559SOL    MW410311   2.885   1.585   4.123 -0.2458  0.3389  0.0434
 2560SOL     OW10312   2.687   1.717   4.279  0.1138 -0.6932  0.1795
 2560SOL    HW210313   2.752   1.676   4.223 -0.2496 -2.0902  0.7748
 2560SOL    HW310314   2.607   1.717   4.227 -0.3621 -2.4912  0.8763
 2560SOL    MW410315   2.685   1.712   4.265  0.0031 -1.1150  0.3500
 2561SOL     OW10316   2.793   1.990   4.090 -0.7105  0.2749 -0.7406
 2561SOL    HW210317   2.712   1.974   4.139 -0.7595 -0.0660 -0.9297
 2561SOL    HW310318   2.768   1.977   3.999 -0.2434 -0.6651 -0.7387
 2561SOL    MW410319   2.779   1.986   4.085 -0.6554  0.1060 -0.7648
 2562SOL     OW10320   2.890   2.273   4.084 -0.1650 -0.1661 -0.1802
 2562SOL    HW210321   2.931   2.314   4.161  0.6092  0.2553 -0.8142
 2562SOL    HW310322   2.849   2.194   4.118  0.5400 -0.2032  0.5931
 2562SOL    MW410323   2.890   2.268   4.099  0.0300 -0.1154 -0.1621
 2563SOL     OW10324   2.834   2.190   4.368 -0.4937  0.0975 -0.0305
 2563SOL    HW210325   2.916   2.239   4.378 -0.3350  0.2345 -1.8080
 2563SOL    HW310326   2.774   2.251   4.326 -0.2109 -1.2561 -2.5163
 2563SOL    MW410327   2.837   2.204   4.363 -0.4356 -0.0629 -0.5932
 2564SOL     OW10328   2.797   2.639   4.079  0.2436  0.5565  0.1420
 2564SOL    HW210329   2.890   2.650   4.094  0.2787 -0.0300  0.3853
 2564SOL    HW310330   2.755   2.705   4.135  0.4013 -1.1178  2.3438
 2564SOL    MW410331   2.804   2.649   4.089  0.2692  0.2584  0.4649
 2565SOL     OW10332   2.873   3.048   4.511  0.1260 -0.2431 -0.5390
 2565SOL    HW210333   2.834   3.136   4.508 -0.2441 -0.4002 -0.3628
 2565SOL    HW310334   2.801   2.991   4.538  0.4845 -0.5353 -0.2002
 2565SOL    MW410335   2.859   3.052   4.514  0.1245 -0.3021 -0.4716
 2566SOL     OW10336   3.372   2.562   4.377 -0.1345 -0.2971  0.1891
 2566SOL    HW210337   3.357   2.647   4.420 -0.0948 -0.5730  0.7548
 2566SOL    HW310338   3.328   2.499   4.434 -1.1994 -0.5230 -0.8617
 2566SOL    MW410339   3.364   2.565   4.390 -0.2697 -0.3633  0.1249
 2567SOL     OW10340   3.310   2.812   4.489  0.5337  0.3909  0.1692
 2567SOL    HW210341   3.292   2.814   4.583 -0.3300 -2.1819  0.0884
 2567SOL    HW310342   3.224   2.821   4.448  0.7106 -0.2559 -0.3508
 2567SOL    MW410343   3.296   2.813   4.496  0.4430 -0.0339  0.0901
 2568SOL     OW10344   2.765   3.094   4.099  0.2275 -0.2652  0.4382
 2568SOL    HW210345   2.694   3.091   4.036  1.1350 -1.6654 -0.5482
 2568SOL    HW310346   2.743   3.166   4.157 -1.0615  0.4903 -0.9636
 2568SOL    MW410347   2.753   3.103   4.098  0.1774 -0.3502  0.1230
 2569SOL     OW10348   2.611   3.428   4.000  0.0365 -0.0379 -0.1894
 2569SOL    HW210349   2.629   3.500   4.061 -0.9461 -0.2414  0.3642
 2569SOL    HW310350   2.563   3.364   4.053  0.5973 -0.9484 -0.7694
 2569SOL    MW410351   2.607   3.429   4.015 -0.0193 -0.1850 -0.1926
 2570SOL     OW10352   2.866   3.714   4.292 -0.6435  0.1283  0.0290
 2570SOL    HW210353   2.789   3.761   4.324  0.1589  0.9882  0.7117
 2570SOL    HW310354   2.843   3.621   4.301 -1.1075  0.3769  1.4200
 2570SOL    MW410355   2.852   3.708   4.297 -0.5989  0.2744  0.3033
 2571SOL     OW10356   2.992   3.914   4.143  0.4955  0.2691  0.1779
 2571SOL    HW210357   3.059   3.948   4.202  1.2585  0.1426 -0.6073
 2571SOL    HW310358   2.957   3.838   4.188  1.6437 -0.3076  0.1052
 2571SOL    MW410359   2.996   3.909   4.157  0.7474  0.1762  0.0648
 2572SOL     OW10360   2.734   4.024   4.225  0.5739 -0.1908 -0.2784
 2572SOL    HW210361   2.725   4.114   4.193  0.5796 -1.4962 -4.1888
 2572SOL    HW310362   2.825   4.001   4.204  0.5024 -1.2146  0.5005
 2572SOL    MW410363   2.745   4.033   4.218  0.5653 -0.4978 -0.6914
 2573SOL     OW10364   2.701   4.293   4.159 -0.1874  0.3425 -0.0097
 2573SOL    HW210365   2.782   4.340   4.176 -0.0767  1.2142 -2.6157
 2573SOL    HW310366   2.688   4.302   4.064 -2.6076 -0.9460  0.1562
 2573SOL    MW410367   2.710   4.300   4.148 -0.4921  0.2871 -0.3319
 2574SOL     OW10368   2.934   4.429   4.217  0.0511 -0.5721 -0.1122
 2574SOL    HW210369   2.956   4.424   4.310 -2.0027 -2.8174  0.3010
 2574SOL    HW310370   2.988   4.361   4.176 -0.0681 -0.5146 -0.3655
 2574SOL    MW410371   2.944   4.419   4.224 -0.2356 -0.8607 -0.0906
 2575SOL     OW10372   3.353   0.017   4.121  0.3640 -0.1707 -0.0056
 2575SOL    HW210373   3.424   0.056   4.173 -0.2115 -0.8786  1.3381
 2575SOL    HW310374   3.344  -0.072   4.157 -1.8529  0.2423  0.5066
 2575SOL    MW410375   3.361   0.010   4.133 -0.0043 -0.2098  0.2389
 2576SOL     OW10376   3.149   0.158   4.261 -0.5233  0.0863 -0.4537
 2576SOL    HW210377   3.155   0.119   4.348 -0.7515  2.1145  0.4986
 2576SOL    HW310378   3.220   0.117   4.212 -0.1143 -0.7634  0.7997
 2576SOL    MW410379   3.159   0.147   4.266 -0.4995  0.2418 -0.1626
 2577SOL     OW10380   3.120   0.419   4.142 -0.5236 -0.6173  0.1318
 2577SOL    HW210381   3.129   0.339   4.194  0.8650  0.1882  1.1553
 2577SOL    HW310382   3.048   0.466   4.183 -0.3017 -0.6112  0.5208
 2577SOL    MW410383   3.112   0.414   4.154 -0.3109 -0.5102  0.3185
 2578SOL     OW10384   3.330   0.551   4.268  0.1238  0.2557  0.4337
 2578SOL    HW210385   3.402   0.491   4.247 -0.4617 -0.4363  0.3685
 2578SOL    HW310386   3.254   0.512   4.224 -0.0865  1.5160 -0.3435
 2578SOL    MW410387   3.330   0.538   4.259  0.0186  0.3307  0.3228
 2579SOL     OW10388   3.352   0.799   4.119  0.4000  0.3980 -0.2687
 2579SOL    HW210389   3.290   0.854   4.165  0.1942  0.5711 -0.7514
 2579SOL    HW310390   3.344   0.713   4.161 -0.8848  0.1547 -0.9734
 2579SOL    MW410391   3.343   0.795   4.130  0.2036  0.3887 -0.4253
 2580SOL     OW10392   3.147   0.933   4.251 -0.3006 -0.0170 -0.1849
 2580SOL    HW210393   3.168   0.968   4.337 -1.3459 -0.2458  0.1716
 2580SOL    HW310394   3.134   1.010   4.196  0.5235  0.1272 -0.1797
 2580SOL    MW410395   3.148   0.948   4.255 -0.3295 -0.0281 -0.1373
 2581SOL     OW10396   3.149   1.188   4.110  0.0152 -0.0984 -0.1899
 2581SOL    HW210397   3.235   1.214   4.142  0.8233  0.3346 -2.5866
 2581SOL    HW310398   3.160   1.180   4.015 -2.3592 -0.9208 -0.4383
 2581SOL    MW410399   3.162   1.191   4.102 -0.1915 -0.1497 -0.5393
 2582SOL     OW10400   3.403   1.290   4.212 -0.1364  0.3398 -0.0117
 2582SOL    HW210401   3.398   1.290   4.308 -1.2516 -0.2023 -0.0605
 2582SOL    HW310402   3.421   1.381   4.189 -0.3335  0.5596  0.6928
 2582SOL    MW410403   3.405   1.302   4.222 -0.3099  0.2972  0.0749
 2583SOL     OW10404   3.363   1.570   4.118  0.6555  0.1044 -0.1584
 2583SOL    HW210405   3.280   1.615   4.131 -0.1994 -1.0845 -1.3907
 2583SOL    HW310406   3.365   1.548   4.025  1.0519 -2.3232  0.3799
 2583SOL    MW410407   3.352   1.573   4.108  0.5951 -0.3728 -0.2503
 2584SOL     OW10408   3.115   1.691   4.192 -0.3358  0.1158  0.2474
 2584SOL    HW210409   3.119   1.695   4.287 -0.1606  1.0278  0.2062
 2584SOL    HW310410   3.127   1.782   4.163  1.3016 -0.3901 -0.7089
 2584SOL    MW410411   3.117   1.704   4.201 -0.0966  0.1693  0.1159
 2585SOL     OW10412   3.085   1.954   4.091  0.3873 -0.2311  0.4951
 2585SOL    HW210413   3.146   2.013   4.135 -0.5681  0.4277  0.9672
 2585SOL    HW310414   2.999   1.981   4.124 -0.2396 -0.4891 -0.9273
 2585SOL    MW410415   3.081   1.965   4.101  0.1783 -0.1781  0.3700
 2586SOL     OW10416   3.287   2.114   4.172 -0.2017 -0.3083 -0.2056
 2586SOL    HW210417   3.372   2.071   4.162  0.3802  0.2562  1.9929
 2586SOL    HW310418   3.297   2.197   4.126  0.3454 -0.3615 -0.1915
 2586SOL    MW410419   3.299   2.119   4.165 -0.0527 -0.2406  0.0868
 2587SOL     OW10420   3.302   2.364   4.081 -0.4879 -0.1442  0.1914
 2587SOL    HW210421   3.388   2.376   4.120 -0.0350 -2.2038 -0.1488
 2587SOL    HW310422   3.319   2.346   3.988 -1.3039 -0.0486  0.0138
 2587SOL    MW410423   3.315   2.363   4.074 -0.5357 -0.4034  0.1230
 2588SOL     OW10424   3.067   2.404   4.264 -0.2134  0.1220 -0.3093
 2588SOL    HW210425   3.050   2.496   4.246  0.3688  0.3121  0.1255
 2588SOL    HW310426   3.125   2.375   4.194  1.9839  0.8404  1.1599
 2588SOL    MW410427   3.072   2.412   4.252  0.1535  0.2418 -0.0582
 2589SOL     OW10428   3.053   2.661   4.175  0.0528  0.1655 -0.0636
 2589SOL    HW210429   3.140   2.669   4.136 -0.3954  1.5607 -0.8246
 2589SOL    HW310430   3.044   2.740   4.230  0.2284 -1.2088  2.0031
 2589SOL    MW410431   3.064   2.673   4.177  0.0167  0.1681  0.1082
 2590SOL     OW10432   3.289   2.754   4.054  0.1637 -0.0473 -0.1264
 2590SOL    HW210433   3.373   2.720   4.025 -0.1150 -0.4219 -0.5010
 2590SOL    HW310434   3.306   2.845   4.077  0.7735 -0.2608  0.2631
 2590SOL    MW410435   3.302   2.762   4.053  0.2072 -0.1249 -0.1245
 2591SOL     OW10436   3.375   3.022   4.101  0.7693  0.1728  0.2293
 2591SOL    HW210437   3.310   3.086   4.130  0.0602 -0.7636  0.7045
 2591SOL    HW310438   3.392   3.046   4.010  0.0094  0.6271  0.2008
 2591SOL    MW410439   3.369   3.034   4.093  0.5751  0.1094  0.2880
 2592SOL     OW10440   3.163   3.203   4.210  0.4347 -0.1834 -0.1933
 2592SOL    HW210441   3.141   3.294   4.193  0.4121 -0.2241 -0.3817
 2592SOL    HW310442   3.101   3.153   4.157 -0.5384 -0.3356  1.0521
 2592SOL    MW410443   3.152   3.208   4.201  0.3035 -0.2091 -0.0539
 2593SOL     OW10444   3.139   3.498   4.163 -0.3699 -0.2391  0.5214
 2593SOL    HW210445   3.051   3.492   4.200 -0.4612  0.5967  0.4660
 2593SOL    HW310446   3.125   3.510   4.069 -0.1877 -0.4830  0.4627
 2593SOL    MW410447   3.126   3.499   4.155 -0.3579 -0.1609  0.5059
 2594SOL     OW10448   3.386   3.586   4.217 -0.1850  0.6339  0.6274
 2594SOL    HW210449   3.417   3.559   4.303  0.4404 -0.7654 -0.0266
 2594SOL    HW310450   3.294   3.560   4.215 -0.3003  1.0101  1.0120
 2594SOL    MW410451   3.378   3.579   4.228 -0.1178  0.4992  0.5918
 2595SOL     OW10452   3.487   3.816   4.075 -0.0926  0.3271  0.0401
 2595SOL    HW210453   3.468   3.735   4.123  1.5057  0.4414  0.9073
 2595SOL    HW310454   3.411   3.829   4.018 -1.2309 -0.7598  1.2763
 2595SOL    MW410455   3.474   3.807   4.074 -0.0319  0.1988  0.3171
 2596SOL     OW10456   3.182   4.024   4.314  0.4197  0.6072 -0.0217
 2596SOL    HW210457   3.118   4.033   4.385  0.3348  0.2667 -0.0516
 2596SOL    HW310458   3.250   3.967   4.350 -0.2814 -0.6474 -0.6477
 2596SOL    MW410459   3.182   4.018   4.328  0.3159  0.3972 -0.1078
 2597SOL     OW10460   3.145   4.245   4.146  0.0087  0.0091  0.6287
 2597SOL    HW210461   3.189   4.322   4.182  0.7282  0.0762 -0.3759
 2597SOL    HW310462   3.159   4.177   4.212  0.9200  0.2585  0.7051
 2597SOL    MW410463   3.153   4.246   4.160  0.2236  0.0510  0.5059
 2598SOL     OW10464   3.337   4.429   4.222 -0.0804  0.4088  0.4676
 2598SOL    HW210465   3.354   4.424   4.317  0.9167 -2.0350  0.1883
 2598SOL    HW310466   3.405   4.375   4.183 -1.6038 -0.1112 -1.5273
 2598SOL    MW410467   3.348   4.421   4.230 -0.1500  0.0181  0.1674
 2599SOL     OW10468   3.796   4.658   4.178  0.2069 -0.5468  0.3177
 2599SOL    HW210469   3.881   4.687   4.213 -0.2421 -0.9270  1.7698
 2599SOL    HW310470   3.802   4.674   4.084  1.4930  0.4465  0.5485
 2599SOL    MW410471   3.808   4.664   4.170  0.3171 -0.4659  0.5398
 2600SOL     OW10472   3.574   0.134   4.291  0.5032  0.1687  0.5963
 2600SOL    HW210473   3.581   0.220   4.248 -1.8280 -0.6703 -1.5471
 2600SOL    HW310474   3.645   0.083   4.252 -0.3053  0.0547 -0.7549
 2600SOL    MW410475   3.584   0.139   4.280  0.0887  0.0429  0.1354
 2601SOL     OW10476   3.548   0.388   4.186  0.2866  0.3383 -0.6037
 2601SOL    HW210477   3.637   0.421   4.197  0.6492 -0.2851 -1.5658
 2601SOL    HW310478   3.541   0.368   4.092 -1.0963  1.0549 -0.6684
 2601SOL    MW410479   3.559   0.390   4.175  0.1521  0.3506 -0.7391
 2602SOL     OW10480   3.809   0.440   4.219  0.0729 -0.1440  0.1925
 2602SOL    HW210481   3.806   0.437   4.315  4.7222 -1.9133  0.4318
 2602SOL    HW310482   3.825   0.531   4.198  2.8222 -0.2838  1.4040
 2602SOL    MW410483   3.811   0.451   4.229  1.0488 -0.3958  0.3834
 2603SOL     OW10484   3.820   0.710   4.144  0.2897 -0.0596 -0.0574
 2603SOL    HW210485   3.736   0.746   4.170 -0.4177 -1.6966 -0.0167
 2603SOL    HW310486   3.824   0.724   4.049  0.5249  1.0993  0.1114
 2603SOL    MW410487   3.810   0.716   4.135  0.2272 -0.1227 -0.0296
 2604SOL     OW10488   3.602   0.884   4.194  0.3046  0.2312 -0.5192
 2604SOL    HW210489   3.609   0.977   4.172  1.2857  0.3336  0.1789
 2604SOL    HW310490   3.510   0.862   4.176 -0.0290  1.4234 -0.3509
 2604SOL    MW410491   3.591   0.893   4.189  0.3898  0.4020 -0.4048
 2605SOL     OW10492   3.609   1.148   4.104 -0.3873  0.1444 -0.1344
 2605SOL    HW210493   3.531   1.196   4.128 -0.7445 -0.3371 -0.3153
 2605SOL    HW310494   3.609   1.148   4.008 -0.6034 -0.5431 -0.1414
 2605SOL    MW410495   3.599   1.154   4.094 -0.4632 -0.0099 -0.1593
 2606SOL     OW10496   3.797   1.272   4.256 -0.1095  0.2652 -0.1692
 2606SOL    HW210497   3.736   1.239   4.191  0.0993  1.7398 -1.1603
 2606SOL    HW310498   3.780   1.366   4.259  1.4646  0.5612  0.2061
 2606SOL    MW410499   3.787   1.280   4.248  0.1256  0.4989 -0.2508
 2607SOL     OW10500   3.766   1.567   4.181 -0.0410  0.3289  0.1450
 2607SOL    HW210501   3.838   1.613   4.224 -1.0334  1.1581  0.9817
 2607SOL    HW310502   3.688   1.617   4.206 -0.9741 -0.9145 -0.2149
 2607SOL    MW410503   3.765   1.580   4.190 -0.2952  0.2743  0.2079
 2608SOL     OW10504   3.550   1.747   4.252  0.4525 -0.1071 -0.1736
 2608SOL    HW210505   3.498   1.693   4.192  0.4322 -0.6087  0.2867
 2608SOL    HW310506   3.502   1.744   4.335  0.6894  0.2497 -0.0216
 2608SOL    MW410507   3.537   1.739   4.255  0.4809 -0.1262 -0.0930
 2609SOL     OW10508   3.541   2.009   4.149  0.1737  0.4511  0.5580
 2609SOL    HW210509   3.566   1.936   4.206 -2.1616 -0.2335  0.7550
 2609SOL    HW310510   3.570   1.982   4.062 -1.2065 -1.0207  0.5223
 2609SOL    MW410511   3.548   1.996   4.145 -0.3161  0.1668  0.5789
 2610SOL     OW10512   3.600   2.197   4.335  0.1027  0.2243 -0.3221
 2610SOL    HW210513   3.527   2.192   4.397 -0.2635  0.0122 -0.7638
 2610SOL    HW310514   3.576   2.137   4.265  1.3191 -0.8310  0.1544
 2610SOL    MW410515   3.587   2.189   4.334  0.2148  0.0575 -0.3176
 2611SOL     OW10516   3.789   2.365   4.210 -0.4304 -0.2962 -0.4719
 2611SOL    HW210517   3.745   2.285   4.239  0.5828 -1.1047 -1.1144
 2611SOL    HW310518   3.773   2.369   4.116  1.5385 -1.0737 -0.8747
 2611SOL    MW410519   3.781   2.355   4.202 -0.0372 -0.5057 -0.6104
 2612SOL     OW10520   3.549   2.486   4.175  0.0655 -0.1365  0.2384
 2612SOL    HW210521   3.493   2.513   4.248  0.7692  2.2345 -0.0567
 2612SOL    HW310522   3.620   2.437   4.216 -0.9994 -1.2184  0.8413
 2612SOL    MW410523   3.551   2.483   4.190  0.0179  0.0336  0.2789
 2613SOL     OW10524   3.569   2.723   4.036 -0.2786 -0.3221  0.2001
 2613SOL    HW210525   3.573   2.636   4.075  1.1661 -1.2236 -1.9251
 2613SOL    HW310526   3.596   2.711   3.945 -1.8079  2.0527 -0.6217
 2613SOL    MW410527   3.573   2.710   4.029 -0.2899 -0.1278 -0.1888
 2614SOL     OW10528   3.825   2.820   4.117  0.3765 -1.0128  0.0965
 2614SOL    HW210529   3.801   2.797   4.207  0.2203 -1.8035 -0.1460
 2614SOL    HW310530   3.743   2.819   4.069  0.6024 -1.6261 -0.2798
 2614SOL    MW410531   3.811   2.817   4.123  0.3858 -1.1985  0.0143
 2615SOL     OW10532   3.833   3.096   4.127  0.9085 -0.1747  0.2397
 2615SOL    HW210533   3.816   3.001   4.128  1.0040 -0.1854  1.6203
 2615SOL    HW310534   3.825   3.120   4.035 -0.4455 -1.2940  0.0440
 2615SOL    MW410535   3.830   3.086   4.115  0.7424 -0.3240  0.3963
 2616SOL     OW10536   3.624   3.212   4.242  0.1513  0.1192  0.1620
 2616SOL    HW210537   3.701   3.178   4.197 -0.2872 -0.2721 -0.3151
 2616SOL    HW310538   3.579   3.133   4.275  0.2007  0.3722  0.8351
 2616SOL    MW410539   3.628   3.197   4.240  0.0997  0.1009  0.1879
 2617SOL     OW10540   3.614   3.453   4.118 -0.4761 -0.4968  0.2447
 2617SOL    HW210541   3.629   3.371   4.164 -0.4462  0.0723  1.2747
 2617SOL    HW310542   3.528   3.483   4.148  0.8514  1.4261  2.3916
 2617SOL    MW410543   3.605   3.446   4.128 -0.2968 -0.1681  0.6638
 2618SOL     OW10544   3.823   3.649   4.229 -0.2932  0.1270 -0.6793
 2618SOL    HW210545   3.907   3.607   4.214 -0.5681 -0.4717 -0.5677
 2618SOL    HW310546   3.758   3.587   4.194 -0.7044  0.4276 -0.4603
 2618SOL    MW410547   3.825   3.635   4.223 -0.3836  0.0875 -0.6361
 2619SOL     OW10548   3.798   3.931   4.177 -0.5489 -0.0127 -0.5549
 2619SOL    HW210549   3.705   3.943   4.196 -0.3944 -1.7937  1.4896
 2619SOL    HW310550   3.812   3.836   4.181  1.2013  0.1724 -1.5766
 2619SOL    MW410551   3.788   3.920   4.180 -0.2975 -0.2232 -0.4196
 2620SOL     OW10552   3.517   4.059   4.199  0.2141 -0.3364 -0.1009
 2620SOL    HW210553   3.494   4.037   4.289 -0.5935  0.3756 -0.1256
 2620SOL    HW310554   3.501   3.979   4.150 -0.1440 -0.4810  0.2515
 2620SOL    MW410555   3.512   4.046   4.204  0.0603 -0.2618 -0.0567
 2621SOL     OW10556   3.564   4.307   4.116 -0.0572  0.1149  0.0832
 2621SOL    HW210557   3.642   4.331   4.166 -0.8623 -0.0593  1.4417
 2621SOL    HW310558   3.540   4.221   4.149  0.4330 -0.7942 -1.8775
 2621SOL    MW410559   3.571   4.299   4.127 -0.0989 -0.0281  0.0033
 2622SOL     OW10560   3.783   4.402   4.261  0.1477  0.1745  0.2200
 2622SOL    HW210561   3.875   4.378   4.251 -0.2390 -0.9005 -0.8823
 2622SOL    HW310562   3.778   4.493   4.232  0.5008 -0.4116 -1.7669
 2622SOL    MW410563   3.794   4.410   4.256  0.1433 -0.0443 -0.1879
 2623SOL     OW10564   4.302   4.625   4.170  0.1597 -0.6380  0.0011
 2623SOL    HW210565   4.320   4.544   4.218  1.7004 -1.3771 -1.7404
 2623SOL    HW310566   4.371   4.685   4.198 -0.2925 -0.3204  0.4250
 2623SOL    MW410567   4.314   4.622   4.180  0.3033 -0.6938 -0.1731
 2624SOL     OW10568   4.061   0.063   4.265  0.6321  0.1905  0.2871
 2624SOL    HW210569   4.044   0.149   4.227  1.5405  0.7001  1.0220
 2624SOL    HW310570   4.135   0.029   4.216 -0.6696 -0.8295 -1.0159
 2624SOL    MW410571   4.068   0.070   4.253  0.5808  0.1232  0.2117
 2625SOL     OW10572   4.025   0.307   4.136 -0.3328  0.1993 -0.0608
 2625SOL    HW210573   4.092   0.351   4.188 -0.2234 -0.1398  0.0845
 2625SOL    HW310574   3.944   0.353   4.157 -0.2176  0.3294  0.0943
 2625SOL    MW410575   4.023   0.319   4.145 -0.3037  0.1717 -0.0210
 2626SOL     OW10576   4.277   0.457   4.234  0.6880  0.3814  0.5266
 2626SOL    HW210577   4.262   0.550   4.215  1.3589  0.4429  0.2957
 2626SOL    HW310578   4.368   0.441   4.208  0.3203 -0.5468 -0.2018
 2626SOL    MW410579   4.287   0.467   4.228  0.7277  0.2671  0.4005
 2627SOL     OW10580   4.265   0.728   4.193  0.2206 -0.2972  0.5360
 2627SOL    HW210581   4.183   0.759   4.232  0.0547 -2.2815  1.8204
 2627SOL    HW310582   4.258   0.753   4.101 -0.9561  1.3010  1.0292
 2627SOL    MW410583   4.253   0.736   4.186  0.0434 -0.3482  0.7706
 2628SOL     OW10584   4.029   0.852   4.272 -0.6982 -0.7424 -0.5962
 2628SOL    HW210585   4.016   0.935   4.227  0.6714 -1.0094 -1.5335
 2628SOL    HW310586   3.962   0.794   4.237 -0.7817 -0.4210 -0.9641
 2628SOL    MW410587   4.019   0.855   4.262 -0.5283 -0.7352 -0.7682
 2629SOL     OW10588   4.047   1.139   4.196 -0.5786  0.1202  0.1890
 2629SOL    HW210589   4.128   1.179   4.228 -0.7512  0.0193  0.7527
 2629SOL    HW310590   3.980   1.205   4.210 -0.5129  0.4058 -0.7607
 2629SOL    MW410591   4.049   1.153   4.202 -0.5922  0.1445  0.1383
 2630SOL     OW10592   4.279   1.292   4.288  0.0999  0.4905 -0.1447
 2630SOL    HW210593   4.326   1.289   4.371  0.9234  2.2867 -0.5288
 2630SOL    HW310594   4.344   1.266   4.222  0.2367  1.8095 -0.5406
 2630SOL    MW410595   4.294   1.288   4.290  0.2265  0.9016 -0.2475
 2631SOL     OW10596   4.235   1.579   4.171 -0.0728  0.2057  0.3870
 2631SOL    HW210597   4.244   1.488   4.200 -0.0178  0.4165  1.0490
 2631SOL    HW310598   4.234   1.574   4.076  0.3212 -0.4542  0.4122
 2631SOL    MW410599   4.236   1.567   4.163 -0.0129  0.1465  0.4778
 2632SOL     OW10600   4.010   1.678   4.302  0.6753 -0.1878  0.0524
 2632SOL    HW210601   4.018   1.643   4.391 -1.0448  2.2049  1.2126
 2632SOL    HW310602   4.087   1.644   4.256  2.0546 -0.7866  2.6913
 2632SOL    MW410603   4.021   1.669   4.308  0.6299  0.0489  0.5536
 2633SOL     OW10604   4.027   1.955   4.240 -0.4039 -0.4376 -0.4021
 2633SOL    HW210605   4.021   1.865   4.273  1.0463 -0.1428  0.7230
 2633SOL    HW310606   3.968   2.005   4.297 -0.1436 -0.4359 -0.1339
 2633SOL    MW410607   4.019   1.950   4.252 -0.1783 -0.3984 -0.2179
 2634SOL     OW10608   0.035   1.966   4.094 -0.0422  0.3471  0.0764
 2634SOL    HW210609   0.097   1.999   4.159 -0.4283 -0.8443  1.0876
 2634SOL    HW310610  -0.051   1.978   4.135 -0.1913 -1.7900  0.4490
 2634SOL    MW410611   0.032   1.972   4.108 -0.1129 -0.0920  0.2589
 2635SOL     OW10612   4.275   2.291   4.104  0.2647  0.1352 -0.4239
 2635SOL    HW210613   4.203   2.334   4.150 -1.2094 -2.5448 -0.0958
 2635SOL    HW310614   4.290   2.210   4.154  1.9194 -0.4614 -1.8377
 2635SOL    MW410615   4.268   2.286   4.117  0.2885 -0.2971 -0.5670
 2636SOL     OW10616   4.064   2.417   4.234 -0.5233 -0.1567 -0.4343
 2636SOL    HW210617   4.089   2.432   4.325  1.5506 -2.0845 -0.6538
 2636SOL    HW310618   3.969   2.405   4.236 -0.3469 -1.3556  1.6384
 2636SOL    MW410619   4.055   2.418   4.246 -0.2265 -0.5693 -0.1903
 2637SOL     OW10620   4.081   2.687   4.137 -0.1334 -0.0487  0.1345
 2637SOL    HW210621   4.072   2.597   4.170 -0.0652  0.6011  1.9524
 2637SOL    HW310622   3.992   2.723   4.142 -0.5381 -0.6163 -2.4194
 2637SOL    MW410623   4.068   2.680   4.142 -0.1779 -0.0377  0.0372
 2638SOL     OW10624   4.314   2.818   4.221  0.3111 -0.1246 -0.0290
 2638SOL    HW210625   4.239   2.778   4.179  0.5996  1.2948 -1.9280
 2638SOL    HW310626   4.390   2.783   4.175  0.6498  1.1680 -0.4794
 2638SOL    MW410627   4.314   2.808   4.210  0.3939  0.2332 -0.3386
 2639SOL     OW10628   4.284   3.090   4.138 -0.0511 -0.2283  0.1617
 2639SOL    HW210629   4.295   2.998   4.162  1.5496 -0.2503 -0.5335
 2639SOL    HW310630   4.260   3.088   4.045  0.3204  0.0503  0.0553
 2639SOL    MW410631   4.282   3.078   4.129  0.2089 -0.1945  0.0563
 2640SOL     OW10632   4.055   3.223   4.245  0.2156 -0.1457  0.3732
 2640SOL    HW210633   4.136   3.185   4.211 -0.1413  1.4442 -2.3810
 2640SOL    HW310634   3.986   3.167   4.210  0.0162 -0.4164  1.1969
 2640SOL    MW410635   4.057   3.210   4.236  0.1421  0.0286  0.1187
 2641SOL     OW10636   4.057   3.512   4.171 -0.2172 -0.0547 -0.3017
 2641SOL    HW210637   4.053   3.418   4.184  0.5267 -0.1300 -0.5990
 2641SOL    HW310638   4.068   3.523   4.076  1.9834  0.2465 -0.0422
 2641SOL    MW410639   4.058   3.501   4.160  0.1712 -0.0250 -0.3071
 2642SOL     OW10640   4.282   3.645   4.283 -0.1151  0.5642  0.1599
 2642SOL    HW210641   4.265   3.726   4.235  0.4773 -0.8543 -2.5315
 2642SOL    HW310642   4.206   3.590   4.265  1.0459 -0.7454 -0.8729
 2642SOL    MW410643   4.270   3.648   4.275  0.1163  0.2043 -0.3309
 2643SOL     OW10644   4.246   3.894   4.152  0.3157 -0.5917  0.2181
 2643SOL    HW210645   4.176   3.957   4.167  0.8953  0.5761 -1.8899
 2643SOL    HW310646   4.242   3.874   4.059  2.2154 -1.1949  0.2348
 2643SOL    MW410647   4.236   3.899   4.142  0.6433 -0.5171 -0.0577
 2644SOL     OW10648   4.035   4.054   4.244 -0.1445 -0.3260 -0.4480
 2644SOL    HW210649   4.056   4.020   4.330  1.0186  0.4660 -0.4036
 2644SOL    HW310650   3.957   4.007   4.217 -1.8563  1.0207  1.9965
 2644SOL    MW410651   4.028   4.044   4.252 -0.2170 -0.0434 -0.1202
 2645SOL     OW10652   4.052   4.333   4.188 -0.1415 -0.3026  0.2788
 2645SOL    HW210653   4.140   4.364   4.208 -0.4360  0.4619  0.4326
 2645SOL    HW310654   4.049   4.244   4.223  0.6519 -0.4291  0.0264
 2645SOL    MW410655   4.063   4.325   4.196 -0.0753 -0.2179  0.2661
 2646SOL     OW10656   4.276   4.654   4.681  0.2609  0.2578  0.2430
 2646SOL    HW210657   4.253   4.692   4.766  0.7863  1.8180 -0.2880
 2646SOL    HW310658   4.193   4.649   4.633 -0.1953 -1.5765  1.2099
 2646SOL    MW410659   4.262   4.658   4.686  0.2704  0.2217  0.3009
 2647SOL     OW10660   0.109   0.369   4.659 -0.1611  0.0751  0.0740
 2647SOL    HW210661   0.171   0.398   4.592 -1.4465 -0.1412 -1.2327
 2647SOL    HW310662   0.049   0.310   4.612 -2.1373  1.2972  1.0154
 2647SOL    MW410663   0.109   0.365   4.644 -0.5914  0.2078  0.0257
 2648SOL     OW10664   4.338   4.377   4.565 -0.3177  0.0421 -0.0749
 2648SOL    HW210665   4.270   4.324   4.606  0.7387 -0.4481  1.0717
 2648SOL    HW310666   4.339   4.458   4.616  0.5168 -0.2899  0.4614
 2648SOL    MW410667   4.330   4.381   4.577 -0.0682 -0.0663  0.1473
 2649SOL     OW10668   4.022   0.030   4.543  0.3614 -0.1203 -0.2922
 2649SOL    HW210669   4.045   0.028   4.450 -1.8818 -0.2259 -0.8536
 2649SOL    HW310670   3.959  -0.041   4.554 -1.1156  1.3361  0.8408
 2649SOL    MW410671   4.017   0.020   4.533 -0.1292  0.0580 -0.2174
 2650SOL     OW10672   3.894   1.222   4.692  0.0404  0.2239 -0.0972
 2650SOL    HW210673   3.984   1.234   4.664 -0.0610  0.0423 -0.5081
 2650SOL    HW310674   3.859   1.310   4.699  0.4797  0.3231  0.8220
 2650SOL    MW410675   3.901   1.235   4.689  0.0851  0.2130 -0.0300
 2651SOL     OW10676   0.346   0.206   4.764 -0.0497  0.1602 -0.2315
 2651SOL    HW210677   0.262   0.250   4.750  0.1988  0.4515 -0.8115
 2651SOL    HW310678   0.407   0.252   4.708  0.5174 -0.0194  0.2333
 2651SOL    MW410679   0.343   0.218   4.755  0.0579  0.1749 -0.2470
 2652SOL     OW10680   0.783   0.786   4.632  0.2985 -0.3847 -0.1135
 2652SOL    HW210681   0.784   0.746   4.719  0.5510  1.4027  0.7205
 2652SOL    HW310682   0.690   0.803   4.615  0.3759  0.7634  0.5307
 2652SOL    MW410683   0.771   0.783   4.641  0.3421  0.0026  0.0815
 2653SOL     OW10684   4.409   0.859   4.549 -0.0288  0.3719  0.2966
 2653SOL    HW210685   4.413   0.767   4.577 -1.6244  0.2299  0.1392
 2653SOL    HW310686   4.425   0.857   4.455 -1.1687  0.1202  0.1008
 2653SOL    MW410687   4.411   0.847   4.540 -0.3896  0.3200  0.2499
 2654SOL     OW10688   0.485   1.446   4.600  0.0665  0.6083  0.1916
 2654SOL    HW210689   0.450   1.360   4.576  1.2493 -0.2580  1.4943
 2654SOL    HW310690   0.420   1.482   4.659 -0.5990  0.7679 -0.6224
 2654SOL    MW410691   0.472   1.439   4.604  0.1348  0.5150  0.2556
 2655SOL     OW10692   0.644   2.021   4.498 -0.0562  0.2053 -0.0787
 2655SOL    HW210693   0.719   1.985   4.546 -0.7355 -1.1033  0.0351
 2655SOL    HW310694   0.569   1.970   4.529 -1.1334  2.0493  0.3986
 2655SOL    MW410695   0.644   2.009   4.508 -0.2880  0.2759 -0.0010
 2656SOL     OW10696   4.153   1.270   4.622  0.3366  0.3166  0.3552
 2656SOL    HW210697   4.154   1.177   4.600 -0.7973  0.8393 -2.1143
 2656SOL    HW310698   4.244   1.298   4.610  0.2895 -0.0449 -0.9523
 2656SOL    MW410699   4.165   1.262   4.617  0.1802  0.3377 -0.1431
 2657SOL     OW10700   0.208   2.008   4.534 -0.2500  0.3631  0.8179
 2657SOL    HW210701   0.132   1.960   4.502  0.1155  0.3528 -0.0606
 2657SOL    HW310702   0.172   2.087   4.573 -0.7695 -0.0339  1.1394
 2657SOL    MW410703   0.193   2.012   4.535 -0.2703  0.3095  0.7443
 2658SOL     OW10704   0.540   1.665   4.429 -0.2208  0.0991  0.1640
 2658SOL    HW210705   0.519   1.587   4.479 -0.2667 -0.0496 -0.0879
 2658SOL    HW310706   0.567   1.633   4.343 -0.4348  0.3694 -0.0063
 2658SOL    MW410707   0.541   1.651   4.424 -0.2552  0.1152  0.1082
 2659SOL     OW10708   0.041   2.268   4.586  0.1703  0.7727  0.1073
 2659SOL    HW210709   0.014   2.315   4.666 -0.8163  1.9205 -0.8830
 2659SOL    HW310710   0.088   2.334   4.535 -0.1413  0.3420 -0.7419
 2659SOL    MW410711   0.044   2.283   4.590 -0.0010  0.8676 -0.1349
 2660SOL     OW10712   4.082   2.230   4.853 -0.3307  0.0619 -0.1528
 2660SOL    HW210713   4.084   2.239   4.948  0.1266  0.1356 -0.1694
 2660SOL    HW310714   4.119   2.312   4.821 -0.5952  0.0881 -0.3984
 2660SOL    MW410715   4.087   2.242   4.861 -0.3057  0.0751 -0.1874
 2661SOL     OW10716   0.423   2.766   4.452  0.2377  0.3865  0.5423
 2661SOL    HW210717   0.422   2.671   4.459  1.6452  0.3444  0.3494
 2661SOL    HW310718   0.364   2.786   4.379 -0.2496 -0.3155  0.7453
 2661SOL    MW410719   0.415   2.756   4.443  0.3591  0.2882  0.5441
 2662SOL     OW10720   0.315   2.942   4.644 -0.2806  0.1564  0.0696
 2662SOL    HW210721   0.367   2.885   4.588  0.6114  0.5821  0.4503
 2662SOL    HW310722   0.238   2.890   4.667  0.6497 -0.9851  0.6366
 2662SOL    MW410723   0.312   2.928   4.640 -0.0402  0.0622  0.1945
 2663SOL     OW10724   4.184   2.458   4.762 -0.2461 -0.4692 -0.1675
 2663SOL    HW210725   4.279   2.460   4.764 -0.2069 -0.8182 -1.3393
 2663SOL    HW310726   4.162   2.467   4.669 -1.3194 -1.6633 -0.0363
 2663SOL    MW410727   4.193   2.459   4.750 -0.3824 -0.6728 -0.3042
 2664SOL     OW10728   4.364   3.387   4.640 -0.1527  0.1459  0.6920
 2664SOL    HW210729   4.431   3.324   4.613  0.0615  0.9553 -0.6715
 2664SOL    HW310730   4.281   3.340   4.628  0.0556 -0.2039  0.6040
 2664SOL    MW410731   4.362   3.372   4.635 -0.0963  0.2067  0.5007
 2665SOL     OW10732   0.077   3.218   4.523  0.2819  0.1714 -0.1901
 2665SOL    HW210733   0.068   3.206   4.428  0.7057  0.5254 -0.2818
 2665SOL    HW310734   0.171   3.209   4.539  0.0940 -0.8334  0.3398
 2665SOL    MW410735   0.089   3.215   4.512  0.3130  0.0856 -0.1321
 2666SOL     OW10736   4.273   3.861   4.708 -0.0116  0.2100 -0.0252
 2666SOL    HW210737   4.240   3.910   4.632  1.2164 -0.2428 -0.8675
 2666SOL    HW310738   4.298   3.776   4.672 -1.0304 -0.6497  1.2155
 2666SOL    MW410739   4.272   3.856   4.693  0.0162  0.0367  0.0277
 2667SOL     OW10740   4.425   0.177   4.527 -0.2151 -0.1492  0.1963
 2667SOL    HW210741   4.356   0.241   4.511  1.1708  2.1723  3.1390
 2667SOL    HW310742   4.381   0.107   4.576 -0.6273  1.0676  1.6036
 2667SOL    MW410743   4.410   0.176   4.532 -0.0868  0.3177  0.7701
 2668SOL     OW10744   3.735   0.463   4.497 -0.0374  0.3892  0.3227
 2668SOL    HW210745   3.649   0.431   4.526 -1.1939  1.3808 -1.9194
 2668SOL    HW310746   3.746   0.546   4.543 -0.6987  0.7101 -0.0958
 2668SOL    MW410747   3.725   0.469   4.507 -0.2773  0.5623 -0.0286
 2669SOL     OW10748   3.997   3.787   4.786  0.1608  0.2447  0.1913
 2669SOL    HW210749   3.999   3.693   4.769 -0.4644  0.1372  0.6777
 2669SOL    HW310750   4.089   3.813   4.787  0.3473 -0.3921  0.2030
 2669SOL    MW410751   4.009   3.778   4.784  0.1030  0.1466  0.2570
 2670SOL     OW10752   3.907   4.292   4.712  0.2207 -0.1931 -0.0192
 2670SOL    HW210753   3.886   4.375   4.670 -0.0495 -0.3746 -0.2509
 2670SOL    HW310754   3.829   4.238   4.699 -0.0139 -0.1190  1.0721
 2670SOL    MW410755   3.894   4.296   4.704  0.1540 -0.2069  0.0939
 2671SOL     OW10756   0.500   0.026   4.593  0.1718 -0.5765  0.1692
 2671SOL    HW210757   0.527  -0.061   4.619 -1.1407 -0.9763  0.2459
 2671SOL    HW310758   0.439   0.054   4.661 -0.7918 -0.3346 -0.7667
 2671SOL    MW410759   0.496   0.018   4.605 -0.1284 -0.5973  0.0563
 2672SOL     OW10760   0.131   1.063   4.532  0.0654 -0.2464  0.1250
 2672SOL    HW210761   0.100   1.031   4.448  0.7759 -0.0111 -0.2263
 2672SOL    HW310762   0.076   1.018   4.596 -0.1886 -0.7482 -0.4411
 2672SOL    MW410763   0.120   1.053   4.530  0.1257 -0.2816  0.0033
 2673SOL     OW10764   1.404   1.094   4.777  0.3824 -0.1158  0.0046
 2673SOL    HW210765   1.429   1.071   4.867 -0.1891 -0.3577  0.0967
 2673SOL    HW310766   1.353   1.020   4.746 -0.2706  0.4126 -0.1757
 2673SOL    MW410767   1.401   1.082   4.785  0.2208 -0.0780 -0.0076
 2674SOL     OW10768   0.541   0.305   4.561 -0.1548  0.1618  0.5250
 2674SOL    HW210769   0.627   0.343   4.545 -1.2165  1.8698 -1.4559
 2674SOL    HW310770   0.557   0.211   4.568  1.9707  0.5413  1.1647
 2674SOL    MW410771   0.554   0.298   4.560 -0.0144  0.4372  0.3486
 2675SOL     OW10772   1.235   0.912   4.684  0.2995  0.1070 -0.3849
 2675SOL    HW210773   1.272   0.855   4.617  1.5886  2.0457 -1.3905
 2675SOL    HW310774   1.149   0.937   4.650  0.6709  0.5474 -1.0085
 2675SOL    MW410775   1.229   0.908   4.670  0.5186  0.4209 -0.6003
 2676SOL     OW10776   0.534   0.929   4.534 -0.3236  0.4714  0.3660
 2676SOL    HW210777   0.451   0.887   4.558 -0.6533  0.7678 -0.2357
 2676SOL    HW310778   0.535   0.927   4.438  0.1578  0.8737  0.3606
 2676SOL    MW410779   0.523   0.923   4.524 -0.3036  0.5636  0.2861
 2677SOL     OW10780   2.076   1.212   4.531  0.6212  0.2067  0.3124
 2677SOL    HW210781   2.075   1.245   4.441  1.9874  0.5154  0.4052
 2677SOL    HW310782   2.108   1.285   4.583  1.6474 -0.5689  0.7926
 2677SOL    MW410783   2.080   1.226   4.526  0.9370  0.1451  0.3881
 2678SOL     OW10784   0.818   1.689   4.498  0.3052  0.3981  0.0532
 2678SOL    HW210785   0.822   1.752   4.570 -1.6263 -2.5947  2.9549
 2678SOL    HW310786   0.727   1.692   4.469 -0.0515 -1.6435  0.8595
 2678SOL    MW410787   0.806   1.698   4.504  0.0033 -0.2660  0.5426
 2679SOL     OW10788   1.268   1.325   4.691  0.2182 -0.0562 -0.2217
 2679SOL    HW210789   1.294   1.242   4.730 -0.0729  0.6051  1.4362
 2679SOL    HW310790   1.187   1.305   4.644 -0.8707 -0.3460  1.7199
 2679SOL    MW410791   1.260   1.311   4.690  0.0362 -0.0069  0.2532
 2680SOL     OW10792   0.850   1.905   4.663  0.2112  0.2389  0.4649
 2680SOL    HW210793   0.928   1.962   4.658  0.6524 -0.4205 -0.3981
 2680SOL    HW310794   0.814   1.921   4.750 -0.2219  2.5649 -0.1131
 2680SOL    MW410795   0.856   1.915   4.674  0.2123  0.4588  0.2747
 2681SOL     OW10796   0.617   2.297   4.474 -0.4078  0.8420 -0.6417
 2681SOL    HW210797   0.701   2.340   4.491  0.3992 -0.5540 -0.9908
 2681SOL    HW310798   0.636   2.204   4.485 -1.7901  0.4817 -1.2607
 2681SOL    MW410799   0.631   2.290   4.478 -0.4837  0.6101 -0.7696
 2682SOL     OW10800   0.983   1.661   4.751 -0.0615  0.4837 -0.3381
 2682SOL    HW210801   0.979   1.745   4.705  1.3980  0.0660 -1.2640
 2682SOL    HW310802   1.069   1.659   4.791 -0.8606  0.2964  1.4101
 2682SOL    MW410803   0.994   1.672   4.750  0.0256  0.4038 -0.2298
 2683SOL     OW10804   0.128   2.489   4.448 -0.0692 -0.5051  0.5789
 2683SOL    HW210805   0.090   2.474   4.361 -0.9782  2.0336  0.4712
 2683SOL    HW310806   0.223   2.490   4.433 -0.1272 -2.3440  0.0286
 2683SOL    MW410807   0.136   2.487   4.434 -0.1968 -0.4127  0.4921
 2684SOL     OW10808   1.082   2.605   4.615 -0.1577 -0.0723  0.4373
 2684SOL    HW210809   1.086   2.700   4.609  1.3961 -0.1682 -0.3941
 2684SOL    HW310810   1.172   2.576   4.598 -0.5054 -1.6653  1.1597
 2684SOL    MW410811   1.094   2.613   4.612  0.0015 -0.2954  0.4230
 2685SOL     OW10812   0.411   2.487   4.405 -0.3040  0.1856  0.0114
 2685SOL    HW210813   0.472   2.423   4.444 -1.2391 -0.6573  0.1257
 2685SOL    HW310814   0.423   2.477   4.311  0.1182  0.3925  0.0444
 2685SOL    MW410815   0.421   2.477   4.398 -0.3717  0.1016  0.0305
 2686SOL     OW10816   1.318   2.959   4.626 -0.3815 -0.1197  0.3054
 2686SOL    HW210817   1.232   2.917   4.620  0.3892 -1.7447  0.3457
 2686SOL    HW310818   1.372   2.897   4.677  1.2774  0.0877 -1.1463
 2686SOL    MW410819   1.314   2.945   4.632 -0.0610 -0.3066  0.1192
 2687SOL     OW10820   0.378   3.186   4.529  0.1273 -0.3197  0.1802
 2687SOL    HW210821   0.468   3.206   4.557  0.5378 -1.3926 -0.3261
 2687SOL    HW310822   0.354   3.109   4.580  0.0126 -0.8616 -0.6778
 2687SOL    MW410823   0.387   3.178   4.539  0.1663 -0.5329  0.0005
 2688SOL     OW10824   1.299   4.516   4.631 -0.4056  0.1093  0.1332
 2688SOL    HW210825   1.211   4.492   4.601 -0.4733  0.6771 -0.1184
 2688SOL    HW310826   1.357   4.469   4.571 -0.5354 -0.0675  0.1436
 2688SOL    MW410827   1.295   4.506   4.619 -0.4317  0.1612  0.1016
 2689SOL     OW10828   4.486   2.667   4.603  0.1376  0.7215  0.3658
 2689SOL    HW210829   4.544   2.625   4.539 -0.6047 -0.0640  0.2097
 2689SOL    HW310830   4.484   2.759   4.577  0.8588  0.6512  0.0348
 2689SOL    MW410831   4.494   2.674   4.591  0.1345  0.6087  0.3018
 2690SOL     OW10832   4.379   3.655   4.549  0.0763  0.2782 -0.2772
 2690SOL    HW210833   4.393   3.566   4.581 -0.4938  0.6062  0.9152
 2690SOL    HW310834   4.361   3.645   4.455  1.0007 -0.7685 -0.3468
 2690SOL    MW410835   4.378   3.642   4.541  0.1235  0.1833 -0.1287
 2691SOL     OW10836   0.805   4.328   4.502  0.2837 -0.1158 -0.7471
 2691SOL    HW210837   0.727   4.347   4.555  0.7289 -0.1537 -0.0695
 2691SOL    HW310838   0.777   4.342   4.412 -0.1587  1.1003 -0.4239
 2691SOL    MW410839   0.791   4.332   4.497  0.2841  0.0396 -0.6156
 2692SOL     OW10840   0.107   4.228   4.568 -0.2607  0.1241  0.0405
 2692SOL    HW210841   0.080   4.137   4.553 -0.5222  0.2085 -0.0072
 2692SOL    HW310842   0.025   4.275   4.579 -0.1510  0.5216 -0.8828
 2692SOL    MW410843   0.092   4.222   4.568 -0.2807  0.1869 -0.0873
 2693SOL     OW10844   4.473   3.965   4.523 -0.1820 -0.2262  0.1843
 2693SOL    HW210845   4.533   3.891   4.516  0.0648  0.1180 -1.4078
 2693SOL    HW310846   4.421   3.945   4.601  0.3413 -1.7265  0.1778
 2693SOL    MW410847   4.474   3.952   4.533 -0.0804 -0.3786 -0.0267
 2694SOL     OW10848   0.365   4.239   4.489  0.1642  0.0372 -0.2334
 2694SOL    HW210849   0.389   4.158   4.445  1.4820 -0.4672  1.3491
 2694SOL    HW310850   0.274   4.226   4.515 -0.0106 -0.4282 -1.0783
 2694SOL    MW410851   0.356   4.227   4.487  0.3150 -0.0906 -0.1359
 2695SOL     OW10852   1.191   0.306   4.617 -0.2524  0.3027  0.0803
 2695SOL    HW210853   1.196   0.319   4.711  0.6932 -0.4226  0.1348
 2695SOL    HW310854   1.102   0.277   4.601 -1.4135  3.4983  0.3618
 2695SOL    MW410855   1.180   0.304   4.627 -0.2807  0.6286  0.1245
 2696SOL     OW10856   0.932   0.237   4.547 -0.2864  0.8240  0.5352
 2696SOL    HW210857   0.881   0.316   4.530  0.5379  1.0752 -0.7988
 2696SOL    HW310858   0.928   0.187   4.466 -2.3481 -1.4258  1.9379
 2696SOL    MW410859   0.925   0.241   4.534 -0.4497  0.5603  0.5441
 2697SOL     OW10860   0.318   0.506   4.521 -0.0747 -0.3972  0.1989
 2697SOL    HW210861   0.304   0.528   4.428  1.0978 -0.6385 -0.0345
 2697SOL    HW310862   0.396   0.452   4.521  1.2865  1.5350  1.5920
 2697SOL    MW410863   0.326   0.502   4.508  0.2596 -0.1741  0.3510
 2698SOL     OW10864   1.628   1.076   4.627 -0.0264  0.1940 -0.1311
 2698SOL    HW210865   1.557   1.081   4.691  1.0086 -1.7332  1.2207
 2698SOL    HW310866   1.705   1.107   4.674  0.7355 -1.1902 -0.4238
 2698SOL    MW410867   1.629   1.081   4.642  0.2106 -0.2428  0.0086
 2699SOL     OW10868   1.731   0.856   4.504  0.1413  0.5926 -0.0275
 2699SOL    HW210869   1.687   0.932   4.542  0.8002  1.2828 -0.6278
 2699SOL    HW310870   1.744   0.879   4.412  0.2716 -0.2832 -0.2335
 2699SOL    MW410871   1.727   0.869   4.497  0.2453  0.5682 -0.1335
 2700SOL     OW10872   0.392   1.184   4.555  0.3257 -0.0557 -0.0941
 2700SOL    HW210873   0.462   1.120   4.562  0.8899  0.6147  0.4293
 2700SOL    HW310874   0.314   1.132   4.535  0.5555 -1.0256  1.4529
 2700SOL    MW410875   0.391   1.169   4.553  0.4305 -0.0952  0.1788
 2701SOL     OW10876   0.784   1.410   4.578 -0.3053 -0.4073  0.1541
 2701SOL    HW210877   0.831   1.491   4.597  0.3027 -0.9116  0.8192
 2701SOL    HW310878   0.696   1.424   4.614 -0.7880  0.6549 -1.3602
 2701SOL    MW410879   0.778   1.423   4.585 -0.2887 -0.3338  0.0420
 2702SOL     OW10880   1.016   0.946   4.547  0.0877 -0.7213  0.2710
 2702SOL    HW210881   0.942   0.901   4.589  1.2177 -2.4121  0.5203
 2702SOL    HW310882   1.010   0.921   4.455 -1.2052  1.3468 -0.2423
 2702SOL    MW410883   1.005   0.937   4.541  0.0663 -0.6716  0.2360
 2703SOL     OW10884   1.875   1.177   4.727 -0.0032  0.1687 -0.4016
 2703SOL    HW210885   1.917   1.109   4.780 -1.0201 -0.7155 -0.7162
 2703SOL    HW310886   1.923   1.175   4.644  0.5143  0.4187 -0.1116
 2703SOL    MW410887   1.887   1.168   4.723 -0.0690  0.0850 -0.4048
 2704SOL     OW10888   1.030   1.260   4.568 -0.1266 -0.1847 -0.3367
 2704SOL    HW210889   1.011   1.167   4.578  0.1867 -0.2698 -0.5333
 2704SOL    HW310890   0.945   1.304   4.580 -0.2389 -0.4788 -0.0419
 2704SOL    MW410891   1.016   1.254   4.571 -0.1001 -0.2346 -0.3238
 2705SOL     OW10892   1.316   2.236   4.534  0.3929 -0.2310 -0.0603
 2705SOL    HW210893   1.352   2.324   4.546  0.9241 -0.5502  0.7476
 2705SOL    HW310894   1.393   2.180   4.519  0.0105 -0.4533 -1.2926
 2705SOL    MW410895   1.331   2.240   4.533  0.4126 -0.3023 -0.1159
 2706SOL     OW10896   1.762   2.803   4.615  0.0084  0.3021  0.3908
 2706SOL    HW210897   1.817   2.849   4.679 -0.1432  1.9263 -0.6128
 2706SOL    HW310898   1.739   2.870   4.551 -2.8320 -0.4272  0.5860
 2706SOL    MW410899   1.766   2.818   4.615 -0.3864  0.4203  0.2842
 2707SOL     OW10900   1.781   2.968   4.391 -0.1890  0.2218 -0.2293
 2707SOL    HW210901   1.787   3.062   4.407 -0.1039  0.3319 -0.9102
 2707SOL    HW310902   1.871   2.936   4.399 -0.4275 -0.0627  1.5736
 2707SOL    MW410903   1.794   2.976   4.394 -0.2092  0.1991 -0.0811
 2708SOL     OW10904   1.481   3.496   4.509 -0.3400 -0.1935  0.0883
 2708SOL    HW210905   1.564   3.538   4.532 -1.1231  1.1189  0.5295
 2708SOL    HW310906   1.470   3.427   4.574  0.5077 -0.5292 -0.1083
 2708SOL    MW410907   1.490   3.493   4.520 -0.3315 -0.0646  0.1211
 2709SOL     OW10908   0.696   2.834   4.463 -0.0486  0.3357 -0.0267
 2709SOL    HW210909   0.745   2.752   4.459  0.1906  0.4307  0.7213
 2709SOL    HW310910   0.605   2.807   4.476 -0.1536  0.1634 -1.1218
 2709SOL    MW410911   0.691   2.820   4.464 -0.0309  0.3254 -0.0720
 2710SOL     OW10912   0.684   3.783   4.552  0.3583  0.0108  0.2425
 2710SOL    HW210913   0.746   3.855   4.553 -0.4285  0.7015  0.5178
 2710SOL    HW310914   0.599   3.824   4.571 -0.3114 -0.7794 -0.9061
 2710SOL    MW410915   0.681   3.798   4.554  0.1661 -0.0024  0.1273
 2711SOL     OW10916   1.068   2.887   4.558  0.4472 -0.1727 -0.3734
 2711SOL    HW210917   1.080   2.887   4.463 -0.1424 -0.3667 -0.4505
 2711SOL    HW310918   1.040   2.977   4.577 -0.9266 -0.5350 -0.5871
 2711SOL    MW410919   1.066   2.899   4.548  0.1881 -0.2463 -0.4120
 2712SOL     OW10920   0.831   3.095   4.489  0.1963 -0.2236  0.5684
 2712SOL    HW210921   0.776   3.149   4.545 -1.1463 -0.2652 -0.6757
 2712SOL    HW310922   0.790   3.009   4.488  2.0016 -1.1346  2.0658
 2712SOL    MW410923   0.819   3.091   4.496  0.2574 -0.3493  0.6018
 2713SOL     OW10924   1.700   3.674   4.570 -0.1061  0.3305  0.1289
 2713SOL    HW210925   1.708   3.767   4.588  0.9601  0.1437  0.6637
 2713SOL    HW310926   1.786   3.647   4.538 -0.3931 -0.4708 -0.0013
 2713SOL    MW410927   1.712   3.682   4.568 -0.0032  0.2000  0.1822
 2714SOL     OW10928   0.634   3.242   4.632  0.2156 -0.1759  0.1074
 2714SOL    HW210929   0.668   3.326   4.602  0.4424 -0.0578  0.6918
 2714SOL    HW310930   0.621   3.253   4.726 -0.0039 -0.7086  0.1426
 2714SOL    MW410931   0.637   3.255   4.640  0.2165 -0.2306  0.1893
 2715SOL     OW10932   0.441   3.931   4.573  0.2322 -0.5326 -0.5953
 2715SOL    HW210933   0.360   3.883   4.555 -0.6236  0.5432  0.2846
 2715SOL    HW310934   0.457   3.981   4.493  0.5794 -1.5100 -1.1407
 2715SOL    MW410935   0.432   3.932   4.560  0.1651 -0.5198 -0.5512
 2716SOL     OW10936   0.822   4.042   4.503  0.0189 -0.3210  0.0184
 2716SOL    HW210937   0.832   4.136   4.514  1.5723 -0.3537 -1.0362
 2716SOL    HW310938   0.859   4.023   4.417  0.9720 -2.0892  0.7847
 2716SOL    MW410939   0.828   4.052   4.493  0.3496 -0.5584 -0.0200
 2717SOL     OW10940   0.556   4.395   4.646 -0.2125  0.0388 -0.3766
 2717SOL    HW210941   0.483   4.367   4.591  0.7713 -0.6000 -1.3693
 2717SOL    HW310942   0.557   4.330   4.717 -0.5932  0.0415 -0.3634
 2717SOL    MW410943   0.546   4.383   4.648 -0.1330 -0.0453 -0.5059
 2718SOL     OW10944   1.570   4.205   4.898 -0.2808 -0.5376  0.7517
 2718SOL    HW210945   1.586   4.210   4.992 -1.0008  0.3697  0.8252
 2718SOL    HW310946   1.487   4.250   4.885  1.0006  1.4740 -0.6413
 2718SOL    MW410947   1.561   4.211   4.909 -0.2067 -0.1521  0.5774
 2719SOL     OW10948   1.514   4.332   4.524  0.0090 -0.2937 -0.1716
 2719SOL    HW210949   1.591   4.352   4.578  0.5400 -0.1818 -0.9656
 2719SOL    HW310950   1.545   4.339   4.434 -0.7393 -1.0221 -0.4946
 2719SOL    MW410951   1.529   4.336   4.519 -0.0196 -0.3748 -0.3190
 2720SOL     OW10952   1.068   4.407   4.522 -0.2532  0.0115  0.0885
 2720SOL    HW210953   1.098   4.325   4.563 -0.0309  0.8867  1.7152
 2720SOL    HW310954   0.975   4.411   4.545 -0.5095 -0.3045 -0.8858
 2720SOL    MW410955   1.060   4.397   4.531 -0.2577  0.0854  0.1750
 2721SOL     OW10956   1.121   0.535   4.471 -0.1915 -0.1062 -0.3380
 2721SOL    HW210957   1.031   0.543   4.504 -0.0065  0.2397  0.0835
 2721SOL    HW310958   1.157   0.461   4.519 -0.1751 -0.1032 -0.3456
 2721SOL    MW410959   1.114   0.526   4.482 -0.1649 -0.0602 -0.2837
 2722SOL     OW10960   1.674   0.162   4.499  0.5201 -0.1008  0.2543
 2722SOL    HW210961   1.585   0.125   4.498  0.5094 -0.0560 -0.9926
 2722SOL    HW310962   1.730   0.089   4.521  0.1338 -0.0333  1.5077
 2722SOL    MW410963   1.669   0.148   4.502  0.4677 -0.0860  0.2551
 2723SOL     OW10964   1.322   0.740   4.486 -0.0214 -0.2790 -0.0320
 2723SOL    HW210965   1.260   0.670   4.468  1.6248 -1.3561 -1.7019
 2723SOL    HW310966   1.305   0.806   4.419  0.4426 -0.4515 -0.3231
 2723SOL    MW410967   1.312   0.740   4.475  0.2570 -0.4439 -0.2909
 2724SOL     OW10968   1.792   1.431   4.795  0.1393  0.0899  0.2050
 2724SOL    HW210969   1.836   1.346   4.795  0.7551  0.4024  1.8178
 2724SOL    HW310970   1.857   1.492   4.762 -0.1535  0.0156 -0.5151
 2724SOL    MW410971   1.806   1.428   4.791  0.1819  0.1214  0.3228
 2725SOL     OW10972   0.782   0.463   4.512 -0.3729 -0.2029 -0.3970
 2725SOL    HW210973   0.769   0.544   4.560  0.0382  0.0694 -0.7400
 2725SOL    HW310974   0.742   0.478   4.427  0.0660 -0.2149 -0.6057
 2725SOL    MW410975   0.775   0.476   4.507 -0.2607 -0.1686 -0.4692
 2726SOL     OW10976   2.012   0.527   4.556 -0.0113  0.4307 -0.1809
 2726SOL    HW210977   2.088   0.487   4.599  0.7592  2.2028  0.1211
 2726SOL    HW310978   1.937   0.481   4.594  0.9135 -1.9685 -1.1410
 2726SOL    MW410979   2.012   0.516   4.567  0.2122  0.3480 -0.2680
 2727SOL     OW10980   1.506   1.314   4.546  0.0302  0.0096 -0.2377
 2727SOL    HW210981   1.418   1.294   4.578  0.1789 -0.8445 -0.3481
 2727SOL    HW310982   1.562   1.249   4.589  0.4297 -0.2536 -1.1519
 2727SOL    MW410983   1.502   1.303   4.556  0.1025 -0.1378 -0.3724
 2728SOL     OW10984   1.236   1.801   4.577  0.0580 -0.3646  0.0535
 2728SOL    HW210985   1.258   1.731   4.638  2.2425  1.6072  1.6555
 2728SOL    HW310986   1.303   1.796   4.509 -0.5302 -0.5918 -0.5199
 2728SOL    MW410987   1.247   1.791   4.576  0.2687 -0.1346  0.1888
 2729SOL     OW10988   1.498   2.735   4.692  0.3600 -0.3313  0.3526
 2729SOL    HW210989   1.505   2.710   4.784  0.4938 -3.6195 -0.4782
 2729SOL    HW310990   1.589   2.743   4.662  0.3246 -0.2190  0.2765
 2729SOL    MW410991   1.511   2.732   4.700  0.3730 -0.7503  0.2327
 2730SOL     OW10992   1.848   2.519   4.601  0.0442 -0.1927  0.2438
 2730SOL    HW210993   1.813   2.608   4.603  0.6204  0.0176  2.5789
 2730SOL    HW310994   1.939   2.530   4.573 -0.4735 -0.2875 -1.5325
 2730SOL    MW410995   1.856   2.533   4.598  0.0520 -0.1776  0.3176
 2731SOL     OW10996   0.818   2.542   4.484 -0.0790  0.1645 -0.0963
 2731SOL    HW210997   0.890   2.564   4.543  0.1928 -0.2229 -0.2845
 2731SOL    HW310998   0.860   2.504   4.407 -0.3306  1.9818 -1.1592
 2731SOL    MW410999   0.833   2.540   4.482 -0.0762  0.3529 -0.2618
 2732SOL     OW11000   1.297   3.967   4.564 -0.0390 -0.4062  0.0496
 2732SOL    HW211001   1.290   3.872   4.576 -0.8034 -0.2033  1.3504
 2732SOL    HW311002   1.386   3.989   4.592  0.3270 -0.8029 -0.7815
 2732SOL    MW411003   1.308   3.958   4.569 -0.0914 -0.4315  0.1116
 2733SOL     OW11004   1.343   2.534   4.533 -0.3453  0.1455 -0.0773
 2733SOL    HW211005   1.363   2.534   4.440 -1.7531  1.4446 -0.4002
 2733SOL    HW311006   1.388   2.611   4.567 -0.0691 -0.1664  0.2738
 2733SOL    MW411007   1.352   2.544   4.526 -0.4946  0.2759 -0.0739
 2734SOL     OW11008   2.090   2.579   4.506  0.2086  0.4474 -0.4494
 2734SOL    HW211009   2.069   2.672   4.516  0.7853  0.5330  0.0180
 2734SOL    HW311010   2.175   2.569   4.548  0.0502 -0.3395 -0.3005
 2734SOL    MW411011   2.099   2.590   4.513  0.2637  0.3548 -0.3676
 2735SOL     OW11012   1.418   3.201   4.582 -0.0666  0.2882 -0.2965
 2735SOL    HW211013   1.502   3.188   4.539  0.2364  0.8144  0.1275
 2735SOL    HW311014   1.379   3.114   4.586  0.4228  0.0544 -0.5653
 2735SOL    MW411015   1.424   3.188   4.577  0.0379  0.3269 -0.2766
 2736SOL     OW11016   1.272   3.689   4.521  0.3246  0.1730  0.1195
 2736SOL    HW211017   1.352   3.636   4.516  0.2384  0.0544  0.0085
 2736SOL    HW311018   1.227   3.673   4.439  0.3696  0.5343  0.0204
 2736SOL    MW411019   1.277   3.680   4.510  0.3191  0.2048  0.0916
 2737SOL     OW11020   0.759   3.496   4.596 -0.4889  0.0501  0.0785
 2737SOL    HW211021   0.728   3.586   4.590  0.5300  0.4372  0.4822
 2737SOL    HW311022   0.851   3.501   4.571 -0.7051 -1.0606 -0.9906
 2737SOL    MW411023   0.767   3.508   4.592 -0.3831 -0.0455 -0.0095
 2738SOL     OW11024   1.953   3.568   4.496  0.0848 -0.0899 -0.5210
 2738SOL    HW211025   1.986   3.577   4.407  3.3608  1.0986  0.7478
 2738SOL    HW311026   1.951   3.473   4.511  0.2120 -0.2659 -1.5694
 2738SOL    MW411027   1.957   3.557   4.486  0.5338  0.0434 -0.4916
 2739SOL     OW11028   1.711   3.235   4.495 -0.0712 -0.0355  0.4261
 2739SOL    HW211029   1.798   3.257   4.528 -0.4221  0.1544  1.2236
 2739SOL    HW311030   1.712   3.267   4.404  0.3597  0.8313  0.7256
 2739SOL    MW411031   1.723   3.242   4.487 -0.0606  0.1037  0.5713
 2740SOL     OW11032   2.513   3.302   4.246 -0.2430 -0.3870  0.0199
 2740SOL    HW211033   2.534   3.238   4.314  1.5292  0.5662  0.3903
 2740SOL    HW311034   2.549   3.384   4.278 -1.8549  0.6687 -0.7942
 2740SOL    MW411035   2.520   3.304   4.259 -0.2220 -0.1218 -0.0381
 2741SOL     OW11036   1.142   4.176   4.667 -0.1554 -0.0310 -0.4376
 2741SOL    HW211037   1.062   4.134   4.700  0.0039 -0.4468 -0.5814
 2741SOL    HW311038   1.200   4.103   4.645  0.6415  0.2732  0.5850
 2741SOL    MW411039   1.139   4.161   4.669 -0.0292 -0.0458 -0.3214
 2742SOL     OW11040   1.714   4.374   4.701  0.2122 -0.0180 -0.1875
 2742SOL    HW211041   1.777   4.319   4.654 -0.3006 -1.0889  0.3633
 2742SOL    HW311042   1.691   4.323   4.779 -0.1864  1.0302  0.3879
 2742SOL    MW411043   1.719   4.360   4.705  0.0920 -0.0205 -0.0381
 2743SOL     OW11044   2.276   0.409   4.647 -0.2299 -0.0246  0.0468
 2743SOL    HW211045   2.348   0.455   4.605 -1.1169  1.2961 -0.0764
 2743SOL    HW311046   2.288   0.427   4.741 -0.3216  0.0806  0.0382
 2743SOL    MW411047   2.287   0.418   4.654 -0.3591  0.1635  0.0291
 2744SOL     OW11048   1.367   0.108   4.512  0.2200  0.2823 -0.1864
 2744SOL    HW211049   1.300   0.165   4.550  1.1060  1.9031 -1.0060
 2744SOL    HW311050   1.348   0.022   4.548 -0.1407  1.3998  2.4208
 2744SOL    MW411051   1.356   0.104   4.522  0.2893  0.6436  0.0491
 2745SOL     OW11052   1.775   0.397   4.620 -0.0668 -0.2484  0.1691
 2745SOL    HW211053   1.757   0.314   4.575  0.1454 -0.7209  0.9494
 2745SOL    HW311054   1.700   0.452   4.599  0.9588  0.2381 -2.4177
 2745SOL    MW411055   1.763   0.393   4.611  0.0966 -0.2465 -0.0691
 2746SOL     OW11056   2.393   0.141   4.521  0.2519  0.0357 -0.4188
 2746SOL    HW211057   2.340   0.140   4.441  1.2888 -1.1451 -1.1097
 2746SOL    HW311058   2.346   0.200   4.580 -1.6804 -0.7501 -1.1230
 2746SOL    MW411059   2.379   0.149   4.518  0.1340 -0.2238 -0.6022
 2747SOL     OW11060   1.991   0.804   4.637  0.0350 -0.3175  0.1431
 2747SOL    HW211061   1.997   0.713   4.608 -1.9094 -0.5006  0.2374
 2747SOL    HW311062   1.913   0.838   4.592 -0.2933  0.7613  1.5069
 2747SOL    MW411063   1.982   0.796   4.627 -0.2648 -0.1993  0.3357
 2748SOL     OW11064   1.593   0.600   4.517  0.3802  0.0220  0.1280
 2748SOL    HW211065   1.651   0.677   4.519  0.6467 -0.1495 -0.8814
 2748SOL    HW311066   1.506   0.635   4.535  0.6004  0.4614  0.3543
 2748SOL    MW411067   1.589   0.615   4.520  0.4445  0.0573  0.0248
 2749SOL     OW11068   2.026   1.888   4.578 -0.1522 -0.2701 -0.0070
 2749SOL    HW211069   2.055   1.971   4.542 -0.3469 -0.4346 -0.5606
 2749SOL    HW311070   1.930   1.896   4.581 -0.0824  0.0836  1.3327
 2749SOL    MW411071   2.017   1.900   4.574 -0.1686 -0.2451  0.0968
 2750SOL     OW11072   1.092   2.036   4.596 -0.0137 -0.3547 -0.0959
 2750SOL    HW211073   1.157   1.966   4.602  1.5098  1.0099 -0.2540
 2750SOL    HW311074   1.144   2.116   4.588 -1.6656  0.9917  1.9396
 2750SOL    MW411075   1.107   2.038   4.596 -0.0306  0.0029  0.1516
 2751SOL     OW11076   1.571   1.583   4.661 -0.4068 -0.2383  0.4455
 2751SOL    HW211077   1.528   1.506   4.624 -0.8131 -0.5080  1.4654
 2751SOL    HW311078   1.623   1.549   4.735 -0.5326  0.4509  0.8594
 2751SOL    MW411079   1.572   1.568   4.666 -0.4771 -0.1830  0.6347
 2752SOL     OW11080   1.510   2.001   4.527 -0.2318 -0.1175  0.1741
 2752SOL    HW211081   1.518   2.028   4.618 -3.4811 -0.9829  0.7836
 2752SOL    HW311082   1.571   1.928   4.518  1.3656  1.0657  1.1631
 2752SOL    MW411083   1.519   1.995   4.538 -0.4499 -0.0756  0.3853
 2753SOL     OW11084   1.723   1.802   4.523 -0.2699  0.6932 -0.0302
 2753SOL    HW211085   1.696   1.718   4.560 -1.4365  1.4925  0.9301
 2753SOL    HW311086   1.766   1.778   4.440 -0.9394 -0.8190  0.0394
 2753SOL    MW411087   1.725   1.788   4.517 -0.5121  0.5993  0.1054
 2754SOL     OW11088   2.075   2.176   4.523 -0.4066 -0.6892 -0.2057
 2754SOL    HW211089   2.010   2.246   4.532  0.6181  0.3365 -0.6537
 2754SOL    HW311090   2.071   2.151   4.431 -1.1272 -1.5700  0.0654
 2754SOL    MW411091   2.066   2.182   4.512 -0.3664 -0.6697 -0.2289
 2755SOL     OW11092   1.722   2.332   4.421  0.1267  0.1761  0.1404
 2755SOL    HW211093   1.723   2.396   4.350 -1.3550 -0.0700 -0.1124
 2755SOL    HW311094   1.744   2.382   4.499 -0.7565  0.9520 -0.1005
 2755SOL    MW411095   1.725   2.347   4.422 -0.1854  0.2458  0.0753
 2756SOL     OW11096   2.464   2.353   4.774 -0.1851  0.6010  0.0311
 2756SOL    HW211097   2.538   2.295   4.790  1.3147  2.0100 -1.5556
 2756SOL    HW311098   2.427   2.323   4.691 -0.7870  0.5254  0.3238
 2756SOL    MW411099   2.468   2.342   4.765 -0.0668  0.7770 -0.1397
 2757SOL     OW11100   2.338   2.584   4.641 -0.0824 -0.0158 -0.3032
 2757SOL    HW211101   2.387   2.664   4.662  1.5171 -0.7413 -1.1721
 2757SOL    HW311102   2.354   2.526   4.715 -0.6420  0.1867 -0.0180
 2757SOL    MW411103   2.347   2.587   4.653  0.0548 -0.0846 -0.3800
 2758SOL     OW11104   1.531   4.089   4.645 -0.1432 -0.4758 -0.8657
 2758SOL    HW211105   1.517   4.174   4.603  1.9769 -0.5094 -1.6996
 2758SOL    HW311106   1.514   4.105   4.738 -0.2798  0.7220 -1.0858
 2758SOL    MW411107   1.527   4.103   4.651  0.1186 -0.3223 -1.0052
 2759SOL     OW11108   1.993   3.274   4.591  0.1371 -0.6758 -0.4911
 2759SOL    HW211109   2.063   3.265   4.527  0.3731 -0.9130 -0.1989
 2759SOL    HW311110   2.037   3.303   4.671 -0.0316 -1.2607 -0.1814
 2759SOL    MW411111   2.008   3.277   4.594  0.1459 -0.7842 -0.4115
 2760SOL     OW11112   2.169   3.358   4.788 -0.1461 -0.3240 -0.1239
 2760SOL    HW211113   2.194   3.445   4.818 -0.6451 -0.2628  0.1079
 2760SOL    HW311114   2.247   3.325   4.742  0.2776 -0.0309  0.3849
 2760SOL    MW411115   2.183   3.365   4.786 -0.1562 -0.2770 -0.0262
 2761SOL     OW11116   2.399   3.761   4.476  0.1441 -0.3199 -0.1178
 2761SOL    HW211117   2.384   3.671   4.448  0.2100 -0.6420  0.8566
 2761SOL    HW311118   2.359   3.815   4.408  0.5362 -1.0782 -0.9585
 2761SOL    MW411119   2.392   3.756   4.463  0.2048 -0.4625 -0.0997
 2762SOL     OW11120   2.101   3.792   4.639  0.3374  0.2436  0.0169
 2762SOL    HW211121   2.030   3.854   4.659 -0.4388  0.0869 -2.1019
 2762SOL    HW311122   2.061   3.729   4.579  1.5276 -1.4939  1.0256
 2762SOL    MW411123   2.086   3.792   4.634  0.3922 -0.0062 -0.1297
 2763SOL     OW11124   2.317   4.018   4.581  0.0126  0.1633  0.1713
 2763SOL    HW211125   2.283   3.931   4.604 -0.7386  0.3830 -0.0829
 2763SOL    HW311126   2.314   4.019   4.485 -1.5411  1.0743  0.2151
 2763SOL    MW411127   2.312   4.006   4.571 -0.2916  0.3128  0.1435
 2764SOL     OW11128   1.786   3.939   4.571  0.3372  0.1935 -0.1022
 2764SOL    HW211129   1.703   3.984   4.583 -0.1571 -0.7060 -0.1193
 2764SOL    HW311130   1.801   3.942   4.476 -0.1569 -0.5024 -0.2009
 2764SOL    MW411131   1.777   3.945   4.560  0.2068 -0.0169 -0.1173
 2765SOL     OW11132   1.900   4.214   4.562 -0.2608 -0.1789 -0.3792
 2765SOL    HW211133   1.869   4.125   4.573  0.3080 -0.2528  0.6005
 2765SOL    HW311134   1.992   4.212   4.589 -0.0360  0.5398 -1.0599
 2765SOL    MW411135   1.908   4.202   4.567 -0.1560 -0.0944 -0.3395
 2766SOL     OW11136   1.831   4.608   4.580 -0.3841 -0.1823  0.1928
 2766SOL    HW211137   1.917   4.568   4.567  0.1808  0.8230  0.7977
 2766SOL    HW311138   1.781   4.543   4.629 -0.3502 -1.2399 -1.1468
 2766SOL    MW411139   1.836   4.594   4.585 -0.3051 -0.1898  0.0958
 2767SOL     OW11140   2.089   4.477   4.547 -0.0933  0.2454  0.0748
 2767SOL    HW211141   2.082   4.394   4.593  1.8826 -0.5832 -1.0204
 2767SOL    HW311142   2.182   4.500   4.553 -0.4253  1.8381 -0.5562
 2767SOL    MW411143   2.100   4.469   4.554  0.1233  0.3462 -0.1535
 2768SOL     OW11144   2.371   4.526   4.528 -0.2534  0.3485 -0.1020
 2768SOL    HW211145   2.403   4.485   4.447 -0.2141 -0.9052  0.5354
 2768SOL    HW311146   2.412   4.613   4.528 -0.3175  0.3946 -1.4642
 2768SOL    MW411147   2.381   4.532   4.517 -0.2568  0.1893 -0.1969
 2769SOL     OW11148   1.291   1.598   4.734  0.1133 -0.0052 -0.2252
 2769SOL    HW211149   1.387   1.596   4.733  0.1127  0.1885 -1.1475
 2769SOL    HW311150   1.266   1.506   4.744  0.3932 -0.1825 -1.0876
 2769SOL    MW411151   1.301   1.585   4.735  0.1502 -0.0030 -0.4611
 2770SOL     OW11152   2.669   0.153   4.503 -0.5323 -0.5925  0.2479
 2770SOL    HW211153   2.577   0.158   4.526 -0.3215  1.3947  0.7196
 2770SOL    HW311154   2.672   0.178   4.410  0.0031  4.0121  1.4104
 2770SOL    MW411155   2.657   0.157   4.494 -0.4337  0.2772  0.4640
 2771SOL     OW11156   2.502   0.838   4.605 -0.5029  0.3577  0.2730
 2771SOL    HW211157   2.413   0.869   4.589 -0.3773  0.7216  0.2756
 2771SOL    HW311158   2.558   0.915   4.590 -0.0930 -0.1333 -0.7741
 2771SOL    MW411159   2.498   0.852   4.601 -0.4323  0.3409  0.1349
 2772SOL     OW11160   2.962   1.145   4.552  0.2582  0.2965 -0.4166
 2772SOL    HW211161   2.977   1.223   4.604  0.0023 -0.1587  0.3509
 2772SOL    HW311162   3.047   1.102   4.545  0.3567  0.5286 -0.6640
 2772SOL    MW411163   2.975   1.150   4.558  0.2377  0.2670 -0.3486
 2773SOL     OW11164   2.251   1.424   4.660  0.3576  0.1367  0.3213
 2773SOL    HW211165   2.258   1.517   4.636  2.2187  0.2646  1.2919
 2773SOL    HW311166   2.335   1.387   4.634 -1.2164 -1.8204 -2.2058
 2773SOL    MW411167   2.263   1.432   4.653  0.3953 -0.1045  0.1159
 2774SOL     OW11168   2.513   1.349   4.550  0.0876  0.0052  0.1682
 2774SOL    HW211169   2.545   1.273   4.598 -0.9056 -0.8373 -0.4830
 2774SOL    HW311170   2.586   1.411   4.551  0.7368 -0.7688  1.1108
 2774SOL    MW411171   2.527   1.347   4.556  0.0422 -0.2080  0.2069
 2775SOL     OW11172   2.772   1.773   4.660 -0.2381 -0.3537 -0.0932
 2775SOL    HW211173   2.800   1.822   4.583  1.1673  0.7770  1.1004
 2775SOL    HW311174   2.690   1.814   4.687  1.0751  1.5529  1.0642
 2775SOL    MW411175   2.765   1.785   4.654  0.1204  0.0470  0.2174
 2776SOL     OW11176   2.272   1.701   4.574  0.1742 -0.1070 -0.3595
 2776SOL    HW211177   2.339   1.755   4.614  1.1763 -1.1989 -0.5510
 2776SOL    HW311178   2.190   1.746   4.594  0.9954  1.5741 -0.6637
 2776SOL    MW411179   2.270   1.714   4.582  0.4148 -0.0292 -0.4249
 2777SOL     OW11180   2.486   1.877   4.648 -0.3102 -0.0191  0.0372
 2777SOL    HW211181   2.522   1.935   4.582 -1.6246  1.0939  0.2753
 2777SOL    HW311182   2.440   1.935   4.709 -0.5034 -1.1726  1.0180
 2777SOL    MW411183   2.484   1.892   4.648 -0.5093 -0.0244  0.1979
 2778SOL     OW11184   2.358   2.262   4.543 -0.4416 -0.0695  0.1079
 2778SOL    HW211185   2.264   2.246   4.553 -0.5212  0.9775  1.1094
 2778SOL    HW311186   2.364   2.339   4.487 -0.1508 -0.7466 -0.8079
 2778SOL    MW411187   2.346   2.270   4.537 -0.4137 -0.0205  0.1192
 2779SOL     OW11188   2.660   2.850   4.248  0.2366 -0.7242  0.2255
 2779SOL    HW211189   2.645   2.854   4.342  0.4455 -0.0605  0.2274
 2779SOL    HW311190   2.715   2.925   4.228  0.1572 -0.8325 -0.4369
 2779SOL    MW411191   2.665   2.860   4.257  0.2539 -0.6509  0.1388
 2780SOL     OW11192   1.979   2.968   4.718  0.0156 -0.0487  0.1669
 2780SOL    HW211193   1.949   3.055   4.691 -0.6165 -0.3389 -0.0906
 2780SOL    HW311194   2.074   2.974   4.718  0.0418  0.0857 -1.7496
 2780SOL    MW411195   1.987   2.980   4.714 -0.0644 -0.0694 -0.1197
 2781SOL     OW11196   2.038   2.853   4.462  0.1765 -0.3934 -0.1229
 2781SOL    HW211197   2.107   2.917   4.446 -0.2948 -0.3352 -2.0463
 2781SOL    HW311198   2.006   2.873   4.549  0.8483  1.2138 -0.2323
 2781SOL    MW411199   2.043   2.864   4.471  0.2029 -0.1738 -0.3915
 2782SOL     OW11200   2.255   3.007   4.678 -0.2043  0.0708  0.4346
 2782SOL    HW211201   2.323   2.941   4.683  0.0763  0.3448  0.2769
 2782SOL    HW311202   2.300   3.089   4.699 -0.2377  0.4184 -0.8382
 2782SOL    MW411203   2.270   3.009   4.682 -0.1717  0.1526  0.2460
 2783SOL     OW11204   3.045   3.279   4.557 -0.0377  0.1596 -0.2058
 2783SOL    HW211205   2.967   3.332   4.577  1.2750  2.1767 -0.2820
 2783SOL    HW311206   3.014   3.189   4.561 -1.8688  0.8330  2.0258
 2783SOL    MW411207   3.030   3.274   4.560 -0.1061  0.5147  0.0792
 2784SOL     OW11208   1.327   4.310   4.832 -0.5134  0.0263  0.0397
 2784SOL    HW211209   1.323   4.390   4.781  1.0662  0.2432  0.2477
 2784SOL    HW311210   1.265   4.251   4.789 -0.4807  0.7916 -1.0640
 2784SOL    MW411211   1.318   4.313   4.820 -0.3008  0.1559 -0.0787
 2785SOL     OW11212   2.786   4.182   4.491  0.3388  0.2870  0.4297
 2785SOL    HW211213   2.705   4.174   4.541  0.1624  1.1311  0.2899
 2785SOL    HW311214   2.763   4.153   4.403 -0.3080  2.3019 -0.0880
 2785SOL    MW411215   2.773   4.177   4.486  0.2301  0.6633  0.3424
 2786SOL     OW11216   2.243   3.625   4.839 -0.0149 -0.4149 -0.4010
 2786SOL    HW211217   2.334   3.651   4.825  0.5145 -0.8265  1.9754
 2786SOL    HW311218   2.191   3.691   4.794  1.4542 -0.2799 -1.9312
 2786SOL    MW411219   2.248   3.637   4.831  0.2487 -0.4513 -0.2890
 2787SOL     OW11220   3.481   3.938   4.801 -0.0389 -0.2636  0.5546
 2787SOL    HW211221   3.410   4.002   4.791  0.1803 -0.0672  0.2560
 2787SOL    HW311222   3.438   3.853   4.788 -0.2749 -0.1626  0.6659
 2787SOL    MW411223   3.466   3.935   4.798 -0.0412 -0.2244  0.5298
 2788SOL     OW11224   2.570   4.124   4.654 -0.2145 -0.1732 -0.3502
 2788SOL    HW211225   2.620   4.061   4.708 -1.2284 -0.1389  0.6548
 2788SOL    HW311226   2.485   4.082   4.643 -1.1641  1.3492  0.9762
 2788SOL    MW411227   2.566   4.110   4.660 -0.4740  0.0324 -0.0424
 2789SOL     OW11228   2.386   4.348   4.756  0.9266  0.5640  0.7038
 2789SOL    HW211229   2.405   4.408   4.684  0.5849 -0.2281 -0.0644
 2789SOL    HW311230   2.446   4.275   4.742  0.0628 -0.1239  0.5498
 2789SOL    MW411231   2.396   4.346   4.745  0.7677  0.3691  0.5822
 2790SOL     OW11232   2.151   4.226   4.675 -0.1111 -0.1538 -0.0307
 2790SOL    HW211233   2.203   4.159   4.631  0.2086 -0.4846  0.8355
 2790SOL    HW311234   2.215   4.277   4.725 -0.5536 -0.2810  0.6760
 2790SOL    MW411235   2.166   4.224   4.676 -0.1273 -0.2141  0.1769
 2791SOL     OW11236   3.011   0.422   4.554  0.3761  0.1538  0.1819
 2791SOL    HW211237   2.974   0.480   4.488 -1.2233  1.1166  1.8669
 2791SOL    HW311238   3.103   0.449   4.562 -0.6751  3.5225  1.9608
 2791SOL    MW411239   3.018   0.433   4.547  0.0262  0.7253  0.6394
 2792SOL     OW11240   2.882   4.637   4.480  0.2514 -0.0154  0.0761
 2792SOL    HW211241   2.955   4.698   4.488 -0.9000  1.5245 -0.8538
 2792SOL    HW311242   2.805   4.689   4.502 -0.5016 -1.8722  2.0251
 2792SOL    MW411243   2.881   4.652   4.484  0.0002 -0.0572  0.2103
 2793SOL     OW11244   3.075   0.140   4.532  0.1997  0.0838  0.2415
 2793SOL    HW211245   3.047   0.231   4.541 -2.3017 -0.7632  1.2931
 2793SOL    HW311246   3.113   0.118   4.617  0.3392 -0.0309  0.1504
 2793SOL    MW411247   3.076   0.149   4.545 -0.1118 -0.0431  0.3681
 2794SOL     OW11248   2.663   1.063   4.529 -0.0456 -0.0512 -0.3043
 2794SOL    HW211249   2.758   1.076   4.534  0.1117 -1.3710  0.4880
 2794SOL    HW311250   2.648   1.035   4.439  0.4001 -0.4958 -0.2431
 2794SOL    MW411251   2.674   1.061   4.518  0.0339 -0.2840 -0.1917
 2795SOL     OW11252   3.536   0.644   4.777 -0.0146  0.8960  0.4780
 2795SOL    HW211253   3.625   0.675   4.760 -0.3344  0.9449 -1.2347
 2795SOL    HW311254   3.540   0.550   4.757 -0.8137  1.2776 -1.5861
 2795SOL    MW411255   3.548   0.635   4.772 -0.1621  0.9528 -0.0205
 2796SOL     OW11256   2.202   0.965   4.530  0.2179 -0.6750  0.5015
 2796SOL    HW211257   2.169   1.054   4.542  0.5537 -0.6004  0.8748
 2796SOL    HW311258   2.138   0.910   4.576  0.4983 -0.5492  1.0409
 2796SOL    MW411259   2.189   0.969   4.538  0.2990 -0.6486  0.6227
 2797SOL     OW11260   3.044   1.722   4.728  0.6066  0.1736 -0.1682
 2797SOL    HW211261   3.048   1.789   4.796 -1.7104  0.0236  0.1745
 2797SOL    HW311262   2.953   1.725   4.697  0.4664 -2.7309 -0.2070
 2797SOL    MW411263   3.033   1.731   4.733  0.2828 -0.2295 -0.1283
 2798SOL     OW11264   3.012   1.495   4.452 -0.1869 -0.0548  0.2054
 2798SOL    HW211265   2.931   1.502   4.502 -1.0863 -0.4939 -1.1662
 2798SOL    HW311266   2.997   1.422   4.393  1.2606 -0.2078  0.0094
 2798SOL    MW411267   3.000   1.486   4.451 -0.1144 -0.1328 -0.0014
 2799SOL     OW11268   3.119   1.836   4.476 -0.0551  0.4486  0.1578
 2799SOL    HW211269   3.032   1.870   4.454  0.3300  1.2018 -0.2324
 2799SOL    HW311270   3.115   1.819   4.570 -1.0302 -0.7442 -0.0899
 2799SOL    MW411271   3.107   1.838   4.486 -0.1330  0.3905  0.0734
 2800SOL     OW11272   2.832   1.904   4.425  0.0658 -0.1755  0.1364
 2800SOL    HW211273   2.802   1.990   4.395 -0.5494 -0.4690 -0.1053
 2800SOL    HW311274   2.784   1.841   4.371  1.4794 -0.6622 -0.5819
 2800SOL    MW411275   2.821   1.907   4.414  0.1709 -0.2785  0.0091
 2801SOL     OW11276   2.549   2.087   4.488  0.7270 -0.7477 -0.2884
 2801SOL    HW211277   2.479   2.151   4.505  0.2960 -1.2420 -0.1707
 2801SOL    HW311278   2.622   2.115   4.543  0.6740 -0.1363 -0.5303
 2801SOL    MW411279   2.549   2.099   4.498  0.6630 -0.7319 -0.3047
 2802SOL     OW11280   2.677   2.414   4.261  0.3523  0.2990  0.2516
 2802SOL    HW211281   2.744   2.457   4.208  0.2805 -0.5510 -0.5552
 2802SOL    HW311282   2.621   2.369   4.197 -0.6586  0.5392  0.9486
 2802SOL    MW411283   2.678   2.414   4.245  0.2093  0.2186  0.2375
 2803SOL     OW11284   3.244   2.402   4.559 -0.5620 -0.1616  0.1704
 2803SOL    HW211285   3.180   2.473   4.570  0.0537  0.4348 -0.0499
 2803SOL    HW311286   3.192   2.327   4.530 -1.0598  0.5564 -0.8491
 2803SOL    MW411287   3.229   2.402   4.556 -0.5467  0.0119  0.0067
 2804SOL     OW11288   2.420   2.457   4.381 -0.4082 -0.0011 -0.0513
 2804SOL    HW211289   2.418   2.519   4.454 -0.2274  0.0052 -0.0516
 2804SOL    HW311290   2.513   2.450   4.358 -0.5456  0.5908 -0.7881
 2804SOL    MW411291   2.432   2.464   4.387 -0.4025  0.0780 -0.1488
 2805SOL     OW11292   2.680   3.781   4.490  0.0246  0.2948 -0.1930
 2805SOL    HW211293   2.585   3.775   4.481 -0.1382 -0.2514  1.7688
 2805SOL    HW311294   2.710   3.690   4.491  0.3948  0.4225  0.8601
 2805SOL    MW411295   2.671   3.768   4.489  0.0520  0.2394  0.2050
 2806SOL     OW11296   2.346   3.485   4.517 -0.0103 -0.0227  0.1648
 2806SOL    HW211297   2.309   3.517   4.599 -0.1866 -1.0936  0.5190
 2806SOL    HW311298   2.435   3.458   4.540  0.1601  0.2728 -0.1415
 2806SOL    MW411299   2.353   3.486   4.531 -0.0112 -0.1249  0.1707
 2807SOL     OW11300   3.092   2.948   4.362  0.4657  0.6641  0.0854
 2807SOL    HW211301   3.009   2.968   4.405  1.2378  0.6903  1.6172
 2807SOL    HW311302   3.121   3.032   4.327  0.9020  1.1113  1.4773
 2807SOL    MW411303   3.085   2.962   4.363  0.6251  0.7265  0.4711
 2808SOL     OW11304   2.408   3.245   4.694  0.0027  0.0956 -0.3301
 2808SOL    HW211305   2.434   3.222   4.605 -0.4394 -0.1609 -0.3979
 2808SOL    HW311306   2.471   3.311   4.721  0.7863 -0.5990 -0.4389
 2808SOL    MW411307   2.420   3.251   4.686  0.0479 -0.0298 -0.3538
 2809SOL     OW11308   2.713   3.892   4.732 -0.1870  0.0562  0.2629
 2809SOL    HW211309   2.727   3.868   4.641  0.9411  0.6379  0.2750
 2809SOL    HW311310   2.650   3.828   4.765 -1.1482  0.2785 -1.1136
 2809SOL    MW411311   2.707   3.881   4.724 -0.1650  0.1624  0.0825
 2810SOL     OW11312   3.407   3.880   4.411 -0.1316 -0.0632 -0.0739
 2810SOL    HW211313   3.495   3.845   4.407  0.0535  0.5547 -2.1562
 2810SOL    HW311314   3.380   3.870   4.502  2.0699 -0.2693  0.5602
 2810SOL    MW411315   3.415   3.874   4.422  0.1833 -0.0088 -0.2651
 2811SOL     OW11316   3.877   3.891   4.560  0.3800  0.1871 -0.1198
 2811SOL    HW211317   3.878   3.853   4.647  2.2602 -1.6603 -0.9305
 2811SOL    HW311318   3.819   3.834   4.509 -0.4993  1.1075 -0.1910
 2811SOL    MW411319   3.869   3.879   4.565  0.5121  0.0651 -0.2365
 2812SOL     OW11320   2.917   3.390   4.316  0.1803  0.0010  0.2363
 2812SOL    HW211321   2.834   3.416   4.356  0.7806 -0.5212  1.8539
 2812SOL    HW311322   2.949   3.319   4.371  0.8189 -1.0675 -1.4553
 2812SOL    MW411323   2.910   3.384   4.328  0.3438 -0.2089  0.2265
 2813SOL     OW11324   3.001   4.026   4.575  0.3800  0.0813 -0.1518
 2813SOL    HW211325   2.919   4.074   4.566  0.8273  0.3242 -3.4977
 2813SOL    HW311326   2.975   3.934   4.582 -0.2618  0.3487  0.9582
 2813SOL    MW411327   2.987   4.020   4.575  0.3543  0.1483 -0.4468
 2814SOL     OW11328   2.977   4.384   4.485  0.1952  0.5821  0.1623
 2814SOL    HW211329   2.906   4.320   4.496 -0.7337  1.5223 -0.2325
 2814SOL    HW311330   2.934   4.469   4.497  1.1942  1.1807 -0.4350
 2814SOL    MW411331   2.962   4.386   4.488  0.2043  0.7858  0.0319
 2815SOL     OW11332   3.288   0.540   4.539 -0.1303  0.3833 -0.2348
 2815SOL    HW211333   3.310   0.561   4.448 -0.2472  0.8040 -0.1696
 2815SOL    HW311334   3.299   0.622   4.586 -0.6314  0.3067  0.0247
 2815SOL    MW411335   3.292   0.553   4.533 -0.2117  0.4287 -0.1922
 2816SOL     OW11336   2.506   0.555   4.557 -0.0864 -0.3726 -0.0964
 2816SOL    HW211337   2.590   0.516   4.583 -0.2361 -0.2487  0.5763
 2816SOL    HW311338   2.512   0.646   4.587 -0.1862 -0.1735 -0.6691
 2816SOL    MW411339   2.518   0.562   4.564 -0.1194 -0.3300 -0.0830
 2817SOL     OW11340   1.998   0.972   4.856 -0.4633  0.4962 -0.3868
 2817SOL    HW211341   1.985   0.901   4.793 -1.3513 -0.3362  0.7184
 2817SOL    HW311342   2.090   0.964   4.883 -0.4419  0.0437 -0.5933
 2817SOL    MW411343   2.009   0.962   4.851 -0.5777  0.3266 -0.2685
 2818SOL     OW11344   2.752   0.399   4.651  0.7115 -0.5970 -0.1803
 2818SOL    HW211345   2.749   0.318   4.599  0.8240 -1.7933  1.6137
 2818SOL    HW311346   2.842   0.430   4.642  0.9603 -1.2630 -0.0280
 2818SOL    MW411347   2.763   0.392   4.643  0.7591 -0.8428  0.0763
 2819SOL     OW11348   3.417   0.834   4.587 -0.6533 -0.1548 -0.0089
 2819SOL    HW211349   3.491   0.845   4.528 -1.7550 -0.4930 -1.4996
 2819SOL    HW311350   3.450   0.779   4.658  0.2685 -1.0526 -1.1176
 2819SOL    MW411351   3.431   0.828   4.588 -0.6771 -0.3179 -0.3524
 2820SOL     OW11352   3.398   1.266   4.483 -0.3916  0.4648 -0.2617
 2820SOL    HW211353   3.359   1.332   4.541 -1.1506  0.0599 -0.3123
 2820SOL    HW311354   3.483   1.248   4.522 -0.6598  0.6259  0.3997
 2820SOL    MW411355   3.404   1.272   4.496 -0.5271  0.4328 -0.1807
 2821SOL     OW11356   2.730   1.542   4.495  0.2825  0.1330  0.3086
 2821SOL    HW211357   2.717   1.606   4.565 -0.0282  0.8050 -0.3565
 2821SOL    HW311358   2.727   1.593   4.414 -0.2294 -0.7505 -0.2438
 2821SOL    MW411359   2.728   1.557   4.494  0.1738  0.1050  0.1473
 2822SOL     OW11360   3.999   0.906   4.762  0.0123  0.0748 -0.1592
 2822SOL    HW211361   3.947   0.981   4.788  0.5114  0.2187  0.4488
 2822SOL    HW311362   4.063   0.941   4.699 -0.2724  0.0027 -0.4895
 2822SOL    MW411363   4.001   0.920   4.757  0.0405  0.0842 -0.1221
 2823SOL     OW11364   3.385   1.726   4.457 -0.3683 -0.1324 -0.0326
 2823SOL    HW211365   3.356   1.652   4.510  0.3429 -0.2515  0.2025
 2823SOL    HW311366   3.312   1.787   4.458 -0.4821 -0.2842  0.8189
 2823SOL    MW411367   3.372   1.724   4.464 -0.2897 -0.1682  0.1106
 2824SOL     OW11368   3.201   2.118   4.460  0.1956  0.4027  0.2190
 2824SOL    HW211369   3.177   2.026   4.470 -0.1259  0.4276 -0.3346
 2824SOL    HW311370   3.232   2.126   4.370  2.9776  0.2211  1.1155
 2824SOL    MW411371   3.202   2.107   4.450  0.5207  0.3822  0.2637
 2825SOL     OW11372   3.497   2.287   4.784  0.3430  0.0088  0.3545
 2825SOL    HW211373   3.495   2.379   4.807 -0.4661  0.1875 -0.3979
 2825SOL    HW311374   3.578   2.254   4.824 -0.5132  0.5122  2.5528
 2825SOL    MW411375   3.508   2.295   4.792  0.1233  0.0987  0.5450
 2826SOL     OW11376   3.719   2.062   4.607  0.3161  0.1483 -0.2918
 2826SOL    HW211377   3.625   2.077   4.596  0.1648 -0.7209 -0.1604
 2826SOL    HW311378   3.744   2.122   4.678 -0.3156 -0.2902  0.3040
 2826SOL    MW411379   3.710   2.072   4.615  0.2127 -0.0241 -0.1960
 2827SOL     OW11380   2.536   3.137   4.460 -0.2491 -0.0109 -0.0224
 2827SOL    HW211381   2.602   3.202   4.485 -0.6886  1.5817 -2.7870
 2827SOL    HW311382   2.574   3.054   4.487  1.2285  1.2101  1.8045
 2827SOL    MW411383   2.550   3.135   4.467 -0.1121  0.3605 -0.1459
 2828SOL     OW11384   3.679   3.024   4.837  0.2453  0.3010 -0.0112
 2828SOL    HW211385   3.740   3.097   4.849  0.5403  0.0690 -0.1007
 2828SOL    HW311386   3.632   3.046   4.757  1.8177 -0.6471 -1.2320
 2828SOL    MW411387   3.681   3.037   4.828  0.4919  0.1452 -0.1841
 2829SOL     OW11388   3.552   2.599   4.768 -0.0981 -0.0139  0.1868
 2829SOL    HW211389   3.588   2.581   4.681 -1.4661  0.6151 -0.5142
 2829SOL    HW311390   3.490   2.671   4.755 -0.1372  0.2557  1.7249
 2829SOL    MW411391   3.549   2.606   4.755 -0.2840  0.1047  0.2966
 2830SOL     OW11392   3.557   3.083   4.607  0.1731 -0.0878 -0.2909
 2830SOL    HW211393   3.491   3.136   4.651 -0.0228 -0.0768 -0.5963
 2830SOL    HW311394   3.507   3.023   4.552  0.4366  0.4872 -1.1626
 2830SOL    MW411395   3.542   3.082   4.606  0.1822 -0.0103 -0.4463
 2831SOL     OW11396   3.293   3.323   4.450  0.6804  0.1433 -0.8692
 2831SOL    HW211397   3.217   3.308   4.506  1.3099  0.0049 -0.0411
 2831SOL    HW311398   3.290   3.252   4.386  0.7946 -0.5706 -0.0935
 2831SOL    MW411399   3.282   3.312   4.449  0.7787  0.0310 -0.6576
 2832SOL     OW11400   3.512   2.945   4.344  0.2887  0.4144 -0.3286
 2832SOL    HW211401   3.436   2.907   4.389  1.2713 -0.3442  0.7413
 2832SOL    HW311402   3.487   2.947   4.252  0.2067 -2.9064 -0.4449
 2832SOL    MW411403   3.498   2.940   4.338  0.4077 -0.1237 -0.2031
 2833SOL     OW11404   4.144   2.459   4.499 -0.1371  0.2943  0.4353
 2833SOL    HW211405   4.050   2.447   4.511 -0.1168 -0.9277 -0.5865
 2833SOL    HW311406   4.154   2.553   4.486 -1.1886  0.4663  0.7894
 2833SOL    MW411407   4.133   2.470   4.499 -0.2732  0.1559  0.3476
 2834SOL     OW11408   3.708   3.273   4.482 -0.1698 -0.1291  0.0820
 2834SOL    HW211409   3.681   3.259   4.391  0.1357 -0.3566  0.0255
 2834SOL    HW311410   3.672   3.198   4.529  0.7326 -0.6705 -0.0705
 2834SOL    MW411411   3.699   3.261   4.476 -0.0103 -0.2308  0.0544
 2835SOL     OW11412   3.498   4.167   4.493 -0.0870  0.5146  0.0462
 2835SOL    HW211413   3.581   4.145   4.537 -1.1294 -2.0458  0.8179
 2835SOL    HW311414   3.432   4.116   4.540 -1.5927 -0.4177 -2.9661
 2835SOL    MW411415   3.500   4.157   4.505 -0.4232  0.0534 -0.2494
 2836SOL     OW11416   3.259   4.118   4.646 -0.1434 -0.2699  0.0192
 2836SOL    HW211417   3.232   4.207   4.666  0.2537 -0.3263  0.8284
 2836SOL    HW311418   3.177   4.073   4.623 -0.0443  0.9335 -2.9558
 2836SOL    MW411419   3.244   4.123   4.646 -0.0780 -0.1187 -0.2666
 2837SOL     OW11420   3.187   4.403   4.671 -0.6955  0.1935  0.3214
 2837SOL    HW211421   3.257   4.403   4.606 -0.1241 -1.3438  0.9177
 2837SOL    HW311422   3.107   4.402   4.619 -0.2449 -1.0294 -0.3883
 2837SOL    MW411423   3.186   4.403   4.655 -0.5608 -0.1707  0.3061
 2838SOL     OW11424   3.406   4.413   4.487 -0.2182  0.2887 -0.4576
 2838SOL    HW211425   3.457   4.332   4.480 -0.0155  0.5071 -1.5870
 2838SOL    HW311426   3.464   4.473   4.534  0.4534  0.4312 -1.4446
 2838SOL    MW411427   3.420   4.410   4.493 -0.1030  0.3366 -0.7367
 2839SOL     OW11428   3.705   4.087   4.662 -0.2329  0.0136 -0.5627
 2839SOL    HW211429   3.762   4.031   4.610 -1.0775 -0.2728 -1.1951
 2839SOL    HW311430   3.649   4.027   4.712 -0.3844  0.2859 -0.3981
 2839SOL    MW411431   3.705   4.072   4.662 -0.3645  0.0119 -0.6242
 2840SOL     OW11432   3.413   0.140   4.759 -0.3911 -0.6681  0.2010
 2840SOL    HW211433   3.425   0.165   4.851 -0.0118  0.1753 -0.0661
 2840SOL    HW311434   3.326   0.102   4.755 -0.4612 -0.5807  0.8863
 2840SOL    MW411435   3.403   0.139   4.770 -0.3502 -0.5453  0.2556
 2841SOL     OW11436   3.225   1.041   4.496  0.3262 -0.8315 -0.3945
 2841SOL    HW211437   3.291   1.110   4.490  0.2561 -0.7528 -0.2723
 2841SOL    HW311438   3.274   0.963   4.521  0.4643 -0.9196 -0.9325
 2841SOL    MW411439   3.240   1.040   4.499  0.3352 -0.8329 -0.4497
 2842SOL     OW11440   3.254   1.540   4.613  0.1263 -0.2106 -0.0216
 2842SOL    HW211441   3.215   1.596   4.680 -0.1951 -2.4643  1.7018
 2842SOL    HW311442   3.179   1.508   4.562  0.1779 -0.3659  0.0006
 2842SOL    MW411443   3.239   1.544   4.615  0.0906 -0.5283  0.2089
 2843SOL     OW11444   4.032   1.541   4.528  0.1281  0.3144 -0.1676
 2843SOL    HW211445   4.081   1.460   4.514  0.2377  0.0423  1.6695
 2843SOL    HW311446   3.963   1.517   4.589 -0.9943  1.1898 -1.0907
 2843SOL    MW411447   4.030   1.527   4.534 -0.0052  0.3941 -0.0467
 2844SOL     OW11448   3.676   1.197   4.513  0.2631  0.4600  0.0730
 2844SOL    HW211449   3.715   1.211   4.427  0.6435 -0.2946  0.1204
 2844SOL    HW311450   3.751   1.185   4.572 -0.0188 -1.8646  0.0186
 2844SOL    MW411451   3.691   1.197   4.509  0.2759  0.0539  0.0720
 2845SOL     OW11452   4.148   0.984   4.515  0.0533  0.5415  0.2669
 2845SOL    HW211453   4.228   0.933   4.509 -0.3178  0.1600 -1.4744
 2845SOL    HW311454   4.097   0.959   4.438 -1.8190  0.6392  1.4434
 2845SOL    MW411455   4.152   0.974   4.504 -0.2427  0.5041  0.1922
 2846SOL     OW11456   4.264   0.402   4.498  0.3533 -0.3460 -0.2989
 2846SOL    HW211457   4.171   0.379   4.500  0.3583 -0.3729 -0.3587
 2846SOL    HW311458   4.283   0.417   4.405 -0.0670  1.5993 -0.0951
 2846SOL    MW411459   4.254   0.401   4.486  0.2980 -0.0929 -0.2799
 2847SOL     OW11460   3.628   1.729   4.637 -0.2418  0.8810  0.1326
 2847SOL    HW211461   3.669   1.815   4.644  0.4200  0.5960 -0.2312
 2847SOL    HW311462   3.543   1.746   4.596 -0.8779  1.5860  1.7074
 2847SOL    MW411463   3.622   1.743   4.633 -0.2382  0.9364  0.2918
 2848SOL     OW11464   3.814   2.277   4.801 -0.3372 -0.0633  0.3652
 2848SOL    HW211465   3.830   2.331   4.724 -1.0368 -1.9409 -1.1230
 2848SOL    HW311466   3.902   2.255   4.833 -0.0293  0.0238 -0.4041
 2848SOL    MW411467   3.828   2.281   4.795 -0.3889 -0.2995  0.0672
 2849SOL     OW11468   3.450   2.125   4.567  0.2548 -0.5093 -0.2940
 2849SOL    HW211469   3.363   2.121   4.528  0.4083 -0.2351 -0.6659
 2849SOL    HW311470   3.441   2.185   4.641  0.1178 -0.5168 -0.3053
 2849SOL    MW411471   3.437   2.132   4.572  0.2568 -0.4742 -0.3448
 2850SOL     OW11472   4.095   2.020   4.622 -0.2856  0.0242 -0.3351
 2850SOL    HW211473   4.153   2.081   4.577  0.8908 -0.9674 -0.1851
 2850SOL    HW311474   4.075   2.062   4.706  0.5158  0.1978 -0.2321
 2850SOL    MW411475   4.100   2.034   4.627 -0.0248 -0.0837 -0.3014
 2851SOL     OW11476   4.441   1.897   4.431 -0.2047 -0.3107 -0.2516
 2851SOL    HW211477   4.400   1.959   4.370 -0.0034  0.9147  0.8267
 2851SOL    HW311478   4.369   1.864   4.484  0.1255  1.9539  1.7423
 2851SOL    MW411479   4.426   1.901   4.430 -0.1345  0.1497  0.1535
 2852SOL     OW11480   3.854   2.372   4.524 -0.3329  0.2858  0.1125
 2852SOL    HW211481   3.838   2.305   4.457  0.8001  0.7585 -0.6487
 2852SOL    HW311482   3.779   2.431   4.517  1.0401  1.7612 -2.5171
 2852SOL    MW411483   3.842   2.371   4.514 -0.0021  0.5429 -0.3347
 2853SOL     OW11484   3.780   2.807   4.709 -0.2109 -0.0648 -0.2315
 2853SOL    HW211485   3.747   2.887   4.752 -0.0016 -0.8423  1.4209
 2853SOL    HW311486   3.731   2.736   4.751  0.9134 -0.9426 -0.3962
 2853SOL    MW411487   3.769   2.808   4.720 -0.0348 -0.2832 -0.0348
 2854SOL     OW11488   3.752   2.794   4.378 -0.2206 -0.3687 -0.1362
 2854SOL    HW211489   3.793   2.825   4.459 -1.0671 -2.8068  1.2998
 2854SOL    HW311490   3.667   2.839   4.376 -0.4621 -0.7704  0.6808
 2854SOL    MW411491   3.746   2.804   4.389 -0.3643 -0.7436  0.1612
 2855SOL     OW11492   4.063   2.903   4.613 -0.1286  0.3932 -0.4298
 2855SOL    HW211493   3.981   2.865   4.646 -0.2455  1.0793  0.0966
 2855SOL    HW311494   4.110   2.829   4.575 -1.0601  0.0100 -0.8817
 2855SOL    MW411495   4.058   2.888   4.612 -0.2670  0.4330 -0.4201
 2856SOL     OW11496   3.510   3.498   4.479 -0.1735 -0.1004 -0.1282
 2856SOL    HW211497   3.431   3.446   4.495 -0.2682  0.2173  0.4572
 2856SOL    HW311498   3.582   3.435   4.486 -0.3531 -0.3295 -0.3462
 2856SOL    MW411499   3.509   3.483   4.482 -0.2093 -0.0887 -0.0801
 2857SOL     OW11500   3.993   3.518   4.751  0.4992  0.2892 -0.1160
 2857SOL    HW211501   4.049   3.455   4.795  0.4354  0.9919  0.9908
 2857SOL    HW311502   3.996   3.492   4.659  0.9308 -0.9648  0.2407
 2857SOL    MW411503   4.001   3.506   4.745  0.5474  0.2165  0.0772
 2858SOL     OW11504   3.667   3.740   4.467  0.4233  0.4152  0.2806
 2858SOL    HW211505   3.708   3.708   4.387  0.6257 -0.2550  0.6471
 2858SOL    HW311506   3.631   3.661   4.509 -0.6361  0.9046  0.2996
 2858SOL    MW411507   3.668   3.725   4.462  0.3102  0.3915  0.3314
 2859SOL     OW11508   3.982   3.331   4.516 -0.1585  0.0403 -0.3986
 2859SOL    HW211509   4.016   3.327   4.427  0.7354 -1.8298 -0.0115
 2859SOL    HW311510   3.890   3.307   4.508 -0.3231  0.8439 -0.9341
 2859SOL    MW411511   3.974   3.327   4.504 -0.0620 -0.1006 -0.4182
 2860SOL     OW11512   4.443   2.959   4.568 -0.0951  0.4980  0.4092
 2860SOL    HW211513   4.357   2.971   4.526 -0.0291 -1.4738 -0.3472
 2860SOL    HW311514   4.482   3.046   4.568 -1.6722  1.2227 -0.2115
 2860SOL    MW411515   4.437   2.972   4.562 -0.2947  0.3333  0.2275
 2861SOL     OW11516   4.124   4.006   4.502 -0.7632 -0.3323 -0.2391
 2861SOL    HW211517   4.125   4.085   4.556  1.5917  0.0609 -0.7888
 2861SOL    HW311518   4.040   3.965   4.521 -1.2285  1.3322  1.4726
 2861SOL    MW411519   4.113   4.011   4.512 -0.5140 -0.0610 -0.0858
 2862SOL     OW11520   3.806   4.505   4.529 -0.1771  0.0888 -0.1588
 2862SOL    HW211521   3.789   4.454   4.450 -0.9345 -0.6705  0.4758
 2862SOL    HW311522   3.720   4.535   4.557  0.1405  0.7457  0.1167
 2862SOL    MW411523   3.793   4.502   4.523 -0.2351  0.0753 -0.0386
 2863SOL     OW11524   3.174   4.665   4.767 -0.1427  0.0243 -0.2216
 2863SOL    HW211525   3.191   4.581   4.723  0.5298 -0.5917  1.1786
 2863SOL    HW311526   3.101   4.647   4.825  1.6510 -0.3217  2.0086
 2863SOL    MW411527   3.167   4.651   4.769  0.1826 -0.1030  0.2575
 2864SOL     OW11528   3.667   0.910   4.473  0.1817 -0.0249 -0.3223
 2864SOL    HW211529   3.662   1.005   4.487  1.1969 -0.1439  0.9094
 2864SOL    HW311530   3.640   0.898   4.382  0.3316  1.4795 -0.5748
 2864SOL    MW411531   3.663   0.921   4.463  0.3352  0.1579 -0.1926
 2865SOL     OW11532   3.791   0.733   4.639  0.3106  0.0635 -0.1749
 2865SOL    HW211533   3.876   0.759   4.676  0.2804  1.5561 -1.0984
 2865SOL    HW311534   3.765   0.807   4.584 -0.5026 -1.3646 -1.7648
 2865SOL    MW411535   3.798   0.747   4.637  0.1991  0.0720 -0.5064
 2866SOL     OW11536   4.425   0.580   4.657  0.2987 -0.0283 -0.0379
 2866SOL    HW211537   4.354   0.531   4.616 -0.7696  0.7843  0.8245
 2866SOL    HW311538   4.490   0.513   4.680 -0.3764 -0.8253 -0.4377
 2866SOL    MW411539   4.424   0.565   4.654  0.0687 -0.0262  0.0234
 2867SOL     OW11540   0.296   0.781   4.586  0.3204 -0.1293 -0.3685
 2867SOL    HW211541   0.283   0.688   4.605 -1.0460  0.5040  1.9238
 2867SOL    HW311542   0.218   0.807   4.537 -0.0426  0.1377  0.3307
 2867SOL    MW411543   0.284   0.772   4.582  0.0922 -0.0106  0.0257
 2868SOL     OW11544   3.992   0.314   4.472  0.1270  0.3112  0.2786
 2868SOL    HW211545   3.981   0.222   4.494  0.0864  0.1592 -0.3624
 2868SOL    HW311546   3.905   0.352   4.482  0.1982  0.3413  0.8049
 2868SOL    MW411547   3.979   0.307   4.476  0.1311  0.2951  0.2632
 2869SOL     OW11548   3.777   1.466   4.634 -0.4441  0.0616  0.4957
 2869SOL    HW211549   3.709   1.417   4.587 -0.7401  1.8653 -1.0350
 2869SOL    HW311550   3.739   1.554   4.645  1.5942  1.0611 -0.2653
 2869SOL    MW411551   3.763   1.471   4.630 -0.2143  0.4314  0.1936
 2870SOL     OW11552   4.460   1.321   4.519 -0.0461 -0.0203 -0.2404
 2870SOL    HW211553   4.531   1.382   4.502  0.3542 -0.3356  0.2541
 2870SOL    HW311554   4.503   1.245   4.558 -0.7143 -0.0051  0.5503
 2870SOL    MW411555   4.475   1.319   4.522 -0.0815 -0.0600 -0.0710
 2871SOL     OW11556   0.262   1.634   4.667 -0.0093  0.3972  0.0334
 2871SOL    HW211557   0.197   1.664   4.731 -1.4174  1.4831 -1.8458
 2871SOL    HW311558   0.322   1.708   4.658  0.3355  0.1489  0.2755
 2871SOL    MW411559   0.261   1.648   4.675 -0.1495  0.5077 -0.1826
 2872SOL     OW11560   4.229   1.768   4.584 -0.0830  0.1905  0.4963
 2872SOL    HW211561   4.163   1.698   4.579 -0.3134  0.5031 -1.7951
 2872SOL    HW311562   4.182   1.844   4.618 -0.5210 -0.0493  0.4265
 2872SOL    MW411563   4.214   1.769   4.588 -0.1712  0.2000  0.1850
 2873SOL     OW11564   2.485   3.681   4.730 -0.5783 -0.7892 -0.2130
 2873SOL    HW211565   2.464   3.723   4.647 -0.2754  0.0906  0.1518
 2873SOL    HW311566   2.545   3.611   4.707 -0.8451 -0.8310 -0.7876
 2873SOL    MW411567   2.490   3.677   4.716 -0.5736 -0.6785 -0.2408
 2874SOL     OW11568   4.289   2.059   4.256  0.7800 -0.0388  0.3636
 2874SOL    HW211569   4.198   2.027   4.250  0.4329  0.9083  0.5074
 2874SOL    HW311570   4.287   2.122   4.327  1.5594 -0.0099  0.3573
 2874SOL    MW411571   4.277   2.063   4.264  0.8373  0.0899  0.3819
 2875SOL     OW11572   4.285   2.197   4.482 -0.1321  0.2628 -0.2157
 2875SOL    HW211573   4.371   2.214   4.519  0.4638 -1.0348 -0.9555
 2875SOL    HW311574   4.240   2.282   4.484  1.2854  1.0227 -0.1751
 2875SOL    MW411575   4.290   2.210   4.488  0.1335  0.1917 -0.3080
 2876SOL     OW11576   3.908   2.122   4.399 -0.0150 -0.0321  0.3274
 2876SOL    HW211577   3.977   2.093   4.460  0.4759  0.2010 -0.1146
 2876SOL    HW311578   3.827   2.094   4.441  0.3903 -1.0601  0.4473
 2876SOL    MW411579   3.907   2.114   4.413  0.1030 -0.1371  0.2847
 2877SOL     OW11580   3.639   2.546   4.505 -0.5467 -0.2580 -0.0595
 2877SOL    HW211581   3.553   2.536   4.465 -1.3840  2.6047  0.9172
 2877SOL    HW311582   3.673   2.628   4.469  0.6998 -0.1082  1.4169
 2877SOL    MW411583   3.632   2.556   4.495 -0.4930  0.1395  0.2637
 2878SOL     OW11584   4.464   2.469   4.795  0.2089 -0.2822 -0.5078
 2878SOL    HW211585   4.467   2.538   4.729 -2.7404  2.5987  2.1660
 2878SOL    HW311586   4.525   2.498   4.863 -0.7648 -0.4754  0.4584
 2878SOL    MW411587   4.472   2.482   4.795 -0.3087  0.0725 -0.0272
 2879SOL     OW11588   4.212   2.719   4.468 -0.0659 -0.1829 -0.6866
 2879SOL    HW211589   4.287   2.705   4.526 -1.1822 -1.2651  0.5378
 2879SOL    HW311590   4.249   2.758   4.390  1.2871  2.6387  1.2917
 2879SOL    MW411591   4.226   2.722   4.466 -0.0348  0.0465 -0.2642
 2880SOL     OW11592   4.166   3.155   4.638  0.3695 -0.5864  0.1477
 2880SOL    HW211593   4.101   3.205   4.589  1.5030  0.2500 -0.5206
 2880SOL    HW311594   4.126   3.069   4.649 -0.7041 -0.1960 -0.5574
 2880SOL    MW411595   4.152   3.150   4.633  0.3767 -0.4246 -0.0334
 2881SOL     OW11596   0.180   3.754   4.539 -0.3507 -0.1610 -0.5967
 2881SOL    HW211597   0.192   3.712   4.454 -0.0254  0.5973 -0.9344
 2881SOL    HW311598   0.114   3.700   4.583 -0.5255 -0.5597 -1.3312
 2881SOL    MW411599   0.173   3.742   4.533 -0.3308 -0.1135 -0.7386
 2882SOL     OW11600   4.164   4.203   4.687  0.3133 -0.0558  0.0072
 2882SOL    HW211601   4.199   4.140   4.751 -0.2530 -0.9731 -0.5659
 2882SOL    HW311602   4.079   4.229   4.723  0.3942  0.1139  0.0744
 2882SOL    MW411603   4.158   4.198   4.700  0.2489 -0.1545 -0.0591
 2883SOL     OW11604   3.561   4.638   4.552 -0.0453 -0.2970  0.1067
 2883SOL    HW211605   3.535   4.698   4.621  0.6167 -0.6371  0.6534
 2883SOL    HW311606   3.586   4.695   4.479  2.7406  0.1926  1.3759
 2883SOL    MW411607   3.561   4.653   4.551  0.4096 -0.2775  0.3462
 2884SOL     OW11608   4.174   3.361   4.851 -0.1189  0.1732  0.1389
 2884SOL    HW211609   4.169   3.270   4.823 -2.7167  0.3605 -0.1472
 2884SOL    HW311610   4.245   3.398   4.799 -0.3081 -1.2107 -1.1477
 2884SOL    MW411611   4.183   3.354   4.840 -0.4869  0.0153 -0.0687
 2885SOL     OW11612   3.493   0.378   4.598 -0.2130 -0.0390 -0.2811
 2885SOL    HW211613   3.415   0.425   4.569  0.3735 -0.0034 -1.8617
 2885SOL    HW311614   3.460   0.305   4.649 -1.3030 -0.1225 -1.0866
 2885SOL    MW411615   3.479   0.375   4.601 -0.2792 -0.0453 -0.5956
 2886SOL     OW11616   4.319   4.367   4.278 -0.0131 -0.1212 -0.5189
 2886SOL    HW211617   4.401   4.327   4.248  0.6020  1.4820 -1.0439
 2886SOL    HW311618   4.329   4.372   4.373  0.7273  0.5549 -0.6294
 2886SOL    MW411619   4.331   4.362   4.286  0.1659  0.1798 -0.6032
 2887NA      NA11620   4.438   3.584   0.464  0.3505  0.2207 -0.1238
 2888NA      NA11621   3.245   0.825   0.323  0.1255  0.0464  0.5797
 2889NA      NA11622   1.869   2.592   0.636  0.3858  0.3148 -0.5137
   4.49070   4.66690  10.00000
