Gromacs Runs On Most of All Computer Systems in water
97
    1RU5    O5'    1   3.094   2.632   4.624  0.1668  0.1061  0.7586
    1RU5    H5T    2   3.085   2.702   4.689  0.9231 -0.6419  1.6829
    1RU5    C5'    3   2.999   2.649   4.520 -0.6417 -0.5831 -0.5522
    1RU5   H5'1    4   3.035   2.600   4.430  1.3165  0.7672 -0.5410
    1RU5   H5'2    5   2.995   2.755   4.495 -1.1642 -0.4009  0.2551
    1RU5    C4'    6   2.854   2.595   4.548 -0.6603  0.3164 -0.1503
    1RU5    H4'    7   2.787   2.617   4.465  0.3337  2.3116 -0.4547
    1RU5    O4'    8   2.870   2.450   4.559  0.1131 -0.6950 -0.1994
    1RU5    C1'    9   2.804   2.405   4.673 -0.0965 -0.0826 -0.5579
    1RU5    H1'   10   2.699   2.390   4.648 -0.7124  2.7930  0.0880
    1RU5     N1   11   2.869   2.285   4.722 -0.2115  0.4074  0.2446
    1RU5     C6   12   3.000   2.293   4.766 -0.1142  0.2565 -0.0900
    1RU5     H6   13   3.066   2.374   4.741  1.1696 -0.8325 -0.2712
    1RU5     C5   14   3.062   2.180   4.813 -0.5469  0.7173  0.3673
    1RU5     H5   15   3.168   2.177   4.831 -0.2450 -0.5138 -1.4946
    1RU5     C4   16   2.997   2.053   4.826  0.1660  0.5254  0.1195
    1RU5     O4   17   3.050   1.951   4.862  0.1403 -0.0199  0.7774
    1RU5     N3   18   2.864   2.059   4.794  0.2511 -0.2326 -0.0918
    1RU5     H3   19   2.810   1.977   4.815 -0.9127  0.4583 -0.3462
    1RU5     C2   20   2.792   2.170   4.747 -0.5859 -0.6160 -0.0864
    1RU5     O2   21   2.670   2.163   4.726  0.5919  0.2538 -0.7567
    1RU5    C3'   22   2.795   2.645   4.679  0.1348 -0.8105  0.2625
    1RU5    H3'   23   2.856   2.730   4.711 -1.6403  1.1676 -1.5092
    1RU5    C2'   24   2.820   2.527   4.771 -0.1027  0.2580  0.0556
    1RU5   H2'1   25   2.924   2.528   4.804  0.1225 -2.3462 -0.4440
    1RU5    O2'   26   2.738   2.517   4.882 -0.0203 -0.0696  0.2732
    1RU5   HO'2   27   2.648   2.531   4.851  0.2958  1.0240 -0.1685
    1RU5    O3'   28   2.659   2.674   4.669 -0.0883 -0.5290 -0.0182
    2RG       P   29   2.605   2.826   4.644  0.0837 -0.1582 -0.1474
    2RG     O1P   30   2.457   2.822   4.674 -0.3430 -0.2724  0.5259
    2RG     O2P   31   2.651   2.874   4.514  0.1208  0.5034 -0.0703
    2RG     O5'   32   2.678   2.924   4.751  0.2270  0.1518  0.1253
    2RG     C5'   33   2.614   2.966   4.865 -0.2601  0.1179  0.2521
    2RG    H5'1   34   2.599   2.880   4.931 -1.8102  0.7765  0.7841
    2RG    H5'2   35   2.515   3.004   4.840 -0.6358 -0.4395  0.8671
    2RG     C4'   36   2.697   3.076   4.937  0.0306  0.0276 -0.7816
    2RG     H4'   37   2.632   3.122   5.012  2.7314  1.0538  0.9872
    2RG     O4'   38   2.811   3.025   5.007 -0.1926  0.0176 -0.3448
    2RG     C1'   39   2.927   3.104   4.982 -0.7974 -0.4130 -0.1418
    2RG     H1'   40   2.984   3.128   5.072  0.2905  0.0481 -0.9444
    2RG      N9   41   3.021   3.028   4.899  0.2017  0.4220 -0.0345
    2RG      C8   42   2.995   2.958   4.786  0.0786 -0.4198  0.0383
    2RG      H8   43   2.896   2.967   4.745 -0.9154 -2.6560  1.8316
    2RG      N7   44   3.099   2.889   4.740  0.3370 -0.2090  0.2207
    2RG      C5   45   3.206   2.929   4.824 -0.4696 -0.4816 -0.2208
    2RG      C6   46   3.348   2.904   4.833  0.3252  0.0851  0.2639
    2RG      O6   47   3.416   2.833   4.758  0.3958 -0.2824 -0.0788
    2RG      N1   48   3.419   2.980   4.927 -0.3253  0.4400  0.4694
    2RG      H1   49   3.515   2.997   4.899 -0.6770  0.8983 -0.4727
    2RG      C2   50   3.361   3.059   5.015 -0.6347 -0.5560  0.2839
    2RG      N2   51   3.429   3.114   5.111 -0.6456 -0.0219  0.1717
    2RG     H21   52   3.527   3.092   5.120 -0.3779  1.4487  1.0108
    2RG     H22   53   3.375   3.176   5.170 -1.8395 -0.6774 -0.2282
    2RG      N3   54   3.228   3.074   5.018 -0.1014  0.0639 -0.2472
    2RG      C4   55   3.154   3.012   4.923 -0.3144  0.5141 -0.3995
    2RG     C3'   56   2.746   3.197   4.850  0.4746  0.5107  0.1046
    2RG     H3'   57   2.761   3.181   4.743 -1.1490 -2.0639  0.2382
    2RG     C2'   58   2.884   3.236   4.912 -0.1138  0.5219  0.0992
    2RG    H2'1   59   2.952   3.270   4.834 -0.1357  0.0711 -0.1190
    2RG     O2'   60   2.863   3.328   5.019 -0.0542 -0.4917 -0.2175
    2RG    HO'2   61   2.774   3.359   5.000 -0.2683 -1.2148 -0.4350
    2RG     O3'   62   2.656   3.306   4.859 -0.7086 -0.1531 -0.6824
    3RG3      P   64   2.716   3.428   4.549  0.0358  0.4105 -0.0045
    3RG3    O1P   65   2.603   3.446   4.646 -0.1924  0.1774  0.4743
    3RG3    O2P   66   2.716   3.517   4.435  0.5514  0.3744 -0.5337
    3RG3    O5'   67   2.842   3.477   4.630  0.0498 -0.0348 -0.0966
    3RG3    C5'   68   2.850   3.582   4.720  0.5958  0.0503  0.5612
    3RG3   H5'1   69   2.827   3.548   4.820  2.8280  0.1610  1.1380
    3RG3   H5'2   70   2.784   3.662   4.688  0.7134  1.2040  3.1309
    3RG3    C4'   71   2.992   3.629   4.728  0.2485 -0.5509  0.3791
    3RG3    H4'   72   2.987   3.724   4.781 -0.4603 -0.2922 -0.1298
    3RG3    O4'   73   3.085   3.539   4.782  0.1063  0.3167  0.4520
    3RG3    C1'   74   3.214   3.594   4.756 -0.2503  0.1109 -0.0028
    3RG3    H1'   75   3.231   3.675   4.827 -0.7284 -2.2329  2.8871
    3RG3     N9   76   3.320   3.494   4.767  0.6551 -0.1217  0.1561
    3RG3     C8   77   3.306   3.354   4.760 -0.2764 -0.1938 -0.2576
    3RG3     H8   78   3.213   3.301   4.751 -0.0881 -0.4292 -0.8492
    3RG3     N7   79   3.420   3.292   4.763  0.3004 -0.4441  0.2958
    3RG3     C5   80   3.514   3.393   4.777 -0.1911 -0.2457  0.1488
    3RG3     C6   81   3.658   3.389   4.792 -0.1329 -0.4643 -0.2304
    3RG3     O6   82   3.732   3.293   4.786 -0.0079 -0.4194  0.3001
    3RG3     N1   83   3.713   3.517   4.817 -0.1894  0.3217 -0.3021
    3RG3     H1   84   3.813   3.527   4.821 -0.0272 -1.3873  0.0734
    3RG3     C2   85   3.642   3.627   4.814  0.5994 -0.8744 -0.1637
    3RG3     N2   86   3.707   3.740   4.844 -0.4751  0.1104  0.3043
    3RG3    H21   87   3.804   3.741   4.870  0.1135  0.4116 -1.8335
    3RG3    H22   88   3.646   3.820   4.839  0.1788  0.6511  0.9373
    3RG3     N3   89   3.513   3.634   4.796  0.6466 -0.0386 -0.0778
    3RG3     C4   90   3.454   3.515   4.780  0.1285  0.1265  0.7513
    3RG3    C3'   91   3.054   3.640   4.587 -0.2587  0.2927 -0.2458
    3RG3    H3'   92   3.057   3.549   4.528  0.9413 -0.6449  1.2297
    3RG3    C2'   93   3.205   3.663   4.619  0.1846  0.1395 -0.0733
    3RG3   H2'1   94   3.272   3.629   4.540  3.0671  0.9036  1.9831
    3RG3    O2'   95   3.217   3.805   4.638  0.2286  0.1241  0.2964
    3RG3   HO'2   96   3.142   3.830   4.583 -0.1821  1.4576  1.4307
    3RG3    O3'   97   3.004   3.752   4.521 -0.1268 -0.9208  0.0537
    3RG3    H3T   98   2.953   3.730   4.443  1.0626 -0.8822 -0.7532
    4.49070   4.66690  10.00000