Gromacs Runs On Most of All Computer Systems in water
11622
    1U      O5'    1   2.886   2.482   4.570  0.2712  0.5300  0.2155
    1U      H5T    2   2.933   2.560   4.599  1.6803  0.5672 -2.1351
    1U      C5'    3   2.791   2.532   4.475 -0.0704 -0.2251 -0.1601
    1U     H5'1    4   2.848   2.553   4.385  0.8987 -0.2265  0.4482
    1U     H5'2    5   2.742   2.622   4.511  1.6733  0.2369  1.1094
    1U      C4'    6   2.676   2.434   4.437  0.3373  0.9905 -0.0166
    1U      H4'    7   2.617   2.477   4.356  1.5816 -0.7166 -1.8943
    1U      O4'    8   2.729   2.313   4.385 -0.2981 -0.4948  0.7675
    1U      C1'    9   2.648   2.203   4.438 -0.1288 -0.2275 -0.1162
    1U      H1'   10   2.557   2.182   4.382 -1.0951  1.0420  0.9696
    1U       N1   11   2.728   2.078   4.455  0.2378 -0.7784 -0.3401
    1U       C6   12   2.859   2.089   4.496 -0.3303 -0.1266  0.3065
    1U       H6   13   2.907   2.185   4.507  1.9610 -1.0461 -1.2228
    1U       C5   14   2.932   1.979   4.513 -0.5413 -0.0916 -0.7596
    1U       H5   15   3.031   1.984   4.556 -1.2426  1.7775  0.6743
    1U       C4   16   2.879   1.850   4.504  0.1473 -0.6287 -0.1876
    1U       O4   17   2.928   1.743   4.532  0.0899  0.0704  0.3548
    1U       N3   18   2.743   1.841   4.469 -0.2649  0.0255  0.4904
    1U       H3   19   2.710   1.749   4.445  1.5952 -0.2935 -1.0312
    1U       C2   20   2.666   1.953   4.443 -0.2156 -0.2386  0.1355
    1U       O2   21   2.550   1.935   4.414  0.2262  0.3881 -0.1259
    1U      C3'   22   2.579   2.408   4.548 -0.1874 -0.7822  0.6028
    1U      H3'   23   2.609   2.467   4.635  0.0891  0.5088 -0.3601
    1U      C2'   24   2.604   2.257   4.578  0.3044 -0.5106  0.1734
    1U     H2'1   25   2.687   2.252   4.648  1.1647  0.2340 -0.7819
    1U      O2'   26   2.490   2.189   4.632 -0.0694 -0.0224 -0.3824
    1U     HO'2   27   2.472   2.206   4.724 -0.0805 -0.1160 -0.3674
    1U      O3'   28   2.448   2.431   4.514 -0.1166 -0.4157  0.5251
    2RG3      P   29   2.380   2.574   4.518 -0.0623  0.1481  0.2638
    2RG3    O1P   30   2.242   2.565   4.457  0.2302  0.6532 -0.0632
    2RG3    O2P   31   2.475   2.677   4.473  0.0926 -0.4726 -0.0949
    2RG3    O5'   32   2.362   2.609   4.676 -0.4029  0.2231 -0.3563
    2RG3    C5'   33   2.232   2.635   4.736 -0.7363 -0.1111 -0.6036
    2RG3   H5'1   34   2.177   2.541   4.741 -2.5186  0.9205 -0.6788
    2RG3   H5'2   35   2.180   2.707   4.673 -1.8653  0.0683  0.5331
    2RG3    C4'   36   2.233   2.703   4.874 -0.5642 -0.0683  0.1603
    2RG3    H4'   37   2.136   2.748   4.892 -0.7924 -0.0397 -1.0864
    2RG3    O4'   38   2.260   2.628   4.986 -0.1461  0.1809 -0.5560
    2RG3    C1'   39   2.401   2.622   5.006  0.3698  0.4197 -0.4393
    2RG3    H1'   40   2.421   2.620   5.113 -0.3556  0.1002 -0.3069
    2RG3     N9   41   2.449   2.494   4.951 -0.2129  0.1494  0.2260
    2RG3     C8   42   2.376   2.378   4.922  0.6902  0.1159  0.1329
    2RG3     H8   43   2.268   2.376   4.922  0.6739  0.7808 -0.9403
    2RG3     N7   44   2.451   2.272   4.891  0.4268 -0.4590  0.0436
    2RG3     C5   45   2.582   2.318   4.912  0.7567 -0.0702  0.1655
    2RG3     C6   46   2.705   2.251   4.894 -0.1585  0.0036 -0.0596
    2RG3     O6   47   2.718   2.132   4.858  0.0795 -0.4007  0.3454
    2RG3     N1   48   2.815   2.327   4.900  0.2721 -0.0898 -0.0089
    2RG3     H1   49   2.903   2.282   4.879  1.0545  1.2753  0.3087
    2RG3     C2   50   2.811   2.462   4.921 -0.0141 -0.4545  0.0586
    2RG3     N2   51   2.927   2.530   4.924  0.0248 -0.0651  0.4800
    2RG3    H21   52   3.011   2.480   4.895 -1.5114 -1.0803 -2.4566
    2RG3    H22   53   2.936   2.629   4.942 -0.3398  0.3948 -1.7485
    2RG3     N3   54   2.697   2.532   4.935 -0.0432  0.2935 -0.5563
    2RG3     C4   55   2.582   2.459   4.926  0.7222  0.1218 -0.2266
    2RG3    C3'   56   2.334   2.814   4.870  0.1206 -0.2620  0.0647
    2RG3    H3'   57   2.369   2.839   4.770 -1.6656  1.5100 -0.1742
    2RG3    C2'   58   2.452   2.747   4.940  0.0179 -0.3136  0.3334
    2RG3   H2'1   59   2.525   2.720   4.864  0.1405  0.1308  0.2897
    2RG3    O2'   60   2.516   2.833   5.030  0.2229  0.2453 -0.2312
    2RG3   HO'2   61   2.605   2.800   5.044  0.2493  0.2817 -0.3103
    2RG3    O3'   62   2.282   2.924   4.942  0.6059  0.2014 -0.0309
    2RG3    H3T   63   2.337   2.923   5.022  0.6354  3.3403  0.0521
    3RG35     P   64   3.298   2.833   4.586 -0.1462  0.0970 -0.0669
    3RG35   O1P   65   3.448   2.837   4.580 -0.0918  0.3820  0.2709
    3RG35   O2P   66   3.234   2.921   4.483  0.0081 -0.2344 -0.3901
    3RG35   O5'   67   3.274   2.686   4.542 -0.0076  0.0706  0.1399
    3RG35   C5'   68   3.332   2.642   4.418  0.5590  0.2839  0.1471
    3RG35  H5'1   69   3.438   2.668   4.421  0.7060 -0.4823  2.4506
    3RG35  H5'2   70   3.289   2.696   4.334  0.1821 -1.0441 -0.5228
    3RG35   C4'   71   3.312   2.495   4.392  0.1734  0.7445  0.5246
    3RG35   H4'   72   3.379   2.452   4.318  0.5739 -1.9060  2.3606
    3RG35   O4'   73   3.348   2.415   4.513  0.0779 -0.2995  0.2139
    3RG35   C1'   74   3.272   2.294   4.498 -0.3271  0.4413 -0.3103
    3RG35   H1'   75   3.337   2.215   4.462 -0.4107 -0.2545  1.0130
    3RG35    N9   76   3.219   2.257   4.630  0.2534  0.5591  0.2882
    3RG35    C8   77   3.131   2.324   4.706  0.1551 -0.1755 -0.5287
    3RG35    H8   78   3.101   2.428   4.697 -0.8023 -0.4982 -1.0890
    3RG35    N7   79   3.083   2.252   4.805 -0.1096 -0.1566  0.1991
    3RG35    C5   80   3.137   2.124   4.792 -0.0608  0.3395  0.4643
    3RG35    C6   81   3.115   2.005   4.863  0.8821 -0.0938  0.0046
    3RG35    O6   82   3.030   1.982   4.955 -0.3438  0.1697  0.0960
    3RG35    N1   83   3.186   1.898   4.811 -0.3518  0.0330 -0.4058
    3RG35    H1   84   3.185   1.809   4.857  1.0893 -0.0096 -0.4435
    3RG35    C2   85   3.273   1.909   4.710 -0.4394 -0.5397  1.0818
    3RG35    N2   86   3.330   1.796   4.672 -0.0667  0.2405  0.0983
    3RG35   H21   87   3.286   1.710   4.701  0.5175  0.1427  0.7005
    3RG35   H22   88   3.388   1.795   4.589  1.2134 -1.2575  0.9977
    3RG35    N3   89   3.301   2.020   4.642  0.4419  0.2120  0.1439
    3RG35    C4   90   3.234   2.126   4.692 -0.3678 -0.0597 -0.2477
    3RG35   C3'   91   3.165   2.470   4.359  0.3895 -0.1670  0.1963
    3RG35   H3'   92   3.095   2.529   4.419 -0.1826 -0.3143 -0.3165
    3RG35   C2'   93   3.160   2.320   4.401  0.4210  0.4403  0.4019
    3RG35  H2'1   94   3.064   2.304   4.449 -0.3198 -1.2364 -1.5777
    3RG35   O2'   95   3.186   2.235   4.294 -0.2472 -0.0944  0.2859
    3RG35  HO'2   96   3.244   2.276   4.230 -0.6608  0.1021  0.0345
    3RG35   O3'   97   3.133   2.464   4.220 -0.2518 -0.0336  0.3626
    3RG35   H3T   98   3.170   2.543   4.179 -1.3751  0.2741 -0.0939
    3RG35   O3P   99   3.238   2.844   4.723 -0.2354 -0.0891  0.0071
    7SOL     OW  100   0.308   4.607   0.620  0.3349  0.3528  0.1891
    7SOL    HW2  101   0.323   4.551   0.544 -0.4861  1.3222 -0.6882
    7SOL    HW3  102   0.226   4.574   0.658  0.4495  0.2319  0.3328
    7SOL    MW4  103   0.299   4.595   0.615  0.2417  0.4654  0.0923
    8SOL     OW  104   4.023   0.363   0.691 -0.4171  0.0924 -0.4350
    8SOL    HW2  105   3.973   0.394   0.767  0.4293  1.0994 -0.2663
    8SOL    HW3  106   4.104   0.415   0.693  0.4128 -1.1461 -0.9885
    8SOL    MW4  107   4.027   0.374   0.701 -0.1965  0.0618 -0.4857
    9SOL     OW  108   3.725   0.640   0.495 -0.0026  0.1186 -0.2007
    9SOL    HW2  109   3.788   0.567   0.498 -0.0416  0.1151  1.1377
    9SOL    HW3  110   3.640   0.598   0.507 -0.0339  0.3603  0.4624
    9SOL    MW4  111   3.722   0.625   0.497 -0.0119  0.1500  0.0634
   10SOL     OW  112   0.143   1.661   0.495 -0.4285 -0.1314  0.0695
   10SOL    HW2  113   0.113   1.648   0.585  1.0798 -0.3032  0.5613
   10SOL    HW3  114   0.064   1.685   0.446 -1.1477  0.6252  1.5721
   10SOL    MW4  115   0.129   1.663   0.500 -0.3244 -0.0544  0.3326
   11SOL     OW  116   1.409   0.984   0.483  0.4505  0.4974 -0.3370
   11SOL    HW2  117   1.403   0.953   0.574  1.0205  0.7905 -0.1998
   11SOL    HW3  118   1.342   1.052   0.476  0.5971  0.6719 -0.0542
   11SOL    MW4  119   1.399   0.989   0.494  0.5451  0.5591 -0.2816
   12SOL     OW  120   0.424   0.339   0.505  0.3733  0.0540  0.1681
   12SOL    HW2  121   0.400   0.415   0.452 -0.4012 -1.1421 -1.2201
   12SOL    HW3  122   0.394   0.362   0.594 -2.1722  0.3416 -0.7197
   12SOL    MW4  123   0.417   0.352   0.510 -0.0648 -0.0658 -0.1322
   13SOL     OW  124   0.533   0.794   0.461 -0.0148 -0.5433  0.1593
   13SOL    HW2  125   0.519   0.821   0.551  0.2712 -0.9570  0.3294
   13SOL    HW3  126   0.537   0.877   0.412 -1.0713 -0.3526  0.3854
   13SOL    MW4  127   0.532   0.809   0.466 -0.1164 -0.5727  0.2116
   14SOL     OW  128   0.744   0.626   0.368  0.0748  0.1231  0.3939
   14SOL    HW2  129   0.675   0.683   0.404 -0.1579 -0.3092  0.6479
   14SOL    HW3  130   0.820   0.684   0.357 -0.5625  0.7841 -0.6412
   14SOL    MW4  131   0.745   0.641   0.372 -0.0400  0.1532  0.2908
   15SOL     OW  132   0.914   0.975   0.218  0.2667  0.0450 -0.4188
   15SOL    HW2  133   0.940   0.920   0.292  1.2405  0.1419 -0.6900
   15SOL    HW3  134   0.881   0.913   0.153  0.3610 -0.1239 -0.3061
   15SOL    MW4  135   0.913   0.959   0.219  0.4076  0.0355 -0.4397
   16SOL     OW  136   0.163   1.394   0.451  0.6861  0.0597 -0.9846
   16SOL    HW2  137   0.137   1.486   0.451 -1.1001 -0.4361 -1.2740
   16SOL    HW3  138   0.090   1.348   0.410  1.9020 -1.4007 -1.5732
   16SOL    MW4  139   0.150   1.400   0.445  0.6109 -0.1982 -1.1005
   17SOL     OW  140   4.102   2.230   0.485 -0.5102 -0.5273  0.1780
   17SOL    HW2  141   4.080   2.286   0.560 -1.1003 -0.9712  0.3423
   17SOL    HW3  142   4.129   2.291   0.416 -1.2083 -0.0340  0.3345
   17SOL    MW4  143   4.103   2.246   0.486 -0.6804 -0.5209  0.2203
   18SOL     OW  144   0.168   1.955   0.497  0.0616  0.4230  0.2270
   18SOL    HW2  145   0.161   1.860   0.506  0.9981  0.3570  0.2721
   18SOL    HW3  146   0.085   1.981   0.456  0.0504 -0.4767 -0.3401
   18SOL    MW4  147   0.156   1.946   0.493  0.1837  0.2956  0.1581
   19SOL     OW  148   4.399   2.953   0.215  0.0530  0.3826  0.5778
   19SOL    HW2  149   4.486   2.989   0.236  0.9922 -1.0154 -0.8188
   19SOL    HW3  150   4.414   2.859   0.208 -1.3912  0.2449 -0.6709
   19SOL    MW4  151   4.413   2.946   0.217 -0.0134  0.1798  0.2288
   20SOL     OW  152   4.279   2.778   0.484  0.5963 -0.3034 -0.3103
   20SOL    HW2  153   4.199   2.754   0.438  0.1058 -1.2821  0.9993
   20SOL    HW3  154   4.350   2.743   0.430  0.0296 -1.5341 -0.2604
   20SOL    MW4  155   4.278   2.770   0.471  0.4568 -0.5949 -0.1310
   21SOL     OW  156   0.055   3.612   0.260 -0.5901 -0.0984 -0.3030
   21SOL    HW2  157   0.119   3.650   0.320 -0.4157  0.4628 -0.8373
   21SOL    HW3  158   0.009   3.688   0.223 -1.2655 -0.4769 -0.2542
   21SOL    MW4  159   0.057   3.627   0.263 -0.6562 -0.0746 -0.3670
   22SOL     OW  160   0.111   3.105   0.319 -0.4197  0.5474 -0.4327
   22SOL    HW2  161   0.204   3.096   0.341 -0.8980 -0.4584  1.2401
   22SOL    HW3  162   0.103   3.195   0.287  1.0946  0.6938 -0.4478
   22SOL    MW4  163   0.122   3.116   0.317 -0.2830  0.4337 -0.2140
   23SOL     OW  164   0.981   3.572   0.491  0.0571 -0.2798  0.2667
   23SOL    HW2  165   0.949   3.659   0.515 -0.1388  0.1470 -1.4689
   23SOL    HW3  166   0.902   3.519   0.482 -0.0176  0.1043 -1.4623
   23SOL    MW4  167   0.967   3.577   0.493  0.0214 -0.1729 -0.1903
   24SOL     OW  168   0.582   3.789   0.403 -0.1217 -0.1009  0.6733
   24SOL    HW2  169   0.671   3.794   0.437  1.3635  0.3902 -3.0755
   24SOL    HW3  170   0.550   3.879   0.406  0.2200  0.0366  0.2225
   24SOL    MW4  171   0.590   3.801   0.408  0.1193 -0.0181  0.1191
   25SOL     OW  172   4.292   3.387   0.012 -0.4445  0.2983 -0.1922
   25SOL    HW2  173   4.261   3.299   0.032 -0.7303  0.8619  1.9648
   25SOL    HW3  174   4.312   3.385  -0.082 -0.8018 -1.9363 -0.2393
   25SOL    MW4  175   4.290   3.375   0.002 -0.5293  0.0780  0.0868
   26SOL     OW  176   0.009   3.339   0.200  0.4331 -0.0287 -0.0353
   26SOL    HW2  177   0.064   3.412   0.172 -0.7312  1.2232  0.8812
   26SOL    HW3  178  -0.064   3.339   0.137 -0.2020  0.3801  0.6957
   26SOL    MW4  179   0.006   3.349   0.188  0.1957  0.1903  0.1820
   27SOL     OW  180   0.145   4.087   0.478 -0.5894  0.3020 -0.0978
   27SOL    HW2  181   0.095   4.137   0.542 -0.6358 -1.1244  1.0051
   27SOL    HW3  182   0.101   4.002   0.473  0.1415 -0.0380 -1.1013
   27SOL    MW4  183   0.133   4.082   0.486 -0.4991  0.0687 -0.0846
   28SOL     OW  184   4.416   4.037   0.297  0.0068 -0.1867 -0.6636
   28SOL    HW2  185   4.487   4.098   0.316 -0.2702 -0.2228  0.5302
   28SOL    HW3  186   4.337   4.081   0.329 -0.2785 -0.9127 -0.3537
   28SOL    MW4  187   4.415   4.051   0.303 -0.0677 -0.2871 -0.4652
   29SOL     OW  188   4.377   4.180   0.648 -0.2356 -0.2444 -0.0405
   29SOL    HW2  189   4.350   4.258   0.698 -0.5875 -0.8290  0.6909
   29SOL    HW3  190   4.307   4.167   0.584  0.0113  0.2590 -0.4216
   29SOL    MW4  191   4.365   4.189   0.646 -0.2494 -0.2556  0.0058
   30SOL     OW  192   0.426   4.027   0.497  0.2985  0.4437  0.1191
   30SOL    HW2  193   0.333   4.043   0.485  0.4463  0.7372 -0.6663
   30SOL    HW3  194   0.434   3.997   0.587 -0.7855 -1.3604 -0.3732
   30SOL    MW4  195   0.415   4.025   0.507  0.1750  0.2446 -0.0495
   31SOL     OW  196   0.921   0.170   0.483  0.2312 -0.4533  0.2306
   31SOL    HW2  197   0.858   0.242   0.474 -0.7405 -1.4299 -0.9366
   31SOL    HW3  198   0.916   0.145   0.575  0.4113  0.8199  0.5985
   31SOL    MW4  199   0.912   0.176   0.494  0.1267 -0.4142  0.1252
   32SOL     OW  200   0.076   4.562   0.765  0.4276  0.0789 -0.6821
   32SOL    HW2  201  -0.015   4.590   0.774  0.7222  1.0010 -0.4721
   32SOL    HW3  202   0.075   4.468   0.781 -0.4372  0.1527 -0.3223
   32SOL    MW4  203   0.064   4.554   0.768  0.3523  0.2103 -0.6070
   33SOL     OW  204   4.344   0.470   0.460 -0.1852  0.0503  0.2097
   33SOL    HW2  205   4.365   0.377   0.463 -1.0741 -0.1889 -0.4747
   33SOL    HW3  206   4.423   0.512   0.427 -0.7171 -0.8225 -2.3492
   33SOL    MW4  207   4.357   0.463   0.456 -0.3724 -0.0964 -0.2182
   34SOL     OW  208   1.044   4.329   0.462  0.1989  0.1638  0.3183
   34SOL    HW2  209   1.037   4.420   0.435 -0.7778  0.1280  0.4228
   34SOL    HW3  210   1.043   4.332   0.557 -0.0086  0.0338  0.3209
   34SOL    MW4  211   1.043   4.341   0.471  0.0427  0.1416  0.3324
   35SOL     OW  212   0.957   0.799   0.416  0.2169 -0.7093 -0.1634
   35SOL    HW2  213   0.928   0.804   0.507 -0.2833  0.1036 -0.3571
   35SOL    HW3  214   1.048   0.770   0.421  0.0694 -1.0355  0.5753
   35SOL    MW4  215   0.965   0.796   0.428  0.1314 -0.6450 -0.0914
   36SOL     OW  216   0.391   4.441   0.402  0.4244  0.2752  0.3494
   36SOL    HW2  217   0.364   4.419   0.313  2.1942 -0.6625  0.0226
   36SOL    HW3  218   0.464   4.381   0.420 -0.4478 -0.1160  2.7314
   36SOL    MW4  219   0.397   4.430   0.393  0.5428  0.0997  0.6205
   37SOL     OW  220   0.638   1.046   0.329  0.1663  0.0990  0.0252
   37SOL    HW2  221   0.657   1.126   0.378  0.6476 -0.1212  0.1989
   37SOL    HW3  222   0.722   1.020   0.291  0.3149 -1.0947  1.1256
   37SOL    MW4  223   0.651   1.053   0.330  0.2494 -0.0876  0.1933
   38SOL     OW  224   0.432   1.714   0.455  0.0664 -0.2748 -0.3955
   38SOL    HW2  225   0.501   1.661   0.417 -0.0729  0.2929 -1.4490
   38SOL    HW3  226   0.351   1.669   0.430 -0.0100 -0.1484 -0.3745
   38SOL    MW4  227   0.430   1.701   0.447  0.0379 -0.1832 -0.5317
   39SOL     OW  228   0.404   1.421   0.320 -0.0470 -0.1560 -0.0405
   39SOL    HW2  229   0.406   1.403   0.226  0.7019  0.3384 -0.1225
   39SOL    HW3  230   0.312   1.412   0.345 -0.0695 -1.4657 -0.5891
   39SOL    MW4  231   0.392   1.418   0.311  0.0488 -0.2635 -0.1237
   40SOL     OW  232   0.678   2.776   0.742  0.0496  0.8679  0.0894
   40SOL    HW2  233   0.604   2.741   0.791  0.3877 -3.2357 -2.0529
   40SOL    HW3  234   0.753   2.764   0.800 -0.2450  0.2631  0.3572
   40SOL    MW4  235   0.678   2.769   0.756  0.0553  0.2465 -0.1579
   41SOL     OW  236   0.018   2.705   0.361  0.1442  0.2299 -0.4885
   41SOL    HW2  237   0.017   2.616   0.397  0.1671 -0.7005 -2.7189
   41SOL    HW3  238   0.108   2.735   0.372  0.8644 -1.1687 -2.3973
   41SOL    MW4  239   0.030   2.697   0.367  0.2422 -0.0775 -1.0346
   42SOL     OW  240   4.047   2.725   0.308 -0.4039 -0.1497  0.3522
   42SOL    HW2  241   4.047   2.806   0.258 -1.7580 -1.5661 -2.0031
   42SOL    HW3  242   3.976   2.735   0.371 -1.2015  0.1362 -0.5829
   42SOL    MW4  243   4.038   2.737   0.310 -0.6876 -0.2990 -0.0819
   43SOL     OW  244   0.632   2.604   0.517 -0.2334  0.1030 -0.2171
   43SOL    HW2  245   0.709   2.568   0.473  0.8398  0.9619  0.9085
   43SOL    HW3  246   0.668   2.655   0.590 -1.7614  2.3484 -0.9830
   43SOL    MW4  247   0.647   2.606   0.521 -0.2934  0.5124 -0.1696
   44SOL     OW  248   0.439   2.637   0.333  0.2551  0.0491  0.1114
   44SOL    HW2  249   0.487   2.677   0.260  0.0900  2.1560  1.1563
   44SOL    HW3  250   0.506   2.615   0.397  0.0850  0.8248  0.5558
   44SOL    MW4  251   0.454   2.639   0.332  0.2108  0.4292  0.3079
   45SOL     OW  252   4.374   3.073   0.477  0.2981  0.0489 -0.2053
   45SOL    HW2  253   4.434   3.094   0.406 -0.7507 -0.7508 -1.3484
   45SOL    HW3  254   4.354   2.980   0.464  2.2444 -0.8680  2.7634
   45SOL    MW4  255   4.379   3.063   0.466  0.4172 -0.1774  0.0356
   46SOL     OW  256   0.273   2.827   0.446 -0.2146 -0.4380 -0.0144
   46SOL    HW2  257   0.316   2.903   0.408 -0.7561  0.0032  0.2450
   46SOL    HW3  258   0.329   2.753   0.422 -0.2828 -0.1044 -1.2332
   46SOL    MW4  259   0.286   2.827   0.438 -0.2950 -0.3355 -0.1410
   47SOL     OW  260   1.899   4.188   0.465 -0.2582  0.0134  0.0699
   47SOL    HW2  261   1.962   4.189   0.393  0.7435 -0.0290  0.9185
   47SOL    HW3  262   1.901   4.098   0.498 -0.0116  0.2568  0.7359
   47SOL    MW4  263   1.908   4.176   0.460 -0.0936  0.0401  0.2697
   48SOL     OW  264   0.088   3.395   0.521  0.4363 -0.0264  0.4763
   48SOL    HW2  265   0.079   3.336   0.595 -0.2112  0.3317  0.6887
   48SOL    HW3  266   0.177   3.380   0.488  1.0304  0.4287  1.8530
   48SOL    MW4  267   0.098   3.385   0.526  0.4292  0.0811  0.6860
   49SOL     OW  268   0.395   3.070   0.325  0.1379  0.7245  0.4664
   49SOL    HW2  269   0.403   3.137   0.393  1.0736 -1.0270  2.1527
   49SOL    HW3  270   0.485   3.055   0.296 -0.1321  0.6198 -0.3332
   49SOL    MW4  271   0.408   3.077   0.330  0.2258  0.4792  0.5834
   50SOL     OW  272   1.152   3.113   0.395  0.3049 -0.5716 -0.3495
   50SOL    HW2  273   1.164   3.186   0.456  1.9420 -0.6997 -0.4981
   50SOL    HW3  274   1.072   3.135   0.347 -0.8073 -0.3077  1.6025
   50SOL    MW4  275   1.143   3.126   0.397  0.3741 -0.5536 -0.1116
   51SOL     OW  276   0.599   4.259   0.452 -0.2509 -0.5198  0.3736
   51SOL    HW2  277   0.542   4.181   0.460 -1.4633  0.4051  0.9692
   51SOL    HW3  278   0.610   4.289   0.542  0.5204 -0.2043  0.1748
   51SOL    MW4  279   0.593   4.252   0.465 -0.3091 -0.3557  0.4259
   52SOL     OW  280   0.544   3.528   0.499  0.2482  0.3004  0.1104
   52SOL    HW2  281   0.576   3.552   0.586 -0.7929 -1.0710  0.9049
   52SOL    HW3  282   0.568   3.601   0.443  1.4364  0.9549  1.4382
   52SOL    MW4  283   0.552   3.541   0.503  0.2675  0.2060  0.3904
   53SOL     OW  284   1.045   4.594   0.360 -0.4431  0.2531  0.2067
   53SOL    HW2  285   0.997   4.667   0.399 -0.2573  0.2192  0.5014
   53SOL    HW3  286   1.024   4.599   0.267  0.5478  1.4362  0.0327
   53SOL    MW4  287   1.036   4.605   0.353 -0.2878  0.4044  0.2226
   54SOL     OW  288   1.609   0.015   0.397  0.1226  0.3624 -0.0361
   54SOL    HW2  289   1.682   0.076   0.411  0.5198 -0.2250  0.5075
   54SOL    HW3  290   1.651  -0.070   0.389 -0.4513  0.1284 -0.5388
   54SOL    MW4  291   1.624   0.012   0.398  0.0993  0.2537 -0.0307
   55SOL     OW  292   0.708   0.366   0.478  0.4212 -0.3453  0.0697
   55SOL    HW2  293   0.614   0.353   0.471  0.3494 -1.2495  2.4657
   55SOL    HW3  294   0.728   0.431   0.411 -2.1093  0.9477  0.5218
   55SOL    MW4  295   0.699   0.373   0.468  0.0779 -0.2940  0.4454
   56SOL     OW  296   0.386   0.580   0.366 -0.0354  0.1068 -0.2823
   56SOL    HW2  297   0.447   0.562   0.294  2.1492  0.1866  1.4837
   56SOL    HW3  298   0.415   0.665   0.400 -1.4129  0.3328  0.3280
   56SOL    MW4  299   0.398   0.589   0.361  0.0711  0.1471  0.0312
   57SOL     OW  300   1.608   0.626   0.344  0.2597  0.3689  0.5069
   57SOL    HW2  301   1.575   0.651   0.257  1.1286  1.5892  0.5169
   57SOL    HW3  302   1.534   0.582   0.386 -0.2679  0.0468 -0.7299
   57SOL    MW4  303   1.594   0.623   0.338  0.3047  0.4874  0.3451
   58SOL     OW  304   1.638   0.906   0.357  0.3497  0.2102 -0.1180
   58SOL    HW2  305   1.635   0.810   0.349  0.2798  0.1203  0.8972
   58SOL    HW3  306   1.558   0.929   0.405  1.1779  0.6102  1.0990
   58SOL    MW4  307   1.627   0.896   0.362  0.4499  0.2511  0.1765
   59SOL     OW  308   1.034   1.236   0.241 -0.0465  0.1809  0.0339
   59SOL    HW2  309   1.116   1.210   0.197  1.2930  0.9860  1.9673
   59SOL    HW3  310   0.979   1.158   0.238  1.4106 -0.8677  0.0335
   59SOL    MW4  311   1.038   1.222   0.235  0.3223  0.1488  0.2890
   60SOL     OW  312   0.564   1.971   0.497 -0.2042  0.3957 -0.5745
   60SOL    HW2  313   0.527   1.886   0.472 -0.3726  1.0355 -2.5830
   60SOL    HW3  314   0.516   2.035   0.445  0.7218  1.6388  0.0568
   60SOL    MW4  315   0.553   1.968   0.487 -0.1042  0.6442 -0.7563
   61SOL     OW  316   0.857   1.438   0.338 -0.2054  0.3086 -0.2498
   61SOL    HW2  317   0.920   1.375   0.302 -0.0031  0.8453 -0.8442
   61SOL    HW3  318   0.911   1.510   0.371 -0.4481  0.2536  0.2721
   61SOL    MW4  319   0.872   1.439   0.337 -0.2107  0.3722 -0.2593
   62SOL     OW  320   2.061   1.149   0.416  0.5250  0.1878  0.1002
   62SOL    HW2  321   2.019   1.185   0.337 -0.3831  0.0095  0.5046
   62SOL    HW3  322   2.025   1.061   0.425 -0.0170  0.5170  1.2012
   62SOL    MW4  323   2.051   1.143   0.407  0.3340  0.2077  0.2988
   63SOL     OW  324   0.651   1.305   0.438 -0.5096  0.1543  0.1725
   63SOL    HW2  325   0.576   1.349   0.398 -0.5357  0.0252  0.0801
   63SOL    HW3  326   0.727   1.349   0.401 -0.4975 -1.0149 -1.2419
   63SOL    MW4  327   0.651   1.317   0.428 -0.5115 -0.0170 -0.0263
   64SOL     OW  328   1.351   1.411   0.407  0.0703  0.2159 -0.0215
   64SOL    HW2  329   1.313   1.493   0.439  0.7244  0.3211  0.4948
   64SOL    HW3  330   1.444   1.419   0.425  0.1078 -0.7420  0.2459
   64SOL    MW4  331   1.358   1.422   0.413  0.1615  0.1035  0.0819
   65SOL     OW  332   0.352   2.395   0.433  0.1907  0.1344 -0.4408
   65SOL    HW2  333   0.372   2.466   0.372  0.2875  0.1206 -0.4238
   65SOL    HW3  334   0.358   2.316   0.380  0.4357  0.1096 -0.3721
   65SOL    MW4  335   0.355   2.394   0.418  0.2358  0.1292 -0.4295
   66SOL     OW  336   0.836   1.889   0.369 -0.3374 -0.1324  0.1864
   66SOL    HW2  337   0.886   1.955   0.320  0.9704 -0.8027  0.5950
   66SOL    HW3  338   0.759   1.937   0.400  1.7126  1.8772  2.4378
   66SOL    MW4  339   0.833   1.904   0.367  0.1056  0.0443  0.5373
   67SOL     OW  340   1.301   2.718   0.367  0.4422  0.4060  0.0400
   67SOL    HW2  341   1.217   2.763   0.369  0.9015  1.2442  1.7707
   67SOL    HW3  342   1.281   2.629   0.397  0.0139  0.3300 -0.4775
   67SOL    MW4  343   1.287   2.712   0.371  0.4462  0.5064  0.2001
   68SOL     OW  344   0.905   2.521   0.515  0.0992  0.1655 -0.6408
   68SOL    HW2  345   0.878   2.512   0.606  1.5126  1.0079 -0.1162
   68SOL    HW3  346   0.921   2.431   0.485 -1.4795 -0.2025 -0.4287
   68SOL    MW4  347   0.903   2.508   0.523  0.0773  0.2282 -0.5436
   69SOL     OW  348   1.067   2.850   0.443  0.1554  0.1616 -0.4403
   69SOL    HW2  349   0.976   2.864   0.466 -0.3692 -0.4202 -2.0845
   69SOL    HW3  350   1.105   2.938   0.437 -0.0658  0.3625  1.1197
   69SOL    MW4  351   1.060   2.864   0.445  0.0570  0.1111 -0.4515
   70SOL     OW  352   0.990   2.265   0.470 -0.1975  0.0784 -0.3639
   70SOL    HW2  353   0.974   2.199   0.537  0.4773  0.6311  0.3445
   70SOL    HW3  354   0.994   2.215   0.388  0.5107 -0.7836  0.1926
   70SOL    MW4  355   0.988   2.249   0.468 -0.0151  0.0377 -0.1970
   71SOL     OW  356   0.672   3.033   0.317 -0.0638 -0.1460 -0.0881
   71SOL    HW2  357   0.749   3.088   0.302 -0.4445  0.2476 -0.6437
   71SOL    HW3  358   0.703   2.962   0.373  0.5782  0.2989  0.1268
   71SOL    MW4  359   0.686   3.031   0.322 -0.0294 -0.0350 -0.1330
   72SOL     OW  360   0.913   3.195   0.276  0.2400  0.4901  0.1258
   72SOL    HW2  361   0.919   3.230   0.187 -1.6862 -0.7535 -0.5337
   72SOL    HW3  362   0.861   3.260   0.324  1.1025  1.0578  0.3142
   72SOL    MW4  363   0.907   3.208   0.271  0.0997  0.4008  0.0636
   73SOL     OW  364   1.121   3.578   0.779 -0.2012  0.1710 -0.4473
   73SOL    HW2  365   1.193   3.536   0.826 -0.1388  1.4536  0.6442
   73SOL    HW3  366   1.157   3.603   0.694  0.8871  1.4838  0.3742
   73SOL    MW4  367   1.135   3.576   0.774 -0.0495  0.5136 -0.1950
   74SOL     OW  368   0.848   3.836   0.505  0.1838 -0.1927 -0.2259
   74SOL    HW2  369   0.861   3.867   0.594 -0.1233 -0.4039 -0.1100
   74SOL    HW3  370   0.850   3.915   0.452  1.2777 -0.1472 -0.1336
   74SOL    MW4  371   0.850   3.850   0.510  0.2876 -0.2148 -0.1984
   75SOL     OW  372   0.229   3.692   0.455  0.1158 -0.3766 -0.1442
   75SOL    HW2  373   0.234   3.646   0.539 -1.9452 -0.9762 -0.3203
   75SOL    HW3  374   0.318   3.723   0.439  0.7708 -1.2374  1.7116
   75SOL    MW4  375   0.242   3.690   0.464 -0.0697 -0.5693  0.0775
   76SOL     OW  376   1.279   4.204   0.509 -0.3090  0.2625 -0.8718
   76SOL    HW2  377   1.300   4.222   0.600 -0.3482 -1.2716 -0.5463
   76SOL    HW3  378   1.200   4.255   0.492 -1.7530 -1.4026  0.6994
   76SOL    MW4  379   1.272   4.213   0.519 -0.5046 -0.1597 -0.6216
   77SOL     OW  380   1.240   0.754   0.435  0.1959 -0.1259 -0.1922
   77SOL    HW2  381   1.304   0.823   0.451 -0.7298  0.7842 -0.3418
   77SOL    HW3  382   1.283   0.674   0.464  0.5614  0.7731  1.8420
   77SOL    MW4  383   1.254   0.753   0.441  0.1220  0.1128  0.0565
   78SOL     OW  384   1.158   0.317   0.459 -0.0883  0.6282  0.4005
   78SOL    HW2  385   1.216   0.242   0.457 -1.4042 -0.4015 -0.9037
   78SOL    HW3  386   1.070   0.279   0.462 -0.7264  2.1340  1.5365
   78SOL    MW4  387   1.154   0.302   0.459 -0.3462  0.6911  0.3783
   79SOL     OW  388   1.312   0.077   0.453 -0.0144  0.0302 -0.6441
   79SOL    HW2  389   1.391   0.045   0.410 -0.1606 -1.1526 -0.0725
   79SOL    HW3  390   1.243   0.016   0.425 -0.3859  0.0654  0.1476
   79SOL    MW4  391   1.313   0.064   0.444 -0.0829 -0.1212 -0.4642
   80SOL     OW  392   1.180   1.189   0.485 -0.2847 -0.2716 -0.6961
   80SOL    HW2  393   1.103   1.194   0.427  0.2730  0.9948 -1.3511
   80SOL    HW3  394   1.234   1.264   0.459 -0.1562  0.4806  1.6773
   80SOL    MW4  395   1.177   1.199   0.474 -0.1942 -0.0052 -0.4694
   81SOL     OW  396   1.380   0.512   0.464 -0.1846 -0.9421  0.2797
   81SOL    HW2  397   1.399   0.500   0.557 -0.9633  1.8287  0.8386
   81SOL    HW3  398   1.321   0.440   0.442 -0.5868 -1.2050  2.1158
   81SOL    MW4  399   1.375   0.501   0.473 -0.3405 -0.6112  0.5956
   82SOL     OW  400   2.261   0.648   0.336  0.0734 -0.4733  0.0921
   82SOL    HW2  401   2.186   0.624   0.391 -0.0924  0.0914  0.1093
   82SOL    HW3  402   2.259   0.584   0.264 -0.6384 -0.2300 -0.1042
   82SOL    MW4  403   2.251   0.636   0.334 -0.0424 -0.3667  0.0685
   83SOL     OW  404   2.664   0.905   0.464  0.0425 -0.1815 -0.0650
   83SOL    HW2  405   2.702   0.837   0.408 -0.8453 -0.2488 -0.5943
   83SOL    HW3  406   2.679   0.986   0.417 -0.8387 -0.2539 -0.4899
   83SOL    MW4  407   2.671   0.906   0.451 -0.1910 -0.2000 -0.1909
   84SOL     OW  408   1.608   1.183   0.246  0.3857  0.3887  0.2527
   84SOL    HW2  409   1.515   1.190   0.226  0.5169  0.4833 -0.3143
   84SOL    HW3  410   1.620   1.092   0.273  0.1954  0.2915  0.0087
   84SOL    MW4  411   1.597   1.172   0.247  0.3778  0.3883  0.1457
   85SOL     OW  412   1.901   0.886   0.444  0.5778 -0.2564  0.1241
   85SOL    HW2  413   1.830   0.899   0.381  0.9218  0.1605 -0.1808
   85SOL    HW3  414   1.856   0.878   0.529  0.2701  1.9810  0.2042
   85SOL    MW4  415   1.885   0.886   0.447  0.5826  0.0938  0.0944
   86SOL     OW  416   1.859   1.519   0.372 -0.2393  0.2524 -0.4262
   86SOL    HW2  417   1.867   1.434   0.331  0.7978  0.1679 -0.0514
   86SOL    HW3  418   1.941   1.564   0.353 -0.8532  1.2604 -0.8090
   86SOL    MW4  419   1.871   1.514   0.364 -0.1836  0.3741 -0.4272
   87SOL     OW  420   1.604   1.375   0.471  0.2973  0.6259  0.0967
   87SOL    HW2  421   1.611   1.309   0.402 -0.7636  0.3821  0.2032
   87SOL    HW3  422   1.673   1.439   0.451  1.7950 -0.8848  0.4065
   87SOL    MW4  423   1.614   1.375   0.459  0.3549  0.3945  0.1517
   88SOL     OW  424   0.956   1.647   0.469  0.3656  0.1508 -0.0704
   88SOL    HW2  425   0.936   1.650   0.562  1.9130  0.2404  0.2710
   88SOL    HW3  426   0.923   1.730   0.435 -1.5291 -0.5079  0.1068
   88SOL    MW4  427   0.949   1.658   0.477  0.3198  0.0757 -0.0020
   89SOL     OW  428   1.210   2.450   0.490 -0.2757 -0.1537 -0.0812
   89SOL    HW2  429   1.186   2.358   0.477 -0.7287 -0.1507  0.7056
   89SOL    HW3  430   1.126   2.497   0.489 -0.1835  0.0401  1.2088
   89SOL    MW4  431   1.196   2.444   0.488 -0.3233 -0.1276  0.1928
   90SOL     OW  432   1.985   1.911   0.451 -0.1727 -0.0297  0.4707
   90SOL    HW2  433   1.894   1.881   0.459 -0.3643  0.3564 -0.2424
   90SOL    HW3  434   2.007   1.942   0.539 -0.7452 -0.0948  0.6415
   90SOL    MW4  435   1.976   1.912   0.464 -0.2735  0.0126  0.3991
   91SOL     OW  436   1.467   1.890   0.526 -0.5678 -0.3328  0.7164
   91SOL    HW2  437   1.539   1.852   0.475 -0.3041  0.3172  0.5943
   91SOL    HW3  438   1.401   1.822   0.528 -1.9739  0.7485 -3.3826
   91SOL    MW4  439   1.468   1.876   0.519 -0.7187 -0.1044  0.1596
   92SOL     OW  440   1.050   2.075   0.271  0.0977  0.1309 -0.1971
   92SOL    HW2  441   1.107   2.083   0.194  0.0550 -0.3138 -0.2735
   92SOL    HW3  442   1.104   2.030   0.336 -0.1896 -0.3529 -0.2916
   92SOL    MW4  443   1.065   2.070   0.269  0.0541  0.0083 -0.2196
   93SOL     OW  444   0.815   2.916   0.533  0.0964 -0.0130  0.3628
   93SOL    HW2  445   0.807   3.008   0.558 -0.4281  0.0592 -0.0540
   93SOL    HW3  446   0.776   2.868   0.606  0.7201  0.0741  0.7552
   93SOL    MW4  447   0.809   2.922   0.546  0.1095  0.0079  0.3597
   94SOL     OW  448   2.070   2.629   0.421  0.3110  0.3212  0.0838
   94SOL    HW2  449   2.017   2.551   0.406  0.4532  0.3589 -0.6368
   94SOL    HW3  450   2.152   2.596   0.458  1.1138 -0.0548 -1.9761
   94SOL    MW4  451   2.073   2.614   0.424  0.4358  0.2766 -0.2830
   95SOL     OW  452   1.563   3.934   0.350  0.3153  0.0996 -0.1039
   95SOL    HW2  453   1.563   3.923   0.255 -1.9908 -0.0568 -0.1067
   95SOL    HW3  454   1.556   4.028   0.364  1.2578  0.1724 -0.0709
   95SOL    MW4  455   1.562   3.945   0.339  0.1354  0.0887 -0.0999
   96SOL     OW  456   1.319   3.934   0.487  0.1688 -0.2864  0.0060
   96SOL    HW2  457   1.395   3.933   0.429  0.6889 -0.0881  0.6805
   96SOL    HW3  458   1.294   4.026   0.493 -0.0023 -0.3289 -0.0621
   96SOL    MW4  459   1.326   3.946   0.480  0.2149 -0.2661  0.0860
   97SOL     OW  460   1.729   2.446   0.650 -0.2255  0.2945 -0.0190
   97SOL    HW2  461   1.677   2.394   0.712 -0.4558  1.2207  0.5710
   97SOL    HW3  462   1.684   2.530   0.646  0.9679  0.9433  0.1299
   97SOL    MW4  463   1.716   2.450   0.658 -0.0985  0.5023  0.0785
   98SOL     OW  464   2.369   4.242   0.137  0.0465 -0.0270 -0.2453
   98SOL    HW2  465   2.401   4.171   0.193 -0.9380  0.3311  0.7895
   98SOL    HW3  466   2.417   4.231   0.055  0.0324 -1.7940 -0.0480
   98SOL    MW4  467   2.380   4.231   0.133 -0.0854 -0.2127 -0.0827
   99SOL     OW  468   1.428   3.121   0.488 -0.3044  0.0855 -0.1590
   99SOL    HW2  469   1.475   3.043   0.460 -0.2990 -0.0982  0.3762
   99SOL    HW3  470   1.355   3.129   0.426 -0.0372 -0.0803 -0.4936
   99SOL    MW4  471   1.424   3.112   0.476 -0.2685  0.0396 -0.1326
  100SOL     OW  472   1.718   3.214   0.482  1.0006 -0.2287  0.4233
  100SOL    HW2  473   1.746   3.306   0.476  0.6077 -0.0924  0.6327
  100SOL    HW3  474   1.625   3.216   0.461  1.0473 -0.6196  0.1698
  100SOL    MW4  475   1.709   3.227   0.479  0.9549 -0.2620  0.4175
  101SOL     OW  476   0.835   4.109   0.428  0.0175  0.6064  0.0189
  101SOL    HW2  477   0.762   4.169   0.441 -0.1338  0.2428  0.8405
  101SOL    HW3  478   0.913   4.164   0.440 -0.1163  0.9587 -0.7014
  101SOL    MW4  479   0.836   4.124   0.431 -0.0201  0.6042  0.0323
  102SOL     OW  480   2.410   4.434   0.349  0.3252 -0.0304 -0.1788
  102SOL    HW2  481   2.332   4.424   0.404  1.8622 -0.4947  1.9982
  102SOL    HW3  482   2.397   4.371   0.278 -1.0381 -0.4777  0.4319
  102SOL    MW4  483   2.398   4.424   0.347  0.3481 -0.1502  0.1890
  103SOL     OW  484   2.161   4.421   0.472  0.6166  0.2686 -0.1151
  103SOL    HW2  485   2.102   4.479   0.423  3.2580  1.8358 -1.5540
  103SOL    HW3  486   2.148   4.335   0.432 -1.3741  0.3748  0.2434
  103SOL    MW4  487   2.151   4.417   0.460  0.7024  0.4892 -0.2576
  104SOL     OW  488   2.029   4.648   0.351 -0.2324  0.3527 -0.6713
  104SOL    HW2  489   1.966   4.696   0.405 -0.2494 -0.8475  0.3955
  104SOL    HW3  490   1.980   4.627   0.271 -0.6995  0.7770 -0.4999
  104SOL    MW4  491   2.014   4.651   0.348 -0.2964  0.2508 -0.5080
  105SOL     OW  492   1.846   0.184   0.452 -0.3145 -0.1751  0.3397
  105SOL    HW2  493   1.854   0.280   0.449  0.0233 -0.1895  0.6982
  105SOL    HW3  494   1.819   0.166   0.542 -2.1572 -0.2932 -0.2201
  105SOL    MW4  495   1.843   0.194   0.464 -0.5131 -0.1926  0.3131
  106SOL     OW  496   2.534   0.547   0.432 -0.8597 -0.0752 -0.6330
  106SOL    HW2  497   2.534   0.457   0.398 -1.0690 -0.0591 -0.6825
  106SOL    HW3  498   2.443   0.576   0.421 -0.7741  0.1714 -0.6939
  106SOL    MW4  499   2.522   0.539   0.426 -0.8759 -0.0406 -0.6476
  107SOL     OW  500   2.595   1.578   0.395  0.4260  0.0460 -0.1643
  107SOL    HW2  501   2.508   1.614   0.407  0.2437 -0.1944 -0.7362
  107SOL    HW3  502   2.633   1.576   0.483 -0.1346  0.1733  0.0803
  107SOL    MW4  503   2.589   1.582   0.408  0.3281  0.0311 -0.2075
  108SOL     OW  504   2.472   1.213   0.704  0.1299  0.0064 -0.4149
  108SOL    HW2  505   2.451   1.212   0.610  0.5997  0.8016 -0.5357
  108SOL    HW3  506   2.393   1.181   0.747 -1.2039  2.5264 -0.8771
  108SOL    MW4  507   2.459   1.209   0.697  0.0160  0.4438 -0.4918
  109SOL     OW  508   2.384   0.913   0.447 -0.4177 -0.3395 -0.2449
  109SOL    HW2  509   2.351   0.848   0.385 -0.5440 -0.0487 -0.4812
  109SOL    HW3  510   2.479   0.901   0.446 -0.3871 -0.0377 -0.8209
  109SOL    MW4  511   2.392   0.902   0.439 -0.4303 -0.2613 -0.3521
  110SOL     OW  512   2.557   1.319   0.285  0.2547  0.0280 -0.1759
  110SOL    HW2  513   2.472   1.294   0.323  0.3586 -0.4019 -0.2224
  110SOL    HW3  514   2.572   1.407   0.318 -0.2956  0.1769 -0.3112
  110SOL    MW4  515   2.548   1.327   0.295  0.1957 -0.0089 -0.1999
  111SOL     OW  516   2.348   1.698   0.457  0.0698 -0.0212 -0.0543
  111SOL    HW2  517   2.256   1.680   0.435  0.3465  0.2581 -1.5129
  111SOL    HW3  518   2.359   1.791   0.437  0.6507 -0.0267  0.2288
  111SOL    MW4  519   2.337   1.708   0.452  0.1829  0.0149 -0.2094
  112SOL     OW  520   1.746   1.770   0.456  0.1807  0.5167 -0.2400
  112SOL    HW2  521   1.752   1.771   0.551 -0.4906  0.3338 -0.1898
  112SOL    HW3  522   1.761   1.678   0.432  0.4134  0.5739 -0.3183
  112SOL    MW4  523   1.749   1.758   0.465  0.1229  0.5001 -0.2438
  113SOL     OW  524   2.325   2.443   0.736  0.2070  0.3616 -0.3780
  113SOL    HW2  525   2.285   2.521   0.774 -0.9932  0.6121 -2.0747
  113SOL    HW3  526   2.251   2.385   0.717  0.9183 -0.4188 -0.8028
  113SOL    MW4  527   2.310   2.446   0.738  0.1423  0.2916 -0.6579
  114SOL     OW  528   1.784   3.207   0.762 -0.2937 -0.0108  0.5542
  114SOL    HW2  529   1.723   3.151   0.810 -1.3752  0.1338 -0.6269
  114SOL    HW3  530   1.753   3.204   0.671 -0.9159  3.2076  0.5981
  114SOL    MW4  531   1.772   3.199   0.756 -0.5184  0.4330  0.4042
  115SOL     OW  532   1.870   2.439   0.385  0.2726 -0.5682  0.0671
  115SOL    HW2  533   1.917   2.356   0.379  1.6373  0.1939  0.1169
  115SOL    HW3  534   1.815   2.430   0.463 -0.4595 -1.8539 -0.5769
  115SOL    MW4  535   1.869   2.427   0.394  0.3560 -0.6375 -0.0113
  116SOL     OW  536   1.539   2.865   0.464 -0.3035  0.1922 -0.2792
  116SOL    HW2  537   1.555   2.810   0.541 -0.5180  0.6421  0.0964
  116SOL    HW3  538   1.468   2.820   0.418 -0.2742 -0.0055 -0.1367
  116SOL    MW4  539   1.531   2.852   0.468 -0.3279  0.2255 -0.2108
  117SOL     OW  540   1.260   1.664   0.497  0.1790 -0.0155  0.0857
  117SOL    HW2  541   1.166   1.675   0.479  0.3117 -2.0571 -1.9858
  117SOL    HW3  542   1.263   1.648   0.592 -1.5893 -0.1892  0.1448
  117SOL    MW4  543   1.248   1.664   0.507 -0.0368 -0.3078 -0.1799
  118SOL     OW  544   3.632   1.661   0.459 -0.0557 -0.2376 -0.3517
  118SOL    HW2  545   3.553   1.681   0.408 -0.1382 -1.0463 -0.5433
  118SOL    HW3  546   3.607   1.679   0.550 -0.8781 -1.7692 -0.2669
  118SOL    MW4  547   3.618   1.666   0.464 -0.1750 -0.5465 -0.3658
  119SOL     OW  548   1.787   2.759   0.386  0.4897 -0.1775 -0.3981
  119SOL    HW2  549   1.763   2.669   0.365 -0.0702  0.6383 -3.4820
  119SOL    HW3  550   1.703   2.804   0.399  0.6400  0.5389 -1.7869
  119SOL    MW4  551   1.772   2.753   0.385  0.4356  0.0250 -0.9882
  120SOL     OW  552   2.041   2.186   0.388 -0.0333  0.1244  0.0805
  120SOL    HW2  553   2.126   2.181   0.343 -0.5560  0.2670 -0.9351
  120SOL    HW3  554   2.021   2.096   0.412 -0.3374 -0.1188 -1.0779
  120SOL    MW4  555   2.050   2.174   0.385 -0.1426  0.1111 -0.2064
  121SOL     OW  556   1.897   3.048   0.332  0.2361  0.2583  0.3621
  121SOL    HW2  557   1.849   3.108   0.390 -0.3709  0.3648 -0.2348
  121SOL    HW3  558   1.832   3.023   0.266 -0.0458 -2.4864  1.6123
  121SOL    MW4  559   1.882   3.053   0.331  0.1189 -0.0899  0.4483
  122SOL     OW  560   2.645   2.836   0.414  0.0695 -0.0387 -0.1559
  122SOL    HW2  561   2.735   2.852   0.443  0.2364 -0.8531 -0.2146
  122SOL    HW3  562   2.654   2.773   0.342 -0.4437  0.8976 -1.0520
  122SOL    MW4  563   2.658   2.830   0.408  0.0238 -0.0226 -0.2819
  123SOL     OW  564   1.747   3.505   0.412 -0.2231  0.4338 -0.0767
  123SOL    HW2  565   1.812   3.568   0.380 -0.2906  0.7993  0.5195
  123SOL    HW3  566   1.669   3.557   0.430  0.1489  0.4034  1.7211
  123SOL    MW4  567   1.745   3.520   0.410 -0.1829  0.4780  0.2392
  124SOL     OW  568   1.550   4.202   0.399 -0.3856  0.1288  0.4862
  124SOL    HW2  569   1.613   4.269   0.423 -0.4830  0.3221  0.2040
  124SOL    HW3  570   1.477   4.214   0.460 -0.7819  0.8374 -0.1195
  124SOL    MW4  571   1.548   4.212   0.410 -0.4507  0.2475  0.3690
  125SOL     OW  572   1.250   3.673   0.543 -0.3932 -0.4919  0.2466
  125SOL    HW2  573   1.252   3.765   0.514 -0.0219 -0.3871  0.6125
  125SOL    HW3  574   1.178   3.634   0.493  0.7202 -0.4920 -1.3936
  125SOL    MW4  575   1.241   3.680   0.532 -0.1974 -0.4780  0.0784
  126SOL     OW  576   1.714   4.409   0.474 -0.5449 -0.2552 -0.2977
  126SOL    HW2  577   1.669   4.408   0.559 -0.1253  1.2226 -0.0325
  126SOL    HW3  578   1.779   4.338   0.481 -0.3897 -0.0325  0.6950
  126SOL    MW4  579   1.717   4.399   0.486 -0.4692 -0.0305 -0.1317
  127SOL     OW  580   2.032   0.611   0.490 -0.3134  0.0378  0.2763
  127SOL    HW2  581   2.012   0.702   0.470  0.2359 -0.1228 -1.0380
  127SOL    HW3  582   1.955   0.562   0.461 -0.6413  0.0831  1.0534
  127SOL    MW4  583   2.019   0.616   0.484 -0.2842  0.0226  0.2055
  128SOL     OW  584   2.330   0.064   0.375  0.0878  0.0143  0.2148
  128SOL    HW2  585   2.236   0.056   0.363 -0.0529  1.9683 -0.0613
  128SOL    HW3  586   2.366  -0.016   0.335 -1.3440 -0.0839 -0.9162
  128SOL    MW4  587   2.323   0.052   0.368 -0.1197  0.2592  0.0292
  129SOL     OW  588   2.805   0.604   0.467  0.1259 -0.0626 -0.1146
  129SOL    HW2  589   2.838   0.651   0.390  0.7855  0.0592  0.2348
  129SOL    HW3  590   2.716   0.579   0.444  0.0641  0.6207 -0.6329
  129SOL    MW4  591   2.798   0.607   0.454  0.2048  0.0436 -0.1369
  130SOL     OW  592   2.900   0.834   0.308 -0.1718  0.4143 -0.0385
  130SOL    HW2  593   2.960   0.865   0.376  0.2454  0.0566 -0.2423
  130SOL    HW3  594   2.917   0.891   0.233 -2.0176  2.1010  0.7727
  130SOL    MW4  595   2.910   0.846   0.307 -0.3603  0.5895  0.0416
  131SOL     OW  596   3.364   0.999   0.364  0.1366 -0.4937  0.0583
  131SOL    HW2  597   3.432   0.946   0.324  0.2815 -0.2998  0.0438
  131SOL    HW3  598   3.311   1.030   0.290 -1.0590 -2.1136  0.1999
  131SOL    MW4  599   3.366   0.996   0.349 -0.0021 -0.6817  0.0751
  132SOL     OW  600   3.060   0.940   0.520 -0.1822  0.2908  0.8649
  132SOL    HW2  601   3.035   1.023   0.480 -1.5429 -1.0124 -1.0482
  132SOL    HW3  602   3.000   0.931   0.595 -0.2563  0.8661  0.8780
  132SOL    MW4  603   3.049   0.950   0.525 -0.3712  0.1947  0.6143
  133SOL     OW  604   2.986   1.196   0.434 -0.0278  0.0192 -0.1530
  133SOL    HW2  605   3.050   1.250   0.388 -0.4773  0.0860 -0.7176
  133SOL    HW3  606   2.973   1.240   0.518  0.1385  0.3974 -0.3246
  133SOL    MW4  607   2.992   1.209   0.439 -0.0653  0.0780 -0.2501
  134SOL     OW  608   2.890   1.746   0.324  0.0275  0.1739 -0.1037
  134SOL    HW2  609   2.862   1.804   0.395 -0.1057  1.0807 -0.8788
  134SOL    HW3  610   2.815   1.688   0.309 -0.4740  0.8991 -0.4386
  134SOL    MW4  611   2.876   1.746   0.332 -0.0563  0.3893 -0.2501
  135SOL     OW  612   2.732   0.142   0.411  0.0225 -0.2235  0.0813
  135SOL    HW2  613   2.714   0.055   0.375 -0.3770  0.3532 -1.1030
  135SOL    HW3  614   2.712   0.133   0.505 -0.1160 -1.3803 -0.0510
  135SOL    MW4  615   2.727   0.129   0.419 -0.0484 -0.3001 -0.0924
  136SOL     OW  616   2.090   1.649   0.432  0.3597 -0.2887 -0.0656
  136SOL    HW2  617   2.052   1.736   0.419 -0.8569 -0.7267  0.4734
  136SOL    HW3  618   2.058   1.622   0.518  1.7223 -0.7659  0.2961
  136SOL    MW4  619   2.081   1.657   0.442  0.3788 -0.4095  0.0533
  137SOL     OW  620   2.334   1.171   0.403 -0.3066 -0.5773 -0.0898
  137SOL    HW2  621   2.363   1.080   0.397  0.4216 -0.3070 -0.7248
  137SOL    HW3  622   2.239   1.167   0.391 -0.3549 -1.3145  0.4856
  137SOL    MW4  623   2.325   1.158   0.401 -0.2170 -0.6387 -0.0977
  138SOL     OW  624   2.632   2.071   0.335  0.1264  0.6711  0.0204
  138SOL    HW2  625   2.639   2.165   0.351 -0.7558  0.3915  2.1790
  138SOL    HW3  626   2.689   2.031   0.401  1.0498 -0.3016 -1.3273
  138SOL    MW4  627   2.641   2.078   0.346  0.1318  0.5057  0.1273
  139SOL     OW  628   2.394   1.989   0.440 -0.7794  0.0479  0.1000
  139SOL    HW2  629   2.327   2.043   0.398  0.0480  0.0151 -1.2820
  139SOL    HW3  630   2.477   2.019   0.401  0.1744  1.0169  2.7414
  139SOL    MW4  631   2.396   2.000   0.429 -0.5441  0.1714  0.2662
  140SOL     OW  632   2.388   2.777   0.526  0.6721 -0.0488  0.0902
  140SOL    HW2  633   2.464   2.810   0.479  0.8411  0.9293  1.0328
  140SOL    HW3  634   2.412   2.782   0.619 -0.4635  0.0947  0.3928
  140SOL    MW4  635   2.401   2.782   0.532  0.5445  0.0989  0.2545
  141SOL     OW  636   1.221   2.031   0.493  0.6170  0.1974  0.3916
  141SOL    HW2  637   1.158   2.037   0.565  0.8977  1.0476  0.5757
  141SOL    HW3  638   1.303   2.006   0.534  1.2158  2.4364  0.6416
  141SOL    MW4  639   1.224   2.029   0.508  0.7331  0.6049  0.4489
  142SOL     OW  640   2.195   2.961   0.445  0.1726  0.0317  0.4021
  142SOL    HW2  641   2.239   3.044   0.429 -0.7819  0.7526  1.4318
  142SOL    HW3  642   2.266   2.900   0.466  0.8848  0.5428 -0.4738
  142SOL    MW4  643   2.210   2.964   0.446  0.1407  0.1943  0.4224
  143SOL     OW  644   2.171   3.709   0.489  0.2266  0.2726 -0.0306
  143SOL    HW2  645   2.123   3.683   0.567  1.4988 -0.0661  0.6455
  143SOL    HW3  646   2.225   3.633   0.467 -0.1106  0.3617 -1.2455
  143SOL    MW4  647   2.171   3.696   0.496  0.3500  0.2396 -0.1017
  144SOL     OW  648   2.260   3.986   0.459  0.3259  0.2099  0.2587
  144SOL    HW2  649   2.238   3.893   0.468 -0.0821  0.4141  1.4550
  144SOL    HW3  650   2.345   3.986   0.416 -0.7901 -0.6570 -2.0336
  144SOL    MW4  651   2.268   3.974   0.455  0.1252  0.1225  0.1140
  145SOL     OW  652   1.529   3.672   0.473 -0.2464  0.3712  0.3028
  145SOL    HW2  653   1.529   3.749   0.416 -1.7309 -1.0495 -1.6578
  145SOL    HW3  654   1.437   3.654   0.490  0.0117 -1.9271 -0.5743
  145SOL    MW4  655   1.517   3.680   0.468 -0.4082 -0.1194 -0.0716
  146SOL     OW  656   2.088   3.481   0.161  0.2271  0.0281 -0.4097
  146SOL    HW2  657   2.120   3.460   0.073  1.0145 -0.8786  0.0840
  146SOL    HW3  658   2.063   3.397   0.198  0.3597  0.3453  0.4152
  146SOL    MW4  659   2.089   3.467   0.154  0.3481 -0.0498 -0.2358
  147SOL     OW  660   2.137   4.188   0.321 -0.0937  0.7530 -0.1063
  147SOL    HW2  661   2.185   4.198   0.239 -1.4012  0.1397 -0.9614
  147SOL    HW3  662   2.175   4.111   0.362  1.0595  1.4865  0.2202
  147SOL    MW4  663   2.148   4.179   0.316 -0.1140  0.7691 -0.1760
  148SOL     OW  664   1.843   3.897   0.485  0.4751 -0.4020 -0.1792
  148SOL    HW2  665   1.750   3.900   0.464  0.6214  0.3176 -0.7624
  148SOL    HW3  666   1.874   3.814   0.448  0.2376 -0.2556 -0.7042
  148SOL    MW4  667   1.835   3.886   0.478  0.4631 -0.2880 -0.3254
  149SOL     OW  668   2.509   4.051   0.344  0.3427 -0.0169 -0.1187
  149SOL    HW2  669   2.546   4.105   0.413  0.7260 -1.0223  0.4699
  149SOL    HW3  670   2.563   3.972   0.343 -0.0193 -0.2633 -1.1736
  149SOL    MW4  671   2.521   4.048   0.353  0.3457 -0.1817 -0.1802
  150SOL     OW  672   2.732   3.335   0.349  0.1799 -0.0652  0.2875
  150SOL    HW2  673   2.689   3.250   0.353  0.5063 -0.3822 -2.1758
  150SOL    HW3  674   2.664   3.398   0.373 -1.2181 -0.6948 -1.9089
  150SOL    MW4  675   2.717   3.332   0.353  0.0384 -0.1900 -0.3273
  151SOL     OW  676   2.846   4.338   0.397 -0.1035 -0.3205  0.5600
  151SOL    HW2  677   2.913   4.405   0.404 -0.4177 -0.0697  1.2128
  151SOL    HW3  678   2.808   4.332   0.485  0.2001 -1.6400  0.6074
  151SOL    MW4  679   2.850   4.346   0.409 -0.1049 -0.4621  0.6524
  152SOL     OW  680   2.497   0.291   0.377 -0.0802  0.0259  0.4218
  152SOL    HW2  681   2.437   0.216   0.376 -0.7742  0.5854 -0.7162
  152SOL    HW3  682   2.584   0.252   0.388 -0.4073 -0.9749 -0.4526
  152SOL    MW4  683   2.500   0.276   0.378 -0.2148 -0.0323  0.1563
  153SOL     OW  684   1.791   0.473   0.480  0.4574  0.2042  0.3502
  153SOL    HW2  685   1.737   0.471   0.559  0.9743  1.0006  0.7300
  153SOL    HW3  686   1.741   0.527   0.418  0.7279  0.7979  0.6423
  153SOL    MW4  687   1.777   0.480   0.482  0.5614  0.3876  0.4389
  154SOL     OW  688   3.064   0.484   0.529 -0.5687 -0.3062  0.4173
  154SOL    HW2  689   3.055   0.392   0.505  1.2966  0.1468 -2.1641
  154SOL    HW3  690   2.991   0.527   0.484 -0.3815 -0.2645  0.1533
  154SOL    MW4  691   3.053   0.478   0.520 -0.2978 -0.2409  0.0419
  155SOL     OW  692   2.747   1.120   0.298  0.2516 -0.6365  0.1751
  155SOL    HW2  693   2.690   1.197   0.289 -0.0414 -1.0180 -1.3927
  155SOL    HW3  694   2.830   1.156   0.331  0.3478  0.4676 -1.1982
  155SOL    MW4  695   2.751   1.135   0.301  0.2253 -0.5411 -0.2130
  156SOL     OW  696   3.433   1.276   0.461  0.2724 -0.2153  0.3215
  156SOL    HW2  697   3.390   1.259   0.545 -1.5174 -1.4312 -0.8099
  156SOL    HW3  698   3.437   1.191   0.418  0.3790  0.5370 -1.2001
  156SOL    MW4  699   3.428   1.263   0.466  0.0503 -0.2764 -0.0285
  157SOL     OW  700   3.410   1.757   0.332  0.2042 -0.6537 -0.1220
  157SOL    HW2  701   3.461   1.774   0.253 -0.1507 -0.0566 -0.2320
  157SOL    HW3  702   3.406   1.842   0.377 -0.0160 -0.8744  0.2834
  157SOL    MW4  703   3.416   1.771   0.328  0.1283 -0.6039 -0.0830
  158SOL     OW  704   3.910   1.216   0.469  0.2051  0.3183 -0.0898
  158SOL    HW2  705   3.853   1.285   0.436  0.7910  0.7194 -0.2856
  158SOL    HW3  706   3.896   1.142   0.409  1.5852  1.1852 -1.5225
  158SOL    MW4  707   3.901   1.215   0.457  0.4649  0.4858 -0.3047
  159SOL     OW  708   2.695   2.595   0.240 -0.2704  0.2971 -0.1849
  159SOL    HW2  709   2.786   2.597   0.270 -0.1494  1.4685 -0.6069
  159SOL    HW3  710   2.663   2.509   0.268  0.8752 -0.0146  0.2186
  159SOL    MW4  711   2.703   2.584   0.248 -0.1032  0.4103 -0.1874
  160SOL     OW  712   2.689   0.154   0.687 -0.0254 -0.4833  0.1423
  160SOL    HW2  713   2.614   0.109   0.726 -0.3948 -1.0483 -1.1678
  160SOL    HW3  714   2.689   0.240   0.728 -0.2326 -1.1410  1.5699
  160SOL    MW4  715   2.679   0.159   0.697 -0.1013 -0.6446  0.1578
  161SOL     OW  716   2.981   2.114   0.656  0.3280  0.3454  0.2484
  161SOL    HW2  717   2.923   2.145   0.726 -1.0200  0.2100 -0.7952
  161SOL    HW3  718   3.030   2.041   0.696 -1.0108 -0.2562  0.8141
  161SOL    MW4  719   2.980   2.108   0.671 -0.0267  0.2482  0.1853
  162SOL     OW  720   2.893   2.043   0.232 -0.1233  0.2861  0.4810
  162SOL    HW2  721   2.797   2.051   0.234  0.0155  1.9301  1.5267
  162SOL    HW3  722   2.909   1.949   0.234 -1.7160  0.0093  1.1233
  162SOL    MW4  723   2.882   2.032   0.232 -0.3154  0.4663  0.7037
  163SOL     OW  724   3.141   1.633   0.383 -0.2211 -0.1754  0.1281
  163SOL    HW2  725   3.065   1.678   0.347 -0.5993  0.3969  1.5883
  163SOL    HW3  726   3.213   1.697   0.375 -0.6674  0.5747  1.8293
  163SOL    MW4  727   3.141   1.648   0.377 -0.3297 -0.0010  0.5452
  164SOL     OW  728   2.379   2.507   0.466 -0.0202 -0.5577 -0.2144
  164SOL    HW2  729   2.381   2.479   0.558 -4.3927  0.1797  0.2239
  164SOL    HW3  730   2.386   2.602   0.470 -0.1932 -0.5242 -0.6430
  164SOL    MW4  731   2.380   2.516   0.479 -0.6196 -0.4561 -0.2131
  165SOL     OW  732   3.134   3.194   0.545 -0.1767 -0.6434 -0.1512
  165SOL    HW2  733   3.072   3.264   0.521 -0.4421 -0.4374  1.1267
  165SOL    HW3  734   3.131   3.191   0.640  1.2856 -1.0976 -0.1114
  165SOL    MW4  735   3.125   3.203   0.554 -0.0191 -0.6759  0.0226
  166SOL     OW  736   2.659   3.812   0.352 -0.3785  0.0672  0.0817
  166SOL    HW2  737   2.641   3.718   0.359  0.2764 -0.0698 -0.0672
  166SOL    HW3  738   2.744   3.824   0.395  0.8042  0.1606 -2.2001
  166SOL    MW4  739   2.668   3.801   0.358 -0.1359  0.0615 -0.2390
  167SOL     OW  740   3.405   3.224   0.514 -0.5528 -0.4054 -0.0306
  167SOL    HW2  741   3.406   3.298   0.454  0.5255 -0.0400  0.4208
  167SOL    HW3  742   3.312   3.207   0.531 -0.8006  1.7991  1.0185
  167SOL    MW4  743   3.393   3.231   0.509 -0.4432 -0.0665  0.1674
  168SOL     OW  744   2.326   3.195   0.460  0.4394  0.7709 -0.3804
  168SOL    HW2  745   2.306   3.196   0.554 -1.4312 -0.6817 -0.7563
  168SOL    HW3  746   2.415   3.158   0.456 -1.0999 -3.3441  0.5694
  168SOL    MW4  747   2.335   3.190   0.472 -0.0107  0.0365 -0.3046
  169SOL     OW  748   2.304   3.490   0.376 -0.6211  0.6885  0.1461
  169SOL    HW2  749   2.241   3.482   0.304  1.3084  1.6616 -1.7294
  169SOL    HW3  750   2.296   3.408   0.425 -2.8094  0.5066 -0.4788
  169SOL    MW4  751   2.295   3.478   0.373 -0.6552  0.7930 -0.1838
  170SOL     OW  752   3.392   2.881   0.195 -0.0394  0.2473  0.2448
  170SOL    HW2  753   3.364   2.831   0.119  1.4143  1.2247 -0.9776
  170SOL    HW3  754   3.406   2.816   0.264 -0.0129 -0.8128 -0.7516
  170SOL    MW4  755   3.390   2.866   0.194  0.1559  0.2365 -0.0480
  171SOL     OW  756   2.562   3.562   0.409  0.2599  0.3171  0.3245
  171SOL    HW2  757   2.472   3.542   0.384  0.4987  0.6842 -0.8618
  171SOL    HW3  758   2.558   3.578   0.504 -1.0515  1.0466  0.1558
  171SOL    MW4  759   2.549   3.561   0.418  0.1183  0.4616  0.1457
  172SOL     OW  760   2.597   3.109   0.436  0.6375  0.1247 -0.7179
  172SOL    HW2  761   2.601   3.013   0.437 -1.8835 -0.0208  1.7081
  172SOL    HW3  762   2.645   3.136   0.514 -0.6213  0.6901 -0.1133
  172SOL    MW4  763   2.604   3.100   0.447  0.1388  0.1800 -0.3181
  173SOL     OW  764   3.471   3.946   0.444 -0.3976 -0.6631  0.4996
  173SOL    HW2  765   3.390   3.987   0.413 -1.2663 -1.2524  1.8820
  173SOL    HW3  766   3.445   3.855   0.462  0.6843 -0.9616  0.5523
  173SOL    MW4  767   3.457   3.940   0.443 -0.3695 -0.7803  0.6889
  174SOL     OW  768   3.056   4.509   0.489 -0.3049 -0.0584 -0.1027
  174SOL    HW2  769   3.014   4.496   0.574  1.7806 -0.4322  0.8912
  174SOL    HW3  770   3.086   4.600   0.491 -1.2721  0.2892 -0.9187
  174SOL    MW4  771   3.054   4.519   0.500 -0.1576 -0.0620 -0.0793
  175SOL     OW  772   3.419   4.623   0.435  0.0889 -0.1205  0.3317
  175SOL    HW2  773   3.340   4.675   0.452  0.4725  0.4600  0.3473
  175SOL    HW3  774   3.391   4.533   0.447 -0.4671  0.1101  0.7774
  175SOL    MW4  775   3.405   4.618   0.439  0.0660 -0.0129  0.3926
  176SOL     OW  776   3.180   0.096   0.480  0.4383 -0.1683 -0.6324
  176SOL    HW2  777   3.173   0.135   0.567 -1.1564 -1.2334 -0.2541
  176SOL    HW3  778   3.129   0.153   0.423  0.2660 -0.2645 -0.5762
  176SOL    MW4  779   3.172   0.108   0.484  0.2053 -0.3215 -0.5750
  177SOL     OW  780   3.068   3.634   0.450 -0.0972 -0.2454  0.0682
  177SOL    HW2  781   3.163   3.639   0.457 -0.0123 -1.6622  0.0450
  177SOL    HW3  782   3.051   3.550   0.407 -1.3736 -0.2202  0.4939
  177SOL    MW4  783   3.078   3.623   0.445 -0.2544 -0.4292  0.1214
  178SOL     OW  784   2.942   1.076   0.122  0.6890 -0.0332  0.2274
  178SOL    HW2  785   2.862   1.083   0.174  0.1193 -0.9608 -0.5072
  178SOL    HW3  786   2.926   1.133   0.046 -0.5142 -2.4851 -1.4359
  178SOL    MW4  787   2.929   1.085   0.119  0.4547 -0.4791 -0.0890
  179SOL     OW  788   3.504   0.933   0.638 -0.3516  0.3027  0.2330
  179SOL    HW2  789   3.553   0.864   0.682 -0.8528 -0.2045  0.0019
  179SOL    HW3  790   3.557   0.957   0.563 -0.0533  0.3530  0.4593
  179SOL    MW4  791   3.517   0.927   0.634 -0.3786  0.2424  0.2324
  180SOL     OW  792   2.568   4.280   0.518 -0.1169  0.2525 -0.1919
  180SOL    HW2  793   2.525   4.337   0.454  0.1534 -0.4169 -0.9747
  180SOL    HW3  794   2.548   4.320   0.603 -2.9061 -0.4554 -0.4760
  180SOL    MW4  795   2.560   4.293   0.521 -0.4492  0.0710 -0.3327
  181SOL     OW  796   3.208   1.111   0.182  0.4844  0.4127 -0.0439
  181SOL    HW2  797   3.205   1.203   0.208  0.4239  0.1584  0.8557
  181SOL    HW3  798   3.118   1.089   0.161  0.5961  0.7313 -0.8800
  181SOL    MW4  799   3.196   1.120   0.183  0.4909  0.4210 -0.0355
  182SOL     OW  800   3.323   0.648   0.534  0.5331  0.1187 -0.6627
  182SOL    HW2  801   3.394   0.583   0.541  0.4277  0.0679 -0.0608
  182SOL    HW3  802   3.243   0.596   0.531  0.3965  0.2441  0.6121
  182SOL    MW4  803   3.322   0.632   0.534  0.5009  0.1285 -0.4151
  183SOL     OW  804   3.679   1.388   0.428 -0.1231  0.2196  0.2256
  183SOL    HW2  805   3.666   1.478   0.458 -0.4178  0.7395 -1.3838
  183SOL    HW3  806   3.591   1.356   0.408  0.0471 -0.1533  0.0674
  183SOL    MW4  807   3.666   1.396   0.429 -0.1395  0.2390 -0.0076
  184SOL     OW  808   3.090   2.153   0.415 -0.3675 -0.2967  0.4208
  184SOL    HW2  809   3.052   2.126   0.498 -2.4891 -0.8180 -0.6988
  184SOL    HW3  810   3.026   2.128   0.349  1.7874 -0.9731 -1.5092
  184SOL    MW4  811   3.077   2.146   0.417 -0.3633 -0.4549  0.0184
  185SOL     OW  812   3.190   1.368   0.318  0.3404  0.2839  0.4095
  185SOL    HW2  813   3.169   1.461   0.329  1.4748  0.5350  0.5448
  185SOL    HW3  814   3.278   1.359   0.356  0.2791 -0.8219  0.2977
  185SOL    MW4  815   3.199   1.379   0.324  0.4818  0.1711  0.4126
  186SOL     OW  816   3.361   2.022   0.432  0.1184  0.2286  0.5780
  186SOL    HW2  817   3.286   2.075   0.406  1.3152  2.5587  1.7011
  186SOL    HW3  818   3.362   2.027   0.528  1.4164 -0.1359  0.5956
  186SOL    MW4  819   3.352   2.030   0.441  0.4475  0.4880  0.7285
  187SOL     OW  820   3.197   2.423   0.444  0.1086  0.4851  0.1082
  187SOL    HW2  821   3.154   2.350   0.399  2.2846 -0.8600  0.1401
  187SOL    HW3  822   3.186   2.404   0.537 -2.7975  2.3235  0.2076
  187SOL    MW4  823   3.190   2.411   0.450  0.0124  0.5500  0.1255
  188SOL     OW  824   4.159   2.445   0.264 -0.4935  0.2336  0.5299
  188SOL    HW2  825   4.123   2.531   0.285  1.2660  1.5023 -1.5214
  188SOL    HW3  826   4.139   2.432   0.172  2.8228  0.2784 -0.2597
  188SOL    MW4  827   4.151   2.454   0.255  0.1764  0.4070  0.1551
  189SOL     OW  828   2.994   3.397   0.361 -0.1995  0.7025  0.2455
  189SOL    HW2  829   2.899   3.385   0.365 -0.0263 -0.5366  0.8670
  189SOL    HW3  830   3.020   3.352   0.281  0.0180 -0.0843  0.7514
  189SOL    MW4  831   2.985   3.389   0.351 -0.1483  0.4351  0.3942
  190SOL     OW  832   2.937   2.562   0.434  0.4394 -0.0029  0.3940
  190SOL    HW2  833   2.902   2.533   0.518  1.9201  0.4500  1.1841
  190SOL    HW3  834   3.029   2.533   0.435  1.1076  2.0344 -0.0837
  190SOL    MW4  835   2.945   2.554   0.445  0.7229  0.3257  0.4352
  191SOL     OW  836   2.909   2.842   0.726 -0.2008  0.2310 -0.2081
  191SOL    HW2  837   2.917   2.861   0.633  0.5371  1.9662  0.1864
  191SOL    HW3  838   2.979   2.779   0.744 -0.3208 -0.0753 -0.8248
  191SOL    MW4  839   2.920   2.836   0.716 -0.1192  0.4191 -0.2374
  192SOL     OW  840   2.991   0.252   0.343 -0.3779 -0.6429 -0.4305
  192SOL    HW2  841   2.897   0.234   0.354 -0.1891 -2.4048 -1.4774
  192SOL    HW3  842   3.004   0.254   0.249  0.2421  1.9175 -0.3205
  192SOL    MW4  843   2.980   0.250   0.332 -0.2711 -0.5375 -0.5541
  193SOL     OW  844   2.891   3.863   0.495  1.1018  0.1071  0.5153
  193SOL    HW2  845   2.923   3.919   0.425 -2.0709  0.1872 -0.9694
  193SOL    HW3  846   2.944   3.784   0.489  1.8156  0.6943 -1.0785
  193SOL    MW4  847   2.902   3.860   0.485  0.7770  0.1950  0.1092
  194SOL     OW  848   3.558   3.415   0.383 -0.1331 -0.2001 -0.2554
  194SOL    HW2  849   3.644   3.444   0.414 -0.1277  0.3817 -0.8135
  194SOL    HW3  850   3.576   3.334   0.335 -0.2875 -1.7956  2.2551
  194SOL    MW4  851   3.572   3.408   0.381 -0.1526 -0.3335  0.0022
  195SOL     OW  852   3.535   3.132   0.273  0.2093 -0.6006  0.4353
  195SOL    HW2  853   3.488   3.127   0.357 -0.7621 -0.0209 -0.0722
  195SOL    HW3  854   3.506   3.054   0.225 -0.0882 -0.3475  0.2013
  195SOL    MW4  855   3.525   3.121   0.278  0.0422 -0.4907  0.3375
  196SOL     OW  856   3.537   2.738   0.390  0.2567  0.0821 -0.2889
  196SOL    HW2  857   3.488   2.764   0.468 -0.4267  0.0098 -0.6933
  196SOL    HW3  858   3.524   2.643   0.384 -0.7859  0.2858 -1.2444
  196SOL    MW4  859   3.529   2.729   0.400  0.0288  0.0992 -0.4683
  197SOL     OW  860   3.226   4.100   0.434 -0.2507  0.5926 -0.0579
  197SOL    HW2  861   3.141   4.089   0.391  0.3672 -1.7899 -0.7197
  197SOL    HW3  862   3.216   4.058   0.519 -0.5083  2.6039  0.9396
  197SOL    MW4  863   3.213   4.093   0.439 -0.2031  0.5441 -0.0136
  198SOL     OW  864   1.941   3.667   0.311 -0.4082  0.3900 -0.0770
  198SOL    HW2  865   2.018   3.691   0.363 -0.6200 -0.0357  0.4404
  198SOL    HW3  866   1.973   3.605   0.246 -0.7726 -1.7993  1.7783
  198SOL    MW4  867   1.956   3.662   0.310 -0.4843  0.0448  0.2361
  199SOL     OW  868   0.189   0.169   0.524 -0.3059  0.3129  0.4024
  199SOL    HW2  869   0.234   0.087   0.542 -0.0676  0.3496 -0.0099
  199SOL    HW3  870   0.260   0.234   0.521 -0.5060  0.5542  0.8553
  199SOL    MW4  871   0.205   0.167   0.526 -0.3008  0.3496  0.4078
  200SOL     OW  872   4.107   0.062   0.445 -0.0613  0.1615  0.3271
  200SOL    HW2  873   4.089   0.041   0.537 -0.0114  1.4372  0.6388
  200SOL    HW3  874   4.194   0.103   0.446  0.7015 -1.3827 -0.5227
  200SOL    MW4  875   4.116   0.064   0.458  0.0453  0.1261  0.2561
  201SOL     OW  876   3.586   0.195   0.460 -0.5727  0.1635 -0.5636
  201SOL    HW2  877   3.673   0.194   0.419 -1.1189  0.9506 -1.7552
  201SOL    HW3  878   3.544   0.116   0.428 -0.2124 -0.3635  0.2329
  201SOL    MW4  879   3.592   0.185   0.451 -0.5972  0.1978 -0.6157
  202SOL     OW  880   3.642   0.905   0.377 -0.1793  0.1854 -0.6262
  202SOL    HW2  881   3.720   0.934   0.329 -0.4458  1.0586 -0.5468
  202SOL    HW3  882   3.669   0.825   0.421  0.4989  0.1617 -1.0728
  202SOL    MW4  883   3.656   0.898   0.376 -0.1249  0.2974 -0.6747
  203SOL     OW  884   4.107   0.612   0.403  0.2727 -0.1356  0.0432
  203SOL    HW2  885   4.030   0.556   0.404  0.0914  0.1069 -0.3514
  203SOL    HW3  886   4.181   0.550   0.397  0.0557 -0.3116 -0.7875
  203SOL    MW4  887   4.107   0.596   0.403  0.2198 -0.1268 -0.1185
  204SOL     OW  888   4.055   0.871   0.476 -0.0824  0.3298 -0.0518
  204SOL    HW2  889   4.132   0.921   0.449  0.3393 -0.4622 -0.3642
  204SOL    HW3  890   4.077   0.780   0.452 -0.7960 -0.0069  0.5644
  204SOL    MW4  891   4.068   0.865   0.469 -0.1211  0.1809 -0.0117
  205SOL     OW  892   3.885   1.011   0.290  0.1703  0.4607  0.4625
  205SOL    HW2  893   3.911   1.020   0.198 -0.6405  0.7846  0.2602
  205SOL    HW3  894   3.960   0.969   0.332  0.3564 -0.1309 -0.4405
  205SOL    MW4  895   3.898   1.007   0.283  0.0877  0.4255  0.3167
  206SOL     OW  896   0.365   2.118   0.349  0.3473 -0.4361  0.3434
  206SOL    HW2  897   0.377   2.087   0.259 -0.5714  0.8890 -0.2503
  206SOL    HW3  898   0.294   2.064   0.384  1.6009 -1.8639  0.7335
  206SOL    MW4  899   0.358   2.107   0.342  0.3915 -0.4494  0.3165
  207SOL     OW  900   0.674   1.657   0.324 -0.1732  0.0192 -0.2551
  207SOL    HW2  901   0.736   1.584   0.319 -0.7783 -0.7807  2.8290
  207SOL    HW3  902   0.730   1.734   0.334  0.4378 -0.0682 -2.6179
  207SOL    MW4  903   0.690   1.657   0.325 -0.1725 -0.0979 -0.1599
  208SOL     OW  904   4.168   1.383   0.499  0.4730 -0.8846 -0.0481
  208SOL    HW2  905   4.216   1.351   0.575 -0.1293 -0.3871  0.5535
  208SOL    HW3  906   4.092   1.324   0.492  0.3824 -0.7633 -0.0898
  208SOL    MW4  907   4.164   1.371   0.508  0.3819 -0.8030  0.0258
  209SOL     OW  908   3.881   1.804   0.413  0.2274 -0.1110  0.5632
  209SOL    HW2  909   3.800   1.757   0.430  0.6605 -1.2166 -0.3871
  209SOL    HW3  910   3.857   1.897   0.419 -0.6695 -0.4227  2.2814
  209SOL    MW4  911   3.867   1.810   0.416  0.1659 -0.2980  0.6645
  210SOL     OW  912   3.802   2.816   0.434 -0.0497  0.0475 -0.0184
  210SOL    HW2  913   3.799   2.798   0.528  1.3735 -2.3237 -0.3660
  210SOL    HW3  914   3.728   2.767   0.398 -0.9416  1.4190 -0.0987
  210SOL    MW4  915   3.792   2.807   0.442  0.0203 -0.0844 -0.0749
  211SOL     OW  916   3.596   2.180   0.351 -0.2773  0.3993 -0.6127
  211SOL    HW2  917   3.518   2.133   0.383  0.2359 -0.4011 -0.5103
  211SOL    HW3  918   3.576   2.272   0.365 -0.7631  0.1414  0.4349
  211SOL    MW4  919   3.583   2.186   0.357 -0.2739  0.2596 -0.4609
  212SOL     OW  920   2.616   2.365   0.427  0.4339  0.3624  0.1109
  212SOL    HW2  921   2.530   2.405   0.437  0.1724 -0.1725  0.0616
  212SOL    HW3  922   2.663   2.387   0.508 -0.5140 -1.1638  1.1052
  212SOL    MW4  923   2.611   2.373   0.439  0.2744  0.0904  0.2356
  213SOL     OW  924   2.965   4.091   0.320 -0.2294 -0.1924  0.1464
  213SOL    HW2  925   2.917   4.171   0.341 -0.7197 -0.5606  0.4497
  213SOL    HW3  926   2.974   4.094   0.225  1.1090  0.9753  0.3012
  213SOL    MW4  927   2.960   4.102   0.310 -0.1173 -0.0873  0.2069
  214SOL     OW  928   3.189   2.959   0.400 -0.1928  0.2160  0.0988
  214SOL    HW2  929   3.266   2.962   0.342  0.6298  0.6490  1.1972
  214SOL    HW3  930   3.196   3.038   0.453 -1.1895  0.0500  0.4929
  214SOL    MW4  931   3.200   2.970   0.399 -0.2160  0.2511  0.2958
  215SOL     OW  932   4.022   2.984   0.214 -0.6102  0.2479  0.2008
  215SOL    HW2  933   3.963   3.049   0.251 -1.4236 -0.5401  0.3204
  215SOL    HW3  934   4.091   3.034   0.171 -0.4787  1.1717  1.4916
  215SOL    MW4  935   4.024   2.999   0.213 -0.6995  0.2656  0.3869
  216SOL     OW  936   3.979   3.278   0.484 -0.0575  0.3248 -0.1160
  216SOL    HW2  937   3.975   3.245   0.574  0.6450 -0.4502 -0.3702
  216SOL    HW3  938   3.920   3.221   0.435  1.1783 -0.6114 -0.5595
  216SOL    MW4  939   3.971   3.266   0.489  0.1981  0.0989 -0.2080
  217SOL     OW  940   4.058   3.716   0.384  0.1939 -0.1123  0.3750
  217SOL    HW2  941   3.987   3.652   0.392  0.6269 -0.5922  0.4408
  217SOL    HW3  942   4.105   3.689   0.304  1.2585 -0.7685  1.2094
  217SOL    MW4  943   4.055   3.704   0.374  0.3910 -0.2623  0.4938
  218SOL     OW  944   3.495   2.457   0.419 -0.7006 -0.1106 -0.4656
  218SOL    HW2  945   3.546   2.454   0.500  0.4130 -0.0818 -1.1482
  218SOL    HW3  946   3.404   2.454   0.448 -0.3392  0.6311  0.8249
  218SOL    MW4  947   3.490   2.456   0.434 -0.5062 -0.0088 -0.3854
  219SOL     OW  948   3.371   3.652   0.495 -0.2866  0.1249 -0.3832
  219SOL    HW2  949   3.433   3.589   0.458 -1.5125 -1.1609 -0.3083
  219SOL    HW3  950   3.375   3.635   0.590  0.6708  1.3801 -0.1887
  219SOL    MW4  951   3.380   3.641   0.503 -0.3219  0.1209 -0.3477
  220SOL     OW  952   4.296   3.652   0.504  0.1927 -0.1221 -0.2478
  220SOL    HW2  953   4.362   3.721   0.498  0.8865 -0.7995 -0.4618
  220SOL    HW3  954   4.219   3.688   0.460  0.0130  1.1419  1.0545
  220SOL    MW4  955   4.294   3.666   0.498  0.2608 -0.0448 -0.1042
  221SOL     OW  956   3.290   4.376   0.468  0.3319 -0.2694  0.1758
  221SOL    HW2  957   3.274   4.287   0.435  0.4384 -0.9204  1.8165
  221SOL    HW3  958   3.203   4.416   0.471  0.3946  0.0192 -1.4703
  221SOL    MW4  959   3.276   4.369   0.464  0.3543 -0.3171  0.1751
  222SOL     OW  960   3.811   4.318   0.495  0.5807  0.2812  0.1399
  222SOL    HW2  961   3.781   4.228   0.484  2.1342 -0.0476 -1.6762
  222SOL    HW3  962   3.810   4.333   0.589 -1.3640 -1.0409  0.3512
  222SOL    MW4  963   3.807   4.308   0.506  0.5291  0.0634 -0.0718
  223SOL     OW  964   4.398   0.210   0.496 -0.3074  0.0273 -0.0976
  223SOL    HW2  965   4.379   0.200   0.589  0.8688  1.3773  0.2942
  223SOL    HW3  966   4.493   0.201   0.490 -0.2625  1.1099 -1.0143
  223SOL    MW4  967   4.408   0.207   0.508 -0.1469  0.3483 -0.1669
  224SOL     OW  968   4.399   1.314   0.332 -0.1536  0.2721  0.2921
  224SOL    HW2  969   4.338   1.297   0.404 -0.0358  0.7325  0.5065
  224SOL    HW3  970   4.377   1.403   0.303 -1.5160 -0.6345 -1.5557
  224SOL    MW4  971   4.388   1.323   0.338 -0.3176  0.2133  0.0766
  225SOL     OW  972   4.185   1.958   0.496 -0.6931 -0.0074  0.3168
  225SOL    HW2  973   4.141   2.040   0.476  0.2341  0.3755 -0.1806
  225SOL    HW3  974   4.117   1.891   0.486 -1.2192  0.5977 -0.1829
  225SOL    MW4  975   4.170   1.960   0.492 -0.6399  0.1228  0.1852
  226SOL     OW  976   3.855   0.142   0.388  0.3132  0.1420 -0.0126
  226SOL    HW2  977   3.948   0.124   0.376  0.6460  0.4616  1.9128
  226SOL    HW3  978   3.814   0.056   0.395  0.5520  0.0132 -0.1924
  226SOL    MW4  979   3.862   0.129   0.387  0.3886  0.1672  0.2177
  227SOL     OW  980   0.097   0.592   0.460  0.4098  0.1734 -0.7569
  227SOL    HW2  981   0.123   0.565   0.548  0.0309 -1.1123 -1.0287
  227SOL    HW3  982   0.180   0.598   0.411  0.4792 -0.7288 -0.7519
  227SOL    MW4  983   0.112   0.590   0.465  0.3690 -0.1153 -0.7921
  228SOL     OW  984   3.721   4.571   0.400  0.0368 -0.0355 -0.1510
  228SOL    HW2  985   3.748   4.486   0.434 -0.0712  0.7845  2.0745
  228SOL    HW3  986   3.626   4.562   0.389  0.3506 -0.9663 -2.2224
  228SOL    MW4  987   3.712   4.559   0.403  0.0639 -0.0501 -0.1307
  229SOL     OW  988   4.306   1.005   0.371 -0.0963 -0.0049 -0.4450
  229SOL    HW2  989   4.365   0.955   0.426  0.9643 -0.1659 -1.6979
  229SOL    HW3  990   4.359   1.077   0.337 -0.2761 -0.7822 -2.4768
  229SOL    MW4  991   4.321   1.008   0.374  0.0196 -0.1287 -0.8784
  230SOL     OW  992   4.387   0.790   0.528 -0.6667 -0.3176  0.4172
  230SOL    HW2  993   4.298   0.758   0.515 -0.7775  0.0400  0.3146
  230SOL    HW3  994   4.443   0.717   0.500 -0.9291 -0.6554  0.7792
  230SOL    MW4  995   4.383   0.776   0.523 -0.7162 -0.3150  0.4514
  231SOL     OW  996   3.852   2.070   0.461 -0.0320 -0.6444 -0.7120
  231SOL    HW2  997   3.771   2.114   0.435 -0.3067 -1.1232 -0.6766
  231SOL    HW3  998   3.920   2.137   0.453 -0.6479  0.1535  0.6077
  231SOL    MW4  999   3.851   2.085   0.456 -0.1497 -0.6022 -0.5332
  232SOL     OW 1000   4.117   1.670   0.457  0.2647 -0.0353 -0.2419
  232SOL    HW2 1001   4.032   1.705   0.431  0.0282 -0.1987  0.2986
  232SOL    HW3 1002   4.103   1.576   0.463  0.8258 -0.2019 -1.4168
  232SOL    MW4 1003   4.104   1.662   0.454  0.3076 -0.0787 -0.3256
  233SOL     OW 1004   4.423   2.001   0.352 -0.2010 -0.2841 -0.0107
  233SOL    HW2 1005   4.410   2.095   0.344  0.7048 -0.0155  1.4336
  233SOL    HW3 1006   4.347   1.970   0.401  0.2066 -0.0756  0.7612
  233SOL    MW4 1007   4.411   2.009   0.358 -0.0277 -0.2210  0.2817
  234SOL     OW 1008   4.417   1.716   0.357  0.5315  0.2503 -0.0842
  234SOL    HW2 1009   4.413   1.802   0.313 -0.3506  0.1239 -0.2759
  234SOL    HW3 1010   4.328   1.703   0.390  0.6540 -0.6147 -0.0996
  234SOL    MW4 1011   4.404   1.726   0.355  0.4315  0.1194 -0.1116
  235SOL     OW 1012   0.087   2.458   0.478 -0.3297 -0.2977  0.3684
  235SOL    HW2 1013   0.071   2.428   0.567  1.2774 -0.3484  0.6612
  235SOL    HW3 1014   0.181   2.445   0.465  0.2013  3.3615  0.0254
  235SOL    MW4 1015   0.098   2.452   0.488 -0.0476  0.1783  0.3618
  236SOL     OW 1016   4.230   3.161   0.129 -0.1838  0.1596 -0.1244
  236SOL    HW2 1017   4.290   3.087   0.137 -0.5016 -0.2130 -1.2508
  236SOL    HW3 1018   4.216   3.189   0.220  2.7609  1.1141  0.1056
  236SOL    MW4 1019   4.236   3.155   0.142  0.1626  0.2363 -0.2426
  237SOL     OW 1020   4.385   2.266   0.359  0.0041 -0.2995  0.2582
  237SOL    HW2 1021   4.323   2.328   0.321 -0.4496 -0.6010  0.4931
  237SOL    HW3 1022   4.456   2.320   0.393 -0.8498  0.1699  1.3333
  237SOL    MW4 1023   4.386   2.281   0.359 -0.1683 -0.2773  0.4310
  238SOL     OW 1024   0.004   3.833   0.523  0.5209 -0.1748  0.1942
  238SOL    HW2 1025   0.011   3.847   0.618 -0.4638 -0.3231  0.2853
  238SOL    HW3 1026   0.079   3.778   0.502 -0.3089 -1.7181  1.1905
  238SOL    MW4 1027   0.015   3.828   0.533  0.2813 -0.3982  0.3377
  239SOL     OW 1028   4.261   3.577   0.202  0.3496 -0.4674 -0.0726
  239SOL    HW2 1029   4.251   3.513   0.132  1.0670 -1.8157  1.0302
  239SOL    HW3 1030   4.295   3.655   0.159  0.5569 -1.1974 -1.2500
  239SOL    MW4 1031   4.264   3.579   0.187  0.4716 -0.7415 -0.0824
  240SOL     OW 1032   0.348   3.305   0.469  0.0812 -0.1975 -0.1171
  240SOL    HW2 1033   0.401   3.384   0.456  1.1263 -1.1156 -1.6744
  240SOL    HW3 1034   0.378   3.269   0.552 -2.1866  2.3665  1.9041
  240SOL    MW4 1035   0.359   3.311   0.478 -0.0801  0.0198 -0.0559
  241SOL     OW 1036   3.848   3.525   0.452 -0.2402 -0.0300  0.0028
  241SOL    HW2 1037   3.899   3.445   0.453  1.7366  1.2006  0.3710
  241SOL    HW3 1038   3.817   3.535   0.542 -0.3701 -0.2983 -0.0114
  241SOL    MW4 1039   3.851   3.516   0.464  0.0036  0.0968  0.0495
  242SOL     OW 1040   4.249   3.295   0.383 -0.1140  0.0771 -0.2595
  242SOL    HW2 1041   4.292   3.219   0.421  0.5602 -1.0681 -3.1319
  242SOL    HW3 1042   4.156   3.284   0.405  0.0419 -1.3732 -0.3056
  242SOL    MW4 1043   4.242   3.284   0.391 -0.0048 -0.2654 -0.6446
  243SOL     OW 1044   4.189   4.184   0.433  0.1653  0.0441  0.4762
  243SOL    HW2 1045   4.148   4.267   0.460 -0.9056 -0.5929  0.8149
  243SOL    HW3 1046   4.118   4.120   0.436  1.4075 -1.2984  2.1252
  243SOL    MW4 1047   4.174   4.187   0.437  0.1884 -0.2174  0.7384
  244SOL     OW 1048   4.015   3.983   0.499  0.1120  0.2651  0.4323
  244SOL    HW2 1049   4.056   3.900   0.472  0.7462  0.6617  0.1598
  244SOL    HW3 1050   3.924   3.976   0.470  0.4857  0.1858 -0.7331
  244SOL    MW4 1051   4.008   3.971   0.492  0.2446  0.3068  0.2426
  245SOL     OW 1052   3.736   4.055   0.461 -0.3777  0.5395  0.0436
  245SOL    HW2 1053   3.741   4.020   0.550  0.1929  1.3933  0.3508
  245SOL    HW3 1054   3.648   4.030   0.431 -1.6119  2.5462  1.8287
  245SOL    MW4 1055   3.725   4.047   0.469 -0.4652  0.9165  0.3196
  246SOL     OW 1056   4.103   4.442   0.531 -0.2486 -0.0575  0.1529
  246SOL    HW2 1057   4.009   4.430   0.514 -0.5403  0.5166  1.3167
  246SOL    HW3 1058   4.124   4.525   0.488 -0.0079 -0.7492 -1.0887
  246SOL    MW4 1059   4.093   4.452   0.523 -0.2556 -0.0730  0.1427
  247SOL     OW 1060   0.220   0.071   0.945  0.3977  0.3230  0.2487
  247SOL    HW2 1061   0.177   0.017   0.879  0.3096 -0.9153  1.2987
  247SOL    HW3 1062   0.167   0.151   0.951 -0.0531  0.0820 -0.5826
  247SOL    MW4 1063   0.208   0.075   0.937  0.3266  0.1278  0.2776
  248SOL     OW 1064   4.347   0.210   0.764  0.2460 -0.2235  0.2793
  248SOL    HW2 1065   4.318   0.129   0.806  0.8325 -0.0734  0.9737
  248SOL    HW3 1066   4.423   0.238   0.814  2.0913 -1.0271 -1.9798
  248SOL    MW4 1067   4.353   0.203   0.776  0.5674 -0.3097  0.0728
  249SOL     OW 1068   0.072   0.311   0.917  0.0048 -0.1910 -0.0245
  249SOL    HW2 1069   0.064   0.352   1.003 -0.7212  1.0863 -0.6779
  249SOL    HW3 1070   0.086   0.384   0.857  1.0223 -1.1205 -0.9259
  249SOL    MW4 1071   0.073   0.326   0.921  0.0433 -0.1451 -0.2297
  250SOL     OW 1072   0.154   0.519   0.728 -0.0068 -0.0301 -0.1787
  250SOL    HW2 1073   0.234   0.470   0.747 -0.5524 -1.0649 -0.4735
  250SOL    HW3 1074   0.179   0.611   0.737  1.0522 -0.3586  0.3456
  250SOL    MW4 1075   0.168   0.524   0.732  0.0609 -0.2100 -0.1484
  251SOL     OW 1076   0.249   0.764   0.797 -0.1726  0.0593 -0.0052
  251SOL    HW2 1077   0.260   0.751   0.891  2.1764  0.2325 -0.2167
  251SOL    HW3 1078   0.171   0.819   0.789 -0.2658  0.2204  1.8599
  251SOL    MW4 1079   0.240   0.770   0.808  0.1250  0.1034  0.2130
  252SOL     OW 1080   4.489   0.893   0.765 -0.1518  0.3281  0.3277
  252SOL    HW2 1081   4.430   0.852   0.828 -0.3886 -1.3151 -0.9322
  252SOL    HW3 1082   4.461   0.859   0.680  1.6989  0.6354 -0.4278
  252SOL    MW4 1083   4.477   0.884   0.762  0.0610  0.1518  0.0618
  253SOL     OW 1084   0.038   1.173   0.786 -0.0493 -0.4731 -0.3184
  253SOL    HW2 1085   0.030   1.184   0.881 -0.5775 -1.0134 -0.3011
  253SOL    HW3 1086   0.020   1.080   0.770 -1.4307 -0.0866 -1.0982
  253SOL    MW4 1087   0.035   1.162   0.797 -0.3012 -0.4934 -0.4191
  254SOL     OW 1088   0.258   1.293   0.696  0.3735  0.2155  0.0053
  254SOL    HW2 1089   0.172   1.255   0.714  0.9903 -0.4111  1.6884
  254SOL    HW3 1090   0.247   1.337   0.611 -1.7000  0.4785  0.3764
  254SOL    MW4 1091   0.245   1.294   0.687  0.1813  0.1675  0.2763
  255SOL     OW 1092   0.238   1.522   0.839 -0.0690  0.3320  0.1171
  255SOL    HW2 1093   0.310   1.573   0.801  0.1620 -0.5934 -0.7000
  255SOL    HW3 1094   0.241   1.439   0.793 -2.7007  0.8701 -1.1102
  255SOL    MW4 1095   0.248   1.518   0.828 -0.3857  0.2807 -0.1526
  256SOL     OW 1096   0.009   1.607   0.737 -0.3173 -0.3996 -0.3515
  256SOL    HW2 1097  -0.067   1.571   0.783  0.1421 -0.7321  0.1546
  256SOL    HW3 1098   0.084   1.571   0.784  0.1523  0.5131 -0.4039
  256SOL    MW4 1099   0.009   1.597   0.749 -0.1948 -0.3231 -0.2916
  257SOL     OW 1100   4.469   1.847   0.893 -0.1577 -0.2255 -0.1356
  257SOL    HW2 1101   4.545   1.897   0.864 -0.1800 -0.9963 -1.5732
  257SOL    HW3 1102   4.480   1.761   0.854 -0.5061 -1.1252  1.6971
  257SOL    MW4 1103   4.480   1.842   0.884 -0.2069 -0.4460 -0.0834
  258SOL     OW 1104   0.161   2.027   0.768  0.1669 -0.2651  0.6541
  258SOL    HW2 1105   0.185   2.117   0.791 -0.4680 -0.0368  0.4468
  258SOL    HW3 1106   0.163   2.026   0.672 -1.9544  0.1289  0.5960
  258SOL    MW4 1107   0.165   2.039   0.758 -0.1968 -0.1831  0.6191
  259SOL     OW 1108   0.235   2.284   0.819  0.3036  0.2414 -0.2003
  259SOL    HW2 1109   0.253   2.293   0.913 -0.1007  1.4683 -0.2261
  259SOL    HW3 1110   0.296   2.345   0.777  2.3385 -2.2111 -0.9540
  259SOL    MW4 1111   0.245   2.294   0.826  0.5188  0.0796 -0.3031
  260SOL     OW 1112   4.485   2.407   0.727  0.5561  0.0928  0.3855
  260SOL    HW2 1113   4.417   2.349   0.760  0.7301 -0.0908  0.4240
  260SOL    HW3 1114   4.565   2.379   0.772  1.3813 -1.9919 -2.2704
  260SOL    MW4 1115   4.487   2.396   0.738  0.6881 -0.2062  0.0401
  261SOL     OW 1116   4.482   2.691   0.816  0.3851  0.2582  0.2176
  261SOL    HW2 1117   4.463   2.681   0.909 -0.8015 -1.2292 -0.1455
  261SOL    HW3 1118   4.478   2.601   0.782  0.4120  0.8282 -1.3194
  261SOL    MW4 1119   4.479   2.678   0.824  0.2322  0.1373 -0.0331
  262SOL     OW 1120   0.220   2.803   0.718  0.0930  0.2927  0.0770
  262SOL    HW2 1121   0.139   2.754   0.731 -0.2799  0.7063 -0.6679
  262SOL    HW3 1122   0.234   2.802   0.624  1.4218 -0.5115  0.2778
  262SOL    MW4 1123   0.211   2.797   0.708  0.2191  0.2413  0.0052
  263SOL     OW 1124   0.219   3.066   0.815  0.3040 -0.3125  0.1310
  263SOL    HW2 1125   0.228   3.078   0.909 -0.8219 -1.3067  0.3736
  263SOL    HW3 1126   0.214   2.971   0.803  0.5337 -0.1968 -0.9362
  263SOL    MW4 1127   0.220   3.055   0.826  0.1857 -0.4284  0.0222
  264SOL     OW 1128   0.010   3.186   0.693 -0.2528 -0.1799  0.1969
  264SOL    HW2 1129  -0.020   3.139   0.615 -0.3770 -1.4959  1.0204
  264SOL    HW3 1130   0.071   3.126   0.735 -0.4533  0.3714  1.3019
  264SOL    MW4 1131   0.014   3.172   0.688 -0.2952 -0.2806  0.4514
  265SOL     OW 1132   4.234   3.567   0.762 -0.4810 -0.2341  0.0676
  265SOL    HW2 1133   4.237   3.649   0.811  1.2402 -0.0737 -0.2648
  265SOL    HW3 1134   4.234   3.593   0.670  1.0596 -0.5949 -0.0554
  265SOL    MW4 1135   4.234   3.581   0.757 -0.0501 -0.2608  0.0075
  266SOL     OW 1136   4.490   3.450   0.812  0.2004 -0.1551 -0.0238
  266SOL    HW2 1137   4.494   3.359   0.782 -0.3617  0.3397 -1.6706
  266SOL    HW3 1138   4.399   3.477   0.796  0.7700  1.1941 -1.0881
  266SOL    MW4 1139   4.478   3.441   0.806  0.2017  0.0882 -0.3815
  267SOL     OW 1140   0.215   3.583   0.716 -0.1403  0.6368  0.1006
  267SOL    HW2 1141   0.223   3.644   0.790 -0.9068  0.9436 -0.0609
  267SOL    HW3 1142   0.128   3.544   0.727  0.2633 -0.2849  0.0866
  267SOL    MW4 1143   0.205   3.586   0.728 -0.1881  0.5558  0.0774
  268SOL     OW 1144   0.210   3.816   0.886 -0.2300 -0.4850  0.0517
  268SOL    HW2 1145   0.134   3.872   0.869  0.4365  0.5381  0.3827
  268SOL    HW3 1146   0.224   3.822   0.981 -0.6126 -1.8197  0.2015
  268SOL    MW4 1147   0.202   3.824   0.896 -0.1925 -0.5262  0.1152
  269SOL     OW 1148   4.470   3.955   0.775  0.2391 -0.3497 -0.3831
  269SOL    HW2 1149   4.431   4.028   0.727 -0.2545  0.1303  0.7119
  269SOL    HW3 1150   4.396   3.913   0.819  0.8599  0.2940  1.3500
  269SOL    MW4 1151   4.455   3.959   0.775  0.2561 -0.2015 -0.0100
  270SOL     OW 1152   0.103   4.285   0.831  0.4405 -0.5542  0.3816
  270SOL    HW2 1153   0.098   4.272   0.926 -0.0348 -1.1583  0.2769
  270SOL    HW3 1154   0.027   4.239   0.796 -0.0517  0.6695 -0.1969
  270SOL    MW4 1155   0.092   4.278   0.839  0.3128 -0.4725  0.2915
  271SOL     OW 1156   0.699   4.612   0.818 -0.2712 -0.4752 -0.4610
  271SOL    HW2 1157   0.699   4.636   0.910 -0.0121 -0.8165 -0.3704
  271SOL    HW3 1158   0.634   4.670   0.778  0.8671  0.8886 -0.3851
  271SOL    MW4 1159   0.690   4.623   0.825 -0.0868 -0.3405 -0.4390
  272SOL     OW 1160   0.456   0.100   0.764  0.3621 -0.1154  0.0666
  272SOL    HW2 1161   0.402   0.082   0.841  0.7687  0.1701  0.4199
  272SOL    HW3 1162   0.416   0.048   0.694  0.7540 -1.4065  0.7765
  272SOL    MW4 1163   0.444   0.091   0.765  0.4675 -0.2480  0.2069
  273SOL     OW 1164   0.387   0.373   0.777 -0.3919  0.1363  0.1757
  273SOL    HW2 1165   0.470   0.419   0.766 -0.0249 -1.0922 -2.5685
  273SOL    HW3 1166   0.411   0.280   0.783 -1.5340 -0.1906 -0.1366
  273SOL    MW4 1167   0.401   0.366   0.776 -0.4941 -0.0689 -0.2276
  274SOL     OW 1168   0.665   0.456   0.722 -0.1363  0.0928  0.5084
  274SOL    HW2 1169   0.744   0.429   0.768 -0.5956  0.1586  1.3489
  274SOL    HW3 1170   0.681   0.434   0.630  0.5179 -0.6594  0.8008
  274SOL    MW4 1171   0.677   0.450   0.716 -0.1105  0.0022  0.6579
  275SOL     OW 1172   0.682   0.748   0.831  0.3611  0.2961 -0.3174
  275SOL    HW2 1173   0.613   0.806   0.800  0.5547  0.1692 -1.0006
  275SOL    HW3 1174   0.664   0.664   0.788  0.6520  0.1269 -0.1099
  275SOL    MW4 1175   0.671   0.744   0.821  0.4250  0.2570 -0.3802
  276SOL     OW 1176   0.467   0.909   0.714 -0.0490  0.2802  0.0542
  276SOL    HW2 1177   0.475   0.997   0.750  0.1701  0.5461 -0.6233
  276SOL    HW3 1178   0.383   0.877   0.747  0.0145  0.6261  0.5544
  276SOL    MW4 1179   0.457   0.917   0.723 -0.0117  0.3609  0.0309
  277SOL     OW 1180   0.480   1.166   0.818 -0.1088  0.1562  0.0461
  277SOL    HW2 1181   0.556   1.212   0.784  0.1725 -0.4629 -0.1697
  277SOL    HW3 1182   0.407   1.198   0.765  0.2999 -0.6749 -1.0389
  277SOL    MW4 1183   0.480   1.176   0.806 -0.0178 -0.0352 -0.1255
  278SOL     OW 1184   0.705   1.290   0.701 -0.0343  0.0400 -0.1801
  278SOL    HW2 1185   0.699   1.379   0.736 -0.2123 -0.0997  0.1431
  278SOL    HW3 1186   0.686   1.300   0.608 -0.1790  0.3220 -0.1220
  278SOL    MW4 1187   0.702   1.303   0.693 -0.0768  0.0588 -0.1297
  279SOL     OW 1188   0.666   1.533   0.836 -0.1870  0.0600  0.1038
  279SOL    HW2 1189   0.677   1.543   0.931  0.7683 -1.0162  0.1260
  279SOL    HW3 1190   0.587   1.581   0.816 -1.6171 -1.4878  1.8076
  279SOL    MW4 1191   0.657   1.540   0.846 -0.2496 -0.2862  0.3315
  280SOL     OW 1192   0.448   1.670   0.743 -0.1357 -0.3148 -0.3244
  280SOL    HW2 1193   0.451   1.759   0.777 -0.6719 -0.5897  0.4424
  280SOL    HW3 1194   0.444   1.681   0.648  2.5518  0.4460 -0.3951
  280SOL    MW4 1195   0.448   1.683   0.735  0.1481 -0.2507 -0.2325
  281SOL     OW 1196   0.401   1.914   0.872 -0.2599 -0.3780 -0.3098
  281SOL    HW2 1197   0.421   1.910   0.965 -0.2230 -0.4338 -0.3205
  281SOL    HW3 1198   0.308   1.935   0.868  0.0301  0.9952 -0.2547
  281SOL    MW4 1199   0.391   1.916   0.884 -0.2167 -0.2041 -0.3040
  282SOL     OW 1200   0.603   2.079   0.762 -0.0232 -0.0065 -0.5425
  282SOL    HW2 1201   0.534   2.031   0.808 -0.5677 -0.5192 -1.8928
  282SOL    HW3 1202   0.588   2.062   0.669  1.5483  0.3852 -0.8944
  282SOL    MW4 1203   0.592   2.071   0.756  0.1123 -0.0224 -0.7671
  283SOL     OW 1204   0.634   2.344   0.846  0.2500 -0.0391  0.0703
  283SOL    HW2 1205   0.632   2.336   0.941 -1.6507 -0.9892 -0.0243
  283SOL    HW3 1206   0.639   2.253   0.815 -0.7502  0.1921 -0.7641
  283SOL    MW4 1207   0.635   2.331   0.854 -0.1328 -0.1338 -0.0524
  284SOL     OW 1208   0.416   2.462   0.702  0.1681  0.7694 -0.2936
  284SOL    HW2 1209   0.500   2.416   0.707 -0.7959 -1.0528 -0.2158
  284SOL    HW3 1210   0.401   2.473   0.608 -0.3235 -0.4888 -0.3713
  284SOL    MW4 1211   0.425   2.457   0.690 -0.0240  0.3631 -0.2936
  285SOL     OW 1212   0.443   2.696   0.865 -0.0647  0.4502 -0.0736
  285SOL    HW2 1213   0.438   2.606   0.834  2.6435  0.5876 -1.0214
  285SOL    HW3 1214   0.364   2.738   0.830 -0.6023 -1.1720 -0.8566
  285SOL    MW4 1215   0.432   2.690   0.856  0.2216  0.2544 -0.3020
  286SOL     OW 1216   0.648   3.053   0.807  0.3836 -0.2352 -0.0484
  286SOL    HW2 1217   0.647   2.963   0.776 -1.6684 -0.5964  0.9785
  286SOL    HW3 1218   0.564   3.089   0.779  1.0713  1.2861 -0.2136
  286SOL    MW4 1219   0.637   3.046   0.799  0.2036 -0.0823  0.0653
  287SOL     OW 1220   0.839   3.229   0.694  0.0515  0.0070  0.1022
  287SOL    HW2 1221   0.841   3.303   0.755 -0.8540  0.4349 -0.3775
  287SOL    HW3 1222   0.771   3.171   0.729 -0.4692  0.2531 -0.4944
  287SOL    MW4 1223   0.831   3.231   0.706 -0.1367  0.0961 -0.0397
  288SOL     OW 1224   0.433   3.195   0.695 -0.3971 -0.4497  0.1283
  288SOL    HW2 1225   0.421   3.274   0.747 -0.2961  0.2804 -0.9551
  288SOL    HW3 1226   0.357   3.141   0.715 -1.0845  0.4442 -0.0586
  288SOL    MW4 1227   0.422   3.198   0.705 -0.4745 -0.2353 -0.0392
  289SOL     OW 1228   0.415   3.428   0.829 -0.0180 -0.0775  0.1315
  289SOL    HW2 1229   0.413   3.442   0.923 -0.1698  1.0143 -0.0296
  289SOL    HW3 1230   0.338   3.474   0.796  0.1017 -0.3480 -0.5440
  289SOL    MW4 1231   0.404   3.436   0.837 -0.0222  0.0308  0.0211
  290SOL     OW 1232   0.643   3.578   0.745 -0.0178  0.3483  0.3825
  290SOL    HW2 1233   0.573   3.519   0.771  0.1740 -0.0832 -0.0840
  290SOL    HW3 1234   0.624   3.660   0.792 -1.4572  0.6061 -0.6130
  290SOL    MW4 1235   0.632   3.581   0.755 -0.1824  0.3254  0.1897
  291SOL     OW 1236   0.622   3.823   0.859  0.1292  0.0576  0.0549
  291SOL    HW2 1237   0.692   3.867   0.811  0.5289  0.5041  1.0371
  291SOL    HW3 1238   0.546   3.880   0.848 -0.1000 -0.4348 -1.0235
  291SOL    MW4 1239   0.621   3.836   0.851  0.1517  0.0515  0.0422
  292SOL     OW 1240   0.407   3.976   0.766 -0.0506 -0.3072 -0.1791
  292SOL    HW2 1241   0.381   4.066   0.787 -0.1965 -0.4673  0.3238
  292SOL    HW3 1242   0.341   3.922   0.809  0.2797 -0.6658 -0.1269
  292SOL    MW4 1243   0.395   3.981   0.775 -0.0263 -0.3757 -0.1059
  293SOL     OW 1244   0.395   4.236   0.855 -0.5064 -0.2138  0.1496
  293SOL    HW2 1245   0.426   4.247   0.945  2.0921 -0.5195 -0.6575
  293SOL    HW3 1246   0.307   4.273   0.855 -0.2917  0.3813  2.6691
  293SOL    MW4 1247   0.388   4.243   0.867 -0.1352 -0.1755  0.3756
  294SOL     OW 1248   0.608   4.354   0.713 -0.5159 -0.4052  0.2170
  294SOL    HW2 1249   0.525   4.326   0.751 -0.4487 -0.6991  0.1553
  294SOL    HW3 1250   0.624   4.441   0.748 -2.1134  0.7174 -1.7275
  294SOL    MW4 1251   0.599   4.362   0.722 -0.7178 -0.2961 -0.0477
  295SOL     OW 1252   1.130   4.578   0.825 -0.2648 -0.0094  0.1419
  295SOL    HW2 1253   1.212   4.615   0.794 -0.1298 -0.2185  0.2496
  295SOL    HW3 1254   1.066   4.649   0.816  0.3248  0.7614  1.8135
  295SOL    MW4 1255   1.132   4.592   0.820 -0.1692  0.0648  0.3766
  296SOL     OW 1256   0.918   0.082   0.747  0.2633  0.0891 -0.3023
  296SOL    HW2 1257   0.899   0.164   0.793  1.2638  0.1458  0.0056
  296SOL    HW3 1258   0.846   0.025   0.772 -0.2151  0.7327 -0.1779
  296SOL    MW4 1259   0.906   0.086   0.757  0.3322  0.1815 -0.2453
  297SOL     OW 1260   0.917   0.359   0.812 -0.1317  0.2594 -0.2990
  297SOL    HW2 1261   0.918   0.372   0.907 -0.7802  0.0219 -0.2609
  297SOL    HW3 1262   0.980   0.423   0.778  1.6400 -1.0182  0.4616
  297SOL    MW4 1263   0.926   0.369   0.820  0.0165  0.0595 -0.1937
  298SOL     OW 1264   1.162   0.488   0.715 -0.3445 -0.2288  0.2362
  298SOL    HW2 1265   1.225   0.438   0.767  0.1525  0.4325  0.2853
  298SOL    HW3 1266   1.169   0.451   0.627 -1.1438 -1.3083  0.6216
  298SOL    MW4 1267   1.172   0.476   0.710 -0.3843 -0.2840  0.2935
  299SOL     OW 1268   1.129   0.764   0.771  0.2672  0.1788  0.1000
  299SOL    HW2 1269   1.151   0.763   0.864  3.2971 -0.1391 -0.5689
  299SOL    HW3 1270   1.145   0.675   0.742  0.0070  0.4473 -0.8784
  299SOL    MW4 1271   1.134   0.752   0.780  0.6325  0.1723 -0.1173
  300SOL     OW 1272   0.893   0.876   0.691  0.3053 -0.0306 -0.3507
  300SOL    HW2 1273   0.968   0.828   0.727  0.4443  0.3728 -0.0909
  300SOL    HW3 1274   0.818   0.847   0.742  0.3615 -0.1047 -0.3106
  300SOL    MW4 1275   0.893   0.866   0.702  0.3311  0.0129 -0.3111
  301SOL     OW 1276   0.896   1.123   0.834 -0.2354  0.3359  0.4917
  301SOL    HW2 1277   0.898   1.042   0.783 -0.2856  1.4091 -1.2577
  301SOL    HW3 1278   0.840   1.181   0.783  0.7659  1.8575  1.1128
  301SOL    MW4 1279   0.889   1.120   0.820 -0.1099  0.6783  0.3428
  302SOL     OW 1280   1.144   1.245   0.771 -0.0831 -0.4384  0.4169
  302SOL    HW2 1281   1.080   1.190   0.817 -1.3739  0.0744 -0.7184
  302SOL    HW3 1282   1.130   1.225   0.678  1.8391 -0.7665  0.1859
  302SOL    MW4 1283   1.134   1.235   0.764  0.0002 -0.4140  0.2366
  303SOL     OW 1284   1.115   1.523   0.820  0.2856  0.2436 -0.4170
  303SOL    HW2 1285   1.029   1.557   0.797 -0.0576  0.4198  1.1072
  303SOL    HW3 1286   1.111   1.430   0.798  0.2223  0.5622 -1.7712
  303SOL    MW4 1287   1.103   1.515   0.814  0.2320  0.3088 -0.3946
  304SOL     OW 1288   0.882   1.662   0.734 -0.3614 -0.0479 -0.4761
  304SOL    HW2 1289   0.876   1.750   0.773  0.1910 -0.4452  0.5121
  304SOL    HW3 1290   0.801   1.619   0.760 -1.3281  0.6379 -2.1944
  304SOL    MW4 1291   0.871   1.668   0.742 -0.4160 -0.0098 -0.5724
  305SOL     OW 1292   0.850   1.933   0.795  0.2341 -0.1995  0.0908
  305SOL    HW2 1293   0.848   1.928   0.891 -0.1513 -0.6303  0.0647
  305SOL    HW3 1294   0.763   1.966   0.771  0.2445 -0.3245 -0.1221
  305SOL    MW4 1295   0.838   1.936   0.804  0.1847 -0.2729  0.0592
  306SOL     OW 1296   1.048   2.088   0.697  0.4619  0.3057 -0.6498
  306SOL    HW2 1297   1.059   2.164   0.754  0.7069 -0.2882  0.1052
  306SOL    HW3 1298   0.969   2.044   0.729 -0.3937  0.9115 -1.8721
  306SOL    MW4 1299   1.039   2.092   0.709  0.3814  0.3073 -0.7115
  307SOL     OW 1300   1.096   2.298   0.844  0.3129 -0.2583  0.1168
  307SOL    HW2 1301   1.103   2.293   0.940  1.0302 -0.7378  0.0391
  307SOL    HW3 1302   1.170   2.352   0.817 -0.4705  0.7230 -0.0866
  307SOL    MW4 1303   1.106   2.304   0.853  0.3042 -0.1922  0.0798
  308SOL     OW 1304   0.875   2.476   0.788  0.0380 -0.7859 -0.2936
  308SOL    HW2 1305   0.948   2.419   0.812  0.0142 -0.8397 -0.3498
  308SOL    HW3 1306   0.797   2.423   0.803 -0.0662 -0.2263  1.2029
  308SOL    MW4 1307   0.875   2.461   0.793  0.0211 -0.7193 -0.1036
  309SOL     OW 1308   0.929   2.726   0.868  0.4201 -0.7442 -0.1696
  309SOL    HW2 1309   0.913   2.739   0.961  2.4692 -2.3332  0.4248
  309SOL    HW3 1310   0.893   2.639   0.850  2.9667 -1.8353 -0.1130
  309SOL    MW4 1311   0.922   2.716   0.878  1.0265 -1.0979 -0.0837
  310SOL     OW 1312   1.134   2.855   0.713 -0.5941 -0.4107  0.1306
  310SOL    HW2 1313   1.074   2.804   0.768 -0.2368 -0.9144  0.0538
  310SOL    HW3 1314   1.110   2.832   0.623 -1.2490  0.4930  0.0660
  310SOL    MW4 1315   1.123   2.845   0.708 -0.6334 -0.3581  0.1120
  311SOL     OW 1316   1.100   3.115   0.806 -0.1434  0.3666  0.1012
  311SOL    HW2 1317   1.021   3.155   0.769 -0.0554 -0.6414 -1.2191
  311SOL    HW3 1318   1.114   3.036   0.753  2.8123  1.4947 -0.9163
  311SOL    MW4 1319   1.091   3.110   0.794  0.2581  0.3827 -0.2072
  312SOL     OW 1320   1.133   3.336   0.566  0.0792 -0.2779 -0.5686
  312SOL    HW2 1321   1.066   3.405   0.569  1.0430  0.6730 -0.5052
  312SOL    HW3 1322   1.191   3.356   0.639  0.8190 -0.6863 -1.0367
  312SOL    MW4 1323   1.132   3.348   0.576  0.3039 -0.2065 -0.6220
  313SOL     OW 1324   0.764   3.372   0.460 -0.6747  0.4264 -0.1118
  313SOL    HW2 1325   0.688   3.430   0.452 -0.9258  0.1547  0.2949
  313SOL    HW3 1326   0.752   3.327   0.544  0.0972  0.6138  0.1118
  313SOL    MW4 1327   0.753   3.374   0.470 -0.6059  0.4153 -0.0287
  314SOL     OW 1328   0.878   3.467   0.842 -0.1719  0.3156 -0.0990
  314SOL    HW2 1329   0.948   3.516   0.799  0.6517 -0.2021  0.6198
  314SOL    HW3 1330   0.797   3.507   0.810  0.4196  0.1728 -1.8331
  314SOL    MW4 1331   0.876   3.479   0.832  0.0148  0.2282 -0.2330
  315SOL     OW 1332   1.092   3.865   0.823 -0.0497 -0.0255  0.0123
  315SOL    HW2 1333   1.121   3.881   0.913 -0.2775 -1.0609  0.2735
  315SOL    HW3 1334   1.109   3.772   0.808 -1.2662 -0.1752 -0.5372
  315SOL    MW4 1335   1.098   3.855   0.833 -0.2402 -0.1819 -0.0257
  316SOL     OW 1336   0.839   3.932   0.757 -0.1823  0.2331  0.1006
  316SOL    HW2 1337   0.835   4.028   0.758 -0.3518  0.2494 -1.1217
  316SOL    HW3 1338   0.924   3.911   0.795 -0.7361  0.8144  1.6906
  316SOL    MW4 1339   0.850   3.942   0.762 -0.2778  0.3119  0.1491
  317SOL     OW 1340   0.830   4.215   0.809 -0.0959 -0.3442  0.1657
  317SOL    HW2 1341   0.901   4.266   0.770  0.3767 -1.0653  0.0764
  317SOL    HW3 1342   0.750   4.260   0.781  0.2452 -0.6555 -1.3663
  317SOL    MW4 1343   0.829   4.228   0.800  0.0114 -0.4802 -0.0482
  318SOL     OW 1344   1.072   4.329   0.738 -0.4380  0.3321  0.0381
  318SOL    HW2 1345   1.159   4.301   0.767 -1.3142 -0.5073  1.9869
  318SOL    HW3 1346   1.070   4.423   0.756 -0.4140  0.0986  1.3361
  318SOL    MW4 1347   1.083   4.337   0.744 -0.5504  0.1907  0.4665
  319SOL     OW 1348   1.603   4.620   0.799 -0.5411 -0.2055  0.0481
  319SOL    HW2 1349   1.599   4.661   0.885 -1.5105  0.6270 -0.3863
  319SOL    HW3 1350   1.523   4.648   0.755  0.5460  0.4055 -1.5904
  319SOL    MW4 1351   1.592   4.629   0.805 -0.5256 -0.0153 -0.2254
  320SOL     OW 1352   1.342   0.043   0.733  0.6211  0.4343  0.3693
  320SOL    HW2 1353   1.337   0.132   0.767  0.6705  0.2894  0.7577
  320SOL    HW3 1354   1.336   0.053   0.638 -1.7588  0.6819  0.5069
  320SOL    MW4 1355   1.340   0.056   0.725  0.3136  0.4479  0.4386
  321SOL     OW 1356   1.365   0.308   0.818  0.0183 -0.1851 -0.1804
  321SOL    HW2 1357   1.374   0.330   0.911  0.3692  0.4155 -0.3544
  321SOL    HW3 1358   1.444   0.345   0.778  0.2255 -1.0846 -0.5984
  321SOL    MW4 1359   1.377   0.316   0.825  0.0920 -0.2245 -0.2584
  322SOL     OW 1360   1.602   0.469   0.687  0.1828  0.2920 -0.5618
  322SOL    HW2 1361   1.612   0.558   0.722 -0.7351 -0.4637  1.6819
  322SOL    HW3 1362   1.665   0.417   0.737 -0.8834 -0.7434 -0.2838
  322SOL    MW4 1363   1.612   0.474   0.699 -0.0790  0.0557 -0.2291
  323SOL     OW 1364   1.596   0.738   0.796 -0.4707  0.0067 -0.2975
  323SOL    HW2 1365   1.667   0.800   0.781 -0.5357  0.3595  0.8151
  323SOL    HW3 1366   1.516   0.788   0.776 -0.6183  0.7939  2.1400
  323SOL    MW4 1367   1.595   0.753   0.791 -0.4988  0.1571  0.1709
  324SOL     OW 1368   1.371   0.885   0.736  0.3796  1.0651  0.0977
  324SOL    HW2 1369   1.365   0.967   0.784  0.4095  1.3088 -0.3189
  324SOL    HW3 1370   1.283   0.848   0.738  0.5787  0.6137  1.1550
  324SOL    MW4 1371   1.359   0.891   0.743  0.4098  1.0377  0.1823
  325SOL     OW 1372   1.362   1.119   0.856  0.1964 -0.1165 -0.3292
  325SOL    HW2 1373   1.429   1.180   0.825 -0.5074  0.9827  0.2406
  325SOL    HW3 1374   1.279   1.160   0.831 -0.2799 -1.0424 -0.2855
  325SOL    MW4 1375   1.359   1.133   0.849  0.0405 -0.0937 -0.2482
  326SOL     OW 1376   1.564   1.291   0.746 -0.0502 -0.6338 -0.0522
  326SOL    HW2 1377   1.576   1.378   0.785  0.5644 -1.1017  0.8225
  326SOL    HW3 1378   1.564   1.307   0.652  2.3476  0.0325  0.0359
  326SOL    MW4 1379   1.565   1.305   0.739  0.3473 -0.6077  0.0748
  327SOL     OW 1380   1.605   1.558   0.824 -0.8278 -0.3601 -0.1696
  327SOL    HW2 1381   1.596   1.554   0.919 -0.0684  1.0138 -0.0352
  327SOL    HW3 1382   1.523   1.598   0.794  0.0865  1.8481  0.1604
  327SOL    MW4 1383   1.593   1.563   0.832 -0.6069  0.1125 -0.1083
  328SOL     OW 1384   1.347   1.676   0.782  0.3422 -0.0431  0.1695
  328SOL    HW2 1385   1.331   1.766   0.811 -0.7480  0.2650 -1.3055
  328SOL    HW3 1386   1.282   1.623   0.828 -0.6572  0.2937 -0.8120
  328SOL    MW4 1387   1.337   1.681   0.792  0.0666  0.0421 -0.1546
  329SOL     OW 1388   1.302   1.967   0.844 -0.2484 -0.5470 -0.0789
  329SOL    HW2 1389   1.301   1.972   0.940 -2.1010 -2.4570  0.0421
  329SOL    HW3 1390   1.222   2.012   0.817  0.3739  0.1722 -0.7529
  329SOL    MW4 1391   1.291   1.973   0.853 -0.4107 -0.7042 -0.1518
  330SOL     OW 1392   1.547   2.029   0.760 -0.2046 -0.2217  0.2016
  330SOL    HW2 1393   1.460   2.013   0.796 -1.6129  1.7688 -2.1860
  330SOL    HW3 1394   1.550   1.977   0.680  0.8141 -0.2689  0.2629
  330SOL    MW4 1395   1.536   2.020   0.754 -0.2558  0.0348 -0.1053
  331SOL     OW 1396   1.551   2.298   0.809 -0.2841 -0.0715 -0.0342
  331SOL    HW2 1397   1.467   2.343   0.796 -0.3551 -0.2130 -0.0667
  331SOL    HW3 1398   1.537   2.211   0.773 -0.2193 -0.1942  0.2429
  331SOL    MW4 1399   1.538   2.293   0.802 -0.2850 -0.1063 -0.0020
  332SOL     OW 1400   1.320   2.440   0.766 -0.1604 -0.1720 -0.0461
  332SOL    HW2 1401   1.335   2.531   0.791  0.0674 -0.0326 -0.6727
  332SOL    HW3 1402   1.314   2.442   0.670 -1.3061 -0.6470  0.0105
  332SOL    MW4 1403   1.321   2.452   0.756 -0.2815 -0.2165 -0.1213
  333SOL     OW 1404   1.367   2.703   0.814  0.2198 -0.3299 -0.7126
  333SOL    HW2 1405   1.379   2.741   0.901  0.0333 -0.6729 -0.5379
  333SOL    HW3 1406   1.303   2.760   0.772 -0.5809 -0.8375 -0.2043
  333SOL    MW4 1407   1.360   2.715   0.820  0.0895 -0.4423 -0.6225
  334SOL     OW 1408   1.607   2.702   0.673  0.2469 -0.1580  0.2537
  334SOL    HW2 1409   1.664   2.719   0.748 -0.3518 -0.3286  0.7514
  334SOL    HW3 1410   1.521   2.686   0.712 -0.0020 -0.5352 -0.4522
  334SOL    MW4 1411   1.603   2.702   0.688  0.1349 -0.2306  0.2263
  335SOL     OW 1412   1.602   3.045   0.888 -0.1812  0.4204  0.5732
  335SOL    HW2 1413   1.611   3.065   0.981 -1.8481 -1.0251  1.0687
  335SOL    HW3 1414   1.537   3.106   0.856 -0.1641  0.4147  0.5277
  335SOL    MW4 1415   1.595   3.055   0.896 -0.3990  0.2289  0.6326
  336SOL     OW 1416   1.393   3.203   0.762 -0.3414  0.1456 -0.1286
  336SOL    HW2 1417   1.303   3.181   0.787 -0.2493 -0.5970 -0.4359
  336SOL    HW3 1418   1.401   3.173   0.672 -0.0139  0.8917 -0.3535
  336SOL    MW4 1419   1.382   3.196   0.753 -0.2861  0.1459 -0.1988
  337SOL     OW 1420   1.365   3.455   0.833 -0.0529 -0.2470  0.2986
  337SOL    HW2 1421   1.431   3.514   0.798 -0.6032  0.6745  0.7847
  337SOL    HW3 1422   1.386   3.370   0.796  0.1071  0.4711 -1.2708
  337SOL    MW4 1423   1.376   3.452   0.824 -0.1044 -0.0310  0.1557
  338SOL     OW 1424   1.576   3.612   0.733  0.4356  0.2731  0.1663
  338SOL    HW2 1425   1.652   3.564   0.765  0.3827  0.0993  0.0360
  338SOL    HW3 1426   1.596   3.630   0.641  1.1449  1.8930  0.6339
  338SOL    MW4 1427   1.588   3.608   0.725  0.5221  0.4640  0.2108
  339SOL     OW 1428   1.595   3.885   0.819 -0.0478  0.0877  0.3395
  339SOL    HW2 1429   1.506   3.920   0.811  0.1376  0.4719 -0.0556
  339SOL    HW3 1430   1.589   3.797   0.783 -0.4264 -0.1400  0.9533
  339SOL    MW4 1431   1.582   3.878   0.813 -0.0732  0.1085  0.3684
  340SOL     OW 1432   1.340   3.975   0.756  0.1836  0.1113 -0.4200
  340SOL    HW2 1433   1.258   3.935   0.785  0.4272 -0.4982 -0.5583
  340SOL    HW3 1434   1.348   3.948   0.664  0.3893  0.4184 -0.4929
  340SOL    MW4 1435   1.330   3.966   0.748  0.2431  0.0713 -0.4479
  341SOL     OW 1436   1.355   4.251   0.778 -0.1763 -0.5336 -0.4627
  341SOL    HW2 1437   1.444   4.284   0.768 -0.7410  0.6324 -1.9189
  341SOL    HW3 1438   1.362   4.157   0.762  0.4409 -0.0885 -3.0632
  341SOL    MW4 1439   1.368   4.243   0.774 -0.1694 -0.3214 -0.9979
  342SOL     OW 1440   1.599   4.343   0.720  0.4922 -0.0921  0.3574
  342SOL    HW2 1441   1.688   4.317   0.740  0.7005 -0.0881 -0.5178
  342SOL    HW3 1442   1.593   4.434   0.746  1.6270  0.7710 -2.1875
  342SOL    MW4 1443   1.610   4.351   0.726  0.6694  0.0224 -0.0938
  343SOL     OW 1444   2.056   4.664   0.796 -0.1842 -0.1431 -0.5767
  343SOL    HW2 1445   2.131   4.708   0.755 -0.3983  0.5333 -0.2621
  343SOL    HW3 1446   2.078   4.571   0.793  1.3946  0.1439  0.9182
  343SOL    MW4 1447   2.069   4.658   0.790 -0.0041 -0.0157 -0.3380
  344SOL     OW 1448   1.812   0.115   0.719 -0.4184  0.4216 -0.0459
  344SOL    HW2 1449   1.890   0.081   0.763 -0.3860 -1.5908 -1.6111
  344SOL    HW3 1450   1.742   0.054   0.744 -0.4820 -0.5227 -2.4049
  344SOL    MW4 1451   1.813   0.102   0.728 -0.4224  0.0315 -0.5636
  345SOL     OW 1452   1.804   0.368   0.833  0.8415  0.0600 -0.1217
  345SOL    HW2 1453   1.819   0.277   0.806 -0.4450 -0.7991  1.9890
  345SOL    HW3 1454   1.878   0.416   0.796  1.6293 -1.8630 -1.1214
  345SOL    MW4 1455   1.816   0.362   0.824  0.7757 -0.3071  0.0249
  346SOL     OW 1456   2.017   0.497   0.744 -0.2341  0.1743 -0.1599
  346SOL    HW2 1457   2.095   0.442   0.755  0.3178  0.8530 -0.6511
  346SOL    HW3 1458   2.033   0.546   0.664 -0.4814  1.4455  0.5513
  346SOL    MW4 1459   2.029   0.496   0.735 -0.1938  0.4316 -0.1308
  347SOL     OW 1460   2.046   0.770   0.848  0.0554  0.1419 -0.1630
  347SOL    HW2 1461   2.107   0.817   0.791 -0.7913  0.1065 -1.1327
  347SOL    HW3 1462   2.052   0.679   0.819 -0.4824  0.1465 -0.3011
  347SOL    MW4 1463   2.055   0.764   0.836 -0.1268  0.1379 -0.3091
  348SOL     OW 1464   1.834   0.868   0.696  0.3232  0.0455  0.3554
  348SOL    HW2 1465   1.815   0.948   0.745 -0.0010 -0.3925  0.9527
  348SOL    HW3 1466   1.911   0.831   0.739  0.8452  0.3512 -0.3049
  348SOL    MW4 1467   1.842   0.874   0.708  0.3494  0.0280  0.3471
  349SOL     OW 1468   1.780   1.124   0.806 -0.4227 -0.4189  0.5535
  349SOL    HW2 1469   1.844   1.185   0.769 -0.7470 -0.1999  0.3632
  349SOL    HW3 1470   1.695   1.161   0.784 -0.6269 -1.4926 -0.4943
  349SOL    MW4 1471   1.778   1.137   0.798 -0.4923 -0.5317  0.3902
  350SOL     OW 1472   2.031   1.566   0.682  0.1168 -0.0945  0.1094
  350SOL    HW2 1473   2.021   1.472   0.669 -0.2684 -0.1332  0.6589
  350SOL    HW3 1474   2.125   1.577   0.699 -0.1116 -0.6283  1.8877
  350SOL    MW4 1475   2.042   1.555   0.682  0.0358 -0.1700  0.4166
  351SOL     OW 1476   2.286   1.668   0.730 -0.0585  0.3297  0.5252
  351SOL    HW2 1477   2.338   1.599   0.772 -0.4875 -0.2719  0.0732
  351SOL    HW3 1478   2.335   1.690   0.651 -1.3915 -1.5299 -0.8682
  351SOL    MW4 1479   2.299   1.661   0.725 -0.2911  0.0050  0.2817
  352SOL     OW 1480   1.823   1.731   0.750 -0.0958 -0.4553 -0.2958
  352SOL    HW2 1481   1.895   1.670   0.737  1.2543  0.9873  0.2243
  352SOL    HW3 1482   1.758   1.681   0.800  1.2666 -1.2810  0.7160
  352SOL    MW4 1483   1.824   1.717   0.755  0.2620 -0.3740 -0.0936
  353SOL     OW 1484   1.821   1.970   0.864 -0.1402 -0.0998 -0.0606
  353SOL    HW2 1485   1.825   1.876   0.842 -0.5221 -0.2477  0.4837
  353SOL    HW3 1486   1.734   1.997   0.837 -0.5388 -0.2359  1.0864
  353SOL    MW4 1487   1.810   1.961   0.857 -0.2431 -0.1372  0.1626
  354SOL     OW 1488   2.035   2.029   0.690 -0.3546  0.4216  0.4326
  354SOL    HW2 1489   2.050   2.123   0.681 -3.0023  0.8103 -0.1261
  354SOL    HW3 1490   1.969   2.020   0.758  0.4359 -1.0979  1.0354
  354SOL    MW4 1491   2.029   2.040   0.698 -0.5996  0.2723  0.4385
  355SOL     OW 1492   1.956   2.468   0.787 -0.5484  0.4319 -0.3524
  355SOL    HW2 1493   1.951   2.406   0.860  0.4122  0.0721 -0.5855
  355SOL    HW3 1494   1.867   2.469   0.750 -1.3473  1.5108  1.5377
  355SOL    MW4 1495   1.943   2.460   0.792 -0.5270  0.5269 -0.1338
  356SOL     OW 1496   2.314   2.261   0.316 -0.1866 -0.5124  0.2956
  356SOL    HW2 1497   2.318   2.341   0.369 -0.7414 -0.9068  0.9399
  356SOL    HW3 1498   2.379   2.275   0.247 -0.5035  0.6385  0.2093
  356SOL    MW4 1499   2.323   2.274   0.314 -0.3014 -0.4129  0.3693
  357SOL     OW 1500   1.777   2.816   0.869  0.0455 -0.1797 -0.1579
  357SOL    HW2 1501   1.795   2.798   0.961 -0.1695  1.7047  0.2742
  357SOL    HW3 1502   1.723   2.895   0.871  0.1667 -0.0470 -1.9092
  357SOL    MW4 1503   1.772   2.824   0.882  0.0330  0.0865 -0.3319
  358SOL     OW 1504   1.980   2.836   0.677  0.2302  0.3530 -0.1371
  358SOL    HW2 1505   2.041   2.783   0.729 -0.5067 -0.2123  0.1552
  358SOL    HW3 1506   1.896   2.828   0.722  0.1789  2.0510  0.1030
  358SOL    MW4 1507   1.977   2.828   0.690  0.1262  0.5028 -0.0668
  359SOL     OW 1508   2.046   3.112   0.723 -0.0433 -0.1698 -0.3149
  359SOL    HW2 1509   1.961   3.156   0.728 -0.2583 -0.4630 -1.2334
  359SOL    HW3 1510   2.024   3.021   0.703  0.4694 -0.3491 -0.0728
  359SOL    MW4 1511   2.032   3.106   0.721 -0.0041 -0.2322 -0.4042
  360SOL     OW 1512   2.095   3.250   0.302  0.0169 -0.1325  0.3064
  360SOL    HW2 1513   2.027   3.182   0.308 -0.1201 -0.0023  0.2068
  360SOL    HW3 1514   2.171   3.210   0.345 -0.1308 -0.2658  0.4503
  360SOL    MW4 1515   2.096   3.236   0.309 -0.0205 -0.1330  0.3123
  361SOL     OW 1516   1.786   3.481   0.851 -0.3047 -0.0064  0.2114
  361SOL    HW2 1517   1.794   3.465   0.945 -0.6626 -1.8961 -0.0569
  361SOL    HW3 1518   1.776   3.394   0.813  0.9630  0.6524 -1.6991
  361SOL    MW4 1519   1.785   3.467   0.858 -0.1847 -0.1690 -0.0760
  362SOL     OW 1520   1.994   3.657   0.727  0.3313  0.1518  0.3785
  362SOL    HW2 1521   2.019   3.737   0.773 -0.5995  0.2430  0.7179
  362SOL    HW3 1522   1.931   3.614   0.784 -0.8042  0.2398 -0.8004
  362SOL    MW4 1523   1.989   3.662   0.740  0.0585  0.1752  0.2677
  363SOL     OW 1524   2.074   3.887   0.851  0.2412 -0.3197 -0.4304
  363SOL    HW2 1525   2.059   3.885   0.945  1.1094 -1.4858 -0.3078
  363SOL    HW3 1526   1.999   3.936   0.816 -0.8675 -1.1679  0.7099
  363SOL    MW4 1527   2.062   3.893   0.859  0.2096 -0.5856 -0.2638
  364SOL     OW 1528   1.851   3.994   0.752  0.2690 -0.2502 -0.3001
  364SOL    HW2 1529   1.772   3.972   0.801  0.9775  1.8950  1.9541
  364SOL    HW3 1530   1.842   3.948   0.669 -2.0680 -2.2028  0.9595
  364SOL    MW4 1531   1.840   3.985   0.748  0.0542 -0.2251  0.1635
  365SOL     OW 1532   1.870   4.273   0.813 -0.4367 -0.3216 -0.1953
  365SOL    HW2 1533   1.862   4.277   0.908  0.5829  0.0755 -0.1185
  365SOL    HW3 1534   1.862   4.180   0.792  1.1579 -0.6102  0.4608
  365SOL    MW4 1535   1.868   4.261   0.823 -0.0918 -0.3071 -0.0986
  366SOL     OW 1536   2.106   4.392   0.740 -0.4497  0.2273 -0.0006
  366SOL    HW2 1537   2.018   4.354   0.748 -1.0636  1.4223 -0.9341
  366SOL    HW3 1538   2.120   4.400   0.645  0.1939  1.1221  0.1678
  366SOL    MW4 1539   2.096   4.388   0.728 -0.4458  0.5026 -0.1016
  367SOL     OW 1540   2.444   4.651   0.781 -0.0355  0.7025 -0.6106
  367SOL    HW2 1541   2.439   4.671   0.875  0.0206  1.1164 -0.6950
  367SOL    HW3 1542   2.465   4.558   0.778 -1.0273  0.4617 -0.2218
  367SOL    MW4 1543   2.446   4.642   0.793 -0.1590  0.7257 -0.5705
  368SOL     OW 1544   2.264   0.134   0.640 -0.2454  0.1604  0.2992
  368SOL    HW2 1545   2.289   0.139   0.548  0.9414 -0.8790  0.5502
  368SOL    HW3 1546   2.319   0.064   0.676  0.3142  1.5244  2.1283
  368SOL    MW4 1547   2.274   0.125   0.633 -0.0153  0.2032  0.5736
  369SOL     OW 1548   2.245   0.349   0.813 -0.0719  0.6822  0.1335
  369SOL    HW2 1549   2.321   0.398   0.781  1.3717 -0.1805  2.1565
  369SOL    HW3 1550   2.250   0.265   0.767  2.2371 -0.7163  2.7686
  369SOL    MW4 1551   2.256   0.345   0.803  0.4234  0.3839  0.7482
  370SOL     OW 1552   2.466   0.497   0.703 -0.1505 -0.2809 -0.0402
  370SOL    HW2 1553   2.547   0.454   0.731  0.0376 -0.7041 -1.1826
  370SOL    HW3 1554   2.474   0.502   0.607 -2.4485 -2.2768 -0.3588
  370SOL    MW4 1555   2.478   0.492   0.694 -0.4292 -0.6001 -0.2329
  371SOL     OW 1556   2.422   0.770   0.827 -0.4908  0.2841  0.3201
  371SOL    HW2 1557   2.503   0.805   0.791 -0.6935  1.0229  0.5886
  371SOL    HW3 1558   2.430   0.675   0.815  1.1754  0.1908  1.9439
  371SOL    MW4 1559   2.434   0.762   0.821 -0.2978  0.3693  0.5698
  372SOL     OW 1560   2.238   0.914   0.700  0.3230 -0.6946  0.0932
  372SOL    HW2 1561   2.306   0.861   0.742  0.4914 -1.6610 -1.3642
  372SOL    HW3 1562   2.261   0.912   0.607 -0.1981  1.1844 -0.0777
  372SOL    MW4 1563   2.250   0.906   0.693  0.2763 -0.5742 -0.1215
  373SOL     OW 1564   2.003   1.270   0.649 -0.1366 -0.1392 -0.1805
  373SOL    HW2 1565   2.078   1.246   0.704  0.5014  0.5199 -0.7570
  373SOL    HW3 1566   2.012   1.217   0.570  1.1987  1.8585 -1.3957
  373SOL    MW4 1567   2.014   1.260   0.646  0.1237  0.2115 -0.4169
  374SOL     OW 1568   2.209   1.170   0.803  0.0695 -0.0812  0.0589
  374SOL    HW2 1569   2.197   1.177   0.897  0.1619 -0.5328  0.1057
  374SOL    HW3 1570   2.208   1.075   0.785  0.8974 -0.0344 -0.2777
  374SOL    MW4 1571   2.207   1.158   0.813  0.1910 -0.1346  0.0206
  375SOL     OW 1572   2.472   1.465   0.835  0.8596 -0.1075 -0.2119
  375SOL    HW2 1573   2.542   1.513   0.792  0.5228 -0.2457 -0.9210
  375SOL    HW3 1574   2.477   1.377   0.797  0.9833 -0.4228  0.5182
  375SOL    MW4 1575   2.482   1.460   0.824  0.8316 -0.1673 -0.2091
  376SOL     OW 1576   1.883   1.265   0.217  0.3122  0.0409  0.0825
  376SOL    HW2 1577   1.790   1.242   0.223  0.4775 -0.4545  0.8942
  376SOL    HW3 1578   1.903   1.260   0.124 -0.2886 -0.6187 -0.0139
  376SOL    MW4 1579   1.874   1.261   0.206  0.2548 -0.1115  0.1769
  377SOL     OW 1580   2.245   1.923   0.819  0.1316 -0.2805  0.1409
  377SOL    HW2 1581   2.262   1.836   0.784  3.4668  0.6118 -0.6279
  377SOL    HW3 1582   2.175   1.958   0.764  0.8765 -1.3423 -1.5132
  377SOL    MW4 1583   2.238   1.916   0.807  0.6700 -0.3029 -0.1788
  378SOL     OW 1584   2.473   2.030   0.705  0.0702  0.5136 -0.3222
  378SOL    HW2 1585   2.399   1.992   0.752  0.0828 -0.7359 -1.2870
  378SOL    HW3 1586   2.444   2.036   0.614  0.7855  0.9704 -0.5279
  378SOL    MW4 1587   2.460   2.026   0.699  0.1664  0.4086 -0.4767
  379SOL     OW 1588   2.506   2.264   0.837 -0.6329  0.3521  0.4794
  379SOL    HW2 1589   2.450   2.329   0.794 -1.0220  0.0142  0.4680
  379SOL    HW3 1590   2.485   2.181   0.794 -2.1427 -0.2642  2.2824
  379SOL    MW4 1591   2.496   2.262   0.826 -0.8836  0.2263  0.7158
  380SOL     OW 1592   2.119   2.276   0.642 -0.4516 -0.1620 -0.6028
  380SOL    HW2 1593   2.112   2.278   0.546 -1.7883  0.6807 -0.5059
  380SOL    HW3 1594   2.064   2.349   0.671  1.6065  0.8977  0.7316
  380SOL    MW4 1595   2.111   2.286   0.633 -0.3564  0.0892 -0.4138
  381SOL     OW 1596   2.149   2.668   0.822 -0.3132 -0.3277  0.7369
  381SOL    HW2 1597   2.182   2.683   0.910 -0.8344  0.9802  0.7101
  381SOL    HW3 1598   2.074   2.609   0.834 -1.4732  1.2441  1.3486
  381SOL    MW4 1599   2.143   2.662   0.835 -0.5350  0.0522  0.8141
  382SOL     OW 1600   2.443   2.794   0.815  0.1639 -0.1840 -0.3541
  382SOL    HW2 1601   2.527   2.750   0.827  0.6261  0.4117 -1.3615
  382SOL    HW3 1602   2.391   2.767   0.891  1.0204 -1.1078 -0.0848
  382SOL    MW4 1603   2.447   2.785   0.827  0.3376 -0.2272 -0.4514
  383SOL     OW 1604   2.502   3.062   0.818 -0.4770  0.0947  0.5969
  383SOL    HW2 1605   2.511   3.080   0.912  0.8978 -0.9837  0.6897
  383SOL    HW3 1606   2.478   2.970   0.813 -1.3917  0.3685 -0.0872
  383SOL    MW4 1607   2.500   3.052   0.830 -0.4163 -0.0114  0.5189
  384SOL     OW 1608   2.297   3.238   0.735 -0.2401  0.0012  0.4571
  384SOL    HW2 1609   2.210   3.198   0.739  0.0879 -0.7943 -0.2545
  384SOL    HW3 1610   2.353   3.179   0.786 -0.2428  0.8576  1.4608
  384SOL    MW4 1611   2.292   3.225   0.742 -0.1969  0.0093  0.4957
  385SOL     OW 1612   2.254   3.522   0.797 -0.2353 -0.0633 -0.2555
  385SOL    HW2 1613   2.246   3.427   0.785  0.2663  0.1706 -2.6510
  385SOL    HW3 1614   2.167   3.556   0.779 -0.4275 -0.0451  0.6529
  385SOL    MW4 1615   2.242   3.514   0.793 -0.1945 -0.0303 -0.4517
  386SOL     OW 1616   2.496   3.602   0.700 -0.0275  0.4687  0.8069
  386SOL    HW2 1617   2.556   3.535   0.732 -0.8596 -0.3007  0.7545
  386SOL    HW3 1618   2.413   3.583   0.743 -0.8228  0.1899 -0.8317
  386SOL    MW4 1619   2.493   3.591   0.710 -0.2422  0.3304  0.5838
  387SOL     OW 1620   2.565   3.862   0.805 -0.1715 -0.3800  0.1561
  387SOL    HW2 1621   2.494   3.917   0.771 -1.0807 -0.9772  1.1013
  387SOL    HW3 1622   2.551   3.777   0.764  0.8480 -0.1143 -0.7773
  387SOL    MW4 1623   2.554   3.858   0.795 -0.1571 -0.4237  0.1577
  388SOL     OW 1624   2.309   3.988   0.747 -0.8058 -0.1802 -0.2506
  388SOL    HW2 1625   2.229   3.956   0.789 -0.7570 -0.1497 -0.1352
  388SOL    HW3 1626   2.284   3.999   0.655 -0.8973 -0.2975 -0.2412
  388SOL    MW4 1627   2.295   3.985   0.741 -0.8116 -0.1917 -0.2342
  389SOL     OW 1628   2.302   4.244   0.873 -0.2021  0.0994 -0.3593
  389SOL    HW2 1629   2.318   4.162   0.825 -0.0043 -0.6144  0.9155
  389SOL    HW3 1630   2.232   4.287   0.823  0.5684 -0.2288 -1.7671
  389SOL    MW4 1631   2.295   4.239   0.860 -0.0744 -0.0377 -0.3768
  390SOL     OW 1632   2.497   4.392   0.766 -0.0232  0.1116 -0.3304
  390SOL    HW2 1633   2.577   4.349   0.795  0.0712 -0.4833 -1.4266
  390SOL    HW3 1634   2.426   4.344   0.808  0.1224 -0.5699 -0.8591
  390SOL    MW4 1635   2.498   4.380   0.775  0.0086 -0.0572 -0.5448
  391SOL     OW 1636   2.920   0.036   0.846 -0.0286  0.2623 -0.2983
  391SOL    HW2 1637   2.939  -0.053   0.816 -1.1871 -0.7139  1.7518
  391SOL    HW3 1638   2.836   0.058   0.804 -0.6915 -0.3589  0.6872
  391SOL    MW4 1639   2.911   0.027   0.836 -0.2689  0.0516  0.1023
  392SOL     OW 1640   2.664   4.559   0.334 -0.3242  0.0820 -0.2824
  392SOL    HW2 1641   2.728   4.487   0.336  0.1576  0.4534 -1.5317
  392SOL    HW3 1642   2.583   4.520   0.367  0.2300 -0.7287  0.1400
  392SOL    MW4 1643   2.662   4.544   0.338 -0.1876  0.0238 -0.3915
  393SOL     OW 1644   2.677   0.394   0.834 -0.2027  0.5552 -0.1261
  393SOL    HW2 1645   2.685   0.384   0.929  0.5681  1.3233 -0.0995
  393SOL    HW3 1646   2.735   0.468   0.813  0.0914  0.0167 -1.2650
  393SOL    MW4 1647   2.686   0.403   0.844 -0.0622  0.5855 -0.2729
  394SOL     OW 1648   2.877   0.565   0.749  0.3295 -0.1342 -0.2463
  394SOL    HW2 1649   2.954   0.507   0.750  0.9217  0.6648  0.6334
  394SOL    HW3 1650   2.859   0.578   0.656  1.5154  0.0155 -0.4595
  394SOL    MW4 1651   2.885   0.559   0.737  0.5639 -0.0089 -0.1584
  395SOL     OW 1652   2.949   0.812   0.821  0.3604 -0.0568  0.5630
  395SOL    HW2 1653   2.954   0.807   0.917 -1.0175 -0.0587  0.6334
  395SOL    HW3 1654   2.932   0.722   0.793 -0.1199  0.0971  0.3656
  395SOL    MW4 1655   2.948   0.799   0.830  0.1154 -0.0368  0.5463
  396SOL     OW 1656   2.687   0.865   0.748  0.0412 -0.4674 -0.2419
  396SOL    HW2 1657   2.779   0.842   0.763  0.1609 -0.2642 -0.6590
  396SOL    HW3 1658   2.683   0.888   0.656 -0.2954  0.1753 -0.0695
  396SOL    MW4 1659   2.699   0.865   0.738  0.0126 -0.3558 -0.2742
  397SOL     OW 1660   2.718   1.142   0.806  0.0402  0.1362  0.2484
  397SOL    HW2 1661   2.724   1.046   0.798 -1.4777  0.0472  0.0612
  397SOL    HW3 1662   2.637   1.165   0.761  0.8456  1.6201 -0.4601
  397SOL    MW4 1663   2.708   1.132   0.799 -0.0541  0.3201  0.1303
  398SOL     OW 1664   2.917   1.287   0.704  0.0658  0.5368 -0.3216
  398SOL    HW2 1665   2.994   1.251   0.749 -0.4277  0.0829  0.1802
  398SOL    HW3 1666   2.843   1.243   0.746 -0.5012  1.4456 -0.3672
  398SOL    MW4 1667   2.918   1.276   0.715 -0.0739  0.5969 -0.2614
  399SOL     OW 1668   2.946   1.544   0.809 -0.2602 -0.0179  0.3318
  399SOL    HW2 1669   3.009   1.600   0.764 -1.0025  0.5477  0.0066
  399SOL    HW3 1670   2.946   1.463   0.757  0.1419  0.0016  0.2933
  399SOL    MW4 1671   2.955   1.540   0.796 -0.3049  0.0594  0.2838
  400SOL     OW 1672   2.673   1.614   0.711  0.9262 -0.3925  0.2583
  400SOL    HW2 1673   2.681   1.703   0.746 -0.8138 -0.0736 -0.1206
  400SOL    HW3 1674   2.746   1.566   0.750  1.6878  1.1214  0.7237
  400SOL    MW4 1675   2.684   1.620   0.721  0.7970 -0.1508  0.2697
  401SOL     OW 1676   2.698   1.889   0.769 -0.0800  0.1947 -0.0152
  401SOL    HW2 1677   2.702   1.918   0.860 -3.3995 -1.3760  0.7131
  401SOL    HW3 1678   2.617   1.928   0.735  0.1939 -0.6890 -1.7298
  401SOL    MW4 1679   2.687   1.898   0.777 -0.4818 -0.1291 -0.1453
  402SOL     OW 1680   2.792   1.924   0.509  0.7484 -0.1331 -0.2691
  402SOL    HW2 1681   2.853   1.991   0.539  0.2717 -0.3244  1.2048
  402SOL    HW3 1682   2.749   1.894   0.589 -0.4206 -0.8374 -1.1431
  402SOL    MW4 1683   2.794   1.929   0.524  0.5312 -0.2513 -0.1900
  403SOL     OW 1684   2.781   2.261   0.807  0.0473 -0.1507  0.1346
  403SOL    HW2 1685   2.834   2.288   0.882 -0.2351  0.7759  0.0001
  403SOL    HW3 1686   2.691   2.264   0.839 -0.1486  1.2469 -0.5458
  403SOL    MW4 1687   2.776   2.265   0.821 -0.0157  0.1562  0.0271
  404SOL     OW 1688   2.781   2.489   0.660  0.0507  0.5984  0.0986
  404SOL    HW2 1689   2.780   2.409   0.713 -0.5445 -0.0366 -0.8562
  404SOL    HW3 1690   2.745   2.556   0.718  2.7108  0.7099  1.6954
  404SOL    MW4 1691   2.776   2.487   0.675  0.3231  0.5295  0.1833
  405SOL     OW 1692   2.706   2.697   0.842  0.7260  0.0886 -0.6110
  405SOL    HW2 1693   2.718   2.701   0.937 -0.3250  0.5206 -0.4917
  405SOL    HW3 1694   2.771   2.759   0.808  1.6654 -0.6845 -0.2262
  405SOL    MW4 1695   2.716   2.706   0.850  0.7110  0.0434 -0.5445
  406SOL     OW 1696   2.920   2.852   0.449  0.2377 -0.0652 -0.3639
  406SOL    HW2 1697   2.928   2.758   0.430  0.8173 -0.4035  1.4614
  406SOL    HW3 1698   2.994   2.892   0.402  0.6440 -0.6631 -0.2369
  406SOL    MW4 1699   2.931   2.845   0.440  0.3679 -0.1888 -0.1063
  407SOL     OW 1700   2.862   3.081   0.860 -0.2719 -0.1262 -0.1432
  407SOL    HW2 1701   2.804   3.129   0.800 -1.6236 -1.6657 -0.1115
  407SOL    HW3 1702   2.869   2.994   0.822  2.6447  0.2347 -0.5132
  407SOL    MW4 1703   2.855   3.076   0.847 -0.0653 -0.2818 -0.1879
  408SOL     OW 1704   2.691   3.198   0.677 -0.1245  0.0274 -0.0595
  408SOL    HW2 1705   2.696   3.279   0.729  2.0043 -0.5044  0.5885
  408SOL    HW3 1706   2.626   3.145   0.722  0.5322  0.2326  1.1344
  408SOL    MW4 1707   2.683   3.202   0.690  0.2429 -0.0157  0.1835
  409SOL     OW 1708   2.696   3.432   0.831  0.4889  0.1645  0.0754
  409SOL    HW2 1709   2.703   3.438   0.927  1.9990 -0.3767  0.0194
  409SOL    HW3 1710   2.766   3.488   0.799 -0.3634  0.7750 -0.7276
  409SOL    MW4 1711   2.706   3.440   0.840  0.5755  0.1736 -0.0378
  410SOL     OW 1712   2.964   3.580   0.730  0.5280  0.4842  0.1010
  410SOL    HW2 1713   2.969   3.669   0.765 -3.3982  1.4952 -1.6151
  410SOL    HW3 1714   3.002   3.586   0.642 -2.0019  1.1162 -0.9957
  410SOL    MW4 1715   2.970   3.592   0.723 -0.3238  0.7010 -0.2701
  411SOL     OW 1716   2.989   3.857   0.771  0.4480 -0.4084  0.1618
  411SOL    HW2 1717   2.979   3.880   0.863 -0.1595 -0.6794  0.1656
  411SOL    HW3 1718   2.910   3.889   0.729 -0.0084 -1.6954  0.0104
  411SOL    MW4 1719   2.978   3.864   0.777  0.3078 -0.6139  0.1423
  412SOL     OW 1720   2.780   4.022   0.701 -0.1598 -0.0855 -0.3458
  412SOL    HW2 1721   2.707   3.971   0.737 -0.1506  0.0823 -0.0874
  412SOL    HW3 1722   2.797   3.983   0.615 -1.5846  0.8794 -1.0771
  412SOL    MW4 1723   2.773   4.010   0.695 -0.3467  0.0639 -0.4083
  413SOL     OW 1724   2.732   4.274   0.830 -0.0229 -0.1519  0.2789
  413SOL    HW2 1725   2.719   4.250   0.922  1.5150  1.1390  0.8487
  413SOL    HW3 1726   2.735   4.191   0.784 -1.3365 -0.8007  1.3201
  413SOL    MW4 1727   2.731   4.260   0.836  0.0067 -0.0677  0.4915
  414SOL     OW 1728   2.964   4.440   0.747 -0.5092 -0.6617  0.3856
  414SOL    HW2 1729   3.041   4.387   0.770 -0.4865 -0.2688  1.2612
  414SOL    HW3 1730   2.894   4.405   0.803 -1.2487 -1.7391 -1.1935
  414SOL    MW4 1731   2.965   4.428   0.758 -0.6037 -0.7520  0.2928
  415SOL     OW 1732   3.331   4.665   0.813  0.5988 -0.0704  0.2851
  415SOL    HW2 1733   3.365   4.688   0.900 -0.9682  0.1050  0.8634
  415SOL    HW3 1734   3.261   4.728   0.797  1.4779  0.4930 -1.5291
  415SOL    MW4 1735   3.327   4.676   0.822  0.5078  0.0271  0.1221
  416SOL     OW 1736   3.132   0.175   0.738  0.7681  0.2075 -0.1680
  416SOL    HW2 1737   3.121   0.262   0.777  1.9585  0.5271 -0.5265
  416SOL    HW3 1738   3.049   0.131   0.755  0.3794  1.1964  0.5686
  416SOL    MW4 1739   3.120   0.181   0.746  0.8738  0.3801 -0.1181
  417SOL     OW 1740   3.140   0.450   0.843  0.4902  0.3049  0.0503
  417SOL    HW2 1741   3.152   0.430   0.936  0.9408  0.9077  0.1269
  417SOL    HW3 1742   3.211   0.510   0.823  0.3699  0.2036 -0.6808
  417SOL    MW4 1743   3.151   0.455   0.853  0.5333  0.3711 -0.0361
  418SOL     OW 1744   3.515   0.461   0.573  0.0096  0.2528 -0.1329
  418SOL    HW2 1745   3.518   0.378   0.525  0.2662  0.6888 -0.8765
  418SOL    HW3 1746   3.547   0.439   0.661  1.6429 -0.1291 -0.7995
  418SOL    MW4 1747   3.520   0.447   0.579  0.2589  0.2599 -0.3189
  419SOL     OW 1748   3.374   0.618   0.816 -0.3636 -0.5461  0.0456
  419SOL    HW2 1749   3.355   0.673   0.740 -0.4463  0.9026  1.1065
  419SOL    HW3 1750   3.469   0.606   0.815 -0.3985 -0.8115 -0.4611
  419SOL    MW4 1751   3.384   0.624   0.806 -0.3791 -0.3900  0.1188
  420SOL     OW 1752   3.208   0.884   0.777  0.2632  0.7863  0.0674
  420SOL    HW2 1753   3.123   0.839   0.784 -1.0520  2.6720 -2.7686
  420SOL    HW3 1754   3.192   0.970   0.817  0.9112  1.0446 -0.2301
  420SOL    MW4 1755   3.194   0.889   0.784  0.1752  1.0692 -0.3461
  421SOL     OW 1756   3.136   1.161   0.812 -0.5447 -0.1400  0.7001
  421SOL    HW2 1757   3.151   1.177   0.905  0.6310  1.0559  0.3247
  421SOL    HW3 1758   3.217   1.190   0.770 -1.2843 -0.1532 -0.7464
  421SOL    MW4 1759   3.148   1.167   0.819 -0.4873  0.0160  0.4597
  422SOL     OW 1760   3.367   1.269   0.722 -0.6110  0.5028 -0.3509
  422SOL    HW2 1761   3.459   1.246   0.740 -0.3471  0.5074 -1.6965
  422SOL    HW3 1762   3.362   1.362   0.743 -0.3212  0.4955 -0.2366
  422SOL    MW4 1763   3.379   1.278   0.727 -0.5379  0.5025 -0.5134
  423SOL     OW 1764   3.350   1.527   0.796  0.1542 -0.4132 -0.1482
  423SOL    HW2 1765   3.324   1.545   0.887 -2.0156  0.5979 -0.9331
  423SOL    HW3 1766   3.431   1.577   0.784  0.4893 -0.5966  1.2453
  423SOL    MW4 1767   3.357   1.536   0.807 -0.0880 -0.3040 -0.0679
  424SOL     OW 1768   3.150   1.677   0.665  0.0027 -0.0835  0.6225
  424SOL    HW2 1769   3.230   1.627   0.683 -0.2062 -0.8027 -0.3977
  424SOL    HW3 1770   3.141   1.673   0.570 -0.7239  0.8235  0.6508
  424SOL    MW4 1771   3.160   1.670   0.655 -0.1204 -0.0587  0.4916
  425SOL     OW 1772   3.124   1.924   0.804  0.5262  0.6890  0.5250
  425SOL    HW2 1773   3.127   1.903   0.897 -1.3163  0.5774  0.5953
  425SOL    HW3 1774   3.130   1.839   0.760 -1.5272  0.4261  0.6608
  425SOL    MW4 1775   3.125   1.910   0.810  0.0119  0.6394  0.5522
  426SOL     OW 1776   3.354   2.028   0.715  0.4537  0.0417  0.1562
  426SOL    HW2 1777   3.339   2.115   0.750 -0.8987 -0.2349  0.2955
  426SOL    HW3 1778   3.279   1.976   0.745  0.7652 -0.9312 -0.6880
  426SOL    MW4 1779   3.342   2.032   0.724  0.3164 -0.1235  0.0632
  427SOL     OW 1780   3.380   2.293   0.815 -0.2764 -0.3958 -0.5677
  427SOL    HW2 1781   3.379   2.321   0.906 -1.1270 -2.6245  0.1449
  427SOL    HW3 1782   3.454   2.340   0.776  1.9956 -1.6854  2.0198
  427SOL    MW4 1783   3.390   2.303   0.822 -0.0889 -0.8595 -0.1323
  428SOL     OW 1784   3.114   2.368   0.698  0.4701  0.2102 -0.2037
  428SOL    HW2 1785   3.200   2.347   0.734  0.6794  0.8967 -0.2927
  428SOL    HW3 1786   3.074   2.283   0.680  1.2413 -0.1072 -0.4259
  428SOL    MW4 1787   3.120   2.354   0.701  0.5996  0.2587 -0.2448
  429SOL     OW 1788   3.109   2.667   0.759  0.0355  0.6421 -0.1140
  429SOL    HW2 1789   3.080   2.585   0.719 -0.7274  1.6665 -1.6952
  429SOL    HW3 1790   3.181   2.697   0.703  0.6982  0.7598  0.7936
  429SOL    MW4 1791   3.115   2.660   0.746  0.0222  0.7930 -0.2030
  430SOL     OW 1792   3.302   2.791   0.577 -0.1499  0.3576  0.2351
  430SOL    HW2 1793   3.249   2.844   0.517  0.8147  0.5845 -0.4203
  430SOL    HW3 1794   3.336   2.854   0.641  0.3498  0.4079 -0.0794
  430SOL    MW4 1795   3.300   2.807   0.578  0.0432  0.3941  0.1072
  431SOL     OW 1796   3.353   2.984   0.789  0.4584  0.5059  0.5628
  431SOL    HW2 1797   3.277   3.035   0.817  0.2783  0.4974  0.0856
  431SOL    HW3 1798   3.362   2.916   0.856  0.3304  0.7924  0.8726
  431SOL    MW4 1799   3.344   2.982   0.802  0.4177  0.5424  0.5407
  432SOL     OW 1800   3.125   3.154   0.813  0.0762 -0.3123  0.0553
  432SOL    HW2 1801   3.129   3.245   0.844 -0.6267 -0.2996  0.1216
  432SOL    HW3 1802   3.037   3.125   0.837  0.1323 -0.8574 -0.3951
  432SOL    MW4 1803   3.114   3.162   0.820 -0.0093 -0.3827  0.0045
  433SOL     OW 1804   3.163   3.429   0.877  0.9928  0.5291 -0.0879
  433SOL    HW2 1805   3.170   3.454   0.969 -1.2724 -1.4286  0.6683
  433SOL    HW3 1806   3.090   3.482   0.844  0.2505 -0.5104 -0.1222
  433SOL    MW4 1807   3.154   3.440   0.885  0.5956  0.1338  0.0073
  434SOL     OW 1808   3.380   3.579   0.803 -0.3824 -0.3767 -0.5238
  434SOL    HW2 1809   3.378   3.661   0.853  1.0206  0.3560 -1.6495
  434SOL    HW3 1810   3.294   3.540   0.819 -1.6926  2.0931 -1.2904
  434SOL    MW4 1811   3.369   3.585   0.812 -0.3700  0.0455 -0.7735
  435SOL     OW 1812   3.371   3.854   0.892 -0.5429  0.1376 -0.0622
  435SOL    HW2 1813   3.361   3.868   0.986 -0.7336 -0.3231 -0.0095
  435SOL    HW3 1814   3.463   3.874   0.875 -0.4456 -0.0107  0.2698
  435SOL    MW4 1815   3.382   3.858   0.902 -0.5553  0.0575 -0.0114
  436SOL     OW 1816   3.218   4.000   0.694 -0.5023 -0.2046  0.1734
  436SOL    HW2 1817   3.281   3.964   0.757 -1.0569  0.8035  1.3322
  436SOL    HW3 1818   3.135   3.960   0.717 -0.6436 -0.0865 -0.1295
  436SOL    MW4 1819   3.216   3.990   0.706 -0.5941 -0.0560  0.2863
  437SOL     OW 1820   3.163   4.262   0.814  0.5792  0.3128 -0.0805
  437SOL    HW2 1821   3.240   4.311   0.787  0.6362  0.1417 -0.2292
  437SOL    HW3 1822   3.174   4.176   0.775  0.8303 -0.0496  0.7804
  437SOL    MW4 1823   3.174   4.257   0.805  0.6196  0.2422  0.0135
  438SOL     OW 1824   3.402   4.401   0.732  0.8593 -0.2101  0.1160
  438SOL    HW2 1825   3.389   4.489   0.765  0.6883  0.1988 -1.0181
  438SOL    HW3 1826   3.362   4.401   0.645  1.3979 -1.2195 -0.1502
  438SOL    MW4 1827   3.395   4.413   0.725  0.9079 -0.2894 -0.0688
  439SOL     OW 1828   3.812   4.635   0.831  0.0603  0.2451  0.0795
  439SOL    HW2 1829   3.883   4.675   0.780 -0.2760 -1.2886 -1.6303
  439SOL    HW3 1830   3.732   4.675   0.797 -0.0953 -0.0701  0.0748
  439SOL    MW4 1831   3.811   4.645   0.820 -0.0045  0.0010 -0.1466
  440SOL     OW 1832   3.580   0.119   0.736 -0.2400  0.3031 -0.4071
  440SOL    HW2 1833   3.588   0.138   0.643  1.1992  0.0685 -0.3413
  440SOL    HW3 1834   3.494   0.079   0.746 -0.5696  0.7264 -1.5687
  440SOL    MW4 1835   3.570   0.117   0.725 -0.0937  0.3280 -0.5516
  441SOL     OW 1836   3.619   0.381   0.836  0.7600 -0.0673 -0.0086
  441SOL    HW2 1837   3.607   0.380   0.931  2.2035 -0.8352  0.1745
  441SOL    HW3 1838   3.613   0.289   0.810 -0.9007  0.2531 -0.8434
  441SOL    MW4 1839   3.616   0.368   0.845  0.7312 -0.1263 -0.0947
  442SOL     OW 1840   3.901   0.421   0.442 -0.5617 -0.1377 -0.0983
  442SOL    HW2 1841   3.936   0.379   0.521  0.5658 -1.0871 -1.0905
  442SOL    HW3 1842   3.885   0.350   0.381 -2.4383  0.4923 -0.3664
  442SOL    MW4 1843   3.903   0.406   0.445 -0.6607 -0.1798 -0.2646
  443SOL     OW 1844   3.887   0.704   0.934  0.8186 -0.2782  0.1818
  443SOL    HW2 1845   3.875   0.735   1.024  1.2066  0.2077  0.0702
  443SOL    HW3 1846   3.945   0.769   0.894  1.0424 -0.7553 -0.2747
  443SOL    MW4 1847   3.893   0.717   0.941  0.8991 -0.2771  0.1069
  444SOL     OW 1848   3.667   0.722   0.765  0.2692 -0.6115 -0.1990
  444SOL    HW2 1849   3.716   0.702   0.685 -0.8005 -0.3151 -0.9378
  444SOL    HW3 1850   3.731   0.712   0.835  1.3195 -0.4946 -1.1239
  444SOL    MW4 1851   3.682   0.718   0.763  0.2668 -0.5570 -0.4184
  445SOL     OW 1852   3.607   1.149   0.802 -0.2904 -0.3259  0.0671
  445SOL    HW2 1853   3.596   1.133   0.895  2.0459 -1.6906  0.1356
  445SOL    HW3 1854   3.565   1.075   0.759 -0.2583 -0.3407  0.0615
  445SOL    MW4 1855   3.600   1.137   0.808  0.0222 -0.5077  0.0754
  446SOL     OW 1856   3.844   1.268   0.750 -0.0919 -0.0155 -0.0519
  446SOL    HW2 1857   3.767   1.213   0.765  0.0210 -0.4381 -1.0213
  446SOL    HW3 1858   3.864   1.257   0.657 -0.6105  2.3917 -0.4619
  446SOL    MW4 1859   3.837   1.259   0.740 -0.1457  0.2463 -0.2339
  447SOL     OW 1860   3.803   1.540   0.823 -0.3988  0.3009 -0.4329
  447SOL    HW2 1861   3.881   1.563   0.773  0.3883  0.8956  1.0505
  447SOL    HW3 1862   3.791   1.446   0.806  0.9902  0.0688 -0.1739
  447SOL    MW4 1863   3.812   1.530   0.814 -0.1118  0.3488 -0.2030
  448SOL     OW 1864   3.578   1.678   0.728  0.1114 -0.2175  0.2835
  448SOL    HW2 1865   3.558   1.756   0.779  0.5062  0.4662 -0.5880
  448SOL    HW3 1866   3.658   1.643   0.767 -0.8642 -1.0246  1.6015
  448SOL    MW4 1867   3.586   1.684   0.740  0.0348 -0.2339  0.3423
  449SOL     OW 1868   3.577   1.921   0.861 -0.3352  0.0280 -0.6658
  449SOL    HW2 1869   3.649   1.950   0.805  0.8218 -2.3275 -0.4593
  449SOL    HW3 1870   3.499   1.960   0.821  0.6405 -0.4275 -3.0899
  449SOL    MW4 1871   3.576   1.930   0.848 -0.0536 -0.3428 -0.9584
  450SOL     OW 1872   3.801   2.009   0.731 -0.1385  0.2220  0.1439
  450SOL    HW2 1873   3.882   1.965   0.758 -0.9096 -1.6716 -0.6052
  450SOL    HW3 1874   3.816   2.032   0.640 -0.3016  0.2114  0.1150
  450SOL    MW4 1875   3.814   2.006   0.723 -0.2615 -0.0293  0.0412
  451SOL     OW 1876   3.788   2.286   0.811  0.4110 -0.2745 -0.1878
  451SOL    HW2 1877   3.817   2.289   0.902  2.1254  0.5590 -0.7357
  451SOL    HW3 1878   3.795   2.194   0.787  0.3688 -0.4318  0.4009
  451SOL    MW4 1879   3.793   2.274   0.820  0.6318 -0.1853 -0.1824
  452SOL     OW 1880   3.599   2.461   0.701 -0.5709  0.0614 -0.4463
  452SOL    HW2 1881   3.589   2.526   0.770 -2.0639  0.6386 -1.1884
  452SOL    HW3 1882   3.670   2.404   0.732 -0.9798  0.5189  1.3850
  452SOL    MW4 1883   3.607   2.462   0.714 -0.8221  0.1976 -0.3026
  453SOL     OW 1884   3.815   2.764   0.721  0.0293 -0.3081  0.0288
  453SOL    HW2 1885   3.741   2.719   0.762 -0.5325  0.3479 -0.2482
  453SOL    HW3 1886   3.820   2.848   0.767  0.3384 -0.1839 -0.2325
  453SOL    MW4 1887   3.806   2.769   0.732 -0.0043 -0.2050 -0.0422
  454SOL     OW 1888   3.802   3.085   0.363 -0.0587 -0.2604 -0.2183
  454SOL    HW2 1889   3.796   2.994   0.392  0.2195  0.1385  1.1480
  454SOL    HW3 1890   3.722   3.099   0.312  0.0082 -1.3346 -0.6193
  454SOL    MW4 1891   3.791   3.075   0.360 -0.0131 -0.3493 -0.0910
  455SOL     OW 1892   3.797   3.019   0.833 -0.2849 -0.3356 -0.1193
  455SOL    HW2 1893   3.862   3.084   0.806 -1.0117  0.7220  0.6219
  455SOL    HW3 1894   3.714   3.051   0.797 -0.3984 -1.6782 -1.0578
  455SOL    MW4 1895   3.795   3.032   0.825 -0.3958 -0.3731 -0.1454
  456SOL     OW 1896   3.564   3.150   0.729  0.0664 -0.4022  0.6584
  456SOL    HW2 1897   3.494   3.107   0.777 -0.5158  0.9547  1.0572
  456SOL    HW3 1898   3.523   3.178   0.647  0.8112 -1.8630 -0.2375
  456SOL    MW4 1899   3.549   3.148   0.725  0.0880 -0.4160  0.5928
  457SOL     OW 1900   3.586   3.393   0.886  0.6939 -0.4746  0.2477
  457SOL    HW2 1901   3.577   3.314   0.833  0.2337  0.2552 -0.7893
  457SOL    HW3 1902   3.522   3.454   0.849  0.6299  0.1744  1.4177
  457SOL    MW4 1903   3.577   3.391   0.874  0.6249 -0.2928  0.2652
  458SOL     OW 1904   3.783   3.571   0.719  0.1876  0.1815  0.2105
  458SOL    HW2 1905   3.862   3.523   0.741  1.1433  1.1913 -0.9728
  458SOL    HW3 1906   3.712   3.522   0.762  1.3386 -1.2475  0.4984
  458SOL    MW4 1907   3.784   3.558   0.727  0.4656  0.1264  0.0923
  459SOL     OW 1908   3.801   3.822   0.835 -0.1746 -0.4194  0.5420
  459SOL    HW2 1909   3.728   3.866   0.790  0.3051  1.5751  1.6374
  459SOL    HW3 1910   3.801   3.733   0.799  0.4769  1.1892 -3.7527
  459SOL    MW4 1911   3.791   3.816   0.824 -0.0255  0.0560  0.1199
  460SOL     OW 1912   3.604   3.965   0.712  0.0009  0.0818  0.1370
  460SOL    HW2 1913   3.558   3.957   0.628  0.1007 -0.5504  0.1382
  460SOL    HW3 1914   3.589   4.055   0.739 -1.6199 -0.2439  0.3661
  460SOL    MW4 1915   3.596   3.976   0.704 -0.1996 -0.0443  0.1674
  461SOL     OW 1916   3.584   4.210   0.811  0.1139  0.4956 -0.1332
  461SOL    HW2 1917   3.672   4.241   0.789  0.5809 -0.0802  0.9021
  461SOL    HW3 1918   3.526   4.281   0.783  0.9128  0.9286 -0.7118
  461SOL    MW4 1919   3.588   4.224   0.804  0.2809  0.4768 -0.0730
  462SOL     OW 1920   3.839   4.350   0.753 -0.0803 -0.2469 -0.1439
  462SOL    HW2 1921   3.896   4.298   0.810  0.1898 -0.4739 -0.6134
  462SOL    HW3 1922   3.850   4.440   0.783  0.8280 -0.2426 -0.4774
  462SOL    MW4 1923   3.848   4.355   0.764  0.0753 -0.2761 -0.2499
  463SOL     OW 1924   4.275   4.628   0.855  0.2701  0.1118 -0.1906
  463SOL    HW2 1925   4.297   4.626   0.948 -0.7220 -0.6524  0.0486
  463SOL    HW3 1926   4.231   4.544   0.840 -0.1925  0.5270 -1.1868
  463SOL    MW4 1927   4.272   4.617   0.866  0.0787  0.0653 -0.2905
  464SOL     OW 1928   4.035   0.079   0.722 -0.4488  0.3240  0.4230
  464SOL    HW2 1929   4.029   0.172   0.700  1.6211  0.1986 -0.8459
  464SOL    HW3 1930   4.104   0.074   0.788  0.4946 -0.4448 -0.5883
  464SOL    MW4 1931   4.043   0.091   0.727 -0.0510  0.2060  0.1222
  465SOL     OW 1932   3.891   0.428   0.920  0.2467  0.1587  0.0423
  465SOL    HW2 1933   3.880   0.522   0.931  0.4610  0.1912 -0.0274
  465SOL    HW3 1934   3.806   0.398   0.888 -0.1848  0.1635  1.1371
  465SOL    MW4 1935   3.878   0.436   0.917  0.2182  0.1636  0.1776
  466SOL     OW 1936   4.284   0.483   0.737 -0.0487  0.2686  0.6014
  466SOL    HW2 1937   4.306   0.393   0.762 -1.9300 -0.3012  0.2811
  466SOL    HW3 1938   4.308   0.488   0.645  1.8345  0.6955  1.1021
  466SOL    MW4 1939   4.290   0.472   0.728 -0.0486  0.2497  0.6251
  467SOL     OW 1940   4.265   0.730   0.854  0.2054 -0.1635 -0.0086
  467SOL    HW2 1941   4.180   0.770   0.839  0.7373  0.6805 -0.8464
  467SOL    HW3 1942   4.257   0.642   0.815 -0.2477 -0.0535 -0.1709
  467SOL    MW4 1943   4.253   0.724   0.847  0.2155 -0.0376 -0.1405
  468SOL     OW 1944   4.045   0.878   0.780  0.0608 -0.0859  0.6894
  468SOL    HW2 1945   4.048   0.968   0.814 -0.0481  0.1319  0.1261
  468SOL    HW3 1946   4.032   0.888   0.686  0.5820 -0.6846  0.5507
  468SOL    MW4 1947   4.044   0.891   0.772  0.1149 -0.1361  0.5968
  469SOL     OW 1948   4.062   1.131   0.871 -0.1739  0.1436 -0.0042
  469SOL    HW2 1949   4.046   1.136   0.965 -0.8401 -0.0185 -0.1047
  469SOL    HW3 1950   3.991   1.183   0.832  0.6340  0.9952 -0.3758
  469SOL    MW4 1951   4.050   1.139   0.878 -0.1554  0.2346 -0.0665
  470SOL     OW 1952   4.283   1.274   0.746 -0.4971  0.2621  0.5139
  470SOL    HW2 1953   4.225   1.215   0.795 -0.3225  0.7507  1.3102
  470SOL    HW3 1954   4.370   1.234   0.755 -0.1081  1.4304  2.3617
  470SOL    MW4 1955   4.287   1.261   0.754 -0.4230  0.4807  0.8627
  471SOL     OW 1956   4.278   1.523   0.853 -0.3500 -0.5156 -0.2584
  471SOL    HW2 1957   4.285   1.517   0.949 -2.9317  0.2884  0.0080
  471SOL    HW3 1958   4.289   1.433   0.823  0.5240 -0.7770  0.7666
  471SOL    MW4 1959   4.281   1.511   0.862 -0.5755 -0.4441 -0.0881
  472SOL     OW 1960   4.047   1.626   0.720  0.1225 -0.4026 -0.1784
  472SOL    HW2 1961   4.123   1.584   0.762 -0.2229 -1.1957 -0.3336
  472SOL    HW3 1962   4.078   1.651   0.633  0.9407  1.5434  0.6592
  472SOL    MW4 1963   4.061   1.624   0.714  0.1845 -0.2505 -0.0884
  473SOL     OW 1964   4.005   1.871   0.837 -0.5748 -0.2087  0.0853
  473SOL    HW2 1965   4.094   1.906   0.831 -1.0031  0.9348  0.3172
  473SOL    HW3 1966   4.011   1.784   0.797  0.3954  0.3205 -0.9512
  473SOL    MW4 1967   4.018   1.864   0.831 -0.5031  0.0119 -0.0209
  474SOL     OW 1968   4.262   1.994   0.786 -0.1689 -0.2356  0.2161
  474SOL    HW2 1969   4.339   1.940   0.802  0.4637  0.3825 -0.7174
  474SOL    HW3 1970   4.261   2.006   0.691  0.6841  2.8248  0.5570
  474SOL    MW4 1971   4.272   1.988   0.776  0.0267  0.2496  0.1379
  475SOL     OW 1972   4.283   2.250   0.860  0.0696 -0.3996  0.7062
  475SOL    HW2 1973   4.200   2.281   0.824  0.6665  0.6049  0.1590
  475SOL    HW3 1974   4.287   2.158   0.835 -0.3633 -0.1645 -0.2430
  475SOL    MW4 1975   4.272   2.242   0.852  0.0911 -0.2360  0.5088
  476SOL     OW 1976   4.042   2.349   0.735 -0.5031 -0.1780  0.1907
  476SOL    HW2 1977   4.036   2.435   0.777 -1.1819  0.1118 -0.4777
  476SOL    HW3 1978   3.960   2.305   0.759 -1.4596  0.4654 -1.8414
  476SOL    MW4 1979   4.030   2.355   0.744 -0.7191 -0.0551 -0.1656
  477SOL     OW 1980   4.026   2.625   0.815 -0.2899 -0.0830  0.1531
  477SOL    HW2 1981   4.098   2.686   0.798  0.3445 -0.9232 -0.2190
  477SOL    HW3 1982   3.950   2.665   0.773 -0.2678  1.2901  1.3788
  477SOL    MW4 1983   4.025   2.638   0.807 -0.2036 -0.0129  0.2657
  478SOL     OW 1984   4.237   2.809   0.756 -0.4145  0.0545 -0.3019
  478SOL    HW2 1985   4.320   2.778   0.792 -0.0006  0.6559 -0.7310
  478SOL    HW3 1986   4.249   2.805   0.661 -0.8693  0.1616 -0.3647
  478SOL    MW4 1987   4.250   2.805   0.748 -0.4206  0.1481 -0.3667
  479SOL     OW 1988   4.248   3.091   0.818 -0.1599 -0.4472 -0.4599
  479SOL    HW2 1989   4.248   2.998   0.796  0.1648 -0.1942 -1.5368
  479SOL    HW3 1990   4.336   3.121   0.793 -0.1548  0.0823  0.1808
  479SOL    MW4 1991   4.260   3.083   0.812 -0.1163 -0.3438 -0.5174
  480SOL     OW 1992   3.996   3.195   0.743  0.3685 -0.3385  0.1612
  480SOL    HW2 1993   4.012   3.285   0.772  0.2001 -0.4791  0.6828
  480SOL    HW3 1994   4.079   3.150   0.758  0.6364 -0.1234 -0.6558
  480SOL    MW4 1995   4.009   3.201   0.749  0.3819 -0.3285  0.1222
  481SOL     OW 1996   3.999   3.458   0.829 -0.4166  0.1202  0.0377
  481SOL    HW2 1997   4.003   3.461   0.925  0.0681 -0.7926  0.0536
  481SOL    HW3 1998   4.080   3.499   0.800 -1.0420  1.3493 -0.0072
  481SOL    MW4 1999   4.010   3.463   0.838 -0.4354  0.1619  0.0339
  482SOL     OW 2000   4.397   3.816   0.132 -0.3311  0.2357  0.1984
  482SOL    HW2 2001   4.398   3.853   0.044 -1.1118  0.4692  0.2884
  482SOL    HW3 2002   4.398   3.892   0.191 -0.9908  0.0990  0.3864
  482SOL    MW4 2003   4.397   3.831   0.128 -0.5212  0.2487  0.2351
  483SOL     OW 2004   4.257   3.825   0.877 -0.1166 -0.3941  0.1294
  483SOL    HW2 2005   4.266   3.830   0.972 -0.3329 -1.0709  0.1831
  483SOL    HW3 2006   4.172   3.865   0.858  0.0548  0.0039  0.1939
  483SOL    MW4 2007   4.247   3.831   0.887 -0.1221 -0.4306  0.1450
  484SOL     OW 2008   4.035   3.948   0.768  0.0123 -0.5276 -0.1457
  484SOL    HW2 2009   3.950   3.908   0.785  0.1565 -0.4767  0.7430
  484SOL    HW3 2010   4.027   3.985   0.680 -1.1745  0.2163  0.2610
  484SOL    MW4 2011   4.023   3.948   0.759 -0.1254 -0.4227  0.0252
  485SOL     OW 2012   3.994   4.194   0.913  0.4769 -0.2389  0.6023
  485SOL    HW2 2013   4.034   4.210   0.998  1.7063 -0.7942  0.1435
  485SOL    HW3 2014   4.006   4.101   0.897  0.0698 -0.1837 -0.0873
  485SOL    MW4 2015   4.001   4.184   0.922  0.5851 -0.3052  0.4508
  486SOL     OW 2016   4.189   4.377   0.789  0.2050  0.1751 -0.1477
  486SOL    HW2 2017   4.151   4.402   0.704  0.8520 -2.1509 -1.1519
  486SOL    HW3 2018   4.124   4.317   0.827  0.0137  1.0504  0.9246
  486SOL    MW4 2019   4.175   4.372   0.783  0.2651 -0.0167 -0.1387
  487SOL     OW 2020   0.193   4.663   1.222 -0.2829 -0.1128  0.0340
  487SOL    HW2 2021   0.277   4.702   1.248  1.6657 -3.1834 -1.3581
  487SOL    HW3 2022   0.193   4.668   1.126 -1.2027 -1.0307 -0.0231
  487SOL    MW4 2023   0.204   4.669   1.213 -0.1471 -0.6390 -0.1574
  488SOL     OW 2024   4.477   0.156   1.278 -0.1804  0.6255 -0.4848
  488SOL    HW2 2025   4.416   0.110   1.220 -0.5214 -0.1247  0.4599
  488SOL    HW3 2026   4.559   0.108   1.269 -0.3774  0.1883  0.0584
  488SOL    MW4 2027   4.480   0.144   1.269 -0.2513  0.4688 -0.2885
  489SOL     OW 2028   0.037   0.392   1.162 -0.3625 -0.1111  0.0833
  489SOL    HW2 2029  -0.051   0.428   1.149 -0.2744 -0.0184 -0.2629
  489SOL    HW3 2030   0.023   0.314   1.216 -0.9087 -1.3056 -1.7571
  489SOL    MW4 2031   0.024   0.386   1.167 -0.4230 -0.2564 -0.2052
  490SOL     OW 2032   0.268   0.539   1.215 -0.0721  0.0803  0.0283
  490SOL    HW2 2033   0.270   0.625   1.174 -0.1048 -0.3232 -0.8223
  490SOL    HW3 2034   0.184   0.501   1.189 -0.2523 -0.0415  0.7589
  490SOL    MW4 2035   0.257   0.545   1.206 -0.1002  0.0111  0.0124
  491SOL     OW 2036   0.258   0.783   1.098  0.4455 -0.0562  0.2857
  491SOL    HW2 2037   0.339   0.828   1.124  1.2957 -1.1790 -0.3486
  491SOL    HW3 2038   0.188   0.838   1.133  1.4433  1.8306 -0.5812
  491SOL    MW4 2039   0.260   0.796   1.106  0.6893  0.0446  0.0876
  492SOL     OW 2040   0.011   0.916   1.181  0.2692 -0.4917 -0.3948
  492SOL    HW2 2041   0.034   0.894   1.271  2.2354  0.8719 -0.5349
  492SOL    HW3 2042  -0.063   0.859   1.161 -0.0256 -1.0026  1.9827
  492SOL    MW4 2043   0.005   0.906   1.190  0.4897 -0.3792 -0.0997
  493SOL     OW 2044   0.020   1.169   1.074 -0.3387 -0.3705 -0.0542
  493SOL    HW2 2045  -0.064   1.188   1.115 -0.2813  0.6640 -0.4020
  493SOL    HW3 2046   0.044   1.082   1.106 -0.3627  0.3510  1.9754
  493SOL    MW4 2047   0.012   1.160   1.083 -0.3343 -0.1389  0.1676
  494SOL     OW 2048   0.217   1.284   1.230  0.2564  0.4547  0.0088
  494SOL    HW2 2049   0.287   1.228   1.198  0.2395  0.7720 -0.5967
  494SOL    HW3 2050   0.137   1.247   1.191  0.0672  0.0355  0.7719
  494SOL    MW4 2051   0.215   1.272   1.221  0.2292  0.4412  0.0296
  495SOL     OW 2052   0.258   1.533   1.131  0.0566  0.0922 -0.1814
  495SOL    HW2 2053   0.260   1.440   1.155  0.7427 -0.0643 -0.8431
  495SOL    HW3 2054   0.251   1.533   1.036  0.0069  0.7211 -0.1771
  495SOL    MW4 2055   0.257   1.521   1.122  0.1406  0.1545 -0.2681
  496SOL     OW 2056   0.017   1.588   1.250  0.2005  0.5307  0.1706
  496SOL    HW2 2057  -0.002   1.680   1.228  1.7377  1.4667  2.5466
  496SOL    HW3 2058   0.098   1.568   1.205 -2.6765 -1.3899 -4.5689
  496SOL    MW4 2059   0.025   1.598   1.241  0.0238  0.4007 -0.1413
  497SOL     OW 2060   4.463   1.858   1.172 -0.4670  0.1943  0.0801
  497SOL    HW2 2061   4.404   1.928   1.200 -2.0705 -1.0423 -0.0470
  497SOL    HW3 2062   4.462   1.863   1.076  2.7214  2.6002  0.1315
  497SOL    MW4 2063   4.455   1.868   1.163 -0.2580  0.3487  0.0702
  498SOL     OW 2064   0.203   2.017   1.217  0.2142  0.1214 -0.1129
  498SOL    HW2 2065   0.200   2.107   1.184 -0.8332  0.4505  0.8205
  498SOL    HW3 2066   0.119   1.980   1.191  0.9922 -0.8805 -1.2481
  498SOL    MW4 2067   0.192   2.024   1.209  0.1787  0.0324 -0.1395
  499SOL     OW 2068   0.214   2.274   1.107 -0.0845  0.5365  0.0512
  499SOL    HW2 2069   0.284   2.329   1.143 -0.2555 -0.0685  1.3411
  499SOL    HW3 2070   0.134   2.326   1.119 -0.2864 -0.0787  1.5329
  499SOL    MW4 2071   0.212   2.288   1.113 -0.1337  0.3755  0.4168
  500SOL     OW 2072   4.485   2.425   1.227 -0.4712  0.1341 -0.1888
  500SOL    HW2 2073   4.480   2.419   1.323 -0.8829  0.5018 -0.1854
  500SOL    HW3 2074   4.401   2.390   1.197  0.1540 -1.1645 -0.4711
  500SOL    MW4 2075   4.473   2.419   1.236 -0.4430  0.0112 -0.2255
  501SOL     OW 2076   4.480   2.678   1.098  0.3262 -0.3077  0.2707
  501SOL    HW2 2077   4.402   2.723   1.129  0.4575  0.5660 -0.6398
  501SOL    HW3 2078   4.493   2.606   1.160  0.1886  0.9830  1.8198
  501SOL    MW4 2079   4.472   2.674   1.110  0.3252 -0.0219  0.3550
  502SOL     OW 2080   0.202   2.817   1.193  0.2228  0.0520 -0.4963
  502SOL    HW2 2081   0.205   2.819   1.289  1.6858  0.7153 -0.5466
  502SOL    HW3 2082   0.117   2.779   1.173 -0.0639 -0.1755  1.0727
  502SOL    MW4 2083   0.191   2.812   1.203  0.3780  0.1097 -0.2960
  503SOL     OW 2084   0.228   3.079   1.110 -0.2540 -0.4925  0.3875
  503SOL    HW2 2085   0.316   3.111   1.128  0.3885 -1.3721 -1.1464
  503SOL    HW3 2086   0.227   2.991   1.146 -0.3594 -0.6660 -0.0463
  503SOL    MW4 2087   0.239   3.072   1.117 -0.1832 -0.6313  0.1278
  504SOL     OW 2088   0.022   3.207   1.233  0.1212 -0.5780  0.2325
  504SOL    HW2 2089  -0.053   3.166   1.189  0.2617 -0.8529  0.2494
  504SOL    HW3 2090   0.098   3.174   1.185  0.2651 -0.7520  0.5860
  504SOL    MW4 2091   0.022   3.197   1.221  0.1587 -0.6368  0.2815
  505SOL     OW 2092   4.487   3.455   1.097 -0.0429  0.0366 -0.3868
  505SOL    HW2 2093   4.503   3.369   1.134 -1.4451  0.4958  1.3597
  505SOL    HW3 2094   4.489   3.442   1.003 -1.0717 -2.0764 -0.1377
  505SOL    MW4 2095   4.489   3.442   1.090 -0.3643 -0.1817 -0.1235
  506SOL     OW 2096   0.202   3.589   1.235 -0.4073  0.3040 -0.0588
  506SOL    HW2 2097   0.179   3.583   1.328 -0.0206  1.7042  0.1304
  506SOL    HW3 2098   0.128   3.549   1.189 -0.9514  0.3100  0.8061
  506SOL    MW4 2099   0.189   3.583   1.241 -0.4281  0.4897  0.0805
  507SOL     OW 2100   0.246   3.860   1.154 -0.1592 -0.1776 -0.5622
  507SOL    HW2 2101   0.165   3.912   1.157 -0.5685 -0.8636  1.1226
  507SOL    HW3 2102   0.220   3.774   1.187  1.3710 -0.2642  0.4482
  507SOL    MW4 2103   0.232   3.856   1.159 -0.0113 -0.2797 -0.2066
  508SOL     OW 2104   0.012   4.016   1.205 -0.2291 -0.2220  0.1004
  508SOL    HW2 2105   0.011   4.006   1.300 -0.2397 -0.6679  0.0549
  508SOL    HW3 2106  -0.068   3.974   1.176 -0.2001 -0.1301 -0.1109
  508SOL    MW4 2107   0.001   4.009   1.214 -0.2266 -0.2685  0.0666
  509SOL     OW 2108   0.080   4.268   1.103 -0.1039  0.2945 -0.1827
  509SOL    HW2 2109   0.144   4.315   1.156  0.5954 -0.4969 -0.3244
  509SOL    HW3 2110   0.063   4.187   1.151 -1.9455  1.0538  0.4924
  509SOL    MW4 2111   0.086   4.263   1.116 -0.2546  0.2899 -0.1122
  510SOL     OW 2112   0.272   4.390   1.262  0.1787 -0.3049 -0.4989
  510SOL    HW2 2113   0.271   4.393   1.358 -0.2541 -0.8386 -0.4859
  510SOL    HW3 2114   0.255   4.480   1.234 -1.9699 -0.5795 -0.0955
  510SOL    MW4 2115   0.270   4.402   1.271 -0.1619 -0.4115 -0.4439
  511SOL     OW 2116   0.673   4.653   1.093  0.0504  0.0402 -0.0613
  511SOL    HW2 2117   0.751   4.701   1.120  0.9575 -0.7698 -1.2117
  511SOL    HW3 2118   0.669   4.578   1.153 -0.1278  0.3519  0.3177
  511SOL    MW4 2119   0.683   4.649   1.105  0.1465 -0.0256 -0.1631
  512SOL     OW 2120   0.456   0.121   1.199  0.3788 -0.2852  0.0098
  512SOL    HW2 2121   0.432   0.186   1.133 -0.5007  0.1688  0.7618
  512SOL    HW3 2122   0.527   0.071   1.159  1.9745  1.9765 -0.0849
  512SOL    MW4 2123   0.462   0.123   1.185  0.4733  0.0731  0.0963
  513SOL     OW 2124   0.418   0.371   1.065  0.0319  0.2230  0.2383
  513SOL    HW2 2125   0.368   0.430   1.121 -0.4116  0.3809 -0.3167
  513SOL    HW3 2126   0.401   0.403   0.976  1.3307  0.4503  0.0645
  513SOL    MW4 2127   0.409   0.383   1.061  0.1448  0.2739  0.1421
  514SOL     OW 2128   0.689   0.491   1.176 -0.7003  0.1360  0.1441
  514SOL    HW2 2129   0.681   0.578   1.136 -1.7683  0.2497  0.5777
  514SOL    HW3 2130   0.607   0.447   1.152  0.9588 -1.7408 -2.3607
  514SOL    MW4 2131   0.677   0.497   1.167 -0.6223 -0.0966 -0.1293
  515SOL     OW 2132   0.723   0.765   1.111 -0.1643  0.2450  0.0345
  515SOL    HW2 2133   0.645   0.815   1.136 -0.6348 -1.6661  2.5130
  515SOL    HW3 2134   0.721   0.765   1.015 -1.6453  2.5946  0.0122
  515SOL    MW4 2135   0.712   0.772   1.102 -0.4218  0.3028  0.3587
  516SOL     OW 2136   0.497   0.893   1.199  0.3224 -0.3720  0.0613
  516SOL    HW2 2137   0.491   0.886   1.294  0.0146  1.1227  0.1722
  516SOL    HW3 2138   0.506   0.987   1.183  0.9590 -0.6624 -1.3571
  516SOL    MW4 2139   0.497   0.905   1.210  0.3658 -0.2131 -0.1111
  517SOL     OW 2140   0.446   1.155   1.131 -0.2765  0.2359  0.0195
  517SOL    HW2 2141   0.513   1.218   1.160 -0.6212  1.2748 -1.3730
  517SOL    HW3 2142   0.446   1.163   1.036 -0.7439 -1.4752 -0.1364
  517SOL    MW4 2143   0.455   1.164   1.123 -0.3837  0.1472 -0.1850
  518SOL     OW 2144   0.671   1.291   1.230 -0.3913  0.1016 -0.5460
  518SOL    HW2 2145   0.738   1.236   1.189  0.8723  0.6352  0.7574
  518SOL    HW3 2146   0.683   1.376   1.188  0.2417  0.3878  0.2102
  518SOL    MW4 2147   0.682   1.295   1.219 -0.1410  0.2097 -0.2742
  519SOL     OW 2148   0.712   1.548   1.111 -0.1181 -0.1775  0.5528
  519SOL    HW2 2149   0.791   1.591   1.144 -0.4840  1.3049 -0.4524
  519SOL    HW3 2150   0.639   1.594   1.153 -0.4792 -1.3788  1.2928
  519SOL    MW4 2151   0.713   1.560   1.121 -0.2140 -0.1404  0.5180
  520SOL     OW 2152   0.482   1.647   1.225  0.0748  0.3477 -0.6296
  520SOL    HW2 2153   0.464   1.641   1.319  0.1153 -0.5275 -0.6688
  520SOL    HW3 2154   0.405   1.609   1.184 -0.5651  2.0157 -1.0110
  520SOL    MW4 2155   0.470   1.641   1.232 -0.0043  0.4522 -0.6850
  521SOL     OW 2156   0.458   1.907   1.145 -0.5283 -0.0678  0.3323
  521SOL    HW2 2157   0.466   1.815   1.170 -0.1929 -0.4786 -1.2300
  521SOL    HW3 2158   0.371   1.933   1.176 -1.2260 -1.3404 -0.5023
  521SOL    MW4 2159   0.447   1.899   1.152 -0.5760 -0.2898  0.0160
  522SOL     OW 2160   0.669   2.065   1.221 -0.3666  0.4956  0.3606
  522SOL    HW2 2161   0.676   2.054   1.316 -1.7059 -0.8980  0.3238
  522SOL    HW3 2162   0.589   2.018   1.198 -0.6726  1.8030 -1.3075
  522SOL    MW4 2163   0.659   2.057   1.231 -0.5837  0.4842  0.1355
  523SOL     OW 2164   0.647   2.340   1.117  0.1697  0.0058 -0.0160
  523SOL    HW2 2165   0.573   2.376   1.165 -0.9870 -1.0303 -0.9813
  523SOL    HW3 2166   0.641   2.245   1.129  0.2638 -0.2242 -1.5920
  523SOL    MW4 2167   0.637   2.332   1.125  0.0295 -0.1612 -0.3512
  524SOL     OW 2168   0.418   2.436   1.222  0.2797  0.0095  0.1698
  524SOL    HW2 2169   0.415   2.443   1.317  1.3778 -0.2803  0.2313
  524SOL    HW3 2170   0.436   2.524   1.191  2.3600 -0.3258  0.3616
  524SOL    MW4 2171   0.420   2.448   1.231  0.6991 -0.0730  0.2031
  525SOL     OW 2172   0.455   2.696   1.138  0.1612  0.2418 -0.0301
  525SOL    HW2 2173   0.380   2.747   1.167 -0.0593 -1.1011  1.8667
  525SOL    HW3 2174   0.441   2.682   1.044 -1.5680  0.6136  0.1709
  525SOL    MW4 2175   0.443   2.701   1.129 -0.0960  0.1137  0.2468
  526SOL     OW 2176   0.657   2.863   1.217 -0.5254  0.3151  0.4143
  526SOL    HW2 2177   0.658   2.935   1.153  0.3945  0.8826  1.0736
  526SOL    HW3 2178   0.588   2.805   1.185 -0.8858  1.1971 -0.4451
  526SOL    MW4 2179   0.648   2.865   1.204 -0.4516  0.5064  0.3879
  527SOL     OW 2180   0.700   3.083   1.067 -0.0807 -0.7181  0.0772
  527SOL    HW2 2181   0.776   3.135   1.092 -1.4113  1.6461 -0.5859
  527SOL    HW3 2182   0.694   3.093   0.972 -0.5498 -1.8646 -0.0265
  527SOL    MW4 2183   0.709   3.091   1.057 -0.3181 -0.5574 -0.0240
  528SOL     OW 2184   0.462   3.181   1.223  0.5478 -0.1913 -0.0018
  528SOL    HW2 2185   0.452   3.275   1.208  0.0397 -0.4299 -1.2047
  528SOL    HW3 2186   0.538   3.157   1.170 -1.3209 -1.0622 -2.3832
  528SOL    MW4 2187   0.471   3.190   1.214  0.2342 -0.3378 -0.4747
  529SOL     OW 2188   0.435   3.465   1.123  0.4314  0.0115  0.6327
  529SOL    HW2 2189   0.519   3.510   1.132  0.7257 -0.5842  0.8719
  529SOL    HW3 2190   0.375   3.515   1.179  0.3440  1.1281 -0.4368
  529SOL    MW4 2191   0.438   3.477   1.131  0.4587  0.0803  0.5231
  530SOL     OW 2192   0.677   3.621   1.202 -0.0914  0.1919  0.3508
  530SOL    HW2 2193   0.668   3.608   1.296 -0.3462 -1.2151  0.1347
  530SOL    HW3 2194   0.697   3.714   1.193 -0.1407  0.3528  1.7870
  530SOL    MW4 2195   0.678   3.632   1.213 -0.1315  0.0274  0.5119
  531SOL     OW 2196   0.698   3.896   1.145 -0.6756 -0.3430 -0.0337
  531SOL    HW2 2197   0.612   3.925   1.174 -0.9054  0.5023 -1.4784
  531SOL    HW3 2198   0.695   3.905   1.050  1.1930  0.2406 -0.0573
  531SOL    MW4 2199   0.686   3.901   1.136 -0.4594 -0.1545 -0.2275
  532SOL     OW 2200   0.470   4.008   1.282  0.2535 -0.4345  0.0267
  532SOL    HW2 2201   0.471   4.089   1.232 -1.3515 -0.7610 -0.5677
  532SOL    HW3 2202   0.401   3.955   1.240  1.1296 -2.0000  0.5424
  532SOL    MW4 2203   0.461   4.012   1.270  0.1573 -0.6843  0.0163
  533SOL     OW 2204   0.460   4.245   1.139  0.2483 -0.0420  0.1469
  533SOL    HW2 2205   0.532   4.306   1.152  0.2576 -0.2405  1.0224
  533SOL    HW3 2206   0.387   4.282   1.189 -0.1133 -0.0959 -0.3376
  533SOL    MW4 2207   0.460   4.258   1.147  0.2018 -0.0753  0.1985
  534SOL     OW 2208   0.672   4.405   1.234  0.3260 -0.0809  0.0733
  534SOL    HW2 2209   0.679   4.412   1.329 -2.1974 -2.6113  0.5038
  534SOL    HW3 2210   0.741   4.344   1.209  1.4050  1.0761  0.1750
  534SOL    MW4 2211   0.682   4.398   1.243  0.1354 -0.2618  0.1438
  535SOL     OW 2212   1.111   4.610   1.095  0.3092 -0.5264 -0.1945
  535SOL    HW2 2213   1.123   4.523   1.133 -0.9013 -0.5908  0.0740
  535SOL    HW3 2214   1.116   4.596   1.000 -0.4700 -0.9997 -0.1744
  535SOL    MW4 2215   1.113   4.597   1.088  0.0467 -0.5975 -0.1564
  536SOL     OW 2216   0.910   0.127   1.171 -0.1953 -0.2970  0.1571
  536SOL    HW2 2217   0.912   0.127   1.267  0.6241 -0.0176  0.1401
  536SOL    HW3 2218   0.978   0.065   1.146  0.4365  0.5522 -0.2555
  536SOL    MW4 2219   0.919   0.119   1.181 -0.0039 -0.1481  0.1004
  537SOL     OW 2220   0.946   0.400   1.089 -0.0154 -0.5913  0.3120
  537SOL    HW2 2221   0.956   0.308   1.113 -0.9812 -0.7537  0.0803
  537SOL    HW3 2222   0.873   0.432   1.141 -1.1387 -0.5420 -1.2534
  537SOL    MW4 2223   0.938   0.392   1.099 -0.2910 -0.6062  0.0747
  538SOL     OW 2224   1.160   0.563   1.192  0.2698 -0.0690  0.1916
  538SOL    HW2 2225   1.146   0.558   1.287 -0.3413  0.2862  0.1281
  538SOL    HW3 2226   1.095   0.502   1.156 -0.6467  1.0352 -0.0765
  538SOL    MW4 2227   1.149   0.554   1.200  0.0684  0.1236  0.1479
  539SOL     OW 2228   1.146   0.786   1.046 -0.2023 -0.7105  0.1051
  539SOL    HW2 2229   1.085   0.847   1.087  0.2792 -0.4328  0.4222
  539SOL    HW3 2230   1.139   0.707   1.098 -1.1683 -1.0905 -0.5865
  539SOL    MW4 2231   1.137   0.784   1.058 -0.2662 -0.7240  0.0557
  540SOL     OW 2232   0.936   0.917   1.166 -0.2183 -0.5197 -0.0586
  540SOL    HW2 2233   0.908   1.006   1.143  0.4034 -0.1818  0.4780
  540SOL    HW3 2234   0.861   0.862   1.144 -0.6152  0.1421 -0.3766
  540SOL    MW4 2235   0.922   0.921   1.160 -0.1886 -0.3878 -0.0298
  541SOL     OW 2236   0.874   1.183   1.095 -0.4583  0.1010 -0.5501
  541SOL    HW2 2237   0.929   1.260   1.109 -0.6999  0.2597 -0.4658
  541SOL    HW3 2238   0.874   1.170   1.000 -0.9099  0.5700 -0.6149
  541SOL    MW4 2239   0.881   1.191   1.084 -0.5497  0.1839 -0.5476
  542SOL     OW 2240   1.108   1.277   1.209  0.1446 -0.1848  0.2142
  542SOL    HW2 2241   1.100   1.271   1.305 -0.4149 -1.8279  0.0836
  542SOL    HW3 2242   1.185   1.225   1.188 -0.9471 -1.6037 -0.3975
  542SOL    MW4 2243   1.117   1.270   1.219 -0.0731 -0.5889  0.1162
  543SOL     OW 2244   1.159   1.523   1.107 -0.3017 -0.3199 -0.0484
  543SOL    HW2 2245   1.140   1.436   1.143  0.5499 -0.3423  0.3583
  543SOL    HW3 2246   1.168   1.509   1.013  0.3569 -0.7645  0.0777
  543SOL    MW4 2247   1.157   1.510   1.100 -0.1025 -0.3815  0.0219
  544SOL     OW 2248   0.936   1.676   1.214  0.1107 -0.4727  0.2401
  544SOL    HW2 2249   0.933   1.766   1.183 -0.4999 -0.1012  1.3727
  544SOL    HW3 2250   1.018   1.641   1.178 -1.0380 -0.3802 -2.6106
  544SOL    MW4 2251   0.947   1.683   1.205 -0.1214 -0.4115  0.0134
  545SOL     OW 2252   0.885   1.923   1.086 -0.1089 -0.0135 -0.2248
  545SOL    HW2 2253   0.960   1.962   1.133  0.7037 -0.8289 -0.8228
  545SOL    HW3 2254   0.809   1.971   1.119  0.2978 -1.3829  2.8537
  545SOL    MW4 2255   0.885   1.935   1.097  0.0519 -0.3020  0.1025
  546SOL     OW 2256   1.094   2.031   1.239 -0.3895 -0.3209 -0.3243
  546SOL    HW2 2257   1.090   2.037   1.335 -2.8157 -0.3790 -0.4003
  546SOL    HW3 2258   1.103   2.121   1.209 -0.4054 -0.2398 -0.0855
  546SOL    MW4 2259   1.095   2.043   1.248 -0.7119 -0.3178 -0.3028
  547SOL     OW 2260   1.118   2.296   1.131 -0.6909 -0.1982 -0.2635
  547SOL    HW2 2261   1.187   2.358   1.152  0.5726 -1.4623 -0.6327
  547SOL    HW3 2262   1.039   2.333   1.171  0.0632  1.5839 -0.4001
  547SOL    MW4 2263   1.117   2.309   1.139 -0.4246 -0.1299 -0.3302
  548SOL     OW 2264   0.887   2.443   1.179 -0.7426  0.5786 -0.1791
  548SOL    HW2 2265   0.884   2.444   1.275 -1.1135  0.8345 -0.1901
  548SOL    HW3 2266   0.803   2.406   1.153 -0.3949 -0.0632 -0.3998
  548SOL    MW4 2267   0.876   2.438   1.188 -0.7457  0.5276 -0.2097
  549SOL     OW 2268   0.894   2.733   1.122  0.0112  0.0943  0.0968
  549SOL    HW2 2269   0.886   2.645   1.157  0.3309 -0.1639 -0.4675
  549SOL    HW3 2270   0.812   2.776   1.146 -1.3545 -1.2169 -2.0150
  549SOL    MW4 2271   0.882   2.727   1.130 -0.1267 -0.1128 -0.2563
  550SOL     OW 2272   1.127   2.838   1.204  0.1300 -0.4223  0.1826
  550SOL    HW2 2273   1.136   2.806   1.294 -1.9824 -0.0622  0.5574
  550SOL    HW3 2274   1.036   2.819   1.181 -0.1080  1.8453 -0.9226
  550SOL    MW4 2275   1.116   2.831   1.213 -0.1802 -0.0756  0.0862
  551SOL     OW 2276   1.175   3.106   1.082 -0.5355  0.1620 -0.1671
  551SOL    HW2 2277   1.148   3.023   1.123 -0.0248 -0.2612 -0.6656
  551SOL    HW3 2278   1.162   3.091   0.988 -1.4035  1.0159 -0.1916
  551SOL    MW4 2279   1.170   3.093   1.075 -0.5827  0.2186 -0.2360
  552SOL     OW 2280   0.935   3.188   1.197 -0.0142  0.0924  0.2132
  552SOL    HW2 2281   0.927   3.282   1.179  0.0460 -0.3254 -2.1701
  552SOL    HW3 2282   1.013   3.161   1.149 -0.1069 -1.2000  0.7749
  552SOL    MW4 2283   0.944   3.197   1.188 -0.0185 -0.1333 -0.0272
  553SOL     OW 2284   0.897   3.457   1.101  0.2470 -0.1587  0.1692
  553SOL    HW2 2285   0.820   3.502   1.135 -2.2941 -3.5319 -0.8453
  553SOL    HW3 2286   0.888   3.465   1.006  0.9876 -0.8035  0.0451
  553SOL    MW4 2287   0.885   3.464   1.093  0.0095 -0.6888  0.0190
  554SOL     OW 2288   1.123   3.625   1.149 -0.0890  0.1288  0.3225
  554SOL    HW2 2289   1.208   3.585   1.132 -0.2229  0.6349 -1.6322
  554SOL    HW3 2290   1.060   3.560   1.122 -0.3356 -0.0600  1.3290
  554SOL    MW4 2291   1.126   3.611   1.143 -0.1392  0.1707  0.1974
  555SOL     OW 2292   1.169   3.894   1.084  0.3070  0.0033 -0.0681
  555SOL    HW2 2293   1.090   3.928   1.125  1.0426  0.5132  0.9635
  555SOL    HW3 2294   1.172   3.801   1.110  0.5466  0.2201  0.6858
  555SOL    MW4 2295   1.159   3.886   1.093  0.4357  0.0992  0.1675
  556SOL     OW 2296   0.947   4.010   1.217 -0.0723 -0.1267  0.1638
  556SOL    HW2 2297   0.941   4.018   1.312 -1.3978 -1.6335  0.2373
  556SOL    HW3 2298   0.859   3.981   1.190 -0.5623  2.9014 -1.8191
  556SOL    MW4 2299   0.934   4.007   1.226 -0.3119  0.0739 -0.0881
  557SOL     OW 2300   0.892   4.262   1.101 -0.1384  0.0164  0.2483
  557SOL    HW2 2301   0.889   4.175   1.140 -0.6743  0.4064  1.0974
  557SOL    HW3 2302   0.870   4.247   1.009  0.2354 -0.8012  0.2886
  557SOL    MW4 2303   0.889   4.248   1.094 -0.1598 -0.0396  0.3657
  558SOL     OW 2304   1.152   4.350   1.207  0.1010 -0.2121  0.2914
  558SOL    HW2 2305   1.155   4.361   1.302  1.3630  0.3447  0.1910
  558SOL    HW3 2306   1.061   4.328   1.189 -0.0220 -0.9316  1.6974
  558SOL    MW4 2307   1.140   4.348   1.217  0.2513 -0.2337  0.4636
  559SOL     OW 2308   1.597   0.007   1.090 -0.3603 -0.0674  0.1958
  559SOL    HW2 2309   1.674   0.048   1.129 -0.0309 -0.2519 -0.2494
  559SOL    HW3 2310   1.604  -0.085   1.113 -0.5733 -0.0459  0.3523
  559SOL    MW4 2311   1.608   0.000   1.098 -0.3450 -0.0887  0.1577
  560SOL     OW 2312   1.332   0.103   1.189 -0.8131  0.2189 -0.0235
  560SOL    HW2 2313   1.416   0.062   1.169 -0.4486  0.6592  0.6015
  560SOL    HW3 2314   1.267   0.044   1.150 -0.2896 -0.8946  0.7442
  560SOL    MW4 2315   1.334   0.090   1.181 -0.6959  0.1301  0.1602
  561SOL     OW 2316   1.365   0.379   1.115  0.3994 -0.0209 -0.2319
  561SOL    HW2 2317   1.329   0.298   1.149 -0.6190  0.0620 -1.0940
  561SOL    HW3 2318   1.297   0.445   1.130  0.8634  0.4903 -0.3319
  561SOL    MW4 2319   1.351   0.377   1.121  0.3262  0.0575 -0.3589
  562SOL     OW 2320   1.576   0.469   1.262  0.4121 -0.0510 -0.1138
  562SOL    HW2 2321   1.559   0.556   1.226 -0.5764  0.2656  1.0873
  562SOL    HW3 2322   1.512   0.412   1.221 -0.4648  0.2386  0.8265
  562SOL    MW4 2323   1.566   0.473   1.252  0.1661  0.0289  0.1687
  563SOL     OW 2324   1.599   0.721   1.078 -0.0289 -0.3321  0.1671
  563SOL    HW2 2325   1.668   0.776   1.115  0.0293  0.2690 -0.8156
  563SOL    HW3 2326   1.606   0.734   0.983 -1.5181 -0.2316  0.0625
  563SOL    MW4 2327   1.609   0.730   1.070 -0.2177 -0.2395  0.0236
  564SOL     OW 2328   1.373   0.843   1.204 -0.0955  0.4618 -0.0791
  564SOL    HW2 2329   1.452   0.794   1.183 -0.3038 -0.8609  2.0181
  564SOL    HW3 2330   1.307   0.809   1.143  0.9863  1.7563 -2.0051
  564SOL    MW4 2331   1.375   0.832   1.193  0.0197  0.4581 -0.0564
  565SOL     OW 2332   1.339   1.117   1.140 -0.3728 -0.3206 -0.3229
  565SOL    HW2 2333   1.345   1.026   1.167 -0.5072  0.0461  0.9541
  565SOL    HW3 2334   1.350   1.114   1.045 -0.4788 -1.6725 -0.3053
  565SOL    MW4 2335   1.341   1.105   1.131 -0.4045 -0.4506 -0.1522
  566SOL     OW 2336   1.557   1.267   1.208 -0.5044 -0.0803  0.0672
  566SOL    HW2 2337   1.632   1.230   1.161 -0.3109 -0.0254  0.3348
  566SOL    HW3 2338   1.482   1.215   1.178 -0.0831 -1.4060  1.2691
  566SOL    MW4 2339   1.557   1.256   1.198 -0.4233 -0.2480  0.2609
  567SOL     OW 2340   1.593   1.541   1.097 -0.1521 -0.0360 -0.1096
  567SOL    HW2 2341   1.674   1.582   1.128  1.2051 -2.1624 -0.6995
  567SOL    HW3 2342   1.586   1.461   1.148 -1.3322 -0.3954 -0.8240
  567SOL    MW4 2343   1.603   1.536   1.108 -0.1287 -0.3641 -0.2817
  568SOL     OW 2344   1.379   1.684   1.210  0.0126 -0.1158 -0.1815
  568SOL    HW2 2345   1.453   1.655   1.157  0.0447  0.5084 -0.4835
  568SOL    HW3 2346   1.313   1.615   1.199 -0.2419  0.3326 -1.5789
  568SOL    MW4 2347   1.380   1.671   1.202 -0.0168  0.0257 -0.4058
  569SOL     OW 2348   1.313   1.926   1.112 -0.1130 -0.5555 -0.0075
  569SOL    HW2 2349   1.313   1.836   1.145 -1.3487 -0.5500  0.0393
  569SOL    HW3 2350   1.236   1.967   1.152 -0.0878  0.2456 -0.7459
  569SOL    MW4 2351   1.303   1.919   1.121 -0.2728 -0.4492 -0.0987
  570SOL     OW 2352   1.544   2.053   1.216 -0.2625 -0.5716  0.5754
  570SOL    HW2 2353   1.541   2.147   1.199  0.9109 -0.4896  0.7462
  570SOL    HW3 2354   1.461   2.019   1.182 -0.3975  0.4203 -0.1077
  570SOL    MW4 2355   1.533   2.061   1.209 -0.1254 -0.4301  0.5078
  571SOL     OW 2356   1.574   2.298   1.084 -0.0130 -0.2997  0.3712
  571SOL    HW2 2357   1.499   2.354   1.105 -1.4347 -2.0466  0.0900
  571SOL    HW3 2358   1.577   2.298   0.989  0.1183 -0.5321  0.3761
  571SOL    MW4 2359   1.564   2.305   1.074 -0.1833 -0.5610  0.3347
  572SOL     OW 2360   1.352   2.451   1.191  0.2740  0.3033  0.6420
  572SOL    HW2 2361   1.353   2.442   1.287  0.3954  1.5623  0.7654
  572SOL    HW3 2362   1.367   2.544   1.176  0.4320  0.0755 -0.6157
  572SOL    MW4 2363   1.354   2.462   1.202  0.3108  0.4394  0.4923
  573SOL     OW 2364   1.367   2.725   1.103  0.5976 -0.1468  1.1283
  573SOL    HW2 2365   1.427   2.790   1.139  2.2938 -0.8630 -0.3020
  573SOL    HW3 2366   1.280   2.755   1.128  1.4230  2.1160  1.3433
  573SOL    MW4 2367   1.363   2.737   1.111  0.9304  0.0570  0.9680
  574SOL     OW 2368   1.537   2.886   1.237 -0.2268  0.5729  0.3411
  574SOL    HW2 2369   1.627   2.859   1.216 -0.1020  1.7839 -0.7808
  574SOL    HW3 2370   1.534   2.978   1.211 -2.1474  0.2139 -0.7632
  574SOL    MW4 2371   1.549   2.895   1.231 -0.4640  0.6852  0.0472
  575SOL     OW 2372   1.576   3.143   1.145 -0.0619 -0.0990 -0.1635
  575SOL    HW2 2373   1.660   3.173   1.178 -0.3044 -0.1596  0.5202
  575SOL    HW3 2374   1.511   3.190   1.198 -0.4556 -0.3112 -0.4529
  575SOL    MW4 2375   1.578   3.153   1.156 -0.1458 -0.1352 -0.1115
  576SOL     OW 2376   1.342   3.289   1.207  0.0895  0.3559 -0.3039
  576SOL    HW2 2377   1.302   3.284   1.293  0.2633 -0.0273 -0.2445
  576SOL    HW3 2378   1.286   3.234   1.151  0.1458  0.3628 -0.3683
  576SOL    MW4 2379   1.329   3.281   1.211  0.1199  0.3064 -0.3046
  577SOL     OW 2380   1.379   3.522   1.096 -0.1969 -0.2884  0.3514
  577SOL    HW2 2381   1.367   3.433   1.130 -0.1701 -0.7205 -0.7679
  577SOL    HW3 2382   1.365   3.514   1.002 -0.5697  0.9677  0.2986
  577SOL    MW4 2383   1.376   3.509   1.088 -0.2426 -0.1798  0.1968
  578SOL     OW 2384   1.602   3.625   1.224 -0.2807 -0.2931  0.4310
  578SOL    HW2 2385   1.599   3.716   1.193  2.6882 -0.5714 -0.8780
  578SOL    HW3 2386   1.523   3.585   1.189  0.1801  0.8866 -2.0655
  578SOL    MW4 2387   1.592   3.632   1.215  0.1718 -0.1743 -0.0710
  579SOL     OW 2388   1.617   3.896   1.103 -0.4070 -0.0986  0.0552
  579SOL    HW2 2389   1.542   3.950   1.126  0.5844  1.8705 -1.2331
  579SOL    HW3 2390   1.611   3.884   1.008  0.2737 -0.8972  0.0993
  579SOL    MW4 2391   1.606   3.901   1.093 -0.1863  0.0558 -0.1090
  580SOL     OW 2392   1.387   4.008   1.209  0.2238 -0.0275  0.0719
  580SOL    HW2 2393   1.395   4.097   1.174 -0.6500  0.4698  1.1103
  580SOL    HW3 2394   1.304   3.976   1.173  0.0906 -0.0807  0.4228
  580SOL    MW4 2395   1.377   4.016   1.199  0.0908  0.0315  0.2551
  581SOL     OW 2396   1.366   4.246   1.064  0.0886  0.4911  0.9568
  581SOL    HW2 2397   1.279   4.260   1.103 -0.2598 -0.5353  0.5685
  581SOL    HW3 2398   1.349   4.238   0.970  0.5983  0.2119  0.8875
  581SOL    MW4 2399   1.352   4.247   1.057  0.1099  0.3190  0.8965
  582SOL     OW 2400   1.542   4.422   1.166  0.1925 -0.8068 -0.7671
  582SOL    HW2 2401   1.521   4.418   1.260  1.5903  0.0361 -0.4035
  582SOL    HW3 2402   1.477   4.366   1.125  0.4878 -2.4342  0.8918
  582SOL    MW4 2403   1.531   4.414   1.173  0.4159 -0.9098 -0.5003
  583SOL     OW 2404   2.046   0.012   1.074  0.0999 -0.3007 -0.3927
  583SOL    HW2 2405   2.028  -0.077   1.103  2.7286 -0.8779 -0.4303
  583SOL    HW3 2406   2.050   0.007   0.979 -0.8850  0.0972 -0.4632
  583SOL    MW4 2407   2.044  -0.000   1.066  0.3166 -0.3244 -0.4070
  584SOL     OW 2408   1.830   0.113   1.201  0.1155 -0.7140  0.9495
  584SOL    HW2 2409   1.825   0.207   1.186 -0.5261 -0.9018 -0.0254
  584SOL    HW3 2410   1.909   0.086   1.154 -0.3389 -0.8421  0.2463
  584SOL    MW4 2411   1.840   0.122   1.193 -0.0291 -0.7557  0.7281
  585SOL     OW 2412   1.807   0.385   1.132  0.6570  0.4318  0.1216
  585SOL    HW2 2413   1.731   0.428   1.171  0.2187 -0.3457  0.1514
  585SOL    HW3 2414   1.788   0.382   1.039  0.4686 -0.1024  0.1731
  585SOL    MW4 2415   1.794   0.390   1.125  0.5744  0.2588  0.1323
  586SOL     OW 2416   2.053   0.486   1.188 -0.3917  0.6618 -0.4760
  586SOL    HW2 2417   2.062   0.480   1.283 -0.1002 -0.5770 -0.5775
  586SOL    HW3 2418   1.965   0.454   1.170  0.7962 -2.5635 -0.9219
  586SOL    MW4 2419   2.043   0.481   1.198 -0.1962  0.0728 -0.5482
  587SOL     OW 2420   2.034   0.767   1.119 -0.7857  0.0574 -0.4532
  587SOL    HW2 2421   2.038   0.676   1.146 -0.1898  0.1396 -0.2523
  587SOL    HW3 2422   2.057   0.766   1.026 -0.0442  0.0769 -0.2763
  587SOL    MW4 2423   2.038   0.755   1.110 -0.6092  0.0708 -0.4034
  588SOL     OW 2424   1.795   0.902   1.167  0.3062  0.3254  0.5419
  588SOL    HW2 2425   1.805   0.884   1.260 -1.3372 -2.2778  0.2637
  588SOL    HW3 2426   1.876   0.869   1.127  2.3113  4.0192  1.2722
  588SOL    MW4 2427   1.807   0.896   1.174  0.3538  0.4692  0.6014
  589SOL     OW 2428   1.787   1.186   1.088 -0.0111 -0.2509  0.1731
  589SOL    HW2 2429   1.798   1.100   1.128  1.1548 -0.2843 -0.2312
  589SOL    HW3 2430   1.765   1.168   0.997 -0.0842 -0.1134  0.1625
  589SOL    MW4 2431   1.785   1.172   1.082  0.1332 -0.2372  0.1183
  590SOL     OW 2432   1.995   1.337   1.175 -0.1434 -0.0703 -0.0194
  590SOL    HW2 2433   2.079   1.302   1.144 -0.9412 -2.9910  0.9777
  590SOL    HW3 2434   1.929   1.293   1.121 -1.1780  0.1618  1.0227
  590SOL    MW4 2435   1.997   1.327   1.164 -0.3852 -0.4251  0.2495
  591SOL     OW 2436   2.007   1.574   1.071  0.4372 -0.6212  0.5873
  591SOL    HW2 2437   2.006   1.488   1.113  0.5838 -0.8267  0.1727
  591SOL    HW3 2438   2.020   1.555   0.978 -0.8429 -0.2303  0.3178
  591SOL    MW4 2439   2.008   1.560   1.064  0.2875 -0.5968  0.4969
  592SOL     OW 2440   1.794   1.670   1.232 -0.4485 -0.1471 -0.5983
  592SOL    HW2 2441   1.785   1.759   1.199 -1.4768  0.5111  1.3670
  592SOL    HW3 2442   1.874   1.638   1.192  0.2087  1.8486 -0.9485
  592SOL    MW4 2443   1.803   1.678   1.223 -0.4975  0.2030 -0.3850
  593SOL     OW 2444   1.772   1.921   1.135 -0.0403  0.5341  0.1495
  593SOL    HW2 2445   1.703   1.985   1.153  0.1914  1.1444 -1.0388
  593SOL    HW3 2446   1.790   1.932   1.041  0.9139 -0.3720  0.2203
  593SOL    MW4 2447   1.765   1.931   1.125  0.1161  0.4951  0.0021
  594SOL     OW 2448   1.998   2.093   1.189  0.4484 -0.1279 -0.3706
  594SOL    HW2 2449   1.984   2.102   1.284  0.3378 -0.4264 -0.3595
  594SOL    HW3 2450   1.927   2.036   1.159  0.2500  0.2942 -0.6998
  594SOL    MW4 2451   1.987   2.087   1.198  0.4077 -0.1116 -0.4126
  595SOL     OW 2452   2.009   2.352   1.053 -0.2618 -0.2616 -0.2951
  595SOL    HW2 2453   2.089   2.388   1.091 -1.4718  0.9681  1.1636
  595SOL    HW3 2454   2.003   2.264   1.088  1.5524 -1.1586 -2.1121
  595SOL    MW4 2455   2.019   2.345   1.062 -0.1819 -0.2177 -0.3424
  596SOL     OW 2456   1.783   2.477   1.184 -0.1716 -0.2355  0.4145
  596SOL    HW2 2457   1.867   2.452   1.145 -0.0022  0.1876  0.5112
  596SOL    HW3 2458   1.719   2.419   1.141  0.0632 -0.0297 -0.2245
  596SOL    MW4 2459   1.786   2.466   1.173 -0.1183 -0.1523  0.3430
  597SOL     OW 2460   1.776   2.774   1.154  0.2879  0.3653 -0.0905
  597SOL    HW2 2461   1.783   2.679   1.144  1.2596  0.2971  1.0867
  597SOL    HW3 2462   1.864   2.803   1.178 -0.2101  1.4399  0.5024
  597SOL    MW4 2463   1.788   2.765   1.156  0.3505  0.4983  0.1431
  598SOL     OW 2464   2.049   2.856   1.164  0.1016 -0.3887 -0.2521
  598SOL    HW2 2465   2.027   2.944   1.134  0.9586  0.0934  0.4943
  598SOL    HW3 2466   2.058   2.865   1.259 -2.2913 -1.8189  0.1369
  598SOL    MW4 2467   2.047   2.869   1.173 -0.1013 -0.5138 -0.1023
  599SOL     OW 2468   2.009   3.117   1.041  0.7462 -0.1778  0.2866
  599SOL    HW2 2469   1.949   3.163   1.099 -0.0665 -1.2217  0.2942
  599SOL    HW3 2470   1.972   3.129   0.954 -1.5414 -3.8442  0.6498
  599SOL    MW4 2471   1.996   3.125   1.037  0.3372 -0.7992  0.3356
  600SOL     OW 2472   1.827   3.219   1.223  0.2175 -0.1900 -0.1488
  600SOL    HW2 2473   1.832   3.224   1.318  1.5802  1.6049 -0.3012
  600SOL    HW3 2474   1.821   3.310   1.194  0.6287 -0.6840 -1.8271
  600SOL    MW4 2475   1.827   3.231   1.232  0.4516 -0.0181 -0.3903
  601SOL     OW 2476   1.812   3.480   1.124 -0.1287  0.4059  0.2195
  601SOL    HW2 2477   1.888   3.530   1.153  0.3054  0.5132 -1.0865
  601SOL    HW3 2478   1.737   3.528   1.158  0.2814  1.9738 -1.0324
  601SOL    MW4 2479   1.812   3.493   1.132 -0.0172  0.6268 -0.1180
  602SOL     OW 2480   2.044   3.637   1.175 -0.0757  0.2704 -0.1399
  602SOL    HW2 2481   2.049   3.633   1.270 -1.4845 -0.6345 -0.1006
  602SOL    HW3 2482   2.109   3.574   1.144  0.6292  0.8226  0.2190
  602SOL    MW4 2483   2.053   3.628   1.184 -0.1686  0.2239 -0.0873
  603SOL     OW 2484   2.059   3.905   1.113  0.1476 -0.1005 -0.0521
  603SOL    HW2 2485   1.978   3.948   1.142 -0.2530  0.1851 -1.5212
  603SOL    HW3 2486   2.054   3.817   1.150  0.5999  0.8648  2.3460
  603SOL    MW4 2487   2.047   3.899   1.121  0.1543  0.0646  0.0706
  604SOL     OW 2488   1.833   4.038   1.205  0.0711  0.1273 -0.3873
  604SOL    HW2 2489   1.835   4.038   1.301  1.9868 -1.5056 -0.3885
  604SOL    HW3 2490   1.759   3.982   1.182  1.1689 -1.5592  0.1505
  604SOL    MW4 2491   1.824   4.031   1.215  0.4686 -0.3114 -0.3165
  605SOL     OW 2492   1.798   4.308   1.116  0.3612 -0.2860 -0.1684
  605SOL    HW2 2493   1.806   4.223   1.158 -0.8240 -0.3324 -0.0341
  605SOL    HW3 2494   1.717   4.345   1.151  0.6361  0.7079 -0.5623
  605SOL    MW4 2495   1.788   4.302   1.126  0.2412 -0.1607 -0.2027
  606SOL     OW 2496   2.021   4.427   1.211 -0.2102  0.1569  0.0787
  606SOL    HW2 2497   2.031   4.417   1.306  0.2123 -0.6198 -0.0517
  606SOL    HW3 2498   1.944   4.375   1.189  0.0784 -0.1885 -0.1073
  606SOL    MW4 2499   2.012   4.419   1.221 -0.1163  0.0086  0.0368
  607SOL     OW 2500   2.503   4.629   1.078  0.4190 -0.0481  0.6501
  607SOL    HW2 2501   2.584   4.665   1.116  0.3418 -1.2151  1.9738
  607SOL    HW3 2502   2.433   4.674   1.125  0.3161 -0.2842  0.7244
  607SOL    MW4 2503   2.504   4.640   1.089  0.3953 -0.2327  0.8346
  608SOL     OW 2504   2.307   0.104   1.190  0.1129 -0.1181 -0.2504
  608SOL    HW2 2505   2.322   0.199   1.183 -1.0368  0.1775  1.0306
  608SOL    HW3 2506   2.231   0.088   1.134  0.0724 -0.2109 -0.1693
  608SOL    MW4 2507   2.299   0.115   1.182 -0.0441 -0.0913 -0.0706
  609SOL     OW 2508   2.287   0.368   1.103  0.1248 -0.3120 -0.0129
  609SOL    HW2 2509   2.200   0.400   1.128  0.2480  0.5273 -0.6419
  609SOL    HW3 2510   2.281   0.354   1.008  1.2105  1.4983 -0.3797
  609SOL    MW4 2511   2.275   0.370   1.094  0.2844  0.0376 -0.1444
  610SOL     OW 2512   2.486   0.531   1.215  0.4889  0.1643  0.3533
  610SOL    HW2 2513   2.470   0.515   1.308  1.3881 -0.0309  0.4841
  610SOL    HW3 2514   2.418   0.482   1.169 -1.6809  2.5170  0.9740
  610SOL    MW4 2515   2.475   0.523   1.221  0.3209  0.4489  0.4525
  611SOL     OW 2516   2.473   0.783   1.095 -0.4502  0.1359  0.0116
  611SOL    HW2 2517   2.475   0.705   1.149 -2.5173  0.3713  0.4635
  611SOL    HW3 2518   2.448   0.752   1.008 -1.2277  0.2988  0.1803
  611SOL    MW4 2519   2.470   0.769   1.090 -0.8256  0.1884  0.0935
  612SOL     OW 2520   2.257   0.932   1.194  0.0061 -0.1387  0.1388
  612SOL    HW2 2521   2.340   0.901   1.159 -0.1963  0.5774 -1.0189
  612SOL    HW3 2522   2.193   0.866   1.168  0.1031 -0.3320  0.4014
  612SOL    MW4 2523   2.259   0.919   1.186 -0.0079 -0.0697  0.0207
  613SOL     OW 2524   2.205   1.186   1.079 -0.3901  0.0255 -0.3547
  613SOL    HW2 2525   2.288   1.222   1.109 -0.6069 -0.1739  0.5209
  613SOL    HW3 2526   2.203   1.097   1.116 -1.4174  0.3684  0.4382
  613SOL    MW4 2527   2.216   1.179   1.088 -0.5543  0.0446 -0.1346
  614SOL     OW 2528   2.445   1.266   1.203  0.0485 -0.6811 -0.3370
  614SOL    HW2 2529   2.527   1.228   1.169  0.1221 -0.0453 -0.8881
  614SOL    HW3 2530   2.453   1.359   1.184 -0.1369 -0.3959  0.9971
  614SOL    MW4 2531   2.457   1.273   1.196  0.0336 -0.5596 -0.2337
  615SOL     OW 2532   2.457   1.527   1.116 -0.1064  0.6126  0.1740
  615SOL    HW2 2533   2.376   1.575   1.135 -0.3278  0.1222  0.4910
  615SOL    HW3 2534   2.455   1.513   1.021  0.4437  2.0788 -0.0630
  615SOL    MW4 2535   2.446   1.531   1.106 -0.0629  0.7415  0.1845
  616SOL     OW 2536   2.231   1.672   1.212  0.4720 -0.1541 -0.0369
  616SOL    HW2 2537   2.225   1.765   1.191  0.9996 -0.5333 -1.9591
  616SOL    HW3 2538   2.160   1.631   1.164  0.1335 -0.7419  0.9399
  616SOL    MW4 2539   2.221   1.679   1.203  0.4966 -0.2816 -0.1616
  617SOL     OW 2540   2.212   1.921   1.093 -0.3334 -0.3585 -0.5302
  617SOL    HW2 2541   2.135   1.974   1.115 -1.0945 -0.4931 -2.7531
  617SOL    HW3 2542   2.218   1.927   0.998  2.1595 -0.7260 -0.4061
  617SOL    MW4 2543   2.202   1.929   1.084 -0.1049 -0.4247 -0.8072
  618SOL     OW 2544   2.428   2.067   1.217 -0.6031  0.1679 -0.3590
  618SOL    HW2 2545   2.507   2.037   1.171  0.8668  1.9413  0.9157
  618SOL    HW3 2546   2.358   2.010   1.185  1.2593 -1.6725 -1.2774
  618SOL    MW4 2547   2.429   2.056   1.207 -0.1633  0.1588 -0.3120
  619SOL     OW 2548   2.467   2.322   1.129 -0.2215 -0.0075  0.0750
  619SOL    HW2 2549   2.477   2.233   1.164 -0.2225  0.0298  0.1705
  619SOL    HW3 2550   2.462   2.310   1.034 -2.0240 -0.2658  0.1922
  619SOL    MW4 2551   2.468   2.309   1.121 -0.4594 -0.0365  0.1030
  620SOL     OW 2552   2.234   2.485   1.173  0.3018 -0.1167  0.6001
  620SOL    HW2 2553   2.211   2.462   1.263  1.9120 -0.1520  1.0147
  620SOL    HW3 2554   2.309   2.429   1.152  0.0722  0.0440 -0.6908
  620SOL    MW4 2555   2.241   2.475   1.182  0.4838 -0.1004  0.4845
  621SOL     OW 2556   2.256   2.728   1.054 -0.1602 -0.0964  0.1978
  621SOL    HW2 2557   2.244   2.643   1.097  0.3671 -0.6730 -0.7690
  621SOL    HW3 2558   2.196   2.787   1.100 -0.3849 -0.9416  1.0116
  621SOL    MW4 2559   2.247   2.724   1.066 -0.1206 -0.2840  0.1776
  622SOL     OW 2560   2.461   2.869   1.197 -0.0770  0.2462  0.0501
  622SOL    HW2 2561   2.445   2.846   1.288  0.3939  2.1532  0.6345
  622SOL    HW3 2562   2.406   2.809   1.147 -0.1611 -0.9733  1.5715
  622SOL    MW4 2563   2.452   2.858   1.202 -0.0260  0.3369  0.3279
  623SOL     OW 2564   2.499   3.135   1.104 -0.3579 -0.3625 -0.1022
  623SOL    HW2 2565   2.422   3.191   1.115 -0.3773 -0.3717 -0.1894
  623SOL    HW3 2566   2.479   3.056   1.153  0.5164  0.5318  1.7761
  623SOL    MW4 2567   2.486   3.132   1.112 -0.2453 -0.2456  0.1341
  624SOL     OW 2568   2.235   3.219   1.173  0.0916  0.0959  0.4021
  624SOL    HW2 2569   2.253   3.307   1.142  1.0886 -0.2786 -0.1092
  624SOL    HW3 2570   2.168   3.185   1.113 -0.1482  0.4226  0.4816
  624SOL    MW4 2571   2.228   3.226   1.161  0.1915  0.0899  0.3451
  625SOL     OW 2572   2.234   3.466   1.066 -0.0235 -0.4787 -0.8124
  625SOL    HW2 2573   2.309   3.509   1.108 -1.2884  1.1681 -0.1974
  625SOL    HW3 2574   2.231   3.505   0.979 -0.3132 -0.3764 -0.7557
  625SOL    MW4 2575   2.244   3.477   1.060 -0.2284 -0.2480 -0.7237
  626SOL     OW 2576   2.462   3.584   1.185 -0.1857  0.1698  0.0194
  626SOL    HW2 2577   2.482   3.599   1.278  0.0880  0.6177 -0.1101
  626SOL    HW3 2578   2.467   3.671   1.146  0.6156 -0.1565 -0.5994
  626SOL    MW4 2579   2.465   3.598   1.192 -0.0439  0.1860 -0.0793
  627SOL     OW 2580   2.507   3.848   1.076 -0.3462  0.2913  0.6399
  627SOL    HW2 2581   2.436   3.907   1.104  0.0883  1.0131  0.2058
  627SOL    HW3 2582   2.509   3.856   0.981  0.2047  0.1285  0.6391
  627SOL    MW4 2583   2.498   3.857   1.067 -0.2160  0.3653  0.5827
  628SOL     OW 2584   2.304   4.023   1.190 -0.5145  0.4855 -0.1219
  628SOL    HW2 2585   2.291   4.117   1.179 -0.4079  0.5668  0.4848
  628SOL    HW3 2586   2.220   3.985   1.163 -0.1039  0.6557 -1.7099
  628SOL    MW4 2587   2.291   4.030   1.185 -0.4461  0.5188 -0.2513
  629SOL     OW 2588   2.264   4.319   1.152  0.3631  0.1298 -0.0721
  629SOL    HW2 2589   2.180   4.359   1.175  0.0559 -1.0571  0.9064
  629SOL    HW3 2590   2.266   4.323   1.057 -0.4288  0.9313 -0.0694
  629SOL    MW4 2591   2.253   4.325   1.143  0.2182  0.0792  0.0572
  630SOL     OW 2592   2.509   4.388   1.242  0.3311  0.4860 -0.5302
  630SOL    HW2 2593   2.420   4.358   1.224  1.4473 -1.4675 -3.0686
  630SOL    HW3 2594   2.517   4.471   1.195 -0.3239  0.9947  0.2334
  630SOL    MW4 2595   2.498   4.395   1.234  0.3922  0.2956 -0.7645
  631SOL     OW 2596   2.956   0.008   1.115  0.3642 -0.2506 -0.3930
  631SOL    HW2 2597   2.947  -0.085   1.133 -0.6231  0.3082  2.1145
  631SOL    HW3 2598   2.947   0.015   1.020  0.5485 -2.7094 -0.6114
  631SOL    MW4 2599   2.954  -0.003   1.105  0.2584 -0.5013 -0.0911
  632SOL     OW 2600   2.708   0.128   1.180 -0.0262 -0.0376  0.2282
  632SOL    HW2 2601   2.692   0.119   1.274  0.2569  0.5019  0.3326
  632SOL    HW3 2602   2.794   0.089   1.166  0.0025  0.0279  0.2208
  632SOL    MW4 2603   2.717   0.122   1.190  0.0150  0.0422  0.2410
  633SOL     OW 2604   2.693   0.386   1.105  0.5947 -0.2101  0.4306
  633SOL    HW2 2605   2.690   0.295   1.136  0.6068 -0.3612 -0.0068
  633SOL    HW3 2606   2.620   0.429   1.149  0.8021 -0.3461  0.9095
  633SOL    MW4 2607   2.683   0.379   1.115  0.6237 -0.2480  0.4361
  634SOL     OW 2608   2.932   0.484   1.198 -0.3807  0.1769  0.7083
  634SOL    HW2 2609   2.942   0.568   1.153  0.2155 -0.5776 -0.5860
  634SOL    HW3 2610   2.853   0.445   1.160  0.0960 -0.4424  0.3386
  634SOL    MW4 2611   2.923   0.490   1.187 -0.2391 -0.0044  0.4888
  635SOL     OW 2612   2.893   0.751   1.091 -0.1157  0.5095  0.1966
  635SOL    HW2 2613   2.970   0.787   1.134 -1.2512  1.1177  1.7660
  635SOL    HW3 2614   2.819   0.800   1.127 -1.4159 -1.3121  0.1174
  635SOL    MW4 2615   2.893   0.762   1.101 -0.4368  0.3494  0.3932
  636SOL     OW 2616   2.690   0.916   1.203 -0.5079  0.4809 -0.1754
  636SOL    HW2 2617   2.697   0.997   1.152 -1.1712  0.6670  0.0190
  636SOL    HW3 2618   2.615   0.870   1.164 -1.4325  0.9288  1.0520
  636SOL    MW4 2619   2.681   0.920   1.191 -0.7174  0.5645  0.0124
  637SOL     OW 2620   2.694   1.187   1.099 -0.3240 -0.6205 -0.3229
  637SOL    HW2 2621   2.769   1.237   1.131 -0.5113 -0.4385 -0.1710
  637SOL    HW3 2622   2.705   1.186   1.004  0.3842 -1.4007 -0.2446
  637SOL    MW4 2623   2.706   1.193   1.090 -0.2551 -0.6994 -0.2925
  638SOL     OW 2624   2.926   1.299   1.197 -0.1182 -0.0533  0.4787
  638SOL    HW2 2625   2.938   1.313   1.291  0.4091 -1.1560  0.5808
  638SOL    HW3 2626   2.904   1.386   1.163 -1.5060  0.1467  1.8016
  638SOL    MW4 2627   2.925   1.313   1.205 -0.2317 -0.1725  0.6667
  639SOL     OW 2628   2.903   1.539   1.092 -0.0780 -0.3338 -0.1378
  639SOL    HW2 2629   2.972   1.585   1.140  1.9871 -3.6404  0.2165
  639SOL    HW3 2630   2.933   1.540   1.001 -0.5345 -0.0922 -0.2843
  639SOL    MW4 2631   2.916   1.545   1.087  0.1342 -0.7384 -0.1103
  640SOL     OW 2632   2.672   1.688   1.144 -0.1402 -0.6490 -0.2848
  640SOL    HW2 2633   2.746   1.634   1.117 -0.3792 -1.1632  0.1029
  640SOL    HW3 2634   2.598   1.628   1.153 -0.8463  0.0061 -1.5984
  640SOL    MW4 2635   2.672   1.673   1.142 -0.2646 -0.6304 -0.4070
  641SOL     OW 2636   2.645   1.955   1.066  0.0859 -0.0889  0.1066
  641SOL    HW2 2637   2.727   1.995   1.093  0.3772  0.2493 -1.2364
  641SOL    HW3 2638   2.652   1.863   1.093  2.0699 -0.7436 -2.4390
  641SOL    MW4 2639   2.657   1.948   1.073  0.3862 -0.1307 -0.4065
  642SOL     OW 2640   2.886   2.066   1.153  0.0850 -0.2546  0.1807
  642SOL    HW2 2641   2.893   2.065   1.248  0.2511  0.7137  0.1800
  642SOL    HW3 2642   2.900   2.157   1.129  0.9856 -0.6608 -0.8478
  642SOL    MW4 2643   2.889   2.078   1.162  0.2255 -0.1805  0.0449
  643SOL     OW 2644   2.885   2.342   1.066  0.6001 -0.0518  0.3932
  643SOL    HW2 2645   2.973   2.376   1.083  1.6140 -2.2009 -0.4170
  643SOL    HW3 2646   2.828   2.398   1.119  2.3451  1.9226  0.2803
  643SOL    MW4 2647   2.889   2.354   1.075  0.9637 -0.0746  0.2714
  644SOL     OW 2648   2.690   2.486   1.214  0.2365  0.4283 -0.0114
  644SOL    HW2 2649   2.694   2.475   1.309 -1.0407  3.8807  0.4921
  644SOL    HW3 2650   2.620   2.427   1.186  1.5652 -1.6899  0.9376
  644SOL    MW4 2651   2.681   2.477   1.223  0.2434  0.6044  0.1801
  645SOL     OW 2652   2.719   2.757   1.106 -0.3007 -0.0981  0.1584
  645SOL    HW2 2653   2.721   2.679   1.161 -0.9276 -0.0709  0.2321
  645SOL    HW3 2654   2.654   2.813   1.147 -0.8082 -0.0928 -0.6289
  645SOL    MW4 2655   2.711   2.754   1.118 -0.4501 -0.0939  0.0641
  646SOL     OW 2656   2.955   2.838   1.203 -0.2837 -0.5039  0.0868
  646SOL    HW2 2657   2.953   2.813   1.296  0.7222 -0.4518  0.1279
  646SOL    HW3 2658   2.871   2.808   1.169 -0.2736 -1.3756  0.8008
  646SOL    MW4 2659   2.944   2.831   1.211 -0.1497 -0.6118  0.1864
  647SOL     OW 2660   2.924   3.103   1.143 -0.0892 -0.3688  0.3328
  647SOL    HW2 2661   2.923   3.011   1.170 -1.2961 -0.3638  0.3402
  647SOL    HW3 2662   2.909   3.100   1.048  0.4999 -0.2137  0.2366
  647SOL    MW4 2663   2.922   3.091   1.134 -0.1707 -0.3476  0.3211
  648SOL     OW 2664   2.708   3.250   1.235  0.3851 -0.0837  0.1850
  648SOL    HW2 2665   2.773   3.202   1.184  0.6108  0.4634 -0.0408
  648SOL    HW3 2666   2.625   3.206   1.216  0.3444  0.5879 -1.2578
  648SOL    MW4 2667   2.705   3.238   1.226  0.4091  0.0772 -0.0352
  649SOL     OW 2668   2.708   3.476   1.086  0.4464 -0.0409  0.2945
  649SOL    HW2 2669   2.703   3.389   1.126 -0.1082 -0.5627 -0.8735
  649SOL    HW3 2670   2.640   3.527   1.129 -1.0007 -0.9720 -0.8548
  649SOL    MW4 2671   2.699   3.471   1.097  0.1826 -0.2327 -0.0112
  650SOL     OW 2672   2.917   3.636   1.184 -0.4940 -0.0462 -0.3323
  650SOL    HW2 2673   3.004   3.597   1.180  0.0606  1.1508 -0.0315
  650SOL    HW3 2674   2.860   3.572   1.139  0.3662 -1.2396  0.2515
  650SOL    MW4 2675   2.921   3.622   1.177 -0.3073 -0.0455 -0.2155
  651SOL     OW 2676   2.948   3.891   1.048 -0.6800 -0.4108 -0.4630
  651SOL    HW2 2677   3.019   3.934   1.095  0.2764 -0.1993 -2.0907
  651SOL    HW3 2678   2.927   3.814   1.101 -0.0488  0.1703  0.6372
  651SOL    MW4 2679   2.954   3.887   1.061 -0.4709 -0.3061 -0.5325
  652SOL     OW 2680   2.726   3.999   1.176  0.0094  0.3113 -0.0312
  652SOL    HW2 2681   2.806   3.960   1.142  0.4802  0.8163  0.4948
  652SOL    HW3 2682   2.655   3.951   1.133  0.5928 -0.6086  0.0421
  652SOL    MW4 2683   2.727   3.988   1.166  0.1485  0.2568  0.0478
  653SOL     OW 2684   2.725   4.270   1.112 -0.1352  0.0235 -0.1588
  653SOL    HW2 2685   2.725   4.180   1.143  1.4286  0.1607  0.2537
  653SOL    HW3 2686   2.656   4.313   1.163 -0.8790 -0.9172 -0.3510
  653SOL    MW4 2687   2.716   4.264   1.123 -0.0272 -0.0825 -0.1297
  654SOL     OW 2688   2.940   4.391   1.201 -0.0827 -0.4438  0.5486
  654SOL    HW2 2689   3.009   4.344   1.154 -0.6866  1.3267 -2.1990
  654SOL    HW3 2690   2.859   4.368   1.155 -0.6922  1.3386  0.6889
  654SOL    MW4 2691   2.938   4.382   1.189 -0.2427  0.0253  0.2046
  655SOL     OW 2692   3.418   0.027   1.097 -0.1052 -0.2160 -0.4962
  655SOL    HW2 2693   3.480   0.066   1.158  0.7884 -0.8364 -0.9943
  655SOL    HW3 2694   3.332   0.044   1.135  0.5012 -2.1112  1.8277
  655SOL    MW4 2695   3.415   0.034   1.110  0.0925 -0.5479 -0.2553
  656SOL     OW 2696   3.191   0.116   1.225  0.0478  0.1651  0.0999
  656SOL    HW2 2697   3.188   0.112   1.321  0.5556 -0.8386  0.0768
  656SOL    HW3 2698   3.109   0.076   1.197  0.6317 -1.0512  0.0889
  656SOL    MW4 2699   3.180   0.110   1.234  0.1919 -0.1278  0.0954
  657SOL     OW 2700   3.163   0.363   1.104 -0.1016 -0.0378 -0.5315
  657SOL    HW2 2701   3.175   0.279   1.148  0.0010  0.1621 -0.1716
  657SOL    HW3 2702   3.083   0.399   1.142 -0.0282  0.1241 -0.5304
  657SOL    MW4 2703   3.154   0.357   1.115 -0.0787  0.0099 -0.4840
  658SOL     OW 2704   3.367   0.530   1.203 -0.8284  0.1840  0.1135
  658SOL    HW2 2705   3.347   0.614   1.162 -0.9677 -0.3152 -0.8470
  658SOL    HW3 2706   3.302   0.469   1.167 -1.9164  0.0570  2.2032
  658SOL    MW4 2707   3.356   0.533   1.193 -0.9904  0.1014  0.2625
  659SOL     OW 2708   3.335   0.775   1.064 -0.2549 -0.2954 -0.3766
  659SOL    HW2 2709   3.328   0.789   0.970 -1.5334  0.4565 -0.1865
  659SOL    HW3 2710   3.257   0.818   1.100 -0.5941 -1.9126  0.8716
  659SOL    MW4 2711   3.323   0.782   1.057 -0.4685 -0.4095 -0.1869
  660SOL     OW 2712   3.113   0.890   1.187  0.6709  0.1427  0.2235
  660SOL    HW2 2713   3.135   0.866   1.277 -0.8443  1.3848  0.9533
  660SOL    HW3 2714   3.120   0.985   1.185 -0.6072  0.2262 -0.5976
  660SOL    MW4 2715   3.117   0.899   1.199  0.3023  0.3177  0.2114
  661SOL     OW 2716   3.156   1.167   1.109 -0.2532  0.2292 -0.1373
  661SOL    HW2 2717   3.223   1.218   1.155  0.0328  0.6808 -1.0439
  661SOL    HW3 2718   3.073   1.206   1.138 -0.0757  0.5344 -0.0288
  661SOL    MW4 2719   3.154   1.179   1.119 -0.1922  0.3293 -0.2427
  662SOL     OW 2720   3.379   1.322   1.206 -0.7949  0.2399  0.3560
  662SOL    HW2 2721   3.389   1.345   1.299 -0.7352 -0.6594  0.5789
  662SOL    HW3 2722   3.383   1.406   1.160  1.5777  0.5024  0.9574
  662SOL    MW4 2723   3.381   1.336   1.212 -0.4740  0.1558  0.4649
  663SOL     OW 2724   3.357   1.577   1.076  0.0100 -0.2875  0.0143
  663SOL    HW2 2725   3.431   1.628   1.109 -0.7174 -0.4112  1.8967
  663SOL    HW3 2726   3.282   1.610   1.125 -1.0561 -0.7271 -1.3004
  663SOL    MW4 2727   3.357   1.588   1.087 -0.2265 -0.3619  0.0893
  664SOL     OW 2728   3.117   1.677   1.196  0.2971 -0.2957  0.1822
  664SOL    HW2 2729   3.129   1.671   1.291 -0.8335 -0.5645  0.3185
  664SOL    HW3 2730   3.126   1.770   1.177  2.1177 -0.4253  0.3168
  664SOL    MW4 2731   3.119   1.688   1.206  0.3881 -0.3482  0.2180
  665SOL     OW 2732   3.134   1.956   1.089 -0.0653 -0.0409  0.1746
  665SOL    HW2 2733   3.198   1.997   1.147 -0.1559  0.8337 -0.3439
  665SOL    HW3 2734   3.050   1.996   1.114 -0.1931 -0.1099 -0.1368
  665SOL    MW4 2735   3.131   1.967   1.100 -0.0942  0.0653  0.0651
  666SOL     OW 2736   3.359   2.078   1.207 -0.3833 -0.1258  0.5183
  666SOL    HW2 2737   3.444   2.036   1.192 -0.9288 -1.1084  0.1382
  666SOL    HW3 2738   3.362   2.157   1.153  0.6985  0.4033  1.3306
  666SOL    MW4 2739   3.371   2.082   1.198 -0.3126 -0.1855  0.5752
  667SOL     OW 2740   3.399   2.338   1.072 -0.3782 -0.5249 -0.0732
  667SOL    HW2 2741   3.463   2.400   1.106  1.3333 -1.2218 -1.9397
  667SOL    HW3 2742   3.314   2.375   1.097  0.6540  1.8728 -0.0209
  667SOL    MW4 2743   3.396   2.351   1.080 -0.0162 -0.3002 -0.3127
  668SOL     OW 2744   3.134   2.454   1.151  0.4698 -0.1662  0.0182
  668SOL    HW2 2745   3.134   2.468   1.245 -1.0339  1.6145 -0.2264
  668SOL    HW3 2746   3.125   2.541   1.113 -0.7773 -1.0222 -1.7459
  668SOL    MW4 2747   3.133   2.467   1.158  0.1068 -0.0441 -0.2469
  669SOL     OW 2748   3.165   2.707   1.030 -0.4223  0.2636 -0.0960
  669SOL    HW2 2749   3.099   2.769   1.062  0.8244  1.9091 -0.6441
  669SOL    HW3 2750   3.137   2.686   0.941  0.7124  2.3308 -0.9670
  669SOL    MW4 2751   3.153   2.712   1.022 -0.1082  0.7534 -0.2831
  670SOL     OW 2752   3.404   2.826   1.023  0.0317  0.3649 -0.2133
  670SOL    HW2 2753   3.403   2.888   1.095 -0.5570  0.6887 -0.4981
  670SOL    HW3 2754   3.321   2.779   1.030  1.6942 -2.4687  1.7743
  670SOL    MW4 2755   3.393   2.828   1.033  0.1736  0.0339  0.0112
  671SOL     OW 2756   3.350   3.008   1.244  0.3373 -0.0209  0.0188
  671SOL    HW2 2757   3.437   3.049   1.238  1.0881 -1.6119 -0.3761
  671SOL    HW3 2758   3.289   3.081   1.243  1.6977  1.1704  0.8734
  671SOL    MW4 2759   3.354   3.023   1.243  0.6156 -0.0737  0.0795
  672SOL     OW 2760   3.158   3.238   1.221 -0.5355  0.0260 -0.0487
  672SOL    HW2 2761   3.082   3.188   1.188 -0.1305  0.2377 -1.3498
  672SOL    HW3 2762   3.153   3.229   1.316 -1.2392 -1.3736 -0.1974
  672SOL    MW4 2763   3.147   3.230   1.229 -0.5748 -0.1307 -0.2401
  673SOL     OW 2764   3.149   3.511   1.147 -0.1252  0.0453 -0.1077
  673SOL    HW2 2765   3.228   3.555   1.178  0.1240  0.0461 -0.7302
  673SOL    HW3 2766   3.161   3.419   1.173  0.4810 -0.1213 -0.9480
  673SOL    MW4 2767   3.161   3.504   1.154 -0.0124  0.0229 -0.3008
  674SOL     OW 2768   3.383   3.605   1.243  0.2972  0.1559  0.4519
  674SOL    HW2 2769   3.391   3.620   1.338  0.5065  0.1012  0.4428
  674SOL    HW3 2770   3.455   3.546   1.222  0.9383  1.0503  0.0662
  674SOL    MW4 2771   3.394   3.599   1.253  0.4094  0.2666  0.3998
  675SOL     OW 2772   3.366   3.880   1.163 -0.1046  0.4582 -0.0020
  675SOL    HW2 2773   3.284   3.906   1.205 -1.2588 -1.4450 -1.0015
  675SOL    HW3 2774   3.376   3.787   1.186  1.4024  0.4865 -0.4841
  675SOL    MW4 2775   3.357   3.871   1.172 -0.0579  0.2110 -0.1975
  676SOL     OW 2776   3.123   4.002   1.221  0.2688 -0.5235  0.4879
  676SOL    HW2 2777   3.129   4.014   1.316 -1.1808  2.5290  0.2602
  676SOL    HW3 2778   3.175   4.074   1.184  0.1933 -1.2344 -1.0331
  676SOL    MW4 2779   3.131   4.013   1.229  0.0677 -0.2151  0.2571
  677SOL     OW 2780   3.177   4.276   1.102  0.2087 -0.0220 -0.3708
  677SOL    HW2 2781   3.256   4.327   1.121  0.5817 -0.5226 -0.5734
  677SOL    HW3 2782   3.170   4.277   1.007 -2.3016  3.4564 -0.2571
  677SOL    MW4 2783   3.187   4.283   1.092 -0.0732  0.3705 -0.3825
  678SOL     OW 2784   3.413   4.424   1.165 -0.1011  0.0039 -0.5409
  678SOL    HW2 2785   3.494   4.378   1.142  0.9486  0.4759  2.0577
  678SOL    HW3 2786   3.424   4.511   1.128 -0.3800 -0.6097 -2.0826
  678SOL    MW4 2787   3.425   4.429   1.157  0.0005 -0.0148 -0.4014
  679SOL     OW 2788   3.829   0.007   1.123  0.0765 -0.1459 -0.2888
  679SOL    HW2 2789   3.844  -0.081   1.159 -0.1117 -0.1092 -0.1184
  679SOL    HW3 2790   3.828  -0.005   1.028 -1.2079 -0.5303 -0.2401
  679SOL    MW4 2791   3.831  -0.006   1.115 -0.1178 -0.1917 -0.2598
  680SOL     OW 2792   3.620   0.164   1.234  0.3479  0.1779 -0.2084
  680SOL    HW2 2793   3.619   0.248   1.190  2.0332 -0.6617 -1.9071
  680SOL    HW3 2794   3.681   0.110   1.183 -1.5207 -2.4231  0.1954
  680SOL    MW4 2795   3.628   0.168   1.222  0.3235 -0.2760 -0.3792
  681SOL     OW 2796   3.596   0.407   1.111  0.4613  0.0424  0.2790
  681SOL    HW2 2797   3.672   0.439   1.159  0.2814 -0.6883  1.0771
  681SOL    HW3 2798   3.524   0.461   1.143  0.3525 -0.4031  0.8070
  681SOL    MW4 2799   3.596   0.418   1.122  0.4234 -0.1128  0.4539
  682SOL     OW 2800   3.817   0.489   1.269 -0.2856 -0.1062 -0.2128
  682SOL    HW2 2801   3.902   0.463   1.233 -0.4335 -0.0009 -0.6453
  682SOL    HW3 2802   3.818   0.585   1.266 -0.6579 -0.1169 -0.7846
  682SOL    MW4 2803   3.829   0.498   1.264 -0.3541 -0.0937 -0.3452
  683SOL     OW 2804   3.831   0.765   1.213  0.2871  0.2906  0.1114
  683SOL    HW2 2805   3.912   0.813   1.232  0.8037 -0.7475  0.5600
  683SOL    HW3 2806   3.766   0.834   1.198  1.3521  1.1493 -0.7429
  683SOL    MW4 2807   3.833   0.781   1.213  0.4957  0.2670  0.0577
  684SOL     OW 2808   3.597   0.894   1.184  0.3131 -0.1278 -0.3014
  684SOL    HW2 2809   3.595   0.976   1.135 -0.2064 -0.2301 -0.4522
  684SOL    HW3 2810   3.513   0.852   1.165 -0.0912  0.0461  1.0442
  684SOL    MW4 2811   3.586   0.899   1.175  0.1910 -0.1183 -0.1438
  685SOL     OW 2812   3.585   1.157   1.085  0.2193 -0.2136 -0.3589
  685SOL    HW2 2813   3.655   1.208   1.125 -0.2294  1.1887 -1.3065
  685SOL    HW3 2814   3.505   1.186   1.130 -0.0025 -0.2968 -0.6950
  685SOL    MW4 2815   3.583   1.167   1.096  0.1309 -0.0396 -0.5282
  686SOL     OW 2816   3.796   1.308   1.196  0.1137 -0.2958  0.1083
  686SOL    HW2 2817   3.792   1.309   1.292  1.9111  0.7077  0.1801
  686SOL    HW3 2818   3.781   1.399   1.171  0.3985 -0.4262 -0.5389
  686SOL    MW4 2819   3.793   1.320   1.205  0.3884 -0.1807  0.0324
  687SOL     OW 2820   3.774   1.564   1.101  0.1913 -0.2633 -0.0295
  687SOL    HW2 2821   3.864   1.582   1.126  0.5030 -0.7207 -0.8124
  687SOL    HW3 2822   3.771   1.581   1.007 -0.5320 -0.2677 -0.0105
  687SOL    MW4 2823   3.785   1.569   1.092  0.1371 -0.3241 -0.1302
  688SOL     OW 2824   3.565   1.701   1.250 -0.2997  0.0297 -0.1665
  688SOL    HW2 2825   3.578   1.792   1.225 -1.1535 -0.0079 -0.7826
  688SOL    HW3 2826   3.635   1.653   1.206  1.4015  0.6280  1.8070
  688SOL    MW4 2827   3.576   1.707   1.241 -0.1881  0.1037  0.0126
  689SOL     OW 2828   3.594   1.961   1.154 -0.2927 -0.3490 -0.6346
  689SOL    HW2 2829   3.679   1.998   1.176 -0.0178 -0.9949 -0.6167
  689SOL    HW3 2830   3.601   1.936   1.062 -0.0352 -1.5926 -0.2811
  689SOL    MW4 2831   3.606   1.963   1.144 -0.2222 -0.5983 -0.5856
  690SOL     OW 2832   3.836   2.056   1.234 -0.6443 -0.1311  0.2745
  690SOL    HW2 2833   3.848   2.060   1.328 -0.6287 -0.9487  0.3094
  690SOL    HW3 2834   3.915   2.014   1.201 -0.6100  0.2325 -0.1142
  690SOL    MW4 2835   3.848   2.051   1.242 -0.6375 -0.1907  0.2278
  691SOL     OW 2836   3.844   2.311   1.078  0.0173 -0.2878 -0.0592
  691SOL    HW2 2837   3.916   2.358   1.121  0.8010 -1.1411 -0.4091
  691SOL    HW3 2838   3.834   2.230   1.128 -1.7076  0.4870  0.8805
  691SOL    MW4 2839   3.852   2.306   1.090 -0.1070 -0.2980  0.0186
  692SOL     OW 2840   3.640   2.489   1.157 -0.0281 -0.0731  0.0211
  692SOL    HW2 2841   3.606   2.452   1.238  0.2191  1.0136  0.6339
  692SOL    HW3 2842   3.711   2.429   1.131  0.6076  0.1488  1.1859
  692SOL    MW4 2843   3.645   2.476   1.164  0.0885  0.0997  0.2558
  693SOL     OW 2844   3.604   2.646   0.920  0.3321  0.5518  0.0001
  693SOL    HW2 2845   3.635   2.593   0.994  0.3031  0.5355  0.0003
  693SOL    HW3 2846   3.536   2.703   0.958  0.0563  0.2826 -0.0937
  693SOL    MW4 2847   3.599   2.647   0.935  0.2918  0.5143 -0.0122
  694SOL     OW 2848   3.781   2.766   1.212  0.6967 -0.0630 -0.2864
  694SOL    HW2 2849   3.807   2.776   1.304 -0.5155 -1.2575  0.1878
  694SOL    HW3 2850   3.723   2.691   1.211 -1.0762  1.2807 -1.6890
  694SOL    MW4 2851   3.777   2.758   1.224  0.3026 -0.0434 -0.4088
  695SOL     OW 2852   3.809   3.020   1.113 -0.4359  0.1476  0.5488
  695SOL    HW2 2853   3.793   2.929   1.141 -2.1136  0.4862  0.7008
  695SOL    HW3 2854   3.799   3.017   1.018  2.0848 -0.3385  0.2609
  695SOL    MW4 2855   3.806   3.007   1.104 -0.3250  0.1278  0.5308
  696SOL     OW 2856   3.586   3.151   1.224  0.1464  0.1462  0.4238
  696SOL    HW2 2857   3.591   3.243   1.197  0.7850 -0.0966 -0.2975
  696SOL    HW3 2858   3.664   3.111   1.187 -0.0372 -0.6543  0.8942
  696SOL    MW4 2859   3.597   3.158   1.216  0.2065  0.0086  0.3908
  697SOL     OW 2860   3.596   3.416   1.170 -0.1528 -0.3735 -0.3339
  697SOL    HW2 2861   3.668   3.474   1.194 -0.2709 -0.6795  0.8021
  697SOL    HW3 2862   3.604   3.406   1.075  0.4542  0.7111 -0.4071
  697SOL    MW4 2863   3.607   3.423   1.161 -0.0885 -0.2706 -0.1937
  698SOL     OW 2864   3.817   3.597   1.210  0.1882  0.4937  0.1174
  698SOL    HW2 2865   3.821   3.613   1.304 -1.9514  0.4390  0.2378
  698SOL    HW3 2866   3.822   3.684   1.171 -3.8390  0.9677  0.4953
  698SOL    MW4 2867   3.818   3.610   1.217 -0.6254  0.5486  0.1830
  699SOL     OW 2868   3.824   3.862   1.115 -0.6085  0.3272  0.2866
  699SOL    HW2 2869   3.752   3.908   1.157 -0.6258  1.7867 -1.2821
  699SOL    HW3 2870   3.796   3.850   1.024  0.6566 -0.0725 -0.0618
  699SOL    MW4 2871   3.811   3.867   1.108 -0.4439  0.4668  0.0336
  700SOL     OW 2872   3.605   4.015   1.207 -0.2395 -0.2884  0.0508
  700SOL    HW2 2873   3.609   4.015   1.302  0.9481  0.7369  0.0110
  700SOL    HW3 2874   3.524   3.968   1.186 -1.2132  0.7015  1.5771
  700SOL    MW4 2875   3.595   4.009   1.217 -0.2112 -0.0224  0.2470
  701SOL     OW 2876   3.629   4.268   1.080  0.0093 -0.1838  0.0456
  701SOL    HW2 2877   3.616   4.185   1.126 -0.3208  0.1683  0.5920
  701SOL    HW3 2878   3.613   4.247   0.988 -0.7083 -0.5903  0.2576
  701SOL    MW4 2879   3.625   4.254   1.074 -0.1290 -0.1912  0.1457
  702SOL     OW 2880   3.861   4.402   1.198  0.0191  0.4682 -0.1743
  702SOL    HW2 2881   3.849   4.381   1.290  1.1336 -2.4159 -0.6403
  702SOL    HW3 2882   3.776   4.384   1.157 -0.2922  1.1478  0.1624
  702SOL    MW4 2883   3.848   4.397   1.204  0.1247  0.1774 -0.1915
  703SOL     OW 2884   4.314   4.660   1.134  0.4867  0.3612 -0.0973
  703SOL    HW2 2885   4.318   4.573   1.174  0.6272  0.0536 -0.7832
  703SOL    HW3 2886   4.229   4.696   1.162  0.6878  0.2430  0.6725
  703SOL    MW4 2887   4.303   4.653   1.143  0.5317  0.3052 -0.0863
  704SOL     OW 2888   4.082   0.136   1.200  0.3482  0.2786  0.9178
  704SOL    HW2 2889   4.088   0.133   1.296  0.5908  0.2913  0.9024
  704SOL    HW3 2890   3.995   0.102   1.181 -0.1493  1.3551  1.2095
  704SOL    MW4 2891   4.071   0.131   1.210  0.3142  0.4223  0.9543
  705SOL     OW 2892   4.050   0.394   1.144 -0.2592  0.2629  0.1875
  705SOL    HW2 2893   4.059   0.300   1.157 -1.9234 -0.0704 -0.9643
  705SOL    HW3 2894   4.005   0.403   1.060  0.8594  2.1108 -0.2534
  705SOL    MW4 2895   4.045   0.383   1.135 -0.3314  0.4627 -0.0226
  706SOL     OW 2896   4.283   0.529   1.242 -0.3078  0.6008  0.6190
  706SOL    HW2 2897   4.285   0.507   1.335  0.1941  0.8957  0.6826
  706SOL    HW3 2898   4.204   0.486   1.208 -0.1296 -0.0622  1.0389
  706SOL    MW4 2899   4.273   0.520   1.250 -0.2184  0.5522  0.6827
  707SOL     OW 2900   4.282   0.785   1.125 -0.5354 -0.3457 -0.5756
  707SOL    HW2 2901   4.273   0.700   1.167  0.2572  0.4077  1.1546
  707SOL    HW3 2902   4.292   0.765   1.032 -0.8906 -2.0999 -0.2483
  707SOL    MW4 2903   4.282   0.771   1.118 -0.4773 -0.4777 -0.3042
  708SOL     OW 2904   4.057   0.913   1.249  0.0459 -0.0002 -0.0869
  708SOL    HW2 2905   4.087   0.910   1.340 -0.5315 -0.1200  0.1002
  708SOL    HW3 2906   4.135   0.891   1.198 -0.0836 -1.8549  0.4761
  708SOL    MW4 2907   4.071   0.910   1.254 -0.0472 -0.2608  0.0120
  709SOL     OW 2908   4.014   1.161   1.135  0.1199  0.2188 -0.1319
  709SOL    HW2 2909   4.018   1.081   1.187  1.1982  1.3551  1.5986
  709SOL    HW3 2910   3.939   1.208   1.171 -0.4658  0.0170 -1.0943
  709SOL    MW4 2911   4.005   1.157   1.147  0.1850  0.3422 -0.0306
  710SOL     OW 2912   4.282   1.242   1.201  0.3456 -0.1367 -0.2639
  710SOL    HW2 2913   4.276   1.248   1.296  1.3256  2.1818 -0.3249
  710SOL    HW3 2914   4.198   1.204   1.174 -0.7467  1.0403  1.3709
  710SOL    MW4 2915   4.270   1.238   1.210  0.3309  0.3246 -0.0564
  711SOL     OW 2916   4.267   1.503   1.130  0.4349 -0.2052 -0.0994
  711SOL    HW2 2917   4.244   1.413   1.153  1.4445 -0.3478  0.3864
  711SOL    HW3 2918   4.345   1.522   1.182  1.6083  0.1509 -1.9555
  711SOL    MW4 2919   4.274   1.494   1.140  0.7229 -0.1770 -0.2803
  712SOL     OW 2920   4.031   1.638   1.197  0.2586  0.3193  0.0976
  712SOL    HW2 2921   4.030   1.654   1.291 -0.2437  1.9930 -0.1686
  712SOL    HW3 2922   4.115   1.596   1.180  1.1238  1.6489  1.0341
  712SOL    MW4 2923   4.042   1.634   1.207  0.3061  0.7155  0.1860
  713SOL     OW 2924   4.026   1.900   1.111  0.1182  0.2488 -0.2188
  713SOL    HW2 2925   4.016   1.812   1.147 -1.7654  1.7820  3.1807
  713SOL    HW3 2926   4.024   1.887   1.016 -1.9279 -3.1598  0.2111
  713SOL    MW4 2927   4.024   1.886   1.103 -0.4001  0.0013  0.2863
  714SOL     OW 2928   4.270   2.037   1.198  0.4653 -0.2497 -0.4605
  714SOL    HW2 2929   4.250   2.124   1.164  1.3576 -0.2589 -1.0371
  714SOL    HW3 2930   4.191   1.985   1.179 -0.5194  0.7175  0.9416
  714SOL    MW4 2931   4.257   2.041   1.191  0.4535 -0.1233 -0.3515
  715SOL     OW 2932   4.259   2.310   1.131 -0.3946  0.0630  0.0907
  715SOL    HW2 2933   4.174   2.348   1.153 -0.8230 -0.5517 -0.4705
  715SOL    HW3 2934   4.257   2.302   1.036  0.9064  1.4609 -0.0583
  715SOL    MW4 2935   4.247   2.314   1.122 -0.2799  0.1662 -0.0031
  716SOL     OW 2936   4.037   2.452   1.194  0.4136 -0.0097  0.1286
  716SOL    HW2 2937   4.043   2.442   1.289  0.3485  1.7006  0.3272
  716SOL    HW3 2938   4.033   2.547   1.180  0.0947 -0.2572 -1.5593
  716SOL    MW4 2939   4.037   2.463   1.205  0.3629  0.1831 -0.0678
  717SOL     OW 2940   4.040   2.713   1.091 -0.1842 -0.1677  0.3864
  717SOL    HW2 2941   3.960   2.754   1.123 -0.3695  0.5762 -0.9958
  717SOL    HW3 2942   4.021   2.691   1.000  1.8167  1.7270 -0.5278
  717SOL    MW4 2943   4.027   2.715   1.083  0.0548  0.1802  0.0834
  718SOL     OW 2944   4.282   2.839   1.176 -0.2516  0.1237 -0.1856
  718SOL    HW2 2945   4.292   2.924   1.132 -0.4644  0.7340  0.9237
  718SOL    HW3 2946   4.202   2.802   1.140 -0.3999  0.5940 -0.3431
  718SOL    MW4 2947   4.273   2.845   1.165 -0.2990  0.2663 -0.0601
  719SOL     OW 2948   4.281   3.103   1.081 -0.3140  0.0967 -0.1305
  719SOL    HW2 2949   4.205   3.129   1.133 -0.2583  1.0597 -0.5127
  719SOL    HW3 2950   4.257   3.123   0.991 -0.1841 -1.0237 -0.4217
  719SOL    MW4 2951   4.268   3.109   1.076 -0.2894  0.0758 -0.2193
  720SOL     OW 2952   4.042   3.187   1.215 -0.2190  0.1095 -0.3243
  720SOL    HW2 2953   4.036   3.187   1.311  0.5394 -0.0073 -0.2737
  720SOL    HW3 2954   3.969   3.133   1.186 -0.5338  0.2582  0.1843
  720SOL    MW4 2955   4.031   3.180   1.224 -0.1602  0.1137 -0.2507
  721SOL     OW 2956   4.031   3.456   1.113 -0.0255 -0.2180  0.0754
  721SOL    HW2 2957   4.029   3.365   1.142 -0.9506 -0.0288  0.6296
  721SOL    HW3 2958   3.954   3.496   1.153  1.2984  1.2343  1.2702
  721SOL    MW4 2959   4.021   3.449   1.123  0.0277 -0.0012  0.3061
  722SOL     OW 2960   4.265   3.604   1.198  0.1453  0.3127 -0.5425
  722SOL    HW2 2961   4.189   3.557   1.163  0.7035 -1.3407  0.4130
  722SOL    HW3 2962   4.340   3.550   1.173  0.8965  1.2834 -0.3881
  722SOL    MW4 2963   4.265   3.591   1.190  0.3181  0.2224 -0.3960
  723SOL     OW 2964   4.273   3.856   1.147  0.1253 -0.7671 -0.0254
  723SOL    HW2 2965   4.198   3.903   1.185  0.8591 -0.0585  0.5702
  723SOL    HW3 2966   4.260   3.765   1.174 -1.2159 -0.8927 -1.0399
  723SOL    MW4 2967   4.261   3.850   1.156  0.0453 -0.6905 -0.0806
  724SOL     OW 2968   4.043   3.966   1.249 -0.0239  0.1284 -0.2704
  724SOL    HW2 2969   4.043   3.951   1.343  0.5980  0.9622 -0.1360
  724SOL    HW3 2970   3.959   3.931   1.219 -0.0373 -0.5331  0.5269
  724SOL    MW4 2971   4.032   3.959   1.257  0.0563  0.1512 -0.1473
  725SOL     OW 2972   4.088   4.253   1.153  0.0255  0.1515 -0.2115
  725SOL    HW2 2973   4.009   4.304   1.172 -0.8216 -0.3114 -2.4018
  725SOL    HW3 2974   4.073   4.169   1.197 -1.1853 -0.3106 -1.4686
  725SOL    MW4 2975   4.076   4.249   1.161 -0.2456  0.0296 -0.6664
  726SOL     OW 2976   4.336   4.378   1.217 -1.3426 -0.0382  0.1384
  726SOL    HW2 2977   4.264   4.330   1.176 -1.5341 -0.5036  1.0242
  726SOL    HW3 2978   4.415   4.341   1.177 -1.5970  0.6661 -1.0415
  726SOL    MW4 2979   4.337   4.367   1.206 -1.4014 -0.0067  0.0995
  727SOL     OW 2980   0.250   4.664   1.680  0.6093  0.2559  0.0405
  727SOL    HW2 2981   0.324   4.695   1.628 -0.2351  0.7341 -0.8977
  727SOL    HW3 2982   0.174   4.677   1.623 -0.1703 -0.4087  0.9201
  727SOL    MW4 2983   0.250   4.670   1.666  0.3950  0.2313  0.0327
  728SOL     OW 2984   0.015   0.065   1.537  0.3508  0.2452 -0.2001
  728SOL    HW2 2985  -0.054   0.019   1.584  0.6523 -0.8918 -0.8674
  728SOL    HW3 2986  -0.025   0.093   1.455  0.6692 -0.3826 -0.5721
  728SOL    MW4 2987   0.001   0.063   1.533  0.4325  0.0124 -0.3372
  729SOL     OW 2988   0.026   0.337   1.606 -0.5595 -0.2372 -0.3108
  729SOL    HW2 2989   0.016   0.338   1.701  2.0860  1.2933  0.0224
  729SOL    HW3 2990   0.011   0.246   1.581 -0.8913 -0.7365  1.6160
  729SOL    MW4 2991   0.023   0.325   1.615 -0.2542 -0.1011 -0.0126
  730SOL     OW 2992   0.261   0.484   1.532 -0.0127 -0.1322  0.2998
  730SOL    HW2 2993   0.177   0.441   1.552  0.4091 -0.6595  0.9651
  730SOL    HW3 2994   0.261   0.493   1.436 -0.6903 -0.4118  0.2696
  730SOL    MW4 2995   0.250   0.479   1.522 -0.0464 -0.2387  0.3837
  731SOL     OW 2996   0.274   0.772   1.611  0.3783 -0.3025 -0.1071
  731SOL    HW2 2997   0.353   0.811   1.572 -0.4689  1.5844  0.0413
  731SOL    HW3 2998   0.277   0.680   1.583  1.6822  0.1688 -1.6004
  731SOL    MW4 2999   0.285   0.765   1.602  0.4385  0.0087 -0.2847
  732SOL     OW 3000   0.056   0.861   1.462  0.2205 -0.2702  0.1757
  732SOL    HW2 3001   0.029   0.939   1.510 -0.0008 -1.3321  1.8037
  732SOL    HW3 3002   0.139   0.835   1.501  0.0444 -1.1339 -0.0042
  732SOL    MW4 3003   0.063   0.868   1.473  0.1680 -0.5243  0.3668
  733SOL     OW 3004   4.458   1.109   1.575  0.3547  0.3303  0.3340
  733SOL    HW2 3005   4.474   1.112   1.669  0.3023  0.5763  0.3355
  733SOL    HW3 3006   4.538   1.146   1.536  0.4479  0.0715  0.2737
  733SOL    MW4 3007   4.471   1.114   1.582  0.3600  0.3287  0.3263
  734SOL     OW 3008   0.225   1.232   1.504 -0.2602  0.3918 -0.1214
  734SOL    HW2 3009   0.245   1.321   1.534 -0.0860  0.8236 -1.4770
  734SOL    HW3 3010   0.235   1.236   1.409  0.2840 -1.2194 -0.1486
  734SOL    MW4 3011   0.229   1.244   1.495 -0.1654  0.2363 -0.3039
  735SOL     OW 3012   0.296   1.480   1.613 -0.0744  0.1766 -0.0442
  735SOL    HW2 3013   0.285   1.479   1.708 -0.9660 -0.9384 -0.1436
  735SOL    HW3 3014   0.222   1.533   1.581  0.6608  1.1982 -0.0760
  735SOL    MW4 3015   0.285   1.487   1.622 -0.0951  0.1643 -0.0615
  736SOL     OW 3016   0.078   1.592   1.510 -0.4597 -0.2284 -0.1314
  736SOL    HW2 3017   0.063   1.682   1.536 -0.4123 -0.2915  0.1191
  736SOL    HW3 3018   0.061   1.590   1.416  2.0342  0.5800 -0.6080
  736SOL    MW4 3019   0.074   1.603   1.501 -0.1244 -0.1301 -0.1613
  737SOL     OW 3020   0.034   1.873   1.585 -0.5679  0.2543  0.3778
  737SOL    HW2 3021   0.019   1.901   1.675 -0.4213 -0.3757  0.5939
  737SOL    HW3 3022  -0.029   1.925   1.534 -0.6018  0.6638  0.8273
  737SOL    MW4 3023   0.023   1.884   1.590 -0.5531  0.2252  0.4656
  738SOL     OW 3024   0.241   2.029   1.519  0.0515  0.3640 -0.0769
  738SOL    HW2 3025   0.173   1.970   1.552  0.1359  0.2928 -0.0316
  738SOL    HW3 3026   0.230   2.028   1.424  1.0710 -0.9512 -0.1922
  738SOL    MW4 3027   0.231   2.021   1.511  0.1972  0.1812 -0.0862
  739SOL     OW 3028   0.239   2.301   1.560 -0.2460  0.7295 -0.2709
  739SOL    HW2 3029   0.240   2.311   1.655 -1.5790  1.7496 -0.3520
  739SOL    HW3 3030   0.236   2.207   1.545 -1.2607  0.5951  0.7200
  739SOL    MW4 3031   0.239   2.290   1.571 -0.5557  0.8464 -0.1508
  740SOL     OW 3032   0.015   2.435   1.506 -0.2720 -0.2278  0.0467
  740SOL    HW2 3033  -0.052   2.383   1.550 -0.0078  0.5740  1.4345
  740SOL    HW3 3034   0.097   2.392   1.528 -0.2979 -1.0007 -1.3521
  740SOL    MW4 3035   0.017   2.423   1.515 -0.2405 -0.2241  0.0452
  741SOL     OW 3036   4.460   2.670   1.625  0.3733  0.8007  0.1843
  741SOL    HW2 3037   4.394   2.710   1.568 -1.0865  0.8609  1.8779
  741SOL    HW3 3038   4.483   2.588   1.582 -0.1476  1.2145 -0.8869
  741SOL    MW4 3039   4.454   2.665   1.612  0.1121  0.8633  0.2663
  742SOL     OW 3040   0.202   2.765   1.473 -0.1743 -0.2129 -0.2270
  742SOL    HW2 3041   0.281   2.764   1.526 -0.6302 -0.5615  0.4618
  742SOL    HW3 3042   0.135   2.724   1.528 -1.1443  1.2127 -0.3071
  742SOL    MW4 3043   0.203   2.759   1.487 -0.3624 -0.0708 -0.1466
  743SOL     OW 3044   0.219   3.056   1.612  0.9963 -0.3953 -0.1202
  743SOL    HW2 3045   0.140   3.102   1.584  1.2239  0.1488  0.1195
  743SOL    HW3 3046   0.200   2.963   1.596  0.3720 -0.2539 -0.2098
  743SOL    MW4 3047   0.206   3.050   1.606  0.9440 -0.3049 -0.1004
  744SOL     OW 3048   4.486   3.183   1.499  0.4926  0.1614 -0.0343
  744SOL    HW2 3049   4.450   3.264   1.537 -1.8027  0.1033 -1.9786
  744SOL    HW3 3050   4.494   3.201   1.406  0.3541 -1.7159 -0.4307
  744SOL    MW4 3051   4.482   3.196   1.492  0.1717 -0.0939 -0.3430
  745SOL     OW 3052   4.391   3.436   1.554  0.2470  0.1964 -0.3341
  745SOL    HW2 3053   4.389   3.453   1.649 -1.3158 -1.6424  0.0037
  745SOL    HW3 3054   4.328   3.498   1.517 -0.7419 -0.5405  0.1028
  745SOL    MW4 3055   4.383   3.446   1.562 -0.0892 -0.1438 -0.2321
  746SOL     OW 3056   0.164   3.558   1.506  0.1369  0.1113 -0.0298
  746SOL    HW2 3057   0.168   3.635   1.562  1.6694 -2.4463  3.5560
  746SOL    HW3 3058   0.080   3.517   1.527  0.1088 -0.1391 -0.6074
  746SOL    MW4 3059   0.153   3.563   1.516  0.3354 -0.2592  0.3670
  747SOL     OW 3060   0.192   3.825   1.605  0.1034 -0.2544 -0.3863
  747SOL    HW2 3061   0.189   3.827   1.700 -0.1792 -0.3558 -0.3916
  747SOL    HW3 3062   0.275   3.867   1.582 -0.0680  0.2314 -0.1166
  747SOL    MW4 3063   0.203   3.830   1.614  0.0435 -0.2038 -0.3513
  748SOL     OW 3064   0.024   3.990   1.469  0.6607  0.1094 -0.3986
  748SOL    HW2 3065   0.041   4.078   1.502  1.8695  0.8727 -2.9254
  748SOL    HW3 3066   0.086   3.934   1.516  0.0195  0.6096  1.0746
  748SOL    MW4 3067   0.034   3.994   1.479  0.7353  0.2759 -0.5375
  749SOL     OW 3068   0.021   4.249   1.576  0.3409  0.1469 -0.4894
  749SOL    HW2 3069   0.007   4.229   1.668 -1.8996 -1.4167 -1.1400
  749SOL    HW3 3070  -0.053   4.305   1.551  0.5649  0.0046 -1.5029
  749SOL    MW4 3071   0.010   4.254   1.585  0.0749 -0.0782 -0.7089
  750SOL     OW 3072   0.252   4.423   1.546  0.3893 -0.0869  0.3826
  750SOL    HW2 3073   0.175   4.371   1.568  0.2633  0.0085  0.1571
  750SOL    HW3 3074   0.252   4.494   1.610  0.2008  0.0062  0.2790
  750SOL    MW4 3075   0.242   4.425   1.558  0.3478 -0.0620  0.3390
  751SOL     OW 3076   0.701   0.002   1.596 -0.0213  0.2071 -0.0785
  751SOL    HW2 3077   0.770   0.043   1.543 -0.1071  1.2305  0.5895
  751SOL    HW3 3078   0.620   0.044   1.566 -0.0893  0.6790  0.7285
  751SOL    MW4 3079   0.700   0.013   1.585 -0.0416  0.4039  0.1161
  752SOL     OW 3080   0.457   0.102   1.529  0.0917 -0.3233 -0.2845
  752SOL    HW2 3081   0.466   0.192   1.558 -0.2503 -0.2655 -0.3483
  752SOL    HW3 3082   0.467   0.106   1.434 -1.3478 -0.1413 -0.4479
  752SOL    MW4 3083   0.459   0.114   1.520 -0.1434 -0.2917 -0.3145
  753SOL     OW 3084   0.494   0.355   1.610 -0.3156  0.1217 -0.5969
  753SOL    HW2 3085   0.554   0.402   1.553  0.2907 -1.2484 -1.1115
  753SOL    HW3 3086   0.409   0.394   1.594  0.3556  1.7668 -0.2033
  753SOL    MW4 3087   0.491   0.366   1.601 -0.1471  0.1580 -0.6129
  754SOL     OW 3088   0.696   0.507   1.450 -0.3082 -0.0893  0.6775
  754SOL    HW2 3089   0.703   0.601   1.468  0.0109  0.2258 -0.9966
  754SOL    HW3 3090   0.690   0.501   1.354  0.8136 -1.8477  0.6885
  754SOL    MW4 3091   0.696   0.519   1.439 -0.1181 -0.2798  0.4581
  755SOL     OW 3092   0.733   0.761   1.546  0.1039  0.2365  0.3606
  755SOL    HW2 3093   0.722   0.754   1.641  0.7092 -1.8096  0.2937
  755SOL    HW3 3094   0.815   0.810   1.535  0.0149  0.5085  0.8803
  755SOL    MW4 3095   0.742   0.767   1.557  0.1720  0.0024  0.4205
  756SOL     OW 3096   0.483   0.899   1.482 -0.1752 -0.3975  0.0116
  756SOL    HW2 3097   0.480   0.977   1.538 -1.5104  0.3418 -1.0749
  756SOL    HW3 3098   0.571   0.864   1.495  0.2370  0.9576  0.9603
  756SOL    MW4 3099   0.494   0.905   1.491 -0.2970 -0.1212 -0.0067
  757SOL     OW 3100   0.444   1.139   1.627 -0.3418  0.0906  0.6029
  757SOL    HW2 3101   0.511   1.179   1.573 -0.4242  0.5463  0.8315
  757SOL    HW3 3102   0.361   1.175   1.593 -0.4751 -0.5658  0.2388
  757SOL    MW4 3103   0.442   1.149   1.616 -0.3703  0.0641  0.5850
  758SOL     OW 3104   0.656   1.273   1.513  0.5863 -0.3464  0.3845
  758SOL    HW2 3105   0.669   1.350   1.568 -0.5538 -0.1355  0.3797
  758SOL    HW3 3106   0.667   1.305   1.424  1.9135 -0.5763  0.4647
  758SOL    MW4 3107   0.659   1.288   1.509  0.6110 -0.3489  0.3945
  759SOL     OW 3108   0.699   1.513   1.648  0.2932 -0.2509 -0.3477
  759SOL    HW2 3109   0.781   1.536   1.605  0.0786 -0.2640 -0.7753
  759SOL    HW3 3110   0.635   1.575   1.611  0.4465  0.9079  1.2645
  759SOL    MW4 3111   0.701   1.524   1.637  0.2851 -0.0997 -0.1912
  760SOL     OW 3112   0.500   1.629   1.510  0.4232 -0.2542  0.1573
  760SOL    HW2 3113   0.483   1.720   1.537  0.1237 -0.2434 -0.0658
  760SOL    HW3 3114   0.430   1.579   1.551 -0.6538 -0.0951 -1.4549
  760SOL    MW4 3115   0.489   1.635   1.519  0.2416 -0.2317 -0.0849
  761SOL     OW 3116   0.445   1.873   1.621 -0.1954  0.1809  0.2102
  761SOL    HW2 3117   0.450   1.896   1.713 -0.4677  0.7582  0.0818
  761SOL    HW3 3118   0.373   1.926   1.587  0.4668  0.6212 -0.5284
  761SOL    MW4 3119   0.436   1.883   1.628 -0.1440  0.3152  0.0957
  762SOL     OW 3120   0.652   2.037   1.481 -0.0886 -0.4106 -0.2163
  762SOL    HW2 3121   0.724   1.986   1.519 -1.0488 -1.6821 -0.0635
  762SOL    HW3 3122   0.572   1.995   1.514 -0.9119  0.8557 -0.5458
  762SOL    MW4 3123   0.651   2.024   1.490 -0.3239 -0.4113 -0.2397
  763SOL     OW 3124   0.701   2.284   1.604  0.2006 -0.0621 -0.8457
  763SOL    HW2 3125   0.615   2.326   1.596 -0.4293 -0.8596  1.3588
  763SOL    HW3 3126   0.687   2.196   1.569  0.3222  0.0377 -1.1505
  763SOL    MW4 3127   0.688   2.278   1.598  0.1335 -0.1543 -0.5951
  764SOL     OW 3128   0.470   2.433   1.530  0.9973 -0.2097 -0.1386
  764SOL    HW2 3129   0.450   2.522   1.557  0.1995 -0.0892 -1.1191
  764SOL    HW3 3130   0.386   2.387   1.535  1.3061 -0.7825 -0.1315
  764SOL    MW4 3131   0.456   2.438   1.534  0.9328 -0.2694 -0.2670
  765SOL     OW 3132   0.433   2.688   1.617  0.3051 -0.2882  0.4268
  765SOL    HW2 3133   0.432   2.705   1.711  2.2974 -2.1372  0.8095
  765SOL    HW3 3134   0.491   2.754   1.582 -0.4846  0.4403  0.4666
  765SOL    MW4 3135   0.440   2.699   1.625  0.4637 -0.4363  0.4826
  766SOL     OW 3136   0.644   2.837   1.487 -0.0438  0.0230  0.4562
  766SOL    HW2 3137   0.667   2.920   1.530 -0.6766  0.2594  0.3471
  766SOL    HW3 3138   0.640   2.859   1.394  0.6615 -0.3338  0.3399
  766SOL    MW4 3139   0.647   2.851   1.480 -0.0343  0.0069  0.4265
  767SOL     OW 3140   0.699   3.090   1.594  0.4332  0.3018 -0.2852
  767SOL    HW2 3141   0.763   3.148   1.552 -0.3179  1.7486  0.5415
  767SOL    HW3 3142   0.614   3.121   1.563  0.1131 -2.1855 -2.1046
  767SOL    MW4 3143   0.696   3.101   1.584  0.2918  0.1645 -0.4163
  768SOL     OW 3144   0.442   3.184   1.510  0.2568  0.0287  0.3003
  768SOL    HW2 3145   0.360   3.142   1.537  0.8653 -0.7215  0.9932
  768SOL    HW3 3146   0.445   3.171   1.415 -1.7111  2.3604 -0.1547
  768SOL    MW4 3147   0.432   3.177   1.501  0.0775  0.2375  0.3316
  769SOL     OW 3148   0.434   3.467   1.604  0.1875 -0.1118  0.6338
  769SOL    HW2 3149   0.451   3.373   1.606  0.0480 -0.1382  0.5270
  769SOL    HW3 3150   0.345   3.475   1.571  0.2207  0.0604  0.5863
  769SOL    MW4 3151   0.425   3.455   1.600  0.1735 -0.0925  0.6136
  770SOL     OW 3152   0.656   3.600   1.481 -0.4556  0.0547 -0.1950
  770SOL    HW2 3153   0.735   3.569   1.524 -0.6878  0.0195  0.2018
  770SOL    HW3 3154   0.584   3.553   1.524 -0.7628  0.7398  0.0510
  770SOL    MW4 3155   0.657   3.590   1.492 -0.5267  0.1404 -0.1103
  771SOL     OW 3156   0.688   3.877   1.573 -0.3312 -0.2574 -0.3911
  771SOL    HW2 3157   0.770   3.903   1.531  0.0723 -0.0594  0.4890
  771SOL    HW3 3158   0.680   3.783   1.555 -1.4568  0.3148 -3.0305
  771SOL    MW4 3159   0.698   3.868   1.565 -0.4265 -0.1559 -0.6231
  772SOL     OW 3160   0.410   3.995   1.556  0.3940 -0.0231  0.1335
  772SOL    HW2 3161   0.495   3.968   1.592  0.8589 -0.9912 -1.6267
  772SOL    HW3 3162   0.426   4.007   1.463 -1.3588  0.0056 -0.1851
  772SOL    MW4 3163   0.423   3.993   1.548  0.2241 -0.1473 -0.1407
  773SOL     OW 3164   0.468   4.266   1.625 -0.1346 -0.2506  0.2691
  773SOL    HW2 3165   0.445   4.176   1.605 -0.1442 -0.0935 -0.4429
  773SOL    HW3 3166   0.391   4.317   1.598 -0.4743 -0.1209  1.4852
  773SOL    MW4 3167   0.455   4.261   1.619 -0.1807 -0.2122  0.3356
  774SOL     OW 3168   0.685   4.393   1.513  0.0639  0.0753 -0.2153
  774SOL    HW2 3169   0.611   4.350   1.555  0.7905  0.3022  1.3181
  774SOL    HW3 3170   0.687   4.480   1.552  1.4504 -0.0984  0.1080
  774SOL    MW4 3171   0.675   4.399   1.523  0.3427  0.0820  0.0297
  775SOL     OW 3172   1.109   4.650   1.590 -0.0923  0.4558  0.0950
  775SOL    HW2 3173   1.112   4.657   1.685 -0.0873 -1.8052  0.2962
  775SOL    HW3 3174   1.190   4.689   1.559  0.4289  0.1690  1.1004
  775SOL    MW4 3175   1.120   4.656   1.598 -0.0229  0.1202  0.2543
  776SOL     OW 3176   0.892   0.129   1.453 -0.1804 -0.0631 -0.0639
  776SOL    HW2 3177   0.888   0.222   1.475  0.6996  0.3440 -1.5612
  776SOL    HW3 3178   0.954   0.092   1.516 -1.5682  0.0972  1.4072
  776SOL    MW4 3179   0.900   0.136   1.464 -0.2474  0.0118 -0.0675
  777SOL     OW 3180   0.906   0.386   1.580  0.1186  0.4798 -0.6223
  777SOL    HW2 3181   0.908   0.384   1.676 -0.0499  0.2284 -0.6246
  777SOL    HW3 3182   0.823   0.428   1.559  0.3172  0.8584 -0.6549
  777SOL    MW4 3183   0.895   0.391   1.590  0.1225  0.4966 -0.6268
  778SOL     OW 3184   1.110   0.538   1.455 -0.1686  0.0300 -0.1533
  778SOL    HW2 3185   1.120   0.622   1.500 -0.2239 -0.2473  0.3857
  778SOL    HW3 3186   1.034   0.498   1.497 -0.5169 -0.0244 -0.8298
  778SOL    MW4 3187   1.101   0.544   1.466 -0.2218 -0.0138 -0.1714
  779SOL     OW 3188   1.182   0.813   1.553  0.2193  0.1814  0.2503
  779SOL    HW2 3189   1.181   0.827   1.648 -0.0978 -0.0435  0.2808
  779SOL    HW3 3190   1.260   0.860   1.523  0.9343 -0.6648  0.7609
  779SOL    MW4 3191   1.192   0.821   1.561  0.2719  0.0401  0.3217
  780SOL     OW 3192   0.940   0.921   1.437 -0.1630 -0.6366  0.3741
  780SOL    HW2 3193   1.028   0.904   1.471  0.0401  1.4869  1.0247
  780SOL    HW3 3194   0.949   0.913   1.342  0.5481 -1.2363  0.4902
  780SOL    MW4 3195   0.953   0.918   1.429 -0.0423 -0.4356  0.4752
  781SOL     OW 3196   0.901   1.157   1.566 -0.2989 -0.1820  0.0406
  781SOL    HW2 3197   0.910   1.074   1.519  0.7813  0.6685 -1.2875
  781SOL    HW3 3198   0.812   1.186   1.545 -0.5588 -0.8283  0.2268
  781SOL    MW4 3199   0.891   1.150   1.557 -0.1907 -0.1551 -0.1100
  782SOL     OW 3200   1.096   1.325   1.492 -0.4368 -0.1023 -0.2507
  782SOL    HW2 3201   1.178   1.286   1.521 -0.0436 -0.0580 -1.2992
  782SOL    HW3 3202   1.028   1.269   1.529  0.0817 -0.6322 -0.1092
  782SOL    MW4 3203   1.098   1.313   1.501 -0.3165 -0.1663 -0.3703
  783SOL     OW 3204   1.147   1.588   1.612 -0.1909 -0.0077 -0.0390
  783SOL    HW2 3205   1.209   1.641   1.562 -0.8218  0.1893 -0.6226
  783SOL    HW3 3206   1.155   1.500   1.576  0.8262 -0.3125  0.9018
  783SOL    MW4 3207   1.156   1.584   1.601 -0.1398 -0.0219  0.0082
  784SOL     OW 3208   0.887   1.613   1.494  0.6228 -0.5555 -0.2086
  784SOL    HW2 3209   0.965   1.584   1.541  0.2485  0.0170  0.7721
  784SOL    HW3 3210   0.908   1.599   1.401  1.0963 -2.3442  0.1517
  784SOL    MW4 3211   0.900   1.607   1.488  0.6359 -0.7160 -0.0318
  785SOL     OW 3212   0.866   1.876   1.591  0.1010  0.4614 -0.5200
  785SOL    HW2 3213   0.949   1.913   1.560  0.7627  0.6822  1.4398
  785SOL    HW3 3214   0.869   1.784   1.565  1.1911  0.3546 -0.0320
  785SOL    MW4 3215   0.877   1.869   1.584  0.3322  0.4764 -0.1971
  786SOL     OW 3216   1.093   1.998   1.518  0.5998 -0.1065  0.1733
  786SOL    HW2 3217   1.178   1.969   1.553  0.3422  0.0532  0.9275
  786SOL    HW3 3218   1.089   2.091   1.540  1.4053  0.5354 -2.2113
  786SOL    MW4 3219   1.104   2.006   1.525  0.6721 -0.0007 -0.0418
  787SOL     OW 3220   1.112   2.274   1.573 -0.0247 -0.1973 -0.3459
  787SOL    HW2 3221   1.191   2.322   1.547 -0.4582 -0.0780 -1.4541
  787SOL    HW3 3222   1.040   2.334   1.556 -0.4492 -0.7051 -0.3735
  787SOL    MW4 3223   1.113   2.288   1.568 -0.1379 -0.2484 -0.4957
  788SOL     OW 3224   0.895   2.435   1.460 -0.5978  0.2469 -0.4302
  788SOL    HW2 3225   0.877   2.524   1.489  0.0327 -0.2976  1.7364
  788SOL    HW3 3226   0.830   2.381   1.506 -0.1607 -0.5633 -0.7474
  788SOL    MW4 3227   0.884   2.440   1.470 -0.4569  0.0682 -0.1862
  789SOL     OW 3228   0.875   2.694   1.568 -0.4883 -0.0903  0.2533
  789SOL    HW2 3229   0.849   2.723   1.655 -0.5221  1.2007 -0.1661
  789SOL    HW3 3230   0.799   2.712   1.513  0.2905  1.1987 -0.4575
  789SOL    MW4 3231   0.862   2.700   1.572 -0.3901  0.2503  0.1042
  790SOL     OW 3232   1.120   2.820   1.496 -0.1891  0.2048  0.1818
  790SOL    HW2 3233   1.111   2.906   1.537 -1.0504  0.3693 -0.3472
  790SOL    HW3 3234   1.039   2.774   1.517  0.5987 -0.7563  1.1064
  790SOL    MW4 3235   1.108   2.826   1.504 -0.1987  0.0997  0.2340
  791SOL     OW 3236   1.125   3.076   1.585 -0.4113  0.6415 -0.0469
  791SOL    HW2 3237   1.131   3.070   1.680  0.5921 -1.3303 -0.2035
  791SOL    HW3 3238   1.199   3.132   1.560  2.1600 -2.6197  0.0143
  791SOL    MW4 3239   1.136   3.083   1.594  0.0606 -0.0489 -0.0595
  792SOL     OW 3240   0.910   3.228   1.477  0.4929  0.4992 -0.5399
  792SOL    HW2 3241   0.983   3.179   1.515  0.5533  0.7030 -0.3889
  792SOL    HW3 3242   0.920   3.217   1.383  0.6930  0.4889 -0.5180
  792SOL    MW4 3243   0.921   3.220   1.470  0.5273  0.5248 -0.5170
  793SOL     OW 3244   0.899   3.500   1.581 -0.5578  0.1045  0.0060
  793SOL    HW2 3245   0.979   3.547   1.556 -0.6749  0.2837 -0.0338
  793SOL    HW3 3246   0.913   3.410   1.551 -0.1268 -0.0021  0.5193
  793SOL    MW4 3247   0.911   3.494   1.574 -0.5164  0.1144  0.0685
  794SOL     OW 3248   1.125   3.638   1.471  0.2907  0.2308  0.2395
  794SOL    HW2 3249   1.210   3.605   1.499  0.4411  0.1516 -0.3046
  794SOL    HW3 3250   1.132   3.646   1.376 -0.1926  0.5594  0.2279
  794SOL    MW4 3251   1.137   3.634   1.463  0.2469  0.2637  0.1662
  795SOL     OW 3252   1.126   3.876   1.600 -0.4308 -0.1316  0.3236
  795SOL    HW2 3253   1.213   3.911   1.579 -0.1207 -0.7726  0.5361
  795SOL    HW3 3254   1.126   3.788   1.563 -1.0484 -0.0728  0.1880
  795SOL    MW4 3255   1.138   3.869   1.592 -0.4712 -0.2086  0.3338
  796SOL     OW 3256   0.919   4.005   1.491  0.0214  0.0290  0.1811
  796SOL    HW2 3257   0.912   4.089   1.536 -0.7355 -0.4917  1.0512
  796SOL    HW3 3258   0.989   3.958   1.537 -0.4019 -0.2970  0.5071
  796SOL    MW4 3259   0.927   4.010   1.503 -0.1342 -0.0825  0.3389
  797SOL     OW 3260   0.921   4.261   1.593  0.1872  0.1621  0.1971
  797SOL    HW2 3261   0.932   4.291   1.683  2.2126  0.5632 -0.1620
  797SOL    HW3 3262   0.858   4.321   1.554 -0.5861  0.0689  1.3192
  797SOL    MW4 3263   0.914   4.273   1.600  0.3524  0.2027  0.2978
  798SOL     OW 3264   1.144   4.376   1.504 -0.4265  0.3873  0.1016
  798SOL    HW2 3265   1.059   4.338   1.529 -0.7520  0.4425 -0.9085
  798SOL    HW3 3266   1.138   4.468   1.530 -0.7222  0.4194 -0.0789
  798SOL    MW4 3267   1.132   4.383   1.511 -0.5084  0.3986 -0.0554
  799SOL     OW 3268   1.561   4.662   1.551  0.1814  0.0640  0.1884
  799SOL    HW2 3269   1.565   4.657   1.646  1.0008 -0.7718  0.1189
  799SOL    HW3 3270   1.475   4.699   1.532  0.3731  1.0794  1.2755
  799SOL    MW4 3271   1.550   4.666   1.561  0.3148  0.0882  0.3226
  800SOL     OW 3272   1.312   0.097   1.457 -0.5427  0.4515 -0.3037
  800SOL    HW2 3273   1.326   0.187   1.485  0.5541  0.2607 -0.2321
  800SOL    HW3 3274   1.314   0.101   1.362 -2.7537  0.8502 -0.3794
  800SOL    MW4 3275   1.314   0.110   1.448 -0.6897  0.4789 -0.3042
  801SOL     OW 3276   1.318   0.366   1.521 -0.0168 -1.0114  0.4155
  801SOL    HW2 3277   1.396   0.420   1.533  0.0011 -1.1044  0.7092
  801SOL    HW3 3278   1.253   0.427   1.486  0.6226 -1.2472 -1.2658
  801SOL    MW4 3279   1.320   0.381   1.518  0.0699 -1.0547  0.2325
  802SOL     OW 3280   1.569   0.500   1.538 -0.0134  0.8415 -0.2982
  802SOL    HW2 3281   1.651   0.453   1.556 -0.5832  0.2192  0.7506
  802SOL    HW3 3282   1.559   0.496   1.443  1.2494  1.0558 -0.4551
  802SOL    MW4 3283   1.578   0.493   1.528  0.0780  0.7877 -0.1805
  803SOL     OW 3284   1.599   0.784   1.584 -0.0865  0.1102 -0.1138
  803SOL    HW2 3285   1.622   0.796   1.676 -2.3998 -0.3258  0.5705
  803SOL    HW3 3286   1.578   0.691   1.577  1.8843 -0.2585 -1.5478
  803SOL    MW4 3287   1.599   0.773   1.595 -0.1317  0.0040 -0.2127
  804SOL     OW 3288   1.413   0.954   1.468  0.2472  0.5201 -0.2321
  804SOL    HW2 3289   1.476   0.894   1.509 -0.3659 -0.9402 -1.3692
  804SOL    HW3 3290   1.413   0.928   1.376 -0.6439  1.7522 -0.5854
  804SOL    MW4 3291   1.422   0.942   1.461  0.0485  0.4900 -0.4287
  805SOL     OW 3292   1.340   1.196   1.591 -0.1131 -0.4440 -0.1687
  805SOL    HW2 3293   1.358   1.176   1.683  1.6917  0.5398 -0.2797
  805SOL    HW3 3294   1.356   1.114   1.545 -0.2527 -0.7442  0.3174
  805SOL    MW4 3295   1.345   1.183   1.597  0.1065 -0.3539 -0.1192
  806SOL     OW 3296   1.593   1.293   1.486  0.0481  0.2559 -0.4897
  806SOL    HW2 3297   1.507   1.272   1.522  0.1457  1.6685  0.5948
  806SOL    HW3 3298   1.582   1.285   1.392 -1.0397 -0.4255 -0.3161
  806SOL    MW4 3299   1.580   1.289   1.479 -0.0825  0.3525 -0.3238
  807SOL     OW 3300   1.561   1.550   1.605 -0.1186 -0.1455 -0.3353
  807SOL    HW2 3301   1.559   1.560   1.700 -2.8965  0.9779 -0.4663
  807SOL    HW3 3302   1.593   1.461   1.590  1.8101  0.2063  1.5954
  807SOL    MW4 3303   1.565   1.540   1.615 -0.2306  0.0491 -0.0979
  808SOL     OW 3304   1.373   1.689   1.495  0.0923 -0.6095  0.6757
  808SOL    HW2 3305   1.430   1.623   1.534  0.3577 -0.7761  0.0101
  808SOL    HW3 3306   1.383   1.677   1.401 -0.8132 -0.4458  0.5505
  808SOL    MW4 3307   1.382   1.679   1.488  0.0077 -0.6100  0.5714
  809SOL     OW 3308   1.358   1.950   1.597  0.4076 -0.1610 -0.1992
  809SOL    HW2 3309   1.348   1.943   1.692  0.6081  0.6164 -0.1141
  809SOL    HW3 3310   1.379   1.861   1.569  0.7574 -0.3240  0.5371
  809SOL    MW4 3311   1.360   1.937   1.606  0.4803 -0.0801 -0.0908
  810SOL     OW 3312   1.580   2.080   1.490  0.4939  0.4589  0.3031
  810SOL    HW2 3313   1.511   2.033   1.537  0.5028 -0.7696 -0.8678
  810SOL    HW3 3314   1.562   2.062   1.397  0.3925  2.9291 -0.1840
  810SOL    MW4 3315   1.568   2.072   1.484  0.4816  0.6227  0.0843
  811SOL     OW 3316   1.584   2.347   1.609 -0.1031  0.0463  0.5682
  811SOL    HW2 3317   1.648   2.401   1.564  0.0610  0.8195  1.6962
  811SOL    HW3 3318   1.603   2.258   1.580  0.3931  0.4599 -0.3907
  811SOL    MW4 3319   1.595   2.342   1.600 -0.0161  0.2029  0.5904
  812SOL     OW 3320   1.339   2.422   1.463  0.1975  0.6347  0.1270
  812SOL    HW2 3321   1.341   2.505   1.511 -1.8654  0.0234  1.3290
  812SOL    HW3 3322   1.407   2.369   1.505  1.4056  1.6146 -0.5289
  812SOL    MW4 3323   1.348   2.426   1.475  0.0846  0.6835  0.1991
  813SOL     OW 3324   1.336   2.672   1.565  0.0546  0.0532 -0.3670
  813SOL    HW2 3325   1.403   2.736   1.542  0.4198 -0.4501 -0.7331
  813SOL    HW3 3326   1.253   2.716   1.546  0.3051  0.4046 -0.6535
  813SOL    MW4 3327   1.334   2.686   1.559  0.1359  0.0331 -0.4531
  814SOL     OW 3328   1.567   2.855   1.502  0.2020 -0.2621  0.4289
  814SOL    HW2 3329   1.657   2.831   1.521  0.5899  1.7782  1.2988
  814SOL    HW3 3330   1.563   2.860   1.406  1.1902  0.2540  0.4081
  814SOL    MW4 3331   1.578   2.853   1.492  0.3835  0.0751  0.5410
  815SOL     OW 3332   1.549   3.118   1.571  0.3749  0.5021  0.0295
  815SOL    HW2 3333   1.639   3.136   1.545  0.0811  0.3590 -1.0929
  815SOL    HW3 3334   1.536   3.025   1.549 -0.0927  0.5599  0.0523
  815SOL    MW4 3335   1.559   3.108   1.565  0.2744  0.4907 -0.1156
  816SOL     OW 3336   1.308   3.257   1.486  0.1857  0.2039  0.0175
  816SOL    HW2 3337   1.313   3.349   1.512 -1.6672  0.0084  1.1662
  816SOL    HW3 3338   1.383   3.216   1.529  0.3062  0.9477  0.5173
  816SOL    MW4 3339   1.318   3.263   1.495 -0.0429  0.2761  0.2351
  817SOL     OW 3340   1.344   3.515   1.604 -0.0556  0.1499  0.1356
  817SOL    HW2 3341   1.344   3.514   1.700 -0.5416  0.7606  0.1456
  817SOL    HW3 3342   1.434   3.540   1.581 -0.0879  0.5687  0.4449
  817SOL    MW4 3343   1.356   3.519   1.614 -0.1241  0.2859  0.1779
  818SOL     OW 3344   1.601   3.583   1.534 -0.6851  0.1963 -0.1065
  818SOL    HW2 3345   1.603   3.676   1.555  2.0916 -0.0882  1.1023
  818SOL    HW3 3346   1.624   3.579   1.441 -2.4441  0.7840 -0.5877
  818SOL    MW4 3347   1.605   3.595   1.524 -0.5509  0.2360 -0.0104
  819SOL     OW 3348   1.616   3.864   1.586 -0.5185 -0.1551  0.2626
  819SOL    HW2 3349   1.613   3.876   1.681 -1.9851 -1.2690  0.3663
  819SOL    HW3 3350   1.533   3.901   1.555 -0.3240 -0.3771 -0.5280
  819SOL    MW4 3351   1.605   3.871   1.595 -0.6865 -0.3312  0.1719
  820SOL     OW 3352   1.393   3.971   1.483  0.0505 -0.3200  0.0691
  820SOL    HW2 3353   1.370   4.055   1.522  0.6248 -0.4100  0.6198
  820SOL    HW3 3354   1.395   3.987   1.389 -1.8114 -0.2135  0.0461
  820SOL    MW4 3355   1.390   3.984   1.476 -0.1194 -0.3178  0.1389
  821SOL     OW 3356   1.352   4.214   1.596 -0.1015  0.0324 -0.1292
  821SOL    HW2 3357   1.412   4.272   1.549 -0.6422  1.5259  0.9710
  821SOL    HW3 3358   1.267   4.257   1.589 -0.3737 -0.2415  1.3080
  821SOL    MW4 3359   1.349   4.228   1.589 -0.2087  0.1931  0.2055
  822SOL     OW 3360   1.539   4.393   1.464 -0.2980 -0.2829 -0.1391
  822SOL    HW2 3361   1.628   4.377   1.497 -0.2334 -0.4424 -0.3939
  822SOL    HW3 3362   1.518   4.482   1.493 -0.4132 -0.5883  0.7339
  822SOL    MW4 3363   1.548   4.403   1.472 -0.3047 -0.3443 -0.0576
  823SOL     OW 3364   2.060   4.643   1.560 -0.0968  0.1208  0.2639
  823SOL    HW2 3365   2.048   4.642   1.655  0.7170 -0.0620  0.3706
  823SOL    HW3 3366   1.983   4.689   1.526  0.9752  2.6825  1.2175
  823SOL    MW4 3367   2.048   4.649   1.568  0.1519  0.4349  0.4036
  824SOL     OW 3368   1.815   0.112   1.473 -0.3557 -0.1261  0.1969
  824SOL    HW2 3369   1.729   0.082   1.502 -0.7449 -0.0007 -0.7810
  824SOL    HW3 3370   1.814   0.097   1.378  0.9212 -0.6775  0.2589
  824SOL    MW4 3371   1.804   0.106   1.464 -0.2384 -0.1823  0.0762
  825SOL     OW 3372   1.805   0.380   1.591 -0.1561 -0.1515 -0.1692
  825SOL    HW2 3373   1.882   0.417   1.548 -0.1766  0.9014  0.6617
  825SOL    HW3 3374   1.808   0.287   1.570  0.3548  0.1854 -1.6259
  825SOL    MW4 3375   1.816   0.372   1.583 -0.0913  0.0318 -0.2518
  826SOL     OW 3376   2.044   0.459   1.467  0.4556  0.2865  0.4872
  826SOL    HW2 3377   2.112   0.404   1.506  0.1892 -0.4575 -0.0953
  826SOL    HW3 3378   2.058   0.545   1.506  2.8909  0.6075 -0.9785
  826SOL    MW4 3379   2.055   0.463   1.477  0.7420  0.2307  0.2171
  827SOL     OW 3380   2.041   0.763   1.566  0.4090 -0.1845 -0.2376
  827SOL    HW2 3381   2.109   0.816   1.525  0.4585 -0.8052 -0.9776
  827SOL    HW3 3382   1.959   0.798   1.533  0.3949  0.1164  0.1121
  827SOL    MW4 3383   2.039   0.774   1.556  0.4137 -0.2266 -0.2891
  828SOL     OW 3384   1.806   0.873   1.451 -0.5421  0.4805 -0.5048
  828SOL    HW2 3385   1.825   0.955   1.497  0.4953 -0.0770  0.0916
  828SOL    HW3 3386   1.732   0.836   1.498  0.4395 -0.0290  0.6674
  828SOL    MW4 3387   1.799   0.879   1.463 -0.2759  0.3397 -0.2713
  829SOL     OW 3388   1.792   1.127   1.581  0.0438  0.0306 -0.0632
  829SOL    HW2 3389   1.870   1.175   1.554  0.5485 -0.9044 -0.2980
  829SOL    HW3 3390   1.720   1.170   1.534  0.7666 -0.8113 -1.9719
  829SOL    MW4 3391   1.793   1.139   1.571  0.2059 -0.2037 -0.3459
  830SOL     OW 3392   2.002   1.257   1.475  0.2103  0.1651  0.0280
  830SOL    HW2 3393   1.999   1.345   1.513  0.5633  0.4132 -0.5163
  830SOL    HW3 3394   1.981   1.270   1.383 -0.4343 -0.4116  0.0896
  830SOL    MW4 3395   1.999   1.270   1.468  0.1718  0.1217 -0.0356
  831SOL     OW 3396   2.012   1.519   1.580  0.3873 -0.6974 -0.0554
  831SOL    HW2 3397   2.088   1.569   1.551  0.6354 -0.4838  0.9380
  831SOL    HW3 3398   1.936   1.570   1.550  0.6379  0.2299  0.8792
  831SOL    MW4 3399   2.012   1.532   1.572  0.4530 -0.5468  0.1990
  832SOL     OW 3400   1.781   1.674   1.505  0.2081 -0.1281 -0.2316
  832SOL    HW2 3401   1.695   1.653   1.541  0.4261  0.8848  0.9208
  832SOL    HW3 3402   1.768   1.674   1.410 -0.8822 -0.7127 -0.0934
  832SOL    MW4 3403   1.768   1.672   1.497  0.0932 -0.0715 -0.0614
  833SOL     OW 3404   1.785   1.935   1.589  0.3759 -0.5294  0.4075
  833SOL    HW2 3405   1.788   1.844   1.560 -0.9198 -0.4746  0.0875
  833SOL    HW3 3406   1.708   1.972   1.546 -0.0191  0.2862  1.7667
  833SOL    MW4 3407   1.775   1.928   1.580  0.1529 -0.4147  0.5445
  834SOL     OW 3408   1.990   2.085   1.477 -0.4517  0.2313 -0.0178
  834SOL    HW2 3409   2.072   2.054   1.516 -0.9167  0.6305  1.2992
  834SOL    HW3 3410   1.922   2.030   1.516 -1.0078  1.1711  0.3616
  834SOL    MW4 3411   1.992   2.074   1.487 -0.5864  0.4082  0.2061
  835SOL     OW 3412   2.027   2.356   1.607  0.1248  0.1770  0.2335
  835SOL    HW2 3413   2.023   2.362   1.703  0.4417  0.9969  0.2054
  835SOL    HW3 3414   2.014   2.264   1.588 -0.1222  0.0342  1.0629
  835SOL    MW4 3415   2.025   2.345   1.618  0.1342  0.2663  0.3393
  836SOL     OW 3416   1.794   2.466   1.466  0.6446  0.2132 -0.0242
  836SOL    HW2 3417   1.871   2.418   1.496 -0.1301 -0.9722  0.0802
  836SOL    HW3 3418   1.801   2.466   1.370  0.0126 -1.1683 -0.0742
  836SOL    MW4 3419   1.805   2.460   1.457  0.4591 -0.1254 -0.0169
  837SOL     OW 3420   1.817   2.745   1.533  0.3160 -0.5264  0.2905
  837SOL    HW2 3421   1.816   2.751   1.628 -1.5378 -0.5833  0.3068
  837SOL    HW3 3422   1.791   2.655   1.514  0.9209 -0.5893 -0.2637
  837SOL    MW4 3423   1.813   2.734   1.543  0.1512 -0.5424  0.2196
  838SOL     OW 3424   2.057   2.864   1.450  0.6161 -0.0164  0.4528
  838SOL    HW2 3425   2.058   2.938   1.511 -0.8193  0.6846 -0.3494
  838SOL    HW3 3426   1.984   2.810   1.480 -0.9601  1.0252 -1.4206
  838SOL    MW4 3427   2.047   2.867   1.462  0.2186  0.2134  0.0998
  839SOL     OW 3428   2.044   3.103   1.582 -0.1727  0.0536 -0.0485
  839SOL    HW2 3429   2.036   3.119   1.676  1.6060 -2.3771  0.5834
  839SOL    HW3 3430   2.129   3.140   1.558 -0.1017 -0.3565 -0.4476
  839SOL    MW4 3431   2.054   3.110   1.591  0.0710 -0.3214 -0.0178
  840SOL     OW 3432   1.816   3.231   1.509 -0.2941  0.4805  0.0810
  840SOL    HW2 3433   1.822   3.321   1.540  0.1718  0.9517 -1.3422
  840SOL    HW3 3434   1.898   3.190   1.536 -0.3063  0.6128  0.3172
  840SOL    MW4 3435   1.828   3.237   1.516 -0.2342  0.5600 -0.0756
  841SOL     OW 3436   1.862   3.487   1.594 -0.4987 -0.3788  0.4962
  841SOL    HW2 3437   1.888   3.491   1.686  0.0679  3.4406  0.2824
  841SOL    HW3 3438   1.780   3.536   1.591 -0.6121 -0.6552 -0.9831
  841SOL    MW4 3439   1.855   3.494   1.606 -0.4389  0.0887  0.2729
  842SOL     OW 3440   2.068   3.620   1.440  0.2681  0.3671 -0.0352
  842SOL    HW2 3441   2.144   3.571   1.470 -0.3499  0.9087  2.5709
  842SOL    HW3 3442   1.992   3.570   1.472 -0.4293  1.0299 -0.6189
  842SOL    MW4 3443   2.068   3.607   1.449  0.0944  0.5260  0.2317
  843SOL     OW 3444   2.048   3.882   1.530  0.3176 -0.1123  0.0373
  843SOL    HW2 3445   2.119   3.939   1.500 -1.1051  1.3898 -0.5356
  843SOL    HW3 3446   2.077   3.794   1.508  1.7393  0.5453 -0.7460
  843SOL    MW4 3447   2.061   3.878   1.523  0.3176  0.1726 -0.1416
  844SOL     OW 3448   1.807   4.035   1.487  0.1430 -0.2031  0.3120
  844SOL    HW2 3449   1.879   3.981   1.517 -0.0347 -0.0190  1.0812
  844SOL    HW3 3450   1.728   3.987   1.511  0.0029 -1.5399 -2.6352
  844SOL    MW4 3451   1.806   4.022   1.494  0.1011 -0.3548  0.0246
  845SOL     OW 3452   1.795   4.291   1.543  0.1556 -0.1077  0.4182
  845SOL    HW2 3453   1.883   4.324   1.522 -0.5468  0.7143 -1.3580
  845SOL    HW3 3454   1.797   4.199   1.517 -0.3524  0.6160 -2.3045
  845SOL    MW4 3455   1.807   4.284   1.537 -0.0042  0.0963 -0.1755
  846SOL     OW 3456   2.038   4.386   1.467 -0.6002  0.2369 -0.3906
  846SOL    HW2 3457   2.121   4.351   1.499 -1.0424  0.2731  0.8271
  846SOL    HW3 3458   2.035   4.475   1.501 -1.4891 -0.0255  0.2479
  846SOL    MW4 3459   2.048   4.393   1.476 -0.7758  0.2069 -0.1457
  847SOL     OW 3460   2.483   4.644   1.611 -0.1276 -0.1949  0.0333
  847SOL    HW2 3461   2.466   4.656   1.704  0.5659 -2.1349  0.4413
  847SOL    HW3 3462   2.414   4.693   1.567  1.1194  3.0487  1.5068
  847SOL    MW4 3463   2.472   4.652   1.617  0.1283 -0.0234  0.2816
  848SOL     OW 3464   2.283   0.110   1.478 -0.3135  0.3864 -0.0474
  848SOL    HW2 3465   2.202   0.063   1.493 -1.0070  0.8545 -2.2123
  848SOL    HW3 3466   2.293   0.112   1.383  1.2104  2.0230  0.1176
  848SOL    MW4 3467   2.274   0.104   1.467 -0.2038  0.6641 -0.3113
  849SOL     OW 3468   2.277   0.355   1.567  0.1908 -0.3085  0.3864
  849SOL    HW2 3469   2.271   0.362   1.662 -0.7956 -0.3771  0.3311
  849SOL    HW3 3470   2.271   0.262   1.548 -2.8016 -0.0845  0.0595
  849SOL    MW4 3471   2.276   0.344   1.577 -0.3343 -0.2880  0.3361
  850SOL     OW 3472   2.491   0.499   1.484 -0.3631 -0.1067 -0.3982
  850SOL    HW2 3473   2.571   0.448   1.496 -0.9067 -1.1805 -1.3028
  850SOL    HW3 3474   2.420   0.441   1.513 -1.0230 -0.0186 -1.7957
  850SOL    MW4 3475   2.492   0.485   1.490 -0.5219 -0.2368 -0.7020
  851SOL     OW 3476   2.488   0.765   1.586  0.1812  0.3016 -0.0522
  851SOL    HW2 3477   2.404   0.792   1.552  0.8505  1.1158 -1.0832
  851SOL    HW3 3478   2.497   0.674   1.559 -1.3352 -0.4782  1.9825
  851SOL    MW4 3479   2.478   0.757   1.578  0.0696  0.3062  0.0802
  852SOL     OW 3480   2.261   0.896   1.480  0.3039  0.0717  0.1724
  852SOL    HW2 3481   2.249   0.977   1.530 -0.5431  0.1585 -0.1550
  852SOL    HW3 3482   2.274   0.927   1.390 -0.5573 -0.1757 -0.0395
  852SOL    MW4 3483   2.261   0.911   1.474  0.0787  0.0505  0.1012
  853SOL     OW 3484   2.229   1.153   1.582  0.3029 -0.0738  0.3248
  853SOL    HW2 3485   2.233   1.150   1.677  0.3679  0.8965  0.3649
  853SOL    HW3 3486   2.153   1.208   1.563  0.4091 -0.0970 -0.1787
  853SOL    MW4 3487   2.219   1.160   1.592  0.3254  0.0513  0.2636
  854SOL     OW 3488   2.456   1.258   1.477  0.1173  0.3335 -0.2393
  854SOL    HW2 3489   2.370   1.220   1.498 -0.0113  0.4487 -0.5637
  854SOL    HW3 3490   2.460   1.259   1.382  1.0053 -0.8691 -0.2278
  854SOL    MW4 3491   2.445   1.253   1.468  0.2174  0.1900 -0.2805
  855SOL     OW 3492   2.488   1.541   1.571  0.4537 -0.2475  0.6021
  855SOL    HW2 3493   2.555   1.590   1.524 -0.0811 -0.3470 -0.2762
  855SOL    HW3 3494   2.479   1.459   1.521 -0.7879  0.0526  0.3215
  855SOL    MW4 3495   2.495   1.537   1.558  0.2193 -0.2210  0.4492
  856SOL     OW 3496   2.218   1.673   1.491 -0.5226  0.0936  0.2882
  856SOL    HW2 3497   2.304   1.646   1.523 -0.0171  0.7716 -0.5139
  856SOL    HW3 3498   2.223   1.663   1.396 -1.4735 -0.2828  0.2703
  856SOL    MW4 3499   2.230   1.668   1.483 -0.5813  0.1334  0.1801
  857SOL     OW 3500   2.214   1.947   1.589 -0.3758  0.1169  0.2229
  857SOL    HW2 3501   2.210   1.936   1.684  0.7111 -0.1977  0.2484
  857SOL    HW3 3502   2.213   1.857   1.555 -1.9494  0.2644 -0.1243
  857SOL    MW4 3503   2.213   1.933   1.597 -0.4401  0.0948  0.1805
  858SOL     OW 3504   2.431   2.070   1.490  0.0237 -0.3068  0.3622
  858SOL    HW2 3505   2.352   2.035   1.530 -0.0563  0.2652  0.7083
  858SOL    HW3 3506   2.414   2.067   1.396  0.0071 -1.1576  0.3834
  858SOL    MW4 3507   2.419   2.065   1.483  0.0107 -0.3436  0.4108
  859SOL     OW 3508   2.456   2.339   1.566  0.3441  0.0106 -0.5253
  859SOL    HW2 3509   2.461   2.333   1.661  1.2722  0.6435 -0.5347
  859SOL    HW3 3510   2.451   2.248   1.536 -0.4699 -0.1685  0.1514
  859SOL    MW4 3511   2.456   2.326   1.574  0.3591  0.0706 -0.4371
  860SOL     OW 3512   2.222   2.452   1.456 -0.1071  0.1808 -0.0406
  860SOL    HW2 3513   2.299   2.417   1.500 -0.1034 -1.1414 -1.0600
  860SOL    HW3 3514   2.148   2.420   1.507 -0.0465 -0.2478 -0.2136
  860SOL    MW4 3515   2.223   2.443   1.468 -0.0987 -0.0503 -0.1978
  861SOL     OW 3516   2.262   2.707   1.541 -0.2688  0.1105 -0.1365
  861SOL    HW2 3517   2.247   2.620   1.505 -2.3206 -0.8306  2.8316
  861SOL    HW3 3518   2.187   2.759   1.510 -0.9986 -0.1838  1.1080
  861SOL    MW4 3519   2.250   2.702   1.532 -0.6356 -0.0527  0.4194
  862SOL     OW 3520   2.491   2.855   1.485  0.0501 -0.5760  0.1950
  862SOL    HW2 3521   2.482   2.946   1.514  0.1151 -0.4113 -0.2858
  862SOL    HW3 3522   2.423   2.808   1.533 -0.7729 -0.0552 -0.4234
  862SOL    MW4 3523   2.481   2.861   1.495 -0.0498 -0.4854  0.0501
  863SOL     OW 3524   2.464   3.108   1.605 -0.0503  0.0036  0.2665
  863SOL    HW2 3525   2.542   3.153   1.573 -0.5897  0.0044 -1.0706
  863SOL    HW3 3526   2.391   3.156   1.566 -0.6939 -0.5935  0.7215
  863SOL    MW4 3527   2.465   3.120   1.596 -0.2062 -0.0751  0.1502
  864SOL     OW 3528   2.267   3.228   1.454  0.3375 -0.7282 -0.0940
  864SOL    HW2 3529   2.277   3.318   1.487  3.1769 -1.2335  0.5815
  864SOL    HW3 3530   2.246   3.239   1.362 -2.0839  0.6345  0.5703
  864SOL    MW4 3531   2.266   3.242   1.446  0.3927 -0.6151  0.0827
  865SOL     OW 3532   2.284   3.466   1.578  0.0790 -0.9464  0.3013
  865SOL    HW2 3533   2.271   3.507   1.664 -1.9138  0.0007 -0.4227
  865SOL    HW3 3534   2.352   3.519   1.537 -1.0878  0.4821  0.1474
  865SOL    MW4 3535   2.291   3.478   1.584 -0.3378 -0.6330  0.1855
  866SOL     OW 3536   2.486   3.611   1.456 -0.1638 -0.0459  0.0957
  866SOL    HW2 3537   2.568   3.572   1.486  0.3254  0.7992 -0.1098
  866SOL    HW3 3538   2.485   3.698   1.496 -1.1101 -0.1684  0.3447
  866SOL    MW4 3539   2.497   3.618   1.465 -0.2239  0.0496  0.1014
  867SOL     OW 3540   2.511   3.857   1.571 -0.3869  0.5561  0.1223
  867SOL    HW2 3541   2.518   3.857   1.667  0.6544  1.3951  0.0626
  867SOL    HW3 3542   2.596   3.891   1.542 -0.3281 -0.6231 -1.1285
  867SOL    MW4 3543   2.523   3.862   1.580 -0.2418  0.5116 -0.0507
  868SOL     OW 3544   2.308   4.018   1.468  0.0275 -0.5184 -0.1306
  868SOL    HW2 3545   2.382   3.970   1.506  1.6310  2.0154  0.0271
  868SOL    HW3 3546   2.323   4.014   1.374  0.0214 -0.5299 -0.1312
  868SOL    MW4 3547   2.320   4.011   1.461  0.2384 -0.1855 -0.1099
  869SOL     OW 3548   2.281   4.267   1.577  0.0024 -0.3932 -0.3737
  869SOL    HW2 3549   2.365   4.314   1.575 -0.0297 -0.3874 -3.1699
  869SOL    HW3 3550   2.300   4.181   1.540 -1.2508 -0.3412 -1.1801
  869SOL    MW4 3551   2.295   4.262   1.572 -0.1674 -0.3858 -0.8490
  870SOL     OW 3552   2.540   4.378   1.529 -0.1083 -0.3065 -0.6114
  870SOL    HW2 3553   2.520   4.466   1.560 -1.2679 -1.0160  0.7737
  870SOL    HW3 3554   2.515   4.378   1.437 -0.3529  0.7417 -0.5511
  870SOL    MW4 3555   2.534   4.389   1.521 -0.2935 -0.2623 -0.4207
  871SOL     OW 3556   2.962   4.635   1.574 -0.3893 -0.1070  0.2663
  871SOL    HW2 3557   2.955   4.646   1.669 -0.8916 -0.4278  0.2679
  871SOL    HW3 3558   2.885   4.680   1.539 -0.5880 -0.6083  0.0571
  871SOL    MW4 3559   2.951   4.642   1.582 -0.4818 -0.2155  0.2389
  872SOL     OW 3560   2.703   0.072   1.453  0.0954  0.3971 -0.4043
  872SOL    HW2 3561   2.717   0.151   1.506  0.5655  0.8004 -1.1165
  872SOL    HW3 3562   2.624   0.032   1.489 -2.3451  3.1833 -2.4062
  872SOL    MW4 3563   2.694   0.078   1.464 -0.1645  0.8179 -0.7625
  873SOL     OW 3564   2.698   0.334   1.575  0.1308  0.0977  0.1239
  873SOL    HW2 3565   2.676   0.350   1.667 -1.3157  2.6037 -0.5968
  873SOL    HW3 3566   2.777   0.388   1.560 -0.9618  1.5118 -0.6579
  873SOL    MW4 3567   2.706   0.343   1.586 -0.2041  0.6149 -0.0743
  874SOL     OW 3568   2.916   0.482   1.489  0.1825 -0.0636 -0.4143
  874SOL    HW2 3569   2.918   0.573   1.516  0.0338 -0.4666  0.9939
  874SOL    HW3 3570   2.923   0.485   1.393  0.9440  1.3762 -0.3264
  874SOL    MW4 3571   2.917   0.494   1.480  0.2635  0.0732 -0.2167
  875SOL     OW 3572   2.929   0.746   1.565  0.1075  0.6797 -0.4552
  875SOL    HW2 3573   2.939   0.766   1.658  1.8159  1.0201 -0.6878
  875SOL    HW3 3574   2.866   0.810   1.533 -0.7697  0.3193  0.5473
  875SOL    MW4 3575   2.922   0.757   1.573  0.2170  0.6771 -0.3538
  876SOL     OW 3576   2.710   0.915   1.480 -0.0189  0.0556  0.3471
  876SOL    HW2 3577   2.646   0.858   1.523  0.8698 -1.5256 -0.3941
  876SOL    HW3 3578   2.681   0.920   1.390  0.6803 -0.3915  0.0860
  876SOL    MW4 3579   2.698   0.908   1.474  0.1907 -0.2120  0.2149
  877SOL     OW 3580   2.704   1.172   1.552 -0.0877  0.0642 -0.4015
  877SOL    HW2 3581   2.713   1.080   1.528  1.3284 -0.1901  1.0551
  877SOL    HW3 3582   2.615   1.195   1.524 -0.9066 -2.0815  0.3395
  877SOL    MW4 3583   2.693   1.163   1.545 -0.0091 -0.2525 -0.1115
  878SOL     OW 3584   2.942   1.309   1.477 -0.3740  0.2876  0.1341
  878SOL    HW2 3585   3.012   1.257   1.516 -0.2138  0.4640  0.0852
  878SOL    HW3 3586   2.861   1.266   1.504 -0.2360 -0.1022 -0.0734
  878SOL    MW4 3587   2.941   1.297   1.485 -0.3345  0.2594  0.1003
  879SOL     OW 3588   2.901   1.548   1.600 -0.2239 -0.1184 -0.0092
  879SOL    HW2 3589   2.821   1.585   1.563 -0.0795  1.0588  0.8203
  879SOL    HW3 3590   2.924   1.476   1.541 -0.8666  0.7073 -1.2982
  879SOL    MW4 3591   2.894   1.544   1.587 -0.2897  0.1459 -0.0697
  880SOL     OW 3592   2.687   1.675   1.441 -0.5815 -0.4738  0.2564
  880SOL    HW2 3593   2.677   1.763   1.477 -3.0683 -0.1855 -1.1193
  880SOL    HW3 3594   2.690   1.687   1.346 -1.5938 -1.9395  0.0310
  880SOL    MW4 3595   2.686   1.688   1.434 -1.0428 -0.6289  0.0451
  881SOL     OW 3596   2.678   1.941   1.554 -0.3707  0.4303  0.2296
  881SOL    HW2 3597   2.673   1.925   1.648  0.6489  0.1079  0.2330
  881SOL    HW3 3598   2.598   1.989   1.534 -1.5589 -1.2291  0.9089
  881SOL    MW4 3599   2.667   1.945   1.564 -0.3929  0.1688  0.3197
  882SOL     OW 3600   2.903   2.070   1.429  0.1477 -0.0527 -0.2762
  882SOL    HW2 3601   2.901   2.157   1.468  0.7418 -0.3790  0.5004
  882SOL    HW3 3602   2.839   2.019   1.480  1.5823 -0.7225  0.8822
  882SOL    MW4 3603   2.894   2.075   1.441  0.4156 -0.1841 -0.0207
  883SOL     OW 3604   2.914   2.339   1.547  0.0666  0.3873  0.5297
  883SOL    HW2 3605   2.914   2.317   1.640 -0.5647 -1.6682  0.0786
  883SOL    HW3 3606   2.827   2.373   1.530 -1.1086 -2.6917 -0.0186
  883SOL    MW4 3607   2.903   2.340   1.557 -0.1714 -0.2899  0.3977
  884SOL     OW 3608   2.689   2.463   1.468  0.1587 -0.6779  0.8761
  884SOL    HW2 3609   2.687   2.548   1.513  0.8774 -0.3678  0.3280
  884SOL    HW3 3610   2.608   2.420   1.495 -0.6527  0.5540  0.4268
  884SOL    MW4 3611   2.678   2.468   1.478  0.1464 -0.4745  0.7445
  885SOL     OW 3612   2.700   2.710   1.594  0.1203 -0.0094 -0.0891
  885SOL    HW2 3613   2.781   2.748   1.560 -0.0185 -0.1866 -0.6194
  885SOL    HW3 3614   2.631   2.770   1.565  0.1726  0.7605  1.3363
  885SOL    MW4 3615   2.701   2.723   1.586  0.1090  0.0689  0.0291
  886SOL     OW 3616   2.924   2.794   1.478 -0.1758 -0.0009 -0.1394
  886SOL    HW2 3617   3.003   2.763   1.523 -1.4606 -1.5889  1.1062
  886SOL    HW3 3618   2.918   2.887   1.502  0.8399 -0.0772  0.4456
  886SOL    MW4 3619   2.933   2.802   1.487 -0.2115 -0.2203  0.1019
  887SOL     OW 3620   2.919   3.056   1.595 -0.2039 -0.4024 -0.1901
  887SOL    HW2 3621   2.919   3.059   1.690 -2.0640  3.0746 -0.1918
  887SOL    HW3 3622   2.999   3.102   1.569 -0.0813 -0.6796 -0.3058
  887SOL    MW4 3623   2.929   3.063   1.604 -0.4332  0.0200 -0.2056
  888SOL     OW 3624   2.707   3.215   1.514 -0.3361 -0.1625 -0.1261
  888SOL    HW2 3625   2.777   3.151   1.532 -0.5782 -1.0613 -2.2199
  888SOL    HW3 3626   2.700   3.216   1.418 -2.0643  1.1580  0.0012
  888SOL    MW4 3627   2.716   3.206   1.504 -0.5960 -0.1070 -0.3855
  889SOL     OW 3628   2.692   3.491   1.574 -0.1615  0.2091  0.3248
  889SOL    HW2 3629   2.693   3.493   1.669  0.0697 -0.6154  0.3419
  889SOL    HW3 3630   2.700   3.398   1.551 -0.8832  0.3373 -0.4886
  889SOL    MW4 3631   2.693   3.479   1.583 -0.2265  0.1173  0.2198
  890SOL     OW 3632   2.918   3.624   1.493  0.1807 -0.3754 -0.0998
  890SOL    HW2 3633   2.841   3.573   1.517 -0.0831 -0.9971 -2.1599
  890SOL    HW3 3634   2.906   3.644   1.400  1.1828  1.8494  0.2172
  890SOL    MW4 3635   2.907   3.620   1.484  0.2782 -0.1638 -0.3297
  891SOL     OW 3636   2.934   3.885   1.609  0.2938  0.5148  0.4834
  891SOL    HW2 3637   2.859   3.916   1.557  0.4663  1.5638  0.8507
  891SOL    HW3 3638   2.945   3.794   1.582 -0.5501  0.6138 -0.2396
  891SOL    MW4 3639   2.925   3.877   1.598  0.2053  0.6664  0.4364
  892SOL     OW 3640   2.733   3.980   1.463  0.0399  0.3040 -0.0252
  892SOL    HW2 3641   2.727   4.070   1.496 -1.2174  0.5452 -0.8582
  892SOL    HW3 3642   2.721   3.989   1.368 -0.5928 -0.7974 -0.0483
  892SOL    MW4 3643   2.731   3.993   1.455 -0.2093  0.1905 -0.1382
  893SOL     OW 3644   2.744   4.226   1.593 -0.1219 -0.2827 -0.5585
  893SOL    HW2 3645   2.825   4.271   1.569 -0.0302  0.1348  0.5176
  893SOL    HW3 3646   2.675   4.280   1.554 -0.0509  1.1920  1.2836
  893SOL    MW4 3647   2.745   4.239   1.585 -0.1004 -0.0329 -0.1736
  894SOL     OW 3648   2.925   4.375   1.482  0.1415 -0.8527  0.1444
  894SOL    HW2 3649   2.946   4.461   1.518 -0.8073 -0.4581 -0.2191
  894SOL    HW3 3650   2.936   4.386   1.387 -1.2049 -0.7661 -0.0132
  894SOL    MW4 3651   2.930   4.388   1.474 -0.1614 -0.7896  0.0757
  895SOL     OW 3652   3.422   4.655   1.582  0.4219  0.0651 -0.3122
  895SOL    HW2 3653   3.501   4.701   1.551 -0.9065  2.2485 -0.5333
  895SOL    HW3 3654   3.423   4.572   1.534  1.3757  1.0387 -2.0304
  895SOL    MW4 3655   3.433   4.650   1.572  0.3724  0.4816 -0.5682
  896SOL     OW 3656   3.190   0.120   1.505 -0.1800 -0.2048  0.1757
  896SOL    HW2 3657   3.273   0.081   1.535  0.0553 -0.3576 -0.6628
  896SOL    HW3 3658   3.123   0.071   1.553  0.1190 -1.6177 -0.7866
  896SOL    MW4 3659   3.192   0.108   1.515 -0.1097 -0.4114 -0.0619
  897SOL     OW 3660   3.167   0.390   1.552 -0.0976  0.6493 -0.0113
  897SOL    HW2 3661   3.181   0.304   1.511  1.3808  0.6690  0.4303
  897SOL    HW3 3662   3.075   0.409   1.536 -0.3527 -0.8636 -0.4284
  897SOL    MW4 3663   3.157   0.381   1.544  0.0639  0.4523 -0.0081
  898SOL     OW 3664   3.390   0.542   1.491  0.0675  0.0789  0.1147
  898SOL    HW2 3665   3.322   0.488   1.530  1.1550 -1.6699 -0.3589
  898SOL    HW3 3666   3.388   0.520   1.398  1.0096  0.2928  0.0384
  898SOL    MW4 3667   3.381   0.532   1.484  0.3352 -0.1235  0.0421
  899SOL     OW 3668   3.406   0.811   1.569  0.3244  0.0119 -0.0347
  899SOL    HW2 3669   3.404   0.797   1.664  0.0223 -1.0567 -0.1865
  899SOL    HW3 3670   3.406   0.722   1.532  0.7851  0.4204 -1.0279
  899SOL    MW4 3671   3.405   0.797   1.577  0.3455 -0.0752 -0.1860
  900SOL     OW 3672   3.158   0.887   1.476 -0.2476  0.0275  0.1625
  900SOL    HW2 3673   3.248   0.875   1.506 -0.8085  1.3616  2.4122
  900SOL    HW3 3674   3.109   0.815   1.515 -0.4319  0.0888  0.0499
  900SOL    MW4 3675   3.163   0.876   1.485 -0.3462  0.2115  0.4447
  901SOL     OW 3676   3.149   1.161   1.564 -1.0530 -0.2306 -0.0007
  901SOL    HW2 3677   3.154   1.146   1.658 -0.4824  0.2334  0.0409
  901SOL    HW3 3678   3.151   1.073   1.526  0.1673 -0.3570  0.3467
  901SOL    MW4 3679   3.150   1.147   1.572 -0.8166 -0.1861  0.0507
  902SOL     OW 3680   3.382   1.311   1.485  0.0749  0.2412 -0.5745
  902SOL    HW2 3681   3.465   1.265   1.497 -0.4038 -0.5211 -0.2005
  902SOL    HW3 3682   3.315   1.247   1.507 -0.5873  1.1874  0.2120
  902SOL    MW4 3683   3.384   1.297   1.490 -0.0753  0.2656 -0.4214
  903SOL     OW 3684   3.319   1.568   1.623  0.5877 -0.1051  0.7927
  903SOL    HW2 3685   3.312   1.557   1.718  0.1813 -0.6088  0.7109
  903SOL    HW3 3686   3.314   1.479   1.589 -1.5870  0.2166  0.1697
  903SOL    MW4 3687   3.317   1.554   1.631  0.2470 -0.1291  0.6998
  904SOL     OW 3688   3.111   1.667   1.473 -0.2252  0.2437 -0.1448
  904SOL    HW2 3689   3.180   1.633   1.530 -0.0553  0.2493 -0.3474
  904SOL    HW3 3690   3.031   1.628   1.508  0.0064 -0.6647 -0.5918
  904SOL    MW4 3691   3.110   1.657   1.485 -0.1721  0.1246 -0.2306
  905SOL     OW 3692   3.110   1.927   1.568 -0.3907 -0.2218  0.1908
  905SOL    HW2 3693   3.096   1.836   1.542  0.5668 -0.0574 -0.9451
  905SOL    HW3 3694   3.054   1.978   1.508 -0.6687 -0.0375  0.6032
  905SOL    MW4 3695   3.101   1.922   1.556 -0.3011 -0.1757  0.0954
  906SOL     OW 3696   3.351   2.073   1.483 -0.4313  0.3682 -0.1318
  906SOL    HW2 3697   3.277   2.014   1.498  0.5244 -0.6289  0.7190
  906SOL    HW3 3698   3.352   2.087   1.388 -0.8756 -0.7101 -0.3007
  906SOL    MW4 3699   3.341   2.067   1.472 -0.3638  0.0944 -0.0418
  907SOL     OW 3700   3.375   2.340   1.578 -0.1217 -0.1088 -0.0413
  907SOL    HW2 3701   3.452   2.357   1.524 -0.2694 -1.2728 -0.6293
  907SOL    HW3 3702   3.356   2.247   1.564 -1.0492 -0.0600  0.8591
  907SOL    MW4 3703   3.383   2.330   1.569 -0.2632 -0.2558 -0.0002
  908SOL     OW 3704   3.147   2.445   1.436  0.3057 -0.5164  0.0487
  908SOL    HW2 3705   3.216   2.419   1.497  0.9903 -0.9282 -0.8770
  908SOL    HW3 3706   3.067   2.408   1.473  0.5190  0.3004  1.3402
  908SOL    MW4 3707   3.145   2.437   1.449  0.4241 -0.4630  0.0969
  909SOL     OW 3708   3.161   2.700   1.585 -0.0928  0.2955 -0.1674
  909SOL    HW2 3709   3.244   2.745   1.570 -0.3256  0.6950 -0.2483
  909SOL    HW3 3710   3.169   2.618   1.536  0.4154  0.1426  0.1613
  909SOL    MW4 3711   3.173   2.695   1.577 -0.0565  0.3278 -0.1346
  910SOL     OW 3712   3.383   2.862   1.517  0.3757  0.0329  0.2458
  910SOL    HW2 3713   3.379   2.940   1.573  0.0121  0.4702 -0.3815
  910SOL    HW3 3714   3.367   2.895   1.429 -0.8318 -0.8963  0.1049
  910SOL    MW4 3715   3.380   2.877   1.513  0.1681 -0.0319  0.1444
  911SOL     OW 3716   3.349   3.126   1.628 -0.0265 -0.0306 -0.3622
  911SOL    HW2 3717   3.335   3.144   1.721  1.0328 -2.0539  0.2210
  911SOL    HW3 3718   3.423   3.182   1.604 -0.0481  0.2020  0.1043
  911SOL    MW4 3719   3.357   3.136   1.637  0.1106 -0.2668 -0.2238
  912SOL     OW 3720   3.121   3.223   1.499  0.1448  0.1708  0.0549
  912SOL    HW2 3721   3.202   3.191   1.539 -0.4473 -0.4949  0.7252
  912SOL    HW3 3722   3.121   3.317   1.518  0.0552 -0.0769  1.3229
  912SOL    MW4 3723   3.132   3.231   1.507  0.0546  0.0505  0.3107
  913SOL     OW 3724   3.145   3.495   1.575 -0.0560 -0.5597 -0.2704
  913SOL    HW2 3725   3.140   3.470   1.667  1.6633  0.2690  0.0740
  913SOL    HW3 3726   3.056   3.522   1.552 -0.2595  0.2780  1.4638
  913SOL    MW4 3727   3.133   3.496   1.584  0.1440 -0.3402  0.0038
  914SOL     OW 3728   3.386   3.644   1.498  0.2746  0.2183  0.3613
  914SOL    HW2 3729   3.457   3.604   1.549 -0.8092 -0.3604  1.4208
  914SOL    HW3 3730   3.307   3.601   1.529 -0.4904  0.4504 -1.2356
  914SOL    MW4 3731   3.385   3.633   1.509  0.0305  0.1726  0.2905
  915SOL     OW 3732   3.359   3.910   1.579  0.5197  0.7146 -0.0856
  915SOL    HW2 3733   3.280   3.954   1.547  0.8049  0.4670 -1.1853
  915SOL    HW3 3734   3.349   3.820   1.548  0.7389  0.4269  0.6804
  915SOL    MW4 3735   3.347   3.904   1.570  0.5863  0.6440 -0.1296
  916SOL     OW 3736   3.133   4.042   1.492 -0.0078  0.6990 -0.2819
  916SOL    HW2 3737   3.140   4.129   1.531 -0.0760  0.6327 -0.1197
  916SOL    HW3 3738   3.063   3.999   1.542  1.2181 -0.0645  0.7936
  916SOL    MW4 3739   3.124   4.048   1.504  0.1452  0.5898 -0.1185
  917SOL     OW 3740   3.173   4.309   1.561  0.1139 -0.2987 -0.3736
  917SOL    HW2 3741   3.172   4.287   1.654 -0.7185 -0.4351 -0.4158
  917SOL    HW3 3742   3.082   4.327   1.539  0.4359  0.6162 -0.9576
  917SOL    MW4 3743   3.161   4.308   1.570  0.0463 -0.1960 -0.4561
  918SOL     OW 3744   3.408   4.403   1.449 -0.2644  0.2812  0.3234
  918SOL    HW2 3745   3.321   4.376   1.478  0.6422 -2.1624  0.9210
  918SOL    HW3 3746   3.397   4.421   1.355 -1.1880 -1.0797  0.1564
  918SOL    MW4 3747   3.395   4.402   1.440 -0.2666 -0.2208  0.3803
  919SOL     OW 3748   3.842   4.623   1.585  0.3341 -0.0454 -0.3572
  919SOL    HW2 3749   3.811   4.647   1.672  0.3362  1.0658 -0.6532
  919SOL    HW3 3750   3.905   4.691   1.562 -0.4451  0.2495 -1.6606
  919SOL    MW4 3751   3.846   4.635   1.593  0.2315  0.1402 -0.5683
  920SOL     OW 3752   3.639   0.117   1.504  0.3990  0.1540 -0.1720
  920SOL    HW2 3753   3.711   0.056   1.519 -0.5947 -0.6033  1.6788
  920SOL    HW3 3754   3.629   0.120   1.409  2.3648 -0.3033 -0.4239
  920SOL    MW4 3755   3.647   0.110   1.493  0.5271 -0.0063  0.0390
  921SOL     OW 3756   3.602   0.387   1.600 -0.0647 -0.2579  0.1024
  921SOL    HW2 3757   3.623   0.308   1.550  1.0955 -0.3310  0.6900
  921SOL    HW3 3758   3.521   0.420   1.560  0.5528 -0.5957 -1.4696
  921SOL    MW4 3759   3.594   0.381   1.588  0.1700 -0.3121 -0.0275
  922SOL     OW 3760   3.849   0.523   1.534  0.0591 -0.7399 -0.0846
  922SOL    HW2 3761   3.760   0.503   1.563 -0.0975 -0.1888 -0.1798
  922SOL    HW3 3762   3.849   0.501   1.441  0.1509 -1.1644  0.0166
  922SOL    MW4 3763   3.837   0.518   1.526  0.0505 -0.7232 -0.0838
  923SOL     OW 3764   3.873   0.805   1.600 -0.2759 -0.1504  0.3532
  923SOL    HW2 3765   3.811   0.842   1.537 -0.9673  0.3286  1.2882
  923SOL    HW3 3766   3.873   0.711   1.583 -0.9013 -0.0903  0.0274
  923SOL    MW4 3767   3.865   0.798   1.589 -0.4497 -0.0793  0.4336
  924SOL     OW 3768   3.639   0.904   1.448 -0.2279  0.0714  0.1480
  924SOL    HW2 3769   3.557   0.878   1.490 -1.0245 -0.5750 -1.7594
  924SOL    HW3 3770   3.623   0.893   1.355  1.3565  1.9147 -0.3739
  924SOL    MW4 3771   3.626   0.899   1.441 -0.1242  0.2293 -0.1725
  925SOL     OW 3772   3.615   1.161   1.565  0.7345 -0.0964  0.2325
  925SOL    HW2 3773   3.690   1.211   1.534  0.5981  0.2696  0.4889
  925SOL    HW3 3774   3.627   1.074   1.527  1.3326 -0.0639  0.3463
  925SOL    MW4 3775   3.626   1.156   1.556  0.7956 -0.0439  0.2813
  926SOL     OW 3776   3.841   1.311   1.474  0.0442  0.1818  0.0012
  926SOL    HW2 3777   3.910   1.262   1.518  0.9534  0.3725 -1.1684
  926SOL    HW3 3778   3.828   1.389   1.528  1.6293  0.7558 -0.4185
  926SOL    MW4 3779   3.849   1.315   1.487  0.3731  0.2826 -0.2084
  927SOL     OW 3780   3.807   1.535   1.622  0.1127 -0.0168 -0.2441
  927SOL    HW2 3781   3.826   1.546   1.715 -0.2459  0.6594 -0.2431
  927SOL    HW3 3782   3.736   1.597   1.605  0.3542  0.0507 -1.0296
  927SOL    MW4 3783   3.800   1.545   1.632  0.0973  0.0813 -0.3477
  928SOL     OW 3784   3.559   1.667   1.533 -0.0470 -0.1037  0.2175
  928SOL    HW2 3785   3.481   1.638   1.581 -0.6296  0.1573 -0.5648
  928SOL    HW3 3786   3.539   1.649   1.441  0.0601  1.6516 -0.1626
  928SOL    MW4 3787   3.546   1.661   1.527 -0.1099  0.1622  0.0640
  929SOL     OW 3788   3.600   1.949   1.535 -0.5689 -0.0837  0.4116
  929SOL    HW2 3789   3.583   1.857   1.512  1.3883  0.1408 -2.1697
  929SOL    HW3 3790   3.516   1.993   1.525 -1.1504 -1.2657  0.0131
  929SOL    MW4 3791   3.587   1.942   1.531 -0.3877 -0.2102  0.0185
  930SOL     OW 3792   3.855   2.058   1.499 -0.2530  0.5445 -0.1632
  930SOL    HW2 3793   3.844   2.152   1.514  0.0931  0.7200 -0.9787
  930SOL    HW3 3794   3.769   2.021   1.517 -0.5104  1.0748 -0.2756
  930SOL    MW4 3795   3.842   2.066   1.503 -0.2415  0.6378 -0.2856
  931SOL     OW 3796   3.818   2.322   1.566 -0.5064  0.2695  0.4740
  931SOL    HW2 3797   3.801   2.308   1.660 -1.9078  0.6980  0.2951
  931SOL    HW3 3798   3.903   2.367   1.564  0.4685 -1.4532  1.4220
  931SOL    MW4 3799   3.827   2.326   1.578 -0.5627  0.0985  0.5754
  932SOL     OW 3800   3.595   2.422   1.420 -0.2750  0.3386 -0.3457
  932SOL    HW2 3801   3.606   2.511   1.452 -0.7188  0.1104  0.4617
  932SOL    HW3 3802   3.667   2.373   1.461 -1.3143 -0.1200  0.9555
  932SOL    MW4 3803   3.606   2.427   1.430 -0.4709  0.2482 -0.0675
  933SOL     OW 3804   3.597   2.656   1.585  0.1026 -0.3939 -0.1155
  933SOL    HW2 3805   3.592   2.645   1.680  0.2061  2.5526  0.2741
  933SOL    HW3 3806   3.532   2.723   1.564  0.7905 -0.2616 -1.9910
  933SOL    MW4 3807   3.588   2.663   1.594  0.2067  0.0124 -0.3117
  934SOL     OW 3808   3.828   2.778   1.485  0.1239  0.2017  0.2579
  934SOL    HW2 3809   3.902   2.722   1.507 -0.2106 -0.1412  0.5166
  934SOL    HW3 3810   3.751   2.731   1.517 -0.0048  1.6923  2.2465
  934SOL    MW4 3811   3.827   2.764   1.492  0.0629  0.3531  0.5544
  935SOL     OW 3812   3.793   3.034   1.596  0.1848  0.3582 -0.1338
  935SOL    HW2 3813   3.868   3.073   1.551  0.0316  0.2063 -0.5231
  935SOL    HW3 3814   3.791   2.943   1.566 -1.0797  0.7573 -1.3459
  935SOL    MW4 3815   3.803   3.027   1.586 -0.0026  0.3908 -0.3451
  936SOL     OW 3816   3.603   3.220   1.498  0.1811 -0.1790 -0.0554
  936SOL    HW2 3817   3.671   3.155   1.519 -0.4522 -1.2150 -1.1547
  936SOL    HW3 3818   3.586   3.207   1.404  0.1742  1.7092 -0.3370
  936SOL    MW4 3819   3.610   3.210   1.488  0.0963 -0.0668 -0.2376
  937SOL     OW 3820   3.619   3.480   1.615  0.5657  0.2561  0.2222
  937SOL    HW2 3821   3.689   3.528   1.571  0.6117 -0.0479 -0.0359
  937SOL    HW3 3822   3.628   3.390   1.583  1.1409 -0.1483  1.5183
  937SOL    MW4 3823   3.629   3.474   1.605  0.6473  0.1626  0.3592
  938SOL     OW 3824   3.826   3.602   1.490  0.4029 -0.0081  0.4572
  938SOL    HW2 3825   3.901   3.564   1.536 -0.0049 -0.6889  0.5683
  938SOL    HW3 3826   3.816   3.689   1.528  0.5705 -0.2653  1.0972
  938SOL    MW4 3827   3.835   3.608   1.501  0.3712 -0.1316  0.5563
  939SOL     OW 3828   3.786   3.847   1.615  0.1718  0.5542 -0.5986
  939SOL    HW2 3829   3.774   3.870   1.707  0.4548  1.1067 -0.6973
  939SOL    HW3 3830   3.725   3.904   1.568  1.4872  1.7208 -0.9142
  939SOL    MW4 3831   3.776   3.857   1.621  0.3827  0.7813 -0.6533
  940SOL     OW 3832   3.603   4.004   1.491  0.0415 -0.1617  0.1911
  940SOL    HW2 3833   3.586   4.094   1.518 -3.0369 -0.5258 -0.3072
  940SOL    HW3 3834   3.522   3.957   1.514  1.5726 -2.7886  0.3945
  940SOL    MW4 3835   3.590   4.010   1.498 -0.1626 -0.5560  0.1522
  941SOL     OW 3836   3.597   4.258   1.582  0.3215 -0.4663 -0.1500
  941SOL    HW2 3837   3.563   4.255   1.671 -1.9350 -2.0531 -1.0304
  941SOL    HW3 3838   3.529   4.302   1.531  1.1258 -0.4982 -1.2924
  941SOL    MW4 3839   3.584   4.263   1.587  0.1297 -0.6795 -0.4170
  942SOL     OW 3840   3.815   4.367   1.477 -0.0727 -0.2523  0.6012
  942SOL    HW2 3841   3.739   4.319   1.510 -1.3027  0.7807 -0.6476
  942SOL    HW3 3842   3.819   4.446   1.531 -1.4212  0.9064 -0.9698
  942SOL    MW4 3843   3.806   4.371   1.488 -0.4129  0.0372  0.2290
  943SOL     OW 3844   4.256   4.630   1.611 -0.1789  0.0873 -0.9132
  943SOL    HW2 3845   4.252   4.613   1.705  0.0811  1.3410 -0.6624
  943SOL    HW3 3846   4.255   4.543   1.570  2.0840 -0.5560  0.3263
  943SOL    MW4 3847   4.256   4.616   1.618  0.1540  0.1674 -0.7166
  944SOL     OW 3848   4.055   0.137   1.477 -0.3938  0.3212 -0.4893
  944SOL    HW2 3849   4.052   0.218   1.527 -0.1766  0.5900 -0.9160
  944SOL    HW3 3850   4.123   0.085   1.520  0.4349  0.9223 -1.0686
  944SOL    MW4 3851   4.063   0.141   1.489 -0.2561  0.4360 -0.6220
  945SOL     OW 3852   4.068   0.384   1.608 -0.2886 -0.2932  0.0945
  945SOL    HW2 3853   4.067   0.374   1.703 -0.0328  0.3288  0.1672
  945SOL    HW3 3854   3.991   0.437   1.589  0.0926  0.2367  0.0337
  945SOL    MW4 3855   4.058   0.390   1.618 -0.2046 -0.1412  0.0960
  946SOL     OW 3856   4.294   0.476   1.508  0.6975 -0.2006  0.3226
  946SOL    HW2 3857   4.217   0.444   1.554  1.0772  1.9385  2.5355
  946SOL    HW3 3858   4.367   0.431   1.549  0.8316 -0.2568  0.0229
  946SOL    MW4 3859   4.293   0.466   1.519  0.7658  0.0742  0.5749
  947SOL     OW 3860   4.334   0.733   1.627  0.4544 -0.4052 -0.1528
  947SOL    HW2 3861   4.320   0.641   1.604  1.2572 -0.5850  0.0507
  947SOL    HW3 3862   4.413   0.758   1.580  1.2477 -0.3378  1.1631
  947SOL    MW4 3863   4.342   0.724   1.618  0.6647 -0.4200  0.0478
  948SOL     OW 3864   4.111   0.891   1.520 -0.5155 -0.1704 -0.5982
  948SOL    HW2 3865   4.183   0.831   1.541 -0.1433  0.5630  0.2628
  948SOL    HW3 3866   4.032   0.842   1.540 -0.2468 -0.8254 -1.1222
  948SOL    MW4 3867   4.110   0.877   1.526 -0.4306 -0.1602 -0.5537
  949SOL     OW 3868   4.040   1.153   1.581 -0.3207  0.0907  0.0799
  949SOL    HW2 3869   4.051   1.163   1.676  0.1846 -1.2776  0.1759
  949SOL    HW3 3870   4.067   1.063   1.563 -1.1694  0.0928 -1.2581
  949SOL    MW4 3871   4.045   1.143   1.591 -0.3662 -0.0896 -0.0840
  950SOL     OW 3872   4.268   1.290   1.477  0.0548  0.1537 -0.1105
  950SOL    HW2 3873   4.189   1.251   1.513 -0.4412  1.5506  0.3166
  950SOL    HW3 3874   4.339   1.234   1.509 -0.7351 -1.0112 -0.3703
  950SOL    MW4 3875   4.267   1.277   1.486 -0.1144  0.1843 -0.0885
  951SOL     OW 3876   4.278   1.549   1.584 -0.2537 -0.0999 -0.1256
  951SOL    HW2 3877   4.261   1.460   1.552 -1.4281  0.0277  0.1126
  951SOL    HW3 3878   4.372   1.562   1.571 -0.3088 -0.8848 -1.4183
  951SOL    MW4 3879   4.288   1.539   1.578 -0.4158 -0.1868 -0.2645
  952SOL     OW 3880   4.030   1.682   1.472  0.2892  0.1803 -0.1931
  952SOL    HW2 3881   4.117   1.651   1.497 -0.1264 -0.8065  0.0060
  952SOL    HW3 3882   3.969   1.621   1.512 -0.5241  1.1027  0.0037
  952SOL    MW4 3883   4.033   1.670   1.480  0.1268  0.1719 -0.1410
  953SOL     OW 3884   4.105   1.930   1.595  0.1141  0.7529  0.6713
  953SOL    HW2 3885   4.084   1.841   1.565 -0.6671  0.4004  2.2212
  953SOL    HW3 3886   4.040   1.986   1.553 -0.9773  0.2614  1.6721
  953SOL    MW4 3887   4.094   1.926   1.585 -0.1326  0.6415  1.0078
  954SOL     OW 3888   4.334   2.022   1.463 -0.1004  0.0494  0.3392
  954SOL    HW2 3889   4.260   1.990   1.513 -0.2338  1.6065  1.1816
  954SOL    HW3 3890   4.301   2.033   1.374  0.2855 -3.2621 -0.2754
  954SOL    MW4 3891   4.320   2.020   1.458 -0.0672 -0.1822  0.3693
  955SOL     OW 3892   4.294   2.272   1.584 -0.3645  0.5437 -0.9367
  955SOL    HW2 3893   4.297   2.252   1.678  1.5816  0.6033 -0.9702
  955SOL    HW3 3894   4.311   2.188   1.541  0.4326  0.8386 -1.2044
  955SOL    MW4 3895   4.297   2.258   1.591 -0.0029  0.5906 -0.9764
  956SOL     OW 3896   4.082   2.392   1.457  0.2773 -0.3735  0.3791
  956SOL    HW2 3897   4.093   2.479   1.498  0.8026 -1.0489  1.7030
  956SOL    HW3 3898   4.148   2.338   1.499  0.3381 -1.2786 -0.8794
  956SOL    MW4 3899   4.092   2.397   1.468  0.3548 -0.5820  0.3877
  957SOL     OW 3900   4.078   2.640   1.571 -0.2253  0.2021  0.3346
  957SOL    HW2 3901   4.081   2.643   1.667  0.1853 -0.1182  0.3325
  957SOL    HW3 3902   4.149   2.698   1.543  1.4236 -1.8199  0.2413
  957SOL    MW4 3903   4.088   2.648   1.580  0.0463 -0.1070  0.3220
  958SOL     OW 3904   4.280   2.801   1.466 -0.0895  0.6192 -0.2808
  958SOL    HW2 3905   4.267   2.887   1.505 -1.7137  0.6245 -0.7989
  958SOL    HW3 3906   4.275   2.817   1.372  0.0561  0.0276 -0.3897
  958SOL    MW4 3907   4.277   2.815   1.459 -0.2847  0.5417 -0.3633
  959SOL     OW 3908   4.250   3.052   1.571  0.0007  0.0550  0.0020
  959SOL    HW2 3909   4.271   3.062   1.664 -1.3390  1.3320  0.2041
  959SOL    HW3 3910   4.316   3.104   1.525  0.2392  0.0106  0.2979
  959SOL    MW4 3911   4.261   3.060   1.577 -0.1440  0.2174  0.0677
  960SOL     OW 3912   4.016   3.175   1.496  0.0264  0.4115 -0.4060
  960SOL    HW2 3913   4.022   3.254   1.549 -0.6871 -0.1945  0.6112
  960SOL    HW3 3914   4.098   3.129   1.512  0.4556  0.9602 -1.0257
  960SOL    MW4 3915   4.027   3.179   1.505 -0.0110  0.4039 -0.3536
  961SOL     OW 3916   4.051   3.440   1.601 -0.2036  0.2752 -0.6322
  961SOL    HW2 3917   4.051   3.471   1.691 -1.1150  0.5779 -0.7276
  961SOL    HW3 3918   4.116   3.495   1.556  1.1292 -0.6872  0.1038
  961SOL    MW4 3919   4.060   3.451   1.607 -0.1488  0.1879 -0.5478
  962SOL     OW 3920   4.206   3.627   1.466  0.0681 -0.1022 -0.2667
  962SOL    HW2 3921   4.249   3.703   1.506  1.7275 -0.7812 -0.7457
  962SOL    HW3 3922   4.217   3.639   1.372 -1.0347 -0.1588 -0.4153
  962SOL    MW4 3923   4.213   3.639   1.459  0.1416 -0.1993 -0.3495
  963SOL     OW 3924   4.274   3.843   1.612 -0.4697  0.1452  0.0065
  963SOL    HW2 3925   4.194   3.887   1.583 -0.4414  0.2947  0.1559
  963SOL    HW3 3926   4.345   3.900   1.584 -0.4505  0.3882  0.5415
  963SOL    MW4 3927   4.273   3.856   1.604 -0.4635  0.1969  0.0968
  964SOL     OW 3928   4.024   3.969   1.544  0.3963  0.8136 -0.0447
  964SOL    HW2 3929   4.011   4.060   1.571 -0.6882  0.1490  1.7964
  964SOL    HW3 3930   3.947   3.923   1.578  0.7257 -0.7209 -1.3131
  964SOL    MW4 3931   4.012   3.975   1.552  0.2961  0.5236  0.0308
  965SOL     OW 3932   4.049   4.256   1.600 -0.2740 -0.2233  0.2548
  965SOL    HW2 3933   4.049   4.239   1.694 -2.0365 -1.2977  0.0734
  965SOL    HW3 3934   3.961   4.286   1.581  0.1639  0.3017 -1.0177
  965SOL    MW4 3935   4.038   4.258   1.610 -0.4482 -0.2956  0.0631
  966SOL     OW 3936   4.274   4.374   1.489  0.5216  0.1465  0.1026
  966SOL    HW2 3937   4.191   4.330   1.509  0.3118  0.3153 -0.3887
  966SOL    HW3 3938   4.288   4.358   1.396  1.1454 -0.0513  0.2310
  966SOL    MW4 3939   4.265   4.366   1.479  0.5760  0.1426  0.0547
  967SOL     OW 3940   0.247   4.622   1.959 -0.1648 -0.2964 -0.3963
  967SOL    HW2 3941   0.319   4.678   1.989 -2.0468  1.9153  0.0723
  967SOL    HW3 3942   0.256   4.622   1.863  0.5163 -0.1115 -0.3371
  967SOL    MW4 3943   0.258   4.630   1.950 -0.3233  0.0200 -0.3266
  968SOL     OW 3944   0.008   0.062   1.985 -0.2340  0.0367 -0.3797
  968SOL    HW2 3945   0.020   0.151   1.950  1.2915 -0.4799 -1.1897
  968SOL    HW3 3946   0.094   0.022   1.979 -1.1472 -1.8677 -1.0272
  968SOL    MW4 3947   0.021   0.069   1.980 -0.1532 -0.2827 -0.5720
  969SOL     OW 3948   0.025   0.330   1.904 -0.4025  0.3021 -0.0055
  969SOL    HW2 3949  -0.064   0.362   1.921 -1.0779 -2.0007  0.8737
  969SOL    HW3 3950   0.081   0.386   1.958 -1.2955  1.7699 -0.5637
  969SOL    MW4 3951   0.021   0.342   1.913 -0.6095  0.1919  0.0370
  970SOL     OW 3952   0.250   0.509   2.001  0.1935  0.3582 -0.0563
  970SOL    HW2 3953   0.325   0.471   1.955  0.5940  0.9224  0.1194
  970SOL    HW3 3954   0.244   0.598   1.967 -0.6414  0.1959 -0.3545
  970SOL    MW4 3955   0.259   0.516   1.990  0.1362  0.4113 -0.0725
  971SOL     OW 3956   0.272   0.767   1.894  0.1679  0.0734 -0.0035
  971SOL    HW2 3957   0.348   0.819   1.920  0.5645  0.4940 -1.9398
  971SOL    HW3 3958   0.269   0.774   1.798 -0.7601 -2.0896 -0.1686
  971SOL    MW4 3959   0.281   0.775   1.884  0.0978 -0.1565 -0.2809
  972SOL     OW 3960   0.033   0.877   1.977 -0.1918  0.0105  0.1018
  972SOL    HW2 3961  -0.022   0.802   1.952  0.1861 -0.0296 -0.6195
  972SOL    HW3 3962   0.122   0.850   1.955 -0.0719  0.7371 -0.3228
  972SOL    MW4 3963   0.037   0.864   1.971 -0.1261  0.1010 -0.0495
  973SOL     OW 3964   4.488   1.111   1.842  0.1242  0.2760 -0.2397
  973SOL    HW2 3965   4.418   1.160   1.884  0.5518 -0.2077  1.0723
  973SOL    HW3 3966   4.490   1.028   1.889  0.8981 -0.1087 -0.9453
  973SOL    MW4 3967   4.479   1.107   1.853  0.2823  0.1614 -0.1597
  974SOL     OW 3968   0.236   1.230   1.976 -0.0842  0.3810  0.3357
  974SOL    HW2 3969   0.234   1.321   1.945  0.3544 -0.1137 -1.1552
  974SOL    HW3 3970   0.176   1.183   1.918  1.3079 -0.7012 -0.2664
  974SOL    MW4 3971   0.228   1.236   1.964  0.1573  0.1730  0.0595
  975SOL     OW 3972   0.273   1.483   1.884 -0.1950 -0.5136 -0.1017
  975SOL    HW2 3973   0.354   1.522   1.918 -0.0557  1.0183 -2.0708
  975SOL    HW3 3974   0.204   1.543   1.912 -0.5372 -1.2689  0.6898
  975SOL    MW4 3975   0.275   1.496   1.892 -0.2218 -0.4112 -0.2571
  976SOL     OW 3976   0.081   1.675   1.942  0.6188  0.7722  0.4784
  976SOL    HW2 3977   0.072   1.669   2.037  2.2411 -1.1365  0.5480
  976SOL    HW3 3978  -0.003   1.646   1.907  1.3613 -2.4840  1.2936
  976SOL    MW4 3979   0.069   1.671   1.950  0.9308  0.0908  0.5952
  977SOL     OW 3980   0.061   1.953   1.889  0.6220 -0.1280 -0.6219
  977SOL    HW2 3981  -0.021   1.980   1.929  0.9141  0.5970 -0.4914
  977SOL    HW3 3982   0.059   1.858   1.891  0.4192 -0.1118  0.7096
  977SOL    MW4 3983   0.050   1.944   1.895  0.6338 -0.0302 -0.4290
  978SOL     OW 3984   0.294   2.105   1.949  0.0424  0.2772 -0.6128
  978SOL    HW2 3985   0.297   2.182   1.893 -0.0881 -0.5244 -1.7402
  978SOL    HW3 3986   0.214   2.059   1.923  0.2357 -0.3535 -0.1142
  978SOL    MW4 3987   0.284   2.109   1.938  0.0508  0.0882 -0.6958
  979SOL     OW 3988   0.239   2.344   1.828  0.3502 -0.1281 -0.2149
  979SOL    HW2 3989   0.310   2.395   1.867  0.8717  1.0356 -2.5683
  979SOL    HW3 3990   0.160   2.381   1.866  0.8260  1.3288 -0.5926
  979SOL    MW4 3991   0.238   2.356   1.838  0.4818  0.2177 -0.5751
  980SOL     OW 3992   4.487   2.437   1.935 -0.1524  0.1780  0.0653
  980SOL    HW2 3993   4.485   2.414   2.028  1.1038  1.3277  0.3963
  980SOL    HW3 3994   4.483   2.533   1.934  1.2701  0.2368 -0.9955
  980SOL    MW4 3995   4.486   2.447   1.948  0.2012  0.3374 -0.0311
  981SOL     OW 3996   4.455   2.716   1.895 -0.0707 -0.1866 -0.5548
  981SOL    HW2 3997   4.373   2.757   1.923 -0.2508  0.5563 -2.1192
  981SOL    HW3 3998   4.440   2.692   1.804  0.5291 -2.5118 -0.0759
  981SOL    MW4 3999   4.442   2.718   1.887 -0.0153 -0.3953 -0.6980
  982SOL     OW 4000   0.217   2.827   1.976  0.0494  0.0978 -0.3530
  982SOL    HW2 4001   0.201   2.920   1.958 -2.8849  0.3690  3.0562
  982SOL    HW3 4002   0.140   2.782   1.941  0.9641 -0.9372 -1.0539
  982SOL    MW4 4003   0.205   2.833   1.969 -0.2171 -0.0029  0.0043
  983SOL     OW 4004   0.212   3.109   1.888 -0.4123 -0.4366  0.3530
  983SOL    HW2 4005   0.292   3.157   1.907 -1.3359  1.0989  0.4892
  983SOL    HW3 4006   0.215   3.092   1.794 -0.0900 -0.0747  0.2985
  983SOL    MW4 4007   0.223   3.114   1.878 -0.4916 -0.1862  0.3637
  984SOL     OW 4008   4.457   3.236   1.950  0.7191  0.2067  0.0557
  984SOL    HW2 4009   4.398   3.165   1.927 -0.3602  1.4392 -1.0888
  984SOL    HW3 4010   4.545   3.199   1.939  0.1719 -1.1766  0.2854
  984SOL    MW4 4011   4.461   3.222   1.945  0.5050  0.1867 -0.0650
  985SOL     OW 4012   4.438   3.477   1.813 -0.0473  0.1403 -0.1489
  985SOL    HW2 4013   4.514   3.525   1.845  1.4705 -0.8917 -2.0791
  985SOL    HW3 4014   4.436   3.397   1.867  0.2351  0.1777 -0.0805
  985SOL    MW4 4015   4.448   3.473   1.825  0.1903  0.0091 -0.3947
  986SOL     OW 4016   0.168   3.552   1.976  0.7439  0.4336 -0.5071
  986SOL    HW2 4017   0.163   3.548   2.072 -0.9959 -1.0191 -0.6379
  986SOL    HW3 4018   0.259   3.529   1.956  0.6665 -1.0374  0.7372
  986SOL    MW4 4019   0.180   3.548   1.986  0.5042  0.0479 -0.3601
  987SOL     OW 4020   0.204   3.814   1.897  0.0272 -0.5358  0.1853
  987SOL    HW2 4021   0.283   3.848   1.940  0.0854 -0.0966 -0.2707
  987SOL    HW3 4022   0.196   3.724   1.930  0.9114 -0.6966 -0.0387
  987SOL    MW4 4023   0.214   3.806   1.907  0.1515 -0.4990  0.0955
  988SOL     OW 4024   4.466   4.000   1.947  0.4744 -0.1257  0.0268
  988SOL    HW2 4025   4.490   4.085   1.909  1.3203 -0.3158  0.1195
  988SOL    HW3 4026   4.521   3.937   1.899  0.0386 -0.5867  0.1398
  988SOL    MW4 4027   4.477   4.003   1.936  0.5288 -0.2117  0.0540
  989SOL     OW 4028   0.021   4.265   1.853 -0.2679  0.2830 -0.2410
  989SOL    HW2 4029  -0.057   4.316   1.872 -0.0095  1.0161 -1.1126
  989SOL    HW3 4030   0.090   4.307   1.905 -0.3118  0.0347  0.0230
  989SOL    MW4 4031   0.020   4.277   1.863 -0.2395  0.3471 -0.3211
  990SOL     OW 4032   0.232   4.345   2.011 -0.1082 -0.3438  0.7988
  990SOL    HW2 4033   0.224   4.345   2.107 -2.4573  1.9780  0.6673
  990SOL    HW3 4034   0.253   4.436   1.990  0.9058 -0.9533 -0.8810
  990SOL    MW4 4035   0.234   4.357   2.021 -0.2844 -0.1178  0.5598
  991SOL     OW 4036   0.685   4.658   1.874  0.0177  0.3349  0.1082
  991SOL    HW2 4037   0.676   4.569   1.908  1.5234  1.0974  2.6798
  991SOL    HW3 4038   0.682   4.648   1.779 -0.3413 -2.3948  0.3649
  991SOL    MW4 4039   0.684   4.645   1.866  0.1690  0.0749  0.4814
  992SOL     OW 4040   0.466   0.125   1.988  0.2902  0.4489  0.5496
  992SOL    HW2 4041   0.457   0.206   1.938 -1.8350 -0.4049 -0.5105
  992SOL    HW3 4042   0.546   0.084   1.953 -0.6116  0.3493 -1.4636
  992SOL    MW4 4043   0.476   0.130   1.977 -0.1092  0.3231  0.1441
  993SOL     OW 4044   0.468   0.366   1.876 -0.4120  0.5171 -0.5456
  993SOL    HW2 4045   0.548   0.403   1.913 -1.7280  0.8876  1.9959
  993SOL    HW3 4046   0.481   0.373   1.781  2.9401 -0.3166 -0.2022
  993SOL    MW4 4047   0.481   0.372   1.868 -0.1433  0.4560 -0.1649
  994SOL     OW 4048   0.688   0.513   1.954  0.3679  0.8230 -0.4067
  994SOL    HW2 4049   0.687   0.503   2.049  0.6842  1.5942 -0.3177
  994SOL    HW3 4050   0.770   0.473   1.926  0.1992  0.4534 -0.3721
  994SOL    MW4 4051   0.699   0.506   1.963  0.3874  0.8759 -0.3905
  995SOL     OW 4052   0.699   0.746   1.815 -0.7342  0.4240  0.3070
  995SOL    HW2 4053   0.780   0.786   1.846  0.1955 -1.0040 -0.2238
  995SOL    HW3 4054   0.689   0.666   1.867 -0.4596 -0.6997 -1.2990
  995SOL    MW4 4055   0.708   0.741   1.826 -0.5754  0.0874  0.0252
  996SOL     OW 4056   0.514   0.877   1.950  0.0204 -0.4213  0.4460
  996SOL    HW2 4057   0.528   0.972   1.942  0.1545 -0.4884 -0.1267
  996SOL    HW3 4058   0.580   0.838   1.894  1.4446 -0.9527  2.4448
  996SOL    MW4 4059   0.524   0.885   1.942  0.2260 -0.5003  0.6341
  997SOL     OW 4060   0.494   1.132   1.900 -0.2814 -0.2596  0.2642
  997SOL    HW2 4061   0.416   1.174   1.937  0.4234  1.5275 -0.1830
  997SOL    HW3 4062   0.481   1.138   1.806  0.4591  0.2010  0.1876
  997SOL    MW4 4063   0.482   1.139   1.893 -0.0907  0.0370  0.1951
  998SOL     OW 4064   0.694   1.291   1.978 -0.9837  0.0836 -0.1538
  998SOL    HW2 4065   0.696   1.286   2.073  2.2957  0.6130 -0.1308
  998SOL    HW3 4066   0.630   1.225   1.951  0.4067 -2.3294  2.2756
  998SOL    MW4 4067   0.686   1.282   1.987 -0.3676 -0.1649  0.1699
  999SOL     OW 4068   0.742   1.569   1.928 -0.2345 -0.2726 -0.3364
  999SOL    HW2 4069   0.730   1.477   1.953  0.6085 -0.0481  0.9144
  999SOL    HW3 4070   0.740   1.568   1.832 -2.4415 -1.2818 -0.3144
  999SOL    MW4 4071   0.740   1.557   1.918 -0.4146 -0.3762 -0.1684
 1000SOL     OW 4072   0.470   1.650   1.988  0.0231  0.2049 -0.5721
 1000SOL    HW2 4073   0.454   1.659   2.082 -0.3095  0.7399 -0.6771
 1000SOL    HW3 4074   0.563   1.630   1.981  0.1830  0.8015 -0.1630
 1000SOL    MW4 4075   0.480   1.649   2.000  0.0003  0.3544 -0.5324
 1001SOL     OW 4076   0.490   1.918   1.878  0.0206  0.3899  0.0165
 1001SOL    HW2 4077   0.479   1.832   1.919 -0.2818  0.1661 -0.5333
 1001SOL    HW3 4078   0.411   1.966   1.901  0.0987  0.4555  0.1524
 1001SOL    MW4 4079   0.478   1.913   1.887 -0.0090  0.3692 -0.0380
 1002SOL     OW 4080   0.711   2.056   1.968 -0.4373  0.3153 -0.2254
 1002SOL    HW2 4081   0.704   2.042   2.063  2.3656 -2.0527 -0.3056
 1002SOL    HW3 4082   0.639   2.006   1.931 -1.1356  0.6861  0.6048
 1002SOL    MW4 4083   0.701   2.048   1.976 -0.1596  0.0515 -0.1265
 1003SOL     OW 4084   0.686   2.309   1.871  0.1959  0.0182  0.3113
 1003SOL    HW2 4085   0.677   2.221   1.908 -1.2337  0.2985  0.6658
 1003SOL    HW3 4086   0.683   2.296   1.777 -3.2130 -0.0617  0.3395
 1003SOL    MW4 4087   0.684   2.296   1.864 -0.4424  0.0448  0.3617
 1004SOL     OW 4088   0.455   2.461   1.951 -0.0485  0.4818 -0.2726
 1004SOL    HW2 4089   0.468   2.480   2.044  0.2584  1.1560 -0.4495
 1004SOL    HW3 4090   0.539   2.425   1.922  0.2724  1.4700 -0.5830
 1004SOL    MW4 4091   0.468   2.459   1.959  0.0343  0.7012 -0.3368
 1005SOL     OW 4092   0.459   2.726   1.891  0.0378  0.2018 -0.0582
 1005SOL    HW2 4093   0.449   2.637   1.923 -1.5356  0.4721  0.2485
 1005SOL    HW3 4094   0.386   2.774   1.929  0.3145  1.4039 -0.9940
 1005SOL    MW4 4095   0.448   2.721   1.900 -0.1333  0.3958 -0.1411
 1006SOL     OW 4096   0.693   2.822   2.011  0.1712 -0.0322 -0.1827
 1006SOL    HW2 4097   0.674   2.868   2.093 -0.4141 -1.0372  0.2426
 1006SOL    HW3 4098   0.609   2.786   1.984  0.8794 -2.0301  0.2013
 1006SOL    MW4 4099   0.680   2.824   2.018  0.1873 -0.4284 -0.0761
 1007SOL     OW 4100   0.682   3.067   1.853 -0.5897 -0.0168 -0.1716
 1007SOL    HW2 4101   0.690   2.978   1.888 -1.5978 -0.2162 -0.4172
 1007SOL    HW3 4102   0.677   3.054   1.758 -1.8636  0.2042 -0.1449
 1007SOL    MW4 4103   0.682   3.053   1.845 -0.8908 -0.0143 -0.2006
 1008SOL     OW 4104   0.448   3.221   1.942  0.7433 -0.6142  0.1038
 1008SOL    HW2 4105   0.450   3.315   1.925  0.1340 -1.0809 -2.6924
 1008SOL    HW3 4106   0.522   3.186   1.894 -0.2390 -1.8179 -0.5663
 1008SOL    MW4 4107   0.458   3.229   1.934  0.5333 -0.8347 -0.3536
 1009SOL     OW 4108   0.447   3.496   1.881 -0.4577 -0.1367 -0.1010
 1009SOL    HW2 4109   0.529   3.538   1.907 -0.4995 -0.4747  0.5968
 1009SOL    HW3 4110   0.452   3.489   1.785  0.4317 -0.3663 -0.0411
 1009SOL    MW4 4111   0.459   3.501   1.872 -0.3458 -0.2117 -0.0010
 1010SOL     OW 4112   0.694   3.627   1.930 -0.2435 -0.3903 -0.2429
 1010SOL    HW2 4113   0.779   3.585   1.920  0.4448  0.9001  0.1520
 1010SOL    HW3 4114   0.710   3.720   1.913 -1.7821 -0.2819 -1.2992
 1010SOL    MW4 4115   0.707   3.634   1.926 -0.3557 -0.2058 -0.3301
 1011SOL     OW 4116   0.691   3.889   1.853  0.2986 -0.2874 -0.3056
 1011SOL    HW2 4117   0.756   3.951   1.886 -0.2540  0.5187 -0.7130
 1011SOL    HW3 4118   0.687   3.906   1.759 -0.4121 -0.4139 -0.3031
 1011SOL    MW4 4119   0.699   3.899   1.845  0.1319 -0.1979 -0.3591
 1012SOL     OW 4120   0.437   3.936   2.001  0.2787  0.2389  0.0919
 1012SOL    HW2 4121   0.427   4.024   1.965  0.2133 -0.5060 -1.7713
 1012SOL    HW3 4122   0.514   3.900   1.956 -0.7059 -1.2532 -0.4499
 1012SOL    MW4 4123   0.446   3.943   1.990  0.1402 -0.0563 -0.2253
 1013SOL     OW 4124   0.445   4.200   1.902 -0.0604 -0.0299  0.3466
 1013SOL    HW2 4125   0.381   4.247   1.956  1.0769  1.2389  0.6020
 1013SOL    HW3 4126   0.425   4.228   1.813 -0.2096 -0.0538  0.3715
 1013SOL    MW4 4127   0.434   4.210   1.897  0.0700  0.1340  0.3836
 1014SOL     OW 4128   0.682   4.377   1.965 -0.6247 -0.4374 -0.4284
 1014SOL    HW2 4129   0.768   4.356   1.928 -0.5170 -2.1498  0.7425
 1014SOL    HW3 4130   0.624   4.310   1.930 -1.1811 -0.1641 -0.0363
 1014SOL    MW4 4131   0.686   4.366   1.956 -0.6840 -0.6266 -0.2222
 1015SOL     OW 4132   1.095   0.029   1.854  0.4743 -1.1146  0.1128
 1015SOL    HW2 4133   1.183   0.068   1.856  0.2760 -0.7614  2.2388
 1015SOL    HW3 4134   1.106  -0.056   1.897 -0.2224 -1.1203  0.2706
 1015SOL    MW4 4135   1.108   0.023   1.860  0.3562 -1.0688  0.4141
 1016SOL     OW 4136   0.872   0.163   1.991 -0.7845  0.3834 -0.3213
 1016SOL    HW2 4137   0.954   0.121   1.963 -0.5912  1.1532 -0.9117
 1016SOL    HW3 4138   0.804   0.102   1.963 -0.4792  0.2406 -0.7616
 1016SOL    MW4 4139   0.874   0.149   1.984 -0.7187  0.4661 -0.4573
 1017SOL     OW 4140   0.923   0.388   1.853 -0.0583 -0.3980  0.2384
 1017SOL    HW2 4141   0.991   0.437   1.901  0.8516 -1.1181 -0.2953
 1017SOL    HW3 4142   0.918   0.304   1.898 -0.3917 -0.4602  0.0862
 1017SOL    MW4 4143   0.932   0.383   1.865  0.0178 -0.5012  0.1479
 1018SOL     OW 4144   1.112   0.522   1.990  0.1614  0.1496 -0.3691
 1018SOL    HW2 4145   1.191   0.476   1.964  0.0023 -0.6320  0.5211
 1018SOL    HW3 4146   1.108   0.598   1.931  0.3775 -0.9965 -1.9106
 1018SOL    MW4 4147   1.122   0.526   1.978  0.1689 -0.1047 -0.4550
 1019SOL     OW 4148   1.132   0.795   1.853 -0.0698 -0.1748  0.3417
 1019SOL    HW2 4149   1.204   0.833   1.903 -1.3507  0.4036  1.7790
 1019SOL    HW3 4150   1.056   0.848   1.876 -1.6875 -2.9314  1.5694
 1019SOL    MW4 4151   1.132   0.807   1.863 -0.4524 -0.4622  0.6933
 1020SOL     OW 4152   0.893   0.893   1.939 -0.5424  0.4827 -0.1722
 1020SOL    HW2 4153   0.905   0.886   2.033  2.0555  0.9695 -0.4101
 1020SOL    HW3 4154   0.883   0.987   1.923 -0.5936  0.4377 -0.4027
 1020SOL    MW4 4155   0.893   0.904   1.949 -0.2064  0.5409 -0.2341
 1021SOL     OW 4156   0.918   1.158   1.856  0.5146 -0.4778 -0.4465
 1021SOL    HW2 4157   0.856   1.218   1.899  0.2864 -0.2841 -1.0364
 1021SOL    HW3 4158   0.903   1.172   1.762  1.7368 -0.1320 -0.6010
 1021SOL    MW4 4159   0.908   1.168   1.849  0.6457 -0.4067 -0.5447
 1022SOL     OW 4160   1.149   1.257   1.949 -0.0892  0.1755  0.2689
 1022SOL    HW2 4161   1.150   1.347   1.917 -0.6758  0.2350  0.4156
 1022SOL    HW3 4162   1.064   1.222   1.922 -0.0091 -0.2232  0.5200
 1022SOL    MW4 4163   1.138   1.264   1.941 -0.1560  0.1307  0.3216
 1023SOL     OW 4164   1.207   1.532   1.886  0.4389 -0.1904  0.3395
 1023SOL    HW2 4165   1.125   1.570   1.918  0.2961 -0.1083 -0.1193
 1023SOL    HW3 4166   1.204   1.544   1.791  0.9849 -0.1903  0.3213
 1023SOL    MW4 4167   1.196   1.538   1.877  0.4922 -0.1794  0.2768
 1024SOL     OW 4168   0.982   1.663   1.991 -0.2651  0.2682 -0.0661
 1024SOL    HW2 4169   0.987   1.750   1.953 -1.1360  0.3128 -0.0828
 1024SOL    HW3 4170   0.891   1.636   1.978  0.0050 -0.6461 -0.0839
 1024SOL    MW4 4171   0.970   1.671   1.984 -0.3443  0.1534 -0.0708
 1025SOL     OW 4172   0.920   1.901   1.871  0.4571  0.0132  0.3229
 1025SOL    HW2 4173   0.846   1.945   1.914  0.9136  1.7811 -0.6424
 1025SOL    HW3 4174   0.895   1.897   1.779  0.5269 -1.6077  0.3564
 1025SOL    MW4 4175   0.907   1.906   1.865  0.5265  0.0325  0.1999
 1026SOL     OW 4176   1.149   2.060   1.994  0.5661  0.2017 -0.2011
 1026SOL    HW2 4177   1.126   2.141   1.948 -0.3426 -0.4325 -0.8961
 1026SOL    HW3 4178   1.085   1.996   1.961  0.1995 -0.3695  1.6061
 1026SOL    MW4 4179   1.137   2.063   1.983  0.3979  0.0424 -0.0542
 1027SOL     OW 4180   1.112   2.291   1.851 -0.0292  0.0243 -0.2417
 1027SOL    HW2 4181   1.190   2.343   1.874 -0.6810  1.5052 -1.3369
 1027SOL    HW3 4182   1.111   2.291   1.755 -1.9340  0.8580 -0.2333
 1027SOL    MW4 4183   1.122   2.298   1.841 -0.3663  0.3297 -0.3850
 1028SOL     OW 4184   0.916   2.431   1.987 -0.2430 -0.3998  0.1944
 1028SOL    HW2 4185   0.989   2.385   1.945  0.2022  1.0565 -0.6631
 1028SOL    HW3 4186   0.838   2.387   1.955  0.2424 -1.7726  0.8751
 1028SOL    MW4 4187   0.915   2.419   1.977 -0.1203 -0.3886  0.1709
 1029SOL     OW 4188   0.895   2.713   1.858 -0.0438 -0.4096 -0.0591
 1029SOL    HW2 4189   0.886   2.624   1.893  0.3032 -0.3419  0.2103
 1029SOL    HW3 4190   0.842   2.767   1.917  0.2629 -0.3467  0.1644
 1029SOL    MW4 4191   0.887   2.709   1.871  0.0425 -0.3924  0.0058
 1030SOL     OW 4192   1.138   2.806   1.961  0.2396 -0.1680  0.0940
 1030SOL    HW2 4193   1.132   2.812   2.056 -1.0343  0.8428 -0.0377
 1030SOL    HW3 4194   1.051   2.776   1.934  0.4446  0.0282 -0.7938
 1030SOL    MW4 4195   1.126   2.803   1.970  0.0986 -0.0088 -0.0407
 1031SOL     OW 4196   1.111   3.075   1.873  0.5598  0.2571  0.2181
 1031SOL    HW2 4197   1.026   3.104   1.906 -0.7881 -1.5453 -1.5234
 1031SOL    HW3 4198   1.125   2.990   1.914  1.2633  0.2951  0.0639
 1031SOL    MW4 4199   1.102   3.068   1.883  0.4748  0.0241 -0.0319
 1032SOL     OW 4200   0.891   3.214   1.961  0.1690  0.4348  0.8590
 1032SOL    HW2 4201   0.891   3.211   2.056 -2.1104  0.0693  0.8686
 1032SOL    HW3 4202   0.810   3.170   1.935  0.6861  0.6498 -1.2430
 1032SOL    MW4 4203   0.881   3.208   1.970 -0.0635  0.4151  0.5828
 1033SOL     OW 4204   0.925   3.484   1.874  0.3504  0.3079  0.1269
 1033SOL    HW2 4205   0.933   3.391   1.896  0.4893  0.1731 -0.4703
 1033SOL    HW3 4206   0.908   3.485   1.780  0.2572  0.8857  0.1456
 1033SOL    MW4 4207   0.924   3.472   1.864  0.3565  0.3662  0.0507
 1034SOL     OW 4208   1.132   3.651   1.978 -0.3450 -0.1979 -0.2062
 1034SOL    HW2 4209   1.152   3.645   2.071  0.2510  0.3252 -0.3018
 1034SOL    HW3 4210   1.056   3.593   1.966 -0.6784  0.0589  0.6747
 1034SOL    MW4 4211   1.125   3.642   1.989 -0.3104 -0.0949 -0.1025
 1035SOL     OW 4212   1.089   3.910   1.875 -0.0729 -0.1719 -0.2352
 1035SOL    HW2 4213   1.100   3.819   1.903  2.0158  0.2739  0.4879
 1035SOL    HW3 4214   1.078   3.904   1.780 -0.8531 -1.2398 -0.0880
 1035SOL    MW4 4215   1.089   3.897   1.866  0.0997 -0.2542 -0.1202
 1036SOL     OW 4216   0.880   4.054   1.952  0.6411  0.0336 -0.2336
 1036SOL    HW2 4217   0.865   4.036   2.045  0.9460 -0.8132 -0.3388
 1036SOL    HW3 4218   0.949   3.992   1.927 -0.7340 -1.0389 -1.4719
 1036SOL    MW4 4219   0.887   4.044   1.961  0.4998 -0.2189 -0.4107
 1037SOL     OW 4220   0.944   4.316   1.857  0.3781 -0.3526  0.1388
 1037SOL    HW2 4221   1.015   4.355   1.908  0.4685 -0.0766 -0.1923
 1037SOL    HW3 4222   0.928   4.232   1.898 -0.3726  0.3796  1.3633
 1037SOL    MW4 4223   0.951   4.310   1.869  0.2910 -0.2189  0.2568
 1038SOL     OW 4224   1.137   4.450   1.980 -0.1706  0.1323 -0.6917
 1038SOL    HW2 4225   1.141   4.427   2.073 -0.3569 -1.8215 -1.1509
 1038SOL    HW3 4226   1.215   4.410   1.942 -1.2951 -1.0497 -1.7872
 1038SOL    MW4 4227   1.148   4.442   1.988 -0.3434 -0.2813 -0.8968
 1039SOL     OW 4228   1.586   0.005   1.827  0.0745 -0.1037  0.3183
 1039SOL    HW2 4229   1.666   0.053   1.849 -0.2323  0.7977 -0.4874
 1039SOL    HW3 4230   1.591  -0.075   1.879  0.6709  0.7303  1.5680
 1039SOL    MW4 4231   1.597   0.001   1.837  0.1127  0.1253  0.3768
 1040SOL     OW 4232   1.368   0.122   1.921 -0.3002  0.4715 -0.0287
 1040SOL    HW2 4233   1.377   0.109   2.015  0.0006 -0.4643 -0.1787
 1040SOL    HW3 4234   1.436   0.067   1.882 -2.2907 -1.4919 -0.9030
 1040SOL    MW4 4235   1.378   0.113   1.928 -0.5232  0.0890 -0.1638
 1041SOL     OW 4236   1.313   0.384   1.823  0.2011  0.3019 -0.1852
 1041SOL    HW2 4237   1.320   0.290   1.834  0.7326  0.4504  0.8453
 1041SOL    HW3 4238   1.288   0.397   1.732  0.5187 -0.8138 -0.4264
 1041SOL    MW4 4239   1.311   0.373   1.813  0.3132  0.1743 -0.0811
 1042SOL     OW 4240   1.532   0.519   1.918 -0.1041  0.1059  0.0994
 1042SOL    HW2 4241   1.614   0.475   1.896  0.2170 -0.9773  3.1652
 1042SOL    HW3 4242   1.463   0.461   1.886  0.3427 -1.2003  1.4300
 1042SOL    MW4 4243   1.534   0.505   1.911 -0.0027 -0.2093  0.6794
 1043SOL     OW 4244   1.593   0.798   1.873 -0.0890  0.5145 -0.2952
 1043SOL    HW2 4245   1.674   0.832   1.910 -0.4433 -0.0846  1.0353
 1043SOL    HW3 4246   1.595   0.704   1.893 -1.6950  0.7051  0.8386
 1043SOL    MW4 4247   1.604   0.790   1.880 -0.3476  0.4606  0.0299
 1044SOL     OW 4248   1.358   0.906   1.976 -0.2295  0.2346 -0.4346
 1044SOL    HW2 4249   1.365   0.912   2.071  0.2629  1.5965 -0.5359
 1044SOL    HW3 4250   1.437   0.860   1.949 -0.1208  0.3020 -0.2302
 1044SOL    MW4 4251   1.369   0.901   1.985 -0.1501  0.4233 -0.4210
 1045SOL     OW 4252   1.366   1.151   1.857 -0.2062  0.3470  0.6511
 1045SOL    HW2 4253   1.376   1.067   1.904  0.3792  0.1085  0.1084
 1045SOL    HW3 4254   1.282   1.185   1.887 -0.4851 -0.4738  0.8227
 1045SOL    MW4 4255   1.356   1.144   1.868 -0.1656  0.2072  0.6020
 1046SOL     OW 4256   1.596   1.296   1.969 -0.0023 -0.3516 -0.3051
 1046SOL    HW2 4257   1.575   1.389   1.956  1.8304  0.0160 -0.8036
 1046SOL    HW3 4258   1.526   1.249   1.925 -0.0136  0.8127 -1.5680
 1046SOL    MW4 4259   1.584   1.302   1.962  0.2378 -0.1495 -0.5375
 1047SOL     OW 4260   1.553   1.556   1.881 -0.0617  0.1975  0.1117
 1047SOL    HW2 4261   1.639   1.578   1.917 -0.4961 -0.4874  1.6244
 1047SOL    HW3 4262   1.492   1.607   1.935 -0.6400  0.2083 -0.5593
 1047SOL    MW4 4263   1.557   1.566   1.893 -0.1954  0.1086  0.2227
 1048SOL     OW 4264   1.368   1.724   1.997  0.4867  0.0022  0.0372
 1048SOL    HW2 4265   1.356   1.705   2.091 -0.1302  0.4562  0.0515
 1048SOL    HW3 4266   1.305   1.666   1.953 -0.3701  0.9557 -0.0025
 1048SOL    MW4 4267   1.358   1.714   2.004  0.2922  0.1880  0.0339
 1049SOL     OW 4268   1.367   1.975   1.875  0.3555  0.2224  0.2068
 1049SOL    HW2 4269   1.381   1.888   1.913 -1.0262 -0.5502 -1.0054
 1049SOL    HW3 4270   1.284   2.004   1.911 -0.0081  0.3199 -0.6982
 1049SOL    MW4 4271   1.358   1.967   1.884  0.1252  0.1334 -0.0726
 1050SOL     OW 4272   1.597   2.086   1.946  0.0415 -0.4840  0.2012
 1050SOL    HW2 4273   1.597   2.181   1.930  1.3422 -0.6813 -1.1650
 1050SOL    HW3 4274   1.517   2.054   1.905 -0.2978  0.0038  0.4853
 1050SOL    MW4 4275   1.587   2.095   1.938  0.1684 -0.4456  0.0584
 1051SOL     OW 4276   1.607   2.357   1.891  0.6147  0.2532  0.3530
 1051SOL    HW2 4277   1.674   2.421   1.914  0.0255  1.7797 -1.9601
 1051SOL    HW3 4278   1.611   2.351   1.795 -1.3992 -0.9129  0.3002
 1051SOL    MW4 4279   1.616   2.364   1.881  0.2712  0.3006  0.0408
 1052SOL     OW 4280   1.343   2.425   1.938 -0.1061  0.0173  0.4627
 1052SOL    HW2 4281   1.350   2.509   1.893 -0.3767  0.4146  1.1608
 1052SOL    HW3 4282   1.429   2.384   1.924 -0.2718  0.0294 -0.6169
 1052SOL    MW4 4283   1.355   2.431   1.931 -0.1636  0.0710  0.4123
 1053SOL     OW 4284   1.356   2.678   1.843 -0.2127  0.2025  0.3971
 1053SOL    HW2 4285   1.277   2.721   1.877  0.2277  0.7483  0.7418
 1053SOL    HW3 4286   1.339   2.667   1.749 -0.5705  0.6042  0.4133
 1053SOL    MW4 4287   1.343   2.682   1.835 -0.2018  0.3273  0.4448
 1054SOL     OW 4288   1.576   2.831   1.915 -0.4666 -0.1513  0.4860
 1054SOL    HW2 4289   1.560   2.840   2.009  0.3641  0.3524  0.5871
 1054SOL    HW3 4290   1.502   2.779   1.882 -1.6303  1.0745  1.1364
 1054SOL    MW4 4291   1.564   2.825   1.923 -0.5105  0.0768  0.5852
 1055SOL     OW 4292   1.541   3.110   1.845  0.1845  0.9158  0.1767
 1055SOL    HW2 4293   1.555   3.016   1.854  2.0762  1.3298  2.0391
 1055SOL    HW3 4294   1.540   3.126   1.751 -1.1570 -1.0879 -0.1675
 1055SOL    MW4 4295   1.543   3.100   1.834  0.2570  0.7060  0.3769
 1056SOL     OW 4296   1.332   3.253   1.935  0.1504  0.1817  0.7476
 1056SOL    HW2 4297   1.400   3.191   1.906 -0.1535  0.2431 -0.1098
 1056SOL    HW3 4298   1.250   3.215   1.902  0.0042  1.2547 -0.1247
 1056SOL    MW4 4299   1.330   3.240   1.927  0.0908  0.3314  0.5193
 1057SOL     OW 4300   1.375   3.511   1.874 -0.5470  0.4618 -0.1704
 1057SOL    HW2 4301   1.359   3.418   1.891 -0.6165  0.3012 -1.0727
 1057SOL    HW3 4302   1.309   3.557   1.926 -0.4314  0.0173  0.3759
 1057SOL    MW4 4303   1.364   3.505   1.883 -0.5410  0.3819 -0.2173
 1058SOL     OW 4304   1.599   3.615   1.961 -0.4622 -0.2127 -0.0426
 1058SOL    HW2 4305   1.575   3.609   2.053  0.2138 -0.8951  0.0841
 1058SOL    HW3 4306   1.524   3.578   1.914 -1.0085  0.5657  0.2016
 1058SOL    MW4 4307   1.586   3.610   1.967 -0.4450 -0.1998  0.0063
 1059SOL     OW 4308   1.581   3.880   1.857 -0.1084 -0.1440  0.0994
 1059SOL    HW2 4309   1.648   3.935   1.897 -2.2120  0.1364  3.4394
 1059SOL    HW3 4310   1.595   3.794   1.895 -2.5879  0.2848  2.1358
 1059SOL    MW4 4311   1.591   3.876   1.867 -0.7131 -0.0505  0.8090
 1060SOL     OW 4312   1.336   4.011   1.961  0.1567 -0.0941 -0.6500
 1060SOL    HW2 4313   1.412   3.962   1.929 -0.0897 -2.4140  2.1100
 1060SOL    HW3 4314   1.261   3.961   1.930 -0.1278 -0.7059  0.9926
 1060SOL    MW4 4315   1.336   3.998   1.953  0.0868 -0.4809 -0.0690
 1061SOL     OW 4316   1.345   4.292   1.867  0.2199  0.2467  0.0878
 1061SOL    HW2 4317   1.334   4.204   1.903  0.5954 -0.1870 -0.8321
 1061SOL    HW3 4318   1.359   4.278   1.773 -0.3597  1.3318 -0.1723
 1061SOL    MW4 4319   1.346   4.279   1.859  0.1931  0.3324 -0.0678
 1062SOL     OW 4320   1.572   4.412   1.962  0.7914 -0.1737  0.5017
 1062SOL    HW2 4321   1.574   4.407   2.057  0.4673  0.9821  0.5810
 1062SOL    HW3 4322   1.485   4.379   1.938  0.4384  0.6288  0.6829
 1062SOL    MW4 4323   1.560   4.407   1.971  0.7020  0.0844  0.5361
 1063SOL     OW 4324   2.021   4.652   1.828 -0.3169 -0.1843  0.3542
 1063SOL    HW2 4325   2.096   4.695   1.870 -0.3185 -0.0242  0.1903
 1063SOL    HW3 4326   2.014   4.568   1.874  0.2796 -0.4199  0.0285
 1063SOL    MW4 4327   2.030   4.646   1.840 -0.2384 -0.1945  0.2896
 1064SOL     OW 4328   1.811   0.136   1.937  0.1261  0.0618 -0.1923
 1064SOL    HW2 4329   1.814   0.115   2.030  0.2789 -2.2456 -0.7010
 1064SOL    HW3 4330   1.875   0.078   1.897 -0.4991  0.4840 -1.8307
 1064SOL    MW4 4331   1.820   0.126   1.944  0.0638 -0.1869 -0.4755
 1065SOL     OW 4332   1.775   0.418   1.855  0.2793  0.4281 -0.1234
 1065SOL    HW2 4333   1.772   0.323   1.868 -1.4837  0.5836  0.8145
 1065SOL    HW3 4334   1.795   0.429   1.762 -1.4209 -0.9041 -0.6778
 1065SOL    MW4 4335   1.777   0.407   1.845 -0.1775  0.2728 -0.0728
 1066SOL     OW 4336   2.025   0.509   1.950  0.0516  0.3164  0.0928
 1066SOL    HW2 4337   2.024   0.598   1.914  0.9084 -0.0151 -0.7516
 1066SOL    HW3 4338   1.936   0.476   1.933 -0.4469  1.2049  0.9173
 1066SOL    MW4 4339   2.013   0.517   1.943  0.0989  0.3899  0.0901
 1067SOL     OW 4340   2.023   0.761   1.853  0.0473  0.3961 -0.1264
 1067SOL    HW2 4341   2.094   0.804   1.900  0.8786  0.2677 -1.2586
 1067SOL    HW3 4342   2.043   0.774   1.761 -0.9195 -0.4287 -0.4678
 1067SOL    MW4 4343   2.035   0.768   1.847  0.0293  0.2704 -0.3208
 1068SOL     OW 4344   1.829   0.895   1.987  0.1015 -0.6327  0.5392
 1068SOL    HW2 4345   1.842   0.987   1.962 -0.9109 -0.2940  1.2037
 1068SOL    HW3 4346   1.891   0.846   1.932  0.6050  0.4362  0.1309
 1068SOL    MW4 4347   1.839   0.901   1.976  0.0342 -0.4469  0.5730
 1069SOL     OW 4348   1.821   1.148   1.858 -0.2351 -0.0687  0.0838
 1069SOL    HW2 4349   1.750   1.207   1.881 -0.4065 -0.3993  0.4025
 1069SOL    HW3 4350   1.801   1.120   1.768  0.0211  0.6093 -0.1870
 1069SOL    MW4 4351   1.809   1.152   1.849 -0.2239 -0.0228  0.0901
 1070SOL     OW 4352   2.021   1.297   1.946 -0.0923  0.2053 -0.0442
 1070SOL    HW2 4353   2.097   1.252   1.909 -0.1016 -0.4880  0.7690
 1070SOL    HW3 4354   1.945   1.250   1.912 -0.1562  0.7178 -0.6226
 1070SOL    MW4 4355   2.021   1.285   1.937 -0.1018  0.1813 -0.0131
 1071SOL     OW 4356   2.026   1.563   1.869  0.5446 -0.3327  0.2287
 1071SOL    HW2 4357   2.025   1.471   1.896 -1.3382 -0.9509 -1.7571
 1071SOL    HW3 4358   2.015   1.560   1.774 -0.6416  1.9828  0.2527
 1071SOL    MW4 4359   2.024   1.551   1.860  0.1397 -0.1087 -0.0300
 1072SOL     OW 4360   1.803   1.638   1.984 -0.2693 -0.2712 -0.2915
 1072SOL    HW2 4361   1.791   1.727   1.951  0.2664  0.3787  1.2224
 1072SOL    HW3 4362   1.878   1.604   1.936 -0.0755  0.3284 -0.4154
 1072SOL    MW4 4363   1.811   1.645   1.974 -0.1731 -0.1063 -0.1081
 1073SOL     OW 4364   1.788   1.885   1.877 -0.0932 -0.2532  0.0989
 1073SOL    HW2 4365   1.725   1.954   1.896 -1.1356 -1.0640 -0.3539
 1073SOL    HW3 4366   1.799   1.888   1.782 -0.6385 -1.1200  0.0001
 1073SOL    MW4 4367   1.781   1.894   1.867 -0.3027 -0.4746  0.0260
 1074SOL     OW 4368   1.986   2.064   1.974 -0.0560  0.2194 -0.0453
 1074SOL    HW2 4369   2.064   2.020   1.941  0.8423 -0.4669  2.8522
 1074SOL    HW3 4370   1.915   2.002   1.961 -0.1427  0.8099 -2.6095
 1074SOL    MW4 4371   1.987   2.050   1.968  0.0510  0.2069 -0.0012
 1075SOL     OW 4372   2.034   2.333   1.885 -0.7414  0.1420  0.3989
 1075SOL    HW2 4373   2.117   2.346   1.931 -1.8414  2.1128  1.9601
 1075SOL    HW3 4374   2.008   2.244   1.906  0.3116 -0.0280  1.0201
 1075SOL    MW4 4375   2.042   2.323   1.894 -0.7474  0.3796  0.6869
 1076SOL     OW 4376   1.829   2.513   1.956 -0.1735 -0.3130 -0.0539
 1076SOL    HW2 4377   1.833   2.506   2.051  0.1678  1.2435  0.0619
 1076SOL    HW3 4378   1.893   2.450   1.924  0.0763 -0.4793  0.7747
 1076SOL    MW4 4379   1.838   2.504   1.964 -0.0954 -0.1297  0.0707
 1077SOL     OW 4380   1.816   2.746   1.803 -0.0358 -0.0585 -0.4325
 1077SOL    HW2 4381   1.826   2.662   1.848  0.9774  0.0720 -0.4027
 1077SOL    HW3 4382   1.736   2.783   1.840  0.0084 -0.5985  0.2261
 1077SOL    MW4 4383   1.807   2.740   1.814  0.1037 -0.1125 -0.3417
 1078SOL     OW 4384   2.033   2.867   1.917  0.2783 -0.1155  0.2255
 1078SOL    HW2 4385   2.034   2.836   2.008  1.5036 -1.5864 -0.2650
 1078SOL    HW3 4386   1.953   2.829   1.880 -0.6844  1.2083  0.9170
 1078SOL    MW4 4387   2.023   2.858   1.924  0.3130 -0.1349  0.2520
 1079SOL     OW 4388   2.028   3.170   1.856  0.3041 -0.3486  0.0291
 1079SOL    HW2 4389   1.936   3.193   1.873  0.2681 -0.2914 -0.2498
 1079SOL    HW3 4390   2.035   3.078   1.883  0.1562 -0.3628  0.0191
 1079SOL    MW4 4391   2.017   3.160   1.862  0.2797 -0.3428 -0.0089
 1080SOL     OW 4392   1.772   3.245   1.901  0.0892 -0.4975 -0.1561
 1080SOL    HW2 4393   1.764   3.243   1.997 -0.3890  0.9313 -0.1548
 1080SOL    HW3 4394   1.690   3.207   1.870 -0.1003 -0.2234  0.0029
 1080SOL    MW4 4395   1.760   3.240   1.910  0.0012 -0.2728 -0.1351
 1081SOL     OW 4396   1.852   3.500   1.875  0.1001 -0.5113  0.6394
 1081SOL    HW2 4397   1.833   3.407   1.862  0.5397 -0.3981 -0.7914
 1081SOL    HW3 4398   1.768   3.538   1.900 -0.0414 -1.3138  1.4440
 1081SOL    MW4 4399   1.839   3.493   1.877  0.1394 -0.6020  0.5568
 1082SOL     OW 4400   2.065   3.675   1.989  0.4658  0.0240 -0.0454
 1082SOL    HW2 4401   2.049   3.744   1.925  0.8959 -0.8632 -1.1330
 1082SOL    HW3 4402   2.016   3.600   1.956  0.8122 -0.4859  0.5822
 1082SOL    MW4 4403   2.057   3.674   1.976  0.5684 -0.1605 -0.1061
 1083SOL     OW 4404   2.033   3.891   1.824  0.2396  0.3592  0.0427
 1083SOL    HW2 4405   2.111   3.929   1.865  1.4440 -2.7130  0.6911
 1083SOL    HW3 4406   2.051   3.895   1.730  1.3672 -0.6989  0.2049
 1083SOL    MW4 4407   2.045   3.897   1.817  0.5474 -0.1857  0.1496
 1084SOL     OW 4408   1.808   4.023   1.943 -0.0899 -0.1346 -0.0226
 1084SOL    HW2 4409   1.802   4.113   1.911 -0.3370 -0.2184 -0.2089
 1084SOL    HW3 4410   1.882   3.985   1.895  0.6020  0.2419  0.7168
 1084SOL    MW4 4411   1.817   4.030   1.933 -0.0311 -0.0963  0.0504
 1085SOL     OW 4412   1.779   4.287   1.823 -0.1935  0.4448  0.1445
 1085SOL    HW2 4413   1.701   4.340   1.840 -1.0513 -0.4079 -1.0310
 1085SOL    HW3 4414   1.797   4.300   1.730  0.2938 -0.3600  0.1185
 1085SOL    MW4 4415   1.771   4.295   1.813 -0.2425  0.2260 -0.0139
 1086SOL     OW 4416   2.010   4.385   1.987 -0.1006 -0.1944  0.2922
 1086SOL    HW2 4417   2.085   4.334   1.956 -0.0003 -0.1145  0.4013
 1086SOL    HW3 4418   1.935   4.349   1.940  0.1066  0.1915 -0.3293
 1086SOL    MW4 4419   2.010   4.373   1.977 -0.0598 -0.1335  0.2246
 1087SOL     OW 4420   2.471   4.663   1.886  0.3652 -0.0929  0.0954
 1087SOL    HW2 4421   2.562   4.689   1.899  0.9121 -1.4052 -0.9214
 1087SOL    HW3 4422   2.469   4.571   1.911 -0.4367 -0.3482 -0.8934
 1087SOL    MW4 4423   2.483   4.654   1.891  0.3316 -0.2998 -0.1692
 1088SOL     OW 4424   2.240   0.130   1.956  0.1953 -0.1494  0.0317
 1088SOL    HW2 4425   2.242   0.138   2.051  0.8889 -0.5742  0.0600
 1088SOL    HW3 4426   2.317   0.076   1.935  1.2267  1.6459 -0.9293
 1088SOL    MW4 4427   2.251   0.124   1.965  0.4232  0.0314 -0.0913
 1089SOL     OW 4428   2.239   0.393   1.840  0.8950  0.1792  0.0941
 1089SOL    HW2 4429   2.242   0.308   1.884 -1.0680  0.6146  1.1636
 1089SOL    HW3 4430   2.166   0.439   1.882  1.3395  2.0494 -1.0940
 1089SOL    MW4 4431   2.230   0.388   1.852  0.6945  0.4834  0.0784
 1090SOL     OW 4432   2.475   0.513   1.964  0.4803 -0.1267 -0.0979
 1090SOL    HW2 4433   2.550   0.468   1.924  0.6032  1.0997 -1.2553
 1090SOL    HW3 4434   2.398   0.465   1.931  0.6145  0.4624 -1.2611
 1090SOL    MW4 4435   2.474   0.501   1.954  0.5140  0.1129 -0.4041
 1091SOL     OW 4436   2.464   0.767   1.861  0.4969  0.0493  0.1325
 1091SOL    HW2 4437   2.476   0.676   1.888  1.9210  0.1937  0.0194
 1091SOL    HW3 4438   2.478   0.766   1.767 -0.6744  0.1967 -0.0511
 1091SOL    MW4 4439   2.467   0.755   1.852  0.5302  0.0879  0.0933
 1092SOL     OW 4440   2.234   0.886   1.976 -0.0218 -0.3631 -0.5536
 1092SOL    HW2 4441   2.238   0.891   2.072 -0.8700 -1.5919 -0.4423
 1092SOL    HW3 4442   2.314   0.840   1.951 -1.1912 -2.7019 -0.1857
 1092SOL    MW4 4443   2.245   0.880   1.986 -0.2880 -0.8338 -0.4904
 1093SOL     OW 4444   2.242   1.150   1.863 -0.2727  0.4378 -0.0969
 1093SOL    HW2 4445   2.320   1.191   1.899 -1.5016  1.1851  1.7404
 1093SOL    HW3 4446   2.237   1.064   1.906  0.0684 -0.0227 -0.9538
 1093SOL    MW4 4447   2.252   1.144   1.873 -0.3898  0.4756  0.0323
 1094SOL     OW 4448   2.487   1.271   1.954  0.2932  0.0061  0.5301
 1094SOL    HW2 4449   2.480   1.270   2.049  1.3229 -0.3640  0.6130
 1094SOL    HW3 4450   2.481   1.363   1.930 -0.4311  0.0609  0.9110
 1094SOL    MW4 4451   2.485   1.283   1.963  0.3335 -0.0354  0.5912
 1095SOL     OW 4452   2.472   1.547   1.855 -0.0654 -0.3766  0.2857
 1095SOL    HW2 4453   2.393   1.598   1.871  0.8226  0.6441  1.5394
 1095SOL    HW3 4454   2.490   1.559   1.762 -0.6608  0.4613  0.2716
 1095SOL    MW4 4455   2.464   1.556   1.845 -0.0265 -0.1314  0.4493
 1096SOL     OW 4456   2.262   1.694   1.946  0.0676 -0.3188  0.2229
 1096SOL    HW2 4457   2.268   1.692   2.042 -1.3298  0.4437  0.3468
 1096SOL    HW3 4458   2.186   1.639   1.926  1.4260 -1.9806 -0.5981
 1096SOL    MW4 4459   2.253   1.686   1.956  0.0622 -0.4375  0.1310
 1097SOL     OW 4460   2.218   1.962   1.858 -0.0115 -0.0880 -0.0247
 1097SOL    HW2 4461   2.298   2.007   1.883 -0.4195  0.2322  0.7352
 1097SOL    HW3 4462   2.227   1.874   1.895 -0.3511  0.1968  0.7562
 1097SOL    MW4 4463   2.229   1.956   1.866 -0.1101 -0.0081  0.1787
 1098SOL     OW 4464   2.460   2.088   1.947 -0.0756 -0.0973 -0.0585
 1098SOL    HW2 4465   2.543   2.052   1.915  0.1686 -0.9304  1.4628
 1098SOL    HW3 4466   2.453   2.174   1.905  1.3414 -0.2070 -0.5369
 1098SOL    MW4 4467   2.470   2.095   1.937  0.1435 -0.2220  0.0792
 1099SOL     OW 4468   2.468   2.340   1.842  0.0811 -0.2717  0.2690
 1099SOL    HW2 4469   2.545   2.367   1.892  0.5877 -0.6901 -0.2883
 1099SOL    HW3 4470   2.394   2.372   1.894  0.6370  0.5211  0.5811
 1099SOL    MW4 4471   2.468   2.348   1.856  0.2213 -0.2222  0.2366
 1100SOL     OW 4472   2.267   2.447   1.991  0.0448 -0.2413  0.0317
 1100SOL    HW2 4473   2.284   2.449   2.085  1.5056 -0.2101 -0.2117
 1100SOL    HW3 4474   2.251   2.538   1.967 -1.1592 -0.3513  0.3782
 1100SOL    MW4 4475   2.267   2.459   2.000  0.0787 -0.2518  0.0455
 1101SOL     OW 4476   2.242   2.696   1.854 -0.2571  0.4353 -0.2713
 1101SOL    HW2 4477   2.170   2.757   1.872 -0.0861  0.9850 -1.4292
 1101SOL    HW3 4478   2.245   2.689   1.759  0.9268  0.0549 -0.2196
 1101SOL    MW4 4479   2.233   2.703   1.844 -0.0787  0.4575 -0.4172
 1102SOL     OW 4480   2.465   2.810   1.962 -0.6575  0.0848  0.1915
 1102SOL    HW2 4481   2.467   2.904   1.945  0.3092 -0.1064 -0.8281
 1102SOL    HW3 4482   2.395   2.777   1.907  0.1924 -0.0428 -0.8203
 1102SOL    MW4 4483   2.456   2.818   1.953 -0.4182  0.0432 -0.0767
 1103SOL     OW 4484   2.470   3.074   1.886 -0.0638  0.1767  0.6992
 1103SOL    HW2 4485   2.416   3.139   1.931 -0.9689 -0.5963  0.7455
 1103SOL    HW3 4486   2.456   3.092   1.793 -0.7575 -0.3004  0.7062
 1103SOL    MW4 4487   2.461   3.085   1.879 -0.2749  0.0117  0.7063
 1104SOL     OW 4488   2.255   3.270   1.967 -0.1999 -0.3484 -0.4677
 1104SOL    HW2 4489   2.231   3.267   2.060 -0.0338 -1.0221 -0.4410
 1104SOL    HW3 4490   2.183   3.226   1.922 -0.0431 -0.4643 -0.6064
 1104SOL    MW4 4491   2.243   3.264   1.973 -0.1571 -0.4528 -0.4826
 1105SOL     OW 4492   2.236   3.517   1.845 -0.0980 -0.0385  0.0504
 1105SOL    HW2 4493   2.247   3.435   1.893 -1.2242 -1.2670 -1.7191
 1105SOL    HW3 4494   2.194   3.576   1.907  0.4099 -0.9063  1.2364
 1105SOL    MW4 4495   2.232   3.514   1.859 -0.1798 -0.3147 -0.0265
 1106SOL     OW 4496   2.491   3.571   1.933 -0.0015 -0.0254 -0.3065
 1106SOL    HW2 4497   2.478   3.596   2.024  0.7242  0.9371 -0.4578
 1106SOL    HW3 4498   2.403   3.553   1.900 -0.4746  1.6170  0.0300
 1106SOL    MW4 4499   2.478   3.572   1.941  0.0319  0.3183 -0.2820
 1107SOL     OW 4500   2.511   3.854   1.857 -0.3317 -0.2153 -0.1426
 1107SOL    HW2 4501   2.421   3.885   1.858 -0.2829 -0.0480  2.3158
 1107SOL    HW3 4502   2.505   3.763   1.887  0.3354 -0.0671  0.4676
 1107SOL    MW4 4503   2.499   3.846   1.861 -0.2372 -0.1738  0.2623
 1108SOL     OW 4504   2.276   3.990   1.932  0.7746  0.1177 -0.0462
 1108SOL    HW2 4505   2.268   3.998   2.027  1.4829 -0.4566  0.0620
 1108SOL    HW3 4506   2.267   4.080   1.899 -1.9083  0.0499  0.3727
 1108SOL    MW4 4507   2.274   4.003   1.940  0.5140  0.0334  0.0232
 1109SOL     OW 4508   2.229   4.249   1.856  0.2101 -0.1620 -0.0553
 1109SOL    HW2 4509   2.307   4.294   1.890 -0.2789 -0.4238  1.4649
 1109SOL    HW3 4510   2.232   4.263   1.762  1.0813  1.4677  0.1943
 1109SOL    MW4 4511   2.239   4.257   1.848  0.2606  0.0191  0.1782
 1110SOL     OW 4512   2.456   4.389   1.954  0.4541 -0.2277 -0.0856
 1110SOL    HW2 4513   2.473   4.382   2.048 -1.8155 -2.9073  0.1963
 1110SOL    HW3 4514   2.537   4.359   1.913  0.6160 -1.4085  1.0534
 1110SOL    MW4 4515   2.469   4.384   1.961  0.1760 -0.7372  0.1019
 1111SOL     OW 4516   2.928   4.654   1.843 -0.3055 -0.4296 -0.3733
 1111SOL    HW2 4517   3.001   4.705   1.878 -2.3582  2.8650 -0.5785
 1111SOL    HW3 4518   2.924   4.576   1.897  1.6866  0.6351  1.3808
 1111SOL    MW4 4519   2.937   4.651   1.854 -0.3135  0.1456 -0.1689
 1112SOL     OW 4520   2.708   0.119   1.939  0.3081 -0.1917 -0.0756
 1112SOL    HW2 4521   2.728   0.130   2.031  0.2575  0.8883 -0.1861
 1112SOL    HW3 4522   2.785   0.075   1.902  0.3117 -0.6505  0.4849
 1112SOL    MW4 4523   2.721   0.115   1.946  0.3018 -0.1097 -0.0162
 1113SOL     OW 4524   2.699   0.376   1.850  0.0662 -0.2464 -0.0227
 1113SOL    HW2 4525   2.772   0.431   1.877  0.9194 -1.5208  0.3034
 1113SOL    HW3 4526   2.719   0.289   1.885 -1.5786 -0.6349  0.0279
 1113SOL    MW4 4527   2.711   0.372   1.858 -0.0381 -0.4658  0.0271
 1114SOL     OW 4528   2.921   0.501   1.972 -0.2778 -0.4165  0.3236
 1114SOL    HW2 4529   2.995   0.464   1.924  0.8923 -1.1888  2.6376
 1114SOL    HW3 4530   2.918   0.593   1.946  0.6520 -0.6965 -0.7874
 1114SOL    MW4 4531   2.930   0.509   1.963 -0.0007 -0.5553  0.4823
 1115SOL     OW 4532   2.906   0.772   1.837 -0.0380 -0.2305  0.5625
 1115SOL    HW2 4533   2.983   0.809   1.880 -0.4293 -0.9878  1.9551
 1115SOL    HW3 4534   2.831   0.817   1.877 -0.3387  0.5654 -0.8435
 1115SOL    MW4 4535   2.906   0.782   1.848 -0.1295 -0.2255  0.5606
 1116SOL     OW 4536   2.694   0.881   1.978 -0.0757 -0.3921  0.2401
 1116SOL    HW2 4537   2.722   0.958   1.929  1.4198 -1.4020 -0.5372
 1116SOL    HW3 4538   2.618   0.848   1.930  0.1460 -0.2085 -0.2376
 1116SOL    MW4 4539   2.688   0.887   1.965  0.1507 -0.5011  0.0745
 1117SOL     OW 4540   2.711   1.102   1.826  0.1921  0.3820  0.2365
 1117SOL    HW2 4541   2.637   1.155   1.854  0.0476 -0.2145  1.0124
 1117SOL    HW3 4542   2.727   1.128   1.736 -1.2206  0.2312 -0.0729
 1117SOL    MW4 4543   2.704   1.112   1.818 -0.0134  0.2834  0.2981
 1118SOL     OW 4544   2.904   1.248   1.979  0.6722 -0.0103  0.0146
 1118SOL    HW2 4545   2.905   1.342   1.960  1.6651  0.0190  0.1997
 1118SOL    HW3 4546   2.842   1.211   1.916 -0.0299  0.8227  0.2043
 1118SOL    MW4 4547   2.896   1.256   1.968  0.7107  0.1035  0.0640
 1119SOL     OW 4548   2.888   1.488   1.859  0.4505 -0.5013 -0.1067
 1119SOL    HW2 4549   2.958   1.541   1.897  0.1172 -0.4469  0.4420
 1119SOL    HW3 4550   2.891   1.507   1.765  0.7622 -0.0209 -0.0007
 1119SOL    MW4 4551   2.897   1.498   1.851  0.4478 -0.4307 -0.0204
 1120SOL     OW 4552   2.692   1.691   1.947 -0.2220 -0.0412 -0.0177
 1120SOL    HW2 4553   2.749   1.621   1.915  0.0443  0.6110 -0.9925
 1120SOL    HW3 4554   2.603   1.660   1.929 -0.1628 -0.7292  0.8246
 1120SOL    MW4 4555   2.688   1.678   1.941 -0.1793 -0.0458 -0.0352
 1121SOL     OW 4556   2.682   1.934   1.829  0.0588  0.1459  0.3606
 1121SOL    HW2 4557   2.763   1.965   1.869 -0.8285  1.2604  1.3064
 1121SOL    HW3 4558   2.674   1.843   1.858  0.6841  0.2010  0.7096
 1121SOL    MW4 4559   2.692   1.926   1.838  0.0243  0.3002  0.5313
 1122SOL     OW 4560   2.900   2.067   1.968  0.1226  0.6581 -0.2691
 1122SOL    HW2 4561   2.897   2.068   2.063 -0.5798 -0.3195 -0.2622
 1122SOL    HW3 4562   2.968   2.002   1.947 -0.1939  0.3720 -0.4236
 1122SOL    MW4 4563   2.909   2.058   1.978 -0.0122  0.4911 -0.2886
 1123SOL     OW 4564   2.920   2.308   1.835 -0.1006 -0.4080  0.1959
 1123SOL    HW2 4565   2.988   2.345   1.891 -0.6174 -0.5452  0.9266
 1123SOL    HW3 4566   2.901   2.223   1.874  0.0739 -0.8366 -0.6412
 1123SOL    MW4 4567   2.926   2.302   1.847 -0.1462 -0.4826  0.1819
 1124SOL     OW 4568   2.716   2.455   1.949 -0.4013  0.4308  0.0483
 1124SOL    HW2 4569   2.714   2.544   1.914 -0.9552  0.0810 -0.8385
 1124SOL    HW3 4570   2.786   2.412   1.901  0.1166  0.4873  0.7434
 1124SOL    MW4 4571   2.725   2.461   1.938 -0.4060  0.3922  0.0230
 1125SOL     OW 4572   2.732   2.736   1.875 -0.2013 -0.0025  0.1108
 1125SOL    HW2 4573   2.649   2.751   1.921  0.0858  0.7278  0.3861
 1125SOL    HW3 4574   2.706   2.718   1.785 -0.6340  0.8246  0.0633
 1125SOL    MW4 4575   2.717   2.736   1.869 -0.2205  0.2027  0.1408
 1126SOL     OW 4576   2.964   2.824   1.987  0.1009  0.3577 -0.4424
 1126SOL    HW2 4577   2.975   2.918   1.970  0.4941  0.6485  1.3528
 1126SOL    HW3 4578   2.884   2.801   1.939 -0.2124  1.6992 -0.5972
 1126SOL    MW4 4579   2.955   2.833   1.979  0.1116  0.5732 -0.2261
 1127SOL     OW 4580   2.942   3.069   1.873  0.2299 -0.0703 -0.3238
 1127SOL    HW2 4581   3.017   3.127   1.889  0.9400 -0.6297 -1.6103
 1127SOL    HW3 4582   2.869   3.112   1.918  0.7673  1.7720 -1.1547
 1127SOL    MW4 4583   2.942   3.083   1.881  0.3946  0.0987 -0.6031
 1128SOL     OW 4584   2.703   3.188   1.959 -0.0839 -0.5560 -0.3066
 1128SOL    HW2 4585   2.621   3.148   1.929  0.2177 -1.0352 -0.4945
 1128SOL    HW3 4586   2.691   3.198   2.054 -0.3605 -0.6258 -0.3320
 1128SOL    MW4 4587   2.690   3.184   1.968 -0.0806 -0.6285 -0.3347
 1129SOL     OW 4588   2.717   3.451   1.855  0.2560  0.0280 -0.4258
 1129SOL    HW2 4589   2.643   3.502   1.889  0.2902  0.9593 -1.7186
 1129SOL    HW3 4590   2.707   3.365   1.895 -1.1355  0.3619 -0.0315
 1129SOL    MW4 4591   2.706   3.447   1.865  0.0770  0.1948 -0.5444
 1130SOL     OW 4592   2.912   3.584   1.984 -0.1434 -0.1234 -0.3992
 1130SOL    HW2 4593   2.888   3.578   2.076  0.4851  1.1608 -0.1553
 1130SOL    HW3 4594   2.843   3.535   1.939 -0.4365 -0.7837  0.7448
 1130SOL    MW4 4595   2.900   3.576   1.990 -0.0992 -0.0410 -0.2162
 1131SOL     OW 4596   2.896   3.888   1.926 -0.5849  0.4536  0.2457
 1131SOL    HW2 4597   2.899   3.802   1.969  0.0782  0.5256  0.3413
 1131SOL    HW3 4598   2.866   3.869   1.837  1.6823 -0.1437 -0.4168
 1131SOL    MW4 4599   2.893   3.874   1.920 -0.1984  0.3843  0.1709
 1132SOL     OW 4600   2.670   4.038   1.996  0.2506  0.4811  0.3908
 1132SOL    HW2 4601   2.754   3.997   1.976 -0.2119 -0.6473  0.7601
 1132SOL    HW3 4602   2.605   3.971   1.975 -0.5266  1.1313  0.7021
 1132SOL    MW4 4603   2.672   4.024   1.990  0.0870  0.4177  0.4804
 1133SOL     OW 4604   2.692   4.288   1.862 -0.1230  0.0216  0.4380
 1133SOL    HW2 4605   2.682   4.202   1.903 -1.3038  0.3570  0.8534
 1133SOL    HW3 4606   2.707   4.268   1.769  0.8109 -0.6689  0.7300
 1133SOL    MW4 4607   2.693   4.274   1.855 -0.1557 -0.0248  0.5313
 1134SOL     OW 4608   2.919   4.404   1.965  0.4142 -0.5329 -0.3010
 1134SOL    HW2 4609   2.916   4.394   2.060  0.0546  0.5282 -0.1966
 1134SOL    HW3 4610   2.834   4.374   1.934  0.0275  0.4050 -0.1592
 1134SOL    MW4 4611   2.907   4.399   1.973  0.3157 -0.2689 -0.2686
 1135SOL     OW 4612   3.362   4.648   1.860 -0.1410 -0.0217  0.1126
 1135SOL    HW2 4613   3.355   4.560   1.897 -0.8037 -0.3354 -0.7640
 1135SOL    HW3 4614   3.395   4.635   1.771 -1.3694  0.5288 -0.4341
 1135SOL    MW4 4615   3.366   4.635   1.853 -0.3905  0.0095 -0.0751
 1136SOL     OW 4616   3.135   0.131   1.940 -0.0359  0.0070 -0.1447
 1136SOL    HW2 4617   3.139   0.154   2.033 -0.7738 -0.7989  0.0914
 1136SOL    HW3 4618   3.210   0.074   1.926 -0.3464 -0.4708  0.1294
 1136SOL    MW4 4619   3.146   0.127   1.950 -0.1743 -0.1624 -0.0774
 1137SOL     OW 4620   3.137   0.387   1.843  0.7283  0.0727  0.2921
 1137SOL    HW2 4621   3.134   0.294   1.863 -2.5919  0.2622  1.0211
 1137SOL    HW3 4622   3.174   0.392   1.755 -0.4897 -2.0736 -0.3702
 1137SOL    MW4 4623   3.141   0.376   1.834  0.1297 -0.1855  0.3008
 1138SOL     OW 4624   3.387   0.503   1.961  0.2878 -0.2264  0.0632
 1138SOL    HW2 4625   3.450   0.441   1.921  0.4383  0.0425 -0.1182
 1138SOL    HW3 4626   3.302   0.471   1.932  0.3654 -0.3411 -0.0453
 1138SOL    MW4 4627   3.384   0.490   1.952  0.3178 -0.2061  0.0249
 1139SOL     OW 4628   3.391   0.750   1.856 -0.5672 -0.4933  0.0941
 1139SOL    HW2 4629   3.323   0.800   1.903  0.2634  0.2471  0.5171
 1139SOL    HW3 4630   3.392   0.665   1.900  0.1593  0.1703  1.3902
 1139SOL    MW4 4631   3.382   0.745   1.868 -0.3619 -0.3080  0.3208
 1140SOL     OW 4632   3.139   0.884   1.954 -0.6638 -0.1983  0.0976
 1140SOL    HW2 4633   3.141   0.878   2.049  1.8707 -0.1859  0.0769
 1140SOL    HW3 4634   3.140   0.978   1.936 -1.1611 -0.2002  0.0373
 1140SOL    MW4 4635   3.139   0.895   1.964 -0.3951 -0.1969  0.0869
 1141SOL     OW 4636   3.140   1.143   1.851 -0.0238 -0.3814  0.1379
 1141SOL    HW2 4637   3.216   1.183   1.893 -0.8327  1.0614  0.2552
 1141SOL    HW3 4638   3.065   1.172   1.903 -0.6573 -1.8309  0.0557
 1141SOL    MW4 4639   3.140   1.152   1.863 -0.2139 -0.3824  0.1426
 1142SOL     OW 4640   3.372   1.255   1.955  0.0748  0.3974  0.9898
 1142SOL    HW2 4641   3.367   1.259   2.050  0.2151  2.2039  0.9385
 1142SOL    HW3 4642   3.350   1.343   1.926  0.1161 -0.1135 -0.6497
 1142SOL    MW4 4643   3.369   1.267   1.964  0.0987  0.5683  0.7665
 1143SOL     OW 4644   3.331   1.519   1.896  0.6100 -0.2656  0.4653
 1143SOL    HW2 4645   3.411   1.568   1.917  0.5440 -0.2560  0.6907
 1143SOL    HW3 4646   3.262   1.562   1.947  0.5348 -0.5364  0.5893
 1143SOL    MW4 4647   3.333   1.531   1.905  0.5915 -0.3000  0.5114
 1144SOL     OW 4648   3.092   1.651   1.960  0.1648  0.3342  0.2905
 1144SOL    HW2 4649   3.109   1.653   2.054  2.5104 -0.9999 -0.0741
 1144SOL    HW3 4650   3.108   1.741   1.930 -2.0104  1.1108  1.3647
 1144SOL    MW4 4651   3.096   1.663   1.968  0.1872  0.2606  0.3842
 1145SOL     OW 4652   3.115   1.915   1.864 -0.1421  0.5195  0.1230
 1145SOL    HW2 4653   3.196   1.955   1.897  0.8003 -1.6681  0.5384
 1145SOL    HW3 4654   3.121   1.925   1.769 -0.4772  2.3699  0.2787
 1145SOL    MW4 4655   3.126   1.922   1.856 -0.0620  0.4749  0.1982
 1146SOL     OW 4656   3.361   2.054   1.936 -0.1413 -0.1273 -0.5855
 1146SOL    HW2 4657   3.437   2.019   1.889 -0.1851  0.3956 -1.0529
 1146SOL    HW3 4658   3.355   2.145   1.906 -0.5204  0.0387 -0.0049
 1146SOL    MW4 4659   3.370   2.062   1.925 -0.1967 -0.0362 -0.5707
 1147SOL     OW 4660   3.369   2.323   1.850 -0.3191 -0.5292 -0.1472
 1147SOL    HW2 4661   3.283   2.350   1.881  0.1497  0.2190  0.5053
 1147SOL    HW3 4662   3.373   2.354   1.759 -1.1954 -1.6188 -0.5732
 1147SOL    MW4 4663   3.358   2.330   1.842 -0.3726 -0.5744 -0.1174
 1148SOL     OW 4664   3.135   2.418   1.959 -0.0761 -0.1849  0.1012
 1148SOL    HW2 4665   3.152   2.410   2.053 -1.9065 -0.6554  0.4071
 1148SOL    HW3 4666   3.141   2.512   1.942 -0.5684 -0.0077  0.8588
 1148SOL    MW4 4667   3.138   2.429   1.969 -0.3829 -0.2236  0.2415
 1149SOL     OW 4668   3.164   2.679   1.860 -0.5545 -0.5064 -0.1518
 1149SOL    HW2 4669   3.093   2.729   1.901 -0.1349 -0.5553  0.6419
 1149SOL    HW3 4670   3.151   2.692   1.766 -1.1634  0.1109  0.0114
 1149SOL    MW4 4671   3.153   2.687   1.853 -0.5794 -0.4315 -0.0257
 1150SOL     OW 4672   3.380   2.846   1.939  0.1213  0.3155 -0.1369
 1150SOL    HW2 4673   3.382   2.851   2.035  0.3939  1.6989 -0.2073
 1150SOL    HW3 4674   3.294   2.808   1.919  0.0574  0.0321  0.6487
 1150SOL    MW4 4675   3.369   2.841   1.949  0.1488  0.4606 -0.0427
 1151SOL     OW 4676   3.371   3.126   1.898 -0.0418 -0.5169 -0.5098
 1151SOL    HW2 4677   3.450   3.166   1.935 -0.7145  0.0477  0.3524
 1151SOL    HW3 4678   3.389   3.032   1.899  0.7525 -0.3667 -0.6330
 1151SOL    MW4 4679   3.384   3.119   1.903 -0.0260 -0.4227 -0.4123
 1152SOL     OW 4680   3.133   3.241   2.008  0.0532  0.3816  0.7334
 1152SOL    HW2 4681   3.136   3.321   1.956 -0.1501 -0.2438 -0.2560
 1152SOL    HW3 4682   3.216   3.197   1.989 -0.4572 -0.3359  0.1480
 1152SOL    MW4 4683   3.144   3.245   1.999 -0.0412  0.2043  0.5257
 1153SOL     OW 4684   3.130   3.462   1.842  0.3728  0.0652  0.2781
 1153SOL    HW2 4685   3.055   3.507   1.880  0.2199  1.5117 -1.6644
 1153SOL    HW3 4686   3.206   3.508   1.877  0.2769  0.2041  0.3052
 1153SOL    MW4 4687   3.130   3.474   1.851  0.3402  0.2744  0.0254
 1154SOL     OW 4688   3.354   3.616   1.965  0.0828 -0.0238 -0.0519
 1154SOL    HW2 4689   3.430   3.581   1.919  0.1662  0.6662 -0.4577
 1154SOL    HW3 4690   3.347   3.706   1.933  0.1480  0.4704  1.3087
 1154SOL    MW4 4691   3.363   3.624   1.955  0.1025  0.1321  0.0740
 1155SOL     OW 4692   3.347   3.864   1.863  0.2243 -0.2635  0.1253
 1155SOL    HW2 4693   3.267   3.909   1.892 -0.2188 -1.6316  1.0568
 1155SOL    HW3 4694   3.348   3.875   1.768 -0.2556  1.0823  0.2634
 1155SOL    MW4 4695   3.337   3.871   1.854  0.1025 -0.2666  0.2664
 1156SOL     OW 4696   3.130   4.012   1.969 -0.4460  0.6108 -0.3149
 1156SOL    HW2 4697   3.143   4.015   2.064 -1.2269  0.5863 -0.1992
 1156SOL    HW3 4698   3.043   3.972   1.959 -0.1407  0.1429 -1.0536
 1156SOL    MW4 4699   3.120   4.007   1.980 -0.5085  0.5465 -0.3971
 1157SOL     OW 4700   3.156   4.242   1.824 -0.2423 -0.2052  0.9141
 1157SOL    HW2 4701   3.157   4.161   1.876 -2.2562 -0.8020  0.0892
 1157SOL    HW3 4702   3.093   4.298   1.870 -0.7329 -0.0775  0.0912
 1157SOL    MW4 4703   3.148   4.238   1.837 -0.5729 -0.2670  0.6967
 1158SOL     OW 4704   3.361   4.381   1.944  0.2685  0.1423 -0.2851
 1158SOL    HW2 4705   3.447   4.345   1.922  0.4800  0.7529 -0.4542
 1158SOL    HW3 4706   3.299   4.316   1.912  0.6971 -0.8359  0.8253
 1158SOL    MW4 4707   3.365   4.368   1.937  0.3529  0.0935 -0.1611
 1159SOL     OW 4708   3.816   4.641   1.865 -0.1120  0.4481  0.1814
 1159SOL    HW2 4709   3.804   4.551   1.896 -0.7043  1.2614  2.4318
 1159SOL    HW3 4710   3.741   4.688   1.901 -0.2090  1.6924 -1.6135
 1159SOL    MW4 4711   3.805   4.635   1.874 -0.2027  0.7195  0.2415
 1160SOL     OW 4712   3.595   0.118   1.955  0.2465 -0.1636 -0.5236
 1160SOL    HW2 4713   3.568   0.131   2.045  0.5395  1.8839 -0.7040
 1160SOL    HW3 4714   3.516   0.087   1.910  0.1098 -1.2211  0.4103
 1160SOL    MW4 4715   3.581   0.115   1.961  0.2670 -0.0330 -0.4243
 1161SOL     OW 4716   3.620   0.371   1.872  0.3932  0.2525 -0.0990
 1161SOL    HW2 4717   3.611   0.279   1.897 -1.2708  0.5122  0.3470
 1161SOL    HW3 4718   3.612   0.371   1.777  1.6959 -0.1878 -0.2242
 1161SOL    MW4 4719   3.618   0.359   1.863  0.3455  0.2287 -0.0567
 1162SOL     OW 4720   3.843   0.499   2.023  0.1187  0.3399 -0.0477
 1162SOL    HW2 4721   3.849   0.594   2.007 -0.4702  0.8228  2.4011
 1162SOL    HW3 4722   3.766   0.471   1.974  1.2717  0.8022 -2.1715
 1162SOL    MW4 4723   3.834   0.508   2.015  0.1931  0.4646 -0.0048
 1163SOL     OW 4724   3.843   0.760   1.898  0.4334 -0.1205  0.4192
 1163SOL    HW2 4725   3.765   0.804   1.930  0.8878  0.8520  0.1940
 1163SOL    HW3 4726   3.841   0.772   1.803  1.2736  0.5976  0.4876
 1163SOL    MW4 4727   3.832   0.767   1.890  0.6044  0.1025  0.3985
 1164SOL     OW 4728   3.607   0.887   1.969  0.0756 -0.1254 -0.6174
 1164SOL    HW2 4729   3.621   0.966   1.917 -0.5142 -0.6742 -1.6321
 1164SOL    HW3 4730   3.541   0.837   1.919  0.5689 -1.3268 -0.0830
 1164SOL    MW4 4731   3.600   0.891   1.955  0.0627 -0.3563 -0.6807
 1165SOL     OW 4732   3.620   1.140   1.857 -0.2496 -0.1477  0.2359
 1165SOL    HW2 4733   3.534   1.175   1.881  0.2963  1.4224 -0.0294
 1165SOL    HW3 4734   3.624   1.149   1.762  0.0171 -0.6870  0.1942
 1165SOL    MW4 4735   3.609   1.146   1.848 -0.1423 -0.0118  0.1954
 1166SOL     OW 4736   3.846   1.281   1.952  0.4973 -0.2349 -0.1421
 1166SOL    HW2 4737   3.845   1.261   2.046  0.2670 -0.6710 -0.2335
 1166SOL    HW3 4738   3.766   1.240   1.919  0.1222  0.6637 -0.3776
 1166SOL    MW4 4739   3.835   1.273   1.960  0.4175 -0.1738 -0.1853
 1167SOL     OW 4740   3.848   1.552   1.896  0.1011 -0.3945 -0.1978
 1167SOL    HW2 4741   3.928   1.594   1.927  0.8930 -1.1985 -1.1093
 1167SOL    HW3 4742   3.843   1.470   1.945  0.6395 -1.0345 -1.1823
 1167SOL    MW4 4743   3.858   1.547   1.906  0.2766 -0.5850 -0.4481
 1168SOL     OW 4744   3.578   1.639   1.943 -0.4668 -0.1122 -0.4638
 1168SOL    HW2 4745   3.577   1.728   1.907 -1.4949  0.8399  1.8224
 1168SOL    HW3 4746   3.665   1.606   1.921  0.5898  2.1256  0.1684
 1168SOL    MW4 4747   3.590   1.646   1.936 -0.4630  0.3085 -0.0787
 1169SOL     OW 4748   3.579   1.916   1.815  0.2228  0.3782  0.2671
 1169SOL    HW2 4749   3.658   1.962   1.842  0.4208  0.3198 -0.2011
 1169SOL    HW3 4750   3.573   1.932   1.721 -1.0349  1.4443  0.5267
 1169SOL    MW4 4751   3.589   1.924   1.806  0.0827  0.5112  0.2395
 1170SOL     OW 4752   3.804   2.029   1.928 -0.0612  0.1264  0.0188
 1170SOL    HW2 4753   3.890   1.993   1.905 -0.0781 -0.0539  0.2295
 1170SOL    HW3 4754   3.806   2.118   1.895 -0.4853 -0.4641 -1.6521
 1170SOL    MW4 4755   3.816   2.036   1.920 -0.1192  0.0248 -0.1739
 1171SOL     OW 4756   3.777   2.294   1.851 -0.1924  0.0448  0.3614
 1171SOL    HW2 4757   3.861   2.328   1.883 -0.2594  1.3893 -0.8587
 1171SOL    HW3 4758   3.711   2.341   1.903 -0.2119 -0.2911  0.6389
 1171SOL    MW4 4759   3.780   2.305   1.862 -0.2036  0.1779  0.2371
 1172SOL     OW 4760   3.569   2.418   1.985  0.6434 -0.3703 -0.4738
 1172SOL    HW2 4761   3.567   2.513   1.974  0.2468 -0.6254 -2.7671
 1172SOL    HW3 4762   3.488   2.387   1.945  0.5198 -1.6523  0.7136
 1172SOL    MW4 4763   3.558   2.426   1.978  0.5748 -0.5732 -0.6198
 1173SOL     OW 4764   3.588   2.668   1.867  0.4840  0.2690 -0.1374
 1173SOL    HW2 4765   3.664   2.718   1.898  0.2965  0.8385 -0.5842
 1173SOL    HW3 4766   3.513   2.725   1.885  0.2161 -0.0842 -0.1502
 1173SOL    MW4 4767   3.588   2.682   1.874  0.4241  0.2975 -0.1980
 1174SOL     OW 4768   3.810   2.827   1.957  0.1700 -0.0219 -0.0604
 1174SOL    HW2 4769   3.806   2.827   2.053 -2.8932 -0.8602 -0.1175
 1174SOL    HW3 4770   3.802   2.919   1.933  1.9317  0.2876  0.4944
 1174SOL    MW4 4771   3.808   2.839   1.967 -0.0017 -0.0916  0.0052
 1175SOL     OW 4772   3.810   3.089   1.890  0.3316  0.0946  0.4789
 1175SOL    HW2 4773   3.732   3.137   1.920 -0.0919 -0.4362  0.2207
 1175SOL    HW3 4774   3.796   3.076   1.797  0.1296 -1.1338  0.6760
 1175SOL    MW4 4775   3.798   3.094   1.882  0.2491 -0.1373  0.4708
 1176SOL     OW 4776   3.600   3.235   1.992  0.2034 -0.1001 -0.0315
 1176SOL    HW2 4777   3.580   3.232   2.086 -1.6084 -0.8294 -0.4255
 1176SOL    HW3 4778   3.610   3.328   1.973  0.2978  0.0688  0.8389
 1176SOL    MW4 4779   3.599   3.247   2.002 -0.0234 -0.1740  0.0317
 1177SOL     OW 4780   3.601   3.501   1.888 -0.1223 -0.2878 -0.4673
 1177SOL    HW2 4781   3.671   3.558   1.920 -1.0348  0.8758 -0.5281
 1177SOL    HW3 4782   3.614   3.499   1.793 -1.0103  1.0572 -0.6230
 1177SOL    MW4 4783   3.612   3.508   1.879 -0.3598  0.0432 -0.4958
 1178SOL     OW 4784   3.843   3.639   1.958 -0.0353  0.8565  0.0398
 1178SOL    HW2 4785   3.907   3.602   1.897  0.7345  1.1416  0.6665
 1178SOL    HW3 4786   3.824   3.726   1.922 -1.2237  0.2050 -0.9763
 1178SOL    MW4 4787   3.849   3.646   1.945 -0.0906  0.8082 -0.0116
 1179SOL     OW 4788   3.775   3.899   1.884 -0.1845  0.6654 -0.3159
 1179SOL    HW2 4789   3.692   3.941   1.907 -0.2930 -0.4594  1.4881
 1179SOL    HW3 4790   3.842   3.951   1.929 -0.2321 -0.3887  1.0385
 1179SOL    MW4 4791   3.773   3.911   1.893 -0.2050  0.3781  0.1009
 1180SOL     OW 4792   3.546   4.010   1.964 -0.0504 -0.0077  0.4486
 1180SOL    HW2 4793   3.553   3.990   2.058 -0.9492  2.0144  0.9670
 1180SOL    HW3 4794   3.480   3.947   1.932 -0.7427  0.1875  1.4589
 1180SOL    MW4 4795   3.538   3.999   1.972 -0.2601  0.2851  0.6503
 1181SOL     OW 4796   3.586   4.253   1.844 -0.2581  0.1434  0.2854
 1181SOL    HW2 4797   3.669   4.286   1.879  0.8897 -1.2949 -0.9776
 1181SOL    HW3 4798   3.580   4.164   1.877 -0.7520 -0.1333 -0.5426
 1181SOL    MW4 4799   3.596   4.246   1.853 -0.1717 -0.0830  0.0094
 1182SOL     OW 4800   3.808   4.378   1.960 -0.5627 -0.0246 -0.3200
 1182SOL    HW2 4801   3.795   4.379   2.055 -1.4242  0.3007 -0.4278
 1182SOL    HW3 4802   3.896   4.345   1.947 -0.1245  0.7388  0.6398
 1182SOL    MW4 4803   3.818   4.374   1.971 -0.6185  0.1192 -0.2077
 1183SOL     OW 4804   4.267   4.628   1.894 -0.1102  0.1132  0.4462
 1183SOL    HW2 4805   4.198   4.679   1.936 -0.1708 -0.3205  0.8759
 1183SOL    HW3 4806   4.348   4.660   1.933 -0.1846 -0.4624  1.0796
 1183SOL    MW4 4807   4.268   4.639   1.905 -0.1283 -0.0196  0.5864
 1184SOL     OW 4808   4.049   0.092   1.996 -0.3518  0.4697  0.7297
 1184SOL    HW2 4809   4.063   0.082   2.091  2.2367 -1.4401  0.2006
 1184SOL    HW3 4810   3.979   0.030   1.976  0.1064 -0.1994  1.1679
 1184SOL    MW4 4811   4.042   0.083   2.006  0.0510  0.1294  0.7174
 1185SOL     OW 4812   4.034   0.360   1.875 -0.1708 -0.3924  0.1492
 1185SOL    HW2 4813   4.031   0.269   1.904 -0.1922 -0.1679  0.8636
 1185SOL    HW3 4814   3.963   0.403   1.922  0.9002  0.3635  1.1116
 1185SOL    MW4 4815   4.024   0.354   1.885 -0.0324 -0.2631  0.3705
 1186SOL     OW 4816   4.269   0.431   1.986 -0.3215  0.4102  0.2386
 1186SOL    HW2 4817   4.273   0.457   2.078 -0.8215  0.3182  0.2864
 1186SOL    HW3 4818   4.178   0.406   1.971 -0.1487 -0.0035 -0.1649
 1186SOL    MW4 4819   4.258   0.431   1.996 -0.3653  0.3434  0.1917
 1187SOL     OW 4820   4.257   0.708   1.910 -0.1908 -0.1369 -0.1069
 1187SOL    HW2 4821   4.271   0.613   1.917 -0.3697 -0.0997  0.8071
 1187SOL    HW3 4822   4.271   0.727   1.818 -1.8195 -1.3201 -0.6268
 1187SOL    MW4 4823   4.261   0.698   1.899 -0.4292 -0.2881 -0.0548
 1188SOL     OW 4824   4.066   0.911   1.961 -0.3246  0.1776  0.6657
 1188SOL    HW2 4825   4.137   0.851   1.940  0.4750  1.7545 -1.3928
 1188SOL    HW3 4826   3.986   0.859   1.951  0.4771 -1.2713  1.7262
 1188SOL    MW4 4827   4.064   0.896   1.957 -0.1130  0.1945  0.5341
 1189SOL     OW 4828   4.078   1.199   1.844  0.4749  0.0005  0.3119
 1189SOL    HW2 4829   4.090   1.115   1.889 -1.1253  0.1559  1.0428
 1189SOL    HW3 4830   3.995   1.232   1.877 -0.1637  0.6655 -1.9019
 1189SOL    MW4 4831   4.068   1.192   1.854  0.1788  0.1087  0.1163
 1190SOL     OW 4832   4.308   1.327   1.953 -0.2403 -0.4023  0.0476
 1190SOL    HW2 4833   4.296   1.298   2.043 -3.4688  1.5752  0.3460
 1190SOL    HW3 4834   4.228   1.300   1.908  0.3479  0.6043 -1.6559
 1190SOL    MW4 4835   4.295   1.320   1.959 -0.5884 -0.0086 -0.1378
 1191SOL     OW 4836   4.329   1.588   1.854  0.0213 -0.2555  0.2881
 1191SOL    HW2 4837   4.336   1.499   1.889  0.4994 -0.5631 -0.5830
 1191SOL    HW3 4838   4.289   1.577   1.767  0.6888  0.3194 -0.0917
 1191SOL    MW4 4839   4.324   1.575   1.847  0.1726 -0.2202  0.1230
 1192SOL     OW 4840   4.087   1.671   1.979  0.0710 -0.3340  0.7268
 1192SOL    HW2 4841   4.086   1.670   2.075  0.0304 -0.0527  0.7311
 1192SOL    HW3 4842   4.175   1.643   1.956 -0.0225 -0.7217  0.8412
 1192SOL    MW4 4843   4.099   1.667   1.989  0.0539 -0.3480  0.7423
 1193SOL     OW 4844   4.053   1.919   1.871  0.3003 -0.2907  0.1308
 1193SOL    HW2 4845   4.066   1.828   1.899  1.0497 -0.2834 -0.1706
 1193SOL    HW3 4846   4.068   1.917   1.776  1.5589  0.3606  0.3043
 1193SOL    MW4 4847   4.057   1.907   1.862  0.5646 -0.2038  0.1140
 1194SOL     OW 4848   4.303   2.048   2.011 -0.0192  0.4326 -0.0448
 1194SOL    HW2 4849   4.292   2.045   2.106 -0.5902 -3.4131 -0.1405
 1194SOL    HW3 4850   4.215   2.031   1.976  0.5816 -0.3575 -1.2252
 1194SOL    MW4 4851   4.290   2.045   2.019 -0.0148 -0.1791 -0.2134
 1195SOL     OW 4852   4.278   2.287   1.848 -0.2136  0.3135  0.0930
 1195SOL    HW2 4853   4.295   2.212   1.905  1.1075  0.1536 -0.4800
 1195SOL    HW3 4854   4.347   2.350   1.871  0.6794  0.0217 -1.6830
 1195SOL    MW4 4855   4.290   2.285   1.858  0.0787  0.2542 -0.2168
 1196SOL     OW 4856   4.018   2.399   1.938  0.2105 -0.1697  0.2253
 1196SOL    HW2 4857   4.021   2.406   2.033 -1.7905  1.3515  0.2122
 1196SOL    HW3 4858   4.101   2.359   1.914 -0.1630 -2.6183  2.7883
 1196SOL    MW4 4859   4.029   2.395   1.947 -0.1030 -0.2921  0.5616
 1197SOL     OW 4860   4.036   2.673   1.863 -0.6245 -0.0417 -0.2163
 1197SOL    HW2 4861   4.041   2.584   1.897 -0.0442 -0.0066 -0.2032
 1197SOL    HW3 4862   3.953   2.708   1.898 -1.1657 -0.7874 -0.7489
 1197SOL    MW4 4863   4.025   2.666   1.872 -0.6199 -0.1352 -0.2848
 1198SOL     OW 4864   4.226   2.872   1.982  0.5935  0.0500  0.4810
 1198SOL    HW2 4865   4.248   2.860   2.075 -1.6178  1.0002  1.1455
 1198SOL    HW3 4866   4.159   2.807   1.964  2.0866 -1.1710 -0.9060
 1198SOL    MW4 4867   4.220   2.862   1.992  0.4988  0.0143  0.3856
 1199SOL     OW 4868   4.258   3.091   1.846 -0.2418 -0.0786 -0.6480
 1199SOL    HW2 4869   4.186   3.152   1.859  0.1085  0.1171  0.4203
 1199SOL    HW3 4870   4.234   3.014   1.898  0.0297 -0.2500 -0.7762
 1199SOL    MW4 4871   4.246   3.089   1.854 -0.1597 -0.0753 -0.5240
 1200SOL     OW 4872   4.032   3.245   1.961 -0.1409  0.0642  0.0089
 1200SOL    HW2 4873   4.043   3.224   2.054  0.8697  0.8465  0.0666
 1200SOL    HW3 4874   3.947   3.207   1.939 -0.0322 -0.8360  1.0511
 1200SOL    MW4 4875   4.022   3.237   1.971  0.0072  0.0486  0.1539
 1201SOL     OW 4876   4.053   3.499   1.865 -0.1809 -0.1767  0.4180
 1201SOL    HW2 4877   4.126   3.523   1.922 -0.8782  0.3712  1.0960
 1201SOL    HW3 4878   4.030   3.410   1.892  0.3468 -0.4177  0.0822
 1201SOL    MW4 4879   4.060   3.491   1.876 -0.2031 -0.1361  0.4631
 1202SOL     OW 4880   4.269   3.593   1.995  0.1836  0.2858  0.0485
 1202SOL    HW2 4881   4.259   3.687   1.985 -0.5970  0.2802  0.6662
 1202SOL    HW3 4882   4.332   3.567   1.928 -0.2648  1.1170 -0.6985
 1202SOL    MW4 4883   4.276   3.602   1.985  0.0210  0.3948  0.0315
 1203SOL     OW 4884   4.242   3.857   1.905  0.2350  0.2269 -0.1029
 1203SOL    HW2 4885   4.312   3.912   1.939 -0.5152  1.1741 -0.0695
 1203SOL    HW3 4886   4.264   3.845   1.812  1.1346 -0.5814  0.2061
 1203SOL    MW4 4887   4.254   3.863   1.897  0.2551  0.2451 -0.0577
 1204SOL     OW 4888   4.000   4.016   1.995 -0.2384 -0.6175  0.0613
 1204SOL    HW2 4889   4.075   3.962   1.969  0.5186  0.0257  0.8594
 1204SOL    HW3 4890   3.997   4.008   2.091 -0.7622 -0.0874  0.0918
 1204SOL    MW4 4891   4.009   4.008   2.005 -0.2079 -0.4630  0.1707
 1205SOL     OW 4892   4.043   4.253   1.874  0.6130  0.2485 -0.5174
 1205SOL    HW2 4893   4.123   4.291   1.910  1.2375 -1.1687 -0.3841
 1205SOL    HW3 4894   4.023   4.179   1.931 -0.1093 -0.1621 -1.2829
 1205SOL    MW4 4895   4.051   4.248   1.886  0.5999  0.0076 -0.6009
 1206SOL     OW 4896   4.276   4.364   1.968  0.4948  0.0018  0.2252
 1206SOL    HW2 4897   4.312   4.354   2.056 -0.0619 -0.2542  0.4217
 1206SOL    HW3 4898   4.262   4.458   1.958 -2.4631 -0.2624  1.6031
 1206SOL    MW4 4899   4.279   4.375   1.978  0.0310 -0.0672  0.4330
 1207SOL     OW 4900   0.208   4.647   2.338 -0.3794  0.3521  0.0467
 1207SOL    HW2 4901   0.200   4.655   2.434  1.2175 -0.1525  0.2337
 1207SOL    HW3 4902   0.293   4.686   2.318 -0.8264  0.7062 -1.2223
 1207SOL    MW4 4903   0.218   4.653   2.348 -0.2277  0.3319 -0.0958
 1208SOL     OW 4904   4.446   0.102   2.256 -0.3312  0.0021 -0.6282
 1208SOL    HW2 4905   4.525   0.074   2.300 -1.3003 -1.4486  0.2068
 1208SOL    HW3 4906   4.466   0.092   2.163  0.0836 -1.4056 -0.3952
 1208SOL    MW4 4907   4.459   0.097   2.249 -0.4039 -0.3751 -0.4873
 1209SOL     OW 4908   4.478   0.352   2.380 -0.1212 -0.1158  0.1558
 1209SOL    HW2 4909   4.563   0.391   2.359  0.6637 -1.6482  0.4422
 1209SOL    HW3 4910   4.474   0.273   2.327 -0.8700 -0.6692  1.0274
 1209SOL    MW4 4911   4.488   0.347   2.370 -0.1168 -0.3910  0.3085
 1210SOL     OW 4912   0.224   0.499   2.309  0.0437  0.0393  0.2806
 1210SOL    HW2 4913   0.305   0.459   2.338  1.5196  0.8803 -2.4938
 1210SOL    HW3 4914   0.237   0.515   2.215 -2.7195  1.5918  0.0986
 1210SOL    MW4 4915   0.236   0.496   2.300 -0.1262  0.3550 -0.1097
 1211SOL     OW 4916   0.227   0.770   2.351  0.4376 -0.2179 -0.7154
 1211SOL    HW2 4917   0.250   0.782   2.443  1.1121  0.2916 -0.9435
 1211SOL    HW3 4918   0.235   0.676   2.337 -0.1234 -0.3534 -0.1364
 1211SOL    MW4 4919   0.231   0.759   2.362  0.4525 -0.1686 -0.6690
 1212SOL     OW 4920   4.481   0.866   2.254  0.1630  0.1842  0.2541
 1212SOL    HW2 4921   4.560   0.829   2.292  0.5924  1.0360  0.2131
 1212SOL    HW3 4922   4.498   0.869   2.160 -0.4155 -0.7928  0.1168
 1212SOL    MW4 4923   4.494   0.862   2.247  0.1435  0.1677  0.2308
 1213SOL     OW 4924   4.490   1.145   2.346  0.3235 -0.0272  0.5421
 1213SOL    HW2 4925   4.495   1.147   2.441 -2.1739  1.7410  0.6705
 1213SOL    HW3 4926   4.488   1.052   2.324 -1.0657 -0.4475  2.3561
 1213SOL    MW4 4927   4.491   1.133   2.356 -0.1893  0.1507  0.7985
 1214SOL     OW 4928   0.229   1.247   2.268  0.5216 -0.0186 -0.0217
 1214SOL    HW2 4929   0.144   1.216   2.300  0.4090 -0.0034 -0.3056
 1214SOL    HW3 4930   0.225   1.235   2.174  1.2334 -0.9741  0.0655
 1214SOL    MW4 4931   0.217   1.242   2.260  0.6006 -0.1426 -0.0477
 1215SOL     OW 4932   0.211   1.512   2.362  0.0684  0.3566 -0.3096
 1215SOL    HW2 4933   0.212   1.515   2.458 -0.4847  0.8472 -0.3113
 1215SOL    HW3 4934   0.215   1.419   2.341 -1.6035  0.1341  0.2351
 1215SOL    MW4 4935   0.211   1.500   2.372 -0.2252  0.3920 -0.2377
 1216SOL     OW 4936   0.020   1.643   2.212  0.1699 -0.1067 -0.2750
 1216SOL    HW2 4937  -0.003   1.721   2.263 -1.5156 -0.1332 -0.9407
 1216SOL    HW3 4938   0.081   1.595   2.268 -0.1824  0.8007  0.9232
 1216SOL    MW4 4939   0.025   1.647   2.226 -0.0990  0.0094 -0.2046
 1217SOL     OW 4940   0.018   1.898   2.364 -0.2537  0.4234 -0.1886
 1217SOL    HW2 4941  -0.057   1.948   2.334 -0.1254  0.2122 -0.8973
 1217SOL    HW3 4942   0.094   1.949   2.335 -0.1135  0.9417  1.0504
 1217SOL    MW4 4943   0.018   1.911   2.356 -0.2182  0.4638 -0.1190
 1218SOL     OW 4944   0.244   2.060   2.248 -0.4467 -0.0724  0.5697
 1218SOL    HW2 4945   0.317   2.008   2.281  0.4055  1.0395  0.4624
 1218SOL    HW3 4946   0.262   2.070   2.154 -0.3217  0.8384  0.6817
 1218SOL    MW4 4947   0.256   2.055   2.240 -0.3178  0.1943  0.5703
 1219SOL     OW 4948   0.259   2.318   2.325  0.2135 -0.4104  0.0261
 1219SOL    HW2 4949   0.254   2.319   2.420  0.6576 -0.0920  0.0500
 1219SOL    HW3 4950   0.267   2.226   2.302  1.0871 -0.4212  0.3553
 1219SOL    MW4 4951   0.259   2.306   2.334  0.3873 -0.3698  0.0727
 1220SOL     OW 4952   0.016   2.378   2.202 -0.0746  0.0038 -0.3305
 1220SOL    HW2 4953   0.011   2.469   2.232 -1.2828 -0.4994  1.0368
 1220SOL    HW3 4954   0.094   2.343   2.245  0.8102  0.5716 -1.4258
 1220SOL    MW4 4955   0.026   2.386   2.211 -0.1173  0.0124 -0.2947
 1221SOL     OW 4956   4.487   2.634   2.307  0.2287  0.5468 -0.1633
 1221SOL    HW2 4957   4.457   2.632   2.398  0.8622 -1.2958  0.0318
 1221SOL    HW3 4958   4.550   2.706   2.303  0.3544  0.4957  0.9085
 1221SOL    MW4 4959   4.491   2.643   2.318  0.3285  0.2968  0.0041
 1222SOL     OW 4960   0.196   2.823   2.275 -0.2200  0.0284  0.0292
 1222SOL    HW2 4961   0.271   2.781   2.317 -0.2059  0.1397  0.1173
 1222SOL    HW3 4962   0.226   2.842   2.186 -0.6179 -1.1815 -0.3640
 1222SOL    MW4 4963   0.210   2.820   2.269 -0.2706 -0.1168 -0.0110
 1223SOL     OW 4964   0.223   3.102   2.298  0.5033  0.6646 -0.2658
 1223SOL    HW2 4965   0.137   3.139   2.277  0.8849  2.2625  0.8537
 1223SOL    HW3 4966   0.211   3.008   2.294 -1.2266  0.8783 -0.4071
 1223SOL    MW4 4967   0.210   3.095   2.294  0.3254  0.9036 -0.1369
 1224SOL     OW 4968   4.464   3.219   2.227  0.4980  0.2905 -0.3502
 1224SOL    HW2 4969   4.477   3.304   2.269  0.9278  0.3975 -0.6916
 1224SOL    HW3 4970   4.451   3.240   2.134  1.1515 -0.0558 -0.5204
 1224SOL    MW4 4971   4.464   3.233   2.220  0.6409  0.2589 -0.4175
 1225SOL     OW 4972   4.480   3.454   2.366  0.2941  0.6767 -0.0762
 1225SOL    HW2 4973   4.472   3.455   2.461  1.3133 -0.9371  0.0478
 1225SOL    HW3 4974   4.400   3.496   2.335 -0.2607  0.8061  1.4812
 1225SOL    MW4 4975   4.468   3.460   2.374  0.3552  0.4809  0.1454
 1226SOL     OW 4976   0.227   3.569   2.252  0.0721  0.1061  0.3297
 1226SOL    HW2 4977   0.307   3.548   2.302  1.1580 -0.0855 -1.4616
 1226SOL    HW3 4978   0.160   3.512   2.290  1.5200 -2.0411 -0.2234
 1226SOL    MW4 4979   0.229   3.558   2.264  0.4064 -0.2027  0.0205
 1227SOL     OW 4980   0.224   3.853   2.352  0.1550  0.4163 -0.2948
 1227SOL    HW2 4981   0.139   3.893   2.332 -0.1172 -0.6507 -1.3410
 1227SOL    HW3 4982   0.218   3.765   2.314  1.4034  0.0233  0.3998
 1227SOL    MW4 4983   0.212   3.846   2.344  0.2838  0.2234 -0.3412
 1228SOL     OW 4984   4.477   3.963   2.232 -0.2905  0.1876  0.2027
 1228SOL    HW2 4985   4.478   4.048   2.276  0.3922  0.6953 -0.7775
 1228SOL    HW3 4986   4.489   3.984   2.139 -0.6852 -0.9415 -0.1099
 1228SOL    MW4 4987   4.479   3.977   2.225 -0.2522  0.1059  0.0319
 1229SOL     OW 4988   4.486   4.198   2.373  0.3519  0.2352 -0.4057
 1229SOL    HW2 4989   4.480   4.213   2.468  1.4103 -0.1096 -0.2763
 1229SOL    HW3 4990   4.556   4.256   2.344  0.0201  0.3451 -0.9799
 1229SOL    MW4 4991   4.494   4.208   2.382  0.4478  0.2046 -0.4642
 1230SOL     OW 4992   0.214   4.361   2.292 -0.3932 -0.2842  0.1902
 1230SOL    HW2 4993   0.288   4.343   2.350 -0.6960 -2.1887  0.0133
 1230SOL    HW3 4994   0.203   4.456   2.297  2.1140  0.0384  0.1196
 1230SOL    MW4 4995   0.222   4.371   2.301 -0.1024 -0.4930  0.1578
 1231SOL     OW 4996   0.640   4.655   2.349  0.2222  0.4971  0.2291
 1231SOL    HW2 4997   0.654   4.650   2.443  1.2167 -0.6337  0.0495
 1231SOL    HW3 4998   0.698   4.726   2.320  0.9231 -0.0405  0.3023
 1231SOL    MW4 4999   0.650   4.664   2.357  0.4458  0.2770  0.2148
 1232SOL     OW 5000   0.426   0.147   2.282 -0.0802 -0.0400 -0.4315
 1232SOL    HW2 5001   0.502   0.098   2.314  0.4236  0.9675 -0.0603
 1232SOL    HW3 5002   0.434   0.147   2.187 -0.2684 -0.9619 -0.4508
 1232SOL    MW4 5003   0.437   0.140   2.274 -0.0385 -0.0287 -0.3848
 1233SOL     OW 5004   0.467   0.395   2.405  0.2914  0.6198  0.3608
 1233SOL    HW2 5005   0.473   0.397   2.501 -1.8810  2.0635  0.5327
 1233SOL    HW3 5006   0.453   0.303   2.383  0.7223  0.2900  1.4454
 1233SOL    MW4 5007   0.466   0.383   2.415  0.0616  0.7667  0.5264
 1234SOL     OW 5008   0.653   0.512   2.232 -0.0538 -0.2188 -0.4539
 1234SOL    HW2 5009   0.668   0.600   2.268  0.9388 -0.9536  0.9844
 1234SOL    HW3 5010   0.595   0.470   2.295  0.7980 -1.1415 -0.2630
 1234SOL    MW4 5011   0.648   0.518   2.245  0.1896 -0.4374 -0.2389
 1235SOL     OW 5012   0.711   0.792   2.324  0.3658  0.1874 -0.3698
 1235SOL    HW2 5013   0.708   0.780   2.419 -0.3372 -1.0947 -0.5377
 1235SOL    HW3 5014   0.628   0.835   2.303  0.5935  0.6204 -0.3880
 1235SOL    MW4 5015   0.699   0.796   2.334  0.3031  0.0754 -0.3943
 1236SOL     OW 5016   0.450   0.878   2.240  0.1700  0.1271  0.1333
 1236SOL    HW2 5017   0.374   0.825   2.263  0.0956 -0.6364 -1.7262
 1236SOL    HW3 5018   0.466   0.858   2.148  2.0069  1.0506  0.2163
 1236SOL    MW4 5019   0.442   0.868   2.231  0.4025  0.1482 -0.1011
 1237SOL     OW 5020   0.472   1.127   2.367  0.0646 -0.4165 -0.5886
 1237SOL    HW2 5021   0.468   1.038   2.332 -0.0301 -0.7478  0.2705
 1237SOL    HW3 5022   0.401   1.173   2.322 -0.7405 -1.1227 -0.0381
 1237SOL    MW4 5023   0.462   1.122   2.356 -0.0541 -0.5534 -0.4027
 1238SOL     OW 5024   0.678   1.268   2.248  0.5995  0.4865  0.0917
 1238SOL    HW2 5025   0.674   1.352   2.293 -1.4909  1.1349 -1.1742
 1238SOL    HW3 5026   0.617   1.212   2.296  0.1649  0.4604 -0.4722
 1238SOL    MW4 5027   0.669   1.272   2.260  0.2663  0.5685 -0.1497
 1239SOL     OW 5028   0.675   1.511   2.354 -0.3814  0.1821 -0.3805
 1239SOL    HW2 5029   0.690   1.524   2.448 -0.5260  0.2764 -0.3687
 1239SOL    HW3 5030   0.741   1.566   2.312 -0.3118  0.1351 -0.3328
 1239SOL    MW4 5031   0.686   1.520   2.361 -0.3912  0.1884 -0.3724
 1240SOL     OW 5032   0.440   1.638   2.263 -0.1025  0.0543 -0.0414
 1240SOL    HW2 5033   0.518   1.592   2.292 -1.0978 -0.9147  1.1765
 1240SOL    HW3 5034   0.367   1.588   2.301 -1.2378  2.1472  0.6293
 1240SOL    MW4 5035   0.441   1.625   2.272 -0.3836  0.2025  0.2079
 1241SOL     OW 5036   0.465   1.902   2.359  0.2870 -0.4880 -0.2028
 1241SOL    HW2 5037   0.541   1.937   2.312 -0.4055  1.2515 -0.0590
 1241SOL    HW3 5038   0.458   1.812   2.328  2.4809 -0.7293 -0.1234
 1241SOL    MW4 5039   0.474   1.895   2.349  0.4851 -0.2903 -0.1736
 1242SOL     OW 5040   0.681   2.021   2.256 -0.6619 -0.8550  0.1156
 1242SOL    HW2 5041   0.760   1.983   2.294 -0.8409 -0.9358  0.4125
 1242SOL    HW3 5042   0.688   2.114   2.274 -0.0045 -0.6790 -1.0092
 1242SOL    MW4 5043   0.692   2.028   2.264 -0.5987 -0.8426  0.0064
 1243SOL     OW 5044   0.715   2.278   2.329 -0.3497  0.1793  0.2770
 1243SOL    HW2 5045   0.709   2.267   2.424 -1.3136  1.0452  0.3263
 1243SOL    HW3 5046   0.788   2.339   2.317 -0.1514 -0.0219  0.4545
 1243SOL    MW4 5047   0.724   2.285   2.340 -0.4507  0.2670  0.3066
 1244SOL     OW 5048   0.509   2.456   2.230 -0.5626  0.0236  0.1927
 1244SOL    HW2 5049   0.590   2.407   2.240 -1.8254 -2.4012 -1.1898
 1244SOL    HW3 5050   0.441   2.401   2.269 -1.7838  1.3868  0.0733
 1244SOL    MW4 5051   0.511   2.442   2.237 -0.8903 -0.1166 -0.0052
 1245SOL     OW 5052   0.418   2.684   2.370  0.4028 -0.2208 -0.1374
 1245SOL    HW2 5053   0.421   2.673   2.465  2.0354 -0.9949 -0.2696
 1245SOL    HW3 5054   0.448   2.600   2.335  1.5659  0.6576 -1.2974
 1245SOL    MW4 5055   0.422   2.671   2.378  0.7716 -0.2074 -0.3080
 1246SOL     OW 5056   0.655   2.851   2.286  0.7018  0.0111  0.3260
 1246SOL    HW2 5057   0.737   2.819   2.322  0.7979 -2.1339 -1.6289
 1246SOL    HW3 5058   0.589   2.790   2.319  0.1166  0.8519  0.7119
 1246SOL    MW4 5059   0.657   2.839   2.295  0.6373 -0.1609  0.1187
 1247SOL     OW 5060   0.681   3.118   2.380  0.1437  0.5180 -0.7196
 1247SOL    HW2 5061   0.603   3.158   2.341 -0.0327  0.1066 -0.7925
 1247SOL    HW3 5062   0.678   3.027   2.351  0.4413  0.4067 -0.4012
 1247SOL    MW4 5063   0.670   3.112   2.371  0.1597  0.4489 -0.6874
 1248SOL     OW 5064   0.459   3.228   2.235  0.6360 -0.4687  0.5894
 1248SOL    HW2 5065   0.381   3.188   2.273 -0.7217  0.5803 -0.9630
 1248SOL    HW3 5066   0.443   3.225   2.140  1.3421  1.9725  0.3462
 1248SOL    MW4 5067   0.446   3.223   2.227  0.5500 -0.0083  0.3524
 1249SOL     OW 5068   0.462   3.468   2.389 -0.6113 -0.3207 -0.3065
 1249SOL    HW2 5069   0.540   3.516   2.361  0.9097 -1.9263  1.1266
 1249SOL    HW3 5070   0.464   3.387   2.339 -0.4623 -1.0804  0.9052
 1249SOL    MW4 5071   0.473   3.464   2.379 -0.3910 -0.6325  0.0422
 1250SOL     OW 5072   0.672   3.632   2.233 -0.2566 -0.1453 -0.1150
 1250SOL    HW2 5073   0.675   3.725   2.254 -1.7794 -0.1534  0.2009
 1250SOL    HW3 5074   0.674   3.629   2.137  0.5061  0.1783 -0.1082
 1250SOL    MW4 5075   0.673   3.644   2.223 -0.3569 -0.1037 -0.0727
 1251SOL     OW 5076   0.668   3.884   2.360 -0.4951 -0.0185  0.3553
 1251SOL    HW2 5077   0.662   3.892   2.455 -0.7916  1.1296  0.2525
 1251SOL    HW3 5078   0.586   3.922   2.328 -0.4465 -0.5037 -0.3519
 1251SOL    MW4 5079   0.656   3.890   2.368 -0.5279  0.0689  0.2482
 1252SOL     OW 5080   0.442   4.013   2.266  0.3357 -0.2572 -0.5481
 1252SOL    HW2 5081   0.365   3.969   2.301  0.4414  0.5943  0.8104
 1252SOL    HW3 5082   0.435   4.003   2.171  0.7910 -3.8584 -0.2503
 1252SOL    MW4 5083   0.431   4.006   2.258  0.4097 -0.6199 -0.3295
 1253SOL     OW 5084   0.462   4.287   2.402 -0.3868 -0.0484  0.2923
 1253SOL    HW2 5085   0.531   4.325   2.346  0.6062 -1.0613  0.8212
 1253SOL    HW3 5086   0.444   4.202   2.363 -2.6573  0.9421 -0.9235
 1253SOL    MW4 5087   0.469   4.281   2.389 -0.5553 -0.0510  0.2017
 1254SOL     OW 5088   0.691   4.375   2.255 -0.3100  0.2461 -0.3384
 1254SOL    HW2 5089   0.690   4.470   2.267 -1.0708  0.1242  0.6739
 1254SOL    HW3 5090   0.698   4.362   2.161 -2.4423  1.3400 -0.6746
 1254SOL    MW4 5091   0.692   4.386   2.244 -0.6917  0.3748 -0.2491
 1255SOL     OW 5092   1.112   4.658   2.333 -0.0667  0.1523 -0.0447
 1255SOL    HW2 5093   1.123   4.643   2.427  0.4381 -0.7124 -0.2395
 1255SOL    HW3 5094   1.026   4.701   2.326 -0.1386  0.1625  0.7993
 1255SOL    MW4 5095   1.102   4.662   2.344 -0.0094  0.0396  0.0410
 1256SOL     OW 5096   0.879   0.123   2.272  0.4997 -0.1205 -0.1224
 1256SOL    HW2 5097   0.872   0.214   2.302 -2.0732 -0.2040 -0.3784
 1256SOL    HW3 5098   0.882   0.129   2.177 -0.2245 -0.3291 -0.1591
 1256SOL    MW4 5099   0.878   0.136   2.264  0.0647 -0.1591 -0.1609
 1257SOL     OW 5100   0.868   0.397   2.363 -0.4252 -0.2622  0.0615
 1257SOL    HW2 5101   0.950   0.442   2.339  0.4499 -0.7590  2.0218
 1257SOL    HW3 5102   0.799   0.453   2.326  0.7447  1.1235 -0.0989
 1257SOL    MW4 5103   0.870   0.411   2.355 -0.1553 -0.1450  0.2987
 1258SOL     OW 5104   1.114   0.528   2.297 -0.1421 -0.0392 -0.2638
 1258SOL    HW2 5105   1.184   0.467   2.321 -0.1388  0.1399  0.1679
 1258SOL    HW3 5106   1.108   0.520   2.201  1.1878  0.7310 -0.4200
 1258SOL    MW4 5107   1.122   0.519   2.287  0.0337  0.0860 -0.2275
 1259SOL     OW 5108   1.138   0.798   2.354 -0.1237  0.4183 -0.4744
 1259SOL    HW2 5109   1.060   0.835   2.311 -1.4511 -1.4987  0.2054
 1259SOL    HW3 5110   1.132   0.704   2.337  3.0728  0.4315 -1.9956
 1259SOL    MW4 5111   1.127   0.790   2.346  0.1230  0.1671 -0.5856
 1260SOL     OW 5112   0.938   0.928   2.219 -0.3909 -0.2270 -0.0690
 1260SOL    HW2 5113   0.934   1.004   2.278  1.3856 -0.7627  0.7523
 1260SOL    HW3 5114   0.873   0.867   2.255  1.0622 -0.7746  1.6692
 1260SOL    MW4 5115   0.929   0.930   2.232  0.0352 -0.3699  0.2687
 1261SOL     OW 5116   0.910   1.177   2.368 -0.1171 -0.2802  0.1337
 1261SOL    HW2 5117   0.986   1.229   2.342 -0.6133 -0.2070 -1.1720
 1261SOL    HW3 5118   0.836   1.219   2.326 -0.7968 -0.8174  0.7728
 1261SOL    MW4 5119   0.910   1.189   2.359 -0.2723 -0.3413  0.0460
 1262SOL     OW 5120   1.135   1.300   2.234 -0.5563 -0.1495 -0.0796
 1262SOL    HW2 5121   1.216   1.257   2.263 -0.1712  0.2296 -0.5825
 1262SOL    HW3 5122   1.137   1.293   2.138  0.0195  1.8645 -0.2414
 1262SOL    MW4 5123   1.146   1.293   2.225 -0.4295  0.1661 -0.1674
 1263SOL     OW 5124   1.104   1.560   2.347  0.8234  0.2411  0.0162
 1263SOL    HW2 5125   1.025   1.600   2.311  0.0345 -1.4131 -0.1128
 1263SOL    HW3 5126   1.116   1.479   2.297  3.3377  1.1059 -0.8532
 1263SOL    MW4 5127   1.095   1.555   2.336  1.0509  0.1371 -0.1156
 1264SOL     OW 5128   0.879   1.675   2.248  0.5481  0.0287  0.3868
 1264SOL    HW2 5129   0.895   1.757   2.295  1.6552 -0.0781  0.2206
 1264SOL    HW3 5130   0.921   1.687   2.163  0.1711 -0.4746  0.1248
 1264SOL    MW4 5131   0.887   1.687   2.243  0.6444 -0.0519  0.3302
 1265SOL     OW 5132   0.924   1.905   2.370  0.2344 -0.8235 -0.0442
 1265SOL    HW2 5133   0.916   1.928   2.463  0.8675 -0.6019 -0.0408
 1265SOL    HW3 5134   0.990   1.965   2.336 -0.5039 -0.4251 -0.8094
 1265SOL    MW4 5135   0.931   1.916   2.378  0.2206 -0.7418 -0.1447
 1266SOL     OW 5136   1.119   2.067   2.273 -0.3193  0.3665  0.1782
 1266SOL    HW2 5137   1.201   2.032   2.309 -1.5388 -0.8655  1.8870
 1266SOL    HW3 5138   1.132   2.067   2.178  1.9164  0.8746  0.4611
 1266SOL    MW4 5139   1.131   2.062   2.265 -0.1851  0.2708  0.4411
 1267SOL     OW 5140   1.159   2.339   2.351 -0.0462 -0.0158 -0.1972
 1267SOL    HW2 5141   1.239   2.381   2.318 -0.4821  0.2733 -0.9035
 1267SOL    HW3 5142   1.167   2.248   2.324 -0.1064  0.0830 -0.5472
 1267SOL    MW4 5143   1.170   2.333   2.343 -0.1118  0.0355 -0.3366
 1268SOL     OW 5144   0.913   2.460   2.264 -0.2069  0.0783 -0.3915
 1268SOL    HW2 5145   0.996   2.422   2.294  0.2668  1.6067  0.2997
 1268SOL    HW3 5146   0.917   2.455   2.168  0.8950  0.5428 -0.3767
 1268SOL    MW4 5147   0.925   2.455   2.255  0.0010  0.3414 -0.2983
 1269SOL     OW 5148   0.897   2.720   2.373  0.0491  0.0926  0.1053
 1269SOL    HW2 5149   0.894   2.712   2.468 -1.7309  2.0350  0.2339
 1269SOL    HW3 5150   0.910   2.630   2.342  2.0624 -0.4006  2.2025
 1269SOL    MW4 5151   0.899   2.707   2.381  0.0799  0.2840  0.3991
 1270SOL     OW 5152   1.130   2.836   2.237 -0.0630 -0.2063 -0.0172
 1270SOL    HW2 5153   1.204   2.793   2.281  1.7662  1.3192 -1.5314
 1270SOL    HW3 5154   1.053   2.790   2.270  1.6812 -3.1820  0.1029
 1270SOL    MW4 5155   1.130   2.824   2.247  0.4085 -0.3977 -0.2010
 1271SOL     OW 5156   1.143   3.076   2.356 -0.6090 -0.5127  0.3186
 1271SOL    HW2 5157   1.067   3.116   2.314 -1.5048 -1.0366  1.4213
 1271SOL    HW3 5158   1.153   2.992   2.310 -1.0754 -0.7161  0.5878
 1271SOL    MW4 5159   1.134   3.070   2.344 -0.7887 -0.6087  0.4995
 1272SOL     OW 5160   0.899   3.218   2.245 -0.4697 -0.3449 -0.1671
 1272SOL    HW2 5161   0.901   3.307   2.279 -0.1893 -1.0882  1.8272
 1272SOL    HW3 5162   0.831   3.174   2.296 -1.1214 -1.0816 -1.6337
 1272SOL    MW4 5163   0.890   3.224   2.257 -0.5187 -0.5400 -0.0973
 1273SOL     OW 5164   0.908   3.487   2.345 -0.2112  0.2857 -0.4754
 1273SOL    HW2 5165   0.910   3.489   2.441  1.3323  2.0106 -0.5048
 1273SOL    HW3 5166   0.823   3.526   2.322 -1.5863 -2.2409  0.1983
 1273SOL    MW4 5167   0.897   3.493   2.355 -0.1890  0.1798 -0.3903
 1274SOL     OW 5168   1.149   3.614   2.261 -0.2109  0.7140 -0.2408
 1274SOL    HW2 5169   1.218   3.566   2.306 -0.1036  0.3339 -0.8089
 1274SOL    HW3 5170   1.069   3.567   2.282  0.0325 -0.3565 -1.6889
 1274SOL    MW4 5171   1.148   3.602   2.270 -0.1647  0.5224 -0.5069
 1275SOL     OW 5172   1.107   3.885   2.328  0.3127  0.2347 -0.4964
 1275SOL    HW2 5173   1.179   3.932   2.286 -0.5409  0.5695 -1.5953
 1275SOL    HW3 5174   1.119   3.794   2.301  0.4389  0.2498 -0.4943
 1275SOL    MW4 5175   1.118   3.880   2.319  0.2168  0.2811 -0.6411
 1276SOL     OW 5176   0.882   4.026   2.246 -0.4130 -0.0071  0.3888
 1276SOL    HW2 5177   0.957   3.975   2.277 -0.8661 -1.5845 -1.0115
 1276SOL    HW3 5178   0.808   3.993   2.297 -0.6621 -0.5565 -0.3283
 1276SOL    MW4 5179   0.882   4.015   2.257 -0.5056 -0.2875  0.1094
 1277SOL     OW 5180   0.909   4.289   2.370 -0.2620  0.3548 -0.4435
 1277SOL    HW2 5181   0.919   4.197   2.346 -1.6067 -0.9312  3.5094
 1277SOL    HW3 5182   0.827   4.315   2.328  0.6235  0.1120 -2.4084
 1277SOL    MW4 5183   0.899   4.280   2.361 -0.3225  0.1531 -0.1814
 1278SOL     OW 5184   1.128   4.395   2.251 -0.0171 -0.0560 -0.2170
 1278SOL    HW2 5185   1.047   4.356   2.284 -1.2169  0.6534 -2.2188
 1278SOL    HW3 5186   1.123   4.487   2.275  0.2235 -0.0213 -0.2967
 1278SOL    MW4 5187   1.117   4.402   2.258 -0.1436  0.0420 -0.4919
 1279SOL     OW 5188   1.608   4.661   2.355 -0.1902 -0.1227 -0.2590
 1279SOL    HW2 5189   1.677   4.716   2.318  0.0786 -0.3859 -0.1521
 1279SOL    HW3 5190   1.527   4.695   2.316 -0.2234  1.5101  1.1747
 1279SOL    MW4 5191   1.606   4.673   2.345 -0.1590  0.0577 -0.0556
 1280SOL     OW 5192   1.364   0.083   2.241  0.2526 -0.1120 -0.0236
 1280SOL    HW2 5193   1.353   0.170   2.279 -0.5815  0.2482 -1.0737
 1280SOL    HW3 5194   1.290   0.032   2.274  0.2778 -0.1876 -0.0830
 1280SOL    MW4 5195   1.353   0.087   2.250  0.1459 -0.0745 -0.1700
 1281SOL     OW 5196   1.335   0.360   2.341 -0.4389 -0.2041  0.0944
 1281SOL    HW2 5197   1.346   0.369   2.435 -1.1420 -0.7956  0.2363
 1281SOL    HW3 5198   1.399   0.420   2.303 -0.3527  0.2435  0.9505
 1281SOL    MW4 5199   1.345   0.369   2.348 -0.5203 -0.2231  0.2258
 1282SOL     OW 5200   1.540   0.508   2.201  0.3413 -0.1919  0.0375
 1282SOL    HW2 5201   1.622   0.470   2.231  0.4056  0.2586  0.4424
 1282SOL    HW3 5202   1.546   0.508   2.106  0.5171 -0.7986  0.0498
 1282SOL    MW4 5203   1.551   0.503   2.192  0.3729 -0.2126  0.0925
 1283SOL     OW 5204   1.596   0.727   2.380  0.9738  0.4628 -0.4575
 1283SOL    HW2 5205   1.663   0.780   2.337  1.3482 -0.0074 -0.4607
 1283SOL    HW3 5206   1.573   0.660   2.316  1.1746  0.0579 -0.1118
 1283SOL    MW4 5207   1.602   0.725   2.366  1.0498  0.3473 -0.4120
 1284SOL     OW 5208   1.380   0.877   2.256  0.1090 -0.1616  0.7764
 1284SOL    HW2 5209   1.451   0.825   2.294 -0.6919 -0.9702  1.1801
 1284SOL    HW3 5210   1.300   0.837   2.290 -0.5524  0.5494  0.0747
 1284SOL    MW4 5211   1.379   0.865   2.265 -0.0840 -0.1745  0.7372
 1285SOL     OW 5212   1.361   1.151   2.333  0.3167 -0.3206  0.2434
 1285SOL    HW2 5213   1.357   1.161   2.428 -0.6001 -0.3102  0.2059
 1285SOL    HW3 5214   1.358   1.056   2.318  0.1474 -0.3102  0.2112
 1285SOL    MW4 5215   1.360   1.139   2.343  0.1734 -0.3178  0.2346
 1286SOL     OW 5216   1.576   1.285   2.259 -0.2812 -0.0699 -0.0296
 1286SOL    HW2 5217   1.505   1.224   2.278  0.9786 -1.8562 -0.7879
 1286SOL    HW3 5218   1.590   1.276   2.165  0.6332  0.5870  0.0404
 1286SOL    MW4 5219   1.569   1.275   2.249  0.0057 -0.2189 -0.1202
 1287SOL     OW 5220   1.541   1.533   2.379 -0.4536 -0.1189  0.0406
 1287SOL    HW2 5221   1.615   1.584   2.346 -1.7429  1.6008 -0.2805
 1287SOL    HW3 5222   1.554   1.446   2.342  2.2450 -0.2999  1.2854
 1287SOL    MW4 5223   1.553   1.528   2.370 -0.2677  0.0840  0.1624
 1288SOL     OW 5224   1.345   1.701   2.286 -0.3155  0.1909 -0.0274
 1288SOL    HW2 5225   1.411   1.652   2.334 -1.1901  0.2026  1.2026
 1288SOL    HW3 5226   1.262   1.662   2.311 -1.0278  2.3073  1.0052
 1288SOL    MW4 5227   1.343   1.690   2.295 -0.5249  0.4717  0.2711
 1289SOL     OW 5228   1.351   1.970   2.377 -0.0850 -0.6503  0.0132
 1289SOL    HW2 5229   1.438   1.995   2.344 -0.0451 -0.8445 -0.0294
 1289SOL    HW3 5230   1.346   1.876   2.361 -0.3321 -0.6262 -0.0460
 1289SOL    MW4 5231   1.362   1.961   2.371 -0.1124 -0.6729  0.0000
 1290SOL     OW 5232   1.578   2.075   2.239 -0.0834  0.4281 -0.0529
 1290SOL    HW2 5233   1.658   2.038   2.277 -1.5131 -0.6053  2.0389
 1290SOL    HW3 5234   1.594   2.074   2.145  2.2217 -0.1256  0.3128
 1290SOL    MW4 5235   1.591   2.070   2.232  0.0322  0.2186  0.2716
 1291SOL     OW 5236   1.583   2.348   2.332 -0.0377 -0.3914  0.2917
 1291SOL    HW2 5237   1.569   2.343   2.427  2.4014 -0.8582  0.6410
 1291SOL    HW3 5238   1.578   2.257   2.303 -0.6654 -0.2587 -0.0277
 1291SOL    MW4 5239   1.580   2.335   2.341  0.2011 -0.4358  0.2956
 1292SOL     OW 5240   1.380   2.498   2.204  0.5248  0.1290 -0.3787
 1292SOL    HW2 5241   1.461   2.456   2.234 -0.1382 -0.5379  0.5170
 1292SOL    HW3 5242   1.373   2.474   2.112  1.7332  0.8189 -0.6670
 1292SOL    MW4 5243   1.390   2.489   2.196  0.5968  0.1318 -0.2987
 1293SOL     OW 5244   1.367   2.739   2.355  0.4480 -0.1094  0.2392
 1293SOL    HW2 5245   1.427   2.794   2.305  1.0377 -1.4472 -0.5636
 1293SOL    HW3 5246   1.364   2.657   2.306 -1.3805 -0.3658  0.7417
 1293SOL    MW4 5247   1.374   2.735   2.342  0.2846 -0.3197  0.1996
 1294SOL     OW 5248   1.559   2.869   2.194 -0.2318  0.1992  0.2160
 1294SOL    HW2 5249   1.559   2.955   2.234  0.5552 -0.0080  0.6573
 1294SOL    HW3 5250   1.637   2.826   2.228 -1.5200 -1.3160  1.3474
 1294SOL    MW4 5251   1.569   2.874   2.204 -0.2978 -0.0277  0.4237
 1295SOL     OW 5252   1.562   3.127   2.308 -0.4373 -0.2576  0.1381
 1295SOL    HW2 5253   1.595   3.135   2.398 -0.5436 -0.8677  0.2381
 1295SOL    HW3 5254   1.485   3.184   2.306  0.5575  1.1047 -0.0740
 1295SOL    MW4 5255   1.556   3.135   2.320 -0.3201 -0.1583  0.1233
 1296SOL     OW 5256   1.318   3.275   2.254  0.0796  0.1539  0.1142
 1296SOL    HW2 5257   1.253   3.213   2.286 -1.7413  1.7493 -0.3917
 1296SOL    HW3 5258   1.319   3.263   2.159 -0.8936  1.4446 -0.0754
 1296SOL    MW4 5259   1.310   3.265   2.246 -0.2890  0.5348  0.0224
 1297SOL     OW 5260   1.366   3.508   2.381 -0.7439 -0.2988  0.1495
 1297SOL    HW2 5261   1.348   3.495   2.474 -1.7112 -1.0431 -0.1372
 1297SOL    HW3 5262   1.356   3.421   2.342 -0.0014 -0.0577 -0.5976
 1297SOL    MW4 5263   1.362   3.494   2.388 -0.7735 -0.3653  0.0131
 1298SOL     OW 5264   1.565   3.620   2.233  0.4438 -0.8999  0.4834
 1298SOL    HW2 5265   1.573   3.713   2.252  0.7826 -1.2032  1.9055
 1298SOL    HW3 5266   1.483   3.593   2.275 -0.1875 -1.0225 -0.8272
 1298SOL    MW4 5267   1.555   3.629   2.241  0.4052 -0.9561  0.4983
 1299SOL     OW 5268   1.557   3.903   2.307  0.2834 -0.8254 -0.5360
 1299SOL    HW2 5269   1.552   3.899   2.402 -2.8734  2.5472 -0.4562
 1299SOL    HW3 5270   1.642   3.943   2.289  1.2736 -2.2967  0.8013
 1299SOL    MW4 5271   1.567   3.908   2.317 -0.0025 -0.5746 -0.3488
 1300SOL     OW 5272   1.326   4.005   2.222 -0.0365 -0.3594  0.2010
 1300SOL    HW2 5273   1.411   3.977   2.257 -0.1560 -0.0004  0.7932
 1300SOL    HW3 5274   1.336   3.999   2.127  1.0341  0.7664  0.2235
 1300SOL    MW4 5275   1.339   4.001   2.214  0.0888 -0.1640  0.2823
 1301SOL     OW 5276   1.351   4.263   2.352  0.3408 -0.0205  0.2776
 1301SOL    HW2 5277   1.348   4.187   2.294  0.7571  1.3464 -1.5886
 1301SOL    HW3 5278   1.273   4.313   2.330  1.7984  1.7781 -0.9251
 1301SOL    MW4 5279   1.340   4.259   2.341  0.5881  0.3972 -0.1273
 1302SOL     OW 5280   1.552   4.413   2.225 -0.0211 -0.1176  0.0467
 1302SOL    HW2 5281   1.491   4.366   2.282 -0.7281  0.9829  0.2026
 1302SOL    HW3 5282   1.557   4.501   2.262  0.8637  0.0950 -0.5714
 1302SOL    MW4 5283   1.544   4.418   2.237  0.0024  0.0558 -0.0143
 1303SOL     OW 5284   2.029   4.662   2.345  0.2682  0.1998 -0.2312
 1303SOL    HW2 5285   2.112   4.691   2.307 -1.1753  2.5720 -1.7378
 1303SOL    HW3 5286   2.013   4.577   2.306  0.2672  1.2987 -2.7456
 1303SOL    MW4 5287   2.038   4.655   2.335  0.0775  0.6580 -0.7617
 1304SOL     OW 5288   1.810   0.126   2.218  0.4089 -0.1287  0.2474
 1304SOL    HW2 5289   1.802   0.219   2.238  0.0460 -0.3735  1.2295
 1304SOL    HW3 5290   1.882   0.095   2.273 -0.7933 -0.8629  1.4265
 1304SOL    MW4 5291   1.818   0.134   2.228  0.2023 -0.2579  0.5329
 1305SOL     OW 5292   1.774   0.391   2.327  0.2413  0.1579  0.1726
 1305SOL    HW2 5293   1.770   0.383   2.422 -0.2827  0.3873  0.1741
 1305SOL    HW3 5294   1.859   0.431   2.309 -0.1194  1.1459  0.6199
 1305SOL    MW4 5295   1.785   0.395   2.337  0.1245  0.3186  0.2320
 1306SOL     OW 5296   2.014   0.489   2.232  0.0037 -0.2209 -0.0760
 1306SOL    HW2 5297   2.025   0.578   2.264  1.5110 -0.6619  0.7221
 1306SOL    HW3 5298   2.006   0.497   2.137  1.8488  0.6430 -0.1824
 1306SOL    MW4 5299   2.015   0.502   2.224  0.4458 -0.1651  0.0155
 1307SOL     OW 5300   2.037   0.750   2.355  0.0103  0.4695 -0.0053
 1307SOL    HW2 5301   2.112   0.808   2.342  1.3794 -1.0107  1.1348
 1307SOL    HW3 5302   1.965   0.795   2.311  1.7119  1.5755 -1.7877
 1307SOL    MW4 5303   2.038   0.763   2.347  0.4156  0.4202 -0.0901
 1308SOL     OW 5304   1.821   0.892   2.269  0.4675 -0.2235 -0.1123
 1308SOL    HW2 5305   1.831   0.976   2.313  2.9395 -0.6354  0.1826
 1308SOL    HW3 5306   1.838   0.911   2.177 -1.7770  0.0861 -0.4970
 1308SOL    MW4 5307   1.824   0.905   2.263  0.4975 -0.2370 -0.1237
 1309SOL     OW 5308   1.830   1.147   2.386 -0.6303 -0.3031  0.1574
 1309SOL    HW2 5309   1.898   1.188   2.332 -0.7422 -0.2218  0.0777
 1309SOL    HW3 5310   1.748   1.168   2.341 -0.6350 -1.2710 -0.3094
 1309SOL    MW4 5311   1.829   1.155   2.373 -0.6458 -0.4201  0.0854
 1310SOL     OW 5312   2.012   1.270   2.242  0.0561  0.6396 -0.4516
 1310SOL    HW2 5313   2.014   1.363   2.264 -1.0280  0.8651 -1.2583
 1310SOL    HW3 5314   2.006   1.268   2.146  0.5485 -0.2685 -0.4700
 1310SOL    MW4 5315   2.011   1.282   2.232 -0.0217  0.5496 -0.5603
 1311SOL     OW 5316   2.028   1.542   2.303 -0.0732 -0.4291  0.0694
 1311SOL    HW2 5317   2.038   1.553   2.397 -0.2358  0.5851 -0.0182
 1311SOL    HW3 5318   1.936   1.564   2.286  0.6232  2.0966 -0.6635
 1311SOL    MW4 5319   2.017   1.547   2.313 -0.0026  0.0379 -0.0389
 1312SOL     OW 5320   1.772   1.648   2.296  0.6079 -0.0602  0.1660
 1312SOL    HW2 5321   1.798   1.733   2.332 -1.7140  0.2316  1.2367
 1312SOL    HW3 5322   1.778   1.659   2.201 -1.9394  2.0991  0.2006
 1312SOL    MW4 5323   1.776   1.660   2.288 -0.0346  0.2631  0.3119
 1313SOL     OW 5324   1.790   1.950   2.375 -0.7100  0.0702  0.3427
 1313SOL    HW2 5325   1.796   1.964   2.470 -0.1565  1.5925  0.0992
 1313SOL    HW3 5326   1.864   2.000   2.339 -1.7948  0.7374 -0.9925
 1313SOL    MW4 5327   1.801   1.959   2.383 -0.7800  0.3591  0.1347
 1314SOL     OW 5328   1.993   2.070   2.251 -0.4869  0.5724 -0.0763
 1314SOL    HW2 5329   2.078   2.030   2.273  0.0410  0.3152 -2.5009
 1314SOL    HW3 5330   1.989   2.068   2.156 -2.4204  2.2886 -0.0647
 1314SOL    MW4 5331   2.004   2.064   2.241 -0.6723  0.7644 -0.3948
 1315SOL     OW 5332   2.011   2.318   2.368 -0.0200 -0.3466 -0.1158
 1315SOL    HW2 5333   2.083   2.366   2.328  0.4738 -1.2615 -0.3517
 1315SOL    HW3 5334   2.006   2.236   2.318  0.1717 -1.2104  1.2293
 1315SOL    MW4 5335   2.020   2.313   2.356  0.0703 -0.5810  0.0303
 1316SOL     OW 5336   1.818   2.456   2.232 -0.1965 -0.0567 -0.2978
 1316SOL    HW2 5337   1.888   2.413   2.281  0.2584  1.5219  0.4646
 1316SOL    HW3 5338   1.737   2.417   2.266  0.2146 -0.4556  0.2239
 1316SOL    MW4 5339   1.816   2.445   2.243 -0.0823  0.0989 -0.1285
 1317SOL     OW 5340   1.774   2.722   2.339  0.3996 -0.4069 -0.3603
 1317SOL    HW2 5341   1.779   2.718   2.435  1.4081 -1.6500 -0.4515
 1317SOL    HW3 5342   1.765   2.631   2.311 -1.6408  0.0832 -1.3765
 1317SOL    MW4 5343   1.773   2.709   2.348  0.2635 -0.5064 -0.5066
 1318SOL     OW 5344   2.017   2.838   2.233 -0.2303 -0.2994 -0.0781
 1318SOL    HW2 5345   2.089   2.794   2.278 -1.2633 -2.0215 -0.0864
 1318SOL    HW3 5346   1.939   2.791   2.260 -1.6029  2.5634  1.2267
 1318SOL    MW4 5347   2.016   2.826   2.242 -0.5476 -0.1490  0.0930
 1319SOL     OW 5348   1.975   3.100   2.334 -0.0854 -0.4231 -0.1477
 1319SOL    HW2 5349   2.063   3.126   2.306  1.2863 -2.0233  2.5263
 1319SOL    HW3 5350   1.959   3.018   2.288  1.0153 -1.6169  1.5930
 1319SOL    MW4 5351   1.984   3.093   2.324  0.2408 -0.7915  0.4349
 1320SOL     OW 5352   1.780   3.244   2.186 -0.3697  0.1569 -0.1920
 1320SOL    HW2 5353   1.856   3.204   2.229  1.3765 -0.7939 -3.9925
 1320SOL    HW3 5354   1.704   3.203   2.228  1.2527 -1.5116  1.1981
 1320SOL    MW4 5355   1.780   3.233   2.197  0.0746 -0.1886 -0.5100
 1321SOL     OW 5356   1.799   3.487   2.310 -0.1829 -0.7840  0.4284
 1321SOL    HW2 5357   1.796   3.407   2.258  0.9406  0.6612 -1.9300
 1321SOL    HW3 5358   1.725   3.539   2.280  0.7906  0.2935 -0.1472
 1321SOL    MW4 5359   1.789   3.484   2.299  0.0939 -0.4511  0.0412
 1322SOL     OW 5360   2.012   3.677   2.280 -0.1186  0.6043  0.5752
 1322SOL    HW2 5361   1.948   3.608   2.296  1.5408 -1.0002  0.5328
 1322SOL    HW3 5362   2.023   3.678   2.184  0.1268  0.6790  0.6041
 1322SOL    MW4 5363   2.005   3.668   2.269  0.1328  0.4027  0.5736
 1323SOL     OW 5364   1.999   3.943   2.372 -0.6417 -0.0560 -0.0409
 1323SOL    HW2 5365   2.004   3.946   2.467 -0.7271  0.2308 -0.0465
 1323SOL    HW3 5366   2.004   3.849   2.351  1.1165 -0.0014  0.1379
 1323SOL    MW4 5367   2.000   3.931   2.381 -0.4210 -0.0110 -0.0181
 1324SOL     OW 5368   1.771   4.052   2.251  0.6617  0.0001  0.2377
 1324SOL    HW2 5369   1.861   4.026   2.271  0.5250 -1.2839 -0.7243
 1324SOL    HW3 5370   1.764   4.043   2.155 -0.2360  0.9031  0.2047
 1324SOL    MW4 5371   1.782   4.047   2.241  0.5251 -0.0501  0.1066
 1325SOL     OW 5372   1.783   4.296   2.383  0.2144  0.1117 -0.1913
 1325SOL    HW2 5373   1.776   4.206   2.352  1.8485  0.4205 -1.4943
 1325SOL    HW3 5374   1.714   4.343   2.336  0.1836 -0.1992 -0.4595
 1325SOL    MW4 5375   1.773   4.290   2.373  0.4259  0.1111 -0.3984
 1326SOL     OW 5376   2.004   4.401   2.258  0.3579  0.9478 -0.8581
 1326SOL    HW2 5377   1.926   4.359   2.295 -0.6444  2.3754 -1.2932
 1326SOL    HW3 5378   1.997   4.386   2.164  0.5950  1.1125 -0.9032
 1326SOL    MW4 5379   1.993   4.393   2.250  0.2570  1.1578 -0.9215
 1327SOL     OW 5380   2.474   4.644   2.366  0.1537 -0.0419  0.0708
 1327SOL    HW2 5381   2.565   4.662   2.341  0.3507  0.3776  1.0988
 1327SOL    HW3 5382   2.455   4.560   2.324  1.2095 -0.4297  0.3395
 1327SOL    MW4 5383   2.484   4.635   2.357  0.3192 -0.0377  0.2418
 1328SOL     OW 5384   2.265   0.125   2.236 -0.1078 -0.4192 -0.5463
 1328SOL    HW2 5385   2.251   0.212   2.273  0.0061 -0.8641  0.5675
 1328SOL    HW3 5386   2.348   0.096   2.273 -0.1628 -1.0115 -0.8818
 1328SOL    MW4 5387   2.274   0.132   2.246 -0.1001 -0.5561 -0.4437
 1329SOL     OW 5388   2.230   0.376   2.375  0.3275  0.3559 -0.1625
 1329SOL    HW2 5389   2.304   0.429   2.348 -0.0874  0.8558 -0.3284
 1329SOL    HW3 5390   2.154   0.417   2.332 -0.3932  1.3406  1.9934
 1329SOL    MW4 5391   2.230   0.388   2.366  0.1776  0.5518  0.1001
 1330SOL     OW 5392   2.451   0.505   2.241  0.4312  0.4409  0.0636
 1330SOL    HW2 5393   2.534   0.467   2.271  0.2949  0.2945  0.2560
 1330SOL    HW3 5394   2.467   0.526   2.149  0.5369 -0.0078 -0.0260
 1330SOL    MW4 5395   2.464   0.502   2.233  0.4272  0.3624  0.0775
 1331SOL     OW 5396   2.449   0.734   2.394  0.3995  0.4771 -0.1943
 1331SOL    HW2 5397   2.531   0.768   2.359  0.9561  0.2816  0.8968
 1331SOL    HW3 5398   2.448   0.642   2.366  0.9282  0.2726  0.4383
 1331SOL    MW4 5399   2.460   0.726   2.386  0.5429  0.4243  0.0331
 1332SOL     OW 5400   2.249   0.934   2.256 -0.3225  0.1097 -0.2326
 1332SOL    HW2 5401   2.255   1.026   2.283  0.7863 -0.2247  0.6891
 1332SOL    HW3 5402   2.309   0.888   2.314 -0.4883 -1.1344 -1.0323
 1332SOL    MW4 5403   2.258   0.940   2.268 -0.1979 -0.0985 -0.2165
 1333SOL     OW 5404   2.244   1.200   2.393 -0.0561 -0.1802 -0.4286
 1333SOL    HW2 5405   2.324   1.239   2.357  0.9932 -0.5770  1.3825
 1333SOL    HW3 5406   2.173   1.245   2.348  1.1760  0.7059 -1.5400
 1333SOL    MW4 5407   2.246   1.211   2.382  0.2449 -0.1158 -0.3362
 1334SOL     OW 5408   2.482   1.284   2.219 -0.1475 -0.5045  0.2969
 1334SOL    HW2 5409   2.548   1.223   2.252 -0.9414 -1.6801 -0.2335
 1334SOL    HW3 5410   2.508   1.370   2.253  1.1702 -1.0923  0.7821
 1334SOL    MW4 5411   2.494   1.287   2.228 -0.0784 -0.7371  0.2911
 1335SOL     OW 5412   2.483   1.529   2.342  0.1074  0.3794 -0.0521
 1335SOL    HW2 5413   2.467   1.525   2.437 -0.6340  1.6660 -0.1088
 1335SOL    HW3 5414   2.557   1.590   2.334 -0.1480  0.6546 -0.3253
 1335SOL    MW4 5415   2.491   1.537   2.354 -0.0241  0.5854 -0.0958
 1336SOL     OW 5416   2.250   1.668   2.224 -0.3032 -0.2728 -0.0457
 1336SOL    HW2 5417   2.324   1.630   2.270 -0.1113  0.5503  0.3476
 1336SOL    HW3 5418   2.174   1.619   2.256 -0.1569  0.2064  1.0716
 1336SOL    MW4 5419   2.249   1.657   2.234 -0.2587 -0.1010  0.1540
 1337SOL     OW 5420   2.209   1.915   2.336  0.1847 -0.1497  0.0421
 1337SOL    HW2 5421   2.283   1.968   2.304  0.4207  0.1342  1.0244
 1337SOL    HW3 5422   2.216   1.832   2.289 -0.1293  0.6488 -1.4518
 1337SOL    MW4 5423   2.220   1.911   2.326  0.1745 -0.0069 -0.0250
 1338SOL     OW 5424   2.436   2.036   2.235  0.6612 -0.1187  0.0156
 1338SOL    HW2 5425   2.501   1.979   2.275 -0.0611 -0.9461  0.0185
 1338SOL    HW3 5426   2.467   2.050   2.146  0.4362 -1.1551 -0.2291
 1338SOL    MW4 5427   2.449   2.030   2.229  0.5362 -0.3643 -0.0165
 1339SOL     OW 5428   2.470   2.305   2.325  0.6923 -0.0445 -0.0969
 1339SOL    HW2 5429   2.548   2.340   2.283  1.6348 -1.0049  0.8256
 1339SOL    HW3 5430   2.465   2.214   2.293 -0.7782  0.3863 -1.1616
 1339SOL    MW4 5431   2.480   2.297   2.315  0.6227 -0.1147 -0.1154
 1340SOL     OW 5432   2.225   2.441   2.263 -0.3142 -0.0101  0.2540
 1340SOL    HW2 5433   2.221   2.534   2.285  0.3654 -0.0160  0.3948
 1340SOL    HW3 5434   2.311   2.412   2.293 -0.0523 -0.4112 -0.8434
 1340SOL    MW4 5435   2.236   2.449   2.270 -0.1898 -0.0637  0.1280
 1341SOL     OW 5436   2.261   2.717   2.366  0.3441  0.2480 -0.0376
 1341SOL    HW2 5437   2.252   2.744   2.457  2.0665 -1.8308  0.7961
 1341SOL    HW3 5438   2.343   2.756   2.337 -0.1190  0.7686 -0.6428
 1341SOL    MW4 5439   2.270   2.726   2.374  0.5102  0.0427 -0.0076
 1342SOL     OW 5440   2.493   2.819   2.235  0.1841 -0.0537  0.0500
 1342SOL    HW2 5441   2.560   2.755   2.260  0.3875  0.4113  0.6888
 1342SOL    HW3 5442   2.484   2.808   2.140  0.1853 -1.0615  0.1557
 1342SOL    MW4 5443   2.500   2.809   2.225  0.2108 -0.1252  0.1483
 1343SOL     OW 5444   2.449   3.093   2.310  0.1158  0.2981  0.8407
 1343SOL    HW2 5445   2.459   3.104   2.404  0.2036 -0.1678  0.8901
 1343SOL    HW3 5446   2.464   2.999   2.295 -2.2165 -0.0691  0.6680
 1343SOL    MW4 5447   2.452   3.082   2.320 -0.1802  0.1884  0.8245
 1344SOL     OW 5448   2.208   3.231   2.247 -0.3892 -0.7028  0.2733
 1344SOL    HW2 5449   2.215   3.316   2.290  1.1290 -0.0409 -1.2016
 1344SOL    HW3 5450   2.285   3.182   2.279 -0.2572 -0.8581 -0.2751
 1344SOL    MW4 5451   2.219   3.236   2.257 -0.1717 -0.6359  0.0062
 1345SOL     OW 5452   2.237   3.491   2.352  0.3474 -0.2885 -0.1280
 1345SOL    HW2 5453   2.251   3.482   2.446  0.1304  0.0280 -0.0630
 1345SOL    HW3 5454   2.162   3.551   2.345 -0.4635 -1.3250 -0.4785
 1345SOL    MW4 5455   2.229   3.498   2.363  0.2117 -0.3834 -0.1657
 1346SOL     OW 5456   2.431   3.643   2.191 -0.2651  0.1866 -0.6192
 1346SOL    HW2 5457   2.434   3.730   2.230  1.8090 -0.0799 -0.1476
 1346SOL    HW3 5458   2.360   3.598   2.238 -0.4145  1.1545  0.0963
 1346SOL    MW4 5459   2.422   3.649   2.202 -0.0114  0.2792 -0.4628
 1347SOL     OW 5460   2.456   3.890   2.342  0.3683 -0.2962  0.2138
 1347SOL    HW2 5461   2.451   3.896   2.437 -0.5483  0.1449  0.1415
 1347SOL    HW3 5462   2.384   3.944   2.310  1.3964  0.5470 -0.7579
 1347SOL    MW4 5463   2.446   3.898   2.350  0.3831 -0.1268  0.0761
 1348SOL     OW 5464   2.250   4.021   2.211  0.2585  0.0938 -0.3568
 1348SOL    HW2 5465   2.241   4.105   2.256 -0.4453 -0.2891  0.2465
 1348SOL    HW3 5466   2.169   3.974   2.233  1.0890 -1.1337  0.1698
 1348SOL    MW4 5467   2.238   4.026   2.220  0.2751 -0.1192 -0.2077
 1349SOL     OW 5468   2.239   4.275   2.331  0.2139  0.2058  0.0195
 1349SOL    HW2 5469   2.222   4.273   2.426 -0.0461  1.7549  0.0261
 1349SOL    HW3 5470   2.167   4.328   2.296  0.1042 -0.6724 -1.0976
 1349SOL    MW4 5471   2.227   4.282   2.339  0.1650  0.2942 -0.1273
 1350SOL     OW 5472   2.462   4.386   2.229  0.1307 -0.5215 -0.0874
 1350SOL    HW2 5473   2.530   4.340   2.279  0.6448  1.2010  0.8312
 1350SOL    HW3 5474   2.380   4.353   2.266  0.4993 -0.4231  0.8333
 1350SOL    MW4 5475   2.460   4.376   2.241  0.2472 -0.2809  0.1552
 1351SOL     OW 5476   2.936   4.648   2.366 -0.6352  0.0148  0.1878
 1351SOL    HW2 5477   2.996   4.702   2.313 -1.8604  1.5450  0.3193
 1351SOL    HW3 5478   2.930   4.565   2.319  0.3551  0.4147 -0.6625
 1351SOL    MW4 5479   2.943   4.644   2.353 -0.6664  0.2695  0.0930
 1352SOL     OW 5480   2.727   0.111   2.224  0.4396 -0.4810 -0.1416
 1352SOL    HW2 5481   2.707   0.197   2.262  0.0073 -0.7348  0.2088
 1352SOL    HW3 5482   2.792   0.073   2.283  1.0530 -0.1670 -0.6048
 1352SOL    MW4 5483   2.733   0.117   2.237  0.4635 -0.4730 -0.1566
 1353SOL     OW 5484   2.699   0.395   2.324  0.0464  0.2808  0.4163
 1353SOL    HW2 5485   2.695   0.398   2.420  0.7137  1.7035  0.4080
 1353SOL    HW3 5486   2.781   0.439   2.302 -0.3572  0.4272 -0.8295
 1353SOL    MW4 5487   2.709   0.401   2.334  0.0811  0.4879  0.2506
 1354SOL     OW 5488   2.935   0.504   2.260 -0.3718  0.1428 -0.3141
 1354SOL    HW2 5489   2.918   0.593   2.290 -1.5628 -0.4075  0.7275
 1354SOL    HW3 5490   2.936   0.510   2.165  0.5329  1.4326 -0.2247
 1354SOL    MW4 5491   2.933   0.516   2.252 -0.4094  0.2404 -0.1647
 1355SOL     OW 5492   2.913   0.774   2.354 -0.0095 -0.3206 -0.1261
 1355SOL    HW2 5493   2.905   0.785   2.449 -1.5161 -1.0961 -0.1437
 1355SOL    HW3 5494   2.843   0.830   2.318  0.9727  0.4770 -0.8096
 1355SOL    MW4 5495   2.902   0.783   2.362 -0.0787 -0.3177 -0.2184
 1356SOL     OW 5496   2.668   0.875   2.247  0.4800 -0.2982 -0.1694
 1356SOL    HW2 5497   2.675   0.970   2.261  0.2294 -0.3832  0.5420
 1356SOL    HW3 5498   2.677   0.865   2.152 -2.1014  0.6750 -0.5512
 1356SOL    MW4 5499   2.670   0.886   2.236  0.1063 -0.1810 -0.1259
 1357SOL     OW 5500   2.680   1.132   2.343  0.2210  0.2287 -0.4896
 1357SOL    HW2 5501   2.683   1.129   2.438 -1.5435  1.3822 -0.3777
 1357SOL    HW3 5502   2.758   1.182   2.318  0.8549 -0.3415  0.3086
 1357SOL    MW4 5503   2.691   1.138   2.352  0.0718  0.3057 -0.3695
 1358SOL     OW 5504   2.905   1.251   2.256 -0.1643 -0.2584  0.9373
 1358SOL    HW2 5505   2.986   1.208   2.283 -0.7789 -1.6430  0.6058
 1358SOL    HW3 5506   2.902   1.238   2.161 -0.7165 -0.1085  0.9373
 1358SOL    MW4 5507   2.916   1.244   2.247 -0.3181 -0.4214  0.8938
 1359SOL     OW 5508   2.890   1.509   2.334 -0.6705  0.4511  0.2522
 1359SOL    HW2 5509   2.885   1.507   2.430 -1.7682  0.3959  0.2000
 1359SOL    HW3 5510   2.903   1.418   2.308  1.0243  0.6461  0.4190
 1359SOL    MW4 5511   2.891   1.497   2.343 -0.5915  0.4696  0.2673
 1360SOL     OW 5512   2.697   1.663   2.222  0.0264  0.0659  0.6086
 1360SOL    HW2 5513   2.766   1.603   2.252 -1.5290 -2.2520 -0.2650
 1360SOL    HW3 5514   2.707   1.665   2.127 -1.6720 -1.0963  0.3703
 1360SOL    MW4 5515   2.707   1.655   2.214 -0.4029 -0.3934  0.4618
 1361SOL     OW 5516   2.665   1.915   2.342  0.0117  0.2403  0.3380
 1361SOL    HW2 5517   2.677   1.894   2.435  2.0895  0.6656  0.1896
 1361SOL    HW3 5518   2.693   1.836   2.296 -0.5296  0.2158  0.0459
 1361SOL    MW4 5519   2.671   1.902   2.348  0.2146  0.2933  0.2799
 1362SOL     OW 5520   2.893   2.040   2.256  0.4029  0.1738  0.0031
 1362SOL    HW2 5521   2.964   1.994   2.301  0.7755  1.8139  1.1513
 1362SOL    HW3 5522   2.813   2.001   2.291  0.7294 -0.6108 -0.1279
 1362SOL    MW4 5523   2.892   2.029   2.266  0.4950  0.2866  0.1373
 1363SOL     OW 5524   2.940   2.295   2.349  0.4419 -0.3676 -0.5011
 1363SOL    HW2 5525   2.903   2.298   2.438 -1.2597 -0.7598 -1.1658
 1363SOL    HW3 5526   2.918   2.207   2.318 -1.0334  0.5440 -2.1385
 1363SOL    MW4 5527   2.932   2.284   2.357  0.0229 -0.2987 -0.8049
 1364SOL     OW 5528   2.717   2.388   2.220  0.4002 -0.1537 -0.3785
 1364SOL    HW2 5529   2.803   2.361   2.251  0.5403 -0.9239 -1.3933
 1364SOL    HW3 5530   2.731   2.415   2.129 -0.4469 -0.4234 -0.6004
 1364SOL    MW4 5531   2.730   2.388   2.212  0.3071 -0.2906 -0.5414
 1365SOL     OW 5532   2.680   2.654   2.314  0.3146 -0.0335 -0.1493
 1365SOL    HW2 5533   2.765   2.693   2.296  0.1266  0.3544 -0.2026
 1365SOL    HW3 5534   2.688   2.564   2.283  0.9954 -0.2636  0.6742
 1365SOL    MW4 5535   2.692   2.647   2.308  0.3798 -0.0124 -0.0479
 1366SOL     OW 5536   2.914   2.789   2.267  0.3289 -0.2514  0.5013
 1366SOL    HW2 5537   2.924   2.877   2.304  1.2792 -0.1396 -0.0072
 1366SOL    HW3 5538   2.928   2.801   2.173 -2.4952 -0.4702  0.0352
 1366SOL    MW4 5539   2.917   2.802   2.260  0.0818 -0.2654  0.3726
 1367SOL     OW 5540   2.884   3.079   2.341 -0.1527 -0.0860  0.4267
 1367SOL    HW2 5541   2.962   3.134   2.332 -0.0906  0.1553  2.2320
 1367SOL    HW3 5542   2.814   3.130   2.302  0.1514  0.7149  0.9200
 1367SOL    MW4 5543   2.885   3.093   2.335 -0.1044  0.0517  0.7300
 1368SOL     OW 5544   2.667   3.229   2.241 -0.0594 -0.1879  0.1818
 1368SOL    HW2 5545   2.652   3.323   2.251  1.3010  0.1172 -0.5118
 1368SOL    HW3 5546   2.582   3.190   2.258 -0.7390  1.2006  0.1027
 1368SOL    MW4 5547   2.654   3.237   2.244  0.0303  0.0358  0.0801
 1369SOL     OW 5548   2.648   3.501   2.304 -0.1415 -0.1168  0.1271
 1369SOL    HW2 5549   2.726   3.553   2.285 -0.4290 -0.2313 -1.4164
 1369SOL    HW3 5550   2.576   3.551   2.265 -1.1676  1.0044  3.2090
 1369SOL    MW4 5551   2.649   3.515   2.297 -0.3150  0.0160  0.3302
 1370SOL     OW 5552   2.891   3.614   2.258 -0.0143 -0.3019 -0.0117
 1370SOL    HW2 5553   2.965   3.563   2.291 -0.8599 -1.5464 -0.0218
 1370SOL    HW3 5554   2.915   3.705   2.277  1.0544 -0.7575  0.9041
 1370SOL    MW4 5555   2.904   3.620   2.264  0.0150 -0.5260  0.1078
 1371SOL     OW 5556   2.937   3.910   2.328  0.4066  0.2234 -0.1604
 1371SOL    HW2 5557   2.922   3.897   2.422  0.8354 -1.0269 -0.2570
 1371SOL    HW3 5558   2.853   3.941   2.295 -0.4968 -1.7603  0.2028
 1371SOL    MW4 5559   2.924   3.912   2.336  0.3440 -0.2034 -0.1254
 1372SOL     OW 5560   2.691   4.003   2.262 -0.3101 -0.2280  0.0560
 1372SOL    HW2 5561   2.617   3.951   2.292 -0.6772  0.9363  1.2022
 1372SOL    HW3 5562   2.676   4.013   2.167 -1.6451  0.0182  0.2778
 1372SOL    MW4 5563   2.679   3.998   2.253 -0.5345 -0.0422  0.2365
 1373SOL     OW 5564   2.695   4.268   2.347  0.0072  0.1776 -0.0551
 1373SOL    HW2 5565   2.705   4.265   2.442 -0.9443 -0.2317  0.0358
 1373SOL    HW3 5566   2.683   4.177   2.321  0.7339  0.2382 -0.6297
 1373SOL    MW4 5567   2.695   4.256   2.356 -0.0222  0.1311 -0.1190
 1374SOL     OW 5568   2.916   4.378   2.251  0.0281 -0.3642 -0.1098
 1374SOL    HW2 5569   2.995   4.349   2.297  0.7276  2.1494  0.3535
 1374SOL    HW3 5570   2.844   4.338   2.300  0.9255 -0.7301  0.9303
 1374SOL    MW4 5571   2.917   4.369   2.264  0.2389 -0.0811  0.0885
 1375SOL     OW 5572   3.338   4.663   2.304  0.3527  0.3567  0.4213
 1375SOL    HW2 5573   3.337   4.653   2.399  0.1496  2.5625  0.6827
 1375SOL    HW3 5574   3.421   4.706   2.285  0.2939  0.1301 -0.3848
 1375SOL    MW4 5575   3.349   4.667   2.314  0.3183  0.6185  0.3495
 1376SOL     OW 5576   3.109   0.136   2.224 -0.5489  0.0453  0.3419
 1376SOL    HW2 5577   3.116   0.224   2.260  2.4990 -0.0589  0.1596
 1376SOL    HW3 5578   3.185   0.090   2.259 -0.4664 -1.6290 -1.9201
 1376SOL    MW4 5579   3.120   0.141   2.233 -0.1359 -0.1893  0.0196
 1377SOL     OW 5580   3.173   0.385   2.345 -0.1712  0.0119 -0.5153
 1377SOL    HW2 5581   3.244   0.444   2.321 -0.3325  0.0211 -0.9671
 1377SOL    HW3 5582   3.094   0.426   2.310 -0.2965 -0.4149 -0.7403
 1377SOL    MW4 5583   3.172   0.398   2.337 -0.2091 -0.0432 -0.6046
 1378SOL     OW 5584   3.384   0.541   2.253  0.0704 -0.2945 -0.4474
 1378SOL    HW2 5585   3.463   0.502   2.291 -0.9457 -0.2394  1.7541
 1378SOL    HW3 5586   3.404   0.547   2.159  2.0589 -1.7476 -0.1557
 1378SOL    MW4 5587   3.397   0.537   2.245  0.1986 -0.4789 -0.1187
 1379SOL     OW 5588   3.356   0.787   2.380 -0.1556 -0.4266 -0.2420
 1379SOL    HW2 5589   3.436   0.831   2.351 -0.5724 -0.2564 -1.1544
 1379SOL    HW3 5590   3.360   0.700   2.340 -0.5104 -0.3497 -0.4515
 1379SOL    MW4 5591   3.367   0.782   2.371 -0.2577 -0.3940 -0.3898
 1380SOL     OW 5592   3.138   0.850   2.223 -0.1614  0.2568 -0.8639
 1380SOL    HW2 5593   3.207   0.830   2.287  0.6893  2.3564 -1.0852
 1380SOL    HW3 5594   3.056   0.828   2.269  0.4705  1.2085  0.7624
 1380SOL    MW4 5595   3.136   0.844   2.238  0.0341  0.6593 -0.6788
 1381SOL     OW 5596   3.137   1.103   2.355  0.2385  0.1208  0.4807
 1381SOL    HW2 5597   3.214   1.146   2.317 -0.8866  1.9137  0.1943
 1381SOL    HW3 5598   3.130   1.021   2.306  1.7469  0.1157  0.2487
 1381SOL    MW4 5599   3.147   1.098   2.343  0.2894  0.3567  0.4125
 1382SOL     OW 5600   3.340   1.262   2.235 -0.1790  0.0113 -0.1397
 1382SOL    HW2 5601   3.412   1.221   2.282 -1.4060 -1.3156  0.6205
 1382SOL    HW3 5602   3.332   1.349   2.274 -0.2699 -0.5660  1.1324
 1382SOL    MW4 5603   3.348   1.268   2.246 -0.3531 -0.2400  0.1283
 1383SOL     OW 5604   3.332   1.524   2.343  0.1542  0.2211 -0.5819
 1383SOL    HW2 5605   3.349   1.550   2.434  1.1497  0.6410 -0.8852
 1383SOL    HW3 5606   3.261   1.582   2.315 -0.5251 -0.2811  0.1044
 1383SOL    MW4 5607   3.325   1.535   2.351  0.1960  0.2102 -0.5314
 1384SOL     OW 5608   3.108   1.652   2.231 -0.5493 -0.3657  0.0042
 1384SOL    HW2 5609   3.103   1.734   2.278  0.4503  0.6350 -1.6009
 1384SOL    HW3 5610   3.037   1.599   2.267 -0.7142  0.9139  1.5697
 1384SOL    MW4 5611   3.098   1.656   2.242 -0.4392 -0.0648 -0.0012
 1385SOL     OW 5612   3.117   1.906   2.342 -0.0723 -0.5353  0.1654
 1385SOL    HW2 5613   3.139   1.905   2.435  1.4389 -2.2288 -0.1908
 1385SOL    HW3 5614   3.186   1.958   2.301 -0.2788 -0.4781 -0.1146
 1385SOL    MW4 5615   3.129   1.913   2.349  0.0999 -0.7511  0.0815
 1386SOL     OW 5616   3.341   2.013   2.228  0.3943 -0.2748 -0.2956
 1386SOL    HW2 5617   3.426   1.979   2.258  1.0629  1.5796 -0.0182
 1386SOL    HW3 5618   3.350   2.020   2.133  0.9237  0.8660 -0.1701
 1386SOL    MW4 5619   3.354   2.010   2.220  0.5524  0.1204 -0.2422
 1387SOL     OW 5620   3.340   2.259   2.348  0.3297 -0.3446  0.0298
 1387SOL    HW2 5621   3.288   2.321   2.297 -0.7916 -0.3573  1.1375
 1387SOL    HW3 5622   3.341   2.179   2.295 -0.0670 -0.0797 -0.3803
 1387SOL    MW4 5623   3.333   2.257   2.334  0.1297 -0.3111  0.1218
 1388SOL     OW 5624   3.151   2.413   2.225 -0.3686 -0.0381  0.0588
 1388SOL    HW2 5625   3.159   2.503   2.255 -3.0314  1.0218 -2.1745
 1388SOL    HW3 5626   3.074   2.379   2.271  1.0750 -1.4844  1.4947
 1388SOL    MW4 5627   3.142   2.420   2.235 -0.5293 -0.0892 -0.0463
 1389SOL     OW 5628   3.156   2.665   2.341  0.0352 -0.2295  0.2799
 1389SOL    HW2 5629   3.162   2.683   2.435 -0.1404  1.0671  0.0488
 1389SOL    HW3 5630   3.070   2.699   2.316 -0.7783 -2.3874  0.0335
 1389SOL    MW4 5631   3.145   2.671   2.350 -0.0951 -0.3431  0.2170
 1390SOL     OW 5632   3.355   2.811   2.221  0.1202  0.2029 -0.4218
 1390SOL    HW2 5633   3.334   2.894   2.264  1.7812  0.2184  0.3919
 1390SOL    HW3 5634   3.290   2.749   2.254 -0.2160  0.8388  0.1096
 1390SOL    MW4 5635   3.344   2.814   2.231  0.2949  0.2890 -0.2441
 1391SOL     OW 5636   3.324   3.056   2.346  0.3827  0.3216 -0.2096
 1391SOL    HW2 5637   3.403   3.100   2.313 -0.5220  1.0311 -1.4331
 1391SOL    HW3 5638   3.254   3.119   2.334 -0.4078 -0.3323  0.8419
 1391SOL    MW4 5639   3.325   3.070   2.340  0.1593  0.3290 -0.2322
 1392SOL     OW 5640   3.110   3.234   2.287 -0.1676  0.2136  0.0312
 1392SOL    HW2 5641   3.118   3.324   2.319 -0.2090  0.0968  0.3756
 1392SOL    HW3 5642   3.095   3.243   2.193  0.3986  0.5478 -0.0274
 1392SOL    MW4 5643   3.109   3.247   2.279 -0.0982  0.2422  0.0691
 1393SOL     OW 5644   3.113   3.496   2.358 -0.6163  0.2220 -0.1770
 1393SOL    HW2 5645   3.135   3.497   2.451 -0.3299 -0.6344 -0.2371
 1393SOL    HW3 5646   3.186   3.541   2.316 -0.2904 -0.2236 -0.0881
 1393SOL    MW4 5647   3.125   3.502   2.365 -0.5352  0.0503 -0.1731
 1394SOL     OW 5648   3.362   3.602   2.255  0.0436  0.5188 -0.0725
 1394SOL    HW2 5649   3.435   3.554   2.294 -0.6114  0.5832  1.2613
 1394SOL    HW3 5650   3.376   3.594   2.160  0.6333 -1.2531  0.1390
 1394SOL    MW4 5651   3.373   3.594   2.248  0.0350  0.2937  0.1316
 1395SOL     OW 5652   3.356   3.861   2.356  0.0629  0.2993 -0.0675
 1395SOL    HW2 5653   3.449   3.875   2.340  0.1634 -0.3933 -0.1068
 1395SOL    HW3 5654   3.337   3.777   2.315 -0.6416  0.5639 -0.2898
 1395SOL    MW4 5655   3.366   3.852   2.348 -0.0172  0.2429 -0.1020
 1396SOL     OW 5656   3.175   4.041   2.249 -0.1031 -0.4321 -0.2540
 1396SOL    HW2 5657   3.248   3.983   2.271  0.4524  0.8870  1.4982
 1396SOL    HW3 5658   3.099   4.000   2.290 -0.2592 -1.4757 -1.5497
 1396SOL    MW4 5659   3.175   4.028   2.258 -0.0503 -0.3958 -0.1936
 1397SOL     OW 5660   3.150   4.276   2.391  0.1301  0.2773 -0.2085
 1397SOL    HW2 5661   3.217   4.338   2.363  0.5374  0.3216  0.8386
 1397SOL    HW3 5662   3.165   4.198   2.338  0.8045  0.4016 -0.1977
 1397SOL    MW4 5663   3.161   4.274   2.380  0.2728  0.2995 -0.0691
 1398SOL     OW 5664   3.348   4.402   2.227 -0.1274  0.2192  0.0879
 1398SOL    HW2 5665   3.352   4.493   2.255  1.1606 -0.4133  1.9820
 1398SOL    HW3 5666   3.352   4.407   2.131  2.7672  2.0235  0.2395
 1398SOL    MW4 5667   3.349   4.415   2.218  0.4244  0.3738  0.3581
 1399SOL     OW 5668   3.787   4.640   2.320 -0.1583 -0.4544 -0.7065
 1399SOL    HW2 5669   3.801   4.640   2.415 -0.2589  1.0432 -0.6876
 1399SOL    HW3 5670   3.860   4.689   2.285 -2.4420  2.9276 -1.0113
 1399SOL    MW4 5671   3.798   4.646   2.328 -0.4730  0.1898 -0.7443
 1400SOL     OW 5672   3.566   0.125   2.237 -0.1914 -0.1280 -0.0015
 1400SOL    HW2 5673   3.571   0.212   2.276 -0.9364  0.8256 -1.9480
 1400SOL    HW3 5674   3.645   0.080   2.268  0.3827  1.3617  0.7448
 1400SOL    MW4 5675   3.577   0.131   2.246 -0.2143  0.1944 -0.1597
 1401SOL     OW 5676   3.570   0.353   2.351 -0.4324  0.2179 -0.4209
 1401SOL    HW2 5677   3.567   0.353   2.447 -0.0141 -0.8238 -0.4005
 1401SOL    HW3 5678   3.655   0.391   2.329 -0.1833 -0.3040 -0.3617
 1401SOL    MW4 5679   3.581   0.358   2.361 -0.3443  0.0117 -0.4103
 1402SOL     OW 5680   3.794   0.457   2.280 -0.5290 -0.1936  0.3916
 1402SOL    HW2 5681   3.807   0.545   2.314  0.1979 -0.7007  1.4759
 1402SOL    HW3 5682   3.806   0.466   2.186  2.6735  0.3472  0.7846
 1402SOL    MW4 5683   3.798   0.470   2.272 -0.0107 -0.1891  0.5865
 1403SOL     OW 5684   3.837   0.751   2.370  0.5216  0.9671 -0.2344
 1403SOL    HW2 5685   3.842   0.751   2.465  0.6397  2.6584 -0.2337
 1403SOL    HW3 5686   3.915   0.800   2.342  1.1999 -0.6501 -1.2429
 1403SOL    MW4 5687   3.848   0.757   2.379  0.6268  0.9768 -0.3674
 1404SOL     OW 5688   3.598   0.870   2.267 -0.0819  0.0530 -0.1853
 1404SOL    HW2 5689   3.675   0.823   2.298 -0.3938 -0.3625 -0.0342
 1404SOL    HW3 5690   3.605   0.868   2.171 -0.7271 -1.3603 -0.2031
 1404SOL    MW4 5691   3.609   0.864   2.258 -0.2079 -0.1884 -0.1676
 1405SOL     OW 5692   3.574   1.148   2.325  0.3805  0.4245  0.2318
 1405SOL    HW2 5693   3.584   1.128   2.418 -0.5680 -0.5516  0.1298
 1405SOL    HW3 5694   3.572   1.063   2.282  1.0542  0.8709 -0.7234
 1405SOL    MW4 5695   3.575   1.134   2.332  0.3443  0.3546  0.0925
 1406SOL     OW 5696   3.801   1.254   2.227 -0.1940  0.2317 -0.0671
 1406SOL    HW2 5697   3.808   1.343   2.260  0.3495  0.4021 -0.6452
 1406SOL    HW3 5698   3.711   1.228   2.248  0.0207  0.4688  1.2174
 1406SOL    MW4 5699   3.790   1.262   2.234 -0.0942  0.2855  0.0262
 1407SOL     OW 5700   3.836   1.526   2.313  0.2361  0.2235  0.9294
 1407SOL    HW2 5701   3.831   1.527   2.409  0.2038 -0.4453  0.9377
 1407SOL    HW3 5702   3.758   1.575   2.285  0.6328  1.0433  1.2520
 1407SOL    MW4 5703   3.825   1.533   2.322  0.2842  0.2435  0.9732
 1408SOL     OW 5704   3.592   1.643   2.227 -0.3484 -0.1106  0.1160
 1408SOL    HW2 5705   3.503   1.618   2.253 -0.9980  1.7748 -0.2205
 1408SOL    HW3 5706   3.591   1.639   2.131 -0.4884  1.2412  0.0533
 1408SOL    MW4 5707   3.580   1.639   2.218 -0.4523  0.3166  0.0634
 1409SOL     OW 5708   3.575   1.920   2.322 -0.2535  0.2426  0.1427
 1409SOL    HW2 5709   3.645   1.967   2.277 -0.3667  1.4080  1.1568
 1409SOL    HW3 5710   3.589   1.828   2.299  1.3509  0.5069 -0.0136
 1409SOL    MW4 5711   3.586   1.914   2.313 -0.0572  0.4313  0.2561
 1410SOL     OW 5712   3.790   2.037   2.202 -0.3738  0.0714  0.0630
 1410SOL    HW2 5713   3.867   2.011   2.253  0.2965  2.0290  0.0843
 1410SOL    HW3 5714   3.811   2.013   2.112 -0.6366 -1.3542  0.3707
 1410SOL    MW4 5715   3.803   2.031   2.197 -0.3202  0.1416  0.1063
 1411SOL     OW 5716   3.813   2.292   2.289  0.0340 -0.0178 -0.2162
 1411SOL    HW2 5717   3.729   2.338   2.288 -0.2762 -0.5430  0.9537
 1411SOL    HW3 5718   3.797   2.210   2.243  0.0557  0.1181 -0.4702
 1411SOL    MW4 5719   3.800   2.288   2.283 -0.0038 -0.0691 -0.0951
 1412SOL     OW 5720   3.568   2.413   2.266  0.4760 -0.0115 -0.1325
 1412SOL    HW2 5721   3.497   2.356   2.293  0.0261  0.9625  0.7600
 1412SOL    HW3 5722   3.558   2.421   2.171 -0.9217  0.5397  0.0496
 1412SOL    MW4 5723   3.558   2.407   2.257  0.2327  0.1898  0.0095
 1413SOL     OW 5724   3.582   2.702   2.347 -0.2898  0.2194 -0.2126
 1413SOL    HW2 5725   3.564   2.611   2.324  0.1614 -0.3565  1.6629
 1413SOL    HW3 5726   3.509   2.751   2.309 -0.1723 -0.8134 -1.8385
 1413SOL    MW4 5727   3.570   2.697   2.339 -0.2146  0.0072 -0.1795
 1414SOL     OW 5728   3.827   2.836   2.242 -0.0030 -0.3203 -0.7575
 1414SOL    HW2 5729   3.804   2.923   2.272  0.7744 -0.6455  0.8294
 1414SOL    HW3 5730   3.758   2.779   2.276 -1.0499 -0.2175 -2.6194
 1414SOL    MW4 5731   3.815   2.840   2.250 -0.0386 -0.3498 -0.7939
 1415SOL     OW 5732   3.786   3.085   2.321 -0.1104  0.4000  0.1177
 1415SOL    HW2 5733   3.783   3.099   2.416  0.1422  1.7586 -0.0578
 1415SOL    HW3 5734   3.870   3.120   2.294 -0.0258 -0.3123 -0.5685
 1415SOL    MW4 5735   3.796   3.092   2.330 -0.0658  0.4854  0.0043
 1416SOL     OW 5736   3.543   3.191   2.260 -0.0391  0.0361  0.0798
 1416SOL    HW2 5737   3.551   3.270   2.313  0.1367  0.2111 -0.2080
 1416SOL    HW3 5738   3.621   3.139   2.281 -0.6022 -0.4684  0.9411
 1416SOL    MW4 5739   3.554   3.195   2.269 -0.0906 -0.0074  0.1557
 1417SOL     OW 5740   3.579   3.439   2.360 -0.2067  0.3661 -0.5791
 1417SOL    HW2 5741   3.585   3.441   2.455  0.6240  1.3459 -0.6475
 1417SOL    HW3 5742   3.665   3.468   2.329 -0.4382 -0.0261 -1.6245
 1417SOL    MW4 5743   3.591   3.443   2.368 -0.1276  0.4439 -0.7260
 1418SOL     OW 5744   3.810   3.589   2.240 -0.0039  0.1161 -0.0008
 1418SOL    HW2 5745   3.789   3.674   2.279 -0.2657 -0.3914  0.9659
 1418SOL    HW3 5746   3.843   3.611   2.152  0.5118  1.2562  0.4634
 1418SOL    MW4 5747   3.812   3.603   2.234  0.0296  0.1996  0.1881
 1419SOL     OW 5748   3.806   3.834   2.371 -0.5880 -0.4336 -0.7341
 1419SOL    HW2 5749   3.813   3.827   2.466  0.3316 -1.4193 -0.8711
 1419SOL    HW3 5750   3.883   3.884   2.344 -1.1005  0.2726 -0.9285
 1419SOL    MW4 5751   3.817   3.840   2.380 -0.5343 -0.4704 -0.7777
 1420SOL     OW 5752   3.592   3.961   2.245 -0.4591  0.5298  0.2316
 1420SOL    HW2 5753   3.596   4.055   2.265  0.1311  0.1499  1.9459
 1420SOL    HW3 5754   3.669   3.924   2.289 -1.3724 -0.9519  0.5966
 1420SOL    MW4 5755   3.603   3.969   2.253 -0.5019  0.2842  0.5062
 1421SOL     OW 5756   3.557   4.236   2.322 -0.1243 -0.0975  0.1402
 1421SOL    HW2 5757   3.634   4.290   2.301  0.6511 -0.7234  1.3654
 1421SOL    HW3 5758   3.484   4.284   2.283  0.9452  0.2151 -1.5293
 1421SOL    MW4 5759   3.557   4.250   2.314  0.1192 -0.1388  0.0815
 1422SOL     OW 5760   3.780   4.373   2.238  0.4870 -0.3085  0.1903
 1422SOL    HW2 5761   3.873   4.356   2.255  0.3226  0.1379  1.6364
 1422SOL    HW3 5762   3.767   4.463   2.269  0.1472  0.5540 -2.3640
 1422SOL    MW4 5763   3.791   4.383   2.245  0.4206 -0.1354  0.0441
 1423SOL     OW 5764   4.267   4.594   2.362  0.0928  0.2533 -0.2462
 1423SOL    HW2 5765   4.258   4.608   2.457 -0.6117 -1.3551 -0.0569
 1423SOL    HW3 5766   4.321   4.667   2.332 -2.7200  2.8622  0.7746
 1423SOL    MW4 5767   4.273   4.605   2.371 -0.3710  0.3858 -0.0865
 1424SOL     OW 5768   4.058   0.080   2.276  0.3586  0.1181 -0.3211
 1424SOL    HW2 5769   4.085   0.162   2.317 -0.3309  1.4161 -2.3888
 1424SOL    HW3 5770   4.130   0.019   2.295  1.4152  1.5178  0.2437
 1424SOL    MW4 5771   4.071   0.083   2.284  0.4072  0.4740 -0.5193
 1425SOL     OW 5772   4.057   0.387   2.404 -0.1289  0.1631 -0.0322
 1425SOL    HW2 5773   4.134   0.431   2.367  0.0486  0.6033  0.8520
 1425SOL    HW3 5774   3.984   0.418   2.351  0.0926  0.9500  0.1225
 1425SOL    MW4 5775   4.058   0.397   2.392 -0.0763  0.3250  0.1047
 1426SOL     OW 5776   4.276   0.472   2.260  0.5277  0.5435 -0.4798
 1426SOL    HW2 5777   4.288   0.564   2.283  0.9381 -0.1492  2.1815
 1426SOL    HW3 5778   4.343   0.425   2.309 -0.8335 -1.3614 -0.3705
 1426SOL    MW4 5779   4.286   0.478   2.269  0.4020  0.2008 -0.1142
 1427SOL     OW 5780   4.264   0.722   2.381 -0.3860  0.1632 -0.0150
 1427SOL    HW2 5781   4.178   0.760   2.362 -0.8544 -0.1810  1.3941
 1427SOL    HW3 5782   4.326   0.781   2.338 -1.2583  1.0926 -0.0132
 1427SOL    MW4 5783   4.261   0.735   2.373 -0.5631  0.2404  0.1714
 1428SOL     OW 5784   4.054   0.895   2.251  0.0289 -0.3890  0.5052
 1428SOL    HW2 5785   4.054   0.988   2.274  1.4688 -0.5690  1.3001
 1428SOL    HW3 5786   4.071   0.894   2.156 -0.8541  0.1865  0.3387
 1428SOL    MW4 5787   4.056   0.907   2.241  0.1020 -0.3368  0.5882
 1429SOL     OW 5788   4.041   1.150   2.330 -0.0588 -0.7717 -0.5023
 1429SOL    HW2 5789   4.037   1.140   2.425 -0.7664  1.8604 -0.2263
 1429SOL    HW3 5790   3.952   1.177   2.306  0.4965 -0.0560 -1.7535
 1429SOL    MW4 5791   4.029   1.152   2.339 -0.0796 -0.3300 -0.6311
 1430SOL     OW 5792   4.270   1.256   2.220 -0.2402 -0.1559 -0.6859
 1430SOL    HW2 5793   4.190   1.224   2.263 -0.4645  1.6080  0.2844
 1430SOL    HW3 5794   4.341   1.215   2.268 -0.5148  1.0273  0.8069
 1430SOL    MW4 5795   4.269   1.247   2.232 -0.3061  0.2329 -0.3610
 1431SOL     OW 5796   4.269   1.529   2.288  0.1827  0.6847 -0.4651
 1431SOL    HW2 5797   4.268   1.437   2.263 -1.3215  1.0835 -1.9477
 1431SOL    HW3 5798   4.345   1.565   2.243  0.4709  0.2913 -0.2958
 1431SOL    MW4 5799   4.279   1.522   2.279  0.0215  0.6853 -0.6385
 1432SOL     OW 5800   4.056   1.687   2.246  0.3696  0.2267  0.2041
 1432SOL    HW2 5801   4.140   1.641   2.243  0.0643 -0.3557  0.5965
 1432SOL    HW3 5802   3.994   1.623   2.280 -0.0988  0.8740  0.5851
 1432SOL    MW4 5803   4.059   1.673   2.250  0.2670  0.2353  0.3061
 1433SOL     OW 5804   4.018   1.941   2.359 -0.2728 -0.2964 -0.3873
 1433SOL    HW2 5805   4.020   1.929   2.454  0.8936  1.3375 -0.1824
 1433SOL    HW3 5806   4.024   1.852   2.323  0.0046 -0.8694  1.0534
 1433SOL    MW4 5807   4.019   1.927   2.366 -0.0825 -0.1565 -0.1702
 1434SOL     OW 5808   4.280   2.045   2.291 -0.0852  0.2845 -0.1662
 1434SOL    HW2 5809   4.279   2.134   2.325 -1.3623  0.0929  0.3114
 1434SOL    HW3 5810   4.195   2.008   2.316  0.2998 -0.9587 -0.6392
 1434SOL    MW4 5811   4.268   2.052   2.299 -0.2027  0.0954 -0.1655
 1435SOL     OW 5812   4.278   2.304   2.371 -0.4191  0.4022  0.2108
 1435SOL    HW2 5813   4.212   2.347   2.316  0.4652 -0.0451 -1.2184
 1435SOL    HW3 5814   4.357   2.303   2.318  0.1223 -1.1402  1.0031
 1435SOL    MW4 5815   4.279   2.309   2.357 -0.2313  0.1395  0.1268
 1436SOL     OW 5816   4.067   2.413   2.215  0.6193  0.1590  0.5318
 1436SOL    HW2 5817   4.058   2.494   2.265 -0.3759  0.3982 -0.0147
 1436SOL    HW3 5818   3.990   2.362   2.239  0.3117  0.1298 -0.4746
 1436SOL    MW4 5819   4.055   2.417   2.225  0.4473  0.1867  0.3271
 1437SOL     OW 5820   4.035   2.660   2.315  0.1857  0.2131  0.3434
 1437SOL    HW2 5821   4.045   2.661   2.410  0.4368 -1.8988  0.3538
 1437SOL    HW3 5822   3.958   2.715   2.299 -0.8139 -0.7091  1.8756
 1437SOL    MW4 5823   4.026   2.668   2.326  0.0877 -0.1874  0.5469
 1438SOL     OW 5824   4.257   2.801   2.254  0.1492 -0.1657 -0.3555
 1438SOL    HW2 5825   4.181   2.742   2.257  0.9955 -1.2671 -0.6291
 1438SOL    HW3 5826   4.333   2.743   2.255  0.9766  0.8757 -1.9995
 1438SOL    MW4 5827   4.257   2.786   2.255  0.3700 -0.1738 -0.6084
 1439SOL     OW 5828   4.249   3.070   2.355  0.1358  0.1292 -0.0281
 1439SOL    HW2 5829   4.246   2.984   2.312 -0.5254  0.5614 -0.8587
 1439SOL    HW3 5830   4.323   3.114   2.314 -0.7542  0.7013 -1.0541
 1439SOL    MW4 5831   4.259   3.064   2.344 -0.0691  0.2615 -0.2732
 1440SOL     OW 5832   4.030   3.190   2.234  0.3799  0.1195 -0.2645
 1440SOL    HW2 5833   4.035   3.273   2.279 -2.4305 -0.5865  1.4490
 1440SOL    HW3 5834   4.097   3.136   2.275  2.6576  1.6752 -1.8227
 1440SOL    MW4 5835   4.040   3.194   2.245  0.3095  0.2315 -0.2439
 1441SOL     OW 5836   4.022   3.439   2.353 -0.0532 -0.4376 -0.4853
 1441SOL    HW2 5837   4.093   3.500   2.331 -0.8922  1.1837  1.0896
 1441SOL    HW3 5838   3.943   3.485   2.324 -0.6817 -0.8404  0.5875
 1441SOL    MW4 5839   4.021   3.453   2.346 -0.2465 -0.2770 -0.1361
 1442SOL     OW 5840   4.253   3.565   2.272  0.3595 -0.3722 -0.5709
 1442SOL    HW2 5841   4.261   3.656   2.299  0.9823 -0.1758 -1.4123
 1442SOL    HW3 5842   4.265   3.566   2.177 -1.2451 -1.1428 -0.7885
 1442SOL    MW4 5843   4.256   3.577   2.263  0.2303 -0.4478 -0.7107
 1443SOL     OW 5844   4.265   3.816   2.362  0.3206 -0.1389  0.0838
 1443SOL    HW2 5845   4.258   3.856   2.449  2.3949  0.0681  0.1648
 1443SOL    HW3 5846   4.339   3.859   2.321  0.8582 -1.9250 -0.8826
 1443SOL    MW4 5847   4.274   3.827   2.368  0.6652 -0.3474 -0.0329
 1444SOL     OW 5848   4.027   3.999   2.282 -0.2660 -1.2223 -0.5020
 1444SOL    HW2 5849   4.098   3.945   2.317 -0.6890 -0.2975  1.8612
 1444SOL    HW3 5850   4.054   4.089   2.302 -1.5102 -0.7912 -0.7408
 1444SOL    MW4 5851   4.040   4.004   2.289 -0.4859 -1.0433 -0.2217
 1445SOL     OW 5852   4.039   4.283   2.304 -0.4225  0.1073 -0.7214
 1445SOL    HW2 5853   4.128   4.312   2.282  0.0075  0.1716  1.0020
 1445SOL    HW3 5854   4.044   4.263   2.398 -1.9504 -0.9418 -0.8649
 1445SOL    MW4 5855   4.052   4.284   2.314 -0.5665 -0.0224 -0.5133
 1446SOL     OW 5856   4.307   4.346   2.238  0.1811  0.0814 -0.1477
 1446SOL    HW2 5857   4.313   4.431   2.282 -0.7811 -0.1682  0.4827
 1446SOL    HW3 5858   4.370   4.291   2.285  0.5818  0.3589 -0.3571
 1446SOL    MW4 5859   4.316   4.350   2.250  0.1068  0.0854 -0.0923
 1447SOL     OW 5860   0.190   4.642   2.611 -0.3144 -0.2123 -0.0138
 1447SOL    HW2 5861   0.187   4.550   2.639 -2.1082 -0.7849 -1.9341
 1447SOL    HW3 5862   0.111   4.680   2.648  0.6734  0.7147  1.1845
 1447SOL    MW4 5863   0.179   4.635   2.620 -0.4208 -0.1650 -0.1092
 1448SOL     OW 5864   4.446   0.075   2.739 -0.3773  0.3159 -0.7682
 1448SOL    HW2 5865   4.464   0.053   2.831  2.1625  0.8605 -1.0737
 1448SOL    HW3 5866   4.454   0.171   2.736 -1.7153  0.4177 -1.3246
 1448SOL    MW4 5867   4.450   0.085   2.751 -0.2193  0.4012 -0.8819
 1449SOL     OW 5868   4.465   0.340   2.670  0.5786 -0.3508  0.4590
 1449SOL    HW2 5869   4.552   0.374   2.688  1.0737 -1.7551  0.7476
 1449SOL    HW3 5870   4.454   0.354   2.576  0.2985  1.6472  0.7543
 1449SOL    MW4 5871   4.475   0.347   2.660  0.6070 -0.2725  0.5364
 1450SOL     OW 5872   0.215   0.505   2.736 -0.3170  0.2068 -0.4490
 1450SOL    HW2 5873   0.181   0.488   2.824 -0.6332  0.4672 -0.5200
 1450SOL    HW3 5874   0.298   0.457   2.733  1.4478  2.9649  1.2030
 1450SOL    MW4 5875   0.222   0.496   2.747 -0.1259  0.6050 -0.2406
 1451SOL     OW 5876   0.226   0.788   2.627 -0.1131 -0.0921 -0.1374
 1451SOL    HW2 5877   0.299   0.834   2.668 -0.9961  0.0669  1.2998
 1451SOL    HW3 5878   0.229   0.700   2.665 -0.9676  0.0689  0.3231
 1451SOL    MW4 5879   0.236   0.782   2.638 -0.3423 -0.0498  0.1130
 1452SOL     OW 5880   4.480   0.901   2.732 -0.0798  0.1996  0.0867
 1452SOL    HW2 5881   4.411   0.841   2.702 -0.6263  1.2538 -0.7941
 1452SOL    HW3 5882   4.561   0.857   2.708 -0.4746 -0.4004 -0.1662
 1452SOL    MW4 5883   4.481   0.887   2.725 -0.2041  0.2595 -0.0627
 1453SOL     OW 5884   4.469   1.147   2.615 -0.0484 -0.0703  0.0349
 1453SOL    HW2 5885   4.537   1.189   2.668 -1.2728  2.9879 -0.7750
 1453SOL    HW3 5886   4.459   1.060   2.655  2.8189  0.1766  1.4609
 1453SOL    MW4 5887   4.477   1.141   2.627  0.1683  0.3659  0.1161
 1454SOL     OW 5888   0.203   1.229   2.749  0.0674  0.8574 -0.0773
 1454SOL    HW2 5889   0.283   1.187   2.716 -0.1129 -0.2633  0.8937
 1454SOL    HW3 5890   0.209   1.319   2.717  0.7276  0.2540 -1.7118
 1454SOL    MW4 5891   0.215   1.235   2.741  0.1307  0.6299 -0.1650
 1455SOL     OW 5892   0.228   1.496   2.657  0.1187  0.6038 -0.6101
 1455SOL    HW2 5893   0.308   1.545   2.678 -0.2606  0.3328  1.4768
 1455SOL    HW3 5894   0.157   1.552   2.686 -0.3788 -0.3516  0.0136
 1455SOL    MW4 5895   0.229   1.510   2.663  0.0030  0.4420 -0.2522
 1456SOL     OW 5896   0.001   1.647   2.747 -0.5116 -0.2123 -0.3934
 1456SOL    HW2 5897   0.013   1.644   2.841 -1.4217 -1.6916 -0.3174
 1456SOL    HW3 5898   0.026   1.737   2.722  1.9482 -0.4828  0.9278
 1456SOL    MW4 5899   0.006   1.659   2.756 -0.3071 -0.4432 -0.2089
 1457SOL     OW 5900   0.004   1.906   2.649  0.2201 -0.1752 -0.2268
 1457SOL    HW2 5901   0.062   1.975   2.681  0.2835  0.1040 -0.9412
 1457SOL    HW3 5902   0.010   1.912   2.553  1.4299 -2.1732 -0.3028
 1457SOL    MW4 5903   0.012   1.916   2.640  0.3886 -0.4019 -0.3312
 1458SOL     OW 5904   0.221   2.060   2.738  0.4367  0.3094  0.0038
 1458SOL    HW2 5905   0.293   2.007   2.702  1.1033  1.3258 -0.2089
 1458SOL    HW3 5906   0.226   2.142   2.689  0.5119  1.2199  1.5031
 1458SOL    MW4 5907   0.231   2.064   2.727  0.5345  0.5634  0.1733
 1459SOL     OW 5908   0.252   2.300   2.618 -0.1227 -0.0404 -0.1479
 1459SOL    HW2 5909   0.330   2.321   2.669 -0.2517 -0.0975  0.0733
 1459SOL    HW3 5910   0.185   2.360   2.650 -0.4659 -0.7328  0.4231
 1459SOL    MW4 5911   0.254   2.311   2.629 -0.1850 -0.1395 -0.0434
 1460SOL     OW 5912   0.023   2.429   2.700 -0.0550 -0.2259 -0.3854
 1460SOL    HW2 5913   0.014   2.438   2.795  1.1076 -0.7071 -0.2203
 1460SOL    HW3 5914  -0.046   2.368   2.675 -0.1026 -0.4174  0.2058
 1460SOL    MW4 5915   0.012   2.422   2.710  0.0921 -0.3145 -0.2859
 1461SOL     OW 5916   4.472   2.681   2.588 -0.6337 -0.1482  0.3637
 1461SOL    HW2 5917   4.406   2.723   2.644  0.3013  0.7338  0.8212
 1461SOL    HW3 5918   4.487   2.596   2.628 -0.4370  0.2271  1.1049
 1461SOL    MW4 5919   4.465   2.676   2.600 -0.4845  0.0179  0.5219
 1462SOL     OW 5920   0.201   2.839   2.698  0.2126  0.1917  0.0147
 1462SOL    HW2 5921   0.214   2.902   2.627  0.3735 -0.4701 -0.5453
 1462SOL    HW3 5922   0.128   2.785   2.668 -0.1261  0.3106  0.6327
 1462SOL    MW4 5923   0.193   2.840   2.684  0.1891  0.1202  0.0224
 1463SOL     OW 5924   0.233   3.100   2.584 -0.3819  0.0585  0.3528
 1463SOL    HW2 5925   0.313   3.139   2.619 -1.7258  1.5154  1.8595
 1463SOL    HW3 5926   0.238   3.115   2.490  0.7944  0.7080  0.5095
 1463SOL    MW4 5927   0.245   3.107   2.576 -0.4040  0.3364  0.5722
 1464SOL     OW 5928   4.475   3.196   2.689  0.1779 -0.2999  0.0260
 1464SOL    HW2 5929   4.402   3.158   2.641  0.5239 -1.7752  0.6415
 1464SOL    HW3 5930   4.553   3.158   2.648  0.5700  0.5638 -0.0424
 1464SOL    MW4 5931   4.476   3.186   2.677  0.2753 -0.3808  0.0978
 1465SOL     OW 5932   4.481   3.466   2.631 -0.1741  0.1258  0.1288
 1465SOL    HW2 5933   4.560   3.511   2.660  0.1268  0.2680 -0.9135
 1465SOL    HW3 5934   4.494   3.375   2.658  0.7447 -0.0371 -0.8415
 1465SOL    MW4 5935   4.493   3.460   2.639 -0.0134  0.1230 -0.1366
 1466SOL     OW 5936   0.211   3.609   2.747 -0.2632 -0.2528  0.1592
 1466SOL    HW2 5937   0.220   3.610   2.842  1.1423  0.8947  0.0308
 1466SOL    HW3 5938   0.290   3.565   2.716  0.4993  1.5518 -0.5677
 1466SOL    MW4 5939   0.223   3.603   2.756  0.0228  0.1366  0.0463
 1467SOL     OW 5940   0.273   3.862   2.626 -0.2828 -0.2124 -0.1964
 1467SOL    HW2 5941   0.259   3.779   2.671  1.3536 -0.0698  0.6161
 1467SOL    HW3 5942   0.263   3.841   2.533 -1.2985 -1.0101  0.0876
 1467SOL    MW4 5943   0.270   3.848   2.619 -0.2009 -0.2987 -0.0515
 1468SOL     OW 5944   0.044   3.999   2.708 -0.3634 -0.2169  0.5366
 1468SOL    HW2 5945   0.043   4.087   2.670  0.5950 -0.8954 -1.0798
 1468SOL    HW3 5946   0.125   3.960   2.677  0.6128 -0.6917  3.5703
 1468SOL    MW4 5947   0.054   4.005   2.699 -0.1081 -0.3686  0.7236
 1469SOL     OW 5948   0.001   4.267   2.640  0.3955  0.0940  0.6524
 1469SOL    HW2 5949  -0.080   4.306   2.674  0.1989 -0.6573  1.0557
 1469SOL    HW3 5950   0.071   4.306   2.693  0.2358  0.1637  0.8097
 1469SOL    MW4 5951  -0.000   4.278   2.651  0.3481  0.0043  0.7262
 1470SOL     OW 5952   0.215   4.401   2.746 -0.3003 -0.2118  0.2669
 1470SOL    HW2 5953   0.222   4.403   2.841  0.7804  1.5797  0.1870
 1470SOL    HW3 5954   0.295   4.357   2.717 -0.0160  0.3841  0.1439
 1470SOL    MW4 5955   0.227   4.395   2.755 -0.1203  0.1035  0.2403
 1471SOL     OW 5956   0.675   4.633   2.629 -0.4631  0.0276 -0.1029
 1471SOL    HW2 5957   0.747   4.693   2.647 -0.6941  0.1259  0.5015
 1471SOL    HW3 5958   0.599   4.673   2.671 -0.8444 -0.1383 -0.6314
 1471SOL    MW4 5959   0.674   4.646   2.637 -0.5438  0.0186 -0.0932
 1472SOL     OW 5960   0.445   0.057   2.758  0.1343  0.1971 -0.0263
 1472SOL    HW2 5961   0.446   0.057   2.854  0.4560 -0.0406 -0.0281
 1472SOL    HW3 5962   0.354   0.040   2.735  0.4506 -2.0274  0.2404
 1472SOL    MW4 5963   0.433   0.055   2.768  0.2185 -0.1277  0.0088
 1473SOL     OW 5964   0.464   0.344   2.679 -0.3452 -0.2816 -0.0221
 1473SOL    HW2 5965   0.544   0.380   2.718  0.6648 -0.4696 -1.8507
 1473SOL    HW3 5966   0.460   0.254   2.711 -0.0222 -0.1514  0.3941
 1473SOL    MW4 5967   0.474   0.337   2.688 -0.1693 -0.2892 -0.2084
 1474SOL     OW 5968   0.676   0.510   2.738 -0.7150 -0.3304  0.6435
 1474SOL    HW2 5969   0.675   0.488   2.831  1.4254  0.8277  0.9784
 1474SOL    HW3 5970   0.756   0.468   2.705 -0.3379  1.0376 -0.2096
 1474SOL    MW4 5971   0.686   0.502   2.746 -0.3829  0.0029  0.5753
 1475SOL     OW 5972   0.688   0.749   2.605 -0.1198 -0.3174 -0.5822
 1475SOL    HW2 5973   0.750   0.803   2.653 -1.3594  0.5555  0.0640
 1475SOL    HW3 5974   0.673   0.673   2.661 -1.4070  0.6008  0.3485
 1475SOL    MW4 5975   0.694   0.746   2.619 -0.4532 -0.0811 -0.3741
 1476SOL     OW 5976   0.458   0.884   2.739  0.2049 -0.2762 -0.3269
 1476SOL    HW2 5977   0.450   0.974   2.708 -1.7094 -0.5360 -0.6301
 1476SOL    HW3 5978   0.531   0.848   2.689 -0.7575  0.2986 -2.1612
 1476SOL    MW4 5979   0.467   0.891   2.729 -0.1746 -0.2347 -0.6089
 1477SOL     OW 5980   0.451   1.150   2.638 -0.5015 -0.3185  0.0964
 1477SOL    HW2 5981   0.532   1.194   2.665 -0.0975 -1.3778  0.6396
 1477SOL    HW3 5982   0.457   1.146   2.542  0.2375 -0.6344  0.1464
 1477SOL    MW4 5983   0.463   1.155   2.629 -0.3507 -0.4998  0.1743
 1478SOL     OW 5984   0.678   1.304   2.722  0.3484 -0.0950  0.2356
 1478SOL    HW2 5985   0.684   1.308   2.817  1.4885  1.1416  0.1299
 1478SOL    HW3 5986   0.754   1.251   2.695  0.7365  0.6048 -0.0577
 1478SOL    MW4 5987   0.689   1.297   2.731  0.5500  0.1605  0.1831
 1479SOL     OW 5988   0.714   1.562   2.623 -0.0898  0.1636 -0.0359
 1479SOL    HW2 5989   0.636   1.612   2.648  0.0136  0.9575 -1.3043
 1479SOL    HW3 5990   0.697   1.474   2.657 -1.2300  0.5048  0.3043
 1479SOL    MW4 5991   0.701   1.557   2.631 -0.2265  0.3133 -0.1583
 1480SOL     OW 5992   0.461   1.646   2.730  0.2717  0.3800  0.0370
 1480SOL    HW2 5993   0.481   1.671   2.820  0.1711  0.1729  0.1156
 1480SOL    HW3 5994   0.428   1.727   2.690 -2.7497 -0.2857  1.0699
 1480SOL    MW4 5995   0.459   1.660   2.736 -0.1402  0.2649  0.1836
 1481SOL     OW 5996   0.423   1.907   2.652 -0.0708 -0.0846  0.6044
 1481SOL    HW2 5997   0.506   1.945   2.682 -0.6003  1.1304  0.5190
 1481SOL    HW3 5998   0.429   1.909   2.556  0.1340 -0.7573  0.5943
 1481SOL    MW4 5999   0.435   1.912   2.643 -0.1137 -0.0130  0.5918
 1482SOL     OW 6000   0.653   2.058   2.708  0.2001  0.0511 -0.4714
 1482SOL    HW2 6001   0.660   2.073   2.803  0.3482 -0.0771 -0.4635
 1482SOL    HW3 6002   0.724   1.998   2.687  0.5341  0.5365 -0.7640
 1482SOL    MW4 6003   0.663   2.052   2.718  0.2638  0.0982 -0.5088
 1483SOL     OW 6004   0.730   2.316   2.607 -0.1268 -0.2637  0.2290
 1483SOL    HW2 6005   0.782   2.372   2.665 -1.3402 -0.2804  1.3483
 1483SOL    HW3 6006   0.737   2.229   2.644 -0.8034 -0.2993  0.2880
 1483SOL    MW4 6007   0.738   2.312   2.619 -0.3762 -0.2706  0.3843
 1484SOL     OW 6008   0.480   2.387   2.736  0.2241  0.3209  0.1146
 1484SOL    HW2 6009   0.477   2.481   2.714  0.5046  0.6276  1.3694
 1484SOL    HW3 6010   0.566   2.358   2.705  0.3606  0.6017  0.2298
 1484SOL    MW4 6011   0.491   2.396   2.729  0.2791  0.3984  0.2956
 1485SOL     OW 6012   0.418   2.662   2.647  0.5808  0.1916 -0.3653
 1485SOL    HW2 6013   0.502   2.704   2.663  0.3002  0.4504  0.4386
 1485SOL    HW3 6014   0.354   2.717   2.692 -0.0203 -0.0045 -0.9615
 1485SOL    MW4 6015   0.421   2.675   2.655  0.4645  0.1996 -0.3376
 1486SOL     OW 6016   0.649   2.806   2.730 -0.3719 -0.2420  0.1679
 1486SOL    HW2 6017   0.667   2.816   2.823  1.0418 -0.5739 -0.0646
 1486SOL    HW3 6018   0.636   2.895   2.698 -1.1402 -0.1475  0.7280
 1486SOL    MW4 6019   0.649   2.819   2.738 -0.2868 -0.2732  0.2112
 1487SOL     OW 6020   0.701   3.074   2.653 -0.5088 -0.2640 -0.2459
 1487SOL    HW2 6021   0.775   3.117   2.697  0.5795 -2.5071  0.1818
 1487SOL    HW3 6022   0.714   3.094   2.561 -0.4843  1.0152  0.0245
 1487SOL    MW4 6023   0.712   3.082   2.647 -0.3620 -0.3915 -0.1538
 1488SOL     OW 6024   0.463   3.198   2.714  0.1012 -0.0298  0.0092
 1488SOL    HW2 6025   0.443   3.206   2.807  0.2346 -1.7105  0.1977
 1488SOL    HW3 6026   0.549   3.157   2.711  0.0136 -0.1597 -0.8501
 1488SOL    MW4 6027   0.472   3.193   2.726  0.1073 -0.2687 -0.0794
 1489SOL     OW 6028   0.439   3.474   2.668 -0.1003  0.2280 -0.1022
 1489SOL    HW2 6029   0.436   3.383   2.698  0.5561 -0.0051 -0.7158
 1489SOL    HW3 6030   0.446   3.467   2.573  1.0152  0.8955 -0.0807
 1489SOL    MW4 6031   0.440   3.461   2.659  0.1335  0.2851 -0.1802
 1490SOL     OW 6032   0.671   3.633   2.704  0.0606  0.3266  0.0024
 1490SOL    HW2 6033   0.667   3.642   2.799 -1.8840  1.7750 -0.1869
 1490SOL    HW3 6034   0.591   3.585   2.681  1.0222 -0.9241 -0.8198
 1490SOL    MW4 6035   0.660   3.628   2.713 -0.0691  0.3529 -0.1309
 1491SOL     OW 6036   0.649   3.917   2.639  0.1908  0.2226  0.1574
 1491SOL    HW2 6037   0.564   3.936   2.678  1.1393  1.8297  1.5579
 1491SOL    HW3 6038   0.661   3.823   2.652 -0.7059  0.2569  1.3626
 1491SOL    MW4 6039   0.640   3.907   2.646  0.1976  0.4392  0.5012
 1492SOL     OW 6040   0.429   3.991   2.795  0.3434 -0.4154  0.0778
 1492SOL    HW2 6041   0.433   4.080   2.762 -1.5558 -0.3212  0.0604
 1492SOL    HW3 6042   0.384   3.941   2.726  0.3501 -1.1398  0.5876
 1492SOL    MW4 6043   0.423   3.996   2.782  0.0938 -0.4985  0.1431
 1493SOL     OW 6044   0.444   4.250   2.668 -0.1206  0.4666 -0.0761
 1493SOL    HW2 6045   0.517   4.300   2.705  0.1609  0.4776 -0.6378
 1493SOL    HW3 6046   0.457   4.255   2.573 -0.9179  0.5677 -0.1844
 1493SOL    MW4 6047   0.455   4.257   2.660 -0.1887  0.4811 -0.1643
 1494SOL     OW 6048   0.672   4.380   2.788  0.3510 -0.0842  0.1958
 1494SOL    HW2 6049   0.743   4.332   2.746  1.5393  1.7450  0.0648
 1494SOL    HW3 6050   0.679   4.468   2.752 -2.7180 -0.1513 -0.7145
 1494SOL    MW4 6051   0.682   4.385   2.777  0.1029  0.1483  0.0584
 1495SOL     OW 6052   1.110   4.608   2.625  0.5432 -0.6068  0.3500
 1495SOL    HW2 6053   1.184   4.652   2.667  1.1179 -1.1615 -0.0656
 1495SOL    HW3 6054   1.117   4.517   2.655  0.3942 -0.7956 -0.1835
 1495SOL    MW4 6055   1.121   4.602   2.634  0.5993 -0.7048  0.2246
 1496SOL     OW 6056   0.901   0.113   2.707  0.3070 -0.2021 -0.3250
 1496SOL    HW2 6057   0.910   0.133   2.800  0.5225 -0.4163 -0.2976
 1496SOL    HW3 6058   0.980   0.063   2.686 -1.1657 -2.8208  0.1051
 1496SOL    MW4 6059   0.913   0.109   2.717  0.1411 -0.5759 -0.2646
 1497SOL     OW 6060   0.895   0.379   2.632 -0.7681 -0.0760  0.1155
 1497SOL    HW2 6061   0.885   0.287   2.656  0.2841 -0.0411  0.7341
 1497SOL    HW3 6062   0.895   0.380   2.537 -0.7120 -0.7318  0.1109
 1497SOL    MW4 6063   0.894   0.367   2.623 -0.6219 -0.1579  0.1967
 1498SOL     OW 6064   1.130   0.487   2.728 -0.1031  0.4959 -0.0696
 1498SOL    HW2 6065   1.126   0.581   2.711 -1.0597  0.6731  1.0910
 1498SOL    HW3 6066   1.051   0.452   2.686 -0.2679  0.3548  0.3569
 1498SOL    MW4 6067   1.119   0.495   2.720 -0.2509  0.5007  0.1397
 1499SOL     OW 6068   1.103   0.788   2.636 -0.3122  0.2695  0.3762
 1499SOL    HW2 6069   1.190   0.812   2.668  0.0882 -0.6709  0.0428
 1499SOL    HW3 6070   1.105   0.812   2.543  0.4476 -1.8669 -0.2057
 1499SOL    MW4 6071   1.115   0.794   2.628 -0.1591 -0.1364  0.2551
 1500SOL     OW 6072   0.871   0.894   2.740 -0.1210  0.2798 -0.5195
 1500SOL    HW2 6073   0.870   0.896   2.835 -0.4311 -1.0994 -0.4974
 1500SOL    HW3 6074   0.950   0.845   2.718  0.4477  1.3741 -0.9978
 1500SOL    MW4 6075   0.881   0.888   2.749 -0.0869  0.2422 -0.5798
 1501SOL     OW 6076   0.894   1.160   2.645  0.6379  0.3036  0.3741
 1501SOL    HW2 6077   0.883   1.070   2.675  0.7482  0.3624  0.5897
 1501SOL    HW3 6078   0.909   1.152   2.551  0.2819  0.1215  0.3323
 1501SOL    MW4 6079   0.895   1.147   2.637  0.6055  0.2873  0.3970
 1502SOL     OW 6080   1.154   1.277   2.696 -0.2178  0.1762 -0.7773
 1502SOL    HW2 6081   1.145   1.371   2.683  0.5360  0.3447 -0.1397
 1502SOL    HW3 6082   1.067   1.241   2.679 -0.5644  1.0124 -0.7678
 1502SOL    MW4 6083   1.142   1.284   2.692 -0.1640  0.3089 -0.6919
 1503SOL     OW 6084   1.143   1.543   2.620 -0.4026  0.2623  0.1992
 1503SOL    HW2 6085   1.070   1.596   2.651 -1.4714 -0.8630 -0.3409
 1503SOL    HW3 6086   1.134   1.543   2.525  1.7273  2.0980 -0.0611
 1503SOL    MW4 6087   1.132   1.550   2.612 -0.2626  0.3561  0.0937
 1504SOL     OW 6088   0.943   1.679   2.748 -0.0405 -0.2163 -0.3102
 1504SOL    HW2 6089   0.950   1.654   2.840  0.4146  0.9919 -0.0007
 1504SOL    HW3 6090   0.867   1.631   2.715 -1.7868  1.3231  1.3692
 1504SOL    MW4 6091   0.934   1.669   2.756 -0.2109  0.1462 -0.0477
 1505SOL     OW 6092   0.911   1.937   2.670  0.4776 -0.4422  0.1161
 1505SOL    HW2 6093   0.983   1.992   2.700  0.2216  0.0447 -0.1618
 1505SOL    HW3 6094   0.929   1.851   2.709  1.5566 -0.4964 -0.4670
 1505SOL    MW4 6095   0.923   1.933   2.679  0.5862 -0.3850  0.0026
 1506SOL     OW 6096   1.138   2.085   2.729  0.3635 -0.1136  0.1923
 1506SOL    HW2 6097   1.213   2.042   2.688 -0.4196 -0.6876 -0.6623
 1506SOL    HW3 6098   1.132   2.170   2.687  1.2805  0.4306  1.1418
 1506SOL    MW4 6099   1.147   2.090   2.718  0.3812 -0.1173  0.2050
 1507SOL     OW 6100   1.127   2.348   2.640  0.4636  0.4388 -0.0547
 1507SOL    HW2 6101   1.206   2.390   2.675  0.6879 -0.4427  0.4931
 1507SOL    HW3 6102   1.142   2.345   2.545  0.5567  1.3634 -0.0751
 1507SOL    MW4 6103   1.139   2.353   2.632  0.5056  0.4444  0.0150
 1508SOL     OW 6104   0.907   2.442   2.768 -0.3560  0.0936 -0.2074
 1508SOL    HW2 6105   0.891   2.531   2.737 -0.2117  0.1388 -0.1511
 1508SOL    HW3 6106   0.990   2.416   2.729 -0.1708  0.1531  0.1444
 1508SOL    MW4 6107   0.916   2.450   2.759 -0.3126  0.1075 -0.1535
 1509SOL     OW 6108   0.874   2.681   2.650  0.4643  0.0318 -0.0472
 1509SOL    HW2 6109   0.939   2.741   2.685  0.8734 -0.4909  0.0992
 1509SOL    HW3 6110   0.790   2.723   2.668  0.7244  0.3328  0.4750
 1509SOL    MW4 6111   0.871   2.694   2.657  0.5527  0.0026  0.0410
 1510SOL     OW 6112   1.083   2.832   2.724  0.0000  0.0000 -0.1653
 1510SOL    HW2 6113   1.106   2.825   2.817  0.0000  0.0000 -0.1669
 1510SOL    HW3 6114   1.158   2.795   2.678  0.0000  0.0000 -0.1711
 1510SOL    MW4 6115   1.096   2.826   2.730  0.0000  0.0000 -0.1664
 1511SOL     OW 6116   1.148   3.096   2.665  0.0000  0.0000  0.0850
 1511SOL    HW2 6117   1.122   3.007   2.688  0.0000  0.0000  0.0797
 1511SOL    HW3 6118   1.136   3.101   2.570  0.0000  0.0000  0.0853
 1511SOL    MW4 6119   1.143   3.085   2.655  0.0000  0.0000  0.0844
 1512SOL     OW 6120   0.919   3.208   2.749  0.0000  0.0000  0.0957
 1512SOL    HW2 6121   0.903   3.287   2.697  0.0000  0.0000  0.0978
 1512SOL    HW3 6122   1.006   3.179   2.721  0.0000  0.0000  0.0939
 1512SOL    MW4 6123   0.928   3.215   2.739  0.0000  0.0000  0.0956
 1513SOL     OW 6124   0.887   3.462   2.639  0.0000  0.0000 -0.2064
 1513SOL    HW2 6125   0.960   3.508   2.681  0.0000  0.0000 -0.2396
 1513SOL    HW3 6126   0.810   3.512   2.666  0.0000  0.0000 -0.1278
 1513SOL    MW4 6127   0.887   3.475   2.648  0.0000  0.0000 -0.2003
 1514SOL     OW 6128   1.102   3.599   2.727  0.0000  0.0000 -0.3035
 1514SOL    HW2 6129   1.101   3.626   2.819  0.0000  0.0000 -0.3048
 1514SOL    HW3 6130   1.100   3.681   2.678  0.0000  0.0000 -0.3072
 1514SOL    MW4 6131   1.102   3.613   2.733  0.0000  0.0000 -0.3042
 1515SOL     OW 6132   1.098   3.851   2.605  0.0000  0.0000 -0.3633
 1515SOL    HW2 6133   1.178   3.889   2.643  0.0000  0.0000 -0.3633
 1515SOL    HW3 6134   1.110   3.859   2.511  0.0000  0.0000 -0.3631
 1515SOL    MW4 6135   1.110   3.857   2.598  0.0000  0.0000 -0.3631
 1516SOL     OW 6136   0.893   4.008   2.717  0.0000  0.0000  0.1551
 1516SOL    HW2 6137   0.958   3.963   2.662  0.0000  0.0000  0.1539
 1516SOL    HW3 6138   0.809   3.969   2.690  0.0000  0.0000  0.1446
 1516SOL    MW4 6139   0.890   3.997   2.706  0.0000  0.0000  0.1535
 1517SOL     OW 6140   0.888   4.266   2.667  0.0000  0.0000 -0.4374
 1517SOL    HW2 6141   0.892   4.174   2.692  0.0000  0.0000 -0.4290
 1517SOL    HW3 6142   0.884   4.265   2.572  0.0000  0.0000 -0.4371
 1517SOL    MW4 6143   0.888   4.254   2.658  0.0000  0.0000 -0.4361
 1518SOL     OW 6144   1.144   4.351   2.747  0.0000  0.0000 -0.3371
 1518SOL    HW2 6145   1.137   4.378   2.838  0.0000  0.0000 -0.3388
 1518SOL    HW3 6146   1.055   4.327   2.722  0.0000  0.0000 -0.3396
 1518SOL    MW4 6147   1.131   4.351   2.756  0.0000  0.0000 -0.3374
 1519SOL     OW 6148   1.557   4.652   2.649  0.3463  0.6953  0.2291
 1519SOL    HW2 6149   1.548   4.563   2.683 -1.4121  1.1728  1.1096
 1519SOL    HW3 6150   1.559   4.641   2.554 -0.3411 -0.2611  0.3165
 1519SOL    MW4 6151   1.556   4.638   2.641  0.0237  0.6323  0.3567
 1520SOL     OW 6152   1.332   0.125   2.734 -0.1491  0.0668 -0.3211
 1520SOL    HW2 6153   1.333   0.211   2.693  2.0645  0.3527  0.2611
 1520SOL    HW3 6154   1.409   0.080   2.699 -0.2957 -1.0284  0.6954
 1520SOL    MW4 6155   1.342   0.130   2.724  0.1236 -0.0400 -0.1104
 1521SOL     OW 6156   1.367   0.393   2.640 -0.0432 -0.0255  0.0196
 1521SOL    HW2 6157   1.435   0.428   2.699  0.0864 -1.9243  1.0616
 1521SOL    HW3 6158   1.285   0.425   2.676  0.1485  0.2178  0.2409
 1521SOL    MW4 6159   1.365   0.402   2.653 -0.0007 -0.2439  0.1862
 1522SOL     OW 6160   1.575   0.516   2.780 -0.1606  0.2566  0.4400
 1522SOL    HW2 6161   1.640   0.477   2.721  0.7762  0.1452  1.5395
 1522SOL    HW3 6162   1.559   0.603   2.742 -2.3014 -1.1380 -2.0484
 1522SOL    MW4 6163   1.582   0.523   2.767 -0.3194  0.0579  0.2568
 1523SOL     OW 6164   1.585   0.764   2.660  0.1697 -0.2398 -0.2627
 1523SOL    HW2 6165   1.504   0.816   2.660  0.1703 -0.2298  0.8100
 1523SOL    HW3 6166   1.600   0.744   2.567 -0.0210  1.3652 -0.6533
 1523SOL    MW4 6167   1.576   0.768   2.648  0.1446 -0.0266 -0.1726
 1524SOL     OW 6168   1.360   0.907   2.712 -0.2818 -0.3377 -0.0558
 1524SOL    HW2 6169   1.366   0.905   2.807  1.0667  2.2549 -0.0628
 1524SOL    HW3 6170   1.355   1.000   2.690 -1.3714 -0.9382 -2.4733
 1524SOL    MW4 6171   1.360   0.919   2.722 -0.2477 -0.0748 -0.3755
 1525SOL     OW 6172   1.381   1.178   2.599  0.1406  0.2410  0.4595
 1525SOL    HW2 6173   1.461   1.208   2.641  0.2008  0.5496  0.1312
 1525SOL    HW3 6174   1.311   1.225   2.645  0.3188  1.8834 -0.8927
 1525SOL    MW4 6175   1.382   1.188   2.611  0.1721  0.4983  0.2377
 1526SOL     OW 6176   1.573   1.288   2.761 -0.2785  0.1507 -0.0529
 1526SOL    HW2 6177   1.565   1.307   2.855 -1.9316 -0.1674 -0.1146
 1526SOL    HW3 6178   1.658   1.244   2.753 -0.4630 -0.5047  1.4129
 1526SOL    MW4 6179   1.583   1.285   2.772 -0.5211  0.0223  0.1326
 1527SOL     OW 6180   1.531   1.564   2.655 -0.7389  0.0155  0.0383
 1527SOL    HW2 6181   1.539   1.471   2.678 -0.8029 -0.0473 -0.1854
 1527SOL    HW3 6182   1.527   1.564   2.559  1.2153  0.3893 -0.0723
 1527SOL    MW4 6183   1.532   1.551   2.645 -0.4896  0.0567 -0.0057
 1528SOL     OW 6184   1.326   1.717   2.754  0.4091 -0.2172 -0.0486
 1528SOL    HW2 6185   1.407   1.672   2.730  1.1576  0.4530  1.1309
 1528SOL    HW3 6186   1.256   1.665   2.715  1.3283 -1.6950  0.2534
 1528SOL    MW4 6187   1.327   1.704   2.746  0.6292 -0.3238  0.1469
 1529SOL     OW 6188   1.368   1.966   2.652  0.1303  0.3516  0.2729
 1529SOL    HW2 6189   1.358   1.877   2.686  0.5662  0.1676 -0.0748
 1529SOL    HW3 6190   1.373   1.955   2.557 -1.1581  0.8683  0.1367
 1529SOL    MW4 6191   1.368   1.953   2.644  0.0178  0.3955  0.2093
 1530SOL     OW 6192   1.586   2.095   2.761 -0.2357 -0.0494  0.3674
 1530SOL    HW2 6193   1.661   2.043   2.732  0.1971  0.8211 -0.0921
 1530SOL    HW3 6194   1.511   2.052   2.720  0.1226 -0.2666 -0.0733
 1530SOL    MW4 6195   1.586   2.082   2.752 -0.1312  0.0372  0.2487
 1531SOL     OW 6196   1.586   2.349   2.621  0.2710  0.3382 -0.0515
 1531SOL    HW2 6197   1.648   2.417   2.647  0.5335  0.0232  0.1492
 1531SOL    HW3 6198   1.594   2.282   2.688  1.1433 -0.5988 -1.0709
 1531SOL    MW4 6199   1.595   2.349   2.633  0.4206  0.1731 -0.1597
 1532SOL     OW 6200   1.362   2.472   2.750 -0.0554  0.4576 -0.1192
 1532SOL    HW2 6201   1.355   2.554   2.701 -1.2303 -0.0564 -0.8155
 1532SOL    HW3 6202   1.438   2.428   2.713  1.1358  1.6262  0.8690
 1532SOL    MW4 6203   1.371   2.477   2.739 -0.0532  0.5443 -0.0808
 1533SOL     OW 6204   1.345   2.716   2.614 -0.0372 -0.5419  0.1098
 1533SOL    HW2 6205   1.408   2.782   2.643 -0.0435 -0.3743 -0.2468
 1533SOL    HW3 6206   1.356   2.714   2.518  1.5035 -2.5972  0.2890
 1533SOL    MW4 6207   1.355   2.724   2.605  0.1652 -0.7911  0.0863
 1534SOL     OW 6208   1.540   2.901   2.690  0.0588  0.4485 -0.9913
 1534SOL    HW2 6209   1.535   2.883   2.784  0.4405  2.5164 -0.5600
 1534SOL    HW3 6210   1.611   2.845   2.658  0.2197  0.0748  0.0297
 1534SOL    MW4 6211   1.549   2.891   2.698  0.1304  0.6721 -0.7999
 1535SOL     OW 6212   1.613   3.145   2.573 -0.1075 -0.0277  0.2220
 1535SOL    HW2 6213   1.683   3.201   2.608 -1.2800  1.1194  0.7720
 1535SOL    HW3 6214   1.629   3.059   2.612  0.4496  0.4565  1.0762
 1535SOL    MW4 6215   1.624   3.141   2.583 -0.1887  0.1876  0.4075
 1536SOL     OW 6216   1.389   3.226   2.717 -0.0419  0.0937  0.1572
 1536SOL    HW2 6217   1.467   3.184   2.680 -0.7204  0.6223 -1.9450
 1536SOL    HW3 6218   1.317   3.165   2.697 -0.5496  0.7808 -0.1284
 1536SOL    MW4 6219   1.390   3.212   2.709 -0.1984  0.2544 -0.1578
 1537SOL     OW 6220   1.337   3.484   2.646 -0.5335 -0.3030  0.3817
 1537SOL    HW2 6221   1.352   3.393   2.672 -0.4243 -0.4750 -0.2634
 1537SOL    HW3 6222   1.261   3.512   2.698 -0.3085 -0.6301  0.8865
 1537SOL    MW4 6223   1.329   3.475   2.656 -0.4894 -0.3688  0.3629
 1538SOL     OW 6224   1.575   3.595   2.695  0.0769 -0.4284  0.2062
 1538SOL    HW2 6225   1.643   3.541   2.655  1.3943 -0.2983  2.1928
 1538SOL    HW3 6226   1.493   3.550   2.674  0.5678  0.3359 -3.6827
 1538SOL    MW4 6227   1.573   3.582   2.687  0.3154 -0.3104 -0.0448
 1539SOL     OW 6228   1.560   3.863   2.610  0.4739  0.1910  0.5760
 1539SOL    HW2 6229   1.489   3.897   2.664  0.9967  0.2346  1.2550
 1539SOL    HW3 6230   1.563   3.769   2.630  0.7499  0.2299  0.7322
 1539SOL    MW4 6231   1.551   3.855   2.620  0.5795  0.2019  0.6864
 1540SOL     OW 6232   1.322   3.957   2.720 -0.1235 -0.3459 -0.5182
 1540SOL    HW2 6233   1.322   3.968   2.815  1.1142 -1.0083 -0.4251
 1540SOL    HW3 6234   1.344   4.044   2.686 -2.7998  0.4529 -0.3102
 1540SOL    MW4 6235   1.325   3.970   2.728 -0.3134 -0.3281 -0.4785
 1541SOL     OW 6236   1.360   4.217   2.652 -0.3411  0.4482  0.5986
 1541SOL    HW2 6237   1.273   4.247   2.679 -1.1708 -1.4252  0.1238
 1541SOL    HW3 6238   1.361   4.227   2.557  0.4408  1.6324  0.7199
 1541SOL    MW4 6239   1.349   4.222   2.643 -0.3473  0.3572  0.5519
 1542SOL     OW 6240   1.549   4.378   2.747  0.0591  0.5476  0.2618
 1542SOL    HW2 6241   1.554   4.345   2.837 -0.2567 -0.2457 -0.0041
 1542SOL    HW3 6242   1.477   4.328   2.708  0.8930  0.1394 -0.7516
 1542SOL    MW4 6243   1.540   4.367   2.754  0.1274  0.3891  0.0932
 1543SOL     OW 6244   2.001   4.660   2.636 -0.2730 -0.2844  0.1531
 1543SOL    HW2 6245   2.064   4.719   2.677  0.7288 -1.7140  0.7021
 1543SOL    HW3 6246   2.015   4.671   2.542 -0.6900  0.9608  0.2154
 1543SOL    MW4 6247   2.011   4.670   2.629 -0.1960 -0.3087  0.2337
 1544SOL     OW 6248   1.772   0.146   2.721  0.0805 -0.9235 -0.1450
 1544SOL    HW2 6249   1.843   0.104   2.673  1.0729 -0.1403  0.6157
 1544SOL    HW3 6250   1.694   0.095   2.699  0.6250 -0.9160 -2.1271
 1544SOL    MW4 6251   1.771   0.134   2.712  0.2832 -0.8191 -0.3059
 1545SOL     OW 6252   1.772   0.401   2.607 -0.1395  0.1665  0.0973
 1545SOL    HW2 6253   1.853   0.424   2.652 -0.5749 -0.6414  1.3317
 1545SOL    HW3 6254   1.761   0.307   2.624 -0.4001 -0.1171 -1.5620
 1545SOL    MW4 6255   1.781   0.391   2.615 -0.2314  0.0225  0.0415
 1546SOL     OW 6256   1.995   0.497   2.739 -0.4310 -0.2903 -0.0141
 1546SOL    HW2 6257   2.075   0.457   2.707 -0.7722  0.0805 -1.3662
 1546SOL    HW3 6258   1.998   0.587   2.707 -0.7696  0.1174  1.0469
 1546SOL    MW4 6259   2.006   0.504   2.731 -0.5209 -0.1876 -0.0527
 1547SOL     OW 6260   2.022   0.767   2.630  0.2451  0.3307  0.6355
 1547SOL    HW2 6261   1.953   0.826   2.661 -0.3028  0.0370 -0.0089
 1547SOL    HW3 6262   2.018   0.773   2.534  0.6445 -0.2231  0.5779
 1547SOL    MW4 6263   2.012   0.776   2.621  0.2255  0.2189  0.5431
 1548SOL     OW 6264   1.819   0.917   2.755 -0.7599  0.1973  0.2096
 1548SOL    HW2 6265   1.813   1.012   2.743 -2.2453  0.2065  0.9697
 1548SOL    HW3 6266   1.732   0.885   2.732 -0.1628 -1.0273 -0.3709
 1548SOL    MW4 6267   1.807   0.925   2.750 -0.8771  0.0370  0.2332
 1549SOL     OW 6268   1.821   1.188   2.695  0.0603  0.2052  0.2530
 1549SOL    HW2 6269   1.899   1.238   2.719 -1.0111  1.3840  1.3550
 1549SOL    HW3 6270   1.827   1.178   2.600  0.2603  2.5108  0.0017
 1549SOL    MW4 6271   1.833   1.193   2.685 -0.0547  0.6649  0.3655
 1550SOL     OW 6272   2.053   1.311   2.753 -0.2060 -0.0607  0.0338
 1550SOL    HW2 6273   2.070   1.310   2.847 -0.9493 -2.2340  0.1735
 1550SOL    HW3 6274   2.128   1.264   2.715 -0.6519 -0.4872 -0.3184
 1550SOL    MW4 6275   2.065   1.304   2.760 -0.3629 -0.4038  0.0055
 1551SOL     OW 6276   2.025   1.525   2.581  0.1730  0.2063 -0.1616
 1551SOL    HW2 6277   1.945   1.574   2.601  0.4166 -0.2202  1.9374
 1551SOL    HW3 6278   2.017   1.444   2.631  1.0353 -0.7127 -1.4870
 1551SOL    MW4 6279   2.013   1.521   2.590  0.3192  0.0287 -0.0594
 1552SOL     OW 6280   1.770   1.697   2.701 -0.0476 -0.3070 -0.0380
 1552SOL    HW2 6281   1.790   1.694   2.795  0.3574  0.2195 -0.1055
 1552SOL    HW3 6282   1.695   1.639   2.691  0.5369 -1.1566  0.4546
 1552SOL    MW4 6283   1.763   1.689   2.712  0.0831 -0.3496  0.0181
 1553SOL     OW 6284   1.811   1.968   2.653 -0.3937 -0.4461 -0.4958
 1553SOL    HW2 6285   1.897   2.002   2.675 -0.5448 -0.7084  0.5099
 1553SOL    HW3 6286   1.814   1.875   2.676 -0.9653 -0.4380 -0.3658
 1553SOL    MW4 6287   1.823   1.960   2.659 -0.4890 -0.4797 -0.3459
 1554SOL     OW 6288   2.043   2.091   2.729 -0.0280 -0.0598  0.0601
 1554SOL    HW2 6289   2.037   2.083   2.824 -2.1875 -0.9991 -0.1243
 1554SOL    HW3 6290   2.039   2.185   2.712  2.2513  0.2405  0.9661
 1554SOL    MW4 6291   2.042   2.102   2.739 -0.0122 -0.1440  0.1552
 1555SOL     OW 6292   2.011   2.357   2.649  0.5702  0.0182  0.3261
 1555SOL    HW2 6293   2.092   2.403   2.673  0.9864 -0.2680 -0.5440
 1555SOL    HW3 6294   2.017   2.345   2.555 -1.0457  1.0662  0.0636
 1555SOL    MW4 6295   2.022   2.362   2.640  0.4120  0.1187  0.1764
 1556SOL     OW 6296   1.788   2.496   2.739  0.2036 -0.1441 -0.4526
 1556SOL    HW2 6297   1.792   2.508   2.834  1.6050  1.7842 -0.7271
 1556SOL    HW3 6298   1.872   2.455   2.717 -0.2683 -0.9300 -0.8352
 1556SOL    MW4 6299   1.800   2.492   2.748  0.3263  0.0067 -0.5395
 1557SOL     OW 6300   1.770   2.739   2.619  0.1594 -0.0476  0.1033
 1557SOL    HW2 6301   1.773   2.653   2.660 -1.0814  0.0249  0.3532
 1557SOL    HW3 6302   1.840   2.788   2.662  0.8403 -0.9122 -0.0067
 1557SOL    MW4 6303   1.780   2.734   2.630  0.0856 -0.1521  0.1218
 1558SOL     OW 6304   1.980   2.881   2.704  0.2049 -0.3815  0.3796
 1558SOL    HW2 6305   2.058   2.837   2.672 -1.0133 -2.0033 -0.4611
 1558SOL    HW3 6306   1.984   2.872   2.800  1.9176  1.1087  0.4615
 1558SOL    MW4 6307   1.991   2.874   2.713  0.2702 -0.3989  0.2794
 1559SOL     OW 6308   1.992   3.142   2.621 -0.2024  0.0201 -0.0327
 1559SOL    HW2 6309   1.997   3.050   2.648  1.3385  0.2829  0.6708
 1559SOL    HW3 6310   1.979   3.138   2.526  0.8261 -0.9484 -0.1575
 1559SOL    MW4 6311   1.991   3.129   2.612  0.1367 -0.0730  0.0439
 1560SOL     OW 6312   1.794   3.285   2.744  0.3075 -0.4105 -0.0366
 1560SOL    HW2 6313   1.816   3.368   2.702 -0.0218 -0.2923  0.0236
 1560SOL    HW3 6314   1.864   3.225   2.716  1.3443  0.2576  1.1029
 1560SOL    MW4 6315   1.806   3.288   2.735  0.4009 -0.3066  0.1218
 1561SOL     OW 6316   1.802   3.510   2.591 -0.7796 -0.4666 -0.6097
 1561SOL    HW2 6317   1.882   3.550   2.625 -0.1216 -1.6866 -0.6885
 1561SOL    HW3 6318   1.809   3.520   2.496 -1.2777  0.4513 -0.5537
 1561SOL    MW4 6319   1.814   3.517   2.583 -0.7585 -0.5066 -0.6127
 1562SOL     OW 6320   2.021   3.631   2.723 -0.2374 -0.0099  0.1814
 1562SOL    HW2 6321   2.021   3.611   2.816  0.1919 -0.1569  0.1518
 1562SOL    HW3 6322   2.095   3.581   2.687 -1.5361 -1.4333 -0.5571
 1562SOL    MW4 6323   2.031   3.622   2.730 -0.3524 -0.2172  0.0803
 1563SOL     OW 6324   1.999   3.898   2.640  0.2069 -0.6071 -0.2970
 1563SOL    HW2 6325   1.921   3.944   2.671 -0.4735 -1.5481 -0.5871
 1563SOL    HW3 6326   1.989   3.809   2.674  2.0727 -0.2601  1.2050
 1563SOL    MW4 6327   1.987   3.892   2.648  0.3633 -0.6855 -0.1371
 1564SOL     OW 6328   1.774   4.001   2.744 -0.2914  0.0179 -0.0205
 1564SOL    HW2 6329   1.755   4.090   2.713 -1.1371 -0.5130 -1.0581
 1564SOL    HW3 6330   1.725   3.944   2.685  0.0991 -1.1387  0.7541
 1564SOL    MW4 6331   1.765   4.005   2.732 -0.3514 -0.2046 -0.0548
 1565SOL     OW 6332   1.788   4.268   2.654 -0.5439  0.3990  0.1398
 1565SOL    HW2 6333   1.706   4.308   2.682 -0.3918  1.1206 -0.4471
 1565SOL    HW3 6334   1.798   4.294   2.563  0.2365  0.1360  0.1448
 1565SOL    MW4 6335   1.778   4.276   2.646 -0.4209  0.4601  0.0629
 1566SOL     OW 6336   2.024   4.390   2.754 -0.2304  0.0457  0.1485
 1566SOL    HW2 6337   1.941   4.354   2.722 -0.0088  0.2782 -0.6822
 1566SOL    HW3 6338   2.025   4.480   2.722  0.1893  0.1479  0.4475
 1566SOL    MW4 6339   2.013   4.397   2.746 -0.1459  0.0901  0.0784
 1567SOL     OW 6340   2.430   4.664   2.663 -0.1720  0.0162 -0.0860
 1567SOL    HW2 6341   2.515   4.694   2.695 -0.3698  1.4126 -0.7903
 1567SOL    HW3 6342   2.438   4.670   2.568 -0.7371 -0.7676 -0.1813
 1567SOL    MW4 6343   2.443   4.669   2.655 -0.2725  0.0970 -0.1917
 1568SOL     OW 6344   2.216   0.132   2.750 -0.1518 -0.6382 -0.0470
 1568SOL    HW2 6345   2.234   0.140   2.844 -0.0732 -1.0989 -0.0252
 1568SOL    HW3 6346   2.294   0.089   2.714  0.1940  0.3085 -0.4603
 1568SOL    MW4 6347   2.229   0.128   2.758 -0.0958 -0.5741 -0.0985
 1569SOL     OW 6348   2.240   0.396   2.649  0.5819  0.0358  0.2774
 1569SOL    HW2 6349   2.244   0.307   2.685  1.2720 -0.4172 -0.9044
 1569SOL    HW3 6350   2.242   0.383   2.554  0.1497  1.2911  0.0995
 1569SOL    MW4 6351   2.241   0.382   2.642  0.6158  0.1416  0.0980
 1570SOL     OW 6352   2.483   0.478   2.743 -0.1687 -0.7961 -0.3684
 1570SOL    HW2 6353   2.483   0.573   2.731 -1.3570 -0.6908  0.3898
 1570SOL    HW3 6354   2.404   0.448   2.697 -0.0181 -1.3650 -0.2593
 1570SOL    MW4 6355   2.472   0.487   2.735 -0.3054 -0.8573 -0.2542
 1571SOL     OW 6356   2.442   0.760   2.681  0.4202  0.5071 -0.0339
 1571SOL    HW2 6357   2.365   0.810   2.709  0.5535  0.9146 -0.3846
 1571SOL    HW3 6358   2.432   0.751   2.586  0.3832 -0.1619  0.0322
 1571SOL    MW4 6359   2.431   0.766   2.672  0.4330  0.4727 -0.0718
 1572SOL     OW 6360   2.212   0.894   2.773 -0.7798  0.2339  0.3561
 1572SOL    HW2 6361   2.188   0.887   2.866 -0.3532  1.3374  0.5608
 1572SOL    HW3 6362   2.150   0.837   2.728  0.5725 -2.2291  1.5612
 1572SOL    MW4 6363   2.200   0.886   2.780 -0.5453  0.0545  0.5422
 1573SOL     OW 6364   2.245   1.145   2.675 -0.0548  0.1330  0.1981
 1573SOL    HW2 6365   2.237   1.058   2.713  0.7235 -0.5311 -1.1233
 1573SOL    HW3 6366   2.228   1.133   2.582  0.5270  1.3073 -0.0795
 1573SOL    MW4 6367   2.242   1.132   2.668  0.1249  0.2003 -0.0129
 1574SOL     OW 6368   2.486   1.275   2.751 -0.0153 -0.5204 -0.3948
 1574SOL    HW2 6369   2.559   1.229   2.711 -0.6573 -0.9549 -1.0950
 1574SOL    HW3 6370   2.408   1.236   2.710 -0.6087  0.3561 -0.1217
 1574SOL    MW4 6371   2.485   1.264   2.740 -0.1781 -0.4622 -0.4513
 1575SOL     OW 6372   2.480   1.531   2.624  0.0851 -0.0791 -0.5332
 1575SOL    HW2 6373   2.409   1.563   2.681  1.3178  0.2362  0.8788
 1575SOL    HW3 6374   2.510   1.451   2.666  2.5847  1.3930  0.6411
 1575SOL    MW4 6375   2.474   1.525   2.637  0.5777  0.1566 -0.1919
 1576SOL     OW 6376   2.249   1.649   2.726 -0.0471  0.0211 -0.0076
 1576SOL    HW2 6377   2.245   1.732   2.678  0.2803  0.2733  0.3937
 1576SOL    HW3 6378   2.186   1.592   2.681  0.7764  0.0176 -1.1929
 1576SOL    MW4 6379   2.240   1.652   2.714  0.1049  0.0540 -0.1111
 1577SOL     OW 6380   2.214   1.909   2.611  0.1764 -0.0106  0.8546
 1577SOL    HW2 6381   2.151   1.968   2.654  2.6508  2.4445  1.2831
 1577SOL    HW3 6382   2.197   1.921   2.517  0.0434  0.7006  0.9604
 1577SOL    MW4 6383   2.203   1.919   2.604  0.4854  0.4072  0.9251
 1578SOL     OW 6384   2.443   2.043   2.692 -0.9457 -0.3494 -0.1647
 1578SOL    HW2 6385   2.451   2.130   2.653 -0.5265  0.2707  1.2557
 1578SOL    HW3 6386   2.351   2.018   2.679 -1.5993  1.2235  1.2804
 1578SOL    MW4 6387   2.432   2.051   2.685 -0.9763 -0.0601  0.2131
 1579SOL     OW 6388   2.417   2.327   2.593  0.4489  0.5683  0.6914
 1579SOL    HW2 6389   2.500   2.363   2.624  0.4402  1.3933 -0.2117
 1579SOL    HW3 6390   2.433   2.305   2.501 -0.3662  0.8650  0.4709
 1579SOL    MW4 6391   2.430   2.329   2.585  0.3402  0.7162  0.5431
 1580SOL     OW 6392   2.265   2.516   2.719  0.6324 -0.1504 -0.4411
 1580SOL    HW2 6393   2.261   2.500   2.813 -0.0569 -0.0569 -0.4562
 1580SOL    HW3 6394   2.316   2.442   2.685  0.7164 -0.2883 -0.0232
 1580SOL    MW4 6395   2.271   2.504   2.727  0.5524 -0.1564 -0.3877
 1581SOL     OW 6396   2.219   2.767   2.635 -0.4878 -0.2401  0.2649
 1581SOL    HW2 6397   2.296   2.821   2.654  1.0049 -3.2230  3.2633
 1581SOL    HW3 6398   2.237   2.683   2.678 -4.3286 -1.9076 -1.1111
 1581SOL    MW4 6399   2.232   2.763   2.643 -0.7975 -0.8535  0.4792
 1582SOL     OW 6400   2.460   2.900   2.702 -0.4275  0.2925  0.2251
 1582SOL    HW2 6401   2.515   2.840   2.651 -0.7253  0.2767 -0.0804
 1582SOL    HW3 6402   2.483   2.987   2.669 -1.0017  0.2468 -0.3154
 1582SOL    MW4 6403   2.470   2.904   2.691 -0.5424  0.2844  0.1135
 1583SOL     OW 6404   2.488   3.158   2.603  0.3992  0.2890 -0.2684
 1583SOL    HW2 6405   2.414   3.176   2.660  1.0092  0.9828  0.3102
 1583SOL    HW3 6406   2.529   3.243   2.588  0.7400 -0.0026 -1.0551
 1583SOL    MW4 6407   2.484   3.171   2.608  0.5243  0.3421 -0.2959
 1584SOL     OW 6408   2.258   3.208   2.717  0.2850  0.0121 -0.2423
 1584SOL    HW2 6409   2.233   3.206   2.809 -1.8317  0.1854 -0.7935
 1584SOL    HW3 6410   2.184   3.168   2.671  0.7567  1.1055 -1.9992
 1584SOL    MW4 6411   2.245   3.202   2.723  0.0679  0.1791 -0.5469
 1585SOL     OW 6412   2.232   3.472   2.627 -0.1226  0.0771  0.1941
 1585SOL    HW2 6413   2.302   3.515   2.676 -1.2498  0.8500  1.1615
 1585SOL    HW3 6414   2.233   3.382   2.660 -0.4280  0.4190  1.1681
 1585SOL    MW4 6415   2.242   3.466   2.638 -0.3114  0.2244  0.4504
 1586SOL     OW 6416   2.452   3.612   2.715  0.3149  0.1526 -0.7170
 1586SOL    HW2 6417   2.472   3.619   2.808  2.1831 -2.1739 -0.8679
 1586SOL    HW3 6418   2.436   3.701   2.686  1.2011  1.0758  1.5367
 1586SOL    MW4 6419   2.453   3.624   2.723  0.6781 -0.0327 -0.4396
 1587SOL     OW 6420   2.456   3.867   2.603  0.3057 -0.5747  0.7877
 1587SOL    HW2 6421   2.534   3.909   2.639 -0.5371  1.5586  0.1800
 1587SOL    HW3 6422   2.383   3.923   2.631 -0.7221 -0.9273 -1.0807
 1587SOL    MW4 6423   2.456   3.880   2.612  0.0589 -0.3400  0.4609
 1588SOL     OW 6424   2.252   4.014   2.703 -0.0742 -0.4096 -0.1509
 1588SOL    HW2 6425   2.236   4.034   2.795 -0.4243 -0.3134 -0.2313
 1588SOL    HW3 6426   2.169   3.977   2.672  0.2783 -1.1529 -0.2316
 1588SOL    MW4 6427   2.239   4.012   2.711 -0.0739 -0.4950 -0.1719
 1589SOL     OW 6428   2.225   4.292   2.613  0.7457  0.0792  0.1097
 1589SOL    HW2 6429   2.222   4.199   2.638 -0.0100  0.2802  0.7725
 1589SOL    HW3 6430   2.155   4.333   2.664  0.3195  0.8121 -1.0389
 1589SOL    MW4 6431   2.215   4.285   2.623  0.5898  0.2027  0.0455
 1590SOL     OW 6432   2.469   4.396   2.724  0.0123 -0.0302 -0.1080
 1590SOL    HW2 6433   2.385   4.356   2.699  0.1331 -0.6859  0.5343
 1590SOL    HW3 6434   2.462   4.486   2.692 -1.0992  0.0345  0.2702
 1590SOL    MW4 6435   2.457   4.403   2.717 -0.1185 -0.1087  0.0267
 1591SOL     OW 6436   2.888   4.623   2.647 -0.2945  0.6448  0.3586
 1591SOL    HW2 6437   2.959   4.675   2.685  0.5542 -0.4836  0.3609
 1591SOL    HW3 6438   2.906   4.625   2.552 -0.5453  0.7821  0.3158
 1591SOL    MW4 6439   2.900   4.630   2.639 -0.2155  0.5136  0.3533
 1592SOL     OW 6440   2.679   0.095   2.734 -0.0031  0.0253 -0.1176
 1592SOL    HW2 6441   2.697   0.105   2.827 -2.9817 -1.8356  0.7248
 1592SOL    HW3 6442   2.748   0.036   2.703  0.7850  0.3494  0.9752
 1592SOL    MW4 6443   2.690   0.088   2.742 -0.2921 -0.1774  0.1376
 1593SOL     OW 6444   2.694   0.377   2.602  0.4998  0.0185  0.2345
 1593SOL    HW2 6445   2.709   0.286   2.626 -1.6349 -0.7293 -1.1213
 1593SOL    HW3 6446   2.630   0.409   2.666 -0.3876 -0.0934 -0.5828
 1593SOL    MW4 6447   2.688   0.369   2.613  0.1009 -0.0949 -0.0520
 1594SOL     OW 6448   2.907   0.527   2.724  0.0774 -0.5615  0.1201
 1594SOL    HW2 6449   2.882   0.617   2.706 -2.1713 -0.9847  1.0075
 1594SOL    HW3 6450   2.843   0.473   2.678 -0.1557 -1.6718  1.6682
 1594SOL    MW4 6451   2.895   0.532   2.716 -0.2501 -0.7638  0.4416
 1595SOL     OW 6452   2.905   0.796   2.634  0.0107 -0.2411  0.2618
 1595SOL    HW2 6453   2.988   0.837   2.659 -0.5418  2.2982 -1.7977
 1595SOL    HW3 6454   2.838   0.846   2.680 -0.6577  1.0928 -2.0485
 1595SOL    MW4 6455   2.907   0.808   2.643 -0.1502  0.2699 -0.3147
 1596SOL     OW 6456   2.683   0.908   2.772  0.2563 -0.9660  0.4950
 1596SOL    HW2 6457   2.671   0.908   2.867 -0.8075  1.7381  0.4001
 1596SOL    HW3 6458   2.614   0.849   2.740  0.2345 -1.4174  1.3498
 1596SOL    MW4 6459   2.672   0.900   2.780  0.1130 -0.6688  0.5956
 1597SOL     OW 6460   2.673   1.129   2.622 -0.4554 -0.0358  0.2014
 1597SOL    HW2 6461   2.752   1.179   2.643 -0.3926  0.1358 -0.4511
 1597SOL    HW3 6462   2.682   1.048   2.673  0.0405  0.0765  0.2959
 1597SOL    MW4 6463   2.685   1.125   2.632 -0.3815  0.0017  0.1278
 1598SOL     OW 6464   2.884   1.265   2.712 -0.7221 -0.3562 -0.4318
 1598SOL    HW2 6465   2.888   1.270   2.807  1.4058  0.7857 -0.5589
 1598SOL    HW3 6466   2.952   1.202   2.688 -0.9483 -0.3034 -1.2299
 1598SOL    MW4 6467   2.893   1.257   2.721 -0.4711 -0.1985 -0.5541
 1599SOL     OW 6468   2.932   1.527   2.612  0.1428  0.5104  0.3642
 1599SOL    HW2 6469   2.864   1.581   2.651  0.1327  0.5991  0.2250
 1599SOL    HW3 6470   2.927   1.444   2.658  0.4224  0.7624  0.8503
 1599SOL    MW4 6471   2.922   1.523   2.623  0.1781  0.5555  0.4101
 1600SOL     OW 6472   2.703   1.631   2.756  0.1016  0.1778 -0.4459
 1600SOL    HW2 6473   2.687   1.632   2.850  0.5476 -1.9867 -0.3144
 1600SOL    HW3 6474   2.625   1.589   2.719  0.9205 -1.0641 -0.7957
 1600SOL    MW4 6475   2.691   1.626   2.763  0.2687 -0.2717 -0.4747
 1601SOL     OW 6476   2.669   1.862   2.616 -0.0575  0.0691  0.1620
 1601SOL    HW2 6477   2.680   1.777   2.657 -0.6334 -0.9883 -1.8231
 1601SOL    HW3 6478   2.582   1.891   2.642 -0.0711 -0.1949  0.4040
 1601SOL    MW4 6479   2.659   1.855   2.625 -0.1347 -0.1053 -0.0682
 1602SOL     OW 6480   2.877   2.031   2.733 -0.4964 -0.6292 -0.3828
 1602SOL    HW2 6481   2.877   2.122   2.701  0.9619 -0.4230  0.1180
 1602SOL    HW3 6482   2.802   1.990   2.691 -1.5554  0.9920 -0.1243
 1602SOL    MW4 6483   2.867   2.038   2.724 -0.4435 -0.3881 -0.2825
 1603SOL     OW 6484   2.877   2.304   2.634 -0.3922 -0.5342 -0.1051
 1603SOL    HW2 6485   2.948   2.363   2.660 -0.2976 -0.9882  0.6882
 1603SOL    HW3 6486   2.797   2.352   2.655 -0.3196 -0.0941 -0.8315
 1603SOL    MW4 6487   2.876   2.318   2.640 -0.3703 -0.5360 -0.0963
 1604SOL     OW 6488   2.641   2.450   2.673 -0.2079  0.5105  0.1062
 1604SOL    HW2 6489   2.634   2.440   2.768 -0.1429  1.2881  0.1935
 1604SOL    HW3 6490   2.635   2.544   2.658 -0.8768  0.3365 -0.7186
 1604SOL    MW4 6491   2.640   2.461   2.684 -0.2875  0.5898  0.0091
 1605SOL     OW 6492   2.659   2.719   2.607  0.3781  0.4571 -0.0034
 1605SOL    HW2 6493   2.735   2.769   2.636  0.4281  1.3739 -1.6275
 1605SOL    HW3 6494   2.675   2.703   2.514 -0.7016 -0.6517 -0.0101
 1605SOL    MW4 6495   2.671   2.723   2.599  0.2422  0.4320 -0.2186
 1606SOL     OW 6496   2.907   2.833   2.691 -0.4487 -0.3693  0.0137
 1606SOL    HW2 6497   2.909   2.828   2.786  3.3789 -0.6057 -0.0007
 1606SOL    HW3 6498   2.903   2.927   2.671 -3.2422 -0.3792  0.3522
 1606SOL    MW4 6499   2.907   2.845   2.701 -0.3121 -0.4020  0.0565
 1607SOL     OW 6500   2.877   3.105   2.638 -0.3075 -0.1255  0.1777
 1607SOL    HW2 6501   2.840   3.190   2.662 -0.5972  0.1596 -1.2642
 1607SOL    HW3 6502   2.856   3.094   2.546  0.7004 -1.2663  0.0641
 1607SOL    MW4 6503   2.870   3.115   2.629 -0.2127 -0.2384 -0.0274
 1608SOL     OW 6504   2.826   3.375   2.711 -0.2249 -0.2762  0.1707
 1608SOL    HW2 6505   2.872   3.459   2.717  1.3043 -1.0618 -0.3003
 1608SOL    HW3 6506   2.742   3.396   2.670 -0.3017  1.1807  1.0479
 1608SOL    MW4 6507   2.821   3.389   2.706 -0.0334 -0.1876  0.2244
 1609SOL     OW 6508   2.597   3.424   2.552  0.4556 -0.1139 -0.1650
 1609SOL    HW2 6509   2.542   3.496   2.584 -1.3758 -1.1807 -0.8126
 1609SOL    HW3 6510   2.636   3.458   2.472  0.5269  0.5691  0.1549
 1609SOL    MW4 6511   2.595   3.438   2.546  0.2232 -0.1643 -0.2081
 1610SOL     OW 6512   2.937   3.631   2.677 -0.3626 -0.1403 -0.1427
 1610SOL    HW2 6513   2.948   3.650   2.771 -0.6427  1.2872 -0.3911
 1610SOL    HW3 6514   3.019   3.588   2.652  0.2035  0.5455  0.4954
 1610SOL    MW4 6515   2.949   3.628   2.686 -0.3250  0.1385 -0.0916
 1611SOL     OW 6516   2.894   3.884   2.593  0.0197  0.2074  0.3254
 1611SOL    HW2 6517   2.966   3.928   2.638 -0.3498  0.7395  0.4074
 1611SOL    HW3 6518   2.897   3.793   2.623  0.6216  0.2446  0.3669
 1611SOL    MW4 6519   2.904   3.878   2.603  0.0501  0.2823  0.3419
 1612SOL     OW 6520   2.678   3.968   2.745  0.4599 -0.3798 -0.1999
 1612SOL    HW2 6521   2.656   4.056   2.712 -0.0179 -0.1781  0.6342
 1612SOL    HW3 6522   2.755   3.942   2.695  0.7915  0.6485 -0.2425
 1612SOL    MW4 6523   2.685   3.976   2.734  0.4406 -0.2177 -0.0956
 1613SOL     OW 6524   2.679   4.239   2.648  0.2475  0.3148 -1.2066
 1613SOL    HW2 6525   2.753   4.273   2.699 -0.5702 -0.8079  0.8159
 1613SOL    HW3 6526   2.606   4.294   2.674  0.1654  0.8318 -2.5044
 1613SOL    MW4 6527   2.679   4.251   2.658  0.1287  0.2346 -1.1108
 1614SOL     OW 6528   2.881   4.379   2.761 -0.2603 -0.1762 -0.1053
 1614SOL    HW2 6529   2.881   4.382   2.857 -1.5148  0.5290 -0.1055
 1614SOL    HW3 6530   2.880   4.471   2.734  0.0042 -0.3700 -0.7958
 1614SOL    MW4 6531   2.881   4.391   2.770 -0.3910 -0.1082 -0.1965
 1615SOL     OW 6532   3.319   4.644   2.590 -0.1135  0.2584  0.2044
 1615SOL    HW2 6533   3.326   4.566   2.643  0.1116  0.9898  1.2623
 1615SOL    HW3 6534   3.242   4.690   2.623 -2.2423 -1.1387 -2.6091
 1615SOL    MW4 6535   3.310   4.640   2.601 -0.3648  0.1707 -0.0272
 1616SOL     OW 6536   3.112   0.123   2.704  0.1732  0.3656  0.1961
 1616SOL    HW2 6537   3.111   0.130   2.800  0.0106  0.5513  0.1822
 1616SOL    HW3 6538   3.114   0.214   2.674  2.4584  0.2788  0.0334
 1616SOL    MW4 6539   3.112   0.136   2.713  0.4530  0.3787  0.1729
 1617SOL     OW 6540   3.136   0.395   2.643 -0.0904  0.4311  0.1226
 1617SOL    HW2 6541   3.050   0.432   2.663 -0.4894 -1.5230  2.1910
 1617SOL    HW3 6542   3.141   0.396   2.548 -1.8772  1.7466  0.0159
 1617SOL    MW4 6543   3.125   0.400   2.633 -0.3788  0.3468  0.3815
 1618SOL     OW 6544   3.368   0.494   2.739  0.2797 -0.1032  0.4200
 1618SOL    HW2 6545   3.383   0.583   2.708  0.5030 -0.5759 -0.8607
 1618SOL    HW3 6546   3.284   0.469   2.700  0.0196 -0.3213  1.1026
 1618SOL    MW4 6547   3.359   0.502   2.730  0.2749 -0.1943  0.3414
 1619SOL     OW 6548   3.386   0.752   2.642  0.1630  0.4945  0.2020
 1619SOL    HW2 6549   3.456   0.813   2.665 -0.3099  1.6824 -1.4249
 1619SOL    HW3 6550   3.375   0.762   2.547 -1.1406 -0.8105  0.1928
 1619SOL    MW4 6551   3.393   0.762   2.632 -0.0713  0.4790 -0.0138
 1620SOL     OW 6552   3.167   0.908   2.751 -0.5555  0.1442  0.4159
 1620SOL    HW2 6553   3.140   0.900   2.842 -2.0122 -1.7222 -0.1379
 1620SOL    HW3 6554   3.237   0.844   2.740 -2.3974 -1.7627 -0.4788
 1620SOL    MW4 6555   3.172   0.899   2.761 -0.9911 -0.3537  0.2251
 1621SOL     OW 6556   3.092   1.130   2.617 -0.3650 -0.0502 -0.2347
 1621SOL    HW2 6557   3.126   1.050   2.655  1.6622  1.1143  0.4514
 1621SOL    HW3 6558   3.111   1.123   2.523  0.9053  0.1719  0.0069
 1621SOL    MW4 6559   3.099   1.119   2.610  0.0701  0.1328 -0.1121
 1622SOL     OW 6560   3.322   1.271   2.701 -0.1326 -0.2584 -0.3241
 1622SOL    HW2 6561   3.322   1.252   2.795  1.2297 -1.2018 -0.5068
 1622SOL    HW3 6562   3.239   1.233   2.670 -0.6511  0.1632  0.5075
 1622SOL    MW4 6563   3.311   1.263   2.710 -0.0212 -0.3271 -0.2384
 1623SOL     OW 6564   3.366   1.529   2.613 -0.0884 -0.1913 -0.1727
 1623SOL    HW2 6565   3.305   1.582   2.664 -0.6047 -0.8181 -0.1387
 1623SOL    HW3 6566   3.347   1.439   2.637  0.9366 -0.3873 -0.0754
 1623SOL    MW4 6567   3.355   1.524   2.623 -0.0212 -0.2998 -0.1554
 1624SOL     OW 6568   3.161   1.659   2.748 -0.2475 -0.5570  0.5326
 1624SOL    HW2 6569   3.160   1.752   2.724  1.2288 -0.0692  2.2485
 1624SOL    HW3 6570   3.084   1.622   2.705 -0.3211  1.2605 -0.9524
 1624SOL    MW4 6571   3.151   1.666   2.739 -0.0622 -0.2528  0.5631
 1625SOL     OW 6572   3.120   1.922   2.630  0.2405 -0.1103  0.3680
 1625SOL    HW2 6573   3.187   1.980   2.667  0.1515 -1.8813  3.5166
 1625SOL    HW3 6574   3.037   1.955   2.666 -0.1183 -0.4530 -0.1292
 1625SOL    MW4 6575   3.118   1.934   2.640  0.1817 -0.3891  0.7176
 1626SOL     OW 6576   3.350   2.048   2.712 -0.0901  0.3010 -0.4322
 1626SOL    HW2 6577   3.350   2.043   2.808  0.9482 -1.4323 -0.5022
 1626SOL    HW3 6578   3.362   2.141   2.693  0.9182  0.5070  1.1270
 1626SOL    MW4 6579   3.352   2.060   2.722  0.1800  0.0997 -0.2358
 1627SOL     OW 6580   3.333   2.323   2.625  0.4617  0.0153 -0.5277
 1627SOL    HW2 6581   3.413   2.374   2.641  0.7139 -0.3575 -0.5878
 1627SOL    HW3 6582   3.328   2.314   2.530  0.5554 -0.2818 -0.5074
 1627SOL    MW4 6583   3.343   2.328   2.615  0.5076 -0.0730 -0.5329
 1628SOL     OW 6584   3.115   2.453   2.726  0.0792 -0.2557  0.2693
 1628SOL    HW2 6585   3.125   2.539   2.685  0.8477 -0.3502  0.2520
 1628SOL    HW3 6586   3.189   2.402   2.692  0.2358 -0.5947  1.1137
 1628SOL    MW4 6587   3.126   2.457   2.716  0.2010 -0.3128  0.3786
 1629SOL     OW 6588   3.136   2.706   2.617 -0.4780 -0.1422  0.2471
 1629SOL    HW2 6589   3.202   2.746   2.675 -0.3877  0.6942 -0.4194
 1629SOL    HW3 6590   3.056   2.755   2.635 -0.9661 -1.2693  1.1746
 1629SOL    MW4 6591   3.134   2.718   2.627 -0.5305 -0.1805  0.2820
 1630SOL     OW 6592   3.388   2.790   2.719  0.3846  0.6763 -0.5473
 1630SOL    HW2 6593   3.415   2.811   2.808  0.9975 -1.7005 -0.1453
 1630SOL    HW3 6594   3.465   2.750   2.679 -0.1057  1.0838 -1.9105
 1630SOL    MW4 6595   3.401   2.787   2.725  0.4008  0.4168 -0.6740
 1631SOL     OW 6596   3.337   3.068   2.618  0.3395  0.0172  0.0585
 1631SOL    HW2 6597   3.344   2.977   2.649 -1.8611  0.3973  1.8018
 1631SOL    HW3 6598   3.335   3.061   2.523  2.5168 -1.5725  0.0950
 1631SOL    MW4 6599   3.338   3.055   2.610  0.3364 -0.1423  0.2935
 1632SOL     OW 6600   3.120   3.210   2.738  0.4168 -0.2623  0.1659
 1632SOL    HW2 6601   3.179   3.157   2.684 -0.1582  0.2789 -1.0161
 1632SOL    HW3 6602   3.033   3.194   2.701  0.1547  0.9783  0.2008
 1632SOL    MW4 6603   3.116   3.201   2.726  0.3064 -0.0269  0.0145
 1633SOL     OW 6604   3.168   3.513   2.635 -0.2101  0.2390  0.7167
 1633SOL    HW2 6605   3.253   3.532   2.674 -0.7029  0.0023  1.9062
 1633SOL    HW3 6606   3.139   3.432   2.677 -0.6498 -0.1457 -0.2882
 1633SOL    MW4 6607   3.175   3.505   2.645 -0.3331  0.1571  0.7410
 1634SOL     OW 6608   3.410   3.598   2.712 -0.6447 -0.0120 -0.3368
 1634SOL    HW2 6609   3.406   3.576   2.805 -0.4914 -0.6087 -0.4690
 1634SOL    HW3 6610   3.376   3.687   2.707 -2.0530 -0.5141  0.1091
 1634SOL    MW4 6611   3.405   3.607   2.723 -0.8099 -0.1571 -0.2954
 1635SOL     OW 6612   3.350   3.846   2.641  0.1796  0.1641  0.4594
 1635SOL    HW2 6613   3.432   3.893   2.659 -0.1376  0.9012  0.0217
 1635SOL    HW3 6614   3.346   3.842   2.545 -0.7956  1.0251  0.4627
 1635SOL    MW4 6615   3.361   3.852   2.631  0.0091  0.3750  0.4022
 1636SOL     OW 6616   3.112   3.982   2.728 -0.0756  0.0632 -0.4310
 1636SOL    HW2 6617   3.135   4.073   2.707  0.2291 -0.0918 -0.7822
 1636SOL    HW3 6618   3.189   3.932   2.701 -0.4814 -0.3634 -0.7832
 1636SOL    MW4 6619   3.125   3.988   2.722 -0.0889 -0.0134 -0.5236
 1637SOL     OW 6620   3.117   4.261   2.671 -0.0505 -0.1247  0.5565
 1637SOL    HW2 6621   3.040   4.302   2.712  0.6938 -0.4623  2.3241
 1637SOL    HW3 6622   3.103   4.274   2.577 -1.5620  1.0807  0.9169
 1637SOL    MW4 6623   3.105   4.268   2.664 -0.1516 -0.0105  0.8376
 1638SOL     OW 6624   3.347   4.409   2.729  1.1919 -0.3741 -0.4533
 1638SOL    HW2 6625   3.360   4.400   2.823  0.4962  0.5553 -0.2574
 1638SOL    HW3 6626   3.271   4.355   2.710  1.0383 -0.1796 -0.3958
 1638SOL    MW4 6627   3.339   4.401   2.739  1.0798 -0.2260 -0.4196
 1639SOL     OW 6628   3.790   4.606   2.596 -0.3910 -0.1804  0.0852
 1639SOL    HW2 6629   3.783   4.513   2.616 -0.4265 -0.0396  0.7359
 1639SOL    HW3 6630   3.706   4.643   2.622  0.0742  0.2486  1.0280
 1639SOL    MW4 6631   3.778   4.599   2.602 -0.3340 -0.1054  0.2952
 1640SOL     OW 6632   3.571   0.099   2.678  0.2078  0.6429 -0.0351
 1640SOL    HW2 6633   3.562   0.192   2.656 -2.3821  1.0070  2.2265
 1640SOL    HW3 6634   3.494   0.058   2.639  0.8399 -0.4088 -0.1987
 1640SOL    MW4 6635   3.560   0.106   2.670 -0.0505  0.5522  0.2418
 1641SOL     OW 6636   3.592   0.369   2.617 -0.1980  0.5620 -0.0358
 1641SOL    HW2 6637   3.673   0.403   2.655 -0.6382 -0.2488  1.7077
 1641SOL    HW3 6638   3.523   0.422   2.657 -0.6348  0.1544 -0.2410
 1641SOL    MW4 6639   3.593   0.381   2.628 -0.3135  0.4013  0.1674
 1642SOL     OW 6640   3.819   0.482   2.720 -0.4389  0.3571 -0.3083
 1642SOL    HW2 6641   3.805   0.492   2.814 -0.9468 -0.5782 -0.2750
 1642SOL    HW3 6642   3.892   0.420   2.713 -0.3643  0.4699 -0.5290
 1642SOL    MW4 6643   3.827   0.475   2.732 -0.4961  0.2486 -0.3331
 1643SOL     OW 6644   3.849   0.760   2.648  0.1220 -0.1803  0.3766
 1643SOL    HW2 6645   3.769   0.810   2.662  0.3552  0.1971  0.3705
 1643SOL    HW3 6646   3.833   0.675   2.691 -0.5795 -0.4003 -0.3226
 1643SOL    MW4 6647   3.836   0.755   2.656  0.0603 -0.1595  0.2835
 1644SOL     OW 6648   3.616   0.887   2.721 -0.1169 -0.4087  0.3711
 1644SOL    HW2 6649   3.614   0.895   2.816  2.1572  0.3566  0.3857
 1644SOL    HW3 6650   3.599   0.975   2.689  0.0579 -0.4811  0.0762
 1644SOL    MW4 6651   3.613   0.899   2.729  0.2060 -0.3173  0.3340
 1645SOL     OW 6652   3.564   1.134   2.619 -0.2249 -0.2441  0.2669
 1645SOL    HW2 6653   3.635   1.190   2.648  0.5982  0.3543 -2.6849
 1645SOL    HW3 6654   3.484   1.182   2.642  0.4128  0.8137  0.2790
 1645SOL    MW4 6655   3.563   1.147   2.626 -0.0324 -0.0257 -0.1211
 1646SOL     OW 6656   3.798   1.264   2.733  0.4675 -0.1383  0.4486
 1646SOL    HW2 6657   3.871   1.218   2.692  1.0691  1.1167  0.1073
 1646SOL    HW3 6658   3.804   1.354   2.700 -0.6273  0.2237  1.2047
 1646SOL    MW4 6659   3.808   1.270   2.723  0.4025  0.0750  0.5033
 1647SOL     OW 6660   3.853   1.535   2.605 -0.0857  0.1964  0.2220
 1647SOL    HW2 6661   3.930   1.572   2.649 -0.3145  0.7590  0.1592
 1647SOL    HW3 6662   3.782   1.594   2.630 -0.6678 -0.8274  0.9923
 1647SOL    MW4 6663   3.854   1.548   2.614 -0.1929  0.1355  0.3154
 1648SOL     OW 6664   3.607   1.646   2.652  0.0961 -0.4012 -0.2194
 1648SOL    HW2 6665   3.586   1.740   2.653 -0.2269 -0.4696 -0.3323
 1648SOL    HW3 6666   3.521   1.603   2.647  0.1704 -0.7360  1.0980
 1648SOL    MW4 6667   3.593   1.653   2.651  0.0634 -0.4544 -0.0606
 1649SOL     OW 6668   3.576   1.919   2.614 -0.3148 -0.6759  0.3996
 1649SOL    HW2 6669   3.504   1.973   2.646  0.9782  1.7191 -0.5897
 1649SOL    HW3 6670   3.573   1.929   2.519  2.1385  0.5856  0.4097
 1649SOL    MW4 6671   3.566   1.928   2.606  0.1795 -0.1934  0.2704
 1650SOL     OW 6672   3.804   2.059   2.711  0.1220  0.0648 -0.0431
 1650SOL    HW2 6673   3.870   2.001   2.673  0.6675  2.1058 -2.3138
 1650SOL    HW3 6674   3.721   2.018   2.690  0.5233 -0.2541 -1.0226
 1650SOL    MW4 6675   3.802   2.046   2.704  0.2470  0.2923 -0.4718
 1651SOL     OW 6676   3.829   2.315   2.607  0.2517  0.0578  0.6685
 1651SOL    HW2 6677   3.835   2.228   2.645  1.3159 -0.2835 -0.2399
 1651SOL    HW3 6678   3.837   2.301   2.513  2.5225  1.3112  0.6366
 1651SOL    MW4 6679   3.831   2.302   2.600  0.6917  0.1779  0.5445
 1652SOL     OW 6680   3.591   2.447   2.678  0.1233  0.0755 -0.5425
 1652SOL    HW2 6681   3.584   2.447   2.773 -1.6371 -0.2047 -0.6445
 1652SOL    HW3 6682   3.667   2.392   2.659 -0.4503 -1.1477  0.6552
 1652SOL    MW4 6683   3.600   2.440   2.688 -0.1848 -0.1230 -0.3977
 1653SOL     OW 6684   3.622   2.711   2.625  0.2298 -0.2658  0.3862
 1653SOL    HW2 6685   3.620   2.616   2.642  0.3482 -0.0718  1.5263
 1653SOL    HW3 6686   3.621   2.718   2.530 -0.5509 -1.4015  0.3022
 1653SOL    MW4 6687   3.622   2.699   2.615  0.1423 -0.3903  0.5257
 1654SOL     OW 6688   3.856   2.832   2.704 -0.3217 -0.0160  0.4493
 1654SOL    HW2 6689   3.912   2.767   2.662 -0.2203  0.5359 -0.2808
 1654SOL    HW3 6690   3.767   2.797   2.692 -0.2249 -0.3194  0.5971
 1654SOL    MW4 6691   3.852   2.819   2.697 -0.2954  0.0169  0.3726
 1655SOL     OW 6692   3.796   3.088   2.596  0.3557  0.0029  0.3953
 1655SOL    HW2 6693   3.718   3.125   2.638 -0.4100 -0.0596 -0.9379
 1655SOL    HW3 6694   3.800   2.998   2.628 -0.5315 -0.2080 -0.0943
 1655SOL    MW4 6695   3.786   3.081   2.606  0.1378 -0.0329  0.1550
 1656SOL     OW 6696   3.553   3.216   2.685 -0.1403  0.5084 -0.4214
 1656SOL    HW2 6697   3.472   3.169   2.668  0.8250 -1.0352 -0.8049
 1656SOL    HW3 6698   3.558   3.220   2.781 -1.0285  1.2695 -0.3959
 1656SOL    MW4 6699   3.543   3.210   2.696 -0.1302  0.4051 -0.4685
 1657SOL     OW 6700   3.639   3.464   2.625 -0.5159 -0.0055  0.0323
 1657SOL    HW2 6701   3.624   3.375   2.654  0.6163 -0.8228 -1.7584
 1657SOL    HW3 6702   3.561   3.513   2.652 -2.3345 -2.1207 -1.2555
 1657SOL    MW4 6703   3.627   3.459   2.632 -0.6063 -0.3922 -0.3738
 1658SOL     OW 6704   3.818   3.614   2.750 -0.0008 -0.0642  0.5944
 1658SOL    HW2 6705   3.750   3.572   2.697 -1.4061  0.0831  2.2290
 1658SOL    HW3 6706   3.899   3.573   2.721 -0.7379 -0.0542 -1.5952
 1658SOL    MW4 6707   3.820   3.603   2.739 -0.2835 -0.0434  0.5214
 1659SOL     OW 6708   3.796   3.880   2.635  0.4925  0.0713  0.4566
 1659SOL    HW2 6709   3.873   3.924   2.671  0.5917  0.0979  0.2129
 1659SOL    HW3 6710   3.798   3.792   2.673  0.3877  0.2189  0.8112
 1659SOL    MW4 6711   3.806   3.874   2.645  0.4919  0.0942  0.4711
 1660SOL     OW 6712   3.563   4.006   2.744  0.2668  0.4798 -0.3481
 1660SOL    HW2 6713   3.552   4.097   2.717 -2.0470  0.3829  0.2187
 1660SOL    HW3 6714   3.649   3.982   2.709  0.5975  2.6474 -1.1326
 1660SOL    MW4 6715   3.573   4.015   2.736  0.0052  0.7529 -0.3767
 1661SOL     OW 6716   3.534   4.244   2.618  0.2493 -0.5250 -0.6266
 1661SOL    HW2 6717   3.464   4.301   2.649  1.4756 -0.3350  1.9383
 1661SOL    HW3 6718   3.528   4.248   2.522 -2.2229  0.6929 -0.4584
 1661SOL    MW4 6719   3.524   4.252   2.609  0.0851 -0.3395 -0.2661
 1662SOL     OW 6720   3.801   4.337   2.666 -0.2126  0.2858  0.1487
 1662SOL    HW2 6721   3.800   4.350   2.760 -0.2280  0.8931  0.0647
 1662SOL    HW3 6722   3.731   4.274   2.649  0.4105 -0.5473  0.6482
 1662SOL    MW4 6723   3.792   4.330   2.676 -0.1326  0.2561  0.2036
 1663SOL     OW 6724   4.213   4.641   2.637 -0.2367 -0.4202  0.3877
 1663SOL    HW2 6725   4.130   4.681   2.666 -0.7205 -1.1694  0.0432
 1663SOL    HW3 6726   4.281   4.693   2.681 -0.8634  0.6721  0.1036
 1663SOL    MW4 6727   4.211   4.653   2.646 -0.3829 -0.3753  0.3047
 1664SOL     OW 6728   3.991   0.078   2.765  0.3753 -0.1965 -0.0114
 1664SOL    HW2 6729   4.003   0.080   2.860  2.5283 -1.3171 -0.2435
 1664SOL    HW3 6730   3.913   0.024   2.752  1.6408 -2.2950  0.9945
 1664SOL    MW4 6731   3.982   0.071   2.776  0.8261 -0.6213  0.0908
 1665SOL     OW 6732   4.037   0.345   2.679 -0.9085 -0.1804  0.5621
 1665SOL    HW2 6733   4.021   0.253   2.701  0.7991 -0.9441 -1.1771
 1665SOL    HW3 6734   4.023   0.350   2.584  0.0685  1.0979  0.4612
 1665SOL    MW4 6735   4.033   0.333   2.669 -0.5541 -0.1125  0.3195
 1666SOL     OW 6736   4.268   0.496   2.760 -0.6713 -0.3619  0.7950
 1666SOL    HW2 6737   4.188   0.454   2.729 -0.0429  0.0477 -1.4703
 1666SOL    HW3 6738   4.338   0.446   2.718  0.1345  1.8263 -0.5196
 1666SOL    MW4 6739   4.267   0.484   2.750 -0.4821 -0.0192  0.3228
 1667SOL     OW 6740   4.269   0.750   2.663  0.1141  0.0303 -0.0557
 1667SOL    HW2 6741   4.266   0.660   2.695 -1.4046  0.1666  0.2082
 1667SOL    HW3 6742   4.267   0.742   2.568  0.8685 -0.2382 -0.0526
 1667SOL    MW4 6743   4.268   0.737   2.655  0.0134  0.0128 -0.0203
 1668SOL     OW 6744   4.070   0.911   2.751  0.1386 -0.0645  0.1542
 1668SOL    HW2 6745   4.139   0.848   2.725 -0.3497 -0.8512  0.7314
 1668SOL    HW3 6746   3.990   0.875   2.713 -0.0188  0.6390 -0.1762
 1668SOL    MW4 6747   4.069   0.898   2.743  0.0539 -0.0756  0.1867
 1669SOL     OW 6748   4.046   1.151   2.626  0.1644  0.1078  0.4083
 1669SOL    HW2 6749   4.112   1.213   2.658  0.8484 -0.8131  0.8086
 1669SOL    HW3 6750   4.068   1.069   2.669 -0.4742 -0.5196 -0.4503
 1669SOL    MW4 6751   4.058   1.149   2.635  0.1702 -0.0966  0.3479
 1670SOL     OW 6752   4.244   1.302   2.723  0.0268 -0.3588  0.4863
 1670SOL    HW2 6753   4.264   1.385   2.679  1.0144  0.8815  3.1927
 1670SOL    HW3 6754   4.320   1.247   2.706  1.2189  0.7475  2.1088
 1670SOL    MW4 6755   4.256   1.306   2.715  0.3138 -0.0492  1.0574
 1671SOL     OW 6756   4.283   1.533   2.593  0.5287  0.1748 -0.0224
 1671SOL    HW2 6757   4.359   1.574   2.634  1.6453 -1.0622 -0.8157
 1671SOL    HW3 6758   4.285   1.561   2.502  0.7055 -0.7814 -0.3230
 1671SOL    MW4 6759   4.293   1.542   2.587  0.6990 -0.1146 -0.1667
 1672SOL     OW 6760   4.068   1.646   2.725 -0.6550  0.0609 -0.0175
 1672SOL    HW2 6761   4.088   1.641   2.819  0.4899  0.3778 -0.2448
 1672SOL    HW3 6762   4.150   1.623   2.681 -1.2780 -0.4350 -0.9523
 1672SOL    MW4 6763   4.081   1.642   2.732 -0.5856  0.0373 -0.1705
 1673SOL     OW 6764   4.019   1.908   2.651 -0.5778  0.1756 -0.4206
 1673SOL    HW2 6765   4.087   1.960   2.694 -0.0534 -0.5455 -0.3626
 1673SOL    HW3 6766   4.042   1.817   2.672 -0.8436 -0.1333 -1.4529
 1673SOL    MW4 6767   4.031   1.903   2.659 -0.5431  0.0397 -0.5493
 1674SOL     OW 6768   4.260   2.019   2.726 -0.1782 -0.0307 -0.1093
 1674SOL    HW2 6769   4.261   2.102   2.678  1.4355  0.1900  0.2873
 1674SOL    HW3 6770   4.333   1.969   2.690  0.1128 -0.4649  1.0709
 1674SOL    MW4 6771   4.270   2.023   2.715  0.0730 -0.0591  0.0987
 1675SOL     OW 6772   4.284   2.277   2.639 -0.5695 -0.2346  0.2835
 1675SOL    HW2 6773   4.207   2.324   2.672 -0.0801  0.8491 -0.1069
 1675SOL    HW3 6774   4.285   2.295   2.545  0.3617  0.0530  0.3434
 1675SOL    MW4 6775   4.274   2.285   2.631 -0.3824 -0.0536  0.2398
 1676SOL     OW 6776   4.062   2.427   2.701  0.1903  0.1640 -0.0597
 1676SOL    HW2 6777   4.050   2.445   2.795 -0.7150  0.5915 -0.2527
 1676SOL    HW3 6778   3.976   2.398   2.671 -0.1310  2.2480 -1.2481
 1676SOL    MW4 6779   4.049   2.425   2.710  0.0286  0.4954 -0.2415
 1677SOL     OW 6780   4.045   2.672   2.588 -0.3259 -0.1078  0.5867
 1677SOL    HW2 6781   4.123   2.710   2.626 -0.1059 -0.3643  0.3914
 1677SOL    HW3 6782   4.045   2.581   2.618 -0.3709 -0.1983  0.3129
 1677SOL    MW4 6783   4.055   2.665   2.597 -0.3033 -0.1535  0.5248
 1678SOL     OW 6784   4.253   2.799   2.741 -0.1330 -0.1333 -0.0249
 1678SOL    HW2 6785   4.263   2.803   2.836 -1.4405  0.3797  0.1083
 1678SOL    HW3 6786   4.238   2.890   2.715 -0.6696 -0.3835 -0.6099
 1678SOL    MW4 6787   4.253   2.811   2.750 -0.3757 -0.0987 -0.0844
 1679SOL     OW 6788   4.257   3.046   2.622  0.1937 -0.1987 -0.1335
 1679SOL    HW2 6789   4.191   3.106   2.656  0.1984 -0.6680  0.7500
 1679SOL    HW3 6790   4.248   3.050   2.527 -0.5856  0.3201 -0.0388
 1679SOL    MW4 6791   4.247   3.054   2.614  0.0916 -0.1922 -0.0045
 1680SOL     OW 6792   4.024   3.193   2.712 -0.3536  0.2642 -0.3086
 1680SOL    HW2 6793   4.027   3.288   2.702  0.4268  0.0903 -1.9173
 1680SOL    HW3 6794   3.952   3.165   2.655  0.2005 -0.2171 -0.7722
 1680SOL    MW4 6795   4.015   3.202   2.703 -0.1774  0.1776 -0.5822
 1681SOL     OW 6796   4.039   3.462   2.641 -0.1291 -0.1361 -0.0064
 1681SOL    HW2 6797   4.106   3.530   2.652 -1.3748  1.3783 -1.4848
 1681SOL    HW3 6798   4.041   3.442   2.547 -0.7255 -1.1702  0.1948
 1681SOL    MW4 6799   4.048   3.468   2.630 -0.3724 -0.0730 -0.1750
 1682SOL     OW 6800   4.254   3.612   2.715  0.4191 -0.2472  0.0825
 1682SOL    HW2 6801   4.238   3.597   2.808  2.6192  0.8082  0.6496
 1682SOL    HW3 6802   4.319   3.546   2.691  0.2651 -0.1557 -0.5911
 1682SOL    MW4 6803   4.260   3.601   2.724  0.6890 -0.0958  0.0684
 1683SOL     OW 6804   4.285   3.893   2.640  0.6256 -0.4074  0.0542
 1683SOL    HW2 6805   4.296   3.803   2.671  0.2470  0.1095  1.7423
 1683SOL    HW3 6806   4.360   3.940   2.677  0.0741  0.2546  0.3415
 1683SOL    MW4 6807   4.296   3.887   2.649  0.5031 -0.2518  0.3150
 1684SOL     OW 6808   4.030   3.990   2.709  0.0328  0.1176  0.2344
 1684SOL    HW2 6809   4.043   4.015   2.800  1.3327  2.1915 -0.4729
 1684SOL    HW3 6810   4.114   3.952   2.682  0.1394  0.8297 -0.4747
 1684SOL    MW4 6811   4.043   3.989   2.717  0.2189  0.4849  0.0477
 1685SOL     OW 6812   4.045   4.235   2.579  0.2099 -0.4463 -0.3051
 1685SOL    HW2 6813   4.036   4.152   2.626  2.3249  0.3320  1.5900
 1685SOL    HW3 6814   3.960   4.278   2.590  0.1818 -0.9243  1.6299
 1685SOL    MW4 6815   4.032   4.230   2.587  0.4845 -0.4067  0.2003
 1686SOL     OW 6816   4.251   4.373   2.713  0.0638 -0.0518 -0.1386
 1686SOL    HW2 6817   4.183   4.323   2.668 -0.5422 -1.0545  1.7954
 1686SOL    HW3 6818   4.238   4.463   2.684 -1.7305 -0.3287 -0.2650
 1686SOL    MW4 6819   4.240   4.378   2.703 -0.2527 -0.2213  0.0999
 1687SOL     OW 6820   0.173   4.608   3.153 -0.4221  0.0057 -0.4700
 1687SOL    HW2 6821   0.164   4.627   3.247 -0.1966 -0.7772 -0.2906
 1687SOL    HW3 6822   0.104   4.660   3.112 -1.5718 -0.9142  0.2792
 1687SOL    MW4 6823   0.163   4.618   3.160 -0.5440 -0.2184 -0.3474
 1688SOL     OW 6824   4.479   0.073   3.009 -0.1159  0.0173 -0.1436
 1688SOL    HW2 6825   4.394   0.033   3.030 -0.3319  0.1051 -0.8464
 1688SOL    HW3 6826   4.471   0.163   3.042 -0.3022  0.0293 -0.2204
 1688SOL    MW4 6827   4.467   0.080   3.016 -0.1688  0.0304 -0.2463
 1689SOL     OW 6828   4.438   0.324   3.108  0.2153 -0.1421  0.6420
 1689SOL    HW2 6829   4.439   0.330   3.204  0.7014  0.7753  0.5815
 1689SOL    HW3 6830   4.351   0.355   3.084  0.1976 -0.0946  0.7644
 1689SOL    MW4 6831   4.426   0.329   3.118  0.2770 -0.0148  0.6504
 1690SOL     OW 6832   0.167   0.503   3.053  0.0459  0.0718  0.0505
 1690SOL    HW2 6833   0.237   0.441   3.074 -0.3120 -0.6863 -0.9295
 1690SOL    HW3 6834   0.088   0.463   3.091  0.3220  1.5410  2.2601
 1690SOL    MW4 6835   0.166   0.489   3.061  0.0351  0.1657  0.2127
 1691SOL     OW 6836   0.217   0.780   3.120  0.1160  0.1233  0.0723
 1691SOL    HW2 6837   0.193   0.776   3.212  1.1588  0.4665  0.3603
 1691SOL    HW3 6838   0.201   0.692   3.087 -1.2302  0.2542  0.3241
 1691SOL    MW4 6839   0.212   0.768   3.127  0.0760  0.1858  0.1435
 1692SOL     OW 6840   4.486   0.899   3.013  0.2063  0.2346 -0.0044
 1692SOL    HW2 6841   4.555   0.844   3.052  0.4984  0.7606  0.2208
 1692SOL    HW3 6842   4.497   0.888   2.919  0.6731  0.4074  0.0299
 1692SOL    MW4 6843   4.497   0.890   3.006  0.3066  0.3268  0.0298
 1693SOL     OW 6844   0.031   1.148   3.127 -0.6958 -0.3906  0.1815
 1693SOL    HW2 6845  -0.037   1.199   3.083 -0.6677 -0.4321  0.0898
 1693SOL    HW3 6846   0.018   1.059   3.095 -0.6444 -0.4117  0.2201
 1693SOL    MW4 6847   0.020   1.143   3.117 -0.6853 -0.3989  0.1743
 1694SOL     OW 6848   0.254   1.261   3.038 -0.2303  0.0806 -0.7158
 1694SOL    HW2 6849   0.176   1.223   3.078 -0.0609 -0.4133 -0.8490
 1694SOL    HW3 6850   0.250   1.234   2.946  0.5246 -0.6467 -0.5431
 1694SOL    MW4 6851   0.243   1.252   3.031 -0.1083 -0.0806 -0.7107
 1695SOL     OW 6852   0.294   1.542   3.085  0.1138 -0.1505 -0.0066
 1695SOL    HW2 6853   0.209   1.583   3.067 -1.1217 -1.7941  1.9936
 1695SOL    HW3 6854   0.283   1.451   3.059  1.4901 -0.2544 -0.2857
 1695SOL    MW4 6855   0.282   1.535   3.079  0.1324 -0.3811  0.2205
 1696SOL     OW 6856   0.031   1.641   3.014 -0.0190 -0.1325 -0.2615
 1696SOL    HW2 6857  -0.045   1.591   3.045 -0.5586  0.6129 -0.3736
 1696SOL    HW3 6858   0.020   1.728   3.054  2.1906 -0.7888  1.9224
 1696SOL    MW4 6859   0.020   1.646   3.024  0.2013 -0.1206  0.0119
 1697SOL     OW 6860   4.456   1.899   3.096  0.2780  0.2441  0.2552
 1697SOL    HW2 6861   4.378   1.942   3.062  0.2255  0.5017  0.7031
 1697SOL    HW3 6862   4.529   1.951   3.061  0.2841 -0.5114 -0.8830
 1697SOL    MW4 6863   4.456   1.911   3.087  0.2718  0.1783  0.1643
 1698SOL     OW 6864   0.217   2.033   3.006 -0.0295 -0.0417 -0.2982
 1698SOL    HW2 6865   0.212   2.123   3.038  1.4241  0.1503 -0.5653
 1698SOL    HW3 6866   0.226   2.042   2.911 -0.0454 -0.4702 -0.3434
 1698SOL    MW4 6867   0.217   2.046   2.997  0.1602 -0.0730 -0.3395
 1699SOL     OW 6868   0.219   2.297   3.131  0.0403  0.2547  0.1262
 1699SOL    HW2 6869   0.238   2.288   3.225  0.2670 -1.0230 -0.0297
 1699SOL    HW3 6870   0.289   2.355   3.099 -0.7727  1.7429  0.9660
 1699SOL    MW4 6871   0.231   2.304   3.139 -0.0370  0.2828  0.2165
 1700SOL     OW 6872   0.029   2.454   3.000  0.7024 -0.0639  0.3717
 1700SOL    HW2 6873   0.048   2.539   3.040  0.0572  0.2085  0.1074
 1700SOL    HW3 6874   0.085   2.393   3.047  1.0444  0.4834  0.6842
 1700SOL    MW4 6875   0.039   2.458   3.012  0.6624  0.0441  0.3781
 1701SOL     OW 6876   0.010   2.704   3.095 -0.0511 -0.2614  0.1556
 1701SOL    HW2 6877   0.024   2.707   3.190 -0.0281  0.9158  0.1312
 1701SOL    HW3 6878   0.080   2.759   3.059 -0.3770 -0.2734 -0.5046
 1701SOL    MW4 6879   0.021   2.712   3.103 -0.0910 -0.1075  0.0651
 1702SOL     OW 6880   0.216   2.843   2.983  0.0725 -0.0873  0.3247
 1702SOL    HW2 6881   0.292   2.789   3.006  0.6406  0.8722  0.7415
 1702SOL    HW3 6882   0.217   2.848   2.888 -0.0405 -0.8865  0.2781
 1702SOL    MW4 6883   0.226   2.837   2.974  0.1325 -0.0660  0.3736
 1703SOL     OW 6884   0.259   3.080   3.096 -0.0371 -0.1136  0.0293
 1703SOL    HW2 6885   0.171   3.108   3.073  0.9011  1.7320 -1.3366
 1703SOL    HW3 6886   0.267   2.992   3.058 -1.1426 -0.1513 -0.1256
 1703SOL    MW4 6887   0.248   3.072   3.088 -0.0592  0.1249 -0.1712
 1704SOL     OW 6888   0.015   3.181   2.993 -0.2171 -0.4828  0.1358
 1704SOL    HW2 6889  -0.070   3.141   3.014 -0.1545 -0.9248 -0.4355
 1704SOL    HW3 6890   0.020   3.176   2.898  0.6325 -0.8223  0.1997
 1704SOL    MW4 6891   0.004   3.175   2.983 -0.0968 -0.5860  0.0689
 1705SOL     OW 6892   4.468   3.458   3.075 -0.4386  0.4943 -0.3445
 1705SOL    HW2 6893   4.390   3.500   3.038 -0.8807  0.0686  0.0963
 1705SOL    HW3 6894   4.468   3.370   3.036 -1.7907 -0.5187  1.8545
 1705SOL    MW4 6895   4.458   3.452   3.065 -0.6752  0.3045  0.0038
 1706SOL     OW 6896   0.228   3.576   3.021 -0.1007  0.0152  0.7465
 1706SOL    HW2 6897   0.214   3.661   3.063  0.0842  1.1558 -1.4158
 1706SOL    HW3 6898   0.147   3.527   3.038 -1.0191  1.3596  0.3751
 1706SOL    MW4 6899   0.215   3.581   3.028 -0.1975  0.3431  0.4125
 1707SOL     OW 6900   0.247   3.827   3.130 -0.1078  0.0044  0.2107
 1707SOL    HW2 6901   0.218   3.846   3.220 -1.1971 -1.6635  0.2293
 1707SOL    HW3 6902   0.326   3.879   3.119 -0.4094  0.8486  1.8711
 1707SOL    MW4 6903   0.254   3.836   3.141 -0.2913 -0.1042  0.4323
 1708SOL     OW 6904   0.032   3.956   3.000 -0.3229 -0.2343 -0.4273
 1708SOL    HW2 6905   0.116   3.921   3.031 -0.2701  0.3389  0.1000
 1708SOL    HW3 6906   0.041   3.963   2.905  0.4746  0.4602 -0.3041
 1708SOL    MW4 6907   0.044   3.952   2.992 -0.2103 -0.0668 -0.3417
 1709SOL     OW 6908   4.486   4.217   3.072  0.5463  0.2097  0.6414
 1709SOL    HW2 6909   4.485   4.221   3.168 -2.4323 -0.5048  0.6954
 1709SOL    HW3 6910   4.498   4.125   3.052  0.5317  0.2729  0.3375
 1709SOL    MW4 6911   4.487   4.206   3.082  0.1516  0.1235  0.6084
 1710SOL     OW 6912   0.205   4.364   3.016  0.8296  0.0747  0.3543
 1710SOL    HW2 6913   0.137   4.305   3.049  0.2705 -0.0906 -1.0451
 1710SOL    HW3 6914   0.193   4.445   3.066 -0.6557  0.1661 -0.1287
 1710SOL    MW4 6915   0.194   4.367   3.027  0.5598  0.0648  0.1063
 1711SOL     OW 6916   0.711   0.014   3.080  0.4907 -0.2500  0.2507
 1711SOL    HW2 6917   0.692  -0.079   3.082 -0.4677 -0.0728 -0.6600
 1711SOL    HW3 6918   0.634   0.054   3.040  0.8020  0.9567  0.8228
 1711SOL    MW4 6919   0.698   0.007   3.075  0.4053 -0.0674  0.2062
 1712SOL     OW 6920   0.421   0.073   3.041  0.2021 -0.1609  0.2125
 1712SOL    HW2 6921   0.407   0.164   3.067  1.4680  0.2675 -0.5669
 1712SOL    HW3 6922   0.349   0.025   3.082 -0.6445  1.2286  0.3782
 1712SOL    MW4 6923   0.410   0.078   3.050  0.2575  0.0789  0.1316
 1713SOL     OW 6924   0.400   0.333   3.081 -0.2423  0.2184 -0.1219
 1713SOL    HW2 6925   0.398   0.350   3.175 -0.4475  0.4792 -0.1737
 1713SOL    HW3 6926   0.471   0.388   3.048  0.7544 -0.9237  0.0887
 1713SOL    MW4 6927   0.409   0.343   3.089 -0.1380  0.1021 -0.1009
 1714SOL     OW 6928   0.627   0.478   2.998 -0.2788 -0.1153  0.1624
 1714SOL    HW2 6929   0.689   0.444   3.063 -1.9366 -0.2204  1.7422
 1714SOL    HW3 6930   0.636   0.573   3.004  0.3227 -0.1462 -0.2170
 1714SOL    MW4 6931   0.636   0.486   3.007 -0.4182 -0.1333  0.3207
 1715SOL     OW 6932   0.684   0.733   3.051  0.3474  0.1694  0.6306
 1715SOL    HW2 6933   0.682   0.726   3.147 -1.2677 -0.1681  0.5884
 1715SOL    HW3 6934   0.602   0.777   3.029  0.4159 -0.3276 -0.6404
 1715SOL    MW4 6935   0.673   0.738   3.061  0.1434  0.0592  0.4575
 1716SOL     OW 6936   0.457   0.887   3.020 -0.0316 -0.5871 -0.4187
 1716SOL    HW2 6937   0.371   0.860   3.050  0.1872 -0.9593 -0.1182
 1716SOL    HW3 6938   0.451   0.885   2.925 -1.2687  2.3228 -0.4371
 1716SOL    MW4 6939   0.445   0.883   3.012 -0.1659 -0.2523 -0.3815
 1717SOL     OW 6940   0.498   1.154   3.099  0.3339  0.2799 -0.0716
 1717SOL    HW2 6941   0.477   1.066   3.068  0.0782  0.6048 -0.8236
 1717SOL    HW3 6942   0.421   1.206   3.077  1.0511  1.0014 -0.8966
 1717SOL    MW4 6943   0.485   1.149   3.092  0.3948  0.4181 -0.2794
 1718SOL     OW 6944   0.722   1.276   2.983  0.0731 -0.2632  0.6735
 1718SOL    HW2 6945   0.799   1.225   3.008 -0.3885 -1.1134  0.3626
 1718SOL    HW3 6946   0.648   1.228   3.018 -0.5428 -1.1654 -1.7681
 1718SOL    MW4 6947   0.723   1.263   2.991 -0.0691 -0.4944  0.3102
 1719SOL     OW 6948   0.715   1.521   3.133  0.0560  0.8014 -0.5312
 1719SOL    HW2 6949   0.702   1.490   3.223 -1.0474  1.0109 -0.6051
 1719SOL    HW3 6950   0.706   1.442   3.080  0.4093  0.7277 -0.4832
 1719SOL    MW4 6951   0.712   1.506   3.138 -0.0430  0.8194 -0.5345
 1720SOL     OW 6952   0.511   1.708   3.002  0.5786  0.0532 -0.1882
 1720SOL    HW2 6953   0.584   1.656   3.035  0.2698 -0.0654  0.3137
 1720SOL    HW3 6954   0.433   1.657   3.024  0.2987  0.5171 -0.0826
 1720SOL    MW4 6955   0.510   1.694   3.009  0.5010  0.0988 -0.1078
 1721SOL     OW 6956   0.469   1.962   3.095 -0.3528 -0.0274 -0.6638
 1721SOL    HW2 6957   0.489   1.883   3.045 -0.8986 -0.9381  0.5277
 1721SOL    HW3 6958   0.382   1.987   3.064 -0.2008  0.0763 -1.0085
 1721SOL    MW4 6959   0.460   1.955   3.085 -0.4048 -0.1339 -0.5522
 1722SOL     OW 6960   0.695   2.093   2.965 -0.4964 -0.1986  0.1294
 1722SOL    HW2 6961   0.752   2.041   3.022 -0.9871 -0.5209  0.3260
 1722SOL    HW3 6962   0.607   2.080   3.000 -0.6415  0.6474  0.0828
 1722SOL    MW4 6963   0.691   2.084   2.977 -0.5803 -0.1295  0.1495
 1723SOL     OW 6964   0.675   2.347   3.122  0.1120 -0.4904  0.1881
 1723SOL    HW2 6965   0.682   2.329   3.216  1.6273 -0.1001  0.1509
 1723SOL    HW3 6966   0.691   2.263   3.079 -2.5015 -1.1026  0.3115
 1723SOL    MW4 6967   0.678   2.334   3.129 -0.0329 -0.5198  0.1996
 1724SOL     OW 6968   0.437   2.424   3.017  0.3778 -0.4804 -0.3668
 1724SOL    HW2 6969   0.518   2.418   3.068  0.1412 -0.0953  0.0535
 1724SOL    HW3 6970   0.466   2.415   2.926  0.8266 -0.9314 -0.1829
 1724SOL    MW4 6971   0.452   2.422   3.012  0.4058 -0.4892 -0.2871
 1725SOL     OW 6972   0.443   2.706   3.071  0.2153 -0.1169  0.2828
 1725SOL    HW2 6973   0.533   2.722   3.042 -0.4263  0.2515 -1.5720
 1725SOL    HW3 6974   0.428   2.613   3.055  0.1190 -0.0801  0.1566
 1725SOL    MW4 6975   0.453   2.696   3.065  0.1180 -0.0632  0.0215
 1726SOL     OW 6976   0.695   2.823   3.025 -0.0309  0.0483 -0.2370
 1726SOL    HW2 6977   0.775   2.792   3.067 -0.2217  0.9606  0.8321
 1726SOL    HW3 6978   0.686   2.914   3.055 -0.9389  0.2606 -1.1289
 1726SOL    MW4 6979   0.704   2.831   3.034 -0.1759  0.1967 -0.2136
 1727SOL     OW 6980   0.651   3.108   3.101 -0.6125  0.9861  0.4252
 1727SOL    HW2 6981   0.645   3.128   3.194 -2.7582 -1.1578  0.7759
 1727SOL    HW3 6982   0.578   3.156   3.062  0.3219  1.9338 -0.2127
 1727SOL    MW4 6983   0.641   3.117   3.108 -0.7724  0.8280  0.3872
 1728SOL     OW 6984   0.447   3.259   2.993  0.3628  0.0796  0.1128
 1728SOL    HW2 6985   0.458   3.333   3.052  0.3647 -0.5773  0.9570
 1728SOL    HW3 6986   0.376   3.208   3.031  0.1717 -0.2034 -0.6121
 1728SOL    MW4 6987   0.439   3.262   3.006  0.3378 -0.0441  0.1285
 1729SOL     OW 6988   0.477   3.518   3.135 -0.1554 -0.2630 -0.7849
 1729SOL    HW2 6989   0.477   3.511   3.231 -0.5982 -0.8996 -0.8295
 1729SOL    HW3 6990   0.385   3.524   3.111 -0.0596 -0.4132 -1.1979
 1729SOL    MW4 6991   0.465   3.518   3.145 -0.2012 -0.3669 -0.8452
 1730SOL     OW 6992   0.666   3.671   2.967 -0.1102  0.1597 -0.1881
 1730SOL    HW2 6993   0.745   3.642   3.012 -0.7538  1.1779  1.6481
 1730SOL    HW3 6994   0.595   3.621   3.008 -0.7077  1.1091 -0.0317
 1730SOL    MW4 6995   0.667   3.660   2.978 -0.2740  0.4194  0.0749
 1731SOL     OW 6996   0.687   3.892   3.135 -0.0367  0.3240  0.1304
 1731SOL    HW2 6997   0.693   3.861   3.226 -0.4754 -0.2359 -0.0300
 1731SOL    HW3 6998   0.674   3.813   3.083  1.1176  0.5494 -0.5265
 1731SOL    MW4 6999   0.686   3.877   3.140  0.0578  0.2799  0.0222
 1732SOL     OW 7000   0.453   4.013   3.068  0.1408 -0.0167  0.5321
 1732SOL    HW2 7001   0.537   3.970   3.081  0.2262 -0.3587 -1.0393
 1732SOL    HW3 7002   0.436   4.006   2.974 -1.4146  0.4714  0.7509
 1732SOL    MW4 7003   0.462   4.007   3.057 -0.0531  0.0024  0.3538
 1733SOL     OW 7004   0.437   4.267   3.153  0.4231  0.0229 -0.1048
 1733SOL    HW2 7005   0.444   4.177   3.123 -2.4296 -0.3296  0.2113
 1733SOL    HW3 7006   0.372   4.307   3.096  0.7951  1.5490  0.5099
 1733SOL    MW4 7007   0.429   4.261   3.142  0.0958  0.1774  0.0179
 1734SOL     OW 7008   0.668   4.401   3.059  0.2225 -0.4991 -0.6361
 1734SOL    HW2 7009   0.597   4.349   3.097 -1.1144  2.3376  0.8748
 1734SOL    HW3 7010   0.659   4.388   2.964 -2.6182  0.1968 -0.4986
 1734SOL    MW4 7011   0.657   4.392   3.051 -0.3287 -0.0329 -0.4187
 1735SOL     OW 7012   1.131   0.006   3.142  0.2244 -0.2437  0.4365
 1735SOL    HW2 7013   1.212   0.038   3.103  0.4270  0.3432  1.3271
 1735SOL    HW3 7014   1.062   0.053   3.095  0.4220 -0.2103  0.1766
 1735SOL    MW4 7015   1.132   0.017   3.131  0.2773 -0.1626  0.5195
 1736SOL     OW 7016   0.934   0.147   3.000 -0.0248 -0.4775  0.2136
 1736SOL    HW2 7017   0.938   0.227   3.052 -0.3810  0.3108 -0.9571
 1736SOL    HW3 7018   0.858   0.100   3.035  0.3698 -0.4562  1.1118
 1736SOL    MW4 7019   0.925   0.151   3.012 -0.0198 -0.3707  0.1776
 1737SOL     OW 7020   0.855   0.380   3.135  0.6883 -0.3303 -0.1261
 1737SOL    HW2 7021   0.875   0.400   3.227  0.0457 -1.6319  0.3175
 1737SOL    HW3 7022   0.925   0.422   3.085  1.1426  0.2407  0.9808
 1737SOL    MW4 7023   0.867   0.388   3.141  0.6635 -0.4267  0.0784
 1738SOL     OW 7024   1.102   0.475   3.029  0.0931 -0.5442 -0.2505
 1738SOL    HW2 7025   1.179   0.429   3.061  0.1317 -0.9155 -0.8814
 1738SOL    HW3 7026   1.106   0.467   2.934 -0.5571 -0.3079 -0.3029
 1738SOL    MW4 7027   1.113   0.468   3.021  0.0123 -0.5620 -0.3405
 1739SOL     OW 7028   1.120   0.768   3.081 -0.2667  0.5643  0.1876
 1739SOL    HW2 7029   1.135   0.773   3.175 -0.0931 -2.4184  0.3660
 1739SOL    HW3 7030   1.106   0.675   3.064  2.6664  0.6180 -3.1471
 1739SOL    MW4 7031   1.120   0.756   3.091  0.1432  0.1778 -0.2286
 1740SOL     OW 7032   0.898   0.911   3.018 -0.5369 -0.3080 -0.1758
 1740SOL    HW2 7033   0.973   0.868   3.059  0.1271  0.8704 -0.1225
 1740SOL    HW3 7034   0.824   0.856   3.041  0.1963 -1.0629  0.4380
 1740SOL    MW4 7035   0.898   0.898   3.026 -0.3526 -0.2522 -0.0880
 1741SOL     OW 7036   0.952   1.158   3.117 -0.3309  0.4113 -0.0385
 1741SOL    HW2 7037   1.026   1.192   3.068 -0.8707 -0.0560 -1.2051
 1741SOL    HW3 7038   0.943   1.067   3.088 -1.2298  0.3994  0.2317
 1741SOL    MW4 7039   0.960   1.150   3.107 -0.5207  0.3481 -0.1569
 1742SOL     OW 7040   1.166   1.286   3.000  0.2424 -0.0567 -0.2169
 1742SOL    HW2 7041   1.241   1.241   3.037 -2.1075 -3.0154  1.1991
 1742SOL    HW3 7042   1.170   1.268   2.906  1.0942 -0.4657 -0.1065
 1742SOL    MW4 7043   1.176   1.278   2.993  0.0447 -0.5009 -0.0153
 1743SOL     OW 7044   1.172   1.558   3.140 -0.1101  0.4041  0.1732
 1743SOL    HW2 7045   1.244   1.611   3.105 -0.6766  0.8955 -0.2448
 1743SOL    HW3 7046   1.196   1.468   3.118  1.1664  0.4071  1.4298
 1743SOL    MW4 7047   1.185   1.553   3.132 -0.0165  0.4693  0.2840
 1744SOL     OW 7048   0.923   1.673   3.047  0.0411 -0.1562 -0.0246
 1744SOL    HW2 7049   1.007   1.633   3.068  0.0209 -0.4710 -0.5361
 1744SOL    HW3 7050   0.858   1.614   3.085  0.0712  0.6185  1.2659
 1744SOL    MW4 7051   0.926   1.660   3.055  0.0424 -0.0956  0.0782
 1745SOL     OW 7052   0.909   1.964   3.106 -0.2255 -0.2335  0.1992
 1745SOL    HW2 7053   0.882   1.966   3.197 -1.1119 -0.7576 -0.0479
 1745SOL    HW3 7054   0.915   1.871   3.085  0.0833 -0.1144 -0.2450
 1745SOL    MW4 7055   0.906   1.952   3.115 -0.3018 -0.2871  0.1082
 1746SOL     OW 7056   1.143   2.060   2.995 -0.2891  0.3021 -0.0184
 1746SOL    HW2 7057   1.055   2.031   3.016 -0.6794  2.5636  1.6453
 1746SOL    HW3 7058   1.143   2.072   2.900 -1.8342  0.4951  0.0058
 1746SOL    MW4 7059   1.132   2.058   2.985 -0.5444  0.6258  0.2043
 1747SOL     OW 7060   1.166   2.299   3.125 -0.9448 -0.6134 -0.4386
 1747SOL    HW2 7061   1.082   2.341   3.106 -0.9595 -0.5013 -0.1346
 1747SOL    HW3 7062   1.159   2.213   3.085 -0.6302 -0.0606 -1.7140
 1747SOL    MW4 7063   1.154   2.293   3.117 -0.9052 -0.5257 -0.5665
 1748SOL     OW 7064   0.935   2.428   3.046  0.2853 -0.3718  0.3264
 1748SOL    HW2 7065   0.846   2.413   3.077 -0.5395  1.0472 -1.2207
 1748SOL    HW3 7066   0.927   2.426   2.950  2.0531 -0.9760  0.1821
 1748SOL    MW4 7067   0.922   2.426   3.037  0.4097 -0.2642  0.1032
 1749SOL     OW 7068   0.927   2.697   3.136 -0.4982  0.1346 -0.2363
 1749SOL    HW2 7069   0.908   2.694   3.230 -0.9871 -0.8421 -0.3680
 1749SOL    HW3 7070   0.944   2.606   3.112  1.0598  0.5588 -0.7971
 1749SOL    MW4 7071   0.927   2.684   3.146 -0.3572  0.0615 -0.3276
 1750SOL     OW 7072   1.141   2.826   3.009 -0.2549 -0.0930  0.1703
 1750SOL    HW2 7073   1.122   2.912   3.047 -1.3245  0.4424 -1.5311
 1750SOL    HW3 7074   1.072   2.769   3.044  0.1842 -0.1527  0.9375
 1750SOL    MW4 7075   1.129   2.830   3.019 -0.3381 -0.0305  0.0470
 1751SOL     OW 7076   1.121   3.099   3.094  0.2396 -0.1775  0.0208
 1751SOL    HW2 7077   1.195   3.152   3.064 -0.9408  1.5870  0.1229
 1751SOL    HW3 7078   1.044   3.144   3.059 -0.9454 -0.3191  2.3504
 1751SOL    MW4 7079   1.121   3.112   3.085 -0.0724  0.0365  0.3417
 1752SOL     OW 7080   0.883   3.238   3.025 -0.6503 -0.7708 -0.6250
 1752SOL    HW2 7081   0.797   3.199   3.039 -0.3827 -1.6548 -1.3887
 1752SOL    HW3 7082   0.888   3.250   2.930  0.5487 -1.8291 -0.7039
 1752SOL    MW4 7083   0.872   3.235   3.014 -0.4568 -1.0271 -0.7362
 1753SOL     OW 7084   0.860   3.543   3.127  0.3550 -0.0509  0.7317
 1753SOL    HW2 7085   0.943   3.577   3.094  0.4418 -0.5218  0.4612
 1753SOL    HW3 7086   0.863   3.449   3.108 -1.1622  0.2651 -1.2336
 1753SOL    MW4 7087   0.871   3.535   3.120  0.1662 -0.0713  0.4365
 1754SOL     OW 7088   1.080   3.641   3.002  0.3258  0.1997  0.2289
 1754SOL    HW2 7089   1.156   3.592   3.031 -0.4930 -1.2068  0.0601
 1754SOL    HW3 7090   1.085   3.724   3.049  0.7020 -0.7955  1.9985
 1754SOL    MW4 7091   1.091   3.646   3.012  0.2674 -0.1171  0.4401
 1755SOL     OW 7092   1.107   3.877   3.143 -0.2080  0.0263  0.0708
 1755SOL    HW2 7093   1.121   3.895   3.236 -1.2406  1.0056  0.0507
 1755SOL    HW3 7094   1.030   3.929   3.120 -2.2725 -3.1111 -0.4243
 1755SOL    MW4 7095   1.099   3.886   3.152 -0.6166 -0.2582  0.0029
 1756SOL     OW 7096   0.896   4.032   3.024 -0.3078 -0.0123  0.0645
 1756SOL    HW2 7097   0.823   3.987   3.066  0.4177 -1.9800 -0.7139
 1756SOL    HW3 7098   0.883   4.016   2.930  0.8542  0.0267 -0.1052
 1756SOL    MW4 7099   0.885   4.024   3.017 -0.0588 -0.2666 -0.0608
 1757SOL     OW 7100   0.912   4.275   3.127 -0.0572  0.0539 -0.3125
 1757SOL    HW2 7101   0.911   4.191   3.082  0.3664  0.1367 -0.4717
 1757SOL    HW3 7102   0.822   4.307   3.119 -0.0879 -0.1333 -0.7226
 1757SOL    MW4 7103   0.900   4.268   3.120 -0.0054  0.0401 -0.3877
 1758SOL     OW 7104   1.140   4.433   3.012 -0.0159  0.3127  0.5913
 1758SOL    HW2 7105   1.058   4.391   3.038 -1.1489  1.1594 -1.4268
 1758SOL    HW3 7106   1.130   4.524   3.041  1.1558 -0.0989  2.3045
 1758SOL    MW4 7107   1.128   4.440   3.019 -0.0108  0.3700  0.5510
 1759SOL     OW 7108   1.602   4.615   3.086 -0.0974 -0.6026  0.6454
 1759SOL    HW2 7109   1.602   4.620   3.181  0.0700  1.1241  0.5726
 1759SOL    HW3 7110   1.513   4.639   3.061  0.2604  0.4296  0.3194
 1759SOL    MW4 7111   1.590   4.619   3.095 -0.0280 -0.2384  0.5929
 1760SOL     OW 7112   1.361   0.093   3.020 -0.2439  0.1370 -0.3340
 1760SOL    HW2 7113   1.368   0.181   3.056  0.2233  0.4694 -1.2373
 1760SOL    HW3 7114   1.348   0.106   2.926 -1.1870 -0.7312 -0.3357
 1760SOL    MW4 7115   1.360   0.106   3.012 -0.3066  0.0663 -0.4535
 1761SOL     OW 7116   1.342   0.379   3.119  1.1623  0.3039  0.3268
 1761SOL    HW2 7117   1.337   0.373   3.214  0.4959 -1.5322  0.1820
 1761SOL    HW3 7118   1.406   0.449   3.103  0.3034  1.5391  2.0997
 1761SOL    MW4 7119   1.350   0.388   3.129  0.9612  0.2246  0.5417
 1762SOL     OW 7120   1.578   0.528   3.054  0.1309  0.0655 -0.6967
 1762SOL    HW2 7121   1.565   0.620   3.076  0.1207  0.1185 -0.9168
 1762SOL    HW3 7122   1.579   0.527   2.958 -2.1236 -0.4731 -0.7241
 1762SOL    MW4 7123   1.577   0.540   3.044 -0.1678  0.0014 -0.7293
 1763SOL     OW 7124   1.584   0.797   3.104  0.1994  0.7506  0.2130
 1763SOL    HW2 7125   1.578   0.796   3.199 -0.8835 -1.7987  0.1662
 1763SOL    HW3 7126   1.501   0.834   3.075 -0.6293 -1.0150  0.2459
 1763SOL    MW4 7127   1.572   0.802   3.112 -0.0529  0.1813  0.2112
 1764SOL     OW 7128   1.345   0.902   2.988  0.1314 -0.6401 -0.0703
 1764SOL    HW2 7129   1.353   0.989   3.027 -2.0859  0.8749 -2.7510
 1764SOL    HW3 7130   1.258   0.872   3.015  0.4247 -1.5319 -0.1005
 1764SOL    MW4 7131   1.334   0.909   2.997 -0.1225 -0.5579 -0.4282
 1765SOL     OW 7132   1.383   1.151   3.105  0.0993 -0.1805  0.1063
 1765SOL    HW2 7133   1.389   1.154   3.201  1.5818 -1.3367  0.0720
 1765SOL    HW3 7134   1.457   1.203   3.075  0.8675 -1.5424 -0.3982
 1765SOL    MW4 7135   1.393   1.158   3.114  0.3963 -0.5127  0.0350
 1766SOL     OW 7136   1.598   1.302   3.029  0.3544  0.0241 -0.0703
 1766SOL    HW2 7137   1.686   1.267   3.045  0.5774  0.0769 -1.1646
 1766SOL    HW3 7138   1.599   1.388   3.070  1.3356  0.6761 -1.4205
 1766SOL    MW4 7139   1.610   1.309   3.036  0.5133  0.1169 -0.3929
 1767SOL     OW 7140   1.598   1.552   3.120  0.5692 -0.2936  0.4881
 1767SOL    HW2 7141   1.667   1.586   3.063  0.8830 -0.8885  0.5137
 1767SOL    HW3 7142   1.520   1.602   3.096  0.3248 -1.5789 -1.5313
 1767SOL    MW4 7143   1.597   1.563   3.110  0.5783 -0.5414  0.2251
 1768SOL     OW 7144   1.383   1.705   3.022  0.1272  0.7436  0.3878
 1768SOL    HW2 7145   1.377   1.796   3.052 -0.2430  0.8025  0.1352
 1768SOL    HW3 7146   1.345   1.706   2.934 -0.3245  0.2440  0.5772
 1768SOL    MW4 7147   1.377   1.717   3.014  0.0187  0.6853  0.3798
 1769SOL     OW 7148   1.372   1.972   3.111  0.2798 -0.5712 -0.6039
 1769SOL    HW2 7149   1.338   1.958   3.199  1.5810  0.8987  0.1529
 1769SOL    HW3 7150   1.296   2.003   3.061 -0.2949 -0.7105  0.1683
 1769SOL    MW4 7151   1.357   1.974   3.116  0.3757 -0.3957 -0.4020
 1770SOL     OW 7152   1.596   2.105   3.034 -0.2060 -0.2564  0.4641
 1770SOL    HW2 7153   1.520   2.055   3.062  0.1796 -0.5976  0.9265
 1770SOL    HW3 7154   1.594   2.101   2.939 -0.5475 -0.5973  0.4823
 1770SOL    MW4 7155   1.586   2.098   3.025 -0.2003 -0.3464  0.5276
 1771SOL     OW 7156   1.570   2.353   3.147  0.7097  0.6597  0.0614
 1771SOL    HW2 7157   1.504   2.404   3.100 -0.2424 -1.3163 -0.8380
 1771SOL    HW3 7158   1.567   2.267   3.105  0.4380 -0.9134  3.1744
 1771SOL    MW4 7159   1.561   2.348   3.135  0.5482  0.1917  0.3536
 1772SOL     OW 7160   1.373   2.467   3.031  0.4897 -0.0378 -0.1099
 1772SOL    HW2 7161   1.304   2.407   3.060  0.9336 -0.4876  0.0048
 1772SOL    HW3 7162   1.365   2.467   2.935  0.8615 -0.7149 -0.1400
 1772SOL    MW4 7163   1.363   2.459   3.022  0.5972 -0.1867 -0.0987
 1773SOL     OW 7164   1.375   2.734   3.127 -0.2551  0.1312 -0.2072
 1773SOL    HW2 7165   1.370   2.640   3.106 -0.0574 -0.2784  1.5179
 1773SOL    HW3 7166   1.297   2.771   3.086  0.0317 -0.6578 -1.5126
 1773SOL    MW4 7167   1.364   2.726   3.119 -0.1912 -0.0269 -0.1516
 1774SOL     OW 7168   1.583   2.857   2.980  0.2162 -0.1004  0.1222
 1774SOL    HW2 7169   1.662   2.826   3.024  0.1738  0.1781  0.4005
 1774SOL    HW3 7170   1.513   2.802   3.014  0.2687 -0.2462 -0.0086
 1774SOL    MW4 7171   1.584   2.846   2.991  0.2176 -0.0827  0.1419
 1775SOL     OW 7172   1.551   3.111   3.105  0.0290  0.5685  0.1558
 1775SOL    HW2 7173   1.558   3.095   3.199  0.8434  0.7163  0.1276
 1775SOL    HW3 7174   1.570   3.026   3.065 -0.7822  0.3970  0.1383
 1775SOL    MW4 7175   1.554   3.097   3.112  0.0296  0.5655  0.1500
 1776SOL     OW 7176   1.329   3.244   2.991  0.1134  0.1573  0.1815
 1776SOL    HW2 7177   1.398   3.210   3.047  1.3214  0.2478 -1.2308
 1776SOL    HW3 7178   1.362   3.233   2.902 -1.5039  0.5978 -0.4985
 1776SOL    MW4 7179   1.342   3.238   2.986  0.0594  0.2272 -0.0947
 1777SOL     OW 7180   1.319   3.519   3.080  0.2776  0.1748  0.0070
 1777SOL    HW2 7181   1.334   3.515   3.175  0.2708  0.6075  0.0245
 1777SOL    HW3 7182   1.328   3.428   3.051  1.0730  0.1587  0.2978
 1777SOL    MW4 7183   1.322   3.506   3.089  0.3816  0.2298  0.0477
 1778SOL     OW 7184   1.548   3.617   2.986 -0.5381 -0.4932 -0.5351
 1778SOL    HW2 7185   1.465   3.572   3.003 -2.0190  1.8587 -1.3597
 1778SOL    HW3 7186   1.561   3.610   2.892 -1.2480  1.5586 -0.8073
 1778SOL    MW4 7187   1.539   3.610   2.976 -0.8272  0.0877 -0.6797
 1779SOL     OW 7188   1.520   3.865   3.122 -0.3347  0.3509  0.1646
 1779SOL    HW2 7189   1.609   3.889   3.096 -0.6062  1.0163 -0.1640
 1779SOL    HW3 7190   1.505   3.780   3.081  0.2987  0.0463  0.5559
 1779SOL    MW4 7191   1.530   3.857   3.113 -0.2869  0.3986  0.1726
 1780SOL     OW 7192   1.325   4.009   2.994 -0.1927  0.1478  0.2783
 1780SOL    HW2 7193   1.407   3.979   3.033 -0.7491 -1.4289  0.2901
 1780SOL    HW3 7194   1.257   3.958   3.039 -0.9796 -0.3763 -1.4447
 1780SOL    MW4 7195   1.327   3.998   3.005 -0.3698 -0.1292  0.0525
 1781SOL     OW 7196   1.320   4.250   3.129 -0.2908  0.3132 -0.0981
 1781SOL    HW2 7197   1.315   4.176   3.067 -0.7315 -0.0419  0.3528
 1781SOL    HW3 7198   1.255   4.312   3.097 -0.6209  0.0662  0.0820
 1781SOL    MW4 7199   1.311   4.248   3.116 -0.3924  0.2337 -0.0145
 1782SOL     OW 7200   1.572   4.356   3.029  0.2609  0.0115  0.5079
 1782SOL    HW2 7201   1.487   4.340   3.069 -0.7024  1.9682 -0.6860
 1782SOL    HW3 7202   1.593   4.447   3.050  1.8888 -0.3282  0.4764
 1782SOL    MW4 7203   1.564   4.366   3.037  0.3484  0.2246  0.3464
 1783SOL     OW 7204   2.025   4.655   3.119  0.2687  0.1633 -0.2625
 1783SOL    HW2 7205   2.030   4.642   3.213  0.8159  0.4055 -0.2541
 1783SOL    HW3 7206   1.943   4.702   3.105 -1.6294 -2.9587 -0.2640
 1783SOL    MW4 7207   2.015   4.659   3.129  0.0906 -0.2170 -0.2615
 1784SOL     OW 7208   1.799   0.136   3.018  0.8747  0.5570 -0.4711
 1784SOL    HW2 7209   1.720   0.083   3.032  0.9496  0.8297  1.0133
 1784SOL    HW3 7210   1.806   0.144   2.923 -0.6508  0.1677 -0.6229
 1784SOL    MW4 7211   1.789   0.130   3.007  0.6832  0.5416 -0.2952
 1785SOL     OW 7212   1.797   0.369   3.160  0.2792 -0.2239  0.1006
 1785SOL    HW2 7213   1.796   0.284   3.116 -0.7449 -0.4089  0.4701
 1785SOL    HW3 7214   1.714   0.410   3.134  1.2872  1.1550 -1.0135
 1785SOL    MW4 7215   1.786   0.363   3.151  0.2770 -0.0664  0.0024
 1786SOL     OW 7216   1.994   0.525   3.022 -0.2518  0.0626 -0.1171
 1786SOL    HW2 7217   1.919   0.492   3.070  0.7475 -0.5972  1.0076
 1786SOL    HW3 7218   1.988   0.482   2.936  0.4144 -2.2553  0.9403
 1786SOL    MW4 7219   1.983   0.515   3.017 -0.0322 -0.3303  0.1707
 1787SOL     OW 7220   1.988   0.746   3.187 -0.0101  0.1288  0.1503
 1787SOL    HW2 7221   1.918   0.794   3.143  1.4616  1.4159 -0.8317
 1787SOL    HW3 7222   2.000   0.667   3.135 -1.2979 -0.5295  0.8198
 1787SOL    MW4 7223   1.981   0.742   3.175  0.0142  0.2118  0.1090
 1788SOL     OW 7224   1.821   0.909   3.050  0.4044  0.0375 -0.5673
 1788SOL    HW2 7225   1.734   0.872   3.063  1.1532 -1.3534  0.6426
 1788SOL    HW3 7226   1.833   0.909   2.955 -0.8420  0.0810 -0.7352
 1788SOL    MW4 7227   1.811   0.904   3.039  0.3389 -0.1403 -0.4299
 1789SOL     OW 7228   1.820   1.171   3.098 -0.4426 -0.2958  0.0429
 1789SOL    HW2 7229   1.811   1.165   3.193  0.3731 -0.6750  0.0990
 1789SOL    HW3 7230   1.820   1.081   3.068 -1.5586 -0.1512 -0.4089
 1789SOL    MW4 7231   1.819   1.158   3.107 -0.4822 -0.3268 -0.0093
 1790SOL     OW 7232   2.063   1.298   3.030  0.2543  0.3510 -0.2103
 1790SOL    HW2 7233   2.136   1.252   3.071 -0.0978  0.3460  0.4072
 1790SOL    HW3 7234   1.985   1.249   3.057  0.0030  0.4891 -0.6805
 1790SOL    MW4 7235   2.062   1.286   3.039  0.1748  0.3687 -0.1910
 1791SOL     OW 7236   1.999   1.556   3.107  0.4178 -0.1583 -0.0396
 1791SOL    HW2 7237   2.030   1.562   3.197 -0.6285 -0.8430  0.3744
 1791SOL    HW3 7238   2.007   1.464   3.084  1.1116  0.0829 -0.8161
 1791SOL    MW4 7239   2.004   1.545   3.116  0.3712 -0.2168 -0.0870
 1792SOL     OW 7240   1.789   1.681   2.979 -0.1854  0.0621  0.0156
 1792SOL    HW2 7241   1.778   1.768   3.017 -0.1895  0.1800 -0.2516
 1792SOL    HW3 7242   1.861   1.642   3.028 -0.2131  0.2003  0.1651
 1792SOL    MW4 7243   1.797   1.687   2.990 -0.1895  0.0958 -0.0002
 1793SOL     OW 7244   1.806   1.933   3.106 -0.5412 -0.5874 -0.5803
 1793SOL    HW2 7245   1.886   1.971   3.070  0.2508 -0.6763  1.0289
 1793SOL    HW3 7246   1.736   1.991   3.076  0.1643 -0.3322 -1.7407
 1793SOL    MW4 7247   1.807   1.946   3.097 -0.3437 -0.5654 -0.5212
 1794SOL     OW 7248   2.021   2.078   2.997  0.2453  0.3641  0.0521
 1794SOL    HW2 7249   2.112   2.054   3.017  0.7610  2.0285 -0.2362
 1794SOL    HW3 7250   2.014   2.169   3.024 -0.9708  0.6334 -1.1349
 1794SOL    MW4 7251   2.032   2.087   3.003  0.1528  0.6192 -0.1426
 1795SOL     OW 7252   1.984   2.350   3.090  0.1717  0.3696 -0.3669
 1795SOL    HW2 7253   2.065   2.393   3.065  0.2464 -0.1266 -0.9781
 1795SOL    HW3 7254   1.915   2.411   3.061  0.3360  1.2547  1.0345
 1795SOL    MW4 7255   1.985   2.364   3.083  0.2030  0.4208 -0.2625
 1796SOL     OW 7256   1.801   2.537   3.003 -0.5512  0.3577 -0.0869
 1796SOL    HW2 7257   1.828   2.623   3.036 -1.1443  0.5437 -0.0817
 1796SOL    HW3 7258   1.733   2.508   3.063  0.6550 -0.7753  0.7612
 1796SOL    MW4 7259   1.796   2.545   3.015 -0.4703  0.2327  0.0257
 1797SOL     OW 7260   1.811   2.802   3.103 -0.1491 -0.1411 -0.1822
 1797SOL    HW2 7261   1.824   2.788   3.197 -0.8234 -0.2337 -0.0958
 1797SOL    HW3 7262   1.887   2.851   3.074  0.3324 -0.5936  0.3080
 1797SOL    MW4 7263   1.823   2.806   3.111 -0.1744 -0.2129 -0.1061
 1798SOL     OW 7264   2.035   2.903   2.968 -0.0176  0.1635 -0.3039
 1798SOL    HW2 7265   2.035   2.987   3.014 -0.8442 -0.5131  0.9813
 1798SOL    HW3 7266   2.103   2.852   3.013  0.6236  0.2082 -1.2101
 1798SOL    MW4 7267   2.044   2.907   2.980 -0.0424  0.0799 -0.2539
 1799SOL     OW 7268   2.015   3.134   3.116 -0.2367  0.6977 -0.1673
 1799SOL    HW2 7269   2.017   3.120   3.210 -0.1827 -0.0104 -0.2644
 1799SOL    HW3 7270   1.934   3.182   3.100  0.1081  1.4514  0.3134
 1799SOL    MW4 7271   2.005   3.138   3.126 -0.1841  0.7036 -0.1168
 1800SOL     OW 7272   1.782   3.242   3.027  0.6601 -0.5083  0.0639
 1800SOL    HW2 7273   1.705   3.187   3.042 -0.6831  1.2858 -0.1588
 1800SOL    HW3 7274   1.781   3.258   2.932  0.0230  1.3337  0.3630
 1800SOL    MW4 7275   1.772   3.237   3.016  0.3989 -0.0284  0.0741
 1801SOL     OW 7276   1.775   3.509   3.108  0.1117  0.2434  0.6159
 1801SOL    HW2 7277   1.769   3.418   3.081  0.1715  0.2803  0.4808
 1801SOL    HW3 7278   1.699   3.551   3.066  0.0535  0.2454  0.7219
 1801SOL    MW4 7279   1.764   3.503   3.099  0.1119  0.2484  0.6120
 1802SOL     OW 7280   2.028   3.590   2.993 -0.6692 -0.1587 -0.5188
 1802SOL    HW2 7281   2.034   3.682   3.020  0.7772 -0.4417  0.1608
 1802SOL    HW3 7282   1.946   3.559   3.031 -0.4722  0.4790  0.4495
 1802SOL    MW4 7283   2.018   3.598   3.002 -0.4520 -0.1121 -0.3011
 1803SOL     OW 7284   2.034   3.867   3.053  0.5624 -0.2940  0.4024
 1803SOL    HW2 7285   2.046   3.864   3.148 -0.7690  2.7930  0.7298
 1803SOL    HW3 7286   1.942   3.891   3.041  0.5150 -1.4402 -1.6959
 1803SOL    MW4 7287   2.024   3.870   3.064  0.3805 -0.0379  0.1688
 1804SOL     OW 7288   1.775   3.949   3.045 -0.0874  0.1766  0.4498
 1804SOL    HW2 7289   1.772   4.041   3.073 -0.1701  0.5023 -0.6142
 1804SOL    HW3 7290   1.761   3.952   2.951 -0.4549 -0.9674  0.4621
 1804SOL    MW4 7291   1.773   3.962   3.036 -0.1467  0.0687  0.3111
 1805SOL     OW 7292   1.780   4.210   3.138 -0.3555 -0.6876  0.1660
 1805SOL    HW2 7293   1.859   4.256   3.108  0.2350 -1.2279  0.8635
 1805SOL    HW3 7294   1.708   4.257   3.096  0.3923 -0.9475 -1.4795
 1805SOL    MW4 7295   1.781   4.222   3.128 -0.1789 -0.7935  0.0410
 1806SOL     OW 7296   2.011   4.386   3.046 -0.4021 -0.1762  0.5495
 1806SOL    HW2 7297   1.996   4.479   3.065 -0.0574 -0.0057  0.0202
 1806SOL    HW3 7298   2.014   4.382   2.950  4.0496  0.0388  0.5519
 1806SOL    MW4 7299   2.010   4.398   3.036  0.2306 -0.1254  0.4802
 1807SOL     OW 7300   2.514   0.007   3.150 -0.0182 -0.2562 -0.0062
 1807SOL    HW2 7301   2.511  -0.083   3.117 -1.1995  0.0016 -0.6541
 1807SOL    HW3 7302   2.439   0.049   3.108  0.5637  1.0430  0.2599
 1807SOL    MW4 7303   2.504   0.000   3.140 -0.0970 -0.0510 -0.0565
 1808SOL     OW 7304   2.277   0.117   3.024  0.2414  0.6374 -0.2435
 1808SOL    HW2 7305   2.262   0.205   3.058 -1.4246  0.3027 -0.0804
 1808SOL    HW3 7306   2.203   0.065   3.056  1.8729 -1.1453  0.7532
 1808SOL    MW4 7307   2.265   0.121   3.033  0.2367  0.3580 -0.0906
 1809SOL     OW 7308   2.232   0.390   3.108  0.1586 -0.1504 -0.2179
 1809SOL    HW2 7309   2.245   0.396   3.202  0.4439 -0.1731 -0.2569
 1809SOL    HW3 7310   2.154   0.444   3.091  0.3186  0.1404 -0.0209
 1809SOL    MW4 7311   2.223   0.398   3.118  0.2172 -0.1151 -0.1972
 1810SOL     OW 7312   2.472   0.517   3.050  0.4929  0.4457 -0.2024
 1810SOL    HW2 7313   2.388   0.479   3.075  1.1576 -0.1571  1.2283
 1810SOL    HW3 7314   2.483   0.494   2.958 -0.1218 -0.9483  0.0557
 1810SOL    MW4 7315   2.462   0.509   3.041  0.4997  0.1822  0.0205
 1811SOL     OW 7316   2.433   0.784   3.142  0.2499  0.3048  0.6681
 1811SOL    HW2 7317   2.507   0.839   3.116 -1.2714  1.7344 -0.7565
 1811SOL    HW3 7318   2.459   0.696   3.115  0.9349  0.9770 -0.9499
 1811SOL    MW4 7319   2.446   0.780   3.135  0.1395  0.5821  0.2668
 1812SOL     OW 7320   2.175   0.911   3.048  0.2017 -0.3273 -0.0661
 1812SOL    HW2 7321   2.250   0.859   3.075  1.2439  0.7910 -0.7803
 1812SOL    HW3 7322   2.106   0.886   3.109  1.1116 -1.4240  0.5454
 1812SOL    MW4 7323   2.176   0.901   3.059  0.4594 -0.3244 -0.0796
 1813SOL     OW 7324   2.257   1.154   3.140  0.5010 -0.1503 -0.6252
 1813SOL    HW2 7325   2.229   1.150   3.231  1.7129 -1.2774 -0.2806
 1813SOL    HW3 7326   2.238   1.067   3.105  1.3232 -0.1697 -1.0487
 1813SOL    MW4 7327   2.251   1.142   3.147  0.7691 -0.3015 -0.6356
 1814SOL     OW 7328   2.471   1.321   3.031  0.2410  0.4749 -0.1104
 1814SOL    HW2 7329   2.404   1.268   3.074 -0.0756  0.8062 -0.1860
 1814SOL    HW3 7330   2.464   1.300   2.938 -0.5945  1.4232 -0.2670
 1814SOL    MW4 7331   2.461   1.312   3.025  0.0892  0.6438 -0.1411
 1815SOL     OW 7332   2.428   1.590   3.065  0.1800 -0.1945  0.1416
 1815SOL    HW2 7333   2.355   1.628   3.017  0.4918  1.0793  0.6755
 1815SOL    HW3 7334   2.430   1.498   3.036 -1.9909 -0.4037  0.5948
 1815SOL    MW4 7335   2.419   1.583   3.055 -0.0651 -0.0541  0.2716
 1816SOL     OW 7336   2.191   1.729   2.987 -0.3744  0.0119  0.1970
 1816SOL    HW2 7337   2.116   1.673   3.005  0.4655 -1.1521  0.2088
 1816SOL    HW3 7338   2.217   1.706   2.898  0.1019  0.2403  0.2754
 1816SOL    MW4 7339   2.185   1.718   2.978 -0.2007 -0.1116  0.2086
 1817SOL     OW 7340   2.267   1.974   3.088 -0.2382  0.1021 -0.2311
 1817SOL    HW2 7341   2.350   1.998   3.047 -0.0749 -1.1653 -0.6684
 1817SOL    HW3 7342   2.247   1.887   3.052 -2.5346  1.0316 -1.3382
 1817SOL    MW4 7343   2.275   1.965   3.078 -0.5195  0.0576 -0.4349
 1818SOL     OW 7344   2.489   2.089   2.962  0.0500  0.0978  0.4521
 1818SOL    HW2 7345   2.572   2.044   2.979 -0.1610 -0.5644 -0.2042
 1818SOL    HW3 7346   2.473   2.074   2.869  0.4354  2.3368 -0.0067
 1818SOL    MW4 7347   2.498   2.081   2.952  0.0730  0.3057  0.3049
 1819SOL     OW 7348   2.437   2.331   3.082  0.1192 -0.5063  0.2086
 1819SOL    HW2 7349   2.440   2.320   3.178  1.4593 -0.9626  0.1259
 1819SOL    HW3 7350   2.468   2.247   3.048 -2.3783 -1.1085 -0.6804
 1819SOL    MW4 7351   2.442   2.318   3.090 -0.0336 -0.6461  0.0803
 1820SOL     OW 7352   2.225   2.453   2.979  0.3487  0.0516 -0.2417
 1820SOL    HW2 7353   2.221   2.538   3.024 -0.6580  0.5016 -1.1334
 1820SOL    HW3 7354   2.304   2.411   3.013  0.2109  0.8461  1.0984
 1820SOL    MW4 7355   2.235   2.459   2.990  0.1976  0.2160 -0.1829
 1821SOL     OW 7356   2.202   2.698   3.086 -0.7481  0.4907  0.0781
 1821SOL    HW2 7357   2.284   2.739   3.058 -0.0983 -0.1908  0.9671
 1821SOL    HW3 7358   2.201   2.707   3.181 -2.4100  1.7820 -0.0451
 1821SOL    MW4 7359   2.213   2.705   3.095 -0.8814  0.5710  0.1791
 1822SOL     OW 7360   2.402   2.858   2.988 -0.3050 -0.1754 -0.0607
 1822SOL    HW2 7361   2.415   2.939   3.038  0.5517 -0.3253 -0.0330
 1822SOL    HW3 7362   2.412   2.884   2.897  1.2746 -0.4744  0.0053
 1822SOL    MW4 7363   2.405   2.872   2.983  0.0167 -0.2346 -0.0484
 1823SOL     OW 7364   2.460   3.122   3.080  0.5622 -0.1193 -0.0668
 1823SOL    HW2 7365   2.535   3.163   3.038  0.7800 -0.6177 -0.1640
 1823SOL    HW3 7366   2.385   3.174   3.051  0.8194  0.1074 -0.3225
 1823SOL    MW4 7367   2.460   3.134   3.070  0.6249 -0.1552 -0.1135
 1824SOL     OW 7368   2.242   3.275   3.000 -0.1518 -0.6120 -0.0121
 1824SOL    HW2 7369   2.248   3.362   3.040 -1.1247 -0.6594  0.2694
 1824SOL    HW3 7370   2.167   3.234   3.044 -1.2850 -0.6483 -1.9212
 1824SOL    MW4 7371   2.233   3.281   3.011 -0.4296 -0.6232 -0.2267
 1825SOL     OW 7372   2.271   3.530   3.114  0.1124 -0.6173 -0.0348
 1825SOL    HW2 7373   2.342   3.578   3.070 -0.6129  0.7458  0.2674
 1825SOL    HW3 7374   2.192   3.557   3.067 -0.3123 -1.4946  0.1728
 1825SOL    MW4 7375   2.270   3.540   3.102 -0.0393 -0.5534  0.0324
 1826SOL     OW 7376   2.494   3.639   2.989  0.3767  0.6513 -0.5042
 1826SOL    HW2 7377   2.568   3.594   3.030 -0.9121 -0.5188  0.5864
 1826SOL    HW3 7378   2.504   3.730   3.015  0.4113  0.1797  1.1830
 1826SOL    MW4 7379   2.505   3.645   2.998  0.2115  0.4346 -0.1376
 1827SOL     OW 7380   2.476   3.891   3.069  0.5920 -0.4219  0.3861
 1827SOL    HW2 7381   2.484   3.883   3.164  0.0906 -1.3876  0.3563
 1827SOL    HW3 7382   2.550   3.946   3.043  0.0989  0.7542  1.4490
 1827SOL    MW4 7383   2.487   3.897   3.078  0.4611 -0.3939  0.5221
 1828SOL     OW 7384   2.248   4.033   2.978 -0.5564  0.1226  0.1743
 1828SOL    HW2 7385   2.324   3.981   3.006 -0.3426  0.2089 -0.2385
 1828SOL    HW3 7386   2.172   3.982   3.007 -0.3420 -0.0487  0.4380
 1828SOL    MW4 7387   2.248   4.019   2.985 -0.5000  0.1116  0.1545
 1829SOL     OW 7388   2.264   4.269   3.122  0.5932 -0.0896  0.4226
 1829SOL    HW2 7389   2.262   4.186   3.074  1.8700  0.0127  0.1780
 1829SOL    HW3 7390   2.187   4.316   3.091 -0.9434 -1.7397  1.5933
 1829SOL    MW4 7391   2.253   4.264   3.111  0.5589 -0.2928  0.5450
 1830SOL     OW 7392   2.473   4.421   3.013  0.1149  0.3562 -0.0631
 1830SOL    HW2 7393   2.401   4.371   3.052  0.4513  0.1801  0.3345
 1830SOL    HW3 7394   2.470   4.399   2.920  0.4372 -0.6225  0.1524
 1830SOL    MW4 7395   2.463   4.412   3.006  0.2019  0.2036  0.0176
 1831SOL     OW 7396   2.957   0.002   3.112 -0.0792 -0.4608  0.0601
 1831SOL    HW2 7397   2.979  -0.019   3.202  0.1695 -0.3004  0.0372
 1831SOL    HW3 7398   2.935  -0.082   3.072 -0.2608 -0.5214  0.2893
 1831SOL    MW4 7399   2.957  -0.012   3.118 -0.0703 -0.4478  0.0870
 1832SOL     OW 7400   2.727   0.118   3.014  0.5705 -0.0223  0.2527
 1832SOL    HW2 7401   2.807   0.083   3.051 -0.1292 -3.6222 -1.3713
 1832SOL    HW3 7402   2.657   0.080   3.067 -0.1695  0.5935 -0.2626
 1832SOL    MW4 7403   2.728   0.108   3.026  0.3808 -0.4160 -0.0298
 1833SOL     OW 7404   2.717   0.389   3.104  0.6469  0.4029 -0.0186
 1833SOL    HW2 7405   2.706   0.299   3.074 -0.8977  0.5498  0.1058
 1833SOL    HW3 7406   2.637   0.434   3.079  0.9609  1.4933  0.8554
 1833SOL    MW4 7407   2.705   0.383   3.097  0.4847  0.5662  0.1130
 1834SOL     OW 7408   2.938   0.540   3.005 -0.4687 -0.1964 -0.5287
 1834SOL    HW2 7409   2.862   0.489   3.033 -1.2096  1.1224 -0.1217
 1834SOL    HW3 7410   2.935   0.537   2.909 -1.1541  0.0269 -0.5176
 1834SOL    MW4 7411   2.928   0.533   2.996 -0.6568  0.0071 -0.4735
 1835SOL     OW 7412   2.877   0.791   3.114 -0.2917  0.0912 -0.3304
 1835SOL    HW2 7413   2.899   0.777   3.207  0.3160  1.8742 -0.1953
 1835SOL    HW3 7414   2.895   0.706   3.073 -1.3460 -0.9660  1.3148
 1835SOL    MW4 7415   2.883   0.778   3.121 -0.3505  0.1870 -0.0956
 1836SOL     OW 7416   2.655   0.925   3.043 -0.0490  0.4169  0.5803
 1836SOL    HW2 7417   2.680   1.016   3.061  0.2760  0.5193 -0.3305
 1836SOL    HW3 7418   2.727   0.873   3.078 -1.2035  0.3814  2.9532
 1836SOL    MW4 7419   2.668   0.930   3.050 -0.1585  0.4258  0.7732
 1837SOL     OW 7420   2.701   1.170   3.135 -0.7548 -0.0615 -0.7082
 1837SOL    HW2 7421   2.784   1.210   3.110 -0.5238  0.5051  0.9360
 1837SOL    HW3 7422   2.634   1.223   3.090 -0.2687 -0.1883 -1.5926
 1837SOL    MW4 7423   2.703   1.182   3.125 -0.6602 -0.0036 -0.6080
 1838SOL     OW 7424   2.923   1.274   2.983 -0.3293 -0.5111  0.1257
 1838SOL    HW2 7425   3.003   1.235   3.019  0.0103 -0.3466 -0.4237
 1838SOL    HW3 7426   2.925   1.364   3.015  1.5782  0.5494 -2.7200
 1838SOL    MW4 7427   2.934   1.281   2.992 -0.0327 -0.3496 -0.3221
 1839SOL     OW 7428   2.912   1.544   3.131  0.3269 -0.4432 -0.0238
 1839SOL    HW2 7429   2.925   1.540   3.225 -1.1138  1.5298  0.2804
 1839SOL    HW3 7430   2.980   1.605   3.100 -0.3056  0.2564 -0.0361
 1839SOL    MW4 7431   2.923   1.552   3.139  0.0534 -0.0907  0.0148
 1840SOL     OW 7432   2.695   1.694   3.026  0.2399  0.3027  0.2314
 1840SOL    HW2 7433   2.757   1.635   3.068 -0.2668 -0.7179 -0.4550
 1840SOL    HW3 7434   2.609   1.661   3.052 -0.0726 -0.1153 -1.3220
 1840SOL    MW4 7435   2.692   1.682   3.035  0.1321  0.1130 -0.0644
 1841SOL     OW 7436   2.719   1.970   3.066 -0.0489 -0.0134  0.0031
 1841SOL    HW2 7437   2.799   2.019   3.046  0.3970  0.3886  2.6013
 1841SOL    HW3 7438   2.747   1.878   3.068  0.3406  0.1145  0.7690
 1841SOL    MW4 7439   2.734   1.964   3.063  0.0613  0.0565  0.4470
 1842SOL     OW 7440   2.942   2.095   3.011 -0.2361 -0.0015 -0.0382
 1842SOL    HW2 7441   2.904   2.180   3.034 -2.2052 -0.2242 -2.3222
 1842SOL    HW3 7442   2.926   2.086   2.917  0.7044 -2.5270  0.0116
 1842SOL    MW4 7443   2.935   2.105   3.002 -0.3717 -0.3638 -0.3328
 1843SOL     OW 7444   2.837   2.356   3.071 -0.1290 -0.1455  0.1480
 1843SOL    HW2 7445   2.910   2.411   3.043  0.7795 -1.2510  0.3302
 1843SOL    HW3 7446   2.759   2.408   3.050  0.6597  0.5390 -1.1299
 1843SOL    MW4 7447   2.836   2.370   3.065  0.0951 -0.2012  0.0033
 1844SOL     OW 7448   2.628   2.474   2.949  0.2775 -0.0288 -0.1369
 1844SOL    HW2 7449   2.612   2.561   2.985  1.3556 -1.1560  3.2853
 1844SOL    HW3 7450   2.564   2.417   2.994  2.1738 -1.6048  0.6775
 1844SOL    MW4 7451   2.618   2.478   2.960  0.6697 -0.3855  0.4220
 1845SOL     OW 7452   2.645   2.722   3.052  0.1554 -0.1690  0.0669
 1845SOL    HW2 7453   2.648   2.737   3.146 -0.3528 -0.6787  0.1709
 1845SOL    HW3 7454   2.574   2.778   3.020  2.9978  3.1564 -0.6545
 1845SOL    MW4 7455   2.636   2.731   3.060  0.4632  0.2024 -0.0145
 1846SOL     OW 7456   2.893   2.823   2.974 -0.4952  0.0698  0.2037
 1846SOL    HW2 7457   2.968   2.778   3.012 -0.4004  0.3252  0.3198
 1846SOL    HW3 7458   2.817   2.780   3.013 -0.3912  1.1178  1.6115
 1846SOL    MW4 7459   2.893   2.811   2.985 -0.4692  0.2418  0.4048
 1847SOL     OW 7460   2.857   3.101   3.072  0.0564  0.7162 -0.3362
 1847SOL    HW2 7461   2.783   3.145   3.030 -0.7200  1.2629  1.5243
 1847SOL    HW3 7462   2.859   3.014   3.034 -1.5255  0.7118 -0.4191
 1847SOL    MW4 7463   2.848   3.096   3.061 -0.2544  0.7875 -0.1016
 1848SOL     OW 7464   2.684   3.275   2.947 -0.3550 -0.0864 -0.4817
 1848SOL    HW2 7465   2.679   3.357   2.996 -0.6777 -0.4078  0.0223
 1848SOL    HW3 7466   2.729   3.299   2.866  0.1297  0.4557 -0.0591
 1848SOL    MW4 7467   2.689   3.289   2.943 -0.3338 -0.0572 -0.3595
 1849SOL     OW 7468   2.714   3.513   3.084 -0.2463  0.1247 -0.1621
 1849SOL    HW2 7469   2.723   3.526   3.178 -0.0826 -0.9534 -0.0279
 1849SOL    HW3 7470   2.785   3.565   3.045  1.0761 -1.2142  0.4256
 1849SOL    MW4 7471   2.724   3.522   3.091 -0.0505 -0.1941 -0.0670
 1850SOL     OW 7472   2.956   3.657   2.969 -0.4580  0.4494 -0.1461
 1850SOL    HW2 7473   3.002   3.589   3.020  2.1779  1.9215 -0.4656
 1850SOL    HW3 7474   2.945   3.729   3.031 -0.3543  0.9423 -0.7049
 1850SOL    MW4 7475   2.961   3.657   2.984 -0.0968  0.7088 -0.2620
 1851SOL     OW 7476   2.945   3.890   3.125 -0.4969 -0.1255 -0.3290
 1851SOL    HW2 7477   2.940   3.859   3.215 -0.8119 -3.0055 -1.3027
 1851SOL    HW3 7478   2.865   3.941   3.113 -0.8812 -0.4590  0.7362
 1851SOL    MW4 7479   2.934   3.893   3.135 -0.5896 -0.5493 -0.3169
 1852SOL     OW 7480   2.715   4.005   3.021  0.1442 -0.2113 -0.8980
 1852SOL    HW2 7481   2.694   4.098   3.035  0.7758  0.0942 -1.8984
 1852SOL    HW3 7482   2.723   3.997   2.926 -0.5511 -1.4368 -0.8605
 1852SOL    MW4 7483   2.713   4.016   3.010  0.1359 -0.3328 -1.0247
 1853SOL     OW 7484   2.670   4.250   3.100 -0.3214  0.4184  0.0699
 1853SOL    HW2 7485   2.676   4.259   3.195  0.3915 -0.6188  0.1308
 1853SOL    HW3 7486   2.604   4.315   3.074 -1.1115  0.1569  1.3582
 1853SOL    MW4 7487   2.662   4.260   3.109 -0.3316  0.2465  0.2477
 1854SOL     OW 7488   2.886   4.408   3.027  0.1278  0.5792  0.3923
 1854SOL    HW2 7489   2.963   4.359   3.055 -0.1007  0.0915  0.1728
 1854SOL    HW3 7490   2.811   4.354   3.054 -0.1087  0.3885 -0.6116
 1854SOL    MW4 7491   2.886   4.394   3.034  0.0663  0.4897  0.2313
 1855SOL     OW 7492   3.359   0.002   3.122 -0.0413  0.3130  0.4517
 1855SOL    HW2 7493   3.438   0.016   3.069 -1.6653 -0.0624 -2.1742
 1855SOL    HW3 7494   3.290   0.049   3.075 -2.1517 -2.4791  0.6105
 1855SOL    MW4 7495   3.360   0.010   3.108 -0.5341 -0.1049  0.1261
 1856SOL     OW 7496   3.163   0.128   2.974 -0.1296  0.1186  0.1347
 1856SOL    HW2 7497   3.092   0.085   3.022  0.8892 -1.0712  0.5713
 1856SOL    HW3 7498   3.160   0.219   3.005 -1.4365  0.0713  0.1806
 1856SOL    MW4 7499   3.153   0.135   2.985 -0.1678 -0.0446  0.1986
 1857SOL     OW 7500   3.136   0.370   3.092 -0.3709 -0.7085 -0.3486
 1857SOL    HW2 7501   3.220   0.410   3.071  0.6326 -1.9108  1.3070
 1857SOL    HW3 7502   3.071   0.434   3.064  1.1179  0.6558 -0.7268
 1857SOL    MW4 7503   3.139   0.384   3.085 -0.0422 -0.6871 -0.1802
 1858SOL     OW 7504   3.364   0.496   3.009  0.0044  0.5129 -0.1465
 1858SOL    HW2 7505   3.446   0.451   3.028 -0.3057  0.1163  0.2858
 1858SOL    HW3 7506   3.356   0.492   2.914 -0.4019 -1.0749 -0.0627
 1858SOL    MW4 7507   3.374   0.489   2.999 -0.0899  0.2510 -0.0784
 1859SOL     OW 7508   3.333   0.768   3.092 -0.5632  0.1933 -0.0317
 1859SOL    HW2 7509   3.332   0.765   3.188 -0.9765  0.6479 -0.0226
 1859SOL    HW3 7510   3.350   0.677   3.066  1.3594  0.3746  0.4897
 1859SOL    MW4 7511   3.335   0.756   3.101 -0.3641  0.2772  0.0381
 1860SOL     OW 7512   3.118   0.914   3.040  0.4242  0.2092  0.0330
 1860SOL    HW2 7513   3.194   0.857   3.053  1.3540  1.3250 -0.3133
 1860SOL    HW3 7514   3.046   0.870   3.085  1.2889 -0.8552  0.4020
 1860SOL    MW4 7515   3.119   0.901   3.047  0.6611  0.2160  0.0362
 1861SOL     OW 7516   3.146   1.175   3.124 -0.5206  0.2062  0.4073
 1861SOL    HW2 7517   3.227   1.204   3.081 -0.2337  1.0647  1.5125
 1861SOL    HW3 7518   3.138   1.083   3.099 -0.3161  0.6454 -1.4019
 1861SOL    MW4 7519   3.156   1.167   3.115 -0.4561  0.3774  0.3147
 1862SOL     OW 7520   3.370   1.261   2.987 -0.5380  0.3958  0.7630
 1862SOL    HW2 7521   3.446   1.212   3.020 -0.3177  0.6036  0.5662
 1862SOL    HW3 7522   3.376   1.346   3.029  1.9327  2.0688 -2.6983
 1862SOL    MW4 7523   3.381   1.266   2.997 -0.1831  0.6440  0.2806
 1863SOL     OW 7524   3.349   1.523   3.116  0.5069 -0.1589 -0.0962
 1863SOL    HW2 7525   3.347   1.551   3.207  2.1033  0.8471 -0.3480
 1863SOL    HW3 7526   3.430   1.560   3.081 -1.3006  1.6061 -2.6048
 1863SOL    MW4 7527   3.360   1.532   3.123  0.4790  0.2067 -0.4604
 1864SOL     OW 7528   3.132   1.682   3.037  0.1822  0.3145 -0.1956
 1864SOL    HW2 7529   3.211   1.637   3.066 -0.6967 -0.2533  1.3930
 1864SOL    HW3 7530   3.132   1.672   2.942  2.0969  0.4689 -0.2192
 1864SOL    MW4 7531   3.142   1.675   3.029  0.3188  0.2600  0.0110
 1865SOL     OW 7532   3.179   1.946   3.072 -0.0354  0.0674 -0.3838
 1865SOL    HW2 7533   3.159   1.858   3.040 -0.1256 -0.0167 -0.0957
 1865SOL    HW3 7534   3.101   1.997   3.049 -0.6264 -0.2830  0.8230
 1865SOL    MW4 7535   3.166   1.941   3.065 -0.1252  0.0100 -0.1867
 1866SOL     OW 7536   3.406   2.047   2.974 -0.2146 -0.2811  0.2688
 1866SOL    HW2 7537   3.481   2.014   3.023  0.3096 -0.1643 -0.4436
 1866SOL    HW3 7538   3.330   2.012   3.020  0.2884 -0.9476  0.6066
 1866SOL    MW4 7539   3.406   2.038   2.987 -0.0794 -0.3538  0.2191
 1867SOL     OW 7540   3.328   2.301   3.051  0.0325  0.4477  0.0882
 1867SOL    HW2 7541   3.342   2.301   3.145 -2.0931  1.4918  0.4270
 1867SOL    HW3 7542   3.348   2.211   3.024  1.8279  0.4555  1.3173
 1867SOL    MW4 7543   3.333   2.289   3.060 -0.0112  0.5867  0.2952
 1868SOL     OW 7544   3.101   2.438   3.004  0.5347 -0.0481 -0.0687
 1868SOL    HW2 7545   3.170   2.377   3.030 -0.5833 -0.4987  1.9148
 1868SOL    HW3 7546   3.106   2.440   2.908  1.0894 -2.6403 -0.1382
 1868SOL    MW4 7547   3.111   2.430   2.995  0.4604 -0.4494  0.1838
 1869SOL     OW 7548   3.147   2.707   3.076  0.0998  0.6738  0.0702
 1869SOL    HW2 7549   3.165   2.713   3.170 -0.2114  0.5656  0.1371
 1869SOL    HW3 7550   3.146   2.613   3.058  0.7509  0.7065 -0.1559
 1869SOL    MW4 7551   3.150   2.695   3.086  0.1442  0.6638  0.0494
 1870SOL     OW 7552   3.377   2.859   2.983  0.5778  0.3820  0.6513
 1870SOL    HW2 7553   3.356   2.941   3.028 -0.5427 -0.2554  1.2988
 1870SOL    HW3 7554   3.298   2.807   2.989  0.5625  0.0852 -1.6562
 1870SOL    MW4 7555   3.364   2.863   2.989  0.4282  0.2589  0.4325
 1871SOL     OW 7556   3.353   3.109   3.089 -0.1755 -0.0243  0.1976
 1871SOL    HW2 7557   3.356   3.099   3.184  1.5279  0.4213  0.2079
 1871SOL    HW3 7558   3.274   3.160   3.072  0.5618  1.6131  1.5477
 1871SOL    MW4 7559   3.343   3.114   3.099  0.1466  0.2508  0.3772
 1872SOL     OW 7560   3.108   3.216   3.021 -0.0971  0.3169 -0.3731
 1872SOL    HW2 7561   3.033   3.166   3.054  0.3647 -0.2236 -0.1538
 1872SOL    HW3 7562   3.100   3.210   2.925 -0.1228 -0.0514 -0.3485
 1872SOL    MW4 7563   3.097   3.209   3.013 -0.0398  0.1969 -0.3412
 1873SOL     OW 7564   3.133   3.487   3.087  0.1376 -0.2140  0.1883
 1873SOL    HW2 7565   3.219   3.504   3.047  0.2158  0.7857  0.7716
 1873SOL    HW3 7566   3.111   3.399   3.059  1.1587 -0.3095 -0.3393
 1873SOL    MW4 7567   3.142   3.478   3.078  0.2828 -0.0947  0.1957
 1874SOL     OW 7568   3.365   3.558   2.966 -0.0771 -0.7109  0.2701
 1874SOL    HW2 7569   3.443   3.523   3.008 -0.3630 -1.4343  0.2044
 1874SOL    HW3 7570   3.354   3.645   3.004  2.0320  0.3191 -1.3309
 1874SOL    MW4 7571   3.374   3.565   2.976  0.1636 -0.6704  0.0503
 1875SOL     OW 7572   3.351   3.798   3.088  0.2885  0.0117 -0.2308
 1875SOL    HW2 7573   3.362   3.815   3.181  1.2507 -0.4855 -0.2461
 1875SOL    HW3 7574   3.289   3.865   3.058 -2.2440 -1.5542  1.3239
 1875SOL    MW4 7575   3.344   3.809   3.096  0.0813 -0.2608 -0.0277
 1876SOL     OW 7576   3.168   3.996   3.001 -0.0946  0.7006  0.5982
 1876SOL    HW2 7577   3.088   3.971   3.048  0.2751 -0.6925  0.4955
 1876SOL    HW3 7578   3.147   3.981   2.909  0.0163  1.0845  0.5122
 1876SOL    MW4 7579   3.154   3.991   2.995 -0.0310  0.5677  0.5732
 1877SOL     OW 7580   3.111   4.256   3.084  0.2020  0.4577 -0.3285
 1877SOL    HW2 7581   3.132   4.244   3.176  0.5423  0.7339 -0.3710
 1877SOL    HW3 7582   3.131   4.171   3.043 -0.5354  0.1395 -0.0436
 1877SOL    MW4 7583   3.116   4.243   3.090  0.1500  0.4520 -0.2968
 1878SOL     OW 7584   3.336   4.402   3.015 -0.2757 -0.3342 -0.4244
 1878SOL    HW2 7585   3.330   4.486   3.060 -1.2870 -0.4423 -0.3472
 1878SOL    HW3 7586   3.256   4.356   3.039  0.0759 -1.1619 -0.7991
 1878SOL    MW4 7587   3.325   4.407   3.024 -0.3629 -0.4578 -0.4637
 1879SOL     OW 7588   3.776   4.625   3.098  0.1941 -0.2802  0.1417
 1879SOL    HW2 7589   3.783   4.541   3.052  2.2721  0.2832 -0.6427
 1879SOL    HW3 7590   3.709   4.673   3.049 -0.2049 -1.0593 -0.0897
 1879SOL    MW4 7591   3.768   4.620   3.085  0.4158 -0.3090  0.0076
 1880SOL     OW 7592   3.576   0.091   2.965  0.0408  0.2443  0.7016
 1880SOL    HW2 7593   3.577   0.183   2.992 -1.2854  0.3115  0.5383
 1880SOL    HW3 7594   3.557   0.094   2.871  1.6718 -0.1302  0.3420
 1880SOL    MW4 7595   3.574   0.104   2.956  0.0806  0.2038  0.6328
 1881SOL     OW 7596   3.597   0.329   3.089  0.3476 -0.2080 -0.2617
 1881SOL    HW2 7597   3.605   0.326   3.184  1.0896 -0.3454 -0.3271
 1881SOL    HW3 7598   3.665   0.389   3.061 -1.3024  1.5699 -0.5494
 1881SOL    MW4 7599   3.607   0.336   3.098  0.2277  0.0085 -0.3083
 1882SOL     OW 7600   3.778   0.515   3.007 -0.8061 -0.3232  0.4263
 1882SOL    HW2 7601   3.848   0.453   3.027  0.2755  0.7927  0.1421
 1882SOL    HW3 7602   3.798   0.592   3.060 -1.4888  0.2254 -0.1071
 1882SOL    MW4 7603   3.790   0.517   3.017 -0.7536 -0.1036  0.3183
 1883SOL     OW 7604   3.835   0.756   3.154 -0.1501 -0.1791  0.6612
 1883SOL    HW2 7605   3.813   0.769   3.246  0.9960 -1.6107  1.1693
 1883SOL    HW3 7606   3.913   0.810   3.141  0.4236 -0.9353  0.8835
 1883SOL    MW4 7607   3.843   0.764   3.164  0.0770 -0.4677  0.7577
 1884SOL     OW 7608   3.602   0.856   3.007 -0.0554 -0.0767  0.1552
 1884SOL    HW2 7609   3.665   0.813   3.065 -0.5483 -1.3952 -0.2511
 1884SOL    HW3 7610   3.516   0.828   3.040 -0.3849  0.6541 -0.0791
 1884SOL    MW4 7611   3.599   0.846   3.019 -0.1638 -0.1542  0.0706
 1885SOL     OW 7612   3.593   1.122   3.122  0.2480 -0.2453  0.0817
 1885SOL    HW2 7613   3.670   1.171   3.093  0.4038 -1.0413 -0.8914
 1885SOL    HW3 7614   3.610   1.032   3.094 -1.0363 -0.4216 -0.1648
 1885SOL    MW4 7615   3.605   1.116   3.114  0.0992 -0.3736 -0.0792
 1886SOL     OW 7616   3.806   1.253   3.040 -0.7426 -0.6538 -0.4749
 1886SOL    HW2 7617   3.816   1.347   3.051 -2.9927 -0.5521  1.0812
 1886SOL    HW3 7618   3.783   1.241   2.948  0.0961  0.2557 -0.8043
 1886SOL    MW4 7619   3.804   1.264   3.029 -0.9289 -0.5203 -0.3130
 1887SOL     OW 7620   3.825   1.545   3.111 -0.2421  0.0090 -0.0206
 1887SOL    HW2 7621   3.824   1.533   3.206  1.0350 -1.1477 -0.1326
 1887SOL    HW3 7622   3.740   1.582   3.090  0.9399  4.2394  2.0836
 1887SOL    MW4 7623   3.814   1.548   3.120  0.0823  0.4146  0.2422
 1888SOL     OW 7624   3.570   1.657   2.995 -0.2343  0.5679  0.0187
 1888SOL    HW2 7625   3.575   1.750   3.017 -2.7342  0.4133  1.3056
 1888SOL    HW3 7626   3.557   1.655   2.900  0.3487  1.4949 -0.0863
 1888SOL    MW4 7627   3.569   1.669   2.986 -0.4869  0.6698  0.1745
 1889SOL     OW 7628   3.610   1.912   3.095  0.3345 -0.0331  0.0591
 1889SOL    HW2 7629   3.601   1.928   3.189  1.3830 -0.0710  0.1684
 1889SOL    HW3 7630   3.688   1.962   3.070 -0.7017  1.0656 -1.0513
 1889SOL    MW4 7631   3.619   1.921   3.104  0.3364  0.1068 -0.0727
 1890SOL     OW 7632   3.831   2.035   3.002  0.1413  0.0011  0.3697
 1890SOL    HW2 7633   3.825   2.130   3.017 -0.8876 -0.4453  3.1158
 1890SOL    HW3 7634   3.824   2.026   2.907  1.0459  2.7298 -0.0183
 1890SOL    MW4 7635   3.829   2.047   2.991  0.1249  0.3021  0.6809
 1891SOL     OW 7636   3.807   2.315   3.026 -0.5444  0.2018  0.7114
 1891SOL    HW2 7637   3.791   2.320   3.120 -0.1726 -2.1106  0.9305
 1891SOL    HW3 7638   3.735   2.364   2.987 -2.4380 -1.3871  2.0998
 1891SOL    MW4 7639   3.795   2.322   3.033 -0.7453 -0.3130  0.9236
 1892SOL     OW 7640   3.552   2.436   2.962  0.0234 -0.0738 -0.4451
 1892SOL    HW2 7641   3.557   2.523   3.001  0.3521  0.1575 -1.0030
 1892SOL    HW3 7642   3.471   2.399   2.997  1.1879 -0.5616  1.8730
 1892SOL    MW4 7643   3.542   2.443   2.972  0.2205 -0.1075 -0.2129
 1893SOL     OW 7644   3.597   2.690   3.080  0.3681 -0.1163  0.2737
 1893SOL    HW2 7645   3.672   2.736   3.043 -0.1281  0.8735  0.4655
 1893SOL    HW3 7646   3.525   2.753   3.074 -0.6060 -1.2821 -0.5092
 1893SOL    MW4 7647   3.597   2.704   3.075  0.1740 -0.1395  0.1957
 1894SOL     OW 7648   3.832   2.819   2.981  0.0370  0.1699  0.1482
 1894SOL    HW2 7649   3.805   2.902   3.022  0.2922  0.7719 -0.8941
 1894SOL    HW3 7650   3.853   2.843   2.891 -0.6721 -1.1753 -0.3862
 1894SOL    MW4 7651   3.831   2.833   2.975 -0.0231  0.0720 -0.0601
 1895SOL     OW 7652   3.795   3.084   3.068  0.2481  0.0838  0.2426
 1895SOL    HW2 7653   3.882   3.110   3.038 -0.1404  0.1871 -0.8287
 1895SOL    HW3 7654   3.804   3.073   3.163  1.4995 -0.2211  0.0924
 1895SOL    MW4 7655   3.807   3.086   3.077  0.3622  0.0572  0.0815
 1896SOL     OW 7656   3.570   3.221   2.967 -0.1833 -0.0623  0.2262
 1896SOL    HW2 7657   3.497   3.187   3.017 -0.5691  1.2577  0.5945
 1896SOL    HW3 7658   3.647   3.175   3.001 -0.8615 -1.6293 -0.3361
 1896SOL    MW4 7659   3.571   3.211   2.978 -0.3238 -0.0949  0.2005
 1897SOL     OW 7660   3.559   3.463   3.111  0.2866 -0.1012 -0.2226
 1897SOL    HW2 7661   3.638   3.515   3.097  0.6239 -0.5607 -0.0544
 1897SOL    HW3 7662   3.575   3.382   3.064 -0.0773 -0.2015 -0.1729
 1897SOL    MW4 7663   3.572   3.459   3.103  0.2830 -0.1752 -0.1938
 1898SOL     OW 7664   3.771   3.624   3.023  0.2191  0.4625  0.0859
 1898SOL    HW2 7665   3.761   3.719   3.034 -0.7577  0.3184  0.4950
 1898SOL    HW3 7666   3.779   3.612   2.928 -2.0514  0.7688 -0.1941
 1898SOL    MW4 7667   3.770   3.635   3.012 -0.2096  0.4840  0.1028
 1899SOL     OW 7668   3.773   3.906   3.071 -0.5513 -0.3709 -0.2689
 1899SOL    HW2 7669   3.778   3.886   3.164 -0.1425  0.9427  0.0048
 1899SOL    HW3 7670   3.690   3.952   3.061 -1.2185 -1.6524 -0.7944
 1899SOL    MW4 7671   3.762   3.909   3.082 -0.5853 -0.3664 -0.3021
 1900SOL     OW 7672   3.526   3.994   3.015 -0.1797  0.0339 -0.1563
 1900SOL    HW2 7673   3.472   3.920   3.041  0.3308 -0.0781  0.6185
 1900SOL    HW3 7674   3.524   3.994   2.920 -2.1819  0.4994 -0.1327
 1900SOL    MW4 7675   3.518   3.984   3.006 -0.3765  0.0806 -0.0508
 1901SOL     OW 7676   3.574   4.258   3.093  0.1606  0.2924  0.2681
 1901SOL    HW2 7677   3.567   4.170   3.056  1.2340  0.2016  0.2447
 1901SOL    HW3 7678   3.496   4.304   3.062 -0.4011 -0.6426  0.2649
 1901SOL    MW4 7679   3.563   4.252   3.084  0.2279  0.1569  0.2646
 1902SOL     OW 7680   3.787   4.378   2.948  0.0782 -0.3081 -0.4069
 1902SOL    HW2 7681   3.860   4.345   3.001 -0.0993 -0.2897 -0.1520
 1902SOL    HW3 7682   3.710   4.337   2.985 -0.1314  0.2941 -0.1678
 1902SOL    MW4 7683   3.787   4.368   2.960  0.0272 -0.2260 -0.3419
 1903SOL     OW 7684   4.248   4.619   3.101  0.4660 -0.4219 -0.3942
 1903SOL    HW2 7685   4.233   4.610   3.195  0.9945 -1.1019 -0.3711
 1903SOL    HW3 7686   4.249   4.529   3.068  1.9219 -0.2714 -0.7995
 1903SOL    MW4 7687   4.246   4.606   3.109  0.7281 -0.4921 -0.4449
 1904SOL     OW 7688   4.013   0.089   3.032 -0.1974  0.2669 -0.0768
 1904SOL    HW2 7689   4.082   0.037   3.075 -0.9239 -0.0225  0.7545
 1904SOL    HW3 7690   3.933   0.039   3.046 -1.0467  1.9759  1.4354
 1904SOL    MW4 7691   4.012   0.076   3.040 -0.4058  0.4542  0.2322
 1905SOL     OW 7692   3.986   0.364   3.100 -0.1213  0.1390  0.6571
 1905SOL    HW2 7693   4.062   0.415   3.072 -0.1275 -0.6418 -0.8746
 1905SOL    HW3 7694   4.006   0.274   3.071  0.2483 -0.9052  3.9837
 1905SOL    MW4 7695   3.999   0.359   3.092 -0.0734 -0.1018  0.8938
 1906SOL     OW 7696   4.213   0.488   3.044 -0.5272 -0.0017  0.1245
 1906SOL    HW2 7697   4.249   0.569   3.077  0.5712 -1.0875  1.6535
 1906SOL    HW3 7698   4.220   0.495   2.949  1.6293  0.7694  0.3129
 1906SOL    MW4 7699   4.219   0.499   3.036 -0.0982 -0.0432  0.3512
 1907SOL     OW 7700   4.264   0.755   3.134  0.5707  0.0890  0.2666
 1907SOL    HW2 7701   4.180   0.799   3.120  1.0877  0.9157 -0.3085
 1907SOL    HW3 7702   4.328   0.812   3.091  1.5678  0.0098  1.6063
 1907SOL    MW4 7703   4.261   0.768   3.126  0.7706  0.1876  0.3676
 1908SOL     OW 7704   4.047   0.902   3.034  0.4149  0.0040 -0.2390
 1908SOL    HW2 7705   4.066   0.994   3.055  0.2796 -0.0844  0.2767
 1908SOL    HW3 7706   4.039   0.901   2.939  2.0646  0.2057 -0.3881
 1908SOL    MW4 7707   4.048   0.914   3.024  0.6146  0.0189 -0.1910
 1909SOL     OW 7708   4.063   1.168   3.102 -0.0269  0.0524  0.3838
 1909SOL    HW2 7709   4.066   1.156   3.197 -0.5747  0.6772  0.4880
 1909SOL    HW3 7710   3.970   1.181   3.083  0.1473  0.5326 -0.1574
 1909SOL    MW4 7711   4.051   1.168   3.112 -0.0758  0.1984  0.3259
 1910SOL     OW 7712   4.298   1.260   2.997  0.4445  0.4090 -0.5967
 1910SOL    HW2 7713   4.213   1.241   3.037 -0.1356  1.5430 -1.2688
 1910SOL    HW3 7714   4.279   1.270   2.904  1.1547  1.6764 -0.6151
 1910SOL    MW4 7715   4.284   1.259   2.990  0.4616  0.7260 -0.6878
 1911SOL     OW 7716   4.288   1.531   3.103 -0.1329 -0.4089  0.1263
 1911SOL    HW2 7717   4.208   1.574   3.072  0.4771  1.5400  1.1420
 1911SOL    HW3 7718   4.280   1.441   3.072 -1.6329  0.3287 -1.7699
 1911SOL    MW4 7719   4.276   1.525   3.095 -0.2503 -0.0545  0.0100
 1912SOL     OW 7720   4.072   1.644   3.024 -0.2588  0.0472  0.1452
 1912SOL    HW2 7721   4.072   1.730   3.064 -0.2861 -0.2531  0.8006
 1912SOL    HW3 7722   3.990   1.604   3.054 -1.4272  0.6819 -2.1006
 1912SOL    MW4 7723   4.061   1.650   3.033 -0.4172  0.0914 -0.0648
 1913SOL     OW 7724   4.054   1.906   3.106  0.6279 -0.0901  0.1199
 1913SOL    HW2 7725   4.129   1.957   3.077  0.2873  1.1167  1.3240
 1913SOL    HW3 7726   3.978   1.954   3.073  0.3178 -0.0043  0.9449
 1913SOL    MW4 7727   4.054   1.919   3.098  0.5422  0.0803  0.3877
 1914SOL     OW 7728   4.249   2.060   3.005 -0.3381 -0.7194  0.3739
 1914SOL    HW2 7729   4.283   2.142   3.040 -1.0248 -0.3043  0.0741
 1914SOL    HW3 7730   4.240   2.075   2.911 -0.5552 -1.1013  0.3321
 1914SOL    MW4 7731   4.252   2.073   2.997 -0.4578 -0.7150  0.3288
 1915SOL     OW 7732   4.297   2.306   3.106  0.2157  0.0419  0.1061
 1915SOL    HW2 7733   4.217   2.345   3.071 -0.3171 -1.7570 -0.7562
 1915SOL    HW3 7734   4.368   2.349   3.058 -0.3019  0.6752 -0.0950
 1915SOL    MW4 7735   4.296   2.317   3.095  0.0777 -0.1116 -0.0343
 1916SOL     OW 7736   4.065   2.406   3.005 -0.3406  0.4122  0.2335
 1916SOL    HW2 7737   4.069   2.495   3.040  1.8428 -0.0642  1.2723
 1916SOL    HW3 7738   3.979   2.373   3.032  0.2641  0.9777  2.9589
 1916SOL    MW4 7739   4.054   2.413   3.013  0.0272  0.4239  0.7303
 1917SOL     OW 7740   4.050   2.667   3.079 -0.4766  0.1564  0.4854
 1917SOL    HW2 7741   4.064   2.684   3.172 -0.2680  0.8384  0.3299
 1917SOL    HW3 7742   3.971   2.715   3.057 -1.1872 -0.9601  0.5780
 1917SOL    MW4 7743   4.042   2.676   3.089 -0.5426  0.0989  0.4773
 1918SOL     OW 7744   4.262   2.828   3.025  0.0630  0.6196 -0.1418
 1918SOL    HW2 7745   4.190   2.769   3.046  0.3681  0.5622  0.8054
 1918SOL    HW3 7746   4.339   2.785   3.062  0.4452  1.1056 -0.3663
 1918SOL    MW4 7747   4.263   2.814   3.033  0.1535  0.6762 -0.0463
 1919SOL     OW 7748   4.272   3.099   3.079 -0.0468 -0.0175 -0.1116
 1919SOL    HW2 7749   4.186   3.130   3.050 -0.1744 -1.2503 -1.0951
 1919SOL    HW3 7750   4.270   3.004   3.063  1.2577 -0.1540  0.4624
 1919SOL    MW4 7751   4.260   3.090   3.073  0.1087 -0.1981 -0.1657
 1920SOL     OW 7752   4.036   3.215   2.990  0.0921  0.2101 -0.3660
 1920SOL    HW2 7753   4.006   3.303   3.015 -0.5953 -0.2985  0.6407
 1920SOL    HW3 7754   4.030   3.214   2.895 -0.5439  1.0305 -0.3419
 1920SOL    MW4 7755   4.031   3.227   2.981 -0.0830  0.2511 -0.2301
 1921SOL     OW 7756   3.979   3.470   3.091  0.3313 -0.0377  0.0528
 1921SOL    HW2 7757   3.980   3.495   3.183 -0.2838  0.7344 -0.1470
 1921SOL    HW3 7758   3.903   3.515   3.054 -1.6373 -3.2704 -0.0508
 1921SOL    MW4 7759   3.969   3.479   3.098 -0.0098 -0.3624  0.0131
 1922SOL     OW 7760   4.240   3.564   2.990  0.2695 -0.3005 -0.0772
 1922SOL    HW2 7761   4.245   3.648   3.036  1.9425 -0.4807  0.1148
 1922SOL    HW3 7762   4.169   3.517   3.034 -1.7790  1.6324 -1.2612
 1922SOL    MW4 7763   4.232   3.569   3.002  0.2198 -0.0694 -0.2079
 1923SOL     OW 7764   4.255   3.843   3.086  0.4703  0.0501  0.5163
 1923SOL    HW2 7765   4.185   3.902   3.057  0.2813 -0.6816 -0.5526
 1923SOL    HW3 7766   4.336   3.885   3.056  0.4460  0.5399  1.1265
 1923SOL    MW4 7767   4.257   3.857   3.078  0.4425  0.0184  0.4556
 1924SOL     OW 7768   4.038   4.015   3.007 -0.0860 -0.5971  0.2553
 1924SOL    HW2 7769   4.040   4.103   3.045 -0.5741  0.2507 -1.6286
 1924SOL    HW3 7770   3.951   3.981   3.029 -0.4133 -0.0563 -0.1983
 1924SOL    MW4 7771   4.027   4.022   3.015 -0.1936 -0.4134 -0.0529
 1925SOL     OW 7772   4.019   4.287   3.103  0.4666  0.3279 -0.5891
 1925SOL    HW2 7773   4.021   4.311   3.196  0.4766  1.6084 -0.9119
 1925SOL    HW3 7774   4.101   4.320   3.068  0.2382  0.2910 -1.1644
 1925SOL    MW4 7775   4.030   4.294   3.111  0.4382  0.4911 -0.7076
 1926SOL     OW 7776   4.248   4.370   2.995 -0.2457  0.3238 -0.1968
 1926SOL    HW2 7777   4.320   4.315   3.027 -0.0637  0.0999 -0.9750
 1926SOL    HW3 7778   4.246   4.353   2.901 -1.3909  0.2510 -0.1608
 1926SOL    MW4 7779   4.258   4.360   2.987 -0.3724  0.2847 -0.2947
 1927SOL     OW 7780   0.185   4.651   3.428 -0.6471 -0.3047  0.4264
 1927SOL    HW2 7781   0.265   4.701   3.444 -0.3977 -0.6809  0.3682
 1927SOL    HW3 7782   0.206   4.562   3.457 -0.3196 -0.9134 -1.6451
 1927SOL    MW4 7783   0.198   4.646   3.434 -0.5710 -0.4344  0.1454
 1928SOL     OW 7784   4.416   0.068   3.525  0.3742  0.4237  0.5202
 1928SOL    HW2 7785   4.414   0.158   3.494  0.3211  0.1832 -0.2095
 1928SOL    HW3 7786   4.500   0.034   3.495  0.2677  0.1500  0.5278
 1928SOL    MW4 7787   4.427   0.075   3.517  0.3533  0.3559  0.4251
 1929SOL     OW 7788   4.444   0.337   3.396  0.1688 -0.2006  0.0140
 1929SOL    HW2 7789   4.383   0.405   3.426  1.8094  1.9789 -1.4302
 1929SOL    HW3 7790   4.529   0.367   3.427  0.9175 -1.6894 -0.5652
 1929SOL    MW4 7791   4.447   0.350   3.404  0.4840 -0.1094 -0.2532
 1930SOL     OW 7792   0.179   0.472   3.489  0.2148 -0.1383  0.5483
 1930SOL    HW2 7793   0.263   0.439   3.459  0.3973 -0.4415  1.3806
 1930SOL    HW3 7794   0.178   0.564   3.461  0.9403 -0.0545  0.7922
 1930SOL    MW4 7795   0.190   0.480   3.481  0.3346 -0.1673  0.6905
 1931SOL     OW 7796   0.199   0.787   3.393 -0.5895  0.2237 -0.1608
 1931SOL    HW2 7797   0.282   0.831   3.412 -0.6242 -0.7118  2.3511
 1931SOL    HW3 7798   0.135   0.830   3.450 -1.2098 -1.1072  0.1769
 1931SOL    MW4 7799   0.201   0.798   3.403 -0.6759 -0.0753  0.2151
 1932SOL     OW 7800   4.443   0.873   3.520  0.2596 -0.3417 -0.2098
 1932SOL    HW2 7801   4.463   0.879   3.613 -1.6677 -0.7884  0.2495
 1932SOL    HW3 7802   4.473   0.957   3.484 -1.9695  1.2133  1.4038
 1932SOL    MW4 7803   4.449   0.885   3.527 -0.2890 -0.1955  0.0637
 1933SOL     OW 7804   0.013   1.130   3.408  0.3197  0.1468  0.0583
 1933SOL    HW2 7805   0.071   1.199   3.440  0.7854 -0.6102  0.8682
 1933SOL    HW3 7806   0.016   1.138   3.313 -0.9775  2.3492  0.1690
 1933SOL    MW4 7807   0.021   1.140   3.400  0.2100  0.3374  0.1800
 1934SOL     OW 7808   0.241   1.277   3.472 -0.5218 -0.5918 -0.1180
 1934SOL    HW2 7809   0.309   1.216   3.443  0.2237  0.0587  0.2205
 1934SOL    HW3 7810   0.260   1.358   3.424 -0.5498 -0.1499  0.6113
 1934SOL    MW4 7811   0.253   1.280   3.462 -0.4272 -0.4478  0.0229
 1935SOL     OW 7812   0.269   1.536   3.357 -0.0538 -0.4310  0.0042
 1935SOL    HW2 7813   0.350   1.576   3.389 -1.0615  1.3357  0.4205
 1935SOL    HW3 7814   0.279   1.536   3.262 -0.2836  1.4082 -0.0439
 1935SOL    MW4 7815   0.281   1.541   3.349 -0.2170  0.0449  0.0529
 1936SOL     OW 7816   0.028   1.599   3.497 -0.1556  0.1470 -0.3645
 1936SOL    HW2 7817  -0.041   1.547   3.455  0.7619 -0.7505 -0.7697
 1936SOL    HW3 7818   0.108   1.576   3.450  0.3886  1.3819 -0.0710
 1936SOL    MW4 7819   0.029   1.589   3.485  0.0372  0.1916 -0.3793
 1937SOL     OW 7820   0.000   1.890   3.418  0.1480 -0.0002 -0.4952
 1937SOL    HW2 7821   0.018   1.797   3.437 -0.2964 -0.2695 -1.3828
 1937SOL    HW3 7822  -0.007   1.894   3.323 -0.6164  0.8054 -0.4082
 1937SOL    MW4 7823   0.002   1.878   3.408 -0.0119  0.0707 -0.6008
 1938SOL     OW 7824   0.221   2.045   3.469  0.1020  0.3361  0.3424
 1938SOL    HW2 7825   0.224   2.050   3.564  2.1978  1.4436  0.2546
 1938SOL    HW3 7826   0.139   1.999   3.449  0.2834 -1.0605  2.6985
 1938SOL    MW4 7827   0.210   2.040   3.479  0.4025  0.2980  0.6416
 1939SOL     OW 7828   0.307   2.298   3.412  0.5370 -0.4035 -0.4788
 1939SOL    HW2 7829   0.232   2.354   3.432  1.7167  0.6882  0.9917
 1939SOL    HW3 7830   0.276   2.209   3.431 -0.2224  0.0886  0.6015
 1939SOL    MW4 7831   0.293   2.293   3.417  0.5925 -0.1948 -0.1423
 1940SOL     OW 7832   0.066   2.426   3.474  0.0716  0.0558 -1.1508
 1940SOL    HW2 7833   0.064   2.424   3.570  0.1157  1.8905 -1.0969
 1940SOL    HW3 7834   0.002   2.360   3.448 -0.5237  0.1071  0.1320
 1940SOL    MW4 7835   0.058   2.417   3.484 -0.0010  0.3049 -0.9744
 1941SOL     OW 7836   0.047   2.692   3.362  0.3082 -0.8686  0.3509
 1941SOL    HW2 7837   0.117   2.734   3.411  0.5055 -0.5618 -0.1952
 1941SOL    HW3 7838   0.038   2.606   3.402  1.2898 -1.0741  0.1311
 1941SOL    MW4 7839   0.055   2.686   3.374  0.4638 -0.8552  0.2499
 1942SOL     OW 7840   0.222   2.847   3.475  0.1305 -0.2951 -0.4426
 1942SOL    HW2 7841   0.304   2.813   3.438 -0.2495  1.0656 -2.6478
 1942SOL    HW3 7842   0.214   2.935   3.438 -1.9067 -0.0932  0.4185
 1942SOL    MW4 7843   0.232   2.854   3.465 -0.1884 -0.0892 -0.6201
 1943SOL     OW 7844   0.228   3.113   3.361 -0.0733 -0.0682 -0.2329
 1943SOL    HW2 7845   0.162   3.181   3.369  0.1521  0.3159 -1.5014
 1943SOL    HW3 7846   0.226   3.088   3.269  1.5591 -0.0373 -0.2946
 1943SOL    MW4 7847   0.219   3.119   3.350  0.1718 -0.0134 -0.4084
 1944SOL     OW 7848   0.009   3.274   3.459 -0.6903 -0.0296 -0.1872
 1944SOL    HW2 7849  -0.069   3.236   3.419 -0.5932  1.3208 -1.7355
 1944SOL    HW3 7850   0.007   3.366   3.432  0.8923  0.2474  0.5893
 1944SOL    MW4 7851  -0.002   3.281   3.450 -0.4687  0.1853 -0.2892
 1945SOL     OW 7852   4.487   3.522   3.355  0.4798 -0.0607 -0.3048
 1945SOL    HW2 7853   4.414   3.572   3.392  1.4364  0.2129  1.2109
 1945SOL    HW3 7854   4.463   3.512   3.262 -1.5070 -0.0312  0.1774
 1945SOL    MW4 7855   4.474   3.528   3.347  0.3443 -0.0207 -0.0410
 1946SOL     OW 7856   0.248   3.585   3.463 -0.3108  0.2457 -0.1029
 1946SOL    HW2 7857   0.239   3.586   3.558 -1.5793  2.3913 -0.2091
 1946SOL    HW3 7858   0.159   3.572   3.430  0.2027 -1.1044 -1.0007
 1946SOL    MW4 7859   0.235   3.584   3.471 -0.4104  0.3510 -0.2353
 1947SOL     OW 7860   0.247   3.875   3.404  0.2604  0.3489  0.3306
 1947SOL    HW2 7861   0.158   3.898   3.431 -0.3294 -0.2729 -1.0485
 1947SOL    HW3 7862   0.256   3.782   3.424  0.4605  0.3184  0.1060
 1947SOL    MW4 7863   0.236   3.866   3.410  0.2090  0.2630  0.1190
 1948SOL     OW 7864   4.478   3.977   3.448 -0.5486  0.2672 -0.2775
 1948SOL    HW2 7865   4.477   4.008   3.539  0.5239  0.6826 -0.4039
 1948SOL    HW3 7866   4.490   4.056   3.395 -1.0924  0.0175 -0.7741
 1948SOL    MW4 7867   4.480   3.992   3.453 -0.4792  0.2890 -0.3595
 1949SOL     OW 7868   4.489   4.230   3.356 -0.3094  0.2455 -0.2572
 1949SOL    HW2 7869   4.415   4.255   3.411 -0.4819 -1.1616  0.1699
 1949SOL    HW3 7870   4.563   4.277   3.392 -0.5786 -0.0451  0.6886
 1949SOL    MW4 7871   4.489   4.239   3.368 -0.3677  0.0215 -0.0758
 1950SOL     OW 7872   0.207   4.372   3.475 -0.3276 -0.0940  0.2166
 1950SOL    HW2 7873   0.194   4.370   3.570 -0.4714 -0.6456  0.1878
 1950SOL    HW3 7874   0.288   4.323   3.460 -0.5439 -0.3975  0.0198
 1950SOL    MW4 7875   0.216   4.365   3.486 -0.3751 -0.2069  0.1867
 1951SOL     OW 7876   0.657   4.619   3.381  0.0454 -0.0066  0.0852
 1951SOL    HW2 7877   0.729   4.675   3.410  1.4195 -1.1907 -0.9373
 1951SOL    HW3 7878   0.660   4.625   3.285 -0.1633 -1.3465 -0.0168
 1951SOL    MW4 7879   0.667   4.627   3.372  0.1992 -0.3400 -0.0632
 1952SOL     OW 7880   0.419   0.106   3.472  0.2913  0.0722  0.0620
 1952SOL    HW2 7881   0.429   0.097   3.567  0.2501 -0.2801  0.0337
 1952SOL    HW3 7882   0.487   0.051   3.435  1.1523  1.2368 -0.1134
 1952SOL    MW4 7883   0.429   0.098   3.480  0.3995  0.1794  0.0353
 1953SOL     OW 7884   0.392   0.354   3.357  0.7815 -0.1357 -0.3984
 1953SOL    HW2 7885   0.479   0.380   3.388  0.1782  0.3713  0.9167
 1953SOL    HW3 7886   0.381   0.265   3.389  0.6989 -0.0972 -0.3206
 1953SOL    MW4 7887   0.402   0.346   3.366  0.6911 -0.0637 -0.2146
 1954SOL     OW 7888   0.634   0.458   3.475  0.0667  0.0803  0.4391
 1954SOL    HW2 7889   0.623   0.459   3.570  0.0764 -2.1523  0.4854
 1954SOL    HW3 7890   0.729   0.455   3.462  0.0511 -0.2187  0.3820
 1954SOL    MW4 7891   0.645   0.458   3.486  0.0659 -0.2537  0.4380
 1955SOL     OW 7892   0.656   0.713   3.327  0.0614 -0.5266 -0.0411
 1955SOL    HW2 7893   0.590   0.765   3.373  0.3361  0.5038 -0.7996
 1955SOL    HW3 7894   0.654   0.628   3.372 -1.1896 -0.2462  0.4817
 1955SOL    MW4 7895   0.647   0.708   3.339 -0.0674 -0.3536 -0.0722
 1956SOL     OW 7896   0.466   0.866   3.441 -0.7542 -0.2496 -0.3430
 1956SOL    HW2 7897   0.448   0.873   3.535  0.6736 -0.3214 -0.0563
 1956SOL    HW3 7898   0.475   0.957   3.411 -0.0790 -0.2693 -0.1904
 1956SOL    MW4 7899   0.465   0.879   3.449 -0.4767 -0.2617 -0.2851
 1957SOL     OW 7900   0.471   1.126   3.382  0.2060  0.4148  0.6789
 1957SOL    HW2 7901   0.540   1.171   3.432 -0.4505  1.8410  0.3194
 1957SOL    HW3 7902   0.481   1.160   3.293 -0.0563 -0.4477  0.3247
 1957SOL    MW4 7903   0.482   1.137   3.377  0.0848  0.4892  0.5848
 1958SOL     OW 7904   0.677   1.260   3.491 -0.1008 -0.4401  0.3245
 1958SOL    HW2 7905   0.761   1.223   3.465 -0.3537 -0.6637 -0.1867
 1958SOL    HW3 7906   0.685   1.353   3.471  0.0741 -0.4365  0.4091
 1958SOL    MW4 7907   0.689   1.267   3.485 -0.1111 -0.4691  0.2682
 1959SOL     OW 7908   0.712   1.505   3.437  0.1247 -0.4944  0.2286
 1959SOL    HW2 7909   0.786   1.555   3.472  0.6345  0.8856 -2.5989
 1959SOL    HW3 7910   0.634   1.555   3.464  0.5269  0.7531 -0.8422
 1959SOL    MW4 7911   0.711   1.519   3.445  0.2450 -0.1478 -0.2859
 1960SOL     OW 7912   0.481   1.662   3.493 -0.9136 -0.1566 -0.0074
 1960SOL    HW2 7913   0.445   1.655   3.582  2.9721 -0.8901  1.6078
 1960SOL    HW3 7914   0.467   1.754   3.469 -3.9133 -0.4293  0.4316
 1960SOL    MW4 7915   0.474   1.673   3.502 -0.7967 -0.2893  0.2637
 1961SOL     OW 7916   0.462   1.939   3.388  0.0222  0.4719 -0.0696
 1961SOL    HW2 7917   0.376   1.970   3.417 -0.5549 -1.2710  0.1543
 1961SOL    HW3 7918   0.456   1.935   3.293 -0.0478  0.6192 -0.0714
 1961SOL    MW4 7919   0.450   1.942   3.379 -0.0632  0.2613 -0.0403
 1962SOL     OW 7920   0.678   2.053   3.511 -0.1212  0.1056 -0.4900
 1962SOL    HW2 7921   0.688   2.055   3.606 -2.1094  1.5183 -0.2823
 1962SOL    HW3 7922   0.586   2.033   3.496  0.1142  0.1421 -2.1195
 1962SOL    MW4 7923   0.667   2.051   3.521 -0.3524  0.2968 -0.6778
 1963SOL     OW 7924   0.689   2.333   3.431  0.7131  0.2029  0.0336
 1963SOL    HW2 7925   0.774   2.358   3.466  0.1840  0.6065  1.0384
 1963SOL    HW3 7926   0.683   2.239   3.447  0.4160  0.4106  1.1516
 1963SOL    MW4 7927   0.700   2.324   3.438  0.6041  0.2837  0.3140
 1964SOL     OW 7928   0.473   2.510   3.465  0.4511  0.3193  0.0225
 1964SOL    HW2 7929   0.564   2.481   3.454  0.3909  0.0124  0.3295
 1964SOL    HW3 7930   0.421   2.435   3.434  0.3058  0.7767 -0.8593
 1964SOL    MW4 7931   0.478   2.496   3.459  0.4240  0.3393 -0.0534
 1965SOL     OW 7932   0.463   2.753   3.352  0.1001 -0.3569 -0.0705
 1965SOL    HW2 7933   0.458   2.661   3.380  0.4999 -0.2446  0.3815
 1965SOL    HW3 7934   0.470   2.749   3.257  2.2497 -0.8696  0.0855
 1965SOL    MW4 7935   0.463   2.740   3.343  0.4365 -0.4098  0.0098
 1966SOL     OW 7936   0.667   2.879   3.454  0.3222  0.2265  0.6161
 1966SOL    HW2 7937   0.743   2.823   3.439  1.6736  1.9753  0.6670
 1966SOL    HW3 7938   0.593   2.828   3.422  1.7130 -0.8642 -1.0065
 1966SOL    MW4 7939   0.668   2.865   3.448  0.6840  0.3133  0.4089
 1967SOL     OW 7940   0.664   3.129   3.363 -0.3175 -0.5948 -0.1373
 1967SOL    HW2 7941   0.587   3.144   3.418  0.7132 -0.2777  1.2335
 1967SOL    HW3 7942   0.677   3.035   3.365  0.3560 -0.4760  1.0312
 1967SOL    MW4 7943   0.655   3.119   3.370 -0.0926 -0.5372  0.1979
 1968SOL     OW 7944   0.448   3.194   3.493  0.5657 -0.1950 -0.2881
 1968SOL    HW2 7945   0.439   3.195   3.588 -0.5664  1.4505 -0.3839
 1968SOL    HW3 7946   0.369   3.148   3.462  0.6275 -0.1954 -0.4463
 1968SOL    MW4 7947   0.436   3.188   3.501  0.4244  0.0222 -0.3219
 1969SOL     OW 7948   0.500   3.485   3.414  0.0727  0.0019 -0.4275
 1969SOL    HW2 7949   0.513   3.396   3.447 -1.4587  0.3711  1.3030
 1969SOL    HW3 7950   0.407   3.502   3.430  0.1017  1.5128 -1.7735
 1969SOL    MW4 7951   0.489   3.475   3.421 -0.1255  0.2499 -0.3769
 1970SOL     OW 7952   0.692   3.631   3.539 -0.2451  0.3319 -0.3578
 1970SOL    HW2 7953   0.766   3.591   3.493  0.2557  0.6685  0.1431
 1970SOL    HW3 7954   0.615   3.590   3.501  0.2433 -0.9302 -0.0158
 1970SOL    MW4 7955   0.692   3.621   3.528 -0.1146  0.2098 -0.2463
 1971SOL     OW 7956   0.705   3.864   3.401 -0.1884 -0.3099  0.0625
 1971SOL    HW2 7957   0.632   3.916   3.434 -0.0130 -0.5780  0.8927
 1971SOL    HW3 7958   0.702   3.783   3.452 -0.2007 -0.9395 -0.9275
 1971SOL    MW4 7959   0.695   3.860   3.412 -0.1670 -0.4284  0.0415
 1972SOL     OW 7960   0.478   3.977   3.497  0.0619 -0.4649  0.0695
 1972SOL    HW2 7961   0.470   4.072   3.494  0.7054 -0.4455 -1.2906
 1972SOL    HW3 7962   0.396   3.944   3.461 -0.1924 -0.4332  0.6121
 1972SOL    MW4 7963   0.466   3.985   3.492  0.1132 -0.4582 -0.0384
 1973SOL     OW 7964   0.451   4.255   3.435 -0.0760  0.0300 -0.0132
 1973SOL    HW2 7965   0.536   4.282   3.469  0.0420  1.2364 -1.2471
 1973SOL    HW3 7966   0.462   4.252   3.340 -1.3495 -0.0130 -0.1714
 1973SOL    MW4 7967   0.464   4.258   3.427 -0.2285  0.1836 -0.1972
 1974SOL     OW 7968   0.688   4.366   3.532  0.2860  0.0958  0.3320
 1974SOL    HW2 7969   0.777   4.344   3.508  0.3254  0.7390 -0.1301
 1974SOL    HW3 7970   0.669   4.447   3.483 -0.8210 -0.4730 -0.2014
 1974SOL    MW4 7971   0.697   4.374   3.522  0.1451  0.1059  0.2007
 1975SOL     OW 7972   1.088   4.660   3.419  0.1286 -0.5079  0.2611
 1975SOL    HW2 7973   1.165   4.706   3.452 -0.5405  0.2650  0.7729
 1975SOL    HW3 7974   1.103   4.652   3.325  1.3021 -1.2861  0.5047
 1975SOL    MW4 7975   1.100   4.665   3.411  0.1951 -0.5088  0.3607
 1976SOL     OW 7976   0.848   0.133   3.493  0.1677  0.0467  0.6968
 1976SOL    HW2 7977   0.833   0.122   3.587 -0.9415  1.3368  0.6882
 1976SOL    HW3 7978   0.918   0.071   3.472  0.0455 -0.6405  2.2637
 1976SOL    MW4 7979   0.855   0.123   3.502  0.0052  0.1262  0.9024
 1977SOL     OW 7980   0.901   0.398   3.405 -0.2724 -0.1984  0.0526
 1977SOL    HW2 7981   0.970   0.428   3.463 -1.1128 -0.4547  1.1860
 1977SOL    HW3 7982   0.896   0.304   3.421  0.0723 -0.4219 -1.0650
 1977SOL    MW4 7983   0.909   0.389   3.415 -0.3378 -0.2617  0.0546
 1978SOL     OW 7984   1.139   0.516   3.487 -0.2089  0.9198 -0.1977
 1978SOL    HW2 7985   1.149   0.534   3.581  0.4054  1.7832 -0.4295
 1978SOL    HW3 7986   1.121   0.601   3.448  0.3170  0.6801 -0.9744
 1978SOL    MW4 7987   1.138   0.529   3.494 -0.0584  1.0021 -0.3307
 1979SOL     OW 7988   1.110   0.778   3.369 -0.2308  0.1750  0.0638
 1979SOL    HW2 7989   1.179   0.828   3.413 -0.5263  0.5261  0.1285
 1979SOL    HW3 7990   1.028   0.815   3.402 -0.4593  0.4782 -0.8175
 1979SOL    MW4 7991   1.108   0.790   3.379 -0.2998  0.2614 -0.0439
 1980SOL     OW 7992   0.873   0.889   3.465  0.0516  0.4201  0.3064
 1980SOL    HW2 7993   0.883   0.980   3.435  0.3903  0.6606  1.1391
 1980SOL    HW3 7994   0.788   0.862   3.430  0.3221  0.7787 -0.6531
 1980SOL    MW4 7995   0.863   0.898   3.456  0.1320  0.4991  0.2894
 1981SOL     OW 7996   0.908   1.142   3.390 -0.2482 -0.2026  0.1718
 1981SOL    HW2 7997   0.985   1.182   3.428 -0.3325 -0.2971  0.4437
 1981SOL    HW3 7998   0.930   1.129   3.298  0.2580 -0.7168  0.3616
 1981SOL    MW4 7999   0.921   1.145   3.383 -0.1926 -0.2828  0.2327
 1982SOL     OW 8000   1.135   1.255   3.477  0.4454  0.1683 -0.2888
 1982SOL    HW2 8001   1.137   1.259   3.573  0.0431  1.6465 -0.3285
 1982SOL    HW3 8002   1.143   1.346   3.449 -1.3984 -0.0531 -1.6235
 1982SOL    MW4 8003   1.136   1.267   3.486  0.1491  0.3340 -0.4699
 1983SOL     OW 8004   1.140   1.511   3.411  0.0574 -0.6332  0.0156
 1983SOL    HW2 8005   1.216   1.551   3.453 -0.4954 -0.5876  0.9789
 1983SOL    HW3 8006   1.152   1.530   3.318  0.3430  0.8425  0.3461
 1983SOL    MW4 8007   1.152   1.519   3.404  0.0221 -0.4324  0.1864
 1984SOL     OW 8008   0.930   1.656   3.540  0.2799 -0.1222  0.5988
 1984SOL    HW2 8009   0.930   1.743   3.501 -1.3708  0.1623  1.2165
 1984SOL    HW3 8010   0.996   1.607   3.490  2.0154  1.7937  0.9710
 1984SOL    MW4 8011   0.939   1.661   3.528  0.2911  0.1682  0.7293
 1985SOL     OW 8012   0.890   1.885   3.375  0.0848  0.1752  0.2419
 1985SOL    HW2 8013   0.945   1.951   3.417 -1.2054  1.7830 -0.5532
 1985SOL    HW3 8014   0.804   1.898   3.413 -0.2294 -0.9483 -0.0562
 1985SOL    MW4 8015   0.886   1.895   3.386 -0.1268  0.2389  0.0975
 1986SOL     OW 8016   1.088   2.031   3.486  0.1942  0.1705  0.0892
 1986SOL    HW2 8017   1.163   1.987   3.446  0.0136 -0.2312  0.1946
 1986SOL    HW3 8018   1.089   2.119   3.447 -0.7559 -0.6267 -1.8328
 1986SOL    MW4 8019   1.098   2.037   3.475  0.0449  0.0122 -0.1504
 1987SOL     OW 8020   1.120   2.280   3.397  0.0752  0.0206 -0.4223
 1987SOL    HW2 8021   1.196   2.322   3.437 -1.6525  1.7536  1.1585
 1987SOL    HW3 8022   1.141   2.276   3.304  2.1434  0.3330 -0.0031
 1987SOL    MW4 8023   1.133   2.285   3.390  0.1200  0.2906 -0.1585
 1988SOL     OW 8024   0.916   2.440   3.520  0.2133  0.2091  0.4601
 1988SOL    HW2 8025   0.924   2.425   3.614  0.1940 -1.3545  0.2213
 1988SOL    HW3 8026   0.981   2.382   3.481 -1.0034 -0.4692 -0.5910
 1988SOL    MW4 8027   0.926   2.430   3.527  0.0501 -0.0868  0.2902
 1989SOL     OW 8028   0.898   2.706   3.418  0.0714 -0.1674  0.1423
 1989SOL    HW2 8029   0.978   2.756   3.438 -0.0128 -0.1330  0.3938
 1989SOL    HW3 8030   0.910   2.623   3.465 -0.3846  0.1379  0.8010
 1989SOL    MW4 8031   0.910   2.702   3.427  0.0001 -0.1225  0.2620
 1990SOL     OW 8032   1.130   2.869   3.481  0.1767 -0.5696 -0.0523
 1990SOL    HW2 8033   1.117   2.865   3.576  1.1079  0.3759  0.1210
 1990SOL    HW3 8034   1.216   2.829   3.468 -0.0753 -0.9621 -0.5422
 1990SOL    MW4 8035   1.140   2.863   3.492  0.2663 -0.4969 -0.0939
 1991SOL     OW 8036   1.132   3.116   3.364 -0.4282 -0.2743 -0.6357
 1991SOL    HW2 8037   1.124   3.029   3.404 -2.9827 -0.2470 -0.9838
 1991SOL    HW3 8038   1.146   3.099   3.271  2.5540 -0.3107 -0.2165
 1991SOL    MW4 8039   1.133   3.102   3.357 -0.3716 -0.2754 -0.6263
 1992SOL     OW 8040   0.901   3.233   3.456 -0.0894  0.3392 -0.0848
 1992SOL    HW2 8041   0.970   3.180   3.415  0.5791  0.0793  1.3254
 1992SOL    HW3 8042   0.820   3.189   3.432  0.4416 -1.1780  0.8094
 1992SOL    MW4 8043   0.899   3.220   3.448  0.0688  0.1047  0.2193
 1993SOL     OW 8044   0.903   3.498   3.404  0.0757  0.4628  0.4642
 1993SOL    HW2 8045   0.894   3.403   3.414  1.6945  0.4181  1.7376
 1993SOL    HW3 8046   0.900   3.512   3.310 -0.2205 -0.8455  0.2621
 1993SOL    MW4 8047   0.901   3.487   3.393  0.2503  0.2842  0.6056
 1994SOL     OW 8048   1.127   3.633   3.504  0.1604  0.3839 -0.3571
 1994SOL    HW2 8049   1.117   3.632   3.599 -1.3748  2.3820 -0.4763
 1994SOL    HW3 8050   1.060   3.573   3.472  0.4653 -0.0367 -0.2274
 1994SOL    MW4 8051   1.117   3.625   3.512 -0.0020  0.5922 -0.3555
 1995SOL     OW 8052   1.134   3.907   3.417 -0.5026 -0.1066  0.0771
 1995SOL    HW2 8053   1.197   3.951   3.473  0.1312  0.5352 -1.1141
 1995SOL    HW3 8054   1.131   3.817   3.449 -0.2200  0.2754  1.1875
 1995SOL    MW4 8055   1.142   3.901   3.429 -0.3816  0.0286  0.0663
 1996SOL     OW 8056   0.897   4.012   3.522 -0.1013 -0.0981  0.1723
 1996SOL    HW2 8057   0.980   3.967   3.507 -0.0319  0.8734 -2.6552
 1996SOL    HW3 8058   0.835   3.968   3.464 -0.5831  1.8021 -0.8196
 1996SOL    MW4 8059   0.899   4.001   3.512 -0.1557  0.2809 -0.3319
 1997SOL     OW 8060   0.928   4.267   3.410  0.2178  0.1767 -0.1240
 1997SOL    HW2 8061   0.923   4.182   3.453  2.3961  0.0799 -0.0138
 1997SOL    HW3 8062   0.935   4.246   3.317 -0.9651  0.2955 -0.2482
 1997SOL    MW4 8063   0.928   4.253   3.403  0.3490  0.1798 -0.1256
 1998SOL     OW 8064   1.126   4.396   3.525 -0.0364  0.5742  0.2919
 1998SOL    HW2 8065   1.064   4.350   3.469  0.4255 -0.4860  0.6355
 1998SOL    HW3 8066   1.118   4.488   3.499  0.2857  0.0828 -1.6120
 1998SOL    MW4 8067   1.117   4.402   3.514  0.0670  0.3691  0.0863
 1999SOL     OW 8068   1.572   4.644   3.352  0.1658 -0.3145 -0.1728
 1999SOL    HW2 8069   1.570   4.556   3.389  0.5268 -0.5392 -0.6795
 1999SOL    HW3 8070   1.501   4.691   3.396 -0.1517 -0.9143 -0.0434
 1999SOL    MW4 8071   1.562   4.639   3.363  0.1715 -0.4234 -0.2224
 2000SOL     OW 8072   1.327   0.090   3.492  0.0233  0.6894 -0.0322
 2000SOL    HW2 8073   1.332   0.088   3.588  1.4994 -1.6551 -0.1249
 2000SOL    HW3 8074   1.342   0.182   3.469 -1.2499  1.4435  2.0052
 2000SOL    MW4 8075   1.330   0.102   3.502  0.0501  0.4796  0.2246
 2001SOL     OW 8076   1.364   0.376   3.403 -0.5062  0.2674 -0.1752
 2001SOL    HW2 8077   1.430   0.442   3.425 -0.1473 -0.2115  0.1915
 2001SOL    HW3 8078   1.282   0.413   3.435 -0.2600  0.4089  0.3070
 2001SOL    MW4 8079   1.362   0.389   3.410 -0.4263  0.2229 -0.0629
 2002SOL     OW 8080   1.599   0.538   3.499 -0.0629  0.2735  0.0099
 2002SOL    HW2 8081   1.590   0.525   3.593 -0.2959 -0.8441 -0.1590
 2002SOL    HW3 8082   1.657   0.466   3.471 -0.6041  0.1564 -0.8136
 2002SOL    MW4 8083   1.606   0.527   3.508 -0.1651  0.1107 -0.1209
 2003SOL     OW 8084   1.581   0.797   3.406 -0.4153  0.4088 -0.2097
 2003SOL    HW2 8085   1.493   0.827   3.427 -0.5430 -0.2681  0.2385
 2003SOL    HW3 8086   1.584   0.706   3.437 -0.0952 -0.1049 -1.6830
 2003SOL    MW4 8087   1.570   0.789   3.412 -0.3898  0.2518 -0.3448
 2004SOL     OW 8088   1.320   0.915   3.490 -0.0145  0.6186 -0.1808
 2004SOL    HW2 8089   1.331   0.918   3.585  0.7865 -0.3297 -0.2342
 2004SOL    HW3 8090   1.337   1.004   3.461  1.6337  0.5092  0.3848
 2004SOL    MW4 8091   1.324   0.927   3.499  0.3085  0.4790 -0.1132
 2005SOL     OW 8092   1.376   1.161   3.379 -0.0420 -0.3545  0.0026
 2005SOL    HW2 8093   1.446   1.209   3.422  0.2308  0.3369 -1.1848
 2005SOL    HW3 8094   1.296   1.205   3.408  0.0559 -0.6867  0.7828
 2005SOL    MW4 8095   1.374   1.173   3.388  0.0070 -0.3071 -0.0510
 2006SOL     OW 8096   1.564   1.277   3.526  0.0212  0.1093 -0.0067
 2006SOL    HW2 8097   1.583   1.289   3.619  0.9981 -0.1728 -0.1595
 2006SOL    HW3 8098   1.649   1.255   3.487 -0.0098  2.1859 -1.3098
 2006SOL    MW4 8099   1.578   1.275   3.533  0.1460  0.3461 -0.1986
 2007SOL     OW 8100   1.608   1.529   3.404  0.2234  0.0884 -0.5261
 2007SOL    HW2 8101   1.599   1.435   3.415  2.5486 -0.2069 -0.8245
 2007SOL    HW3 8102   1.596   1.544   3.311 -0.2110  0.0870 -0.4689
 2007SOL    MW4 8103   1.605   1.519   3.393  0.4729  0.0492 -0.5579
 2008SOL     OW 8104   1.379   1.649   3.506  0.7851  0.0222  0.3597
 2008SOL    HW2 8105   1.378   1.645   3.601  1.2441 -1.0510  0.3269
 2008SOL    HW3 8106   1.465   1.613   3.481  0.2354 -0.7307 -0.4959
 2008SOL    MW4 8107   1.390   1.644   3.515  0.7733 -0.2186  0.2427
 2009SOL     OW 8108   1.311   1.906   3.377 -0.1458  0.7294  0.1590
 2009SOL    HW2 8109   1.372   1.956   3.430  1.7838 -0.7597 -0.6046
 2009SOL    HW3 8110   1.319   1.816   3.409  0.3549 -0.0268 -2.0179
 2009SOL    MW4 8111   1.320   1.901   3.389  0.1748  0.4332 -0.2291
 2010SOL     OW 8112   1.510   2.070   3.487  0.0385 -0.5754 -0.3870
 2010SOL    HW2 8113   1.594   2.029   3.468 -0.2091 -0.4373 -1.8058
 2010SOL    HW3 8114   1.515   2.156   3.446 -0.4729 -0.2394  0.2498
 2010SOL    MW4 8115   1.522   2.076   3.479 -0.0616 -0.5131 -0.4900
 2011SOL     OW 8116   1.581   2.349   3.414  0.3525 -0.3271 -0.4473
 2011SOL    HW2 8117   1.499   2.375   3.458  1.7494  0.7046  1.6389
 2011SOL    HW3 8118   1.560   2.353   3.321 -2.2520 -0.9823  0.0617
 2011SOL    MW4 8119   1.567   2.353   3.408  0.1931 -0.2773 -0.1049
 2012SOL     OW 8120   1.329   2.417   3.531  0.4880 -0.1982 -0.1403
 2012SOL    HW2 8121   1.345   2.414   3.625  2.5264 -1.3565 -0.4935
 2012SOL    HW3 8122   1.345   2.508   3.507 -1.9585  0.5462  0.9215
 2012SOL    MW4 8123   1.334   2.428   3.540  0.4342 -0.2527 -0.0467
 2013SOL     OW 8124   1.363   2.697   3.436  0.2238 -0.2518 -0.5791
 2013SOL    HW2 8125   1.442   2.741   3.468  0.8443 -0.6503 -1.5524
 2013SOL    HW3 8126   1.367   2.705   3.341 -0.3501 -1.2143 -0.6952
 2013SOL    MW4 8127   1.374   2.704   3.428  0.2301 -0.4315 -0.7226
 2014SOL     OW 8128   1.598   2.812   3.528  0.0007 -0.3577 -0.1694
 2014SOL    HW2 8129   1.660   2.762   3.474 -0.6060 -0.7467 -0.5195
 2014SOL    HW3 8130   1.578   2.890   3.475  1.7551  0.8112  0.8293
 2014SOL    MW4 8131   1.604   2.816   3.514  0.1520 -0.2546 -0.0839
 2015SOL     OW 8132   1.559   3.066   3.400 -0.0649 -0.1038 -0.0809
 2015SOL    HW2 8133   1.637   3.120   3.415  0.0055 -0.4446  0.8039
 2015SOL    HW3 8134   1.487   3.115   3.440  0.0135 -0.6942  0.8050
 2015SOL    MW4 8135   1.560   3.079   3.407 -0.0452 -0.2267  0.1526
 2016SOL     OW 8136   1.341   3.242   3.479 -0.2957  0.3544  0.1554
 2016SOL    HW2 8137   1.330   3.248   3.574  0.3212 -0.7432  0.2934
 2016SOL    HW3 8138   1.256   3.213   3.447  0.0445 -1.0815  0.5458
 2016SOL    MW4 8139   1.328   3.239   3.488 -0.1694  0.0203  0.2253
 2017SOL     OW 8140   1.347   3.489   3.381  0.2977  0.0827  0.2168
 2017SOL    HW2 8141   1.337   3.399   3.412  0.7075  0.2906  0.9676
 2017SOL    HW3 8142   1.278   3.538   3.425 -0.0539  0.0982 -0.3503
 2017SOL    MW4 8143   1.337   3.483   3.390  0.3053  0.1123  0.2413
 2018SOL     OW 8144   1.569   3.636   3.483 -0.0614 -0.5252 -0.1475
 2018SOL    HW2 8145   1.562   3.620   3.577  0.3165 -0.5314 -0.1189
 2018SOL    HW3 8146   1.503   3.579   3.444 -0.8569  0.1722  0.1789
 2018SOL    MW4 8147   1.560   3.626   3.490 -0.1163 -0.4339 -0.1009
 2019SOL     OW 8148   1.580   3.894   3.417  0.4760 -0.4745 -0.0338
 2019SOL    HW2 8149   1.572   3.801   3.437  2.8842 -0.6473  0.3378
 2019SOL    HW3 8150   1.569   3.900   3.322 -0.8308 -0.9749  0.0794
 2019SOL    MW4 8151   1.578   3.882   3.407  0.6213 -0.5631  0.0303
 2020SOL     OW 8152   1.347   4.030   3.532  0.6330  0.1927  0.3349
 2020SOL    HW2 8153   1.353   4.114   3.486  0.7744 -0.1319 -0.2437
 2020SOL    HW3 8154   1.411   3.973   3.488 -0.7393 -0.7626 -0.4799
 2020SOL    MW4 8155   1.356   4.033   3.520  0.4705  0.0243  0.1512
 2021SOL     OW 8156   1.340   4.256   3.405 -0.4699  0.8326 -0.1368
 2021SOL    HW2 8157   1.261   4.296   3.442 -0.3027  0.5299  0.5422
 2021SOL    HW3 8158   1.321   4.249   3.311 -1.3749  0.4563  0.0718
 2021SOL    MW4 8159   1.327   4.261   3.397 -0.5673  0.7429 -0.0196
 2022SOL     OW 8160   1.577   4.389   3.476  0.0765  0.0300 -0.1423
 2022SOL    HW2 8161   1.647   4.328   3.454  0.0875  0.8919 -2.6742
 2022SOL    HW3 8162   1.496   4.344   3.450 -0.0892  0.1715  0.1237
 2022SOL    MW4 8163   1.575   4.375   3.469  0.0560  0.1626 -0.4413
 2023SOL     OW 8164   2.006   4.627   3.390  0.0922 -0.1278 -0.7838
 2023SOL    HW2 8165   2.078   4.687   3.408  1.0708 -1.6112  0.2600
 2023SOL    HW3 8166   1.935   4.657   3.448  1.2287 -1.1609  1.1774
 2023SOL    MW4 8167   2.006   4.639   3.400  0.3715 -0.4601 -0.3872
 2024SOL     OW 8168   1.785   0.078   3.526 -0.0961  0.0703 -0.0680
 2024SOL    HW2 8169   1.778   0.074   3.622  1.1537  1.2199  0.0774
 2024SOL    HW3 8170   1.714   0.022   3.495 -0.1794 -0.7395  1.5366
 2024SOL    MW4 8171   1.774   0.070   3.535  0.0579  0.1151  0.1628
 2025SOL     OW 8172   1.789   0.342   3.431 -0.3193 -0.2758  0.2350
 2025SOL    HW2 8173   1.799   0.248   3.444 -1.0763 -0.5314 -0.9601
 2025SOL    HW3 8174   1.794   0.354   3.336 -0.6253  0.8291  0.3545
 2025SOL    MW4 8175   1.791   0.331   3.420 -0.4597 -0.1638  0.0932
 2026SOL     OW 8176   2.008   0.475   3.514 -0.1306 -0.6731 -0.3418
 2026SOL    HW2 8177   1.980   0.566   3.507  0.6339 -0.4743 -0.7536
 2026SOL    HW3 8178   1.931   0.424   3.487 -0.5175 -0.1513 -0.2215
 2026SOL    MW4 8179   1.994   0.480   3.510 -0.0808 -0.5780 -0.3805
 2027SOL     OW 8180   1.994   0.746   3.461  0.0150  0.2011 -0.2789
 2027SOL    HW2 8181   2.080   0.783   3.483 -0.2514  0.4164  0.4358
 2027SOL    HW3 8182   1.990   0.748   3.366  1.2981 -0.9381 -0.3767
 2027SOL    MW4 8183   2.005   0.751   3.451  0.1490  0.0792 -0.1974
 2028SOL     OW 8184   1.792   0.940   3.517 -0.7266 -0.2487  0.1311
 2028SOL    HW2 8185   1.858   0.878   3.486 -0.0024  0.0513  1.0178
 2028SOL    HW3 8186   1.709   0.896   3.503 -0.1590 -1.9767  1.9284
 2028SOL    MW4 8187   1.790   0.926   3.511 -0.5561 -0.4371  0.4852
 2029SOL     OW 8188   1.790   1.200   3.389 -0.4902 -0.0623  0.0786
 2029SOL    HW2 8189   1.869   1.253   3.396 -0.1276 -0.4654 -0.9245
 2029SOL    HW3 8190   1.807   1.123   3.442 -0.7028  0.4267  0.8746
 2029SOL    MW4 8191   1.802   1.197   3.397 -0.4704 -0.0509  0.0510
 2030SOL     OW 8192   2.027   1.312   3.492  0.2695 -0.4897 -0.1059
 2030SOL    HW2 8193   2.008   1.310   3.586 -1.4317  0.4722 -0.4136
 2030SOL    HW3 8194   2.042   1.404   3.472 -0.0834 -0.6015 -0.9167
 2030SOL    MW4 8195   2.027   1.324   3.502 -0.0014 -0.3775 -0.2537
 2031SOL     OW 8196   2.039   1.573   3.410 -0.0948 -0.2555  0.4867
 2031SOL    HW2 8197   2.121   1.617   3.432 -0.0359  0.7260 -1.5884
 2031SOL    HW3 8198   1.971   1.634   3.438 -0.0628 -0.1127  0.2578
 2031SOL    MW4 8199   2.041   1.587   3.417 -0.0827 -0.1073  0.1826
 2032SOL     OW 8200   1.810   1.697   3.504 -0.4112 -0.3598 -0.4551
 2032SOL    HW2 8201   1.782   1.785   3.478 -1.3859 -0.5471 -0.0593
 2032SOL    HW3 8202   1.744   1.639   3.467 -0.0927 -0.8778 -0.2145
 2032SOL    MW4 8203   1.798   1.701   3.496 -0.4978 -0.4528 -0.3710
 2033SOL     OW 8204   1.736   1.936   3.383  0.5154  0.1250 -0.1228
 2033SOL    HW2 8205   1.810   1.996   3.391  0.3797  0.4890 -1.4248
 2033SOL    HW3 8206   1.738   1.908   3.291  0.0908 -1.2283  0.2756
 2033SOL    MW4 8207   1.746   1.940   3.372  0.4416 -0.0056 -0.2422
 2034SOL     OW 8208   1.955   2.085   3.462 -0.0563  0.3215 -0.1553
 2034SOL    HW2 8209   2.037   2.050   3.426 -0.8140 -0.5385 -1.0502
 2034SOL    HW3 8210   1.961   2.179   3.445  0.0145  0.0549 -1.7489
 2034SOL    MW4 8211   1.967   2.093   3.455 -0.1470  0.1729 -0.4835
 2035SOL     OW 8212   2.002   2.332   3.374  0.5810 -0.1998 -0.0023
 2035SOL    HW2 8213   2.082   2.373   3.406  0.9394 -1.2251  0.4340
 2035SOL    HW3 8214   2.015   2.322   3.280  0.1242  1.4863 -0.2686
 2035SOL    MW4 8215   2.014   2.337   3.366  0.5682 -0.1128  0.0200
 2036SOL     OW 8216   1.811   2.458   3.514 -0.0241  0.5636 -0.0985
 2036SOL    HW2 8217   1.875   2.416   3.456 -0.2195  0.2987 -0.1228
 2036SOL    HW3 8218   1.726   2.423   3.486  0.0542 -1.0957  1.6272
 2036SOL    MW4 8219   1.808   2.448   3.502 -0.0395  0.3097  0.1259
 2037SOL     OW 8220   1.819   2.704   3.367 -0.1146 -0.0914  0.1708
 2037SOL    HW2 8221   1.888   2.743   3.420 -0.3637  0.9434 -0.2651
 2037SOL    HW3 8222   1.807   2.616   3.404  0.5209  0.2005  1.0766
 2037SOL    MW4 8223   1.826   2.697   3.378 -0.0637  0.0837  0.2332
 2038SOL     OW 8224   2.013   2.836   3.528  0.0486  0.4640  0.3168
 2038SOL    HW2 8225   2.027   2.840   3.623  0.1972 -0.4608  0.3473
 2038SOL    HW3 8226   2.014   2.927   3.499  1.0505  0.7002  1.0521
 2038SOL    MW4 8227   2.015   2.848   3.537  0.2000  0.3729  0.4177
 2039SOL     OW 8228   1.998   3.069   3.385  0.1791  0.0224 -0.0454
 2039SOL    HW2 8229   2.072   3.123   3.413 -0.6154  1.0753  0.0864
 2039SOL    HW3 8230   1.921   3.114   3.420 -0.5099 -1.1655 -0.0141
 2039SOL    MW4 8231   1.998   3.082   3.393 -0.0167  0.0045 -0.0238
 2040SOL     OW 8232   1.776   3.221   3.467 -0.3415  0.5858  0.5418
 2040SOL    HW2 8233   1.780   3.220   3.563  2.6463 -0.4160  0.4729
 2040SOL    HW3 8234   1.762   3.313   3.444 -0.5618  0.9018  1.9106
 2040SOL    MW4 8235   1.775   3.233   3.477  0.0236  0.4954  0.7136
 2041SOL     OW 8236   1.782   3.494   3.378 -0.1138  0.1378 -0.4162
 2041SOL    HW2 8237   1.702   3.544   3.396 -0.6503 -0.1413 -1.9311
 2041SOL    HW3 8238   1.797   3.506   3.284  0.9195 -0.8546 -0.3924
 2041SOL    MW4 8239   1.773   3.502   3.368 -0.0484 -0.0298 -0.6130
 2042SOL     OW 8240   2.043   3.667   3.458  0.0765  0.3333 -0.2405
 2042SOL    HW2 8241   2.116   3.607   3.445  0.3426  0.6531 -0.2298
 2042SOL    HW3 8242   1.965   3.611   3.456  0.2326  0.1359 -1.4105
 2042SOL    MW4 8243   2.042   3.651   3.456  0.1323  0.3495 -0.3936
 2043SOL     OW 8244   2.056   3.908   3.348  0.4530  0.0705 -0.1098
 2043SOL    HW2 8245   1.989   3.953   3.399 -0.2687 -0.1529 -0.8611
 2043SOL    HW3 8246   2.051   3.817   3.377  0.1336 -0.0302 -0.4738
 2043SOL    MW4 8247   2.047   3.902   3.358  0.3157  0.0277 -0.2573
 2044SOL     OW 8248   1.819   3.988   3.487  0.0911  0.4286 -0.4243
 2044SOL    HW2 8249   1.807   4.011   3.580 -0.1717  0.5932 -0.5001
 2044SOL    HW3 8250   1.743   3.933   3.466 -0.6045  1.5914 -0.9429
 2044SOL    MW4 8251   1.808   3.984   3.497 -0.0354  0.6037 -0.5028
 2045SOL     OW 8252   1.803   4.246   3.401 -0.1264 -0.1789  0.1437
 2045SOL    HW2 8253   1.818   4.162   3.445 -1.8557 -0.3270  0.5080
 2045SOL    HW3 8254   1.780   4.222   3.311  0.8544 -0.0089 -0.1562
 2045SOL    MW4 8255   1.802   4.232   3.395 -0.2252 -0.1760  0.1521
 2046SOL     OW 8256   2.035   4.356   3.468 -0.2252 -0.0687  0.2706
 2046SOL    HW2 8257   1.965   4.308   3.425  1.5173 -0.1769 -2.5514
 2046SOL    HW3 8258   2.013   4.448   3.453  0.0234 -0.0963 -0.2695
 2046SOL    MW4 8259   2.023   4.362   3.461  0.0374 -0.0863 -0.1731
 2047SOL     OW 8260   2.504   0.034   3.417 -0.3886 -0.0177 -0.1625
 2047SOL    HW2 8261   2.504  -0.059   3.441  0.9159 -0.4480 -1.6692
 2047SOL    HW3 8262   2.501   0.033   3.321 -2.9931  1.5633 -0.1223
 2047SOL    MW4 8263   2.504   0.022   3.407 -0.5603  0.1340 -0.3557
 2048SOL     OW 8264   2.227   0.119   3.481 -0.1985 -0.1119  0.0761
 2048SOL    HW2 8265   2.207   0.208   3.454 -0.4484 -0.7585 -1.9610
 2048SOL    HW3 8266   2.320   0.108   3.463 -0.0788 -0.1523  0.6916
 2048SOL    MW4 8267   2.237   0.129   3.475 -0.2155 -0.2026 -0.1113
 2049SOL     OW 8268   2.243   0.397   3.383 -0.4343  0.6387  0.2780
 2049SOL    HW2 8269   2.318   0.432   3.432  0.1555  0.2258 -0.3275
 2049SOL    HW3 8270   2.168   0.445   3.418  0.4386  2.9841 -0.9591
 2049SOL    MW4 8271   2.243   0.408   3.394 -0.2413  0.8937  0.0348
 2050SOL     OW 8272   2.473   0.514   3.488  0.0450 -0.2317 -0.3665
 2050SOL    HW2 8273   2.545   0.478   3.437  0.1805 -0.5891  0.0664
 2050SOL    HW3 8274   2.469   0.606   3.462  0.4793 -0.2727 -0.5967
 2050SOL    MW4 8275   2.482   0.521   3.478  0.1199 -0.2843 -0.3397
 2051SOL     OW 8276   2.460   0.793   3.419  0.4327 -0.0342  0.0312
 2051SOL    HW2 8277   2.549   0.829   3.425  0.9141 -1.3117  0.5877
 2051SOL    HW3 8278   2.440   0.797   3.325  1.7193 -1.2539 -0.3103
 2051SOL    MW4 8279   2.469   0.799   3.407  0.6659 -0.3636  0.0594
 2052SOL     OW 8280   2.220   0.891   3.516 -0.3595  0.4725 -0.0078
 2052SOL    HW2 8281   2.219   0.985   3.501  2.2052  0.5789  0.1854
 2052SOL    HW3 8282   2.302   0.861   3.476 -2.1833 -2.0515 -2.0370
 2052SOL    MW4 8283   2.231   0.899   3.509 -0.2620  0.1535 -0.2499
 2053SOL     OW 8284   2.241   1.165   3.419  0.4139  0.0259 -0.5860
 2053SOL    HW2 8285   2.318   1.215   3.446  0.8402 -1.2453  0.6082
 2053SOL    HW3 8286   2.167   1.215   3.454  0.7226  0.8621 -1.1041
 2053SOL    MW4 8287   2.242   1.178   3.427  0.5109 -0.0316 -0.4966
 2054SOL     OW 8288   2.470   1.335   3.500 -0.0635 -0.1647 -0.4558
 2054SOL    HW2 8289   2.443   1.305   3.586 -0.1619  2.0149  0.3088
 2054SOL    HW3 8290   2.553   1.290   3.484  0.6521  0.4702  1.3861
 2054SOL    MW4 8291   2.478   1.325   3.509  0.0176  0.2066 -0.1118
 2055SOL     OW 8292   2.474   1.582   3.346  0.0032 -0.2160 -0.2250
 2055SOL    HW2 8293   2.462   1.504   3.400  0.4690  0.1761  0.4517
 2055SOL    HW3 8294   2.460   1.552   3.256  1.6722 -1.4065 -0.1050
 2055SOL    MW4 8295   2.470   1.568   3.341  0.2849 -0.3213 -0.1197
 2056SOL     OW 8296   2.268   1.701   3.477  0.0777 -0.1700  0.1556
 2056SOL    HW2 8297   2.273   1.674   3.569 -0.4299 -0.7759  0.0025
 2056SOL    HW3 8298   2.351   1.671   3.439  0.6839  0.8673  0.6186
 2056SOL    MW4 8299   2.280   1.694   3.484  0.0911 -0.1129  0.1962
 2057SOL     OW 8300   2.192   1.964   3.358 -0.5574  0.0735 -0.4200
 2057SOL    HW2 8301   2.222   1.877   3.386 -1.8989  0.0586  1.0566
 2057SOL    HW3 8302   2.213   1.967   3.265 -0.7251 -1.9413 -0.5642
 2057SOL    MW4 8303   2.199   1.953   3.349 -0.7565 -0.1943 -0.2441
 2058SOL     OW 8304   2.449   2.043   3.424 -0.4402  0.2672  0.2715
 2058SOL    HW2 8305   2.435   2.053   3.518 -1.5883 -1.0377  0.2618
 2058SOL    HW3 8306   2.369   2.001   3.393  1.0422 -1.7855 -0.8490
 2058SOL    MW4 8307   2.436   2.039   3.432 -0.3960 -0.1757  0.1223
 2059SOL     OW 8308   2.445   2.312   3.349 -0.4340 -0.0402  0.2246
 2059SOL    HW2 8309   2.514   2.361   3.395  0.2377 -0.7517 -0.0206
 2059SOL    HW3 8310   2.445   2.226   3.390 -2.3961  0.4958  1.4396
 2059SOL    MW4 8311   2.454   2.307   3.361 -0.6044 -0.0637  0.3524
 2060SOL     OW 8312   2.236   2.462   3.435 -0.7217 -0.1833 -0.0272
 2060SOL    HW2 8313   2.310   2.414   3.399  0.5662  0.7192  1.3632
 2060SOL    HW3 8314   2.231   2.432   3.526 -1.4592  0.4751  0.1534
 2060SOL    MW4 8315   2.245   2.452   3.443 -0.6490  0.0226  0.1802
 2061SOL     OW 8316   2.210   2.728   3.364 -0.0721  0.5036  0.0526
 2061SOL    HW2 8317   2.138   2.755   3.421 -1.2784 -0.5804 -0.9234
 2061SOL    HW3 8318   2.230   2.638   3.392 -1.1682 -0.3113 -1.6595
 2061SOL    MW4 8319   2.203   2.719   3.375 -0.3762  0.2530 -0.3021
 2062SOL     OW 8320   2.460   2.848   3.447  0.0930  0.3798 -0.3142
 2062SOL    HW2 8321   2.458   2.939   3.418 -1.8917  0.8365  1.1682
 2062SOL    HW3 8322   2.372   2.815   3.428  0.7231 -1.1822 -0.6323
 2062SOL    MW4 8323   2.448   2.856   3.441 -0.0858  0.2341 -0.1605
 2063SOL     OW 8324   2.441   3.105   3.361  1.3566 -0.5073 -0.3905
 2063SOL    HW2 8325   2.498   3.163   3.412  1.5988 -0.0239 -1.2092
 2063SOL    HW3 8326   2.464   3.123   3.270 -1.2343  0.8590 -0.8075
 2063SOL    MW4 8327   2.452   3.115   3.356  1.0469 -0.2635 -0.5536
 2064SOL     OW 8328   2.210   3.229   3.461 -0.2459 -0.0067 -0.6097
 2064SOL    HW2 8329   2.241   3.220   3.551  1.2956  1.7313 -0.9538
 2064SOL    HW3 8330   2.275   3.183   3.409 -0.4655  0.0735 -0.9551
 2064SOL    MW4 8331   2.222   3.221   3.466 -0.0713  0.2334 -0.7007
 2065SOL     OW 8332   2.269   3.506   3.392 -0.0210  0.6733  0.0039
 2065SOL    HW2 8333   2.248   3.414   3.408 -0.1916  0.6982 -0.0801
 2065SOL    HW3 8334   2.272   3.514   3.297 -0.7250  0.9154 -0.0058
 2065SOL    MW4 8335   2.266   3.495   3.382 -0.1364  0.7083 -0.0083
 2066SOL     OW 8336   2.516   3.654   3.486  0.4623 -0.0529 -0.1919
 2066SOL    HW2 8337   2.514   3.742   3.450 -0.3516  0.8006  1.8309
 2066SOL    HW3 8338   2.436   3.612   3.452 -0.1542  0.6442  0.3669
 2066SOL    MW4 8339   2.505   3.660   3.477  0.2737  0.1514  0.1488
 2067SOL     OW 8340   2.502   3.899   3.338 -0.3044  0.8102  0.0641
 2067SOL    HW2 8341   2.583   3.934   3.375 -0.1467  0.3167  0.1883
 2067SOL    HW3 8342   2.432   3.944   3.385 -0.1061  1.2491 -0.0529
 2067SOL    MW4 8343   2.503   3.909   3.349 -0.2575  0.8028  0.0653
 2068SOL     OW 8344   2.293   4.013   3.461 -0.1935  0.0811 -0.2281
 2068SOL    HW2 8345   2.282   4.106   3.441 -0.7665  0.2937  1.0492
 2068SOL    HW3 8346   2.215   3.972   3.426 -0.8225  0.3438  0.8548
 2068SOL    MW4 8347   2.282   4.020   3.454 -0.3519  0.1435  0.0834
 2069SOL     OW 8348   2.283   4.272   3.395  0.6594  0.6443  0.0853
 2069SOL    HW2 8349   2.203   4.314   3.424  0.4815  1.6943 -1.8351
 2069SOL    HW3 8350   2.285   4.286   3.300  1.6778 -1.8309 -0.3087
 2069SOL    MW4 8351   2.273   4.279   3.386  0.7703  0.4563 -0.2198
 2070SOL     OW 8352   2.515   4.418   3.486 -0.2633 -0.1212 -0.8876
 2070SOL    HW2 8353   2.499   4.428   3.580  1.2532 -0.3560 -0.5986
 2070SOL    HW3 8354   2.443   4.362   3.455 -0.2794 -0.7547  0.2855
 2070SOL    MW4 8355   2.503   4.412   3.494 -0.0653 -0.2360 -0.6948
 2071SOL     OW 8356   2.960   0.015   3.388 -0.0751  0.2781 -0.1794
 2071SOL    HW2 8357   2.889   0.070   3.421  0.0466 -0.5139  1.4734
 2071SOL    HW3 8358   2.946  -0.070   3.430  0.8352 -0.3910 -1.2094
 2071SOL    MW4 8359   2.949   0.011   3.398  0.0610  0.0853 -0.0973
 2072SOL     OW 8360   2.743   0.161   3.517 -0.0254  0.2768 -0.0595
 2072SOL    HW2 8361   2.735   0.252   3.490 -0.7527  0.2337  0.0073
 2072SOL    HW3 8362   2.658   0.122   3.496  0.1289 -0.2706  0.3288
 2072SOL    MW4 8363   2.731   0.168   3.511 -0.1009  0.1989  0.0005
 2073SOL     OW 8364   2.705   0.409   3.390  0.1331 -0.1450 -0.2982
 2073SOL    HW2 8365   2.778   0.458   3.428 -0.0905  0.6053 -0.8103
 2073SOL    HW3 8366   2.713   0.424   3.295  0.7893 -2.1230 -0.5859
 2073SOL    MW4 8367   2.715   0.418   3.382  0.1903 -0.3070 -0.4036
 2074SOL     OW 8368   2.948   0.526   3.473 -0.1850 -0.3981 -0.1199
 2074SOL    HW2 8369   2.945   0.531   3.569 -1.4641  0.4863 -0.2008
 2074SOL    HW3 8370   2.956   0.616   3.444  1.0204 -0.7210 -0.8467
 2074SOL    MW4 8371   2.949   0.538   3.482 -0.1945 -0.3240 -0.2265
 2075SOL     OW 8372   2.953   0.777   3.383  0.1946  0.2743  0.4936
 2075SOL    HW2 8373   3.030   0.814   3.426 -0.0552 -0.3166  1.4543
 2075SOL    HW3 8374   2.880   0.804   3.438 -0.0683 -1.0193  0.7765
 2075SOL    MW4 8375   2.953   0.786   3.396  0.1268  0.0257  0.6576
 2076SOL     OW 8376   2.726   0.890   3.504  0.8023  0.0119  0.0835
 2076SOL    HW2 8377   2.720   0.903   3.598  0.9132  1.1013 -0.0541
 2076SOL    HW3 8378   2.717   0.978   3.467 -0.4551 -0.5419 -0.9791
 2076SOL    MW4 8379   2.724   0.904   3.511  0.6514  0.0826 -0.0749
 2077SOL     OW 8380   2.673   1.151   3.415  0.4484 -0.2214 -0.1203
 2077SOL    HW2 8381   2.747   1.202   3.447 -0.6048  1.2529  0.0390
 2077SOL    HW3 8382   2.680   1.154   3.320  0.2619  0.4399 -0.1165
 2077SOL    MW4 8383   2.683   1.158   3.407  0.2847  0.0604 -0.0989
 2078SOL     OW 8384   2.903   1.293   3.517 -0.0233 -0.3678 -0.6203
 2078SOL    HW2 8385   2.881   1.287   3.610  0.5765  0.7413 -0.4004
 2078SOL    HW3 8386   2.960   1.218   3.501 -1.5186 -1.5417 -0.4961
 2078SOL    MW4 8387   2.908   1.283   3.527 -0.1416 -0.3765 -0.5748
 2079SOL     OW 8388   2.907   1.545   3.420  0.0710  0.2162  0.0438
 2079SOL    HW2 8389   2.819   1.575   3.444 -0.3189 -0.7126 -0.2152
 2079SOL    HW3 8390   2.917   1.461   3.465  0.4749 -0.1220 -0.6793
 2079SOL    MW4 8391   2.897   1.538   3.429  0.0727  0.0491 -0.0858
 2080SOL     OW 8392   2.691   1.704   3.486 -0.0373  0.1327 -0.3248
 2080SOL    HW2 8393   2.696   1.794   3.455  1.1672 -0.5534 -2.2598
 2080SOL    HW3 8394   2.613   1.669   3.442 -0.1291  0.0462 -0.0924
 2080SOL    MW4 8395   2.681   1.711   3.476  0.1094  0.0305 -0.5496
 2081SOL     OW 8396   2.711   1.968   3.337  0.0475 -0.8497 -0.1123
 2081SOL    HW2 8397   2.627   2.004   3.364 -0.2428 -1.5573 -0.0576
 2081SOL    HW3 8398   2.708   1.970   3.241  0.7960  1.0089 -0.1257
 2081SOL    MW4 8399   2.700   1.973   3.328  0.1080 -0.6979 -0.1070
 2082SOL     OW 8400   2.929   2.113   3.432 -0.2427 -0.4466  0.0455
 2082SOL    HW2 8401   2.941   2.117   3.527  1.2127 -1.8699 -0.0778
 2082SOL    HW3 8402   2.855   2.053   3.420  1.0736 -2.1126  0.1781
 2082SOL    MW4 8403   2.921   2.106   3.443  0.1230 -0.8543  0.0463
 2083SOL     OW 8404   2.888   2.368   3.354 -0.1227  0.6352 -0.3869
 2083SOL    HW2 8405   2.899   2.275   3.374  1.4283  0.6745 -0.9493
 2083SOL    HW3 8406   2.867   2.370   3.260  1.1064  0.9052 -0.6680
 2083SOL    MW4 8407   2.887   2.356   3.344  0.2444  0.6759 -0.4983
 2084SOL     OW 8408   2.648   2.479   3.445 -0.2543 -0.2276  0.4526
 2084SOL    HW2 8409   2.644   2.473   3.541  0.8836 -1.3270  0.4444
 2084SOL    HW3 8410   2.724   2.425   3.421  0.0247  0.7889 -0.9940
 2084SOL    MW4 8411   2.657   2.471   3.455 -0.0677 -0.2387  0.2606
 2085SOL     OW 8412   2.683   2.730   3.335  0.0032  0.0127 -0.1662
 2085SOL    HW2 8413   2.679   2.645   3.379  0.9615 -0.1190 -0.3200
 2085SOL    HW3 8414   2.613   2.781   3.376 -0.2385 -0.6813  0.2969
 2085SOL    MW4 8415   2.674   2.726   3.346  0.0980 -0.0963 -0.1254
 2086SOL     OW 8416   2.909   2.863   3.458 -0.0147  0.1596 -0.3878
 2086SOL    HW2 8417   2.903   2.846   3.552 -0.7164  0.6749 -0.3370
 2086SOL    HW3 8418   2.853   2.798   3.417  0.8508 -0.5190 -0.5010
 2086SOL    MW4 8419   2.901   2.852   3.465  0.0069  0.1378 -0.3963
 2087SOL     OW 8420   2.865   3.131   3.364  0.1681  0.1039 -0.1850
 2087SOL    HW2 8421   2.888   3.043   3.393  0.2416 -0.2737 -1.3844
 2087SOL    HW3 8422   2.870   3.128   3.269  1.6890  1.8286 -0.1823
 2087SOL    MW4 8423   2.868   3.119   3.355  0.3784  0.2813 -0.3428
 2088SOL     OW 8424   2.644   3.253   3.467 -0.2548 -0.1415 -0.4323
 2088SOL    HW2 8425   2.650   3.245   3.562  0.3531  2.0537 -0.2447
 2088SOL    HW3 8426   2.721   3.206   3.434 -1.1611 -2.0183  0.0668
 2088SOL    MW4 8427   2.655   3.246   3.475 -0.2940 -0.0994 -0.3417
 2089SOL     OW 8428   2.698   3.503   3.346 -0.2863  0.0497  0.4830
 2089SOL    HW2 8429   2.684   3.416   3.383 -0.6979 -0.3185 -0.5325
 2089SOL    HW3 8430   2.623   3.554   3.376 -0.3759 -0.1148  0.5425
 2089SOL    MW4 8431   2.686   3.498   3.355 -0.3524 -0.0205  0.3567
 2090SOL     OW 8432   2.904   3.585   3.505  0.4410 -0.2102  0.6596
 2090SOL    HW2 8433   2.921   3.673   3.472  2.7929 -1.0739 -0.5866
 2090SOL    HW3 8434   2.828   3.555   3.455  0.3070  0.6997  0.3069
 2090SOL    MW4 8435   2.896   3.593   3.494  0.7339 -0.2041  0.4487
 2091SOL     OW 8436   2.940   3.835   3.408  0.2059 -0.4670  0.1373
 2091SOL    HW2 8437   3.017   3.888   3.429  0.0248 -0.3141  0.4210
 2091SOL    HW3 8438   2.866   3.889   3.436 -0.0392 -0.2843 -0.8407
 2091SOL    MW4 8439   2.940   3.849   3.414  0.1497 -0.4227  0.0455
 2092SOL     OW 8440   2.740   4.023   3.469 -0.5888  0.0943  0.0963
 2092SOL    HW2 8441   2.715   4.027   3.561 -0.3036  0.6899  0.1504
 2092SOL    HW3 8442   2.734   4.113   3.438 -1.4069 -0.2011 -0.6671
 2092SOL    MW4 8443   2.736   4.035   3.477 -0.6590  0.1335  0.0026
 2093SOL     OW 8444   2.728   4.293   3.387 -0.1734  0.0845  0.2100
 2093SOL    HW2 8445   2.804   4.347   3.412  0.6566 -1.1415  0.3649
 2093SOL    HW3 8446   2.652   4.343   3.418  0.6791  0.2525  2.1075
 2093SOL    MW4 8447   2.728   4.307   3.394  0.0484 -0.0548  0.4809
 2094SOL     OW 8448   2.933   4.427   3.489 -0.8214 -0.1617  0.2010
 2094SOL    HW2 8449   3.020   4.389   3.477 -0.3548  0.5041  1.4061
 2094SOL    HW3 8450   2.911   4.411   3.581 -0.4327  2.7969  0.8578
 2094SOL    MW4 8451   2.941   4.420   3.499 -0.7088  0.3161  0.4468
 2095SOL     OW 8452   3.399   4.664   3.387 -0.2447  0.2216 -0.4573
 2095SOL    HW2 8453   3.318   4.701   3.422 -1.6908 -3.2568  0.1348
 2095SOL    HW3 8454   3.394   4.679   3.293 -1.8129 -0.2840 -0.4724
 2095SOL    MW4 8455   3.388   4.671   3.379 -0.6425 -0.3041 -0.3812
 2096SOL     OW 8456   3.175   0.147   3.496  0.2461 -0.8140 -0.6211
 2096SOL    HW2 8457   3.168   0.235   3.459  0.1603 -0.4177  0.3372
 2096SOL    HW3 8458   3.101   0.099   3.458 -1.2568  0.2588  0.8621
 2096SOL    MW4 8459   3.164   0.152   3.486  0.0365 -0.6202 -0.2990
 2097SOL     OW 8460   3.165   0.403   3.369 -0.1881  0.5463 -0.0434
 2097SOL    HW2 8461   3.082   0.441   3.399 -1.5937 -1.6037 -1.0395
 2097SOL    HW3 8462   3.153   0.389   3.275  1.9471  1.7197 -0.5272
 2097SOL    MW4 8463   3.152   0.406   3.361 -0.0918  0.4175 -0.2389
 2098SOL     OW 8464   3.400   0.489   3.504 -0.0170  0.4179  0.3750
 2098SOL    HW2 8465   3.383   0.490   3.598  0.2410  1.5520  0.4195
 2098SOL    HW3 8466   3.321   0.454   3.465 -0.4990  0.8478  0.9513
 2098SOL    MW4 8467   3.388   0.485   3.512 -0.0467  0.6242  0.4568
 2099SOL     OW 8468   3.371   0.750   3.387 -0.3161 -0.1836  0.2293
 2099SOL    HW2 8469   3.446   0.790   3.430 -0.8441  1.5628 -0.3853
 2099SOL    HW3 8470   3.375   0.658   3.411  2.5280 -0.3032 -0.5179
 2099SOL    MW4 8471   3.381   0.743   3.396 -0.0105  0.0311  0.0498
 2100SOL     OW 8472   3.172   0.891   3.497 -0.3631  0.4475  0.1423
 2100SOL    HW2 8473   3.166   0.978   3.459 -0.1729  0.1446 -0.5892
 2100SOL    HW3 8474   3.251   0.853   3.459 -1.8451 -1.0252 -1.6142
 2100SOL    MW4 8475   3.181   0.897   3.487 -0.5336  0.2133 -0.1857
 2101SOL     OW 8476   3.138   1.157   3.400  0.3044 -0.4001  0.1143
 2101SOL    HW2 8477   3.199   1.222   3.435  1.1870 -0.2765 -1.6538
 2101SOL    HW3 8478   3.147   1.163   3.305  0.2857 -3.0008 -0.0804
 2101SOL    MW4 8479   3.147   1.166   3.392  0.4184 -0.7271 -0.1447
 2102SOL     OW 8480   3.317   1.332   3.527 -0.0989  0.3637 -0.0365
 2102SOL    HW2 8481   3.388   1.275   3.495 -0.9951 -0.5313 -0.4594
 2102SOL    HW3 8482   3.335   1.416   3.485  1.4515  0.5152  0.8850
 2102SOL    MW4 8483   3.329   1.335   3.517 -0.0126  0.2656  0.0293
 2103SOL     OW 8484   3.363   1.586   3.399 -0.3845  0.0236 -0.4938
 2103SOL    HW2 8485   3.438   1.629   3.439 -0.0044 -2.1438  1.2125
 2103SOL    HW3 8486   3.287   1.623   3.445 -0.0367 -1.3785  1.2691
 2103SOL    MW4 8487   3.363   1.597   3.410 -0.2885 -0.4474 -0.0358
 2104SOL     OW 8488   3.129   1.701   3.498 -0.0001  0.3914  0.1904
 2104SOL    HW2 8489   3.114   1.778   3.443  0.2093  1.1080  1.1192
 2104SOL    HW3 8490   3.055   1.643   3.480 -0.0947  0.7598 -0.6053
 2104SOL    MW4 8491   3.117   1.704   3.488  0.0150  0.5344  0.2079
 2105SOL     OW 8492   3.142   1.944   3.348  0.1567 -0.6829  0.3416
 2105SOL    HW2 8493   3.065   1.998   3.366  0.9465  0.5441  0.1052
 2105SOL    HW3 8494   3.153   1.948   3.253  0.4690 -0.8932  0.3660
 2105SOL    MW4 8495   3.134   1.952   3.338  0.3023 -0.5488  0.3138
 2106SOL     OW 8496   3.352   2.066   3.468 -0.3697 -0.2734 -0.0881
 2106SOL    HW2 8497   3.350   2.145   3.415 -1.3711 -0.7033 -0.7126
 2106SOL    HW3 8498   3.286   2.009   3.429 -0.2299 -1.1016  0.8453
 2106SOL    MW4 8499   3.343   2.069   3.456 -0.4835 -0.4394 -0.0474
 2107SOL     OW 8500   3.366   2.303   3.319  0.6138  0.0004 -0.0008
 2107SOL    HW2 8501   3.447   2.343   3.350  0.5050 -0.0176  0.2993
 2107SOL    HW3 8502   3.296   2.346   3.368  0.5197 -0.8104  0.5865
 2107SOL    MW4 8503   3.367   2.314   3.329  0.5870 -0.1087  0.1163
 2108SOL     OW 8504   3.146   2.431   3.418  0.7543 -0.1787  0.2578
 2108SOL    HW2 8505   3.161   2.522   3.392  0.3938 -0.0728  0.4182
 2108SOL    HW3 8506   3.054   2.414   3.395  1.4108 -1.1780 -1.7937
 2108SOL    MW4 8507   3.136   2.441   3.412  0.7932 -0.2966  0.0083
 2109SOL     OW 8508   3.153   2.716   3.341 -0.2303  0.3281 -0.4630
 2109SOL    HW2 8509   3.224   2.748   3.397 -0.3010  1.2248 -0.8868
 2109SOL    HW3 8510   3.076   2.767   3.367 -0.7347 -0.6516  0.0038
 2109SOL    MW4 8511   3.152   2.727   3.352 -0.3061  0.3171 -0.4573
 2110SOL     OW 8512   3.373   2.849   3.460  0.7150  0.5936  0.3211
 2110SOL    HW2 8513   3.452   2.798   3.446  0.2159 -0.1580  0.1930
 2110SOL    HW3 8514   3.370   2.865   3.554  1.2706  1.0440  0.2631
 2110SOL    MW4 8515   3.383   2.844   3.470  0.7226  0.5541  0.2964
 2111SOL     OW 8516   3.339   3.092   3.357  0.0024  0.3893  0.2399
 2111SOL    HW2 8517   3.343   3.007   3.400  0.9772  0.9633  1.3283
 2111SOL    HW3 8518   3.263   3.135   3.397 -0.0813  0.2971  0.1816
 2111SOL    MW4 8519   3.329   3.087   3.368  0.1199  0.4528  0.3760
 2112SOL     OW 8520   3.096   3.226   3.472 -0.1421 -0.2198 -0.2650
 2112SOL    HW2 8521   3.086   3.318   3.447  1.4941  0.1884  0.5406
 2112SOL    HW3 8522   3.031   3.179   3.419  0.3891  1.1481 -2.1397
 2112SOL    MW4 8523   3.086   3.232   3.462  0.1438  0.0145 -0.4058
 2113SOL     OW 8524   3.134   3.492   3.377 -0.4006 -0.1249 -0.4195
 2113SOL    HW2 8525   3.051   3.521   3.413 -0.9749 -1.2426 -0.8076
 2113SOL    HW3 8526   3.124   3.504   3.282  0.3259  0.8639 -0.3701
 2113SOL    MW4 8527   3.122   3.497   3.369 -0.3803 -0.1421 -0.4642
 2114SOL     OW 8528   3.375   3.611   3.473  0.1852  0.0664 -0.4054
 2114SOL    HW2 8529   3.450   3.555   3.453  0.1739  0.0387 -0.3708
 2114SOL    HW3 8530   3.299   3.561   3.442  0.1021 -0.3216  0.3970
 2114SOL    MW4 8531   3.375   3.597   3.467  0.1724  0.0114 -0.2952
 2115SOL     OW 8532   3.417   3.855   3.357  0.3995 -0.1027  0.4286
 2115SOL    HW2 8533   3.487   3.904   3.400  1.0053 -1.2343  0.7417
 2115SOL    HW3 8534   3.426   3.766   3.390 -1.3755 -0.2029  0.7007
 2115SOL    MW4 8535   3.427   3.850   3.367  0.2451 -0.2651  0.5057
 2116SOL     OW 8536   3.170   3.965   3.460 -0.1852  0.1949  0.5439
 2116SOL    HW2 8537   3.171   3.984   3.554  0.0899 -0.0056  0.5839
 2116SOL    HW3 8538   3.254   3.920   3.445 -0.3824 -0.0767  0.2684
 2116SOL    MW4 8539   3.181   3.962   3.471 -0.1750  0.1323  0.5131
 2117SOL     OW 8540   3.137   4.229   3.389 -0.2141  0.1521 -0.1376
 2117SOL    HW2 8541   3.216   4.276   3.415 -0.4197  0.4211  0.0079
 2117SOL    HW3 8542   3.158   4.137   3.404 -0.6838  0.3692  2.0125
 2117SOL    MW4 8543   3.150   4.223   3.395 -0.3030  0.2165  0.1652
 2118SOL     OW 8544   3.344   4.390   3.466  0.2431 -0.2795  0.4954
 2118SOL    HW2 8545   3.373   4.388   3.558  0.4415 -1.3739  0.4168
 2118SOL    HW3 8546   3.362   4.479   3.437  1.1528 -0.2164  1.2259
 2118SOL    MW4 8547   3.350   4.401   3.474  0.3893 -0.4153  0.5815
 2119SOL     OW 8548   3.807   0.004   3.389 -0.8913  0.0072  0.4376
 2119SOL    HW2 8549   3.733   0.037   3.440 -0.5258  0.1396  0.8840
 2119SOL    HW3 8550   3.775   0.004   3.299 -1.9448 -1.3664  0.7970
 2119SOL    MW4 8551   3.793   0.008   3.384 -0.9818 -0.1566  0.5438
 2120SOL     OW 8552   3.606   0.129   3.510  0.1705  0.4618  0.2091
 2120SOL    HW2 8553   3.614   0.218   3.478  1.1551 -0.3614 -1.9243
 2120SOL    HW3 8554   3.538   0.089   3.455  1.7404 -0.9061 -0.8020
 2120SOL    MW4 8555   3.598   0.135   3.498  0.5078  0.1727 -0.2058
 2121SOL     OW 8556   3.604   0.354   3.370  0.3595 -0.2449  0.0012
 2121SOL    HW2 8557   3.663   0.424   3.399 -0.4938  1.5939 -2.4304
 2121SOL    HW3 8558   3.518   0.381   3.403  0.3006 -1.0017  0.4555
 2121SOL    MW4 8559   3.601   0.367   3.378  0.2391 -0.1021 -0.2592
 2122SOL     OW 8560   3.804   0.510   3.471 -0.2625 -0.2025  0.3769
 2122SOL    HW2 8561   3.820   0.506   3.565  0.0417 -1.1482  0.2995
 2122SOL    HW3 8562   3.876   0.459   3.433 -0.4606  0.0578 -0.3521
 2122SOL    MW4 8563   3.816   0.503   3.478 -0.2487 -0.2930  0.2706
 2123SOL     OW 8564   3.787   0.797   3.435 -0.1758 -0.0161 -0.3837
 2123SOL    HW2 8565   3.862   0.839   3.478  1.1079 -0.8728 -1.6907
 2123SOL    HW3 8566   3.809   0.704   3.435 -0.9638 -0.2122 -1.3076
 2123SOL    MW4 8567   3.800   0.790   3.440 -0.1104 -0.1550 -0.6781
 2124SOL     OW 8568   3.545   0.925   3.518  0.2172 -0.1735 -0.4999
 2124SOL    HW2 8569   3.558   0.908   3.612  0.2074 -0.4717 -0.5497
 2124SOL    HW3 8570   3.626   0.895   3.477  0.4554  0.5048 -0.5251
 2124SOL    MW4 8571   3.557   0.919   3.525  0.2475 -0.1234 -0.5100
 2125SOL     OW 8572   3.514   1.171   3.404  0.4090 -0.0248 -0.0860
 2125SOL    HW2 8573   3.505   1.082   3.437 -0.7471  0.3572  0.6297
 2125SOL    HW3 8574   3.543   1.160   3.313 -0.6660 -1.1357 -0.2944
 2125SOL    MW4 8575   3.517   1.158   3.396  0.1144 -0.1211 -0.0188
 2126SOL     OW 8576   3.781   1.283   3.500 -0.5246 -0.3037  0.1582
 2126SOL    HW2 8577   3.770   1.290   3.595 -0.8857 -0.7079  0.1535
 2126SOL    HW3 8578   3.693   1.263   3.468 -0.9144  2.3821 -0.5387
 2126SOL    MW4 8579   3.768   1.281   3.508 -0.6237 -0.0027  0.0656
 2127SOL     OW 8580   3.780   1.565   3.411 -0.0316  0.2373 -0.1528
 2127SOL    HW2 8581   3.866   1.594   3.440 -0.8736  1.0307  1.5910
 2127SOL    HW3 8582   3.769   1.478   3.451 -0.3003  0.4142  0.1632
 2127SOL    MW4 8583   3.790   1.557   3.420 -0.1781  0.3651  0.1190
 2128SOL     OW 8584   3.591   1.714   3.525  0.0382  0.6242  0.4713
 2128SOL    HW2 8585   3.592   1.801   3.486 -0.7102  0.6082  0.4112
 2128SOL    HW3 8586   3.652   1.662   3.472 -0.7436  0.6777 -0.4865
 2128SOL    MW4 8587   3.599   1.718   3.513 -0.1638  0.6292  0.3369
 2129SOL     OW 8588   3.571   1.927   3.381 -0.2426  0.1598  0.6100
 2129SOL    HW2 8589   3.649   1.979   3.404 -0.0302  0.8531 -1.5985
 2129SOL    HW3 8590   3.498   1.975   3.419  0.1057  1.2209 -0.0610
 2129SOL    MW4 8591   3.572   1.940   3.389 -0.1686  0.3911  0.2301
 2130SOL     OW 8592   3.795   2.073   3.461  0.1587 -0.3218 -0.7058
 2130SOL    HW2 8593   3.794   2.085   3.556  2.2982  0.3362 -0.7465
 2130SOL    HW3 8594   3.867   2.013   3.445 -0.8365 -1.2424 -1.8443
 2130SOL    MW4 8595   3.804   2.067   3.471  0.3095 -0.3564 -0.8614
 2131SOL     OW 8596   3.823   2.310   3.308  0.8143 -0.2355  0.2988
 2131SOL    HW2 8597   3.907   2.341   3.340  0.4412  0.5270  0.5661
 2131SOL    HW3 8598   3.812   2.224   3.348  1.7386 -0.6033 -0.2260
 2131SOL    MW4 8599   3.832   2.303   3.317  0.8869 -0.1833  0.2651
 2132SOL     OW 8600   3.580   2.425   3.426  0.3764 -0.0687  0.1480
 2132SOL    HW2 8601   3.590   2.519   3.412  1.4824 -0.1856  0.1036
 2132SOL    HW3 8602   3.653   2.385   3.378 -0.0340 -0.9421  0.2388
 2132SOL    MW4 8603   3.591   2.432   3.418  0.4683 -0.1993  0.1545
 2133SOL     OW 8604   3.611   2.699   3.369 -0.3259  0.2461  0.3414
 2133SOL    HW2 8605   3.706   2.705   3.383 -0.1643  1.1687 -1.1092
 2133SOL    HW3 8606   3.601   2.685   3.275 -1.6173 -0.6733  0.5887
 2133SOL    MW4 8607   3.622   2.698   3.359 -0.4752  0.2465  0.1826
 2134SOL     OW 8608   3.859   2.798   3.437 -0.1911 -0.1164  0.0686
 2134SOL    HW2 8609   3.865   2.812   3.531  2.6545 -0.2251 -0.0474
 2134SOL    HW3 8610   3.855   2.887   3.400  1.0423  0.0115  0.2046
 2134SOL    MW4 8611   3.859   2.812   3.444  0.3471 -0.1137  0.0713
 2135SOL     OW 8612   3.809   3.066   3.349 -0.2940  0.2236  0.4321
 2135SOL    HW2 8613   3.880   3.123   3.378 -0.5078  0.7257 -0.0203
 2135SOL    HW3 8614   3.733   3.096   3.398 -0.3363  0.1102  0.4357
 2135SOL    MW4 8615   3.809   3.077   3.359 -0.3276  0.2747  0.3726
 2136SOL     OW 8616   3.586   3.196   3.468  0.2686  0.0929  0.0933
 2136SOL    HW2 8617   3.510   3.151   3.430  0.2930 -0.2691  0.4618
 2136SOL    HW3 8618   3.563   3.206   3.561  0.1270  1.1342 -0.0426
 2136SOL    MW4 8619   3.573   3.191   3.476  0.2530  0.1824  0.1242
 2137SOL     OW 8620   3.617   3.468   3.375 -0.0110 -0.0788  0.2275
 2137SOL    HW2 8621   3.606   3.380   3.413  0.6376  0.6619  2.1796
 2137SOL    HW3 8622   3.594   3.457   3.283  0.5751 -2.4162  0.3322
 2137SOL    MW4 8623   3.613   3.455   3.368  0.1516 -0.2892  0.4992
 2138SOL     OW 8624   3.810   3.658   3.470  0.3773  0.1755  0.1269
 2138SOL    HW2 8625   3.809   3.637   3.563 -1.0513  1.0597  0.3265
 2138SOL    HW3 8626   3.740   3.605   3.433 -0.0243  0.9352 -0.1970
 2138SOL    MW4 8627   3.801   3.648   3.477  0.1359  0.3924  0.1106
 2139SOL     OW 8628   3.813   3.909   3.351  0.2024 -0.3113  0.4390
 2139SOL    HW2 8629   3.737   3.960   3.378 -0.4448 -0.5642 -0.8811
 2139SOL    HW3 8630   3.807   3.828   3.402 -0.6530 -0.5197  0.0125
 2139SOL    MW4 8631   3.803   3.905   3.362  0.0041 -0.3724  0.2081
 2140SOL     OW 8632   3.591   4.026   3.455 -0.2207  0.0183  0.0005
 2140SOL    HW2 8633   3.594   4.024   3.551  0.0512 -0.3322 -0.0135
 2140SOL    HW3 8634   3.595   4.119   3.433  0.5799  0.0650  0.3069
 2140SOL    MW4 8635   3.592   4.038   3.465 -0.0792 -0.0215  0.0391
 2141SOL     OW 8636   3.592   4.296   3.372 -0.7916 -0.4395  0.1483
 2141SOL    HW2 8637   3.511   4.340   3.398 -0.3054  0.6603 -0.1388
 2141SOL    HW3 8638   3.579   4.274   3.280 -0.4016  0.6114 -0.1673
 2141SOL    MW4 8639   3.580   4.299   3.363 -0.6762 -0.1559  0.0689
 2142SOL     OW 8640   3.815   4.421   3.485  0.0142 -0.1433  0.3524
 2142SOL    HW2 8641   3.736   4.381   3.450 -0.8430 -0.6345  2.7967
 2142SOL    HW3 8642   3.815   4.510   3.448 -2.7190  0.5317  1.8263
 2142SOL    MW4 8643   3.805   4.428   3.475 -0.4592 -0.1187  0.8695
 2143SOL     OW 8644   4.242   4.573   3.384 -0.2623 -0.2467  0.3848
 2143SOL    HW2 8645   4.271   4.489   3.419 -0.5077 -0.3744  0.2864
 2143SOL    HW3 8646   4.300   4.637   3.424  1.3288 -0.6631 -1.2074
 2143SOL    MW4 8647   4.253   4.570   3.394 -0.0849 -0.3181  0.1616
 2144SOL     OW 8648   4.040   0.110   3.456 -0.2372  0.2716  0.6864
 2144SOL    HW2 8649   4.089   0.028   3.448  0.2561  0.6515 -0.2869
 2144SOL    HW3 8650   3.952   0.088   3.427 -0.3344 -0.1218  1.2672
 2144SOL    MW4 8651   4.035   0.096   3.451 -0.1850  0.2698  0.6347
 2145SOL     OW 8652   4.024   0.376   3.372  0.3655 -0.0552  0.1784
 2145SOL    HW2 8653   4.028   0.284   3.397 -1.4744 -0.1731  0.1336
 2145SOL    HW3 8654   4.031   0.376   3.277  0.3944 -0.1430  0.1808
 2145SOL    MW4 8655   4.026   0.364   3.363  0.1268 -0.0824  0.1726
 2146SOL     OW 8656   4.241   0.514   3.489  0.2412 -0.5593 -0.4906
 2146SOL    HW2 8657   4.227   0.605   3.461  0.2616  0.0792  1.5495
 2146SOL    HW3 8658   4.162   0.468   3.460  0.4021 -0.0000 -1.8801
 2146SOL    MW4 8659   4.229   0.520   3.481  0.2646 -0.4013 -0.4046
 2147SOL     OW 8660   4.215   0.788   3.403  0.1082  0.1185 -0.1933
 2147SOL    HW2 8661   4.285   0.832   3.452  0.2799 -1.4930  1.0515
 2147SOL    HW3 8662   4.253   0.771   3.317  1.1415 -0.4458  0.3694
 2147SOL    MW4 8663   4.229   0.792   3.398  0.2675 -0.1686  0.0453
 2148SOL     OW 8664   4.017   0.933   3.534  0.0424  0.1768 -0.5456
 2148SOL    HW2 8665   4.022   1.008   3.475 -2.1210 -0.2257 -1.2845
 2148SOL    HW3 8666   4.087   0.875   3.506  1.1650  1.4934 -0.5385
 2148SOL    MW4 8667   4.027   0.935   3.523 -0.0949  0.2974 -0.6421
 2149SOL     OW 8668   4.015   1.163   3.379 -0.4713 -0.5151  0.0899
 2149SOL    HW2 8669   4.088   1.212   3.416 -0.6923  0.3877 -0.6272
 2149SOL    HW3 8670   3.937   1.213   3.405 -0.6763 -0.2744 -0.9522
 2149SOL    MW4 8671   4.014   1.176   3.387 -0.5279 -0.3643 -0.1421
 2150SOL     OW 8672   4.249   1.252   3.493 -0.2828 -0.0047 -0.3885
 2150SOL    HW2 8673   4.253   1.339   3.453 -0.1380 -0.2678 -0.9520
 2150SOL    HW3 8674   4.329   1.208   3.464 -0.0035 -0.0830  0.4733
 2150SOL    MW4 8675   4.260   1.258   3.484 -0.2270 -0.0499 -0.3490
 2151SOL     OW 8676   4.250   1.488   3.368  0.2261 -0.1707 -0.4484
 2151SOL    HW2 8677   4.185   1.552   3.397  1.5260  0.8027  0.3865
 2151SOL    HW3 8678   4.260   1.506   3.274 -0.2496  0.0886 -0.4510
 2151SOL    MW4 8679   4.243   1.499   3.359  0.3347 -0.0079 -0.3386
 2152SOL     OW 8680   4.045   1.661   3.471 -0.5631  0.1219 -0.6340
 2152SOL    HW2 8681   4.046   1.652   3.567 -0.3744 -0.2632 -0.6702
 2152SOL    HW3 8682   4.052   1.755   3.456  0.4146  0.1175 -0.2775
 2152SOL    MW4 8683   4.046   1.672   3.482 -0.4096  0.0706 -0.5918
 2153SOL     OW 8684   4.016   1.917   3.386 -0.3364  0.3888 -0.3375
 2153SOL    HW2 8685   4.096   1.961   3.415 -0.8597  1.2947 -0.2495
 2153SOL    HW3 8686   4.031   1.899   3.293 -0.2226  0.9821 -0.4323
 2153SOL    MW4 8687   4.029   1.920   3.378 -0.3901  0.5867 -0.3388
 2154SOL     OW 8688   4.260   2.040   3.472 -0.1564  0.3173  0.4844
 2154SOL    HW2 8689   4.279   2.129   3.441 -0.5561 -0.1190 -1.0508
 2154SOL    HW3 8690   4.343   1.993   3.460 -0.6416 -0.1624 -1.0708
 2154SOL    MW4 8691   4.274   2.045   3.466 -0.2737  0.1962  0.0768
 2155SOL     OW 8692   4.314   2.298   3.398  0.1856  0.1514  0.1695
 2155SOL    HW2 8693   4.240   2.348   3.433 -0.2693 -0.1846 -0.3032
 2155SOL    HW3 8694   4.328   2.334   3.310  0.6080  0.2375  0.2707
 2155SOL    MW4 8695   4.306   2.309   3.391  0.1817  0.1185  0.1202
 2156SOL     OW 8696   4.079   2.400   3.459 -0.1653 -0.0144  0.2141
 2156SOL    HW2 8697   4.056   2.405   3.552 -1.5362 -1.3363 -0.0369
 2156SOL    HW3 8698   4.082   2.491   3.430  0.1546  0.4065  1.5141
 2156SOL    MW4 8699   4.076   2.413   3.467 -0.3033 -0.1333  0.3526
 2157SOL     OW 8700   4.089   2.683   3.352 -0.1346 -0.3624  0.8118
 2157SOL    HW2 8701   4.160   2.732   3.394  0.5806  0.5179 -1.3249
 2157SOL    HW3 8702   4.009   2.729   3.378  0.3768  0.7794  0.3899
 2157SOL    MW4 8703   4.088   2.695   3.361  0.0277 -0.0956  0.4745
 2158SOL     OW 8704   4.290   2.861   3.439 -0.2201  0.0492  0.0447
 2158SOL    HW2 8705   4.277   2.874   3.533  0.1185 -1.2863  0.2793
 2158SOL    HW3 8706   4.373   2.815   3.432 -0.1030  0.3946 -0.9299
 2158SOL    MW4 8707   4.299   2.857   3.450 -0.1597 -0.0815 -0.0529
 2159SOL     OW 8708   4.277   3.131   3.357 -0.0123 -0.2519 -0.3677
 2159SOL    HW2 8709   4.295   3.039   3.379  1.3510 -0.0026 -0.4103
 2159SOL    HW3 8710   4.270   3.132   3.262  0.9221 -0.1568 -0.4406
 2159SOL    MW4 8711   4.279   3.119   3.347  0.2904 -0.2065 -0.3829
 2160SOL     OW 8712   4.032   3.203   3.452 -0.1575  0.1253  0.1871
 2160SOL    HW2 8713   4.018   3.291   3.417 -1.4221 -0.5377 -1.0373
 2160SOL    HW3 8714   4.119   3.178   3.419 -0.9345 -0.1246 -1.7602
 2160SOL    MW4 8715   4.042   3.211   3.443 -0.4268  0.0048 -0.2315
 2161SOL     OW 8716   4.006   3.498   3.363  0.4549 -0.7147  0.1701
 2161SOL    HW2 8717   4.084   3.543   3.396  0.3712  0.3884 -1.1119
 2161SOL    HW3 8718   3.932   3.547   3.400  0.3659  0.0382 -0.9788
 2161SOL    MW4 8719   4.007   3.510   3.372  0.4320 -0.4699 -0.1504
 2162SOL     OW 8720   4.236   3.632   3.443 -0.0603 -0.5595  0.2649
 2162SOL    HW2 8721   4.257   3.621   3.536  0.8350 -0.3790  0.0904
 2162SOL    HW3 8722   4.228   3.727   3.431 -0.8952 -0.6167  0.3018
 2162SOL    MW4 8723   4.238   3.643   3.454 -0.0529 -0.5431  0.2470
 2163SOL     OW 8724   4.229   3.890   3.353  0.7514  0.6604  0.1385
 2163SOL    HW2 8725   4.317   3.912   3.384  0.9656  0.6789 -0.4727
 2163SOL    HW3 8726   4.240   3.875   3.259  0.5501 -1.6763  0.4493
 2163SOL    MW4 8727   4.242   3.891   3.345  0.7524  0.3545  0.0989
 2164SOL     OW 8728   4.031   4.041   3.450 -0.8473  0.8888  0.0016
 2164SOL    HW2 8729   4.108   3.997   3.413 -0.2173  1.3402  0.7568
 2164SOL    HW3 8730   3.957   4.000   3.407 -0.2337 -0.3896  0.1398
 2164SOL    MW4 8731   4.031   4.030   3.439 -0.6833  0.7796  0.1192
 2165SOL     OW 8732   4.032   4.310   3.385  0.2155 -0.0756 -0.5020
 2165SOL    HW2 8733   4.038   4.219   3.414  0.9909  0.2406  0.3537
 2165SOL    HW3 8734   3.952   4.343   3.426 -0.1834 -0.4390 -0.9930
 2165SOL    MW4 8735   4.022   4.303   3.394  0.2651 -0.0820 -0.4542
 2166SOL     OW 8736   4.281   4.321   3.505 -0.4326 -0.0651 -0.5455
 2166SOL    HW2 8737   4.268   4.351   3.595 -0.2591 -0.1203 -0.5022
 2166SOL    HW3 8738   4.192   4.308   3.471 -0.5209  0.9348 -0.7146
 2166SOL    MW4 8739   4.267   4.323   3.512 -0.4215  0.0596 -0.5620
 2167SOL     OW 8740   0.225   4.646   3.882 -1.0471 -0.3940  0.0170
 2167SOL    HW2 8741   0.219   4.670   3.975  0.8101  1.5842 -0.3557
 2167SOL    HW3 8742   0.149   4.688   3.842 -0.1982  1.3253  0.1445
 2167SOL    MW4 8743   0.214   4.655   3.889 -0.6901  0.0939 -0.0155
 2168SOL     OW 8744   4.472   0.061   3.791  0.0544 -0.0070  0.3894
 2168SOL    HW2 8745   4.487   0.154   3.810  0.0082 -0.1057  0.9371
 2168SOL    HW3 8746   4.455   0.058   3.697  1.8865  0.2974  0.0403
 2168SOL    MW4 8747   4.471   0.073   3.781  0.2899  0.0202  0.4156
 2169SOL     OW 8748   4.483   0.334   3.840  0.0713 -0.0304  0.4756
 2169SOL    HW2 8749   4.420   0.404   3.822 -1.1868 -1.1634  0.3727
 2169SOL    HW3 8750   4.567   0.369   3.810 -0.5738  1.3427  0.2192
 2169SOL    MW4 8751   4.486   0.348   3.834 -0.1798  0.0013  0.4282
 2170SOL     OW 8752   0.238   0.474   3.765  0.3479 -0.2736 -0.7430
 2170SOL    HW2 8753   0.240   0.563   3.798 -0.1472 -0.5697  0.0966
 2170SOL    HW3 8754   0.212   0.484   3.673 -1.7095  0.3259 -0.1322
 2170SOL    MW4 8755   0.235   0.487   3.757  0.0112 -0.2336 -0.5515
 2171SOL     OW 8756   0.250   0.751   3.852 -0.1033 -0.6620  0.2039
 2171SOL    HW2 8757   0.259   0.757   3.947 -1.5437 -0.5521  0.3531
 2171SOL    HW3 8758   0.165   0.792   3.834  0.2340 -0.5331 -1.1460
 2171SOL    MW4 8759   0.240   0.757   3.862 -0.2488 -0.6305  0.0453
 2172SOL     OW 8760   4.485   0.888   3.789  0.1556  0.3983  0.0130
 2172SOL    HW2 8761   4.399   0.854   3.814 -0.0616  0.5825 -0.4780
 2172SOL    HW3 8762   4.494   0.969   3.839  0.4985 -0.1709  0.8766
 2172SOL    MW4 8763   4.475   0.894   3.798  0.1721  0.3476  0.0622
 2173SOL     OW 8764   4.484   1.133   3.929  0.1426 -0.2394 -0.5661
 2173SOL    HW2 8765   4.406   1.173   3.890  0.6111  0.8490 -0.4126
 2173SOL    HW3 8766   4.556   1.162   3.874  0.7987  1.2192  0.9774
 2173SOL    MW4 8767   4.483   1.142   3.917  0.2910  0.0966 -0.3421
 2174SOL     OW 8768   0.206   1.245   3.754  0.3000  0.0345  0.8203
 2174SOL    HW2 8769   0.200   1.331   3.797 -0.7587 -0.2227  1.1873
 2174SOL    HW3 8770   0.226   1.266   3.663  0.7223  0.6438  1.0430
 2174SOL    MW4 8771   0.208   1.259   3.748  0.2161  0.0811  0.8981
 2175SOL     OW 8772   0.180   1.522   3.848  0.0258 -0.5017  0.1995
 2175SOL    HW2 8773   0.191   1.531   3.943  0.2594 -0.8579  0.2065
 2175SOL    HW3 8774   0.099   1.569   3.828  0.2630  0.0376  0.5003
 2175SOL    MW4 8775   0.171   1.530   3.858  0.0879 -0.4777  0.2401
 2176SOL     OW 8776   4.444   1.666   3.775  0.3070 -0.0571 -0.3771
 2176SOL    HW2 8777   4.445   1.761   3.789  0.7610 -0.1356  0.1554
 2176SOL    HW3 8778   4.448   1.656   3.680 -0.1009  0.4611 -0.4531
 2176SOL    MW4 8779   4.445   1.677   3.765  0.3133  0.0008 -0.3171
 2177SOL     OW 8780   4.463   1.945   3.825  0.0688  0.0928  0.1462
 2177SOL    HW2 8781   4.461   1.944   3.920  0.0699  1.2663  0.1740
 2177SOL    HW3 8782   4.379   1.983   3.799  0.3261  0.3799 -0.2875
 2177SOL    MW4 8783   4.452   1.950   3.834  0.1030  0.2855  0.0925
 2178SOL     OW 8784   0.222   2.051   3.743 -0.3922  0.1341 -0.3914
 2178SOL    HW2 8785   0.235   2.138   3.782  0.2237 -0.4606  0.7622
 2178SOL    HW3 8786   0.134   2.026   3.771  0.1649 -0.4204  0.8941
 2178SOL    MW4 8787   0.212   2.059   3.752 -0.2374 -0.0174 -0.0699
 2179SOL     OW 8788   0.245   2.324   3.813 -0.1903 -0.4116  0.2878
 2179SOL    HW2 8789   0.271   2.325   3.905 -0.5579 -3.3062  0.4535
 2179SOL    HW3 8790   0.158   2.366   3.812  0.1016  0.2347  1.1377
 2179SOL    MW4 8791   0.237   2.330   3.825 -0.2002 -0.7083  0.4220
 2180SOL     OW 8792   0.012   2.432   3.747 -0.2675 -0.0603  0.5756
 2180SOL    HW2 8793  -0.060   2.380   3.785  1.8352 -1.2117  3.1390
 2180SOL    HW3 8794  -0.003   2.521   3.779 -1.7198  0.1592 -0.6581
 2180SOL    MW4 8795   0.000   2.437   3.757 -0.1822 -0.1836  0.7510
 2181SOL     OW 8796   4.490   2.696   3.849  0.6969 -0.2197 -0.7498
 2181SOL    HW2 8797   4.508   2.715   3.942  0.0143 -0.6860 -0.5210
 2181SOL    HW3 8798   4.561   2.739   3.802  0.6702  0.6134 -0.0511
 2181SOL    MW4 8799   4.502   2.704   3.855  0.6037 -0.1712 -0.6275
 2182SOL     OW 8800   0.216   2.845   3.748  0.0594  0.1010  0.0440
 2182SOL    HW2 8801   0.291   2.793   3.779 -0.7639 -0.9212  0.3433
 2182SOL    HW3 8802   0.229   2.850   3.653  2.2826  2.7695  0.4368
 2182SOL    MW4 8803   0.228   2.839   3.739  0.2441  0.3181  0.1354
 2183SOL     OW 8804   0.217   3.084   3.868 -0.6430  0.0127 -0.6469
 2183SOL    HW2 8805   0.209   3.061   3.960  2.4483 -0.6009 -0.4744
 2183SOL    HW3 8806   0.215   3.000   3.822  0.2284  0.1124 -0.8911
 2183SOL    MW4 8807   0.216   3.070   3.874 -0.1202 -0.0551 -0.6561
 2184SOL     OW 8808   0.022   3.262   3.739 -0.4698  0.0173  0.7701
 2184SOL    HW2 8809   0.078   3.194   3.777  2.1707  0.0179 -2.7937
 2184SOL    HW3 8810   0.016   3.238   3.646 -1.6755  3.1946 -0.0289
 2184SOL    MW4 8811   0.028   3.250   3.732 -0.2805  0.4368  0.1943
 2185SOL     OW 8812   4.488   3.528   3.855 -0.4563  0.6055 -0.3654
 2185SOL    HW2 8813   4.559   3.578   3.814 -0.5113  0.3189 -0.8106
 2185SOL    HW3 8814   4.504   3.438   3.829 -0.4501  0.4127  0.3119
 2185SOL    MW4 8815   4.500   3.523   3.846 -0.4625  0.5424 -0.3350
 2186SOL     OW 8816   0.220   3.644   3.738 -0.1770  0.0646  0.1042
 2186SOL    HW2 8817   0.286   3.590   3.781  0.0813 -1.3796 -2.0567
 2186SOL    HW3 8818   0.213   3.721   3.795  0.2950 -1.6519  2.6004
 2186SOL    MW4 8819   0.228   3.647   3.751 -0.0806 -0.3524  0.1483
 2187SOL     OW 8820   0.201   3.893   3.873  0.2926 -0.1350 -0.1808
 2187SOL    HW2 8821   0.209   3.894   3.968  0.8237  1.1153 -0.2346
 2187SOL    HW3 8822   0.273   3.947   3.842 -1.7104  2.0928 -1.1390
 2187SOL    MW4 8823   0.211   3.900   3.882  0.0984  0.3240 -0.3145
 2188SOL     OW 8824   4.473   3.999   3.722  0.6835 -0.5888  0.2506
 2188SOL    HW2 8825   4.394   3.946   3.732  0.1282  0.3992  1.2272
 2188SOL    HW3 8826   4.537   3.957   3.780 -0.1580  0.5550  2.0475
 2188SOL    MW4 8827   4.471   3.986   3.731  0.4992 -0.3076  0.6166
 2189SOL     OW 8828   4.462   4.249   3.880  0.0640 -0.1090 -0.2492
 2189SOL    HW2 8829   4.531   4.301   3.837 -0.9966  0.3054 -1.4953
 2189SOL    HW3 8830   4.463   4.166   3.833 -0.4749  0.0063 -0.4709
 2189SOL    MW4 8831   4.471   4.245   3.868 -0.1469 -0.0391 -0.4430
 2190SOL     OW 8832   0.160   4.393   3.749  0.1585  0.0964  0.1202
 2190SOL    HW2 8833   0.244   4.374   3.790  0.8048  1.3673 -0.5915
 2190SOL    HW3 8834   0.148   4.487   3.763 -1.4057 -0.1626  0.6873
 2190SOL    MW4 8835   0.169   4.403   3.757  0.0374  0.2298  0.1009
 2191SOL     OW 8836   0.647   4.638   3.912  0.4703 -0.5168 -0.0148
 2191SOL    HW2 8837   0.655   4.548   3.879 -0.3396 -0.4849 -0.2891
 2191SOL    HW3 8838   0.586   4.681   3.852 -0.5927 -0.3044  1.1971
 2191SOL    MW4 8839   0.640   4.632   3.899  0.2232 -0.4846  0.1090
 2192SOL     OW 8840   0.447   0.092   3.740 -0.5461  0.2876  0.3332
 2192SOL    HW2 8841   0.459   0.180   3.777  0.0908  1.1311 -1.7682
 2192SOL    HW3 8842   0.377   0.053   3.791  1.6553  0.6065  3.7432
 2192SOL    MW4 8843   0.440   0.099   3.751 -0.1716  0.4410  0.5059
 2193SOL     OW 8844   0.448   0.346   3.879  0.4189  0.1100  0.1383
 2193SOL    HW2 8845   0.531   0.385   3.851  0.8822 -0.7833  0.2506
 2193SOL    HW3 8846   0.381   0.405   3.845  1.0823  0.5727 -0.3734
 2193SOL    MW4 8847   0.450   0.359   3.871  0.5676  0.0532  0.0856
 2194SOL     OW 8848   0.686   0.467   3.772  0.2892 -0.1030 -0.1755
 2194SOL    HW2 8849   0.765   0.432   3.813  1.7015  2.3959 -0.6964
 2194SOL    HW3 8850   0.694   0.562   3.780 -2.2010  0.2349 -1.1085
 2194SOL    MW4 8851   0.698   0.475   3.779  0.1470  0.2713 -0.3672
 2195SOL     OW 8852   0.636   0.797   3.810 -0.2179  0.3151 -0.3477
 2195SOL    HW2 8853   0.716   0.842   3.784  0.2524 -0.0416  0.4457
 2195SOL    HW3 8854   0.565   0.848   3.771  0.4230  0.2133 -1.6713
 2195SOL    MW4 8855   0.637   0.809   3.802 -0.0713  0.2547 -0.4175
 2196SOL     OW 8856   0.401   0.946   3.715 -0.8404  0.2780 -0.3995
 2196SOL    HW2 8857   0.416   1.021   3.774 -1.1395  1.2916 -1.5971
 2196SOL    HW3 8858   0.338   0.892   3.762 -1.0488  1.0615  0.2399
 2196SOL    MW4 8859   0.395   0.949   3.729 -0.9074  0.5152 -0.4733
 2197SOL     OW 8860   0.420   1.146   3.888 -0.3904 -0.2536  0.3851
 2197SOL    HW2 8861   0.497   1.194   3.857 -0.4249  0.4073  1.2901
 2197SOL    HW3 8862   0.346   1.188   3.843 -0.5297  1.3024  1.9880
 2197SOL    MW4 8863   0.420   1.158   3.878 -0.4133  0.0390  0.7160
 2198SOL     OW 8864   0.642   1.276   3.774  0.1961 -0.8525  0.3898
 2198SOL    HW2 8865   0.720   1.234   3.811  0.3480 -0.8576  0.0647
 2198SOL    HW3 8866   0.648   1.258   3.680  1.8182  2.4664 -0.1923
 2198SOL    MW4 8867   0.653   1.268   3.766  0.4302 -0.4152  0.2701
 2199SOL     OW 8868   0.647   1.565   3.817 -0.0113  0.0519 -0.2485
 2199SOL    HW2 8869   0.738   1.591   3.825  0.4135 -1.2799 -0.6307
 2199SOL    HW3 8870   0.650   1.477   3.780 -1.4726  0.2578 -0.8970
 2199SOL    MW4 8871   0.659   1.557   3.813 -0.1480 -0.0967 -0.3846
 2200SOL     OW 8872   0.391   1.670   3.750  0.5750 -0.6981  0.1445
 2200SOL    HW2 8873   0.468   1.631   3.790 -0.8078  0.1717  3.8043
 2200SOL    HW3 8874   0.318   1.616   3.781 -0.6138  0.4477 -0.5921
 2200SOL    MW4 8875   0.391   1.658   3.759  0.2357 -0.4321  0.5302
 2201SOL     OW 8876   0.454   1.932   3.870 -0.3511  0.0105  0.3508
 2201SOL    HW2 8877   0.446   1.841   3.839  1.4952  0.6950 -2.2602
 2201SOL    HW3 8878   0.378   1.976   3.832 -1.4886 -0.5087  1.9782
 2201SOL    MW4 8879   0.443   1.925   3.861 -0.2576  0.0324  0.2210
 2202SOL     OW 8880   0.676   2.074   3.801  0.4120 -0.0905  0.1407
 2202SOL    HW2 8881   0.672   2.152   3.857 -0.6622 -0.4042  0.4961
 2202SOL    HW3 8882   0.600   2.022   3.826  1.5676 -1.6420  0.4582
 2202SOL    MW4 8883   0.666   2.077   3.812  0.4227 -0.3366  0.2296
 2203SOL     OW 8884   0.660   2.334   3.894 -0.0527  0.6541 -0.0301
 2203SOL    HW2 8885   0.738   2.373   3.856  0.0363 -1.4622 -2.1173
 2203SOL    HW3 8886   0.588   2.365   3.839 -0.6036  1.8428  1.3238
 2203SOL    MW4 8887   0.661   2.343   3.882 -0.1137  0.5314 -0.1268
 2204SOL     OW 8888   0.477   2.434   3.724 -0.2856  0.2791 -0.4937
 2204SOL    HW2 8889   0.397   2.389   3.750 -1.2865  1.8288 -0.8391
 2204SOL    HW3 8890   0.469   2.446   3.630  1.0354 -0.8333 -0.7716
 2204SOL    MW4 8891   0.465   2.430   3.715 -0.2434  0.3369 -0.5758
 2205SOL     OW 8892   0.445   2.708   3.836 -0.0116  0.0884 -0.2132
 2205SOL    HW2 8893   0.524   2.752   3.805  0.4182  0.9289  1.9907
 2205SOL    HW3 8894   0.453   2.618   3.804  1.3091  0.4441 -0.9168
 2205SOL    MW4 8895   0.456   2.702   3.828  0.2193  0.2463 -0.0150
 2206SOL     OW 8896   0.669   2.841   3.734  0.1831  0.3440  0.2597
 2206SOL    HW2 8897   0.740   2.777   3.745  1.0140  1.0630 -0.7572
 2206SOL    HW3 8898   0.670   2.860   3.640 -0.3876  1.4739  0.4795
 2206SOL    MW4 8899   0.679   2.835   3.723  0.2175  0.5882  0.1543
 2207SOL     OW 8900   0.673   3.108   3.827  0.3964 -0.1897  0.0417
 2207SOL    HW2 8901   0.680   3.105   3.922 -1.9439  0.6015  0.2873
 2207SOL    HW3 8902   0.678   3.017   3.799  0.3733 -0.4831  0.9906
 2207SOL    MW4 8903   0.674   3.096   3.836  0.0846 -0.1237  0.1993
 2208SOL     OW 8904   0.445   3.250   3.780 -0.6704 -0.2871 -0.2612
 2208SOL    HW2 8905   0.516   3.187   3.793 -0.5965 -0.1681 -0.0885
 2208SOL    HW3 8906   0.369   3.210   3.821 -0.2960  0.3605  1.0864
 2208SOL    MW4 8907   0.444   3.237   3.787 -0.6112 -0.1860 -0.0606
 2209SOL     OW 8908   0.421   3.513   3.884  0.4223  0.2774  0.3870
 2209SOL    HW2 8909   0.504   3.556   3.862  0.5419 -0.8767 -1.5126
 2209SOL    HW3 8910   0.426   3.428   3.841 -1.5665  0.0175  0.6317
 2209SOL    MW4 8911   0.433   3.508   3.876  0.1757  0.0911  0.1688
 2210SOL     OW 8912   0.665   3.646   3.810  0.0141 -0.0261 -0.2865
 2210SOL    HW2 8913   0.669   3.741   3.814  0.3037 -0.0156 -0.8686
 2210SOL    HW3 8914   0.682   3.624   3.719  2.8221 -0.7568  0.3598
 2210SOL    MW4 8915   0.668   3.656   3.799  0.4228 -0.1211 -0.2780
 2211SOL     OW 8916   0.634   3.914   3.845 -0.6192 -0.0761  0.3086
 2211SOL    HW2 8917   0.627   3.888   3.937 -2.7972  1.1143  0.5122
 2211SOL    HW3 8918   0.708   3.975   3.843 -0.4479 -0.2461  1.2574
 2211SOL    MW4 8919   0.643   3.919   3.857 -0.8839  0.0587  0.4609
 2212SOL     OW 8920   0.403   4.057   3.770 -0.0347  0.4349  0.0260
 2212SOL    HW2 8921   0.473   4.011   3.817 -2.1667 -3.7534 -0.6012
 2212SOL    HW3 8922   0.417   4.034   3.678 -0.6078  1.9095 -0.4451
 2212SOL    MW4 8923   0.414   4.048   3.764 -0.3916  0.0768 -0.1187
 2213SOL     OW 8924   0.383   4.314   3.869 -0.6295 -0.3426 -0.5164
 2213SOL    HW2 8925   0.466   4.350   3.838 -0.3600  0.5807  1.1795
 2213SOL    HW3 8926   0.378   4.227   3.831  1.3916 -0.6253 -0.1841
 2213SOL    MW4 8927   0.393   4.308   3.860 -0.3273 -0.2580 -0.2489
 2214SOL     OW 8928   0.652   4.388   3.809  0.3143 -0.1240 -0.5593
 2214SOL    HW2 8929   0.716   4.347   3.866  1.3971 -0.1223 -1.7672
 2214SOL    HW3 8930   0.690   4.384   3.721 -0.9784  0.5793 -1.1800
 2214SOL    MW4 8931   0.665   4.382   3.805  0.2866 -0.0310 -0.8006
 2215SOL     OW 8932   1.079   0.008   3.898  0.4892 -0.2100 -0.1466
 2215SOL    HW2 8933   1.156   0.045   3.855  1.5412 -0.5600  1.4023
 2215SOL    HW3 8934   1.102  -0.085   3.910 -0.3397 -0.3995 -0.0372
 2215SOL    MW4 8935   1.092   0.000   3.894  0.5184 -0.2813  0.0720
 2216SOL     OW 8936   0.840   0.096   3.770 -0.0784 -0.1961 -0.4914
 2216SOL    HW2 8937   0.925   0.061   3.795 -0.0777  0.8144  0.9634
 2216SOL    HW3 8938   0.777   0.048   3.824 -0.3534 -0.3452 -0.9461
 2216SOL    MW4 8939   0.842   0.085   3.780 -0.1146 -0.0824 -0.3595
 2217SOL     OW 8940   0.921   0.368   3.894 -0.1839 -0.4999  0.4081
 2217SOL    HW2 8941   0.919   0.389   3.988 -0.7967 -1.8814  0.7165
 2217SOL    HW3 8942   0.899   0.275   3.890  1.4282 -0.8375 -0.9940
 2217SOL    MW4 8943   0.918   0.359   3.906 -0.0520 -0.7266  0.2639
 2218SOL     OW 8944   1.133   0.509   3.779 -0.4980  0.1670 -0.1022
 2218SOL    HW2 8945   1.212   0.462   3.805  0.1448  0.4455 -1.5343
 2218SOL    HW3 8946   1.061   0.459   3.819  0.3431 -0.4671  0.6445
 2218SOL    MW4 8947   1.134   0.496   3.788 -0.3022  0.1201 -0.1924
 2219SOL     OW 8948   1.120   0.778   3.849 -0.2069 -0.0371  0.0533
 2219SOL    HW2 8949   1.114   0.771   3.945 -0.2857 -0.1383  0.0415
 2219SOL    HW3 8950   1.129   0.688   3.819  0.5543  0.0536  0.0121
 2219SOL    MW4 8951   1.120   0.765   3.858 -0.1168 -0.0384  0.0465
 2220SOL     OW 8952   0.876   0.914   3.743 -0.5650  0.1438 -0.2426
 2220SOL    HW2 8953   0.955   0.873   3.778 -0.5053  0.3108 -0.1832
 2220SOL    HW3 8954   0.873   0.886   3.651 -0.8623 -0.5089 -0.0357
 2220SOL    MW4 8955   0.886   0.905   3.735 -0.5963  0.0796 -0.2074
 2221SOL     OW 8956   0.875   1.162   3.863  0.6756 -0.4732 -0.6282
 2221SOL    HW2 8957   0.879   1.158   3.959 -0.4568  0.1953 -0.5510
 2221SOL    HW3 8958   0.874   1.071   3.835 -0.4906 -0.6820  0.0619
 2221SOL    MW4 8959   0.876   1.150   3.872  0.3723 -0.4126 -0.5269
 2222SOL     OW 8960   1.110   1.270   3.749  0.0763  0.0991  0.4945
 2222SOL    HW2 8961   1.102   1.359   3.782 -1.8650 -0.3020  1.1276
 2222SOL    HW3 8962   1.030   1.225   3.777  1.0591 -1.8810  0.2753
 2222SOL    MW4 8963   1.098   1.275   3.757 -0.0502 -0.2151  0.5488
 2223SOL     OW 8964   1.124   1.502   3.897  0.1208 -0.3541 -0.1115
 2223SOL    HW2 8965   1.103   1.527   3.986  1.2616 -0.5032  0.2080
 2223SOL    HW3 8966   1.188   1.567   3.868 -0.2678 -0.2843 -0.8373
 2223SOL    MW4 8967   1.130   1.514   3.905  0.2201 -0.3644 -0.1647
 2224SOL     OW 8968   0.895   1.673   3.817  0.1868 -0.5149  0.4430
 2224SOL    HW2 8969   0.956   1.604   3.843  0.5420 -0.5730 -0.5184
 2224SOL    HW3 8970   0.907   1.681   3.722 -1.3200 -0.5507  0.2417
 2224SOL    MW4 8971   0.905   1.665   3.808  0.0349 -0.5274  0.2897
 2225SOL     OW 8972   0.910   1.951   3.894  0.1320  0.2414 -0.3198
 2225SOL    HW2 8973   0.906   1.861   3.862  0.4474  0.7488 -1.8091
 2225SOL    HW3 8974   0.840   1.997   3.849  1.6517  1.3662 -1.6182
 2225SOL    MW4 8975   0.900   1.945   3.884  0.3741  0.4566 -0.6876
 2226SOL     OW 8976   1.139   2.088   3.754  0.3427 -0.3314  0.1104
 2226SOL    HW2 8977   1.078   2.035   3.805 -0.3248 -0.2547 -0.6024
 2226SOL    HW3 8978   1.107   2.081   3.664  0.5309  0.8825 -0.0562
 2226SOL    MW4 8979   1.127   2.080   3.749  0.2797 -0.1614 -0.0057
 2227SOL     OW 8980   1.129   2.329   3.868 -0.2447 -0.5435  0.1552
 2227SOL    HW2 8981   1.099   2.328   3.959 -0.2371 -1.4196  0.1497
 2227SOL    HW3 8982   1.129   2.238   3.841  1.2277 -0.4469 -0.2458
 2227SOL    MW4 8983   1.125   2.317   3.877 -0.0496 -0.6464  0.1016
 2228SOL     OW 8984   0.883   2.434   3.794 -0.0578 -0.3281  0.1545
 2228SOL    HW2 8985   0.887   2.529   3.805  0.6693 -0.3886  0.4375
 2228SOL    HW3 8986   0.966   2.403   3.829  0.1675 -0.9732 -0.9464
 2228SOL    MW4 8987   0.894   2.443   3.801  0.0678 -0.4213  0.0465
 2229SOL     OW 8988   0.880   2.699   3.824  0.1996 -0.1092  0.0327
 2229SOL    HW2 8989   0.894   2.705   3.918  1.4425  1.2496 -0.2215
 2229SOL    HW3 8990   0.955   2.744   3.785 -0.5936 -0.1367 -1.5949
 2229SOL    MW4 8991   0.891   2.706   3.831  0.2589  0.0665 -0.2155
 2230SOL     OW 8992   1.105   2.835   3.749  0.1385 -0.1021 -0.2967
 2230SOL    HW2 8993   1.185   2.799   3.787  1.3198  1.0112 -1.6551
 2230SOL    HW3 8994   1.095   2.921   3.791  0.1530  0.1474 -0.8086
 2230SOL    MW4 8995   1.114   2.842   3.760  0.2964  0.0777 -0.5436
 2231SOL     OW 8996   1.105   3.095   3.853  0.3665 -0.0592  0.0638
 2231SOL    HW2 8997   1.183   3.148   3.841  0.7393 -0.7836 -0.7592
 2231SOL    HW3 8998   1.036   3.143   3.806  0.6972 -0.2971 -0.6673
 2231SOL    MW4 8999   1.106   3.108   3.845  0.4592 -0.1862 -0.1411
 2232SOL     OW 9000   0.905   3.260   3.725  0.8213 -0.0323  0.1486
 2232SOL    HW2 9001   0.822   3.220   3.750  0.9642  0.3700  1.3199
 2232SOL    HW3 9002   0.907   3.255   3.630 -0.2836 -0.5611  0.1481
 2232SOL    MW4 9003   0.895   3.254   3.716  0.6944 -0.0491  0.3030
 2233SOL     OW 9004   0.901   3.507   3.894  0.3333 -0.1792 -0.4505
 2233SOL    HW2 9005   0.901   3.421   3.853 -0.2161 -0.1452 -0.5254
 2233SOL    HW3 9006   0.818   3.547   3.867  0.3846  0.1986 -0.0606
 2233SOL    MW4 9007   0.890   3.501   3.885  0.2676 -0.1247 -0.4089
 2234SOL     OW 9008   1.129   3.611   3.789 -0.1912  0.2436  0.4184
 2234SOL    HW2 9009   1.116   3.704   3.811  1.0051  0.2160  1.2799
 2234SOL    HW3 9010   1.051   3.568   3.825 -1.5699  1.1160 -1.4523
 2234SOL    MW4 9011   1.117   3.618   3.797 -0.2152  0.3552  0.2854
 2235SOL     OW 9012   1.106   3.872   3.873  0.3449 -0.0239 -0.3715
 2235SOL    HW2 9013   1.121   3.852   3.966  0.1447 -0.9382 -0.5345
 2235SOL    HW3 9014   1.186   3.916   3.845  0.7509 -0.5006  0.0240
 2235SOL    MW4 9015   1.118   3.875   3.882  0.3722 -0.2074 -0.3409
 2236SOL     OW 9016   0.886   4.035   3.806 -0.1599 -0.4083  0.0775
 2236SOL    HW2 9017   0.957   3.975   3.830 -0.6825 -0.8323  0.5776
 2236SOL    HW3 9018   0.887   4.035   3.710  1.1140  0.3145  0.0765
 2236SOL    MW4 9019   0.896   4.027   3.797 -0.0607 -0.3691  0.1433
 2237SOL     OW 9020   0.857   4.269   3.945  0.5393  0.1569  0.2206
 2237SOL    HW2 9021   0.850   4.252   4.039  2.2282 -2.3947 -0.0528
 2237SOL    HW3 9022   0.885   4.185   3.908  0.4231  1.2706 -2.4946
 2237SOL    MW4 9023   0.860   4.256   3.953  0.7468 -0.0334 -0.1736
 2238SOL     OW 9024   1.107   4.392   3.794 -0.1339  0.0449  0.3534
 2238SOL    HW2 9025   1.014   4.380   3.814 -0.1777 -1.6680 -0.8052
 2238SOL    HW3 9026   1.113   4.385   3.699  1.4078 -1.7310  0.5347
 2238SOL    MW4 9027   1.096   4.389   3.784  0.0638 -0.4153  0.2241
 2239SOL     OW 9028   1.558   4.630   3.884 -0.5891  0.8126 -0.2451
 2239SOL    HW2 9029   1.543   4.616   3.977  1.6139  0.2789  0.0742
 2239SOL    HW3 9030   1.569   4.542   3.847  0.6395  1.0839 -0.5869
 2239SOL    MW4 9031   1.558   4.617   3.891 -0.1364  0.7777 -0.2482
 2240SOL     OW 9032   1.321   0.096   3.770 -0.3285  0.2015  0.1775
 2240SOL    HW2 9033   1.331   0.186   3.802 -0.2926 -0.3084  1.6252
 2240SOL    HW3 9034   1.400   0.051   3.799  0.1710 -0.0238 -1.5119
 2240SOL    MW4 9035   1.332   0.102   3.778 -0.2580  0.1045  0.1457
 2241SOL     OW 9036   1.342   0.364   3.858  0.2166  0.1766  0.1875
 2241SOL    HW2 9037   1.349   0.352   3.952 -1.7383 -0.8943  0.2207
 2241SOL    HW3 9038   1.417   0.420   3.835  2.1190 -1.5743  1.9816
 2241SOL    MW4 9039   1.353   0.370   3.867  0.2097 -0.1957  0.4287
 2242SOL     OW 9040   1.563   0.507   3.780  0.3535  0.3269  0.0321
 2242SOL    HW2 9041   1.636   0.469   3.831 -1.8466 -1.2541  2.1569
 2242SOL    HW3 9042   1.564   0.600   3.803  1.2217  0.1718  0.6793
 2242SOL    MW4 9043   1.573   0.514   3.790  0.1779  0.0979  0.3977
 2243SOL     OW 9044   1.548   0.771   3.855  0.2845  0.1492  0.5786
 2243SOL    HW2 9045   1.635   0.811   3.854  0.8655 -1.1042  0.8778
 2243SOL    HW3 9046   1.491   0.838   3.816  1.2419  1.2720  1.0830
 2243SOL    MW4 9047   1.552   0.785   3.849  0.4876  0.1320  0.6847
 2244SOL     OW 9048   1.338   0.916   3.769 -0.2324  0.2647  0.1465
 2244SOL    HW2 9049   1.334   1.002   3.811 -1.3819 -0.4533  1.5444
 2244SOL    HW3 9050   1.263   0.868   3.804 -0.0512 -1.0600 -1.1998
 2244SOL    MW4 9051   1.328   0.921   3.779 -0.3603 -0.0049  0.1531
 2245SOL     OW 9052   1.326   1.169   3.880  0.4345 -0.0306 -0.0085
 2245SOL    HW2 9053   1.406   1.216   3.856  0.4048  0.0888  0.1277
 2245SOL    HW3 9054   1.257   1.213   3.830  0.4125  0.0462  0.0894
 2245SOL    MW4 9055   1.328   1.181   3.870  0.4276 -0.0048  0.0224
 2246SOL     OW 9056   1.551   1.295   3.794 -0.3370  0.4824  0.2465
 2246SOL    HW2 9057   1.630   1.257   3.833  0.0962 -0.7651 -1.8276
 2246SOL    HW3 9058   1.557   1.388   3.817  1.9643  0.4870 -0.2648
 2246SOL    MW4 9059   1.562   1.303   3.802  0.0238  0.3185 -0.0949
 2247SOL     OW 9060   1.565   1.561   3.882  0.2547  0.2890 -0.5372
 2247SOL    HW2 9061   1.593   1.575   3.973  1.1258  1.4840 -0.9820
 2247SOL    HW3 9062   1.630   1.607   3.829 -0.3180 -0.2928 -1.7706
 2247SOL    MW4 9063   1.577   1.569   3.887  0.2941  0.3698 -0.7586
 2248SOL     OW 9064   1.309   1.664   3.797  0.2950  0.3633 -0.5081
 2248SOL    HW2 9065   1.299   1.757   3.818  0.1219  0.2571 -0.1165
 2248SOL    HW3 9066   1.391   1.639   3.841  1.2266  0.7327 -1.9944
 2248SOL    MW4 9067   1.319   1.673   3.805  0.3951  0.3979 -0.6528
 2249SOL     OW 9068   1.354   1.949   3.872  0.3532  0.0438 -0.2533
 2249SOL    HW2 9069   1.331   1.954   3.964  2.0946  2.2098  0.1145
 2249SOL    HW3 9070   1.290   2.006   3.828  0.7980  0.6673 -0.1018
 2249SOL    MW4 9071   1.343   1.957   3.878  0.6417  0.4117 -0.1848
 2250SOL     OW 9072   1.549   2.127   3.777 -0.4439  0.3959 -0.2487
 2250SOL    HW2 9073   1.489   2.060   3.808  0.7003 -1.2395 -1.4764
 2250SOL    HW3 9074   1.544   2.122   3.682 -0.2396  1.9575 -0.3538
 2250SOL    MW4 9075   1.541   2.118   3.768 -0.2660  0.3862 -0.4244
 2251SOL     OW 9076   1.595   2.362   3.945  0.3113 -0.1923  0.4788
 2251SOL    HW2 9077   1.670   2.410   3.910 -0.5538  1.6513  1.1566
 2251SOL    HW3 9078   1.593   2.281   3.893  1.6818  0.5465 -0.7602
 2251SOL    MW4 9079   1.605   2.357   3.933  0.3778  0.1483  0.4046
 2252SOL     OW 9080   1.367   2.438   3.822 -0.2022  0.1748 -0.2258
 2252SOL    HW2 9081   1.425   2.428   3.898  0.3179 -1.9197 -0.8739
 2252SOL    HW3 9082   1.283   2.404   3.852 -0.7194  1.7884  0.2213
 2252SOL    MW4 9083   1.364   2.432   3.836 -0.2017  0.1113 -0.2525
 2253SOL     OW 9084   1.348   2.719   3.867  0.0879  0.3951 -0.0233
 2253SOL    HW2 9085   1.350   2.724   3.962 -0.1405 -0.6687  0.0498
 2253SOL    HW3 9086   1.353   2.625   3.848  0.2564  0.6064 -1.0609
 2253SOL    MW4 9087   1.349   2.707   3.877  0.0802  0.2825 -0.1507
 2254SOL     OW 9088   1.573   2.865   3.786  0.3421 -0.1281  0.2235
 2254SOL    HW2 9089   1.489   2.822   3.802 -0.2838  0.9403 -0.1064
 2254SOL    HW3 9090   1.586   2.856   3.692 -1.1883  2.8201 -0.3418
 2254SOL    MW4 9091   1.563   2.858   3.776  0.0576  0.4020  0.1054
 2255SOL     OW 9092   1.570   3.141   3.870  0.0974 -0.2178  0.0624
 2255SOL    HW2 9093   1.588   3.130   3.964  0.0860 -1.1610 -0.0395
 2255SOL    HW3 9094   1.569   3.052   3.836 -0.5858  0.0860 -0.7156
 2255SOL    MW4 9095   1.573   3.128   3.878  0.0057 -0.3021 -0.0534
 2256SOL     OW 9096   1.320   3.246   3.765  0.6353  0.6475  0.6054
 2256SOL    HW2 9097   1.313   3.330   3.810  1.6584  1.8348 -1.3405
 2256SOL    HW3 9098   1.402   3.209   3.797  1.2479  1.3820 -0.0850
 2256SOL    MW4 9099   1.330   3.252   3.775  0.8510  0.9010  0.2575
 2257SOL     OW 9100   1.347   3.488   3.899  0.8819 -0.0038  0.1796
 2257SOL    HW2 9101   1.424   3.532   3.864  1.0266 -2.3094 -2.6167
 2257SOL    HW3 9102   1.273   3.540   3.866  1.1833  1.4736  1.7943
 2257SOL    MW4 9103   1.347   3.500   3.890  0.9409 -0.1130  0.0236
 2258SOL     OW 9104   1.554   3.603   3.766  0.3029 -0.3527  0.5764
 2258SOL    HW2 9105   1.642   3.566   3.772  0.0937 -1.0170 -0.4448
 2258SOL    HW3 9106   1.563   3.691   3.803  1.6926  0.0607 -0.7204
 2258SOL    MW4 9107   1.567   3.610   3.772  0.4586 -0.3858  0.2706
 2259SOL     OW 9108   1.550   3.842   3.911 -0.6007 -0.0191 -0.3148
 2259SOL    HW2 9109   1.544   3.844   4.007  0.4327  0.8819 -0.2565
 2259SOL    HW3 9110   1.475   3.893   3.881  0.1227  1.2862  0.0714
 2259SOL    MW4 9111   1.540   3.849   3.920 -0.3687  0.2720 -0.2561
 2260SOL     OW 9112   1.349   4.004   3.827  0.2718 -0.1292 -0.1533
 2260SOL    HW2 9113   1.342   4.088   3.873 -1.3479 -1.0541  1.3761
 2260SOL    HW3 9114   1.351   4.028   3.734 -2.7620  1.5273  0.1342
 2260SOL    MW4 9115   1.348   4.019   3.821 -0.3421 -0.0324  0.0865
 2261SOL     OW 9116   1.339   4.277   3.896  0.3573 -0.5236 -0.1282
 2261SOL    HW2 9117   1.410   4.310   3.841  0.8156  0.8426  1.2315
 2261SOL    HW3 9118   1.260   4.317   3.861  0.7891  1.2652  0.8841
 2261SOL    MW4 9119   1.338   4.287   3.884  0.4747 -0.1073  0.1845
 2262SOL     OW 9120   1.553   4.401   3.751  0.4859 -0.3449 -0.0041
 2262SOL    HW2 9121   1.629   4.349   3.777  0.4378 -0.6615 -0.4863
 2262SOL    HW3 9122   1.556   4.403   3.655  0.6090  0.7309  0.0133
 2262SOL    MW4 9123   1.563   4.394   3.742  0.4959 -0.2446 -0.0656
 2263SOL     OW 9124   2.015   4.614   3.864  0.0786 -0.1277 -0.0598
 2263SOL    HW2 9125   2.081   4.657   3.810  0.9370 -2.4038 -0.8675
 2263SOL    HW3 9126   2.014   4.523   3.834 -2.6499 -0.4019  0.6969
 2263SOL    MW4 9127   2.024   4.608   3.853 -0.1681 -0.4640 -0.0665
 2264SOL     OW 9128   1.791   0.105   3.802  0.1144  0.2773 -0.0790
 2264SOL    HW2 9129   1.868   0.052   3.824 -0.5859 -0.8389 -0.2712
 2264SOL    HW3 9130   1.717   0.054   3.834 -0.8393 -0.6353 -3.4745
 2264SOL    MW4 9131   1.792   0.091   3.809 -0.1038  0.0096 -0.5522
 2265SOL     OW 9132   1.770   0.368   3.903 -0.0379 -0.2328  0.1975
 2265SOL    HW2 9133   1.776   0.371   3.998  0.9984  0.7719  0.1164
 2265SOL    HW3 9134   1.786   0.277   3.880 -2.0624 -0.8296  1.0850
 2265SOL    MW4 9135   1.773   0.356   3.912 -0.1682 -0.1790  0.3037
 2266SOL     OW 9136   2.020   0.439   3.792 -0.5461 -0.2363  0.4849
 2266SOL    HW2 9137   1.942   0.399   3.832 -0.8765  1.1590  1.2703
 2266SOL    HW3 9138   2.003   0.434   3.698  0.1498 -3.3635  0.4686
 2266SOL    MW4 9139   2.007   0.433   3.785 -0.4978 -0.4648  0.5863
 2267SOL     OW 9140   1.972   0.711   3.865  0.4296 -0.6199 -0.0456
 2267SOL    HW2 9141   1.988   0.729   3.957 -1.3334  0.1659  0.1303
 2267SOL    HW3 9142   1.985   0.617   3.856 -0.3773 -0.8539  1.2050
 2267SOL    MW4 9143   1.976   0.701   3.876  0.0905 -0.5471  0.1426
 2268SOL     OW 9144   1.813   0.915   3.782 -0.1293 -0.4392  0.6638
 2268SOL    HW2 9145   1.879   0.847   3.791 -0.3736 -0.8250 -0.3775
 2268SOL    HW3 9146   1.801   0.925   3.688 -2.0620 -0.8686  0.8425
 2268SOL    MW4 9147   1.820   0.908   3.771 -0.4164 -0.5468  0.5503
 2269SOL     OW 9148   1.766   1.151   3.901 -0.0883  0.3277 -0.0949
 2269SOL    HW2 9149   1.769   1.135   3.996  2.6206  0.5856 -0.1023
 2269SOL    HW3 9150   1.776   1.064   3.863  0.6935  0.4375 -0.1413
 2269SOL    MW4 9151   1.767   1.137   3.909  0.3723  0.3763 -0.1020
 2270SOL     OW 9152   1.974   1.264   3.765 -0.2071  0.1002 -0.5866
 2270SOL    HW2 9153   2.044   1.214   3.806 -1.2461  0.3907  1.6252
 2270SOL    HW3 9154   1.894   1.229   3.804 -1.1500  1.3061 -1.4011
 2270SOL    MW4 9155   1.972   1.253   3.775 -0.4686  0.2978 -0.4022
 2271SOL     OW 9156   2.003   1.519   3.866 -0.4438 -0.0821  0.0662
 2271SOL    HW2 9157   1.922   1.567   3.849  0.1737  0.1290 -2.5148
 2271SOL    HW3 9158   1.984   1.430   3.836 -0.1990 -0.3992  0.8512
 2271SOL    MW4 9159   1.989   1.513   3.859 -0.3301 -0.0961 -0.1707
 2272SOL     OW 9160   1.792   1.688   3.778  0.1890  0.2748  0.0506
 2272SOL    HW2 9161   1.773   1.777   3.808 -0.8808 -0.1014  0.4797
 2272SOL    HW3 9162   1.807   1.698   3.684 -0.6349  0.7914 -0.0262
 2272SOL    MW4 9163   1.792   1.701   3.770 -0.0608  0.2935  0.0970
 2273SOL     OW 9164   1.775   1.949   3.855  0.2223 -0.0297 -0.1972
 2273SOL    HW2 9165   1.755   1.966   3.947 -1.6357 -1.7102 -0.2470
 2273SOL    HW3 9166   1.713   2.003   3.807  0.6365  0.2211 -0.4487
 2273SOL    MW4 9167   1.764   1.958   3.861  0.0318 -0.2183 -0.2365
 2274SOL     OW 9168   1.998   2.076   3.752 -0.0198  0.0590 -0.6966
 2274SOL    HW2 9169   1.920   2.033   3.788  0.4689  0.4680  0.9141
 2274SOL    HW3 9170   1.981   2.084   3.658 -1.6981 -0.3137 -0.4329
 2274SOL    MW4 9171   1.986   2.072   3.744 -0.1769  0.0637 -0.4492
 2275SOL     OW 9172   2.007   2.333   3.895  0.3584  0.0798  0.4531
 2275SOL    HW2 9173   1.936   2.378   3.848 -0.7229  0.7247  2.6329
 2275SOL    HW3 9174   1.990   2.240   3.880 -0.6084  0.2450  0.4418
 2275SOL    MW4 9175   1.995   2.327   3.887  0.0881  0.1864  0.7391
 2276SOL     OW 9176   1.794   2.492   3.809  0.4045 -0.6907 -0.4763
 2276SOL    HW2 9177   1.807   2.584   3.829  3.1865 -1.3390  1.0508
 2276SOL    HW3 9178   1.816   2.483   3.716  2.1446 -0.1382 -0.1311
 2276SOL    MW4 9179   1.798   2.503   3.800  1.0011 -0.7033 -0.2294
 2277SOL     OW 9180   1.808   2.747   3.898 -0.2281 -0.2653  0.5944
 2277SOL    HW2 9181   1.795   2.725   3.990  1.1851  1.9085  1.3592
 2277SOL    HW3 9182   1.725   2.787   3.870  0.1426  1.3097  1.6488
 2277SOL    MW4 9183   1.795   2.750   3.907  0.0072  0.2294  0.8342
 2278SOL     OW 9184   2.042   2.839   3.798 -0.2497 -0.1108 -0.5193
 2278SOL    HW2 9185   2.103   2.773   3.829 -0.2859  0.2681  0.3863
 2278SOL    HW3 9186   1.959   2.816   3.838 -0.3527  0.2386 -0.5253
 2278SOL    MW4 9187   2.039   2.828   3.808 -0.2680 -0.0148 -0.4010
 2279SOL     OW 9188   2.006   3.110   3.832 -0.5416 -0.1866 -0.0572
 2279SOL    HW2 9189   2.090   3.151   3.809 -1.1288  1.2617  0.3587
 2279SOL    HW3 9190   2.021   3.017   3.819  1.3762 -0.0096  0.7110
 2279SOL    MW4 9191   2.019   3.103   3.827 -0.3660  0.0281  0.0989
 2280SOL     OW 9192   1.784   3.268   3.732  0.5132 -0.3493  0.0389
 2280SOL    HW2 9193   1.864   3.221   3.757  1.4848  1.6686  0.7735
 2280SOL    HW3 9194   1.715   3.227   3.783  1.2227 -1.4490  0.1383
 2280SOL    MW4 9195   1.785   3.256   3.742  0.7349 -0.2279  0.1488
 2281SOL     OW 9196   1.814   3.523   3.849 -0.1337  0.0669 -1.0439
 2281SOL    HW2 9197   1.893   3.568   3.818  1.0211 -0.4346  1.0916
 2281SOL    HW3 9198   1.826   3.433   3.821  0.6937 -0.2878  0.3940
 2281SOL    MW4 9199   1.826   3.517   3.841  0.1279 -0.0460 -0.5727
 2282SOL     OW 9200   2.037   3.667   3.759 -0.1399 -0.2148  0.0234
 2282SOL    HW2 9201   2.105   3.606   3.787  0.5518  0.0003 -1.1586
 2282SOL    HW3 9202   2.053   3.680   3.666 -0.3403  1.7060  0.2372
 2282SOL    MW4 9203   2.048   3.661   3.751 -0.0753  0.0672 -0.1042
 2283SOL     OW 9204   2.040   3.910   3.879  0.6189 -0.5157  0.1725
 2283SOL    HW2 9205   2.103   3.948   3.817 -0.7267  1.2538 -0.1426
 2283SOL    HW3 9206   2.033   3.818   3.853 -0.9938  0.5071 -3.2843
 2283SOL    MW4 9207   2.047   3.903   3.867  0.2282 -0.1471 -0.3252
 2284SOL     OW 9208   1.797   4.005   3.818  0.8907 -0.2172  0.1924
 2284SOL    HW2 9209   1.878   3.971   3.856  0.6299 -0.2845  0.7012
 2284SOL    HW3 9210   1.729   3.947   3.852  0.6000  0.0001 -0.0185
 2284SOL    MW4 9211   1.799   3.993   3.828  0.8179 -0.1974  0.2320
 2285SOL     OW 9212   1.784   4.273   3.841  0.4128  0.4728  0.3946
 2285SOL    HW2 9213   1.861   4.316   3.803 -0.8787  2.1650 -0.3730
 2285SOL    HW3 9214   1.796   4.180   3.820  1.7539  0.8418 -0.5811
 2285SOL    MW4 9215   1.796   4.266   3.833  0.4193  0.7448  0.1645
 2286SOL     OW 9216   2.014   4.368   3.738 -0.3759  0.2719  0.3429
 2286SOL    HW2 9217   2.094   4.323   3.764  0.5252  1.7434  0.1447
 2286SOL    HW3 9218   2.017   4.369   3.642 -0.9134 -0.1604  0.3182
 2286SOL    MW4 9219   2.025   4.362   3.729 -0.3278  0.4086  0.3133
 2287SOL     OW 9220   2.492   0.035   3.858 -0.2420 -0.0485  0.0300
 2287SOL    HW2 9221   2.501   0.033   3.954  0.2458  0.6281  0.0015
 2287SOL    HW3 9222   2.578   0.062   3.827 -0.5418  0.1972 -0.5834
 2287SOL    MW4 9223   2.505   0.038   3.867 -0.2172  0.0732 -0.0546
 2288SOL     OW 9224   2.228   0.097   3.757  0.2101 -0.1882 -0.2435
 2288SOL    HW2 9225   2.319   0.080   3.784  0.7483  2.0792 -0.5328
 2288SOL    HW3 9226   2.234   0.115   3.663 -0.3199  1.4297  0.0208
 2288SOL    MW4 9227   2.241   0.097   3.748  0.2112  0.3244 -0.2465
 2289SOL     OW 9228   2.274   0.371   3.844 -0.4064  0.0630  0.4395
 2289SOL    HW2 9229   2.269   0.280   3.815 -0.5932 -0.1240  1.0605
 2289SOL    HW3 9230   2.192   0.411   3.815 -0.7889 -0.2391  1.1114
 2289SOL    MW4 9231   2.263   0.364   3.836 -0.4811 -0.0015  0.6101
 2290SOL     OW 9232   2.501   0.503   3.756 -0.5569  0.5077  0.2257
 2290SOL    HW2 9233   2.427   0.447   3.779  0.2295 -0.1025  1.3395
 2290SOL    HW3 9234   2.500   0.507   3.661 -1.6470  0.0065  0.2081
 2290SOL    MW4 9235   2.491   0.496   3.747 -0.5970  0.3611  0.3700
 2291SOL     OW 9236   2.487   0.763   3.895  0.1107  0.1144  0.3013
 2291SOL    HW2 9237   2.402   0.792   3.861 -0.6509 -1.5802  0.6932
 2291SOL    HW3 9238   2.501   0.678   3.854  0.9838 -0.2172  1.2690
 2291SOL    MW4 9239   2.478   0.756   3.885  0.1254 -0.1530  0.4809
 2292SOL     OW 9240   2.227   0.837   3.801 -0.0702 -0.3375  0.0656
 2292SOL    HW2 9241   2.151   0.785   3.828 -1.0099  0.7048 -0.5357
 2292SOL    HW3 9242   2.231   0.825   3.706  0.4094 -0.2407  0.0735
 2292SOL    MW4 9243   2.217   0.828   3.792 -0.1309 -0.1872 -0.0129
 2293SOL     OW 9244   2.209   1.121   3.833 -0.2204  0.3167 -0.0343
 2293SOL    HW2 9245   2.224   1.117   3.927 -0.6357  0.4380  0.0406
 2293SOL    HW3 9246   2.192   1.031   3.807  1.0285  0.1184 -0.1919
 2293SOL    MW4 9247   2.208   1.109   3.842 -0.1104  0.3065 -0.0453
 2294SOL     OW 9248   2.425   1.281   3.762 -0.3241 -0.0977 -0.3265
 2294SOL    HW2 9249   2.425   1.355   3.823  0.9837 -0.4479  0.1304
 2294SOL    HW3 9250   2.350   1.229   3.789 -0.3219  0.2521  0.3895
 2294SOL    MW4 9251   2.415   1.284   3.774 -0.1512 -0.0979 -0.1719
 2295SOL     OW 9252   2.493   1.530   3.873  0.0621  0.4336  0.6203
 2295SOL    HW2 9253   2.558   1.592   3.840 -0.6059  0.0207 -1.5532
 2295SOL    HW3 9254   2.410   1.564   3.842 -0.3332 -1.4078 -0.4449
 2295SOL    MW4 9255   2.491   1.543   3.864 -0.0782  0.1361  0.1929
 2296SOL     OW 9256   2.261   1.654   3.759 -0.3865 -0.0064  0.3494
 2296SOL    HW2 9257   2.256   1.744   3.790  0.1254 -0.3248  1.3851
 2296SOL    HW3 9258   2.175   1.617   3.780 -0.0153 -0.2416  1.4696
 2296SOL    MW4 9259   2.249   1.661   3.766 -0.2699 -0.0794  0.6340
 2297SOL     OW 9260   2.246   1.950   3.822  0.2805 -0.0195 -0.3442
 2297SOL    HW2 9261   2.254   1.938   3.917 -0.8470 -1.5115 -0.4176
 2297SOL    HW3 9262   2.164   1.998   3.811  0.9202  1.0469 -0.5161
 2297SOL    MW4 9263   2.236   1.955   3.833  0.2160 -0.0756 -0.3765
 2298SOL     OW 9264   2.453   2.096   3.689  0.1696  0.1335  0.2306
 2298SOL    HW2 9265   2.457   2.173   3.745 -0.4439  0.2102  0.1747
 2298SOL    HW3 9266   2.382   2.043   3.725 -0.0887  0.0829 -0.3397
 2298SOL    MW4 9267   2.444   2.099   3.701  0.0544  0.1371  0.1478
 2299SOL     OW 9268   2.471   2.307   3.849  0.5583  0.0021 -0.1795
 2299SOL    HW2 9269   2.548   2.360   3.826  0.8501 -0.8993 -1.3065
 2299SOL    HW3 9270   2.477   2.298   3.944  1.7400  0.1185 -0.2302
 2299SOL    MW4 9271   2.482   2.313   3.859  0.7527 -0.1018 -0.3345
 2300SOL     OW 9272   2.233   2.409   3.711  0.0600  0.0014 -0.2929
 2300SOL    HW2 9273   2.161   2.371   3.761 -2.0963  2.4542 -1.3647
 2300SOL    HW3 9274   2.311   2.389   3.762 -1.6591 -0.5072  2.2565
 2300SOL    MW4 9275   2.234   2.401   3.724 -0.4513  0.2580 -0.0982
 2301SOL     OW 9276   2.257   2.650   3.840 -0.4231 -0.3194 -0.3183
 2301SOL    HW2 9277   2.240   2.632   3.933  0.2640 -0.7043 -0.2676
 2301SOL    HW3 9278   2.218   2.576   3.794 -1.6439  0.3612 -0.4113
 2301SOL    MW4 9279   2.249   2.638   3.847 -0.4933 -0.2801 -0.3238
 2302SOL     OW 9280   2.457   2.837   3.737  0.0041 -0.0487  0.2868
 2302SOL    HW2 9281   2.389   2.776   3.769 -0.6534  1.3665  1.6746
 2302SOL    HW3 9282   2.451   2.831   3.642 -2.4510  0.4313  0.3677
 2302SOL    MW4 9283   2.447   2.828   3.729 -0.4067  0.2017  0.4807
 2303SOL     OW 9284   2.456   3.088   3.862  0.1077  0.1954 -0.1657
 2303SOL    HW2 9285   2.452   3.062   3.954  0.4449 -0.0329 -0.2140
 2303SOL    HW3 9286   2.460   3.006   3.814  1.9711  0.3282 -0.2783
 2303SOL    MW4 9287   2.456   3.074   3.868  0.3979  0.1829 -0.1869
 2304SOL     OW 9288   2.250   3.222   3.742  0.1313  0.3491 -0.1799
 2304SOL    HW2 9289   2.239   3.313   3.767 -1.4186 -0.1887  1.1254
 2304SOL    HW3 9290   2.317   3.188   3.801 -1.7197 -0.2397  1.6488
 2304SOL    MW4 9291   2.257   3.229   3.753 -0.3173  0.2005  0.2334
 2305SOL     OW 9292   2.224   3.485   3.849  0.1563  0.2091  0.1189
 2305SOL    HW2 9293   2.232   3.484   3.944  0.7502 -0.0285  0.0680
 2305SOL    HW3 9294   2.303   3.528   3.818 -0.2011  0.6029 -0.2543
 2305SOL    MW4 9295   2.235   3.491   3.857  0.1879  0.2296  0.0629
 2306SOL     OW 9296   2.473   3.581   3.766 -0.0979 -0.0611  0.4518
 2306SOL    HW2 9297   2.548   3.544   3.813  0.7350 -0.2128 -0.9700
 2306SOL    HW3 9298   2.507   3.602   3.679 -1.7475 -0.2730 -0.2652
 2306SOL    MW4 9299   2.487   3.579   3.761 -0.2058 -0.1092  0.1700
 2307SOL     OW 9300   2.466   3.844   3.846  0.4042 -0.1881  0.0156
 2307SOL    HW2 9301   2.542   3.888   3.807  0.6987  0.4009  1.2152
 2307SOL    HW3 9302   2.479   3.751   3.827  0.8104  0.0424 -0.8273
 2307SOL    MW4 9303   2.478   3.838   3.839  0.4966 -0.0799  0.0629
 2308SOL     OW 9304   2.263   4.009   3.744 -0.4444 -0.4975 -0.3361
 2308SOL    HW2 9305   2.340   3.966   3.781 -0.8499 -0.0675  1.0094
 2308SOL    HW3 9306   2.273   3.998   3.649  0.7632 -1.3075 -0.1208
 2308SOL    MW4 9307   2.274   4.002   3.736 -0.3386 -0.5479 -0.1299
 2309SOL     OW 9308   2.265   4.287   3.847 -0.5222 -0.3051 -0.1671
 2309SOL    HW2 9309   2.262   4.272   3.942  0.9683 -0.1725 -0.0925
 2309SOL    HW3 9310   2.274   4.199   3.810  2.0265 -0.1211 -0.0258
 2309SOL    MW4 9311   2.265   4.273   3.855  0.0105 -0.2632 -0.1385
 2310SOL     OW 9312   2.465   4.445   3.757 -0.0499 -1.1515 -0.2443
 2310SOL    HW2 9313   2.392   4.401   3.800 -0.9843  0.1132 -0.5253
 2310SOL    HW3 9314   2.476   4.527   3.805  1.6458 -1.6406  0.2354
 2310SOL    MW4 9315   2.457   4.450   3.769  0.0505 -1.0490 -0.2184
 2311SOL     OW 9316   2.942   4.639   3.861 -0.1712  0.2144 -0.2643
 2311SOL    HW2 9317   2.941   4.643   3.957  1.9885 -0.5669 -0.1790
 2311SOL    HW3 9318   3.023   4.683   3.836 -0.5303  0.0689 -1.7019
 2311SOL    MW4 9319   2.952   4.645   3.871  0.0663  0.0925 -0.4430
 2312SOL     OW 9320   2.732   0.129   3.782 -0.0652 -0.3548 -0.1522
 2312SOL    HW2 9321   2.811   0.085   3.812  0.3850  0.7705  0.3825
 2312SOL    HW3 9322   2.744   0.139   3.688  0.9242  0.7421  0.0736
 2312SOL    MW4 9323   2.744   0.125   3.774  0.1247 -0.0616 -0.0517
 2313SOL     OW 9324   2.735   0.384   3.901  0.6263  0.3820  0.1271
 2313SOL    HW2 9325   2.743   0.299   3.857 -0.3065  0.4787 -0.2379
 2313SOL    HW3 9326   2.676   0.434   3.846  1.3787  1.3740  0.2038
 2313SOL    MW4 9327   2.729   0.379   3.888  0.6027  0.5257  0.0889
 2314SOL     OW 9328   2.945   0.522   3.764 -0.2078  0.2413  0.7076
 2314SOL    HW2 9329   3.021   0.489   3.812  0.0534  0.1458  0.2297
 2314SOL    HW3 9330   2.870   0.497   3.818  0.0496 -0.3043  0.8192
 2314SOL    MW4 9331   2.945   0.514   3.777 -0.1392  0.1568  0.6592
 2315SOL     OW 9332   2.948   0.772   3.868  0.1772  0.1170 -0.0060
 2315SOL    HW2 9333   3.019   0.829   3.839  0.0662 -0.0192 -0.5565
 2315SOL    HW3 9334   2.963   0.689   3.822 -0.2761  0.0584 -0.0535
 2315SOL    MW4 9335   2.959   0.769   3.858  0.1030  0.0913 -0.0851
 2316SOL     OW 9336   2.700   0.882   3.789  0.3098 -0.1743 -0.4099
 2316SOL    HW2 9337   2.783   0.837   3.805 -0.2373 -1.7114 -1.7996
 2316SOL    HW3 9338   2.633   0.823   3.823 -0.3337  0.1909 -1.0377
 2316SOL    MW4 9339   2.702   0.869   3.795  0.1528 -0.3289 -0.6759
 2317SOL     OW 9340   2.661   1.165   3.866 -0.3101  0.3337  0.3705
 2317SOL    HW2 9341   2.655   1.073   3.843 -0.1095  0.5235 -0.4632
 2317SOL    HW3 9342   2.579   1.203   3.835  0.9719  1.0662 -2.3169
 2317SOL    MW4 9343   2.649   1.158   3.859 -0.1144  0.4554 -0.0939
 2318SOL     OW 9344   2.902   1.280   3.786  0.3390 -0.4428  0.2419
 2318SOL    HW2 9345   2.909   1.368   3.822 -0.3691 -0.5205  0.5711
 2318SOL    HW3 9346   2.830   1.240   3.834 -0.5744 -0.5624 -1.1885
 2318SOL    MW4 9347   2.893   1.287   3.797  0.1247 -0.4690  0.0968
 2319SOL     OW 9348   2.900   1.536   3.886 -0.4385 -0.1144 -0.1281
 2319SOL    HW2 9349   2.864   1.570   3.968 -0.4164  0.1135 -0.2108
 2319SOL    HW3 9350   2.984   1.580   3.877 -1.1808  1.1502 -1.1127
 2319SOL    MW4 9351   2.906   1.546   3.895 -0.5336  0.0825 -0.2689
 2320SOL     OW 9352   2.690   1.704   3.766 -0.6179 -0.5136 -0.3680
 2320SOL    HW2 9353   2.758   1.643   3.794  1.4649  1.5760 -0.6945
 2320SOL    HW3 9354   2.688   1.695   3.670  2.4907  2.6091 -0.8534
 2320SOL    MW4 9355   2.699   1.695   3.757  0.0672  0.1742 -0.4749
 2321SOL     OW 9356   2.676   1.989   3.818  0.3791 -0.5930 -0.1656
 2321SOL    HW2 9357   2.686   1.895   3.804  1.0939 -0.7429  1.2435
 2321SOL    HW3 9358   2.600   2.013   3.766 -0.3796 -2.1275  0.1988
 2321SOL    MW4 9359   2.667   1.980   3.809  0.3731 -0.8153  0.0687
 2322SOL     OW 9360   2.915   2.114   3.720  0.2290  0.1740 -0.2538
 2322SOL    HW2 9361   2.907   2.204   3.750  1.0567 -0.1951  1.0997
 2322SOL    HW3 9362   2.833   2.072   3.749  0.0242  0.3833 -0.5253
 2322SOL    MW4 9363   2.903   2.120   3.728  0.3109  0.1531 -0.1111
 2323SOL     OW 9364   2.900   2.359   3.814  0.2306  0.3249  0.1426
 2323SOL    HW2 9365   2.905   2.350   3.909  0.3901 -0.9899  0.0198
 2323SOL    HW3 9366   2.991   2.363   3.785  0.2038 -0.2654 -0.0347
 2323SOL    MW4 9367   2.912   2.358   3.823  0.2482  0.0734  0.1028
 2324SOL     OW 9368   2.662   2.457   3.713 -0.0528  0.1249 -0.1980
 2324SOL    HW2 9369   2.660   2.541   3.759 -0.5509  0.3418 -0.6032
 2324SOL    HW3 9370   2.745   2.417   3.739  0.8355  1.3535 -1.0652
 2324SOL    MW4 9371   2.673   2.463   3.722 -0.0014  0.3157 -0.3660
 2325SOL     OW 9372   2.676   2.685   3.850  0.5000  0.0111  0.1685
 2325SOL    HW2 9373   2.671   2.673   3.944  0.0493  2.9405  0.5785
 2325SOL    HW3 9374   2.601   2.742   3.829 -0.1679 -1.6283 -2.1488
 2325SOL    MW4 9375   2.665   2.691   3.860  0.3524  0.1814 -0.0830
 2326SOL     OW 9376   2.912   2.850   3.753  0.0441  0.2885  0.2900
 2326SOL    HW2 9377   2.883   2.934   3.787 -0.2757  0.1003  0.4755
 2326SOL    HW3 9378   2.858   2.785   3.797 -0.7294  0.0800 -0.9445
 2326SOL    MW4 9379   2.901   2.852   3.763 -0.1001  0.2363  0.1516
 2327SOL     OW 9380   2.858   3.092   3.876 -0.2501 -0.0266 -0.0642
 2327SOL    HW2 9381   2.940   3.137   3.857 -0.1489  0.3461  1.2123
 2327SOL    HW3 9382   2.794   3.133   3.818  0.0615  1.0228  0.3329
 2327SOL    MW4 9383   2.860   3.103   3.866 -0.1955  0.1609  0.1569
 2328SOL     OW 9384   2.673   3.217   3.738 -0.3047 -0.0278 -0.2323
 2328SOL    HW2 9385   2.694   3.300   3.781 -0.6438  0.2278 -0.5531
 2328SOL    HW3 9386   2.606   3.178   3.794 -0.1445 -0.0838 -0.0806
 2328SOL    MW4 9387   2.667   3.223   3.751 -0.3281 -0.0012 -0.2549
 2329SOL     OW 9388   2.712   3.472   3.883  0.0288  0.0548  0.0210
 2329SOL    HW2 9389   2.673   3.491   3.968  0.6826  1.6600 -0.0244
 2329SOL    HW3 9390   2.780   3.538   3.872 -0.7835  0.5659 -2.2220
 2329SOL    MW4 9391   2.716   3.483   3.893  0.0081  0.3343 -0.2809
 2330SOL     OW 9392   2.899   3.627   3.778  0.1561  0.5312 -0.0747
 2330SOL    HW2 9393   2.979   3.576   3.791 -0.7617 -0.8832  0.0521
 2330SOL    HW3 9394   2.882   3.621   3.684  0.2872  0.9877 -0.1309
 2330SOL    MW4 9395   2.907   3.619   3.767  0.0525  0.4046 -0.0653
 2331SOL     OW 9396   2.915   3.893   3.826  0.1438 -0.2426 -0.5427
 2331SOL    HW2 9397   2.916   3.910   3.920 -1.6306 -0.3097 -0.4901
 2331SOL    HW3 9398   2.898   3.799   3.818  3.4029 -0.8469 -0.9120
 2331SOL    MW4 9399   2.913   3.883   3.837  0.3397 -0.3312 -0.5848
 2332SOL     OW 9400   2.660   3.995   3.736 -0.0485 -0.5737  0.4122
 2332SOL    HW2 9401   2.657   4.085   3.768  3.0447  0.1334 -1.0944
 2332SOL    HW3 9402   2.741   3.960   3.773  0.2442 -1.7877 -1.3688
 2332SOL    MW4 9403   2.671   4.003   3.745  0.3984 -0.6409 -0.0215
 2333SOL     OW 9404   2.685   4.280   3.835 -0.0362 -0.0221  0.5157
 2333SOL    HW2 9405   2.766   4.307   3.793 -0.4963  2.0144  0.8856
 2333SOL    HW3 9406   2.621   4.346   3.809 -1.3451 -1.0852  0.9918
 2333SOL    MW4 9407   2.687   4.292   3.826 -0.2699  0.1068  0.6275
 2334SOL     OW 9408   2.923   4.371   3.747 -0.1924  0.1846  0.0312
 2334SOL    HW2 9409   3.009   4.337   3.768 -0.4437 -0.3623  0.1829
 2334SOL    HW3 9410   2.920   4.457   3.787 -1.0536 -1.2407  3.1531
 2334SOL    MW4 9411   2.934   4.378   3.755 -0.3393 -0.0758  0.4630
 2335SOL     OW 9412   3.393   0.010   3.859 -0.0226 -0.6884 -0.3541
 2335SOL    HW2 9413   3.386   0.022   3.954 -3.0176  0.1058 -0.6285
 2335SOL    HW3 9414   3.465   0.067   3.833  0.4319 -0.4451  1.3339
 2335SOL    MW4 9415   3.402   0.019   3.868 -0.3581 -0.5515 -0.1678
 2336SOL     OW 9416   3.147   0.141   3.786 -0.2419 -0.3483 -0.1072
 2336SOL    HW2 9417   3.231   0.109   3.818 -0.0334  2.0963  1.9451
 2336SOL    HW3 9418   3.145   0.116   3.694  2.3262 -1.2225  0.0393
 2336SOL    MW4 9419   3.158   0.133   3.778  0.1242 -0.1411  0.1829
 2337SOL     OW 9420   3.153   0.402   3.902  0.1746 -0.5629 -0.1722
 2337SOL    HW2 9421   3.141   0.400   3.996  1.4668 -0.1178  0.0162
 2337SOL    HW3 9422   3.147   0.310   3.875 -1.5417 -0.5554  0.1450
 2337SOL    MW4 9423   3.151   0.389   3.911  0.1187 -0.5032 -0.1054
 2338SOL     OW 9424   3.356   0.519   3.778 -0.2718  0.0763  0.1233
 2338SOL    HW2 9425   3.441   0.483   3.803  0.2666  1.3163  0.1153
 2338SOL    HW3 9426   3.293   0.470   3.830  0.2936 -1.9813 -1.0478
 2338SOL    MW4 9427   3.359   0.508   3.788 -0.1264 -0.0315 -0.0322
 2339SOL     OW 9428   3.331   0.781   3.891 -0.0436  0.5081  0.6934
 2339SOL    HW2 9429   3.329   0.782   3.987  0.3695  1.0575  0.6986
 2339SOL    HW3 9430   3.331   0.688   3.868  1.7801  0.3573  1.2656
 2339SOL    MW4 9431   3.331   0.769   3.901  0.2518  0.5607  0.7696
 2340SOL     OW 9432   3.157   0.936   3.767  0.5247  0.6253 -0.0817
 2340SOL    HW2 9433   3.221   0.876   3.804  0.0826 -0.1637 -0.5829
 2340SOL    HW3 9434   3.160   0.920   3.672 -1.8817 -0.9138  0.0687
 2340SOL    MW4 9435   3.166   0.926   3.759  0.1493  0.3182 -0.1283
 2341SOL     OW 9436   3.151   1.192   3.878  0.1485  0.1138 -0.0106
 2341SOL    HW2 9437   3.166   1.110   3.832  1.9076  0.7856 -0.6740
 2341SOL    HW3 9438   3.059   1.213   3.860  0.0900 -0.9482 -1.0337
 2341SOL    MW4 9439   3.141   1.184   3.870  0.3729  0.0622 -0.2329
 2342SOL     OW 9440   3.368   1.328   3.796 -0.0806 -0.4374  0.0552
 2342SOL    HW2 9441   3.287   1.287   3.828 -0.9691  1.7043  0.6550
 2342SOL    HW3 9442   3.358   1.331   3.701 -1.5523  1.5000  0.2581
 2342SOL    MW4 9443   3.356   1.323   3.788 -0.3922  0.1007  0.1609
 2343SOL     OW 9444   3.358   1.599   3.882  0.3597 -0.2575 -0.3153
 2343SOL    HW2 9445   3.271   1.626   3.851  0.2017  0.3791  0.6754
 2343SOL    HW3 9446   3.369   1.511   3.847 -0.3644 -0.0468 -1.0904
 2343SOL    MW4 9447   3.348   1.591   3.873  0.2434 -0.1458 -0.2866
 2344SOL     OW 9448   3.123   1.705   3.796  0.3665  0.4328  0.3003
 2344SOL    HW2 9449   3.108   1.794   3.830 -1.2657 -0.4304  1.8944
 2344SOL    HW3 9450   3.113   1.715   3.701 -2.5156  1.4955  0.6391
 2344SOL    MW4 9451   3.119   1.718   3.788 -0.2291  0.4591  0.5553
 2345SOL     OW 9452   3.138   1.987   3.851  0.2162  0.1607  0.2541
 2345SOL    HW2 9453   3.137   2.002   3.945  0.5159  1.7499  0.0077
 2345SOL    HW3 9454   3.055   2.025   3.820  0.6485  0.6771 -0.2752
 2345SOL    MW4 9455   3.127   1.994   3.859  0.3126  0.4387  0.1519
 2346SOL     OW 9456   3.392   2.057   3.760 -0.3970 -0.0113  0.2575
 2346SOL    HW2 9457   3.301   2.043   3.785 -0.3207 -0.7000  0.1429
 2346SOL    HW3 9458   3.391   2.059   3.665 -0.1453 -0.9695  0.2374
 2346SOL    MW4 9459   3.380   2.056   3.751 -0.3538 -0.2286  0.2401
 2347SOL     OW 9460   3.386   2.320   3.844 -0.0091 -0.0713  0.0642
 2347SOL    HW2 9461   3.304   2.345   3.801  0.0955  1.8930  0.9793
 2347SOL    HW3 9462   3.401   2.230   3.815 -1.0403  0.4775 -2.3235
 2347SOL    MW4 9463   3.377   2.311   3.834 -0.1316  0.2604 -0.1302
 2348SOL     OW 9464   3.147   2.425   3.713 -0.1994 -0.3952  0.3009
 2348SOL    HW2 9465   3.167   2.511   3.748  1.0480 -0.4694 -0.2154
 2348SOL    HW3 9466   3.155   2.435   3.618 -3.2732 -0.2653  0.0021
 2348SOL    MW4 9467   3.151   2.437   3.705 -0.4406 -0.3879  0.1936
 2349SOL     OW 9468   3.329   3.123   3.860  0.4570  0.2269 -0.1227
 2349SOL    HW2 9469   3.344   3.132   3.954  0.3879  1.6178 -0.2282
 2349SOL    HW3 9470   3.345   3.030   3.841 -2.3193 -0.6868  1.7477
 2349SOL    MW4 9471   3.333   3.112   3.870  0.0815  0.2902  0.1101
 2350SOL     OW 9472   2.805   2.783   4.251 -0.0015  0.3585 -0.1707
 2350SOL    HW2 9473   2.780   2.798   4.342 -0.1696  0.8670 -0.2984
 2350SOL    HW3 9474   2.761   2.701   4.227  0.5133 -0.0845  0.3820
 2350SOL    MW4 9475   2.796   2.774   4.260  0.0441  0.3674 -0.1149
 2351SOL     OW 9476   3.375   2.866   3.746 -0.2398  0.0537  0.5593
 2351SOL    HW2 9477   3.301   2.811   3.772  0.2212 -1.3936 -1.0743
 2351SOL    HW3 9478   3.451   2.824   3.786 -0.1230  0.7103  1.0310
 2351SOL    MW4 9479   3.375   2.853   3.755 -0.1638 -0.0505  0.4060
 2352SOL     OW 9480   3.095   3.219   3.763  0.1476  0.0411 -0.1546
 2352SOL    HW2 9481   3.179   3.181   3.790  1.3051  1.9825 -0.9086
 2352SOL    HW3 9482   3.107   3.241   3.671 -0.5854  1.9142  0.1804
 2352SOL    MW4 9483   3.107   3.217   3.754  0.2038  0.5443 -0.2100
 2353SOL     OW 9484   3.113   3.482   3.850  0.7285  0.4721 -0.4720
 2353SOL    HW2 9485   3.189   3.526   3.812 -0.2245  1.4641 -1.2770
 2353SOL    HW3 9486   3.109   3.398   3.804  0.3298  1.1438 -1.7081
 2353SOL    MW4 9487   3.123   3.477   3.839  0.5503  0.6914 -0.7412
 2354SOL     OW 9488   3.345   3.592   3.741 -0.3918  0.4131 -0.4494
 2354SOL    HW2 9489   3.358   3.683   3.767 -2.9968  1.1241 -1.5015
 2354SOL    HW3 9490   3.355   3.592   3.646  2.6106 -0.9962 -0.1843
 2354SOL    MW4 9491   3.348   3.604   3.732 -0.3393  0.3211 -0.5531
 2355SOL     OW 9492   3.408   3.847   3.828  0.0683  0.2021 -0.3898
 2355SOL    HW2 9493   3.477   3.896   3.783 -1.6608  0.9178 -2.3419
 2355SOL    HW3 9494   3.327   3.893   3.805 -1.2289 -1.5635  0.5394
 2355SOL    MW4 9495   3.407   3.860   3.819 -0.3309  0.0637 -0.5248
 2356SOL     OW 9496   3.171   3.990   3.743  0.1157  0.3007 -0.7688
 2356SOL    HW2 9497   3.171   4.084   3.762  1.0362 -0.0063  0.8653
 2356SOL    HW3 9498   3.079   3.964   3.753 -0.1999  1.0779 -1.5610
 2356SOL    MW4 9499   3.159   3.999   3.747  0.1957  0.3629 -0.6578
 2357SOL     OW 9500   3.158   4.258   3.838 -0.3757 -0.2806  0.1490
 2357SOL    HW2 9501   3.159   4.264   3.934  2.2310 -0.3066  0.1581
 2357SOL    HW3 9502   3.228   4.317   3.810 -1.5457  0.2267 -1.7931
 2357SOL    MW4 9503   3.167   4.266   3.847 -0.1862 -0.2170 -0.1061
 2358SOL     OW 9504   3.363   4.414   3.753 -0.2658  0.5704 -0.2636
 2358SOL    HW2 9505   3.427   4.355   3.794 -0.9492 -0.0033 -0.0150
 2358SOL    HW3 9506   3.393   4.502   3.778 -0.7297  0.2267  1.5768
 2358SOL    MW4 9507   3.376   4.418   3.762 -0.4172  0.4497  0.0119
 2359SOL     OW 9508   3.804   0.018   3.857 -0.3311 -0.1577  0.7643
 2359SOL    HW2 9509   3.885   0.052   3.817 -0.6567  0.9384  1.0276
 2359SOL    HW3 9510   3.794  -0.070   3.819  0.5645 -0.0019  0.1404
 2359SOL    MW4 9511   3.814   0.011   3.847 -0.2558  0.0072  0.7169
 2360SOL     OW 9512   3.597   0.174   3.801 -0.5764  0.1606 -0.1262
 2360SOL    HW2 9513   3.672   0.124   3.834 -0.6130 -0.0907 -0.4187
 2360SOL    HW3 9514   3.587   0.144   3.710 -1.2778 -0.0984  0.0319
 2360SOL    MW4 9515   3.606   0.163   3.793 -0.6740  0.0933 -0.1440
 2361SOL     OW 9516   3.592   0.425   3.889  0.3220  0.2528 -0.0309
 2361SOL    HW2 9517   3.671   0.470   3.861  0.8123 -0.7459 -0.2821
 2361SOL    HW3 9518   3.598   0.338   3.850  0.5185 -0.8304  2.2933
 2361SOL    MW4 9519   3.603   0.420   3.880  0.4125 -0.0219  0.2427
 2362SOL     OW 9520   3.807   0.548   3.770  0.3604 -0.0640 -0.1985
 2362SOL    HW2 9521   3.889   0.505   3.797 -0.4132 -0.0690  2.2893
 2362SOL    HW3 9522   3.802   0.626   3.826  0.0105  1.4339 -2.2511
 2362SOL    MW4 9523   3.817   0.553   3.781  0.2122  0.1330 -0.1411
 2363SOL     OW 9524   3.787   0.773   3.941  0.1070  0.2104 -0.2119
 2363SOL    HW2 9525   3.857   0.823   3.900  0.6788  0.3296  0.8760
 2363SOL    HW3 9526   3.706   0.811   3.907  0.5640  0.4704 -1.0118
 2363SOL    MW4 9527   3.786   0.784   3.931  0.2427  0.2604 -0.1738
 2364SOL     OW 9528   3.577   0.881   3.819  0.1667  0.3149 -0.2710
 2364SOL    HW2 9529   3.577   0.972   3.848  0.2038  0.5973 -1.1266
 2364SOL    HW3 9530   3.489   0.849   3.839  0.3671  0.3371  0.6427
 2364SOL    MW4 9531   3.565   0.889   3.825  0.1981  0.3550 -0.2635
 2365SOL     OW 9532   3.568   1.162   3.909 -0.2647 -0.4504 -0.4728
 2365SOL    HW2 9533   3.644   1.200   3.866  0.8507 -2.0281  0.0524
 2365SOL    HW3 9534   3.496   1.223   3.891  0.7033  0.0910 -2.5617
 2365SOL    MW4 9535   3.568   1.175   3.901  0.0103 -0.5871 -0.6790
 2366SOL     OW 9536   3.784   1.287   3.780 -0.2154  0.4077 -0.4545
 2366SOL    HW2 9537   3.864   1.250   3.819  0.0973  1.2606 -0.2696
 2366SOL    HW3 9538   3.788   1.379   3.803 -1.2485  0.4552 -0.4788
 2366SOL    MW4 9539   3.795   1.294   3.788 -0.3102  0.5265 -0.4334
 2367SOL     OW 9540   3.816   1.545   3.861 -0.7020  0.5339  0.1366
 2367SOL    HW2 9541   3.827   1.543   3.956 -0.2623  1.0424  0.0975
 2367SOL    HW3 9542   3.754   1.617   3.846  0.5386  1.5833 -0.0774
 2367SOL    MW4 9543   3.809   1.555   3.872 -0.4807  0.7393  0.1030
 2368SOL     OW 9544   3.598   1.717   3.813 -0.4939 -0.1859  0.0630
 2368SOL    HW2 9545   3.517   1.679   3.847 -0.7913  0.5072  0.1482
 2368SOL    HW3 9546   3.594   1.702   3.719 -1.0774  0.4913 -0.0263
 2368SOL    MW4 9547   3.587   1.710   3.805 -0.6104 -0.0051  0.0625
 2369SOL     OW 9548   3.615   1.984   3.897 -0.3323 -0.1459 -0.2464
 2369SOL    HW2 9549   3.608   1.900   3.852  0.0022 -0.1229 -0.3483
 2369SOL    HW3 9550   3.541   2.035   3.864  1.8368  1.1097 -3.4649
 2369SOL    MW4 9551   3.605   1.980   3.887 -0.0019  0.0229 -0.6845
 2370SOL     OW 9552   3.793   2.079   3.723 -0.1786  0.0816  0.1864
 2370SOL    HW2 9553   3.871   2.033   3.755  0.0568 -0.1030 -0.6494
 2370SOL    HW3 9554   3.721   2.046   3.777  0.1514 -0.5554  0.2312
 2370SOL    MW4 9555   3.793   2.069   3.734 -0.1037 -0.0267  0.0818
 2371SOL     OW 9556   3.816   2.346   3.779  0.2643  0.2620 -0.1989
 2371SOL    HW2 9557   3.733   2.382   3.748  0.1387 -0.6285 -0.9403
 2371SOL    HW3 9558   3.813   2.254   3.751  0.9593 -0.0857  0.8621
 2371SOL    MW4 9559   3.805   2.338   3.771  0.3395  0.0985 -0.1566
 2372SOL     OW 9560   3.578   2.464   3.710  0.0174 -0.0495  0.0537
 2372SOL    HW2 9561   3.528   2.407   3.769 -0.8268  0.6950  0.0775
 2372SOL    HW3 9562   3.560   2.429   3.623  0.7973 -0.7957  0.1882
 2372SOL    MW4 9563   3.569   2.452   3.706  0.0088 -0.0498  0.0746
 2373SOL     OW 9564   3.154   2.696   3.810 -0.1882  0.5881  0.2016
 2373SOL    HW2 9565   3.073   2.745   3.795 -0.9362 -0.8109 -0.4055
 2373SOL    HW3 9566   3.159   2.686   3.905 -1.8973 -1.2467  0.1114
 2373SOL    MW4 9567   3.144   2.701   3.820 -0.5124  0.1612  0.1097
 2374SOL     OW 9568   3.824   2.851   3.703 -0.2419  0.2724 -0.2441
 2374SOL    HW2 9569   3.889   2.812   3.761 -0.9720  1.5112  1.4706
 2374SOL    HW3 9570   3.742   2.805   3.724 -0.1399 -0.6119 -1.7004
 2374SOL    MW4 9571   3.822   2.840   3.714 -0.3247  0.3195 -0.2100
 2375SOL     OW 9572   3.782   3.098   3.837 -0.0839 -0.1019 -0.0852
 2375SOL    HW2 9573   3.702   3.136   3.801  0.8374  0.9482 -1.0574
 2375SOL    HW3 9574   3.800   3.022   3.782 -0.1249 -0.0492 -0.1703
 2375SOL    MW4 9575   3.774   3.093   3.825  0.0322  0.0434 -0.2246
 2376SOL     OW 9576   3.565   3.238   3.748  0.1343  0.1596 -0.3484
 2376SOL    HW2 9577   3.568   3.331   3.769  0.9400 -0.0912  0.6996
 2376SOL    HW3 9578   3.485   3.206   3.789  0.6603  0.0830  0.6334
 2376SOL    MW4 9579   3.555   3.246   3.756  0.3099  0.1161 -0.0803
 2377SOL     OW 9580   3.590   3.499   3.835 -0.2719  0.3084 -0.4117
 2377SOL    HW2 9581   3.584   3.491   3.931 -0.4908  2.3532 -0.2438
 2377SOL    HW3 9582   3.502   3.523   3.807 -0.2419 -0.4181 -1.1680
 2377SOL    MW4 9583   3.578   3.501   3.844 -0.2968  0.4823 -0.4890
 2378SOL     OW 9584   3.811   3.635   3.756  0.4609  0.5286  0.0725
 2378SOL    HW2 9585   3.803   3.723   3.793  0.0673  0.0067  1.2685
 2378SOL    HW3 9586   3.733   3.589   3.789  1.9884 -1.0266  1.6228
 2378SOL    MW4 9587   3.799   3.641   3.765  0.6106  0.2549  0.4349
 2379SOL     OW 9588   3.836   3.893   3.839 -0.1745  0.1395  0.2525
 2379SOL    HW2 9589   3.839   3.906   3.933  0.9745  0.6877  0.1454
 2379SOL    HW3 9590   3.915   3.935   3.806  0.3718 -1.6294 -0.7586
 2379SOL    MW4 9591   3.847   3.900   3.847  0.0494 -0.0217  0.1051
 2380SOL     OW 9592   3.597   4.021   3.728 -0.2988  0.2793  0.6772
 2380SOL    HW2 9593   3.584   4.096   3.786  0.0418 -0.1466  1.3072
 2380SOL    HW3 9594   3.663   3.968   3.771  0.0244 -0.0010 -0.1492
 2380SOL    MW4 9595   3.604   4.024   3.741 -0.2115  0.1860  0.6514
 2381SOL     OW 9596   3.564   4.259   3.882  0.1755  0.2259 -0.2568
 2381SOL    HW2 9597   3.563   4.282   3.975 -0.7790 -1.9087  0.3029
 2381SOL    HW3 9598   3.641   4.303   3.847 -0.4487  2.5152  1.1574
 2381SOL    MW4 9599   3.574   4.268   3.890 -0.0329  0.2460  0.0038
 2382SOL     OW 9600   3.762   4.416   3.759  0.4891  0.3943  0.7979
 2382SOL    HW2 9601   3.840   4.375   3.796  0.6550  0.3904  0.4445
 2382SOL    HW3 9602   3.782   4.427   3.666  0.4233  1.2099  0.8763
 2382SOL    MW4 9603   3.775   4.412   3.752  0.5021  0.5016  0.7617
 2383SOL     OW 9604   4.219   4.629   3.876 -0.0098  0.0258 -0.0102
 2383SOL    HW2 9605   4.208   4.631   3.972 -1.9609  1.3344 -0.2306
 2383SOL    HW3 9606   4.310   4.654   3.862  0.2353  0.0301  1.5102
 2383SOL    MW4 9607   4.229   4.633   3.887 -0.2351  0.1988  0.1614
 2384SOL     OW 9608   4.046   0.124   3.728  0.0877 -0.1783  0.2902
 2384SOL    HW2 9609   4.113   0.062   3.754  0.2002 -0.4897 -0.7156
 2384SOL    HW3 9610   4.061   0.137   3.634 -0.8894  0.1854  0.1820
 2384SOL    MW4 9611   4.057   0.117   3.719 -0.0267 -0.1714  0.1431
 2385SOL     OW 9612   4.036   0.381   3.837 -0.0684  0.5104  0.4709
 2385SOL    HW2 9613   4.044   0.381   3.932  1.7791 -1.1211  0.3605
 2385SOL    HW3 9614   4.032   0.288   3.813 -0.3116  0.8918 -1.0530
 2385SOL    MW4 9615   4.037   0.369   3.846  0.1440  0.3454  0.2553
 2386SOL     OW 9616   4.277   0.500   3.770  0.4514 -0.6026 -0.6034
 2386SOL    HW2 9617   4.193   0.462   3.797 -0.4597  1.1079 -0.9769
 2386SOL    HW3 9618   4.275   0.501   3.675  0.2173  0.8737 -0.6016
 2386SOL    MW4 9619   4.266   0.495   3.761  0.3004 -0.1822 -0.6526
 2387SOL     OW 9620   4.238   0.756   3.896 -0.0644 -0.0451  0.2658
 2387SOL    HW2 9621   4.157   0.796   3.864 -1.3539 -1.8085  1.3147
 2387SOL    HW3 9622   4.241   0.670   3.854  0.7252 -0.4205  1.0720
 2387SOL    MW4 9623   4.228   0.750   3.886 -0.1302 -0.3273  0.5102
 2388SOL     OW 9624   4.010   0.907   3.812 -0.4809 -0.0244  0.6852
 2388SOL    HW2 9625   4.018   0.998   3.842  1.4775  0.3971 -0.9774
 2388SOL    HW3 9626   4.010   0.913   3.717  2.9377 -1.9422  0.4757
 2388SOL    MW4 9627   4.011   0.920   3.804  0.2284 -0.2218  0.4380
 2389SOL     OW 9628   4.016   1.190   3.886 -0.1975  0.5026 -0.0672
 2389SOL    HW2 9629   4.034   1.204   3.978 -0.2586  1.3215 -0.1819
 2389SOL    HW3 9630   4.096   1.217   3.841 -0.7283  1.5902 -0.3691
 2389SOL    MW4 9631   4.029   1.195   3.892 -0.2756  0.7541 -0.1221
 2390SOL     OW 9632   4.270   1.253   3.784 -0.3098  0.0517 -0.1332
 2390SOL    HW2 9633   4.259   1.347   3.798 -0.6690 -0.0263  0.1457
 2390SOL    HW3 9634   4.251   1.240   3.691  1.5137  0.4977 -0.5846
 2390SOL    MW4 9635   4.266   1.264   3.774 -0.1163  0.1004 -0.1557
 2391SOL     OW 9636   4.226   1.509   3.860 -0.1677 -0.2877  0.2404
 2391SOL    HW2 9637   4.154   1.557   3.819 -0.0676 -0.4646 -0.1463
 2391SOL    HW3 9638   4.304   1.560   3.839 -0.1460 -0.2490  0.4158
 2391SOL    MW4 9639   4.227   1.522   3.852 -0.1516 -0.3059  0.2127
 2392SOL     OW 9640   4.029   1.663   3.742  0.1516  0.2739  0.6508
 2392SOL    HW2 9641   4.013   1.750   3.779 -0.7306  1.0729 -1.4833
 2392SOL    HW3 9642   3.952   1.612   3.765  0.5453  0.1342  1.6718
 2392SOL    MW4 9643   4.017   1.668   3.750  0.0873  0.3608  0.5038
 2393SOL     OW 9644   4.000   1.924   3.831 -0.1336  0.7383 -0.3633
 2393SOL    HW2 9645   3.994   1.917   3.927  0.9502 -3.6551 -0.5019
 2393SOL    HW3 9646   4.086   1.964   3.816 -0.5959  2.0932  0.4803
 2393SOL    MW4 9647   4.011   1.928   3.842 -0.0520  0.3374 -0.2704
 2394SOL     OW 9648   4.227   2.059   3.753  0.0358 -0.2878  0.5378
 2394SOL    HW2 9649   4.233   2.152   3.773 -0.0042 -0.5413  1.7828
 2394SOL    HW3 9650   4.227   2.055   3.657  0.1668  0.9758  0.4728
 2394SOL    MW4 9651   4.228   2.071   3.743  0.0477 -0.1547  0.6936
 2395SOL     OW 9652   4.257   2.314   3.825 -0.0735 -0.4332 -0.2374
 2395SOL    HW2 9653   4.253   2.325   3.920  0.0624  1.2429 -0.4267
 2395SOL    HW3 9654   4.185   2.366   3.791  0.2310 -0.5623 -1.1054
 2395SOL    MW4 9655   4.247   2.322   3.833 -0.0157 -0.2291 -0.3767
 2396SOL     OW 9656   4.058   2.472   3.729  0.3138  0.1532  0.3318
 2396SOL    HW2 9657   4.047   2.565   3.746  0.2975  0.3345 -0.6122
 2396SOL    HW3 9658   3.971   2.435   3.740  0.1796  0.3716  0.0130
 2396SOL    MW4 9659   4.045   2.479   3.733  0.2937  0.2058  0.1652
 2397SOL     OW 9660   4.062   2.733   3.815 -0.0850  0.1145 -0.2443
 2397SOL    HW2 9661   4.075   2.726   3.909 -0.2019 -0.5228 -0.2722
 2397SOL    HW3 9662   4.146   2.764   3.781  0.1539 -0.2547  0.0038
 2397SOL    MW4 9663   4.075   2.736   3.823 -0.0687 -0.0184 -0.2148
 2398SOL     OW 9664   4.298   2.862   3.720  0.1264  0.6518  0.7654
 2398SOL    HW2 9665   4.293   2.949   3.758 -0.1605  0.1858  1.8040
 2398SOL    HW3 9666   4.364   2.816   3.773 -0.3909 -0.0486  0.8161
 2398SOL    MW4 9667   4.306   2.867   3.732  0.0210  0.4978  0.9091
 2399SOL     OW 9668   4.257   3.115   3.802  0.1610  0.5864 -0.1801
 2399SOL    HW2 9669   4.173   3.154   3.780 -0.2026  0.2194  0.5446
 2399SOL    HW3 9670   4.318   3.189   3.801 -0.0757  0.7690 -1.1896
 2399SOL    MW4 9671   4.254   3.130   3.799  0.0820  0.5622 -0.2177
 2400SOL     OW 9672   4.023   3.237   3.717  0.2747 -0.1384 -0.0317
 2400SOL    HW2 9673   3.948   3.188   3.751  0.5077 -0.7596 -0.4008
 2400SOL    HW3 9674   4.018   3.224   3.622  0.0107  1.0284 -0.1823
 2400SOL    MW4 9675   4.012   3.228   3.709  0.2708 -0.0660 -0.1006
 2401SOL     OW 9676   4.020   3.474   3.866 -0.0590  0.1364 -0.0326
 2401SOL    HW2 9677   4.021   3.396   3.810 -1.7203  0.3643 -0.4111
 2401SOL    HW3 9678   3.957   3.532   3.824  1.1121  1.6618  0.2858
 2401SOL    MW4 9679   4.012   3.471   3.853 -0.1240  0.3679 -0.0408
 2402SOL     OW 9680   4.241   3.576   3.721  0.4181 -0.1032  0.4988
 2402SOL    HW2 9681   4.182   3.535   3.784  0.3192  1.6579  1.5925
 2402SOL    HW3 9682   4.329   3.554   3.751  0.3641  0.1873  0.8601
 2402SOL    MW4 9683   4.244   3.568   3.733  0.3982  0.1676  0.6909
 2403SOL     OW 9684   4.260   3.837   3.805  0.3941 -0.6797  0.2919
 2403SOL    HW2 9685   4.180   3.887   3.785  0.2489 -1.2788 -0.6656
 2403SOL    HW3 9686   4.244   3.751   3.767  1.3673 -0.9060  0.3853
 2403SOL    MW4 9687   4.247   3.832   3.797  0.5035 -0.7889  0.1781
 2404SOL     OW 9688   4.049   4.022   3.728  0.0305  0.3367  0.4375
 2404SOL    HW2 9689   4.025   4.106   3.767  0.1112  0.8126 -0.5189
 2404SOL    HW3 9690   4.052   4.039   3.634  2.1792 -0.1779  0.3731
 2404SOL    MW4 9691   4.047   4.035   3.721  0.3242  0.3324  0.3030
 2405SOL     OW 9692   3.996   4.272   3.849  0.4516 -0.1898  0.4445
 2405SOL    HW2 9693   4.016   4.260   3.942  0.5907 -0.3322  0.3975
 2405SOL    HW3 9694   4.077   4.308   3.812  0.8892 -1.4787  0.1076
 2405SOL    MW4 9695   4.010   4.275   3.856  0.5279 -0.3786  0.3939
 2406SOL     OW 9696   4.237   4.377   3.772 -0.0722  0.1596 -0.1494
 2406SOL    HW2 9697   4.236   4.468   3.800 -1.1429  0.6821 -1.8198
 2406SOL    HW3 9698   4.310   4.338   3.820  0.0489  1.7538  0.9914
 2406SOL    MW4 9699   4.247   4.384   3.782 -0.1974  0.4387 -0.2193
 2407SOL     OW 9700   0.213   0.011   4.156 -0.1886 -0.5940 -0.2534
 2407SOL    HW2 9701   0.288   0.056   4.193  1.8443 -1.3517 -3.2276
 2407SOL    HW3 9702   0.227  -0.081   4.178  0.3333 -0.8691 -1.6726
 2407SOL    MW4 9703   0.225   0.005   4.164  0.1485 -0.7305 -0.8335
 2408SOL     OW 9704   4.454   0.134   4.248 -0.4811  0.0956  0.0390
 2408SOL    HW2 9705   4.446   0.167   4.338 -1.8086 -0.3377  0.1007
 2408SOL    HW3 9706   4.541   0.093   4.245 -0.2943  0.4021  1.0298
 2408SOL    MW4 9707   4.464   0.133   4.260 -0.6313  0.0788  0.1779
 2409SOL     OW 9708   4.486   0.374   4.107  0.0534  0.3511  0.1216
 2409SOL    HW2 9709   4.483   0.281   4.129  1.3209  0.4510  0.7294
 2409SOL    HW3 9710   4.475   0.376   4.012  0.1760 -0.4302  0.0853
 2409SOL    MW4 9711   4.484   0.362   4.097  0.2368  0.2612  0.1969
 2410SOL     OW 9712   0.202   0.490   4.284 -0.2310  0.1033 -0.5058
 2410SOL    HW2 9713   0.267   0.433   4.243 -0.6170 -0.1691 -0.7477
 2410SOL    HW3 9714   0.120   0.469   4.238 -0.7953 -0.6351  0.8004
 2410SOL    MW4 9715   0.200   0.480   4.272 -0.3564 -0.0301 -0.3653
 2411SOL     OW 9716   0.229   0.740   4.128  0.3001  0.0371  0.2036
 2411SOL    HW2 9717   0.147   0.775   4.161  0.0467 -0.6989  0.3748
 2411SOL    HW3 9718   0.243   0.660   4.178  0.4490 -0.5319 -0.7220
 2411SOL    MW4 9719   0.220   0.734   4.139  0.2863 -0.1351  0.1040
 2412SOL     OW 9720   4.489   0.888   4.218 -0.0426 -0.0089  0.0326
 2412SOL    HW2 9721   4.480   0.982   4.207  0.4673  0.1223  0.7280
 2412SOL    HW3 9722   4.408   0.852   4.184 -1.0657  0.8082  1.5735
 2412SOL    MW4 9723   4.477   0.895   4.212 -0.1103  0.1162  0.3276
 2413SOL     OW 9724   4.465   1.153   4.206  0.5669  0.4029  0.2232
 2413SOL    HW2 9725   4.541   1.196   4.245  0.3632  1.1034 -0.1388
 2413SOL    HW3 9726   4.475   1.167   4.111  0.5280 -0.4020  0.0908
 2413SOL    MW4 9727   4.476   1.160   4.198  0.5345  0.3890  0.1578
 2414SOL     OW 9728   0.236   1.262   4.265  0.3449  0.2622  0.8858
 2414SOL    HW2 9729   0.273   1.245   4.352  1.7686 -0.2361  0.1980
 2414SOL    HW3 9730   0.295   1.217   4.205 -0.5765  0.6875 -0.3579
 2414SOL    MW4 9731   0.249   1.253   4.269  0.4112  0.2526  0.6309
 2415SOL     OW 9732   4.030   0.935   4.479  0.3453  0.2952  0.2112
 2415SOL    HW2 9733   3.936   0.918   4.487  0.2071  0.3323 -1.1149
 2415SOL    HW3 9734   4.047   0.931   4.384  1.8299 -0.5112  0.4966
 2415SOL    MW4 9735   4.020   0.932   4.467  0.5226  0.1937  0.0739
 2416SOL     OW 9736   0.009   1.663   4.189 -0.2772 -0.1113  0.2269
 2416SOL    HW2 9737  -0.074   1.623   4.161  0.4343 -1.9797  0.7527
 2416SOL    HW3 9738   0.014   1.745   4.139 -0.6572 -1.7654 -2.6050
 2416SOL    MW4 9739  -0.002   1.669   4.178 -0.2337 -0.5760 -0.0772
 2417SOL     OW 9740   0.203   2.088   4.281  0.3657  0.2096  0.2552
 2417SOL    HW2 9741   0.194   2.041   4.364  0.7499  0.7261  0.5948
 2417SOL    HW3 9742   0.286   2.057   4.245  0.0141 -0.3015 -0.1269
 2417SOL    MW4 9743   0.213   2.078   4.287  0.3700  0.2103  0.2494
 2418SOL     OW 9744   0.472   1.883   4.599  0.3277  0.0907 -0.5381
 2418SOL    HW2 9745   0.527   1.959   4.583  0.6530  0.0755  0.4684
 2418SOL    HW3 9746   0.384   1.919   4.608  0.1606  0.1179 -2.1266
 2418SOL    MW4 9747   0.468   1.898   4.598  0.3486  0.0923 -0.6146
 2419SOL     OW 9748   0.250   2.304   4.099  0.6263  0.3167  0.1536
 2419SOL    HW2 9749   0.308   2.361   4.149 -0.1036  1.3910 -0.1998
 2419SOL    HW3 9750   0.230   2.232   4.159  1.4631  0.4861  0.6427
 2419SOL    MW4 9751   0.255   2.302   4.114  0.6404  0.4809  0.1712
 2420SOL     OW 9752   0.035   2.428   4.220  0.2343  0.0642 -0.3335
 2420SOL    HW2 9753  -0.056   2.405   4.200  0.0328  0.8235 -0.3269
 2420SOL    HW3 9754   0.085   2.391   4.148  0.0052 -1.0092  0.0529
 2420SOL    MW4 9755   0.029   2.420   4.208  0.1776  0.0229 -0.2818
 2421SOL     OW 9756   0.048   2.691   4.146  0.0187  0.4199 -0.0019
 2421SOL    HW2 9757   0.119   2.737   4.191 -0.4874  1.1607  0.0579
 2421SOL    HW3 9758   0.058   2.599   4.172  0.8384  0.5502  0.1521
 2421SOL    MW4 9759   0.059   2.685   4.155  0.0601  0.5348  0.0262
 2422SOL     OW 9760   0.269   2.822   4.270  0.3589  0.6514 -0.4644
 2422SOL    HW2 9761   0.337   2.777   4.219  0.2852  0.2252 -0.1879
 2422SOL    HW3 9762   0.265   2.910   4.232  1.5788  0.9188 -0.0174
 2422SOL    MW4 9763   0.278   2.828   4.258  0.5101  0.6304 -0.3686
 2423SOL     OW 9764   0.211   3.059   4.144  0.0259  0.2827 -0.5171
 2423SOL    HW2 9765   0.280   3.120   4.171  0.3439  0.9080 -2.5935
 2423SOL    HW3 9766   0.130   3.102   4.170  0.3913 -0.3874  1.8201
 2423SOL    MW4 9767   0.210   3.073   4.151  0.1161  0.2768 -0.4830
 2424SOL     OW 9768   4.457   3.185   4.214 -0.5820  0.3857  0.3445
 2424SOL    HW2 9769   4.377   3.161   4.167  0.0787  1.1101 -1.1804
 2424SOL    HW3 9770   4.479   3.272   4.182  0.5243  0.4171  1.1581
 2424SOL    MW4 9771   4.450   3.193   4.204 -0.3495  0.4857  0.2508
 2425SOL     OW 9772   0.003   3.467   4.142  0.9523  0.1672  0.1762
 2425SOL    HW2 9773  -0.078   3.505   4.174  2.0030  1.5034  1.3268
 2425SOL    HW3 9774   0.004   3.489   4.049  0.7080  1.4783  0.4711
 2425SOL    MW4 9775  -0.007   3.475   4.134  1.0586  0.5167  0.3672
 2426SOL     OW 9776   0.222   3.625   4.233 -0.0392 -0.5842  0.0540
 2426SOL    HW2 9777   0.302   3.583   4.201 -0.8173  0.1704 -3.0297
 2426SOL    HW3 9778   0.152   3.568   4.202 -0.8955  0.9454 -0.8741
 2426SOL    MW4 9779   0.224   3.612   4.225 -0.2548 -0.2828 -0.4754
 2427SOL     OW 9780   0.256   3.893   4.160 -0.0160  0.1235  0.1181
 2427SOL    HW2 9781   0.173   3.938   4.178 -0.1392  0.2576 -0.7678
 2427SOL    HW3 9782   0.243   3.804   4.192  0.9197  1.2088  3.7775
 2427SOL    MW4 9783   0.243   3.887   4.167  0.0912  0.2844  0.4849
 2428SOL     OW 9784   0.027   4.013   4.217 -0.4866  0.6836 -0.5586
 2428SOL    HW2 9785  -0.007   4.025   4.306 -0.2389  0.4520 -0.4348
 2428SOL    HW3 9786  -0.044   3.969   4.170 -0.1987 -0.1800 -0.1857
 2428SOL    MW4 9787   0.013   4.009   4.223 -0.4159  0.5393 -0.4935
 2429SOL     OW 9788   4.477   4.269   4.152 -0.2926  0.1011 -0.6464
 2429SOL    HW2 9789   4.497   4.175   4.161 -0.6553  0.0143 -0.7559
 2429SOL    HW3 9790   4.467   4.282   4.058  0.8700  0.4798 -0.7276
 2429SOL    MW4 9791   4.479   4.258   4.141 -0.1870  0.1397 -0.6714
 2430SOL     OW 9792   0.226   4.409   4.231  0.0012  0.3215 -0.0226
 2430SOL    HW2 9793   0.222   4.421   4.326 -1.5593 -0.9130  0.0878
 2430SOL    HW3 9794   0.143   4.368   4.209  0.6218  0.0262 -1.8503
 2430SOL    MW4 9795   0.214   4.405   4.241 -0.1228  0.1197 -0.2489
 2431SOL     OW 9796   0.667   0.007   4.210 -0.1983  0.0768  0.3999
 2431SOL    HW2 9797   0.591   0.056   4.242 -0.4480  0.2424 -0.4299
 2431SOL    HW3 9798   0.655   0.004   4.115  1.1429  0.6057  0.2074
 2431SOL    MW4 9799   0.655   0.013   4.202 -0.0543  0.1688  0.2651
 2432SOL     OW 9800   0.439   0.106   4.317 -0.3103  0.3575 -0.4571
 2432SOL    HW2 9801   0.386   0.102   4.396  0.8255 -0.0733  0.2942
 2432SOL    HW3 9802   0.448   0.199   4.299  1.9805  0.6009  1.6894
 2432SOL    MW4 9803   0.433   0.118   4.325  0.1418  0.3328 -0.0744
 2433SOL     OW 9804   0.413   0.354   4.157 -0.9034 -0.0991  0.4920
 2433SOL    HW2 9805   0.484   0.413   4.183 -0.8323 -0.6411  1.5326
 2433SOL    HW3 9806   0.408   0.364   4.061  0.5942 -0.0943  0.4068
 2433SOL    MW4 9807   0.422   0.363   4.147 -0.6965 -0.1700  0.6175
 2434SOL     OW 9808   0.639   0.500   4.220  0.2798  0.5094  0.4052
 2434SOL    HW2 9809   0.715   0.444   4.208  0.4753  0.6229  1.0759
 2434SOL    HW3 9810   0.649   0.569   4.155 -1.4470 -1.7755 -2.3926
 2434SOL    MW4 9811   0.650   0.502   4.210  0.0778  0.2229  0.1249
 2435SOL     OW 9812   0.680   0.731   4.077  0.0973 -0.3086  0.0649
 2435SOL    HW2 9813   0.614   0.777   4.130  1.8228  0.2325  1.8081
 2435SOL    HW3 9814   0.655   0.749   3.987 -0.1466  2.8162  0.7026
 2435SOL    MW4 9815   0.668   0.739   4.072  0.2928  0.1751  0.3791
 2436SOL     OW 9816   0.461   0.854   4.220 -0.0091 -0.3994 -0.2006
 2436SOL    HW2 9817   0.452   0.943   4.187 -1.1779 -0.5126 -0.2270
 2436SOL    HW3 9818   0.376   0.813   4.201 -0.2970 -0.8282  1.8542
 2436SOL    MW4 9819   0.448   0.860   4.213 -0.2013 -0.4709  0.0668
 2437SOL     OW 9820   0.459   1.122   4.154  0.3360 -0.2041 -0.0774
 2437SOL    HW2 9821   0.526   1.186   4.177  0.1409 -0.0183 -0.0289
 2437SOL    HW3 9822   0.449   1.129   4.059  1.0603 -0.8916 -0.2052
 2437SOL    MW4 9823   0.466   1.131   4.145  0.4058 -0.2705 -0.0877
 2438SOL     OW 9824   0.649   1.306   4.220 -0.2248  0.3496 -0.3003
 2438SOL    HW2 9825   0.624   1.342   4.305 -0.6218  2.0317 -1.0967
 2438SOL    HW3 9826   0.646   1.381   4.161  0.6785 -0.6675 -1.6721
 2438SOL    MW4 9827   0.645   1.321   4.223 -0.1580  0.4373 -0.5865
 2439SOL     OW 9828   0.637   1.564   4.109  0.2961  0.2716  0.5478
 2439SOL    HW2 9829   0.566   1.617   4.145  0.9876  1.2123  0.5434
 2439SOL    HW3 9830   0.634   1.581   4.015 -1.2933 -1.9205  0.1844
 2439SOL    MW4 9831   0.627   1.574   4.102  0.1776  0.1063  0.4988
 2440SOL     OW 9832   0.224   1.508   4.130 -0.4984  0.3088  0.0662
 2440SOL    HW2 9833   0.229   1.426   4.179 -2.1616 -0.2712 -0.6955
 2440SOL    HW3 9834   0.137   1.543   4.152 -1.4984 -0.2276 -2.8307
 2440SOL    MW4 9835   0.213   1.502   4.139 -0.8498  0.1615 -0.4168
 2441SOL     OW 9836   0.440   1.967   4.164 -0.3722 -0.2665 -0.1411
 2441SOL    HW2 9837   0.415   1.880   4.195  0.5193 -0.5135 -0.0792
 2441SOL    HW3 9838   0.440   1.959   4.069  0.7412 -0.6543 -0.1236
 2441SOL    MW4 9839   0.437   1.955   4.156 -0.1077 -0.3502 -0.1311
 2442SOL     OW 9840   0.684   2.056   4.279 -0.2906 -0.8427 -0.4494
 2442SOL    HW2 9841   0.683   2.064   4.374 -0.1624  1.3570 -0.5940
 2442SOL    HW3 9842   0.595   2.029   4.256 -0.3398 -1.3214  0.2949
 2442SOL    MW4 9843   0.672   2.054   4.288 -0.2801 -0.6156 -0.3700
 2443SOL     OW 9844   0.678   2.315   4.177 -0.3163  0.0240 -0.2290
 2443SOL    HW2 9845   0.679   2.221   4.195  2.3714 -0.1323 -0.9873
 2443SOL    HW3 9846   0.666   2.321   4.082  0.4414  0.3967 -0.3067
 2443SOL    MW4 9847   0.676   2.303   4.167  0.1382  0.0525 -0.3400
 2444SOL     OW 9848   0.444   2.464   4.209  0.0820 -0.0869 -0.8476
 2444SOL    HW2 9849   0.452   2.556   4.184 -0.9592  0.5002  0.9297
 2444SOL    HW3 9850   0.533   2.430   4.206  0.3941  0.7896 -2.1567
 2444SOL    MW4 9851   0.457   2.471   4.205 -0.0142  0.1061 -0.7858
 2445SOL     OW 9852   0.477   2.725   4.123 -0.2317 -0.2366 -0.2991
 2445SOL    HW2 9853   0.563   2.759   4.146 -0.1174 -0.1871 -0.7995
 2445SOL    HW3 9854   0.470   2.737   4.028  0.4309 -2.9573 -0.7260
 2445SOL    MW4 9855   0.487   2.731   4.113 -0.1292 -0.5891 -0.4215
 2446SOL     OW 9856   0.703   2.839   4.200  0.0239  0.4234 -0.0991
 2446SOL    HW2 9857   0.705   2.833   4.296 -1.4154 -0.4309 -0.0995
 2446SOL    HW3 9858   0.672   2.927   4.182  1.2753  0.9321  0.2045
 2446SOL    MW4 9859   0.699   2.850   4.210 -0.0008  0.3777 -0.0596
 2447SOL     OW 9860   0.656   3.096   4.106  0.3533 -0.8617  0.0639
 2447SOL    HW2 9861   0.714   3.165   4.139 -0.5505  0.0565 -0.2398
 2447SOL    HW3 9862   0.568   3.129   4.122 -0.0850 -1.6575 -0.6793
 2447SOL    MW4 9863   0.652   3.110   4.112  0.1763 -0.8454 -0.0744
 2448SOL     OW 9864   0.422   3.241   4.232  0.0812 -0.2274 -0.0922
 2448SOL    HW2 9865   0.456   3.236   4.321  0.6825  0.5410 -0.2789
 2448SOL    HW3 9866   0.445   3.329   4.201 -0.9244 -0.1548 -0.6790
 2448SOL    MW4 9867   0.429   3.252   4.239  0.0278 -0.1166 -0.1941
 2449SOL     OW 9868   0.452   3.518   4.152  0.2629 -0.1610 -0.4688
 2449SOL    HW2 9869   0.536   3.559   4.170  0.4308 -0.2775 -0.9966
 2449SOL    HW3 9870   0.439   3.530   4.058 -0.9584  1.1003 -0.1638
 2449SOL    MW4 9871   0.461   3.525   4.142  0.1239 -0.0098 -0.4983
 2450SOL     OW 9872   0.671   3.641   4.289  0.5239  0.0931  0.1237
 2450SOL    HW2 9873   0.680   3.657   4.383  0.6383  0.1929  0.0956
 2450SOL    HW3 9874   0.741   3.579   4.268  0.0930 -0.4431  0.2300
 2450SOL    MW4 9875   0.681   3.635   4.299  0.4821  0.0355  0.1340
 2451SOL     OW 9876   0.663   3.860   4.132 -0.3233 -0.0064 -0.2094
 2451SOL    HW2 9877   0.607   3.930   4.165 -0.7450 -0.4331 -0.0175
 2451SOL    HW3 9878   0.656   3.790   4.197  0.2166 -0.1706 -0.3219
 2451SOL    MW4 9879   0.655   3.860   4.145 -0.3076 -0.0842 -0.1993
 2452SOL     OW 9880   0.485   4.031   4.264 -0.0552  0.1646  0.2782
 2452SOL    HW2 9881   0.501   4.118   4.227 -1.3986  0.5354  0.5522
 2452SOL    HW3 9882   0.399   4.006   4.230 -0.1736 -0.5798  1.1168
 2452SOL    MW4 9883   0.476   4.039   4.255 -0.2480  0.1154  0.4249
 2453SOL     OW 9884   0.458   4.294   4.150  0.2582  0.3609  0.0891
 2453SOL    HW2 9885   0.372   4.326   4.178  0.0379 -1.1768  1.2456
 2453SOL    HW3 9886   0.463   4.317   4.057 -1.8820 -0.5009 -0.2709
 2453SOL    MW4 9887   0.447   4.301   4.142 -0.0533  0.0443  0.1945
 2454SOL     OW 9888   0.660   4.413   4.302  0.2804  0.3567 -0.2648
 2454SOL    HW2 9889   0.580   4.381   4.261 -0.3763 -0.0610  1.3026
 2454SOL    HW3 9890   0.672   4.501   4.267 -0.1791 -0.0432 -1.4405
 2454SOL    MW4 9891   0.651   4.420   4.292  0.1332  0.2489 -0.2127
 2455SOL     OW 9892   1.102   0.030   4.167  0.1196 -0.2490  0.1607
 2455SOL    HW2 9893   1.093  -0.063   4.186  0.4697 -0.2953  0.1163
 2455SOL    HW3 9894   1.103   0.035   4.071  0.4143 -0.2330  0.1643
 2455SOL    MW4 9895   1.101   0.018   4.157  0.2046 -0.2530  0.1554
 2456SOL     OW 9896   0.902   0.132   4.331 -0.2317 -0.1202  0.1272
 2456SOL    HW2 9897   0.972   0.083   4.287  0.2509  1.0129 -0.4025
 2456SOL    HW3 9898   0.822   0.088   4.304  0.2215 -0.9269  0.0652
 2456SOL    MW4 9899   0.901   0.119   4.321 -0.1082 -0.0772  0.0496
 2457SOL     OW 9900   0.898   0.375   4.177  0.5465 -0.2254 -0.1931
 2457SOL    HW2 9901   0.976   0.431   4.176  1.1708 -1.0951 -0.9364
 2457SOL    HW3 9902   0.925   0.295   4.222 -0.1026 -0.2728  0.1246
 2457SOL    MW4 9903   0.912   0.372   4.183  0.5432 -0.3464 -0.2494
 2458SOL     OW 9904   1.151   0.482   4.217 -0.3276  0.3074 -0.2407
 2458SOL    HW2 9905   1.181   0.508   4.304 -0.5973  0.4719 -0.1973
 2458SOL    HW3 9906   1.223   0.430   4.182 -0.1586  0.3610  0.0246
 2458SOL    MW4 9907   1.165   0.479   4.224 -0.3411  0.3362 -0.2003
 2459SOL     OW 9908   1.102   0.738   4.114  0.3047 -0.4708  0.1311
 2459SOL    HW2 9909   1.172   0.789   4.156 -0.1062 -0.8342  1.2680
 2459SOL    HW3 9910   1.122   0.647   4.137  0.9685 -0.8399 -1.7946
 2459SOL    MW4 9911   1.114   0.733   4.122  0.3380 -0.5674  0.0272
 2460SOL     OW 9912   0.875   0.871   4.210  0.3138 -0.6231  0.0027
 2460SOL    HW2 9913   0.955   0.836   4.170 -0.1890 -0.6315 -1.0186
 2460SOL    HW3 9914   0.805   0.815   4.176 -0.3319  0.4682 -0.5033
 2460SOL    MW4 9915   0.876   0.859   4.200  0.1623 -0.4802 -0.1988
 2461SOL     OW 9916   0.862   1.149   4.150  0.0195 -0.7635  0.0660
 2461SOL    HW2 9917   0.838   1.062   4.183  0.1713 -0.3296  1.3491
 2461SOL    HW3 9918   0.782   1.200   4.158 -0.1562 -0.8722 -0.9964
 2461SOL    MW4 9919   0.848   1.144   4.156  0.0164 -0.7205  0.0949
 2462SOL     OW 9920   1.194   1.337   4.316 -0.0325 -0.3281  0.1435
 2462SOL    HW2 9921   1.241   1.392   4.379 -1.4821  1.2298 -0.0937
 2462SOL    HW3 9922   1.117   1.306   4.364 -1.0742  0.7577 -0.7938
 2462SOL    MW4 9923   1.190   1.340   4.331 -0.3612  0.0206 -0.0119
 2463SOL     OW 9924   1.094   1.538   4.160 -0.1087  0.1417  0.2497
 2463SOL    HW2 9925   1.022   1.580   4.207 -0.4460 -0.7708  0.5584
 2463SOL    HW3 9926   1.103   1.452   4.201  0.0761 -0.3906 -0.8839
 2463SOL    MW4 9927   1.086   1.532   4.172 -0.1289 -0.0489  0.1411
 2464SOL     OW 9928   0.852   1.642   4.294 -0.2065  0.1692 -0.2875
 2464SOL    HW2 9929   0.786   1.592   4.246 -2.7497  0.9704  2.2455
 2464SOL    HW3 9930   0.845   1.731   4.258  0.1259  0.0424 -0.6613
 2464SOL    MW4 9931   0.842   1.647   4.282 -0.4982  0.2582 -0.0029
 2465SOL     OW 9932   0.896   1.893   4.199 -0.2154  0.6081  0.1324
 2465SOL    HW2 9933   0.822   1.941   4.237 -0.5330  0.6975 -0.5835
 2465SOL    HW3 9934   0.896   1.919   4.107 -0.3670 -0.7407 -0.2561
 2465SOL    MW4 9935   0.886   1.903   4.192 -0.2773  0.4419 -0.0134
 2466SOL     OW 9936   1.087   2.085   4.256  0.2047 -0.1214 -0.5228
 2466SOL    HW2 9937   1.106   2.103   4.348  1.8625 -0.0670 -0.8547
 2466SOL    HW3 9938   1.011   2.027   4.258  1.7044 -2.1174  1.0086
 2466SOL    MW4 9939   1.080   2.079   4.268  0.6213 -0.3777 -0.3643
 2467SOL     OW 9940   1.106   2.328   4.143 -0.0344 -0.2771 -0.2958
 2467SOL    HW2 9941   1.181   2.380   4.171  0.6146 -0.6453 -1.3510
 2467SOL    HW3 9942   1.124   2.240   4.176  0.0355 -0.3780 -0.5976
 2467SOL    MW4 9943   1.118   2.324   4.151  0.0604 -0.3390 -0.4754
 2468SOL     OW 9944   0.895   2.476   4.254 -0.1418  0.1557 -0.1205
 2468SOL    HW2 9945   0.970   2.428   4.217  0.9013 -0.1318  2.2780
 2468SOL    HW3 9946   0.819   2.424   4.230  0.8294 -1.8540  1.0400
 2468SOL    MW4 9947   0.895   2.463   4.246  0.1239 -0.1476  0.3490
 2469SOL     OW 9948   0.920   2.706   4.097 -0.2332  0.5542  0.2593
 2469SOL    HW2 9949   0.914   2.625   4.149 -1.4078  0.7595  0.4475
 2469SOL    HW3 9950   0.850   2.761   4.131  0.5867  1.6779  0.1516
 2469SOL    MW4 9951   0.910   2.702   4.108 -0.2800  0.7296  0.2699
 2470SOL     OW 9952   1.131   2.827   4.216 -0.4107  0.0186  0.2908
 2470SOL    HW2 9953   1.115   2.919   4.192 -0.7039 -0.4173 -1.1986
 2470SOL    HW3 9954   1.052   2.781   4.187 -1.2032 -0.4096  2.9240
 2470SOL    MW4 9955   1.118   2.833   4.209 -0.5537 -0.0954  0.4416
 2471SOL     OW 9956   1.103   3.089   4.130  0.3752 -0.3792 -0.2929
 2471SOL    HW2 9957   1.183   3.140   4.143 -0.0116  0.2785 -0.4867
 2471SOL    HW3 9958   1.093   3.083   4.035 -0.1300  0.0556 -0.2679
 2471SOL    MW4 9959   1.112   3.095   4.119  0.2575 -0.2351 -0.3152
 2472SOL     OW 9960   0.875   3.226   4.224  0.0922  0.0046  0.4434
 2472SOL    HW2 9961   0.847   3.178   4.302  1.7811  1.6756  2.1299
 2472SOL    HW3 9962   0.959   3.185   4.200 -0.4933 -0.6046 -0.6162
 2472SOL    MW4 9963   0.882   3.214   4.231  0.2378  0.1447  0.5264
 2473SOL     OW 9964   0.906   3.501   4.183  0.0117  0.0076  0.1208
 2473SOL    HW2 9965   0.902   3.408   4.207  0.2173 -0.3175 -1.0673
 2473SOL    HW3 9966   0.896   3.502   4.088  0.1339  1.2007  0.1096
 2473SOL    MW4 9967   0.904   3.489   4.174  0.0550  0.1223 -0.0377
 2474SOL     OW 9968   1.132   3.629   4.277  0.2395  0.0452  0.0937
 2474SOL    HW2 9969   1.115   3.715   4.238  0.2583  0.0183  0.0252
 2474SOL    HW3 9970   1.060   3.574   4.246  0.0137  0.1373  0.4567
 2474SOL    MW4 9971   1.120   3.633   4.267  0.2122  0.0539  0.1330
 2475SOL     OW 9972   1.126   3.884   4.153 -0.3600 -0.1344  0.2003
 2475SOL    HW2 9973   1.184   3.935   4.209 -0.0575 -0.1055 -0.1412
 2475SOL    HW3 9974   1.038   3.917   4.173 -0.1729  0.4672  0.0251
 2475SOL    MW4 9975   1.122   3.895   4.163 -0.2954 -0.0513  0.1326
 2476SOL     OW 9976   0.880   3.950   4.285 -0.3281 -0.2476  0.1823
 2476SOL    HW2 9977   0.873   4.045   4.275  1.5654 -0.3058 -2.2227
 2476SOL    HW3 9978   0.807   3.915   4.233 -0.6576 -0.1263  0.5627
 2476SOL    MW4 9979   0.869   3.958   4.276 -0.1218 -0.2394 -0.0844
 2477SOL     OW 9980   0.868   4.253   4.228  0.6313 -0.2038  0.4464
 2477SOL    HW2 9981   0.948   4.304   4.245  0.0190  1.1236 -0.5642
 2477SOL    HW3 9982   0.797   4.316   4.240 -0.0536 -0.3272 -2.5578
 2477SOL    MW4 9983   0.869   4.268   4.232  0.4601 -0.0448 -0.0830
 2478SOL     OW 9984   1.084   4.426   4.254  0.0727  0.2357 -0.0114
 2478SOL    HW2 9985   1.087   4.438   4.349  2.2911 -1.1063  0.1265
 2478SOL    HW3 9986   1.174   4.402   4.230 -0.8709 -1.3477 -2.1791
 2478SOL    MW4 9987   1.096   4.424   4.264  0.2410 -0.1502 -0.2789
 2479SOL     OW 9988   1.564   4.650   4.175 -0.0900  0.4532  0.1597
 2479SOL    HW2 9989   1.648   4.691   4.194  1.2869 -1.6014 -1.3150
 2479SOL    HW3 9990   1.504   4.689   4.239  2.0239  1.6967  1.4629
 2479SOL    MW4 9991   1.567   4.661   4.186  0.3705  0.3457  0.1373
 2480SOL     OW 9992   1.417   0.100   4.396  0.2073 -0.2286  0.2710
 2480SOL    HW2 9993   1.471   0.056   4.461  0.6340 -0.6407 -0.3495
 2480SOL    HW3 9994   1.329   0.097   4.431  0.5493  0.2433  1.1894
 2480SOL    MW4 9995   1.413   0.094   4.409  0.3088 -0.2207  0.3104
 2481SOL     OW 9996   1.348   0.316   4.139 -0.7656 -0.3531  0.5797
 2481SOL    HW2 9997   1.423   0.362   4.176 -1.2527  0.0800  1.0552
 2481SOL    HW3 9998   1.342   0.235   4.190 -0.7192 -0.3072  0.6593
 2481SOL    MW4 9999   1.357   0.312   4.151 -0.8236 -0.2899  0.6533
 2482SOL     OW10000   1.547   0.482   4.270  0.0612  0.7975 -0.4845
 2482SOL    HW210001   1.513   0.458   4.356 -1.0862 -0.9498 -1.3873
 2482SOL    HW310002   1.534   0.576   4.264 -1.2850  0.6933  0.6459
 2482SOL    MW410003   1.541   0.491   4.280 -0.2677  0.5532 -0.4539
 2483SOL     OW10004   1.496   0.748   4.130  0.2891 -0.2527 -0.7686
 2483SOL    HW210005   1.584   0.779   4.152  0.4245 -1.1400 -0.0210
 2483SOL    HW310006   1.489   0.763   4.035  2.3127 -2.6948 -1.3904
 2483SOL    MW410007   1.507   0.754   4.120  0.5738 -0.6920 -0.7520
 2484SOL     OW10008   1.280   0.893   4.239 -0.1619 -0.1032  0.0760
 2484SOL    HW210009   1.304   0.983   4.217 -0.5366 -0.0752 -0.2083
 2484SOL    HW310010   1.353   0.840   4.206 -0.6927 -0.0571 -1.1662
 2484SOL    MW410011   1.293   0.898   4.232 -0.2815 -0.0934 -0.1259
 2485SOL     OW10012   1.345   1.148   4.149 -0.0709  0.0194  0.2907
 2485SOL    HW210013   1.282   1.206   4.190  0.2326 -0.1975  1.0675
 2485SOL    HW310014   1.331   1.160   4.055  0.3373  1.7320  0.4369
 2485SOL    MW410015   1.335   1.157   4.142  0.0229  0.2168  0.4129
 2486SOL     OW10016   1.557   1.293   4.259 -0.5328  0.1284  0.2555
 2486SOL    HW210017   1.569   1.272   4.352 -2.2467  1.0633  0.7038
 2486SOL    HW310018   1.485   1.238   4.231  0.0173 -0.1925 -0.5593
 2486SOL    MW410019   1.549   1.283   4.268 -0.6864  0.2095  0.2069
 2487SOL     OW10020   1.603   1.571   4.153  0.1423  0.5289 -0.8313
 2487SOL    HW210021   1.510   1.593   4.158 -0.0530 -0.1726 -1.3137
 2487SOL    HW310022   1.612   1.491   4.205  0.2928  0.0416 -1.5924
 2487SOL    MW410023   1.592   1.564   4.160  0.1364  0.3719 -0.9956
 2488SOL     OW10024   1.347   1.645   4.172  0.1213 -0.2806 -0.3382
 2488SOL    HW210025   1.338   1.731   4.132  0.1337  0.9261  2.1407
 2488SOL    HW310026   1.260   1.605   4.164 -0.3774  0.6985  0.1147
 2488SOL    MW410027   1.334   1.651   4.166  0.0572  0.0077  0.0482
 2489SOL     OW10028   1.295   1.915   4.139 -0.1359  0.7159 -0.2808
 2489SOL    HW210029   1.363   1.966   4.183  1.0014  1.1797 -2.4857
 2489SOL    HW310030   1.214   1.963   4.157  0.4358  1.3912  0.5511
 2489SOL    MW410031   1.293   1.928   4.147  0.0896  0.8661 -0.4621
 2490SOL     OW10032   1.465   2.083   4.276  0.8029  0.4886 -0.0097
 2490SOL    HW210033   1.468   2.064   4.370 -1.5308  0.2288  0.0198
 2490SOL    HW310034   1.489   2.176   4.270 -1.5119  1.1811  1.0864
 2490SOL    MW410035   1.469   2.093   4.288  0.1897  0.5457  0.1383
 2491SOL     OW10036   1.592   2.318   4.214 -0.2473 -0.0980  0.3995
 2491SOL    HW210037   1.640   2.388   4.259 -0.4687  0.2762  0.0599
 2491SOL    HW310038   1.605   2.336   4.121 -0.5143 -0.3679  0.3099
 2491SOL    MW410039   1.600   2.330   4.208 -0.3119 -0.0842  0.3428
 2492SOL     OW10040   1.343   2.437   4.236 -0.4059 -0.1928 -0.1873
 2492SOL    HW210041   1.354   2.528   4.210  1.2002  0.2756  2.0078
 2492SOL    HW310042   1.428   2.396   4.218 -0.9860 -1.1732 -0.7711
 2492SOL    MW410043   1.356   2.443   4.230 -0.2706 -0.2604  0.0253
 2493SOL     OW10044   1.357   2.691   4.149  0.3824  0.1612  0.0985
 2493SOL    HW210045   1.425   2.732   4.203 -1.3814 -0.4933  2.8954
 2493SOL    HW310046   1.280   2.746   4.163 -0.7972 -1.5411  0.2863
 2493SOL    MW410047   1.356   2.704   4.158 -0.0061 -0.1497  0.4921
 2494SOL     OW10048   1.580   2.852   4.261  0.3396 -0.3177 -0.4976
 2494SOL    HW210049   1.564   2.871   4.353 -0.0829 -1.2406 -0.3676
 2494SOL    HW310050   1.572   2.936   4.217  0.7560  0.1676  0.3352
 2494SOL    MW410051   1.577   2.865   4.267  0.3389 -0.3755 -0.3705
 2495SOL     OW10052   1.578   3.093   4.141  0.7052 -0.0425 -0.5254
 2495SOL    HW210053   1.662   3.133   4.166  0.1531  0.8786 -0.1186
 2495SOL    HW310054   1.512   3.157   4.167 -0.0203  0.0627 -2.5575
 2495SOL    MW410055   1.581   3.107   4.148  0.5367  0.0930 -0.7391
 2496SOL     OW10056   1.337   3.229   4.200 -0.0611  0.1304  0.3348
 2496SOL    HW210057   1.313   3.211   4.291 -1.7735 -0.3551 -0.1855
 2496SOL    HW310058   1.361   3.322   4.199 -0.0840  0.1455  1.2838
 2496SOL    MW410059   1.337   3.239   4.212 -0.2902  0.0684  0.3910
 2497SOL     OW10060   1.360   3.501   4.179 -0.0725 -0.0442  0.1078
 2497SOL    HW210061   1.272   3.529   4.202  0.1638 -0.1911  1.1953
 2497SOL    HW310062   1.358   3.490   4.084 -0.9862  0.7685  0.0379
 2497SOL    MW410063   1.348   3.503   4.169 -0.1619  0.0439  0.2422
 2498SOL     OW10064   1.606   3.607   4.258 -0.4962  0.1578  0.0800
 2498SOL    HW210065   1.621   3.582   4.349  2.3788 -0.4947 -0.5465
 2498SOL    HW310066   1.521   3.568   4.237 -0.1221 -1.6705  1.7750
 2498SOL    MW410067   1.597   3.599   4.267 -0.0675 -0.1693  0.2208
 2499SOL     OW10068   1.591   3.867   4.197  0.0243  0.1106  0.8065
 2499SOL    HW210069   1.560   3.929   4.263  1.3112 -0.1279  1.6621
 2499SOL    HW310070   1.567   3.781   4.232 -2.2217  0.1131 -0.6249
 2499SOL    MW410071   1.584   3.864   4.210 -0.1023  0.0794  0.7310
 2500SOL     OW10072   1.275   4.063   4.283 -0.3384  0.2090 -0.2140
 2500SOL    HW210073   1.360   4.052   4.326 -0.2821  1.9764  0.1343
 2500SOL    HW310074   1.279   4.149   4.242 -1.2469 -0.5025 -1.8667
 2500SOL    MW410075   1.287   4.073   4.283 -0.4508  0.3481 -0.3867
 2501SOL     OW10076   1.312   4.298   4.166  0.0059 -0.0381  0.4055
 2501SOL    HW210077   1.392   4.341   4.198  0.3242 -1.9426  2.3551
 2501SOL    HW310078   1.320   4.299   4.071  2.7954 -0.9631  0.5932
 2501SOL    MW410079   1.324   4.304   4.158  0.4159 -0.4110  0.6876
 2502SOL     OW10080   1.563   4.384   4.243 -0.1790 -0.0506 -0.5525
 2502SOL    HW210081   1.575   4.479   4.240  0.6178 -0.1398 -0.2424
 2502SOL    HW310082   1.641   4.348   4.201 -1.0456 -0.5347 -1.7684
 2502SOL    MW410083   1.575   4.392   4.237 -0.1882 -0.1268 -0.6719
 2503SOL     OW10084   2.015   4.626   4.151  0.0756  0.3900  0.2626
 2503SOL    HW210085   1.940   4.683   4.164  1.8145  2.7910  0.1459
 2503SOL    HW310086   2.016   4.608   4.057 -0.6814 -0.1419  0.3529
 2503SOL    MW410087   2.005   4.631   4.140  0.2050  0.6371  0.2589
 2504SOL     OW10088   1.805   0.103   4.220 -0.0714 -0.1539 -0.2832
 2504SOL    HW210089   1.839   0.086   4.308  1.6258 -1.0189 -1.0974
 2504SOL    HW310090   1.793   0.198   4.218  1.7323  0.1064  0.2400
 2504SOL    MW410091   1.808   0.113   4.231  0.3906 -0.2337 -0.3219
 2505SOL     OW10092   1.791   0.375   4.179 -0.1210  0.1540 -0.6382
 2505SOL    HW210093   1.870   0.413   4.217 -0.1356  0.2747 -0.7313
 2505SOL    HW310094   1.720   0.429   4.213 -0.1688  0.0022 -0.4978
 2505SOL    MW410095   1.792   0.387   4.189 -0.1293  0.1499 -0.6323
 2506SOL     OW10096   2.032   0.488   4.268 -0.0359  0.0007  0.6259
 2506SOL    HW210097   2.082   0.533   4.336 -0.7541  1.9025 -0.0660
 2506SOL    HW310098   2.098   0.445   4.214  0.5395 -1.4237  2.4432
 2506SOL    MW410099   2.047   0.488   4.270 -0.0548  0.0637  0.7739
 2507SOL     OW10100   2.020   0.742   4.135  0.0630  0.1562  0.0880
 2507SOL    HW210101   2.095   0.780   4.182  0.2416  0.4705 -0.4539
 2507SOL    HW310102   2.000   0.662   4.183  0.8260  0.0081  0.1600
 2507SOL    MW410103   2.027   0.736   4.148  0.1872  0.1781  0.0262
 2508SOL     OW10104   1.790   0.845   4.230 -0.4005  0.0279 -0.3972
 2508SOL    HW210105   1.784   0.940   4.217 -0.6121  0.2831  1.4065
 2508SOL    HW310106   1.878   0.823   4.201 -0.4460  0.7394 -1.0912
 2508SOL    MW410107   1.801   0.855   4.225 -0.4344  0.1554 -0.2508
 2509SOL     OW10108   1.773   1.129   4.187  0.0718  0.3146 -0.2588
 2509SOL    HW210109   1.848   1.177   4.221 -0.4060 -1.1733  3.0898
 2509SOL    HW310110   1.697   1.181   4.215 -0.2633  0.2536 -1.0414
 2509SOL    MW410111   1.773   1.143   4.195 -0.0354  0.1103  0.0796
 2510SOL     OW10112   2.032   1.278   4.238  0.0320 -0.4498 -0.2913
 2510SOL    HW210113   2.105   1.231   4.196  0.4363 -0.6020  0.5635
 2510SOL    HW310114   2.047   1.370   4.216  0.3271 -0.5130 -0.3577
 2510SOL    MW410115   2.044   1.284   4.230  0.1242 -0.4781 -0.1879
 2511SOL     OW10116   2.098   1.529   4.135  0.0665  0.1079 -0.6285
 2511SOL    HW210117   2.064   1.609   4.175 -2.0452 -0.7570 -0.6627
 2511SOL    HW310118   2.061   1.528   4.047  0.2486 -0.8049 -0.6998
 2511SOL    MW410119   2.089   1.540   4.129 -0.1881 -0.1268 -0.6428
 2512SOL     OW10120   1.734   1.814   4.287 -0.2302 -0.2660 -0.0738
 2512SOL    HW210121   1.827   1.799   4.270  0.0093  0.8223  0.2079
 2512SOL    HW310122   1.690   1.737   4.252  0.7825 -0.8013 -0.1859
 2512SOL    MW410123   1.740   1.802   4.280 -0.0647 -0.1931 -0.0510
 2513SOL     OW10124   1.682   2.013   4.113  0.2761 -0.4524 -0.3157
 2513SOL    HW210125   1.701   1.935   4.166  0.4972 -0.5722 -0.5717
 2513SOL    HW310126   1.598   2.045   4.147 -1.3677 -2.5492 -2.1741
 2513SOL    MW410127   1.673   2.007   4.124  0.0885 -0.7451 -0.5946
 2514SOL     OW10128   1.700   1.916   4.566  0.3554 -0.1376 -0.2051
 2514SOL    HW210129   1.751   1.997   4.559  0.0893 -0.0962 -1.8731
 2514SOL    HW310130   1.722   1.867   4.486 -0.2801 -1.2499  0.2941
 2514SOL    MW410131   1.710   1.920   4.554  0.2365 -0.2788 -0.3595
 2515SOL     OW10132   1.875   2.211   4.279  0.4089  0.2730  0.5379
 2515SOL    HW210133   1.876   2.187   4.371  0.7896 -0.8679  0.2459
 2515SOL    HW310134   1.785   2.195   4.251  0.5517 -0.3982  0.4563
 2515SOL    MW410135   1.863   2.206   4.287  0.4780  0.0339  0.4878
 2516SOL     OW10136   1.738   2.496   4.373  0.1525 -0.0108  0.2620
 2516SOL    HW210137   1.692   2.551   4.437 -0.2643  0.4462 -0.4141
 2516SOL    HW310138   1.825   2.483   4.410 -0.4310 -0.6462  1.4307
 2516SOL    MW410139   1.743   2.502   4.386  0.0204 -0.0341  0.3271
 2517SOL     OW10140   1.795   2.723   4.185 -0.3601  0.0056  0.3577
 2517SOL    HW210141   1.781   2.643   4.235 -0.8647 -0.8154 -1.0516
 2517SOL    HW310142   1.715   2.774   4.198  0.4518  0.8274  2.2197
 2517SOL    MW410143   1.783   2.719   4.193 -0.3195  0.0057  0.4177
 2518SOL     OW10144   2.037   2.856   4.200  0.4945  0.0892  0.2811
 2518SOL    HW210145   2.057   2.857   4.294 -0.2281 -0.1172  0.4471
 2518SOL    HW310146   1.955   2.806   4.194  1.8827 -2.1225 -0.7477
 2518SOL    MW410147   2.029   2.849   4.212  0.5822 -0.2296  0.1678
 2519SOL     OW10148   2.083   3.103   4.100  0.5274 -0.2014 -0.1976
 2519SOL    HW210149   2.073   3.010   4.122  0.3860 -0.2570 -0.4914
 2519SOL    HW310150   2.057   3.108   4.008 -0.1742  0.2510  0.0206
 2519SOL    MW410151   2.078   3.091   4.091  0.4160 -0.1490 -0.2074
 2520SOL     OW10152   1.841   3.203   4.187  0.0619  0.5078  0.4271
 2520SOL    HW210153   1.848   3.299   4.180 -0.5127  0.4772 -0.7987
 2520SOL    HW310154   1.924   3.170   4.154  0.3837  0.5969  1.1541
 2520SOL    MW410155   1.853   3.212   4.182  0.0286  0.5152  0.3610
 2521SOL     OW10156   1.825   3.461   4.130 -0.2777  0.1983  0.6802
 2521SOL    HW210157   1.753   3.514   4.164 -0.5027  0.0960  0.3653
 2521SOL    HW310158   1.819   3.471   4.035  0.3286  0.4606  0.6681
 2521SOL    MW410159   1.815   3.469   4.122 -0.2273  0.2193  0.6371
 2522SOL     OW10160   2.074   3.587   4.258 -0.0820  0.0433  0.2010
 2522SOL    HW210161   2.080   3.670   4.211 -1.3340  0.2053  0.3128
 2522SOL    HW310162   1.993   3.548   4.227  1.1840 -1.8167 -0.9111
 2522SOL    MW410163   2.064   3.593   4.248 -0.0801 -0.1807  0.0691
 2523SOL     OW10164   2.043   3.865   4.155  0.0946  0.2516 -0.1211
 2523SOL    HW210165   1.962   3.903   4.187 -0.5991 -0.7984 -0.6048
 2523SOL    HW310166   2.044   3.886   4.062  0.4937  0.4582 -0.0715
 2523SOL    MW410167   2.033   3.873   4.147  0.0556  0.1402 -0.1779
 2524SOL     OW10168   1.816   3.998   4.212  0.3758  0.2283  0.1048
 2524SOL    HW210169   1.809   4.086   4.174 -0.0636 -0.8923 -2.5569
 2524SOL    HW310170   1.736   3.954   4.185  1.6103 -1.6835 -0.5666
 2524SOL    MW410171   1.805   4.004   4.203  0.4807 -0.1717 -0.3352
 2525SOL     OW10172   1.767   4.253   4.123 -0.3431  0.0438  0.3831
 2525SOL    HW210173   1.853   4.288   4.149  0.3394 -1.5023  0.2255
 2525SOL    HW310174   1.765   4.262   4.028 -0.4417  0.2726  0.4065
 2525SOL    MW410175   1.778   4.259   4.114 -0.2658 -0.1302  0.3662
 2526SOL     OW10176   2.016   4.360   4.225  0.4243  0.1090 -0.3490
 2526SOL    HW210177   2.025   4.347   4.319  1.5601  0.0450 -0.4609
 2526SOL    HW310178   2.013   4.455   4.214 -0.4752  0.1029 -0.1867
 2526SOL    MW410179   2.017   4.371   4.236  0.4554  0.1001 -0.3424
 2527SOL     OW10180   2.514   4.662   4.146  0.0254  0.1005 -0.5649
 2527SOL    HW210181   2.563   4.718   4.207 -1.5354  2.4234 -1.3941
 2527SOL    HW310182   2.493   4.584   4.197  0.8179  0.9698  1.1437
 2527SOL    MW410183   2.518   4.659   4.161 -0.0758  0.5212 -0.4487
 2528SOL     OW10184   2.264   0.129   4.189 -0.5832 -0.2910 -0.5445
 2528SOL    HW210185   2.345   0.081   4.172 -0.2634 -1.2946  3.4015
 2528SOL    HW310186   2.195   0.064   4.172 -0.3515 -0.7578  0.2563
 2528SOL    MW410187   2.266   0.114   4.185 -0.5105 -0.4850  0.0820
 2529SOL     OW10188   2.240   0.387   4.121  0.6138 -0.1437 -0.1506
 2529SOL    HW210189   2.238   0.294   4.144  1.9388 -0.2358 -0.3772
 2529SOL    HW310190   2.249   0.388   4.026  1.7139  0.2025 -0.0513
 2529SOL    MW410191   2.241   0.375   4.112  0.9339 -0.1102 -0.1674
 2530SOL     OW10192   2.463   0.482   4.257 -0.0947  0.0312  0.4355
 2530SOL    HW210193   2.439   0.451   4.345 -0.2818 -2.2256 -0.3664
 2530SOL    HW310194   2.386   0.462   4.204 -0.0086  1.4611 -0.2474
 2530SOL    MW410195   2.449   0.475   4.262 -0.1080 -0.0779  0.2394
 2531SOL     OW10196   2.493   0.750   4.177  0.2457  0.1704  0.2342
 2531SOL    HW210197   2.482   0.655   4.185 -1.5885  0.4501  1.3535
 2531SOL    HW310198   2.507   0.765   4.084  3.1595 -1.4392  0.3611
 2531SOL    MW410199   2.493   0.739   4.166  0.3881 -0.0051  0.3991
 2532SOL     OW10200   2.244   0.884   4.252  0.1888 -0.3301  0.2238
 2532SOL    HW210201   2.228   0.887   4.346  0.2653 -0.5867  0.2470
 2532SOL    HW310202   2.333   0.849   4.244  0.2901 -0.0324  0.0645
 2532SOL    MW410203   2.254   0.880   4.263  0.2124 -0.3247  0.2060
 2533SOL     OW10204   2.246   1.136   4.113  0.4150 -0.1170  0.5081
 2533SOL    HW210205   2.334   1.173   4.111 -0.0451  0.9640 -0.0293
 2533SOL    HW310206   2.253   1.061   4.173  2.1189 -1.1284 -0.8868
 2533SOL    MW410207   2.259   1.131   4.120  0.5791 -0.1079  0.2532
 2534SOL     OW10208   2.126   0.886   4.509  0.1313  0.1318  0.0596
 2534SOL    HW210209   2.048   0.925   4.547 -0.4446 -0.6937 -0.2479
 2534SOL    HW310210   2.118   0.792   4.528  0.4431 -0.1239 -1.0148
 2534SOL    MW410211   2.115   0.879   4.516  0.0963 -0.0108 -0.1225
 2535SOL     OW10212   2.527   1.207   4.110  0.0279  0.6376  0.3698
 2535SOL    HW210213   2.585   1.182   4.038 -0.3402  0.7623  0.0291
 2535SOL    HW310214   2.546   1.300   4.124 -0.3653  0.7733  0.0028
 2535SOL    MW410215   2.537   1.216   4.102 -0.0727  0.6719  0.2770
 2536SOL     OW10216   2.034   1.775   4.243  0.0006 -0.0285 -0.1812
 2536SOL    HW210217   2.078   1.859   4.232 -0.3921  0.1595 -0.3291
 2536SOL    HW310218   2.041   1.756   4.337  0.3108  0.0454 -0.1879
 2536SOL    MW410219   2.041   1.783   4.254 -0.0103  0.0061 -0.2017
 2537SOL     OW10220   2.297   1.949   4.089  0.0946  0.2042 -0.2157
 2537SOL    HW210221   2.227   1.982   4.145  0.8532 -0.0911  0.9231
 2537SOL    HW310222   2.316   1.861   4.123  0.7175  0.1068 -0.7865
 2537SOL    MW410223   2.290   1.942   4.101  0.2773  0.1523 -0.1411
 2538SOL     OW10224   2.117   2.031   4.296 -0.3354  0.3236  0.0088
 2538SOL    HW210225   2.054   2.095   4.263 -1.6868 -0.8849  0.1956
 2538SOL    HW310226   2.155   2.072   4.373 -1.5549  0.6970  0.4187
 2538SOL    MW410227   2.114   2.045   4.302 -0.6747  0.2136  0.0873
 2539SOL     OW10228   2.587   2.047   4.099  0.6454 -0.1626 -0.0316
 2539SOL    HW210229   2.610   2.047   4.006  0.6907  0.9394 -0.0268
 2539SOL    HW310230   2.503   2.000   4.102 -0.8268  2.3071 -1.0246
 2539SOL    MW410231   2.579   2.041   4.087  0.4573  0.3088 -0.1621
 2540SOL     OW10232   1.997   2.421   4.151 -0.1671  0.1106 -0.1393
 2540SOL    HW210233   1.952   2.356   4.205 -1.4762  0.6145 -0.5985
 2540SOL    HW310234   1.995   2.385   4.063 -0.2996  0.4663 -0.2823
 2540SOL    MW410235   1.991   2.408   4.147 -0.3573  0.2241 -0.2189
 2541SOL     OW10236   2.180   2.640   4.114 -0.0883 -0.0588  0.5146
 2541SOL    HW210237   2.130   2.563   4.140  0.5515 -0.4529  0.5819
 2541SOL    HW310238   2.123   2.714   4.136 -0.1386 -0.4428  1.7211
 2541SOL    MW410239   2.166   2.640   4.120 -0.0107 -0.1612  0.6828
 2542SOL     OW10240   2.420   2.743   4.209  0.1304  0.2726  0.4406
 2542SOL    HW210241   2.338   2.709   4.173 -0.6329  1.5780  0.8996
 2542SOL    HW310242   2.420   2.714   4.300 -0.1603  0.8543  0.6285
 2542SOL    MW410243   2.409   2.735   4.216 -0.0086  0.5219  0.5260
 2543SOL     OW10244   2.290   3.034   4.596  0.4472  0.0408 -1.0378
 2543SOL    HW210245   2.250   3.115   4.564 -1.3436  0.0867  1.1536
 2543SOL    HW310246   2.339   3.060   4.674 -1.0359 -1.1287  0.3209
 2543SOL    MW410247   2.291   3.048   4.602  0.0150 -0.1073 -0.5693
 2544SOL     OW10248   2.304   3.212   4.219  0.4052 -0.1398 -0.0676
 2544SOL    HW210249   2.230   3.161   4.186  0.8019 -1.3860  0.9155
 2544SOL    HW310250   2.380   3.157   4.202  1.0495  0.9248 -0.6404
 2544SOL    MW410251   2.304   3.198   4.213  0.5424 -0.1640 -0.0138
 2545SOL     OW10252   2.301   3.474   4.127 -0.0981  0.4657  0.7227
 2545SOL    HW210253   2.230   3.513   4.178  0.4520  0.6024  1.4040
 2545SOL    HW310254   2.308   3.384   4.161 -0.6354  0.1254 -0.0713
 2545SOL    MW410255   2.293   3.467   4.138 -0.0966  0.4389  0.7076
 2546SOL     OW10256   2.496   3.667   4.376  0.0037  0.1495 -0.1372
 2546SOL    HW210257   2.502   3.572   4.385 -1.5493  0.0746  0.1509
 2546SOL    HW310258   2.472   3.681   4.285 -1.0763  0.2061  0.1528
 2546SOL    MW410259   2.494   3.656   4.366 -0.3438  0.1471 -0.0610
 2547SOL     OW10260   2.479   3.830   4.140  0.0091  0.0485  0.1278
 2547SOL    HW210261   2.540   3.904   4.147  0.0825 -0.0007  0.0104
 2547SOL    HW310262   2.477   3.809   4.047  1.6696 -1.5008  0.4129
 2547SOL    MW410263   2.487   3.837   4.129  0.2377 -0.1621  0.1502
 2548SOL     OW10264   2.257   3.965   4.278 -0.2474  0.2600 -0.1395
 2548SOL    HW210265   2.326   3.910   4.240  0.2771  0.4226  0.5690
 2548SOL    HW310266   2.176   3.932   4.239  0.3506  0.9709 -2.0558
 2548SOL    MW410267   2.256   3.953   4.268 -0.0992  0.3750 -0.2995
 2549SOL     OW10268   2.242   4.266   4.124  0.2127 -0.9148 -0.0077
 2549SOL    HW210269   2.233   4.175   4.154  0.1768  0.2920  3.8549
 2549SOL    HW310270   2.160   4.308   4.151  0.9153  0.6586 -0.3164
 2549SOL    MW410271   2.230   4.259   4.131  0.3004 -0.5474  0.4611
 2550SOL     OW10272   2.460   4.399   4.248  0.3609 -0.7842  0.1860
 2550SOL    HW210273   2.540   4.368   4.206  1.1840  0.7300  0.6036
 2550SOL    HW310274   2.389   4.356   4.199  1.3976 -1.7562 -0.4932
 2550SOL    MW410275   2.461   4.389   4.236  0.6063 -0.7124  0.1512
 2551SOL     OW10276   2.887   4.655   4.161  0.3014  0.1005 -0.4957
 2551SOL    HW210277   2.964   4.693   4.203  0.4328 -0.9298  0.1861
 2551SOL    HW310278   2.879   4.567   4.198 -1.1679  0.1720 -0.5993
 2551SOL    MW410279   2.896   4.649   4.171  0.1249 -0.0262 -0.4196
 2552SOL     OW10280   2.694   0.129   4.317 -0.0341  0.5448  0.4535
 2552SOL    HW210281   2.683   0.219   4.287  1.7899  0.9992  1.0453
 2552SOL    HW310282   2.764   0.094   4.262 -0.0582 -0.1857  0.8830
 2552SOL    MW410283   2.702   0.136   4.306  0.2034  0.5084  0.5889
 2553SOL     OW10284   2.704   0.373   4.172  0.1548 -0.3183  0.3079
 2553SOL    HW210285   2.620   0.414   4.192 -0.1740 -0.8603  0.0569
 2553SOL    HW310286   2.717   0.388   4.078  0.6755  0.3703  0.4866
 2553SOL    MW410287   2.695   0.380   4.162  0.1802 -0.2989  0.2980
 2554SOL     OW10288   2.910   0.528   4.251 -0.3875 -0.3151  0.1639
 2554SOL    HW210289   2.898   0.614   4.211 -0.1523 -1.0637 -1.6051
 2554SOL    HW310290   2.836   0.476   4.217 -0.3165 -0.9092  0.9082
 2554SOL    MW410291   2.898   0.532   4.241 -0.3469 -0.4922  0.0286
 2555SOL     OW10292   2.893   0.808   4.163 -0.1179 -0.5277 -0.1690
 2555SOL    HW210293   2.976   0.837   4.201 -0.0440 -2.1421  0.9611
 2555SOL    HW310294   2.907   0.814   4.069  0.2587  1.9972  0.0070
 2555SOL    MW410295   2.906   0.812   4.156 -0.0584 -0.4075  0.0033
 2556SOL     OW10296   2.682   0.884   4.348 -0.6819 -0.2302  0.0086
 2556SOL    HW210297   2.751   0.870   4.283 -0.6840 -0.7342  0.1113
 2556SOL    HW310298   2.607   0.833   4.315 -0.1376 -1.8972  1.2743
 2556SOL    MW410299   2.681   0.875   4.335 -0.6104 -0.5167  0.1888
 2557SOL     OW10300   2.626   1.154   4.365  0.0429  0.1069  0.1130
 2557SOL    HW210301   2.635   1.059   4.359  0.4165  0.1629 -0.2741
 2557SOL    HW310302   2.590   1.180   4.280 -1.3287  0.1721  0.7042
 2557SOL    MW410303   2.623   1.145   4.353 -0.0889  0.1228  0.1402
 2558SOL     OW10304   2.993   1.314   4.326 -0.1171  0.1694 -0.3968
 2558SOL    HW210305   3.044   1.260   4.265  0.1119 -0.7875  0.6371
 2558SOL    HW310306   2.906   1.317   4.288 -0.5663 -2.3389  0.4019
 2558SOL    MW410307   2.989   1.308   4.313 -0.1462 -0.2878 -0.1554
 2559SOL     OW10308   2.858   1.664   4.129  0.2800 -0.1393  0.1891
 2559SOL    HW210309   2.945   1.690   4.158  0.9717 -2.8144  0.6276
 2559SOL    HW310310   2.811   1.642   4.210 -0.1616 -0.5882 -0.1831
 2559SOL    MW410311   2.863   1.664   4.144  0.3130 -0.5513  0.1979
 2560SOL     OW10312   2.530   1.487   4.139  0.2043  0.0667 -0.3044
 2560SOL    HW210313   2.548   1.515   4.049 -0.2084  1.4407  0.0311
 2560SOL    HW310314   2.455   1.539   4.166 -0.9806 -1.7992  0.1549
 2560SOL    MW410315   2.522   1.497   4.130 -0.0064  0.0018 -0.1998
 2561SOL     OW10316   2.319   1.686   4.187 -0.1876 -0.3474  0.2762
 2561SOL    HW210317   2.321   1.711   4.279 -1.0900 -1.6572  0.6695
 2561SOL    HW310318   2.244   1.627   4.179 -0.4751  0.2047 -1.4268
 2561SOL    MW410319   2.310   1.681   4.198 -0.3445 -0.4475  0.1030
 2562SOL     OW10320   2.838   1.924   4.187 -0.9489  0.0839 -0.0690
 2562SOL    HW210321   2.837   1.829   4.178 -2.0541  0.0726  0.0541
 2562SOL    HW310322   2.753   1.952   4.154 -0.5021  1.0612 -0.4202
 2562SOL    MW410323   2.827   1.916   4.182 -1.0359  0.2114 -0.0987
 2563SOL     OW10324   2.516   2.305   4.119 -0.4273  0.2727  0.3308
 2563SOL    HW210325   2.433   2.310   4.167 -1.0420 -0.1058 -0.6750
 2563SOL    HW310326   2.531   2.211   4.108  1.1803  0.2817  2.2762
 2563SOL    MW410327   2.507   2.293   4.124 -0.2959  0.2239  0.4554
 2564SOL     OW10328   2.266   2.356   4.243  0.1259 -0.1787 -0.4515
 2564SOL    HW210329   2.267   2.433   4.301 -1.1336  0.4806 -1.2778
 2564SOL    HW310330   2.178   2.356   4.206  0.2964 -1.7368 -0.8550
 2564SOL    MW410331   2.255   2.366   4.246 -0.0176 -0.2973 -0.6137
 2565SOL     OW10332   2.488   3.015   4.135 -0.3946  0.0556 -0.3078
 2565SOL    HW210333   2.475   2.924   4.164  0.2319  0.1930  0.4257
 2565SOL    HW310334   2.583   3.029   4.143 -0.6869  1.3168  1.2166
 2565SOL    MW410335   2.499   3.005   4.140 -0.3505  0.2398 -0.0100
 2566SOL     OW10336   2.691   2.857   4.508  0.0140  0.2698 -0.2509
 2566SOL    HW210337   2.654   2.941   4.481 -0.3906  0.4097  0.7519
 2566SOL    HW310338   2.618   2.796   4.504 -0.2623  0.4764  1.4026
 2566SOL    MW410339   2.677   2.860   4.504 -0.0761  0.3157  0.0992
 2567SOL     OW10340   2.775   3.038   4.132 -0.1550  0.5201 -0.0743
 2567SOL    HW210341   2.810   2.950   4.147  1.0462  1.1342  0.7983
 2567SOL    HW310342   2.812   3.064   4.048  1.3154  1.0728  0.7330
 2567SOL    MW410343   2.784   3.030   4.123  0.1974  0.6740  0.1469
 2568SOL     OW10344   2.617   3.279   4.330  0.5271  0.0153  0.1373
 2568SOL    HW210345   2.560   3.220   4.380  0.1948  1.1897  1.1969
 2568SOL    HW310346   2.705   3.246   4.344  0.4663  0.5312  1.8085
 2568SOL    MW410347   2.621   3.267   4.339  0.4752  0.2387  0.4978
 2569SOL     OW10348   2.591   3.473   4.125  0.3250  0.0598  0.6214
 2569SOL    HW210349   2.611   3.393   4.174 -0.0992 -0.6908 -0.3987
 2569SOL    HW310350   2.495   3.479   4.129  0.2478 -0.2839 -0.5220
 2569SOL    MW410351   2.581   3.463   4.132  0.2589 -0.0844  0.3357
 2570SOL     OW10352   2.827   3.617   4.179 -0.1571 -0.2674 -0.4396
 2570SOL    HW210353   2.833   3.610   4.275  0.7450 -0.5469 -0.5118
 2570SOL    HW310354   2.737   3.593   4.159 -0.1460 -0.9525  0.2852
 2570SOL    MW410355   2.816   3.613   4.189 -0.0365 -0.3948 -0.3533
 2571SOL     OW10356   2.872   3.910   4.101  0.1283  0.1663  0.0813
 2571SOL    HW210357   2.958   3.943   4.128  1.1408 -1.7622 -0.6720
 2571SOL    HW310358   2.872   3.818   4.128 -1.7166  0.1442  0.0754
 2571SOL    MW410359   2.883   3.902   4.108  0.0186 -0.0908 -0.0186
 2572SOL     OW10360   2.639   4.031   4.198  0.1686 -0.2465 -0.3768
 2572SOL    HW210361   2.639   4.120   4.163 -0.4808  0.6576  1.8302
 2572SOL    HW310362   2.722   3.994   4.168 -0.5897  0.2904 -3.2508
 2572SOL    MW410363   2.650   4.038   4.189 -0.0174 -0.0558 -0.4649
 2573SOL     OW10364   2.680   4.300   4.115  0.2235  0.1610  0.3270
 2573SOL    HW210365   2.756   4.330   4.166  0.7150  0.0296 -0.3191
 2573SOL    HW310366   2.709   4.305   4.024 -0.1719 -0.9438  0.1379
 2573SOL    MW410367   2.694   4.305   4.110  0.2360 -0.0029  0.2170
 2574SOL     OW10368   2.892   4.394   4.242 -0.1191 -0.6534  0.2578
 2574SOL    HW210369   2.908   4.386   4.336 -2.1320 -0.8044  0.6215
 2574SOL    HW310370   2.976   4.373   4.201  1.0330  0.3533  2.0422
 2574SOL    MW410371   2.905   4.390   4.249 -0.2325 -0.5403  0.5412
 2575SOL     OW10372   3.349   0.023   4.142 -0.5582  0.3590  0.1073
 2575SOL    HW210373   3.421   0.062   4.192 -1.0268  0.4341  0.7313
 2575SOL    HW310374   3.349  -0.069   4.167 -0.5921  0.3291 -0.0004
 2575SOL    MW410375   3.359   0.016   4.152 -0.6244  0.3653  0.1755
 2576SOL     OW10376   3.119   0.112   4.270 -0.0910 -0.4631 -0.3215
 2576SOL    HW210377   3.132   0.088   4.361 -0.3179  1.1265  0.1473
 2576SOL    HW310378   3.200   0.088   4.226  0.2538 -0.6408  0.4166
 2576SOL    MW410379   3.131   0.106   4.276 -0.0751 -0.2768 -0.1621
 2577SOL     OW10380   3.127   0.367   4.187  0.1969  0.0388  0.1677
 2577SOL    HW210381   3.104   0.286   4.232 -1.4043 -0.2830 -1.2023
 2577SOL    HW310382   3.060   0.430   4.215 -0.1520  0.1396 -0.9015
 2577SOL    MW410383   3.115   0.365   4.197 -0.0603  0.0097 -0.1540
 2578SOL     OW10384   3.342   0.525   4.279 -0.4397 -0.1107 -1.0573
 2578SOL    HW210385   3.421   0.480   4.250 -1.4303 -1.9721 -0.9551
 2578SOL    HW310386   3.271   0.463   4.263 -1.6984  0.9288  0.2529
 2578SOL    MW410387   3.343   0.511   4.273 -0.7365 -0.2191 -0.8707
 2579SOL     OW10388   3.356   0.778   4.171 -0.2561  0.4035 -0.1779
 2579SOL    HW210389   3.278   0.822   4.205  0.2740  1.9299 -0.9126
 2579SOL    HW310390   3.343   0.686   4.194  0.1656  1.3416  4.3704
 2579SOL    MW410391   3.344   0.772   4.178 -0.1304  0.7287  0.3257
 2580SOL     OW10392   3.136   0.912   4.265 -0.0663 -0.1321  0.0306
 2580SOL    HW210393   3.119   0.929   4.358 -2.1403 -0.6865 -0.2362
 2580SOL    HW310394   3.129   0.998   4.223 -0.5768 -0.0993  0.1792
 2580SOL    MW410395   3.133   0.926   4.272 -0.4072 -0.2009  0.0148
 2581SOL     OW10396   3.143   1.164   4.146  0.4488  0.2201 -0.5369
 2581SOL    HW210397   3.217   1.213   4.183  1.1372 -0.6228 -0.7757
 2581SOL    HW310398   3.157   1.167   4.052  0.5763 -0.5634 -0.5464
 2581SOL    MW410399   3.155   1.171   4.138  0.5565  0.0055 -0.5693
 2582SOL     OW10400   3.379   1.304   4.263  0.0968  0.5527 -0.5029
 2582SOL    HW210401   3.363   1.342   4.350 -0.5387  0.2521 -0.4852
 2582SOL    HW310402   3.345   1.369   4.202 -0.4172  0.2989 -0.4913
 2582SOL    MW410403   3.373   1.318   4.267 -0.0548  0.4796 -0.4992
 2583SOL     OW10404   3.321   1.548   4.135  0.3588  0.1922  0.5711
 2583SOL    HW210405   3.252   1.608   4.161 -2.3025 -2.2011 -0.6850
 2583SOL    HW310406   3.339   1.571   4.044  0.5507  0.1957  0.6099
 2583SOL    MW410407   3.314   1.559   4.126  0.0329 -0.1230  0.4110
 2584SOL     OW10408   3.085   2.021   4.129 -0.1533 -0.0584  0.3420
 2584SOL    HW210409   3.095   2.100   4.181  0.9021  1.4694 -2.1141
 2584SOL    HW310410   2.997   1.990   4.150 -0.3124  1.3625  1.8629
 2584SOL    MW410411   3.075   2.027   4.139 -0.0353  0.3309  0.2193
 2585SOL     OW10412   3.249   2.691   4.065 -0.2747 -0.2156 -0.0109
 2585SOL    HW210413   3.212   2.753   4.126 -0.4025 -0.6121  0.3184
 2585SOL    HW310414   3.344   2.704   4.071 -0.2572 -0.6363  0.6853
 2585SOL    MW410415   3.257   2.701   4.074 -0.2894 -0.3235  0.1249
 2586SOL     OW10416   2.916   2.318   4.092  0.6932 -0.4756  0.1950
 2586SOL    HW210417   2.850   2.308   4.161 -0.5324 -0.7053 -0.9949
 2586SOL    HW310418   2.985   2.371   4.133 -1.1773  1.5783  0.8254
 2586SOL    MW410419   2.916   2.324   4.106  0.2844 -0.2348  0.1206
 2587SOL     OW10420   3.609   2.447   4.159  0.0410  0.0963 -0.5098
 2587SOL    HW210421   3.635   2.465   4.250 -0.8663 -0.5609 -0.1097
 2587SOL    HW310422   3.690   2.421   4.116  0.5961  1.0261 -0.0414
 2587SOL    MW410423   3.623   2.446   4.165 -0.0057  0.1326 -0.3953
 2588SOL     OW10424   3.323   3.166   4.130 -0.0059 -0.2605 -0.5279
 2588SOL    HW210425   3.358   3.096   4.185  1.2235  0.8936  0.1965
 2588SOL    HW310426   3.252   3.204   4.182  0.4991  0.1793 -0.1514
 2588SOL    MW410427   3.318   3.162   4.144  0.2229 -0.0503 -0.3829
 2589SOL     OW10428   2.637   2.592   4.135  0.2752  0.2780  0.7083
 2589SOL    HW210429   2.618   2.502   4.111  0.1200 -0.3325  2.9398
 2589SOL    HW310430   2.552   2.630   4.156  0.3235  0.9990 -0.3655
 2589SOL    MW410431   2.623   2.585   4.135  0.2613  0.2925  0.8607
 2590SOL     OW10432   2.880   3.160   4.338 -0.4730  0.0982  0.0215
 2590SOL    HW210433   2.899   3.097   4.407 -1.0534  0.2980  0.3726
 2590SOL    HW310434   2.848   3.107   4.265  1.2601 -0.2228 -0.5195
 2590SOL    MW410435   2.878   3.145   4.338 -0.3209  0.0820 -0.0038
 2591SOL     OW10436   3.200   3.519   4.478  0.0388 -0.0658  0.1360
 2591SOL    HW210437   3.194   3.438   4.427 -0.0946  0.0808 -0.0891
 2591SOL    HW310438   3.184   3.492   4.568 -0.3501 -0.2413  0.0188
 2591SOL    MW410439   3.197   3.505   4.483 -0.0300 -0.0696  0.0906
 2592SOL     OW10440   3.124   3.305   4.294 -0.0138 -0.3803  0.0011
 2592SOL    HW210441   3.100   3.383   4.244  0.3182 -0.9391 -1.0536
 2592SOL    HW310442   3.042   3.257   4.306 -0.0133 -0.4839 -0.4234
 2592SOL    MW410443   3.110   3.309   4.289  0.0300 -0.4675 -0.1941
 2593SOL     OW10444   3.090   3.531   4.123 -0.0401 -0.1589  0.3209
 2593SOL    HW210445   2.999   3.562   4.133  0.0674 -0.0902  1.2017
 2593SOL    HW310446   3.095   3.498   4.034 -1.0489 -0.5258  0.3928
 2593SOL    MW410447   3.078   3.531   4.113 -0.1588 -0.1984  0.4468
 2594SOL     OW10448   3.339   3.642   4.203  0.2534  0.2399 -0.2389
 2594SOL    HW210449   3.343   3.649   4.298  0.4993  0.2044 -0.2482
 2594SOL    HW310450   3.249   3.614   4.185  0.5614 -1.0010  0.0642
 2594SOL    MW410451   3.327   3.639   4.213  0.3264  0.0713 -0.1998
 2595SOL     OW10452   3.401   3.882   4.106  0.3094  0.0312  0.3573
 2595SOL    HW210453   3.378   3.794   4.138 -2.3876  0.5168 -0.1570
 2595SOL    HW310454   3.404   3.873   4.011 -1.1413  0.7128  0.2233
 2595SOL    MW410455   3.398   3.869   4.098 -0.2377  0.1850  0.2713
 2596SOL     OW10456   3.149   3.994   4.189 -0.2748 -0.2205 -0.0560
 2596SOL    HW210457   3.170   3.982   4.282  1.7706  2.3825 -0.1136
 2596SOL    HW310458   3.227   3.964   4.143 -1.3542 -1.6587 -0.9842
 2596SOL    MW410459   3.162   3.989   4.195 -0.1473 -0.0670 -0.1855
 2597SOL     OW10460   3.152   4.276   4.125  0.3133  0.4880 -0.4195
 2597SOL    HW210461   3.233   4.316   4.155  1.3755 -0.5965 -1.7739
 2597SOL    HW310462   3.158   4.184   4.154 -0.5226  0.4440 -0.3589
 2597SOL    MW410463   3.163   4.269   4.133  0.3431  0.3395 -0.5908
 2598SOL     OW10464   3.341   4.438   4.239  0.4867  0.2283 -0.0103
 2598SOL    HW210465   3.339   4.461   4.332 -0.5536  1.8098 -0.3943
 2598SOL    HW310466   3.419   4.385   4.229 -0.0871 -1.0671  2.0162
 2598SOL    MW410467   3.351   4.434   4.250  0.2739  0.2661  0.2060
 2599SOL     OW10468   3.784   0.009   4.137 -0.0826  0.1000  0.3096
 2599SOL    HW210469   3.863   0.053   4.169 -0.1332  0.9748 -0.7309
 2599SOL    HW310470   3.795   0.007   4.042  0.3362 -2.9231  0.3537
 2599SOL    MW410471   3.796   0.014   4.128 -0.0341 -0.1831  0.1779
 2600SOL     OW10472   3.565   0.149   4.290  0.0620 -0.3791  0.0082
 2600SOL    HW210473   3.591   0.239   4.271 -0.9623  0.4230  2.1398
 2600SOL    HW310474   3.623   0.095   4.237  0.6185  1.5421 -1.3891
 2600SOL    MW410475   3.576   0.154   4.281  0.0002 -0.0198  0.1049
 2601SOL     OW10476   3.588   0.432   4.174  0.5146  0.1304 -0.1008
 2601SOL    HW210477   3.671   0.478   4.188 -0.6972  2.6270 -0.9218
 2601SOL    HW310478   3.575   0.436   4.079 -0.7106  0.0366  0.0646
 2601SOL    MW410479   3.597   0.439   4.163  0.1931  0.4474 -0.1869
 2602SOL     OW10480   3.846   0.542   4.212  0.0312 -0.0079 -0.6257
 2602SOL    HW210481   3.836   0.512   4.303 -0.9718 -0.5104 -0.8911
 2602SOL    HW310482   3.837   0.637   4.217  0.0833 -0.0248 -0.1837
 2602SOL    MW410483   3.844   0.550   4.225 -0.0942 -0.0765 -0.6022
 2603SOL     OW10484   3.814   0.804   4.213  0.1895 -0.1751  0.1575
 2603SOL    HW210485   3.729   0.830   4.249 -0.2909  0.3643 -1.3428
 2603SOL    HW310486   3.795   0.777   4.123  1.5902 -0.1825 -0.1479
 2603SOL    MW410487   3.801   0.804   4.206  0.3109 -0.1048 -0.0806
 2604SOL     OW10488   3.551   0.878   4.326 -0.8029 -0.0741  0.6696
 2604SOL    HW210489   3.554   0.971   4.305  0.9514 -0.4939 -1.0790
 2604SOL    HW310490   3.488   0.841   4.263 -0.8836 -0.1966  0.8219
 2604SOL    MW410491   3.543   0.885   4.315 -0.5825 -0.1457  0.4597
 2605SOL     OW10492   3.583   1.138   4.189 -0.1028  0.0708  0.2847
 2605SOL    HW210493   3.514   1.194   4.225 -0.9396 -0.3419 -0.6640
 2605SOL    HW310494   3.568   1.139   4.095 -0.0756 -1.6753  0.2436
 2605SOL    MW410495   3.572   1.146   4.181 -0.2096 -0.2140  0.1540
 2606SOL     OW10496   3.813   1.274   4.268  0.2161  0.5351 -0.2953
 2606SOL    HW210497   3.735   1.230   4.232 -0.1251  1.1159 -0.2696
 2606SOL    HW310498   3.816   1.358   4.223  1.1213  0.3140 -0.6608
 2606SOL    MW410499   3.803   1.279   4.257  0.2906  0.5825 -0.3400
 2607SOL     OW10500   3.796   1.531   4.144  0.0637 -0.5319  0.3349
 2607SOL    HW210501   3.871   1.586   4.166  0.2019 -1.6347  2.7862
 2607SOL    HW310502   3.721   1.578   4.181 -0.1506 -0.6701  0.0749
 2607SOL    MW410503   3.796   1.545   4.152  0.0539 -0.6958  0.6242
 2608SOL     OW10504   3.571   1.632   4.256 -0.5136 -0.0631 -0.0526
 2608SOL    HW210505   3.488   1.602   4.218 -0.3891  0.2237 -0.5423
 2608SOL    HW310506   3.545   1.705   4.313 -0.7735 -0.8672  0.8782
 2608SOL    MW410507   3.556   1.638   4.259 -0.5314 -0.1314  0.0062
 2609SOL     OW10508   3.499   1.992   4.139  0.1262  0.2217  0.1562
 2609SOL    HW210509   3.463   2.081   4.135 -1.3923 -0.4033 -0.7052
 2609SOL    HW310510   3.541   1.979   4.054 -0.2076 -0.0892  0.0330
 2609SOL    MW410511   3.500   2.002   4.127 -0.1185  0.0980  0.0267
 2610SOL     OW10512   3.785   2.074   4.202  0.2581 -0.0852  0.2814
 2610SOL    HW210513   3.699   2.035   4.185  0.0507  0.5819 -0.2331
 2610SOL    HW310514   3.776   2.115   4.288  0.3736 -0.8785  0.6730
 2610SOL    MW410515   3.772   2.075   4.211  0.2458 -0.1020  0.2656
 2611SOL     OW10516   4.018   2.439   4.224 -0.0798 -0.6184  0.3384
 2611SOL    HW210517   4.025   2.398   4.310 -2.0254  0.4593  1.0424
 2611SOL    HW310518   3.950   2.390   4.178  1.4183 -1.6247 -0.8762
 2611SOL    MW410519   4.010   2.427   4.229 -0.1388 -0.6089  0.2708
 2612SOL     OW10520   3.596   2.727   3.814 -0.3497  0.3124 -0.4935
 2612SOL    HW210521   3.564   2.716   3.903  0.7027  1.8523  0.0843
 2612SOL    HW310522   3.584   2.640   3.774 -0.0197 -0.6386  1.3959
 2612SOL    MW410523   3.590   2.714   3.820 -0.1674  0.3903 -0.1678
 2613SOL     OW10524   3.516   2.700   4.088  0.2568  0.2090 -0.5211
 2613SOL    HW210525   3.557   2.747   4.160 -0.2434 -1.6750  1.0527
 2613SOL    HW310526   3.546   2.609   4.099 -0.4223 -0.2420 -2.2440
 2613SOL    MW410527   3.525   2.694   4.099  0.1011 -0.0989 -0.5403
 2614SOL     OW10528   3.920   2.851   4.214 -0.3731  0.1668  0.2885
 2614SOL    HW210529   3.965   2.860   4.298 -0.2616  0.6331  0.1809
 2614SOL    HW310530   3.840   2.803   4.235 -2.8638  4.6365  1.5764
 2614SOL    MW410531   3.916   2.846   4.228 -0.6869  0.8180  0.4439
 2615SOL     OW10532   3.785   3.086   4.125 -0.1810 -0.3223  0.1302
 2615SOL    HW210533   3.835   3.008   4.145  0.9960  0.3300 -0.2158
 2615SOL    HW310534   3.772   3.083   4.030 -0.0939 -0.0700  0.1096
 2615SOL    MW410535   3.790   3.076   4.115 -0.0143 -0.2034  0.0815
 2616SOL     OW10536   3.565   3.269   4.235  0.1307 -0.0248  0.1632
 2616SOL    HW210537   3.626   3.196   4.220 -0.7993 -0.4227 -1.9586
 2616SOL    HW310538   3.483   3.241   4.194  0.0170  2.5646 -1.5555
 2616SOL    MW410539   3.562   3.256   4.227 -0.0072  0.2644 -0.3438
 2617SOL     OW10540   3.575   3.514   4.137 -0.1025  0.2795  0.3816
 2617SOL    HW210541   3.573   3.426   4.174 -2.5738 -1.7043 -4.0462
 2617SOL    HW310542   3.492   3.554   4.164 -0.4653  0.0223 -0.3501
 2617SOL    MW410543   3.564   3.508   4.145 -0.4764 -0.0162 -0.2985
 2618SOL     OW10544   3.788   3.662   4.220  0.2950 -0.0734 -0.0079
 2618SOL    HW210545   3.866   3.614   4.190  0.3305  0.9526 -1.6109
 2618SOL    HW310546   3.714   3.607   4.193  0.3331  0.7582 -1.8717
 2618SOL    MW410547   3.789   3.648   4.213  0.3047  0.1717 -0.4649
 2619SOL     OW10548   3.847   3.913   4.131 -0.2911  0.1232 -0.2787
 2619SOL    HW210549   3.781   3.971   4.171 -0.6496 -0.1634 -0.4520
 2619SOL    HW310550   3.815   3.825   4.150 -0.2934 -0.0149 -0.9222
 2619SOL    MW410551   3.834   3.909   4.139 -0.3386  0.0675 -0.3867
 2620SOL     OW10552   3.621   4.004   4.268  0.1960 -0.3992  0.3745
 2620SOL    HW210553   3.598   4.003   4.361 -0.2091 -1.4274  0.2744
 2620SOL    HW310554   3.553   3.952   4.226 -0.2402  0.9787 -0.6573
 2620SOL    MW410555   3.609   3.997   4.274  0.0851 -0.3529  0.2251
 2621SOL     OW10556   3.566   4.284   4.171  0.3695  0.2097 -0.2133
 2621SOL    HW210557   3.651   4.326   4.182  0.1298  0.6646 -0.1248
 2621SOL    HW310558   3.579   4.196   4.206  1.1209 -0.0906 -1.2121
 2621SOL    MW410559   3.579   4.278   4.177  0.4370  0.2298 -0.3328
 2622SOL     OW10560   3.801   4.409   4.237 -0.1312  0.2342 -0.1948
 2622SOL    HW210561   3.880   4.364   4.206 -1.3601 -0.1887 -2.8586
 2622SOL    HW310562   3.806   4.496   4.197 -0.7725  0.3737  0.0246
 2622SOL    MW410563   3.812   4.415   4.228 -0.3777  0.1969 -0.5169
 2623SOL     OW10564   4.227   4.643   4.158 -0.5796  0.1405  0.2188
 2623SOL    HW210565   4.243   4.552   4.182 -1.8693 -0.3627 -0.7641
 2623SOL    HW310566   4.302   4.691   4.193  0.5253 -1.4150  0.0142
 2623SOL    MW410567   4.239   4.638   4.166 -0.6042 -0.1316  0.0615
 2624SOL     OW10568   4.005   0.152   4.230  0.0246  0.5829  0.2750
 2624SOL    HW210569   4.027   0.236   4.190 -1.0992  0.5699 -0.3698
 2624SOL    HW310570   4.076   0.094   4.201 -1.1082  0.3951 -2.3002
 2624SOL    MW410571   4.018   0.156   4.221 -0.2732  0.5564 -0.1497
 2625SOL     OW10572   4.053   0.393   4.103 -0.2471 -0.4445 -0.7002
 2625SOL    HW210573   4.129   0.436   4.144 -0.0367 -1.7696  0.3213
 2625SOL    HW310574   3.977   0.438   4.140  0.0089  0.2090 -0.9583
 2625SOL    MW410575   4.053   0.405   4.113 -0.1855 -0.5331 -0.5994
 2626SOL     OW10576   4.268   0.472   4.240  0.4505  0.1821  0.0071
 2626SOL    HW210577   4.267   0.566   4.225  1.9949  0.3707  0.9931
 2626SOL    HW310578   4.332   0.438   4.177 -0.4072 -0.2680 -0.6330
 2626SOL    MW410579   4.276   0.480   4.230  0.5412  0.1476  0.0529
 2627SOL     OW10580   4.267   0.745   4.159 -0.1791 -0.1036 -0.1796
 2627SOL    HW210581   4.201   0.804   4.195 -0.1418 -0.9580  1.3606
 2627SOL    HW310582   4.248   0.740   4.066 -1.3207  0.8734 -0.0043
 2627SOL    MW410583   4.256   0.752   4.151 -0.3247 -0.0874  0.0463
 2628SOL     OW10584   4.070   0.919   4.200 -0.9857  0.0981  0.4893
 2628SOL    HW210585   4.068   1.015   4.192 -1.9637 -0.0941 -2.2375
 2628SOL    HW310586   3.978   0.895   4.211 -0.6523 -0.5061  2.1551
 2628SOL    MW410587   4.057   0.929   4.201 -1.0710 -0.0070  0.3495
 2629SOL     OW10588   4.048   1.196   4.163 -0.1931 -0.2735 -0.1996
 2629SOL    HW210589   4.111   1.246   4.214 -0.1901 -0.9493  0.4605
 2629SOL    HW310590   3.963   1.217   4.201 -0.4344  1.0254 -1.4075
 2629SOL    MW410591   4.045   1.205   4.174 -0.2241 -0.1912 -0.2718
 2630SOL     OW10592   4.193   1.217   4.523 -0.6434  0.3579  0.3361
 2630SOL    HW210593   4.272   1.213   4.578  1.0118 -0.4965 -2.0068
 2630SOL    HW310594   4.153   1.130   4.534 -0.7581  0.4729  0.8267
 2630SOL    MW410595   4.198   1.205   4.532 -0.4396  0.2605  0.0911
 2631SOL     OW10596   4.257   1.566   4.145  0.5705 -0.0225  0.5325
 2631SOL    HW210597   4.261   1.486   4.196  0.4822 -0.0300  0.5281
 2631SOL    HW310598   4.251   1.537   4.054  2.8216 -0.0144  0.3464
 2631SOL    MW410599   4.257   1.552   4.140  0.8559 -0.0224  0.5074
 2632SOL     OW10600   4.013   1.690   4.216 -0.1661 -0.0149  0.1824
 2632SOL    HW210601   4.001   1.706   4.310  0.1462 -0.2522  0.2655
 2632SOL    HW310602   4.104   1.662   4.209 -0.2112 -0.0630 -0.1852
 2632SOL    MW410603   4.023   1.688   4.228 -0.1307 -0.0526  0.1445
 2633SOL     OW10604   4.007   1.937   4.110 -0.1911 -0.3077  0.1988
 2633SOL    HW210605   4.010   1.850   4.151 -1.0217  0.0564  1.0450
 2633SOL    HW310606   3.930   1.979   4.148  0.2691  0.8441 -0.1201
 2633SOL    MW410607   3.997   1.931   4.121 -0.2398 -0.1076  0.2685
 2634SOL     OW10608   4.481   1.947   4.117  0.6380 -0.4050  0.1556
 2634SOL    HW210609   4.545   2.005   4.158  0.8050 -0.4652 -0.0183
 2634SOL    HW310610   4.397   1.974   4.155  0.4281  1.4214 -1.5194
 2634SOL    MW410611   4.478   1.959   4.127  0.6323 -0.1720 -0.0887
 2635SOL     OW10612   4.271   2.330   4.117 -0.1700  0.1401 -0.3173
 2635SOL    HW210613   4.188   2.372   4.141 -0.0321  0.7579 -0.9281
 2635SOL    HW310614   4.263   2.241   4.153 -1.1750  0.1349 -0.5257
 2635SOL    MW410615   4.259   2.324   4.125 -0.2837  0.2210 -0.4253
 2636SOL     OW10616   4.037   2.305   4.458  0.5114  0.2140  0.4031
 2636SOL    HW210617   4.031   2.390   4.502 -0.3371  1.3607 -1.8360
 2636SOL    HW310618   3.950   2.266   4.469  0.2972  0.5030 -0.2277
 2636SOL    MW410619   4.025   2.311   4.465  0.3710  0.4032  0.0248
 2637SOL     OW10620   4.073   2.671   4.072  0.2481 -0.1104 -0.2555
 2637SOL    HW210621   4.055   2.588   4.117  0.4818 -0.4371 -0.7580
 2637SOL    HW310622   4.020   2.735   4.118  0.3058 -0.4854  0.3394
 2637SOL    MW410623   4.064   2.668   4.084  0.2866 -0.2029 -0.2437
 2638SOL     OW10624   4.300   2.815   4.177 -0.3206  0.6521  0.2294
 2638SOL    HW210625   4.224   2.760   4.159 -0.2882 -0.2332  2.6454
 2638SOL    HW310626   4.376   2.759   4.158 -0.2334  1.3209 -1.5353
 2638SOL    MW410627   4.300   2.801   4.172 -0.3047  0.6235  0.3157
 2639SOL     OW10628   4.215   3.086   4.085  0.1018 -0.4173 -0.5525
 2639SOL    HW210629   4.239   3.001   4.121 -0.9179 -0.9456 -1.0933
 2639SOL    HW310630   4.213   3.073   3.990 -1.3495 -0.1413 -0.5719
 2639SOL    MW410631   4.218   3.073   4.077 -0.2241 -0.4508 -0.6261
 2640SOL     OW10632   4.013   3.243   4.212 -0.1360 -0.6156 -0.0959
 2640SOL    HW210633   3.933   3.206   4.175 -0.2372  1.2785 -1.8920
 2640SOL    HW310634   4.083   3.189   4.178 -0.5902 -1.7948  0.8267
 2640SOL    MW410635   4.012   3.231   4.203 -0.2098 -0.5217 -0.2108
 2641SOL     OW10636   4.010   3.521   4.141  0.1704  0.3378 -0.2899
 2641SOL    HW210637   4.000   3.432   4.176 -0.2226  0.6220  0.3322
 2641SOL    HW310638   4.028   3.508   4.048  0.2051 -0.3968 -0.1860
 2641SOL    MW410639   4.011   3.508   4.133  0.1230  0.2782 -0.1936
 2642SOL     OW10640   4.264   3.611   4.233 -0.2742 -0.1745  0.4043
 2642SOL    HW210641   4.273   3.695   4.187 -0.2967 -1.6977 -2.4863
 2642SOL    HW310642   4.175   3.583   4.213 -1.0423  0.1737  3.2616
 2642SOL    MW410643   4.254   3.619   4.224 -0.3781 -0.3300  0.3996
 2643SOL     OW10644   4.320   3.870   4.075 -0.7837 -0.1980 -0.0632
 2643SOL    HW210645   4.243   3.921   4.103 -0.0029  1.7392 -1.3267
 2643SOL    HW310646   4.299   3.843   3.986  0.0886  0.5722 -0.5110
 2643SOL    MW410647   4.307   3.873   4.067 -0.5651  0.1590 -0.2894
 2644SOL     OW10648   4.093   3.986   4.187 -0.0227 -0.0767  0.0899
 2644SOL    HW210649   4.086   3.980   4.282 -1.3146 -1.0278 -0.0580
 2644SOL    HW310650   4.008   3.956   4.155  0.7869 -0.7917 -1.4046
 2644SOL    MW410651   4.081   3.981   4.195 -0.0863 -0.2964 -0.1268
 2645SOL     OW10652   4.023   4.248   4.130  0.0298  0.0230  0.0471
 2645SOL    HW210653   4.086   4.300   4.181 -1.4903 -0.1313  2.1509
 2645SOL    HW310654   4.045   4.157   4.152 -0.6633 -0.0418  0.4996
 2645SOL    MW410655   4.034   4.243   4.140 -0.2618 -0.0067  0.3843
 2646SOL     OW10656   4.243   0.013   4.557 -0.4829  0.1035 -0.3569
 2646SOL    HW210657   4.310   0.081   4.560 -1.2493  0.7851  1.5717
 2646SOL    HW310658   4.162   0.058   4.579 -1.6230 -0.7058 -2.7070
 2646SOL    MW410659   4.241   0.028   4.560 -0.7343  0.0866 -0.4125
 2647SOL     OW10660   0.316   0.027   4.554  0.3245 -0.1453 -0.1955
 2647SOL    HW210661   0.258   0.079   4.610 -0.2500  0.6969 -1.5491
 2647SOL    HW310662   0.280  -0.061   4.557 -0.3969  0.1456 -0.1840
 2647SOL    MW410663   0.304   0.022   4.562  0.1535  0.0042 -0.3724
 2648SOL     OW10664   4.238   4.404   4.537  0.7061  0.0629 -0.3843
 2648SOL    HW210665   4.143   4.409   4.551  0.3945 -0.8034 -2.0628
 2648SOL    HW310666   4.268   4.494   4.546 -0.5277  0.5993 -1.4660
 2648SOL    MW410667   4.229   4.417   4.540  0.5026  0.0196 -0.7482
 2649SOL     OW10668   3.788   4.634   4.603 -0.0081  0.3552 -0.5306
 2649SOL    HW210669   3.858   4.684   4.561  1.0008  0.3625  1.1329
 2649SOL    HW310670   3.716   4.696   4.613  1.0013  1.2876  0.9327
 2649SOL    MW410671   3.788   4.649   4.599  0.2582  0.4792 -0.1183
 2650SOL     OW10672   4.009   0.517   4.694  0.4757 -0.0553 -0.2577
 2650SOL    HW210673   4.043   0.477   4.774 -2.0220  0.1597  0.9841
 2650SOL    HW310674   4.070   0.587   4.674  1.4903 -0.5222  1.1263
 2650SOL    MW410675   4.021   0.521   4.702  0.2794 -0.0886  0.0887
 2651SOL     OW10676   0.587   0.006   4.603 -0.0916 -0.1232  0.1293
 2651SOL    HW210677   0.492   0.009   4.598 -0.1510  0.2804  1.2838
 2651SOL    HW310678   0.606  -0.082   4.637 -0.1321  0.2659  1.1940
 2651SOL    MW410679   0.577  -0.005   4.607 -0.1048 -0.0186  0.4215
 2652SOL     OW10680   0.753   0.661   4.589 -0.4994  0.0656 -0.0806
 2652SOL    HW210681   0.683   0.606   4.554 -0.1668  0.8579 -2.0738
 2652SOL    HW310682   0.710   0.745   4.607 -0.1992  0.3546 -0.7057
 2652SOL    MW410683   0.738   0.665   4.587 -0.4159  0.2083 -0.4258
 2653SOL     OW10684   4.344   0.499   4.507 -0.2009 -0.1576  0.1580
 2653SOL    HW210685   4.280   0.565   4.532 -1.0353 -0.8936 -0.0234
 2653SOL    HW310686   4.331   0.488   4.413  0.0454 -0.4810  0.1616
 2653SOL    MW410687   4.334   0.507   4.498 -0.2785 -0.2974  0.1345
 2654SOL     OW10688   0.150   1.329   4.696  0.2945 -0.6512 -0.1642
 2654SOL    HW210689   0.226   1.288   4.656 -1.5727 -1.4202 -3.1676
 2654SOL    HW310690   0.165   1.423   4.685  0.4147 -0.8248 -1.6469
 2654SOL    MW410691   0.162   1.336   4.689  0.0640 -0.7756 -0.7558
 2655SOL     OW10692   0.654   2.084   4.561 -0.0772 -0.4277  0.2333
 2655SOL    HW210693   0.742   2.072   4.596 -0.2102 -0.2899  0.6232
 2655SOL    HW310694   0.641   2.178   4.560 -0.3029 -0.4552  0.3941
 2655SOL    MW410695   0.664   2.095   4.566 -0.1245 -0.4132  0.3066
 2656SOL     OW10696   4.273   1.331   4.292 -0.4766 -0.1082 -0.4096
 2656SOL    HW210697   4.348   1.277   4.267 -0.0115  0.6607 -0.7155
 2656SOL    HW310698   4.244   1.295   4.376  0.6502 -0.0015  0.0320
 2656SOL    MW410699   4.279   1.319   4.300 -0.2670  0.0073 -0.3910
 2657SOL     OW10700   0.127   1.980   4.531  0.0349  0.5520 -0.2509
 2657SOL    HW210701   0.080   1.897   4.516  0.9523  0.0482 -0.3597
 2657SOL    HW310702   0.063   2.035   4.576 -0.1725 -0.6830  1.0113
 2657SOL    MW410703   0.112   1.976   4.535  0.1286  0.3227 -0.0992
 2658SOL     OW10704   0.408   1.688   4.218 -0.2843 -0.1791  0.4362
 2658SOL    HW210705   0.416   1.675   4.313  1.4742 -0.0072  0.3321
 2658SOL    HW310706   0.337   1.630   4.192 -0.0786 -1.0239  1.7032
 2658SOL    MW410707   0.400   1.679   4.227 -0.0251 -0.2679  0.5898
 2659SOL     OW10708   4.471   2.242   4.629  0.6391  0.4361  0.0787
 2659SOL    HW210709   4.544   2.278   4.578 -0.1650  1.5778 -0.2950
 2659SOL    HW310710   4.460   2.304   4.701 -0.5925  0.8273 -0.4286
 2659SOL    MW410711   4.479   2.255   4.631  0.3705  0.6382 -0.0372
 2660SOL     OW10712   3.893   2.904   4.711 -0.2433  0.2356 -0.1143
 2660SOL    HW210713   3.929   2.978   4.760 -0.0854 -0.9401  1.5884
 2660SOL    HW310714   3.799   2.908   4.727 -0.1822 -0.2010  0.3559
 2660SOL    MW410715   3.885   2.914   4.720 -0.2141  0.0229  0.1731
 2661SOL     OW10716   0.376   2.780   4.528 -0.2685  0.2624 -0.1578
 2661SOL    HW210717   0.336   2.810   4.446  0.4729  0.1151 -0.5819
 2661SOL    HW310718   0.365   2.685   4.526 -0.0573  0.2366 -0.2001
 2661SOL    MW410719   0.369   2.771   4.517 -0.1428  0.2396 -0.2189
 2662SOL     OW10720   0.449   3.032   4.651  0.2463  0.1427  0.0816
 2662SOL    HW210721   0.442   3.048   4.745 -1.2506  0.1955 -0.0236
 2662SOL    HW310722   0.401   2.950   4.637 -0.2905  0.5919 -0.7557
 2662SOL    MW410723   0.442   3.023   4.662 -0.0221  0.2089 -0.0429
 2663SOL     OW10724   3.820   2.618   4.767  0.4661  0.4521 -0.5259
 2663SOL    HW210725   3.729   2.624   4.737  0.7371 -1.0012 -1.7193
 2663SOL    HW310726   3.843   2.707   4.790 -0.8837  1.0433 -1.3817
 2663SOL    MW410727   3.811   2.630   4.766  0.3238  0.3383 -0.7963
 2664SOL     OW10728   3.921   3.722   4.702 -0.1394 -0.2219  0.1890
 2664SOL    HW210729   3.909   3.684   4.615  0.1056  0.1240  0.0017
 2664SOL    HW310730   3.918   3.648   4.762  1.0382 -0.6083 -0.2282
 2664SOL    MW410731   3.919   3.707   4.698  0.0482 -0.2275  0.1087
 2665SOL     OW10732   3.782   3.222   4.903  0.1371 -0.2154 -0.3920
 2665SOL    HW210733   3.701   3.184   4.938 -0.1323  1.7096  1.1916
 2665SOL    HW310734   3.771   3.217   4.808 -1.8603  0.0334 -0.2061
 2665SOL    MW410735   3.770   3.216   4.895 -0.1624  0.0715 -0.1588
 2666SOL     OW10736   4.432   4.043   4.485 -0.6131  0.0391 -0.5884
 2666SOL    HW210737   4.337   4.034   4.484 -0.7788  0.7546  2.8588
 2666SOL    HW310738   4.464   3.962   4.525  0.3014 -0.3522 -2.0439
 2666SOL    MW410739   4.424   4.031   4.490 -0.5140  0.0825 -0.3257
 2667SOL     OW10740   4.433   0.236   4.532 -0.1702  0.8116  0.1145
 2667SOL    HW210741   4.514   0.239   4.583  0.0061  2.6225 -0.2150
 2667SOL    HW310742   4.396   0.324   4.541 -2.0414  0.0504  0.1509
 2667SOL    MW410743   4.438   0.248   4.540 -0.3934  0.9501  0.0758
 2668SOL     OW10744   3.752   0.649   4.686  0.5908 -0.0118 -0.0685
 2668SOL    HW210745   3.689   0.577   4.683  0.6383 -0.0408 -0.4213
 2668SOL    HW310746   3.835   0.608   4.709  0.8053 -0.2038 -1.1714
 2668SOL    MW410747   3.754   0.634   4.689  0.6254 -0.0408 -0.2608
 2669SOL     OW10748   3.844   3.510   4.886 -0.1322  0.2642 -0.5275
 2669SOL    HW210749   3.850   3.430   4.939  0.1819  0.1232 -0.7800
 2669SOL    HW310750   3.773   3.492   4.824 -0.2784  0.3051 -0.3739
 2669SOL    MW410751   3.836   3.497   4.885 -0.1099  0.2508 -0.5403
 2670SOL     OW10752   4.125   3.992   4.478 -0.1416  0.4370  0.5313
 2670SOL    HW210753   4.112   3.918   4.537  0.5735 -0.6460 -0.6460
 2670SOL    HW310754   4.044   4.042   4.483 -1.9668 -2.2590 -1.2388
 2670SOL    MW410755   4.113   3.989   4.487 -0.2885 -0.0620  0.1421
 2671SOL     OW10756   0.615   0.892   4.684 -0.1812  0.2167 -0.2172
 2671SOL    HW210757   0.563   0.941   4.620  0.4708  1.0630 -0.1140
 2671SOL    HW310758   0.553   0.833   4.725 -0.6325 -0.2869 -1.5821
 2671SOL    MW410759   0.600   0.891   4.681 -0.1547  0.2620 -0.3834
 2672SOL     OW10760   0.015   0.760   4.461  0.0159  0.1704  0.8708
 2672SOL    HW210761   0.001   0.806   4.378  2.4528 -0.5847 -0.0099
 2672SOL    HW310762  -0.019   0.672   4.447  0.9259 -0.1275  0.4444
 2672SOL    MW410763   0.009   0.755   4.448  0.4575  0.0315  0.6986
 2673SOL     OW10764   1.513   1.396   4.666  0.1755  0.0017 -0.3612
 2673SOL    HW210765   1.550   1.436   4.745  0.7340 -0.7145 -0.2472
 2673SOL    HW310766   1.567   1.429   4.594  0.8868 -0.8346 -0.2242
 2673SOL    MW410767   1.525   1.405   4.667  0.3430 -0.2033 -0.3281
 2674SOL     OW10768   0.775   0.250   4.540  0.3512  0.0062  0.0293
 2674SOL    HW210769   0.838   0.220   4.475 -0.8885 -0.0520 -1.1705
 2674SOL    HW310770   0.728   0.171   4.567 -0.6012  0.3326 -0.6209
 2674SOL    MW410771   0.777   0.236   4.535  0.0620  0.0416 -0.2151
 2675SOL     OW10772   1.062   1.010   4.572  0.0160  0.4602 -0.4104
 2675SOL    HW210773   1.046   0.923   4.535  1.5684  0.1263 -0.3192
 2675SOL    HW310774   1.037   1.070   4.502 -0.0846 -0.0880 -0.8540
 2675SOL    MW410775   1.057   1.006   4.558  0.2074  0.3438 -0.4573
 2676SOL     OW10776   0.441   0.948   4.483 -0.4810  0.5674 -0.0984
 2676SOL    HW210777   0.369   0.895   4.517  0.8153 -0.6356  0.8225
 2676SOL    HW310778   0.455   0.915   4.394  0.2889 -0.6382  0.4545
 2676SOL    MW410779   0.434   0.937   4.475 -0.2084  0.2496  0.0958
 2677SOL     OW10780   2.126   1.925   4.591 -0.1199  0.3475 -0.0277
 2677SOL    HW210781   2.203   1.885   4.550 -1.4950 -1.9188 -0.5135
 2677SOL    HW310782   2.146   1.925   4.685 -1.2505 -4.4209  0.3588
 2677SOL    MW410783   2.139   1.920   4.598 -0.4504 -0.5808 -0.0410
 2678SOL     OW10784   1.041   1.498   4.723 -0.4821 -0.6065 -0.4233
 2678SOL    HW210785   1.046   1.582   4.678 -1.4166 -0.4517 -0.2490
 2678SOL    HW310786   1.054   1.521   4.816  3.1754 -1.1191 -0.7344
 2678SOL    MW410787   1.043   1.512   4.730 -0.1229 -0.6536 -0.4416
 2679SOL     OW10788   1.747   1.667   4.713 -0.3188 -0.0480 -0.1087
 2679SOL    HW210789   1.843   1.670   4.711 -0.2587 -1.1306  0.8127
 2679SOL    HW310790   1.720   1.753   4.680  0.9730  0.3937 -0.0538
 2679SOL    MW410791   1.757   1.679   4.709 -0.1405 -0.1326  0.0205
 2680SOL     OW10792   0.943   2.022   4.622 -0.3001 -0.1027  0.1663
 2680SOL    HW210793   1.019   2.059   4.578 -1.1651 -0.0802 -1.3144
 2680SOL    HW310794   0.952   1.927   4.610  0.3164 -0.2215  1.3785
 2680SOL    MW410795   0.955   2.014   4.615 -0.3329 -0.1154  0.1316
 2681SOL     OW10796   0.630   2.366   4.574 -0.6666 -0.5084  0.1390
 2681SOL    HW210797   0.556   2.419   4.543  0.3128 -0.1906 -1.7055
 2681SOL    HW310798   0.706   2.423   4.565  0.2893 -1.9260 -1.0934
 2681SOL    MW410799   0.630   2.380   4.569 -0.4113 -0.6535 -0.2670
 2682SOL     OW10800   1.005   1.740   4.550 -0.3423  0.0103 -0.1007
 2682SOL    HW210801   1.091   1.746   4.507  0.6632 -2.1850  1.5030
 2682SOL    HW310802   0.947   1.706   4.483  0.4597 -0.2659 -0.6660
 2682SOL    MW410803   1.009   1.736   4.536 -0.1040 -0.3158  0.0362
 2683SOL     OW10804   0.176   2.315   4.442  0.1492  0.1585  0.2533
 2683SOL    HW210805   0.192   2.227   4.408 -0.7208  0.5381 -1.1782
 2683SOL    HW310806   0.107   2.350   4.386  0.3947  1.7057  0.8961
 2683SOL    MW410807   0.169   2.308   4.430  0.0668  0.4127  0.1488
 2684SOL     OW10808   1.104   2.799   4.510 -0.0484  0.0422 -0.2065
 2684SOL    HW210809   1.134   2.820   4.422 -1.4005  0.5948 -0.5471
 2684SOL    HW310810   1.047   2.722   4.498 -0.6570  0.4425  0.1099
 2684SOL    MW410811   1.101   2.791   4.497 -0.3071  0.1681 -0.2093
 2685SOL     OW10812   0.410   2.497   4.469 -0.1619  0.1663 -0.5281
 2685SOL    HW210813   0.334   2.441   4.482 -0.2853  0.2518 -0.8816
 2685SOL    HW310814   0.438   2.480   4.379  0.1631  0.2217 -0.4377
 2685SOL    MW410815   0.403   2.487   4.459 -0.1353  0.1848 -0.5631
 2686SOL     OW10816   1.159   3.688   4.544  0.5512 -0.0176  0.0431
 2686SOL    HW210817   1.074   3.730   4.562  1.0226  0.7217  0.5834
 2686SOL    HW310818   1.156   3.668   4.450  0.4530  1.5583 -0.3070
 2686SOL    MW410819   1.147   3.691   4.534  0.6005  0.2880  0.0687
 2687SOL     OW10820   0.523   3.243   4.481 -0.2253 -0.1427  0.1502
 2687SOL    HW210821   0.521   3.329   4.522 -0.3132 -0.2064  0.2764
 2687SOL    HW310822   0.485   3.184   4.545  0.5242 -0.4001  0.3655
 2687SOL    MW410823   0.518   3.247   4.495 -0.1380 -0.1850  0.1955
 2688SOL     OW10824   1.104   4.494   4.521  0.3312 -0.3697 -0.1274
 2688SOL    HW210825   1.183   4.451   4.555  0.6494  0.0711 -0.3061
 2688SOL    HW310826   1.032   4.435   4.545  0.7608 -0.9758 -0.3200
 2688SOL    MW410827   1.105   4.481   4.528  0.4299 -0.3920 -0.1764
 2689SOL     OW10828   3.978   2.557   4.536 -0.9044 -0.3480  0.3041
 2689SOL    HW210829   3.931   2.572   4.618 -1.0590  0.5128  0.0618
 2689SOL    HW310830   4.022   2.640   4.518  0.1467 -0.9256  0.1627
 2689SOL    MW410831   3.978   2.570   4.545 -0.7863 -0.3104  0.2537
 2690SOL     OW10832   0.034   3.776   4.566  0.3173 -0.0172 -0.3314
 2690SOL    HW210833  -0.015   3.698   4.537  0.2852  0.4396 -1.5447
 2690SOL    HW310834  -0.001   3.796   4.652 -2.4947  0.9799 -1.6446
 2690SOL    MW410835   0.023   3.768   4.573 -0.0579  0.1748 -0.6647
 2691SOL     OW10836   0.976   4.056   4.637 -0.1056 -0.2679 -0.0702
 2691SOL    HW210837   1.068   4.066   4.614 -0.0317  2.1008  1.1079
 2691SOL    HW310838   0.933   4.134   4.601 -1.1524  0.0107  1.7043
 2691SOL    MW410839   0.982   4.068   4.630 -0.2339  0.0815  0.3190
 2692SOL     OW10840   4.456   4.286   4.597  0.2462 -0.2920  0.3820
 2692SOL    HW210841   4.447   4.199   4.558  0.4834  0.1208 -0.6178
 2692SOL    HW310842   4.374   4.330   4.575  0.8961  0.3722 -0.7612
 2692SOL    MW410843   4.444   4.280   4.589  0.3638 -0.1497  0.0992
 2693SOL     OW10844   0.636   4.394   4.577  0.1786 -0.1118 -0.1982
 2693SOL    HW210845   0.620   4.407   4.484 -1.0091  1.5088  0.2187
 2693SOL    HW310846   0.562   4.340   4.607 -0.5602  1.1026  0.2076
 2693SOL    MW410847   0.624   4.389   4.569 -0.0755  0.2623 -0.0896
 2694SOL     OW10848   0.204   4.424   4.538  0.6471  0.1151  0.0980
 2694SOL    HW210849   0.265   4.357   4.569 -0.1573 -0.5475  0.2550
 2694SOL    HW310850   0.118   4.395   4.569  0.1172  0.5353 -0.9506
 2694SOL    MW410851   0.201   4.411   4.546  0.4710  0.0830 -0.0200
 2695SOL     OW10852   1.235   0.587   4.460  0.2683  0.0760 -0.3062
 2695SOL    HW210853   1.234   0.526   4.534  0.3523 -0.3662 -0.6670
 2695SOL    HW310854   1.161   0.645   4.476  1.0547  0.8089  0.8131
 2695SOL    MW410855   1.225   0.586   4.472  0.3831  0.1143 -0.2055
 2696SOL     OW10856   0.931   0.456   4.663  0.3383 -0.1567  0.6320
 2696SOL    HW210857   0.870   0.393   4.626  0.1726  0.5175 -0.2567
 2696SOL    HW310858   0.884   0.539   4.662  1.3896  0.4504 -0.4305
 2696SOL    MW410859   0.917   0.458   4.658  0.4552  0.0124  0.3748
 2697SOL     OW10860   0.579   0.449   4.500 -0.2600  0.0370  0.4699
 2697SOL    HW210861   0.602   0.476   4.411  0.6555  1.4316  1.1022
 2697SOL    HW310862   0.645   0.383   4.522 -0.1351  0.1089  0.3149
 2697SOL    MW410863   0.591   0.444   4.491 -0.1227  0.2304  0.5326
 2698SOL     OW10864   1.272   1.458   4.539  0.1183 -0.3227 -0.3754
 2698SOL    HW210865   1.343   1.429   4.596 -0.7741 -1.9557 -0.0564
 2698SOL    HW310866   1.194   1.453   4.594 -0.3377  0.7943 -0.9180
 2698SOL    MW410867   1.271   1.453   4.554 -0.0596 -0.3906 -0.4048
 2699SOL     OW10868   1.734   0.737   4.476  0.0724  0.5355  0.0866
 2699SOL    HW210869   1.640   0.720   4.473  0.1412  0.3471 -1.3819
 2699SOL    HW310870   1.753   0.782   4.394  1.2759  0.5306  0.3484
 2699SOL    MW410871   1.724   0.740   4.465  0.2403  0.5100 -0.0730
 2700SOL     OW10872   0.356   1.218   4.525 -0.4885 -0.2345 -0.2777
 2700SOL    HW210873   0.391   1.131   4.506 -0.4791 -0.1611 -0.5892
 2700SOL    HW310874   0.429   1.278   4.506 -0.5412 -0.1465 -0.2056
 2700SOL    MW410875   0.371   1.215   4.520 -0.4942 -0.2131 -0.3099
 2701SOL     OW10876   0.410   1.645   4.494 -0.3893 -0.4625  0.3555
 2701SOL    HW210877   0.328   1.637   4.542 -0.4769 -0.7063  0.1670
 2701SOL    HW310878   0.452   1.724   4.530 -0.5105 -0.5771  0.7428
 2701SOL    MW410879   0.405   1.655   4.505 -0.4168 -0.5097  0.3819
 2702SOL     OW10880   0.804   1.352   4.597 -0.6336 -0.0019 -0.0312
 2702SOL    HW210881   0.861   1.405   4.652 -0.4602 -0.3474  0.1213
 2702SOL    HW310882   0.797   1.268   4.642  1.5920 -1.2007 -1.7942
 2702SOL    MW410883   0.811   1.348   4.610 -0.3170 -0.2056 -0.2437
 2703SOL     OW10884   2.145   0.610   4.495  0.4029 -0.3510 -0.0244
 2703SOL    HW210885   2.215   0.549   4.516 -0.1439 -0.7963  0.5482
 2703SOL    HW310886   2.069   0.576   4.542  0.2265  1.0744  0.7573
 2703SOL    MW410887   2.144   0.597   4.504  0.3076 -0.2217  0.1545
 2704SOL     OW10888   0.972   1.212   4.408  0.0917  0.4362 -0.0159
 2704SOL    HW210889   0.915   1.188   4.335 -0.0168 -1.4554  0.6449
 2704SOL    HW310890   0.914   1.254   4.471 -0.3862 -0.5624  0.2165
 2704SOL    MW410891   0.957   1.214   4.407  0.0144  0.0548  0.1016
 2705SOL     OW10892   1.257   2.393   4.505 -0.1473 -0.3321 -0.1561
 2705SOL    HW210893   1.304   2.402   4.423  0.9414 -0.5462  0.4358
 2705SOL    HW310894   1.293   2.461   4.562 -1.5422  0.4175 -0.1491
 2705SOL    MW410895   1.268   2.403   4.502 -0.1878 -0.2615 -0.0772
 2706SOL     OW10896   1.317   3.183   4.470 -0.4245  0.6812 -0.1429
 2706SOL    HW210897   1.230   3.145   4.487 -0.8913  1.1423 -1.4680
 2706SOL    HW310898   1.315   3.268   4.513  0.1292 -0.1663  1.6291
 2706SOL    MW410899   1.305   3.189   4.478 -0.4131  0.6301 -0.0834
 2707SOL     OW10900   1.536   2.967   4.513 -0.1336  0.1112 -0.0840
 2707SOL    HW210901   1.457   3.016   4.536  0.7095  1.2384  0.4182
 2707SOL    HW310902   1.601   3.033   4.492  0.6031 -0.8242 -0.8083
 2707SOL    MW410903   1.534   2.982   4.513  0.0750  0.1366 -0.1140
 2708SOL     OW10904   1.635   3.492   4.548 -0.1303  0.0373 -0.1521
 2708SOL    HW210905   1.696   3.423   4.520  0.7460  1.2373 -1.2806
 2708SOL    HW310906   1.555   3.445   4.571  0.6610 -1.4157 -0.2605
 2708SOL    MW410907   1.633   3.477   4.547  0.0898  0.0038 -0.3152
 2709SOL     OW10908   0.654   2.814   4.467 -0.1155  0.0667 -0.4980
 2709SOL    HW210909   0.692   2.738   4.511 -0.0566  0.7163  0.6106
 2709SOL    HW310910   0.561   2.812   4.492 -0.1480  0.2558 -0.6025
 2709SOL    MW410911   0.646   2.804   4.476 -0.1120  0.1776 -0.3648
 2710SOL     OW10912   0.453   3.898   4.535  0.3617  0.2595  0.1210
 2710SOL    HW210913   0.444   3.929   4.445  0.3393 -1.1401 -0.3718
 2710SOL    HW310914   0.398   3.820   4.539  1.0154 -0.1596  1.1170
 2710SOL    MW410915   0.445   3.892   4.524  0.4450  0.0196  0.1874
 2711SOL     OW10916   1.064   3.090   4.535  0.3216 -0.0235 -0.1567
 2711SOL    HW210917   1.068   2.995   4.551  0.6037 -0.1803 -1.1070
 2711SOL    HW310918   0.977   3.104   4.497  0.8638 -0.1502 -1.4884
 2711SOL    MW410919   1.053   3.079   4.532  0.4305 -0.0610 -0.4582
 2712SOL     OW10920   0.766   3.082   4.440 -0.1058  0.0451 -0.4110
 2712SOL    HW210921   0.697   3.148   4.448  0.6736  0.7077  1.2537
 2712SOL    HW310922   0.724   3.000   4.467 -0.6847  0.1239 -1.0530
 2712SOL    MW410923   0.751   3.080   4.445 -0.0794  0.1428 -0.2756
 2713SOL     OW10924   2.293   3.522   4.562 -0.1362  0.0661 -0.0375
 2713SOL    HW210925   2.338   3.583   4.504  1.5140  0.6193  1.7535
 2713SOL    HW310926   2.210   3.565   4.582 -0.7030 -0.1128 -1.9057
 2713SOL    MW410927   2.288   3.536   4.557  0.0069  0.1154 -0.0477
 2714SOL     OW10928   0.484   3.496   4.582 -0.6241  0.0777 -0.0189
 2714SOL    HW210929   0.558   3.557   4.586 -0.9287  0.4885 -0.6890
 2714SOL    HW310930   0.408   3.552   4.570 -0.9940 -0.3866  0.1621
 2714SOL    MW410931   0.484   3.512   4.581 -0.7131  0.0706 -0.0834
 2715SOL     OW10932   0.428   4.219   4.590  0.7139 -0.2979 -0.3706
 2715SOL    HW210933   0.445   4.190   4.500 -1.8153  0.1656 -1.0671
 2715SOL    HW310934   0.439   4.141   4.643  1.7054 -0.7059 -1.1621
 2715SOL    MW410935   0.431   4.205   4.585  0.5110 -0.2913 -0.5670
 2716SOL     OW10936   0.903   3.826   4.529 -0.1584  0.5601 -0.4151
 2716SOL    HW210937   0.922   3.906   4.578  0.1878  0.4247 -0.3268
 2716SOL    HW310938   0.915   3.852   4.437 -1.2642  0.9365 -0.4611
 2716SOL    MW410939   0.907   3.840   4.523 -0.2586  0.5920 -0.4096
 2717SOL     OW10940   0.887   4.306   4.510 -0.0618  0.2718  0.5469
 2717SOL    HW210941   0.806   4.325   4.557 -1.0762  0.8422 -1.3790
 2717SOL    HW310942   0.859   4.284   4.421  1.8765  0.3308 -0.1031
 2717SOL    MW410943   0.873   4.306   4.505  0.0602  0.3552  0.2069
 2718SOL     OW10944   1.590   4.305   4.507 -0.4077 -0.3614 -0.1506
 2718SOL    HW210945   1.583   4.324   4.413 -2.6059 -0.4420 -0.0111
 2718SOL    HW310946   1.676   4.339   4.532  0.5774 -1.1017 -2.3708
 2718SOL    MW410947   1.601   4.312   4.498 -0.5678 -0.4692 -0.4253
 2719SOL     OW10948   1.816   4.482   4.532  0.5381  0.1394  0.2218
 2719SOL    HW210949   1.857   4.569   4.528  0.5498  0.1313  0.1709
 2719SOL    HW310950   1.888   4.421   4.520  0.1599  0.1686 -2.2940
 2719SOL    MW410951   1.831   4.485   4.530  0.4897  0.1426 -0.1168
 2720SOL     OW10952   1.334   4.352   4.594  0.1517 -0.1414 -0.1688
 2720SOL    HW210953   1.426   4.350   4.565  0.1625 -1.2430 -0.0768
 2720SOL    HW310954   1.306   4.261   4.589 -1.3761  0.3828 -1.5722
 2720SOL    MW410955   1.343   4.340   4.589 -0.0484 -0.2179 -0.3419
 2721SOL     OW10956   0.816   1.096   4.688  0.2427  0.2757 -0.2186
 2721SOL    HW210957   0.761   1.018   4.693 -0.1946  0.6554  1.2563
 2721SOL    HW310958   0.904   1.062   4.670  0.1496 -0.6094  0.9194
 2721SOL    MW410959   0.820   1.081   4.686  0.1727  0.2090  0.1259
 2722SOL     OW10960   1.470   0.751   4.481 -0.2926  0.8253 -0.7411
 2722SOL    HW210961   1.457   0.846   4.480 -1.3357  0.6952  0.2506
 2722SOL    HW310962   1.383   0.715   4.468 -0.1599 -0.0116  0.6895
 2722SOL    MW410963   1.457   0.759   4.479 -0.4128  0.6977 -0.4215
 2723SOL     OW10964   1.356   1.004   4.480 -0.2812 -0.3905  0.2481
 2723SOL    HW210965   1.292   1.011   4.551  0.3572 -1.1226  0.8912
 2723SOL    HW310966   1.311   0.951   4.413 -0.6321 -0.2458  0.3658
 2723SOL    MW410967   1.341   0.998   4.480 -0.2432 -0.4681  0.3481
 2724SOL     OW10968   2.123   1.485   4.604 -0.0670 -0.0724  0.4023
 2724SOL    HW210969   2.203   1.477   4.553  0.1911  0.9980  0.6187
 2724SOL    HW310970   2.078   1.402   4.592  1.3675 -0.9089  0.7857
 2724SOL    MW410971   2.127   1.473   4.596  0.1564 -0.0416  0.4821
 2725SOL     OW10972   1.009   0.747   4.475  0.1590 -0.3916 -0.3445
 2725SOL    HW210973   0.979   0.786   4.393  0.3022  1.3656  0.4270
 2725SOL    HW310974   0.929   0.711   4.514  0.2271 -2.0007 -1.6399
 2725SOL    MW410975   0.994   0.747   4.469  0.1868 -0.3721 -0.4139
 2726SOL     OW10976   1.496   0.340   4.506  0.2960 -0.3508  0.1096
 2726SOL    HW210977   1.459   0.267   4.456  0.7466  0.1922 -1.0219
 2726SOL    HW310978   1.432   0.357   4.574  0.4111 -2.1374  0.7023
 2726SOL    MW410979   1.483   0.333   4.508  0.3707 -0.5148  0.0386
 2727SOL     OW10980   1.966   1.270   4.515  0.1417 -0.2343  0.2409
 2727SOL    HW210981   1.987   1.289   4.424 -0.0985  0.9540  0.4359
 2727SOL    HW310982   1.935   1.179   4.513  0.3850 -0.3084 -0.8118
 2727SOL    MW410983   1.965   1.260   4.503  0.1420 -0.0873  0.1278
 2728SOL     OW10984   1.679   1.499   4.473 -0.1657  0.3678  0.1652
 2728SOL    HW210985   1.705   1.576   4.523 -1.6149  2.1054 -1.6631
 2728SOL    HW310986   1.750   1.436   4.487  0.6357  1.7107  2.3588
 2728SOL    MW410987   1.692   1.501   4.481 -0.2512  0.7743  0.2136
 2729SOL     OW10988   2.119   2.212   4.697  0.1113  0.1380  0.2210
 2729SOL    HW210989   2.175   2.202   4.620 -1.5520  2.0072 -1.2467
 2729SOL    HW310990   2.168   2.168   4.767  2.0271 -0.8569 -1.6857
 2729SOL    MW410991   2.133   2.204   4.696  0.1445  0.2537 -0.2246
 2730SOL     OW10992   1.978   1.700   4.533 -0.0165 -0.1573  0.0466
 2730SOL    HW210993   2.022   1.781   4.561  0.0807 -0.3260  0.3922
 2730SOL    HW310994   2.039   1.630   4.558  0.6530 -0.2417 -1.7442
 2730SOL    MW410995   1.992   1.701   4.540  0.0848 -0.1907 -0.1445
 2731SOL     OW10996   0.814   2.568   4.502 -0.0682  0.1246 -0.5883
 2731SOL    HW210997   0.888   2.564   4.562 -0.7646  0.6186  0.3169
 2731SOL    HW310998   0.847   2.532   4.420  0.9397 -0.4005  0.0440
 2731SOL    MW410999   0.828   2.563   4.499 -0.0271  0.1204 -0.3853
 2732SOL     OW11000   1.383   3.874   4.639  0.1066  0.3967 -0.5708
 2732SOL    HW211001   1.321   3.801   4.633  0.2445  0.1413  0.7806
 2732SOL    HW311002   1.468   3.831   4.653  0.0979  0.8123  0.8502
 2732SOL    MW411003   1.386   3.858   4.640  0.1236  0.4177 -0.2050
 2733SOL     OW11004   1.052   2.525   4.641 -0.1087 -0.1189  0.0831
 2733SOL    HW211005   1.137   2.565   4.661 -0.4273  0.8022 -0.3619
 2733SOL    HW311006   1.073   2.435   4.617  0.8443  0.3548 -0.9188
 2733SOL    MW411007   1.066   2.519   4.640 -0.0250  0.0648 -0.1078
 2734SOL     OW11008   1.607   2.692   4.596 -0.2090  0.3824  0.2188
 2734SOL    HW211009   1.630   2.784   4.582  1.3306 -0.1948 -1.2649
 2734SOL    HW311010   1.681   2.656   4.645 -0.0028 -0.4441 -0.6822
 2734SOL    MW411011   1.620   2.699   4.600  0.0212  0.1972 -0.0958
 2735SOL     OW11012   1.337   3.437   4.616 -0.1560  0.0882  0.4425
 2735SOL    HW211013   1.293   3.425   4.700  1.3854  1.3438  1.4881
 2735SOL    HW311014   1.280   3.497   4.568 -0.3275  0.5644  1.2132
 2735SOL    MW411015   1.324   3.444   4.621  0.0247  0.3164  0.6819
 2736SOL     OW11016   2.837   3.920   4.809  0.3248 -0.5505 -0.1014
 2736SOL    HW211017   2.883   3.880   4.735 -0.7174  0.5652 -1.3785
 2736SOL    HW311018   2.757   3.868   4.818  0.5676 -0.8353  0.3908
 2736SOL    MW411019   2.833   3.908   4.801  0.2191 -0.4408 -0.2050
 2737SOL     OW11020   0.672   3.702   4.579  0.0377 -0.2862 -0.0991
 2737SOL    HW211021   0.758   3.743   4.574  0.0880 -0.4363 -0.4976
 2737SOL    HW311022   0.611   3.775   4.591  0.1635 -0.1203 -0.4462
 2737SOL    MW411023   0.675   3.717   4.580  0.0609 -0.2842 -0.1979
 2738SOL     OW11024   1.902   3.361   4.486 -0.8408  0.3907 -0.0411
 2738SOL    HW211025   1.985   3.315   4.470 -1.4776 -0.9514  0.4221
 2738SOL    HW311026   1.928   3.452   4.503  0.6127 -0.1658  0.8269
 2738SOL    MW411027   1.917   3.367   4.486 -0.7330  0.1404  0.1345
 2739SOL     OW11028   1.762   3.122   4.452  0.0552 -0.1823 -0.5056
 2739SOL    HW211029   1.790   3.208   4.484 -0.9948  0.1123 -0.3714
 2739SOL    HW311030   1.792   3.119   4.361  2.9402 -0.9713  0.4100
 2739SOL    MW411031   1.770   3.133   4.444  0.2973 -0.2475 -0.3672
 2740SOL     OW11032   2.805   3.380   4.615 -0.0939  0.2264 -0.2663
 2740SOL    HW211033   2.839   3.295   4.644  0.6521  0.8377  0.6681
 2740SOL    HW311034   2.718   3.385   4.654 -0.5360 -0.5200 -1.1227
 2740SOL    MW411035   2.798   3.369   4.624 -0.0539  0.2084 -0.2556
 2741SOL     OW11036   1.229   4.101   4.547 -0.4310  0.5299  0.0992
 2741SOL    HW211037   1.296   4.047   4.590 -0.2623  1.2105  0.7176
 2741SOL    HW311038   1.235   4.078   4.455 -0.8279 -1.0012  0.4387
 2741SOL    MW411039   1.239   4.091   4.541 -0.4612  0.4177  0.2255
 2742SOL     OW11040   1.518   4.029   4.415 -0.1437 -0.2510  0.1741
 2742SOL    HW211041   1.565   4.103   4.452  1.0072 -0.1652 -1.3894
 2742SOL    HW311042   1.505   3.969   4.488 -0.0792  0.9819  1.2056
 2742SOL    MW411043   1.522   4.031   4.430  0.0166 -0.0768  0.1040
 2743SOL     OW11044   1.533   4.586   4.590 -0.3345 -0.3571 -0.0485
 2743SOL    HW211045   1.617   4.542   4.580 -0.1099  0.0513  0.0245
 2743SOL    HW311046   1.482   4.528   4.646  0.0783 -0.3631  0.3238
 2743SOL    MW411047   1.537   4.572   4.596 -0.2505 -0.3037  0.0110
 2744SOL     OW11048   1.212   0.331   4.624  0.0309  0.1132 -0.0147
 2744SOL    HW211049   1.134   0.365   4.667  0.3116  0.6126  0.1104
 2744SOL    HW311050   1.181   0.257   4.572 -0.4644  0.0884  0.3122
 2744SOL    MW411051   1.198   0.326   4.623  0.0025  0.1758  0.0448
 2745SOL     OW11052   1.887   0.551   4.603 -0.0888 -0.1238 -0.3226
 2745SOL    HW211053   1.861   0.568   4.694  0.6060 -1.8881  0.2249
 2745SOL    HW311054   1.831   0.609   4.551 -0.4028  1.0010  1.2312
 2745SOL    MW411055   1.876   0.561   4.608 -0.0385 -0.2082 -0.0453
 2746SOL     OW11056   2.206   0.129   4.448 -0.2892 -0.0171  0.3264
 2746SOL    HW211057   2.234   0.130   4.357 -1.1417  0.6272  0.0729
 2746SOL    HW311058   2.252   0.054   4.486  1.5407  0.8237 -0.1532
 2746SOL    MW411059   2.216   0.119   4.441 -0.1602  0.1788  0.2298
 2747SOL     OW11060   1.783   0.288   4.576  0.1057 -0.2006  0.8508
 2747SOL    HW211061   1.813   0.378   4.583 -0.6871  0.1015  0.4841
 2747SOL    HW311062   1.689   0.296   4.559  0.0821 -1.0898  0.5433
 2747SOL    MW411063   1.774   0.301   4.575 -0.0020 -0.2781  0.7620
 2748SOL     OW11064   1.565   1.170   4.506 -0.5997 -0.3382  0.5367
 2748SOL    HW211065   1.539   1.223   4.581  0.3676 -0.2472  0.8132
 2748SOL    HW311066   1.492   1.109   4.493 -0.8329 -0.2506  1.4536
 2748SOL    MW411067   1.552   1.169   4.514 -0.5028 -0.3147  0.6943
 2749SOL     OW11068   2.694   1.466   4.619  0.1918 -0.3442 -0.4602
 2749SOL    HW211069   2.705   1.372   4.632  0.2394 -0.3437 -0.4972
 2749SOL    HW311070   2.759   1.506   4.676 -0.0002 -0.3277 -0.2535
 2749SOL    MW411071   2.704   1.459   4.628  0.1729 -0.3419 -0.4377
 2750SOL     OW11072   1.174   2.130   4.513 -0.2559 -0.0256  0.7103
 2750SOL    HW211073   1.258   2.086   4.519 -0.1099  0.1261 -0.1300
 2750SOL    HW311074   1.191   2.219   4.544 -0.1739 -0.0823  0.8274
 2750SOL    MW411075   1.187   2.136   4.518 -0.2258 -0.0131  0.6151
 2751SOL     OW11076   1.828   1.022   4.535  0.0711 -0.3135  0.5669
 2751SOL    HW211077   1.799   0.931   4.522  1.9273 -0.7399 -0.7300
 2751SOL    HW311078   1.746   1.072   4.535 -0.8321 -1.6893 -1.2559
 2751SOL    MW411079   1.813   1.016   4.533  0.1971 -0.5513  0.1559
 2752SOL     OW11080   1.292   1.718   4.443 -0.8427 -0.4770 -0.2064
 2752SOL    HW211081   1.312   1.709   4.350  0.7435 -1.4002  0.2010
 2752SOL    HW311082   1.310   1.632   4.480 -0.2608  0.2044  1.1545
 2752SOL    MW411083   1.297   1.706   4.436 -0.5567 -0.5089  0.0267
 2753SOL     OW11084   1.417   1.982   4.537 -0.1879  0.9236 -0.0612
 2753SOL    HW211085   1.508   1.972   4.566 -0.4178  0.2869  0.4334
 2753SOL    HW311086   1.394   1.897   4.500 -0.9556  0.7349  0.8522
 2753SOL    MW411087   1.426   1.970   4.536 -0.3196  0.8147  0.1249
 2754SOL     OW11088   1.910   2.105   4.533 -0.6000  0.6927  0.1372
 2754SOL    HW211089   1.961   2.025   4.519 -1.1008  0.6912 -1.8169
 2754SOL    HW311090   1.950   2.146   4.609  1.5166  0.0532 -0.5992
 2754SOL    MW411091   1.922   2.100   4.541 -0.3870  0.6082 -0.2174
 2755SOL     OW11092   1.339   2.615   4.652  0.5462  0.2129 -0.5061
 2755SOL    HW211093   1.310   2.692   4.602  1.9235  0.6316 -0.6965
 2755SOL    HW311094   1.435   2.619   4.647  0.6805 -0.1684  1.5243
 2755SOL    MW411095   1.348   2.626   4.644  0.7457  0.2179 -0.2632
 2756SOL     OW11096   2.251   2.039   4.862  0.0392  0.2989 -0.4704
 2756SOL    HW211097   2.318   1.984   4.819  1.1443  0.7037  0.7009
 2756SOL    HW311098   2.299   2.083   4.932 -1.3821  0.9522  0.0873
 2756SOL    MW411099   2.266   2.038   4.865 -0.0026  0.4382 -0.2422
 2757SOL     OW11100   1.854   2.624   4.709 -0.2756  0.4379  0.1320
 2757SOL    HW211101   1.864   2.716   4.687 -0.7562  0.3725 -0.3596
 2757SOL    HW311102   1.923   2.580   4.659 -0.7021  0.4119 -0.4420
 2757SOL    MW411103   1.864   2.630   4.699 -0.3952  0.4258 -0.0086
 2758SOL     OW11104   2.025   3.618   4.522  0.0072  0.3270 -0.3004
 2758SOL    HW211105   1.975   3.699   4.527  2.8633  2.1030  0.6270
 2758SOL    HW311106   2.040   3.605   4.428 -3.0582 -0.8573 -0.6929
 2758SOL    MW411107   2.020   3.627   4.510 -0.0203  0.4048 -0.2308
 2759SOL     OW11108   2.202   3.266   4.470 -0.0650 -0.5515  0.3042
 2759SOL    HW211109   2.233   3.260   4.380  0.2779 -0.2309  0.4020
 2759SOL    HW311110   2.238   3.348   4.504  0.5680 -1.1071  1.0151
 2759SOL    MW411111   2.210   3.276   4.463  0.0637 -0.5825  0.4110
 2760SOL     OW11112   2.551   3.381   4.711  0.0124 -0.2585  0.4583
 2760SOL    HW211113   2.502   3.397   4.631  1.3175 -2.4880 -0.8191
 2760SOL    HW311114   2.509   3.306   4.752  1.0807 -0.9075  0.3981
 2760SOL    MW411115   2.539   3.373   4.706  0.3257 -0.6382  0.2823
 2761SOL     OW11116   2.433   3.135   4.808 -0.1356  0.0847 -0.0933
 2761SOL    HW211117   2.510   3.079   4.806  0.0918  0.3359  0.9724
 2761SOL    HW311118   2.367   3.083   4.855 -0.0497  0.5540  0.5508
 2761SOL    MW411119   2.434   3.121   4.814 -0.0939  0.1800  0.1321
 2762SOL     OW11120   2.757   4.034   4.468 -0.2578 -0.2892  0.1892
 2762SOL    HW211121   2.726   4.064   4.382 -0.0420 -1.0124 -0.1470
 2762SOL    HW311122   2.763   4.114   4.520  0.4860  0.2970 -0.7547
 2762SOL    MW411123   2.754   4.049   4.463 -0.1314 -0.3071  0.0200
 2763SOL     OW11124   2.529   3.865   4.584  0.0184 -0.4488 -0.5473
 2763SOL    HW211125   2.523   3.797   4.517  0.0871  0.3536 -1.3883
 2763SOL    HW311126   2.596   3.925   4.552 -0.7059  0.5165 -0.2917
 2763SOL    MW411127   2.537   3.864   4.571 -0.0682 -0.2155 -0.6251
 2764SOL     OW11128   1.871   3.902   4.482  0.0491  0.4005 -0.2949
 2764SOL    HW211129   1.853   3.954   4.404  0.2611  0.3378 -0.3863
 2764SOL    HW311130   1.941   3.950   4.527 -0.9315  1.1020  0.5032
 2764SOL    MW411131   1.878   3.915   4.478 -0.0522  0.4845 -0.2022
 2765SOL     OW11132   2.069   4.030   4.628 -0.3433  0.0519  0.1013
 2765SOL    HW211133   2.064   3.992   4.716  0.7704  2.0250  1.0528
 2765SOL    HW311134   2.162   4.030   4.607 -0.2530  2.5961  0.3216
 2765SOL    MW411135   2.081   4.025   4.637 -0.1845  0.6480  0.2556
 2766SOL     OW11136   1.150   0.105   4.469 -0.1138 -0.3394 -0.9244
 2766SOL    HW211137   1.131   0.020   4.510 -0.4322 -0.1053 -0.5889
 2766SOL    HW311138   1.072   0.124   4.417 -1.0084  0.8199  0.7826
 2766SOL    MW411139   1.137   0.096   4.468 -0.2738 -0.1555 -0.6547
 2767SOL     OW11140   2.030   4.292   4.490  0.1634  0.3773 -0.4825
 2767SOL    HW211141   2.024   4.202   4.522  0.2096  0.6698  0.3783
 2767SOL    HW311142   2.124   4.310   4.488  0.0832  1.3373  2.0973
 2767SOL    MW411143   2.041   4.282   4.494  0.1588  0.5426 -0.0286
 2768SOL     OW11144   2.368   4.607   4.564 -0.0434 -0.2558 -0.3246
 2768SOL    HW211145   2.347   4.514   4.556  0.3333 -0.3290 -0.4346
 2768SOL    HW311146   2.361   4.625   4.658  0.5287 -0.5456 -0.2253
 2768SOL    MW411147   2.364   4.597   4.576  0.0818 -0.3037 -0.3262
 2769SOL     OW11148   0.568   1.404   4.469 -0.3274 -0.6538  0.6885
 2769SOL    HW211149   0.519   1.485   4.485  0.2634 -0.0982 -0.2815
 2769SOL    HW311150   0.649   1.415   4.519  0.2520 -0.1528 -0.3509
 2769SOL    MW411151   0.572   1.416   4.478 -0.1729 -0.5144  0.4239
 2770SOL     OW11152   2.638   0.062   4.580  0.0193  0.6149 -0.1253
 2770SOL    HW211153   2.560   0.006   4.578  0.4523  0.0074 -0.0139
 2770SOL    HW311154   2.656   0.083   4.489  0.7365 -0.6464 -0.2713
 2770SOL    MW411155   2.630   0.058   4.568  0.1709  0.3683 -0.1302
 2771SOL     OW11156   1.932   0.051   4.484 -0.0871 -0.4082 -0.0295
 2771SOL    HW211157   2.023   0.080   4.477 -0.1496 -0.2528 -0.2027
 2771SOL    HW311158   1.885   0.127   4.518  0.0552 -0.8721  1.2078
 2771SOL    MW411159   1.938   0.065   4.488 -0.0767 -0.4489  0.1106
 2772SOL     OW11160   3.092   0.377   4.551 -0.5692  0.0463  0.0965
 2772SOL    HW211161   3.020   0.434   4.525  0.3217 -0.0718 -2.8537
 2772SOL    HW311162   3.164   0.436   4.572 -0.8574  0.1042  0.9316
 2772SOL    MW411163   3.092   0.392   4.550 -0.4897  0.0384 -0.1826
 2773SOL     OW11164   2.912   1.593   4.758  0.0949 -0.1767 -0.3126
 2773SOL    HW211165   2.905   1.640   4.842  1.9512  0.2371 -0.3871
 2773SOL    HW311166   2.908   1.661   4.692  3.0732 -0.0632 -0.4127
 2773SOL    MW411167   2.910   1.608   4.761  0.7327 -0.1070 -0.3366
 2774SOL     OW11168   2.705   1.575   4.356  0.0319  0.1325  0.1149
 2774SOL    HW211169   2.701   1.523   4.436 -0.9396  0.3128  0.1984
 2774SOL    HW311170   2.634   1.541   4.301 -0.8734  1.5923  0.3338
 2774SOL    MW411171   2.695   1.564   4.359 -0.2155  0.3488  0.1554
 2775SOL     OW11172   2.906   1.747   4.989 -0.3631 -0.4068 -0.1185
 2775SOL    HW211173   2.910   1.714   5.079  1.5036  1.0667  0.3768
 2775SOL    HW311174   2.943   1.835   4.994 -2.0339  0.4409 -2.0152
 2775SOL    MW411175   2.912   1.754   5.002 -0.3371 -0.1004 -0.3033
 2776SOL     OW11176   3.195   1.581   4.811 -0.3997  0.5080 -0.4583
 2776SOL    HW211177   3.229   1.494   4.833  0.2349  1.1363  1.1074
 2776SOL    HW311178   3.100   1.567   4.802 -0.3585 -0.2612  0.2297
 2776SOL    MW411179   3.187   1.568   4.813 -0.3107  0.4892 -0.1607
 2777SOL     OW11180   2.705   1.858   4.820 -0.3662  0.0864 -0.1156
 2777SOL    HW211181   2.714   1.953   4.828 -0.2517  0.1292 -0.7317
 2777SOL    HW311182   2.769   1.823   4.882  0.8378  0.4082 -1.1541
 2777SOL    MW411183   2.715   1.866   4.829 -0.1922  0.1345 -0.3343
 2778SOL     OW11184   2.445   1.901   4.719 -0.0067 -0.2668  0.1828
 2778SOL    HW211185   2.531   1.887   4.758  0.4187  0.1663 -0.6064
 2778SOL    HW311186   2.460   1.964   4.649 -1.1456  0.6074  0.7142
 2778SOL    MW411187   2.458   1.907   4.715 -0.1011 -0.0943  0.1493
 2779SOL     OW11188   3.115   3.033   4.871 -0.0879  0.1987  0.3385
 2779SOL    HW211189   3.161   2.975   4.811 -1.3965  0.3350 -0.8207
 2779SOL    HW311190   3.176   3.105   4.887  0.0123  0.5123 -1.3885
 2779SOL    MW411191   3.129   3.035   4.865 -0.2472  0.2582 -0.0424
 2780SOL     OW11192   2.013   2.448   4.561 -0.5877 -0.2680  0.0674
 2780SOL    HW211193   2.097   2.481   4.531 -0.8034  0.7406  0.5477
 2780SOL    HW311194   2.034   2.383   4.628 -0.2104  0.5477  0.7403
 2780SOL    MW411195   2.027   2.443   4.566 -0.5665 -0.0272  0.2198
 2781SOL     OW11196   1.900   2.870   4.601  0.1851 -0.0334  0.2829
 2781SOL    HW211197   1.984   2.856   4.558  0.7115  0.4705  1.1358
 2781SOL    HW311198   1.867   2.952   4.563  0.2873  0.0059  0.2803
 2781SOL    MW411199   1.907   2.879   4.590  0.2680  0.0384  0.3948
 2782SOL     OW11200   2.150   2.842   4.466  0.5383  0.2702  0.2572
 2782SOL    HW211201   2.201   2.761   4.464  0.8907  0.5074 -2.5146
 2782SOL    HW311202   2.208   2.906   4.508  1.3045 -0.2353 -0.0284
 2782SOL    MW411203   2.164   2.840   4.472  0.6859  0.2348 -0.1464
 2783SOL     OW11204   2.904   3.575   4.456 -0.4292  0.3816  0.1838
 2783SOL    HW211205   2.865   3.501   4.503 -0.0772  0.7006  0.9845
 2783SOL    HW311206   2.997   3.553   4.449 -0.4706  0.3627 -0.3146
 2783SOL    MW411207   2.911   3.562   4.461 -0.3881  0.4210  0.2241
 2784SOL     OW11208   1.649   3.780   4.603  0.1939  0.1398  0.2682
 2784SOL    HW211209   1.651   3.686   4.584 -0.7161  0.2438 -0.3884
 2784SOL    HW311210   1.721   3.816   4.552  1.3814 -0.3737  1.5521
 2784SOL    MW411211   1.658   3.772   4.594  0.2306  0.0856  0.3510
 2785SOL     OW11212   2.935   4.366   4.510 -0.4772  0.2407 -0.0644
 2785SOL    HW211213   2.911   4.295   4.571  0.0048  1.2834  1.3662
 2785SOL    HW311214   2.910   4.446   4.556  1.5193  1.1262 -0.4799
 2785SOL    MW411215   2.929   4.367   4.524 -0.1504  0.4950  0.0696
 2786SOL     OW11216   2.641   3.707   4.785 -0.3668  0.0096  0.2823
 2786SOL    HW211217   2.589   3.765   4.730 -0.2489 -0.3588 -0.2222
 2786SOL    HW311218   2.617   3.619   4.756  0.5954 -0.1619 -0.0139
 2786SOL    MW411219   2.631   3.703   4.774 -0.2246 -0.0615  0.1764
 2787SOL     OW11220   3.900   4.149   4.535  0.0016 -0.3007 -0.1331
 2787SOL    HW211221   3.913   4.242   4.550 -1.0134 -0.4522  1.8534
 2787SOL    HW311222   3.806   4.141   4.520 -0.1088 -1.1449  0.9455
 2787SOL    MW411223   3.889   4.160   4.535 -0.1469 -0.4320  0.2713
 2788SOL     OW11224   2.912   3.658   4.905 -0.0411 -0.3010 -0.1780
 2788SOL    HW211225   2.928   3.751   4.917  0.2600 -0.2539 -0.9412
 2788SOL    HW311226   2.823   3.653   4.871 -0.0931 -0.2969 -0.0418
 2788SOL    MW411227   2.902   3.669   4.902 -0.0086 -0.2942 -0.2613
 2789SOL     OW11228   2.818   4.190   4.712  0.2705  0.1687  0.3583
 2789SOL    HW211229   2.813   4.095   4.726  0.9511 -0.1001 -1.1152
 2789SOL    HW311230   2.767   4.228   4.784  1.0230 -1.2592  1.6667
 2789SOL    MW411231   2.810   4.182   4.724  0.4594 -0.0553  0.3366
 2790SOL     OW11232   2.316   4.352   4.485  0.0278  0.0155  0.0078
 2790SOL    HW211233   2.333   4.263   4.516  2.4468 -0.0150 -1.3198
 2790SOL    HW311234   2.379   4.365   4.414  0.7601  3.3451  1.2087
 2790SOL    MW411235   2.326   4.342   4.480  0.4435  0.4511 -0.0086
 2791SOL     OW11236   3.349   0.837   4.545  0.0958 -0.1204  0.1057
 2791SOL    HW211237   3.381   0.903   4.607  0.4094 -0.7167  0.5831
 2791SOL    HW311238   3.411   0.841   4.472  1.5578 -1.6047  1.2372
 2791SOL    MW411239   3.361   0.847   4.543  0.3300 -0.3949  0.3181
 2792SOL     OW11240   2.881   4.618   4.630 -0.0505 -0.5152 -0.1622
 2792SOL    HW211241   2.799   4.665   4.616 -0.7260 -1.9236 -1.0837
 2792SOL    HW311242   2.949   4.679   4.603 -0.8304  0.4740  0.0932
 2792SOL    MW411243   2.879   4.632   4.624 -0.2425 -0.5703 -0.2494
 2793SOL     OW11244   3.118   0.111   4.541  0.7444 -0.7145  0.4255
 2793SOL    HW211245   3.112   0.205   4.558  0.8470 -0.5296 -0.5690
 2793SOL    HW311246   3.186   0.080   4.602  0.6336 -0.1692  0.8285
 2793SOL    MW411247   3.126   0.119   4.551  0.7434 -0.6181  0.3476
 2794SOL     OW11248   2.830   0.868   4.599 -0.2041  0.3628  0.2686
 2794SOL    HW211249   2.921   0.881   4.573 -0.4357  0.5517 -0.4831
 2794SOL    HW311250   2.781   0.873   4.516 -0.8186 -0.4333  0.5745
 2794SOL    MW411251   2.835   0.870   4.585 -0.3157  0.2827  0.2098
 2795SOL     OW11252   3.969   4.410   4.640  0.6083  0.0730 -0.3529
 2795SOL    HW211253   3.923   4.493   4.650  0.5906  0.1173 -0.7805
 2795SOL    HW311254   3.983   4.379   4.730  0.8918  0.6903 -0.1826
 2795SOL    MW411255   3.965   4.416   4.653  0.6433  0.1602 -0.3872
 2796SOL     OW11256   2.326   0.405   4.502 -0.1006  0.1169 -0.8082
 2796SOL    HW211257   2.278   0.322   4.495 -3.1199  1.7052  0.1843
 2796SOL    HW311258   2.394   0.388   4.568 -0.6234 -1.5720 -0.6796
 2796SOL    MW411259   2.329   0.392   4.510 -0.5679  0.1037 -0.6604
 2797SOL     OW11260   3.051   1.201   4.592  0.8149 -0.1056  0.7604
 2797SOL    HW211261   3.030   1.254   4.516  2.6884 -0.6477 -0.1628
 2797SOL    HW311262   2.969   1.195   4.641 -0.3327  0.4899 -1.0604
 2797SOL    MW411263   3.038   1.207   4.589  0.9105 -0.0987  0.3982
 2798SOL     OW11264   3.132   1.548   4.462 -0.3874 -0.1707 -0.2101
 2798SOL    HW211265   3.060   1.596   4.503 -0.0958  1.0490 -1.0956
 2798SOL    HW311266   3.092   1.468   4.430 -1.0589 -0.1484  0.5350
 2798SOL    MW411267   3.117   1.544   4.463 -0.4377 -0.0068 -0.2289
 2799SOL     OW11268   3.245   1.308   4.752  0.5828  0.2802  0.2896
 2799SOL    HW211269   3.174   1.273   4.698  1.6087 -1.6400  0.1374
 2799SOL    HW311270   3.306   1.348   4.689  1.0650 -0.6736  0.1424
 2799SOL    MW411271   3.244   1.309   4.737  0.7818 -0.0991  0.2503
 2800SOL     OW11272   2.442   1.615   4.602  0.2600 -0.1624  0.5051
 2800SOL    HW211273   2.524   1.567   4.614  0.9438  0.7868 -0.3065
 2800SOL    HW311274   2.438   1.676   4.675 -0.2570 -0.9550  1.1417
 2800SOL    MW411275   2.452   1.616   4.613  0.2823 -0.1417  0.4821
 2801SOL     OW11276   2.311   1.796   4.437  0.0903 -0.6457  0.2576
 2801SOL    HW211277   2.393   1.841   4.419  1.4820 -2.8025  0.9176
 2801SOL    HW311278   2.334   1.731   4.504 -1.7632 -2.4408 -0.8017
 2801SOL    MW411279   2.325   1.793   4.444  0.0293 -1.1669  0.2050
 2802SOL     OW11280   3.395   2.277   4.117 -0.0335  0.2387 -0.5418
 2802SOL    HW211281   3.465   2.338   4.138  0.5442 -0.4587 -0.4327
 2802SOL    HW311282   3.377   2.292   4.024  1.1420 -0.4863 -0.8879
 2802SOL    MW411283   3.402   2.287   4.108  0.1979  0.0510 -0.5727
 2803SOL     OW11284   2.965   2.963   4.508  0.1459 -0.5123  0.0021
 2803SOL    HW211285   2.929   2.879   4.535  0.8323 -0.6554  0.4802
 2803SOL    HW311286   3.059   2.948   4.500  0.0375 -0.3281 -1.9274
 2803SOL    MW411287   2.972   2.950   4.511  0.2222 -0.5069 -0.1893
 2804SOL     OW11288   2.282   2.175   4.465  0.4907  0.1025  0.3994
 2804SOL    HW211289   2.287   2.245   4.400  1.2630 -1.9337 -1.7775
 2804SOL    HW311290   2.360   2.187   4.519  0.3042  1.2746  0.4222
 2804SOL    MW411291   2.293   2.186   4.464  0.5679 -0.0117  0.1149
 2805SOL     OW11292   3.630   2.902   4.776  0.1166  0.5652  0.0059
 2805SOL    HW211293   3.606   2.988   4.811 -0.3452  0.2657  0.4305
 2805SOL    HW311294   3.564   2.884   4.709  1.0190  1.1547 -1.0716
 2805SOL    MW411295   3.618   2.911   4.772  0.1745  0.6034 -0.0806
 2806SOL     OW11296   2.691   2.999   4.765 -0.1146  0.7308  0.2406
 2806SOL    HW211297   2.765   3.060   4.767 -0.1507  0.7446  1.1929
 2806SOL    HW311298   2.700   2.953   4.681  1.7154 -0.1706  0.9086
 2806SOL    MW411299   2.702   3.001   4.754  0.1216  0.6139  0.4544
 2807SOL     OW11300   2.915   3.147   4.714 -0.4607 -0.1429  0.3896
 2807SOL    HW211301   2.933   3.082   4.646 -2.6186  0.1234 -0.4651
 2807SOL    HW311302   2.974   3.123   4.786  1.1945 -0.9635 -1.2173
 2807SOL    MW411303   2.925   3.135   4.715 -0.5269 -0.2160  0.0648
 2808SOL     OW11304   2.508   3.050   4.447  0.5807 -0.3233  0.0212
 2808SOL    HW211305   2.431   3.042   4.503  0.1637  1.5871 -0.2537
 2808SOL    HW311306   2.475   3.032   4.359  0.4459  0.4959 -0.0962
 2808SOL    MW411307   2.493   3.046   4.443  0.5081  0.0370 -0.0310
 2809SOL     OW11308   3.070   3.491   4.730  0.0642  0.1283  0.5780
 2809SOL    HW211309   3.033   3.559   4.786 -2.5142  0.0537 -0.9565
 2809SOL    HW311310   2.995   3.438   4.704  1.7041 -1.8825 -0.2045
 2809SOL    MW411311   3.055   3.493   4.734 -0.0596 -0.1471  0.2723
 2810SOL     OW11312   2.959   3.814   4.590 -0.1775 -0.1020 -0.4103
 2810SOL    HW211313   2.943   3.728   4.549 -0.9767 -0.0658 -0.1961
 2810SOL    HW311314   2.896   3.872   4.547  0.1646  0.3128 -0.3473
 2810SOL    MW411315   2.948   3.810   4.579 -0.2379 -0.0424 -0.3743
 2811SOL     OW11316   3.851   3.550   4.482  0.1845 -0.0159 -0.7528
 2811SOL    HW211317   3.891   3.463   4.481  0.8072  0.2385  0.4386
 2811SOL    HW311318   3.831   3.568   4.391 -1.6401 -2.1651 -0.8182
 2811SOL    MW411319   3.854   3.541   4.470  0.0257 -0.2658 -0.6046
 2812SOL     OW11320   3.375   3.739   4.470  0.3059 -0.1470 -0.4329
 2812SOL    HW211321   3.315   3.669   4.495 -0.5400  0.7561  0.0985
 2812SOL    HW311322   3.418   3.765   4.552 -1.8120  2.2008  0.0125
 2812SOL    MW411323   3.372   3.733   4.484 -0.0851  0.2818 -0.3037
 2813SOL     OW11324   2.330   4.070   4.548  0.1745  0.5176 -0.4840
 2813SOL    HW211325   2.292   4.046   4.463  0.1138  0.8231 -0.5431
 2813SOL    HW311326   2.387   3.996   4.570  0.1246  0.3981 -0.7502
 2813SOL    MW411327   2.333   4.057   4.539  0.1597  0.5426 -0.5264
 2814SOL     OW11328   3.187   3.940   4.451 -0.5076 -0.3426 -0.1649
 2814SOL    HW211329   3.113   3.897   4.494 -0.9454 -1.1207 -1.6672
 2814SOL    HW311330   3.261   3.881   4.467 -0.8609 -1.0856 -1.2218
 2814SOL    MW411331   3.187   3.926   4.459 -0.6120 -0.5434 -0.5021
 2815SOL     OW11332   3.342   0.520   4.560  0.2605  0.4118  0.3617
 2815SOL    HW211333   3.341   0.518   4.464  0.1563 -0.3159  0.3732
 2815SOL    HW311334   3.352   0.613   4.582 -1.2683  0.7493 -0.3323
 2815SOL    MW411335   3.344   0.532   4.550  0.0451  0.3603  0.2713
 2816SOL     OW11336   2.582   0.381   4.609  0.2698 -0.1520 -0.2042
 2816SOL    HW211337   2.660   0.438   4.607  1.0272 -1.1681  0.0876
 2816SOL    HW311338   2.618   0.292   4.613 -0.8964 -0.7201 -1.9127
 2816SOL    MW411339   2.597   0.377   4.609  0.2158 -0.3610 -0.3910
 2817SOL     OW11340   2.773   1.175   4.616  0.5694 -0.4697  0.2075
 2817SOL    HW211341   2.722   1.167   4.535 -3.1058  1.2094  2.2164
 2817SOL    HW311342   2.764   1.089   4.658  0.3100 -0.5269  0.0381
 2817SOL    MW411343   2.765   1.162   4.611  0.0503 -0.2557  0.4501
 2818SOL     OW11344   2.831   0.562   4.530  0.1413 -0.4466  0.1611
 2818SOL    HW211345   2.846   0.575   4.436 -1.3429 -0.4689 -0.0834
 2818SOL    HW311346   2.832   0.650   4.567  0.3734 -0.4135  0.0785
 2818SOL    MW411347   2.833   0.575   4.522 -0.0241 -0.4452  0.1183
 2819SOL     OW11348   3.747   0.873   4.533 -0.6504 -0.5007  0.2202
 2819SOL    HW211349   3.728   0.797   4.589 -0.4934 -0.6769  0.0318
 2819SOL    HW311350   3.680   0.869   4.464 -0.2225 -0.8496 -0.1729
 2819SOL    MW411351   3.735   0.862   4.531 -0.5732 -0.5699  0.1440
 2820SOL     OW11352   3.367   1.406   4.530 -0.4716 -0.0476  0.1510
 2820SOL    HW211353   3.452   1.450   4.538  0.0872 -0.9139 -0.7838
 2820SOL    HW311354   3.303   1.477   4.525  0.3208  0.6428 -0.3553
 2820SOL    MW411355   3.370   1.421   4.530 -0.2933 -0.0708 -0.0386
 2821SOL     OW11356   2.996   2.716   4.673  0.0473 -0.3818  0.2842
 2821SOL    HW211357   3.086   2.750   4.677  0.2466 -0.9477  0.8097
 2821SOL    HW311358   2.956   2.747   4.754 -0.7110  1.1599 -0.6570
 2821SOL    MW411359   3.003   2.725   4.684 -0.0265 -0.2527  0.2303
 2822SOL     OW11360   3.640   1.116   4.629  0.3817  0.2753  0.3084
 2822SOL    HW211361   3.551   1.097   4.660  0.3037 -0.7565 -0.5303
 2822SOL    HW311362   3.675   1.031   4.604  1.4162  0.7557  0.1159
 2822SOL    MW411363   3.633   1.102   4.630  0.5078  0.2025  0.1721
 2823SOL     OW11364   4.030   1.445   4.533  0.3576  0.4664 -0.0041
 2823SOL    HW211365   4.104   1.385   4.544 -0.9062 -0.7715  2.1144
 2823SOL    HW311366   3.953   1.389   4.533 -0.6985  1.8836 -0.4523
 2823SOL    MW411367   4.030   1.430   4.535  0.0520  0.4901  0.2160
 2824SOL     OW11368   3.622   1.529   4.536  0.4749  0.2597  0.2567
 2824SOL    HW211369   3.677   1.452   4.553 -0.4823 -0.3766  0.4889
 2824SOL    HW311370   3.621   1.537   4.441  0.0452 -0.4135  0.1989
 2824SOL    MW411371   3.629   1.520   4.526  0.2918  0.0869  0.2799
 2825SOL     OW11372   3.114   1.721   4.236 -0.2345  0.1148 -0.2903
 2825SOL    HW211373   3.114   1.683   4.324  1.2046  0.6520 -0.0471
 2825SOL    HW311374   3.159   1.805   4.246 -1.3959  0.8510 -1.2631
 2825SOL    MW411375   3.120   1.727   4.249 -0.1979  0.2828 -0.3867
 2826SOL     OW11376   3.771   2.219   4.446 -0.1297  0.1763 -0.3223
 2826SOL    HW211377   3.727   2.304   4.457 -0.9611 -0.0509 -1.6882
 2826SOL    HW311378   3.734   2.164   4.515  0.6533  1.0209  0.7725
 2826SOL    MW411379   3.760   2.223   4.456 -0.1361  0.2575 -0.3576
 2827SOL     OW11380   2.877   2.840   4.905 -0.0022 -0.4596  0.0611
 2827SOL    HW211381   2.939   2.913   4.913 -0.3696 -0.3319  1.7592
 2827SOL    HW311382   2.800   2.878   4.863  0.1219 -0.0733  0.1895
 2827SOL    MW411383   2.875   2.854   4.900 -0.0341 -0.3922  0.3023
 2828SOL     OW11384   3.424   2.974   4.299  0.1348  0.0138  0.3655
 2828SOL    HW211385   3.358   2.963   4.367  0.5492  1.7058  1.0755
 2828SOL    HW311386   3.506   2.989   4.347  0.4141  1.3097 -0.4784
 2828SOL    MW411387   3.426   2.975   4.314  0.2263  0.4079  0.3476
 2829SOL     OW11388   3.111   2.853   4.254 -0.3291  0.2806  0.4141
 2829SOL    HW211389   3.022   2.820   4.270  0.0460 -0.6094  0.7373
 2829SOL    HW311390   3.144   2.875   4.341 -0.2278  0.5871  0.2971
 2829SOL    MW411391   3.103   2.851   4.268 -0.2663  0.2036  0.4416
 2830SOL     OW11392   3.165   2.720   4.968 -0.0711  0.3441  0.0887
 2830SOL    HW211393   3.219   2.789   5.008  0.9247 -0.9013  0.9318
 2830SOL    HW311394   3.166   2.741   4.874 -0.0327  1.6539  0.3736
 2830SOL    MW411395   3.172   2.732   4.961  0.0651  0.3526  0.2379
 2831SOL     OW11396   3.249   3.184   4.518  0.0363  0.2119  0.2278
 2831SOL    HW211397   3.249   3.088   4.518  0.5170  0.2122  0.6983
 2831SOL    HW311398   3.203   3.207   4.437  0.6233 -0.4214 -0.3026
 2831SOL    MW411399   3.243   3.174   4.507  0.1771  0.1283  0.2198
 2832SOL     OW11400   3.356   2.528   4.815 -0.2933  0.1473 -0.0701
 2832SOL    HW211401   3.326   2.576   4.738  2.0988  0.0621 -1.0719
 2832SOL    HW311402   3.311   2.571   4.888 -0.6176  1.8831 -1.2493
 2832SOL    MW411403   3.346   2.540   4.814 -0.0205  0.3650 -0.3581
 2833SOL     OW11404   3.571   2.599   4.651  0.3240 -0.1554 -0.3619
 2833SOL    HW211405   3.533   2.683   4.625  1.0503  0.5843  0.9114
 2833SOL    HW311406   3.514   2.567   4.721  1.3071  0.3644  0.7002
 2833SOL    MW411407   3.558   2.606   4.657  0.5498  0.0107 -0.0539
 2834SOL     OW11408   3.957   3.274   4.493 -0.0282  0.2763  0.2211
 2834SOL    HW211409   4.026   3.230   4.543  0.0115 -0.3516 -0.3811
 2834SOL    HW311410   3.974   3.250   4.402 -2.2423 -1.5991  0.2555
 2834SOL    MW411411   3.969   3.265   4.487 -0.3150 -0.0539  0.1464
 2835SOL     OW11412   3.631   4.079   4.560  0.2790 -0.1592 -0.6941
 2835SOL    HW211413   3.567   4.139   4.598  0.4648 -0.6661  0.4755
 2835SOL    HW311414   3.610   3.994   4.600  0.9497 -0.5564 -1.1747
 2835SOL    MW411415   3.620   4.076   4.570  0.3920 -0.2794 -0.6032
 2836SOL     OW11416   3.209   4.217   4.573  0.1123  0.2408 -0.0491
 2836SOL    HW211417   3.197   4.127   4.543 -0.3551  0.5110 -0.6920
 2836SOL    HW311418   3.121   4.253   4.578  0.1814  0.2109  1.6813
 2836SOL    MW411419   3.196   4.210   4.570  0.0598  0.2723  0.0939
 2837SOL     OW11420   3.542   3.808   4.686  0.2267  0.3945  0.0225
 2837SOL    HW211421   3.592   3.729   4.665  1.0049  1.2714 -1.5296
 2837SOL    HW311422   3.546   3.815   4.781  1.0285 -0.8742  0.0867
 2837SOL    MW411423   3.549   3.799   4.696  0.4351  0.3428 -0.1736
 2838SOL     OW11424   4.327   4.161   4.806 -0.1672 -0.5895 -0.1597
 2838SOL    HW211425   4.357   4.213   4.731  2.4577  1.4191  2.1742
 2838SOL    HW311426   4.236   4.187   4.818  0.3335  1.5153 -0.6880
 2838SOL    MW411427   4.319   4.171   4.797  0.2451 -0.0467  0.0787
 2839SOL     OW11428   3.959   4.008   4.759  0.5209  0.5020 -0.0062
 2839SOL    HW211429   3.956   3.914   4.742  1.4962  0.4348  0.1535
 2839SOL    HW311430   3.921   4.048   4.680  0.8930  0.0102 -0.4377
 2839SOL    MW411431   3.953   4.001   4.746  0.6988  0.4282 -0.0424
 2840SOL     OW11432   3.339   0.017   4.691 -0.3260 -0.3317  0.5224
 2840SOL    HW211433   3.342  -0.000   4.786 -0.1229  0.3852  0.6491
 2840SOL    HW311434   3.360  -0.068   4.651  2.8453  0.0901  1.1625
 2840SOL    MW411435   3.342   0.003   4.698  0.1190 -0.1815  0.6232
 2841SOL     OW11436   3.082   0.935   4.523  0.1558  0.1209 -0.0022
 2841SOL    HW211437   3.076   1.026   4.555 -0.8020  0.5664 -1.4154
 2841SOL    HW311438   3.169   0.907   4.549  0.8123  1.7684 -0.3207
 2841SOL    MW411439   3.093   0.943   4.531  0.1163  0.3970 -0.2308
 2842SOL     OW11440   3.385   1.074   4.738  0.2909 -0.1947 -0.3443
 2842SOL    HW211441   3.369   1.043   4.827 -1.2293 -0.6892 -0.7731
 2842SOL    HW311442   3.339   1.157   4.733  0.2134 -0.2619 -0.7378
 2842SOL    MW411443   3.377   1.081   4.749  0.0801 -0.2688 -0.4530
 2843SOL     OW11444   3.801   1.315   4.541 -0.0447  0.0445  0.2924
 2843SOL    HW211445   3.814   1.291   4.449  1.0168 -2.0677  0.9570
 2843SOL    HW311446   3.752   1.242   4.579 -1.8896  1.6395  1.0632
 2843SOL    MW411447   3.796   1.302   4.534 -0.1481 -0.0237  0.4816
 2844SOL     OW11448   3.274   1.935   4.320  0.0391 -0.5296  0.1098
 2844SOL    HW211449   3.220   2.014   4.330 -0.7878 -1.0960  0.1455
 2844SOL    HW311450   3.320   1.948   4.237 -0.2241 -0.0897  0.0332
 2844SOL    MW411451   3.273   1.947   4.310 -0.1044 -0.5463  0.1049
 2845SOL     OW11452   4.396   1.196   4.746 -0.2478 -0.5774  0.3952
 2845SOL    HW211453   4.373   1.204   4.839 -1.8624  0.5330 -0.0874
 2845SOL    HW311454   4.472   1.252   4.735  0.0382 -0.8281  1.0809
 2845SOL    MW411455   4.403   1.204   4.757 -0.4234 -0.4638  0.4225
 2846SOL     OW11456   3.984   0.142   4.520 -0.1067  0.0390 -0.2799
 2846SOL    HW211457   3.934   0.219   4.545 -0.5904 -0.4524  0.3156
 2846SOL    HW311458   3.982   0.140   4.425 -0.1738  0.7053 -0.2893
 2846SOL    MW411459   3.977   0.152   4.511 -0.1793  0.0621 -0.2022
 2847SOL     OW11460   4.029   1.720   4.498 -0.1282 -0.7043 -0.1676
 2847SOL    HW211461   3.951   1.768   4.524  0.8969  0.3310  1.0901
 2847SOL    HW311462   4.016   1.632   4.533 -1.5367 -1.0787 -1.5640
 2847SOL    MW411463   4.017   1.715   4.506 -0.1783 -0.6173 -0.1860
 2848SOL     OW11464   3.615   2.090   4.634  0.3383 -0.1077  0.2191
 2848SOL    HW211465   3.538   2.033   4.634  0.1520  0.1263 -1.0449
 2848SOL    HW311466   3.589   2.166   4.685 -0.4755  0.2389 -0.6984
 2848SOL    MW411467   3.602   2.093   4.641  0.2062 -0.0312 -0.0687
 2849SOL     OW11468   3.830   2.303   4.070 -0.0285 -0.0979 -0.1054
 2849SOL    HW211469   3.818   2.215   4.106 -1.2390  0.2244  0.3096
 2849SOL    HW311470   3.837   2.290   3.975  0.5911 -0.7067  0.0202
 2849SOL    MW411471   3.829   2.290   4.062 -0.1063 -0.1357 -0.0339
 2850SOL     OW11472   3.469   2.276   4.815 -0.3500 -0.1465 -0.1698
 2850SOL    HW211473   3.434   2.364   4.826 -2.5709 -1.1544  1.2068
 2850SOL    HW311474   3.464   2.238   4.903 -0.4857 -2.0159 -0.9746
 2850SOL    MW411475   3.464   2.283   4.828 -0.6611 -0.5262 -0.0939
 2851SOL     OW11476   4.465   1.760   4.513 -0.0826 -0.3730  0.1430
 2851SOL    HW211477   4.436   1.743   4.423  1.5799  0.6906 -0.6220
 2851SOL    HW311478   4.388   1.794   4.557 -1.0020 -1.1989 -0.8076
 2851SOL    MW411479   4.451   1.762   4.507  0.0153 -0.3415 -0.0830
 2852SOL     OW11480   3.724   2.491   4.441  0.1417 -0.0612 -0.5667
 2852SOL    HW211481   3.678   2.517   4.521  0.2839  1.5523 -0.9725
 2852SOL    HW311482   3.817   2.498   4.464  0.1837 -0.8314 -0.5007
 2852SOL    MW411483   3.730   2.496   4.455  0.1659  0.0503 -0.6108
 2853SOL     OW11484   3.641   2.969   4.456  0.2683  0.1887  0.2944
 2853SOL    HW211485   3.692   3.029   4.511 -1.0121  2.4738 -0.8915
 2853SOL    HW311486   3.576   2.931   4.515  0.8582  0.2516  0.9928
 2853SOL    MW411487   3.639   2.972   4.471  0.1769  0.4985  0.2298
 2854SOL     OW11488   4.041   2.820   4.472  0.5712 -0.3382 -0.2325
 2854SOL    HW211489   4.127   2.857   4.494  0.9746 -0.6300 -1.2823
 2854SOL    HW311490   3.984   2.847   4.544  1.2846  0.7978 -0.0807
 2854SOL    MW411491   4.045   2.829   4.484  0.7181 -0.2270 -0.3505
 2855SOL     OW11492   3.736   3.183   4.635  0.3139 -0.0924  0.4025
 2855SOL    HW211493   3.814   3.212   4.588 -0.2740 -0.4506 -0.8413
 2855SOL    HW311494   3.667   3.242   4.605 -0.1823 -0.6668  0.4026
 2855SOL    MW411495   3.737   3.194   4.624  0.1709 -0.2155  0.2384
 2856SOL     OW11496   3.494   3.321   4.513  0.3902  0.1524 -0.6697
 2856SOL    HW211497   3.407   3.283   4.524  0.3009  0.4549 -0.3191
 2856SOL    HW311498   3.512   3.312   4.419  0.7129 -1.4770 -0.4626
 2856SOL    MW411499   3.485   3.315   4.502  0.4210 -0.0226 -0.5960
 2857SOL     OW11500   4.315   3.568   4.507  0.3583  0.3186 -0.3992
 2857SOL    HW211501   4.268   3.582   4.425 -0.4342  0.1856  0.0233
 2857SOL    HW311502   4.284   3.638   4.564  0.7288  0.2670 -0.1338
 2857SOL    MW411503   4.305   3.579   4.504  0.3023  0.2942 -0.3080
 2858SOL     OW11504   3.265   3.256   4.819 -0.1962  0.3376  0.1160
 2858SOL    HW211505   3.237   3.346   4.837 -2.5534 -0.4690  0.6201
 2858SOL    HW311506   3.247   3.244   4.726  0.6587  0.5698 -0.0813
 2858SOL    MW411507   3.259   3.266   4.809 -0.3946  0.2620  0.1564
 2859SOL     OW11508   3.642   3.536   4.653  0.1756  0.0155  0.1919
 2859SOL    HW211509   3.572   3.487   4.609 -0.1673  1.4153 -0.8518
 2859SOL    HW311510   3.717   3.528   4.594  0.4341 -0.1506  0.5430
 2859SOL    MW411511   3.643   3.528   4.640  0.1645  0.1781  0.1001
 2860SOL     OW11512   4.142   3.134   4.627  0.1664 -0.0945 -0.1591
 2860SOL    HW211513   4.221   3.186   4.611  0.5688 -0.2720  1.2140
 2860SOL    HW311514   4.174   3.045   4.640 -0.3987 -0.4391 -1.0919
 2860SOL    MW411515   4.157   3.129   4.627  0.1454 -0.1633 -0.1006
 2861SOL     OW11516   4.394   3.890   4.808 -0.4391 -0.5368  0.0817
 2861SOL    HW211517   4.439   3.879   4.891  0.2808  0.5361 -0.1486
 2861SOL    HW311518   4.360   3.980   4.811 -1.1202 -0.7675 -0.4454
 2861SOL    MW411519   4.395   3.901   4.819 -0.4344 -0.4253 -0.0176
 2862SOL     OW11520   3.681   4.390   4.500  0.1218  0.2528 -0.0683
 2862SOL    HW211521   3.716   4.397   4.411  0.0475  0.8784 -0.0518
 2862SOL    HW311522   3.699   4.476   4.539  1.3296 -0.4596  0.9588
 2862SOL    MW411523   3.688   4.402   4.493  0.2716  0.2413  0.0696
 2863SOL     OW11524   3.391   4.439   4.525  0.3840 -0.2382 -0.2869
 2863SOL    HW211525   3.322   4.373   4.532  0.2771 -0.1462 -0.4606
 2863SOL    HW311526   3.471   4.389   4.509  0.0602 -0.2364 -1.9417
 2863SOL    MW411527   3.393   4.424   4.524  0.3271 -0.2260 -0.5283
 2864SOL     OW11528   4.359   0.937   4.647  0.4775 -0.0659 -0.0450
 2864SOL    HW211529   4.379   1.026   4.676 -1.1800  1.6002 -3.5989
 2864SOL    HW311530   4.430   0.915   4.587 -0.2408 -0.2477 -0.8356
 2864SOL    MW411531   4.371   0.946   4.643  0.1636  0.1299 -0.6180
 2865SOL     OW11532   4.187   0.721   4.618  0.3351 -0.5163 -0.0619
 2865SOL    HW211533   4.246   0.794   4.639  0.6081 -0.1946 -1.8659
 2865SOL    HW311534   4.118   0.761   4.566  0.7434 -1.6270 -1.4767
 2865SOL    MW411535   4.186   0.736   4.614  0.4244 -0.6204 -0.4869
 2866SOL     OW11536   0.163   0.221   4.695 -0.2604  0.3919 -0.0682
 2866SOL    HW211537   0.128   0.206   4.783 -0.3443  0.2786 -0.1202
 2866SOL    HW311538   0.216   0.300   4.703 -0.6371  0.6413 -0.0175
 2866SOL    MW411539   0.165   0.230   4.708 -0.3212  0.4099 -0.0682
 2867SOL     OW11540   0.282   0.718   4.555  0.1281 -0.1269 -0.1225
 2867SOL    HW211541   0.289   0.626   4.580  0.3539 -0.2595 -0.6766
 2867SOL    HW311542   0.192   0.726   4.523 -0.2705  0.1187  1.0134
 2867SOL    MW411543   0.271   0.707   4.554  0.1053 -0.1120 -0.0458
 2868SOL     OW11544   3.848   0.416   4.488  0.5137 -0.4510 -0.4076
 2868SOL    HW211545   3.909   0.445   4.555 -0.3881  2.0487 -0.6089
 2868SOL    HW311546   3.762   0.425   4.529  0.1223 -1.4909 -0.9915
 2868SOL    MW411547   3.845   0.421   4.502  0.3431 -0.2584 -0.5116
 2869SOL     OW11548   3.498   1.818   4.452  0.0626 -0.6258 -0.3394
 2869SOL    HW211549   3.579   1.870   4.454 -0.6017  0.4374 -0.2751
 2869SOL    HW311550   3.430   1.881   4.428 -0.9238 -1.2581  0.7389
 2869SOL    MW411551   3.499   1.833   4.449 -0.1552 -0.5689 -0.1888
 2870SOL     OW11552   0.304   0.442   4.567 -0.1400 -0.2216  0.3455
 2870SOL    HW211553   0.264   0.453   4.481  1.1209 -0.0621 -0.2298
 2870SOL    HW311554   0.396   0.424   4.549 -0.0061 -0.9150  1.6386
 2870SOL    MW411555   0.311   0.441   4.553  0.0440 -0.2921  0.4401
 2871SOL     OW11556   0.183   1.632   4.645 -0.4152 -0.0565 -0.3568
 2871SOL    HW211557   0.210   1.708   4.697  0.2850 -0.1514 -0.5758
 2871SOL    HW311558   0.096   1.655   4.614 -0.8494  0.0035  0.8558
 2871SOL    MW411559   0.175   1.645   4.648 -0.3801 -0.0612 -0.2260
 2872SOL     OW11560   4.223   1.870   4.630 -0.4156 -0.2842  0.2041
 2872SOL    HW211561   4.224   1.950   4.578  1.6962 -0.8338 -0.6582
 2872SOL    HW311562   4.149   1.820   4.596 -2.4671  1.7478  1.5134
 2872SOL    MW411563   4.214   1.874   4.619 -0.4077 -0.0886  0.2627
 2873SOL     OW11564   3.414   2.846   4.937  1.0068 -0.4420 -0.1798
 2873SOL    HW211565   3.504   2.853   4.906  1.1353  0.4436  0.3746
 2873SOL    HW311566   3.361   2.844   4.857  1.4261  0.4810 -0.4882
 2873SOL    MW411567   3.419   2.847   4.922  1.0791 -0.2034 -0.1473
 2874SOL     OW11568   4.270   2.067   4.217  0.0951  0.1291 -0.1328
 2874SOL    HW211569   4.200   2.018   4.174 -0.5905  2.0234 -1.2651
 2874SOL    HW311570   4.245   2.069   4.309 -0.6376 -0.3944 -0.3142
 2874SOL    MW411571   4.257   2.061   4.223 -0.0925  0.3099 -0.3061
 2875SOL     OW11572   4.241   2.119   4.503 -0.3534  0.0170  0.3819
 2875SOL    HW211573   4.316   2.167   4.538  1.1638 -0.7174 -1.7794
 2875SOL    HW311574   4.169   2.182   4.505  0.5059  0.9883  1.7023
 2875SOL    MW411575   4.242   2.134   4.508 -0.0401  0.0484  0.2708
 2876SOL     OW11576   3.770   1.821   4.550  0.1537  0.0995  0.2864
 2876SOL    HW211577   3.730   1.853   4.632 -0.8540 -0.7107  0.1241
 2876SOL    HW311578   3.720   1.742   4.529  0.6852  0.0772 -0.8928
 2876SOL    MW411579   3.758   1.815   4.558  0.0911 -0.0103  0.1101
 2877SOL     OW11580   3.696   2.730   4.292  0.2566 -0.3719  0.7219
 2877SOL    HW211581   3.687   2.807   4.348  0.7747  0.0706  0.2171
 2877SOL    HW311582   3.708   2.657   4.352 -0.8853 -0.1604  1.2282
 2877SOL    MW411583   3.696   2.731   4.307  0.1743 -0.2856  0.7224
 2878SOL     OW11584   3.512   3.121   4.924  0.2625  0.1704  0.1182
 2878SOL    HW211585   3.449   3.192   4.909  0.2471  0.0772 -0.2456
 2878SOL    HW311586   3.458   3.044   4.942  0.2700  0.8033  3.1131
 2878SOL    MW411587   3.497   3.120   4.925  0.2615  0.2418  0.4649
 2879SOL     OW11588   4.311   2.924   4.526  0.3047 -0.3037 -0.0483
 2879SOL    HW211589   4.330   3.015   4.503 -0.5276 -0.3899 -1.1131
 2879SOL    HW311590   4.360   2.872   4.463  0.3552 -0.5880  0.2227
 2879SOL    MW411591   4.320   2.929   4.515  0.2017 -0.3526 -0.1531
 2880SOL     OW11592   4.346   3.253   4.491  0.1298 -0.0323  0.3215
 2880SOL    HW211593   4.398   3.235   4.412 -0.1716  0.9391 -0.1060
 2880SOL    HW311594   4.356   3.347   4.505 -1.6899  0.2135  0.1000
 2880SOL    MW411595   4.354   3.263   4.482 -0.1493  0.1280  0.2360
 2881SOL     OW11596   0.280   3.664   4.513 -0.0211 -0.1216  0.3384
 2881SOL    HW211597   0.253   3.648   4.423  1.3274 -0.7327  0.0337
 2881SOL    HW311598   0.202   3.699   4.556 -1.0382 -1.0508 -0.7355
 2881SOL    MW411599   0.266   3.667   4.507  0.0226 -0.3250  0.1569
 2882SOL     OW11600   4.047   4.255   4.871 -0.3207  0.0863 -0.2706
 2882SOL    HW211601   4.029   4.165   4.844 -0.4997 -0.1317  0.5710
 2882SOL    HW311602   4.016   4.260   4.961  0.3770  0.7746 -0.0633
 2882SOL    MW411603   4.041   4.244   4.879 -0.2522  0.1483 -0.1326
 2883SOL     OW11604   3.567   0.141   4.585  0.0448  0.1717  0.0131
 2883SOL    HW211605   3.493   0.087   4.613  0.4834 -0.1524  0.5506
 2883SOL    HW311606   3.562   0.141   4.489  0.0163 -0.7836  0.0127
 2883SOL    MW411607   3.556   0.134   4.576  0.0989  0.0029  0.0839
 2884SOL     OW11608   4.184   3.774   4.658 -0.0146 -0.2498  0.1243
 2884SOL    HW211609   4.100   3.748   4.695 -0.5629  1.2282 -0.0373
 2884SOL    HW311610   4.233   3.810   4.732 -0.1882  0.4672 -0.1039
 2884SOL    MW411611   4.179   3.775   4.673 -0.1101  0.0396  0.0725
 2885SOL     OW11612   3.599   0.418   4.609  0.3254  0.4949  0.2328
 2885SOL    HW211613   3.510   0.451   4.594  1.1943  1.7715 -2.2608
 2885SOL    HW311614   3.589   0.322   4.608 -0.8323  0.6091 -1.3010
 2885SOL    MW411615   3.586   0.409   4.607  0.2875  0.6784 -0.2985
 2886SOL     OW11616   4.225   4.380   4.256 -0.2781  0.5880 -0.3781
 2886SOL    HW211617   4.309   4.354   4.217 -0.0432  1.9577 -0.8167
 2886SOL    HW311618   4.241   4.375   4.351 -0.3097 -1.0475 -0.4469
 2886SOL    MW411619   4.238   4.376   4.264 -0.2513  0.5527 -0.4454
 2887NA      NA11620   4.397   3.472   0.366  0.3660 -0.0422  0.0169
 2888NA      NA11621   3.285   0.891   0.555 -0.2853 -0.1614  0.2513
 2889NA      NA11622   2.001   2.845   0.444 -0.3708  0.2841 -0.0950
   4.49070   4.66690  10.00000
